/*--------------------------------*- C++ -*----------------------------------*\
  =========                 |
  \\      /  F ield         | OpenFOAM: The Open Source CFD Toolbox
   \\    /   O peration     | Website:  https://openfoam.org
    \\  /    A nd           | Version:  6.0
     \\/     M anipulation  |
\*---------------------------------------------------------------------------*/
FoamFile
{
    version     2.0;
    format      ascii;
    class       volVectorField;
    location    "12";
    object      U;
}
// * * * * * * * * * * * * * * * * * * * * * * * * * * * * * * * * * * * * * //

dimensions      [0 1 -1 0 0 0 0];

internalField   nonuniform List<vector> 
62000
(
(0.996153 -0.0876001 -4.88144e-21)
(0.996154 -0.0876097 4.01149e-21)
(0.996154 -0.087616 4.03252e-21)
(0.996154 -0.0876178 -1.73597e-20)
(0.996154 -0.0876164 -1.93995e-20)
(0.996155 -0.0876131 6.62062e-20)
(0.996155 -0.0876087 -7.14178e-20)
(0.996156 -0.0876037 4.08343e-20)
(0.996156 -0.0875989 -1.86744e-20)
(0.996156 -0.0875937 -9.33379e-20)
(0.996155 -0.0875892 -1.09527e-20)
(0.996154 -0.0875842 1.26267e-19)
(0.996153 -0.08758 2.49046e-20)
(0.996151 -0.0875758 -8.61759e-20)
(0.99615 -0.0875724 1.31466e-19)
(0.996147 -0.0875698 -6.87201e-20)
(0.996145 -0.0875677 6.86787e-20)
(0.996142 -0.0875668 -7.9848e-20)
(0.996139 -0.0875663 3.80446e-20)
(0.996136 -0.087567 -1.14354e-19)
(0.996133 -0.087568 1.46602e-19)
(0.996129 -0.0875699 4.06888e-20)
(0.996125 -0.087572 5.6478e-20)
(0.996121 -0.0875748 -2.60714e-19)
(0.996118 -0.0875776 9.35947e-20)
(0.996113 -0.087581 -5.40325e-20)
(0.996109 -0.087584 1.1786e-21)
(0.996105 -0.0875871 -3.87958e-20)
(0.9961 -0.0875892 1.25228e-19)
(0.996095 -0.0875903 -6.41154e-20)
(0.99609 -0.087589 1.49707e-19)
(0.996085 -0.0875866 -2.97843e-19)
(0.99608 -0.087584 3.05787e-20)
(0.996076 -0.0875834 -8.42669e-20)
(0.996073 -0.087582 -2.26746e-20)
(0.996069 -0.0875762 -7.90905e-20)
(0.996066 -0.087566 -1.19051e-20)
(0.996064 -0.087553 -1.15206e-20)
(0.996062 -0.087538 6.58355e-20)
(0.996063 -0.0875217 2.53963e-19)
(0.996066 -0.0875046 -5.46964e-20)
(0.996073 -0.087487 -2.71868e-19)
(0.996085 -0.0874683 -3.66996e-19)
(0.996104 -0.0874477 1.64097e-19)
(0.996131 -0.087423 4.19973e-20)
(0.996167 -0.0873912 -1.3563e-19)
(0.996214 -0.087349 1.87895e-20)
(0.99627 -0.0872921 -2.23225e-20)
(0.996336 -0.0872195 -5.12252e-21)
(0.996411 -0.0871258 2.48016e-20)
(0.996492 -0.087013 3.10158e-20)
(0.996586 -0.0868657 3.71973e-19)
(0.996685 -0.0866873 -1.26352e-19)
(0.996815 -0.0864342 -7.01717e-19)
(0.996966 -0.0860603 -2.03574e-19)
(0.997142 -0.0854865 -9.46913e-19)
(0.9973 -0.0845692 9.66557e-20)
(0.997461 -0.0832277 1.41701e-19)
(0.996193 -0.0817876 -4.81976e-19)
(1.0141 -0.0676623 -1.01291e-19)
(0.99614 -0.0877527 -1.31888e-21)
(0.996135 -0.0877719 1.24089e-20)
(0.996129 -0.0877965 5.01167e-21)
(0.996123 -0.0878169 -2.13698e-20)
(0.996119 -0.0878343 8.71082e-21)
(0.996116 -0.0878488 -5.88953e-20)
(0.996113 -0.0878596 5.31662e-20)
(0.996112 -0.0878668 3.00296e-20)
(0.996113 -0.0878719 -5.52377e-20)
(0.996113 -0.0878751 2.49956e-21)
(0.996114 -0.0878782 5.14095e-20)
(0.996115 -0.0878806 -8.01595e-23)
(0.996116 -0.0878835 1.39729e-20)
(0.996117 -0.0878864 -1.1902e-19)
(0.996118 -0.0878895 2.3391e-19)
(0.996119 -0.0878933 -2.03024e-19)
(0.99612 -0.0878971 9.30421e-20)
(0.996121 -0.0879018 -1.94439e-20)
(0.996122 -0.0879063 -5.08164e-20)
(0.996123 -0.0879114 1.36929e-19)
(0.996124 -0.0879157 -2.11849e-19)
(0.996124 -0.0879201 1.20397e-19)
(0.996125 -0.0879232 -1.48012e-19)
(0.996126 -0.0879258 8.75739e-20)
(0.996128 -0.0879265 7.69205e-20)
(0.996129 -0.0879264 -5.0063e-20)
(0.996131 -0.0879237 1.50534e-21)
(0.996132 -0.0879196 5.41588e-20)
(0.996135 -0.0879123 4.30151e-20)
(0.996137 -0.0879021 -7.94136e-20)
(0.996139 -0.0878868 1.59813e-19)
(0.99614 -0.0878681 2.78344e-20)
(0.996143 -0.0878504 8.83479e-20)
(0.996147 -0.0878376 1.70484e-21)
(0.996152 -0.0878256 1.91778e-20)
(0.996158 -0.0878102 -2.8629e-20)
(0.996167 -0.0877914 -7.16268e-20)
(0.996177 -0.0877715 -3.9873e-20)
(0.996192 -0.0877519 -1.68364e-19)
(0.996212 -0.087733 -1.66322e-19)
(0.996238 -0.0877143 1.2257e-19)
(0.996274 -0.0876939 6.75494e-20)
(0.996322 -0.0876682 3.88842e-19)
(0.996384 -0.0876325 1.3696e-20)
(0.996462 -0.08758 -3.86093e-19)
(0.996556 -0.087504 1.14179e-19)
(0.996664 -0.0874 6.4136e-20)
(0.996784 -0.0872634 1.96997e-20)
(0.996912 -0.0870995 3.07945e-20)
(0.997046 -0.0869058 1.68476e-20)
(0.997185 -0.0866929 -1.36197e-19)
(0.997336 -0.0864362 -5.11288e-19)
(0.997499 -0.0861369 4.28751e-19)
(0.997721 -0.0857216 1.40536e-18)
(0.997982 -0.0850971 4.17264e-19)
(0.998282 -0.0841509 3.10054e-19)
(0.998474 -0.082646 9.29065e-19)
(0.998688 -0.080715 5.01272e-19)
(0.998245 -0.0787611 -7.94273e-19)
(1.00288 -0.0721865 -3.69434e-19)
(0.996146 -0.0878056 -6.47583e-21)
(0.996134 -0.0878298 -8.76298e-22)
(0.996121 -0.0878627 9.98177e-22)
(0.996113 -0.0878907 4.36625e-21)
(0.996106 -0.0879188 1.20634e-20)
(0.9961 -0.0879463 -1.127e-20)
(0.996095 -0.0879704 5.86888e-20)
(0.996093 -0.0879886 -2.77284e-20)
(0.996092 -0.0880008 -1.45703e-20)
(0.996092 -0.0880075 -8.69564e-20)
(0.996094 -0.0880119 7.2215e-20)
(0.996097 -0.0880143 5.17165e-21)
(0.9961 -0.0880167 -1.57322e-20)
(0.996105 -0.088019 4.09243e-20)
(0.99611 -0.0880216 -6.86842e-20)
(0.996115 -0.0880249 6.90944e-22)
(0.996121 -0.0880283 -2.97618e-20)
(0.996128 -0.0880327 1.19061e-21)
(0.996135 -0.0880368 6.69265e-20)
(0.996143 -0.0880415 -9.92232e-20)
(0.996151 -0.0880452 6.10253e-20)
(0.996159 -0.0880487 2.27524e-19)
(0.996168 -0.0880508 -3.33229e-20)
(0.996177 -0.088052 -3.03036e-19)
(0.996186 -0.0880511 1.53559e-19)
(0.996197 -0.0880492 -7.82816e-20)
(0.996208 -0.0880444 1.25965e-19)
(0.99622 -0.0880383 -7.72747e-20)
(0.996232 -0.0880291 -1.4167e-19)
(0.996245 -0.0880171 1.44716e-19)
(0.996258 -0.0880004 -9.83191e-20)
(0.99627 -0.0879809 1.24988e-19)
(0.996284 -0.0879643 -3.29309e-19)
(0.996301 -0.0879549 2.77119e-19)
(0.99632 -0.0879495 -1.40415e-19)
(0.996341 -0.0879426 5.85031e-20)
(0.996365 -0.087935 4.40165e-20)
(0.996395 -0.0879284 7.50933e-21)
(0.996432 -0.0879233 3.27817e-21)
(0.996477 -0.0879185 1.86488e-19)
(0.996532 -0.0879113 -5.90224e-20)
(0.996601 -0.0878972 8.21028e-20)
(0.996686 -0.0878694 -2.48979e-19)
(0.996789 -0.08782 -1.00184e-19)
(0.99691 -0.0877397 7.61154e-20)
(0.99705 -0.0876203 -2.10898e-19)
(0.997203 -0.087459 1.7807e-20)
(0.997364 -0.0872546 -2.51833e-20)
(0.997527 -0.0870201 -4.98584e-20)
(0.997684 -0.0867615 -3.62103e-20)
(0.997833 -0.0865 -4.37632e-20)
(0.997975 -0.0862205 -9.83023e-21)
(0.998113 -0.0859254 -2.36834e-19)
(0.998295 -0.085558 3.95977e-20)
(0.998502 -0.0850166 6.92885e-19)
(0.998748 -0.0842092 4.1826e-19)
(0.998835 -0.082887 3.40128e-19)
(0.99902 -0.0812003 1.12979e-18)
(0.99889 -0.0799455 1.15631e-19)
(1.00486 -0.0743971 -1.33068e-19)
(0.996128 -0.0880315 -6.53937e-21)
(0.996112 -0.0880714 1.96448e-20)
(0.996102 -0.0881095 -2.99386e-21)
(0.996098 -0.0881406 -1.94269e-20)
(0.996095 -0.0881729 2.86392e-20)
(0.996093 -0.0882074 4.81105e-20)
(0.99609 -0.0882415 -6.18011e-20)
(0.996089 -0.0882706 6.51467e-21)
(0.996089 -0.0882913 2.02622e-20)
(0.99609 -0.0883026 4.10749e-20)
(0.996093 -0.0883076 -7.49263e-20)
(0.996096 -0.0883081 -2.22906e-20)
(0.9961 -0.0883074 -2.41527e-20)
(0.996106 -0.0883059 1.09086e-19)
(0.996112 -0.0883044 -7.10875e-20)
(0.996119 -0.0883035 1.60918e-19)
(0.996127 -0.088303 -1.9149e-19)
(0.996136 -0.0883037 -2.63502e-20)
(0.996146 -0.0883045 1.90961e-19)
(0.996156 -0.0883064 -6.5822e-20)
(0.996168 -0.0883081 -2.36523e-20)
(0.99618 -0.08831 -2.40766e-20)
(0.996194 -0.0883112 -2.09816e-19)
(0.996208 -0.088312 1.22153e-19)
(0.996222 -0.0883113 -4.97648e-20)
(0.996238 -0.0883102 8.26113e-20)
(0.996254 -0.088307 3.71506e-20)
(0.996272 -0.0883032 1.72012e-19)
(0.99629 -0.0882971 -1.0817e-19)
(0.996308 -0.088289 -1.31486e-19)
(0.996327 -0.088277 1.97693e-19)
(0.996345 -0.0882626 -1.59012e-19)
(0.996365 -0.0882532 2.76011e-19)
(0.996388 -0.0882527 -1.54413e-19)
(0.996413 -0.0882569 7.22558e-20)
(0.99644 -0.0882611 1.09256e-19)
(0.996472 -0.0882652 -4.13126e-20)
(0.99651 -0.0882707 3.6529e-20)
(0.996556 -0.0882773 -2.93754e-20)
(0.996612 -0.0882826 5.72147e-20)
(0.99668 -0.0882828 -1.50854e-19)
(0.996764 -0.0882714 3.46772e-20)
(0.996868 -0.0882401 6.05491e-20)
(0.996993 -0.0881792 1.41939e-19)
(0.997143 -0.0880779 1.10791e-19)
(0.997315 -0.0879273 -1.98772e-20)
(0.997508 -0.0877243 1.01932e-19)
(0.997714 -0.0874683 4.07914e-20)
(0.997929 -0.0871741 -2.92411e-21)
(0.998141 -0.0868493 5.45844e-20)
(0.998348 -0.086518 1.70898e-19)
(0.998539 -0.0861686 -1.43411e-19)
(0.998719 -0.0858015 -2.46411e-19)
(0.998929 -0.085372 -6.88241e-19)
(0.999153 -0.0847688 -4.95073e-19)
(0.999415 -0.0838976 -9.8552e-19)
(0.999498 -0.0824924 -1.89747e-18)
(0.99969 -0.0806035 1.35665e-19)
(0.999753 -0.0792538 9.82488e-19)
(1.00429 -0.0730572 8.26128e-19)
(0.996106 -0.0883305 1.28096e-20)
(0.996093 -0.0883808 -4.24006e-21)
(0.996088 -0.0884205 6.84161e-21)
(0.996089 -0.0884526 -9.55867e-21)
(0.996091 -0.0884841 2.07922e-20)
(0.996091 -0.0885191 -1.01882e-20)
(0.996093 -0.0885586 5.20007e-21)
(0.996095 -0.0885973 -7.67264e-20)
(0.996098 -0.088629 6.29154e-20)
(0.996102 -0.0886491 -1.21804e-19)
(0.996106 -0.0886598 1.31408e-19)
(0.996112 -0.0886633 -1.55903e-20)
(0.996117 -0.0886639 -3.31135e-20)
(0.996123 -0.0886631 -1.4448e-20)
(0.99613 -0.088662 -2.80916e-21)
(0.996138 -0.0886616 -1.40864e-19)
(0.996146 -0.0886615 8.24636e-21)
(0.996156 -0.0886627 1.47342e-19)
(0.996167 -0.088664 -4.59076e-20)
(0.996179 -0.0886666 -4.63249e-20)
(0.996192 -0.088669 7.821e-20)
(0.996207 -0.0886721 -3.65882e-20)
(0.996222 -0.0886746 1.52105e-19)
(0.996239 -0.0886772 7.8303e-20)
(0.996256 -0.0886787 5.56753e-20)
(0.996275 -0.0886804 -1.83069e-19)
(0.996295 -0.0886803 -2.49269e-20)
(0.996315 -0.0886801 -1.31583e-19)
(0.996337 -0.088678 2.54959e-20)
(0.996358 -0.0886743 -3.84007e-20)
(0.99638 -0.0886664 -1.47915e-20)
(0.996401 -0.0886568 1.13699e-19)
(0.996424 -0.0886521 -2.85466e-19)
(0.996448 -0.0886566 -1.45181e-20)
(0.996475 -0.0886667 -1.28895e-19)
(0.996504 -0.0886766 -5.94095e-20)
(0.996535 -0.088686 4.73438e-21)
(0.996572 -0.0886965 -1.66995e-19)
(0.996616 -0.0887073 2.31505e-19)
(0.99667 -0.0887163 4.5766e-20)
(0.996736 -0.0887194 2.16332e-19)
(0.996818 -0.08871 -1.3795e-19)
(0.996921 -0.0886794 -8.94434e-20)
(0.997049 -0.0886177 -1.01601e-20)
(0.997205 -0.0885138 1.00728e-19)
(0.997393 -0.0883575 9.79901e-20)
(0.997613 -0.088144 5.08649e-20)
(0.997861 -0.0878697 4.56572e-20)
(0.998135 -0.0875453 5.73563e-20)
(0.998424 -0.0871729 -1.14454e-19)
(0.998728 -0.0867697 -5.93598e-20)
(0.999026 -0.0863196 1.1425e-19)
(0.999321 -0.0858145 -1.32485e-21)
(0.999643 -0.0852136 -5.56523e-19)
(0.999968 -0.0843981 2.97249e-20)
(1.00032 -0.0832721 7.75991e-19)
(1.00046 -0.0815822 1.93564e-18)
(1.00063 -0.0793811 -1.79177e-18)
(1.00079 -0.0778642 7.93479e-19)
(1.00317 -0.0729487 -7.80571e-19)
(0.996123 -0.0886455 -4.93027e-21)
(0.996111 -0.0886964 1.9513e-20)
(0.996107 -0.0887369 -3.15005e-20)
(0.996108 -0.0887691 2.30463e-20)
(0.996108 -0.0887968 1.4557e-20)
(0.996107 -0.0888272 -1.52008e-20)
(0.996107 -0.0888657 1.20896e-21)
(0.996109 -0.0889094 -1.08419e-20)
(0.996113 -0.0889498 -3.54423e-20)
(0.996119 -0.0889791 6.66596e-20)
(0.996126 -0.0889966 -1.00569e-19)
(0.996134 -0.0890045 8.61749e-20)
(0.996142 -0.0890079 7.34432e-20)
(0.996151 -0.0890093 -1.1167e-19)
(0.996161 -0.0890105 -3.49835e-20)
(0.996171 -0.0890127 1.29474e-19)
(0.996183 -0.0890154 -1.52549e-19)
(0.996195 -0.0890195 2.0493e-19)
(0.996209 -0.089024 -3.94582e-20)
(0.996224 -0.0890297 1.96347e-20)
(0.996241 -0.0890354 -3.44277e-20)
(0.99626 -0.0890417 -4.1188e-20)
(0.99628 -0.0890475 -7.20663e-20)
(0.996302 -0.0890532 1.21128e-19)
(0.996325 -0.0890577 -8.20737e-20)
(0.99635 -0.0890622 -7.5615e-20)
(0.996376 -0.0890649 1.52572e-19)
(0.996403 -0.0890673 -1.39431e-19)
(0.996432 -0.0890677 2.14158e-19)
(0.996462 -0.0890659 -1.13554e-19)
(0.996491 -0.0890595 7.80708e-20)
(0.996521 -0.0890501 -1.30207e-19)
(0.996551 -0.0890455 1.30015e-19)
(0.996585 -0.0890497 -1.69195e-20)
(0.99662 -0.0890584 -8.08902e-21)
(0.996655 -0.0890665 -5.45155e-21)
(0.996693 -0.0890732 -6.02114e-20)
(0.996734 -0.0890798 1.47057e-19)
(0.996781 -0.0890861 -1.07212e-19)
(0.996836 -0.0890903 -5.51701e-19)
(0.996902 -0.0890891 -2.07723e-19)
(0.996983 -0.089077 1.29465e-19)
(0.997083 -0.0890464 -1.37208e-19)
(0.997208 -0.0889882 -1.17153e-19)
(0.997363 -0.0888917 -6.41808e-21)
(0.997555 -0.0887466 2.19967e-19)
(0.997787 -0.0885462 -2.36507e-19)
(0.998059 -0.0882832 -1.53427e-19)
(0.998375 -0.087962 -1.26758e-20)
(0.998726 -0.0875767 4.55465e-20)
(0.999111 -0.0871345 -4.79995e-20)
(0.999508 -0.0866109 6.73967e-20)
(0.999911 -0.0859903 6.89502e-19)
(1.00034 -0.0852361 -1.33516e-19)
(1.00076 -0.0842323 -3.2962e-19)
(1.00118 -0.0828955 6.49524e-19)
(1.00135 -0.0810179 -6.02455e-19)
(1.00146 -0.0787291 -3.36413e-19)
(1.0017 -0.0774276 -1.28388e-18)
(1.0024 -0.0736904 1.70246e-19)
(0.996174 -0.0889808 5.89765e-21)
(0.996155 -0.0890323 -2.60662e-20)
(0.996145 -0.0890774 1.25021e-20)
(0.996141 -0.0891134 2.27327e-20)
(0.996136 -0.0891396 -4.77046e-20)
(0.996131 -0.0891644 3.9165e-20)
(0.996128 -0.0891988 -2.54575e-20)
(0.996127 -0.0892433 2.11084e-20)
(0.996129 -0.0892894 3.26956e-20)
(0.996134 -0.0893259 -7.69189e-20)
(0.996142 -0.0893496 1.08239e-19)
(0.996152 -0.0893611 4.40572e-20)
(0.996163 -0.0893661 -1.74172e-19)
(0.996176 -0.0893682 -3.11074e-20)
(0.99619 -0.0893704 8.81494e-20)
(0.996205 -0.0893739 5.46683e-20)
(0.996222 -0.0893785 -6.53195e-20)
(0.99624 -0.0893849 5.51571e-20)
(0.996261 -0.0893919 8.24692e-20)
(0.996283 -0.0894004 -4.08238e-20)
(0.996307 -0.0894087 -2.26732e-20)
(0.996334 -0.0894174 7.56662e-20)
(0.996363 -0.0894255 1.49568e-19)
(0.996394 -0.0894331 -1.10305e-19)
(0.996427 -0.0894393 -1.14989e-19)
(0.996463 -0.0894451 1.22124e-19)
(0.996501 -0.0894485 -9.30285e-20)
(0.996542 -0.0894511 -3.41001e-20)
(0.996585 -0.0894511 2.85655e-19)
(0.996629 -0.0894481 -1.2203e-19)
(0.996675 -0.0894392 -8.43704e-20)
(0.996721 -0.0894264 1.1429e-19)
(0.996769 -0.0894167 7.39684e-20)
(0.996821 -0.0894142 -6.40421e-20)
(0.996875 -0.0894155 -4.07742e-20)
(0.996931 -0.0894147 1.18938e-19)
(0.996988 -0.089411 2.13554e-20)
(0.997047 -0.0894057 3.75983e-20)
(0.997112 -0.0893987 -1.73396e-19)
(0.997182 -0.089389 -1.52685e-19)
(0.997262 -0.0893745 2.83097e-19)
(0.997353 -0.0893515 1.95845e-19)
(0.99746 -0.0893139 2.84548e-19)
(0.997589 -0.0892545 -2.44039e-19)
(0.997746 -0.0891641 -2.3267e-19)
(0.997939 -0.0890333 -1.22816e-19)
(0.998173 -0.0888545 2.30726e-19)
(0.998453 -0.0886179 1.65425e-19)
(0.998786 -0.0883226 -9.94094e-20)
(0.999163 -0.0879555 -6.10109e-20)
(0.99959 -0.0875146 5.752e-20)
(1.00004 -0.0869682 -2.45297e-20)
(1.0005 -0.0862946 -3.00112e-20)
(1.00099 -0.0854639 3.05706e-19)
(1.00145 -0.0843693 -2.89956e-19)
(1.00189 -0.0829455 -2.43477e-19)
(1.00206 -0.081031 -4.03323e-19)
(1.0021 -0.0788185 1.04584e-18)
(1.00245 -0.0778177 1.23551e-19)
(1.00218 -0.0746854 1.79812e-19)
(0.996209 -0.0893625 -1.01058e-20)
(0.996177 -0.0894185 -7.881e-21)
(0.99616 -0.0894726 1.05766e-20)
(0.996154 -0.0895183 3.64839e-20)
(0.996147 -0.0895493 -7.69418e-20)
(0.996139 -0.0895733 8.61191e-20)
(0.996135 -0.0896048 -3.96179e-21)
(0.996133 -0.0896494 -5.2834e-21)
(0.996135 -0.0896998 -2.86431e-20)
(0.996139 -0.0897431 6.74597e-20)
(0.996146 -0.0897727 -1.01692e-19)
(0.996157 -0.0897876 3.74673e-20)
(0.996171 -0.0897932 -1.17348e-21)
(0.996188 -0.0897943 5.52286e-20)
(0.996206 -0.0897947 2.5167e-20)
(0.996227 -0.0897966 -1.33191e-19)
(0.99625 -0.0898001 1.12834e-19)
(0.996276 -0.0898056 4.2513e-20)
(0.996304 -0.0898124 -1.20189e-19)
(0.996335 -0.0898207 5.79035e-20)
(0.996369 -0.0898291 2.53515e-20)
(0.996405 -0.0898379 -1.74947e-20)
(0.996445 -0.089846 1.91205e-20)
(0.996489 -0.0898533 -1.21882e-20)
(0.996535 -0.0898589 -1.28145e-19)
(0.996586 -0.0898636 8.04904e-20)
(0.996639 -0.0898655 -1.1777e-19)
(0.996696 -0.0898658 2.12035e-19)
(0.996757 -0.0898629 -4.06864e-20)
(0.99682 -0.089856 -2.34015e-20)
(0.996887 -0.0898422 -7.20556e-21)
(0.996956 -0.0898226 1.82051e-19)
(0.997028 -0.0898048 -7.70243e-20)
(0.997105 -0.0897927 -4.55325e-20)
(0.997187 -0.0897821 1.00057e-19)
(0.997271 -0.0897683 7.83882e-20)
(0.997357 -0.0897499 -1.26347e-19)
(0.997446 -0.0897278 2.27126e-20)
(0.99754 -0.0897022 2.07778e-19)
(0.997639 -0.0896729 -1.83243e-20)
(0.997744 -0.0896391 1.12145e-19)
(0.997859 -0.0895986 -1.42588e-19)
(0.997987 -0.0895473 1.99944e-19)
(0.998132 -0.0894802 3.77671e-19)
(0.9983 -0.0893903 9.61528e-20)
(0.998499 -0.0892695 -1.11159e-19)
(0.998736 -0.0891108 -2.68126e-19)
(0.999017 -0.0889028 4.45093e-20)
(0.999351 -0.088641 2.97458e-20)
(0.999732 -0.088307 -1.01369e-20)
(1.00017 -0.0878919 3.75989e-20)
(1.00063 -0.0873577 1.01691e-19)
(1.0011 -0.0866787 -1.55526e-19)
(1.0016 -0.0858318 1.56292e-19)
(1.00207 -0.084719 -3.02794e-19)
(1.00251 -0.0832877 -1.34667e-19)
(1.00266 -0.0814044 -4.78047e-19)
(1.00265 -0.0792843 -5.24219e-19)
(1.00314 -0.0784551 1.05754e-19)
(1.00242 -0.0754973 3.24006e-19)
(0.996183 -0.0898214 -5.00246e-21)
(0.996139 -0.089883 4.22463e-21)
(0.996122 -0.0899467 2.07155e-20)
(0.996121 -0.090005 3.20153e-20)
(0.996117 -0.0900457 -9.29313e-20)
(0.996113 -0.090073 5.23139e-20)
(0.996113 -0.0901043 -9.10843e-20)
(0.996116 -0.0901491 1.39353e-19)
(0.99612 -0.0902033 -6.37951e-20)
(0.996127 -0.0902528 1.09323e-20)
(0.996136 -0.0902887 1.16112e-19)
(0.996149 -0.0903077 -2.58425e-19)
(0.996166 -0.0903146 1.71799e-19)
(0.996185 -0.0903144 2.28997e-20)
(0.996208 -0.0903122 3.62678e-20)
(0.996234 -0.090311 -1.50722e-19)
(0.996262 -0.0903113 7.20325e-20)
(0.996295 -0.0903138 -8.63988e-20)
(0.99633 -0.0903177 1.65581e-19)
(0.996369 -0.0903233 -2.35956e-20)
(0.996412 -0.090329 -1.98496e-19)
(0.996459 -0.0903352 7.62215e-20)
(0.99651 -0.0903406 -4.73213e-21)
(0.996565 -0.0903451 -2.5958e-19)
(0.996625 -0.0903478 1.93496e-19)
(0.996689 -0.0903492 1.38437e-19)
(0.996757 -0.0903475 8.88804e-20)
(0.99683 -0.0903439 -1.12258e-19)
(0.996908 -0.0903365 -1.14791e-19)
(0.996991 -0.0903245 5.1787e-20)
(0.997079 -0.0903045 7.5349e-20)
(0.99717 -0.0902778 -8.47997e-20)
(0.997267 -0.0902511 -1.17805e-19)
(0.997371 -0.0902282 2.45771e-19)
(0.997481 -0.090206 1.96891e-20)
(0.997596 -0.0901787 -3.17482e-19)
(0.997714 -0.0901454 2.67619e-20)
(0.997837 -0.0901067 1.8656e-19)
(0.997965 -0.0900628 1.84017e-20)
(0.998098 -0.0900138 2.11602e-19)
(0.998238 -0.0899599 -2.42514e-19)
(0.998386 -0.0899005 -8.17328e-21)
(0.998544 -0.0898332 -1.33967e-19)
(0.998715 -0.0897551 4.34768e-20)
(0.998905 -0.0896611 1.64737e-19)
(0.99912 -0.0895449 4.3668e-19)
(0.999367 -0.0894001 3.96798e-20)
(0.999653 -0.089215 -1.78467e-19)
(0.999987 -0.0889828 1.03505e-19)
(1.00037 -0.0886811 2.10021e-19)
(1.0008 -0.0882958 -6.92682e-20)
(1.00125 -0.0877842 -4.90486e-20)
(1.00172 -0.0871169 1.2225e-19)
(1.00222 -0.086275 1.2025e-20)
(1.00268 -0.0851672 5.64885e-19)
(1.0031 -0.0837454 2.34538e-20)
(1.00324 -0.0818866 2.39072e-19)
(1.00322 -0.0798057 1.12664e-19)
(1.00383 -0.0790136 3.58168e-19)
(1.00291 -0.0760226 3.45054e-19)
(0.996083 -0.0903793 7.10794e-21)
(0.996037 -0.0904435 2.42321e-21)
(0.996032 -0.0905121 -2.47488e-20)
(0.996042 -0.0905808 2.31037e-20)
(0.996048 -0.0906319 -1.00243e-20)
(0.996054 -0.0906656 1.74632e-20)
(0.996063 -0.0906987 5.78128e-21)
(0.996076 -0.0907448 -8.32213e-20)
(0.996089 -0.0908021 3.5537e-20)
(0.996102 -0.0908575 -2.3229e-20)
(0.996117 -0.0908999 1.40917e-20)
(0.996134 -0.0909239 5.23347e-20)
(0.996154 -0.0909329 -9.80275e-21)
(0.996177 -0.090932 3.00912e-20)
(0.996203 -0.0909271 -1.24359e-19)
(0.996233 -0.0909219 4.72101e-20)
(0.996266 -0.0909179 1.97388e-20)
(0.996303 -0.0909157 -5.27409e-20)
(0.996344 -0.0909151 1.01656e-19)
(0.99639 -0.0909162 3.15492e-20)
(0.99644 -0.0909175 -4.32575e-21)
(0.996494 -0.0909193 -3.4265e-20)
(0.996553 -0.0909205 1.27984e-19)
(0.996618 -0.0909207 -3.40268e-19)
(0.996687 -0.0909192 1.7536e-19)
(0.996762 -0.0909162 7.10711e-20)
(0.996842 -0.0909101 -1.11267e-19)
(0.996929 -0.0909018 1.90032e-19)
(0.997021 -0.0908896 -9.22593e-20)
(0.99712 -0.0908725 -4.36242e-20)
(0.997224 -0.090847 -7.70086e-20)
(0.997335 -0.0908138 -3.02613e-20)
(0.997453 -0.0907797 8.42552e-20)
(0.99758 -0.0907486 -2.34338e-19)
(0.997715 -0.0907164 4.28593e-19)
(0.997857 -0.0906786 -3.4063e-20)
(0.998005 -0.0906337 1.84222e-19)
(0.998159 -0.090582 -4.56679e-19)
(0.99832 -0.0905237 -1.22662e-19)
(0.998488 -0.0904592 1.41036e-20)
(0.998664 -0.0903891 -8.36063e-20)
(0.998848 -0.0903139 -6.42956e-21)
(0.999041 -0.0902327 -2.44475e-19)
(0.999246 -0.0901439 9.16617e-20)
(0.999466 -0.0900441 9.61725e-20)
(0.999707 -0.0899284 -4.08154e-19)
(0.999976 -0.0897908 4.70687e-19)
(1.00028 -0.0896196 5.28473e-20)
(1.00062 -0.089406 4.33188e-20)
(1.00101 -0.0891254 -2.02076e-19)
(1.00144 -0.0887592 2.96116e-21)
(1.00189 -0.0882607 1.21525e-20)
(1.00236 -0.0875975 5.25626e-20)
(1.00284 -0.0867532 -1.18591e-19)
(1.0033 -0.08564 -1.25707e-19)
(1.00372 -0.0842088 -1.15947e-20)
(1.00387 -0.0823386 -9.05575e-20)
(1.00385 -0.0802394 -1.0804e-19)
(1.00455 -0.0794118 -1.03859e-18)
(1.00354 -0.0763186 -1.91748e-19)
(0.995927 -0.091031 -1.61227e-21)
(0.99589 -0.0910924 -6.19602e-21)
(0.995903 -0.0911589 -5.2711e-21)
(0.99593 -0.0912319 4.99583e-20)
(0.995951 -0.0912901 -2.71976e-20)
(0.995969 -0.0913291 -3.18519e-20)
(0.995992 -0.0913645 -1.15677e-20)
(0.996018 -0.0914115 -4.66033e-20)
(0.996044 -0.0914714 2.89041e-20)
(0.996069 -0.0915319 4.26577e-21)
(0.996093 -0.0915807 1.67183e-21)
(0.996117 -0.0916107 1.12904e-19)
(0.996143 -0.0916238 -7.82399e-20)
(0.99617 -0.0916243 -9.19286e-21)
(0.9962 -0.0916186 8.45443e-20)
(0.996233 -0.0916111 -4.57705e-20)
(0.99627 -0.0916038 -1.70877e-20)
(0.996311 -0.0915979 2.6633e-20)
(0.996355 -0.0915932 8.29579e-20)
(0.996404 -0.09159 4.29139e-20)
(0.996459 -0.0915868 1.35021e-20)
(0.996518 -0.0915841 -1.06511e-19)
(0.996583 -0.0915808 5.16111e-20)
(0.996653 -0.0915763 9.31294e-20)
(0.996729 -0.0915703 -1.93811e-19)
(0.996811 -0.091563 5.85038e-20)
(0.996899 -0.0915525 -2.28258e-19)
(0.996994 -0.0915402 1.8051e-19)
(0.997097 -0.0915238 1.47976e-19)
(0.997206 -0.091503 -2.23152e-19)
(0.997323 -0.0914734 -1.05487e-19)
(0.997448 -0.0914363 1.29864e-19)
(0.997581 -0.0913974 4.28859e-20)
(0.997725 -0.0913607 -1.00856e-19)
(0.997879 -0.0913228 -1.29405e-19)
(0.998043 -0.0912785 -1.43278e-19)
(0.998215 -0.091227 9.02008e-20)
(0.998396 -0.091168 1.94375e-19)
(0.998586 -0.0911014 6.94948e-20)
(0.998785 -0.0910277 -3.97298e-20)
(0.998993 -0.0909477 5.0013e-19)
(0.999212 -0.0908624 -7.16795e-20)
(0.999442 -0.0907717 4.20814e-19)
(0.999684 -0.0906749 -6.83136e-19)
(0.999941 -0.0905695 1.32531e-19)
(1.00022 -0.0904514 9.36353e-21)
(1.00052 -0.0903149 3.01314e-20)
(1.00085 -0.0901477 -3.48418e-19)
(1.00121 -0.08994 -4.4231e-19)
(1.00162 -0.0896646 3.45709e-19)
(1.00206 -0.0893002 3.83143e-19)
(1.00253 -0.0887966 1.91422e-19)
(1.003 -0.0881184 -1.41499e-19)
(1.00349 -0.0872504 5.6349e-20)
(1.00395 -0.086107 -4.39336e-20)
(1.00438 -0.0846368 2.07389e-19)
(1.00455 -0.0827176 9.125e-20)
(1.00454 -0.0805605 2.04462e-19)
(1.0053 -0.079667 1.43347e-18)
(1.00419 -0.0764476 -1.53002e-18)
(0.995742 -0.0917496 2.13028e-21)
(0.995721 -0.0918034 -6.25878e-21)
(0.995754 -0.0918622 2.19259e-20)
(0.9958 -0.0919337 5.57152e-21)
(0.995836 -0.0919949 -2.88877e-20)
(0.995869 -0.0920376 -3.24568e-20)
(0.995907 -0.0920746 7.52307e-20)
(0.995948 -0.0921224 -8.01246e-20)
(0.99599 -0.0921841 -1.89267e-20)
(0.996029 -0.0922487 4.72459e-20)
(0.996065 -0.0923037 4.24018e-20)
(0.996099 -0.0923403 1.25197e-19)
(0.996133 -0.0923587 -6.96026e-20)
(0.996167 -0.0923627 -1.15274e-19)
(0.996202 -0.0923585 2.49199e-20)
(0.99624 -0.0923508 -8.83638e-20)
(0.99628 -0.0923423 6.57941e-20)
(0.996323 -0.0923342 -1.055e-19)
(0.996371 -0.0923271 1.82358e-20)
(0.996423 -0.0923211 -3.1438e-20)
(0.996479 -0.092315 -1.82247e-20)
(0.996541 -0.0923091 -8.18212e-20)
(0.996608 -0.0923027 1.04523e-20)
(0.996682 -0.0922949 1.72942e-19)
(0.996761 -0.0922858 -5.76791e-20)
(0.996847 -0.0922753 1.83056e-20)
(0.99694 -0.092262 5.02028e-20)
(0.99704 -0.092247 -5.95334e-20)
(0.997148 -0.0922283 -1.27118e-20)
(0.997264 -0.0922055 7.81332e-20)
(0.997388 -0.0921744 8.23086e-20)
(0.997522 -0.0921358 -5.70276e-20)
(0.997665 -0.0920955 -1.82238e-19)
(0.997821 -0.0920574 -2.53226e-19)
(0.997988 -0.0920177 3.61473e-19)
(0.998167 -0.0919717 1.00804e-19)
(0.998357 -0.0919188 6.76292e-20)
(0.998559 -0.0918581 2.82268e-19)
(0.998772 -0.0917893 -2.24396e-19)
(0.998997 -0.0917129 1.38301e-19)
(0.999235 -0.0916294 2.21416e-20)
(0.999486 -0.09154 -1.30602e-20)
(0.999751 -0.0914447 -1.53563e-19)
(1.00003 -0.0913433 3.49407e-19)
(1.00033 -0.0912335 -4.3884e-19)
(1.00064 -0.0911111 2.39133e-19)
(1.00098 -0.0909705 -5.74897e-19)
(1.00135 -0.0907987 7.605e-20)
(1.00176 -0.0905842 2.46322e-19)
(1.00219 -0.0902984 -4.00736e-19)
(1.00267 -0.0899174 2.37018e-20)
(1.00315 -0.0893884 8.80519e-20)
(1.00365 -0.0886733 -1.29558e-19)
(1.00416 -0.0877582 -2.02799e-19)
(1.00464 -0.0865594 -1.03287e-20)
(1.00509 -0.0850233 4.22223e-19)
(1.00528 -0.0830272 -3.24846e-19)
(1.00528 -0.0807898 -1.04908e-19)
(1.00607 -0.0798234 -9.87752e-20)
(1.00485 -0.0764822 1.28934e-18)
(0.995556 -0.0924949 4.06248e-21)
(0.995552 -0.0925403 -3.36925e-21)
(0.995602 -0.0925904 3.02204e-21)
(0.995664 -0.0926571 1.89605e-20)
(0.995714 -0.0927175 2.69432e-20)
(0.99576 -0.0927608 -1.0309e-19)
(0.995813 -0.0927981 7.29614e-20)
(0.99587 -0.0928453 1.47524e-20)
(0.995928 -0.0929076 -4.50941e-21)
(0.995982 -0.0929749 -3.07041e-20)
(0.996033 -0.093035 9.12715e-20)
(0.996079 -0.0930781 -2.93592e-20)
(0.996123 -0.0931031 -3.93039e-20)
(0.996166 -0.0931127 -1.1366e-19)
(0.996209 -0.0931126 2.21551e-19)
(0.996252 -0.0931078 -4.55253e-20)
(0.996297 -0.0931011 -3.6741e-20)
(0.996344 -0.0930942 -1.05005e-19)
(0.996394 -0.0930875 1.13285e-19)
(0.996448 -0.0930816 6.0152e-20)
(0.996507 -0.0930751 -2.85204e-20)
(0.99657 -0.0930686 4.36959e-20)
(0.996638 -0.0930614 -1.85726e-19)
(0.996713 -0.0930526 1.4319e-20)
(0.996793 -0.0930426 9.6872e-20)
(0.996881 -0.0930313 -1.72682e-20)
(0.996975 -0.0930174 -2.75987e-19)
(0.997078 -0.0930022 2.79597e-20)
(0.997188 -0.0929835 2.3116e-19)
(0.997307 -0.0929615 -6.14527e-20)
(0.997436 -0.0929315 -1.09996e-19)
(0.997574 -0.0928949 6.62838e-20)
(0.997724 -0.0928565 1.73771e-19)
(0.997887 -0.0928201 3.87752e-19)
(0.998064 -0.092783 -5.58107e-20)
(0.998253 -0.0927396 7.7267e-20)
(0.998456 -0.0926899 -5.28327e-19)
(0.998674 -0.0926326 -1.25554e-19)
(0.998905 -0.0925671 8.01411e-20)
(0.999152 -0.0924935 -3.29872e-19)
(0.999416 -0.0924122 -4.96414e-20)
(0.999696 -0.0923237 1.30021e-19)
(0.999994 -0.0922283 1.34347e-19)
(1.00031 -0.0921251 2.797e-19)
(1.00065 -0.0920119 7.69432e-19)
(1.00101 -0.0918839 -5.50123e-19)
(1.00139 -0.0917349 8.21804e-19)
(1.0018 -0.0915509 5.29184e-19)
(1.00225 -0.0913192 -1.4277e-20)
(1.00273 -0.0910095 5.95128e-19)
(1.00325 -0.0905962 -6.63142e-19)
(1.00377 -0.0900244 -7.26553e-19)
(1.0043 -0.089254 5.26519e-19)
(1.00484 -0.0882722 4.25772e-19)
(1.00535 -0.0869977 -2.19141e-19)
(1.00583 -0.085376 -9.54322e-19)
(1.00605 -0.0832857 2.21803e-19)
(1.00605 -0.0809572 -4.68955e-19)
(1.00686 -0.0799169 -1.00141e-18)
(1.00549 -0.0764496 1.39692e-18)
(0.995386 -0.0932335 -4.48429e-21)
(0.995395 -0.093271 4.82041e-21)
(0.995457 -0.0933122 3.21726e-20)
(0.995532 -0.0933724 -4.11978e-20)
(0.995593 -0.0934301 7.32363e-20)
(0.995651 -0.0934732 -1.05353e-19)
(0.995716 -0.0935101 2.92229e-20)
(0.995787 -0.0935568 -1.31679e-21)
(0.995859 -0.093619 6.16428e-20)
(0.995928 -0.0936881 -3.18813e-20)
(0.995993 -0.0937521 9.14869e-21)
(0.996053 -0.0938009 9.00344e-21)
(0.996109 -0.0938323 -1.39061e-19)
(0.996162 -0.0938481 4.11345e-20)
(0.996214 -0.0938535 9.15657e-20)
(0.996265 -0.0938534 2.47445e-21)
(0.996316 -0.0938509 -1.44254e-19)
(0.996368 -0.0938474 5.83956e-20)
(0.996422 -0.093844 2.58971e-19)
(0.996479 -0.0938412 -1.6665e-19)
(0.996539 -0.0938375 -1.21677e-19)
(0.996604 -0.0938336 9.99764e-20)
(0.996673 -0.0938289 6.22206e-20)
(0.996749 -0.0938224 6.55555e-20)
(0.99683 -0.0938148 -1.263e-19)
(0.996917 -0.0938058 -2.59304e-19)
(0.997012 -0.0937943 1.93705e-19)
(0.997115 -0.0937818 2.59468e-19)
(0.997227 -0.0937662 6.81138e-20)
(0.997348 -0.0937478 -1.39711e-19)
(0.997479 -0.0937222 5.87188e-20)
(0.99762 -0.0936903 9.88989e-20)
(0.997774 -0.0936571 -1.6172e-19)
(0.997942 -0.0936265 -2.32291e-20)
(0.998124 -0.093595 -2.60757e-19)
(0.998322 -0.093558 -5.656e-20)
(0.998535 -0.0935154 -6.41963e-20)
(0.998764 -0.0934655 1.50811e-19)
(0.999012 -0.0934073 -2.16788e-19)
(0.999277 -0.0933407 4.87165e-20)
(0.999563 -0.0932656 9.77611e-20)
(0.999869 -0.0931818 2.64335e-20)
(1.0002 -0.0930891 -4.51974e-19)
(1.00055 -0.0929863 -5.96342e-19)
(1.00092 -0.0928702 -4.40582e-19)
(1.00133 -0.0927355 8.93979e-19)
(1.00176 -0.0925746 1.20495e-19)
(1.00222 -0.0923728 -2.80865e-19)
(1.00272 -0.0921156 1.51483e-19)
(1.00325 -0.0917718 -8.19754e-19)
(1.00381 -0.0913142 3.46033e-19)
(1.00438 -0.0906865 9.186e-19)
(1.00495 -0.0898474 3.04643e-20)
(1.00553 -0.0887852 -7.31962e-19)
(1.00607 -0.0874219 3.01791e-19)
(1.00659 -0.0857035 2.85771e-19)
(1.00683 -0.0835103 4.9906e-19)
(1.00684 -0.0810866 1.4512e-18)
(1.00766 -0.0799757 2.21608e-18)
(1.00611 -0.0763896 -3.25223e-18)
(0.995235 -0.0939376 -3.8954e-21)
(0.995252 -0.0939684 5.51761e-21)
(0.995322 -0.0940015 1.12822e-21)
(0.995404 -0.0940542 2.01489e-20)
(0.995474 -0.0941074 -2.99537e-20)
(0.99554 -0.0941483 -5.99602e-20)
(0.995615 -0.0941841 2.11164e-20)
(0.995697 -0.0942297 -2.71181e-20)
(0.995782 -0.0942915 5.80317e-20)
(0.995864 -0.0943617 -1.13158e-20)
(0.995942 -0.0944289 -3.63208e-20)
(0.996014 -0.0944828 2.95321e-20)
(0.996082 -0.0945206 4.63985e-20)
(0.996147 -0.0945435 1.24363e-19)
(0.996209 -0.0945559 -2.21092e-19)
(0.996268 -0.0945627 1.0976e-19)
(0.996327 -0.0945666 1.55224e-20)
(0.996386 -0.0945696 -1.02218e-19)
(0.996445 -0.0945723 -6.12189e-20)
(0.996507 -0.0945756 1.96768e-19)
(0.996571 -0.0945779 -1.99841e-19)
(0.996638 -0.0945798 5.93074e-20)