/*--------------------------------*- C++ -*----------------------------------*\
  =========                 |
  \\      /  F ield         | OpenFOAM: The Open Source CFD Toolbox
   \\    /   O peration     | Website:  https://openfoam.org
    \\  /    A nd           | Version:  6.0
     \\/     M anipulation  |
\*---------------------------------------------------------------------------*/
FoamFile
{
    version     2.0;
    format      ascii;
    class       surfaceScalarField;
    location    "6";
    object      phi;
}
// * * * * * * * * * * * * * * * * * * * * * * * * * * * * * * * * * * * * * //

dimensions      [0 3 -1 0 0 0 0];

internalField   nonuniform List<scalar> 
123526
(
8.16875e-05
2.26059e-05
-8.1301e-05
8.21099e-05
2.4429e-05
8.25611e-05
2.64004e-05
8.30544e-05
2.85319e-05
8.35807e-05
3.08349e-05
8.41545e-05
3.33226e-05
8.47682e-05
3.60094e-05
8.5437e-05
3.89108e-05
8.61539e-05
4.20426e-05
8.69359e-05
4.54246e-05
8.77736e-05
4.90761e-05
8.86866e-05
5.30175e-05
8.96652e-05
5.7271e-05
9.07339e-05
6.18587e-05
9.1883e-05
6.68072e-05
9.31345e-05
7.21476e-05
9.44785e-05
7.79064e-05
9.59457e-05
8.41095e-05
9.75262e-05
9.07973e-05
9.92424e-05
9.80058e-05
0.000101095
0.000105763
0.00010311
0.000114116
0.000105279
0.000123108
0.000107639
0.000132768
0.000110184
0.00014316
0.000112942
0.000154317
0.000115921
0.000166288
0.000119144
0.000179128
0.000122626
0.000192875
0.000126387
0.000207587
0.00013045
0.000223297
0.000134831
0.000240058
0.000139554
0.0002579
0.00014464
0.000276851
0.000150116
0.000296932
0.000156009
0.000318139
0.000162341
0.000340462
0.000169134
0.000363857
0.000176412
0.000388251
0.000184191
0.000413533
0.000192487
0.000439536
0.000201311
0.000466034
0.000210666
0.000492723
0.000220546
0.000519198
0.000230934
0.000544939
0.000241801
0.000569274
0.000253098
0.000591347
0.000264759
0.000610079
0.000276688
0.000624109
0.000288761
0.000631741
0.000300809
0.000630876
0.000312616
0.000618943
0.000323901
0.000592806
0.000334315
0.000548691
0.000343419
0.00048209
0.000350667
0.000387744
0.000355368
0.000259375
0.000356932
8.77447e-05
0.000367088
-0.000138135
-0.000394842
0.000398246
8.01948e-05
2.22216e-05
-7.98068e-05
8.06161e-05
2.40132e-05
8.10644e-05
2.59524e-05
8.15516e-05
2.80495e-05
8.20717e-05
3.03149e-05
8.26372e-05
3.27615e-05
8.32432e-05
3.54034e-05
8.39027e-05
3.82558e-05
8.46112e-05
4.13336e-05
8.53828e-05
4.46576e-05
8.62107e-05
4.82472e-05
8.71115e-05
5.21215e-05
8.8078e-05
5.63026e-05
8.91317e-05
6.08097e-05
9.0266e-05
6.56707e-05
9.1499e-05
7.0919e-05
9.28248e-05
7.65781e-05
9.42696e-05
8.26683e-05
9.5828e-05
8.92363e-05
9.75182e-05
9.63182e-05
9.93454e-05
0.000103933
0.00010133
0.000112133
0.00010347
0.000120965
0.000105796
0.000130442
0.000108308
0.000140645
0.000111029
0.000151594
0.000113973
0.000163342
0.000117155
0.000175944
0.000120597
0.00018943
0.000124314
0.000203867
0.000128331
0.000219278
0.000132664
0.000235723
0.000137335
0.000253222
0.000142366
0.000271812
0.000147782
0.000291508
0.000153609
0.000312305
0.000159865
0.0003342
0.000166574
0.000357142
0.000173756
0.000381063
0.000181426
0.000405856
0.000189598
0.000431357
0.00019828
0.000457344
0.000207475
0.00048352
0.000217176
0.000509489
0.000227366
0.00053474
0.000238015
0.000558614
0.000249078
0.000580272
0.00026049
0.000598653
0.000272161
0.000612422
0.000283968
0.000619913
0.00029575
0.000619069
0.000307294
0.000607363
0.000318323
0.000581726
0.000328493
0.000538462
0.000337368
0.00047314
0.000344411
0.000380598
0.000348923
0.000254677
0.000351188
8.516e-05
0.000348746
-0.000136105
-0.000389038
0.00034265
8.03373e-05
2.18402e-05
-7.99523e-05
8.07509e-05
2.36047e-05
8.11886e-05
2.55152e-05
8.1661e-05
2.75814e-05
8.21629e-05
2.98133e-05
8.27053e-05
3.22232e-05
8.32841e-05
3.48249e-05
8.3911e-05
3.7633e-05
8.45829e-05
4.06614e-05
8.53128e-05
4.39321e-05
8.60951e-05
4.74641e-05
8.69457e-05
5.12756e-05
8.78587e-05
5.53881e-05
8.88547e-05
5.98184e-05
8.99284e-05
6.4595e-05
9.10976e-05
6.97541e-05
9.23577e-05
7.5316e-05
9.3734e-05
8.12955e-05
9.52229e-05
8.77454e-05
9.68417e-05
9.47021e-05
9.8597e-05
0.000102176
0.000100508
0.000110223
0.000102575
0.000118896
0.000104827
0.000128191
0.000107265
0.000138205
0.000109911
0.000148948
0.000112778
0.000160472
0.000115884
0.000172837
0.000119248
0.000186063
0.000122886
0.000200227
0.000126822
0.000215341
0.00013107
0.000231471
0.000135654
0.000248634
0.000140593
0.000266865
0.000145912
0.000286184
0.000151634
0.000306578
0.000157777
0.000328051
0.000164362
0.000350551
0.000171408
0.000374012
0.000178929
0.000398329
0.000186937
0.000423342
0.00019544
0.000448835
0.000204439
0.000474515
0.000213927
0.000499996
0.000223888
0.000524774
0.000234294
0.000548204
0.0002451
0.000569461
0.000256247
0.000587504
0.000267644
0.000601021
0.000279176
0.000608379
0.000290685
0.000607555
0.000301964
0.000596073
0.000312743
0.000570917
0.000322687
0.000528464
0.000331373
0.000464372
0.000338307
0.000373562
0.000342858
0.000249975
0.000344827
8.30101e-05
0.000344056
-0.0001355
-0.00038645
0.000341334
8.03792e-05
2.14717e-05
-8.00084e-05
8.0779e-05
2.3209e-05
8.12046e-05
2.50896e-05
8.1666e-05
2.71235e-05
8.21585e-05
2.93208e-05
8.26917e-05
3.16935e-05
8.32617e-05
3.42549e-05
8.38791e-05
3.70193e-05
8.45406e-05
3.99996e-05
8.5258e-05
4.32186e-05
8.60259e-05
4.66954e-05
8.68587e-05
5.04469e-05
8.77512e-05
5.44942e-05
8.87222e-05
5.88516e-05
8.97673e-05
6.35481e-05
9.09028e-05
6.86225e-05
9.2125e-05
7.4092e-05
9.34582e-05
7.99656e-05
9.48995e-05
8.63024e-05
9.64656e-05
9.31386e-05
9.81641e-05
0.000100476
0.000100014
0.000108376
0.000102016
0.000116892
0.000104198
0.000126009
0.000106562
0.000135839
0.000109131
0.000146379
0.000111919
0.000157683
0.00011494
0.000169814
0.000118217
0.000182784
0.000121763
0.00019668
0.000125603
0.0002115
0.00012975
0.000227322
0.000134227
0.000244152
0.000139054
0.000262032
0.000144253
0.000280979
0.000149848
0.000300979
0.000155855
0.00032204
0.000162293
0.000344108
0.000169181
0.000367119
0.000176532
0.000390972
0.000184359
0.000415509
0.000192666
0.00044052
0.000201456
0.000465717
0.000210721
0.00049072
0.000220448
0.000515037
0.000230607
0.000538031
0.000241157
0.000558895
0.00025204
0.000576603
0.000263169
0.000589868
0.000274434
0.000597087
0.000285678
0.000596273
0.000296703
0.000584994
0.000307244
0.000560298
0.000316981
0.000518627
0.000325506
0.000455716
0.000332364
0.00036653
0.000337006
0.000245059
0.000338852
8.07135e-05
0.00033792
-0.000135095
-0.000383225
0.000334303
7.99199e-05
2.1117e-05
-7.95616e-05
8.03074e-05
2.28261e-05
8.07221e-05
2.46755e-05
8.11737e-05
2.66757e-05
8.16582e-05
2.88367e-05
8.21849e-05
3.11704e-05
8.27504e-05
3.36898e-05
8.33645e-05
3.64088e-05
8.40246e-05
3.93395e-05
8.47413e-05
4.25058e-05
8.55097e-05
4.59267e-05
8.63427e-05
4.96181e-05
8.72354e-05
5.36006e-05
8.82051e-05
5.78862e-05
8.92475e-05
6.25044e-05
9.03773e-05
6.74966e-05
9.15909e-05
7.28768e-05
9.29112e-05
7.86486e-05
9.43353e-05
8.48767e-05
9.5879e-05
9.15974e-05
9.75498e-05
9.88038e-05
9.93656e-05
0.000106561
0.000101328
0.000114928
0.000103465
0.000123874
0.000105777
0.000133525
0.000108289
0.000143867
0.000111012
0.000154958
0.000113963
0.000166862
0.000117163
0.000179583
0.000120626
0.000193216
0.000124376
0.00020775
0.000128427
0.000223269
0.0001328
0.000239776
0.000137515
0.000257311
0.000142595
0.000275894
0.000148061
0.000295508
0.00015393
0.000316167
0.000160221
0.000337813
0.00016695
0.000360385
0.000174132
0.000383785
0.000181777
0.000407859
0.000189891
0.0004324
0.000198476
0.000457126
0.000207526
0.000481665
0.000217026
0.000505532
0.000226949
0.000528103
0.000237256
0.000548584
0.000247889
0.000565968
0.000258765
0.000578989
0.000269777
0.000586075
0.000280772
0.000585275
0.000291558
0.000574202
0.000301878
0.000549954
0.000311421
0.00050904
0.000319796
0.000447272
0.000326567
0.000359674
0.000331215
0.000240291
0.000333003
7.87996e-05
0.000332094
-0.000134291
-0.000379307
0.000328098
7.91091e-05
2.0771e-05
-7.87609e-05
7.94875e-05
2.24515e-05
7.98934e-05
2.42697e-05
8.03362e-05
2.62361e-05
8.08125e-05
2.83606e-05
8.13312e-05
3.06547e-05
8.18899e-05
3.31313e-05
8.24978e-05
3.5804e-05
8.31532e-05
3.8684e-05
8.3866e-05
4.17964e-05
8.46322e-05
4.51601e-05
8.54639e-05
4.87901e-05
8.63568e-05
5.27067e-05
8.7327e-05
5.69197e-05
8.83707e-05
6.14594e-05
8.95011e-05
6.63697e-05
9.0715e-05
7.16615e-05
9.20335e-05
7.73331e-05
9.34539e-05
8.34549e-05
9.49903e-05
9.00632e-05
9.66502e-05
9.71426e-05
9.84501e-05
0.000104763
0.000100392
0.000112986
0.000102501
0.000121765
0.000104781
0.000131244
0.000107252
0.000141396
0.000109929
0.00015228
0.000112826
0.000163965
0.000115964
0.000176443
0.000119358
0.000189821
0.000123031
0.000204077
0.000126996
0.000219303
0.000131276
0.000235493
0.000135889
0.000252693
0.000140857
0.000270922
0.000146202
0.000290159
0.000151941
0.000310425
0.000158091
0.000331659
0.000164669
0.000353802
0.000171688
0.000376761
0.00017916
0.000400381
0.000187091
0.000424462
0.000195482
0.000448727
0.000204328
0.00047281
0.000213614
0.000496235
0.000223316
0.000518389
0.000233394
0.00053849
0.000243793
0.00055555
0.000254432
0.000568326
0.000265207
0.000575272
0.000275969
0.000574474
0.00028653
0.000563586
0.000296642
0.000539765
0.000306
0.00049958
0.000314228
0.000438909
0.000320897
0.000352821
0.000325492
0.000235417
0.000327283
7.65447e-05
0.000326373
-0.000133912
-0.000375408
0.00032207
7.81025e-05
2.04313e-05
-7.77599e-05
7.84743e-05
2.20836e-05
7.88732e-05
2.38712e-05
7.93079e-05
2.58045e-05
7.97758e-05
2.7893e-05
8.02853e-05
3.01481e-05
8.08346e-05
3.25822e-05
8.14328e-05
3.52089e-05
8.20788e-05
3.8038e-05
8.27823e-05
4.10962e-05
8.35401e-05
4.44022e-05
8.43639e-05
4.79701e-05
8.525e-05
5.18199e-05
8.62141e-05
5.59594e-05
8.72528e-05
6.04197e-05
8.83788e-05
6.52472e-05
8.9589e-05
7.04501e-05
9.09035e-05
7.60215e-05
9.23196e-05
8.20376e-05
9.38503e-05
8.85347e-05
9.55028e-05
9.5489e-05
9.72923e-05
0.000102975
9.92202e-05
0.000111057
0.000101312
0.000119674
0.000103568
0.000128986
0.000106011
0.000138954
0.000108652
0.000149638
0.000111507
0.000161109
0.000114595
0.000173353
0.000117932
0.000186484
0.000121539
0.000200469
0.00012543
0.00021541
0.000129627
0.000231293
0.000134148
0.000248167
0.000139015
0.000266051
0.000144249
0.000284921
0.000149866
0.000304804
0.000155885
0.000325636
0.000162321
0.000347361
0.000169189
0.000369889
0.000176499
0.000393067
0.000184257
0.000416699
0.000192466
0.000440514
0.00020112
0.000464151
0.000210206
0.000487145
0.0002197
0.000508892
0.000229563
0.000528624
0.000239743
0.00054537
0.00025016
0.00055791
0.000260713
0.000564724
0.000271255
0.000563934
0.000281606
0.000553238
0.000291521
0.000529841
0.000300702
0.000490373
0.000308783
0.000430784
0.00031534
0.00034621
0.000319861
0.000230823
0.000321676
7.46767e-05
0.000320744
-0.000133007
-0.000370879
0.000316201
7.69876e-05
2.00964e-05
-7.66512e-05
7.73531e-05
2.17212e-05
7.77453e-05
2.3479e-05
7.81722e-05
2.538e-05
7.86319e-05
2.74334e-05
7.9132e-05
2.96504e-05
7.96715e-05
3.2043e-05
8.02587e-05
3.46242e-05
8.08934e-05
3.74034e-05
8.15845e-05
4.0408e-05
8.23299e-05
4.36566e-05
8.31407e-05
4.71626e-05
8.40143e-05
5.09457e-05
8.49656e-05
5.50115e-05
8.59923e-05
5.9392e-05
8.71064e-05
6.41362e-05
8.83056e-05
6.92497e-05
8.96091e-05
7.47207e-05
9.10147e-05
8.06309e-05
9.25345e-05
8.70169e-05
9.41756e-05
9.38468e-05
9.59523e-05
0.0001012
9.78656e-05
0.000109142
9.99395e-05
0.000117601
0.000102175
0.000126749
0.000104592
0.000136537
0.000107203
0.000147026
0.000110022
0.00015829
0.000113068
0.000170306
0.000116355
0.000183196
0.000119905
0.00019692
0.000123731
0.000211583
0.000127853
0.000227167
0.000132292
0.000243724
0.000137066
0.000261272
0.000142199
0.000279786
0.000147705
0.000299295
0.000153602
0.000319735
0.000159907
0.000341052
0.000166633
0.000363158
0.000173791
0.000385903
0.000181388
0.000409095
0.000189427
0.000432468
0.000197901
0.000455668
0.0002068
0.000478236
0.000216099
0.00049958
0.000225762
0.000518946
0.000235737
0.000535378
0.000245945
0.000547678
0.000256288
0.000554354
0.000266623
0.000553561
0.000276774
0.000543036
0.0002865
0.000520043
0.000295511
0.000481266
0.000303448
0.000422719
0.000309891
0.00033959
0.000314335
0.000226112
0.000316169
7.23941e-05
0.000315194
-0.000132541
-0.000366543
0.000310467
7.58156e-05
1.97671e-05
-7.54832e-05
7.61752e-05
2.13651e-05
7.65609e-05
2.30939e-05
7.69804e-05
2.49634e-05
7.74317e-05
2.69826e-05
7.79224e-05
2.91622e-05
7.84516e-05
3.15142e-05
7.90274e-05
3.40512e-05
7.96498e-05
3.67814e-05
8.03274e-05
3.97334e-05
8.10585e-05
4.29256e-05
8.1854e-05
4.63705e-05
8.27117e-05
5.00876e-05
8.36464e-05
5.40804e-05
8.46561e-05
5.83815e-05
8.57529e-05
6.30427e-05
8.69349e-05
6.80668e-05
8.82208e-05
7.34373e-05
8.9609e-05
7.92417e-05
9.11113e-05
8.55166e-05
9.27346e-05
9.22224e-05
9.44928e-05
9.94427e-05
9.63868e-05
0.000107247
9.84394e-05
0.000115549
0.000100652
0.000124535
0.000103042
0.000134147
0.000105623
0.000144444
0.000108407
0.000155505
0.000111414
0.000167299
0.000114654
0.000179955
0.000118151
0.000193422
0.000121918
0.000207815
0.000125973
0.000223109
0.000130335
0.000239357
0.000135025
0.000256579
0.000140063
0.000274744
0.000145466
0.000293889
0.000151251
0.000313947
0.000157433
0.000334866
0.000164028
0.00035656
0.000171044
0.000378882
0.000178491
0.000401644
0.00018637
0.000424585
0.000194676
0.000447357
0.000203399
0.00046951
0.000212515
0.000490462
0.000221989
0.000509471
0.00023177
0.000525599
0.000241781
0.00053767
0.000251927
0.000544217
0.000262065
0.000543429
0.000272024
0.000533088
0.000281571
0.000510501
0.000290417
0.000472412
0.000298212
0.000414905
0.000304541
0.00033324
0.000308907
0.000221721
0.000310748
7.05756e-05
0.000309722
-0.000131463
-0.000361626
0.000304857
7.46116e-05
1.94429e-05
-7.42856e-05
7.49647e-05
2.10146e-05
7.53437e-05
2.27151e-05
7.57555e-05
2.45538e-05
7.61988e-05
2.65395e-05
7.66804e-05
2.86827e-05
7.71999e-05
3.0995e-05
7.77646e-05
3.34887e-05
7.83751e-05
3.61711e-05
7.90394e-05
3.90717e-05
7.97562e-05
4.22088e-05
8.05358e-05
4.5594e-05
8.13768e-05
4.92462e-05
8.22931e-05
5.31672e-05
8.32839e-05
5.73901e-05
8.43603e-05
6.19692e-05
8.55215e-05
6.69048e-05
8.67856e-05
7.21756e-05
8.81517e-05
7.78747e-05
8.9631e-05
8.4039e-05
9.12311e-05
9.06214e-05
9.29652e-05
9.77098e-05
9.48343e-05
0.000105377
9.68607e-05
0.000113524
9.90455e-05
0.00012235
0.000101406
0.000131786
0.000103954
0.000141895
0.000106702
0.000152757
0.000109668
0.000164332
0.000112863
0.000176759
0.000116309
0.000189976
0.000120019
0.000204105
0.00012401
0.000219115
0.000128301
0.000235063
0.000132911
0.000251965
0.000137862
0.000269791
0.000143168
0.00028858
0.000148847
0.000308265
0.000154915
0.000328794
0.000161385
0.000350085
0.00016827
0.000371992
0.000175575
0.000394333
0.000183303
0.000416849
0.000191452
0.0004392
0.000200009
0.000460943
0.000208952
0.000481506
0.000218248
0.000500161
0.000227845
0.000515985
0.000237669
0.000527823
0.000247626
0.000534235
0.000257576
0.000533443
0.000267353
0.000523266
0.000276726
0.000501066
0.000285414
0.00046364
0.000293071
0.000407133
0.000299287
0.000326864
0.000303578
0.000217188
0.000305411
6.83302e-05
0.000304327
-0.000130846
-0.000357029
0.000299366
7.33947e-05
1.91245e-05
-7.30738e-05
7.37416e-05
2.06705e-05
7.4114e-05
2.23432e-05
7.45182e-05
2.41517e-05
7.49534e-05
2.61047e-05
7.54258e-05
2.82123e-05
7.59355e-05
3.04858e-05
7.64892e-05
3.29372e-05
7.7088e-05
3.55727e-05
7.77392e-05
3.84231e-05
7.84419e-05
4.15063e-05
7.9206e-05
4.4833e-05
8.00302e-05
4.84219e-05
8.09282e-05
5.22724e-05
8.18993e-05
5.64186e-05
8.29544e-05
6.0917e-05
8.40932e-05
6.57653e-05
8.53333e-05
7.09378e-05
8.66745e-05
7.65327e-05
8.81276e-05
8.25875e-05
8.97006e-05
8.90476e-05
9.14062e-05
9.60052e-05
9.32462e-05
0.000103536
9.52419e-05
0.000111528
9.73946e-05
0.000120196
9.97212e-05
0.00012946
0.000102233
0.000139383
0.000104942
0.000150047
0.000107865
0.000161408
0.000111014
0.000173609
0.000114409
0.000186581
0.000118062
0.000200452
0.000121991
0.000215185
0.000126213
0.000230837
0.000130747
0.000247427
0.000135614
0.000264921
0.000140828
0.000283363
0.000146408
0.000302683
0.000152367
0.000322831
0.000158721
0.000343727
0.000165479
0.00036523
0.00017265
0.000387157
0.000180237
0.000409259
0.000188236
0.000431198
0.000196635
0.000452541
0.000205415
0.000472725
0.00021454
0.000491036
0.000223962
0.000506567
0.000233608
0.000518183
0.000243384
0.000524471
0.000253154
0.000523683
0.000262756
0.000513683
0.000271961
0.000491875
0.000280496
0.000455113
0.000288018
0.000399611
0.000294124
0.000320761
0.000298339
0.000212987
0.000300154
6.65984e-05
0.000299014
-0.000129593
-0.0003519
0.000293989
7.2174e-05
1.88114e-05
-7.18596e-05
7.25143e-05
2.03322e-05
7.288e-05
2.19776e-05
7.32766e-05
2.37566e-05
7.37041e-05
2.56775e-05
7.41677e-05
2.77502e-05
7.46682e-05
2.99857e-05
7.52114e-05
3.23957e-05
7.57991e-05
3.49855e-05
7.64377e-05
3.77867e-05
7.7127e-05
4.08172e-05
7.78758e-05
4.40867e-05
7.8684e-05
4.76137e-05
7.95638e-05
5.13953e-05
8.05157e-05
5.54664e-05
8.15494e-05
5.98857e-05
8.26657e-05
6.46486e-05
8.38811e-05
6.97244e-05
8.51963e-05
7.52169e-05
8.66216e-05
8.11637e-05
8.81655e-05
8.75029e-05
8.98403e-05
9.43314e-05
9.16481e-05
0.000101728
9.361e-05
0.000109567
9.57273e-05
0.000118078
9.80166e-05
0.00012717
0.000100489
0.000136909
0.000103156
0.00014738
0.000106035
0.000158529
0.000109135
0.000170508
0.000112478
0.000183239
0.000116074
0.000196856
0.00011994
0.000211316
0.000124095
0.000226679
0.000128555
0.000242964
0.00013334
0.000260132
0.000138466
0.000278235
0.00014395
0.000297196
0.000149806
0.000316971
0.000156047
0.000337482
0.000162686
0.000358586
0.00016973
0.000380108
0.000177181
0.000401801
0.000185036
0.000423335
0.000193285
0.000444282
0.000201908
0.000464091
0.000210871
0.000482059
0.000220125
0.000497297
0.000229599
0.000508688
0.000239202
0.000514845
0.000248798
0.000514053
0.000258231
0.000504211
0.000267274
0.000482776
0.000275659
0.000446654
0.00028305
0.000392115
0.00028905
0.000314614
0.000293191
0.000208621
0.000294976
6.44284e-05
0.000293781
-0.000128835
-0.000347184
0.000288722
7.09589e-05
1.85042e-05
-7.06491e-05
7.12934e-05
2.00003e-05
7.16526e-05
2.1619e-05
7.20421e-05
2.3369e-05
7.24617e-05
2.52584e-05
7.29167e-05
2.72969e-05
7.34077e-05
2.94952e-05
7.39407e-05
3.18645e-05
7.45172e-05
3.44095e-05
7.51435e-05
3.71626e-05
7.58195e-05
4.01415e-05
7.65539e-05
4.33552e-05
7.73462e-05
4.68214e-05
7.82086e-05
5.05357e-05
7.91415e-05
5.45333e-05
8.01546e-05
5.88752e-05
8.12484e-05
6.35542e-05
8.24395e-05
6.85353e-05
8.37285e-05
7.39273e-05
8.51256e-05
7.9768e-05
8.66396e-05
8.59883e-05
8.82824e-05
9.26894e-05
9.00566e-05
9.99527e-05
9.19827e-05
0.000107642
9.40625e-05
0.000115997
9.63121e-05
0.000124921
9.87428e-05
0.000134478
0.000101365
0.000144757
0.000104197
0.000155696
0.000107247
0.000167457
0.000110536
0.00017995
0.000114074
0.000193317
0.000117878
0.00020751
0.000121965
0.000222589
0.000126352
0.000238574
0.000131058
0.000255424
0.000136098
0.000273192
0.000141488
0.000291803
0.000147244
0.000311212
0.000153378
0.000331344
0.000159902
0.000352059
0.000166822
0.000373184
0.000174143
0.000394478
0.000181861
0.000415614
0.000189966
0.000436175
0.000198437
0.000455619
0.000207243
0.000473255
0.000216336
0.000488209
0.000225644
0.000499386
0.000235079
0.000505424
0.000244508
0.000504638
0.000253776
0.000494968
0.000262663
0.000473912
0.000270902
0.000438433
0.000278165
0.000384869
0.000284059
0.000308745
0.000288127
0.0002046
0.000289876
6.28133e-05
0.000288632
-0.000127425
-0.00034196
0.000283558
6.97525e-05
1.82021e-05
-6.94491e-05
7.00805e-05
1.9674e-05
7.04333e-05
2.12665e-05
7.08155e-05
2.29881e-05
7.12276e-05
2.48466e-05
7.16741e-05
2.68516e-05
7.21564e-05
2.90134e-05
7.26794e-05
3.1343e-05
7.32455e-05
3.38441e-05
7.38599e-05
3.655e-05
7.45234e-05
3.94785e-05
7.52435e-05
4.26374e-05
7.60208e-05
4.60443e-05
7.68664e-05
4.96927e-05
7.77812e-05
5.36183e-05
7.87741e-05
5.78846e-05
7.98464e-05
6.24816e-05
8.10137e-05
6.73698e-05
8.22772e-05
7.26633e-05
8.36465e-05
7.83999e-05
8.51306e-05
8.45035e-05
8.67414e-05
9.10795e-05
8.84814e-05
9.82119e-05
9.03711e-05
0.000105752
9.24123e-05
0.000113955
9.4621e-05
0.000122712
9.70083e-05
0.00013209
9.95851e-05
0.00014218
0.000102368
0.000152913
0.000105367
0.000164458
0.0001086
0.000176717
0.000112079
0.000189838
0.00011582
0.000203766
0.00011984
0.000218567
0.000124154
0.000234257
0.000128781
0.000250793
0.000133737
0.000268234
0.000139036
0.000286501
0.000144694
0.000305551
0.000150723
0.000325311
0.000157135
0.000345642
0.000163937
0.000366377
0.000171131
0.000387277
0.000178716
0.000408022
0.000186681
0.000428201
0.000195007
0.000447283
0.000203661
0.000464588
0.000212598
0.000479259
0.000221745
0.000490219
0.000231018
0.00049613
0.000240283
0.000495341
0.000249392
0.000485825
0.000258126
0.000465131
0.000266224
0.000430271
0.000273361
0.00037764
0.000279153
0.000302819
0.000283148
0.000200402
0.000284856
6.07548e-05
0.000283568
-0.000126535
-0.00033721
0.000278497
6.85603e-05
1.79058e-05
-6.82618e-05
6.88823e-05
1.93539e-05
6.92287e-05
2.09206e-05
6.96037e-05
2.26143e-05
7.00083e-05
2.44425e-05
7.04464e-05
2.64146e-05
7.09197e-05
2.85406e-05
7.14328e-05
3.08312e-05
7.19883e-05
3.32892e-05
7.25912e-05
3.5949e-05
7.32422e-05
3.8828e-05
7.39488e-05
4.19332e-05
7.47114e-05
4.5282e-05
7.55408e-05
4.88659e-05
7.6438e-05
5.27211e-05
7.74117e-05
5.69132e-05
7.84631e-05
6.14299e-05
7.96073e-05
6.62273e-05
8.08459e-05
7.14243e-05
8.21881e-05
7.70589e-05
8.3643e-05
8.3048e-05
8.52221e-05
8.95012e-05
8.69283e-05
9.65051e-05
8.87815e-05
0.0001039
9.07839e-05
0.000111952
9.29512e-05
0.000120545
9.52946e-05
0.000129746
9.78247e-05
0.000139649
0.000100558
0.000150179
0.000103504
0.000161511
0.000106682
0.000173539
0.000110101
0.000186418
0.000113779
0.000200087
0.00011773
0.000214612
0.000121971
0.000230013
0.000126521
0.000246241
0.000131393
0.00026336
0.000136603
0.000281289
0.000142165
0.000299986
0.000148092
0.00031938
0.000154395
0.000339336
0.00016108
0.000359688
0.000168152
0.000380202
0.000175608
0.000400564
0.000183437
0.00042037
0.000191621
0.000439099
0.000200128
0.000456084
0.000208912
0.000470481
0.000217903
0.000481235
0.000227018
0.000487033
0.000236124
0.000486251
0.000245078
0.000476903
0.000253663
0.000456576
0.000261621
0.00042234
0.000268636
0.000370654
0.000274327
0.00029717
0.00027825
0.000196551
0.000279914
5.92637e-05
0.000278589
-0.000125001
-0.000331967
0.000273532
6.73826e-05
1.76145e-05
-6.70904e-05
6.76983e-05
1.90392e-05
6.80384e-05
2.05807e-05
6.84063e-05
2.2247e-05
6.88037e-05
2.40456e-05
6.92336e-05
2.59854e-05
6.96985e-05
2.80763e-05
7.02021e-05
3.03286e-05
7.07476e-05
3.27445e-05
7.13392e-05
3.5359e-05
7.19784e-05
3.81894e-05
7.26716e-05
4.12421e-05
7.34201e-05
4.4534e-05
7.42336e-05
4.80546e-05
7.5114e-05
5.18409e-05
7.60689e-05
5.59605e-05
7.71002e-05
6.03985e-05
7.82222e-05
6.51069e-05
7.94367e-05
7.02094e-05
8.07526e-05
7.57441e-05
8.21791e-05
8.1621e-05
8.37272e-05
8.79537e-05
8.54003e-05
9.48315e-05
8.72175e-05
0.000102083
8.91815e-05
0.000109988
9.13076e-05
0.000118419
9.36071e-05
0.000127446
9.60903e-05
0.000137166
9.87737e-05
0.000147495
0.000101667
0.000158618
0.000104788
0.000170419
0.000108148
0.000183058
0.000111761
0.000196471
0.000115645
0.000210726
0.000119814
0.000225842
0.000124286
0.000241766
0.000129075
0.000258569
0.000134196
0.000276165
0.000139664
0.000294515
0.000145491
0.00031355
0.000151687
0.000333136
0.000158259
0.00035311
0.000165211
0.000373244
0.00017254
0.000393227
0.000180237
0.000412665
0.000188283
0.000431044
0.000196645
0.00044771
0.000205281
0.000461833
0.00021412
0.000472378
0.00022308
0.000478054
0.000232031
0.000477271
0.000240833
0.000468072
0.000249272
0.000448096
0.000257095
0.000414458
0.000263989
0.000363675
0.000269581
0.000291453
0.000273434
0.000192509
0.000275054
5.7314e-05
0.000273697
-0.000124018
-0.000327236
0.000268663
6.62232e-05
1.73288e-05
-6.59352e-05
6.65334e-05
1.87306e-05
6.68673e-05
2.02472e-05
6.72286e-05
2.18867e-05
6.76187e-05
2.36561e-05
6.80406e-05
2.55643e-05
6.84968e-05
2.76208e-05
6.8991e-05
2.98355e-05
6.95263e-05
3.22099e-05
7.01069e-05
3.478e-05
7.07341e-05
3.75629e-05
7.14144e-05
4.0564e-05
7.21488e-05
4.38e-05
7.29471e-05
4.72587e-05
7.38108e-05
5.09773e-05
7.47476e-05
5.50258e-05
7.57592e-05
5.93868e-05
7.68596e-05
6.4008e-05
7.80508e-05
6.90178e-05
7.93412e-05
7.44546e-05
8.07401e-05
8.02216e-05
8.22582e-05
8.64362e-05
8.38988e-05
9.31903e-05
8.56809e-05
0.000100301
8.76072e-05
0.000108061
8.96926e-05
0.000116333
9.19486e-05
0.000125189
9.43853e-05
0.000134728
9.7019e-05
0.000144861
9.98593e-05
0.000155777
0.000102924
0.000167354
0.000106224
0.000179758
0.000109774
0.00019292
0.000113589
0.000206908
0.000117686
0.000221743
0.000122082
0.000237369
0.000126788
0.00025386
0.000131822
0.000271128
0.000137197
0.000289137
0.000142925
0.000307819
0.000149015
0.000327042
0.000155476
0.000346646
0.000162311
0.000366407
0.000169516
0.00038602
0.000177083
0.000405097
0.000184993
0.000423136
0.000193215
0.000439491
0.000201705
0.000453351
0.000210395
0.000463697
0.000219205
0.000469264
0.000228004
0.000468489
0.000236657
0.000459454
0.000244953
0.000439835
0.000252643
0.000406803
0.000259419
0.000356938
0.000264914
0.000286013
0.000268697
0.00018882
0.000270274
5.59443e-05
0.000268891
-0.000122391
-0.00032201
0.000263889
6.5081e-05
1.70479e-05
-6.47991e-05
6.53851e-05
1.84273e-05
6.5713e-05
1.99196e-05
6.60675e-05
2.15327e-05
6.64506e-05
2.32735e-05
6.68648e-05
2.51506e-05
6.73129e-05
2.71733e-05
6.77979e-05
2.93513e-05
6.83237e-05
3.1685e-05
6.88934e-05
3.42116e-05
6.95094e-05
3.69477e-05
7.01769e-05
3.98984e-05
7.08979e-05
4.30797e-05
7.16812e-05
4.64775e-05
7.2529e-05
5.01299e-05
7.3448e-05
5.41086e-05
7.44407e-05
5.83942e-05
7.55202e-05
6.29299e-05
7.66888e-05
6.7849e-05
7.79544e-05
7.31899e-05
7.93266e-05
7.88491e-05
8.08154e-05
8.49479e-05
8.24245e-05
9.15807e-05
8.41723e-05
9.85533e-05
8.60618e-05
0.000106171
8.81074e-05
0.000114287
9.03207e-05
0.000122976
9.27115e-05
0.000132337
9.52961e-05
0.000142276
9.8084e-05
0.000152989
0.000101093
0.000164345
0.000104333
0.000176518
0.000107819
0.000189431
0.000111568
0.000203158
0.000115593
0.000217715
0.000119912
0.000233048
0.000124537
0.000249232
0.000129485
0.000266178
0.000134767
0.000283851
0.000140397
0.000302186
0.000146385
0.00032105
0.000152736
0.00034029
0.000159455
0.000359682
0.000166539
0.00037893
0.000173978
0.000397651
0.000181755
0.00041535
0.000189839
0.000431397
0.000198186
0.000444993
0.00020673
0.000455137
0.000215392
0.000460588
0.000224043
0.000459812
0.00023255
0.000450924
0.000240706
0.000431645
0.000248266
0.000399192
0.000254926
0.000350201
0.000260326
0.0002805
0.000264039
0.000184935
0.000265573
5.4109e-05
0.000264171
-0.000121329
-0.000317331
0.000259212
6.39588e-05
1.67724e-05
-6.36816e-05
6.42573e-05
1.81297e-05
6.45793e-05
1.95981e-05
6.49271e-05
2.11854e-05
6.53032e-05
2.28981e-05
6.57095e-05
2.47447e-05
6.61493e-05
2.67342e-05
6.66253e-05
2.8876e-05
6.71413e-05
3.11699e-05
6.77005e-05
3.36536e-05
6.83051e-05
3.6344e-05
6.89603e-05
3.92451e-05
6.96681e-05
4.23726e-05
7.04369e-05
4.57108e-05
7.12689e-05
4.92983e-05
7.21709e-05
5.32086e-05
7.3145e-05
5.74201e-05
7.42042e-05
6.1872e-05
7.53508e-05
6.67022e-05
7.65925e-05
7.1949e-05
7.79387e-05
7.75026e-05
7.93991e-05
8.34879e-05
8.09776e-05
9.00018e-05
8.26921e-05
9.68391e-05
8.45455e-05
0.000104317
8.65524e-05
0.000112281
8.87237e-05
0.000120804
9.10696e-05
0.000129991
9.36059e-05
0.000139739
9.63421e-05
0.000150252
9.92956e-05
0.000161392
0.000102477
0.000173337
0.000105901
0.000186006
0.000109582
0.000199474
0.000113536
0.000213759
0.000117779
0.000228803
0.000122324
0.000244685
0.000127186
0.000261314
0.000132378
0.000278656
0.000137911
0.000296649
0.000143796
0.000315162
0.00015004
0.000334043
0.000156645
0.000353075
0.000163609
0.000371964
0.000170924
0.000390336
0.00017857
0.000407706
0.000186517
0.000423453
0.000194725
0.000436794
0.000203126
0.000446747
0.000211642
0.000452093
0.000220147
0.000451326
0.000228511
0.000442598
0.000236529
0.000423666
0.000243961
0.000391801
0.000250507
0.000343701
0.000255813
0.00027526
0.000259457
0.000181403
0.000260949
5.28529e-05
0.000259534
-0.000119637
-0.000312167
0.000254627
6.28551e-05
1.65017e-05
-6.25837e-05
6.31477e-05
1.78373e-05
6.34638e-05
1.92823e-05
6.3805e-05
2.08441e-05
6.41744e-05
2.25293e-05
6.45731e-05
2.43459e-05
6.50052e-05
2.63029e-05
6.54723e-05
2.84093e-05
6.59792e-05
3.0664e-05
6.65281e-05
3.31058e-05
6.71219e-05
3.57513e-05
6.77649e-05
3.86037e-05
6.84599e-05
4.16786e-05
6.92143e-05
4.49583e-05
7.00313e-05
4.8482e-05
7.09163e-05
5.23253e-05
7.18726e-05
5.64642e-05
7.29119e-05
6.0834e-05
7.40372e-05
6.55769e-05
7.52555e-05
7.07314e-05
7.65764e-05
7.61814e-05
7.80092e-05
8.20555e-05
7.95579e-05
8.84526e-05
8.12399e-05
9.51573e-05
8.30584e-05
0.000102498
8.50273e-05
0.000110312
8.71577e-05
0.000118673
8.94596e-05
0.000127689
9.19485e-05
0.00013725
9.46339e-05
0.000147567
9.75329e-05
0.000158493
0.000100656
0.000170214
0.000104018
0.000182643
0.000107633
0.000195857
0.000111517
0.000209874
0.000115685
0.000224633
0.00012015
0.000240217
0.000124927
0.000256535
0.000130029
0.000273551
0.000135468
0.000291208
0.000141252
0.000309374
0.000147389
0.000327901
0.000153882
0.000346577
0.000160729
0.000365112
0.00016792
0.000383139
0.000175437
0.000400182
0.000183251
0.000415631
0.000191321
0.000428716
0.000199581
0.000438475
0.000207955
0.000443709
0.000216316
0.000442942
0.00022454
0.000434356
0.000232423
0.000415753
0.000239729
0.00038445
0.000246163
0.000337196
0.000251377
0.000269939
0.000254953
0.000177665
0.000256405
5.11172e-05
0.00025498
-0.000118526
-0.000307581
0.000250132
6.17721e-05
1.62362e-05
-6.15046e-05
6.20596e-05
1.75505e-05
6.237e-05
1.89724e-05
6.2705e-05
2.05093e-05
6.30676e-05
2.21675e-05
6.34589e-05
2.39547e-05
6.38829e-05
2.58797e-05
6.43414e-05
2.79512e-05
6.48388e-05
3.01676e-05
6.53776e-05
3.25682e-05
6.59603e-05
3.51695e-05
6.65916e-05
3.79741e-05
6.72736e-05
4.09973e-05
6.80143e-05
4.42196e-05
6.8816e-05
4.76807e-05
6.96848e-05
5.14582e-05
7.06232e-05
5.55259e-05
7.16433e-05
5.98151e-05
7.27477e-05
6.44724e-05