/*--------------------------------*- C++ -*----------------------------------*\
  =========                 |
  \\      /  F ield         | OpenFOAM: The Open Source CFD Toolbox
   \\    /   O peration     | Website:  https://openfoam.org
    \\  /    A nd           | Version:  6.0
     \\/     M anipulation  |
\*---------------------------------------------------------------------------*/
FoamFile
{
    version     2.0;
    format      ascii;
    class       surfaceScalarField;
    location    "15";
    object      phi;
}
// * * * * * * * * * * * * * * * * * * * * * * * * * * * * * * * * * * * * * //

dimensions      [0 3 -1 0 0 0 0];

internalField   nonuniform List<scalar> 
123526
(
2.76715e-05
2.33226e-05
-2.7282e-05
2.81055e-05
2.52131e-05
2.85595e-05
2.72567e-05
2.90648e-05
2.94655e-05
2.95965e-05
3.18527e-05
3.01861e-05
3.44329e-05
3.08093e-05
3.72212e-05
3.14985e-05
4.02346e-05
3.22281e-05
4.349e-05
3.30355e-05
4.70081e-05
3.38897e-05
5.08103e-05
3.48337e-05
5.49185e-05
3.58324e-05
5.93568e-05
3.69375e-05
6.41492e-05
3.81123e-05
6.9325e-05
3.94063e-05
7.49184e-05
4.07829e-05
8.09587e-05
4.22998e-05
8.74748e-05
4.3923e-05
9.45119e-05
4.56978e-05
0.000102111
4.76058e-05
0.000110305
4.96916e-05
0.000119146
5.19314e-05
0.000128687
5.43797e-05
0.000138962
5.70156e-05
0.000150046
5.98831e-05
0.000161982
6.2981e-05
0.000174833
6.6341e-05
0.000188667
6.99758e-05
0.000203535
7.39121e-05
0.00021952
7.81699e-05
0.000236671
8.27733e-05
0.00025507
8.77427e-05
0.000274768
9.31072e-05
0.000295834
9.88975e-05
0.000318324
0.00010515
0.000342275
0.000111882
0.000367733
0.000119125
0.000394699
0.000126911
0.000423163
0.000135264
0.000453084
0.000144211
0.000484369
0.000153779
0.000516868
0.000163987
0.000550362
0.000174847
0.000584536
0.000186366
0.000618951
0.00019854
0.000653023
0.000211347
0.00068598
0.000224753
0.000716818
0.000238687
0.000744251
0.00025307
0.000766639
0.000267746
0.000781942
0.000282572
0.000787564
0.00029726
0.000780464
0.000311535
0.000756724
0.000324969
0.000711832
0.000337093
0.000640342
0.000347283
0.000536378
0.000354451
0.000393634
0.000358438
0.000207742
-3.27372e-05
0.000367039
2.72775e-05
2.29352e-05
-2.68948e-05
2.77035e-05
2.47947e-05
2.81495e-05
2.68045e-05
2.86451e-05
2.89767e-05
2.91673e-05
3.13244e-05
2.97455e-05
3.38617e-05
3.03575e-05
3.66036e-05
3.10332e-05
3.95665e-05
3.17498e-05
4.27664e-05
3.25415e-05
4.62249e-05
3.33805e-05
4.99633e-05
3.43059e-05
5.40024e-05
3.52871e-05
5.83659e-05
3.63705e-05
6.30752e-05
3.7525e-05
6.81603e-05
3.87936e-05
7.36586e-05
4.01465e-05
7.95961e-05
4.16339e-05
8.59949e-05
4.32292e-05
9.29079e-05
4.497e-05
0.000100376
4.68453e-05
0.000108422
4.88917e-05
0.000117104
5.10934e-05
0.000126479
5.34958e-05
0.000136561
5.60872e-05
0.000147449
5.89016e-05
0.000159168
6.19474e-05
0.000171783
6.52459e-05
0.000185367
6.882e-05
0.000199959
7.26857e-05
0.000215655
7.68724e-05
0.000232485
8.13945e-05
0.000250548
8.62747e-05
0.000269881
9.15418e-05
0.000290559
9.72259e-05
0.000312635
0.000103365
0.000336138
0.000109977
0.000361127
0.000117092
0.000387594
0.000124739
0.000415529
0.000132942
0.000444898
0.000141728
0.000475605
0.000151124
0.000507501
0.000161146
0.000540376
0.000171808
0.000573919
0.000183117
0.0006077
0.000195066
0.000641144
0.000207636
0.000673495
0.000220793
0.000703767
0.000234467
0.000730698
0.00024858
0.00075268
0.00026298
0.000767701
0.000277533
0.000773226
0.000291944
0.000766226
0.00030595
0.000742885
0.000319126
0.000698766
0.000331022
0.000628559
0.000341026
0.000526423
0.000348229
0.000386472
0.000351766
0.000204184
-3.30933e-05
0.000352179
2.69202e-05
2.25546e-05
-2.65432e-05
2.73384e-05
2.43834e-05
2.77772e-05
2.636e-05
2.82638e-05
2.84964e-05
2.87773e-05
3.08052e-05
2.93449e-05
3.33003e-05
2.99465e-05
3.59966e-05
3.06099e-05
3.89099e-05
3.13141e-05
4.20553e-05
3.20913e-05
4.54552e-05
3.29155e-05
4.91308e-05
3.38242e-05
5.3102e-05
3.47877e-05
5.73921e-05
3.58517e-05
6.20196e-05
3.69851e-05
6.70157e-05
3.82311e-05
7.24206e-05
3.95595e-05
7.82571e-05
4.10205e-05
8.45409e-05
4.25872e-05
9.13319e-05
4.42971e-05
9.86721e-05
4.61391e-05
0.000106572
4.81492e-05
0.000115097
5.0312e-05
0.00012431
5.26717e-05
0.000134203
5.52175e-05
0.000144898
5.79816e-05
0.000156404
6.09739e-05
0.000168787
6.42134e-05
0.000182126
6.77246e-05
0.000196445
7.1521e-05
0.000211857
7.56335e-05
0.000228374
8.00735e-05
0.000246106
8.48666e-05
0.000265082
9.00369e-05
0.000285376
9.56172e-05
0.000307047
0.000101643
0.00033011
0.000108133
0.000354639
0.000115116
0.000380615
0.000122621
0.000408029
0.000130672
0.000436856
0.000139295
0.000466994
0.000148515
0.000498296
0.000158351
0.00053056
0.000168814
0.000563479
0.000179912
0.00059663
0.000191638
0.000629449
0.000203973
0.000661192
0.000216883
0.000690894
0.000230299
0.000717311
0.000244146
0.000738869
0.000258273
0.000753586
0.000272554
0.00075898
0.000286694
0.000752076
0.000300438
0.000729151
0.000313369
0.0006858
0.000325043
0.000616882
0.000334857
0.000516577
0.000342024
0.000379309
0.000345709
0.000200515
-3.47579e-05
0.000347305
2.65382e-05
2.2181e-05
-2.61684e-05
2.69485e-05
2.39797e-05
2.73797e-05
2.59237e-05
2.78575e-05
2.80247e-05
2.83624e-05
3.02953e-05
2.892e-05
3.2749e-05
2.95117e-05
3.54004e-05
3.01633e-05
3.82652e-05
3.08561e-05
4.13571e-05
3.16196e-05
4.46994e-05
3.24305e-05
4.83134e-05
3.33231e-05
5.2218e-05
3.42712e-05
5.6436e-05
3.53163e-05
6.09834e-05
3.64314e-05
6.5892e-05
3.76552e-05
7.12052e-05
3.89615e-05
7.69425e-05
4.03965e-05
8.31131e-05
4.19365e-05
8.97843e-05
4.36159e-05
9.69982e-05
4.54258e-05
0.000104755
4.74001e-05
0.000113127
4.95248e-05
0.000122179
5.18426e-05
0.000131887
5.43431e-05
0.000142392
5.70579e-05
0.000153688
5.99967e-05
0.000165843
6.31781e-05
0.000178942
6.6626e-05
0.000192995
7.03538e-05
0.000208127
7.43916e-05
0.000224336
7.87517e-05
0.000241745
8.34557e-05
0.000260368
8.85326e-05
0.000280288
9.40102e-05
0.00030156
9.99252e-05
0.000324191
0.000106295
0.000348268
0.000113149
0.000373761
0.000120516
0.000400664
0.000128418
0.000428955
0.000136881
0.000458533
0.000145931
0.00048925
0.000155585
0.000520913
0.000165854
0.000553218
0.000176745
0.00058575
0.000188253
0.000617958
0.000200357
0.000649109
0.000213024
0.000678258
0.000226188
0.000704183
0.000239774
0.00072534
0.000253637
0.000739779
0.000267653
0.000745068
0.000281531
0.000738264
0.000295021
0.000715725
0.000307718
0.000673137
0.000319185
0.000605462
0.000328823
0.000506955
0.000335942
0.000372211
0.000339624
0.000196814
-3.55275e-05
0.00034043
2.61459e-05
2.18142e-05
-2.57815e-05
2.65485e-05
2.35832e-05
2.69724e-05
2.54951e-05
2.74413e-05
2.75614e-05
2.79375e-05
2.97943e-05
2.84848e-05
3.22073e-05
2.90659e-05
3.48145e-05
2.97058e-05
3.76313e-05
3.03861e-05
4.06706e-05
3.1136e-05
4.39562e-05
3.19321e-05
4.75096e-05
3.2809e-05
5.13485e-05
3.37398e-05
5.54956e-05
3.47667e-05
5.99641e-05
3.58616e-05
6.47866e-05
3.70643e-05
7.00098e-05
3.83472e-05
7.56496e-05
3.97574e-05
8.17093e-05
4.12701e-05
8.82629e-05
4.29204e-05
9.5353e-05
4.46984e-05
0.00010297
4.66381e-05
0.00011119
4.87252e-05
0.000120085
5.10019e-05
0.000129612
5.3458e-05
0.000139931
5.61244e-05
0.000151021
5.90106e-05
0.000162953
6.21347e-05
0.000175815
6.55206e-05
0.000189606
6.91809e-05
0.000204465
7.3146e-05
0.000220372
7.74258e-05
0.000237462
8.2046e-05
0.00025574
8.70295e-05
0.000275291
9.2408e-05
0.000296172
9.82154e-05
0.00031838
0.000104469
0.000342012
0.000111198
0.000367032
0.00011843
0.000393432
0.000126188
0.000421199
0.000134496
0.000450226
0.000143381
0.000480369
0.000152857
0.000511441
0.000162937
0.000543144
0.000173627
0.000575068
0.000184921
0.000606671
0.0001968
0.000637237
0.00020923
0.000665835
0.000222147
0.000691265
0.00023548
0.000712011
0.000249085
0.000726155
0.000262844
0.000731317
0.000276468
0.000724604
0.000289713
0.000702461
0.000302183
0.000660617
0.000313453
0.000594178
0.000322922
0.000497449
0.000329974
0.000365162
0.000333658
0.000193136
-3.57191e-05
0.000333771
2.57531e-05
2.14541e-05
-2.53958e-05
2.61482e-05
2.31941e-05
2.65644e-05
2.50745e-05
2.70246e-05
2.71065e-05
2.7512e-05
2.93026e-05
2.80493e-05
3.16756e-05
2.86203e-05
3.42395e-05
2.92484e-05
3.70093e-05
2.99171e-05
3.99969e-05
3.06531e-05
4.3227e-05
3.14358e-05
4.67209e-05
3.22964e-05
5.04956e-05
3.32116e-05
5.4573e-05
3.42194e-05
5.89641e-05
3.5296e-05
6.37023e-05
3.64764e-05
6.88369e-05
3.77376e-05
7.43809e-05
3.91219e-05
8.03315e-05
4.06084e-05
8.67695e-05
4.22286e-05
9.37378e-05
4.39754e-05
0.000101217
4.58802e-05
0.000109289
4.79302e-05
0.00011803
5.01662e-05
0.000127378
5.25785e-05
0.000137513
5.51971e-05
0.000148402
5.80316e-05
0.000160114
6.10997e-05
0.000172745
6.44246e-05
0.000186278
6.80191e-05
0.000200869
7.19122e-05
0.000216478
7.6116e-05
0.000233257
8.06508e-05
0.000251195
8.55455e-05
0.000270385
9.08265e-05
0.000290882
9.65289e-05
0.000312673
0.00010267
0.000335869
0.000109276
0.000360424
0.000116377
0.00038633
0.000123993
0.00041358
0.000132151
0.000442067
0.000140872
0.000471645
0.000150175
0.000502136
0.00016007
0.000533246
0.000170563
0.000564573
0.000181647
0.000595585
0.000193306
0.000625579
0.000205505
0.00065364
0.000218182
0.000678593
0.000231268
0.000698947
0.000244623
0.000712818
0.000258132
0.00071787
0.00027151
0.000711252
0.000284515
0.000689478
0.000296764
0.000648373
0.000307838
0.000583124
0.000317142
0.000488148
0.000324098
0.000358218
0.000327806
0.000189408
-3.54508e-05
0.000327564
2.53625e-05
2.11006e-05
-2.50112e-05
2.57501e-05
2.2812e-05
2.61592e-05
2.46614e-05
2.66107e-05
2.66599e-05
2.70897e-05
2.88196e-05
2.76169e-05
3.11532e-05
2.81781e-05
3.36744e-05
2.87947e-05
3.6398e-05
2.94519e-05
3.93347e-05
3.01747e-05
4.25101e-05
3.09438e-05
4.59456e-05
3.17891e-05
4.9657e-05
3.26883e-05
5.3666e-05
3.36783e-05
5.79811e-05
3.47358e-05
6.26362e-05
3.58954e-05
6.76839e-05
3.71341e-05
7.31339e-05
3.84941e-05
7.89775e-05
3.99542e-05
8.53019e-05
4.1546e-05
9.21509e-05
4.32619e-05
9.94947e-05
4.51329e-05
0.000107421
4.71467e-05
0.00011601
4.93428e-05
0.000125183
5.17122e-05
0.000135139
5.42841e-05
0.000145829
5.7068e-05
0.000157327
6.0081e-05
0.000169729
6.33464e-05
0.00018301
6.68762e-05
0.000197337
7.06997e-05
0.000212655
7.48263e-05
0.000229127
7.92812e-05
0.000246733
8.40863e-05
0.000265567
8.92724e-05
0.000285687
9.48717e-05
0.00030707
0.000100901
0.000329838
0.000107388
0.000353936
0.000114359
0.000379358
0.000121837
0.000406102
0.000129845
0.000434059
0.000138407
0.000463084
0.000147539
0.000493006
0.000157252
0.000523535
0.000167552
0.000554277
0.000178432
0.000584708
0.000189875
0.000614137
0.000201849
0.000641668
0.000214293
0.000666143
0.000227139
0.000686101
0.00024025
0.000699686
0.000253515
0.000704615
0.000266652
0.00069808
0.000279423
0.000676682
0.000291454
0.000636295
0.000302333
0.000572229
0.000311474
0.000478974
0.000318315
0.000351379
0.000322035
0.000185686
-3.5227e-05
0.000321729
2.49728e-05
2.07537e-05
-2.46288e-05
2.53529e-05
2.2437e-05
2.57544e-05
2.4256e-05
2.61974e-05
2.62215e-05
2.66679e-05
2.83455e-05
2.71854e-05
3.06405e-05
2.7737e-05
3.31198e-05
2.83422e-05
3.57979e-05
2.89887e-05
3.86847e-05
2.96983e-05
4.18064e-05
3.04551e-05
4.51845e-05
3.1285e-05
4.88338e-05
3.21699e-05
5.27757e-05
3.31419e-05
5.7016e-05
3.41824e-05
6.15898e-05
3.5321e-05
6.65521e-05
3.65392e-05
7.19097e-05
3.78746e-05
7.7648e-05
3.93099e-05
8.3861e-05
4.0873e-05
9.05925e-05
4.25591e-05
9.78033e-05
4.43967e-05
0.000105587
4.63751e-05
0.000114027
4.85322e-05
0.000123027
5.08595e-05
0.000132807
5.33856e-05
0.000143303
5.61199e-05
0.000154589
5.90792e-05
0.000166768
6.2286e-05
0.000179801
6.57526e-05
0.000193869
6.95068e-05
0.000208901
7.35605e-05
0.000225072
7.79332e-05
0.00024235
8.26528e-05
0.000260837
8.77448e-05
0.000280587
9.32427e-05
0.000301568
9.91627e-05
0.000323917
0.000105531
0.000347566
0.000112376
0.000372512
0.000119717
0.000398759
0.000127578
0.000426194
0.000135984
0.000454675
0.000144948
0.000484037
0.000154482
0.000513995
0.000164592
0.000544161
0.000175272
0.000574021
0.000186505
0.000602898
0.000198259
0.000629909
0.000210477
0.000653921
0.000223089
0.000673495
0.000235964
0.000686814
0.000248992
0.000691631
0.000261894
0.000685189
0.000274436
0.000664145
0.000286252
0.000624472
0.000296939
0.00056155
0.000305919
0.000469993
0.000312636
0.000344671
0.000316333
0.000181969
-3.49744e-05
0.000316106
2.45893e-05
2.04133e-05
-2.42501e-05
2.49623e-05
2.2069e-05
2.53571e-05
2.3858e-05
2.57921e-05
2.5791e-05
2.62542e-05
2.78798e-05
2.67624e-05
3.01367e-05
2.73038e-05
3.25748e-05
2.78984e-05
3.52081e-05
2.85328e-05
3.80456e-05
2.92301e-05
4.11144e-05
2.99728e-05
4.44359e-05
3.07887e-05
4.8024e-05
3.16573e-05
5.18997e-05
3.26129e-05
5.60666e-05
3.36345e-05
6.05602e-05
3.47539e-05
6.54387e-05
3.59504e-05
7.07056e-05
3.7263e-05
7.63406e-05
3.8673e-05
8.24442e-05
4.02092e-05
8.90606e-05
4.18657e-05
9.6141e-05
4.36712e-05
0.000103785
4.56149e-05
0.000112079
4.77339e-05
0.00012091
5.00201e-05
0.000130517
5.25013e-05
0.000140821
5.51869e-05
0.0001519
5.80932e-05
0.00016386
6.12427e-05
0.00017665
6.46469e-05
0.000190463
6.83342e-05
0.000205214
7.23134e-05
0.00022109
7.6609e-05
0.000238049
8.12422e-05
0.000256192
8.62424e-05
0.000275579
9.16406e-05
0.000296166
9.74529e-05
0.000318103
0.000103705
0.000341312
0.000110425
0.000365792
0.000117631
0.000391552
0.000125349
0.000418476
0.0001336
0.000446425
0.0001424
0.000475238
0.000151759
0.000504637
0.000161684
0.000534238
0.000172168
0.000563538
0.000183196
0.000591871
0.000194737
0.00061837
0.000206734
0.00064192
0.000219119
0.000661111
0.000231764
0.000674155
0.00024456
0.000678852
0.000257234
0.00067249
0.000269551
0.000651804
0.000281158
0.000612825
0.000291656
0.000551039
0.000300478
0.000461142
0.000307069
0.000338083
0.000310718
0.000178306
-3.49193e-05
0.000310583
2.4214e-05
2.0079e-05
-2.38816e-05
2.45803e-05
2.17075e-05
2.4968e-05
2.34669e-05
2.53953e-05
2.5368e-05
2.58495e-05
2.74224e-05
2.63486e-05
2.9642e-05
2.68809e-05
3.20396e-05
2.74646e-05
3.46291e-05
2.80883e-05
3.74184e-05
2.87727e-05
4.04353e-05
2.95032e-05
4.37013e-05
3.03038e-05
4.72293e-05
3.11582e-05
5.10401e-05
3.20961e-05
5.51349e-05
3.31009e-05
5.95498e-05
3.41997e-05
6.43458e-05
3.53762e-05
6.95236e-05
3.66649e-05
7.50572e-05
3.80508e-05
8.10532e-05
3.95592e-05
8.75564e-05
4.11868e-05
9.45087e-05
4.296e-05
0.000102014
4.48692e-05
0.000110165
4.69503e-05
0.00011883
4.91959e-05
0.000128267
5.16327e-05
0.000138384
5.42702e-05
0.000149259
5.71245e-05
0.000161004
6.02172e-05
0.000173555
6.35603e-05
0.000187119
6.71806e-05
0.000201594
7.10892e-05
0.00021718
7.53054e-05
0.000233823
7.98559e-05
0.000251632
8.47651e-05
0.000270662
9.00653e-05
0.000290863
9.57718e-05
0.000312395
0.00010191
0.000335173
0.000108507
0.000359195
0.000115582
0.000384475
0.000123158
0.000410897
0.000131258
0.000438321
0.000139897
0.000466595
0.000149085
0.000495442
0.000158828
0.000524488
0.000169122
0.000553235
0.00017995
0.000581033
0.000191283
0.000607029
0.000203065
0.000630129
0.000215229
0.000648946
0.00022765
0.000661729
0.000240221
0.000666315
0.000252671
0.000660042
0.00026477
0.0006397
0.000276171
0.000601412
0.000286483
0.000540729
0.000295151
0.000452472
0.000301618
0.000331625
0.000305201
0.000174707
-3.48168e-05
0.000305124
2.38547e-05
1.97501e-05
-2.35274e-05
2.42149e-05
2.13518e-05
2.45967e-05
2.30822e-05
2.50166e-05
2.4952e-05
2.54635e-05
2.69725e-05
2.59538e-05
2.91555e-05
2.64769e-05
3.15135e-05
2.70502e-05
3.406e-05
2.76629e-05
3.6802e-05
2.8335e-05
3.9768e-05
2.90521e-05
4.29795e-05
2.98384e-05
4.64486e-05
3.0677e-05
5.01955e-05
3.15982e-05
5.42194e-05
3.25844e-05
5.85571e-05
3.36636e-05
6.32721e-05
3.48186e-05
6.83624e-05
3.60844e-05
7.37963e-05
3.74451e-05
7.96868e-05
3.89266e-05
8.6079e-05
4.05249e-05
9.29055e-05
4.22662e-05
0.000100276
4.41412e-05
0.000108286
4.61848e-05
0.000116788
4.83899e-05
0.000126058
5.07827e-05
0.000135991
5.33726e-05
0.000146666
5.61752e-05
0.000158199
5.92121e-05
0.000170516
6.24945e-05
0.000183835
6.60496e-05
0.00019804
6.98861e-05
0.000213341
7.40275e-05
0.000229676
7.84943e-05
0.000247154
8.33147e-05
0.000265834
8.85185e-05
0.000285656
9.41211e-05
0.000306791
0.000100148
0.000329145
0.000106624
0.000352718
0.00011357
0.000377529
0.000121008
0.000403459
0.00012896
0.000430369
0.000137441
0.000458115
0.000146462
0.000486423
0.000156029
0.000514923
0.000166136
0.00054313
0.00017677
0.000570401
0.0001879
0.000595901
0.000199473
0.000618554
0.000211422
0.000637001
0.000223624
0.000649518
0.000235974
0.000653988
0.000248206
0.000647793
0.00026009
0.000627794
0.00027129
0.000590178
0.000281419
0.000530589
0.000289934
0.000443933
0.000296282
0.00032528
0.000299792
0.000171176
-3.48325e-05
0.000299731
2.35153e-05
1.94263e-05
-2.31939e-05
2.38697e-05
2.10017e-05
2.42452e-05
2.27037e-05
2.4658e-05
2.45429e-05
2.50977e-05
2.65303e-05
2.55794e-05
2.86775e-05
2.60941e-05
3.09967e-05
2.6657e-05
3.35012e-05
2.72596e-05
3.61969e-05
2.79191e-05
3.91132e-05
2.86242e-05
4.22714e-05
2.93952e-05
4.56829e-05
3.02196e-05
4.93675e-05
3.11229e-05
5.33218e-05
3.2092e-05
5.75838e-05
3.31503e-05
6.22193e-05
3.42848e-05
6.72236e-05
3.55264e-05
7.25596e-05
3.68625e-05
7.83465e-05
3.83161e-05
8.46294e-05
3.98853e-05
9.13323e-05
4.15942e-05
9.857e-05
4.34348e-05
0.000106441
4.54408e-05
0.000114784
4.76056e-05
0.00012389
4.99545e-05
0.000133642
5.24971e-05
0.000144121
5.52486e-05
0.000155446
5.823e-05
0.000167533
6.14526e-05
0.000180612
6.49424e-05
0.000194551
6.87103e-05
0.000209573
7.27746e-05
0.000225604
7.71612e-05
0.000242759
8.18936e-05
0.000261095
8.70027e-05
0.000280545
9.25035e-05
0.00030129
9.84205e-05
0.000323228
0.000104779
0.000346359
0.000111598
0.000370708
0.000118901
0.000396154
0.000126708
0.000422558
0.000135036
0.000449782
0.000143894
0.000477558
0.000153288
0.000505521
0.000163214
0.000533193
0.000173658
0.000559946
0.000184591
0.000584958
0.000195959
0.000607174
0.000207697
0.000625258
0.000219685
0.000637521
0.000231818
0.000641882
0.000243836
0.000635774
0.00025551
0.00061611
0.000266512
0.000579162
0.00027646
0.000520639
0.000284826
0.000435565
0.000291058
0.000319058
0.000294492
0.000167731
-3.47274e-05
0.000294415
2.32004e-05
1.91076e-05
-2.28821e-05
2.35492e-05
2.06571e-05
2.39191e-05
2.23313e-05
2.43252e-05
2.41404e-05
2.47575e-05
2.60954e-05
2.52312e-05
2.82074e-05
2.57365e-05
3.04886e-05
2.62899e-05
3.29518e-05
2.68809e-05
3.56021e-05
2.7529e-05
3.84695e-05
2.82201e-05
4.15755e-05
2.89775e-05
4.49304e-05
2.97853e-05
4.85537e-05
3.06722e-05
5.244e-05
3.16219e-05
5.66276e-05
3.26609e-05
6.11853e-05
3.37732e-05
6.61052e-05
3.49918e-05
7.13454e-05
3.63025e-05
7.70305e-05
3.7729e-05
8.32064e-05
3.92687e-05
8.97881e-05
4.09458e-05
9.68955e-05
4.27521e-05
0.000104631
4.47208e-05
0.000112817
4.68454e-05
0.000121762
4.91509e-05
0.000131337
5.16465e-05
0.000141623
5.43472e-05
0.000152744
5.72738e-05
0.000164605
6.0437e-05
0.000177447
6.38632e-05
0.000191126
6.75609e-05
0.000205873
7.15526e-05
0.000221607
7.58582e-05
0.000238443
8.05046e-05
0.000256442
8.55207e-05
0.000275526
9.09213e-05
0.000295889
9.67309e-05
0.000317418
0.000102974
0.000340116
0.000109669
0.000364012
0.00011684
0.000388983
0.000124506
0.000414892
0.000132683
0.000441606
0.000141382
0.00046886
0.000150608
0.000496297
0.000160357
0.000523446
0.000170616
0.00054969
0.000181355
0.000574222
0.000192523
0.000596006
0.000204055
0.000613731
0.000215833
0.000625738
0.000227753
0.000629989
0.000239559
0.000623957
0.000251026
0.000604624
0.000261833
0.000568327
0.000271604
0.000510859
0.000279822
0.000427327
0.000285942
0.00031294
0.000289298
0.000164345
-3.46883e-05
0.000289185
2.29061e-05
1.87939e-05
-2.25939e-05
2.32489e-05
2.03182e-05
2.36124e-05
2.19652e-05
2.40114e-05
2.37449e-05
2.44363e-05
2.5668e-05
2.49015e-05
2.77457e-05
2.53984e-05
2.99895e-05
2.59416e-05
3.24123e-05
2.65228e-05
3.50182e-05
2.71586e-05
3.78379e-05
2.78381e-05
4.08929e-05
2.85809e-05
4.41925e-05
2.93747e-05
4.7756e-05
3.02442e-05
5.15756e-05
3.1177e-05
5.56905e-05
3.21954e-05
6.01718e-05
3.32873e-05
6.50091e-05
3.4482e-05
7.0155e-05
3.57681e-05
7.57404e-05
3.7167e-05
8.18111e-05
3.86775e-05
8.82738e-05
4.03225e-05
9.52532e-05
4.20947e-05
0.000102855
4.40261e-05
0.000110887
4.61108e-05
0.000119674
4.83731e-05
0.000129074
5.08221e-05
0.000139171
5.34726e-05
0.000150092
5.63448e-05
0.000161732
5.94497e-05
0.000174342
6.28123e-05
0.000187764
6.64431e-05
0.000202242
7.03602e-05
0.000217682
7.45881e-05
0.000234207
7.91495e-05
0.000251874
8.40742e-05
0.000270599
8.93768e-05
0.000290586
9.5081e-05
0.000311714
0.000101211
0.000333985
0.000107785
0.000357436
0.000114827
0.00038194
0.000122355
0.00040736
0.000130386
0.000433571
0.000138929
0.000460311
0.000147991
0.000487227
0.000157567
0.00051386
0.000167644
0.000539602
0.000178193
0.000563661
0.000189165
0.000585021
0.000200494
0.000602394
0.000212064
0.000614155
0.000223774
0.0006183
0.000235373
0.000612355
0.000246636
0.000593348
0.000257251
0.000557698
0.000266845
0.000501261
0.000274917
0.000419255
0.000280926
0.000306942
0.000284206
0.000161059
-3.45017e-05
0.000284049
2.26306e-05
1.84856e-05
-2.23234e-05
2.29673e-05
1.99853e-05
2.33247e-05
2.16056e-05
2.37164e-05
2.33564e-05
2.41339e-05
2.52483e-05
2.45907e-05
2.72921e-05
2.50786e-05
2.94993e-05
2.56121e-05
3.18824e-05
2.61827e-05
3.44446e-05
2.68072e-05
3.72175e-05
2.74741e-05
4.02223e-05
2.82035e-05
4.34677e-05
2.89822e-05
4.69725e-05
2.98358e-05
5.07269e-05
3.07507e-05
5.47704e-05
3.17502e-05
5.9177e-05
3.2821e-05
6.39333e-05
3.39932e-05
6.8987e-05
3.52545e-05
7.44745e-05
3.66268e-05
8.04422e-05
3.81085e-05
8.67882e-05
3.97222e-05
9.36421e-05
4.14608e-05
0.000101113
4.33556e-05
0.000108993
4.5401e-05
0.000117626
4.76206e-05
0.000126855
5.00238e-05
0.000136766
5.26246e-05
0.00014749
5.54435e-05
0.000158912
5.84907e-05
0.000171294
6.17915e-05
0.000184465
6.53544e-05
0.000198678
6.9201e-05
0.000213831
7.33507e-05
0.000230049
7.78293e-05
0.00024739
8.26643e-05
0.000265762
8.78706e-05
0.000285379
9.34716e-05
0.000306113
9.94906e-05
0.000327966
0.000105947
0.00035098
0.000112862
0.000375025
0.000120255
0.000399967
0.000128142
0.000425684
0.000136533
0.000451921
0.000145434
0.000478328
0.000154841
0.000504455
0.00016474
0.000529705
0.000175104
0.000553301
0.000185882
0.000574244
0.000197011
0.000591272
0.000208378
0.000602787
0.000219881
0.000606827
0.000231274
0.000600957
0.000242335
0.000582271
0.00025276
0.00054725
0.000262181
0.000491831
0.000270108
0.000411311
0.000276007
0.000301045
0.000279211
0.000157821
-3.43669e-05
0.000279007
2.23674e-05
1.81829e-05
-2.20667e-05
2.26977e-05
1.96584e-05
2.30483e-05
2.12526e-05
2.34326e-05
2.2975e-05
2.38426e-05
2.48362e-05
2.42907e-05
2.68468e-05
2.47704e-05
2.90181e-05
2.52937e-05
3.13622e-05
2.58549e-05
3.38817e-05
2.64675e-05
3.66086e-05
2.71234e-05
3.95643e-05
2.78388e-05
4.27566e-05
2.86045e-05
4.6204e-05
2.94416e-05
4.98944e-05
3.03407e-05
5.38682e-05
3.13207e-05
5.82015e-05
3.23723e-05
6.28785e-05
3.35217e-05
6.78417e-05
3.47597e-05
7.32333e-05
3.61055e-05
7.90998e-05
3.75594e-05
8.53312e-05
3.91421e-05
9.20618e-05
4.08479e-05
9.94046e-05
4.27067e-05
0.000107136
4.47136e-05
0.000115616
4.68914e-05
0.000124677
4.92495e-05
0.000134405
5.18019e-05
0.000144937
5.45682e-05
0.000156144
5.7559e-05
0.000168303
6.07984e-05
0.000181226
6.42968e-05
0.00019518
6.80716e-05
0.00021005
7.21463e-05
0.000225967
7.65431e-05
0.000242988
8.12904e-05
0.000261014
8.64024e-05
0.000280267
9.19022e-05
0.000300613
9.78129e-05
0.000322055
0.000104153
0.000344638
0.000110944
0.000368232
0.000118206
0.000392702
0.000125952
0.000417933
0.000134194
0.000443672
0.000142937
0.000469577
0.000152177
0.000495205
0.000161902
0.000519969
0.000172083
0.000543108
0.000182671
0.000563642
0.000193604
0.000580329
0.000204769
0.000591607
0.000216067
0.000595546
0.000227258
0.000589761
0.00023812
0.000571393
0.000248357
0.000536998
0.000257607
0.000482577
0.00026539
0.000403528
0.000271178
0.000295271
0.000274307
0.000154692
-3.4084e-05
0.000274057
2.21128e-05
1.7886e-05
-2.18162e-05
2.2437e-05
1.93379e-05
2.27814e-05
2.09063e-05
2.31587e-05
2.26008e-05
2.3561e-05
2.44318e-05
2.40012e-05
2.64097e-05
2.44714e-05
2.85455e-05
2.49856e-05
3.08513e-05
2.55356e-05
3.33286e-05
2.61377e-05
3.60102e-05
2.67805e-05
3.89176e-05
2.74837e-05
4.20576e-05
2.82344e-05
4.54484e-05
2.90571e-05
4.90761e-05
2.99387e-05
5.29813e-05
3.09015e-05
5.72428e-05
3.19331e-05
6.1842e-05
3.30618e-05
6.67167e-05
3.42765e-05
7.20142e-05
3.55976e-05
7.77817e-05
3.70242e-05
8.39009e-05
3.85776e-05
9.05108e-05
4.02515e-05
9.77275e-05
4.20756e-05
0.000105313
4.40451e-05
0.000113644
4.61823e-05
0.00012254
4.84966e-05
0.000132089
5.10014e-05
0.000142431
5.37166e-05
0.000153428
5.66521e-05
0.000165367
5.98322e-05
0.000178048
6.32654e-05
0.000191745
6.69725e-05
0.000206339
7.09723e-05
0.000221959
7.52894e-05
0.000238666
7.99507e-05
0.000256351
8.49703e-05
0.000275247
9.0371e-05
0.000295212
9.61755e-05
0.000316251
0.000102402
0.000338411
0.000109072
0.000361562
0.000116204
0.00038557
0.000123813
0.000410325
0.000131908
0.000435578
0.000140496
0.000460991
0.000149573
0.00048613
0.000159126
0.00051042
0.000169127
0.000533111
0.000179528
0.000553243
0.000190267
0.000569599
0.000201234
0.000580642
0.00021233
0.000584482
0.00022332
0.000578772
0.000233985
0.000560714
0.000244037
0.000526928
0.000253118
0.000473488
0.000260758
0.000395874
0.000266437
0.000289591
0.000269492
0.000151596
-3.38552e-05
0.000269197
2.18592e-05
1.75948e-05
-2.15694e-05
2.2177e-05
1.90234e-05
2.25145e-05
2.05665e-05
2.28846e-05
2.22336e-05
2.32793e-05
2.40349e-05
2.37111e-05
2.59807e-05
2.41731e-05
2.80818e-05
2.46774e-05
3.03499e-05
2.52182e-05
3.27859e-05
2.58088e-05
3.5423e-05
2.6441e-05
3.82829e-05
2.71309e-05
4.13717e-05
2.78693e-05
4.4707e-05
2.86765e-05
4.8273e-05
2.95434e-05
5.2111e-05
3.04883e-05
5.6302e-05
3.15021e-05
6.0825e-05
3.26098e-05
6.56126e-05
3.38029e-05
7.08179e-05
3.50996e-05
7.64881e-05
3.65003e-05
8.24972e-05
3.80249e-05
8.89884e-05
3.9668e-05
9.60815e-05
4.14584e-05
0.000103524
4.33916e-05
0.000111708
4.54894e-05
0.000120442
4.7761e-05
0.000129815
5.02199e-05
0.000139971
5.28851e-05
0.000150762
5.57669e-05
0.000162484
5.88884e-05
0.000174927
6.22599e-05
0.000188374
6.58984e-05
0.000202694
6.98265e-05
0.000218024
7.40654e-05
0.000234422
7.86425e-05
0.000251772
8.35717e-05
0.000270318
8.88754e-05
0.000289909
9.45759e-05
0.00031055
0.000100691
0.000332295
0.000107242
0.00035501
0.000114247
0.000378562
0.000121721
0.000402847
0.000129673
0.00042762
0.000138109
0.000452548
0.000147025
0.000477204
0.000156409
0.000501025
0.000166232
0.000523275
0.000176449
0.000543012
0.000186996
0.00055904
0.000197767
0.000569855
0.000208664
0.000573598
0.000219456
0.000567973
0.000229928
0.000550225
0.000239796
0.000517044
0.00024871
0.00046457
0.000256209
0.000388376
0.000261779
0.000284037
0.000264761
0.000148618
-3.34846e-05
0.000264425
2.16043e-05
1.73094e-05
-2.13198e-05
2.19159e-05
1.8715e-05
2.22473e-05
2.02333e-05
2.26103e-05
2.18734e-05
2.29978e-05
2.36455e-05
2.34214e-05
2.55597e-05
2.38747e-05
2.76266e-05
2.43699e-05
2.98576e-05
2.49005e-05
3.22528e-05
2.54806e-05
3.48463e-05
2.61011e-05
3.76594e-05
2.6779e-05
4.06976e-05
2.75038e-05
4.39783e-05
2.82972e-05
4.74837e-05
2.91484e-05
5.12556e-05
3.0077e-05
5.53773e-05
3.10725e-05
5.98254e-05
3.21609e-05
6.45277e-05
3.33327e-05
6.96426e-05
3.46064e-05
7.52175e-05
3.5982e-05
8.11185e-05
3.74793e-05
8.74935e-05
3.90929e-05
9.44652e-05
4.08508e-05
0.000101768
4.2749e-05
0.000109808
4.48087e-05
0.000118383
4.70391e-05
0.000127583
4.94532e-05
0.000137556
5.20701e-05
0.000148144
5.48994e-05
0.000159655
5.79647e-05
0.000171863
6.12743e-05
0.000185063
6.48483e-05
0.000199116
6.87048e-05
0.00021416
7.28676e-05
0.000230254
7.73624e-05
0.000247276
8.22032e-05
0.000265477
8.74119e-05
0.000284701
9.30105e-05
0.000304952
9.90168e-05
0.000326289
0.000105451
0.000348576
0.000112331
0.000371682
0.000119672
0.000395507
0.000127483
0.00041981
0.000135769
0.000444263
0.000144527
0.000468448
0.000153745
0.000491811
0.000163394
0.000513631
0.000173428
0.000532981
0.000183787
0.000548691
0.000194365
0.000559281
0.000205065
0.000562931
0.000215662
0.000557381
0.000225943
0.000539933
0.00023563
0.000507341
0.000244379
0.000455815
0.000251739
0.000381005
0.000257201
0.000278574
0.000260112
0.000145663
-3.31716e-05
0.000259736
2.13441e-05
1.70293e-05
-2.1066e-05
2.16496e-05
1.84124e-05
2.19746e-05
1.99062e-05
2.23305e-05
2.15199e-05
2.27109e-05
2.32633e-05
2.31264e-05
2.51465e-05
2.3572e-05
2.71799e-05
2.40576e-05
2.93746e-05
2.45794e-05
3.17298e-05
2.51484e-05
3.42803e-05
2.57588e-05
3.70475e-05
2.64238e-05
4.00361e-05
2.71369e-05
4.32632e-05
2.79155e-05
4.67089e-05
2.87529e-05
5.04159e-05
2.96646e-05
5.44695e-05
3.06436e-05
5.88439e-05
3.17125e-05
6.34623e-05
3.28643e-05
6.84883e-05
3.41152e-05
7.39694e-05
3.54668e-05
7.97643e-05
3.69374e-05
8.6025e-05
3.85225e-05
9.28777e-05
4.02492e-05
0.000100042
4.21136e-05
0.000107941
4.41365e-05
0.00011636
4.6327e-05
0.000125391
4.86979e-05
0.000135184
5.12677e-05
0.000145573
5.40464e-05
0.000156876
5.70563e-05
0.000168854
6.03073e-05
0.000181813
6.38161e-05
0.000195602
6.76044e-05
0.000210366
7.16925e-05
0.000226162
7.61069e-05
0.000242861
8.08612e-05
0.000260723
8.5977e-05
0.000279585
9.14757e-05
0.000299453
9.7375e-05
0.000320389
0.000103694
0.000342255
0.000110453
0.000364921
0.000117663
0.000388293
0.000125335
0.000412132
0.000133475
0.000436117
0.000142077
0.000459836
0.00015113
0.000482747
0.000160607
0.000504141
0.000170463
0.000523111
0.000180635
0.000538506
0.000191022
0.000548877
0.000201528
0.000552435
0.000211933
0.000546969
0.000222026
0.000529823
0.000231536
0.000497817
0.000240122
0.000447223
0.000247345
0.000373786
0.000252699
0.000273238
0.00025554
0.000142833
-3.27256e-05
0.00025513
2.10791e-05
1.67546e-05
-2.08045e-05
2.13791e-05
1.81155e-05
2.16985e-05
1.95853e-05
2.2048e-05
2.11729e-05
2.24214e-05
2.28882e-05
2.28296e-05
2.47409e-05
2.32662e-05
2.67412e-05
2.37436e-05
2.89e-05
2.42547e-05
3.12159e-05
2.48141e-05
3.37241e-05
2.54121e-05
3.6446e-05
2.6066e-05
3.93857e-05
2.67651e-05
4.25599e-05
2.75308e-05
4.59469e-05
2.83524e-05
4.95897e-05
2.9249e-05
5.35764e-05
3.02103e-05
5.78783e-05
3.12613e-05
6.24144e-05
3.2393e-05
6.7353e-05
3.36227e-05