/*--------------------------------*- C++ -*----------------------------------*\
  =========                 |
  \\      /  F ield         | OpenFOAM: The Open Source CFD Toolbox
   \\    /   O peration     | Website:  https://openfoam.org
    \\  /    A nd           | Version:  6.0
     \\/     M anipulation  |
\*---------------------------------------------------------------------------*/
FoamFile
{
    version     2.0;
    format      ascii;
    class       surfaceScalarField;
    location    "0.14";
    object      phi;
}
// * * * * * * * * * * * * * * * * * * * * * * * * * * * * * * * * * * * * * //

dimensions      [0 3 -1 0 0 0 0];

internalField   nonuniform List<scalar> 
26699
(
2.0052e-05
0.005201
3.6069e-10
4.0126e-05
0.0051116
5.964e-05
0.0049351
7.8188e-05
0.0046741
9.5418e-05
0.0043332
0.00011103
0.0039182
0.00012472
0.0034362
0.00013629
0.0028953
0.00014544
0.002305
0.00015206
0.0016752
0.00015664
0.0010162
0.00045706
4.179e-05
2.0053e-05
0.0051809
1.0175e-09
4.013e-05
0.0050916
5.9646e-05
0.0049155
7.8197e-05
0.0046556
9.5429e-05
0.004316
0.00011104
0.0039026
0.00012473
0.0034225
0.0001363
0.0028837
0.00014544
0.0022959
0.00015181
0.0016689
0.00015739
0.0010106
0.00053111
8.3332e-05
2.0055e-05
0.0051609
1.6756e-09
4.0135e-05
0.0050715
5.9654e-05
0.004896
7.8208e-05
0.004637
9.5445e-05
0.0042988
0.00011106
0.003887
0.00012476
0.0034088
0.00013631
0.0028722
0.00014549
0.0022867
0.00015159
0.0016628
0.00015765
0.0010045
0.00057432
0.00011443
2.0058e-05
0.0051408
2.3315e-09
4.014e-05
0.0050514
5.9664e-05
0.0048765
7.8222e-05
0.0046185
9.5465e-05
0.0042815
0.00011108
0.0038714
0.00012479
0.0033951
0.00013634
0.0028606
0.00014554
0.0022775
0.00015147
0.0016568
0.00015747
0.00099856
0.00059596
0.00013583
2.0061e-05
0.0051208
2.9725e-09
4.0148e-05
0.0050313
5.9676e-05
0.004857
7.824e-05
0.0045999
9.549e-05
0.0042643
0.00011111
0.0038557
0.00012483
0.0033814
0.00013637
0.0028491
0.00014559
0.0022683
0.00015143
0.001651
0.00015707
0.00099291
0.00060357
0.00014946
2.0065e-05
0.0051007
3.5912e-09
4.0157e-05
0.0050112
5.9691e-05
0.0048374
7.8261e-05
0.0045813
9.5518e-05
0.004247
0.00011115
0.0038401
0.00012488
0.0033676
0.0001364
0.0028376
0.00014564
0.002259
0.00015143
0.0016452
0.00015665
0.00098769
0.00060268
0.00015754
2.0069e-05
0.0050806
4.179e-09
4.0167e-05
0.0049911
5.9707e-05
0.0048179
7.8283e-05
0.0045627
9.5547e-05
0.0042297
0.00011118
0.0038245
0.00012492
0.0033539
0.00013644
0.0028261
0.00014568
0.0022498
0.00015147
0.0016394
0.0001563
0.00098286
0.00059703
0.00016196
2.0075e-05
0.0050605
4.7267e-09
4.0178e-05
0.004971
5.9724e-05
0.0047984
7.8307e-05
0.0045442
9.5577e-05
0.0042125
0.00011122
0.0038088
0.00012495
0.0033402
0.00013647
0.0028146
0.00014571
0.0022405
0.00015152
0.0016336
0.00015606
0.00097832
0.00058892
0.00016416
2.008e-05
0.0050405
5.2259e-09
4.0189e-05
0.0049509
5.9741e-05
0.0047788
7.8329e-05
0.0045256
9.5604e-05
0.0041952
0.00011125
0.0037932
0.00012498
0.0033264
0.00013649
0.002803
0.00014573
0.0022313
0.00015158
0.0016278
0.00015591
0.00097398
0.00057972
0.00016512
2.0085e-05
0.0050204
5.6701e-09
4.02e-05
0.0049308
5.9757e-05
0.0047592
7.835e-05
0.004507
9.5628e-05
0.0041779
0.00011127
0.0037775
0.00012501
0.0033127
0.00013651
0.0027915
0.00014575
0.0022221
0.00015163
0.0016219
0.00015583
0.00096978
0.00057014
0.00016541
2.009e-05
0.0050003
6.0558e-09
4.021e-05
0.0049107
5.9772e-05
0.0047397
7.8368e-05
0.0044884
9.5649e-05
0.0041606
0.00011129
0.0037619
0.00012503
0.0032989
0.00013653
0.00278
0.00014576
0.0022128
0.00015169
0.001616
0.0001558
0.00096567
0.00056055
0.00016539
2.0094e-05
0.0049802
6.3828e-09
4.0219e-05
0.0048906
5.9784e-05
0.0047201
7.8383e-05
0.0044698
9.5665e-05
0.0041434
0.00011131
0.0037463
0.00012504
0.0032852
0.00013654
0.0027685
0.00014577
0.0022036
0.00015174
0.00161
0.00015579
0.00096162
0.00055112
0.00016522
2.0098e-05
0.0049601
6.6542e-09
4.0226e-05
0.0048704
5.9795e-05
0.0047005
7.8396e-05
0.0044512
9.5678e-05
0.0041261
0.00011132
0.0037306
0.00012505
0.0032715
0.00013655
0.002757
0.00014578
0.0021944
0.00015179
0.001604
0.0001558
0.00095761
0.00054192
0.000165
2.0101e-05
0.00494
6.8751e-09
4.0232e-05
0.0048503
5.9803e-05
0.004681
7.8406e-05
0.0044326
9.5688e-05
0.0041088
0.00011133
0.003715
0.00012506
0.0032578
0.00013656
0.0027455
0.00014578
0.0021852
0.00015184
0.0015979
0.00015582
0.00095363
0.00053298
0.00016476
2.0103e-05
0.0049198
7.0525e-09
4.0237e-05
0.0048302
5.981e-05
0.0046614
7.8413e-05
0.004414
9.5696e-05
0.0040915
0.00011134
0.0036993
0.00012507
0.003244
0.00013656
0.002734
0.00014578
0.0021759
0.00015189
0.0015918
0.00015584
0.00094968
0.0005243
0.00016452
2.0105e-05
0.0048997
7.1936e-09
4.0241e-05
0.00481
5.9815e-05
0.0046418
7.8419e-05
0.0043954
9.5702e-05
0.0040742
0.00011134
0.0036837
0.00012507
0.0032303
0.00013657
0.0027225
0.00014579
0.0021667
0.00015193
0.0015857
0.00015586
0.00094575
0.00051588
0.00016429
2.0107e-05
0.0048796
7.3056e-09
4.0244e-05
0.0047899
5.9819e-05
0.0046223
7.8423e-05
0.0043768
9.5706e-05
0.0040569
0.00011135
0.0036681
0.00012507
0.0032166
0.00013657
0.002711
0.00014579
0.0021575
0.00015197
0.0015795
0.00015589
0.00094183
0.0005077
0.00016406
2.0108e-05
0.0048595
7.395e-09
4.0246e-05
0.0047697
5.9822e-05
0.0046027
7.8427e-05
0.0043582
9.5709e-05
0.0040397
0.00011135
0.0036524
0.00012508
0.0032028
0.00013658
0.0026995
0.00014579
0.0021483
0.00015201
0.0015733
0.00015591
0.00093794
0.00049975
0.00016385
2.0109e-05
0.0048394
7.4674e-09
4.0248e-05
0.0047496
5.9824e-05
0.0045831
7.8429e-05
0.0043396
9.5712e-05
0.0040224
0.00011135
0.0036368
0.00012508
0.0031891
0.00013658
0.002688
0.00014579
0.0021391
0.00015205
0.001567
0.00015593
0.00093406
0.00049204
0.00016365
2.011e-05
0.0048193
7.5273e-09
4.0249e-05
0.0047295
5.9826e-05
0.0045635
7.8431e-05
0.004321
9.5714e-05
0.0040051
0.00011135
0.0036211
0.00012508
0.0031754
0.00013659
0.0026765
0.0001458
0.0021299
0.00015209
0.0015607
0.00015596
0.00093019
0.00048454
0.00016346
2.011e-05
0.0047991
7.5784e-09
4.025e-05
0.0047093
5.9828e-05
0.0045439
7.8433e-05
0.0043024
9.5716e-05
0.0039878
0.00011136
0.0036055
0.00012508
0.0031617
0.00013659
0.002665
0.0001458
0.0021207
0.00015213
0.0015544
0.00015598
0.00092633
0.00047725
0.00016327
2.0111e-05
0.004779
7.6234e-09
4.0251e-05
0.0046892
5.9829e-05
0.0045244
7.8434e-05
0.0042837
9.5718e-05
0.0039705
0.00011136
0.0035899
0.00012509
0.0031479
0.00013659
0.0026535
0.0001458
0.0021114
0.00015216
0.001548
0.00015601
0.00092249
0.00047016
0.0001631
2.0111e-05
0.0047589
7.6644e-09
4.0252e-05
0.0046691
5.983e-05
0.0045048
7.8436e-05
0.0042651
9.5719e-05
0.0039532
0.00011136
0.0035742
0.00012509
0.0031342
0.0001366
0.002642
0.00014581
0.0021022
0.0001522
0.0015416
0.00015603
0.00091865
0.00046327
0.00016293
2.0112e-05
0.0047388
7.7027e-09
4.0253e-05
0.0046489
5.9831e-05
0.0044852
7.8437e-05
0.0042465
9.5721e-05
0.003936
0.00011136
0.0035586
0.00012509
0.0031205
0.0001366
0.0026305
0.00014581
0.002093
0.00015223
0.0015352
0.00015606
0.00091482
0.00045656
0.00016277
2.0112e-05
0.0047187
7.7395e-09
4.0253e-05
0.0046288
5.9832e-05
0.0044656
7.8438e-05
0.0042279
9.5722e-05
0.0039187
0.00011136
0.0035429
0.00012509
0.0031067
0.00013661
0.002619
0.00014581
0.0020838
0.00015226
0.0015288
0.00015609
0.000911
0.00045004
0.00016261
2.0112e-05
0.0046986
7.7754e-09
4.0254e-05
0.0046086
5.9833e-05
0.0044461
7.8439e-05
0.0042093
9.5724e-05
0.0039014
0.00011137
0.0035273
0.00012509
0.003093
0.00013661
0.0026075
0.00014582
0.0020746
0.0001523
0.0015223
0.00015611
0.00090718
0.00044369
0.00016246
2.0112e-05
0.0046784
7.811e-09
4.0254e-05
0.0045885
5.9833e-05
0.0044265
7.8441e-05
0.0041907
9.5725e-05
0.0038841
0.00011137
0.0035117
0.0001251
0.0030793
0.00013662
0.0025959
0.00014582
0.0020654
0.00015233
0.0015158
0.00015614
0.00090337
0.00043751
0.00016232
2.0113e-05
0.0046583
7.8465e-09
4.0255e-05
0.0045683
5.9834e-05
0.0044069
7.8442e-05
0.0041721
9.5727e-05
0.0038668
0.00011137
0.003496
0.0001251
0.0030656
0.00013662
0.0025844
0.00014583
0.0020562
0.00015236
0.0015092
0.00015616
0.00089957
0.00043149
0.00016218
2.0113e-05
0.0046382
7.8821e-09
4.0255e-05
0.0045482
5.9835e-05
0.0043873
7.8443e-05
0.0041535
9.5728e-05
0.0038495
0.00011137
0.0034804
0.0001251
0.0030518
0.00013663
0.0025729
0.00014583
0.002047
0.00015238
0.0015027
0.00015619
0.00089576
0.00042563
0.00016205
2.0113e-05
0.0046181
7.918e-09
4.0256e-05
0.0045281
5.9836e-05
0.0043677
7.8444e-05
0.0041349
9.573e-05
0.0038323
0.00011137
0.0034647
0.0001251
0.0030381
0.00013663
0.0025614
0.00014583
0.0020378
0.00015241
0.0014961
0.00015621
0.00089196
0.00041992
0.00016192
2.0113e-05
0.0045979
7.9543e-09
4.0257e-05
0.0045079
5.9837e-05
0.0043482
7.8445e-05
0.0041163
9.5731e-05
0.003815
0.00011138
0.0034491
0.00012511
0.0030244
0.00013664
0.0025498
0.00014584
0.0020286
0.00015244
0.0014895
0.00015624
0.00088816
0.00041436
0.0001618
2.0114e-05
0.0045778
7.9911e-09
4.0257e-05
0.0044878
5.9838e-05
0.0043286
7.8447e-05
0.0040977
9.5733e-05
0.0037977
0.00011138
0.0034334
0.00012511
0.0030106
0.00013664
0.0025383
0.00014584
0.0020194
0.00015246
0.0014829
0.00015627
0.00088436
0.00040894
0.00016168
2.0114e-05
0.0045577
8.0283e-09
4.0258e-05
0.0044676
5.9839e-05
0.004309
7.8448e-05
0.0040791
9.5735e-05
0.0037804
0.00011138
0.0034178
0.00012511
0.0029969
0.00013665
0.0025268
0.00014585
0.0020102
0.00015249
0.0014763
0.00015629
0.00088055
0.00040366
0.00016157
2.0114e-05
0.0045376
8.066e-09
4.0258e-05
0.0044475
5.984e-05
0.0042894
7.8449e-05
0.0040605
9.5736e-05
0.0037631
0.00011138
0.0034021
0.00012511
0.0029832
0.00013665
0.0025152
0.00014585
0.002001
0.00015251
0.0014696
0.00015632
0.00087675
0.00039851
0.00016146
2.0115e-05
0.0045175
8.1043e-09
4.0259e-05
0.0044273
5.9841e-05
0.0042698
7.845e-05
0.0040418
9.5738e-05
0.0037458
0.00011138
0.0033865
0.00012512
0.0029694
0.00013666
0.0025037
0.00014586
0.0019918
0.00015254
0.0014629
0.00015634
0.00087295
0.00039349
0.00016136
2.0115e-05
0.0044973
8.1431e-09
4.0259e-05
0.0044072
5.9842e-05
0.0042502
7.8452e-05
0.0040232
9.574e-05
0.0037285
0.00011139
0.0033708
0.00012512
0.0029557
0.00013666
0.0024921
0.00014587
0.0019826
0.00015256
0.0014562
0.00015637
0.00086914
0.00038859
0.00016126
2.0115e-05
0.0044772
8.1824e-09
4.026e-05
0.004387
5.9842e-05
0.0042307
7.8453e-05
0.0040046
9.5742e-05
0.0037112
0.00011139
0.0033552
0.00012512
0.002942
0.00013667
0.0024806
0.00014587
0.0019734
0.00015258
0.0014495
0.00015639
0.00086533
0.00038382
0.00016117
2.0115e-05
0.0044571
8.2224e-09
4.0261e-05
0.0043669
5.9843e-05
0.0042111
7.8454e-05
0.003986
9.5743e-05
0.003694
0.00011139
0.0033396
0.00012513
0.0029282
0.00013668
0.0024691
0.00014588
0.0019642
0.0001526
0.0014428
0.00015642
0.00086152
0.00037916
0.00016107
2.0116e-05
0.004437
8.2629e-09
4.0261e-05
0.0043468
5.9844e-05
0.0041915
7.8456e-05
0.0039674
9.5745e-05
0.0036767
0.00011139
0.0033239
0.00012513
0.0029145
0.00013668
0.0024575
0.00014588
0.001955
0.00015262
0.001436
0.00015644
0.00085771
0.00037462
0.00016099
2.0116e-05
0.0044168
8.3039e-09
4.0262e-05
0.0043266
5.9845e-05
0.0041719
7.8457e-05
0.0039488
9.5747e-05
0.0036594
0.0001114
0.0033083
0.00012513
0.0029008
0.00013669
0.0024459
0.00014589
0.0019458
0.00015265
0.0014293
0.00015646
0.00085389
0.00037018
0.0001609
2.0116e-05
0.0043967
8.3456e-09
4.0263e-05
0.0043065
5.9846e-05
0.0041523
7.8459e-05
0.0039302
9.5749e-05
0.0036421
0.0001114
0.0032926
0.00012514
0.002887
0.00013669
0.0024344
0.0001459
0.0019366
0.00015266
0.0014225
0.00015649
0.00085006
0.00036585
0.00016082
2.0117e-05
0.0043766
8.3879e-09
4.0263e-05
0.0042863
5.9847e-05
0.0041327
7.846e-05
0.0039116
9.5751e-05
0.0036248
0.0001114
0.003277
0.00012514
0.0028733
0.0001367
0.0024228
0.0001459
0.0019274
0.00015268
0.0014157
0.00015651
0.00084623
0.00036162
0.00016074
2.0117e-05
0.0043565
8.4308e-09
4.0264e-05
0.0042662
5.9849e-05
0.0041132
7.8462e-05
0.003893
9.5753e-05
0.0036075
0.0001114
0.0032613
0.00012514
0.0028596
0.0001367
0.0024113
0.00014591
0.0019182
0.0001527
0.0014089
0.00015654
0.0008424
0.00035748
0.00016067
2.0117e-05
0.0043363
8.4744e-09
4.0265e-05
0.004246
5.985e-05
0.0040936
7.8463e-05
0.0038743
9.5755e-05
0.0035902
0.00011141
0.0032456
0.00012515
0.0028458
0.00013671
0.0023997
0.00014591
0.001909
0.00015272
0.0014021
0.00015656
0.00083856
0.00035345
0.0001606
2.0118e-05
0.0043162
8.5185e-09
4.0265e-05
0.0042259
5.9851e-05
0.004074
7.8465e-05
0.0038557
9.5757e-05
0.0035729
0.00011141
0.00323
0.00012515
0.0028321
0.00013672
0.0023881
0.00014592
0.0018998
0.00015274
0.0013953
0.00015658
0.00083472
0.0003495
0.00016053
2.0118e-05
0.0042961
8.5634e-09
4.0266e-05
0.0042057
5.9852e-05
0.0040544
7.8466e-05
0.0038371
9.5759e-05
0.0035556
0.00011141
0.0032143
0.00012515
0.0028183
0.00013672
0.0023766
0.00014593
0.0018905
0.00015275
0.0013885
0.00015661
0.00083086
0.00034564
0.00016046
2.0118e-05
0.004276
8.6089e-09
4.0267e-05
0.0041856
5.9853e-05
0.0040348
7.8468e-05
0.0038185
9.5761e-05
0.0035383
0.00011142
0.0031987
0.00012516
0.0028046
0.00013673
0.002365
0.00014594
0.0018813
0.00015277
0.0013817
0.00015663
0.00082701
0.00034187
0.0001604
2.0118e-05
0.0042558
8.655e-09
4.0267e-05
0.0041654
5.9854e-05
0.0040152
7.8469e-05
0.0037999
9.5763e-05
0.003521
0.00011142
0.003183
0.00012516
0.0027909
0.00013674
0.0023534
0.00014594
0.0018721
0.00015279
0.0013748
0.00015665
0.00082315
0.00033818
0.00016034
2.0119e-05
0.0042357
8.7018e-09
4.0268e-05
0.0041453
5.9855e-05
0.0039956
7.8471e-05
0.0037813
9.5765e-05
0.0035037
0.00011142
0.0031674
0.00012516
0.0027771
0.00013674
0.0023418
0.00014595
0.0018629
0.0001528
0.001368
0.00015667
0.00081928
0.00033457
0.00016028
2.0119e-05
0.0042156
8.7494e-09
4.0269e-05
0.0041251
5.9856e-05
0.0039761
7.8473e-05
0.0037626
9.5767e-05
0.0034864
0.00011142
0.0031517
0.00012517
0.0027634
0.00013675
0.0023303
0.00014596
0.0018537
0.00015282
0.0013611
0.00015669
0.0008154
0.00033104
0.00016023
2.012e-05
0.0041955
8.7976e-09
4.027e-05
0.004105
5.9858e-05
0.0039565
7.8474e-05
0.003744
9.577e-05
0.0034692
0.00011143
0.0031361
0.00012517
0.0027496
0.00013675
0.0023187
0.00014596
0.0018445
0.00015283
0.0013542
0.00015671
0.00081152
0.00032758
0.00016017
2.012e-05
0.0041753
8.8466e-09
4.027e-05
0.0040848
5.9859e-05
0.0039369
7.8476e-05
0.0037254
9.5772e-05
0.0034519
0.00011143
0.0031204
0.00012518
0.0027359
0.00013676
0.0023071
0.00014597
0.0018353
0.00015285
0.0013474
0.00015674
0.00080763
0.00032419
0.00016012
2.012e-05
0.0041552
8.8962e-09
4.0271e-05
0.0040647
5.986e-05
0.0039173
7.8478e-05
0.0037068
9.5774e-05
0.0034346
0.00011143
0.0031047
0.00012518
0.0027221
0.00013677
0.0022955
0.00014598
0.0018261
0.00015286
0.0013405
0.00015676
0.00080374
0.00032088
0.00016007
2.0121e-05
0.0041351
8.9466e-09
4.0272e-05
0.0040445
5.9861e-05
0.0038977
7.848e-05
0.0036882
9.5777e-05
0.0034173
0.00011144
0.0030891
0.00012518
0.0027084
0.00013677
0.0022839
0.00014599
0.0018169
0.00015288
0.0013336
0.00015678
0.00079984
0.00031763
0.00016003
2.0121e-05
0.0041149
8.9978e-09
4.0273e-05
0.0040244
5.9863e-05
0.0038781
7.8481e-05
0.0036696
9.5779e-05
0.0034
0.00011144
0.0030734
0.00012519
0.0026946
0.00013678
0.0022723
0.00014599
0.0018077
0.00015289
0.0013267
0.0001568
0.00079593
0.00031444
0.00015998
2.0121e-05
0.0040948
9.0498e-09
4.0274e-05
0.0040042
5.9864e-05
0.0038585
7.8483e-05
0.0036509
9.5781e-05
0.0033827
0.00011144
0.0030578
0.00012519
0.0026809
0.00013679
0.0022607
0.000146
0.0017984
0.0001529
0.0013198
0.00015682
0.00079202
0.00031132
0.00015994
2.0122e-05
0.0040747
9.1025e-09
4.0274e-05
0.0039841
5.9865e-05
0.0038389
7.8485e-05
0.0036323
9.5784e-05
0.0033654
0.00011145
0.0030421
0.0001252
0.0026671
0.00013679
0.0022491
0.00014601
0.0017892
0.00015292
0.0013129
0.00015684
0.00078809
0.00030826
0.0001599
2.0122e-05
0.0040545
9.156e-09
4.0275e-05
0.0039639
5.9866e-05
0.0038193
7.8487e-05
0.0036137
9.5786e-05
0.0033481
0.00011145
0.0030264
0.0001252
0.0026534
0.0001368
0.0022375
0.00014602
0.00178
0.00015293
0.001306
0.00015686
0.00078417
0.00030525
0.00015986
2.0122e-05
0.0040344
9.2103e-09
4.0276e-05
0.0039438
5.9868e-05
0.0037998
7.8489e-05
0.0035951
9.5789e-05
0.0033308
0.00011145
0.0030108
0.0001252
0.0026396
0.00013681
0.0022259
0.00014603
0.0017708
0.00015294
0.0012991
0.00015688
0.00078023
0.0003023
0.00015982
2.0123e-05
0.0040143
9.2654e-09
4.0277e-05
0.0039236
5.9869e-05
0.0037802
7.8491e-05
0.0035765
9.5792e-05
0.0033135
0.00011146
0.0029951
0.00012521
0.0026259
0.00013681
0.0022143
0.00014604
0.0017616
0.00015295
0.0012921
0.00015689
0.00077629
0.00029941
0.00015979
2.0123e-05
0.0039941
9.3214e-09
4.0278e-05
0.0039035
5.9871e-05
0.0037606
7.8493e-05
0.0035578
9.5794e-05
0.0032962
0.00011146
0.0029794
0.00012521
0.0026121
0.00013682
0.0022027
0.00014604
0.0017523
0.00015296
0.0012852
0.00015691
0.00077234
0.00029657
0.00015975
2.0124e-05
0.003974
9.3782e-09
4.0279e-05
0.0038833
5.9872e-05
0.003741
7.8495e-05
0.0035392
9.5797e-05
0.0032789
0.00011146
0.0029638
0.00012522
0.0025984
0.00013683
0.0021911
0.00014605
0.0017431
0.00015298
0.0012783
0.00015693
0.00076839
0.00029377
0.00015972
2.0124e-05
0.0039539
9.4359e-09
4.028e-05
0.0038631
5.9873e-05
0.0037214
7.8497e-05
0.0035206
9.58e-05
0.0032616
0.00011147
0.0029481
0.00012522
0.0025846
0.00013683
0.0021795
0.00014606
0.0017339
0.00015299
0.0012714
0.00015695
0.00076442
0.00029103
0.00015969
2.0125e-05
0.0039337
9.4945e-09
4.0281e-05
0.003843
5.9875e-05
0.0037018
7.8499e-05
0.003502
9.5802e-05
0.0032443
0.00011147
0.0029324
0.00012523
0.0025709
0.00013684
0.0021679
0.00014607
0.0017247
0.000153
0.0012644
0.00015697
0.00076046
0.00028834
0.00015966
2.0125e-05
0.0039136
9.5539e-09
4.0281e-05
0.0038228
5.9876e-05
0.0036822
7.8501e-05
0.0034833
9.5805e-05
0.003227
0.00011148
0.0029168
0.00012523
0.0025571
0.00013685
0.0021563
0.00014608
0.0017154
0.00015301
0.0012575
0.00015698
0.00075648
0.00028569
0.00015963
2.0125e-05
0.0038935
9.6143e-09
4.0282e-05
0.0038027
5.9878e-05
0.0036626
7.8503e-05
0.0034647
9.5808e-05
0.0032097
0.00011148
0.0029011
0.00012524
0.0025434
0.00013685
0.0021446
0.00014609
0.0017062
0.00015302
0.0012506
0.000157
0.0007525
0.00028308
0.00015961
2.0126e-05
0.0038733
9.6756e-09
4.0283e-05
0.0037825
5.9879e-05
0.003643
7.8505e-05
0.0034461
9.5811e-05
0.0031923
0.00011148
0.0028854
0.00012524
0.0025296
0.00013686
0.002133
0.00014609
0.001697
0.00015303
0.0012436
0.00015702
0.00074851
0.00028052
0.00015958
2.0126e-05
0.0038532
9.7379e-09
4.0284e-05
0.0037624
5.9881e-05
0.0036234
7.8508e-05
0.0034275
9.5814e-05
0.003175
0.00011149
0.0028697
0.00012525
0.0025159
0.00013687
0.0021214
0.0001461
0.0016877
0.00015304
0.0012367
0.00015703
0.00074452
0.00027799
0.00015956
2.0127e-05
0.0038331
9.8011e-09
4.0285e-05
0.0037422
5.9883e-05
0.0036038
7.851e-05
0.0034088
9.5817e-05
0.0031577
0.00011149
0.0028541
0.00012525
0.0025021
0.00013688
0.0021098
0.00014611
0.0016785
0.00015305
0.0012298
0.00015705
0.00074052
0.00027551
0.00015953
2.0127e-05
0.0038129
9.8653e-09
4.0286e-05
0.003722
5.9884e-05
0.0035842
7.8512e-05
0.0033902
9.582e-05
0.0031404
0.0001115
0.0028384
0.00012526
0.0024883
0.00013688
0.0020982
0.00014612
0.0016693
0.00015306
0.0012228
0.00015707
0.00073651
0.00027306
0.00015951
2.0128e-05
0.0037928
9.9305e-09
4.0287e-05
0.0037019
5.9886e-05
0.0035646
7.8514e-05
0.0033716
9.5823e-05
0.0031231
0.0001115
0.0028227
0.00012526
0.0024746
0.00013689
0.0020865
0.00014613
0.00166
0.00015307
0.0012159
0.00015708
0.0007325
0.00027066
0.00015949
2.0128e-05
0.0037727
9.9967e-09
4.0288e-05
0.0036817
5.9887e-05
0.003545
7.8517e-05
0.0033529
9.5826e-05
0.0031058
0.0001115
0.002807
0.00012527
0.0024608
0.0001369
0.0020749
0.00014614
0.0016508
0.00015308
0.0012089
0.0001571
0.00072848
0.00026828
0.00015947
2.0129e-05
0.0037525
1.0064e-08
4.0289e-05
0.0036616
5.9889e-05
0.0035254
7.8519e-05
0.0033343
9.5829e-05
0.0030885
0.00011151
0.0027914
0.00012527
0.002447
0.00013691
0.0020633
0.00014615
0.0016415
0.00015309
0.001202
0.00015712
0.00072446
0.00026594
0.00015945
2.0129e-05
0.0037324
1.0132e-08
4.0291e-05
0.0036414
5.9891e-05
0.0035058
7.8522e-05
0.0033157
9.5832e-05
0.0030712
0.00011151
0.0027757
0.00012528
0.0024333
0.00013691
0.0020516
0.00014616
0.0016323
0.0001531
0.0011951
0.00015713
0.00072043
0.00026364
0.00015944
2.013e-05
0.0037122
1.0202e-08
4.0292e-05
0.0036212
5.9893e-05
0.0034862
7.8524e-05
0.0032971
9.5836e-05
0.0030539
0.00011152
0.00276
0.00012528
0.0024195
0.00013692
0.00204
0.00014617
0.001623
0.00015311
0.0011881
0.00015715
0.00071639
0.00026136
0.00015942
2.013e-05
0.0036921
1.0272e-08
4.0293e-05
0.0036011
5.9894e-05
0.0034666
7.8527e-05
0.0032784
9.5839e-05
0.0030366
0.00011152
0.0027443
0.00012529
0.0024057
0.00013693
0.0020284
0.00014618
0.0016138
0.00015312
0.0011812
0.00015716
0.00071235
0.00025912
0.0001594
2.0131e-05
0.003672
1.0344e-08
4.0294e-05
0.0035809
5.9896e-05
0.003447
7.8529e-05
0.0032598
9.5842e-05
0.0030192
0.00011153
0.0027286
0.00012529
0.002392
0.00013693
0.0020167
0.00014619
0.0016045
0.00015313
0.0011742
0.00015718
0.00070831
0.00025691
0.00015939
2.0131e-05
0.0036518
1.0416e-08
4.0295e-05
0.0035608
5.9898e-05
0.0034274
7.8532e-05
0.0032412
9.5846e-05
0.0030019
0.00011153
0.0027129
0.0001253
0.0023782
0.00013694
0.0020051
0.0001462
0.0015953
0.00015314
0.0011673
0.00015719
0.00070426
0.00025472
0.00015938
2.0132e-05
0.0036317
1.049e-08
4.0296e-05
0.0035406
5.99e-05
0.0034078
7.8534e-05
0.0032225
9.5849e-05
0.0029846
0.00011153
0.0026973
0.00012531
0.0023644
0.00013695
0.0019934
0.00014621
0.001586
0.00015315
0.0011603
0.00015721
0.0007002
0.00025256
0.00015936
2.0132e-05
0.0036115
1.0565e-08
4.0297e-05
0.0035204
5.9902e-05
0.0033882
7.8537e-05
0.0032039
9.5853e-05
0.0029673
0.00011154
0.0026816
0.00012531
0.0023507
0.00013696
0.0019818
0.00014622
0.0015768
0.00015316
0.0011534
0.00015722
0.00069614
0.00025043
0.00015935
2.0133e-05
0.0035914
1.0642e-08
4.0299e-05
0.0035003
5.9904e-05
0.0033686
7.854e-05
0.0031853
9.5857e-05
0.00295
0.00011154
0.0026659
0.00012532
0.0023369
0.00013697
0.0019701
0.00014622
0.0015675
0.00015317
0.0011465
0.00015723
0.00069207
0.00024832
0.00015934
2.0133e-05
0.0035712
1.0719e-08
4.03e-05
0.0034801
5.9905e-05
0.003349
7.8542e-05
0.0031666
9.586e-05
0.0029327
0.00011155
0.0026502
0.00012532
0.0023231
0.00013697
0.0019585
0.00014623
0.0015582
0.00015318
0.0011395
0.00015725
0.000688
0.00024624
0.00015933
2.0134e-05
0.0035511
1.0798e-08
4.0301e-05
0.0034599
5.9907e-05
0.0033294
7.8545e-05
0.003148
9.5864e-05
0.0029153
0.00011155
0.0026345
0.00012533
0.0023093
0.00013698
0.0019468
0.00014624
0.001549
0.00015318
0.0011326
0.00015726
0.00068392
0.00024419
0.00015932
2.0135e-05
0.0035309
1.0878e-08
4.0302e-05
0.0034398
5.9909e-05
0.0033098
7.8548e-05
0.0031293
9.5868e-05
0.002898
0.00011156
0.0026188
0.00012534
0.0022956
0.00013699
0.0019352
0.00014625
0.0015397
0.00015319
0.0011256
0.00015728
0.00067984
0.00024215
0.00015931
2.0135e-05
0.0035108
1.0959e-08
4.0304e-05
0.0034196
5.9911e-05
0.0032902
7.8551e-05
0.0031107
9.5872e-05
0.0028807
0.00011156
0.0026031
0.00012534
0.0022818
0.000137
0.0019235
0.00014626
0.0015305
0.0001532
0.0011187
0.00015729
0.00067575
0.00024014
0.0001593
2.0136e-05
0.0034907
1.1042e-08
4.0305e-05
0.0033994
5.9914e-05
0.0032706
7.8554e-05
0.0030921
9.5875e-05
0.0028634
0.00011157
0.0025874
0.00012535
0.002268
0.000137
0.0019119
0.00014627
0.0015212
0.00015321
0.0011118
0.0001573
0.00067166
0.00023815
0.00015929
2.0136e-05
0.0034705
1.1126e-08
4.0306e-05
0.0033792
5.9916e-05
0.0032509
7.8557e-05
0.0030734
9.5879e-05
0.0028461
0.00011157
0.0025717
0.00012536
0.0022542
0.00013701
0.0019002
0.00014628
0.0015119
0.00015322
0.0011048
0.00015732
0.00066757
0.00023618
0.00015929
2.0137e-05
0.0034504
1.1211e-08
4.0308e-05
0.0033591
5.9918e-05
0.0032313
7.856e-05
0.0030548
9.5883e-05
0.0028287
0.00011158
0.002556
0.00012536
0.0022404
0.00013702
0.0018886
0.00014629
0.0015026
0.00015323
0.0010979
0.00015733
0.00066347
0.00023423
0.00015928
2.0138e-05
0.0034302
1.1298e-08
4.0309e-05
0.0033389
5.992e-05
0.0032117
7.8563e-05
0.0030361
9.5888e-05
0.0028114
0.00011158
0.0025403
0.00012537
0.0022266
0.00013703
0.0018769
0.0001463
0.0014934
0.00015324
0.001091
0.00015734
0.00065936
0.0002323
0.00015927
2.0138e-05
0.0034101
1.1386e-08
4.031e-05
0.0033187
5.9922e-05
0.0031921
7.8566e-05
0.0030175
9.5892e-05
0.0027941
0.00011159
0.0025246
0.00012538
0.0022129
0.00013704
0.0018652
0.00014631
0.0014841
0.00015325
0.001084
0.00015736
0.00065526
0.00023038
0.00015927
2.0139e-05
0.0033899
1.1476e-08
4.0312e-05
0.0032986
5.9924e-05
0.0031725
7.8569e-05
0.0029988
9.5896e-05
0.0027768
0.0001116
0.0025089
0.00012538
0.0021991
0.00013705
0.0018536
0.00014633
0.0014748
0.00015326
0.0010771
0.00015737
0.00065114
0.00022849
0.00015927
2.014e-05
0.0033698
1.1567e-08
4.0313e-05
0.0032784
5.9927e-05
0.0031529
7.8572e-05
0.0029802
9.59e-05
0.0027594
0.0001116
0.0024932
0.00012539
0.0021853
0.00013705
0.0018419
0.00014634
0.0014655
0.00015327
0.0010702
0.00015738
0.00064703
0.00022661
0.00015926
2.014e-05
0.0033496
1.166e-08
4.0315e-05
0.0032582
5.9929e-05
0.0031333
7.8576e-05
0.0029616
9.5905e-05
0.0027421
0.00011161
0.0024775
0.0001254
0.0021715
0.00013706
0.0018302
0.00014635
0.0014562
0.00015328
0.0010632
0.0001574
0.00064291
0.00022474
0.00015926
2.0141e-05
0.0033295
1.1754e-08
4.0316e-05
0.003238
5.9931e-05
0.0031137
7.8579e-05
0.0029429
9.5909e-05
0.0027248
0.00011161
0.0024618
0.0001254
0.0021577
0.00013707
0.0018186
0.00014636
0.001447
0.00015329
0.0010563
0.00015741
0.00063879
0.0002229
0.00015925
2.0142e-05
0.0033093
1.185e-08
4.0318e-05
0.0032179
5.9934e-05
0.003094
7.8582e-05
0.0029243
9.5913e-05
0.0027074
0.00011162
0.0024461
0.00012541
0.0021439
0.00013708
0.0018069
0.00014637
0.0014377
0.00015329
0.0010494
0.00015742
0.00063466
0.00022107
0.00015925
2.0142e-05
0.0032891
1.1947e-08
4.0319e-05
0.0031977
5.9936e-05
0.0030744
7.8586e-05
0.0029056
9.5918e-05
0.0026901
0.00011162
0.0024304
0.00012542
0.0021301
0.00013709
0.0017952
0.00014638
0.0014284
0.0001533
0.0010424
0.00015743
0.00063053
0.00021925
0.00015925
2.0143e-05
0.003269
1.2047e-08
4.0321e-05
0.0031775
5.9939e-05
0.0030548
7.8589e-05
0.002887
9.5923e-05
0.0026728
0.00011163
0.0024147
0.00012543
0.0021163
0.0001371
0.0017836
0.00014639
0.0014191
0.00015331
0.0010355
0.00015745
0.0006264
0.00021745
0.00015925
2.0144e-05
0.0032488
1.2147e-08
4.0322e-05
0.0031573
5.9941e-05
0.0030352
7.8593e-05
0.0028683
9.5927e-05
0.0026554
0.00011164
0.002399
0.00012543
0.0021025
0.00013711
0.0017719
0.0001464
0.0014098
0.00015332
0.0010286
0.00015746
0.00062226
0.00021566
0.00015925
2.0144e-05
0.0032287
1.225e-08
4.0324e-05
0.0031372
5.9944e-05
0.0030156
7.8596e-05
0.0028496
9.5932e-05
0.0026381
0.00011164
0.0023833
0.00012544
0.0020887
0.00013712
0.0017602
0.00014641
0.0014005
0.00015333
0.0010217
0.00015747
0.00061812
0.00021388
0.00015925
2.0145e-05
0.0032085
1.2354e-08
4.0325e-05
0.003117
5.9946e-05
0.0029959
7.86e-05
0.002831
9.5937e-05
0.0026208
0.00011165
0.0023676
0.00012545
0.0020749
0.00013712
0.0017485
0.00014642
0.0013912
0.00015334
0.0010148
0.00015748
0.00061398
0.00021212
0.00015925
2.0146e-05
0.0031884
1.246e-08
4.0327e-05
0.0030968
5.9949e-05
0.0029763
7.8604e-05
0.0028123
9.5942e-05
0.0026034
0.00011165
0.0023519
0.00012546
0.0020611
0.00013713
0.0017369
0.00014643
0.0013819
0.00015335
0.0010078
0.0001575
0.00060984
0.00021037
0.00015925
2.0147e-05
0.0031682
1.2568e-08
4.0329e-05
0.0030766
5.9952e-05
0.0029567
7.8608e-05
0.0027937
9.5947e-05
0.0025861
0.00011166
0.0023362
0.00012546
0.0020473
0.00013714
0.0017252
0.00014644
0.0013726
0.00015336
0.0010009
0.00015751
0.00060569
0.00020863
0.00015925
2.0148e-05
0.003148
1.2678e-08
4.0331e-05
0.0030564
5.9954e-05
0.0029371
7.8611e-05
0.002775
9.5952e-05
0.0025688
0.00011167
0.0023205
0.00012547
0.0020335
0.00013715
0.0017135
0.00014646
0.0013633
0.00015337
0.000994
0.00015752
0.00060154
0.0002069
0.00015925
2.0148e-05
0.0031279
1.2789e-08
4.0332e-05
0.0030362
5.9957e-05
0.0029175
7.8615e-05
0.0027564
9.5957e-05
0.0025514
0.00011167
0.0023047
0.00012548
0.0020197
0.00013716
0.0017018
0.00014647
0.001354
0.00015338
0.00098709
0.00015754
0.00059738
0.00020518
0.00015925
2.0149e-05
0.0031077
1.2903e-08
4.0334e-05
0.0030161
5.996e-05
0.0028978
7.8619e-05
0.0027377
9.5962e-05
0.0025341
0.00011168
0.002289
0.00012549
0.0020059
0.00013717
0.0016901
0.00014648
0.0013447
0.00015339
0.00098017
0.00015755
0.00059323
0.00020347
0.00015926
2.015e-05
0.0030876
1.3019e-08
4.0336e-05
0.0029959
5.9963e-05
0.0028782
7.8623e-05
0.002719
9.5968e-05
0.0025167
0.00011169
0.0022733
0.0001255
0.0019921
0.00013718
0.0016784
0.00014649
0.0013354
0.0001534
0.00097326
0.00015756
0.00058907
0.00020178
0.00015926
2.0151e-05
0.0030674
1.3136e-08
4.0338e-05
0.0029757
5.9966e-05
0.0028586
7.8627e-05
0.0027004
9.5973e-05
0.0024994
0.00011169
0.0022576
0.00012551
0.0019783
0.00013719
0.0016668
0.0001465
0.0013261
0.00015341
0.00096635
0.00015757
0.00058491
0.00020009
0.00015926
2.0152e-05
0.0030472
1.3256e-08
4.034e-05
0.0029555
5.9969e-05
0.0028389
7.8632e-05
0.0026817
9.5979e-05
0.002482
0.0001117
0.0022419
0.00012551
0.0019645
0.0001372
0.0016551
0.00014651
0.0013167
0.00015342
0.00095944
0.00015759
0.00058075
0.00019841
0.00015927
2.0153e-05
0.0030271
1.3378e-08
4.0341e-05
0.0029353
5.9972e-05
0.0028193
7.8636e-05
0.0026631
9.5984e-05
0.0024647
0.00011171
0.0022261
0.00012552
0.0019506
0.00013721
0.0016434
0.00014653
0.0013074
0.00015343
0.00095253
0.0001576
0.00057658
0.00019674
0.00015927
2.0154e-05
0.0030069
1.3502e-08
4.0343e-05
0.0029151
5.9975e-05
0.0027997
7.864e-05
0.0026444
9.599e-05
0.0024473
0.00011171
0.0022104
0.00012553
0.0019368
0.00013722
0.0016317
0.00014654
0.0012981
0.00015345
0.00094563
0.00015761
0.00057241
0.00019508
0.00015927
2.0154e-05
0.0029867
1.3628e-08
4.0345e-05
0.0028949
5.9978e-05
0.00278
7.8645e-05
0.0026257
9.5996e-05
0.00243
0.00011172
0.0021947
0.00012554
0.001923
0.00013723
0.00162
0.00014655
0.0012888
0.00015346
0.00093872
0.00015763
0.00056824
0.00019342
0.00015928
2.0155e-05
0.0029666
1.3756e-08
4.0347e-05
0.0028747
5.9981e-05
0.0027604
7.8649e-05
0.0026071
9.6002e-05
0.0024126
0.00011173
0.002179
0.00012555
0.0019092
0.00013724
0.0016083