/*--------------------------------*- C++ -*----------------------------------*\
  =========                 |
  \\      /  F ield         | OpenFOAM: The Open Source CFD Toolbox
   \\    /   O peration     | Website:  https://openfoam.org
    \\  /    A nd           | Version:  6.0
     \\/     M anipulation  |
\*---------------------------------------------------------------------------*/
FoamFile
{
    version     2.0;
    format      ascii;
    class       volScalarField;
    location    "7";
    object      p;
}
// * * * * * * * * * * * * * * * * * * * * * * * * * * * * * * * * * * * * * //

dimensions      [0 2 -2 0 0 0 0];

internalField   nonuniform List<scalar> 
34500
(
1.01283
1.00996
1.00786
1.00821
1.01047
1.01201
1.01212
1.01069
1.00874
1.00666
1.00491
1.00349
1.00234
1.0017
1.00128
1.01286
1.00999
1.0078
1.00808
1.01052
1.0125
1.01312
1.01204
1.01024
1.00809
1.00617
1.00452
1.0031
1.0024
1.00174
1.01292
1.00992
1.00739
1.00715
1.00917
1.01103
1.01177
1.01093
1.00933
1.00733
1.00551
1.00393
1.00261
1.00215
1.00157
1.01301
1.00993
1.00708
1.00627
1.00771
1.00924
1.00995
1.00926
1.00788
1.0061
1.00447
1.0031
1.00202
1.00188
1.00162
1.01314
1.01008
1.00708
1.00584
1.00678
1.00796
1.00857
1.00796
1.00675
1.00516
1.00373
1.00257
1.00173
1.00186
1.00187
1.01331
1.01038
1.00739
1.00592
1.00646
1.00734
1.00781
1.00724
1.00613
1.00469
1.00342
1.00242
1.00176
1.00207
1.00226
1.01352
1.01079
1.00792
1.00635
1.00661
1.00723
1.00756
1.00697
1.00593
1.00458
1.00341
1.00252
1.00197
1.00239
1.00267
1.01377
1.01126
1.00858
1.00702
1.00709
1.00749
1.00768
1.00706
1.00603
1.00475
1.00363
1.0028
1.00232
1.00279
1.00312
1.01404
1.01176
1.00931
1.0078
1.00774
1.00797
1.00802
1.00735
1.00632
1.00505
1.00396
1.00315
1.00271
1.00319
1.00354
1.01434
1.01229
1.01006
1.00864
1.00849
1.00858
1.0085
1.00777
1.00672
1.00546
1.00437
1.00357
1.00313
1.00362
1.00396
1.01466
1.01282
1.0108
1.00948
1.00926
1.00922
1.00904
1.00824
1.00716
1.00589
1.00479
1.00398
1.00354
1.00401
1.00436
1.01501
1.01335
1.01152
1.01029
1.01002
1.00989
1.0096
1.00874
1.00762
1.00634
1.00522
1.0044
1.00396
1.00441
1.00476
1.01537
1.01387
1.01222
1.01107
1.01076
1.01053
1.01015
1.00923
1.00808
1.00677
1.00564
1.00479
1.00435
1.00479
1.00512
1.01575
1.0144
1.01289
1.01182
1.01147
1.01117
1.01069
1.00972
1.00853
1.0072
1.00605
1.00519
1.00474
1.00517
1.0055
1.01614
1.01492
1.01354
1.01253
1.01214
1.01176
1.01121
1.01019
1.00896
1.00761
1.00644
1.00556
1.00511
1.00552
1.00585
1.01656
1.01544
1.01418
1.01322
1.01279
1.01235
1.01172
1.01065
1.00939
1.00802
1.00684
1.00594
1.00548
1.00588
1.00621
1.01699
1.01597
1.0148
1.01388
1.01342
1.01291
1.01221
1.0111
1.0098
1.00841
1.00721
1.0063
1.00583
1.00623
1.00655
1.01744
1.0165
1.01542
1.01454
1.01403
1.01346
1.0127
1.01154
1.01021
1.00881
1.00759
1.00666
1.0062
1.00658
1.0069
1.0179
1.01704
1.01604
1.01517
1.01463
1.014
1.01317
1.01198
1.01062
1.0092
1.00796
1.00702
1.00655
1.00692
1.00724
1.01838
1.01758
1.01665
1.01581
1.01523
1.01455
1.01366
1.01242
1.01103
1.00959
1.00834
1.00738
1.00691
1.00727
1.00758
1.01888
1.01814
1.01727
1.01644
1.01583
1.01508
1.01414
1.01286
1.01143
1.00998
1.0087
1.00774
1.00725
1.00761
1.00791
1.0194
1.0187
1.01789
1.01708
1.01643
1.01563
1.01463
1.01331
1.01186
1.01038
1.00909
1.0081
1.00762
1.00796
1.00826
1.01992
1.01928
1.01852
1.01771
1.01703
1.01618
1.01512
1.01376
1.01227
1.01077
1.00946
1.00846
1.00796
1.00829
1.00859
1.02047
1.01987
1.01916
1.01836
1.01764
1.01674
1.01562
1.01422
1.01271
1.01119
1.00986
1.00884
1.00833
1.00864
1.00894
1.02103
1.02046
1.0198
1.01901
1.01825
1.0173
1.01613
1.01469
1.01314
1.01159
1.01024
1.0092
1.00868
1.00898
1.00927
1.02161
1.02108
1.02046
1.01967
1.01888
1.01788
1.01666
1.01518
1.01359
1.01202
1.01065
1.00959
1.00905
1.00934
1.00962
1.0222
1.0217
1.02112
1.02034
1.01951
1.01847
1.01719
1.01566
1.01404
1.01244
1.01104
1.00996
1.00942
1.00969
1.00995
1.02281
1.02234
1.0218
1.02102
1.02016
1.01907
1.01774
1.01617
1.01451
1.01289
1.01146
1.01036
1.00979
1.01005
1.0103
1.02343
1.02299
1.02248
1.02171
1.02082
1.01968
1.0183
1.01668
1.01498
1.01332
1.01187
1.01074
1.01016
1.0104
1.01064
1.02407
1.02366
1.02318
1.02241
1.0215
1.02031
1.01888
1.01722
1.01547
1.01378
1.0123
1.01115
1.01055
1.01076
1.01099
1.02473
1.02433
1.02389
1.02312
1.02218
1.02095
1.01946
1.01775
1.01596
1.01424
1.01273
1.01154
1.01092
1.01112
1.01134
1.0254
1.02503
1.02462
1.02385
1.02288
1.0216
1.02006
1.01831
1.01648
1.01472
1.01317
1.01196
1.01132
1.0115
1.0117
1.02609
1.02574
1.02536
1.02459
1.02358
1.02227
1.02067
1.01886
1.01699
1.01519
1.01361
1.01237
1.0117
1.01186
1.01205
1.0268
1.02646
1.02611
1.02535
1.02431
1.02295
1.0213
1.01945
1.01753
1.01569
1.01407
1.0128
1.01211
1.01225
1.01243
1.02752
1.0272
1.02688
1.02611
1.02505
1.02364
1.02194
1.02003
1.01806
1.01618
1.01453
1.01322
1.0125
1.01262
1.01279
1.02826
1.02796
1.02766
1.02689
1.02581
1.02436
1.0226
1.02064
1.01862
1.0167
1.015
1.01366
1.01292
1.01302
1.01318
1.02901
1.02873
1.02845
1.02769
1.02657
1.02508
1.02326
1.02125
1.01918
1.01721
1.01547
1.01409
1.01332
1.0134
1.01356
1.02978
1.02952
1.02927
1.0285
1.02736
1.02582
1.02395
1.02188
1.01976
1.01774
1.01597
1.01455
1.01375
1.01381
1.01397
1.03057
1.03032
1.03009
1.02933
1.02816
1.02657
1.02464
1.02252
1.02034
1.01827
1.01645
1.015
1.01417
1.01421
1.01436
1.03138
1.03115
1.03094
1.03017
1.02898
1.02735
1.02536
1.02318
1.02094
1.01883
1.01696
1.01547
1.01461
1.01463
1.01478
1.0322
1.03198
1.0318
1.03103
1.02981
1.02813
1.02609
1.02384
1.02155
1.01938
1.01747
1.01593
1.01504
1.01504
1.01519
1.03304
1.03284
1.03268
1.03191
1.03066
1.02894
1.02684
1.02453
1.02218
1.01996
1.01799
1.01641
1.01549
1.01548
1.01563
1.0339
1.03371
1.03357
1.0328
1.03152
1.02976
1.0276
1.02523
1.02281
1.02053
1.01852
1.01689
1.01593
1.0159
1.01606
1.03477
1.03461
1.03449
1.03372
1.03241
1.0306
1.02838
1.02595
1.02347
1.02113
1.01906
1.01739
1.0164
1.01635
1.01651
1.03567
1.03551
1.03541
1.03464
1.03332
1.03145
1.02917
1.02667
1.02412
1.02172
1.0196
1.01788
1.01685
1.01679
1.01694
1.03658
1.03644
1.03637
1.0356
1.03424
1.03234
1.02999
1.02742
1.0248
1.02234
1.02016
1.01839
1.01733
1.01725
1.01741
1.03751
1.03739
1.03733
1.03656
1.03518
1.03322
1.03081
1.02817
1.02549
1.02296
1.02072
1.0189
1.0178
1.0177
1.01786
1.03847
1.03836
1.03832
1.03756
1.03615
1.03414
1.03166
1.02895
1.0262
1.0236
1.02131
1.01943
1.01829
1.01817
1.01833
1.03943
1.03934
1.03933
1.03856
1.03712
1.03507
1.03252
1.02974
1.02691
1.02424
1.02188
1.01996
1.01878
1.01864
1.01879
1.04042
1.04036
1.04036
1.0396
1.03813
1.03603
1.03341
1.03055
1.02764
1.02491
1.02249
1.02051
1.01928
1.01912
1.01927
1.04143
1.04138
1.04141
1.04064
1.03915
1.03699
1.0343
1.03137
1.02838
1.02557
1.02309
1.02105
1.01978
1.0196
1.01974
1.04246
1.04243
1.04249
1.04172
1.0402
1.03799
1.03523
1.03222
1.02915
1.02627
1.02371
1.02161
1.0203
1.0201
1.02024
1.04351
1.0435
1.04358
1.04281
1.04126
1.039
1.03617
1.03307
1.02992
1.02695
1.02433
1.02217
1.02082
1.02059
1.02072
1.04459
1.0446
1.0447
1.04393
1.04236
1.04004
1.03713
1.03395
1.03071
1.02767
1.02497
1.02275
1.02135
1.0211
1.02123
1.04567
1.04571
1.04583
1.04507
1.04347
1.04109
1.0381
1.03484
1.03151
1.02838
1.02561
1.02333
1.02188
1.02161
1.02172
1.04679
1.04685
1.047
1.04624
1.04461
1.04217
1.03911
1.03575
1.03234
1.02913
1.02628
1.02393
1.02243
1.02213
1.02224
1.04792
1.048
1.04818
1.04743
1.04576
1.04327
1.04013
1.03668
1.03316
1.02987
1.02694
1.02453
1.02298
1.02265
1.02274
1.04909
1.04919
1.0494
1.04865
1.04695
1.0444
1.04117
1.03763
1.03402
1.03064
1.02763
1.02515
1.02355
1.02319
1.02327
1.05026
1.05039
1.05063
1.04988
1.04816
1.04554
1.04223
1.03859
1.03488
1.0314
1.02831
1.02576
1.02411
1.02373
1.02379
1.05147
1.05163
1.0519
1.05116
1.0494
1.04672
1.04332
1.03959
1.03578
1.0322
1.02902
1.0264
1.02469
1.02428
1.02433
1.05269
1.05288
1.05318
1.05244
1.05066
1.04791
1.04443
1.04058
1.03667
1.03299
1.02973
1.02703
1.02527
1.02483
1.02486
1.05395
1.05417
1.0545
1.05377
1.05195
1.04914
1.04556
1.04162
1.0376
1.03382
1.03047
1.02769
1.02587
1.0254
1.02542
1.05522
1.05547
1.05584
1.05511
1.05326
1.05039
1.04671
1.04266
1.03852
1.03464
1.0312
1.02834
1.02646
1.02597
1.02597
1.05652
1.05681
1.05721
1.05649
1.05461
1.05167
1.04789
1.04373
1.03948
1.03549
1.03195
1.02902
1.02708
1.02656
1.02654
1.05784
1.05816
1.0586
1.05789
1.05597
1.05296
1.04909
1.04481
1.04045
1.03634
1.03271
1.0297
1.02769
1.02714
1.0271
1.05919
1.05955
1.06003
1.05933
1.05738
1.0543
1.05032
1.04593
1.04144
1.03723
1.03349
1.0304
1.02833
1.02774
1.02769
1.06056
1.06096
1.06148
1.06079
1.0588
1.05564
1.05157
1.04705
1.04244
1.03811
1.03427
1.03109
1.02896
1.02834
1.02827
1.06197
1.06241
1.06297
1.06229
1.06027
1.05704
1.05285
1.04821
1.04347
1.03902
1.03508
1.03181
1.02962
1.02896
1.02887
1.06339
1.06387
1.06448
1.06381
1.06176
1.05844
1.05415
1.04938
1.04451
1.03993
1.03588
1.03253
1.03027
1.02957
1.02946
1.06485
1.06538
1.06603
1.06538
1.06328
1.05989
1.05548
1.05058
1.04558
1.04087
1.03672
1.03327
1.03094
1.03021
1.03008
1.06632
1.0669
1.0676
1.06696
1.06483
1.06135
1.05683
1.0518
1.04665
1.04182
1.03755
1.03401
1.03161
1.03085
1.03069
1.06784
1.06846
1.06922
1.06859
1.06642
1.06286
1.05822
1.05305
1.04776
1.04279
1.03841
1.03477
1.0323
1.0315
1.03133
1.06937
1.07005
1.07085
1.07024
1.06803
1.06439
1.05962
1.05431
1.04888
1.04377
1.03926
1.03553
1.03299
1.03216
1.03196
1.07093
1.07167
1.07253
1.07194
1.06969
1.06596
1.06107
1.05561
1.05002
1.04478
1.04015
1.03632
1.03371
1.03283
1.03262
1.07252
1.07331
1.07423
1.07366
1.07137
1.06755
1.06252
1.05691
1.05118
1.04578
1.04103
1.0371
1.03442
1.03351
1.03327
1.07415
1.075
1.07598
1.07542
1.0731
1.06918
1.06403
1.05826
1.05237
1.04683
1.04195
1.03792
1.03515
1.0342
1.03394
1.07579
1.07671
1.07775
1.07721
1.07485
1.07083
1.06554
1.05962
1.05356
1.04787
1.04286
1.03872
1.03588
1.03489
1.03461
1.07748
1.07846
1.07957
1.07905
1.07665
1.07254
1.0671
1.06102
1.05479
1.04894
1.0438
1.03956
1.03664
1.03561
1.03531
1.07918
1.08023
1.08141
1.08092
1.07847
1.07426
1.06868
1.06243
1.05603
1.05002
1.04474
1.04039
1.03739
1.03633
1.036
1.08093
1.08205
1.0833
1.08283
1.08034
1.07602
1.0703
1.06388
1.0573
1.05113
1.04571
1.04125
1.03817
1.03707
1.03671
1.08269
1.08389
1.08521
1.08477
1.08224
1.07781
1.07194
1.06534
1.05858
1.05224
1.04668
1.0421
1.03895
1.0378
1.03742
1.0845
1.08578
1.08718
1.08676
1.08419
1.07965
1.07362
1.06684
1.0599
1.05338
1.04768
1.04299
1.03975
1.03857
1.03816
1.08632
1.08769
1.08917
1.08878
1.08616
1.08152
1.07532
1.06835
1.06122
1.05453
1.04867
1.04387
1.04055
1.03932
1.0389
1.0882
1.08965
1.09121
1.09086
1.08819
1.08343
1.07707
1.06991
1.06259
1.05571
1.0497
1.04478
1.04137
1.04011
1.03966
1.09009
1.09162
1.09328
1.09296
1.09024
1.08536
1.07884
1.07148
1.06395
1.05689
1.05073
1.04569
1.0422
1.04089
1.04042
1.09202
1.09366
1.0954
1.09511
1.09235
1.08735
1.08065
1.07309
1.06536
1.05811
1.05179
1.04663
1.04305
1.0417
1.0412
1.09398
1.09571
1.09754
1.09729
1.09448
1.08936
1.08249
1.07472
1.06678
1.05933
1.05285
1.04756
1.04389
1.0425
1.04199
1.09598
1.09781
1.09975
1.09953
1.09667
1.09143
1.08437
1.07639
1.06823
1.06059
1.05394
1.04852
1.04477
1.04334
1.0428
1.098
1.09994
1.10197
1.1018
1.09889
1.09352
1.08627
1.07807
1.06969
1.06184
1.05502
1.04948
1.04564
1.04417
1.0436
1.10007
1.10212
1.10426
1.10413
1.10117
1.09566
1.08822
1.0798
1.0712
1.06314
1.05614
1.05047
1.04654
1.04503
1.04444
1.10216
1.10432
1.10657
1.10649
1.10348
1.09783
1.0902
1.08154
1.0727
1.06443
1.05726
1.05146
1.04743
1.04588
1.04528
1.10429
1.10658
1.10895
1.10891
1.10585
1.10006
1.09222
1.08333
1.07426
1.06577
1.05841
1.05248
1.04836
1.04677
1.04614
1.10645
1.10886
1.11135
1.11136
1.10824
1.10231
1.09426
1.08514
1.07581
1.0671
1.05956
1.05349
1.04928
1.04765
1.047
1.10866
1.1112
1.11381
1.11387
1.1107
1.10462
1.09636
1.08699
1.07741
1.06847
1.06075
1.05454
1.05024
1.04856
1.04789
1.11088
1.11355
1.1163
1.11641
1.11319
1.10696
1.09848
1.08885
1.07902
1.06984
1.06193
1.05558
1.05118
1.04947
1.04878
1.11316
1.11597
1.11885
1.11902
1.11574
1.10936
1.10066
1.09077
1.08067
1.07125
1.06314
1.05665
1.05216
1.05041
1.0497
1.11545
1.11841
1.12143
1.12166
1.11832
1.11178
1.10285
1.09269
1.08233
1.07267
1.06436
1.05772
1.05314
1.05135
1.05062
1.1178
1.12091
1.12407
1.12436
1.12097
1.11426
1.1051
1.09467
1.08403
1.07412
1.06561
1.05882
1.05414
1.05232
1.05157
1.12017
1.12343
1.12674
1.1271
1.12365
1.11678
1.10737
1.09666
1.08574
1.07557
1.06685
1.05992
1.05514
1.05328
1.05252
1.12259
1.12602
1.12948
1.12991
1.12639
1.11935
1.1097
1.0987
1.08749
1.07706
1.06813
1.06105
1.05618
1.05428
1.05351
1.12503
1.12862
1.13225
1.13274
1.12917
1.12196
1.11205
1.10076
1.08925
1.07855
1.06941
1.06217
1.05721
1.05527
1.05449
1.12752
1.13129
1.13509
1.13565
1.13202
1.12463
1.11446
1.10287
1.09105
1.08008
1.07072
1.06333
1.05827
1.0563
1.0555
1.13003
1.13398
1.13795
1.13859
1.1349
1.12732
1.11689
1.10499
1.09286
1.08162
1.07203
1.06448
1.05933
1.05733
1.05652
1.1326
1.13674
1.14088
1.14161
1.13785
1.13009
1.11938
1.10716
1.09472
1.08319
1.07337
1.06567
1.06042
1.05839
1.05757
1.13518
1.13952
1.14385
1.14465
1.14083
1.13288
1.12189
1.10935
1.09658
1.08476
1.07471
1.06685
1.0615
1.05944
1.05861
1.13782
1.14236
1.14688
1.14777
1.14389
1.13574
1.12447
1.1116
1.09849
1.08637
1.07609
1.06806
1.06262
1.06054
1.0597
1.14047
1.14522
1.14994
1.15092
1.14698
1.13863
1.12706
1.11385
1.10041
1.08798
1.07746
1.06927
1.06373
1.06162
1.06078
1.14319
1.14815
1.15308
1.15415
1.15014
1.14159
1.12972
1.11616
1.10237
1.08964
1.07887
1.07051
1.06488
1.06275
1.0619
1.14591
1.15111
1.15624
1.15741
1.15334
1.14457
1.1324
1.11849
1.10434
1.09129
1.08027
1.07175
1.06602
1.06386
1.06302
1.1487
1.15412
1.15948
1.16075
1.15661
1.14763
1.13514
1.12087
1.10635
1.09298
1.08171
1.07302
1.0672
1.06502
1.06418
1.1515
1.15717
1.16275
1.16413
1.15991
1.15072
1.13791
1.12326
1.10837
1.09467
1.08314
1.07428
1.06837
1.06617
1.06534
1.15436
1.16027
1.16609
1.16757
1.16329
1.15387
1.14074
1.12571
1.11044
1.0964
1.08461
1.07558
1.06958
1.06737
1.06654
1.15724
1.1634
1.16946
1.17106
1.1667
1.15706
1.14359
1.12817
1.11251
1.09812
1.08607
1.07687
1.07077
1.06855
1.06774
1.16017
1.1666
1.17291
1.17462
1.1702
1.16032
1.1465
1.13068
1.11462
1.09989
1.08757
1.07819
1.07201
1.06978
1.06898
1.16311
1.16982
1.17639
1.17822
1.17372
1.1636
1.14943
1.13321
1.11674
1.10165
1.08906
1.0795
1.07324
1.071
1.07022
1.16612
1.1731
1.17994
1.18189
1.17732
1.16696
1.15243
1.13579
1.11891
1.10346
1.09058
1.08085
1.0745
1.07226
1.0715
1.16914
1.17641
1.18352
1.1856
1.18096
1.17035
1.15545
1.13838
1.12108
1.10526
1.0921
1.08219
1.07576
1.07352
1.07278
1.17221
1.17979
1.18717
1.18939
1.18467
1.17381
1.15853
1.14103
1.1233
1.10709
1.09365
1.08357
1.07705
1.07482
1.07411
1.1753
1.18318
1.19086
1.19321
1.18842
1.1773
1.16164
1.14369
1.12551
1.10893
1.09519
1.08493
1.07834
1.07611
1.07544
1.17845
1.18665
1.19462
1.19711
1.19224
1.18086
1.1648
1.14641
1.12778
1.1108
1.09677
1.08633
1.07966
1.07745
1.07681
1.18161
1.19013
1.19841
1.20105
1.1961
1.18444
1.16799
1.14913
1.13004
1.11266
1.09834
1.08772
1.08098
1.07878
1.07819
1.18482
1.19368
1.20228
1.20506
1.20003
1.1881
1.17124
1.15191
1.13235
1.11456
1.09994
1.08914
1.08233
1.08015
1.07961
1.18805
1.19725
1.20617
1.20911
1.20399
1.19178
1.1745
1.15469
1.13465
1.11646
1.10153
1.09055
1.08367
1.08152
1.08104
1.19133
1.20089
1.21014
1.21324
1.20804
1.19554
1.17783
1.15753
1.13701
1.11839
1.10315
1.09199
1.08505
1.08294
1.08252
1.19463
1.20455
1.21414
1.21739
1.21211
1.19932
1.18118
1.16037
1.13935
1.12031
1.10476
1.09342
1.08642
1.08435
1.08399
1.19798
1.20828
1.21821
1.22163
1.21626
1.20317
1.18459
1.16327
1.14174
1.12226
1.1064
1.09489
1.08784
1.0858
1.08552
1.20134
1.21202
1.22231
1.22589
1.22044
1.20705
1.18801
1.16617
1.14413
1.12421
1.10803
1.09633
1.08923
1.08725
1.08706
1.20476
1.21583
1.22648
1.23024
1.22469
1.21099
1.19149
1.16912
1.14655
1.12619
1.10969
1.09782
1.09068
1.08875
1.08865
1.20819
1.21965
1.23068
1.23461
1.22897
1.21495
1.19498
1.17207
1.14897
1.12815
1.11133
1.09929
1.0921
1.09025
1.09024
1.21167
1.22355
1.23495
1.23906
1.23333
1.21899
1.19853
1.17507
1.15143
1.13015
1.113
1.10079
1.09357
1.09179
1.09189
1.21516
1.22746
1.23924
1.24354
1.23771
1.22304
1.20209
1.17807
1.15388
1.13213
1.11466
1.10227
1.09503
1.09333
1.09355
1.21871
1.23143
1.24361
1.24809
1.24216
1.22716
1.20571
1.18111
1.15636
1.13415
1.11634
1.10379
1.09652
1.09492
1.09527
1.22226
1.23542
1.248
1.25267
1.24664
1.23129
1.20934
1.18415
1.15884
1.13614
1.11801
1.10528
1.09801
1.0965
1.09699
1.22587
1.23947
1.25246
1.25732
1.25119
1.23549
1.21302
1.18724
1.16135
1.13817
1.1197
1.10682
1.09953
1.09814
1.09878
1.22948
1.24353
1.25694
1.26199
1.25575
1.23969
1.2167
1.19032
1.16384
1.14017
1.12137
1.10833
1.10104
1.09978
1.10058
1.23315
1.24766
1.2615
1.26673
1.26039
1.24397
1.22044
1.19344
1.16636
1.1422
1.12307
1.10987
1.1026
1.10147
1.10244
1.23682
1.2518
1.26607
1.2715
1.26504
1.24825
1.22417
1.19655
1.16887
1.14421
1.12474
1.11139
1.10414
1.10315
1.10432
1.24055
1.25601
1.2707
1.27633
1.26976
1.25259
1.22795
1.1997
1.17141
1.14625
1.12644
1.11295
1.10572
1.1049
1.10627
1.24427
1.26022
1.27536
1.28118
1.27449
1.25693
1.23173
1.20284
1.17393
1.14825
1.12811
1.11448
1.10729
1.10664
1.10823
1.24806
1.2645
1.28008
1.2861
1.27928
1.26133
1.23556
1.20601
1.17647
1.15028
1.12981
1.11604
1.1089
1.10845
1.11027
1.25184
1.26878
1.28481
1.29103
1.28408
1.26573
1.23937
1.20916
1.17899
1.15228
1.13148
1.11758
1.1105
1.11026
1.11233
1.25568
1.27312
1.28961
1.29603
1.28894
1.27018
1.24323
1.21234
1.18153
1.1543
1.13317
1.11915
1.11215
1.11213
1.11447
1.25952
1.27747
1.29441
1.30103
1.29381
1.27463
1.24707
1.2155
1.18404
1.15629
1.13483
1.1207
1.11379
1.114
1.11663
1.26341
1.28188
1.29928
1.30609
1.29873
1.27912
1.25095
1.21869
1.18657
1.1583
1.13651
1.12228
1.11548
1.11594
1.11886
1.26729
1.28629
1.30416
1.31116
1.30364
1.2836
1.25481
1.22185
1.18907
1.16027
1.13816
1.12384
1.11715
1.11788
1.12112
1.27124
1.29076
1.30909
1.31629
1.30861
1.28813
1.25871
1.22504
1.19158
1.16225
1.13982
1.12543
1.11888
1.1199
1.12347
1.27518
1.29523
1.31403
1.32141
1.31357
1.29264
1.26258
1.22819
1.19406
1.1642
1.14146
1.127
1.1206
1.12192
1.12583
1.27917
1.29976
1.31902
1.32659
1.31858
1.29719
1.26647
1.23135
1.19654
1.16616
1.14311
1.1286
1.12237
1.12401
1.12827
1.28315
1.30429
1.32401
1.33176
1.32357
1.30171
1.27034
1.23448
1.19899
1.16807
1.14473
1.13018
1.12414
1.12611
1.13073
1.28719
1.30887
1.32906
1.33698
1.32861
1.30626
1.27422
1.23762
1.20144
1.17
1.14637
1.1318
1.12597
1.12829
1.13328
1.29123
1.31344
1.33409
1.34218
1.33362
1.31079
1.27807
1.24072
1.20384
1.17188
1.14798
1.1334
1.1278
1.13047
1.13584
1.29531
1.31807
1.33918
1.34743
1.33867
1.31534
1.28193
1.24382
1.20625
1.17376
1.1496
1.13504
1.12968
1.13274
1.13848
1.29939
1.32269
1.34425
1.35266
1.34368
1.31985
1.28574
1.24687
1.2086
1.1756
1.15119
1.13667
1.13157
1.13501
1.14114
1.30351
1.32736
1.34936
1.35792
1.34873
1.32438
1.28956
1.24992
1.21095
1.17744
1.1528
1.13833
1.13352
1.13736
1.14389
1.30763
1.33202
1.35446
1.36315
1.35374
1.32886
1.29333
1.25291
1.21324
1.17924
1.15437
1.13999
1.13547
1.13972
1.14665
1.31179
1.33672
1.35959
1.36842
1.35876
1.33334
1.29709
1.25589
1.21552
1.18103
1.15597
1.14168
1.13748
1.14216
1.1495
1.31595
1.34141
1.36471
1.37365
1.36374
1.33778
1.3008
1.25881
1.21774
1.18277
1.15753
1.14336
1.13951
1.14462
1.15236
1.32015
1.34614
1.36985
1.37889
1.36873
1.34221
1.30449
1.2617
1.21994
1.18451
1.15911
1.14509
1.1416
1.14716
1.15531
1.32433
1.35084
1.37496
1.3841
1.37366
1.34657
1.3081
1.26453
1.22208
1.18619
1.16066
1.14681
1.14369
1.14971
1.15829
1.32856
1.35559
1.38009
1.38931
1.37859
1.35092
1.3117
1.26732
1.22419
1.18787
1.16223
1.14858
1.14586
1.15234
1.16135
1.33278
1.36031
1.38519
1.39447
1.38346
1.3552
1.31521
1.27004
1.22623
1.18949
1.16377
1.15035
1.14804
1.155
1.16443
1.33704
1.36506
1.3903
1.39964
1.38831
1.35945
1.31869
1.27271
1.22823
1.1911
1.16532
1.15216
1.15029
1.15774
1.1676
1.34127
1.36978
1.39536
1.40473
1.39309
1.36361
1.32207
1.27529
1.23016
1.19265
1.16685
1.15397
1.15255
1.16049
1.17079
1.34555
1.37453
1.40043
1.40982
1.39784
1.36774
1.32541
1.27782
1.23204
1.19419
1.1684
1.15583
1.15489
1.16334
1.17407
1.3498
1.37924
1.40544
1.41484
1.4025
1.37176
1.32864
1.28025
1.23384
1.19567
1.16992
1.15768
1.15725
1.16621
1.17738
1.35409
1.38396
1.41045
1.41983
1.40712
1.37573
1.3318
1.28261
1.23559
1.19713
1.17146
1.15959
1.15968
1.16916
1.18078
1.35835
1.38864
1.41539
1.42473
1.41164
1.37959
1.33484
1.28486
1.23724
1.19852
1.17296
1.16151
1.16213
1.17215
1.18421
1.36264
1.39333
1.42032
1.4296
1.41611
1.38337
1.3378
1.28703
1.23883
1.1999
1.17449
1.16348
1.16467
1.17523
1.18773
1.3669
1.39797
1.42517
1.43437
1.42045
1.38702
1.34063
1.28906
1.24032
1.2012
1.17599
1.16545
1.16723
1.17834
1.19128
1.37119
1.40261
1.43
1.43909
1.42473
1.39058
1.34334
1.291
1.24174
1.20248
1.17752
1.16749
1.16988
1.18155
1.19493
1.37544
1.40719
1.43474
1.4437
1.42887
1.39399
1.34591
1.29279
1.24304
1.20368
1.17901
1.16954
1.17256
1.18479
1.19861
1.3797
1.41176
1.43944
1.44824
1.43293
1.39728
1.34834
1.29447
1.24426
1.20486
1.18053
1.17166
1.17534
1.18814
1.20239
1.38392
1.41625
1.44404
1.45266
1.43683
1.40041
1.3506
1.29598
1.24536
1.20596
1.18203
1.17379
1.17816
1.19154
1.20622
1.38816
1.42073
1.44859
1.45699
1.44062
1.40339
1.35271
1.29736
1.24636
1.20703
1.18355
1.176
1.18108
1.19504
1.21014
1.39234
1.42513
1.45302
1.46119
1.44423
1.40619
1.35462
1.29857
1.24723
1.20802
1.18506
1.17823
1.18405
1.1986
1.21411
1.39652
1.42949
1.45739
1.46528
1.44772
1.40881
1.35636
1.29961
1.248
1.20898
1.1866
1.18054
1.18713
1.20228
1.21818
1.40064
1.43376
1.46163
1.46921
1.451
1.41121
1.35787
1.30046
1.24862
1.20986
1.18812
1.18289
1.19027
1.20601
1.22231
1.40475
1.43798
1.46579
1.47302
1.45413
1.41342
1.35918
1.30114
1.24913
1.21071
1.18968
1.18533
1.19354
1.20988
1.22654
1.40879
1.4421
1.46981
1.47665
1.45703
1.41538
1.36024
1.3016
1.2495
1.21148
1.19124
1.18782
1.19687
1.21382
1.23083
1.41281
1.44616
1.47373
1.48014
1.45974
1.41711
1.36107
1.30187
1.24974
1.21222
1.19285
1.19041
1.20034
1.21789
1.23523
1.41674
1.4501
1.47749
1.48343
1.46221
1.41857
1.36162
1.30191
1.24982
1.21288
1.19446
1.19306
1.20389
1.22205
1.23969
1.42063
1.45397
1.48114
1.48656
1.46446
1.41977
1.36192
1.30174
1.24978
1.21352
1.19613
1.19583
1.20759
1.22636
1.24428
1.42443
1.4577
1.48461
1.48946
1.46643
1.42066
1.36193
1.30133
1.24958
1.21409
1.19781
1.19866
1.21138
1.23077
1.24896
1.42817
1.46134
1.48794
1.49216
1.46814
1.42126
1.36165
1.30068
1.24924
1.21463
1.19957
1.20163
1.21533
1.23534
1.25381
1.43179
1.46482
1.49108
1.49463
1.46955
1.42152
1.36104
1.29977
1.24874
1.21511
1.20136
1.20469
1.2194
1.24001
1.25878
1.43534
1.4682
1.49406
1.49687
1.47068
1.42146
1.36013
1.29863
1.24811
1.21558
1.20323
1.2079
1.22363
1.24486
1.26392
1.43875
1.4714
1.49683
1.49884
1.47147
1.42104
1.35888
1.2972
1.2473
1.21599
1.20515
1.2112
1.22799
1.24982
1.26916
1.44206
1.47447
1.49941
1.50056
1.47194
1.42026
1.35729
1.29553
1.24637
1.2164
1.20717
1.21468
1.23254
1.25496
1.27456
1.44522
1.47735
1.50177
1.50199
1.47206
1.41909
1.35534
1.29356
1.24526
1.21677
1.20924
1.21827
1.23722
1.26022
1.28007
1.44824
1.48007
1.50391
1.50313
1.47182
1.41753
1.35303
1.29133
1.24403
1.21714
1.21144
1.22205
1.2421
1.26567
1.28574
1.45108
1.48258
1.50581
1.50396
1.4712
1.41556
1.35033
1.2888
1.24263
1.21748
1.21372
1.22596
1.24713
1.27126
1.29153
1.45375
1.4849
1.50747
1.50448
1.47019
1.41317
1.34726
1.28599
1.2411
1.21785
1.21614
1.23008
1.25237
1.27703
1.29747
1.45622
1.48699
1.50887
1.50466
1.46878
1.41035
1.34379
1.28288
1.2394
1.21819
1.21865
1.23435
1.25777
1.28295
1.30353
1.45848
1.48887
1.51002
1.5045
1.46695
1.40708
1.33993
1.27949
1.23759
1.21858
1.22132
1.23883
1.2634
1.28906
1.30975
1.4605
1.4905
1.51088
1.50398
1.46469
1.40335
1.33564
1.27578
1.23561
1.21896
1.22411
1.24349
1.2692
1.29532
1.31608
1.46228
1.49189
1.51147
1.5031
1.46199
1.39916
1.33095
1.27179
1.23353
1.2194
1.22708
1.24839
1.27524
1.30178
1.32256
1.46379
1.49302
1.51176
1.50185
1.45884
1.39449
1.32583
1.26748
1.2313
1.21985
1.23018
1.25348
1.28146
1.30839
1.32916
1.46501
1.49388
1.51176
1.5002
1.45522
1.38933
1.32028
1.26289
1.22896
1.22038
1.23349
1.25882
1.28792
1.31521
1.33591
1.46592
1.49446
1.51145
1.49817
1.45114
1.38368
1.31429
1.25798
1.22649
1.22095
1.23695
1.26436
1.29458
1.32217
1.34277
1.46651
1.49476
1.51082
1.49572
1.44657
1.37752
1.30787
1.25279
1.22394
1.22163
1.24065
1.27018
1.3015
1.32934
1.34976
1.46675
1.49476
1.50988
1.49287
1.4415
1.37086
1.30099
1.24729
1.22127
1.22236
1.24452
1.27622
1.30861
1.33667
1.35686
1.46663
1.49446
1.5086
1.48958
1.43593
1.36368
1.29369
1.24151
1.21854
1.22322
1.24864
1.28254
1.31598
1.34419
1.3641
1.46611
1.49385
1.50699
1.48587
1.42986
1.35597
1.28593
1.23544
1.21571
1.22418
1.25297
1.2891
1.32356
1.35187
1.37143
1.46519
1.49292
1.50502
1.48171
1.42325
1.34775
1.27773
1.2291
1.21285
1.22529
1.25757
1.29596
1.33141
1.35975
1.37888
1.46384
1.49167
1.5027
1.4771
1.41612
1.33899
1.26909
1.22248
1.20993
1.22653
1.26241
1.30307
1.33946
1.36778
1.38641
1.46203
1.49008
1.5
1.47201
1.40845
1.32969
1.26001
1.21563
1.20701
1.22798
1.26755
1.3105
1.34778
1.376
1.39405
1.45977
1.48816
1.49692
1.46645
1.40023
1.31987
1.2505
1.20852
1.20407
1.22958
1.27296
1.31819
1.35632
1.38437
1.40175
1.457
1.48588
1.49341
1.46037
1.39144
1.3095
1.24057
1.20121
1.20117
1.23143
1.27869
1.32621
1.36512
1.39293
1.40954
1.45374
1.48325
1.48949
1.45379
1.38208
1.2986
1.23022
1.19368
1.1983
1.23349
1.28472
1.33451
1.37414
1.40162
1.41738
1.44992
1.48022
1.48509
1.44666
1.37214
1.28716
1.21947
1.18599
1.19553
1.23585
1.29112
1.34315
1.38343
1.41049
1.42528
1.44557
1.47682
1.48022
1.43898
1.3616
1.27518
1.20833
1.17813
1.19284
1.23846
1.29784
1.35209
1.39293
1.41949
1.4332
1.44063
1.47298
1.47481
1.4307
1.35045
1.26266
1.19681
1.17016
1.19032
1.24143
1.30495
1.36137
1.40269
1.42866
1.44118
1.4351
1.46872
1.46885
1.42181
1.33868
1.24961
1.18494
1.16208
1.18796
1.24472
1.31243
1.37095
1.41266
1.43794
1.44916
1.42893
1.46397
1.46226
1.41227
1.32626
1.23603
1.17273
1.15396
1.18584
1.24842
1.32034
1.3809
1.42288
1.44736
1.4572
1.42213
1.45873
1.45503
1.40205
1.31318
1.22191
1.1602
1.14581
1.18397
1.25251
1.32865
1.39116
1.43329
1.45688
1.46525
1.41464
1.45292
1.44706
1.39109
1.29941
1.20726
1.1474
1.1377
1.18243
1.25708
1.33742
1.40178
1.44394
1.46654
1.47331
1.40647
1.44654
1.43832
1.37938
1.28494
1.19209
1.13432
1.12965
1.18123
1.26211
1.34662
1.41271
1.45477
1.47627
1.48135
1.39755
1.43948
1.4287
1.36684
1.26972
1.17638
1.12103
1.12175
1.18046
1.2677
1.35632
1.42402
1.46582
1.4861
1.48938
1.3879
1.43174
1.41815
1.35345
1.25374
1.16015
1.10754
1.11401
1.18015
1.27382
1.36648
1.43564
1.47703
1.496
1.49737
1.37746
1.42319
1.40656
1.33911
1.23695
1.14339
1.09389
1.10655
1.1804
1.28057
1.37717
1.44763
1.48844
1.50596
1.50533
1.36624
1.4138
1.39387
1.3238
1.21931
1.1261
1.08012
1.09938
1.18122
1.28794
1.38835
1.45992
1.5
1.51596
1.51324
1.35417
1.40345
1.37992
1.3074
1.20077
1.10826
1.06629
1.09262
1.18273
1.29601
1.40008
1.47257
1.51172
1.526
1.52113
1.3413
1.39209
1.36465
1.28986
1.18126
1.08988
1.05243
1.08633
1.18495
1.30478
1.41233
1.48552
1.52356
1.53603
1.52894
1.32755
1.37958
1.3479
1.27104
1.16071
1.07093
1.03859
1.0806
1.188
1.31433
1.42514
1.49879
1.53553
1.54606
1.53668
1.31299
1.36585
1.32957
1.25084
1.13904
1.05139
1.02484
1.07551
1.19191
1.32465
1.43848
1.51235
1.54758
1.55605
1.5443
1.29757
1.35077
1.30948
1.22909
1.11613
1.03125
1.01122
1.07118
1.19679
1.33581
1.45238
1.52619
1.55971
1.56598
1.5518
1.28138
1.33427
1.28749
1.20562
1.09187
1.01046
0.997808
1.06768
1.20269
1.34781
1.46681
1.54029
1.57189
1.57581
1.55913
1.26439
1.3162
1.26342
1.18015
1.06607
0.988983
0.984668
1.06514
1.20969
1.36071
1.4818
1.55463
1.5841
1.58554
1.56628
1.24677
1.29651
1.23709
1.15238
1.03857
0.966784
0.97187
1.06366
1.21786
1.37448
1.49728
1.56916
1.59628
1.5951
1.57321
1.22856
1.27506
1.20825
1.12185
1.00909
0.943814
0.959506
1.06336
1.22726
1.38916
1.51328
1.58387
1.60844
1.60449
1.57989
1.21001
1.25181
1.17668
1.08792
0.977322
0.920016
0.947666
1.06434
1.23793
1.40474
1.52972
1.5987
1.6205
1.61365
1.58628
1.1913
1.22666
1.14213
1.04964
0.942525
0.895165
0.936385
1.06668
1.24992
1.42119
1.5466
1.61363
1.63244
1.62255
1.59234
1.17289
1.19949
1.10357
1.00555
0.903889
0.868905
0.925552
1.07037
1.26318
1.43846
1.56381
1.62856
1.64419
1.63113
1.59802
1.15528
1.17008
1.05797
0.954701
0.861969
0.84144
0.91513
1.07529
1.27762
1.45646
1.5813
1.64344
1.6557
1.63936
1.60328
1.1393
1.13656
1.00338
0.898611
0.818949
0.813819
0.905354
1.08134
1.29306
1.47503
1.59893
1.65815
1.66689
1.64717
1.60805
1.12554
1.09736
0.944638
0.84162
0.77742
0.787465
0.896652
1.08836
1.30925
1.49395
1.61653
1.6726
1.67767
1.65451
1.61226
1.11372
1.05289
0.88813
0.78772
0.739243
0.76366
0.88943
1.09615
1.32585
1.51294
1.63389
1.6866
1.68791
1.66127
1.61582
1.10315
1.00411
0.835834
0.737833
0.70464
0.74302
0.883929
1.10444
1.34245
1.53162
1.65075
1.69998
1.69748
1.66737
1.61863
1.09338
0.951663
0.788662
0.691898
0.673304
0.725422
0.8801
1.11302
1.35866
1.54963
1.66678
1.71249
1.70622
1.67266
1.62055
1.08415
0.89567
0.747349
0.649667
0.644839
0.709826
0.877125
1.12154
1.37421
1.56665
1.68173
1.72391
1.71397
1.67696
1.62147
1.07522
0.840943
0.711125
0.610495
0.618587
0.694716
0.873699
1.12952
1.38886
1.58247
1.69537
1.73406
1.72056
1.68009
1.62124
1.0658
0.796726
0.677112
0.573112
0.593524
0.678923
0.869102
1.13675
1.40255
1.59698
1.70759
1.74282
1.72587
1.68191
1.61973
1.05584
0.768304
0.642042
0.535944
0.568195
0.661903
0.863326
1.14343
1.4154
1.61022
1.71835
1.75012
1.72979
1.68227
1.61681
1.04645
0.75577
0.602523
0.49873
0.54226
0.644762
0.857001
1.14991
1.42764
1.62223
1.72765
1.7559
1.73221
1.681
1.61233
1.03581
0.763586
0.557155
0.465667
0.521288
0.634554
0.853143
1.15701
1.43951
1.63307
1.73548
1.76008
1.73295
1.67789
1.60607
1.02285
0.798586
0.520382
0.446824
0.511702
0.638123
0.858732
1.16695
1.45167
1.64299
1.74191
1.76258
1.73182
1.67267
1.59775
1.01297
0.857426
0.526079
0.448325
0.514603
0.648861
0.874392
1.18167
1.46524
1.65261
1.74726
1.76347