/*--------------------------------*- C++ -*----------------------------------*\
  =========                 |
  \\      /  F ield         | OpenFOAM: The Open Source CFD Toolbox
   \\    /   O peration     | Website:  https://openfoam.org
    \\  /    A nd           | Version:  6.0
     \\/     M anipulation  |
\*---------------------------------------------------------------------------*/
FoamFile
{
    version     2.0;
    format      ascii;
    class       surfaceScalarField;
    location    "7";
    object      phi;
}
// * * * * * * * * * * * * * * * * * * * * * * * * * * * * * * * * * * * * * //

dimensions      [0 3 -1 0 0 0 0];

internalField   nonuniform List<scalar> 
68636
(
3.74351e-05
0.00309833
2.07624e-08
7.52183e-05
0.00306324
0.000112366
0.00299556
0.000148342
0.00289579
0.000182879
0.00276372
0.000215548
0.00259998
0.00024595
0.00240655
0.000273646
0.00218661
0.000298321
0.00194309
0.000319672
0.001679
0.000337479
0.00139688
0.000351539
0.00109944
0.000361775
0.00078969
0.000367949
0.000468336
0.00013429
0.000365544
3.69948e-05
0.00306138
-1.59851e-08
7.4257e-05
0.00302601
0.0001109
0.00295902
0.000146446
0.00286036
0.000180627
0.00272973
0.00021298
0.0025678
0.000243078
0.00237668
0.000270477
0.00215941
0.00029487
0.00191894
0.000315966
0.00165813
0.000333557
0.00137953
0.000347424
0.00108584
0.00035767
0.000779765
0.000363351
0.000463076
0.000136766
0.000361606
3.64744e-05
0.00302495
-3.7192e-08
7.32179e-05
0.00298928
0.000109419
0.00292286
0.000144605
0.0028252
0.000178467
0.00269594
0.000210508
0.00253578
0.000240291
0.00234695
0.000267381
0.00213234
0.000291484
0.00189487
0.00031232
0.00163729
0.000329691
0.00136217
0.000343367
0.00107214
0.000353458
0.000769646
0.000359372
0.000457098
0.000136666
0.000359195
3.59567e-05
0.00298906
-4.53061e-08
7.22154e-05
0.00295305
0.000108009
0.00288713
0.000142851
0.00279043
0.00017639
0.00266251
0.000208105
0.00250417
0.000237561
0.00231763
0.000264335
0.0021057
0.000288144
0.00187122
0.00030872
0.00161686
0.000325871
0.00134519
0.000339364
0.00105884
0.000349238
0.000760016
0.000355233
0.00045143
0.000136518
0.000355929
3.54673e-05
0.00295364
-4.52152e-08
7.12735e-05
0.00291725
0.000106675
0.00285176
0.000141172
0.00275593
0.000174374
0.00262934
0.00020575
0.00247278
0.000234868
0.00228853
0.000261323
0.00207923
0.000284839
0.0018477
0.000305156
0.00159651
0.000322088
0.00132824
0.000335407
0.00104548
0.000345076
0.00075029
0.000350966
0.000445443
0.000135151
0.000352014
3.50048e-05
0.0029187
-4.34061e-08
7.03835e-05
0.0028819
0.000105403
0.00281679
0.000139549
0.00272184
0.000172402
0.00259657
0.000203428
0.00244183
0.000232204
0.00225985
0.000258337
0.00205319
0.000281561
0.0018246
0.000301624
0.00157657
0.000318339
0.00131166
0.00033149
0.00103249
0.000340983
0.000741002
0.00034672
0.00043998
0.000134423
0.000347905
3.45663e-05
0.00288418
-4.55753e-08
6.95366e-05
0.00284693
0.00010418
0.00278216
0.000137969
0.00268805
0.000170464
0.00256409
0.000201133
0.00241114
0.000229562
0.00223142
0.000255375
0.00202735
0.00027831
0.00180165
0.000298121
0.00155672
0.000314623
0.00129513
0.000327611
0.00101944
0.00033695
0.000731593
0.000342546
0.00043427
0.00013285
0.000343784
3.41485e-05
0.00285009
-3.58577e-08
6.87252e-05
0.00281238
0.000102995
0.00274793
0.000136421
0.00265467
0.00016855
0.00253202
0.000198858
0.0023809
0.000226941
0.00220342
0.000252435
0.00200194
0.000275085
0.0017791
0.000294648
0.00153727
0.00031094
0.00127896
0.000323766
0.00100676
0.000332967
0.000722574
0.000338443
0.000429037
0.000131991
0.000339707
3.37479e-05
0.00281636
-1.8624e-08
6.79419e-05
0.00277818
0.00010184
0.00271404
0.000134898
0.0026216
0.000166657
0.00250028
0.0001966
0.00235093
0.000224338
0.00217567
0.000249516
0.00197674
0.000271884
0.00175671
0.000291204
0.0015179
0.000307291
0.00126283
0.000319957
0.000994033
0.00032903
0.000713421
0.000334404
0.000423537
0.000130374
0.00033568
3.33606e-05
0.00278302
-1.67303e-09
6.71794e-05
0.00274439
0.000100706
0.00268055
0.000133393
0.00258896
0.000164778
0.00246895
0.000194358
0.00232141
0.000221753
0.00214835
0.000246619
0.00195195
0.00026871
0.00173471
0.000287789
0.00149892
0.000303675
0.00124705
0.000316183
0.000981656
0.000325135
0.000704634
0.00033042
0.000418472
0.000129455
0.000331709
3.29835e-05
0.00275003
1.20732e-08
6.64321e-05
0.00271094
9.95868e-05
0.0026474
0.000131901
0.00255663
0.000162912
0.00243794
0.00019213
0.00229217
0.000219185
0.00212128
0.000243743
0.00192736
0.000265561
0.00171287
0.000284406
0.00148003
0.000300093
0.00123132
0.000312446
0.000969236
0.000321282
0.000695713
0.000326488
0.00041313
0.000127814
0.000327784
3.26137e-05
0.00271741
2.57885e-08
6.56953e-05
0.00267788
9.84787e-05
0.00261465
0.000130419
0.00252473
0.000161056
0.00240735
0.000189915
0.00226336
0.000216635
0.00209462
0.000240891
0.00190317
0.00026244
0.0016914
0.000281054
0.0014615
0.000296547
0.00121592
0.000308747
0.000957159
0.000317471
0.000687143
0.000322604
0.0004082
0.000126853
0.000323909
3.22492e-05
0.00268512
3.79882e-08
6.49659e-05
0.00264517
9.73782e-05
0.00258224
0.000128944
0.00249316
0.000159211
0.00237708
0.000187714
0.00223483
0.000214103
0.00206822
0.000238061
0.00187918
0.000259347
0.00167008
0.000277734
0.00144307
0.000293037
0.00120057
0.000305087
0.000945039
0.000313701
0.000678438
0.000318767
0.00040299
0.000125198
0.000320077
3.18885e-05
0.00265321
4.51134e-08
6.42415e-05
0.00261284
9.62833e-05
0.00255023
0.000127477
0.002462
0.000157375
0.00234723
0.000185527
0.00220673
0.000211591
0.00204221
0.000235256
0.00185558
0.000256283
0.00164913
0.000274447
0.00142499
0.000289563
0.00118555
0.000301465
0.000933252
0.000309973
0.000670074
0.000314975
0.000398175
0.000124206
0.000316292
3.15305e-05
0.00262162
4.81195e-08
6.35208e-05
0.00258084
9.51932e-05
0.00251856
0.000126016
0.00243117
0.000155549
0.0023177
0.000183355
0.0021789
0.0002091
0.00201645
0.000232476
0.00183217
0.000253249
0.00162833
0.000271193
0.001407
0.000286126
0.00117056
0.000297883
0.000921423
0.000306287
0.000661576
0.000311229
0.000393083
0.000122543
0.000312547
3.11745e-05
0.00259042
4.89241e-08
6.28031e-05
0.00254924
9.41074e-05
0.00248728
0.000124563
0.00240075
0.000153735
0.00228856
0.0001812
0.00215148
0.000206629
0.00199107
0.000229723
0.00180914
0.000250244
0.00160788
0.000267973
0.00138935
0.000282726
0.00115589
0.00029434
0.000909918
0.000302643
0.000653411
0.000307526
0.000388378
0.000121532
0.000308847
3.08204e-05
0.00255955
4.82189e-08
6.20882e-05
0.00251797
9.30263e-05
0.00245634
0.000123117
0.00237065
0.000151933
0.00225974
0.000179062
0.00212432
0.000204181
0.00196593
0.000226996
0.00178629
0.000247271
0.00158757
0.000264788
0.00137178
0.000279364
0.00114126
0.000290838
0.00089837
0.000299041
0.000645111
0.000303868
0.000383395
0.00011987
0.000305187
3.04678e-05
0.00252906
4.57247e-08
6.13761e-05
0.00248709
9.19503e-05
0.0024258
0.000121679
0.00234095
0.000150144
0.00223132
0.000176943
0.00209757
0.000201757
0.00194116
0.000224297
0.00176381
0.00024433
0.0015676
0.000261638
0.00135455
0.000276039
0.00112695
0.000287375
0.000887138
0.000295481
0.000637136
0.000300252
0.000378791
0.000118847
0.000301571
3.0117e-05
0.00249889
4.24561e-08
6.06674e-05
0.00245653
9.08802e-05
0.00239558
0.000120252
0.00231157
0.00014837
0.00220319
0.000174842
0.00207107
0.000199356
0.00191663
0.000221626
0.00174151
0.00024142
0.00154777
0.000258522
0.0013374
0.000272752
0.00111266
0.000283952
0.000875862
0.000291962
0.000629026
0.00029668
0.000373913
0.000117192
0.000297994
2.9768e-05
0.00246911
3.9271e-08
5.99623e-05
0.00242636
8.98166e-05
0.00236575
0.000118834
0.00228258
0.000146611
0.00217545
0.000172762
0.00204496
0.00019698
0.00189246
0.000218983
0.00171956
0.000238542
0.00152828
0.000255442
0.00132058
0.000269503
0.00109868
0.000280569
0.000864896
0.000288485
0.000621236
0.00029315
0.000369411
0.000116166
0.000294461
2.9421e-05
0.00243964
3.63026e-08
5.92614e-05
0.00239651
8.87605e-05
0.00233624
0.000117429
0.0022539
0.000144868
0.002148
0.000170702
0.0020191
0.000194628
0.00186851
0.00021637
0.00169778
0.000235696
0.00150891
0.000252396
0.00130383
0.000266291
0.00108472
0.000277225
0.000853884
0.000285049
0.000613311
0.000289662
0.000364635
0.000114525
0.000290965
2.90763e-05
0.00241056
3.3559e-08
5.85653e-05
0.00236705
8.77124e-05
0.00230712
0.000116035
0.00222561
0.000143141
0.00212093
0.000168664
0.00199362
0.000192303
0.00184491
0.000213785
0.00167636
0.000232882
0.00148988
0.000249386
0.00128739
0.000263116
0.00107107
0.000273921
0.000843175
0.000281654
0.0006057
0.000286215
0.000360227
0.0001135
0.000287513
2.87341e-05
0.00238178
3.11938e-08
5.78744e-05
0.0023379
8.6673e-05
0.00227831
0.000114654
0.00219761
0.000141432
0.00209414
0.000166647
0.00196838
0.000190003
0.00182153
0.00021123
0.00165509
0.000230101
0.00147097
0.00024641
0.00127104
0.000259978
0.00105744
0.000270656
0.00083242
0.000278299
0.000597954
0.00028281
0.00035555
0.000111874
0.000284099
2.83946e-05
0.00235338
2.92712e-08
5.71892e-05
0.00230913
8.5643e-05
0.00224989
0.000113287
0.00217
0.000139741
0.00206772
0.000164652
0.00194351
0.000187729
0.0017985
0.000208704
0.00163417
0.000227352
0.00145238
0.000243469
0.00125499
0.000256878
0.00104411
0.000267429
0.000821962
0.000274984
0.000590517
0.000279445
0.000351239
0.000110854
0.000280728
2.8058e-05
0.00232529
2.7727e-08
5.651e-05
0.00228067
8.46228e-05
0.00222176
0.000111934
0.00214268
0.000138068
0.00204157
0.00016268
0.00191887
0.000185481
0.00177567
0.000206208
0.00161341
0.000224636
0.00143391
0.000240563
0.00123901
0.000253814
0.0010308
0.000264241
0.000811456
0.000271709
0.000582947
0.00027612
0.000346658
0.000109248
0.000277393
2.77244e-05
0.00229756
2.64616e-08
5.58373e-05
0.00225258
8.36128e-05
0.00219401
0.000110595
0.00211572
0.000136414
0.00201578
0.00016073
0.00189459
0.000183259
0.00175318
0.00020374
0.00159298
0.000221951
0.00141576
0.000237691
0.00122334
0.000250786
0.00101778
0.000261091
0.000801242
0.000268473
0.000575679
0.000272835
0.000342438
0.000108233
0.000274101
2.73941e-05
0.00227013
2.54817e-08
5.51712e-05
0.00222479
8.26133e-05
0.00216656
0.00010927
0.00208905
0.000134778
0.00199026
0.000158803
0.00187054
0.000181063
0.00173089
0.000201302
0.00157271
0.000219298
0.00139772
0.000234853
0.00120774
0.000247795
0.00100478
0.000257978
0.000790979
0.000265275
0.000568278
0.00026959
0.000337953
0.000106644
0.000270845
2.70672e-05
0.00224306
2.47005e-08
5.45119e-05
0.00219737
8.16245e-05
0.00213947
0.000107961
0.00206275
0.000133162
0.00196509
0.000156899
0.00184684
0.000178893
0.00170894
0.000198893
0.00155276
0.000216676
0.00137999
0.000232049
0.00119243
0.000244839
0.000992063
0.000254903
0.000781004
0.000262116
0.000561177
0.000266383
0.000333824
0.000105633
0.00026763
2.67437e-05
0.00221628
2.4116e-08
5.38598e-05
0.00217025
8.06467e-05
0.00211267
0.000106666
0.00203671
0.000131564
0.00194018
0.000155017
0.00182336
0.000176749
0.00168718
0.000196512
0.00153296
0.000214086
0.00136238
0.000229278
0.00117719
0.000241918
0.00097936
0.000251864
0.000770978
0.000258995
0.000553942
0.000263215
0.00032943
0.000104069
0.000264451
2.64237e-05
0.00218985
2.36416e-08
5.32147e-05
0.00214348
7.96798e-05
0.00208623
0.000105386
0.00201103
0.000129985
0.00191561
0.000153157
0.00180023
0.000174631
0.00166574
0.000194161
0.00151348
0.000211527
0.00134507
0.000226541
0.00116224
0.000239033
0.000966942
0.000248862
0.000761235
0.000255911
0.000547002
0.000260085
0.000325389
0.000103055
0.000261312
2.61072e-05
0.00216371
2.32986e-08
5.25769e-05
0.002117
7.87241e-05
0.00206007
0.000104121
0.00198562
0.000128424
0.00189129
0.00015132
0.0017773
0.000172539
0.0016445
0.000191837
0.00149415
0.000208999
0.00132786
0.000223836
0.00114735
0.000236181
0.000954534
0.000245896
0.00075144
0.000252864
0.00053993
0.000256992
0.000321086
0.000101464
0.000258209
2.57943e-05
0.00213791
2.301e-08
5.19465e-05
0.00209087
7.77795e-05
0.00203426
0.000102872
0.00196056
0.000126883
0.00186731
0.000149505
0.00175472
0.000170471
0.00162357
0.000189541
0.00147512
0.000206501
0.00131096
0.000221164
0.00113275
0.000233365
0.000942406
0.000242966
0.000741924
0.000249853
0.000533149
0.000253937
0.000317131
0.000100445
0.000255145
2.54851e-05
0.00211239
2.28084e-08
5.13233e-05
0.00206502
7.68461e-05
0.00200873
0.000101637
0.00193575
0.00012536
0.00184357
0.000147712
0.00173234
0.000168429
0.00160282
0.000187273
0.00145624
0.000204033
0.00129415
0.000218524
0.00111821
0.000230582
0.000930286
0.000240071
0.000732355
0.000246879
0.000526236
0.000250918
0.000312913
9.8856e-05
0.000252116
2.51794e-05
0.00208721
2.26258e-08
5.07074e-05
0.00203951
7.59237e-05
0.00198353
0.000100417
0.00191128
0.000123855
0.00182016
0.00014594
0.00171029
0.000166411
0.00158239
0.000185033
0.00143767
0.000201595
0.00127764
0.000215916
0.00110396
0.000227832
0.000918441
0.00023721
0.000723059
0.00024394
0.000519609
0.000247934
0.000309042
9.78431e-05
0.000249126
2.48773e-05
0.0020623
2.2499e-08
5.00988e-05
0.00201428
7.50124e-05
0.00195861
9.92113e-05
0.00188707
0.000122369
0.00179698
0.000144191
0.00168844
0.000164418
0.00156213
0.000182819
0.00141923
0.000199186
0.00126123
0.000213339
0.00108975
0.000225116
0.000906601
0.000234384
0.000713711
0.000241037
0.000512852
0.000244987
0.000304912
9.62316e-05
0.00024617
2.45789e-05
0.00203772
2.23655e-08
4.94975e-05
0.00198938
7.41119e-05
0.00193402
9.80206e-05
0.00186319
0.000120901
0.00177413
0.000142462
0.00166692
0.000162449
0.00154218
0.000180633
0.00140109
0.000196807
0.00124511
0.000210793
0.00107583
0.000222432
0.000895034
0.000231592
0.000704633
0.000238168
0.000506378
0.000242074
0.000301124
9.5237e-05
0.000243254
2.4284e-05
0.0020134
2.22696e-08
4.89034e-05
0.00196475
7.32224e-05
0.00190968
9.68443e-05
0.00183955
0.00011945
0.00175151
0.000140755
0.00164559
0.000160504
0.0015224
0.000178473
0.00138309
0.000194456
0.00122909
0.000208278
0.00106196
0.000219781
0.000883468
0.000228834
0.000695499
0.000235334
0.000499774
0.000239196
0.000297079
9.3632e-05
0.00024037
2.39926e-05
0.00198941
2.21545e-08
4.83164e-05
0.00194045
7.23437e-05
0.00188568
9.56823e-05
0.00181624
0.000118018
0.0017292
0.000139068
0.00162457
0.000158583
0.00150292
0.000176339
0.00136538
0.000192134
0.00121334
0.000205794
0.00104836
0.000217161
0.000872171
0.000226109
0.000686632
0.000232533
0.000493449
0.000236352
0.000293374
9.26643e-05
0.000237526
2.37047e-05
0.00196566
2.20656e-08
4.77366e-05
0.0019164
7.14756e-05
0.00186192
9.45345e-05
0.00179316
0.000116603
0.00170711
0.000137402
0.00160374
0.000156685
0.00148361
0.000174231
0.0013478
0.00018984
0.00119769
0.000203339
0.00103481
0.000214574
0.000860873
0.000223417
0.000677709
0.000229766
0.000486995
0.000233543
0.000289417
9.10919e-05
0.000234709
2.34204e-05
0.00194224
2.1948e-08
4.71638e-05
0.00189268
7.06181e-05
0.00183849
9.34007e-05
0.0017704
0.000115205
0.00168534
0.000135756
0.00158323
0.00015481
0.00146459
0.000172149
0.0013305
0.000187574
0.00118231
0.000200914
0.00102153
0.000212017
0.00084984
0.000220757
0.000669049
0.000227033
0.000480817
0.000230765
0.000285797
9.01603e-05
0.000231927
2.31394e-05
0.00191906
2.18527e-08
4.65979e-05
0.00186921
6.9771e-05
0.0018153
9.22808e-05
0.00174787
0.000113824
0.00166377
0.000134131
0.00156289
0.000152959
0.00144573
0.000170092
0.00131333
0.000185335
0.00116703
0.000198519
0.0010083
0.000209491
0.000838805
0.000218129
0.000660331
0.000224332
0.00047451
0.000228021
0.000281928
8.86389e-05
0.000229175
2.28619e-05
0.0018962
2.17263e-08
4.60389e-05
0.00184605
6.89343e-05
0.00179243
9.11745e-05
0.00172566
0.000112461
0.00164251
0.000132525
0.00154286
0.000151129
0.00142716
0.00016806
0.00129645
0.000183123
0.00115201
0.000196152
0.000995332
0.000206996
0.00082803
0.000215533
0.000651872
0.000221664
0.000468474
0.00022531
0.000278394
8.77434e-05
0.000226457
2.25877e-05
0.00187358
2.162e-08
4.54867e-05
0.00182314
6.81078e-05
0.00176979
9.00818e-05
0.00170367
0.000111114
0.00162146
0.000130939
0.00152301
0.000149322
0.00140875
0.000166053
0.00127968
0.000180938
0.00113709
0.000193814
0.000982407
0.000204531
0.00081725
0.000212968
0.000643356
0.000219028
0.000462311
0.000222631
0.000274613
8.62733e-05
0.000223768
2.23169e-05
0.00185126
2.14802e-08
4.49413e-05
0.00180054
6.72913e-05
0.00174746
8.90024e-05
0.00168198
0.000109783
0.00160071
0.000129373
0.00150345
0.000147538
0.00139062
0.000164071
0.00126319
0.00017878
0.00112242
0.000191504
0.000969743
0.000202096
0.000806727
0.000210434
0.000635095
0.000216424
0.000456415
0.000219984
0.000271162
8.54085e-05
0.000221115
2.20493e-05
0.00182917
2.13625e-08
4.44025e-05
0.00177817
6.64849e-05
0.00172536
8.79363e-05
0.00166051
0.000108469
0.00158015
0.000127825
0.00148407
0.000145775
0.00137264
0.000162112
0.00124682
0.000176648
0.00110784
0.000189222
0.000957119
0.00019969
0.000796198
0.000207931
0.000626775
0.000213851
0.000450392
0.00021737
0.000267468
8.39848e-05
0.00021849
2.1785e-05
0.00180738
2.12126e-08
4.38702e-05
0.0017561
6.56882e-05
0.00170357
8.68831e-05
0.00163934
0.00010717
0.00155989
0.000126297
0.00146498
0.000144033
0.00135494
0.000160177
0.00123072
0.000174542
0.00109353
0.000186968
0.000944751
0.000197313
0.000785921
0.000205457
0.000618706
0.000211309
0.000444633
0.000214786
0.000264098
8.31421e-05
0.000215899
2.1524e-05
0.00178582
2.10851e-08
4.33445e-05
0.00173427
6.49014e-05
0.00168199
8.58429e-05
0.00161838
0.000105888
0.00153982
0.000124787
0.00144605
0.000142313
0.00133738
0.000158266
0.00121473
0.000172461
0.00107929
0.000184741
0.000932421
0.000194965
0.000775635
0.000203014
0.000610578
0.000208798
0.000438746
0.000212234
0.000260487
8.17584e-05
0.000213337
2.1266e-05
0.00176456
2.09245e-08
4.28252e-05
0.00171273
6.41241e-05
0.00166071
8.48153e-05
0.00159772
0.000104621
0.00152005
0.000123295
0.00142741
0.000140613
0.00132009
0.000156378
0.001199
0.000170405
0.00106531
0.000182542
0.000920344
0.000192645
0.000765599
0.0002006
0.000602698
0.000206317
0.000433122
0.000209713
0.000257197
8.09337e-05
0.000210808
2.10113e-05
0.00174351
2.07889e-08
4.23122e-05
0.00169141
6.33563e-05
0.00163965
8.38004e-05
0.00157725
0.00010337
0.00150045
0.000121822
0.00140893
0.000138935
0.00130295
0.000154513
0.00118339
0.000168375
0.0010514
0.000180368
0.000908301
0.000190354
0.000755553
0.000198216
0.000594757
0.000203866
0.000427369
0.000207222
0.000253667
7.95851e-05
0.000208308
2.07596e-05
0.00172274
2.06219e-08
4.18054e-05
0.00167039
6.25979e-05
0.00161888
8.27978e-05
0.00155708
0.000102134
0.00148114
0.000120367
0.00139073
0.000137277
0.00128607
0.000152671
0.00116804
0.000166369
0.00103775
0.000178221
0.000896507
0.00018809
0.000745751
0.00019586
0.000587061
0.000201444
0.000421874
0.000204761
0.000250452
7.87735e-05
0.000205839
2.05109e-05
0.0017022
2.04817e-08
4.13049e-05
0.00164957
6.18487e-05
0.00159832
8.18075e-05
0.0015371
0.000100914
0.00146201
0.000118929
0.00137269
0.000135639
0.00126933
0.000150851
0.00115279
0.000164387
0.00102417
0.000176101
0.000884744
0.000185853
0.000735937
0.000193533
0.000579303
0.000199052
0.000416252
0.000202331
0.000247002
7.74557e-05
0.000203398
2.02653e-05
0.00168193
2.03103e-08
4.08104e-05
0.00162905
6.11087e-05
0.00157804
8.08293e-05
0.0015174
9.97078e-05
0.00144316
0.000117509
0.00135492
0.000134021
0.00125285
0.000149053
0.0011378
0.00016243
0.00101084
0.000174005
0.000873227
0.000183644
0.000726365
0.000191234
0.000571788
0.000196689
0.000410887
0.000199929
0.000243862
7.66564e-05
0.000200989
2.00227e-05
0.00166187
2.01691e-08
4.0322e-05
0.00160873
6.03778e-05
0.00155796
7.9863e-05
0.0014979
9.85167e-05
0.00142448
0.000116107
0.0013373
0.000132422
0.0012365
0.000147277
0.00112291
0.000160496
0.000997573
0.000171936
0.000861738
0.000181461
0.000716779
0.000188962
0.000564207
0.000194354
0.000405392
0.000197557
0.000240488
7.5367e-05
0.000198607
1.9783e-05
0.00164208
1.99985e-08
3.98395e-05
0.0015887
5.96557e-05
0.00153817
7.89085e-05
0.00147867
9.73401e-05
0.00140608
0.000114721
0.00131995
0.000130844
0.00122041
0.000145523
0.00110827
0.000158586
0.000984554
0.000169891
0.00085049
0.000179305
0.000707431
0.000186718
0.000556868
0.000192047
0.000400151
0.000195214
0.00023742
7.45776e-05
0.000196255
1.95463e-05
0.0016225
1.9859e-08
3.93629e-05
0.00156886
5.89425e-05
0.00151857
7.79657e-05
0.00145962
9.61779e-05
0.00138784
0.000113353
0.00130275
0.000129284
0.00120445
0.00014379
0.00109373
0.000156699
0.0009716
0.000167871
0.000839269
0.000177175
0.000698066
0.000184501
0.000549462
0.000189769
0.000394781
0.000192899
0.00023412
7.33145e-05
0.00019393
1.93124e-05
0.00160319
1.96897e-08
3.88921e-05
0.0015493
5.82379e-05
0.00149925
7.70344e-05
0.00144085
9.50299e-05
0.00136987
0.000112001
0.00128581
0.000127744
0.00118874
0.000142078
0.00107943
0.000154835
0.000958888
0.000165876
0.000828285
0.00017507
0.000688938
0.000182312
0.000542294
0.000187518
0.000389662
0.000190611
0.000231123
7.25359e-05
0.000191635
1.90813e-05
0.00158407
1.95532e-08
3.8427e-05
0.00152994
5.75419e-05
0.00148011
7.61145e-05
0.00142226
9.38959e-05
0.00135206
0.000110666
0.00126901
0.000126222
0.00117315
0.000140387
0.00106523
0.000152994
0.000946235
0.000163904
0.000817324
0.000172991
0.00067979
0.000180148
0.000535058
0.000185294
0.000384414
0.000188352
0.000227895
7.12978e-05
0.000189365
1.88531e-05
0.00156521
1.93879e-08
3.79676e-05
0.00151084
5.68545e-05
0.00146124
7.52058e-05
0.00140393
9.27757e-05
0.00133452
0.000109347
0.00125247
0.000124719
0.00115781
0.000138716
0.00105127
0.000151174
0.000933821
0.000161957
0.000806598
0.000170938
0.000670875
0.000178011
0.000528058
0.000183097
0.000379414
0.00018612
0.000224967
7.05287e-05
0.000187125
1.86276e-05
0.00154655
1.92568e-08
3.75138e-05
0.00149194
5.61754e-05
0.00144256
7.43081e-05
0.00138578
9.16693e-05
0.00131713
0.000108044
0.00123607
0.000123234
0.00114259
0.000137066
0.0010374
0.000149378
0.000921464
0.000160033
0.000795892
0.000168909
0.000661939
0.000175899
0.000520988
0.000180926
0.000374285
0.000183915
0.00022181
6.9314e-05
0.00018491
1.84048e-05
0.00152814
1.9097e-08
3.70655e-05
0.0014733
5.55045e-05
0.00142414
7.34215e-05
0.00136788
9.05763e-05
0.0013
0.000106757
0.00121992
0.000121767
0.00112761
0.000135436
0.00102377
0.000147602
0.000909342
0.000158133
0.000785417
0.000166905
0.000653233
0.000173814
0.000514152
0.000178782
0.000369402
0.000181737
0.000218949
6.85557e-05
0.000182723
1.81848e-05
0.00150992
1.8973e-08
3.66227e-05
0.00145484
5.48419e-05
0.0014059
7.25456e-05
0.00135016
8.94967e-05
0.00128303
0.000105485
0.0012039
0.000120318
0.00111274
0.000133826
0.00101023
0.000145849
0.000897273
0.000156256
0.000774961
0.000164925
0.000644503
0.000171753
0.000507245
0.000176664
0.000364388
0.000179585
0.000215861
6.73639e-05
0.000180561
1.79674e-05
0.00149195
1.88211e-08
3.61852e-05
0.00143664
5.41873e-05
0.00138792
7.16804e-05
0.00133269
8.84302e-05
0.0012663
0.000104229
0.00118813
0.000118887
0.00109812
0.000132235
0.00099692
0.000144117
0.000885434
0.000154401
0.000764731
0.000162969
0.000636001
0.000169717
0.000500568
0.000174571
0.000359618
0.000177459
0.000213065
6.66154e-05
0.000178427
1.77526e-05
0.00147416
1.8705e-08
3.57531e-05
0.00141862
5.35407e-05
0.00137011
7.08258e-05
0.00131538
8.73767e-05
0.00124973
0.000102989
0.00117249
0.000117473
0.0010836
0.000130664
0.000983691
0.000142406
0.000873647
0.000152569
0.000754517
0.000161037
0.000627473
0.000167706
0.000493819
0.000172504
0.000354718
0.000175359
0.000210044
6.54455e-05
0.000176317
1.75405e-05
0.00145662
1.85604e-08
3.53262e-05
0.00140086
5.2902e-05
0.00135256
6.99815e-05
0.00129832
8.63361e-05
0.0012334
0.000101763
0.00115709
0.000116076
0.00106932
0.000129112
0.000970695
0.000140715
0.000862087
0.00015076
0.000744527
0.000159128
0.00061917
0.00016572
0.000487299
0.000170462
0.00035006
0.000173284
0.000207312
6.47083e-05
0.000174234
1.73309e-05
0.00143925
1.84517e-08
3.49045e-05
0.00138326
5.2271e-05
0.00133517
6.91476e-05
0.00128142
8.53082e-05
0.00121721
0.000100553
0.00114182
0.000114697
0.00105514
0.000127578
0.000957775
0.000139045
0.000850573
0.000148972
0.00073455
0.000157242
0.00061084
0.000163757
0.000480705
0.000168445
0.000345271
0.000171234
0.000204357
6.35597e-05
0.000172174
1.71239e-05
0.00142212
1.83144e-08
3.44879e-05
0.00136592
5.16477e-05
0.00131803
6.83238e-05
0.00126477
8.42928e-05
0.00120127
9.9357e-05
0.00112678
0.000113334
0.00104119
0.000126064
0.000945084
0.000137396
0.000839284
0.000147206
0.000724794
0.00015538
0.000602731
0.000161819
0.000474336
0.000166452
0.000340721
0.00016921
0.000201688
6.28328e-05
0.000170141
1.69194e-05
0.00140516
1.82136e-08
3.40764e-05
0.00134874
5.10321e-05
0.00130105
6.75101e-05
0.00124827
8.32898e-05
0.00118546
9.81758e-05
0.00111187
0.000111988
0.00102735
0.000124568
0.000932465
0.000135767
0.000828038
0.000145462
0.000715049
0.000153539
0.000594593
0.000159904
0.000467893
0.000164483
0.000336039
0.000167209
0.000198796
6.17045e-05
0.000168131
1.67173e-05
0.00138844
1.80845e-08
3.36699e-05
0.00133181
5.04239e-05
0.00128432
6.67063e-05
0.00123201
8.2299e-05
0.00116989
9.7009e-05
0.00109719
0.000110658
0.00101373
0.00012309
0.000920072
0.000134157
0.000817014
0.000143738
0.000705522
0.000151722
0.000586674
0.000158012
0.000461674
0.000162538
0.000331595
0.000165233
0.000196189
6.09895e-05
0.000166147
1.65177e-05
0.00137189
1.79919e-08
3.32684e-05
0.00131504
4.98231e-05
0.00126774
6.59123e-05
0.0012159
8.13203e-05
0.00115446
9.58565e-05
0.00108262
0.000109345
0.0010002
0.00012163
0.000907748
0.000132567
0.00080603
0.000142036
0.000696002
0.000149926
0.000578723
0.000156143
0.000455379
0.000160616
0.000327019
0.000163281
0.00019336
5.9881e-05
0.000164185
1.63205e-05
0.00135557
1.78706e-08
3.28717e-05
0.0012985
4.92296e-05
0.0012514
6.51279e-05
0.00120002
8.03536e-05
0.00113926
9.4718e-05
0.00106829
0.000108047
0.000986907
0.000120188
0.000895645
0.000130996
0.000795263
0.000140354
0.000686698
0.000148152
0.000570989
0.000154296
0.000449305
0.000158718
0.000322678
0.000161353
0.000190812
5.91768e-05
0.000162249
1.61257e-05
0.0013394
1.77853e-08
3.24798e-05
0.00128213
4.86434e-05
0.00123522
6.43531e-05
0.00118429
7.93986e-05
0.00112418
9.35935e-05
0.00105406
0.000106765
0.000973699
0.000118763
0.000883608
0.000129445
0.000784534
0.000138693
0.000677399
0.0001464
0.000563222
0.000152472
0.000443153
0.000156843
0.000318205
0.000159448
0.000188044
5.80876e-05
0.000160334
1.59333e-05
0.00132347
1.7671e-08
3.20927e-05
0.00126599
4.80643e-05
0.00121926
6.35878e-05
0.00116879
7.84553e-05
0.00110934
9.24826e-05
0.00104006
0.000105499
0.000960714
0.000117356
0.000871788
0.000127912
0.00077402
0.000137052
0.000668312
0.000144669
0.000555669
0.000150671
0.000437221
0.000154991
0.000313966
0.000157566
0.000185555
5.73956e-05
0.000158444
1.57432e-05
0.00130769
1.75912e-08
3.17103e-05
0.00125
4.74922e-05
0.00120346
6.28318e-05
0.00115342
7.75235e-05
0.00109462
9.13853e-05
0.00102617
0.000104249
0.000947814
0.000115966
0.000860032
0.000126398
0.00076354
0.000135431
0.000659228
0.000142959
0.000548081
0.000148891
0.00043121
0.000153161
0.000309593
0.000155707
0.000182847
5.63251e-05
0.000156575
1.55554e-05
0.00129213
1.74817e-08
3.13325e-05
0.00123424
4.69271e-05
0.00118788
6.2085e-05
0.00113829
7.6603e-05
0.00108013
9.03013e-05
0.0010125
0.000103013
0.000935133
0.000114593
0.000848489
0.000124903
0.000753272
0.00013383
0.000650353
0.000141269
0.000540705
0.000147133
0.000425417
0.000151353
0.000305453
0.00015387
0.000180414
5.56441e-05
0.00015473
1.53699e-05
0.00127672
1.74069e-08
3.09594e-05
0.00121863
4.63689e-05
0.00117245
6.13473e-05
0.00112329
7.56938e-05
0.00106575
8.92306e-05
0.000998936
0.000101793
0.000922534
0.000113237
0.000837005
0.000123426
0.000743035
0.000132248
0.00064148
0.000139601
0.000533291
0.000145396
0.000419543
0.000149567
0.000301178
0.000152056
0.000177764
5.45916e-05
0.000152907
1.51866e-05
0.00126153
1.73033e-08
3.05907e-05
0.00120324
4.58174e-05
0.00115724
6.06185e-05
0.00110851
7.47957e-05
0.0010516
8.8173e-05
0.000985587
0.000100588
0.00091015
0.000111897
0.000825732
0.000121966
0.000733007
0.000130685
0.000632813
0.000137952
0.000526088
0.00014368
0.000413886
0.000147803
0.000297135
0.000150264
0.000175389
5.3923e-05
0.000151106
1.50056e-05
0.00124649
1.7233e-08
3.02266e-05
0.001188
4.52727e-05
0.00114218
5.98987e-05
0.00109386
7.39085e-05
0.00103756
8.71283e-05
0.000972338
9.93971e-05
0.000897845
0.000110574
0.000814516
0.000120525
0.000723007
0.000129142
0.000624144
0.000136324
0.000518845
0.000141985
0.000408146
0.000146061
0.000292955
0.000148493
0.000172795
5.28882e-05
0.000149327
1.48267e-05
0.00123166
1.71327e-08
2.98668e-05
0.00117298
4.47346e-05
0.00112733
5.91877e-05
0.00107942
7.30322e-05
0.00102374
8.60963e-05
0.000959301
9.8221e-05
0.00088575
0.000109266
0.000803506
0.000119101
0.000713213
0.000127617
0.000615679
0.000134715
0.000511809
0.00014031
0.00040262
0.000144339
0.000289006
0.000146744
0.000170474
5.22306e-05
0.00014757
1.465e-05
0.00121697
1.70653e-08
2.95115e-05
0.0011581
4.42031e-05
0.00111261
5.84853e-05
0.00106512
7.21665e-05
0.00101003
8.5077e-05
0.00094636
9.70593e-05
0.000873731
0.000107975
0.00079255
0.000117695
0.000703445
0.000126111
0.00060721
0.000133126
0.000504733
0.000138656
0.000397011
0.000142639
0.00028492
0.000145016
0.000167936
5.12129e-05
0.000145833
1.44755e-05
0.0012025
1.69681e-08
2.91604e-05
0.00114343
4.3678e-05
0.00109811
5.77914e-05
0.00105103
7.13114e-05
0.000996537
8.407e-05
0.000933629
9.59117e-05
0.000861919
0.0001067
0.000781798
0.000116305
0.000693879
0.000124624
0.000598944
0.000131557
0.000497861
0.000137023
0.000391615
0.000140959
0.000281064
0.000143309
0.000165669
5.05677e-05
0.000144118
1.43031e-05
0.00118816
1.69012e-08
2.88137e-05
0.0011289
4.31594e-05
0.00108375
5.71061e-05
0.00103706
7.04668e-05
0.000983149
8.30755e-05
0.00092099
9.47782e-05
0.00085018
0.00010544
0.000771095
0.000114933
0.000684337
0.000123154
0.00059067
0.000130006
0.000490948
0.000135409
0.000386134
0.000139299
0.00027707
0.000141623
0.000163186
4.95667e-05
0.000142423
1.41327e-05
0.00117402
1.68034e-08
2.84711e-05
0.00111458
4.2647e-05
0.00106959
5.64291e-05
0.00102329
6.96325e-05
0.000969968
8.2093e-05
0.000908556
9.36585e-05
0.000838644
0.000104195
0.000760593