/*--------------------------------*- C++ -*----------------------------------*\
  =========                 |
  \\      /  F ield         | OpenFOAM: The Open Source CFD Toolbox
   \\    /   O peration     | Website:  https://openfoam.org
    \\  /    A nd           | Version:  6.0
     \\/     M anipulation  |
\*---------------------------------------------------------------------------*/
FoamFile
{
    version     2.0;
    format      ascii;
    class       volScalarField;
    location    "5";
    object      p;
}
// * * * * * * * * * * * * * * * * * * * * * * * * * * * * * * * * * * * * * //

dimensions      [0 2 -2 0 0 0 0];

internalField   nonuniform List<scalar> 
62000
(
0.0300288
0.0290142
0.0280135
0.027044
0.0260861
0.0251627
0.0242518
0.0233769
0.0225154
0.0216935
0.020887
0.0201222
0.0193733
0.0186687
0.01798
0.0173355
0.0167053
0.0161168
0.0155397
0.0150002
0.0144686
0.0139703
0.0134768
0.0130141
0.0125553
0.0121288
0.0117115
0.0113341
0.0109817
0.0106894
0.0104525
0.0103073
0.0102726
0.0104103
0.0107821
0.0114487
0.0124818
0.0139793
0.0160691
0.0189222
0.0227418
0.0277556
0.0341931
0.0422612
0.0520928
0.0636666
0.0767497
0.090732
0.104715
0.117309
0.127185
0.13287
0.133483
0.129075
0.119806
0.107612
0.093153
0.0785879
0.0650024
0.0589068
0.0266683
0.0255589
0.0244996
0.023502
0.0225469
0.0216538
0.0208006
0.0200057
0.0192461
0.018542
0.0178693
0.017248
0.0166533
0.016106
0.0155803
0.0150971
0.0146299
0.0141988
0.0137778
0.013386
0.0129989
0.012635
0.012272
0.0119276
0.0115838
0.0112576
0.0109384
0.0106425
0.0103706
0.0101421
0.00997336
0.00988641
0.00990932
0.0100878
0.0104776
0.0111449
0.0121724
0.0136549
0.0157135
0.0185143
0.0222623
0.02719
0.0335416
0.0415512
0.0513993
0.0631355
0.076623
0.0913674
0.106585
0.120965
0.133185
0.14167
0.145353
0.143954
0.13726
0.12689
0.113198
0.098344
0.0839601
0.0748907
0.0230672
0.0220571
0.0210755
0.0201373
0.0192269
0.0183644
0.0175334
0.0167531
0.0160054
0.0153116
0.0146506
0.0140447
0.0134699
0.0129507
0.0124604
0.0120241
0.0116135
0.0112525
0.0109128
0.0106158
0.0103347
0.0100883
0.00985257
0.00964411
0.00944377
0.00926609
0.00910044
0.00895925
0.00884455
0.00877175
0.00876112
0.00883129
0.00900454
0.0093119
0.00979604
0.0105245
0.0115787
0.013043
0.0150185
0.017653
0.0211316
0.0256684
0.031492
0.0388286
0.0478669
0.0586845
0.0712045
0.0850212
0.099467
0.11335
0.12542
0.13416
0.138488
0.137983
0.132242
0.122567
0.10918
0.0941349
0.079393
0.0670215
0.0204785
0.0196275
0.0187837
0.0179624
0.0171484
0.0163609
0.0155852
0.0148395
0.0141092
0.0134148
0.0127406
0.0121078
0.0114995
0.0109381
0.0104053
0.00992392
0.00947363
0.00907668
0.00871135
0.00839849
0.0081159
0.00788239
0.00767643
0.00751439
0.00737754
0.0072796
0.00720899
0.00717636
0.00718191
0.00723929
0.00736745
0.00758244
0.00789759
0.00832823
0.00890819
0.0096971
0.01077
0.0121949
0.0140523
0.0164669
0.0195975
0.0236311
0.0287715
0.035225
0.0431725
0.0527039
0.0637819
0.0760771
0.0890285
0.101574
0.112576
0.120606
0.124674
0.124251
0.118866
0.109536
0.0964592
0.0815972
0.0668607
0.0531501
0.018724
0.0180094
0.0172886
0.0165772
0.0158592
0.0151535
0.0144449
0.0137527
0.0130606
0.012391
0.0117258
0.0110894
0.0104622
0.00987211
0.00929759
0.00876828
0.0082617
0.00780717
0.00738205
0.00701312
0.00667861
0.00640166
0.00616192
0.00597851
0.00583392
0.0057431
0.0056949
0.00569955
0.0057566
0.00587817
0.00608188
0.00638093
0.00678017
0.00728533
0.00791801
0.00873182
0.00979011
0.0111459
0.0128625
0.0150437
0.0178226
0.0213609
0.0258366
0.0314339
0.0383209
0.0465892
0.0562287
0.0669669
0.0783346
0.0893849
0.0990861
0.106122
0.109588
0.108943
0.103645
0.0945559
0.0818157
0.067376
0.0527949
0.039113
0.0171571
0.0165482
0.0159309
0.015319
0.0146963
0.0140797
0.0134537
0.0128348
0.0122078
0.0115918
0.010971
0.0103663
0.00976139
0.0091799
0.00860466
0.0080615
0.00753251
0.00704447
0.00657923
0.00616302
0.0057782
0.00544916
0.00515896
0.00492878
0.00474367
0.00462041
0.0045494
0.00454159
0.00459672
0.00472666
0.00494824
0.00527237
0.00569902
0.00622291
0.00686138
0.00765834
0.00866672
0.00992637
0.0114883
0.0134378
0.0158862
0.0189724
0.0228515
0.027686
0.0336291
0.0407688
0.0491106
0.0584261
0.0683175
0.0779398
0.0863639
0.0923722
0.0951741
0.0942005
0.0888912
0.0799667
0.0675671
0.0535967
0.0391431
0.0261297
0.0158995
0.0153671
0.0148233
0.0142824
0.0137279
0.0131764
0.0126126
0.0120526
0.0114806
0.0109151
0.0103389
0.00977259
0.00919785
0.00863929
0.00807736
0.00753921
0.00700537
0.00650437
0.0060174
0.00557229
0.00515181
0.00478192
0.00444699
0.0041699
0.00393758
0.00376849
0.00365475
0.00360841
0.0036302
0.00373212
0.00393104
0.00423668
0.00464399
0.00514536
0.00574818
0.00649292
0.00742115
0.00856275
0.00995991
0.0116831
0.0138256
0.0165073
0.0198631
0.0240357
0.029163
0.0353256
0.0425381
0.050602
0.0591789
0.0675054
0.0747412
0.0797655
0.0818711
0.080521
0.0751115
0.0663029
0.0541751
0.0406312
0.0262202
0.0140308
0.0146937
0.0142203
0.0137361
0.0132543
0.0127587
0.0122646
0.0117569
0.0112498
0.0107288
0.01021
0.00967833
0.00915137
0.00861362
0.00808523
0.00755005
0.00703064
0.00651042
0.00601395
0.00552483
0.00506834
0.00462934
0.0042329
0.00386515
0.00354935
0.00327404
0.00305865
0.00289676
0.00280138
0.00277408
0.00282752
0.00297885
0.00323687
0.00359587
0.00404015
0.00457847
0.00524331
0.00606846
0.00707636
0.00830327
0.0098071
0.0116667
0.0139855
0.0168808
0.0204778
0.0248987
0.0302159
0.0364467
0.0434165
0.0508305
0.0579984
0.0641591
0.0682731
0.0697391
0.0680039
0.0624701
0.0537067
0.0417959
0.0285702
0.0140981
0.0026946
0.0137191
0.0132879
0.0128436
0.0123999
0.0119406
0.0114815
0.0110075
0.010534
0.010045
0.00955821
0.00905593
0.00855768
0.00804452
0.00753956
0.00702264
0.00651895
0.00600869
0.00551852
0.00502965
0.00456837
0.00411817
0.00370442
0.00331274
0.00296664
0.00265493
0.00239747
0.00218855
0.00204177
0.00195937
0.00195438
0.00204432
0.00223812
0.00252644
0.00289639
0.00334786
0.00391376
0.00461947
0.00548224
0.00653461
0.00782434
0.00941848
0.011407
0.0138921
0.0169829
0.0207874
0.0253681
0.0307427
0.0367521
0.0431394
0.0492708
0.0544537
0.057725
0.058551
0.0564148
0.0506967
0.0419291
0.0301359
0.0171227
0.00249672
-0.00827578
0.01265
0.0122531
0.0118447
0.0114376
0.0110157
0.0105937
0.0101567
0.00971847
0.00926429
0.00880984
0.00833963
0.00787072
0.00738676
0.00690726
0.00641497
0.00593147
0.00543901
0.0049611
0.00448026
0.00402057
0.00356631
0.0031417
0.00273269
0.00236235
0.00201976
0.00172466
0.00147168
0.0012745
0.00113562
0.00106831
0.00109034
0.00120992
0.00141937
0.00169801
0.00205118
0.00250507
0.00308061
0.00379158
0.00466789
0.0057485
0.00709063
0.0087726
0.0108832
0.0135172
0.016769
0.0206916
0.0253002
0.0304489
0.0359085
0.0410981
0.0453848
0.0478705
0.048107
0.0455675
0.0396486
0.0308103
0.0190752
0.0061595
-0.00869349
-0.0189858
0.0117356
0.0113606
0.0109731
0.0105863
0.0101845
0.00978233
0.00936543
0.00894782
0.00851438
0.00808103
0.00763109
0.00718198
0.00671579
0.00625321
0.00577502
0.00530372
0.00482031
0.00434892
0.00387119
0.003411
0.0029521
0.00251797
0.00209414
0.00170293
0.00133316
0.00100399
0.00070996
0.000464486
0.000269972
0.000139628
9.1045e-05
0.00013296
0.000253809
0.000438749
0.000683742
0.00101816
0.00145695
0.00201148
0.00270992
0.00358389
0.00468242
0.00607405
0.00783586
0.0100498
0.012798
0.0161232
0.0200384
0.0244058
0.0290221
0.0333468
0.0368003
0.0385432
0.0381781
0.0352137
0.02904
0.0200859
0.00831818
-0.00458843
-0.0197293
-0.0297061
0.0107607
0.0104033
0.010035
0.00966777
0.00928616
0.0089039
0.00850695
0.00810778
0.00769284
0.0072761
0.00684332
0.00640966
0.00595993
0.00551154
0.00504814
0.00458904
0.00411714
0.00365375
0.00318164
0.00272259
0.00226094
0.00181889
0.00138204
0.000971876
0.000577095
0.000216088
-0.000116751
-0.000408663
-0.00065747
-0.000850387
-0.000969878
-0.00100836
-0.000974623
-0.000892324
-0.000757445
-0.000547226
-0.000248756
0.000147557
0.000668149
0.00133795
0.00219876
0.00331029
0.00473922
0.00655579
0.00883039
0.0115971
0.0148647
0.0185039
0.0223296
0.0258421
0.0285072
0.0295368
0.0286047
0.0252078
0.0187637
0.00963632
-0.0022081
-0.0151924
-0.0306609
-0.0404451
0.00995773
0.00960868
0.00924649
0.00888418
0.00850618
0.00812708
0.00773271
0.00733711
0.00692518
0.00651287
0.00608338
0.00565406
0.00520676
0.00476185
0.00429972
0.00384208
0.00336951
0.00290503
0.00242976
0.00196596
0.00149691
0.00104436
0.000593057
0.000163733
-0.00025561
-0.000647414
-0.00101785
-0.00135482
-0.00165673
-0.00191124
-0.00210151
-0.00221943
-0.0022784
-0.00229442
-0.00227413
-0.00218994
-0.00203356
-0.00179695
-0.00145525
-0.000989337
-0.000363749
0.000473757
0.00158054
0.0030164
0.00484124
0.00708043
0.00973919
0.0126937
0.0157779
0.0185227
0.0204359
0.0207753
0.019252
0.0153947
0.00863026
-0.000708494
-0.0127034
-0.0258272
-0.0416614
-0.0513748
0.00900454
0.00866274
0.0083095
0.00795693
0.00758942
0.00722078
0.00683694
0.00645052
0.0060478
0.00564301
0.00522149
0.00479871
0.00435883
0.00391951
0.00346354
0.00301015
0.00254132
0.00207804
0.00160207
0.00113429
0.000658166
0.000194639
-0.000271763
-0.000720934
-0.00116526
-0.001588
-0.00199576
-0.00237735
-0.00273167
-0.00304725
-0.00330752
-0.00350606
-0.00365278
-0.00377389
-0.00386624
-0.00390938
-0.00389571
-0.00381864
-0.00365547
-0.0033927
-0.00300078
-0.00243444
-0.00164475
-0.000581521
0.000805282
0.00253356
0.00460436
0.00690005
0.00926773
0.0112716
0.0124538
0.0121143
0.0100213
0.00569361
-0.00140693
-0.0110037
-0.0231794
-0.0365035
-0.0527238
-0.0624514
0.0081651
0.00782244
0.00746761
0.00711321
0.00674388
0.00637348
0.00598833
0.00560155
0.00519868
0.00479453
0.00437308
0.00395038
0.0035091
0.00306822
0.00260885
0.00215115
0.00167633
0.00120595
0.000721411
0.000243363
-0.000244923
-0.000723278
-0.00120754
-0.00167851
-0.0021491
-0.00260353
-0.00304903
-0.00347522
-0.00388184
-0.004258
-0.00458825
-0.00486558
-0.00510539
-0.00532482
-0.00553285
-0.00570326
-0.00583245
-0.00591553
-0.00593203
-0.00587356
-0.00571595
-0.00541995
-0.00494425
-0.00424725
-0.00328767
-0.00205504
-0.000551563
0.00110946
0.00279012
0.00407883
0.00455171
0.00354471
0.000852723
-0.00397554
-0.0114572
-0.0213439
-0.0337605
-0.0473277
-0.0639625
-0.0737898
0.00723796
0.00689466
0.00654069
0.00618772
0.00582041
0.00545184
0.00506849
0.00468209
0.00427967
0.00387431
0.00345225
0.00302769
0.00258566
0.00214248
0.00168164
0.00122097
0.000742961
0.000267309
-0.000224052
-0.000711723
-0.00121227
-0.00170624
-0.00220965
-0.00270387
-0.00320213
-0.00368953
-0.00417366
-0.0046452
-0.00510438
-0.00554144
-0.0059413
-0.00629905
-0.00662604
-0.00695094
-0.00727164
-0.00756982
-0.00784182
-0.00808461
-0.00828068
-0.00842686
-0.00850422
-0.00847924
-0.00831759
-0.00798568
-0.00745052
-0.0067078
-0.00576339
-0.00472528
-0.0037216
-0.00313563
-0.00336518
-0.00503848
-0.00831423
-0.0136527
-0.0215299
-0.0317455
-0.0444237
-0.0582787
-0.0753402
-0.0853252
0.00647764
0.00612578
0.00576135
0.00539682
0.0050169
0.00463547
0.00423892
0.00384046
0.00342563
0.00300934
0.00257542
0.00214002
0.00168552
0.00123089
0.000756836
0.000283158
-0.00020932
-0.000699589
-0.00120671
-0.00171106
-0.00222975
-0.00274382
-0.00326987
-0.00379001
-0.00431808
-0.00484006
-0.00536422
-0.00588203
-0.00639464
-0.00689293
-0.00736315
-0.00779979
-0.00822031
-0.00864325
-0.00907995
-0.00950568
-0.00992065
-0.010324
-0.0107013
-0.0110542
-0.0113688
-0.0116165
-0.0117693
-0.0118009
-0.0116856
-0.0114252
-0.0110284
-0.0105992
-0.0102534
-0.0103544
-0.0112722
-0.013606
-0.0174965
-0.0233755
-0.0316889
-0.0422614
-0.0552521
-0.0694273
-0.0869408
-0.0971453
0.00556417
0.00520585
0.00483656
0.00446787
0.00408443
0.0036994
0.00329921
0.00289576
0.00247595
0.00205309
0.00161307
0.00117037
0.00070943
0.000246885
-0.000234565
-0.000717004
-0.00121877
-0.00172019
-0.00224019
-0.00275991
-0.00329659
-0.00383161
-0.00438191
-0.00492993
-0.00548987
-0.00604846
-0.00661435
-0.00718004
-0.0077472
-0.00830791
-0.00884887
-0.00936692
-0.00987503
-0.0104044
-0.0109541
-0.0115082
-0.0120664
-0.0126303
-0.0131893
-0.0137501
-0.0143035
-0.0148261
-0.0152957
-0.0156927
-0.0159983
-0.0162196
-0.0163684
-0.0165435
-0.0168534
-0.0176367
-0.0192443
-0.0222432
-0.0267375
-0.0331659
-0.0419296
-0.0528915
-0.0662109
-0.0807409
-0.0987151
-0.109181
0.00476272
0.00439147
0.00400871
0.00362647
0.00322956
0.00283123
0.00241819
0.00200289
0.0015713
0.00113742
0.000685605
0.000231019
-0.000243422
-0.000719766
-0.00121686
-0.001716
-0.002236
-0.00275678
-0.00329728
-0.00383898
-0.00439901
-0.0049595
-0.00553756
-0.00611641
-0.00671071
-0.00730803
-0.00791763
-0.00853279
-0.0091561
-0.00978028
-0.0103935
-0.010992
-0.0115953
-0.0122235
-0.0128905
-0.0135733
-0.0142755
-0.0150015
-0.0157444
-0.0165158
-0.0173112
-0.0181113
-0.0188997
-0.0196628
-0.0203878
-0.0210871
-0.0217748
-0.0225457
-0.023498
-0.0249535
-0.02724
-0.0309016
-0.0360302
-0.0430376
-0.0522881
-0.0636648
-0.0773576
-0.0922692
-0.110729
-0.121503
0.00387936
0.00349772
0.00310603
0.00271537
0.00231048
0.00190387
0.00148233
0.00105694
0.000615158
0.000169321
-0.000294026
-0.000761436
-0.00124785
-0.00173765
-0.00224766
-0.00276105
-0.0032958
-0.00383312
-0.00439186
-0.00495425
-0.00553752
-0.00612412
-0.00673146
-0.00734307
-0.00797386
-0.00861216
-0.0092675
-0.00993422
-0.0106153
-0.0113048
-0.0119913
-0.0126735
-0.0133662
-0.0141031
-0.0148848
-0.0156977
-0.0165449
-0.0174336
-0.0183614
-0.019345
-0.0203845
-0.021465
-0.0225753
-0.0237073
-0.0248545
-0.0260334
-0.0272612
-0.0286273
-0.0302244
-0.0323518
-0.0353248
-0.0396571
-0.0454112
-0.0530053
-0.0627556
-0.0745758
-0.0886553
-0.103977
-0.122931
-0.134042
0.00317989
0.00278012
0.00236835
0.00195644
0.00152925
0.00110005
0.000655585
0.000208384
-0.000255642
-0.000722328
-0.00120757
-0.00169602
-0.00220518
-0.00271693
-0.00325068
-0.00378786
-0.00434783
-0.00491072
-0.00549605
-0.00608601
-0.00669813
-0.00731535
-0.00795553
-0.00860284
-0.00927269
-0.00995422
-0.0106576
-0.0113777
-0.0121186
-0.012875
-0.0136369
-0.0144023
-0.0151933
-0.0160312
-0.0169328
-0.0178768
-0.0188705
-0.0199241
-0.0210396
-0.0222385
-0.0235256
-0.0248899
-0.0263247
-0.0278275
-0.029397
-0.0310542
-0.0328181
-0.0347741
-0.0370065
-0.0397996
-0.0434496
-0.0484512
-0.0548618
-0.063071
-0.0733545
-0.0856422
-0.100149
-0.115905
-0.135377
-0.146863
0.00233571
0.00192164
0.00149695
0.00107262
0.000633382
0.000191844
-0.000265228
-0.000726576
-0.00120488
-0.00168754
-0.00218839
-0.00269366
-0.00321896
-0.00374825
-0.00429925
-0.00485492
-0.0054342
-0.00601811
-0.00662645
-0.00724177
-0.00788202
-0.00853017
-0.00920454
-0.00988943
-0.0106006
-0.0113277
-0.0120813
-0.0128573
-0.0136601
-0.0144856
-0.0153244
-0.0161772
-0.0170605
-0.0180107
-0.0190298
-0.020107
-0.0212487
-0.0224683
-0.0237728
-0.0251889
-0.0267259
-0.0283767
-0.0301395
-0.0320164
-0.0340118
-0.0361499
-0.0384532
-0.0410008
-0.0438738
-0.047335
-0.0516748
-0.0573566
-0.0644166
-0.0732487
-0.0840784
-0.0968586
-0.111804
-0.128019
-0.148014
-0.1599
0.00160707
0.00117281
0.000727423
0.000282332
-0.00017763
-0.000639708
-0.001117
-0.00159762
-0.00209534
-0.00259675
-0.00311738
-0.0036427
-0.00418985
-0.00474152
-0.00531687
-0.00589823
-0.00650482
-0.00711742
-0.00775566
-0.00840257
-0.00907583
-0.00975917
-0.010471
-0.0111964
-0.0119514
-0.0127266
-0.0135329
-0.0143669
-0.0152339
-0.0161305
-0.0170487
-0.0179886
-0.0189742
-0.0200287
-0.0211714
-0.0223831
-0.0236748
-0.0250631
-0.0265597
-0.0281966
-0.0299873
-0.0319284
-0.0340222
-0.0362761
-0.0386983
-0.0413184
-0.0441581
-0.0472954
-0.0508015
-0.0549293
-0.0599471
-0.0663111
-0.074051
-0.0835333
-0.0949398
-0.108235
-0.123656
-0.140352
-0.160896
-0.173209
0.000804605
0.00035415
-0.000106064
-0.000565569
-0.00103969
-0.0015164
-0.00200876
-0.00250622
-0.00302109
-0.00354155
-0.00408101
-0.00462653
-0.00519333
-0.00576615
-0.00636248
-0.00696613
-0.00759594
-0.00823355
-0.0088989
-0.00957543
-0.0102812
-0.011
-0.0117507
-0.0125184
-0.0133195
-0.0141451
-0.0150064
-0.0159011
-0.0168345
-0.0178047
-0.0188042
-0.0198357
-0.0209174
-0.0220885
-0.0233523
-0.024701
-0.0261445
-0.0277029
-0.0293932
-0.0312527
-0.0332995
-0.0355337
-0.0379621
-0.0405961
-0.0434498
-0.0465543
-0.0499364
-0.0536656
-0.0578137
-0.0626105
-0.0683263
-0.0753833
-0.0837987
-0.0939392
-0.105935
-0.119768
-0.135675
-0.152873
-0.173968
-0.186729
0.000204603
-0.00027015
-0.000756696
-0.00124374
-0.00174646
-0.00225206
-0.00277368
-0.00329929
-0.00384281
-0.00439065
-0.00495863
-0.00553204
-0.00612851
-0.00673055
-0.00735796
-0.00799317
-0.00865609
-0.00932759
-0.010028
-0.010741
-0.0114846
-0.0122434
-0.0130364
-0.0138494
-0.0146992
-0.0155778
-0.0164967
-0.0174541
-0.0184567
-0.0195025
-0.020586
-0.0217086
-0.0228973
-0.0241762
-0.0255678
-0.0270549
-0.0286524
-0.030384
-0.0322716
-0.0343576
-0.0366645
-0.0391958
-0.0419626
-0.0449804
-0.0482676
-0.0518594
-0.0557819
-0.0601041
-0.0648883
-0.0703572
-0.0767562
-0.0845121
-0.0936331
-0.104458
-0.117071
-0.131463
-0.14789
-0.165609
-0.187281
-0.200512
-0.000523084
-0.00101702
-0.00152157
-0.00202633
-0.00254666
-0.00307038
-0.00361061
-0.00415659
-0.00472081
-0.00529115
-0.00588147
-0.0064785
-0.00709818
-0.00772486
-0.008377
-0.00903821
-0.00972841
-0.010429
-0.0111609
-0.0119079
-0.0126888
-0.0134877
-0.0143245
-0.0151847
-0.0160856
-0.0170196
-0.0179985
-0.0190215
-0.0200952
-0.0212194
-0.0223883
-0.0236072
-0.0248957
-0.0262958
-0.0278123
-0.0294403
-0.0311938
-0.0331001
-0.0351869
-0.0375013
-0.0400711
-0.0429021
-0.0460113
-0.049416
-0.0531424
-0.0572242
-0.0616951
-0.066613
-0.0720451
-0.0781887
-0.0852991
-0.0937597
-0.103586
-0.115105
-0.128347
-0.143319
-0.160276
-0.178534
-0.200781
-0.2145
-0.00111855
-0.00163718
-0.00216704
-0.00269724
-0.00324312
-0.00379232
-0.00435796
-0.00492855
-0.00551783
-0.00611282
-0.00672916
-0.0073528
-0.00800123
-0.00865755
-0.00934154
-0.0100364
-0.0107621
-0.0114999
-0.0122705
-0.0130582
-0.0138814
-0.014725
-0.0156089
-0.0165195
-0.0174741
-0.018466
-0.0195074
-0.020598
-0.0217455
-0.0229498
-0.0242071
-0.025521
-0.026921
-0.0284324
-0.0300806
-0.0318514
-0.0337631
-0.0358479
-0.0381374
-0.0406851
-0.0435215
-0.0466577
-0.0501128
-0.0539099
-0.0580779
-0.0626547
-0.0676728
-0.0731908
-0.0792663
-0.0860922
-0.0938951
-0.103073
-0.113633
-0.12587
-0.139768
-0.155339
-0.172856
-0.19167
-0.214518
-0.228742
-0.0017676
-0.00230596
-0.00285444
-0.00340316
-0.00396768
-0.00453637
-0.0051223
-0.00571538
-0.00632782
-0.00694819
-0.00759008
-0.00824086
-0.00891629
-0.00960127
-0.0103142
-0.0110394
-0.0117969
-0.0125683
-0.013375
-0.0142015
-0.0150666
-0.0159552
-0.0168877
-0.0178503
-0.0188608
-0.019913
-0.0210191
-0.0221799
-0.023403
-0.0246899
-0.0260368
-0.0274511
-0.0289541
-0.0305909
-0.0323676
-0.0342835
-0.0363558
-0.0386209
-0.0411153
-0.0438986
-0.0470044
-0.0504491
-0.054254
-0.0584477
-0.0630629
-0.068139
-0.0737129
-0.0798357
-0.0865681
-0.0940818
-0.102609
-0.112505
-0.123803
-0.136769
-0.151334
-0.167522
-0.185608
-0.204993
-0.228437
-0.243181
-0.00218478
-0.00275184
-0.00333159
-0.00391318
-0.00451201
-0.00511561
-0.00573714
-0.00636493
-0.00701289
-0.00766773
-0.00834547
-0.00903179
-0.00974473
-0.0104671
-0.0112194
-0.0119848
-0.012784
-0.0135984
-0.0144492
-0.0153214
-0.0162338
-0.0171717
-0.0181561
-0.0191736
-0.0202424
-0.021357
-0.0225301
-0.0237629
-0.025064
-0.026435
-0.0278742
-0.0293869
-0.0310053
-0.0327559
-0.0346688
-0.0367309
-0.0389676
-0.0414159
-0.0441209
-0.0471434
-0.0505248
-0.0542822
-0.0584429
-0.0630383
-0.0681055
-0.0736866
-0.0798174
-0.0865513
-0.0939384
-0.10215
-0.111381
-0.122017
-0.134077
-0.147791
-0.163046
-0.179871
-0.198552
-0.218524
-0.24259
-0.257866
-0.00272615
-0.00331596
-0.0039178
-0.00452166
-0.00514316
-0.00577043
-0.00641656
-0.00707113
-0.00774653
-0.00843088
-0.00913829
-0.0098556
-0.0105995
-0.0113541
-0.0121392
-0.0129385
-0.0137734
-0.0146251
-0.015516
-0.0164307
-0.0173891
-0.018376
-0.0194131
-0.0204868
-0.0216158
-0.0227949
-0.024037
-0.0253441
-0.0267248
-0.0281822
-0.0297144
-0.0313308
-0.0330547
-0.034935
-0.0369796
-0.0391919
-0.0415944
-0.0442294
-0.0471462
-0.0504115
-0.0540707
-0.0581451
-0.0626656
-0.0676677
-0.0731932
-0.0792845
-0.0859823
-0.0933334
-0.101391
-0.110307
-0.120278
-0.13165
-0.14448
-0.158953
-0.174909
-0.192386
-0.211669
-0.232238
-0.256917
-0.272739
-0.00313704
-0.0037553
-0.00438653
-0.00502009
-0.00567173
-0.00632925
-0.00700592
-0.00769041
-0.00839658
-0.00911153
-0.00985121
-0.0106018
-0.0113812
-0.0121726
-0.0129968
-0.0138374
-0.0147154
-0.0156122
-0.0165497
-0.0175133
-0.0185222
-0.0195621
-0.0206549
-0.0217874
-0.0229787
-0.0242244
-0.0255375
-0.0269205
-0.0283829
-0.0299279
-0.0315554
-0.033273
-0.0351158
-0.037114
-0.0392977
-0.0416626
-0.0442336
-0.04706
-0.0501929
-0.0537064
-0.0576486
-0.0620462
-0.0669323
-0.0723481
-0.0783374
-0.0849462
-0.092214
-0.10019
-0.108918
-0.11855
-0.129244
-0.14138
-0.154998
-0.170244
-0.18692
-0.205067
-0.224976
-0.246157
-0.271472
-0.28785
-0.00360777
-0.00424866
-0.00490175
-0.00555737
-0.00623162
-0.00691291
-0.00761459
-0.00832661
-0.00906133
-0.00980722
-0.0105784
-0.0113619
-0.0121747
-0.0130009
-0.0138607
-0.0147379
-0.0156545
-0.0165915
-0.0175723
-0.0185816
-0.01964
-0.0207325
-0.0218817
-0.0230744
-0.0243298
-0.0256439
-0.0270298
-0.0284908
-0.0300362
-0.0316707
-0.033394
-0.0352184
-0.0371709
-0.039301
-0.0416227
-0.0441415
-0.0468853
-0.0499039
-0.0532564
-0.0570196
-0.061249
-0.0659729
-0.0712305
-0.0770646
-0.0835254
-0.0906579
-0.098507
-0.107116
-0.116532
-0.126889
-0.13834
-0.151234
-0.16565
-0.181681
-0.199086
-0.217915
-0.238455
-0.260255
-0.286195
-0.30314
-0.00383964
-0.00451335
-0.00520218
-0.00589531
-0.00660862
-0.00732971
-0.00807188
-0.00882362
-0.00959882
-0.0103844
-0.0111965
-0.0120212
-0.0128767
-0.0137463
-0.014651
-0.0155749
-0.0165395
-0.0175263
-0.0185578
-0.0196202
-0.020733
-0.0218825
-0.0230914
-0.0243468
-0.0256684
-0.0270527
-0.0285133
-0.0300535
-0.0316836
-0.0334082
-0.03523
-0.0371592
-0.0392333
-0.0414859
-0.0439516
-0.0466277
-0.0495469
-0.052762
-0.0563382
-0.0603567
-0.0648791
-0.0699363
-0.0755721
-0.0818324
-0.0887718
-0.0964363
-0.104872
-0.114123
-0.124229
-0.135321
-0.147521
-0.161202
-0.17643
-0.193252
-0.211403
-0.230931
-0.252122
-0.274554
-0.301143
-0.318662
-0.00420435
-0.00490359
-0.00561769
-0.00633656
-0.00707643
-0.00782531
-0.00859657
-0.00937976
-0.0101873
-0.0110073
-0.0118543
-0.012715
-0.0136069
-0.0145139
-0.015457
-0.0164201
-0.0174263
-0.0184562
-0.0195342
-0.0206456
-0.0218114
-0.0230171
-0.0242862
-0.0256055
-0.0269947
-0.028451
-0.0299874
-0.0316082
-0.0333237
-0.0351406
-0.0370613
-0.0391002
-0.0412874
-0.0436769
-0.046284
-0.0491214
-0.0522176
-0.0556319
-0.0594332
-0.0637105
-0.0685287
-0.0739244
-0.0799434
-0.0866368
-0.0940617
-0.102267
-0.1113
-0.121203
-0.132015
-0.143857
-0.156833
-0.1713
-0.18735
-0.204975
-0.223879
-0.244115
-0.265959
-0.289025
-0.316249
-0.334352
-0.0044482
-0.00517779
-0.00592317
-0.00667346
-0.00744535
-0.00822638
-0.0090304
-0.00984597
-0.0106872
-0.0115412
-0.0124244
-0.0133229
-0.0142552
-0.0152049
-0.0161929
-0.0172042
-0.0182601
-0.0193428
-0.0204748
-0.021643
-0.0228671
-0.0241337
-0.0254659
-0.0268514
-0.0283098
-0.029839
-0.0314523
-0.0331542
-0.0349567
-0.0368662
-0.0388876
-0.0410341
-0.0433465
-0.0458618
-0.0486189
-0.0516186
-0.0548955
-0.0585122
-0.0625442
-0.0670856
-0.0722068
-0.0779482
-0.0843589
-0.0914938
-0.0994133
-0.108168
-0.117805
-0.128371
-0.139893
-0.152493
-0.166245
-0.181527
-0.198406
-0.216837
-0.236509
-0.257467
-0.279983
-0.303696
-0.331574
-0.350267
-0.00469899
-0.00545225
-0.00622184
-0.0069979
-0.00779734
-0.00860845
-0.00944465
-0.0102957
-0.0111741
-0.012068
-0.0129918
-0.0139326
-0.0149079
-0.0159016
-0.0169347
-0.0179917
-0.0190954
-0.020227
-0.0214107
-0.0226328
-0.023914
-0.0252404
-0.0266358
-0.0280878
-0.0296156
-0.0312182
-0.0329084
-0.0346923
-0.0365814
-0.0385844
-0.0407063
-0.0429643
-0.0453923
-0.0480485
-0.0509525
-0.0541179
-0.057578
-0.0613997
-0.0656652
-0.0704741
-0.0759027
-0.0819949
-0.0888036
-0.0963871
-0.104809
-0.114123
-0.124377
-0.135615
-0.147863
-0.161236
-0.175788
-0.191885
-0.209606
-0.228854
-0.2493
-0.270986
-0.294173
-0.318532
-0.34705
-0.366342
-0.00465279
-0.00545562
-0.00628049
-0.00711485
-0.0079728
-0.00884169
-0.0097344
-0.0106388
-0.0115695
-0.0125135
-0.0134879
-0.0144781
-0.0155041
-0.0165489
-0.0176341
-0.018745
-0.0199031
-0.021091
-0.0223313
-0.0236121
-0.0249527
-0.0263409
-0.0277997
-0.0293177
-0.0309143
-0.0325892
-0.0343555
-0.0362201
-0.0381956
-0.040291
-0.0425139
-0.0448804
-0.047436
-0.0502225
-0.0532809
-0.0566146
-0.0602612
-0.0642928
-0.0687977
-0.0738811
-0.0796249
-0.0860766
-0.0932926
-0.101334
-0.11027
-0.120152
-0.131031
-0.142951
-0.155933
-0.170085
-0.185442
-0.202382
-0.220947
-0.241015
-0.262247
-0.284674
-0.308549
-0.333564
-0.36274
-0.382632
-0.00519244
-0.00599635
-0.00681871
-0.00764917
-0.0085068
-0.00937978
-0.0102825
-0.0112026
-0.012154
-0.0131228
-0.0141256
-0.015147
-0.0162067
-0.0172864
-0.0184091
-0.0195585
-0.0207586
-0.0219899
-0.0232772
-0.0246075
-0.0260011
-0.027445
-0.028963
-0.0305437
-0.0322059
-0.0339507
-0.0357908
-0.0377344
-0.0397944
-0.0419821
-0.0443051
-0.0467844
-0.0494585
-0.0523901
-0.0555999
-0.0591049
-0.0629416
-0.0671866
-0.0719346
-0.0772969
-0.0833611
-0.0901785
-0.0978087
-0.106317
-0.115774
-0.126235
-0.137751
-0.150365
-0.164095
-0.179042
-0.195225
-0.213008
-0.232434
-0.253334
-0.275357
-0.298527
-0.323087
-0.348755
-0.378573
-0.399073
-0.00537226
-0.00622754
-0.00710258
-0.00798662
-0.00889418
-0.00981388
-0.0107591
-0.0117183
-0.0127065
-0.0137106
-0.0147487
-0.0158056
-0.0169019
-0.0180201
-0.0191827
-0.0203744
-0.021618
-0.0228952
-0.0242294
-0.025609
-0.0270533
-0.0285505
-0.0301241
-0.0317634
-0.0334877
-0.0352989
-0.03721
-0.0392301
-0.0413738
-0.0436525
-0.0460767
-0.0486659
-0.0514705
-0.0545347
-0.0579042
-0.0615832
-0.0656141
-0.0700785
-0.0750769
-0.0807262
-0.0871199
-0.0943128
-0.102368
-0.111353
-0.121343
-0.132394
-0.144558
-0.157876
-0.172362
-0.188112
-0.205127
-0.223776
-0.244066
-0.2658
-0.288624
-0.312551
-0.33781
-0.36414
-0.394612
-0.415721
-0.00601725
-0.00687832
-0.00775623
-0.00864163
-0.00955355
-0.0104807
-0.0114377
-0.0124124
-0.0134192
-0.014444
-0.0155045
-0.0165849
-0.017706
-0.0188491
-0.0200385
-0.0212575
-0.0225316
-0.0238405
-0.0252103
-0.0266279
-0.0281144
-0.0296569
-0.03128
-0.0329727
-0.0347546
-0.0366285
-0.0386076
-0.0407027
-0.0429282
-0.0452979
-0.0478222
-0.0505255
-0.0534494
-0.0566627
-0.0601875
-0.0640446
-0.0682744
-0.0729627
-0.0782163
-0.0841582
-0.0908875
-0.0984628
-0.10695
-0.116422
-0.126954
-0.138606
-0.151428
-0.165463
-0.180719
-0.197286
-0.215152
-0.234672
-0.255842
-0.278426
-0.302055
-0.326738
-0.35269
-0.379677
-0.410787
-0.432508
-0.00628887
-0.00720852
-0.00814546
-0.00908937
-0.0100548
-0.0110307
-0.0120305
-0.0130433
-0.0140842
-0.0151405
-0.0162306
-0.0173397
-0.0184892
-0.019662
-0.0208811
-0.0221321
-0.0234384
-0.024782
-0.026187
-0.0276426
-0.0291685
-0.0307534
-0.032422
-0.0341641
-0.0359998
-0.037933
-0.0399776
-0.0421451
-0.0444514
-0.0469106
-0.0495358
-0.0523493
-0.0554064
-0.0587553
-0.0624453
-0.066484
-0.0709174
-0.0758364
-0.0813535
-0.0875973
-0.0946724
-0.102641
-0.111573
-0.121542
-0.13263
-0.144894
-0.158387
-0.17315
-0.189185
-0.206578
-0.225303
-0.245713
-0.267765
-0.2912
-0.315646
-0.341097
-0.367754
-0.395406
-0.427163
-0.449496
-0.00706812
-0.00799402
-0.00893244
-0.00987458
-0.0108398
-0.0118173
-0.0128221
-0.0138427
-0.014894
-0.0159623
-0.0170662
-0.0181898
-0.0193554
-0.0205436
-0.0217805
-0.023049
-0.0243761
-0.0257412
-0.0271717
-0.028655
-0.030213
-0.0318334
-0.0335422
-0.0353293
-0.0372151
-0.0392048
-0.0413124
-0.0435507
-0.0459359
-0.0484847
-0.0512098
-0.054139
-0.0573182
-0.060821
-0.064672
-0.0688965
-0.0735385
-0.0786933
-0.0844795
-0.0910313
-0.0984592
-0.106829
-0.116214
-0.126691
-0.138343
-0.151232
-0.165407
-0.18091
-0.197739
-0.215972
-0.235572
-0.256878
-0.279834
-0.304135
-0.329399
-0.355614
-0.38297
-0.411281
-0.443668
-0.46662
-0.00750137
-0.00846852
-0.00944528
-0.0104237
-0.0114218
-0.0124286
-0.0134608
-0.0145059
-0.0155815
-0.0166732
-0.017801
-0.0189485
-0.0201386
-0.0213528
-0.0226154
-0.0239116
-0.0252659
-0.0266601
-0.0281195
-0.0296341
-0.0312246
-0.0328805
-0.0346279
-0.0364579
-0.0383916
-0.0404354
-0.0426041
-0.0449115
-0.0473757
-0.0500131
-0.0528401
-0.0558816
-0.059198
-0.0628396
-0.0668624
-0.0712761
-0.0761323
-0.0815306
-0.087595
-0.0944651
-0.102257
-0.111041
-0.12089
-0.131888
-0.144119
-0.157645
-0.172516
-0.188772
-0.206403
-0.225487
-0.245971
-0.268191
-0.292051
-0.317221
-0.343314
-0.370305
-0.39837
-0.427347
-0.460371
-0.483942
-0.00791917
-0.00892561
-0.00994244
-0.0109615
-0.0119993
-0.0130457
-0.0141146
-0.0151952
-0.0163025
-0.0174229
-0.0185763
-0.0197463
-0.0209572
-0.0221888
-0.0234692
-0.024781
-0.0261533
-0.027565
-0.0290455
-0.0305829
-0.0322005
-0.0338869
-0.0356696
-0.0375399
-0.0395195
-0.041616
-0.0438445
-0.0462208
-0.0487629
-0.0514899
-0.0544179
-0.0575777
-0.0610182
-0.0648195
-0.0690091
-0.0736175
-0.0786937
-0.0843414
-0.0906904
-0.0978857
-0.106049
-0.115255
-0.125579
-0.137108
-0.149928
-0.164103
-0.179683
-0.196704
-0.215153
-0.235101
-0.256484
-0.279627
-0.304413
-0.330468
-0.357391
-0.385152
-0.413918
-0.443554
-0.477199
-0.501398
-0.00833048
-0.00936501
-0.0104095
-0.0114547
-0.0125184
-0.0135886
-0.0146817
-0.015785
-0.0169157
-0.0180592
-0.019236
-0.0204299
-0.0216641
-0.0229207
-0.0242249
-0.0255625
-0.0269593
-0.0283976
-0.0299038
-0.0314695
-0.0331162
-0.0348348
-0.0366528
-0.038563
-0.0405875
-0.0427358
-0.0450237
-0.0474679
-0.0500883
-0.0529042
-0.0559354
-0.0592095
-0.062792
-0.0667376
-0.0711071
-0.0759152
-0.0812178
-0.0871233
-0.0937668
-0.101299
-0.109846
-0.119486
-0.1303
-0.142373
-0.155797
-0.170636
-0.186938
-0.204738
-0.224016
-0.244839
-0.267133
-0.291213
-0.316926
-0.343868
-0.371631
-0.400173
-0.42965
-0.459951
-0.494224
-0.519049
-0.00887138
-0.00992614
-0.0109884
-0.0120506
-0.01313
-0.0142167
-0.0153252
-0.0164445
-0.0175901
-0.0187478
-0.0199382
-0.0211446
-0.0223916
-0.0236589
-0.0249755
-0.0263241