/*--------------------------------*- C++ -*----------------------------------*\
  =========                 |
  \\      /  F ield         | OpenFOAM: The Open Source CFD Toolbox
   \\    /   O peration     | Website:  https://openfoam.org
    \\  /    A nd           | Version:  6.0
     \\/     M anipulation  |
\*---------------------------------------------------------------------------*/
FoamFile
{
    version     2.0;
    format      ascii;
    class       volVectorField;
    location    "5";
    object      U;
}
// * * * * * * * * * * * * * * * * * * * * * * * * * * * * * * * * * * * * * //

dimensions      [0 1 -1 0 0 0 0];

internalField   nonuniform List<vector> 
62000
(
(0.965601 0.256272 -4.03907e-21)
(0.96567 0.256189 3.42722e-21)
(0.96574 0.256216 3.32521e-21)
(0.965813 0.25623 -1.43048e-20)
(0.965887 0.256251 -1.54957e-20)
(0.965962 0.256279 5.48751e-20)
(0.966034 0.256311 -5.90236e-20)
(0.966105 0.256351 3.42078e-20)
(0.96617 0.256397 -1.52133e-20)
(0.966231 0.256449 -7.55048e-20)
(0.966285 0.256505 -6.30063e-21)
(0.966332 0.256568 1.05568e-19)
(0.966373 0.256634 1.99171e-20)
(0.966406 0.256705 -7.13687e-20)
(0.966432 0.256777 1.08056e-19)
(0.966453 0.256852 -5.78417e-20)
(0.966466 0.256927 5.63916e-20)
(0.966475 0.257004 -6.71772e-20)
(0.966478 0.257079 3.06683e-20)
(0.966477 0.257157 -9.56824e-20)
(0.966471 0.257233 1.2385e-19)
(0.966463 0.257311 3.28258e-20)
(0.96645 0.257388 4.63598e-20)
(0.966434 0.257468 -2.23111e-19)
(0.966415 0.257548 8.1648e-20)
(0.966394 0.257633 -4.56349e-20)
(0.966368 0.257719 2.74058e-21)
(0.96634 0.257811 -3.36472e-20)
(0.966308 0.257907 1.11951e-19)
(0.966273 0.258009 -6.11883e-20)
(0.966232 0.258115 1.45128e-19)
(0.966187 0.25823 -2.93898e-19)
(0.966136 0.258353 2.79041e-20)
(0.966082 0.258493 -9.86279e-20)
(0.966028 0.258644 -3.55261e-20)
(0.965971 0.258807 -1.15521e-19)
(0.965911 0.258983 -5.05946e-20)
(0.965847 0.259184 -6.47354e-20)
(0.965775 0.259426 1.31555e-19)
(0.965689 0.259712 7.80882e-19)
(0.965582 0.260046 -2.23951e-19)
(0.965446 0.260422 -1.50097e-18)
(0.965268 0.260825 -2.93859e-18)
(0.965033 0.261227 1.94483e-18)
(0.964722 0.261577 6.66734e-19)
(0.964312 0.261803 -4.09364e-18)
(0.963783 0.261798 1.29802e-18)
(0.963113 0.261436 -2.28192e-18)
(0.962296 0.260572 -1.26775e-17)
(0.96134 0.259083 -3.2441e-18)
(0.960279 0.256883 -1.8842e-18)
(0.959182 0.253956 -2.60991e-17)
(0.95813 0.250358 3.24182e-18)
(0.957276 0.246181 3.06791e-17)
(0.956772 0.241601 7.97574e-18)
(0.956743 0.236651 2.52614e-17)
(0.957373 0.231373 -2.78248e-18)
(0.958648 0.225262 -4.17616e-18)
(0.961486 0.217365 7.83173e-18)
(0.932109 0.19289 1.29117e-18)
(0.965188 0.264763 -9.3498e-22)
(0.965136 0.264432 8.72513e-21)
(0.965099 0.26425 3.17593e-21)
(0.965083 0.264036 -1.51237e-20)
(0.965089 0.263807 6.10177e-21)
(0.965115 0.263565 -4.01686e-20)
(0.96516 0.26331 3.73224e-20)
(0.965223 0.263046 2.03089e-20)
(0.965299 0.262773 -3.80676e-20)
(0.965387 0.262493 2.16387e-21)
(0.965483 0.262205 3.52192e-20)
(0.965585 0.261914 -5.58353e-22)
(0.965688 0.261619 8.92e-21)
(0.965791 0.261324 -8.26499e-20)
(0.965891 0.261028 1.62765e-19)
(0.965986 0.260737 -1.44532e-19)
(0.966074 0.260449 6.65509e-20)
(0.966156 0.260171 -1.38311e-20)
(0.966228 0.259901 -3.81373e-20)
(0.966293 0.259649 9.96268e-20)
(0.966349 0.259412 -1.58297e-19)
(0.966398 0.259197 9.15919e-20)
(0.966438 0.259003 -1.11942e-19)
(0.966473 0.258838 6.80492e-20)
(0.9665 0.2587 6.21073e-20)
(0.966523 0.258596 -3.89064e-20)
(0.966537 0.258526 -4.14549e-22)
(0.966549 0.258498 4.27592e-20)
(0.966549 0.258512 3.45439e-20)
(0.966543 0.258577 -7.48033e-20)
(0.966515 0.258686 1.46058e-19)
(0.966471 0.258856 3.18857e-20)
(0.966401 0.259097 8.56293e-20)
(0.966314 0.259428 1.44386e-20)
(0.966216 0.259837 2.91679e-20)
(0.966097 0.260319 -2.62681e-20)
(0.965936 0.260884 -1.09612e-19)
(0.965726 0.261558 -4.05299e-20)
(0.965464 0.262331 -3.66812e-19)
(0.965139 0.263181 -5.2436e-19)
(0.964738 0.264078 4.31755e-19)
(0.964247 0.264967 3.31703e-19)
(0.96365 0.265765 3.00658e-18)
(0.962927 0.266361 2.14312e-19)
(0.962059 0.266603 -6.77151e-18)
(0.961019 0.266313 3.29626e-18)
(0.95979 0.265279 3.50912e-18)
(0.958352 0.263302 4.56883e-18)
(0.956719 0.260191 1.39787e-18)
(0.954912 0.255863 2.85459e-19)
(0.953006 0.250309 1.10916e-17)
(0.951164 0.243602 3.23272e-17)
(0.949483 0.235971 -2.25978e-17)
(0.948252 0.227576 -5.52696e-17)
(0.947686 0.218754 -1.31216e-17)
(0.947994 0.209453 -8.03827e-18)
(0.949533 0.19966 -1.88124e-17)
(0.95219 0.18842 -8.28882e-18)
(0.958206 0.175273 1.17511e-17)
(0.915724 0.136875 3.95914e-18)
(0.965056 0.272489 -3.88761e-21)
(0.96486 0.272155 -3.63853e-22)
(0.964677 0.27195 7.55759e-22)
(0.964514 0.271726 2.6425e-21)
(0.964377 0.27148 6.94903e-21)
(0.964269 0.271216 -6.64289e-21)
(0.964192 0.27093 3.28325e-20)
(0.964149 0.270622 -1.65202e-20)
(0.96414 0.270292 -8.74549e-21)
(0.964165 0.269937 -4.78086e-20)
(0.96422 0.269556 4.07779e-20)
(0.964305 0.26915 2.71688e-21)
(0.964414 0.26872 -8.83121e-21)
(0.964544 0.268267 2.26662e-20)
(0.96469 0.267791 -3.78669e-20)
(0.964848 0.267299 6.85602e-22)
(0.965012 0.266789 -1.62527e-20)
(0.965178 0.266272 1.29234e-21)
(0.965341 0.265748 3.86213e-20)
(0.965499 0.26523 -5.70056e-20)
(0.965649 0.264718 3.51757e-20)
(0.965789 0.264225 1.34965e-19)
(0.965917 0.263752 -2.14456e-20)
(0.966034 0.263312 -1.86365e-19)
(0.966137 0.262905 9.59922e-20)
(0.96623 0.262546 -4.83861e-20)
(0.966308 0.262231 7.9744e-20)
(0.966378 0.261979 -4.8895e-20)
(0.966429 0.261785 -1.00695e-19)
(0.966468 0.261665 9.69024e-20)
(0.966474 0.261611 -7.41231e-20)
(0.966459 0.261645 1.07172e-19)
(0.966406 0.261788 -2.93541e-19)
(0.96633 0.262064 2.78927e-19)
(0.966242 0.262451 -1.56485e-19)
(0.966127 0.262937 6.6078e-20)
(0.965957 0.26354 4.56757e-20)
(0.96571 0.264304 -2.24603e-20)
(0.965392 0.265169 -4.02962e-20)
(0.965002 0.266101 4.61716e-19)
(0.964531 0.267051 -2.51579e-19)
(0.963971 0.26794 4.64296e-19)
(0.963314 0.268657 -1.88727e-18)
(0.962551 0.269063 -1.12232e-18)
(0.961674 0.268974 1.74513e-18)
(0.960665 0.268195 -5.7377e-18)
(0.959519 0.266498 1.06569e-18)
(0.958215 0.263703 -7.29875e-18)
(0.956768 0.259645 1.17796e-17)
(0.955181 0.254309 3.58453e-18)
(0.953508 0.247763 1.56456e-18)
(0.951932 0.240099 -1.01905e-18)
(0.950472 0.231633 9.22924e-18)
(0.949429 0.222542 2.7022e-18)
(0.948975 0.213186 -1.85089e-17)
(0.949369 0.20356 -1.04756e-17)
(0.950999 0.193627 -6.21955e-18)
(0.953673 0.182611 -1.95146e-17)
(0.960045 0.171615 -1.73413e-18)
(0.927034 0.142127 1.14234e-18)
(0.964827 0.276529 -3.4435e-21)
(0.964597 0.276281 1.03591e-20)
(0.964366 0.276129 -1.80725e-21)
(0.964138 0.275973 -1.00759e-20)
(0.963921 0.275796 1.46016e-20)
(0.963722 0.275607 2.34686e-20)
(0.963546 0.2754 -3.16202e-20)
(0.963399 0.275177 3.17015e-21)
(0.963285 0.274934 9.51251e-21)
(0.963209 0.274667 1.87356e-20)
(0.963173 0.274373 -3.61353e-20)
(0.963178 0.274051 -1.00213e-20)
(0.963223 0.273697 -1.04415e-20)
(0.963308 0.273309 4.98435e-20)
(0.96343 0.272885 -3.23972e-20)
(0.963584 0.272427 7.19151e-20)
(0.963765 0.271933 -8.61849e-20)
(0.963967 0.27141 -1.09599e-20)
(0.964184 0.270858 8.52589e-20)
(0.96441 0.270289 -2.99642e-20)
(0.964639 0.269704 -9.97375e-21)
(0.964866 0.269117 -1.08185e-20)
(0.965085 0.268531 -9.70111e-20)
(0.965294 0.267961 5.72482e-20)
(0.965488 0.26741 -2.51033e-20)
(0.965667 0.266895 4.27718e-20)
(0.965827 0.266417 1.72021e-20)
(0.96597 0.265996 9.79911e-20)
(0.966087 0.265631 -5.97753e-20)
(0.966182 0.265341 -8.31615e-20)
(0.966238 0.265117 1.24642e-19)
(0.966264 0.264984 -1.04335e-19)
(0.966247 0.264973 2.06367e-19)
(0.966204 0.265104 -1.34543e-19)
(0.966147 0.265353 4.82464e-20)
(0.966066 0.265704 9.909e-20)
(0.965935 0.266179 -4.68715e-20)
(0.965711 0.266838 8.95332e-20)
(0.965412 0.267573 -2.05504e-20)
(0.965055 0.268353 1.37229e-19)
(0.96464 0.269123 -4.37061e-19)
(0.964169 0.269799 1.50586e-19)
(0.963642 0.270268 4.12819e-19)
(0.963059 0.270389 1.07198e-18)
(0.962422 0.269981 2.0454e-18)
(0.961715 0.268862 9.72349e-19)
(0.960939 0.266817 3.98395e-18)
(0.960058 0.263697 5.22907e-18)
(0.959081 0.259365 6.34045e-18)
(0.957978 0.253849 -5.30597e-18)
(0.956767 0.247259 -9.10588e-18)
(0.955625 0.239678 5.29216e-18)
(0.954495 0.231448 6.99241e-18)
(0.953669 0.222748 2.36246e-17)
(0.953262 0.213915 1.5908e-17)
(0.953572 0.205033 1.93298e-17)
(0.954959 0.196046 3.50572e-17)
(0.957218 0.186421 1.9374e-18)
(0.962686 0.178619 -1.36751e-17)
(0.941827 0.158072 -7.8052e-18)
(0.964661 0.278564 6.10447e-21)
(0.964449 0.278358 -2.21973e-21)
(0.964224 0.278243 3.06465e-21)
(0.96399 0.278133 -4.70183e-21)
(0.963754 0.278011 9.42464e-21)
(0.96352 0.277885 -5.07978e-21)
(0.963294 0.277751 2.03841e-21)
(0.963082 0.277609 -3.4245e-20)
(0.962892 0.277455 2.85182e-20)
(0.962728 0.277286 -5.21966e-20)
(0.962598 0.277097 5.74498e-20)
(0.962505 0.276887 -6.80399e-21)
(0.962454 0.276649 -1.34527e-20)
(0.962447 0.276382 -5.44688e-21)
(0.962486 0.276078 -5.94021e-22)
(0.96257 0.275738 -5.26453e-20)
(0.962696 0.275357 5.98376e-21)
(0.962862 0.274938 5.68077e-20)
(0.963061 0.274478 -1.68654e-20)
(0.963288 0.273985 -1.62018e-20)
(0.963537 0.273458 2.97299e-20)
(0.963799 0.27291 -1.3072e-20)
(0.964069 0.272341 5.46572e-20)
(0.96434 0.271767 2.74242e-20)
(0.964605 0.271191 2.07994e-20)
(0.964859 0.270631 -6.85552e-20)
(0.965097 0.270087 -9.68875e-21)
(0.965316 0.269586 -5.16127e-20)
(0.965509 0.269125 1.07326e-20)
(0.965673 0.268725 -1.94286e-20)
(0.965797 0.26838 -6.2435e-21)
(0.965885 0.268116 7.10995e-20)
(0.965927 0.267966 -1.83945e-19)
(0.965941 0.267952 -2.07914e-21)
(0.965938 0.268045 -1.12e-19)
(0.965913 0.268231 -6.05319e-20)
(0.965846 0.268536 4.24684e-20)
(0.965675 0.269024 -2.29325e-19)
(0.965421 0.269554 3.9968e-19)
(0.965124 0.270103 2.88089e-20)
(0.964793 0.270615 5.46944e-19)
(0.964437 0.271009 -4.67944e-19)
(0.964064 0.271176 -3.38947e-19)
(0.963681 0.270986 -2.89051e-19)
(0.963293 0.27027 1.32651e-18)
(0.962887 0.268866 2.38608e-18)
(0.962465 0.266578 2.85502e-19)
(0.961982 0.263289 8.59556e-19)
(0.961436 0.258885 -3.14722e-18)
(0.960772 0.253419 1.30021e-17)
(0.959973 0.247024 3.43504e-18)
(0.95921 0.239771 -4.70426e-18)
(0.958364 0.231992 -1.31168e-18)
(0.957716 0.223865 1.45393e-17)
(0.957329 0.215683 1.02127e-18)
(0.957521 0.207591 -1.61172e-17)
(0.95861 0.199501 -2.80941e-17)
(0.960435 0.191026 2.47118e-17)
(0.964645 0.185493 -7.79837e-18)
(0.952987 0.170184 6.70387e-18)
(0.964648 0.279779 -2.12845e-21)
(0.964459 0.27961 8.43409e-21)
(0.964254 0.279521 -1.3623e-20)
(0.964034 0.279439 9.9976e-21)
(0.963804 0.279345 5.98079e-21)
(0.963566 0.279252 -6.62599e-21)
(0.963325 0.279155 4.38783e-22)
(0.963085 0.279055 -4.48142e-21)
(0.962853 0.278951 -1.41201e-20)
(0.962634 0.278841 2.70159e-20)
(0.962436 0.27872 -3.94747e-20)
(0.962265 0.278587 3.41846e-20)
(0.962126 0.278436 2.70405e-20)
(0.962026 0.278263 -4.20948e-20)
(0.961969 0.278063 -1.17627e-20)
(0.961958 0.277833 4.57557e-20)
(0.961995 0.277566 -5.22156e-20)
(0.96208 0.277264 6.76948e-20)
(0.96221 0.27692 -1.44624e-20)
(0.962383 0.27654 4.5384e-21)
(0.962593 0.276119 -1.1644e-20)
(0.962834 0.275667 -1.2955e-20)
(0.9631 0.27518 -2.21352e-20)
(0.963382 0.274673 3.54905e-20)
(0.963674 0.274146 -2.46385e-20)
(0.963967 0.273616 -2.23667e-20)
(0.964255 0.273082 4.7412e-20)
(0.96453 0.27257 -4.13396e-20)
(0.964785 0.272078 7.50712e-20)
(0.965013 0.271629 -3.88004e-20)
(0.965205 0.271216 3.68147e-20)
(0.965362 0.270864 -5.51813e-20)
(0.965474 0.27061 7.43422e-20)
(0.965556 0.270471 1.94173e-21)
(0.965621 0.270421 -1.85847e-21)
(0.965666 0.270445 3.31904e-21)
(0.965676 0.270573 -3.67549e-20)
(0.96557 0.270865 1.98933e-19)
(0.965369 0.271163 -1.77659e-19)
(0.965136 0.27145 -1.06742e-18)
(0.964887 0.271673 -5.09286e-19)
(0.964637 0.271758 4.66334e-19)
(0.964398 0.271605 -4.58967e-19)
(0.964181 0.271097 -8.00687e-19)
(0.963996 0.270079 -7.76831e-20)
(0.96383 0.268414 2.50157e-18)
(0.963687 0.265928 -4.38387e-18)
(0.963513 0.262529 -5.30004e-18)
(0.963303 0.258124 -4.60956e-18)
(0.962983 0.252782 -8.0734e-18)
(0.962509 0.246642 4.80044e-18)
(0.962041 0.239764 -2.66088e-18)
(0.961419 0.232457 -2.1125e-17)
(0.960912 0.224886 2.75908e-18)
(0.960543 0.217295 6.83953e-18)
(0.960625 0.209859 -1.00547e-17)
(0.961442 0.202463 8.99857e-18)
(0.962917 0.194799 3.24462e-18)
(0.965882 0.190692 1.3575e-17)
(0.960252 0.178437 -1.12834e-18)
(0.964696 0.280579 2.32502e-21)
(0.96453 0.280424 -1.03088e-20)
(0.964347 0.280347 5.13568e-21)
(0.964147 0.280279 8.9168e-21)
(0.963934 0.280202 -1.86309e-20)
(0.96371 0.280127 1.54352e-20)
(0.963475 0.280051 -9.78114e-21)
(0.963234 0.279976 8.18777e-21)
(0.962991 0.279899 1.20079e-20)
(0.962751 0.27982 -2.87233e-20)
(0.962519 0.279736 3.95817e-20)
(0.962301 0.279646 1.42825e-20)
(0.962104 0.279547 -6.18124e-20)
(0.961935 0.279435 -8.96968e-21)
(0.9618 0.279304 3.04045e-20)
(0.961705 0.279153 1.70511e-20)
(0.961653 0.278974 -2.0849e-20)
(0.961648 0.278768 1.64294e-20)
(0.961692 0.278527 2.21057e-20)
(0.961785 0.278253 -1.32042e-20)
(0.961923 0.27794 -6.95245e-21)
(0.962105 0.277594 1.88149e-20)
(0.962325 0.277209 3.53172e-20)
(0.962576 0.276796 -2.90172e-20)
(0.962851 0.276351 -2.79859e-20)
(0.963143 0.27589 2.91419e-20)
(0.963443 0.275409 -2.28362e-20)
(0.963743 0.274933 -9.52237e-21)
(0.964033 0.274458 7.61337e-20)
(0.964305 0.274006 -3.2156e-20)
(0.964549 0.273568 -3.08637e-20)
(0.964763 0.273168 4.38175e-20)
(0.964939 0.272844 3.3602e-20)
(0.965088 0.272609 -2.35506e-20)
(0.965219 0.272438 -2.16379e-20)
(0.965335 0.272315 8.79117e-20)
(0.965422 0.272276 4.2814e-20)
(0.965384 0.272371 2.83552e-20)
(0.965236 0.272436 -2.20462e-19)
(0.965061 0.272459 -2.09667e-19)
(0.964884 0.272392 5.54853e-19)
(0.96472 0.272171 5.34471e-19)
(0.964588 0.271706 1.12095e-18)
(0.964498 0.270893 -1.01942e-18)
(0.964464 0.269596 -1.3238e-18)
(0.964474 0.2677 -1.28152e-18)
(0.964533 0.26505 3.51333e-18)
(0.964584 0.261578 3.80494e-18)
(0.964617 0.257205 -5.06894e-18)
(0.964548 0.25201 -7.65456e-18)
(0.964315 0.246131 -2.55398e-18)
(0.964065 0.239613 1.64386e-18)
(0.96361 0.232734 6.97086e-19)
(0.96321 0.225646 -7.04039e-18)
(0.962854 0.218543 5.29152e-18)
(0.962849 0.211615 3.57009e-18)
(0.963442 0.204717 4.84763e-18)
(0.964662 0.1976 -1.14193e-17)
(0.966547 0.194347 -1.06699e-18)
(0.964582 0.183954 -9.07084e-19)
(0.964742 0.281169 -3.62063e-21)
(0.964595 0.281035 -2.70542e-21)
(0.964431 0.280966 3.95989e-21)
(0.964253 0.280906 1.29793e-20)
(0.964062 0.280836 -2.74226e-20)
(0.963857 0.280767 3.06962e-20)
(0.963641 0.280697 -1.88629e-21)
(0.963414 0.280629 -2.25019e-21)
(0.963179 0.280561 -1.01079e-20)
(0.96294 0.280494 2.25555e-20)
(0.962701 0.280425 -3.44486e-20)
(0.962466 0.280356 1.28234e-20)
(0.962241 0.280282 -2.52558e-22)
(0.962032 0.280202 1.7168e-20)
(0.961847 0.280112 6.72633e-21)
(0.961691 0.280008 -3.9224e-20)
(0.961569 0.279886 3.24206e-20)
(0.961488 0.279744 1.06674e-20)
(0.961452 0.279577 -3.15321e-20)
(0.961463 0.279383 1.48868e-20)
(0.961522 0.279158 5.54697e-21)
(0.961628 0.278902 -5.19545e-21)
(0.96178 0.278611 2.99656e-21)
(0.961974 0.27829 -3.61365e-21)
(0.962203 0.277934 -2.45696e-20)
(0.962462 0.277553 1.51505e-20)
(0.962742 0.277144 -2.21529e-20)
(0.963034 0.276726 3.70697e-20)
(0.963331 0.276294 -9.94162e-21)
(0.96362 0.275868 -3.78087e-21)
(0.963894 0.275436 -1.15913e-21)
(0.964148 0.275019 5.2283e-20)
(0.964372 0.274654 -1.77952e-20)
(0.964574 0.274352 -2.64117e-21)
(0.964762 0.274087 4.36312e-20)
(0.964939 0.27384 4.30959e-20)
(0.965094 0.273655 -7.88956e-20)
(0.965117 0.273567 1.37795e-20)
(0.965015 0.273415 2.37486e-19)
(0.964888 0.273191 3.93859e-20)
(0.964766 0.272856 1.56368e-19)
(0.964668 0.272353 -3.32977e-19)
(0.964612 0.271603 4.79986e-19)
(0.964611 0.270516 1.5224e-18)
(0.964681 0.268973 7.17944e-19)
(0.964809 0.266877 -7.9492e-19)
(0.965001 0.264094 -3.05744e-18)
(0.965199 0.260574 3.0305e-19)
(0.965395 0.256247 1.55127e-18)
(0.965495 0.251197 4.28825e-18)
(0.965427 0.245555 -1.04869e-18)
(0.965329 0.239355 -6.94301e-18)
(0.964989 0.232837 6.20532e-18)
(0.964669 0.226139 -4.20941e-18)
(0.964328 0.219412 6.99232e-18)
(0.964263 0.212851 2.022e-18)
(0.964689 0.206289 6.34277e-18)
(0.965748 0.199526 6.51328e-18)
(0.966759 0.196756 -1.6838e-19)
(0.966973 0.187588 -1.06922e-18)
(0.96479 0.281597 -1.64194e-21)
(0.964658 0.281457 1.42404e-21)
(0.964511 0.281389 6.74502e-21)
(0.964351 0.28133 1.01482e-20)
(0.964179 0.281264 -3.04812e-20)
(0.963995 0.2812 1.72198e-20)
(0.963798 0.281136 -2.90077e-20)
(0.96359 0.281074 4.47389e-20)
(0.963371 0.281013 -2.0627e-20)
(0.963144 0.280953 3.39719e-21)
(0.962911 0.280893 3.46707e-20)
(0.962676 0.280833 -7.76867e-20)
(0.962443 0.280772 5.13089e-20)
(0.962217 0.280709 5.69938e-21)
(0.962005 0.28064 8.49315e-21)
(0.961811 0.280564 -4.04726e-20)
(0.961643 0.280476 1.87393e-20)
(0.961505 0.280376 -2.09191e-20)
(0.961405 0.280258 3.72446e-20)
(0.961345 0.280121 -6.99062e-21)
(0.961331 0.279959 -4.03717e-20)
(0.961363 0.279774 1.59895e-20)
(0.961442 0.279557 -9.79842e-22)
(0.961567 0.279313 -4.20062e-20)
(0.961735 0.279035 3.23056e-20)
(0.961941 0.278731 2.04295e-20)
(0.962179 0.278393 1.04689e-20)
(0.962441 0.278039 -1.67726e-20)
(0.962719 0.27766 -1.82926e-20)
(0.963002 0.277274 9.43667e-21)
(0.963282 0.276866 8.32006e-21)
(0.963554 0.276453 -1.6929e-20)
(0.963807 0.27607 -2.58748e-20)
(0.964044 0.275725 5.94777e-20)
(0.964273 0.275389 1.49788e-20)
(0.964497 0.275044 -1.30915e-19)
(0.964705 0.274736 2.34222e-20)
(0.964778 0.274487 1.08428e-19)
(0.96471 0.274144 -8.67636e-21)
(0.964617 0.273702 2.14172e-19)
(0.964534 0.273131 -3.83414e-19)
(0.96448 0.272381 -1.57152e-20)
(0.964474 0.271384 -3.70463e-19)
(0.964528 0.270062 2.30962e-20)
(0.96466 0.268311 8.2769e-19)
(0.964856 0.266051 2.64914e-18)
(0.965125 0.263163 8.03357e-19)
(0.965409 0.259613 -2.72614e-18)
(0.965701 0.255338 2.16141e-18)
(0.965906 0.250421 9.36922e-18)
(0.965945 0.244985 -8.23199e-18)
(0.965946 0.23905 1.04557e-17)
(0.965685 0.232824 -6.89379e-18)
(0.965423 0.226429 -2.62772e-18)
(0.965101 0.21998 -1.38919e-17)
(0.965002 0.213671 -5.34071e-19)
(0.965313 0.207322 -3.36591e-18)
(0.966287 0.200774 -2.14554e-18)
(0.966628 0.198257 -1.09954e-18)
(0.968137 0.189952 -1.57617e-18)
(0.964847 0.281948 2.10379e-21)
(0.964726 0.281819 6.48322e-22)
(0.964592 0.281753 -7.33696e-21)
(0.964446 0.281697 6.88054e-21)
(0.964288 0.281632 -2.98569e-21)
(0.96412 0.281568 5.03571e-21)
(0.96394 0.281503 1.46353e-21)
(0.963748 0.281439 -2.36506e-20)
(0.963545 0.281377 1.06102e-20)
(0.963332 0.281317 -6.03747e-21)
(0.963111 0.281258 4.37298e-21)
(0.962884 0.2812 1.41303e-20)
(0.962654 0.281142 -2.67745e-21)
(0.962425 0.281084 7.30546e-21)
(0.962201 0.281023 -2.99776e-20)
(0.961988 0.280959 1.21171e-20)
(0.961791 0.280886 5.03816e-21)
(0.961617 0.280807 -1.04424e-20)
(0.961471 0.280715 2.00928e-20)
(0.961358 0.280612 4.90838e-21)
(0.961283 0.28049 -1.32468e-21)
(0.961251 0.280351 -4.56184e-21)
(0.961263 0.280187 1.73087e-20)
(0.96132 0.280001 -4.16809e-20)
(0.961423 0.279784 1.99803e-20)
(0.961568 0.279543 5.74261e-21)
(0.961752 0.279267 -1.07366e-20)
(0.961967 0.278971 1.55778e-20)
(0.962209 0.278645 -8.70933e-21)
(0.962466 0.278303 -3.77238e-21)
(0.962734 0.277925 -1.10675e-20)
(0.963003 0.277528 -9.1732e-22)
(0.963264 0.277142 1.1506e-20)
(0.963518 0.27677 -4.22134e-20)
(0.96377 0.276385 8.51905e-20)
(0.964023 0.275963 6.68978e-22)
(0.964268 0.275558 7.59508e-20)
(0.964375 0.275173 -1.95406e-19)
(0.96433 0.274669 -8.98812e-20)
(0.964257 0.274043 -3.90695e-20)
(0.964197 0.273273 -4.40518e-20)
(0.964168 0.272315 2.99454e-21)
(0.964188 0.271111 -3.48813e-19)
(0.96427 0.269595 -2.34996e-20)
(0.96443 0.267675 2.27969e-19)
(0.964656 0.265284 -2.28858e-18)
(0.964958 0.262318 3.1438e-18)
(0.96528 0.258752 6.11715e-19)
(0.96562 0.25453 -2.38897e-19)
(0.965878 0.249732 -5.39935e-18)
(0.965978 0.244469 2.65228e-18)
(0.966036 0.238752 -5.26294e-18)
(0.965825 0.232756 8.39532e-18)
(0.965608 0.22659 2.94801e-18)
(0.965309 0.220336 -4.20648e-18)
(0.965199 0.214188 1.69698e-18)
(0.965441 0.207963 -2.59096e-18)
(0.966392 0.201537 1.86938e-19)
(0.966237 0.199138 2.28818e-18)
(0.968586 0.191503 2.18317e-19)
(0.964887 0.282227 -4.29958e-22)
(0.964774 0.282097 -1.63668e-21)
(0.96465 0.282033 -1.32345e-21)
(0.964514 0.28198 1.32324e-20)
(0.964369 0.281917 -7.43136e-21)
(0.964214 0.281855 -8.26757e-21)
(0.964048 0.281793 -2.70742e-21)
(0.963871 0.281731 -1.13463e-20)
(0.963683 0.281669 8.07102e-21)
(0.963486 0.281608 1.65934e-21)
(0.963279 0.281546 9.28675e-22)
(0.963064 0.281486 2.64653e-20)
(0.962842 0.281426 -1.84365e-20)
(0.962618 0.281366 -1.84119e-21)
(0.962394 0.281305 1.77173e-20)
(0.962175 0.281242 -9.71219e-21)
(0.961965 0.281175 -2.89406e-21)
(0.961768 0.281105 5.22966e-21)
(0.961593 0.281027 1.30039e-20)
(0.961442 0.280942 4.42618e-21)
(0.961322 0.280843 -9.24903e-22)
(0.961238 0.280733 -1.41846e-20)
(0.961193 0.280604 4.46292e-21)
(0.96119 0.280457 7.2606e-21)
(0.96123 0.280284 -1.50951e-20)
(0.961314 0.28009 2.58987e-21)
(0.961439 0.279862 -1.01041e-20)
(0.961601 0.279615 5.37708e-21)
(0.961796 0.279335 1.04677e-21)
(0.962015 0.279033 -5.06197e-21)
(0.962253 0.278687 3.81607e-21)
(0.962504 0.278308 -9.14464e-22)
(0.962756 0.277927 -6.73882e-22)
(0.963009 0.277542 -7.63754e-21)
(0.963266 0.277122 -7.08484e-22)
(0.963531 0.276643 -8.59366e-21)
(0.963794 0.276161 6.12848e-21)
(0.963922 0.275665 3.30309e-20)
(0.963886 0.27503 1.20346e-20)
(0.963821 0.274254 -4.44364e-20)
(0.96377 0.273321 3.05072e-19)
(0.963749 0.272195 2.48112e-20)
(0.963776 0.270825 5.3994e-19)
(0.963862 0.269154 -1.1617e-18)
(0.964024 0.267101 3.52478e-20)
(0.964251 0.264611 9.64003e-20)
(0.964554 0.26159 -5.55038e-19)
(0.964879 0.258022 -1.80689e-18)
(0.965229 0.253852 -3.88078e-18)
(0.965505 0.249159 3.83439e-18)
(0.965632 0.244041 5.49243e-18)
(0.96572 0.2385 2.69994e-18)
(0.965539 0.232683 -7.14149e-18)
(0.965356 0.226683 3.45033e-18)
(0.965084 0.220561 8.55864e-18)
(0.96498 0.214508 8.2766e-19)
(0.965193 0.208341 2.50236e-18)
(0.966163 0.201973 -1.91711e-19)
(0.965655 0.199613 -4.93579e-18)
(0.968611 0.192517 5.50601e-18)
(0.964903 0.282481 5.07196e-22)
(0.964796 0.282362 -1.50208e-21)
(0.964679 0.282301 5.17742e-21)
(0.964551 0.28225 1.14565e-21)
(0.964416 0.282187 -6.84555e-21)
(0.964271 0.282124 -7.29057e-21)
(0.964117 0.282059 1.72497e-20)
(0.963954 0.281994 -1.8018e-20)
(0.96378 0.281928 -3.61658e-21)
(0.963597 0.281863 1.06564e-20)
(0.963405 0.281797 8.82413e-21)
(0.963204 0.281733 2.43229e-20)
(0.962995 0.281669 -1.53414e-20)
(0.96278 0.281605 -2.19394e-20)
(0.962562 0.281539 4.75473e-21)
(0.962345 0.281474 -1.40551e-20)
(0.962131 0.281405 1.12215e-20)
(0.961924 0.281334 -1.35301e-20)
(0.961731 0.281258 4.308e-21)
(0.961556 0.281179 -1.10971e-21)
(0.961403 0.281089 9.43135e-22)
(0.96128 0.280994 -4.13456e-21)
(0.961189 0.280883 3.56011e-21)
(0.961135 0.28076 9.48004e-21)
(0.961121 0.280616 -5.92876e-22)
(0.961147 0.280453 1.19291e-21)
(0.961215 0.28026 9.65888e-23)
(0.961322 0.280049 1.46686e-21)
(0.961464 0.279804 1.84674e-21)
(0.961637 0.279535 -4.78761e-21)
(0.961836 0.279216 -3.71035e-21)
(0.962055 0.278858 1.69157e-22)
(0.962284 0.278483 1.20465e-20)
(0.962521 0.278092 2.65288e-20)
(0.962768 0.27765 -1.61622e-20)
(0.96303 0.277128 -1.14771e-20)
(0.963294 0.276587 -1.21927e-20)
(0.963428 0.276004 -3.31834e-20)
(0.963392 0.275265 -1.3342e-20)
(0.963323 0.27437 2.95593e-21)
(0.963267 0.273309 -4.8487e-20)
(0.96324 0.272051 5.71041e-20)
(0.963259 0.270551 -1.831e-19)
(0.963333 0.268761 4.07607e-19)
(0.963478 0.266608 -5.84178e-19)
(0.963684 0.264046 4.33086e-19)
(0.963964 0.26099 -1.73491e-18)
(0.964267 0.25743 9.81588e-19)
(0.9646 0.253312 1.89114e-18)
(0.964866 0.248711 -3.39033e-18)
(0.964996 0.243712 -1.84279e-18)
(0.96509 0.238313 -1.15065e-18)
(0.964924 0.232632 -3.06839e-19)
(0.964767 0.22675 -2.25867e-18)
(0.964527 0.22071 3.66967e-19)
(0.964444 0.214702 -1.12665e-18)
(0.964656 0.208547 7.1142e-19)
(0.965681 0.202192 3.45549e-19)
(0.964929 0.199828 6.24442e-20)
(0.968414 0.193191 -4.8448e-18)
(0.964916 0.282691 8.68853e-22)
(0.964814 0.282562 -7.46896e-22)
(0.964701 0.282498 6.17524e-22)
(0.96458 0.282445 3.87658e-21)
(0.964451 0.282382 5.2847e-21)
(0.964315 0.282321 -2.1122e-20)
(0.96417 0.282257 1.48673e-20)
(0.964016 0.282194 2.61775e-21)
(0.963853 0.282129 -1.21107e-21)
(0.963682 0.282063 -5.88291e-21)
(0.963501 0.281996 1.59277e-20)
(0.963312 0.28193 -6.12096e-21)
(0.963115 0.281862 -7.08138e-21)
(0.96291 0.281795 -1.71227e-20)
(0.9627 0.281726 3.22996e-20)
(0.962488 0.281656 -7.90147e-21)
(0.962275 0.281584 -5.68991e-21)
(0.962064 0.281511 -1.09288e-20)
(0.961862 0.281434 1.12921e-20)
(0.961671 0.281355 3.85817e-21)
(0.961497 0.281269 -2.2507e-21)
(0.961344 0.281179 1.14753e-21)
(0.961218 0.281077 -4.95584e-21)
(0.961122 0.280965 1.79932e-21)
(0.961062 0.280837 5.32168e-22)
(0.961038 0.280693 6.0301e-24)
(0.961053 0.280523 1.66066e-20)
(0.961105 0.280336 1.85866e-21)
(0.961195 0.280116 -1.95844e-20)
(0.961318 0.279872 9.00313e-21)
(0.961472 0.279574 1.27798e-20)
(0.961651 0.279231 -1.47672e-20)
(0.961847 0.278865 -2.60394e-20)
(0.962056 0.278471 -5.84422e-20)
(0.96228 0.278013 4.60364e-21)
(0.962524 0.27746 -2.76238e-20)
(0.962777 0.276875 9.11336e-20)
(0.962905 0.276223 -3.92678e-21)
(0.962857 0.275405 -4.03206e-21)
(0.962774 0.274419 3.30284e-20)
(0.962704 0.27326 -3.03223e-20)
(0.96266 0.271902 1.81077e-20)
(0.962658 0.270305 -6.3402e-20)
(0.962706 0.268426 1.59775e-20)
(0.962821 0.266201 4.28049e-19)
(0.96299 0.263591 -5.12702e-19)
(0.963231 0.260518 1.01608e-18)
(0.963493 0.256973 1.18078e-18)
(0.963791 0.252906 7.3192e-20)
(0.964028 0.248386 1.91048e-18)
(0.964144 0.243486 -3.32348e-18)
(0.96423 0.238199 -3.85716e-18)
(0.964069 0.232621 2.74375e-18)
(0.963933 0.226817 1.83755e-18)
(0.963725 0.220824 -5.69386e-20)
(0.963674 0.214824 -5.40098e-19)
(0.963908 0.208648 -3.21808e-19)
(0.965009 0.202274 2.27334e-18)
(0.9641 0.199882 4.30045e-18)
(0.968091 0.193638 -5.70737e-18)
(0.964938 0.282896 -8.38632e-22)
(0.964839 0.282773 9.26226e-22)
(0.964729 0.282711 5.84723e-21)
(0.964611 0.282658 -7.61694e-21)
(0.964486 0.282594 1.29393e-20)
(0.964354 0.282531 -1.86435e-20)
(0.964214 0.282465 5.3081e-21)
(0.964066 0.282398 -7.84965e-23)
(0.96391 0.282331 9.8652e-21)
(0.963746 0.282262 -5.2333e-21)
(0.963573 0.282192 1.15392e-21)
(0.963393 0.282122 1.03337e-21)
(0.963203 0.282051 -1.81256e-20)
(0.963006 0.281979 6.38665e-21)
(0.962804 0.281905 1.08036e-20)
(0.962597 0.28183 -2.93188e-22)
(0.962387 0.281751 -1.25391e-20)
(0.962176 0.281672 5.24584e-21)
(0.96197 0.281589 1.426e-20)
(0.96177 0.281505 -9.74848e-21)
(0.961581 0.281414 -2.54065e-21)
(0.961408 0.281322 1.73049e-21)
(0.961255 0.281221 -2.41227e-21)
(0.961127 0.281112 -3.81179e-21)
(0.961027 0.28099 6.12323e-21)
(0.96096 0.280855 2.30018e-20)
(0.960928 0.280696 -1.46053e-20)
(0.960931 0.280524 -3.06674e-20)
(0.96097 0.280319 -1.72121e-20)
(0.961042 0.280091 2.58008e-20)
(0.961149 0.279808 -1.18384e-20)
(0.961283 0.279477 -2.9334e-20)
(0.961438 0.279116 3.55842e-20)
(0.96161 0.27872 -5.66523e-21)
(0.961802 0.278252 6.80425e-20)
(0.962018 0.277676 6.93543e-21)
(0.962247 0.277059 3.58528e-20)
(0.962359 0.276356 -3.9233e-20)
(0.962293 0.275478 7.75881e-20)
(0.962187 0.274424 -4.42382e-21)
(0.962094 0.273194 -4.50391e-20)
(0.962024 0.271761 -1.83074e-20)
(0.961992 0.270094 4.39079e-20)
(0.962006 0.268153 3.43169e-20)
(0.962078 0.265879 -1.73768e-19)
(0.962201 0.26324 2.36544e-19)
(0.96239 0.260162 -3.97393e-19)
(0.962599 0.25664 -3.83399e-19)
(0.962849 0.252621 1.69161e-19)
(0.963044 0.248171 -1.53315e-18)
(0.963134 0.243353 9.35706e-19)
(0.963198 0.238155 2.18111e-18)
(0.963032 0.232654 -7.85807e-19)
(0.962913 0.226899 -7.54419e-19)
(0.96274 0.220923 2.21065e-19)
(0.962728 0.214903 -3.21317e-19)
(0.963 0.208684 -2.20428e-18)
(0.964195 0.202266 -7.47127e-18)
(0.963193 0.199834 -1.04084e-17)
(0.967713 0.193938 1.33633e-17)
(0.964945 0.283083 -6.3752e-22)
(0.964848 0.282956 9.14878e-22)
(0.96474 0.282895 1.55553e-22)
(0.964625 0.282843 3.07108e-21)
(0.964502 0.28278 -4.68588e-21)
(0.964373 0.282718 -8.70009e-21)
(0.964237 0.282654 3.55137e-21)
(0.964093 0.282588 -3.30546e-21)
(0.963942 0.282519 8.15319e-21)
(0.963783 0.282448 -1.37679e-21)
(0.963617 0.282375 -4.04076e-21)
(0.963442 0.282301 3.76061e-21)
(0.96326 0.282225 4.75396e-21)
(0.96307 0.282147 1.03366e-20)
(0.962873 0.282066 -1.85187e-20)
(0.962672 0.281985 7.98205e-21)
(0.962465 0.2819 3.72818e-22)
(0.962256 0.281814 -4.69832e-21)
(0.962048 0.281725 -7.01569e-22)
(0.961844 0.281635 1.72164e-21)
(0.961645 0.281539 2.18252e-21)
(0.961457 0.281442 -2.47749e-23)
(0.961284 0.281337 8.93958e-21)
(0.96113 0.281225 -1.73605e-20)
(0.960999 0.281103 4.38633e-21)
(0.960896 0.28097 1.73679e-20)
(0.960822 0.280815 -1.30825e-20)
(0.960781 0.280649 -3.03544e-20)
(0.960772 0.280452 2.93829e-20)
(0.960796 0.280233 -1.82266e-20)
(0.960854 0.279958 7.82795e-20)
(0.960941 0.279633 9.41332e-21)
(0.961052 0.279276 -3.2123e-20)
(0.961182 0.278879 2.21277e-20)
(0.961333 0.278401 5.44564e-20)
(0.961514 0.277809 1.19619e-19)
(0.96171 0.277167 -1.45402e-19)
(0.961797 0.276426 8.31978e-20)
(0.961706 0.275506 -3.73951e-20)
(0.961572 0.274404 -1.14353e-19)
(0.961448 0.273122 -1.23223e-19)
(0.961347 0.271638 4.93776e-20)
(0.961278 0.269922 -1.16468e-19)
(0.961248 0.26794 -1.8153e-19)
(0.961272 0.265637 2.18146e-20)
(0.96134 0.262983 2.7023e-20)
(0.961469 0.259911 -1.59997e-19)
(0.961618 0.256415 -3.96163e-20)
(0.96181 0.252443 -7.37338e-20)
(0.961953 0.248055 4.22697e-19)
(0.962008 0.243305 -6.71428e-20)
(0.962044 0.238176 -5.97977e-19)
(0.961869 0.23273 -2.67528e-19)
(0.961763 0.227001 1.12933e-18)
(0.961624 0.221021 1.23531e-18)
(0.961656 0.214961 -1.13733e-18)
(0.961978 0.208682 1.78109e-18)
(0.963276 0.202203 1.19172e-17)
(0.962233 0.199723 1.77671e-17)
(0.967301 0.194129 -7.85315e-18)
(0.964935 0.283277 -8.41958e-22)
(0.964838 0.283158 6.97915e-22)
(0.964731 0.283099 4.99217e-22)
(0.964616 0.283048 -3.34578e-21)
(0.964496 0.282985 3.43085e-21)
(0.964369 0.282921 -1.52797e-21)
(0.964235 0.282853 4.65035e-21)
(0.964095 0.282784 -6.5439e-21)
(0.963947 0.282712 6.31316e-22)
(0.963793 0.282638 6.38504e-22)