/*--------------------------------*- C++ -*----------------------------------*\
  =========                 |
  \\      /  F ield         | OpenFOAM: The Open Source CFD Toolbox
   \\    /   O peration     | Website:  https://openfoam.org
    \\  /    A nd           | Version:  6.0
     \\/     M anipulation  |
\*---------------------------------------------------------------------------*/
FoamFile
{
    version     2.0;
    format      ascii;
    class       surfaceScalarField;
    location    "0.42";
    object      phi;
}
// * * * * * * * * * * * * * * * * * * * * * * * * * * * * * * * * * * * * * //

dimensions      [0 3 -1 0 0 0 0];

internalField   nonuniform List<scalar> 
26699
(
2.0051e-05
0.005201
3.2714e-10
4.0126e-05
0.0051116
5.9638e-05
0.0049351
7.8188e-05
0.0046741
9.5413e-05
0.0043332
0.00011103
0.0039182
0.00012471
0.0034362
0.00013627
0.0028953
0.00014544
0.002305
0.00015195
0.0016753
0.00015697
0.0010157
0.00046369
3.5485e-05
2.0051e-05
0.0051809
1.0117e-09
4.0128e-05
0.0050916
5.964e-05
0.0049156
7.8193e-05
0.0046556
9.5414e-05
0.004316
0.00011103
0.0039026
0.0001247
0.0034225
0.00013626
0.0028838
0.0001454
0.0022959
0.0001515
0.0016692
0.00015835
0.0010089
0.0005543
6.7742e-05
2.0052e-05
0.0051609
1.7348e-09
4.013e-05
0.0050715
5.9643e-05
0.004896
7.8196e-05
0.004637
9.5418e-05
0.0042988
0.00011103
0.003887
0.0001247
0.0034088
0.00013624
0.0028722
0.00014538
0.0022867
0.00015108
0.0016635
0.00015927
0.0010007
0.00061967
9.3902e-05
2.0053e-05
0.0051408
2.4632e-09
4.0132e-05
0.0050514
5.9646e-05
0.0048765
7.8199e-05
0.0046185
9.5422e-05
0.0042816
0.00011103
0.0038714
0.0001247
0.0033952
0.00013623
0.0028607
0.00014538
0.0022776
0.00015074
0.0016582
0.00015965
0.00099178
0.00066489
0.00011443
2.0053e-05
0.0051208
3.1925e-09
4.0133e-05
0.0050313
5.9649e-05
0.004857
7.8202e-05
0.0045999
9.5427e-05
0.0042643
0.00011104
0.0038558
0.00012471
0.0033815
0.00013621
0.0028492
0.00014539
0.0022684
0.00015048
0.0016531
0.00015956
0.0009827
0.00069429
0.00013016
2.0054e-05
0.0051007
3.9228e-09
4.0135e-05
0.0050112
5.9652e-05
0.0048375
7.8206e-05
0.0045813
9.5432e-05
0.0042471
0.00011104
0.0038401
0.00012471
0.0033678
0.0001362
0.0028377
0.0001454
0.0022592
0.0001503
0.0016482
0.00015912
0.00097388
0.00071151
0.0001419
2.0054e-05
0.0050807
4.6539e-09
4.0137e-05
0.0049912
5.9655e-05
0.004818
7.8209e-05
0.0045628
9.5438e-05
0.0042299
0.00011104
0.0038245
0.00012472
0.0033541
0.00013618
0.0028262
0.00014542
0.00225
0.00015021
0.0016434
0.00015846
0.00096564
0.00071957
0.0001504
2.0055e-05
0.0050606
5.3858e-09
4.0138e-05
0.0049711
5.9658e-05
0.0047985
7.8213e-05
0.0045442
9.5444e-05
0.0042127
0.00011104
0.0038089
0.00012473
0.0033405
0.00013618
0.0028148
0.00014545
0.0022407
0.00015019
0.0016387
0.0001577
0.00095813
0.00072094
0.00015634
2.0056e-05
0.0050405
6.1182e-09
4.014e-05
0.004951
5.9662e-05
0.0047789
7.8217e-05
0.0045257
9.545e-05
0.0041954
0.00011105
0.0037933
0.00012474
0.0033268
0.00013617
0.0028034
0.00014547
0.0022314
0.00015023
0.0016339
0.00015694
0.00095143
0.00071756
0.00016032
2.0056e-05
0.0050205
6.8509e-09
4.0142e-05
0.0049309
5.9666e-05
0.0047594
7.8222e-05
0.0045071
9.5457e-05
0.0041782
0.00011105
0.0037777
0.00012475
0.0033131
0.00013617
0.0027919
0.0001455
0.0022221
0.00015031
0.0016291
0.00015624
0.00094549
0.00071093
0.00016286
2.0057e-05
0.0050004
7.5834e-09
4.0144e-05
0.0049108
5.967e-05
0.0047399
7.8227e-05
0.0044886
9.5465e-05
0.0041609
0.00011106
0.0037622
0.00012477
0.0032994
0.00013618
0.0027805
0.00014552
0.0022127
0.00015041
0.0016242
0.00015564
0.00094027
0.00070219
0.00016438
2.0058e-05
0.0049803
8.3153e-09
4.0147e-05
0.0048907
5.9674e-05
0.0047204
7.8232e-05
0.00447
9.5475e-05
0.0041437
0.00011107
0.0037466
0.00012479
0.0032856
0.00013618
0.0027691
0.00014555
0.0022033
0.00015053
0.0016192
0.00015517
0.00093563
0.00069215
0.00016521
2.0059e-05
0.0049603
9.0459e-09
4.0149e-05
0.0048706
5.9679e-05
0.0047008
7.8238e-05
0.0044514
9.5485e-05
0.0041265
0.00011108
0.003731
0.00012481
0.0032719
0.0001362
0.0027577
0.00014557
0.002194
0.00015066
0.0016141
0.00015481
0.00093148
0.00068139
0.00016557
2.006e-05
0.0049402
9.7746e-09
4.0152e-05
0.0048505
5.9684e-05
0.0046813
7.8245e-05
0.0044329
9.5496e-05
0.0041092
0.0001111
0.0037154
0.00012483
0.0032582
0.00013621
0.0027464
0.00014559
0.0021846
0.00015078
0.0016089
0.00015456
0.00092769
0.00067029
0.00016566
2.0061e-05
0.0049201
1.05e-08
4.0155e-05
0.0048305
5.9689e-05
0.0046618
7.8253e-05
0.0044143
9.5509e-05
0.004092
0.00011111
0.0036998
0.00012485
0.0032444
0.00013623
0.002735
0.00014561
0.0021752
0.0001509
0.0016037
0.00015441
0.00092418
0.00065911
0.00016558
2.0062e-05
0.0049001
1.1222e-08
4.0158e-05
0.0048104
5.9695e-05
0.0046422
7.8262e-05
0.0043958
9.5522e-05
0.0040747
0.00011113
0.0036842
0.00012488
0.0032307
0.00013625
0.0027236
0.00014562
0.0021658
0.00015101
0.0015983
0.00015433
0.00092086
0.00064802
0.00016542
2.0064e-05
0.00488
1.1938e-08
4.0162e-05
0.0047903
5.9702e-05
0.0046227
7.8272e-05
0.0043772
9.5537e-05
0.0040574
0.00011114
0.0036685
0.0001249
0.0032169
0.00013627
0.0027122
0.00014564
0.0021565
0.00015111
0.0015928
0.0001543
0.00091767
0.00063711
0.00016521
2.0065e-05
0.0048599
1.2647e-08
4.0166e-05
0.0047702
5.971e-05
0.0046031
7.8282e-05
0.0043586
9.5553e-05
0.0040402
0.00011116
0.0036529
0.00012493
0.0032032
0.00013629
0.0027009
0.00014565
0.0021471
0.0001512
0.0015873
0.00015432
0.00091455
0.00062643
0.000165
2.0067e-05
0.0048398
1.3347e-08
4.017e-05
0.0047501
5.9718e-05
0.0045836
7.8294e-05
0.00434
9.557e-05
0.0040229
0.00011118
0.0036373
0.00012495
0.0031894
0.00013631
0.0026895
0.00014566
0.0021378
0.00015129
0.0015816
0.00015436
0.00091148
0.00061601
0.00016479
2.0069e-05
0.0048197
1.4035e-08
4.0175e-05
0.00473
5.9726e-05
0.004564
7.8306e-05
0.0043215
9.5587e-05
0.0040056
0.0001112
0.0036217
0.00012497
0.0031756
0.00013633
0.0026782
0.00014567
0.0021284
0.00015137
0.0015759
0.00015442
0.00090843
0.00060585
0.00016458
2.0071e-05
0.0047997
1.4708e-08
4.0181e-05
0.0047098
5.9735e-05
0.0045445
7.8319e-05
0.0043029
9.5605e-05
0.0039883
0.00011122
0.0036061
0.00012499
0.0031619
0.00013635
0.0026668
0.00014568
0.0021191
0.00015144
0.0015702
0.0001545
0.00090537
0.00059595
0.00016439
2.0074e-05
0.0047796
1.5365e-08
4.0187e-05
0.0046897
5.9745e-05
0.0045249
7.8333e-05
0.0042843
9.5622e-05
0.003971
0.00011124
0.0035905
0.00012501
0.0031481
0.00013637
0.0026554
0.00014569
0.0021098
0.00015151
0.0015643
0.00015457
0.00090231
0.00058631
0.00016421
2.0076e-05
0.0047595
1.6002e-08
4.0193e-05
0.0046696
5.9755e-05
0.0045054
7.8346e-05
0.0042657
9.5639e-05
0.0039537
0.00011126
0.0035749
0.00012503
0.0031343
0.00013639
0.0026441
0.0001457
0.0021005
0.00015158
0.0015585
0.00015465
0.00089924
0.00057692
0.00016404
2.0079e-05
0.0047394
1.6616e-08
4.0199e-05
0.0046495
5.9765e-05
0.0044858
7.836e-05
0.0042471
9.5656e-05
0.0039364
0.00011128
0.0035592
0.00012505
0.0031206
0.0001364
0.0026327
0.0001457
0.0020912
0.00015164
0.0015525
0.00015474
0.00089614
0.00056777
0.00016388
2.0082e-05
0.0047193
1.7205e-08
4.0206e-05
0.0046294
5.9776e-05
0.0044662
7.8374e-05
0.0042285
9.5672e-05
0.0039191
0.00011129
0.0035436
0.00012506
0.0031068
0.00013642
0.0026214
0.00014571
0.0020819
0.0001517
0.0015465
0.00015482
0.00089303
0.00055886
0.00016373
2.0085e-05
0.0046992
1.7765e-08
4.0212e-05
0.0046092
5.9786e-05
0.0044467
7.8387e-05
0.0042099
9.5687e-05
0.0039018
0.00011131
0.003528
0.00012507
0.003093
0.00013643
0.00261
0.00014572
0.0020726
0.00015176
0.0015405
0.00015489
0.00088989
0.00055016
0.00016359
2.0088e-05
0.0046791
1.8296e-08
4.0219e-05
0.0045891
5.9796e-05
0.0044271
7.8399e-05
0.0041913
9.5701e-05
0.0038845
0.00011132
0.0035124
0.00012509
0.0030793
0.00013644
0.0025986
0.00014572
0.0020633
0.00015181
0.0015344
0.00015497
0.00088674
0.00054168
0.00016345
2.0091e-05
0.004659
1.8795e-08
4.0225e-05
0.004569
5.9805e-05
0.0044075
7.8411e-05
0.0041727
9.5714e-05
0.0038672
0.00011133
0.0034968
0.0001251
0.0030655
0.00013646
0.0025873
0.00014573
0.002054
0.00015187
0.0015283
0.00015505
0.00088356
0.0005334
0.00016332
2.0094e-05
0.0046389
1.9262e-08
4.0231e-05
0.0045488
5.9814e-05
0.0043879
7.8422e-05
0.0041541
9.5726e-05
0.0038499
0.00011134
0.0034811
0.0001251
0.0030517
0.00013647
0.0025759
0.00014573
0.0020448
0.00015192
0.0015221
0.00015512
0.00088036
0.00052532
0.0001632
2.0097e-05
0.0046187
1.9696e-08
4.0237e-05
0.0045287
5.9823e-05
0.0043683
7.8432e-05
0.0041355
9.5736e-05
0.0038326
0.00011135
0.0034655
0.00012511
0.003038
0.00013648
0.0025646
0.00014574
0.0020355
0.00015197
0.0015158
0.00015519
0.00087714
0.00051743
0.00016308
2.01e-05
0.0045986
2.0097e-08
4.0243e-05
0.0045086
5.9831e-05
0.0043487
7.8441e-05
0.0041169
9.5746e-05
0.0038153
0.00011136
0.0034499
0.00012512
0.0030242
0.00013649
0.0025532
0.00014574
0.0020263
0.00015202
0.0015096
0.00015526
0.0008739
0.00050973
0.00016296
2.0102e-05
0.0045785
2.0466e-08
4.0248e-05
0.0044884
5.9838e-05
0.0043292
7.845e-05
0.0040983
9.5754e-05
0.003798
0.00011137
0.0034343
0.00012512
0.0030105
0.0001365
0.0025418
0.00014575
0.002017
0.00015207
0.0015032
0.00015533
0.00087065
0.0005022
0.00016285
2.0105e-05
0.0045584
2.0804e-08
4.0253e-05
0.0044683
5.9845e-05
0.0043096
7.8457e-05
0.0040796
9.5761e-05
0.0037807
0.00011138
0.0034187
0.00012513
0.0029967
0.00013651
0.0025304
0.00014575
0.0020078
0.00015212
0.0014969
0.00015539
0.00086737
0.00049485
0.00016274
2.0107e-05
0.0045382
2.1113e-08
4.0257e-05
0.0044481
5.9851e-05
0.00429
7.8464e-05
0.004061
9.5767e-05
0.0037634
0.00011138
0.0034031
0.00012513
0.002983
0.00013652
0.002519
0.00014576
0.0019985
0.00015216
0.0014905
0.00015546
0.00086408
0.00048767
0.00016264
2.0109e-05
0.0045181
2.1395e-08
4.0261e-05
0.004428
5.9856e-05
0.0042704
7.8469e-05
0.0040424
9.5773e-05
0.0037461
0.00011139
0.0033875
0.00012514
0.0029692
0.00013653
0.0025077
0.00014577
0.0019893
0.00015221
0.001484
0.00015552
0.00086077
0.00048065
0.00016254
2.0111e-05
0.004498
2.1652e-08
4.0265e-05
0.0044078
5.986e-05
0.0042508
7.8474e-05
0.0040238
9.5778e-05
0.0037288
0.00011139
0.0033718
0.00012514
0.0029554
0.00013654
0.0024963
0.00014577
0.0019801
0.00015225
0.0014776
0.00015558
0.00085744
0.0004738
0.00016244
2.0112e-05
0.0044778
2.1887e-08
4.0268e-05
0.0043877
5.9865e-05
0.0042312
7.8479e-05
0.0040052
9.5782e-05
0.0037115
0.0001114
0.0033562
0.00012515
0.0029417
0.00013655
0.0024849
0.00014578
0.0019708
0.00015229
0.001471
0.00015564
0.00085409
0.00046709
0.00016234
2.0114e-05
0.0044577
2.2102e-08
4.0271e-05
0.0043675
5.9868e-05
0.0042116
7.8483e-05
0.0039866
9.5786e-05
0.0036942
0.0001114
0.0033406
0.00012515
0.0029279
0.00013656
0.0024735
0.00014579
0.0019616
0.00015233
0.0014645
0.0001557
0.00085072
0.00046054
0.00016225
2.0115e-05
0.0044376
2.23e-08
4.0273e-05
0.0043473
5.9871e-05
0.004192
7.8486e-05
0.003968
9.5789e-05
0.0036769
0.0001114
0.003325
0.00012516
0.0029142
0.00013657
0.002462
0.00014579
0.0019524
0.00015237
0.0014579
0.00015576
0.00084734
0.00045413
0.00016216
2.0116e-05
0.0044174
2.2483e-08
4.0275e-05
0.0043272
5.9874e-05
0.0041724
7.8489e-05
0.0039493
9.5793e-05
0.0036596
0.00011141
0.0033094
0.00012516
0.0029004
0.00013658
0.0024506
0.0001458
0.0019432
0.00015241
0.0014513
0.00015581
0.00084394
0.00044786
0.00016208
2.0117e-05
0.0043973
2.2653e-08
4.0277e-05
0.004307
5.9877e-05
0.0041528
7.8492e-05
0.0039307
9.5796e-05
0.0036423
0.00011141
0.0032938
0.00012516
0.0028867
0.00013659
0.0024392
0.00014581
0.0019339
0.00015245
0.0014447
0.00015587
0.00084053
0.00044174
0.00016199
2.0118e-05
0.0043772
2.2812e-08
4.0279e-05
0.0042869
5.9879e-05
0.0041332
7.8495e-05
0.0039121
9.5799e-05
0.003625
0.00011142
0.0032781
0.00012517
0.0028729
0.0001366
0.0024278
0.00014582
0.0019247
0.00015249
0.001438
0.00015592
0.0008371
0.00043574
0.00016191
2.0119e-05
0.004357
2.2963e-08
4.028e-05
0.0042667
5.9881e-05
0.0041136
7.8497e-05
0.0038935
9.5801e-05
0.0036077
0.00011142
0.0032625
0.00012517
0.0028592
0.00013661
0.0024163
0.00014582
0.0019155
0.00015253
0.0014313
0.00015597
0.00083365
0.00042988
0.00016184
2.0119e-05
0.0043369
2.3107e-08
4.0282e-05
0.0042465
5.9883e-05
0.004094
7.85e-05
0.0038749
9.5804e-05
0.0035904
0.00011142
0.0032469
0.00012518
0.0028454
0.00013662
0.0024049
0.00014583
0.0019063
0.00015256
0.0014245
0.00015602
0.00083019
0.00042414
0.00016176
2.012e-05
0.0043167
2.3246e-08
4.0283e-05
0.0042264
5.9885e-05
0.0040744
7.8502e-05
0.0038563
9.5807e-05
0.0035731
0.00011143
0.0032313
0.00012518
0.0028317
0.00013663
0.0023934
0.00014584
0.0018971
0.0001526
0.0014178
0.00015608
0.00082671
0.00041853
0.00016169
2.012e-05
0.0042966
2.3381e-08
4.0284e-05
0.0042062
5.9886e-05
0.0040548
7.8504e-05
0.0038376
9.5809e-05
0.0035558
0.00011143
0.0032157
0.00012518
0.0028179
0.00013664
0.002382
0.00014585
0.0018879
0.00015263
0.001411
0.00015613
0.00082322
0.00041304
0.00016162
2.0121e-05
0.0042764
2.3513e-08
4.0285e-05
0.004186
5.9888e-05
0.0040352
7.8506e-05
0.003819
9.5812e-05
0.0035385
0.00011144
0.0032
0.00012519
0.0028042
0.00013665
0.0023705
0.00014586
0.0018787
0.00015266
0.0014042
0.00015617
0.00081971
0.00040766
0.00016155
2.0121e-05
0.0042563
2.3643e-08
4.0286e-05
0.0041659
5.9889e-05
0.0040156
7.8508e-05
0.0038004
9.5815e-05
0.0035212
0.00011144
0.0031844
0.00012519
0.0027904
0.00013666
0.002359
0.00014587
0.0018695
0.0001527
0.0013974
0.00015622
0.00081618
0.0004024
0.00016148
2.0122e-05
0.0042361
2.3771e-08
4.0287e-05
0.0041457
5.9891e-05
0.003996
7.851e-05
0.0037818
9.5817e-05
0.0035038
0.00011144
0.0031688
0.0001252
0.0027767
0.00013668
0.0023476
0.00014588
0.0018602
0.00015273
0.0013905
0.00015627
0.00081264
0.00039725
0.00016142
2.0122e-05
0.004216
2.3899e-08
4.0288e-05
0.0041255
5.9892e-05
0.0039764
7.8512e-05
0.0037632
9.582e-05
0.0034865
0.00011145
0.0031532
0.0001252
0.0027629
0.00013669
0.0023361
0.00014589
0.001851
0.00015276
0.0013837
0.00015632
0.00080908
0.0003922
0.00016136
2.0123e-05
0.0041959
2.4027e-08
4.0289e-05
0.0041054
5.9894e-05
0.0039568
7.8515e-05
0.0037445
9.5823e-05
0.0034692
0.00011145
0.0031375
0.00012521
0.0027491
0.0001367
0.0023246
0.0001459
0.0018418
0.00015279
0.0013768
0.00015636
0.00080551
0.00038726
0.0001613
2.0123e-05
0.0041757
2.4156e-08
4.029e-05
0.0040852
5.9895e-05
0.0039372
7.8517e-05
0.0037259
9.5825e-05
0.0034519
0.00011146
0.0031219
0.00012521
0.0027354
0.00013671
0.0023131
0.00014591
0.0018326
0.00015282
0.0013699
0.00015641
0.00080193
0.00038242
0.00016124
2.0123e-05
0.0041556
2.4285e-08
4.0291e-05
0.004065
5.9897e-05
0.0039175
7.8519e-05
0.0037073
9.5828e-05
0.0034346
0.00011146
0.0031063
0.00012522
0.0027216
0.00013672
0.0023016
0.00014592
0.0018234
0.00015285
0.0013629
0.00015645
0.00079832
0.00037769
0.00016119
2.0124e-05
0.0041354
2.4415e-08
4.0292e-05
0.0040449
5.9898e-05
0.0038979
7.8521e-05
0.0036887
9.5831e-05
0.0034173
0.00011147
0.0030906
0.00012522
0.0027079
0.00013673
0.0022901
0.00014593
0.0018142
0.00015288
0.001356
0.00015649
0.00079471
0.00037304
0.00016113
2.0124e-05
0.0041153
2.4546e-08
4.0292e-05
0.0040247
5.9899e-05
0.0038783
7.8523e-05
0.0036701
9.5834e-05
0.0034
0.00011147
0.003075
0.00012523
0.0026941
0.00013674
0.0022786
0.00014594
0.001805
0.0001529
0.001349
0.00015653
0.00079108
0.00036849
0.00016108
2.0125e-05
0.0040951
2.4679e-08
4.0293e-05
0.0040045
5.9901e-05
0.0038587
7.8526e-05
0.0036514
9.5837e-05
0.0033827
0.00011147
0.0030594
0.00012523
0.0026804
0.00013676
0.002267
0.00014596
0.0017958
0.00015293
0.0013421
0.00015658
0.00078743
0.00036404
0.00016103
2.0125e-05
0.004075
2.4814e-08
4.0294e-05
0.0039844
5.9902e-05
0.0038391
7.8528e-05
0.0036328
9.584e-05
0.0033654
0.00011148
0.0030437
0.00012524
0.0026666
0.00013677
0.0022555
0.00014597
0.0017866
0.00015296
0.0013351
0.00015662
0.00078378
0.00035967
0.00016099
2.0125e-05
0.0040548
2.495e-08
4.0295e-05
0.0039642
5.9904e-05
0.0038195
7.853e-05
0.0036142
9.5843e-05
0.0033481
0.00011148
0.0030281
0.00012524
0.0026528
0.00013678
0.002244
0.00014598
0.0017774
0.00015298
0.0013281
0.00015666
0.0007801
0.00035538
0.00016094
2.0126e-05
0.0040347
2.5088e-08
4.0296e-05
0.003944
5.9906e-05
0.0037999
7.8533e-05
0.0035955
9.5846e-05
0.0033307
0.00011149
0.0030124
0.00012525
0.0026391
0.00013679
0.0022324
0.00014599
0.0017683
0.00015301
0.001321
0.0001567
0.00077642
0.00035119
0.0001609
2.0126e-05
0.0040145
2.5227e-08
4.0297e-05
0.0039239
5.9907e-05
0.0037803
7.8535e-05
0.0035769
9.585e-05
0.0033134
0.00011149
0.0029968
0.00012526
0.0026253
0.0001368
0.0022209
0.000146
0.0017591
0.00015303
0.001314
0.00015673
0.00077272
0.00034707
0.00016085
2.0127e-05
0.0039944
2.5369e-08
4.0298e-05
0.0039037
5.9909e-05
0.0037607
7.8538e-05
0.0035583
9.5853e-05
0.0032961
0.0001115
0.0029811
0.00012526
0.0026116
0.00013682
0.0022093
0.00014601
0.0017499
0.00015306
0.001307
0.00015677
0.000769
0.00034303
0.00016081
2.0127e-05
0.0039742
2.5512e-08
4.0299e-05
0.0038835
5.9911e-05
0.0037411
7.854e-05
0.0035397
9.5856e-05
0.0032788
0.00011151
0.0029655
0.00012527
0.0025978
0.00013683
0.0021978
0.00014603
0.0017407
0.00015308
0.0012999
0.00015681
0.00076528
0.00033907
0.00016077
2.0127e-05
0.0039541
2.5658e-08
4.03e-05
0.0038633
5.9912e-05
0.0037215
7.8543e-05
0.003521
9.586e-05
0.0032615
0.00011151
0.0029498
0.00012527
0.002584
0.00013684
0.0021862
0.00014604
0.0017315
0.00015311
0.0012928
0.00015685
0.00076154
0.00033518
0.00016073
2.0128e-05
0.0039339
2.5806e-08
4.0301e-05
0.0038432
5.9914e-05
0.0037018
7.8545e-05
0.0035024
9.5863e-05
0.0032442
0.00011152
0.0029342
0.00012528
0.0025703
0.00013685
0.0021746
0.00014605
0.0017223
0.00015313
0.0012858
0.00015688
0.00075779
0.00033136
0.0001607
2.0128e-05
0.0039137
2.5956e-08
4.0302e-05
0.003823
5.9916e-05
0.0036822
7.8548e-05
0.0034838
9.5867e-05
0.0032268
0.00011152
0.0029185
0.00012529
0.0025565
0.00013687
0.002163
0.00014607
0.0017131
0.00015315
0.0012787
0.00015692
0.00075402
0.00032762
0.00016066
2.0129e-05
0.0038936
2.6108e-08
4.0304e-05
0.0038028
5.9918e-05
0.0036626
7.8551e-05
0.0034651
9.587e-05
0.0032095
0.00011153
0.0029029
0.00012529
0.0025427
0.00013688
0.0021515
0.00014608
0.0017039
0.00015317
0.0012716
0.00015695
0.00075024
0.00032394
0.00016063
2.0129e-05
0.0038734
2.6262e-08
4.0305e-05
0.0037826
5.9919e-05
0.003643
7.8554e-05
0.0034465
9.5874e-05
0.0031922
0.00011153
0.0028872
0.0001253
0.002529
0.00013689
0.0021399
0.00014609
0.0016947
0.0001532
0.0012645
0.00015699
0.00074645
0.00032034
0.0001606
2.013e-05
0.0038533
2.6419e-08
4.0306e-05
0.0037625
5.9921e-05
0.0036234
7.8557e-05
0.0034279
9.5878e-05
0.0031749
0.00011154
0.0028716
0.00012531
0.0025152
0.0001369
0.0021283
0.00014611
0.0016855
0.00015322
0.0012574
0.00015702
0.00074265
0.00031679
0.00016056
2.013e-05
0.0038331
2.6578e-08
4.0307e-05
0.0037423
5.9923e-05
0.0036038
7.8559e-05
0.0034092
9.5881e-05
0.0031576
0.00011154
0.0028559
0.00012531
0.0025014
0.00013692
0.0021167
0.00014612
0.0016763
0.00015324
0.0012502
0.00015705
0.00073883
0.00031331
0.00016054
2.0131e-05
0.003813
2.6739e-08
4.0308e-05
0.0037221
5.9925e-05
0.0035842
7.8562e-05
0.0033906
9.5885e-05
0.0031402
0.00011155
0.0028402
0.00012532
0.0024877
0.00013693
0.0021051
0.00014613
0.0016671
0.00015326
0.0012431
0.00015709
0.00073501
0.00030989
0.00016051
2.0131e-05
0.0037928
2.6903e-08
4.0309e-05
0.0037019
5.9927e-05
0.0035645
7.8565e-05
0.003372
9.5889e-05
0.0031229
0.00011156
0.0028246
0.00012533
0.0024739
0.00013694
0.0020934
0.00014615
0.0016579
0.00015328
0.001236
0.00015712
0.00073117
0.00030653
0.00016048
2.0132e-05
0.0037726
2.7069e-08
4.0311e-05
0.0036818
5.9929e-05
0.0035449
7.8568e-05
0.0033533
9.5893e-05
0.0031056
0.00011156
0.0028089
0.00012533
0.0024601
0.00013696
0.0020818
0.00014616
0.0016486
0.0001533
0.0012288
0.00015715
0.00072732
0.00030322
0.00016045
2.0132e-05
0.0037525
2.7238e-08
4.0312e-05
0.0036616
5.9931e-05
0.0035253
7.8572e-05
0.0033347
9.5897e-05
0.0030883
0.00011157
0.0027932
0.00012534
0.0024463
0.00013697
0.0020702
0.00014617
0.0016394
0.00015332
0.0012217
0.00015718
0.00072346
0.00029998
0.00016043
2.0133e-05
0.0037323
2.7409e-08
4.0313e-05
0.0036414
5.9933e-05
0.0035057
7.8575e-05
0.003316
9.5901e-05
0.0030709
0.00011158
0.0027776
0.00012535
0.0024326
0.00013698
0.0020586
0.00014619
0.0016302
0.00015334
0.0012146
0.00015721
0.00071959
0.00029678
0.0001604
2.0133e-05
0.0037122
2.7583e-08
4.0314e-05
0.0036212
5.9935e-05
0.0034861
7.8578e-05
0.0032974
9.5906e-05
0.0030536
0.00011158
0.0027619
0.00012536
0.0024188
0.00013699
0.0020469
0.0001462
0.001621
0.00015336
0.0012074
0.00015724
0.0007157
0.00029364
0.00016038
2.0134e-05
0.003692
2.7759e-08
4.0316e-05
0.003601
5.9937e-05
0.0034664
7.8581e-05
0.0032787
9.591e-05
0.0030363
0.00011159
0.0027462
0.00012536
0.002405
0.00013701
0.0020353
0.00014622
0.0016118
0.00015338
0.0012002
0.00015727
0.00071181
0.00029055
0.00016036
2.0134e-05
0.0036718
2.7939e-08
4.0317e-05
0.0035808
5.994e-05
0.0034468
7.8585e-05
0.0032601
9.5914e-05
0.003019
0.0001116
0.0027305
0.00012537
0.0023912
0.00013702
0.0020236
0.00014623
0.0016026
0.0001534
0.0011931
0.0001573
0.0007079
0.00028751
0.00016034
2.0135e-05
0.0036517
2.8121e-08
4.0319e-05
0.0035607
5.9942e-05
0.0034272
7.8588e-05
0.0032415
9.5919e-05
0.0030016
0.0001116
0.0027148
0.00012538
0.0023775
0.00013703
0.002012
0.00014625
0.0015934
0.00015341
0.0011859
0.00015733
0.00070399
0.00028452
0.00016032
2.0135e-05
0.0036315
2.8306e-08
4.032e-05
0.0035405
5.9944e-05
0.0034076
7.8592e-05
0.0032228
9.5923e-05
0.0029843
0.00011161
0.0026991
0.00012539
0.0023637
0.00013705
0.0020003
0.00014626
0.0015842
0.00015343
0.0011787
0.00015736
0.00070006
0.00028158
0.0001603
2.0136e-05
0.0036114
2.8493e-08
4.0321e-05
0.0035203
5.9946e-05
0.0033879
7.8595e-05
0.0032042
9.5928e-05
0.002967
0.00011162
0.0026835
0.0001254
0.0023499
0.00013706
0.0019887
0.00014628
0.001575
0.00015345
0.0011716
0.00015739
0.00069613
0.00027868
0.00016028
2.0137e-05
0.0035912
2.8684e-08
4.0323e-05
0.0035001
5.9949e-05
0.0033683
7.8599e-05
0.0031855
9.5933e-05
0.0029496
0.00011162
0.0026678
0.0001254
0.0023361
0.00013707
0.001977
0.00014629
0.0015657
0.00015347
0.0011644
0.00015741
0.00069218
0.00027582
0.00016027
2.0137e-05
0.003571
2.8878e-08
4.0324e-05
0.0034799
5.9951e-05
0.0033487
7.8602e-05
0.0031669
9.5938e-05
0.0029323
0.00011163
0.0026521
0.00012541
0.0023223
0.00013709
0.0019653
0.00014631
0.0015565
0.00015349
0.0011572
0.00015744
0.00068823
0.00027301
0.00016025
2.0138e-05
0.0035509
2.9074e-08
4.0326e-05
0.0034597
5.9954e-05
0.0033291
7.8606e-05
0.0031482
9.5942e-05
0.0029149
0.00011164
0.0026364
0.00012542
0.0023086
0.0001371
0.0019536
0.00014632
0.0015473
0.0001535
0.00115
0.00015747
0.00068426
0.00027024
0.00016024
2.0138e-05
0.0035307
2.9274e-08
4.0327e-05
0.0034395
5.9956e-05
0.0033094
7.861e-05
0.0031295
9.5947e-05
0.0028976
0.00011165
0.0026207
0.00012543
0.0022948
0.00013711
0.001942
0.00014634
0.0015381
0.00015352
0.0011429
0.00015749
0.00068029
0.0002675
0.00016022
2.0139e-05
0.0035105
2.9477e-08
4.0329e-05
0.0034194
5.9959e-05
0.0032898
7.8614e-05
0.0031109
9.5952e-05
0.0028803
0.00011165
0.002605
0.00012544
0.002281
0.00013713
0.0019303
0.00014636
0.0015288
0.00015354
0.0011357
0.00015752
0.00067631
0.00026481
0.00016021
2.014e-05
0.0034903
2.9683e-08
4.033e-05
0.0033992
5.9961e-05
0.0032702
7.8618e-05
0.0030922
9.5957e-05
0.0028629
0.00011166
0.0025893
0.00012545
0.0022672
0.00013714
0.0019186
0.00014637
0.0015196
0.00015355
0.0011285
0.00015755
0.00067232
0.00026216
0.0001602
2.014e-05
0.0034702
2.9893e-08
4.0332e-05
0.003379
5.9964e-05
0.0032505
7.8622e-05
0.0030736
9.5963e-05
0.0028456
0.00011167
0.0025736
0.00012546
0.0022534
0.00013716
0.0019069
0.00014639
0.0015104
0.00015357
0.0011213
0.00015757
0.00066832
0.00025954
0.00016019
2.0141e-05
0.00345
3.0106e-08
4.0334e-05
0.0033588
5.9966e-05
0.0032309
7.8626e-05
0.0030549
9.5968e-05
0.0028282
0.00011168
0.0025579
0.00012547
0.0022396
0.00013717
0.0018952
0.0001464
0.0015011
0.00015359
0.0011141
0.0001576
0.00066431
0.00025696
0.00016018
2.0142e-05
0.0034298
3.0322e-08
4.0335e-05
0.0033386
5.9969e-05
0.0032113
7.863e-05
0.0030363
9.5973e-05
0.0028109
0.00011168
0.0025422
0.00012548
0.0022258
0.00013718
0.0018835
0.00014642
0.0014919
0.0001536
0.0011069
0.00015762
0.00066029
0.00025441
0.00016017
2.0143e-05
0.0034097
3.0542e-08
4.0337e-05
0.0033184
5.9972e-05
0.0031916
7.8634e-05
0.0030176
9.5979e-05
0.0027936
0.00011169
0.0025264
0.00012548
0.002212
0.0001372
0.0018718
0.00014644
0.0014827
0.00015362
0.0010998
0.00015765
0.00065626
0.00025189
0.00016016
2.0143e-05
0.0033895
3.0766e-08
4.0339e-05
0.0032982
5.9975e-05
0.003172
7.8638e-05
0.0029989
9.5984e-05
0.0027762
0.0001117
0.0025107
0.00012549
0.0021982
0.00013721
0.00186
0.00014645
0.0014734
0.00015364
0.0010926
0.00015767
0.00065223
0.00024941
0.00016015
2.0144e-05
0.0033693
3.0993e-08
4.0341e-05
0.003278
5.9978e-05
0.0031524
7.8643e-05
0.0029803
9.599e-05
0.0027589
0.00011171
0.002495
0.0001255
0.0021845
0.00013722
0.0018483
0.00014647
0.0014642
0.00015365
0.0010854
0.00015769
0.00064819
0.00024696
0.00016014
2.0145e-05
0.0033491
3.1224e-08
4.0342e-05
0.0032578
5.998e-05
0.0031327
7.8647e-05
0.0029616
9.5996e-05
0.0027415
0.00011172
0.0024793
0.00012551
0.0021707
0.00013724
0.0018366
0.00014649
0.0014549
0.00015367
0.0010782
0.00015772
0.00064414
0.00024454
0.00016014
2.0145e-05
0.003329
3.1458e-08
4.0344e-05
0.0032376
5.9983e-05
0.0031131
7.8652e-05
0.0029429
9.6002e-05
0.0027242
0.00011172
0.0024636
0.00012552
0.0021569
0.00013725
0.0018249
0.0001465
0.0014457
0.00015369
0.001071
0.00015774
0.00064008
0.00024215
0.00016013
2.0146e-05
0.0033088
3.1697e-08
4.0346e-05
0.0032174
5.9986e-05
0.0030935
7.8656e-05
0.0029243
9.6008e-05
0.0027068
0.00011173
0.0024478
0.00012553
0.0021431
0.00013727
0.0018131
0.00014652
0.0014364
0.0001537
0.0010638
0.00015777
0.00063602
0.00023979
0.00016013
2.0147e-05
0.0032886
3.1939e-08
4.0348e-05
0.0031972
5.9989e-05
0.0030738
7.8661e-05
0.0029056
9.6014e-05
0.0026895
0.00011174
0.0024321
0.00012554
0.0021293
0.00013728
0.0018014
0.00014654
0.0014272
0.00015372
0.0010567
0.00015779
0.00063195
0.00023745
0.00016012
2.0148e-05
0.0032684
3.2186e-08
4.035e-05
0.003177
5.9993e-05
0.0030542
7.8665e-05
0.0028869
9.602e-05
0.0026721
0.00011175
0.0024164
0.00012556
0.0021154
0.0001373
0.0017897
0.00014655
0.0014179
0.00015373
0.0010495
0.00015781
0.00062787
0.00023515
0.00016012
2.0149e-05
0.0032482
3.2436e-08
4.0352e-05
0.0031568
5.9996e-05
0.0030345
7.867e-05
0.0028682
9.6026e-05
0.0026548
0.00011176
0.0024006
0.00012557
0.0021016
0.00013731
0.0017779
0.00014657
0.0014086
0.00015375
0.0010423
0.00015784
0.00062378
0.00023287
0.00016012
2.0149e-05
0.0032281
3.2691e-08
4.0354e-05
0.0031366
5.9999e-05
0.0030149
7.8675e-05
0.0028496
9.6033e-05
0.0026374
0.00011177
0.0023849
0.00012558
0.0020878
0.00013733
0.0017662
0.00014659
0.0013994
0.00015377
0.0010351
0.00015786
0.00061969
0.00023061
0.00016011
2.015e-05
0.0032079
3.2951e-08
4.0356e-05
0.0031164
6.0002e-05
0.0029952
7.868e-05
0.0028309
9.6039e-05
0.00262
0.00011178
0.0023692
0.00012559
0.002074
0.00013734
0.0017544
0.00014661
0.0013901
0.00015378
0.001028
0.00015788
0.00061559
0.00022838
0.00016011
2.0151e-05
0.0031877
3.3214e-08
4.0358e-05
0.0030962
6.0006e-05
0.0029756
7.8685e-05
0.0028122
9.6046e-05
0.0026027
0.00011179
0.0023534
0.0001256
0.0020602
0.00013735
0.0017426
0.00014662
0.0013808
0.0001538
0.0010208
0.0001579
0.00061149
0.00022617
0.00016011
2.0152e-05
0.0031675
3.3482e-08
4.036e-05
0.003076
6.0009e-05
0.0029559
7.869e-05
0.0027935
9.6053e-05
0.0025853
0.0001118
0.0023377
0.00012561
0.0020464
0.00013737
0.0017309
0.00014664
0.0013716
0.00015381
0.0010136
0.00015793
0.00060738
0.00022398
0.00016011
2.0153e-05
0.0031473
3.3755e-08
4.0362e-05
0.0030558
6.0013e-05
0.0029363
7.8695e-05
0.0027748
9.6059e-05
0.0025679
0.00011181
0.0023219
0.00012562
0.0020326
0.00013738
0.0017191
0.00014666
0.0013623
0.00015383
0.0010064
0.00015795
0.00060326
0.00022182
0.00016011
2.0154e-05
0.0031271
3.4033e-08
4.0364e-05
0.0030356
6.0016e-05
0.0029166
7.8701e-05
0.0027562
9.6066e-05
0.0025506
0.00011182
0.0023062
0.00012563
0.0020188
0.0001374
0.0017074
0.00014668
0.001353
0.00015385
0.00099928
0.00015797
0.00059914
0.00021968
0.00016011
2.0155e-05
0.0031069
3.4315e-08
4.0367e-05
0.0030153
6.002e-05
0.002897
7.8706e-05
0.0027375
9.6073e-05
0.0025332
0.00011183
0.0022904
0.00012565
0.0020049
0.00013742
0.0016956
0.0001467
0.0013437
0.00015386
0.00099211
0.00015799
0.00059501
0.00021756
0.00016011
2.0156e-05
0.0030868
3.4602e-08
4.0369e-05
0.0029951
6.0023e-05
0.0028773
7.8712e-05
0.0027188
9.6081e-05
0.0025158
0.00011184
0.0022747
0.00012566
0.0019911
0.00013743
0.0016838
0.00014672
0.0013344
0.00015388
0.00098495
0.00015802
0.00059087
0.00021545
0.00016012
2.0157e-05
0.0030666
3.4894e-08
4.0371e-05
0.0029749
6.0027e-05
0.0028577
7.8717e-05
0.0027001
9.6088e-05
0.0024985
0.00011185
0.0022589
0.00012567
0.0019773
0.00013745
0.001672
0.00014673
0.0013252
0.0001539
0.00097778
0.00015804
0.00058673
0.00021337
0.00016012
2.0158e-05
0.0030464
3.5192e-08
4.0374e-05
0.0029547
6.0031e-05
0.002838
7.8723e-05
0.0026814
9.6095e-05
0.0024811
0.00011186
0.0022432
0.00012568
0.0019635
0.00013746
0.0016603
0.00014675
0.0013159
0.00015391
0.00097062
0.00015806
0.00058258
0.00021131
0.00016012
2.0159e-05
0.0030262
3.5494e-08
4.0376e-05
0.0029345
6.0035e-05
0.0028184
7.8728e-05
0.0026627
9.6103e-05
0.0024637
0.00011187
0.0022274
0.00012569
0.0019496
0.00013748
0.0016485
0.00014677
0.0013066
0.00015393
0.00096347
0.00015808
0.00057843
0.00020926
0.00016013
2.016e-05
0.003006
3.5802e-08
4.0378e-05
0.0029143
6.0039e-05
0.0027987
7.8734e-05
0.002644
9.6111e-05
0.0024464
0.00011188
0.0022116
0.00012571
0.0019358
0.00013749
0.0016367
0.00014679
0.0012973
0.00015395
0.00095631
0.0001581
0.00057428
0.00020724
0.00016013
2.0161e-05
0.0029858
3.6115e-08
4.0381e-05
0.002894
6.0043e-05
0.002779
7.874e-05
0.0026253
9.6118e-05
0.002429
0.00011189
0.0021959
0.00012572
0.001922
0.00013751
0.0016249
0.00014681
0.001288
0.00015396
0.00094916
0.00015813
0.00057011
0.00020523
0.00016014
2.0162e-05
0.0029656
3.6434e-08
4.0383e-05
0.0028738
6.0047e-05
0.0027594
7.8746e-05
0.0026066
9.6126e-05
0.0024116
0.0001119
0.0021801
0.00012573
0.0019081
0.00013753