/*--------------------------------*- C++ -*----------------------------------*\
  =========                 |
  \\      /  F ield         | OpenFOAM: The Open Source CFD Toolbox
   \\    /   O peration     | Website:  https://openfoam.org
    \\  /    A nd           | Version:  6.0
     \\/     M anipulation  |
\*---------------------------------------------------------------------------*/
FoamFile
{
    version     2.0;
    format      ascii;
    class       volScalarField;
    location    "3.27";
    object      p;
}
// * * * * * * * * * * * * * * * * * * * * * * * * * * * * * * * * * * * * * //

dimensions      [0 2 -2 0 0 0 0];

internalField   nonuniform List<scalar> 
13500
(
0.097664
0.097713
0.097203
0.096827
0.095661
0.095431
0.094139
0.095136
0.095889
0.099463
0.12219
0.16394
0.097664
0.097713
0.097203
0.096827
0.095661
0.095432
0.094138
0.095137
0.095886
0.099524
0.12151
0.15888
0.097664
0.097714
0.097203
0.096829
0.09566
0.095433
0.094135
0.095136
0.095877
0.099567
0.12063
0.15439
0.097665
0.097716
0.097203
0.096831
0.095659
0.095435
0.094131
0.095135
0.095862
0.099587
0.11966
0.15088
0.097666
0.097718
0.097204
0.096833
0.095658
0.095436
0.094126
0.095133
0.095842
0.099592
0.11862
0.14791
0.097668
0.09772
0.097204
0.096835
0.095657
0.095438
0.094121
0.095129
0.095817
0.099584
0.11755
0.14526
0.09767
0.097723
0.097206
0.096838
0.095656
0.095439
0.094115
0.095125
0.095786
0.099564
0.11647
0.14286
0.097673
0.097726
0.097208
0.096841
0.095656
0.09544
0.094108
0.09512
0.095751
0.09953
0.11539
0.14065
0.097676
0.09773
0.09721
0.096844
0.095656
0.095441
0.094101
0.095114
0.095711
0.099482
0.11434
0.13861
0.097679
0.097734
0.097212
0.096847
0.095655
0.095442
0.094094
0.095107
0.095665
0.099421
0.11333
0.13671
0.097683
0.097738
0.097215
0.096851
0.095655
0.095442
0.094085
0.095099
0.095614
0.099347
0.11235
0.13492
0.097687
0.097743
0.097218
0.096855
0.095656
0.095443
0.094076
0.095089
0.095558
0.099261
0.11141
0.13323
0.097692
0.097748
0.097222
0.096859
0.095656
0.095444
0.094067
0.095079
0.095496
0.099165
0.11051
0.13163
0.097697
0.097753
0.097226
0.096864
0.095656
0.095444
0.094057
0.095068
0.095429
0.09906
0.10966
0.13011
0.097703
0.097759
0.09723
0.096868
0.095657
0.095445
0.094046
0.095056
0.095356
0.098947
0.10884
0.12866
0.097709
0.097766
0.097235
0.096873
0.095658
0.095445
0.094035
0.095042
0.095278
0.098829
0.10807
0.12728
0.097715
0.097773
0.09724
0.096879
0.095659
0.095445
0.094023
0.095028
0.095194
0.098705
0.10732
0.12596
0.097722
0.09778
0.097246
0.096884
0.09566
0.095445
0.09401
0.095012
0.095105
0.098578
0.10661
0.12469
0.09773
0.097788
0.097252
0.09689
0.095661
0.095445
0.093997
0.094995
0.095011
0.098449
0.10593
0.12346
0.097738
0.097796
0.097259
0.096896
0.095663
0.095445
0.093984
0.094977
0.094911
0.098319
0.10527
0.12229
0.097746
0.097804
0.097266
0.096903
0.095664
0.095445
0.09397
0.094958
0.094807
0.098188
0.10463
0.12115
0.097755
0.097813
0.097273
0.09691
0.095666
0.095445
0.093955
0.094937
0.094698
0.098058
0.10401
0.12005
0.097765
0.097823
0.097281
0.096917
0.095668
0.095445
0.093939
0.094915
0.094585
0.097929
0.1034
0.11898
0.097775
0.097833
0.097289
0.096924
0.095671
0.095444
0.093924
0.094892
0.094468
0.097801
0.10281
0.11794
0.097786
0.097843
0.097298
0.096932
0.095673
0.095444
0.093907
0.094867
0.094347
0.097675
0.10223
0.11693
0.097797
0.097854
0.097307
0.09694
0.095676
0.095443
0.09389
0.094841
0.094223
0.09755
0.10165
0.11595
0.097808
0.097865
0.097317
0.096948
0.095678
0.095442
0.093873
0.094813
0.094095
0.097428
0.10109
0.11499
0.09782
0.097877
0.097327
0.096957
0.095681
0.095441
0.093855
0.094784
0.093965
0.097306
0.10053
0.11405
0.097833
0.09789
0.097337
0.096966
0.095685
0.095441
0.093836
0.094754
0.093833
0.097187
0.099984
0.11313
0.097846
0.097903
0.097348
0.096975
0.095688
0.095439
0.093817
0.094722
0.093698
0.097068
0.099439
0.11223
0.09786
0.097916
0.09736
0.096984
0.095692
0.095438
0.093797
0.094688
0.093562
0.096951
0.098899
0.11135
0.097874
0.09793
0.097372
0.096994
0.095696
0.095437
0.093777
0.094653
0.093425
0.096835
0.098364
0.11049
0.097889
0.097944
0.097384
0.097005
0.0957
0.095436
0.093756
0.094616
0.093287
0.096719
0.097833
0.10965
0.097904
0.097959
0.097397
0.097015
0.095704
0.095434
0.093735
0.094578
0.093148
0.096603
0.097307
0.10882
0.09792
0.097974
0.097411
0.097026
0.095709
0.095433
0.093713
0.094539
0.093009
0.096487
0.096785
0.108
0.097936
0.09799
0.097425
0.097037
0.095714
0.095431
0.09369
0.094498
0.092869
0.096371
0.096268
0.1072
0.097953
0.098006
0.097439
0.097049
0.095719
0.095429
0.093667
0.094456
0.092729
0.096254
0.095755
0.10642
0.097971
0.098023
0.097454
0.097061
0.095724
0.095428
0.093643
0.094413
0.09259
0.096135
0.095248
0.10565
0.097989
0.098041
0.09747
0.097073
0.09573
0.095426
0.093619
0.094369
0.092451
0.096016
0.094745
0.10489
0.098008
0.098059
0.097486
0.097086
0.095736
0.095424
0.093594
0.094323
0.092313
0.095895
0.094248
0.10415
0.098027
0.098077
0.097502
0.097099
0.095742
0.095421
0.093569
0.094277
0.092175
0.095773
0.093756
0.10342
0.098047
0.098096
0.097519
0.097112
0.095748
0.095419
0.093543
0.09423
0.092038
0.095649
0.09327
0.1027
0.098068
0.098116
0.097537
0.097126
0.095755
0.095417
0.093516
0.094182
0.091901
0.095523
0.09279
0.102
0.098089
0.098136
0.097555
0.09714
0.095762
0.095414
0.093489
0.094134
0.091765
0.095394
0.092316
0.10131
0.09811
0.098156
0.097573
0.097155
0.095769
0.095412
0.093461
0.094085
0.09163
0.095264
0.091848
0.10063
0.098133
0.098178
0.097593
0.09717
0.095777
0.095409
0.093432
0.094035
0.091496
0.095131
0.091386
0.099967
0.098156
0.098199
0.097612
0.097185
0.095785
0.095406
0.093403
0.093986
0.091362
0.094996
0.090932
0.099314
0.098179
0.098222
0.097633
0.097201
0.095793
0.095403
0.093374
0.093936
0.091229
0.094859
0.090484
0.098673
0.098203
0.098245
0.097653
0.097216
0.095802
0.0954
0.093343
0.093887
0.091096
0.09472
0.090043
0.098045
0.098228
0.098268
0.097675
0.097233
0.095811
0.095397
0.093313
0.093837
0.090964
0.094578
0.089609
0.097428
0.098253
0.098292
0.097697
0.09725
0.09582
0.095394
0.093281
0.093788
0.090832
0.094434
0.089181
0.096822
0.098279
0.098317
0.097719
0.097267
0.095829
0.095391
0.093249
0.093739
0.0907
0.094288
0.088761
0.096228
0.098306
0.098342
0.097742
0.097284
0.095839
0.095387
0.093217
0.09369
0.090568
0.09414
0.088348
0.095644
0.098333
0.098368
0.097766
0.097302
0.095849
0.095384
0.093184
0.093642
0.090437
0.093989
0.087942
0.095071
0.098361
0.098395
0.09779
0.097321
0.09586
0.09538
0.09315
0.093594
0.090305
0.093837
0.087542
0.094509
0.09839
0.098422
0.097815
0.097339
0.095871
0.095377
0.093116
0.093547
0.090174
0.093682
0.08715
0.093957
0.098419
0.09845
0.09784
0.097359
0.095882
0.095373
0.093082
0.0935
0.090042
0.093526
0.086764
0.093415
0.098449
0.098478
0.097867
0.097378
0.095893
0.095369
0.093047
0.093454
0.08991
0.093368
0.086385
0.092883
0.09848
0.098507
0.097893
0.097398
0.095905
0.095365
0.093012
0.093409
0.089778
0.093208
0.086012
0.09236
0.098511
0.098537
0.09792
0.097419
0.095918
0.095361
0.092976
0.093364
0.089645
0.093046
0.085646
0.091846
0.098543
0.098567
0.097948
0.097439
0.09593
0.095357
0.09294
0.093321
0.089512
0.092883
0.085287
0.091341
0.098575
0.098598
0.097977
0.097461
0.095944
0.095353
0.092904
0.093278
0.089379
0.092719
0.084933
0.090845
0.098609
0.098629
0.098006
0.097482
0.095957
0.095349
0.092868
0.093235
0.089245
0.092553
0.084586
0.090357
0.098643
0.098661
0.098035
0.097504
0.095971
0.095345
0.092831
0.093193
0.089111
0.092385
0.084244
0.089877
0.098677
0.098694
0.098066
0.097527
0.095985
0.095342
0.092794
0.093152
0.088977
0.092217
0.083909
0.089406
0.098713
0.098728
0.098097
0.09755
0.096
0.095338
0.092757
0.093111
0.088842
0.092047
0.083579
0.088942
0.098749
0.098762
0.098128
0.097573
0.096015
0.095334
0.09272
0.093071
0.088707
0.091876
0.083255
0.088485
0.098785
0.098796
0.098161
0.097597
0.09603
0.09533
0.092683
0.093032
0.088571
0.091704
0.082936
0.088036
0.098823
0.098832
0.098193
0.097622
0.096046
0.095326
0.092645
0.092993
0.088435
0.091531
0.082622
0.087593
0.098861
0.098868
0.098227
0.097646
0.096062
0.095323
0.092608
0.092954
0.088298
0.091358
0.082313
0.087158
0.0989
0.098905
0.098261
0.097672
0.096079
0.095319
0.09257
0.092915
0.088162
0.091183
0.08201
0.086729
0.098939
0.098942
0.098296
0.097698
0.096096
0.095316
0.092532
0.092877
0.088025
0.091008
0.081711
0.086307
0.09898
0.098981
0.098331
0.097724
0.096113
0.095313
0.092495
0.092839
0.087888
0.090832
0.081417
0.08589
0.099021
0.09902
0.098368
0.097751
0.096131
0.09531
0.092457
0.092801
0.087751
0.090655
0.081127
0.08548
0.099063
0.099059
0.098404
0.097778
0.096149
0.095307
0.09242
0.092763
0.087615
0.090477
0.080842
0.085076
0.099105
0.0991
0.098442
0.097806
0.096168
0.095304
0.092382
0.092725
0.087478
0.0903
0.080562
0.084677
0.099148
0.099141
0.09848
0.097834
0.096187
0.095302
0.092344
0.092687
0.087341
0.090121
0.080285
0.084284
0.099192
0.099182
0.098519
0.097863
0.096206
0.0953
0.092307
0.092649
0.087204
0.089942
0.080013
0.083897
0.099237
0.099225
0.098558
0.097892
0.096226
0.095299
0.092269
0.092611
0.087068
0.089763
0.079745
0.083514
0.099283
0.099268
0.098599
0.097922
0.096246
0.095297
0.092232
0.092572
0.086932
0.089583
0.079481
0.083137
0.099329
0.099312
0.09864
0.097952
0.096266
0.095297
0.092195
0.092533
0.086797
0.089404
0.07922
0.082764
0.099376
0.099357
0.098681
0.097983
0.096287
0.095296
0.092157
0.092494
0.086661
0.089224
0.078964
0.082397
0.099424
0.099402
0.098724
0.098015
0.096309
0.095296
0.09212
0.092454
0.086527
0.089043
0.078711
0.082034
0.099472
0.099449
0.098767
0.098047
0.09633
0.095297
0.092083
0.092414
0.086393
0.088863
0.078462
0.081675
0.099522
0.099496
0.09881
0.09808
0.096352
0.095297
0.092045
0.092374
0.086259
0.088682
0.078216
0.081321
0.099572
0.099544
0.098855
0.098113
0.096375
0.095299
0.092008
0.092333
0.086126
0.088501
0.077973
0.080972
0.099623
0.099592
0.0989
0.098147
0.096398
0.095301
0.091971
0.092291
0.085994
0.08832
0.077734
0.080626
0.099675
0.099642
0.098946
0.098181
0.096421
0.095303
0.091934
0.092249
0.085862
0.08814
0.077498
0.080285
0.099728
0.099692
0.098993
0.098217
0.096445
0.095306
0.091897
0.092207
0.085732
0.087959
0.077266
0.079948
0.099781
0.099743
0.09904
0.098252
0.096469
0.095309
0.09186
0.092163
0.085602
0.087778
0.077036
0.079614
0.099836
0.099795
0.099089
0.098289
0.096493
0.095314
0.091823
0.092119
0.085473
0.087597
0.07681
0.079285
0.099891
0.099848
0.099138
0.098326
0.096518
0.095318
0.091786
0.092075
0.085345
0.087416
0.076586
0.078959
0.099947
0.099902
0.099187
0.098364
0.096543
0.095323
0.091749
0.092029
0.085217
0.087236
0.076366
0.078636
0.1
0.099957
0.099238
0.098403
0.096568
0.095329
0.091712
0.091983
0.085091
0.087055
0.076148
0.078317
0.10006
0.10001
0.099289
0.098442
0.096594
0.095336
0.091676
0.091937
0.084966
0.086875
0.075933
0.078002
0.10012
0.10007
0.099341
0.098482
0.096621
0.095343
0.091639
0.091889
0.084841
0.086695
0.075721
0.07769
0.10018
0.10013
0.099394
0.098523
0.096647
0.095351
0.091603
0.091841
0.084718
0.086515
0.075511
0.077381
0.10024
0.10018
0.099448
0.098564
0.096674
0.095359
0.091566
0.091792
0.084595
0.086335
0.075304
0.077075
0.1003
0.10024
0.099503
0.098607
0.096702
0.095368
0.09153
0.091743
0.084473
0.086155
0.0751
0.076773
0.10037
0.1003
0.099558
0.09865
0.09673
0.095378
0.091494
0.091692
0.084353
0.085976
0.074898
0.076473
0.10043
0.10037
0.099615
0.098694
0.096758
0.095388
0.091458
0.091641
0.084233
0.085796
0.074698
0.076176
0.10049
0.10043
0.099672
0.098739
0.096787
0.0954
0.091423
0.091589
0.084114
0.085617
0.0745
0.075882
0.10056
0.10049
0.09973
0.098785
0.096816
0.095411
0.091387
0.091537
0.083997
0.085438
0.074305
0.07559
0.10063
0.10056
0.099789
0.098832
0.096846
0.095424
0.091352
0.091483
0.08388
0.08526
0.074112
0.075301
0.10069
0.10062
0.099849
0.098879
0.096876
0.095437
0.091317
0.091429
0.083764
0.085082
0.073922
0.075015
0.10076
0.10069
0.09991
0.098928
0.096906
0.095451
0.091282
0.091375
0.083649
0.084903
0.073733
0.074731
0.10083
0.10075
0.099972
0.098978
0.096937
0.095466
0.091248
0.091319
0.083535
0.084725
0.073546
0.07445
0.1009
0.10082
0.10004
0.099028
0.096969
0.095481
0.091213
0.091263
0.083422
0.084548
0.073362
0.074171
0.10097
0.10089
0.1001
0.09908
0.097001
0.095497
0.09118
0.091206
0.08331
0.08437
0.073179
0.073893
0.10105
0.10097
0.10016
0.099132
0.097034
0.095514
0.091146
0.091149
0.083199
0.084193
0.072998
0.073619
0.10112
0.10104
0.10023
0.099186
0.097067
0.095532
0.091113
0.091091
0.083089
0.084016
0.072818
0.073346
0.1012
0.10111
0.1003
0.099241
0.097101
0.09555
0.091081
0.091032
0.08298
0.083839
0.072641
0.073075
0.10127
0.10119
0.10037
0.099297
0.097136
0.095569
0.091049
0.090973
0.082871
0.083663
0.072465
0.072805
0.10135
0.10126
0.10044
0.099355
0.097171
0.095589
0.091017
0.090913
0.082764
0.083486
0.07229
0.072538
0.10143
0.10134
0.10051
0.099413
0.097207
0.09561
0.090986
0.090853
0.082657
0.08331
0.072117
0.072272
0.10151
0.10142
0.10058
0.099473
0.097244
0.095632
0.090956
0.090792
0.082551
0.083134
0.071946
0.072008
0.1016
0.1015
0.10065
0.099534
0.097281
0.095654
0.090926
0.09073
0.082446
0.082958
0.071776
0.071746
0.10168
0.10158
0.10073
0.099597
0.09732
0.095678
0.090896
0.090668
0.082342
0.082782
0.071607
0.071485
0.10177
0.10167
0.1008
0.099661
0.097359
0.095702
0.090868
0.090606
0.082238
0.082607
0.07144
0.071225
0.10185
0.10175
0.10088
0.099726
0.097399
0.095727
0.09084
0.090543
0.082136
0.082431
0.071273
0.070966
0.10194
0.10184
0.10096
0.099793
0.09744
0.095753
0.090813
0.09048
0.082034
0.082256
0.071108
0.070709
0.10203
0.10193
0.10104
0.099861
0.097483
0.09578
0.090787
0.090416
0.081933
0.082081
0.070944
0.070453
0.10212
0.10202
0.10112
0.099932
0.097526
0.095808
0.090762
0.090352
0.081832
0.081906
0.070781
0.070198
0.10222
0.10212
0.10121
0.1
0.09757
0.095837
0.090737
0.090288
0.081733
0.081731
0.070619
0.069944
0.10231
0.10221
0.10129
0.10008
0.097616
0.095868
0.090714
0.090224
0.081634
0.081556
0.070458
0.06969
0.10241
0.10231
0.10138
0.10015
0.097663
0.095899
0.090691
0.090159
0.081536
0.081381
0.070297
0.069438
0.10251
0.10241
0.10147
0.10023
0.097711
0.095932
0.09067
0.090094
0.081439
0.081206
0.070137
0.069186
0.10261
0.10251
0.10156
0.10031
0.097761
0.095965
0.09065
0.090029
0.081342
0.081032
0.069978
0.068935
0.10272
0.10261
0.10166
0.10039
0.097812
0.096
0.090631
0.089964
0.081247
0.080857
0.06982
0.068684
0.10282
0.10272
0.10175
0.10047
0.097865
0.096037
0.090613
0.089899
0.081152
0.080682
0.069662
0.068433
0.10293
0.10283
0.10185
0.10056
0.097919
0.096074
0.090597
0.089834
0.081057
0.080507
0.069505
0.068183
0.10304
0.10294
0.10195
0.10065
0.097976
0.096114
0.090582
0.08977
0.080964
0.080333
0.069348
0.067934
0.10316
0.10305
0.10205
0.10074
0.098034
0.096154
0.090568
0.089705
0.080871
0.080158
0.069191
0.067684
0.10327
0.10317
0.10216
0.10083
0.098094
0.096197
0.090556
0.089641
0.08078
0.079984
0.069035
0.067435
0.10339
0.10329
0.10227
0.10093
0.098156
0.096241
0.090546
0.089577
0.080689
0.079809
0.068879
0.067185
0.10352
0.10341
0.10238
0.10103
0.098221
0.096287
0.090537
0.089513
0.080598
0.079634
0.068723
0.066936
0.10364
0.10354
0.10249
0.10113
0.098288
0.096334
0.09053
0.08945
0.080509
0.079459
0.068568
0.066686
0.10377
0.10366
0.10261
0.10123
0.098357
0.096384
0.090526
0.089387
0.080421
0.079285
0.068412
0.066436
0.1039
0.1038
0.10273
0.10134
0.098429
0.096436
0.090523
0.089325
0.080334
0.07911
0.068257
0.066186
0.10404
0.10393
0.10285
0.10145
0.098504
0.09649
0.090522
0.089264
0.080247
0.078935
0.068101
0.065935
0.10418
0.10407
0.10298
0.10156
0.098581
0.096546
0.090524
0.089204
0.080162
0.078761
0.067945
0.065683
0.10432
0.10422
0.10311
0.10168
0.098662
0.096604
0.090528
0.089144
0.080077
0.078586
0.067789
0.065431
0.10446
0.10436
0.10324
0.1018
0.098746
0.096665
0.090534
0.089086
0.079994
0.078411
0.067633
0.065178
0.10461
0.10452
0.10338
0.10193
0.098833
0.096729
0.090543
0.089028
0.079912
0.078236
0.067477
0.064924
0.10477
0.10467
0.10352
0.10206
0.098924
0.096796
0.090555
0.088972
0.079831
0.078061
0.06732
0.06467
0.10493
0.10483
0.10367
0.10219
0.099019
0.096865
0.090569
0.088918
0.079751
0.077887
0.067162
0.064414
0.10509
0.105
0.10382
0.10233
0.099117
0.096938
0.090587
0.088864
0.079673
0.077712
0.067005
0.064157
0.10526
0.10517
0.10398
0.10247
0.09922
0.097013
0.090608
0.088813
0.079596
0.077538
0.066846
0.063898
0.10543
0.10535
0.10414
0.10262
0.099327
0.097093
0.090632
0.088763
0.07952
0.077363
0.066687
0.063639
0.10561
0.10553
0.10431
0.10277
0.099438
0.097176
0.09066
0.088715
0.079446
0.077189
0.066528
0.063378
0.1058
0.10571
0.10448
0.10293
0.099555
0.097262
0.090691
0.088669
0.079373
0.077014
0.066367
0.063115
0.10599
0.10591
0.10466
0.1031
0.099676
0.097353
0.090726
0.088625
0.079302
0.07684
0.066206
0.06285
0.10618
0.1061
0.10484
0.10327
0.099803
0.097448
0.090765
0.088584
0.079233
0.076666
0.066044
0.062584
0.10638
0.10631
0.10503
0.10344
0.099935
0.097547
0.090808
0.088544
0.079165
0.076492
0.065881
0.062315
0.10659
0.10652
0.10523
0.10362
0.10007
0.09765
0.090856
0.088508
0.079099
0.076318
0.065717
0.062045
0.10681
0.10674
0.10543
0.10381
0.10022
0.097759
0.090908
0.088474
0.079036
0.076145
0.065552
0.061772
0.10703
0.10696
0.10564
0.10401
0.10037
0.097872
0.090965
0.088443
0.078974
0.075972
0.065386
0.061496
0.10725
0.1072
0.10586
0.10421
0.10052
0.097991
0.091026
0.088416
0.078914
0.075799
0.065219
0.061219
0.10749
0.10744
0.10609
0.10442
0.10069
0.098115
0.091093
0.088391
0.078857
0.075626
0.06505
0.060938
0.10773
0.10769
0.10632
0.10464
0.10086
0.098245
0.091165
0.08837
0.078802
0.075454
0.06488
0.060655
0.10798
0.10794
0.10656
0.10486
0.10103
0.098381
0.091243
0.088352
0.078749
0.075281
0.064708
0.060369
0.10824
0.10821
0.10681
0.1051
0.10122
0.098523
0.091327
0.088339
0.078698
0.07511
0.064535
0.060079
0.10851
0.10848
0.10707
0.10534
0.10141
0.098672
0.091416
0.088329
0.078651
0.074938
0.06436
0.059786
0.10879
0.10876
0.10734
0.10559
0.10162
0.098827
0.091512
0.088323
0.078605
0.074767
0.064183
0.05949
0.10907
0.10905
0.10761
0.10585
0.10183
0.098989
0.091614
0.088321
0.078563
0.074596
0.064005
0.05919
0.10937
0.10936
0.1079
0.10612
0.10205
0.099159
0.091722
0.088323
0.078522
0.074425
0.063824
0.058886
0.10967
0.10967
0.1082
0.1064
0.10227
0.099335
0.091838
0.08833
0.078485
0.074255
0.063641
0.058578
0.10998
0.10999
0.1085
0.10669
0.10251
0.09952
0.09196
0.088342
0.078451
0.074085
0.063456
0.058265
0.11031
0.11032
0.10882
0.10699
0.10276
0.099713
0.09209
0.088358
0.078419
0.073915
0.063268
0.057948
0.11064
0.11066
0.10915
0.1073
0.10302
0.099914
0.092227
0.08838
0.07839
0.073745
0.063078
0.057626
0.11098
0.11102
0.10949
0.10762
0.10329
0.10012
0.092371
0.088406
0.078364
0.073575
0.062885
0.057299
0.11134
0.11138
0.10984
0.10796
0.10357
0.10034
0.092523
0.088437
0.078341
0.073405
0.062688
0.056967
0.11171
0.11176
0.1102
0.1083
0.10386
0.10057
0.092684
0.088473
0.078321
0.073235
0.062489
0.056629
0.11208
0.11215
0.11058
0.10866
0.10416
0.1008
0.092852
0.088515
0.078303
0.073065
0.062286
0.056284
0.11247
0.11255
0.11097
0.10903
0.10447
0.10105
0.093028
0.088562
0.078288
0.072894
0.062079
0.055934
0.11287
0.11297
0.11137
0.10941
0.1048
0.10131
0.093213
0.088614
0.078276
0.072722
0.061867
0.055576
0.11329
0.11339
0.11178
0.1098
0.10514
0.10157
0.093406
0.088671
0.078266
0.07255
0.061652
0.055211
0.11371
0.11383
0.11221
0.11021
0.10549
0.10185
0.093608
0.088733
0.078259
0.072377
0.061431
0.054839
0.11415
0.11429
0.11265
0.11063
0.10585
0.10213
0.093819
0.088801
0.078254
0.072202
0.061206
0.054459
0.11461
0.11475
0.11311
0.11107
0.10623
0.10243
0.094038
0.088874
0.078251
0.072025
0.060975
0.05407
0.11507
0.11524
0.11358
0.11152
0.10662
0.10274
0.094266
0.088952
0.078249
0.071847
0.060737
0.053672
0.11555
0.11573
0.11407
0.11198
0.10702
0.10305
0.094503
0.089035
0.07825
0.071666
0.060494
0.053264
0.11604
0.11624
0.11457
0.11246
0.10744
0.10338
0.094749
0.089123
0.078251
0.071483
0.060243
0.052846
0.11655
0.11677
0.11509
0.11295
0.10787
0.10372
0.095004
0.089215
0.078254
0.071296
0.059985
0.052418
0.11707
0.11731
0.11562
0.11346
0.10832
0.10407
0.095268
0.089312
0.078257
0.071106
0.059718
0.051978
0.11761
0.11787
0.11617
0.11398
0.10878
0.10443
0.095541
0.089414
0.078261
0.070912
0.059443
0.051526
0.11816
0.11844
0.11673
0.11452
0.10926
0.10481
0.095823
0.089519
0.078264
0.070713
0.059158
0.051061
0.11873
0.11903
0.11732
0.11508
0.10976
0.1052
0.096114
0.089629
0.078267
0.070509
0.058864
0.050582
0.11931
0.11964
0.11792
0.11565
0.11027
0.10559
0.096414
0.089742
0.078269
0.070299
0.058558
0.050089
0.11991
0.12026
0.11854
0.11625
0.1108
0.10601
0.096723
0.089858
0.078269
0.070082
0.058241
0.049581
0.12053
0.1209
0.11918
0.11686
0.11134
0.10643
0.097041
0.089978
0.078267
0.069858
0.057911
0.049057
0.12117
0.12157
0.11984
0.11749
0.11191
0.10687
0.097368
0.0901
0.078263
0.069627
0.057567
0.048516
0.12182
0.12225
0.12053
0.11814
0.11249
0.10732
0.097705
0.090225
0.078256
0.069387
0.05721
0.047957
0.1225
0.12295
0.12123
0.11881
0.11309
0.10778
0.098051
0.090353
0.078246
0.069137
0.056837
0.047378
0.12319
0.12368
0.12196
0.1195
0.11371
0.10826
0.098407
0.090483
0.078231
0.068877
0.056449
0.04678
0.12391
0.12442
0.12271
0.12021
0.11435
0.10876
0.098772
0.090615
0.078212
0.068607
0.056042
0.04616
0.12465
0.1252
0.12349
0.12095
0.11502
0.10927
0.099148
0.090748
0.078188
0.068324
0.055618
0.045519
0.12541
0.12599
0.1243
0.12172
0.11571
0.10979
0.099535
0.090884
0.078158
0.068029
0.055175
0.044853
0.1262
0.12682
0.12513
0.12251
0.11643
0.11034
0.099933
0.091022
0.078122
0.06772
0.054711
0.044163
0.12702
0.12768
0.126
0.12334
0.11717
0.11091
0.10034
0.091161
0.078079
0.067398
0.054225
0.043446
0.12787
0.12857
0.1269
0.12419
0.11794
0.11149
0.10076
0.091302
0.078029
0.067059
0.053717
0.042702
0.12875
0.12949
0.12785
0.12509
0.11875
0.1121
0.1012
0.091445
0.077972
0.066705
0.053185
0.041929
0.12967
0.13046
0.12883
0.12602
0.11959
0.11274
0.10165
0.09159
0.077906
0.066334
0.052628
0.041125
0.13062
0.13146
0.12985
0.12699
0.12046
0.11339
0.10211
0.091738
0.077832
0.065944
0.052044
0.040289
0.13162
0.13251
0.13092
0.128
0.12138
0.11408
0.10259
0.091888
0.077748
0.065536
0.051432
0.039419
0.13266
0.1336
0.13205
0.12907
0.12234
0.1148
0.10309
0.09204
0.077654
0.065107
0.050791
0.038513
0.13374
0.13475
0.13323
0.13019
0.12334
0.11555
0.10361
0.092195
0.077549
0.064655
0.050118
0.03757
0.13488
0.13596
0.13447
0.13136
0.12439
0.11634
0.10414
0.092352
0.077431
0.064181
0.049412
0.036587
0.13607
0.13723
0.13577
0.1326
0.1255
0.11717
0.1047
0.092512
0.077301
0.063681
0.04867
0.035562
0.13732
0.13856
0.13715
0.13391
0.12667
0.11803
0.10527
0.092673
0.077155
0.063153
0.04789
0.034492
0.13864
0.13996
0.1386
0.13529
0.12789
0.11894
0.10587
0.092835
0.076991
0.062594
0.047069
0.033376
0.14002
0.14144
0.14013
0.13674
0.12918
0.1199
0.10649
0.092997
0.076808
0.062002
0.046204
0.032209
0.14146
0.143
0.14175
0.13829
0.13055
0.1209
0.10713
0.093156
0.076601
0.061372
0.04529
0.030988
0.14299
0.14465
0.14347
0.13992
0.13198
0.12195
0.10779
0.09331
0.076367
0.0607
0.044323
0.029709
0.14458
0.14638
0.14527
0.14164
0.13349
0.12306
0.10847
0.093455
0.0761
0.05998
0.043297
0.028368
0.14626
0.14821
0.14719
0.14346
0.13508
0.12421
0.10917
0.093588
0.075794
0.059205
0.042207
0.026959
0.14801
0.15014
0.14921
0.14539
0.13675
0.12542
0.10987
0.093703
0.075443
0.058369
0.041045
0.025477
0.14985
0.15217
0.15134
0.14743
0.13851
0.12667
0.11059
0.093794
0.075039
0.057463
0.039802
0.023914
0.15177
0.15431
0.15359
0.14959
0.14035
0.12798
0.11132
0.093852
0.074572
0.056478
0.03847
0.022262
0.15377
0.15656
0.15597
0.15186
0.14228
0.12933
0.11203
0.093869
0.074031
0.055402
0.037038
0.020512
0.15586
0.15892
0.15848
0.15425
0.1443
0.13072
0.11274
0.093835
0.073405
0.054224
0.035496
0.018655
0.15802
0.16141
0.16112
0.15678
0.14641
0.13216
0.11343
0.093738
0.072682
0.052932
0.033831
0.016678
0.16027
0.16401
0.16391
0.15944
0.1486
0.13362
0.11409
0.093564
0.071846
0.051512
0.032031
0.014572
0.16259
0.16674
0.16685
0.16224
0.1509
0.1351
0.11471
0.093299
0.070884
0.049951
0.030083
0.012323
0.165
0.16961
0.16996
0.16519
0.15328
0.13661
0.11526
0.092924
0.069777
0.048234
0.027974
0.0099189
0.16749
0.17263
0.17325
0.16831
0.15576
0.13812
0.11575
0.092421
0.068507
0.046343
0.025689
0.0073481
0.17007
0.1758
0.17675
0.1716
0.15833
0.13962
0.11614
0.091766
0.067052
0.044263
0.023215
0.0045985
0.17273
0.17916
0.18048
0.17508
0.161
0.1411
0.1164
0.090929
0.065386
0.041971
0.020535
0.0016588
0.17548
0.18271
0.18447
0.17878
0.16377
0.14253
0.11652
0.089876
0.06348
0.039444
0.017633
-0.0014821
0.17832
0.18649
0.18875
0.18271
0.16663
0.1439
0.11644
0.088565
0.061294
0.036653
0.014488
-0.0048356
0.18124
0.19052
0.19337
0.1869
0.16957
0.14515
0.11612
0.08694
0.058782
0.03356
0.011074
-0.0084143
0.18423
0.19482
0.19836
0.19135
0.17256
0.14624
0.11549
0.084936
0.055886
0.030121
0.0073604
-0.012233
0.18726
0.19941
0.20375
0.19606
0.17557
0.14709
0.11446
0.082473
0.052539
0.026282
0.0033095
-0.016311
0.19028
0.20431
0.20956
0.20104
0.17852
0.14762
0.11293
0.079454
0.04866
0.02198
-0.0011225
-0.02067
0.19323
0.20949
0.2158
0.20623
0.18133
0.14768
0.11078
0.075774
0.044164
0.017149
-0.0059816
-0.025333
0.19597
0.21494
0.22243
0.21154
0.18384
0.14713
0.10786
0.071315
0.038965
0.011729
-0.011309
-0.030321
0.19837
0.22056
0.22937
0.21683
0.18586
0.14577
0.10401
0.065958
0.032983
0.0056695
-0.017133
-0.035641
0.20021
0.22621
0.23644
0.22186
0.18711
0.14334
0.099026
0.059585
0.026158
-0.0010518
-0.023451
-0.041281
0.20124
0.23168
0.24336
0.22626
0.18723
0.13955
0.09273
0.052094
0.018453
-0.0084238
-0.030227
-0.047191
0.20118
0.23657
0.24958
0.22946
0.18571
0.13406
0.084917
0.0434
0.0098661
-0.016396
-0.037378
-0.053286
0.19971
0.24028
0.25423
0.23055
0.1819
0.12645
0.075399
0.033455
0.00043073
-0.024881
-0.044786
-0.059442
0.19658
0.2418
0.25582
0.22818
0.17486
0.11628
0.064021
0.022266
-0.0097706
-0.033761
-0.052306
-0.065517
0.19163
0.23959
0.25196
0.22029
0.16336
0.10301
0.050693
0.0099295
-0.020587
-0.042879
-0.059786
-0.071373
0.18501
0.23133
0.23906
0.20393
0.14577
0.086065
0.035408
-0.0033458
-0.031776
-0.052034
-0.067066
-0.076897
0.17741
0.21406
0.21235
0.17527
0.12007
0.064776
0.01819
-0.017276
-0.043022
-0.060982
-0.073991
-0.082007
0.17021
0.18481
0.16681
0.13014
0.084029
0.038327
-0.0010396
-0.031639
-0.054033
-0.069488
-0.080426
-0.086668
0.16489
0.1408
0.09892
0.065661
0.035777
0.0058096
-0.022604
-0.046453
-0.064699
-0.077437
-0.086317
-0.090912
0.1633
0.076739
0.0044014
-0.020613
-0.026678
-0.034325
-0.047502
-0.062313
-0.075379
-0.085078
-0.091886
-0.095001
0.17795
-0.0024831
-0.1132
-0.12543
-0.10242
-0.083007
-0.077212
-0.080629
-0.087282
-0.093415
-0.09798
-0.099693
0.22107
-0.076292
-0.23169
-0.22995
-0.17853
-0.13336
-0.10893
-0.10063
-0.10045
-0.10271
-0.1049
-0.10516
0.10268
0.063278
0.053153
0.047113
0.042946
0.03983
0.037345
0.035216
0.033403
0.031574
0.030128
0.027737
0.122
0.0785
0.065922
0.057889
0.052408
0.04836
0.045161
0.042442
0.040149
0.037839
0.036068
0.033274
0.10935
0.073407
0.062026
0.054123
0.048713
0.044737
0.041614
0.038973
0.036771
0.034544
0.0329
0.030187
0.10428
0.073063
0.062013
0.054021
0.048474
0.044385
0.041176
0.038468
0.036224
0.03395
0.032305
0.029467
0.10361
0.075201
0.063993
0.055785
0.049994
0.045698
0.042322
0.039472
0.037118
0.034731
0.033017
0.030021
0.10293
0.076983
0.065705
0.057364
0.051375
0.046902
0.043377
0.0404
0.037945
0.03546
0.033678
0.030569
0.10178
0.078233
0.067031
0.058641
0.052505
0.047887
0.044236
0.041151
0.038609
0.036045
0.034202
0.031024
0.10057
0.079254
0.068217
0.059828
0.053579
0.048833
0.045066
0.041881
0.039257
0.036627
0.034727
0.031518
0.099426
0.080131
0.069328
0.060986
0.054653
0.049793
0.045917
0.042639
0.039935
0.037249
0.035295
0.032093
0.098336
0.080857
0.070351
0.062099
0.055718
0.050762
0.046787
0.043422
0.040643
0.037911
0.035908
0.03275
0.09728
0.081431
0.071276
0.063156
0.056761
0.051731
0.04767
0.044227
0.041379
0.038612
0.036567
0.033487
0.096255
0.081868
0.072099
0.064146
0.057773
0.052694
0.048563
0.045052
0.042143
0.039351
0.037272
0.0343
0.095263
0.082182
0.072822
0.065065
0.058746
0.053642
0.049458
0.045893
0.04293
0.040124
0.038018
0.035179
0.094306
0.08239
0.073447
0.065907
0.05967
0.054565
0.050346
0.04674
0.043736
0.040925
0.0388
0.036112
0.093385
0.082507
0.073979
0.06667
0.060538
0.055455
0.05122
0.047587
0.04455
0.041745
0.039607
0.037082
0.092502
0.082547
0.074425
0.067355
0.061346
0.056305
0.052069
0.048423
0.045365
0.042574
0.04043
0.038071
0.091657
0.082522
0.074791
0.067963
0.062092
0.057108
0.052888
0.049242
0.046172
0.043403
0.041257
0.039062
0.090849
0.082444
0.075085
0.068499
0.062774
0.057862
0.05367
0.050035
0.046963
0.044221
0.042077
0.040038
0.090078
0.082323
0.075316
0.068967
0.063393
0.058564
0.054411
0.050798
0.047732
0.045022
0.042882
0.040984
0.089343
0.082166
0.07549
0.069372
0.063953
0.059213
0.05511
0.051527
0.048473
0.045797
0.043663
0.041888
0.088641
0.081981
0.075614
0.069719
0.064455
0.059811
0.055764
0.052218
0.049182
0.046542
0.044414
0.042742
0.087972
0.081773
0.075694
0.070013
0.064904
0.060359
0.056373
0.052869
0.049856
0.047251
0.045131
0.043539
0.087333
0.081547
0.075737
0.07026
0.065302
0.060859
0.056939
0.05348
0.050493
0.047922
0.045809
0.044276
0.086723
0.081307
0.075746
0.070464
0.065653
0.061313
0.057461
0.054051
0.051093
0.048554
0.046447
0.04495
0.086138
0.081056
0.075727
0.070629
0.065962
0.061723
0.057941
0.054582
0.051655
0.049145
0.047045
0.045564
0.085578
0.080796
0.075682
0.07076
0.066232
0.062093
0.058383
0.055074
0.05218
0.049695
0.047603
0.046119
0.085041
0.08053
0.075617
0.070861
0.066465
0.062426
0.058787
0.055529
0.052669
0.050206
0.048121
0.046619
0.084525
0.080259
0.075533
0.070934
0.066666
0.062724
0.059155
0.055949
0.053123
0.050679
0.048601
0.047068
0.084028
0.079985
0.075433
0.070982
0.066838
0.062989
0.059491
0.056334
0.053544
0.051115
0.049045
0.04747
0.083549
0.079709
0.07532
0.071009
0.066982
0.063224
0.059796
0.056688
0.053932
0.051517
0.049454
0.04783
0.083087
0.079431
0.075194
0.071016
0.067102
0.063432
0.060072
0.057012
0.054291
0.051886
0.049832
0.048153
0.08264
0.079154
0.075059
0.071006
0.067199
0.063615