/*--------------------------------*- C++ -*----------------------------------*\
  =========                 |
  \\      /  F ield         | OpenFOAM: The Open Source CFD Toolbox
   \\    /   O peration     | Website:  https://openfoam.org
    \\  /    A nd           | Version:  6.0
     \\/     M anipulation  |
\*---------------------------------------------------------------------------*/
FoamFile
{
    version     2.0;
    format      ascii;
    class       volScalarField;
    location    "7";
    object      p;
}
// * * * * * * * * * * * * * * * * * * * * * * * * * * * * * * * * * * * * * //

dimensions      [0 2 -2 0 0 0 0];

internalField   nonuniform List<scalar> 
14500
(
0.070206
0.07007
0.069665
0.069134
0.068475
0.06791
0.067698
0.067854
0.070174
0.07281
0.09326
0.12495
0.070206
0.07007
0.069665
0.069135
0.068475
0.067909
0.067698
0.067852
0.070174
0.072831
0.092717
0.12176
0.070206
0.070071
0.069665
0.069135
0.068475
0.067909
0.067697
0.067848
0.07017
0.072835
0.091952
0.11842
0.070207
0.070072
0.069666
0.069135
0.068475
0.067908
0.067695
0.067842
0.070161
0.072817
0.091083
0.11549
0.070208
0.070073
0.069667
0.069136
0.068475
0.067907
0.067693
0.067835
0.070147
0.072785
0.090162
0.11296
0.070209
0.070074
0.069667
0.069137
0.068475
0.067906
0.067689
0.067827
0.070129
0.07274
0.089219
0.11068
0.070211
0.070076
0.069668
0.069138
0.068475
0.067904
0.067686
0.067818
0.070105
0.072679
0.088282
0.10855
0.070212
0.070077
0.06967
0.069139
0.068474
0.067902
0.067681
0.067808
0.070077
0.072602
0.08737
0.10654
0.070214
0.070079
0.069671
0.06914
0.068474
0.0679
0.067675
0.067796
0.070044
0.07251
0.086495
0.10465
0.070216
0.070081
0.069672
0.069141
0.068473
0.067898
0.067669
0.067783
0.070006
0.072402
0.085665
0.10288
0.070218
0.070084
0.069674
0.069142
0.068473
0.067895
0.067662
0.06777
0.069962
0.07228
0.084883
0.10121
0.070221
0.070086
0.069676
0.069143
0.068472
0.067892
0.067654
0.067755
0.069913
0.072147
0.084148
0.099647
0.070224
0.070089
0.069678
0.069144
0.068471
0.067889
0.067646
0.067738
0.069857
0.072004
0.083459
0.098176
0.070227
0.070092
0.06968
0.069146
0.06847
0.067886
0.067637
0.067721
0.069795
0.071854
0.08281
0.096791
0.07023
0.070095
0.069682
0.069147
0.06847
0.067882
0.067627
0.067702
0.069727
0.071699
0.082196
0.095485
0.070234
0.070098
0.069684
0.069149
0.068468
0.067879
0.067616
0.067682
0.069653
0.07154
0.081614
0.094249
0.070237
0.070102
0.069687
0.06915
0.068467
0.067874
0.067604
0.067661
0.069572
0.07138
0.081058
0.093076
0.070241
0.070106
0.06969
0.069152
0.068466
0.06787
0.067592
0.067638
0.069485
0.07122
0.080523
0.091959
0.070245
0.07011
0.069693
0.069154
0.068465
0.067865
0.067578
0.067614
0.069392
0.071062
0.080005
0.090891
0.07025
0.070114
0.069696
0.069156
0.068463
0.06786
0.067565
0.067588
0.069294
0.070906
0.0795
0.089867
0.070255
0.070118
0.069699
0.069158
0.068462
0.067855
0.06755
0.067561
0.06919
0.070753
0.079005
0.088881
0.07026
0.070123
0.069702
0.06916
0.06846
0.06785
0.067534
0.067532
0.069082
0.070603
0.078517
0.087928
0.070265
0.070128
0.069706
0.069162
0.068458
0.067844
0.067518
0.067502
0.068969
0.070458
0.078035
0.087006
0.07027
0.070133
0.06971
0.069165
0.068457
0.067838
0.067501
0.067469
0.068851
0.070316
0.077556
0.08611
0.070276
0.070139
0.069714
0.069167
0.068455
0.067832
0.067483
0.067435
0.068731
0.070178
0.077079
0.085237
0.070282
0.070145
0.069718
0.06917
0.068453
0.067826
0.067465
0.067399
0.068607
0.070044
0.076604
0.084386
0.070289
0.070151
0.069722
0.069172
0.068451
0.067819
0.067445
0.06736
0.068481
0.069913
0.076129
0.083554
0.070295
0.070157
0.069727
0.069175
0.068449
0.067812
0.067425
0.06732
0.068353
0.069784
0.075654
0.082739
0.070302
0.070164
0.069732
0.069178
0.068447
0.067805
0.067404
0.067278
0.068223
0.069657
0.07518
0.081941
0.07031
0.070171
0.069737
0.069181
0.068444
0.067798
0.067383
0.067234
0.068092
0.069533
0.074706
0.081158
0.070317
0.070178
0.069742
0.069184
0.068442
0.06779
0.06736
0.067187
0.067961
0.069409
0.074232
0.080389
0.070325
0.070185
0.069747
0.069187
0.06844
0.067782
0.067337
0.067139
0.067829
0.069286
0.073758
0.079634
0.070333
0.070193
0.069753
0.069191
0.068437
0.067774
0.067312
0.067088
0.067698
0.069164
0.073286
0.078893
0.070342
0.070201
0.069759
0.069194
0.068435
0.067766
0.067287
0.067036
0.067568
0.069041
0.072815
0.078164
0.07035
0.070209
0.069765
0.069198
0.068432
0.067757
0.067261
0.066982
0.067438
0.068917
0.072346
0.077449
0.070359
0.070218
0.069771
0.069202
0.068429
0.067749
0.067234
0.066925
0.067309
0.068793
0.071879
0.076746
0.070369
0.070227
0.069777
0.069206
0.068427
0.06774
0.067206
0.066867
0.067182
0.068667
0.071414
0.076055
0.070379
0.070236
0.069784
0.06921
0.068424
0.067731
0.067177
0.066808
0.067056
0.068539
0.070953
0.075377
0.070389
0.070246
0.069791
0.069215
0.068421
0.067721
0.067147
0.066747
0.066932
0.06841
0.070495
0.074711
0.070399
0.070255
0.069798
0.069219
0.068418
0.067712
0.067117
0.066684
0.066809
0.068279
0.070042
0.074057
0.07041
0.070266
0.069806
0.069224
0.068415
0.067702
0.067085
0.06662
0.066688
0.068145
0.069592
0.073415
0.070421
0.070276
0.069814
0.069229
0.068412
0.067692
0.067052
0.066555
0.066569
0.068009
0.069148
0.072785
0.070433
0.070287
0.069822
0.069234
0.06841
0.067682
0.067018
0.06649
0.066451
0.067871
0.068708
0.072167
0.070445
0.070298
0.06983
0.069239
0.068407
0.067671
0.066983
0.066423
0.066335
0.067731
0.068274
0.071561
0.070457
0.07031
0.069839
0.069244
0.068404
0.067661
0.066946
0.066356
0.06622
0.067588
0.067846
0.070967
0.070469
0.070322
0.069847
0.06925
0.068401
0.06765
0.066909
0.066289
0.066107
0.067443
0.067423
0.070384
0.070482
0.070334
0.069857
0.069256
0.068398
0.067639
0.06687
0.066221
0.065994
0.067296
0.067006
0.069814
0.070496
0.070347
0.069866
0.069262
0.068395
0.067628
0.066831
0.066154
0.065883
0.067146
0.066596
0.069254
0.07051
0.07036
0.069876
0.069268
0.068392
0.067617
0.06679
0.066086
0.065772
0.066994
0.066192
0.068706
0.070524
0.070374
0.069886
0.069275
0.068389
0.067605
0.066748
0.066019
0.065661
0.066841
0.065794
0.068169
0.070539
0.070388
0.069896
0.069281
0.068386
0.067594
0.066705
0.065952
0.065551
0.066685
0.065403
0.067642
0.070554
0.070402
0.069907
0.069288
0.068383
0.067582
0.066661
0.065886
0.065441
0.066528
0.065018
0.067127
0.070569
0.070417
0.069918
0.069295
0.06838
0.06757
0.066616
0.06582
0.065331
0.066369
0.064639
0.066621
0.070585
0.070432
0.069929
0.069303
0.068377
0.067558
0.06657
0.065756
0.06522
0.066208
0.064267
0.066126
0.070601
0.070447
0.069941
0.06931
0.068374
0.067546
0.066522
0.065692
0.06511
0.066046
0.063901
0.065641
0.070618
0.070463
0.069953
0.069318
0.068371
0.067533
0.066474
0.065629
0.064998
0.065882
0.063542
0.065166
0.070636
0.07048
0.069965
0.069327
0.068369
0.06752
0.066425
0.065567
0.064886
0.065717
0.063188
0.0647
0.070653
0.070496
0.069978
0.069335
0.068366
0.067508
0.066375
0.065506
0.064773
0.065551
0.062841
0.064242
0.070672
0.070514
0.069991
0.069344
0.068363
0.067494
0.066324
0.065447
0.064659
0.065384
0.062499
0.063794
0.07069
0.070532
0.070005
0.069353
0.068361
0.067481
0.066272
0.065388
0.064543
0.065216
0.062164
0.063354
0.07071
0.07055
0.070019
0.069362
0.068359
0.067468
0.06622
0.065331
0.064427
0.065047
0.061834
0.062923
0.070729
0.070569
0.070033
0.069372
0.068356
0.067454
0.066167
0.065274
0.064309
0.064877
0.061509
0.062499
0.07075
0.070588
0.070048
0.069382
0.068354
0.06744
0.066113
0.065219
0.06419
0.064706
0.06119
0.062083
0.070771
0.070608
0.070063
0.069393
0.068352
0.067426
0.066059
0.065164
0.06407
0.064535
0.060875
0.061674
0.070792
0.070628
0.070079
0.069403
0.06835
0.067412
0.066005
0.065111
0.063949
0.064363
0.060566
0.061272
0.070814
0.070649
0.070095
0.069414
0.068349
0.067397
0.06595
0.065058
0.063826
0.06419
0.060261
0.060877
0.070836
0.07067
0.070111
0.069426
0.068347
0.067382
0.065895
0.065007
0.063702
0.064017
0.059962
0.060489
0.070859
0.070692
0.070128
0.069438
0.068346
0.067367
0.06584
0.064956
0.063577
0.063843
0.059666
0.060106
0.070883
0.070715
0.070146
0.06945
0.068345
0.067352
0.065785
0.064905
0.063451
0.063668
0.059375
0.05973
0.070907
0.070738
0.070163
0.069462
0.068344
0.067337
0.06573
0.064855
0.063324
0.063493
0.059088
0.059359
0.070932
0.070762
0.070182
0.069475
0.068343
0.067321
0.065675
0.064806
0.063195
0.063318
0.058805
0.058994
0.070957
0.070786
0.070201
0.069489
0.068342
0.067306
0.06562
0.064756
0.063066
0.063142
0.058526
0.058633
0.070983
0.070811
0.07022
0.069502
0.068342
0.06729
0.065566
0.064707
0.062936
0.062966
0.05825
0.058278
0.07101
0.070837
0.07024
0.069517
0.068342
0.067274
0.065512
0.064658
0.062805
0.06279
0.057978
0.057928
0.071038
0.070863
0.070261
0.069531
0.068342
0.067258
0.065458
0.064609
0.062674
0.062613
0.057709
0.057582
0.071066
0.07089
0.070282
0.069547
0.068342
0.067241
0.065405
0.06456
0.062541
0.062436
0.057444
0.05724
0.071094
0.070917
0.070304
0.069562
0.068343
0.067225
0.065352
0.064511
0.062409
0.062259
0.057182
0.056902
0.071124
0.070945
0.070326
0.069578
0.068344
0.067208
0.0653
0.064461
0.062276
0.062082
0.056923
0.056569
0.071154
0.070974
0.070349
0.069595
0.068345
0.067192
0.065249
0.064411
0.062142
0.061905
0.056667
0.056239
0.071185
0.071004
0.070373
0.069612
0.068347
0.067176
0.065198
0.06436
0.062008
0.061728
0.056413
0.055913
0.071217
0.071034
0.070397
0.06963
0.068349
0.067159
0.065149
0.064309
0.061875
0.06155
0.056163
0.055591
0.071249
0.071065
0.070422
0.069648
0.068351
0.067143
0.0651
0.064257
0.061741
0.061373
0.055915
0.055272
0.071282
0.071097
0.070447
0.069667
0.068353
0.067126
0.065052
0.064205
0.061607
0.061196
0.05567
0.054956
0.071316
0.07113
0.070473
0.069687
0.068356
0.06711
0.065005
0.064151
0.061473
0.061019
0.055428
0.054644
0.071351
0.071163
0.0705
0.069707
0.068359
0.067094
0.064958
0.064097
0.061339
0.060842
0.055187
0.054334
0.071387
0.071197
0.070528
0.069727
0.068362
0.067079
0.064913
0.064043
0.061206
0.060665
0.05495
0.054028
0.071423
0.071233
0.070556
0.069749
0.068366
0.067063
0.064868
0.063987
0.061072
0.060488
0.054715
0.053725
0.07146
0.071269
0.070585
0.069771
0.06837
0.067048
0.064825
0.063931
0.060939
0.060312
0.054482
0.053424
0.071499
0.071305
0.070615
0.069793
0.068375
0.067034
0.064782
0.063873
0.060807
0.060136
0.054251
0.053127
0.071538
0.071343
0.070646
0.069817
0.06838
0.067019
0.06474
0.063815
0.060675
0.059961
0.054023
0.052832
0.071578
0.071382
0.070678
0.069841
0.068385
0.067006
0.064699
0.063757
0.060543
0.059786
0.053797
0.052539
0.071619
0.071421
0.07071
0.069866
0.068391
0.066993
0.064659
0.063697
0.060412
0.059611
0.053573
0.05225
0.071661
0.071462
0.070743
0.069891
0.068397
0.06698
0.06462
0.063637
0.060282
0.059437
0.053352
0.051963
0.071704
0.071503
0.070777
0.069918
0.068404
0.066969
0.064581
0.063576
0.060152
0.059263
0.053132
0.051679
0.071748
0.071546
0.070812
0.069945
0.068411
0.066958
0.064544
0.063514
0.060022
0.05909
0.052915
0.051397
0.071793
0.07159
0.070848
0.069973
0.068418
0.066948
0.064506
0.063451
0.059894
0.058917
0.0527
0.051118
0.071839
0.071634
0.070885
0.070002
0.068426
0.066939
0.06447
0.063388
0.059766
0.058745
0.052487
0.050841
0.071886
0.07168
0.070923
0.070032
0.068435
0.066931
0.064434
0.063325
0.059639
0.058574
0.052276
0.050567
0.071935
0.071727
0.070962
0.070062
0.068444
0.066923
0.064399
0.063261
0.059512
0.058403
0.052067
0.050295
0.071984
0.071775
0.071002
0.070094
0.068453
0.066917
0.064364
0.063197
0.059386
0.058233
0.05186
0.050026
0.072035
0.071824
0.071043
0.070126
0.068464
0.066912
0.06433
0.063132
0.059261
0.058064
0.051656
0.049759
0.072087
0.071874
0.071085
0.07016
0.068474
0.066909
0.064296
0.063067
0.059137
0.057895
0.051453
0.049495
0.07214
0.071926
0.071129
0.070195
0.068486
0.066906
0.064263
0.063002
0.059014
0.057727
0.051252
0.049233
0.072194
0.071978
0.071173
0.07023
0.068498
0.066905
0.06423
0.062936
0.058891
0.057559
0.051053
0.048973
0.07225
0.072032
0.071219
0.070267
0.068511
0.066905
0.064198
0.062871
0.058769
0.057393
0.050856
0.048716
0.072307
0.072088
0.071265
0.070305
0.068524
0.066907
0.064166
0.062805
0.058648
0.057227
0.050661
0.04846
0.072365
0.072144
0.071313
0.070343
0.068539
0.066909
0.064134
0.06274
0.058528
0.057062
0.050468
0.048208
0.072425
0.072202
0.071363
0.070383
0.068554
0.066914
0.064103
0.062674
0.058409
0.056897
0.050277
0.047957
0.072486
0.072262
0.071413
0.070425
0.06857
0.06692
0.064072
0.062609
0.058291
0.056733
0.050087
0.047709
0.072548
0.072323
0.071466
0.070467
0.068586
0.066927
0.064041
0.062544
0.058173
0.05657
0.0499
0.047462
0.072612
0.072385
0.071519
0.070511
0.068604
0.066936
0.064011
0.062479
0.058057
0.056408
0.049714
0.047218
0.072678
0.072449
0.071574
0.070556
0.068623
0.066946
0.063981
0.062414
0.057941
0.056247
0.04953
0.046976
0.072745
0.072515
0.07163
0.070602
0.068643
0.066958
0.063951
0.06235
0.057826
0.056086
0.049347
0.046736
0.072814
0.072582
0.071688
0.070649
0.068664
0.066971
0.063922
0.062286
0.057713
0.055926
0.049167
0.046498
0.072884
0.07265
0.071747
0.070698
0.068686
0.066987
0.063893
0.062222
0.0576
0.055767
0.048988
0.046262
0.072956
0.072721
0.071808
0.070749
0.068709
0.067003
0.063865
0.062159
0.057488
0.055608
0.04881
0.046028
0.07303
0.072793
0.071871
0.070801
0.068733
0.067021
0.063837
0.062096
0.057377
0.05545
0.048634
0.045795
0.073105
0.072867
0.071936
0.070854
0.068759
0.067041
0.06381
0.062034
0.057268
0.055293
0.04846
0.045565
0.073183
0.072943
0.072002
0.070909
0.068786
0.067062
0.063784
0.061973
0.057159
0.055136
0.048287
0.045336
0.073262
0.07302
0.07207
0.070965
0.068814
0.067085
0.063758
0.061912
0.057051
0.05498
0.048115
0.045109
0.073343
0.0731
0.072139
0.071023
0.068844
0.067109
0.063733
0.061851
0.056944
0.054825
0.047945
0.044883
0.073427
0.073181
0.072211
0.071083
0.068876
0.067135
0.063709
0.061791
0.056839
0.05467
0.047777
0.044659
0.073512
0.073265
0.072285
0.071145
0.068909
0.067163
0.063686
0.061732
0.056734
0.054516
0.047609
0.044436
0.073599
0.07335
0.07236
0.071208
0.068944
0.067192
0.063663
0.061674
0.05663
0.054362
0.047443
0.044215
0.073688
0.073438
0.072438
0.071273
0.068981
0.067222
0.063642
0.061616
0.056528
0.054209
0.047277
0.043995
0.07378
0.073528
0.072518
0.07134
0.069019
0.067254
0.063622
0.061559
0.056426
0.054057
0.047113
0.043776
0.073874
0.07362
0.0726
0.071409
0.06906
0.067287
0.063603
0.061503
0.056326
0.053905
0.04695
0.043558
0.07397
0.073715
0.072684
0.07148
0.069102
0.067322
0.063585
0.061448
0.056226
0.053754
0.046788
0.043341
0.074069
0.073812
0.07277
0.071553
0.069147
0.067359
0.063569
0.061393
0.056128
0.053603
0.046627
0.043125
0.07417
0.073911
0.072859
0.071628
0.069193
0.067396
0.063553
0.061339
0.056031
0.053452
0.046466
0.04291
0.074273
0.074013
0.072951
0.071705
0.069242
0.067436
0.06354
0.061287
0.055935
0.053302
0.046307
0.042696
0.074379
0.074117
0.073045
0.071785
0.069293
0.067476
0.063528
0.061235
0.055839
0.053153
0.046148
0.042483
0.074488
0.074224
0.073141
0.071867
0.069347
0.067518
0.063517
0.061184
0.055746
0.053004
0.04599
0.042269
0.0746
0.074334
0.07324
0.071951
0.069403
0.067562
0.063508
0.061135
0.055653
0.052855
0.045832
0.042057
0.074714
0.074447
0.073342
0.072038
0.069461
0.067607
0.063501
0.061086
0.055561
0.052707
0.045675
0.041845
0.074831
0.074563
0.073447
0.072127
0.069522
0.067653
0.063496
0.061039
0.05547
0.052559
0.045518
0.041633
0.074951
0.074681
0.073555
0.072219
0.069586
0.067701
0.063492
0.060992
0.055381
0.052412
0.045361
0.041421
0.075074
0.074803
0.073666
0.072314
0.069652
0.067751
0.063491
0.060947
0.055292
0.052265
0.045205
0.041209
0.075201
0.074928
0.073779
0.072412
0.069722
0.067802
0.063491
0.060903
0.055205
0.052118
0.045049
0.040997
0.07533
0.075056
0.073896
0.072512
0.069794
0.067855
0.063494
0.06086
0.055119
0.051972
0.044894
0.040785
0.075463
0.075187
0.074017
0.072616
0.069869
0.067909
0.063498
0.060819
0.055034
0.051826
0.044738
0.040573
0.0756
0.075322
0.07414
0.072723
0.069948
0.067966
0.063505
0.060779
0.05495
0.05168
0.044582
0.04036
0.07574
0.07546
0.074267
0.072833
0.070029
0.068024
0.063514
0.06074
0.054868
0.051534
0.044427
0.040147
0.075883
0.075603
0.074398
0.072946
0.070114
0.068083
0.063525
0.060703
0.054786
0.051389
0.044271
0.039934
0.07603
0.075749
0.074532
0.073063
0.070202
0.068145
0.063538
0.060667
0.054706
0.051244
0.044115
0.039719
0.076182
0.075898
0.074671
0.073184
0.070293
0.068209
0.063554
0.060633
0.054627
0.0511
0.043958
0.039504
0.076337
0.076052
0.074813
0.073308
0.070388
0.068275
0.063572
0.0606
0.054549
0.050955
0.043801
0.039288
0.076496
0.07621
0.074959
0.073437
0.070487
0.068342
0.063592
0.060569
0.054472
0.050811
0.043644
0.039071
0.07666
0.076373
0.075109
0.073569
0.070589
0.068413
0.063615
0.060539
0.054396
0.050667
0.043486
0.038853
0.076827
0.07654
0.075264
0.073705
0.070695
0.068485
0.063641
0.060511
0.054322
0.050523
0.043328
0.038633
0.077
0.076711
0.075423
0.073846
0.070805
0.06856
0.063669
0.060484
0.054249
0.050379
0.043169
0.038412
0.077177
0.076887
0.075587
0.073992
0.070919
0.068638
0.063699
0.060459
0.054177
0.050235
0.043009
0.03819
0.077359
0.077068
0.075755
0.074142
0.071037
0.068719
0.063733
0.060436
0.054106
0.050092
0.042848
0.037966
0.077546
0.077254
0.075929
0.074297
0.071159
0.068802
0.063769
0.060415
0.054036
0.049948
0.042687
0.037741
0.077738
0.077445
0.076107
0.074457
0.071286
0.068888
0.063807
0.060395
0.053968
0.049805
0.042524
0.037514
0.077935
0.077642
0.076291
0.074622
0.071417
0.068978
0.063849
0.060377
0.053901
0.049661
0.04236
0.037284
0.078138
0.077844
0.07648
0.074792
0.071552
0.06907
0.063894
0.060361
0.053835
0.049518
0.042196
0.037053
0.078346
0.078052
0.076674
0.074968
0.071693
0.069166
0.063941
0.060347
0.05377
0.049374
0.042029
0.03682
0.07856
0.078266
0.076875
0.07515
0.071838
0.069266
0.063992
0.060334
0.053706
0.049231
0.041862
0.036584
0.07878
0.078486
0.077081
0.075337
0.071988
0.06937
0.064046
0.060324
0.053644
0.049087
0.041693
0.036346
0.079007
0.078712
0.077294
0.075531
0.072143
0.069477
0.064103
0.060315
0.053582
0.048943
0.041522
0.036106
0.07924
0.078945
0.077512
0.075731
0.072304
0.069589
0.064163
0.060308
0.053522
0.048799
0.04135
0.035863
0.07948
0.079185
0.077738
0.075938
0.072471
0.069704
0.064227
0.060304
0.053463
0.048654
0.041176
0.035617
0.079726
0.079432
0.07797
0.076152
0.072643
0.069825
0.064294
0.060301
0.053405
0.048509
0.041
0.035368
0.07998
0.079686
0.07821
0.076373
0.072821
0.06995
0.064365
0.0603
0.053348
0.048364
0.040823
0.035116
0.080241
0.079948
0.078457
0.076601
0.073006
0.07008
0.06444
0.060302
0.053292
0.048219
0.040643
0.03486
0.08051
0.080218
0.078711
0.076836
0.073197
0.070215
0.064519
0.060305
0.053237
0.048072
0.040461
0.034602
0.080787
0.080495
0.078974
0.07708
0.073394
0.070355
0.064602
0.060311
0.053183
0.047926
0.040276
0.03434
0.081072
0.080781
0.079244
0.077331
0.073599
0.070501
0.064689
0.060319
0.053131
0.047778
0.040089
0.034074
0.081366
0.081076
0.079523
0.077591
0.073811
0.070652
0.06478
0.060329
0.053079
0.04763
0.0399
0.033804
0.081668
0.08138
0.079811
0.07786
0.07403
0.07081
0.064876
0.060342
0.053028
0.047481
0.039707
0.03353
0.08198
0.081694
0.080109
0.078138
0.074258
0.070974
0.064977
0.060357
0.052978
0.04733
0.039512
0.033252
0.082302
0.082017
0.080416
0.078425
0.074493
0.071144
0.065082
0.060374
0.052929
0.047179
0.039314
0.032969
0.082633
0.082351
0.080732
0.078721
0.074737
0.071321
0.065193
0.060394
0.05288
0.047027
0.039112
0.032681
0.082975
0.082694
0.081059
0.079028
0.07499
0.071505
0.065308
0.060417
0.052833
0.046873
0.038907
0.032389
0.083328
0.083049
0.081397
0.079345
0.075253
0.071697
0.065429
0.060442
0.052786
0.046718
0.038698
0.032091
0.083691
0.083416
0.081747
0.079673
0.075525
0.071896
0.065556
0.06047
0.05274
0.046562
0.038485
0.031788
0.084067
0.083794
0.082107
0.080012
0.075807
0.072104
0.065689
0.060501
0.052695
0.046403
0.038268
0.031479
0.084454
0.084185
0.08248
0.080362
0.0761
0.072319
0.065828
0.060535
0.05265
0.046243
0.038047
0.031164
0.084855
0.084588
0.082866
0.080725
0.076403
0.072544
0.065973
0.060572
0.052606
0.046081
0.037821
0.030842
0.085268
0.085005
0.083265
0.0811
0.076719
0.072777
0.066125
0.060612
0.052563
0.045917
0.03759
0.030514
0.085695
0.085436
0.083678
0.081488
0.077046
0.07302
0.066284
0.060655
0.05252
0.04575
0.037354
0.030179
0.086137
0.085881
0.084105
0.08189
0.077385
0.073273
0.06645
0.060702
0.052477
0.04558
0.037112
0.029835
0.086593
0.086342
0.084547
0.082305
0.077738
0.073536
0.066623
0.060752
0.052434
0.045408
0.036865
0.029484
0.087065
0.086818
0.085005
0.082736
0.078104
0.07381
0.066805
0.060806
0.052392
0.045233
0.036611
0.029125
0.087554
0.087311
0.085479
0.083181
0.078484
0.074096
0.066994
0.060863
0.05235
0.045054
0.03635
0.028756
0.088059
0.087821
0.085971
0.083643
0.078879
0.074392
0.067192
0.060925
0.052308
0.044872
0.036083
0.028378
0.088583
0.08835
0.08648
0.084121
0.079289
0.074701
0.067398
0.06099
0.052266
0.044685
0.035807
0.02799
0.089125
0.088897
0.087008
0.084616
0.079716
0.075023
0.067613
0.061059
0.052224
0.044495
0.035524
0.027591
0.089686
0.089465
0.087556
0.085129
0.080159
0.075358
0.067838
0.061133
0.052181
0.0443
0.035232
0.02718
0.090268
0.090053
0.088124
0.085661
0.080619
0.075707
0.068072
0.061211
0.052138
0.044099
0.03493
0.026758
0.090872
0.090663
0.088714
0.086213
0.081098
0.07607
0.068316
0.061293
0.052093
0.043894
0.034619
0.026322
0.091498
0.091295
0.089327
0.086786
0.081596
0.076449
0.068571
0.061379
0.052048
0.043682
0.034297
0.025873
0.092147
0.091952
0.089963
0.08738
0.082113
0.076842
0.068837
0.06147
0.052002
0.043464
0.033964
0.02541
0.092822
0.092634
0.090624
0.087997
0.082651
0.077252
0.069113
0.061566
0.051954
0.043238
0.033619
0.024931
0.093522
0.093343
0.091312
0.088638
0.083211
0.077679
0.069401
0.061666
0.051904
0.043006
0.03326
0.024435
0.09425
0.09408
0.092027
0.089304
0.083794
0.078124
0.069701
0.06177
0.051851
0.042764
0.032888
0.023922
0.095008
0.094846
0.092771
0.089996
0.084399
0.078587
0.070013
0.06188
0.051796
0.042514
0.032501
0.023391
0.095795
0.095643
0.093545
0.090716
0.08503
0.079069
0.070337
0.061993
0.051738
0.042254
0.032098
0.022839
0.096615
0.096474
0.094352
0.091465
0.085686
0.07957
0.070674
0.062111
0.051676
0.041982
0.031678
0.022266
0.097469
0.097338
0.095193
0.092245
0.08637
0.080092
0.071024
0.062233
0.051609
0.041699
0.031239
0.02167
0.098359
0.09824
0.09607
0.093057
0.087081
0.080636
0.071387
0.062359
0.051537
0.041403
0.03078
0.02105
0.099286
0.09918
0.096985
0.093904
0.087822
0.081202
0.071764
0.062488
0.051458
0.041093
0.0303
0.020404
0.10025
0.10016
0.097939
0.094787
0.088595
0.08179
0.072155
0.062621
0.051373
0.040767
0.029797
0.019731
0.10127
0.10119
0.098937
0.095708
0.0894
0.082403
0.072559
0.062756
0.051279
0.040424
0.029269
0.019028
0.10232
0.10226
0.09998
0.09667
0.090239
0.08304
0.072977
0.062893
0.051176
0.040062
0.028714
0.018293
0.10343
0.10338
0.10107
0.097674
0.091114
0.083703
0.073409
0.063031
0.051062
0.039679
0.02813
0.017524
0.10458
0.10455
0.10221
0.098725
0.092027
0.084392
0.073855
0.063169
0.050935
0.039273
0.027515
0.01672
0.10579
0.10578
0.10341
0.099824
0.09298
0.085109
0.074314
0.063306
0.050793
0.038843
0.026866
0.015876
0.10706
0.10707
0.10466
0.10097
0.093974
0.085854
0.074787
0.063442
0.050635
0.038384
0.02618
0.014991
0.10839
0.10842
0.10598
0.10218
0.095013
0.086628
0.075272
0.063573
0.050457
0.037894
0.025454
0.01406
0.10978
0.10984
0.10736
0.10344
0.096099
0.087433
0.07577
0.063698
0.050257
0.037371
0.024684
0.013082
0.11125
0.11134
0.10882
0.10477
0.097234
0.088269
0.076279
0.063816
0.050032
0.03681
0.023868
0.012053
0.1128
0.11291
0.11035
0.10616
0.098421
0.089136
0.076799
0.063922
0.049778
0.036207
0.023
0.010967
0.11442
0.11457
0.11196
0.10763
0.099663
0.090037
0.077327
0.064015
0.049491
0.035557
0.022076
0.0098218
0.11614
0.11632
0.11366
0.10917
0.10096
0.090971
0.077862
0.064091
0.049166
0.034856
0.021091
0.0086118
0.11794
0.11816
0.11545
0.1108
0.10232
0.091938
0.078403
0.064145
0.048798
0.034097
0.020039
0.007332
0.11986
0.12012
0.11735
0.11251
0.10375
0.09294
0.078945
0.064173
0.048379
0.033274
0.018915
0.0059766
0.12188
0.12218
0.11936
0.11432
0.10525
0.093977
0.079487
0.064167
0.047904
0.032379
0.01771
0.0045393
0.12402
0.12437
0.12148
0.11623
0.10681
0.095047
0.080022
0.064123
0.047363
0.031403
0.016417
0.0030132
0.1263
0.1267
0.12374
0.11824
0.10846
0.09615
0.080547
0.06403
0.046747
0.030338
0.015027
0.0013907
0.12871
0.12918
0.12614
0.12038
0.11018
0.097285
0.081055
0.06388
0.046045
0.029172
0.013531
-0.00033696
0.13129
0.13181
0.12869
0.12265
0.11199
0.098448
0.081537
0.063661
0.045244
0.027892
0.011917
-0.0021791
0.13403
0.13462
0.13142
0.12505
0.11388
0.099637
0.081984
0.063358
0.044328
0.026484
0.010173
-0.0041462
0.13696
0.13763
0.13432
0.12761
0.11587
0.10084
0.082382
0.062956
0.043281
0.024932
0.0082844
-0.0062502
0.1401
0.14085
0.13743
0.13032
0.11795
0.10206
0.082717
0.062435
0.042082
0.023217
0.006236
-0.0085038
0.14347
0.14431
0.14076
0.13321
0.12012
0.10328
0.082968
0.06177
0.040707
0.021318
0.0040097
-0.010922
0.14709
0.14802
0.14434
0.13628
0.12238
0.10449
0.083111
0.060934
0.039127
0.01921
0.0015853
-0.01352
0.15099
0.15203
0.14818
0.13955
0.12474
0.10566
0.083115
0.059891
0.037311
0.016865
-0.0010598
-0.016317
0.15521
0.15636
0.15232
0.14303
0.12717
0.10678
0.082943
0.058601
0.03522
0.01425
-0.0039513
-0.019331
0.15978
0.16106
0.15679
0.14673
0.12967
0.10779
0.082544
0.057013
0.032808
0.011329
-0.007118
-0.022585
0.16475
0.16616
0.16162
0.15066
0.13221
0.10866
0.081858
0.055065
0.030023
0.0080599
-0.010592
-0.026103
0.17018
0.17173
0.16685
0.15483
0.13476
0.10932
0.080809
0.052686
0.026803
0.004394
-0.01441
-0.02991
0.17612
0.17782
0.17252
0.15924
0.13727
0.10968
0.079298
0.049786
0.023076
0.00027738
-0.01861
-0.034034
0.18265
0.18451
0.17867
0.16385
0.13964
0.10963
0.077205
0.046258
0.018759
-0.0043506
-0.023237
-0.038504
0.18987
0.19189
0.18535
0.16864
0.14178
0.10901
0.074377
0.041977
0.013756
-0.0095569
-0.028337
-0.04335
0.19789
0.20006
0.19259
0.17352
0.1435
0.10761
0.070624
0.036793
0.0079601
-0.015414
-0.033959
-0.048598
0.20686
0.20915
0.20041
0.17837
0.14457
0.10518
0.065714
0.030532
0.0012531
-0.021998
-0.040148
-0.054271
0.21695
0.21929
0.2088
0.18296
0.14466
0.10136
0.059365
0.022998
-0.0064902
-0.029382
-0.046945
-0.06038
0.2284
0.23067
0.21766
0.18694
0.14326
0.095707
0.051247
0.013978
-0.015392
-0.037628
-0.054373
-0.066914
0.24153
0.24344
0.22677
0.18974
0.13974
0.087671
0.040989
0.003263
-0.025551
-0.046766
-0.06242
-0.073829
0.25675
0.25776
0.23566
0.19049
0.13319
0.0766
0.028215
-0.0093149
-0.037006
-0.056764
-0.071013
-0.081024
0.27465
0.27361
0.24344
0.18789
0.1225
0.061801
0.012624
-0.023804
-0.049673
-0.067479
-0.079983
-0.088328
0.29602
0.29065
0.24851
0.18011
0.1064
0.042699
-0.0058497
-0.04001
-0.063259
-0.078605
-0.089037
-0.095489
0.32187
0.30767
0.24816
0.16482
0.08372
0.01917
-0.026788
-0.057342
-0.077179
-0.089637
-0.097758
-0.10219
0.35317
0.32202
0.23864
0.13966
0.054122
-0.0079488
-0.049011
-0.074707
-0.090553
-0.099914
-0.10566
-0.10812
0.38934
0.32852
0.2159
0.10391
0.019164
-0.036419
-0.070539
-0.090646
-0.10238
-0.10877
-0.11232
-0.11305
0.4259
0.31783
0.17603
0.059812
-0.017323
-0.063136
-0.089371
-0.10401
-0.11205
-0.11595
-0.11767
-0.11705
0.46094
0.28341
0.11672
0.0099276
-0.052415
-0.086745
-0.10536
-0.11522
-0.12019
-0.12208
-0.12232
-0.1207
0.50215
0.23835
0.04884
-0.041297
-0.085056
-0.10757
-0.11932
-0.12512
-0.12753
-0.12775
-0.12676
-0.12433
0.12685
0.075435
0.058747
0.050536
0.044746
0.040599
0.037363
0.034755
0.032494
0.030559
0.028769
0.027066
0.10913
0.066013
0.052479
0.045255
0.039989
0.036231
0.033299
0.030939
0.028897
0.027153
0.025547
0.024091
0.086008
0.054205
0.043659
0.037626
0.033102
0.029886
0.027384
0.025379
0.023649
0.022183
0.020837
0.019595
0.082444
0.055081
0.0442
0.038005
0.033335
0.030008
0.027428
0.02537
0.023597
0.022105
0.020736
0.019483
0.083543
0.058197
0.046499
0.03994
0.034973
0.03141
0.028655
0.026463
0.024579
0.023001
0.021554
0.020244
0.083439
0.060086
0.048073
0.041312
0.036137
0.032387
0.02949
0.027192
0.025218
0.023575
0.022066
0.020713
0.082461
0.0613
0.049318
0.04244
0.03711
0.033195
0.030168
0.027772
0.025714
0.024014
0.022449
0.021071
0.081376
0.062336
0.050547
0.043589
0.038131
0.03406
0.030899
0.028399
0.026252
0.02449
0.022866
0.021469
0.080333
0.063211
0.051734
0.044742
0.039192
0.034981
0.031691
0.029084
0.026844
0.025016
0.023329
0.021914
0.07928
0.063868
0.052811
0.045841
0.040242
0.035919
0.032511
0.029801
0.02747
0.025574
0.023824
0.022392
0.078202
0.064311
0.053752
0.046857
0.04125
0.036847
0.033339
0.030536
0.028117
0.026155
0.024342
0.022893
0.077115
0.064572
0.054555
0.047777
0.042198
0.037747
0.034159
0.031274
0.028777
0.026752
0.024878
0.02341
0.07604
0.064684
0.055223
0.048595
0.043074
0.038603
0.034956
0.032005
0.029438
0.027355
0.025424
0.023935
0.074991
0.064675
0.055765
0.04931
0.04387
0.039405
0.035719
0.032715
0.030089
0.027955
0.025971
0.024458
0.073977
0.064569
0.056191
0.049925
0.044584
0.040145
0.036438
0.033395
0.030722
0.028544
0.026512
0.024972
0.073003
0.064387
0.056514
0.050446
0.045217
0.040821
0.037109
0.03404
0.031328
0.029114
0.027039
0.02547
0.072071
0.064148
0.056748
0.050881
0.045772
0.041432
0.037728
0.034644
0.031904
0.02966
0.027547
0.025948
0.071182
0.063864
0.056904
0.051238
0.046255
0.041981
0.038295
0.035207
0.032446
0.030178
0.028033
0.026405
0.070336
0.063548
0.056993
0.051526
0.046671
0.04247
0.038811
0.035727
0.032953
0.030667
0.028494
0.026838
0.06953
0.063209
0.057026
0.051753
0.047026
0.042903
0.039279
0.036205
0.033425
0.031126
0.02893
0.027248
0.068761
0.062852
0.057011
0.051925
0.047326
0.043284
0.0397
0.036643
0.033862
0.031555
0.02934
0.027636
0.068028
0.062484
0.056956
0.05205
0.047577
0.043618
0.040079
0.037042
0.034265
0.031954
0.029725
0.028003
0.067326
0.062108
0.056867
0.052133
0.047784
0.043909
0.040417
0.037406
0.034637
0.032325
0.030085
0.028349
0.066654
0.061726
0.056749
0.05218
0.047951
0.04416
0.04072
0.037737
0.03498
0.03267
0.030421
0.028675
0.066008
0.061342
0.056606
0.052195
0.048083
0.044376
0.040988
0.038036
0.035294
0.032989
0.030735
0.028982
0.065387
0.060957
0.056444
0.052182
0.048184
0.04456
0.041226
0.038307
0.035582
0.033284
0.031028
0.029271