/*--------------------------------*- C++ -*----------------------------------*\
  =========                 |
  \\      /  F ield         | OpenFOAM: The Open Source CFD Toolbox
   \\    /   O peration     | Website:  https://openfoam.org
    \\  /    A nd           | Version:  6.0
     \\/     M anipulation  |
\*---------------------------------------------------------------------------*/
FoamFile
{
    version     2.0;
    format      ascii;
    class       volVectorField;
    location    "7";
    object      U;
}
// * * * * * * * * * * * * * * * * * * * * * * * * * * * * * * * * * * * * * //

dimensions      [0 1 -1 0 0 0 0];

internalField   nonuniform List<vector> 
14500
(
(1 -1.737e-07 -7.5232e-19)
(1 -3.8046e-06 5.0444e-19)
(1 -6.632e-06 -2.1458e-18)
(1 -8.4669e-06 -1.4611e-18)
(1 -8.8099e-06 2.7151e-18)
(1 -5.7399e-06 4.9518e-18)
(1 -7.4159e-07 4.2124e-18)
(0.99997 1.6575e-05 -6.6378e-19)
(0.99993 3.4715e-05 2.4532e-18)
(0.99969 0.00010075 5.1542e-19)
(0.99593 0.00068203 4.6522e-18)
(1.0237 0.010427 1.2374e-18)
(1 -5.2444e-07 3.4692e-19)
(1 -1.1461e-05 -1.1428e-18)
(1 -1.9961e-05 7.6754e-19)
(1 -2.5538e-05 -4.3399e-20)
(1 -2.6576e-05 -5.4945e-20)
(1 -1.7273e-05 -4.5584e-18)
(1 -2.6132e-06 -5.6274e-18)
(0.99992 5.1129e-05 -2.9714e-18)
(0.99979 0.00010576 -1.9399e-18)
(0.99959 0.00025561 -2.0439e-19)
(0.9854 0.0021272 -1.7946e-18)
(1.0696 0.028894 -6.1917e-19)
(1 -8.8421e-07 -4.4809e-19)
(1 -1.9179e-05 2.2705e-18)
(1 -3.338e-05 3.9923e-19)
(1 -4.2775e-05 1.2691e-18)
(1 -4.4493e-05 -4.7511e-19)
(1 -2.8812e-05 3.6514e-18)
(1 -4.5481e-06 -7.922e-19)
(0.99988 8.7101e-05 6.75e-19)
(0.99962 0.00018182 -2.3535e-18)
(1.0001 0.00041271 3.1067e-18)
(0.97308 0.0033133 -9.3674e-19)
(1.1069 0.041608 2.1759e-19)
(1 -1.2526e-06 1.1714e-18)
(1 -2.6957e-05 -2.2013e-18)
(1 -4.6891e-05 -1.8925e-18)
(1 -6.0159e-05 -8.9033e-20)
(1 -6.2551e-05 7.3345e-19)
(1 -4.0389e-05 -1.0138e-19)
(1 -6.4562e-06 7.805e-18)
(0.99984 0.00012354 1.2159e-18)
(0.99943 0.00026382 2.7831e-18)
(1.0012 0.00057868 -1.1258e-18)
(0.95976 0.0042087 4.5545e-18)
(1.1324 0.050275 -9.8885e-19)
(1 -1.6254e-06 -8.2309e-19)
(1 -3.4775e-05 1.9025e-18)
(1 -6.0469e-05 1.611e-18)
(1 -7.7637e-05 1.6242e-18)
(1.0001 -8.0714e-05 3.5964e-19)
(1 -5.2047e-05 2.6835e-18)
(1 -8.4067e-06 -3.4854e-18)
(0.99981 0.00015952 2.4688e-19)
(0.99918 0.00035086 -1.7065e-18)
(1.0029 0.00075664 -2.6893e-19)
(0.94626 0.0048504 -1.185e-18)
(1.1463 0.056016 2.748e-19)
(1 -2.0006e-06 8.3298e-19)
(1 -4.2628e-05 -7.8871e-19)
(1 -7.4104e-05 4.92e-19)
(1 -9.5192e-05 -3.2174e-18)
(1.0001 -9.8974e-05 -1.0531e-20)
(1.0001 -6.3806e-05 -5.3127e-18)
(1 -1.045e-05 1.3374e-19)
(0.99979 0.00019477 -1.9821e-18)
(0.99886 0.00044173 6.4986e-19)
(1.0051 0.00095586 -2.7016e-18)
(0.9333 0.0052773 -2.8387e-18)
(1.1501 0.05954 2.6429e-19)
(1 -2.3787e-06 -1.3788e-19)
(1 -5.0516e-05 -9.4329e-19)
(1 -8.7799e-05 -3.9985e-19)
(1.0001 -0.00011283 2.4284e-18)
(1.0001 -0.00011734 -3.331e-18)
(1.0001 -7.5675e-05 2.0327e-18)
(1 -1.2594e-05 2.3312e-18)
(0.99978 0.00022927 6.9739e-19)
(0.99846 0.00053533 1.4527e-18)
(1.0079 0.0011858 1.4542e-18)
(0.92147 0.0055202 1.22e-18)
(1.1458 0.061412 4.216e-19)
(0.99999 -2.7604e-06 -2.846e-19)
(1 -5.8444e-05 -1.8556e-19)
(1 -0.00010156 -3.4446e-18)
(1.0001 -0.00013057 -1.1596e-18)
(1.0001 -0.00013582 9.3233e-19)
(1.0001 -8.7663e-05 3.331e-18)
(1.0001 -1.4836e-05 1.4837e-18)
(0.99978 0.00026297 6.2245e-19)
(0.99795 0.00063061 -9.4947e-19)
(1.011 0.0014523 2.0339e-18)
(0.9112 0.0056078 9.829e-19)
(1.1353 0.062053 -1.3359e-18)
(0.99999 -3.1463e-06 -8.8349e-19)
(1 -6.6413e-05 7.9779e-19)
(1 -0.00011539 5.7917e-18)
(1.0001 -0.0001484 -1.3909e-18)
(1.0001 -0.00015442 3.4914e-18)
(1.0001 -9.9782e-05 -6.5766e-18)
(1.0001 -1.7172e-05 -4.9428e-18)
(0.9998 0.0002958 1.2094e-18)
(0.99734 0.00072655 -7.1299e-19)
(1.0145 0.0017576 -1.1223e-18)
(0.90278 0.0055698 -1.8185e-18)
(1.1205 0.061782 1.7436e-18)
(0.99999 -3.5367e-06 5.8207e-19)
(1 -7.4426e-05 3.0029e-19)
(1 -0.00012929 -4.9059e-18)
(1.0001 -0.00016635 1.9794e-18)
(1.0001 -0.00017315 -1.5225e-18)
(1.0001 -0.00011204 2.8048e-18)
(1.0001 -1.9605e-05 1.7565e-18)
(0.99984 0.0003277 3.0557e-19)
(0.99662 0.00082213 6.7484e-20)
(1.0182 0.0021011 1.767e-19)
(0.89638 0.0054363 5.7745e-19)
(1.1028 0.060856 -9.3243e-20)
(0.99999 -3.9319e-06 -3.1958e-19)
(1 -8.2484e-05 -9.8483e-19)
(1 -0.00014327 1.2026e-18)
(1.0001 -0.0001844 -3.4924e-19)
(1.0001 -0.00019202 2.3502e-19)
(1.0001 -0.00012446 -3.0738e-18)
(1.0001 -2.2137e-05 -4.0454e-18)
(0.99991 0.00035863 -3.8825e-18)
(0.99578 0.00091644 1.9928e-18)
(1.022 0.0024799 2.2926e-19)
(0.89202 0.0052366 -1.465e-18)
(1.0837 0.059482 -7.4683e-19)
(0.99999 -4.3321e-06 4.4111e-19)
(1 -9.0588e-05 3.7199e-19)
(1 -0.00015732 5.7957e-19)
(1.0001 -0.00020256 -2.7832e-19)
(1.0001 -0.00021102 -7.0448e-19)
(1.0001 -0.00013705 1.1626e-18)
(1.0001 -2.4774e-05 2.3417e-18)
(1 0.00038856 2.3983e-18)
(0.99482 0.0010087 1.28e-18)
(1.0259 0.0028893 -2.9049e-18)
(0.88966 0.0049978 1.5516e-20)
(1.0643 0.057825 -8.5924e-19)
(0.99998 -4.7376e-06 -4.4103e-19)
(1 -9.8739e-05 7.3152e-19)
(1 -0.00017145 1.0508e-18)
(1.0001 -0.00022085 7.2676e-19)
(1.0002 -0.00023017 -6.5339e-19)
(1.0002 -0.00014983 5.7151e-19)
(1.0001 -2.752e-05 5.3396e-19)
(1.0001 0.00041751 -2.1417e-19)
(0.99373 0.0010981 -2.069e-18)
(1.0298 0.0033238 2.6918e-18)
(0.88919 0.0047443 1.3706e-20)
(1.0453 0.056008 1.863e-19)
(0.99998 -5.1487e-06 6.7068e-19)
(1 -0.00010694 -5.7101e-19)
(1 -0.00018566 9.1985e-20)
(1.0001 -0.00023926 -6.0624e-19)
(1.0002 -0.00024946 1.4839e-18)
(1.0002 -0.0001628 6.9725e-19)
(1.0001 -3.0383e-05 2.1484e-18)
(1.0003 0.0004455 -7.9518e-19)
(0.99254 0.0011841 -2.5225e-20)
(1.0335 0.0037769 6.5892e-19)
(0.89045 0.0044972 2.2222e-18)
(1.0275 0.054127 1.1884e-19)
(0.99998 -5.5658e-06 1.6175e-19)
(1 -0.00011519 1.2673e-18)
(1.0001 -0.00019996 1.7571e-18)
(1.0001 -0.00025779 -6.0442e-19)
(1.0002 -0.00026892 1.0745e-18)
(1.0002 -0.00017598 -3.255e-19)
(1.0001 -3.3373e-05 -3.7626e-18)
(1.0004 0.00047258 2.5168e-18)
(0.99123 0.0012663 -2.3316e-18)
(1.0371 0.0042423 -3.8041e-18)
(0.89322 0.0042738 -4.8775e-19)
(1.0113 0.052252 1.0957e-19)
(0.99997 -5.9891e-06 -4.1267e-19)
(1 -0.0001235 -1.3477e-18)
(1.0001 -0.00021434 -4.2174e-18)
(1.0001 -0.00027646 1.0184e-18)
(1.0002 -0.00028853 -1.6305e-18)
(1.0002 -0.0001894 1.0435e-18)
(1.0001 -3.6502e-05 -3.5195e-19)
(1.0007 0.0004988 -1.515e-18)
(0.98982 0.0013442 5.1257e-19)
(1.0405 0.0047136 2.2706e-18)
(0.89732 0.0040875 -1.0239e-18)
(0.997 0.050433 1.4969e-18)
(0.99997 -6.4191e-06 4.342e-20)
(1 -0.00013186 1.008e-18)
(1.0001 -0.00022882 2.9117e-18)
(1.0001 -0.00029527 -2.2933e-19)
(1.0002 -0.00030832 -1.6198e-18)
(1.0002 -0.00020305 -1.9446e-18)
(1.0001 -3.9786e-05 1.3447e-18)
(1.0009 0.00052426 8.686e-19)
(0.98831 0.0014174 2.9579e-18)
(1.0436 0.0051849 -3.1731e-19)
(0.90252 0.0039477 2.5445e-19)
(0.98473 0.048707 -5.9744e-19)
(0.99997 -6.8559e-06 -2.4361e-19)
(0.99999 -0.00014027 -1.2213e-18)
(1.0001 -0.00024339 -1.3138e-18)
(1.0001 -0.00031423 7.6639e-19)
(1.0002 -0.00032828 -9.0967e-19)
(1.0002 -0.00021695 -1.5596e-18)
(1.0001 -4.3244e-05 1.3071e-18)
(1.0012 0.00054904 -5.8938e-19)
(0.98672 0.0014857 -3.6586e-18)
(1.0464 0.0056508 -1.776e-18)
(0.90861 0.0038607 1.1046e-18)
(0.97455 0.047095 -6.4521e-19)
(0.99996 -7.2998e-06 -3.4882e-19)
(0.99999 -0.00014875 -4.616e-19)
(1.0001 -0.00025805 -9.7361e-20)
(1.0001 -0.00033333 -3.3559e-18)
(1.0002 -0.00034842 7.6333e-19)
(1.0003 -0.00023113 6.7924e-19)
(1.0001 -4.6898e-05 -2.4836e-18)
(1.0016 0.00057327 -2.0114e-18)
(0.98507 0.0015487 5.3598e-19)
(1.0489 0.0061067 -1.3139e-19)
(0.91539 0.0038293 -1.2756e-18)
(0.96644 0.045611 1.2224e-19)
(0.99996 -7.7513e-06 4.5372e-19)
(0.99999 -0.00015728 2.1161e-18)
(1.0001 -0.00027282 2.5071e-18)
(1.0001 -0.00035258 3.1611e-19)
(1.0003 -0.00036876 2.11e-18)
(1.0003 -0.00024559 1.1901e-18)
(1.0001 -5.0775e-05 3.5857e-19)
(1.002 0.00059708 2.2013e-18)
(0.98335 0.0016062 2.6571e-18)
(1.051 0.0065486 2.1191e-18)
(0.92268 0.003854 9.5198e-19)
(0.9603 0.044262 1.4444e-19)
(0.99995 -8.2107e-06 -2.1626e-19)
(0.99999 -0.00016587 -5.0774e-19)
(1.0001 -0.00028768 -2.6711e-18)
(1.0002 -0.000372 -2.9916e-19)
(1.0003 -0.00038928 -1.5991e-18)
(1.0003 -0.00026035 -6.438e-19)
(1.0001 -5.4905e-05 -2.2992e-19)
(1.0024 0.00062061 -1.9901e-18)
(0.98159 0.0016581 -2.5388e-18)
(1.0527 0.0069732 1.0843e-18)
(0.9303 0.003933 6.5246e-20)
(0.956 0.043046 8.2629e-20)
(0.99995 -8.6782e-06 5.7323e-19)
(0.99998 -0.00017453 -6.6334e-19)
(1.0001 -0.00030265 -2.5052e-18)
(1.0002 -0.00039158 5.6887e-18)
(1.0003 -0.00041001 2.3196e-18)
(1.0003 -0.00027543 -1.5753e-18)
(1.0001 -5.9323e-05 3.0925e-18)
(1.0029 0.00064402 2.6891e-18)
(0.9798 0.001704 4.1182e-18)
(1.054 0.0073779 -3.9711e-18)
(0.9381 0.0040631 -1.7483e-18)
(0.95338 0.041961 2.1632e-20)
(0.99994 -9.1541e-06 -4.1958e-19)
(0.99998 -0.00018326 -1.3311e-19)
(1.0001 -0.00031773 4.2769e-18)
(1.0002 -0.00041133 -4.3002e-18)
(1.0003 -0.00043095 -2.2332e-19)
(1.0003 -0.00029083 5.2196e-18)
(1 -6.4067e-05 9.5811e-19)
(1.0035 0.00066748 -4.1556e-19)
(0.97799 0.0017437 -2.5531e-18)
(1.0549 0.0077608 4.6774e-18)
(0.94595 0.0042397 -7.4018e-19)
(0.95225 0.040998 -3.4584e-20)
(0.99994 -9.6388e-06 -2.1389e-19)
(0.99998 -0.00019205 -2.6523e-19)
(1.0001 -0.00033292 2.2269e-19)
(1.0002 -0.00043126 4.4736e-18)
(1.0003 -0.0004521 -1.2588e-18)
(1.0004 -0.00030657 -3.8578e-18)
(0.99998 -6.918e-05 -2.4432e-18)
(1.0041 0.00069116 -4.4731e-19)
(0.97618 0.0017771 8.0675e-19)
(1.0555 0.0081204 -3.9422e-18)
(0.95373 0.0044574 1.24e-18)
(0.95242 0.04015 3.7307e-19)
(0.99993 -1.0133e-05 3.5347e-19)
(0.99997 -0.00020091 1.8461e-18)
(1.0001 -0.00034823 -1.6425e-18)
(1.0002 -0.00045137 -4.6846e-19)
(1.0003 -0.00047348 -2.4158e-18)
(1.0004 -0.00032267 4.1967e-18)
(0.99992 -7.4709e-05 -2.1443e-18)
(1.0047 0.00071525 1.8528e-18)
(0.97439 0.001804 -2.4864e-19)
(1.0556 0.0084558 3.6938e-18)
(0.96133 0.0047106 -1.2092e-18)
(0.9537 0.039407 -6.223e-19)
(0.99993 -1.0636e-05 -6.7794e-20)
(0.99997 -0.00020984 -1.0617e-18)
(1.0001 -0.00036365 -2.2998e-18)
(1.0002 -0.00047167 -1.2835e-18)
(1.0003 -0.00049509 2.3432e-18)
(1.0004 -0.00033915 -5.3512e-18)
(0.99985 -8.0703e-05 -3.3061e-19)
(1.0054 0.00073992 -2.5034e-18)
(0.97263 0.0018241 4.0098e-19)
(1.0554 0.0087665 -1.0652e-18)
(0.96866 0.0049932 1.287e-18)
(0.9559 0.038757 2.6356e-19)
(0.99992 -1.1149e-05 3.5514e-19)
(0.99996 -0.00021885 -1.1373e-18)
(1.0001 -0.00037919 -2.2717e-19)
(1.0002 -0.00049216 3.1182e-19)
(1.0004 -0.00051693 7.4157e-19)
(1.0005 -0.000356 1.5462e-18)
(0.99977 -8.7217e-05 5.4239e-18)
(1.0061 0.00076536 2.9901e-19)
(0.97092 0.0018374 6.5282e-19)
(1.0548 0.0090525 1.1719e-18)
(0.97567 0.0052992 -1.0997e-18)
(0.95884 0.038189 2.0165e-19)
(0.99991 -1.1672e-05 -2.0364e-19)
(0.99996 -0.00022793 1.1362e-18)
(1.0001 -0.00039486 3.2691e-18)
(1.0002 -0.00051286 -3.142e-18)
(1.0004 -0.00053902 -1.1534e-18)
(1.0005 -0.00037325 -2.7197e-19)
(0.99967 -9.4307e-05 -1.7878e-18)
(1.0069 0.00079172 2.3185e-19)
(0.96926 0.0018435 -1.1317e-18)
(1.0538 0.0093139 -4.3154e-19)
(0.98228 0.0056229 -3.0431e-20)
(0.96236 0.037693 -2.4659e-19)
(0.99991 -1.2206e-05 -2.1887e-19)
(0.99995 -0.0002371 6.8008e-19)
(1.0001 -0.00041066 -7.9077e-20)
(1.0002 -0.00053376 1.0419e-18)
(1.0004 -0.00056136 -2.1281e-18)
(1.0005 -0.00039092 3.0779e-18)
(0.99956 -0.00010203 8.9132e-19)
(1.0078 0.00081919 -2.2121e-18)
(0.96768 0.0018426 -1.4495e-18)
(1.0526 0.0095512 -1.7042e-18)
(0.98846 0.0059588 1.7484e-19)
(0.96632 0.037259 -4.5017e-19)
(0.9999 -1.275e-05 7.6059e-20)
(0.99995 -0.00024634 -1.6241e-18)
(1.0001 -0.00042659 2.0242e-18)
(1.0002 -0.00055488 2.8815e-18)
(1.0004 -0.00058396 4.1712e-18)
(1.0006 -0.000409 -2.2603e-18)
(0.99943 -0.00011046 -2.2164e-18)
(1.0086 0.0008479 4.4924e-19)
(0.96618 0.0018343 1.3581e-18)
(1.051 0.009765 1.3331e-18)
(0.99416 0.0063017 8.103e-19)
(0.97056 0.036877 4.4739e-19)
(0.99989 -1.3305e-05 1.4576e-19)
(0.99994 -0.00025566 1.2915e-18)
(1.0001 -0.00044266 -4.6506e-18)
(1.0002 -0.00057621 -4.1755e-19)
(1.0004 -0.00060683 -3.4648e-18)
(1.0006 -0.00042752 -1.4236e-18)
(0.99928 -0.00011964 3.1393e-21)
(1.0095 0.000878 -5.1276e-19)
(0.96479 0.0018188 -2.6728e-18)
(1.0491 0.0099561 -2.1271e-18)
(0.99937 0.0066469 -1.1045e-18)
(0.97497 0.036538 -2.1964e-19)
(0.99989 -1.3872e-05 -9.4473e-20)
(0.99994 -0.00026507 -8.3992e-19)
(1.0001 -0.00045886 3.6591e-18)
(1.0002 -0.00059778 -3.9836e-18)
(1.0004 -0.00062997 -2.6046e-19)
(1.0006 -0.00044649 3.0315e-18)
(0.99912 -0.00012965 8.8671e-20)
(1.0105 0.0009096 4.8975e-19)
(0.9635 0.001796 2.34e-18)
(1.047 0.010125 2.7636e-18)
(1.0041 0.0069903 6.3252e-19)
(0.97945 0.036234 -1.2209e-19)
(0.99988 -1.4451e-05 -2.4594e-19)
(0.99993 -0.00027457 -3.0974e-19)
(1.0001 -0.00047521 -1.6221e-18)
(1.0002 -0.00061957 1.9845e-18)
(1.0004 -0.0006534 3.8077e-18)
(1.0007 -0.00046592 -1.3397e-18)
(0.99894 -0.00014056 2.7589e-18)
(1.0115 0.0009428 3.6697e-19)
(0.96234 0.001766 -2.6455e-19)
(1.0446 0.010274 1.2484e-18)
(1.0082 0.0073281 -7.0429e-19)
(0.98389 0.035956 -8.455e-20)
(0.99987 -1.5041e-05 6.1509e-20)
(0.99992 -0.00028415 -8.1911e-19)
(1.0001 -0.00049171 6.072e-19)
(1.0002 -0.00064161 -2.0223e-18)
(1.0004 -0.00067712 -4.0272e-18)
(1.0007 -0.00048582 8.4416e-19)
(0.99873 -0.00015242 -3.9799e-18)
(1.0125 0.00097767 -8.3735e-19)
(0.96131 0.0017289 8.587e-19)
(1.042 0.010402 -3.92e-18)
(1.0119 0.007657 4.8342e-19)
(0.98822 0.035699 2.4077e-19)
(0.99986 -1.5645e-05 1.0801e-19)
(0.99992 -0.00029383 2.2192e-18)
(1.0001 -0.00050835 1.0167e-18)
(1.0002 -0.00066389 8.2385e-19)
(1.0005 -0.00070114 3.2201e-18)
(1.0008 -0.00050621 2.5163e-19)
(0.99851 -0.00016532 2.7477e-18)
(1.0135 0.0010143 6.0128e-19)
(0.96042 0.001685 -2.6077e-18)
(1.0392 0.010512 1.349e-18)
(1.015 0.0079741 3.2656e-19)
(0.99237 0.035456 2.4871e-19)
(0.99985 -1.626e-05 -3.7715e-19)
(0.99991 -0.0003036 -7.3049e-19)
(1.0001 -0.00052515 -8.9326e-19)
(1.0002 -0.00068643 1.3528e-18)
(1.0005 -0.00072547 1.5554e-18)
(1.0009 -0.00052709 -5.0123e-19)
(0.99827 -0.0001793 -2.3077e-18)
(1.0145 0.0010526 2.7339e-18)
(0.95968 0.0016343 4.838e-19)
(1.0363 0.010604 -4.0715e-19)
(1.0176 0.0082772 1.3462e-18)
(0.99628 0.035222 -1.7246e-19)
(0.99984 -1.689e-05 7.7496e-19)
(0.9999 -0.00031347 8.7479e-19)
(1 -0.00054211 -9.4949e-19)
(1.0002 -0.00070922 -8.4266e-19)
(1.0005 -0.00075011 -2.232e-18)
(1.0009 -0.00054847 -8.6073e-19)
(0.99801 -0.00019445 1.1376e-18)
(1.0156 0.0010927 -4.3832e-18)
(0.95909 0.0015774 1.1818e-18)
(1.0333 0.010679 -4.8072e-19)
(1.0197 0.0085641 -1.4242e-18)
(0.99992 0.034993 4.9972e-19)
(0.99983 -1.7532e-05 -3.4203e-19)
(0.9999 -0.00032344 -1.537e-18)
(1 -0.00055923 -9.2018e-19)
(1.0002 -0.00073229 -1.599e-18)
(1.0005 -0.00077509 -6.814e-19)
(1.001 -0.00057037 2.5305e-18)
(0.99773 -0.00021082 -1.1172e-18)
(1.0167 0.0011345 4.8744e-18)
(0.95866 0.0015144 1.1134e-18)
(1.0301 0.010739 1.4589e-18)
(1.0214 0.0088332 5.9988e-19)
(1.0032 0.034764 -8.093e-19)
(0.99982 -1.8188e-05 -1.8142e-19)
(0.99989 -0.00033351 1.143e-18)
(1 -0.00057652 1.8232e-18)
(1.0002 -0.00075563 4.3112e-18)
(1.0005 -0.0008004 9.0325e-19)
(1.0011 -0.00059279 -1.7358e-18)
(0.99742 -0.00022848 5.3918e-19)
(1.0178 0.001178 -5.2413e-18)
(0.95839 0.001446 -1.3497e-18)
(1.0269 0.010783 -8.1085e-19)
(1.0226 0.0090835 5.8704e-19)
(1.0062 0.034533 8.1225e-19)
(0.99981 -1.8859e-05 1.3884e-19)
(0.99988 -0.00034369 2.7057e-19)
(1 -0.00059398 -1.7905e-18)
(1.0002 -0.00077926 -7.1814e-19)
(1.0005 -0.00082606 1.1467e-18)
(1.0012 -0.00061575 2.0772e-18)
(0.9971 -0.00024749 1.874e-18)
(1.0189 0.001223 5.1992e-19)
(0.9583 0.0013726 1.5096e-18)
(1.0237 0.010814 -3.7519e-19)
(1.0234 0.0093138 -1.0475e-18)
(1.0089 0.034297 -2.0965e-19)
(0.9998 -1.9544e-05 -5.6853e-21)
(0.99987 -0.00035397 3.0837e-19)
(1 -0.00061161 4.0016e-19)
(1.0002 -0.00080317 -9.3221e-19)
(1.0005 -0.00085207 1.0587e-20)
(1.0013 -0.00063925 -1.8834e-18)
(0.99675 -0.00026791 -1.2676e-18)
(1.02 0.0012694 3.8352e-18)
(0.95836 0.0012946 -2.2801e-18)
(1.0204 0.010831 1.4566e-18)
(1.0237 0.0095236 5.5269e-19)
(1.0112 0.034052 -5.8929e-19)
(0.99979 -2.0244e-05 -4.3003e-19)
(0.99986 -0.00036436 -1.4463e-18)
(1 -0.00062943 1.0216e-18)
(1.0003 -0.00082739 -2.5458e-18)
(1.0005 -0.00087845 -2.8997e-18)
(1.0014 -0.0006633 -2.6014e-18)
(0.99639 -0.00028979 -2.5823e-18)
(1.021 0.0013172 -3.9301e-19)
(0.9586 0.0012128 1.9924e-18)
(1.0172 0.010837 -1.2491e-18)
(1.0237 0.0097125 5.462e-20)
(1.0131 0.033798 5.5436e-19)
(0.99978 -2.0959e-05 8.3001e-19)
(0.99985 -0.00037487 1.5114e-18)
(1 -0.00064743 -1.6475e-18)
(1.0003 -0.00085191 2.0902e-18)
(1.0005 -0.00090521 -3.3987e-19)
(1.0015 -0.00068792 1.7051e-18)
(0.996 -0.00031319 3.1036e-18)
(1.0221 0.0013661 -2.9716e-18)
(0.959 0.0011278 -1.0097e-18)
(1.014 0.01083 1.3176e-18)
(1.0234 0.0098803 4.7578e-19)
(1.0146 0.033533 -2.6177e-19)
(0.99977 -2.169e-05 -6.2279e-19)
(0.99984 -0.0003855 -4.467e-19)
(1 -0.00066561 -3.4443e-19)
(1.0003 -0.00087674 2.3914e-18)
(1.0005 -0.00093235 -7.2766e-19)
(1.0016 -0.0007131 -2.1581e-20)
(0.99559 -0.00033816 -6.0725e-19)
(1.0231 0.0014159 2.3799e-18)
(0.95957 0.0010401 -9.581e-19)
(1.0109 0.010813 -9.0466e-19)
(1.0228 0.010027 -1.4061e-18)
(1.0158 0.033256 3.035e-19)
(0.99976 -2.2437e-05 4.2334e-19)
(0.99983 -0.00039624 -5.6638e-19)
(1 -0.00068399 7.8856e-19)
(1.0003 -0.0009019 -3.6284e-18)
(1.0005 -0.0009599 4.9307e-18)
(1.0017 -0.00073886 7.0629e-19)
(0.99516 -0.00036476 2.3945e-18)
(1.0242 0.0014665 -1.4713e-18)
(0.96029 0.0009505 1.316e-20)
(1.0078 0.010786 6.7162e-19)
(1.0218 0.010153 -2.7199e-19)
(1.0167 0.032966 -1.1427e-19)
(0.99974 -2.32e-05 -1.2111e-19)
(0.99982 -0.0004071 1.1071e-19)
(1 -0.00070257 1.9213e-18)
(1.0003 -0.00092739 9.8918e-19)
(1.0005 -0.00098785 -2.4649e-18)
(1.0018 -0.0007652 -1.3833e-18)
(0.99471 -0.00039302 4.1726e-19)
(1.0252 0.0015176 -7.1427e-19)
(0.96117 0.00085964 1.603e-18)
(1.0049 0.010749 -4.4119e-19)
(1.0207 0.010259 1.3136e-18)
(1.0173 0.032663 -4.1528e-19)
(0.99973 -2.3981e-05 -2.108e-19)
(0.99981 -0.00041809 -1.0672e-18)
(1 -0.00072135 -5.7125e-19)
(1.0003 -0.00095322 3.9719e-18)
(1.0005 -0.0010162 -2.1956e-18)
(1.002 -0.00079213 -1.1707e-19)
(0.99424 -0.00042299 -6.2499e-18)
(1.0261 0.001569 7.0336e-19)
(0.96221 0.0007682 -2.996e-18)
(1.0021 0.010703 -9.511e-19)
(1.0193 0.010345 -1.3109e-18)
(1.0175 0.032346 2.4658e-19)
(0.99972 -2.4778e-05 -9.1002e-20)
(0.9998 -0.00042921 6.6117e-19)
(1 -0.00074034 -2.3581e-19)
(1.0003 -0.00097939 -2.3127e-18)
(1.0005 -0.001045 3.1553e-18)
(1.0021 -0.00081966 -2.8787e-19)
(0.99376 -0.00045472 3.3101e-18)
(1.027 0.0016204 -4.3092e-19)
(0.96339 0.00067685 1.455e-18)
(0.99943 0.010649 1.1888e-18)
(1.0178 0.010412 1.081e-18)
(1.0174 0.032017 -5.9288e-20)
(0.9997 -2.5593e-05 5.1586e-19)
(0.99979 -0.00044046 -3.9558e-19)
(1 -0.00075954 -8.2489e-19)
(1.0003 -0.0010059 2.5239e-18)
(1.0005 -0.0010743 2.3146e-19)
(1.0023 -0.00084778 3.5699e-18)
(0.99325 -0.00048824 5.7064e-19)
(1.0279 0.0016716 2.0618e-18)
(0.9647 0.00058623 5.4587e-19)
(0.99693 0.010587 -3.8462e-19)
(1.0161 0.01046 1.4026e-19)
(1.0171 0.031674 5.3864e-20)
(0.99969 -2.6425e-05 1.4709e-19)
(0.99978 -0.00045185 1.6174e-19)
(0.99999 -0.00077895 -7.4795e-19)
(1.0003 -0.0010328 -5.0263e-18)
(1.0005 -0.001104 7.0099e-19)
(1.0025 -0.0008765 3.0939e-19)
(0.99273 -0.0005236 -2.4739e-18)
(1.0288 0.0017223 2.8821e-20)
(0.96615 0.00049695 1.6072e-18)
(0.9946 0.010518 -2.4696e-19)
(1.0144 0.010491 -6.8236e-19)
(1.0166 0.031318 3.1598e-19)
(0.99967 -2.7276e-05 -6.2987e-19)
(0.99976 -0.00046337 6.8553e-19)
(0.99999 -0.00079859 1.2332e-19)
(1.0003 -0.0010601 2.791e-18)
(1.0005 -0.0011342 -3.1979e-18)
(1.0026 -0.00090583 -1.3675e-18)
(0.9922 -0.00056082 2.5298e-18)
(1.0295 0.0017722 -1.3948e-18)
(0.96771 0.00040959 -2.5399e-18)
(0.99247 0.010442 -1.2185e-18)
(1.0125 0.010505 8.6835e-19)
(1.0159 0.030951 1.047e-19)
(0.99966 -2.8146e-05 -6.6651e-20)
(0.99975 -0.00047504 -6.8984e-19)
(0.99998 -0.00081846 1.3132e-18)
(1.0003 -0.0010877 1.2374e-18)
(1.0005 -0.0011649 3.9494e-18)
(1.0028 -0.00093577 5.251e-19)
(0.99165 -0.00059995 2.2454e-18)
(1.0303 0.0018211 3.5346e-18)
(0.96939 0.00032467 -1.1175e-19)
(0.99053 0.01036 2.1427e-18)
(1.0106 0.010503 -9.2103e-20)
(1.015 0.030571 -3.0686e-19)
(0.99964 -2.9035e-05 6.4602e-19)
(0.99974 -0.00048685 -1.0043e-18)
(0.99997 -0.00083856 -1.9931e-18)
(1.0003 -0.0011158 -3.2898e-19)
(1.0005 -0.0011961 -4.2861e-18)
(1.003 -0.00096631 -1.5627e-18)
(0.99109 -0.00064101 -7.8028e-19)
(1.0309 0.0018687 2.5293e-20)
(0.97117 0.00024269 3.3043e-18)
(0.98879 0.010273 4.9239e-19)
(1.0087 0.010487 -1.1882e-18)
(1.0139 0.030182 1.8332e-19)
(0.99963 -2.9943e-05 -7.2425e-19)
(0.99972 -0.00049881 1.2546e-18)
(0.99996 -0.0008589 1.0433e-18)
(1.0003 -0.0011442 -6.5544e-19)
(1.0005 -0.0012278 3.4466e-18)
(1.0033 -0.00099747 1.8692e-18)
(0.99052 -0.00068405 -6.1655e-19)
(1.0315 0.0019147 -3.5595e-18)
(0.97304 0.00016406 -1.1253e-19)
(0.98727 0.01018 -1.409e-18)
(1.0068 0.010456 1.4056e-18)
(1.0127 0.029782 -2.4025e-19)
(0.99961 -3.0872e-05 4.352e-19)
(0.99971 -0.00051092 -2.4007e-19)
(0.99995 -0.00087948 1.3814e-18)
(1.0003 -0.001173 -2.7573e-18)
(1.0005 -0.00126 1.1251e-18)
(1.0035 -0.0010292 -6.7161e-19)
(0.98993 -0.00072908 -1.3268e-18)
(1.0321 0.0019589 -2.8508e-19)
(0.97499 8.9138e-05 -3.9855e-18)
(0.98596 0.010083 9.2808e-19)
(1.0049 0.010413 -1.285e-18)
(1.0114 0.029374 7.9883e-20)
(0.99959 -3.182e-05 3.4409e-20)
(0.9997 -0.00052319 -7.5523e-19)
(0.99995 -0.00090031 7.844e-19)
(1.0003 -0.0012023 3.6289e-18)
(1.0005 -0.0012928 -2.6801e-18)
(1.0037 -0.0010616 2.1595e-18)
(0.98934 -0.00077615 -7.6665e-19)
(1.0325 0.002001 6.6144e-19)
(0.97702 1.8227e-05 4.7343e-18)
(0.98487 0.0099821 -1.7223e-18)
(1.0031 0.010357 1.9619e-18)
(1.0101 0.028958 2.2561e-19)
(0.99958 -3.279e-05 6.176e-20)
(0.99968 -0.00053561 -1.563e-19)
(0.99994 -0.0009214 -1.1285e-18)
(1.0003 -0.001232 -5.4636e-19)
(1.0004 -0.0013262 2.3354e-18)
(1.004 -0.0010945 1.684e-20)
(0.98875 -0.00082528 -1.5059e-18)
(1.0329 0.0020409 -1.5769e-18)
(0.9791 -4.8442e-05 -1.9815e-18)
(0.984 0.0098775 -1.6169e-19)
(1.0013 0.010291 3.5717e-19)
(1.0087 0.028535 2.3101e-20)
(0.99956 -3.3781e-05 -9.9383e-20)
(0.99966 -0.0005482 1.86e-18)
(0.99993 -0.00094275 -7.5266e-19)
(1.0003 -0.0012621 -3.0872e-18)
(1.0004 -0.0013602 1.0763e-18)
(1.0043 -0.0011281 -5.5016e-18)
(0.98815 -0.00087651 7.5182e-19)
(1.0333 0.0020782 9.9354e-19)
(0.98123 -0.0001107 9.2049e-20)
(0.98335 0.0097699 1.7462e-18)
(0.99971 0.010215 -1.2148e-19)
(1.0072 0.028106 -6.2908e-19)
(0.99954 -3.4793e-05 -2.6238e-20)
(0.99965 -0.00056096 -3.65e-20)
(0.99992 -0.00096436 1.0132e-18)
(1.0003 -0.0012926 1.9059e-18)
(1.0004 -0.0013947 -4.2774e-18)
(1.0045 -0.0011622 2.3783e-19)
(0.98755 -0.00092986 1.3451e-18)
(1.0335 0.0021128 1.5547e-18)
(0.9834 -0.00016845 -1.2522e-18)
(0.98291 0.0096597 -1.6986e-18)
(0.99818 0.01013 -1.9397e-18)
(1.0058 0.027673 6.6322e-19)
(0.99952 -3.5828e-05 -1.7169e-19)
(0.99963 -0.00057388 5.1985e-20)
(0.99991 -0.00098625 -4.8852e-19)
(1.0003 -0.0013236 -1.2725e-18)
(1.0003 -0.0014299 2.3708e-18)
(1.0048 -0.001197 2.9525e-18)
(0.98694 -0.00098538 3.9194e-19)
(1.0337 0.0021444 7.8721e-19)
(0.98559 -0.00022165 1.9971e-18)
(0.98268 0.0095475 2.8636e-19)
(0.99679 0.010037 1.4318e-18)
(1.0045 0.027236 -4.0225e-19)
(0.9995 -3.6885e-05 3.1602e-19)
(0.99962 -0.00058699 9.5842e-20)
(0.9999 -0.0010084 -6.9811e-19)
(1.0003 -0.0013551 1.8799e-19)
(1.0003 -0.0014658 -1.2854e-18)
(1.0051 -0.0012323 -7.0821e-19)
(0.98634 -0.0010431 -1.4503e-19)
(1.0338 0.002173 -3.5544e-18)
(0.9878 -0.00027033 3.9162e-19)
(0.98265 0.0094336 -5.7785e-19)
(0.99554 0.0099371 -5.8243e-19)
(1.0031 0.026796 -4.8345e-19)
(0.99948 -3.7966e-05 -6.4494e-19)
(0.9996 -0.00060027 1.2522e-19)
(0.99989 -0.0010309 3.7031e-19)
(1.0003 -0.0013871 -2.362e-18)
(1.0003 -0.0015023 -1.4651e-18)
(1.0054 -0.0012681 -3.2869e-18)
(0.98575 -0.001103 6.9843e-19)
(1.0338 0.0021983 1.4516e-18)
(0.99001 -0.00031457 -4.2009e-18)
(0.98282 0.0093185 2.6658e-18)
(0.99444 0.0098307 -6.2827e-19)
(1.0019 0.026354 3.1216e-19)
(0.99946 -3.907e-05 5.9202e-19)
(0.99958 -0.00061373 2.8022e-19)
(0.99987 -0.0010536 1.4239e-19)
(1.0003 -0.0014195 7.4919e-19)
(1.0002 -0.0015395 -3.2344e-19)
(1.0058 -0.0013045 6.3703e-18)
(0.98516 -0.0011652 2.5066e-18)
(1.0337 0.0022201 -2.2556e-18)
(0.99222 -0.00035451 4.0426e-18)
(0.98318 0.0092026 -9.9462e-19)
(0.99351 0.0097187 -4.1327e-19)
(1.0007 0.025911 -1.5482e-19)
(0.99944 -4.0198e-05 1.4522e-19)
(0.99956 -0.00062738 -1.7744e-18)
(0.99986 -0.0010767 2.8499e-19)
(1.0003 -0.0014524 3.3642e-18)
(1.0002 -0.0015775 2.504e-18)
(1.0061 -0.0013415 -1.0326e-19)
(0.98457 -0.0012297 -3.4733e-18)
(1.0336 0.0022384 6.838e-19)
(0.99441 -0.00039033 -9.1146e-19)
(0.98372 0.0090863 -1.3741e-18)
(0.99275 0.0096021 1.052e-18)
(0.99963 0.025469 1.4496e-19)
(0.99942 -4.135e-05 -5.7437e-19)
(0.99954 -0.00064122 -5.9157e-19)
(0.99985 -0.0011 -1.5438e-18)
(1.0003 -0.0014858 -2.8214e-18)
(1.0001 -0.0016162 -2.5192e-18)
(1.0065 -0.001379 -2.8945e-18)
(0.984 -0.0012965 6.4078e-19)
(1.0334 0.0022531 5.3084e-18)
(0.99657 -0.00042226 3.9695e-19)
(0.98442 0.0089699 -1.1912e-19)
(0.99216 0.0094816 -3.7105e-19)
(0.99867 0.025027 -3.8719e-19)
(0.9994 -4.2528e-05 4.2622e-19)
(0.99952 -0.00065526 5.4952e-19)
(0.99984 -0.0011237 2.379e-18)
(1.0003 -0.0015197 1.954e-18)
(1 -0.0016556 2.4507e-18)
(1.0068 -0.001417 -1.0763e-19)
(0.98344 -0.0013657 -3.5692e-18)
(1.0331 0.002264 -2.8689e-18)
(0.9987 -0.00045059 9.8464e-19)
(0.98529 0.0088536 4.7554e-19)
(0.99175 0.0093577 8.3485e-19)
(0.99784 0.024588 2.9987e-19)
(0.99938 -4.3732e-05 -3.0101e-19)
(0.9995 -0.0006695 8.6208e-19)
(0.99982 -0.0011477 -1.574e-18)
(1.0003 -0.0015541 2.8279e-19)
(0.99996 -0.0016959 1.1392e-18)
(1.0072 -0.0014555 -2.8292e-19)
(0.9829 -0.0014373 8.022e-19)
(1.0327 0.0022711 7.9633e-19)
(1.0008 -0.00047562 3.2348e-19)
(0.98629 0.0087379 1.1729e-18)
(0.99152 0.0092312 -1.0036e-18)
(0.99714 0.02415 6.0797e-20)
(0.99935 -4.4961e-05 4.5448e-19)
(0.99948 -0.00068395 5.343e-20)
(0.99981 -0.001172 -7.3677e-19)
(1.0003 -0.0015891 1.1255e-19)
(0.99988 -0.001737 -1.8738e-19)
(1.0076 -0.0014944 -2.7938e-18)
(0.98238 -0.0015113 2.2363e-18)
(1.0322 0.0022742 2.8254e-18)
(1.0028 -0.00049768 -1.6131e-18)
(0.98743 0.0086228 -1.6305e-18)
(0.99146 0.0091027 -2.9255e-19)
(0.99659 0.023716 5.1332e-19)
(0.99933 -4.6217e-05 -3.3015e-19)
(0.99946 -0.0006986 -4.1149e-20)
(0.99979 -0.0011966 9.1606e-19)
(1.0003 -0.0016246 -2.1622e-18)
(0.9998 -0.0017789 -1.6923e-18)
(1.008 -0.0015339 3.527e-18)
(0.98187 -0.0015877 -3.4178e-19)
(1.0317 0.0022734 -2.9918e-18)
(1.0048 -0.00051715 4.1054e-19)
(0.98869 0.0085086 1.5342e-18)
(0.99157 0.0089726 9.9202e-19)
(0.99619 0.023286 -1.8503e-19)
(0.99931 -4.7501e-05 3.2809e-20)
(0.99944 -0.00071347 3.0142e-19)
(0.99978 -0.0012216 5.0051e-19)
(1.0004 -0.0016606 1.1177e-18)
(0.99972 -0.0018218 3.3162e-18)
(1.0084 -0.0015738 8.2198e-19)
(0.98139 -0.0016667 -2.974e-18)
(1.0311 0.0022685 2.8015e-19)
(1.0067 -0.0005344 1.057e-18)
(0.99005 0.0083955 -1.3808e-18)
(0.99185 0.0088415 -6.7005e-19)
(0.99594 0.02286 -2.1356e-19)
(0.99928 -4.8812e-05 9.3158e-20)
(0.99942 -0.00072856 -5.2426e-20)
(0.99976 -0.0012469 -1.3207e-18)
(1.0004 -0.0016972 -2.4037e-20)
(0.99962 -0.0018655 -6.5562e-18)
(1.0088 -0.0016141 1.0133e-18)
(0.98093 -0.0017482 2.9216e-18)
(1.0304 0.0022596 -8.0515e-19)
(1.0085 -0.00054984 -1.1074e-18)
(0.99151 0.0082835 2.2909e-18)
(0.9923 0.0087097 8.004e-19)
(0.99584 0.022439 5.5267e-19)
(0.99926 -5.0151e-05 1.0007e-19)
(0.99939 -0.00074387 -1.088e-19)
(0.99974 -0.0012726 2.3884e-18)
(1.0004 -0.0017344 5.1551e-19)
(0.99952 -0.0019102 5.8093e-18)
(1.0093 -0.0016548 -3.5719e-18)
(0.9805 -0.0018323 -9.7741e-19)
(1.0297 0.0022467 7.5757e-19)
(1.0102 -0.00056387 3.8098e-19)
(0.99304 0.0081728 -1.2887e-18)
(0.9929 0.0085777 -1.3004e-19)
(0.9959 0.022023 -4.0737e-19)
(0.99923 -5.152e-05 -3.9109e-19)
(0.99937 -0.00075942 1.8269e-19)
(0.99973 -0.0012987 -1.4038e-18)
(1.0004 -0.0017721 6.7786e-19)
(0.99941 -0.0019559 -2.2073e-18)
(1.0097 -0.0016959 4.8439e-19)
(0.9801 -0.0019189 3.9128e-18)
(1.0289 0.0022296 -2.835e-18)
(1.0118 -0.0005769 -1.4007e-18)
(0.99464 0.0080632 -1.2726e-18)
(0.99364 0.0084457 -6.3532e-19)
(0.99611 0.021613 -1.1162e-19)
(0.9992 -5.2918e-05 4.8717e-19)
(0.99935 -0.00077519 -4.3388e-19)
(0.99971 -0.0013251 -1.3623e-18)
(1.0004 -0.0018104 -1.0809e-18)
(0.9993 -0.0020025 -3.6081e-18)
(1.0102 -0.0017375 -2.2457e-18)
(0.97973 -0.0020081 -2.399e-18)
(1.028 0.0022084 2.6358e-18)
(1.0134 -0.00058935 1.3572e-18)
(0.99628 0.007955 1.9265e-18)
(0.99452 0.0083141 -2.4794e-19)
(0.99646 0.021209 5.3816e-19)
(0.99918 -5.4347e-05 -7.83e-19)
(0.99932 -0.00079121 7.0304e-19)
(0.99969 -0.001352 3.3356e-18)
(1.0004 -0.0018493 -2.5495e-19)
(0.99917 -0.0020503 3.9918e-18)
(1.0106 -0.0017794 1.6972e-19)
(0.97939 -0.0021 -2.2959e-18)
(1.027 0.0021831 1.0312e-18)
(1.0148 -0.00060163 -4.8945e-19)
(0.99796 0.0078479 -4.035e-19)
(0.99553 0.0081831 8.0478e-19)
(0.99697 0.020811 -3.6391e-19)
(0.99915 -5.5806e-05 6.4168e-19)
(0.9993 -0.00080747 -9.5547e-19)
(0.99967 -0.0013792 -3.889e-18)
(1.0004 -0.0018889 1.6679e-18)
(0.99904 -0.0020991 -2.8436e-18)
(1.0111 -0.0018216 3.1038e-18)
(0.97909 -0.0021945 7.4878e-19)
(1.026 0.0021537 -9.8181e-19)
(1.0162 -0.00061414 -2.3481e-19)
(0.99967 0.0077419 -1.0084e-18)
(0.99665 0.0080528 -1.3102e-18)
(0.9976 0.02042 5.0148e-19)
(0.99912 -5.7297e-05 -4.7267e-19)
(0.99927 -0.00082398 3.1772e-19)
(0.99965 -0.0014068 2.3631e-18)
(1.0004 -0.001929 -2.1986e-18)
(0.99891 -0.002149 4.5749e-18)
(1.0116 -0.0018642 -2.4085e-18)
(0.97883 -0.0022917 4.3636e-19)
(1.025 0.0021201 -1.5511e-18)
(1.0174 -0.00062729 7.6537e-19)
(1.0014 0.007637 -1.4039e-19)
(0.99788 0.0079233 5.6113e-19)
(0.99837 0.020035 -2.2343e-19)
(0.99909 -5.882e-05 5.7975e-19)
(0.99924 -0.00084075 2.4738e-19)
(0.99963 -0.0014348 -1.5755e-18)
(1.0005 -0.0019697 -4.4713e-20)
(0.99876 -0.0022001 -2.0222e-19)
(1.012 -0.0019071 5.8265e-19)
(0.9786 -0.0023915 4.138e-18)
(1.0239 0.0020824 1.061e-18)
(1.0185 -0.00064145 -2.268e-18)
(1.0031 0.0075329 -7.2921e-19)
(0.99919 0.0077949 -5.2557e-19)
(0.99926 0.019656 2.3334e-19)
(0.99906 -6.0376e-05 -6.6453e-19)