/*--------------------------------*- C++ -*----------------------------------*\
  =========                 |
  \\      /  F ield         | OpenFOAM: The Open Source CFD Toolbox
   \\    /   O peration     | Website:  https://openfoam.org
    \\  /    A nd           | Version:  6.0
     \\/     M anipulation  |
\*---------------------------------------------------------------------------*/
FoamFile
{
    version     2.0;
    format      ascii;
    class       volVectorField;
    location    "2.96";
    object      U;
}
// * * * * * * * * * * * * * * * * * * * * * * * * * * * * * * * * * * * * * //

dimensions      [0 1 -1 0 0 0 0];

internalField   nonuniform List<vector> 
13500
(
(1 2.0956e-06 -4.2415e-18)
(1 -2.9953e-06 2.8708e-18)
(1 -6.1474e-06 -1.2346e-17)
(1 -9.9166e-06 -8.5396e-18)
(1 -9.2199e-06 1.6065e-17)
(1 -9.0913e-06 2.9893e-17)
(1 -7.3818e-08 2.5614e-17)
(0.99998 1.3954e-05 -4.1359e-18)
(0.99992 3.9274e-05 1.5155e-17)
(0.9998 7.4551e-05 3.2464e-18)
(0.99572 0.00075591 2.8485e-17)
(1.019 0.010844 7.7174e-18)
(1 6.4756e-06 2.6278e-18)
(1 -8.1386e-06 -8.7186e-18)
(1 -1.6744e-05 5.8957e-18)
(1 -2.7462e-05 -3.3679e-19)
(1 -2.4428e-05 -4.2842e-19)
(1 -2.4266e-05 -3.5945e-17)
(1 4.5992e-06 -4.4239e-17)
(0.99994 4.4265e-05 -2.3665e-17)
(0.99974 0.00013032 -1.5125e-17)
(0.99983 0.00018333 -1.6055e-18)
(0.98618 0.0021898 -1.349e-17)
(1.0534 0.030655 -4.6727e-18)
(1 1.0823e-05 -3.394e-18)
(1 -1.3344e-05 1.7322e-17)
(1 -2.7555e-05 3.0666e-18)
(1 -4.5291e-05 9.8459e-18)
(1 -3.9898e-05 -3.7045e-18)
(1 -4.0042e-05 2.8793e-17)
(0.99999 9.5896e-06 -6.2271e-18)
(0.9999 7.3504e-05 5.3756e-18)
(0.99953 0.00023006 -1.8349e-17)
(1.0003 0.00030714 2.439e-17)
(0.97598 0.0032738 -7.0526e-18)
(1.0819 0.045203 1.6383e-18)
(1 1.5122e-05 8.8728e-18)
(1 -1.8755e-05 -1.6794e-17)
(1 -3.877e-05 -1.4537e-17)
(1 -6.3684e-05 -6.9081e-19)
(1 -5.5974e-05 5.7187e-18)
(1.0001 -5.6558e-05 -7.9908e-19)
(1 1.43e-05 6.1355e-17)
(0.99987 0.00010146 9.6851e-18)
(0.99928 0.00033721 2.1697e-17)
(1.0013 0.00045046 -8.8344e-18)
(0.96552 0.004034 3.4341e-17)
(1.1031 0.055765 -7.4569e-18)
(1 1.9411e-05 -6.2345e-18)
(1 -2.4197e-05 1.4514e-17)
(1 -5.0054e-05 1.2374e-17)
(1 -8.2153e-05 1.2601e-17)
(1.0001 -7.2157e-05 2.8041e-18)
(1.0001 -7.3167e-05 2.1163e-17)
(1 1.9092e-05 -2.7399e-17)
(0.99986 0.00012837 1.9672e-18)
(0.99899 0.00045057 -1.3303e-17)
(1.0026 0.00061538 -2.1079e-18)
(0.95518 0.0045207 -8.9075e-18)
(1.117 0.063473 2.0678e-18)
(1 2.369e-05 6.3094e-18)
(1 -2.9664e-05 -6.017e-18)
(1 -6.1412e-05 3.7792e-18)
(1 -0.00010069 -2.4962e-17)
(1.0001 -8.8457e-05 -8.2114e-20)
(1.0001 -8.9878e-05 -4.1895e-17)
(1 2.3957e-05 1.0513e-18)
(0.99985 0.00015407 -1.5791e-17)
(0.99864 0.00056872 5.066e-18)
(1.0044 0.00080854 -2.124e-17)
(0.94533 0.0047764 -2.1441e-17)
(1.1244 0.068937 1.9983e-18)
(0.99999 2.7957e-05 -1.0444e-18)
(1 -3.5158e-05 -7.1964e-18)
(1 -7.2847e-05 -3.0714e-18)
(1.0001 -0.00011931 1.8841e-17)
(1.0001 -0.00010487 -2.5972e-17)
(1.0001 -0.00010672 1.603e-17)
(1 2.8931e-05 1.8325e-17)
(0.99986 0.00017846 5.5556e-18)
(0.99823 0.00069032 1.1325e-17)
(1.0065 0.0010363 1.1435e-17)
(0.93624 0.0048391 9.2363e-18)
(1.1261 0.072586 3.2072e-18)
(0.99999 3.2214e-05 -2.1557e-18)
(1 -4.0681e-05 -1.4157e-18)
(1 -8.4361e-05 -2.6459e-17)
(1.0001 -0.00013801 -8.9968e-18)
(1.0001 -0.00012141 7.2693e-18)
(1.0001 -0.00012371 2.6271e-17)
(1 3.4025e-05 1.1664e-17)
(0.99988 0.00020148 4.9598e-18)
(0.99773 0.000814 -7.402e-18)
(1.0088 0.0013025 1.6017e-17)
(0.92815 0.0047454 7.4586e-18)
(1.1231 0.074781 -1.0198e-17)
(0.99999 3.6459e-05 -6.692e-18)
(1 -4.6236e-05 6.0863e-18)
(1 -9.5959e-05 4.4488e-17)
(1.0001 -0.0001568 -1.0791e-17)
(1.0001 -0.00013808 2.7223e-17)
(1.0001 -0.00014085 -5.1868e-17)
(1 3.9235e-05 -3.8854e-17)
(0.99992 0.00022309 9.6378e-18)
(0.99716 0.00093836 -5.5591e-18)
(1.0114 0.0016086 -8.8337e-18)
(0.92121 0.0045301 -1.3782e-17)
(1.1166 0.075827 1.334e-17)
(0.99999 4.0693e-05 4.4089e-18)
(1 -5.1822e-05 2.2909e-18)
(1 -0.00010764 -3.7684e-17)
(1.0001 -0.00017569 1.5358e-17)
(1.0001 -0.00015489 -1.1871e-17)
(1.0002 -0.00015816 2.2121e-17)
(1 4.4554e-05 1.3807e-17)
(0.99998 0.00024328 2.4366e-18)
(0.99651 0.001062 5.2515e-19)
(1.0142 0.0019544 1.3994e-18)
(0.91553 0.0042257 4.3842e-18)
(1.1072 0.075977 -6.9924e-19)
(0.99998 4.4915e-05 -2.4207e-18)
(1 -5.7442e-05 -7.5134e-18)
(1 -0.00011941 9.2375e-18)
(1.0001 -0.00019467 -2.7098e-18)
(1.0001 -0.00017184 1.8325e-18)
(1.0002 -0.00017565 -2.4244e-17)
(1 4.9977e-05 -3.1801e-17)
(1.0001 0.00026207 -3.0945e-17)
(0.99577 0.0011837 1.5538e-17)
(1.017 0.0023379 1.8177e-18)
(0.91115 0.0038615 -1.1121e-17)
(1.096 0.075438 -5.7477e-18)
(0.99998 4.9125e-05 3.3412e-18)
(1 -6.3097e-05 2.8379e-18)
(1 -0.00013128 4.4519e-18)
(1.0001 -0.00021375 -2.1596e-18)
(1.0001 -0.00018895 -5.4931e-18)
(1.0002 -0.00019334 9.1696e-18)
(1 5.5492e-05 1.8408e-17)
(1.0002 0.00027952 1.9117e-17)
(0.99495 0.0013023 9.9833e-18)
(1.02 0.0027561 -2.2955e-17)
(0.90807 0.0034639 1.167e-19)
(1.0835 0.074379 -6.6527e-18)
(0.99998 5.3323e-05 -3.3407e-18)
(0.99999 -6.8788e-05 5.5808e-18)
(1 -0.00014324 8.0717e-18)
(1.0001 -0.00023294 5.639e-18)
(1.0001 -0.00020622 -5.0949e-18)
(1.0002 -0.00021123 4.5079e-18)
(1 6.1086e-05 4.1977e-18)
(1.0003 0.00029572 -1.7072e-18)
(0.99405 0.0014165 -1.6136e-17)
(1.0229 0.0032051 2.1286e-17)
(0.90625 0.0030561 1.0385e-19)
(1.0705 0.072941 1.425e-18)
(0.99997 5.7509e-05 5.0801e-18)
(0.99999 -7.4517e-05 -4.3564e-18)
(1 -0.0001553 7.0669e-19)
(1.0001 -0.00025223 -4.7041e-18)
(1.0002 -0.00022367 1.1571e-17)
(1.0002 -0.00022934 5.5002e-18)
(1 6.6742e-05 1.689e-17)
(1.0004 0.00031078 -6.3408e-18)
(0.99307 0.0015253 -1.9716e-19)
(1.0258 0.0036803 5.2276e-18)
(0.90563 0.002658 1.6879e-17)
(1.0573 0.071236 9.0895e-19)
(0.99997 6.1683e-05 1.2253e-18)
(0.99999 -8.0285e-05 9.6685e-18)
(1 -0.00016746 1.3498e-17)
(1.0001 -0.00027163 -4.6902e-18)
(1.0002 -0.00024129 8.3786e-18)
(1.0003 -0.00024768 -2.5676e-18)
(1 7.2434e-05 -2.9582e-17)
(1.0006 0.00032484 2.0071e-17)
(0.99201 0.0016278 -1.8194e-17)
(1.0285 0.0041766 -3.0153e-17)
(0.90612 0.0022862 -3.7052e-18)
(1.0445 0.069356 8.4201e-19)
(0.99997 6.5844e-05 -3.1259e-18)
(0.99999 -8.6095e-05 -1.0282e-17)
(1 -0.00017973 -3.2398e-17)
(1.0001 -0.00029116 7.902e-18)
(1.0002 -0.00025911 -1.2715e-17)
(1.0003 -0.00026626 8.2326e-18)
(1 7.8134e-05 -2.7677e-18)
(1.0008 0.00033809 -1.2082e-17)
(0.99089 0.001723 3.9957e-18)
(1.0312 0.0046891 1.8006e-17)
(0.90761 0.0019541 -7.7769e-18)
(1.0323 0.067374 1.1691e-17)
(0.99996 6.9992e-05 3.2891e-19)
(0.99998 -9.1946e-05 7.6903e-18)
(1 -0.0001921 2.2368e-17)
(1.0001 -0.0003108 -1.7797e-18)
(1.0002 -0.00027712 -1.2632e-17)
(1.0003 -0.0002851 -1.5342e-17)
(1 8.3806e-05 1.0572e-17)
(1.0011 0.00035073 6.9296e-18)
(0.9897 0.0018102 2.3088e-17)
(1.0337 0.0052127 -2.521e-18)
(0.90999 0.0016722 1.9326e-18)
(1.0209 0.065349 -4.6643e-18)
(0.99996 7.4127e-05 -1.8453e-18)
(0.99998 -9.7842e-05 -9.3183e-18)
(1 -0.00020459 -1.0093e-17)
(1.0001 -0.00033056 5.9472e-18)
(1.0002 -0.00029535 -7.0945e-18)
(1.0003 -0.0003042 -1.2306e-17)
(1 8.9408e-05 1.0278e-17)
(1.0014 0.00036299 -4.7009e-18)
(0.98846 0.0018885 -2.857e-17)
(1.036 0.0057425 -1.4127e-17)
(0.91315 0.001448 8.3884e-18)
(1.0105 0.063326 -5.0581e-18)
(0.99995 7.825e-05 -2.6424e-18)
(0.99998 -0.00010378 -3.522e-18)
(1 -0.0002172 -7.4799e-19)
(1.0001 -0.00035046 -2.6043e-17)
(1.0002 -0.00031379 5.9524e-18)
(1.0003 -0.00032358 5.3585e-18)
(0.99998 9.4888e-05 -1.953e-17)
(1.0017 0.00037514 -1.6051e-17)
(0.98717 0.0019573 4.18e-18)
(1.0381 0.0062739 -1.0609e-18)
(0.91695 0.0012866 -9.6863e-18)
(1.0013 0.06134 9.5672e-19)
(0.99995 8.2359e-05 3.4369e-18)
(0.99997 -0.00010977 1.6145e-17)
(1 -0.00022992 1.9261e-17)
(1.0001 -0.00037049 2.4525e-18)
(1.0002 -0.00033245 1.6455e-17)
(1.0004 -0.00034324 9.3905e-18)
(0.99996 0.00010019 2.819e-18)
(1.002 0.00038746 1.7568e-17)
(0.98585 0.0020159 2.076e-17)
(1.04 0.0068028 1.6869e-17)
(0.92129 0.0011905 7.2305e-18)
(0.99322 0.059418 1.135e-18)
(0.99994 8.6455e-05 -1.6382e-18)
(0.99997 -0.00011581 -3.8739e-18)
(1 -0.00024277 -2.0521e-17)
(1.0002 -0.00039066 -2.3223e-18)
(1.0002 -0.00035136 -1.2472e-17)
(1.0004 -0.0003632 -5.0808e-18)
(0.99993 0.00010524 -1.8091e-18)
(1.0024 0.00040026 -1.5886e-17)
(0.9845 0.0020636 -1.9848e-17)
(1.0416 0.0073254 8.6454e-18)
(0.92605 0.0011606 4.9712e-19)
(0.98633 0.05758 6.5137e-19)
(0.99993 9.0537e-05 4.3424e-18)
(0.99996 -0.0001219 -5.0612e-18)
(1 -0.00025574 -1.9247e-17)
(1.0002 -0.00041097 4.4149e-17)
(1.0002 -0.00037051 1.8092e-17)
(1.0004 -0.00038346 -1.2433e-17)
(0.99989 0.00010997 2.4323e-17)
(1.0028 0.00041388 2.147e-17)
(0.98313 0.0020998 3.2205e-17)
(1.0429 0.0078382 -3.1686e-17)
(0.93113 0.0011957 -1.3281e-17)
(0.98062 0.055837 1.7168e-19)
(0.99993 9.4606e-05 -3.1785e-18)
(0.99996 -0.00012805 -1.0157e-18)
(1 -0.00026885 3.286e-17)
(1.0002 -0.00043143 -3.3374e-17)
(1.0003 -0.00038993 -1.7415e-18)
(1.0005 -0.00040403 4.1194e-17)
(0.99985 0.00011429 7.5376e-18)
(1.0033 0.00042868 -3.3163e-18)
(0.98177 0.0021241 -1.9972e-17)
(1.044 0.0083384 3.7339e-17)
(0.93642 0.0012936 -5.6275e-18)
(0.97602 0.054198 -2.73e-19)
(0.99992 9.866e-05 -1.6204e-18)
(0.99995 -0.00013424 -2.0238e-18)
(1 -0.00028209 1.7114e-18)
(1.0002 -0.00045204 3.4721e-17)
(1.0003 -0.00040961 -9.8194e-18)
(1.0005 -0.00042491 -3.0448e-17)
(0.9998 0.0001181 -1.9218e-17)
(1.0038 0.00044504 -3.571e-18)
(0.9804 0.0021358 6.3146e-18)
(1.0448 0.0088234 -3.1498e-17)
(0.94185 0.0014507 9.4251e-18)
(0.97247 0.052667 2.958e-18)
(0.99991 0.0001027 2.6778e-18)
(0.99995 -0.0001405 1.4086e-17)
(1 -0.00029547 -1.262e-17)
(1.0002 -0.00047281 -3.6353e-18)
(1.0003 -0.00042957 -1.8846e-17)
(1.0005 -0.00044612 3.3126e-17)
(0.99974 0.0001213 -1.6871e-17)
(1.0043 0.00046334 1.4805e-17)
(0.97906 0.0021344 -1.9461e-18)
(1.0453 0.0092912 2.953e-17)
(0.94733 0.0016628 -9.1996e-18)
(0.9699 0.051245 -4.9356e-18)
(0.99991 0.00010673 -5.136e-19)
(0.99994 -0.00014681 -8.1013e-18)
(1 -0.000309 -1.7672e-17)
(1.0002 -0.00049374 -9.9617e-18)
(1.0003 -0.00044983 1.8279e-17)
(1.0006 -0.00046764 -4.2241e-17)
(0.99967 0.00012376 -2.6031e-18)
(1.0049 0.00048401 -2.0002e-17)
(0.97775 0.0021196 3.1426e-18)
(1.0456 0.00974 -8.5172e-18)
(0.95278 0.0019248 9.792e-18)
(0.96822 0.049932 2.0933e-18)
(0.9999 0.00011074 2.6906e-18)
(0.99994 -0.00015319 -8.678e-18)
(1 -0.00032267 -1.7462e-18)
(1.0002 -0.00051484 2.4207e-18)
(1.0003 -0.00047039 5.7855e-18)
(1.0006 -0.00048949 1.2206e-17)
(0.9996 0.00012536 4.2679e-17)
(1.0055 0.00050746 2.3905e-18)
(0.97647 0.0020908 5.12e-18)
(1.0456 0.010168 9.3868e-18)
(0.95814 0.0022315 -8.3765e-18)
(0.96732 0.048723 1.6071e-18)
(0.99989 0.00011474 -1.5428e-18)
(0.99993 -0.00015963 8.67e-18)
(1 -0.00033649 2.512e-17)
(1.0002 -0.00053611 -2.439e-17)
(1.0003 -0.00049126 -8.9996e-18)
(1.0006 -0.00051165 -2.1479e-18)
(0.99951 0.00012596 -1.4068e-17)
(1.0061 0.00053412 1.8546e-18)
(0.97525 0.0020478 -8.8725e-18)
(1.0454 0.010575 -3.4502e-18)
(0.96337 0.0025773 -2.3775e-19)
(0.96712 0.047614 -1.964e-18)
(0.99988 0.00011872 -1.6583e-18)
(0.99992 -0.00016613 5.1897e-18)
(1 -0.00035046 -6.0741e-19)
(1.0002 -0.00055756 8.0874e-18)
(1.0003 -0.00051247 -1.6606e-17)
(1.0007 -0.00053413 2.4302e-17)
(0.99941 0.00012539 7.0166e-18)
(1.0067 0.00056441 -1.7693e-17)
(0.97408 0.0019902 -1.1374e-17)
(1.0449 0.01096 -1.3659e-17)
(0.96841 0.0029566 1.3271e-18)
(0.96752 0.046599 -3.5974e-18)
(0.99988 0.00012269 5.7627e-19)
(0.99992 -0.0001727 -1.2394e-17)
(1 -0.0003646 1.5556e-17)
(1.0002 -0.00057918 2.2369e-17)
(1.0003 -0.00053402 3.2548e-17)
(1.0007 -0.00055691 -1.7848e-17)
(0.9993 0.00012351 -1.7445e-17)
(1.0074 0.00059878 3.5904e-18)
(0.97299 0.0019178 1.0657e-17)
(1.0441 0.011321 1.0692e-17)
(0.97323 0.0033636 6.1811e-18)
(0.96843 0.045672 3.5755e-18)
(0.99987 0.00012665 1.1044e-18)
(0.99991 -0.00017933 9.8559e-18)
(1 -0.0003789 -3.5741e-17)
(1.0002 -0.000601 -3.2409e-18)
(1.0003 -0.00055593 -2.7039e-17)
(1.0008 -0.00058 -1.1243e-17)
(0.99918 0.00012012 2.4547e-20)
(1.0081 0.00063764 -4.1069e-18)
(0.97198 0.0018305 -2.0993e-17)
(1.0432 0.011659 -1.7071e-17)
(0.97779 0.003793 -8.4428e-18)
(0.96975 0.044827 -1.7614e-18)
(0.99986 0.00013058 -7.158e-19)
(0.9999 -0.00018604 -6.4098e-18)
(1 -0.00039337 2.8122e-17)
(1.0002 -0.00062301 -3.0927e-17)
(1.0003 -0.00057821 -2.0342e-18)
(1.0008 -0.00060337 2.3941e-17)
(0.99905 0.00011505 6.98e-19)
(1.0088 0.00068141 3.9165e-18)
(0.97105 0.0017282 1.8378e-17)
(1.0421 0.011973 2.2191e-17)
(0.98207 0.0042393 4.8299e-18)
(0.97141 0.044055 -9.8337e-19)
(0.99985 0.00013451 -1.8635e-18)
(0.99989 -0.00019283 -2.3639e-18)
(1 -0.00040802 -1.2467e-17)
(1.0002 -0.00064522 1.5407e-17)
(1.0004 -0.00060088 2.9718e-17)
(1.0009 -0.00062701 -1.0581e-17)
(0.9989 0.00010809 2.1727e-17)
(1.0095 0.0007305 2.9357e-18)
(0.97022 0.0016109 -2.0811e-18)
(1.0407 0.012263 1.0039e-17)
(0.98606 0.0046976 -5.3979e-18)
(0.97333 0.043351 -6.848e-19)
(0.99984 0.00013841 4.6605e-19)
(0.99988 -0.00019968 -6.2516e-18)
(1 -0.00042284 4.6672e-18)
(1.0002 -0.00066764 -1.5702e-17)
(1.0004 -0.00062395 -3.1435e-17)
(1.0009 -0.00065091 6.6681e-18)
(0.99875 9.9033e-05 -3.1344e-17)
(1.0103 0.00078529 -6.7116e-18)
(0.9695 0.0014788 6.7514e-18)
(1.0393 0.012529 -3.151e-17)
(0.98974 0.0051631 3.6957e-18)
(0.97543 0.042707 1.9349e-18)
(0.99983 0.00014231 8.1848e-19)
(0.99988 -0.00020662 1.6937e-17)
(1 -0.00043784 7.8151e-18)
(1.0002 -0.00069026 6.3961e-18)
(1.0004 -0.00064743 2.5136e-17)
(1.001 -0.00067504 1.9883e-18)
(0.99858 8.7663e-05 2.1643e-17)
(1.011 0.00084613 4.8141e-18)
(0.96888 0.0013321 -2.0517e-17)
(1.0376 0.012772 1.0848e-17)
(0.99311 0.0056314 2.4993e-18)
(0.97766 0.042116 2.0056e-18)
(0.99982 0.00014618 -2.858e-18)
(0.99987 -0.00021364 -5.5752e-18)
(1 -0.00045304 -6.8658e-18)
(1.0002 -0.0007131 1.0504e-17)
(1.0004 -0.00067136 1.2144e-17)
(1.0011 -0.00069937 -3.9593e-18)
(0.9984 7.375e-05 -1.818e-17)
(1.0118 0.00091337 2.1918e-17)
(0.96837 0.0011713 3.8006e-18)
(1.0359 0.01299 -3.2775e-18)
(0.99616 0.0060983 1.0338e-17)
(0.97996 0.041573 -1.3937e-18)
(0.9998 0.00015004 5.8728e-18)
(0.99986 -0.00022074 6.6769e-18)
(0.99999 -0.00046842 -7.2988e-18)
(1.0002 -0.00073616 -6.5437e-18)
(1.0004 -0.00069573 -1.7426e-17)
(1.0011 -0.00072389 -6.8005e-18)
(0.99821 5.7057e-05 8.9636e-18)
(1.0126 0.0009873 -3.5155e-17)
(0.96799 0.00099672 9.2999e-18)
(1.034 0.013185 -3.8746e-18)
(0.99889 0.0065601 -1.0947e-17)
(0.98229 0.041072 4.0471e-18)
(0.99979 0.00015389 -2.592e-18)
(0.99985 -0.00022792 -1.1731e-17)
(0.99999 -0.000484 -7.0742e-18)
(1.0002 -0.00075945 -1.2418e-17)
(1.0004 -0.00072058 -5.3211e-18)
(1.0012 -0.00074855 1.9996e-17)
(0.99801 3.7339e-05 -8.8053e-18)
(1.0133 0.0010682 3.9108e-17)
(0.96772 0.00080912 8.7674e-18)
(1.0321 0.013357 1.1757e-17)
(1.0013 0.0070134 4.6139e-18)
(0.98459 0.040606 -6.5625e-18)
(0.99978 0.00015771 -1.3749e-18)
(0.99984 -0.0002352 8.7245e-18)
(0.99998 -0.00049979 1.4017e-17)
(1.0002 -0.00078297 3.3481e-17)
(1.0004 -0.00074592 7.0532e-18)
(1.0013 -0.00077332 -1.3715e-17)
(0.9978 1.4348e-05 4.2492e-18)
(1.0141 0.0011562 -4.2073e-17)
(0.96757 0.00060923 -1.0633e-17)
(1.0301 0.013506 -6.5375e-18)
(1.0035 0.0074551 4.526e-18)
(0.98685 0.04017 6.5982e-18)
(0.99977 0.00016152 1.0522e-18)
(0.99983 -0.00024256 2.0655e-18)
(0.99997 -0.00051578 -1.3766e-17)
(1.0002 -0.00080673 -5.5768e-18)
(1.0004 -0.00077177 8.9561e-18)
(1.0014 -0.00079816 1.6417e-17)
(0.99758 -1.2171e-05 1.4776e-17)
(1.0148 0.0012516 4.1648e-18)
(0.96754 0.00039793 1.1895e-17)
(1.028 0.013631 -3.0295e-18)
(1.0053 0.0078824 -8.0794e-18)
(0.98902 0.039759 -1.7016e-18)
(0.99976 0.00016532 -4.3091e-20)
(0.99981 -0.00025002 2.3541e-18)
(0.99997 -0.00053198 3.0765e-18)
(1.0003 -0.00083073 -7.24e-18)
(1.0004 -0.00079816 8.3684e-20)
(1.0014 -0.00082304 -1.4885e-17)
(0.99735 -4.2475e-05 -9.9947e-18)
(1.0155 0.0013545 3.0808e-17)
(0.96764 0.00017621 -1.7974e-17)
(1.026 0.013734 1.1764e-17)
(1.0069 0.008293 4.2668e-18)
(0.99109 0.039369 -4.8048e-18)
(0.99974 0.0001691 -3.2595e-18)
(0.9998 -0.00025758 -1.104e-17)
(0.99996 -0.0005484 7.8552e-18)
(1.0003 -0.00085499 -1.9774e-17)
(1.0004 -0.00082509 -2.2651e-17)
(1.0015 -0.00084789 -2.0563e-17)
(0.99711 -7.6819e-05 -2.037e-17)
(1.0162 0.0014649 -3.1551e-18)
(0.96785 -5.4813e-05 1.5708e-17)
(1.0239 0.013815 -1.0092e-17)
(1.0082 0.0086846 4.2386e-19)
(0.99305 0.038996 4.5252e-18)
(0.99973 0.00017286 6.2912e-18)
(0.99979 -0.00026523 1.1538e-17)
(0.99995 -0.00056504 -1.2669e-17)
(1.0003 -0.00087951 1.6235e-17)
(1.0004 -0.00085261 -2.6568e-18)
(1.0016 -0.00087268 1.3479e-17)
(0.99686 -0.00011546 2.4484e-17)
(1.0169 0.0015828 -2.3897e-17)
(0.96819 -0.00029391 -7.9641e-18)
(1.0218 0.013875 1.0657e-17)
(1.0093 0.0090555 3.6866e-18)
(0.99487 0.038636 -2.1405e-18)
(0.99971 0.0001766 -4.7207e-18)
(0.99978 -0.00027299 -3.4099e-18)
(0.99995 -0.00058191 -2.6493e-18)
(1.0003 -0.00090429 1.8576e-17)
(1.0004 -0.00088073 -5.6875e-18)
(1.0017 -0.00089735 -1.7086e-19)
(0.99661 -0.00015865 -4.791e-18)
(1.0175 0.0017082 1.9142e-17)
(0.96863 -0.00053977 -7.5607e-18)
(1.0198 0.013913 -7.3182e-18)
(1.0101 0.009404 -1.0898e-17)
(0.99656 0.038285 2.4876e-18)
(0.9997 0.00018033 3.2091e-18)
(0.99977 -0.00028085 -4.3238e-18)
(0.99994 -0.00059901 6.0641e-18)
(1.0003 -0.00092934 -2.8187e-17)
(1.0004 -0.00090947 3.8528e-17)
(1.0018 -0.00092184 5.5845e-18)
(0.99635 -0.00020664 1.8903e-17)
(1.0182 0.001841 -1.1844e-17)
(0.96919 -0.00079101 1.0067e-19)
(1.0178 0.013931 5.4427e-18)
(1.0108 0.009729 -2.1192e-18)
(0.99811 0.037941 -9.3599e-19)
(0.99969 0.00018404 -9.1801e-19)
(0.99975 -0.00028882 8.4524e-19)
(0.99993 -0.00061635 1.4777e-17)
(1.0003 -0.00095467 7.6842e-18)
(1.0004 -0.00093887 -1.9262e-17)
(1.0019 -0.0009461 -1.0939e-17)
(0.99608 -0.00025966 3.3004e-18)
(1.0188 0.0019811 -5.7579e-18)
(0.96984 -0.0010462 1.265e-17)
(1.0158 0.013928 -3.5728e-18)
(1.0113 0.010029 1.0202e-17)
(0.99951 0.037601 -3.4153e-18)
(0.99967 0.00018774 -1.598e-18)
(0.99974 -0.00029691 -8.1478e-18)
(0.99992 -0.00063393 -4.3933e-18)
(1.0003 -0.00098028 3.0859e-17)
(1.0004 -0.00096895 -1.7162e-17)
(1.002 -0.00097006 -9.2674e-19)
(0.99581 -0.00031793 -4.9359e-17)
(1.0193 0.002128 5.6602e-18)
(0.9706 -0.0013037 -2.3653e-17)
(1.0139 0.013907 -7.7161e-18)
(1.0116 0.010304 -1.02e-17)
(1.0008 0.037262 2.0279e-18)
(0.99965 0.00019142 -6.8995e-19)
(0.99973 -0.00030511 5.0479e-18)
(0.99991 -0.00065176 -1.8135e-18)
(1.0003 -0.0010062 -1.7968e-17)
(1.0004 -0.00099973 2.4663e-17)
(1.0022 -0.00099367 -2.2779e-18)
(0.99554 -0.00038168 2.6145e-17)
(1.0198 0.0022817 -3.4793e-18)
(0.97145 -0.0015622 1.1484e-17)
(1.0121 0.013866 9.6508e-18)
(1.0118 0.010553 8.4137e-18)
(1.0019 0.036922 -4.9026e-19)
(0.99964 0.00019508 3.911e-18)
(0.99971 -0.00031343 -3.0205e-18)
(0.9999 -0.00066985 -6.3454e-18)
(1.0003 -0.0010324 1.9612e-17)
(1.0004 -0.0010313 1.8103e-18)
(1.0023 -0.0010169 2.8238e-17)
(0.99527 -0.0004511 4.51e-18)
(1.0203 0.0024416 1.6623e-17)
(0.97238 -0.00182 4.3084e-18)
(1.0104 0.013808 -3.1226e-18)
(1.0118 0.010776 1.0944e-18)
(1.0029 0.03658 4.4383e-19)
(0.99962 0.00019873 1.1153e-18)
(0.9997 -0.00032187 1.2348e-18)
(0.99989 -0.00068819 -5.7543e-18)
(1.0003 -0.0010589 -3.9057e-17)
(1.0004 -0.0010635 5.4822e-18)
(1.0024 -0.0010396 2.4495e-18)
(0.99499 -0.00052635 -1.9556e-17)
(1.0207 0.0026074 2.3381e-19)
(0.97339 -0.0020756 1.2694e-17)
(1.0088 0.013732 -2.0076e-18)
(1.0118 0.010973 -5.328e-18)
(1.0038 0.036234 2.6156e-18)
(0.9996 0.00020236 -4.7756e-18)
(0.99968 -0.00033044 5.2345e-18)
(0.99988 -0.0007068 9.4827e-19)
(1.0003 -0.0010857 2.1689e-17)
(1.0004 -0.0010966 -2.5008e-17)
(1.0025 -0.0010617 -1.0817e-17)
(0.99472 -0.00060761 2.0001e-17)
(1.0211 0.0027785 -1.1259e-17)
(0.97446 -0.0023275 -2.0066e-17)
(1.0073 0.013641 -9.9206e-18)
(1.0116 0.011143 6.7853e-18)
(1.0046 0.035883 8.7152e-19)
(0.99959 0.00020597 -5.0543e-19)
(0.99966 -0.00033914 -5.2676e-18)
(0.99987 -0.00072568 1.0103e-17)
(1.0003 -0.0011128 9.6174e-18)
(1.0004 -0.0011305 3.0889e-17)
(1.0027 -0.0010832 4.156e-18)
(0.99445 -0.00069499 1.7765e-17)
(1.0215 0.0029544 2.8545e-17)
(0.9756 -0.0025742 -8.8617e-19)
(1.0059 0.013534 1.745e-17)
(1.0114 0.011287 -7.1811e-19)
(1.0052 0.035525 -2.5446e-18)
(0.99957 0.00020957 4.8985e-18)
(0.99965 -0.00034798 -7.6696e-18)
(0.99986 -0.00074484 -1.5336e-17)
(1.0003 -0.0011403 -2.5556e-18)
(1.0004 -0.0011653 -3.3526e-17)
(1.0028 -0.0011041 -1.2366e-17)
(0.99418 -0.0007886 -6.1666e-18)
(1.0218 0.0031344 2.1362e-19)
(0.97679 -0.0028143 2.6113e-17)
(1.0046 0.013413 4.0212e-18)
(1.0112 0.011405 -9.3101e-18)
(1.0058 0.03516 1.5256e-18)
(0.99955 0.00021316 -5.4919e-18)
(0.99963 -0.00035695 9.5805e-18)
(0.99985 -0.00076427 8.0276e-18)
(1.0003 -0.0011681 -5.0933e-18)
(1.0004 -0.001201 2.6963e-17)
(1.0029 -0.0011242 1.4794e-17)
(0.99392 -0.0008885 -4.8747e-18)
(1.022 0.003318 -2.8767e-17)
(0.97802 -0.0030465 -8.879e-19)
(1.0035 0.013279 -1.1491e-17)
(1.0109 0.011498 1.1021e-17)
(1.0063 0.034788 -1.9985e-18)
(0.99953 0.00021673 3.3001e-18)
(0.99961 -0.00036607 -1.8335e-18)
(0.99984 -0.000784 1.063e-17)
(1.0003 -0.0011962 -2.1431e-17)
(1.0004 -0.0012376 8.8055e-18)
(1.0031 -0.0011436 -5.3144e-18)
(0.99366 -0.00099475 -1.0503e-17)
(1.0222 0.0035042 -2.3094e-18)
(0.97928 -0.0032696 -3.1512e-17)
(1.0024 0.013134 7.5812e-18)
(1.0106 0.011566 -1.009e-17)
(1.0067 0.034407 6.6645e-19)
(0.99951 0.00022028 2.6098e-19)
(0.9996 -0.00037533 -5.7679e-18)
(0.99983 -0.00080402 6.0374e-18)
(1.0003 -0.0012247 2.8209e-17)
(1.0004 -0.0012752 -2.0972e-17)
(1.0032 -0.0011621 1.7097e-17)
(0.99341 -0.0011073 -6.0729e-18)
(1.0224 0.0036925 5.3471e-18)
(0.98057 -0.0034824 3.7438e-17)
(1.0015 0.012977 -1.4074e-17)
(1.0102 0.011611 1.5422e-17)
(1.0071 0.034018 1.8855e-18)
(0.99949 0.00022382 4.6843e-19)
(0.99958 -0.00038475 -1.1941e-18)
(0.99981 -0.00082434 -8.6851e-18)
(1.0003 -0.0012535 -4.2461e-18)
(1.0003 -0.0013137 1.8279e-17)
(1.0034 -0.0011797 1.367e-19)
(0.99317 -0.0012263 -1.1937e-17)
(1.0225 0.0038818 -1.2767e-17)
(0.98188 -0.0036839 -1.5671e-17)
(1.0006 0.012812 -1.3286e-18)
(1.0099 0.011633 2.8223e-18)
(1.0074 0.03362 1.9703e-19)
(0.99947 0.00022735 -7.5367e-19)
(0.99956 -0.00039432 1.4206e-17)
(0.9998 -0.00084496 -5.7933e-18)
(1.0003 -0.0012827 -2.4e-17)
(1.0003 -0.0013533 8.4286e-18)
(1.0035 -0.0011964 -4.3561e-17)
(0.99293 -0.0013514 5.9545e-18)
(1.0226 0.0040715 8.0381e-18)
(0.9832 -0.0038733 7.2793e-19)
(0.99992 0.012637 1.4294e-17)
(1.0095 0.011633 -9.4418e-19)
(1.0077 0.033214 -5.2673e-18)
(0.99945 0.00023086 -1.9896e-19)
(0.99954 -0.00040406 -2.7867e-19)
(0.99978 -0.0008659 7.7993e-18)
(1.0003 -0.0013123 1.4818e-17)
(1.0003 -0.0013939 -3.3486e-17)
(1.0037 -0.0012122 1.8814e-18)
(0.99271 -0.0014827 1.0665e-17)
(1.0226 0.0042607 1.259e-17)
(0.98453 -0.0040498 -9.911e-18)
(0.99932 0.012456 -1.3917e-17)
(1.0092 0.011613 -1.5294e-17)
(1.0079 0.0328 5.5615e-18)
(0.99942 0.00023437 -1.3022e-18)
(0.99952 -0.00041396 3.9717e-19)
(0.99977 -0.00088716 -3.7605e-18)
(1.0003 -0.0013423 -9.8937e-18)
(1.0003 -0.0014357 1.8564e-17)
(1.0039 -0.0012269 2.3383e-17)
(0.9925 -0.0016201 3.1104e-18)
(1.0226 0.0044483 6.381e-18)
(0.98585 -0.0042128 1.5807e-17)
(0.99882 0.012269 2.3422e-18)
(1.0089 0.011573 1.1305e-17)
(1.0081 0.032378 -3.3756e-18)
(0.9994 0.00023785 2.397e-18)
(0.9995 -0.00042403 7.3219e-19)
(0.99976 -0.00090874 -5.3747e-18)
(1.0003 -0.0013726 1.4615e-18)
(1.0003 -0.0014786 -1.0065e-17)
(1.004 -0.0012407 -5.6089e-18)
(0.9923 -0.0017632 -1.1496e-18)
(1.0225 0.0046336 -2.8814e-17)
(0.98715 -0.0043618 3.1027e-18)
(0.99842 0.012078 -4.7486e-18)
(1.0087 0.011514 -4.5983e-18)
(1.0083 0.031948 -4.0679e-18)
(0.99938 0.00024133 -4.892e-18)
(0.99948 -0.00043427 9.5663e-19)
(0.99974 -0.00093065 2.8509e-18)
(1.0003 -0.0014033 -1.8368e-17)
(1.0002 -0.0015226 -1.1476e-17)
(1.0042 -0.0012534 -2.6041e-17)
(0.99211 -0.001912 5.548e-18)
(1.0225 0.0048156 1.1765e-17)
(0.98844 -0.0044965 -3.3274e-17)
(0.99812 0.011882 2.1896e-17)
(1.0084 0.011438 -4.9716e-18)
(1.0085 0.031511 2.6237e-18)
(0.99935 0.00024479 4.4907e-18)
(0.99946 -0.0004447 2.1407e-18)
(0.99972 -0.00095289 1.0964e-18)
(1.0003 -0.0014345 5.8249e-18)
(1.0002 -0.0015678 -2.5356e-18)
(1.0043 -0.0012651 5.0473e-17)
(0.99193 -0.0020661 1.9919e-17)
(1.0223 0.0049934 -1.8304e-17)
(0.98971 -0.0046168 3.2025e-17)
(0.9979 0.011685 -8.1696e-18)
(1.0082 0.011346 -3.2781e-18)
(1.0086 0.031068 -1.3083e-18)
(0.99933 0.00024825 1.1017e-18)
(0.99943 -0.00045531 -1.3555e-17)
(0.99971 -0.00097548 2.1947e-18)
(1.0003 -0.001466 2.6162e-17)
(1.0002 -0.0016143 1.9619e-17)
(1.0045 -0.0012759 -8.1424e-19)
(0.99177 -0.0022254 -2.7596e-17)
(1.0222 0.0051661 5.5403e-18)
(0.99095 -0.0047227 -7.2223e-18)
(0.99777 0.011486 -1.1307e-17)
(1.008 0.01124 8.3399e-18)
(1.0088 0.030618 1.2201e-18)
(0.9993 0.00025169 -4.3571e-18)
(0.99941 -0.00046611 -4.5193e-18)
(0.99969 -0.00099843 -1.1889e-17)
(1.0003 -0.001498 -2.1943e-17)
(1.0002 -0.001662 -1.9742e-17)
(1.0047 -0.0012856 -2.2938e-17)
(0.99163 -0.0023894 5.096e-18)
(1.022 0.0053328 4.3091e-17)
(0.99216 -0.0048142 3.1476e-18)
(0.99771 0.011286 -9.8735e-19)
(1.0079 0.01112 -2.9443e-18)
(1.0089 0.030163 -3.2771e-18)
(0.99928 0.00025513 3.2334e-18)
(0.99939 -0.00047711 4.1976e-18)
(0.99967 -0.0010217 1.8322e-17)
(1.0003 -0.0015304 1.5198e-17)
(1.0001 -0.0017109 1.9208e-17)
(1.0048 -0.0012945 -8.525e-19)
(0.99149 -0.0025579 -2.8394e-17)
(1.0217 0.0054927 -2.3293e-17)
(0.99334 -0.0048916 7.8119e-18)
(0.99773 0.011087 3.9136e-18)
(1.0078 0.010987 6.6374e-18)
(1.0091 0.029703 2.5328e-18)
(0.99925 0.00025855 -2.2836e-18)
(0.99936 -0.00048831 6.5857e-18)
(0.99965 -0.0010454 -1.2123e-17)
(1.0003 -0.0015633 2.1999e-18)
(1.0001 -0.0017612 8.9319e-18)
(1.005 -0.0013024 -2.2424e-18)
(0.99138 -0.0027304 6.3748e-18)
(1.0215 0.005645 6.4691e-18)
(0.99448 -0.0049552 2.5711e-18)
(0.99781 0.010888 9.6741e-18)
(1.0078 0.010844 -7.9824e-18)
(1.0093 0.029238 5.1181e-19)
(0.99922 0.00026197 3.448e-18)
(0.99934 -0.00049972 4.0819e-19)
(0.99964 -0.0010694 -5.6754e-18)
(1.0003 -0.0015966 8.7586e-19)
(1.0001 -0.0018128 -1.4667e-18)
(1.0052 -0.0013096 -2.2153e-17)
(0.99127 -0.0029065 1.78e-17)
(1.0212 0.0057889 2.2964e-17)
(0.99557 -0.0050055 -1.28e-17)
(0.99794 0.010692 -1.3461e-17)
(1.0077 0.01069 -2.333e-18)
(1.0094 0.02877 4.3554e-18)
(0.9992 0.00026538 -2.5048e-18)
(0.99931 -0.00051134 -3.1437e-19)
(0.99962 -0.0010938 7.0561e-18)
(1.0003 -0.0016304 -1.6819e-17)
(1.0001 -0.0018658 -1.3269e-17)
(1.0053 -0.0013159 2.7968e-17)
(0.99119 -0.003086 -2.7221e-18)
(1.0209 0.0059237 -2.4313e-17)
(0.99662 -0.0050432 3.2611e-18)
(0.99813 0.010498 1.2674e-17)
(1.0078 0.010527 7.9082e-18)
(1.0096 0.0283 -1.5704e-18)
(0.99917 0.00026878 2.4893e-19)
(0.99929 -0.00052318 2.3028e-18)
(0.9996 -0.0011186 3.8558e-18)
(1.0003 -0.0016646 8.695e-18)
(1 -0.0019201 2.6011e-17)
(1.0055 -0.0013217 6.5215e-18)
(0.99112 -0.0032683 -2.3703e-17)
(1.0206 0.0060487 2.2793e-18)
(0.99763 -0.0050688 8.4002e-18)
(0.99836 0.010307 -1.1418e-17)
(1.0078 0.010357 -5.3467e-18)
(1.0098 0.027827 -1.8168e-18)
(0.99914 0.00027218 7.0683e-19)
(0.99926 -0.00053525 -4.0047e-19)
(0.99958 -0.0011438 -1.0175e-17)
(1.0003 -0.0016994 -1.8704e-19)
(0.99999 -0.0019758 -5.1428e-17)
(1.0057 -0.0013268 8.0413e-18)
(0.99106 -0.003453 2.3284e-17)
(1.0203 0.0061633 -6.5478e-18)
(0.99859 -0.0050832 -8.7967e-18)
(0.99863 0.01012 1.8961e-17)
(1.0079 0.010179 6.3967e-18)
(1.01 0.027352 4.7085e-18)
(0.99911 0.00027557 7.5935e-19)
(0.99923 -0.00054754 -8.3121e-19)
(0.99955 -0.0011694 1.8402e-17)
(1.0003 -0.0017347 4.0109e-18)
(0.99995 -0.0020329 4.5577e-17)
(1.0058 -0.0013315 -2.8339e-17)
(0.99102 -0.0036396 -7.7974e-18)
(1.0199 0.006267 6.164e-18)
(0.99951 -0.0050871 3.031e-18)
(0.99894 0.0099359 -1.0669e-17)
(1.008 0.0099954 -1.0357e-18)
(1.0102 0.026876 -3.4719e-18)
(0.99908 0.00027895 -2.9674e-18)
(0.9992 -0.00056008 1.3958e-18)
(0.99953 -0.0011954 -1.0816e-17)
(1.0003 -0.0017705 5.2744e-18)
(0.99991 -0.0020913 -1.7318e-17)
(1.006 -0.0013359 3.8431e-18)
(0.99099 -0.0038278 3.1221e-17)
(1.0196 0.0063594 -2.3073e-17)
(1.0004 -0.0050814 -1.1141e-17)
(0.99927 0.0097559 -1.0553e-17)
(1.0082 0.0098066 -5.0861e-18)
(1.0104 0.0264 -9.5347e-19)
(0.99905 0.00028234 3.6966e-18)
(0.99917 -0.00057286 -3.315e-18)
(0.99951 -0.0012218 -1.0498e-17)
(1.0003 -0.0018068 -8.4105e-18)
(0.99987 -0.0021512 -2.8319e-17)
(1.0062 -0.0013401 -1.7827e-17)
(0.99097 -0.0040171 -1.9143e-17)
(1.0192 0.0064399 2.1455e-17)
(1.0012 -0.005067 1.0801e-17)
(0.99963 0.0095799 1.5982e-17)
(1.0083 0.0096133 -1.9906e-18)
(1.0106 0.025924 4.6022e-18)
(0.99902 0.00028572 -5.9414e-18)
(0.99914 -0.00058589 5.3716e-18)
(0.99949 -0.0012486 2.5705e-17)
(1.0003 -0.0018437 -1.9839e-18)
(0.99983 -0.0022125 3.1332e-17)
(1.0063 -0.0013442 1.3434e-18)
(0.99097 -0.004207 -1.8336e-17)
(1.0188 0.0065084 8.3995e-18)
(1.002 -0.0050449 -3.8952e-18)
(1 0.009408 -3.3465e-18)
(1.0085 0.0094163 6.4584e-18)
(1.0109 0.025448 -3.1122e-18)
(0.99898 0.00028909 4.8691e-18)
(0.99911 -0.00059918 -7.3003e-18)
(0.99946 -0.0012758 -2.9971e-17)
(1.0003 -0.0018812 1.2979e-17)
(0.99978 -0.0022752 -2.2325e-17)
(1.0065 -0.0013484 2.4644e-17)
(0.99098 -0.0043972 5.9762e-18)
(1.0185 0.0065645 -7.9949e-18)
(1.0027 -0.005016 -1.8695e-18)
(1.0004 0.0092402 -8.3808e-18)
(1.0088 0.0092161 -1.0528e-17)
(1.0111 0.024973 4.3017e-18)
(0.99895 0.00029247 -3.5867e-18)
(0.99908 -0.00061273 2.4276e-18)
(0.99944 -0.0013035 1.8212e-17)
(1.0002 -0.0019192 -1.711e-17)
(0.99974 -0.0023394 3.5923e-17)
(1.0066 -0.0013528 -1.9129e-17)
(0.99101 -0.0045873 3.4838e-18)
(1.0181 0.0066081 -1.264e-17)
(1.0034 -0.0049813 6.1024e-18)
(1.0008 0.0090763 -1.1724e-18)
(1.009 0.0090134 4.5068e-18)
(1.0114 0.0245 -1.9128e-18)
(0.99891 0.00029584 4.3993e-18)
(0.99905 -0.00062656 1.8901e-18)
(0.99941 -0.0013316 -1.2143e-17)
(1.0002 -0.0019579 -3.4823e-19)
(0.99969 -0.0024049 -1.5848e-18)
(1.0068 -0.0013577 4.6258e-18)
(0.99105 -0.0047767 3.3085e-17)
(1.0177 0.0066391 8.6463e-18)
(1.0041 -0.0049417 -1.8088e-17)
(1.0012 0.0089161 -6.0778e-18)
(1.0093 0.0088087 -4.2378e-18)
(1.0117 0.024028 2.0102e-18)
(0.99888 0.00029921 -5.0427e-18)
(0.99902 -0.00064066 -7.0046e-18)
(0.99938 -0.0013602 5.0943e-18)
(1.0002 -0.0019972 1.4805e-17)
(0.99965 -0.0024718 -3.2591e-17)
(1.007 -0.0013631 1.5544e-17)
(0.9911 -0.0049653 -3.1855e-17)