/*--------------------------------*- C++ -*----------------------------------*\
  =========                 |
  \\      /  F ield         | OpenFOAM: The Open Source CFD Toolbox
   \\    /   O peration     | Website:  https://openfoam.org
    \\  /    A nd           | Version:  6.0
     \\/     M anipulation  |
\*---------------------------------------------------------------------------*/
FoamFile
{
    version     2.0;
    format      ascii;
    class       volVectorField;
    location    "1.85";
    object      U;
}
// * * * * * * * * * * * * * * * * * * * * * * * * * * * * * * * * * * * * * //

dimensions      [0 1 -1 0 0 0 0];

internalField   nonuniform List<vector> 
13500
(
(1 1.4386e-06 -4.3097e-18)
(1 -3.0542e-06 2.9157e-18)
(1 -6.4784e-06 -1.2545e-17)
(1 -8.8027e-06 -8.6716e-18)
(1 -9.5182e-06 1.636e-17)
(1 -6.8372e-06 3.036e-17)
(1 -9.1937e-08 2.6198e-17)
(0.99998 1.5034e-05 -4.2035e-18)
(0.99991 4.5967e-05 1.5544e-17)
(0.99981 7.1735e-05 3.3338e-18)
(0.99572 0.00075382 2.8877e-17)
(1.0192 0.010827 7.888e-18)
(1 4.2701e-06 2.67e-18)
(1 -8.6007e-06 -8.8548e-18)
(1 -1.8235e-05 5.991e-18)
(1 -2.4966e-05 -3.4194e-19)
(1 -2.6448e-05 -4.3628e-19)
(1 -1.818e-05 -3.6506e-17)
(1 2.3763e-06 -4.5249e-17)
(0.99993 4.756e-05 -2.4051e-17)
(0.9997 0.00014768 -1.5513e-17)
(0.99985 0.00017733 -1.6487e-18)
(0.98621 0.0021785 -1.3675e-17)
(1.0539 0.030581 -4.776e-18)
(1 7.1369e-06 -3.4486e-18)
(1 -1.4297e-05 1.7593e-17)
(1 -3.0046e-05 3.1162e-18)
(1 -4.1431e-05 9.9982e-18)
(1 -4.3557e-05 -3.7727e-18)
(1 -2.9766e-05 2.9242e-17)
(1 4.7473e-06 -6.37e-18)
(0.99989 8.0134e-05 5.4633e-18)
(0.99947 0.00025633 -1.882e-17)
(1.0003 0.00030298 2.5046e-17)
(0.97606 0.003243 -7.1503e-18)
(1.0827 0.045047 1.6778e-18)
(1 1.0044e-05 9.0154e-18)
(1 -2.0203e-05 -1.7056e-17)
(1 -4.2098e-05 -1.4772e-17)
(1 -5.832e-05 -7.0146e-19)
(1 -6.109e-05 5.824e-18)
(1 -4.1765e-05 -8.1179e-19)
(1 6.7711e-06 6.2759e-17)
(0.99987 0.00011225 9.8427e-18)
(0.99921 0.00037045 2.2254e-17)
(1.0012 0.00045475 -9.072e-18)
(0.96569 0.003971 3.482e-17)
(1.1042 0.055512 -7.6372e-18)
(1 1.2979e-05 -6.3347e-18)
(1 -2.6171e-05 1.4741e-17)
(1 -5.4175e-05 1.2574e-17)
(1 -7.5292e-05 1.2796e-17)
(1.0001 -7.8699e-05 2.8558e-18)
(1.0001 -5.3777e-05 2.1492e-17)
(1 8.7152e-06 -2.8026e-17)
(0.99985 0.00014393 1.9989e-18)
(0.99891 0.00048829 -1.3645e-17)
(1.0025 0.00063597 -2.1645e-18)
(0.9555 0.0044112 -9.0299e-18)
(1.1185 0.063114 2.1164e-18)
(1 1.5946e-05 6.4108e-18)
(1 -3.2206e-05 -6.1111e-18)
(1 -6.6273e-05 3.8403e-18)
(1 -9.2351e-05 -2.5348e-17)
(1.0001 -9.6385e-05 -8.3588e-20)
(1.0001 -6.5818e-05 -4.2547e-17)
(1 1.0558e-05 1.0755e-18)
(0.99984 0.00017507 -1.6047e-17)
(0.99856 0.00060793 5.1961e-18)
(1.0042 0.00085448 -2.1812e-17)
(0.94582 0.0046047 -2.1742e-17)
(1.1261 0.068468 2.0478e-18)
(0.99999 1.8948e-05 -1.0612e-18)
(1 -3.8315e-05 -7.3089e-18)
(1 -7.8391e-05 -3.121e-18)
(1.0001 -0.00010951 1.9132e-17)
(1.0001 -0.00011415 -2.645e-17)
(1.0001 -7.7902e-05 1.6279e-17)
(1 1.2306e-05 1.8746e-17)
(0.99984 0.00020571 5.6456e-18)
(0.99816 0.00072747 1.1616e-17)
(1.0061 0.0011178 1.1743e-17)
(0.93697 0.0045882 9.3677e-18)
(1.1282 0.072004 3.2915e-18)
(0.99999 2.199e-05 -2.1903e-18)
(1 -4.4502e-05 -1.4378e-18)
(1 -9.0529e-05 -2.6886e-17)
(1.0001 -0.00012677 -9.1357e-18)
(1.0001 -0.000132 7.4032e-18)
(1.0001 -9.0045e-05 2.6678e-17)
(1 1.3955e-05 1.1932e-17)
(0.99985 0.0002359 5.0397e-18)
(0.99769 0.0008449 -7.5929e-18)
(1.0083 0.0014309 1.6449e-17)
(0.92916 0.004397 7.5659e-18)
(1.1256 0.074083 -1.0473e-17)
(0.99999 2.5072e-05 -6.7995e-18)
(1 -5.0773e-05 6.1814e-18)
(1 -0.00010269 4.5206e-17)
(1.0001 -0.00014415 -1.0958e-17)
(1.0001 -0.00014994 2.7724e-17)
(1.0001 -0.00010226 -5.2672e-17)
(1 1.5493e-05 -3.9747e-17)
(0.99988 0.00026574 9.7925e-18)
(0.99717 0.00095816 -5.7029e-18)
(1.0106 0.0017963 -9.0719e-18)
(0.92255 0.004065 -1.3979e-17)
(1.1194 0.075012 1.3706e-17)
(0.99999 2.8197e-05 4.4797e-18)
(1 -5.7128e-05 2.3267e-18)
(1 -0.00011487 -3.8293e-17)
(1.0001 -0.00016165 1.5595e-17)
(1.0001 -0.00016797 -1.209e-17)
(1.0001 -0.00011457 2.2464e-17)
(1 1.6902e-05 1.4125e-17)
(0.99993 0.00029536 2.4751e-18)
(0.99658 0.0010652 5.3837e-19)
(1.0131 0.0022147 1.4375e-18)
(0.91724 0.003624 4.4476e-18)
(1.1105 0.075044 -7.1563e-19)
(0.99999 3.1364e-05 -2.4595e-18)
(1 -6.357e-05 -7.6307e-18)
(1 -0.00012707 9.3866e-18)
(1.0001 -0.00017927 -2.7515e-18)
(1.0001 -0.0001861 1.8663e-18)
(1.0001 -0.00012699 -2.4619e-17)
(1 1.816e-05 -3.2534e-17)
(0.99999 0.00032495 -3.144e-17)
(0.99593 0.0011639 1.5941e-17)
(1.0156 0.002685 1.8673e-18)
(0.91327 0.003103 -1.1281e-17)
(1.0998 0.074386 -5.9114e-18)
(0.99998 3.4571e-05 3.3948e-18)
(1 -7.0098e-05 2.8823e-18)
(1 -0.00013931 4.5237e-18)
(1.0001 -0.00019702 -2.1928e-18)
(1.0001 -0.00020434 -5.5943e-18)
(1.0001 -0.00013953 9.3113e-18)
(1.0001 1.9236e-05 1.8832e-17)
(1.0001 0.00035473 1.9423e-17)
(0.99522 0.0012523 1.0243e-17)
(1.0181 0.0032048 -2.3577e-17)
(0.91062 0.0025288 1.1842e-19)
(1.0879 0.073208 -6.8499e-18)
(0.99998 3.7816e-05 -3.3942e-18)
(1 -7.6711e-05 5.668e-18)
(1 -0.00015158 8.2018e-18)
(1.0001 -0.00021489 5.7258e-18)
(1.0002 -0.00022268 -5.1888e-18)
(1.0002 -0.00015222 4.5774e-18)
(1.0001 2.0095e-05 4.2945e-18)
(1.0002 0.00038498 -1.7345e-18)
(0.99446 0.0013286 -1.6555e-17)
(1.0206 0.0037708 2.1864e-17)
(0.90924 0.0019251 1.0555e-19)
(1.0754 0.071649 1.4638e-18)
(0.99998 4.1096e-05 5.1615e-18)
(0.99999 -8.3408e-05 -4.4244e-18)
(1 -0.00016389 7.1801e-19)
(1.0001 -0.00023291 -4.7764e-18)
(1.0002 -0.00024113 1.1784e-17)
(1.0002 -0.00016506 5.5848e-18)
(1.0001 2.0694e-05 1.728e-17)
(1.0003 0.000416 -6.441e-18)
(0.99366 0.0013909 -2.0224e-19)
(1.0229 0.0043786 5.3704e-18)
(0.90906 0.0013129 1.7122e-17)
(1.0629 0.069821 9.3359e-19)
(0.99997 4.4408e-05 1.2449e-18)
(0.99999 -9.019e-05 9.8192e-18)
(1 -0.00017625 1.3715e-17)
(1.0001 -0.00025107 -4.7621e-18)
(1.0002 -0.0002597 8.533e-18)
(1.0002 -0.00017808 -2.6072e-18)
(1.0001 2.0981e-05 -3.0265e-17)
(1.0004 0.00044813 2.0387e-17)
(0.99283 0.0014376 -1.867e-17)
(1.0251 0.0050235 -3.0975e-17)
(0.90997 0.00071026 -3.7591e-18)
(1.0507 0.067817 8.6556e-19)
(0.99997 4.775e-05 -3.1759e-18)
(0.99999 -9.7055e-05 -1.0443e-17)
(1 -0.00018865 -3.2919e-17)
(1.0001 -0.00026937 8.0234e-18)
(1.0002 -0.0002784 -1.2949e-17)
(1.0002 -0.00019128 8.3588e-18)
(1.0001 2.0898e-05 -2.8321e-18)
(1.0006 0.00048174 -1.2273e-17)
(0.99197 0.0014673 4.0991e-18)
(1.0271 0.0057002 1.8497e-17)
(0.91184 0.00013251 -7.8882e-18)
(1.0391 0.065709 1.2059e-17)
(0.99997 5.112e-05 3.3416e-19)
(0.99999 -0.000104 7.8101e-18)
(1 -0.0002011 2.2727e-17)
(1.0001 -0.00028783 -1.8069e-18)
(1.0002 -0.00029723 -1.2864e-17)
(1.0002 -0.00020468 -1.5577e-17)
(1.0001 2.038e-05 1.0817e-17)
(1.0008 0.00051721 7.0377e-18)
(0.99108 0.0014787 2.3696e-17)
(1.0289 0.0064035 -2.5901e-18)
(0.91455 -0.00040784 1.9599e-18)
(1.0283 0.063556 -4.8106e-18)
(0.99996 5.4518e-05 -1.8748e-18)
(0.99998 -0.00011104 -9.4634e-18)
(1 -0.00021361 -1.0255e-17)
(1.0001 -0.00030645 6.0383e-18)
(1.0002 -0.0003162 -7.225e-18)
(1.0003 -0.0002183 -1.2493e-17)
(1.0001 1.9354e-05 1.0516e-17)
(1.001 0.00055493 -4.7746e-18)
(0.9902 0.0014705 -2.9326e-17)
(1.0304 0.0071277 -1.4516e-17)
(0.91797 -0.00090087 8.5053e-18)
(1.0185 0.061404 -5.2216e-18)
(0.99996 5.7941e-05 -2.6845e-18)
(0.99998 -0.00011816 -3.5767e-18)
(1 -0.00022618 -7.5999e-19)
(1.0001 -0.00032524 -2.6442e-17)
(1.0002 -0.0003353 6.0621e-18)
(1.0003 -0.00023214 5.4407e-18)
(1.0001 1.7743e-05 -1.9983e-17)
(1.0012 0.00059529 -1.6299e-17)
(0.98931 0.0014421 4.2888e-18)
(1.0317 0.0078676 -1.0912e-18)
(0.92196 -0.0013391 -9.8217e-18)
(1.0098 0.059287 9.8735e-19)
(0.99995 6.1392e-05 3.4918e-18)
(0.99998 -0.00012537 1.6396e-17)
(1 -0.00023881 1.957e-17)
(1.0001 -0.0003442 2.4903e-18)
(1.0002 -0.00035456 1.6758e-17)
(1.0003 -0.00024624 9.5338e-18)
(1.0001 1.5465e-05 2.8842e-18)
(1.0014 0.00063868 1.7839e-17)
(0.98845 0.0013926 2.1313e-17)
(1.0328 0.0086178 1.7334e-17)
(0.92638 -0.0017173 7.3291e-18)
(1.0022 0.057233 1.1724e-18)
(0.99995 6.487e-05 -1.6643e-18)
(0.99997 -0.00013268 -3.9341e-18)
(1 -0.0002515 -2.085e-17)
(1.0001 -0.00036334 -2.3575e-18)
(1.0003 -0.00037396 -1.2701e-17)
(1.0003 -0.00026059 -5.1579e-18)
(1.0001 1.243e-05 -1.8514e-18)
(1.0017 0.00068547 -1.613e-17)
(0.9876 0.0013218 -2.038e-17)
(1.0335 0.0093731 8.8848e-18)
(0.93113 -0.0020321 5.0235e-19)
(0.99567 0.055259 6.7334e-19)
(0.99994 6.8378e-05 4.4115e-18)
(0.99997 -0.00014008 -5.1398e-18)
(1 -0.00026425 -1.9555e-17)
(1.0001 -0.00038268 4.4823e-17)
(1.0003 -0.00039351 1.8424e-17)
(1.0003 -0.00027521 -1.2621e-17)
(1.0001 8.5501e-06 2.4888e-17)
(1.002 0.000736 2.1799e-17)
(0.98679 0.0012296 3.3072e-17)
(1.034 0.010129 -3.2565e-17)
(0.93609 -0.0022822 -1.346e-17)
(0.99021 0.05338 1.7782e-19)
(0.99993 7.1916e-05 -3.2291e-18)
(0.99996 -0.00014758 -1.0314e-18)
(1 -0.00027706 3.3385e-17)
(1.0002 -0.00040222 -3.3883e-17)
(1.0003 -0.00041323 -1.7736e-18)
(1.0004 -0.00029012 4.1819e-17)
(1 3.7317e-06 7.7133e-18)
(1.0023 0.00079056 -3.3675e-18)
(0.98602 0.0011161 -2.0511e-17)
(1.0343 0.01088 3.8377e-17)
(0.94116 -0.0024674 -5.7008e-18)
(0.98576 0.051604 -2.8233e-19)
(0.99993 7.5486e-05 -1.6461e-18)
(0.99996 -0.00015519 -2.0551e-18)
(1 -0.00028994 1.7385e-18)
(1.0002 -0.00042197 3.525e-17)
(1.0003 -0.00043311 -9.9997e-18)
(1.0004 -0.00030534 -3.0909e-17)
(1 -2.1172e-06 -1.9666e-17)
(1.0026 0.00084943 -3.6257e-18)
(0.98531 0.00098182 6.4865e-18)
(1.0343 0.011621 -3.2375e-17)
(0.94624 -0.0025891 9.549e-18)
(0.98223 0.049934 3.0619e-18)
(0.99992 7.9091e-05 2.7203e-18)
(0.99996 -0.00016292 1.4304e-17)
(1 -0.00030288 -1.2821e-17)
(1.0002 -0.00044195 -3.691e-18)
(1.0003 -0.00045315 -1.9191e-17)
(1.0004 -0.00032087 3.3626e-17)
(1 -9.0878e-06 -1.7264e-17)
(1.0029 0.00091281 1.5028e-17)
(0.98465 0.00082755 -1.999e-18)
(1.034 0.01235 3.0354e-17)
(0.95126 -0.0026497 -9.3169e-18)
(0.97955 0.048372 -5.1093e-18)
(0.99991 8.2733e-05 -5.2174e-19)
(0.99995 -0.00017075 -8.2266e-18)
(1 -0.00031588 -1.7953e-17)
(1.0002 -0.00046215 -1.0113e-17)
(1.0003 -0.00047336 1.8614e-17)
(1.0004 -0.00033674 -4.2878e-17)
(0.99998 -1.7268e-05 -2.6642e-18)
(1.0032 0.00098084 -2.0303e-17)
(0.98405 0.00065431 3.2299e-18)
(1.0336 0.01306 -8.7549e-18)
(0.95615 -0.0026524 9.9172e-18)
(0.97761 0.046916 2.1678e-18)
(0.99991 8.6413e-05 2.7332e-18)
(0.99994 -0.00017871 -8.8121e-18)
(1 -0.00032896 -1.7736e-18)
(1.0002 -0.0004826 2.4573e-18)
(1.0003 -0.00049375 5.8914e-18)
(1.0005 -0.00035296 1.239e-17)
(0.99995 -2.6741e-05 4.3676e-17)
(1.0035 0.0010536 2.4261e-18)
(0.98353 0.00046343 5.2638e-18)
(1.033 0.013749 9.6497e-18)
(0.96086 -0.0026012 -8.4806e-18)
(0.97633 0.045564 1.6657e-18)
(0.9999 9.0133e-05 -1.5673e-18)
(0.99994 -0.00018679 8.804e-18)
(1 -0.0003421 2.5519e-17)
(1.0002 -0.0005033 -2.4759e-17)
(1.0003 -0.00051431 -9.1641e-18)
(1.0005 -0.00036955 -2.1798e-18)
(0.99992 -3.7583e-05 -1.4396e-17)
(1.0039 0.0011311 1.8821e-18)
(0.98307 0.00025646 -9.1196e-18)
(1.0321 0.014414 -3.5465e-18)
(0.96534 -0.0025004 -2.3939e-19)
(0.97562 0.04431 -2.0351e-18)
(0.99989 9.3894e-05 -1.6845e-18)
(0.99993 -0.000195 5.2697e-18)
(1 -0.0003553 -6.1721e-19)
(1.0002 -0.00052426 8.2101e-18)
(1.0004 -0.00053505 -1.6909e-17)
(1.0005 -0.00038652 2.4666e-17)
(0.99988 -4.9861e-05 7.181e-18)
(1.0042 0.0012133 -1.7955e-17)
(0.9827 3.5148e-05 -1.1696e-17)
(1.0312 0.01505 -1.4042e-17)
(0.96957 -0.0023549 1.3444e-18)
(0.97538 0.043148 -3.7309e-18)
(0.99988 9.77e-05 5.8536e-19)
(0.99993 -0.00020334 -1.2585e-17)
(1 -0.00036858 1.5802e-17)
(1.0002 -0.0005455 2.2707e-17)
(1.0004 -0.00055597 3.3143e-17)
(1.0005 -0.0004039 -1.8115e-17)
(0.99984 -6.3634e-05 -1.7853e-17)
(1.0046 0.0013 3.6441e-18)
(0.98239 -0.00019855 1.0959e-17)
(1.0301 0.015655 1.0992e-17)
(0.97352 -0.0021697 6.2565e-18)
(0.97554 0.042073 3.7082e-18)
(0.99988 0.00010155 1.1218e-18)
(0.99992 -0.00021182 1.0008e-17)
(1 -0.00038193 -3.6306e-17)
(1.0002 -0.00056702 -3.2902e-18)
(1.0004 -0.00057708 -2.7532e-17)
(1.0006 -0.00042172 -1.141e-17)
(0.9998 -7.8946e-05 2.5063e-20)
(1.0049 0.001391 -4.167e-18)
(0.98216 -0.00044255 -2.1597e-17)
(1.0289 0.016226 -1.7549e-17)
(0.97718 -0.00195 -8.544e-18)
(0.97601 0.041078 -1.8285e-18)
(0.99987 0.00010545 -7.2708e-19)
(0.99991 -0.00022044 -6.5083e-18)
(1 -0.00039535 2.8566e-17)
(1.0002 -0.00058884 -3.1393e-17)
(1.0004 -0.00059837 -2.0708e-18)
(1.0006 -0.00043999 2.4297e-17)
(0.99976 -9.5832e-05 7.1434e-19)
(1.0052 0.0014861 3.9745e-18)
(0.98201 -0.00069468 1.8906e-17)
(1.0277 0.016762 2.2813e-17)
(0.98054 -0.0017009 4.8883e-18)
(0.97674 0.040156 -1.0218e-18)
(0.99986 0.00010939 -1.8928e-18)
(0.99991 -0.00022922 -2.4001e-18)
(1 -0.00040885 -1.2664e-17)
(1.0002 -0.00061097 1.5639e-17)
(1.0004 -0.00061985 3.0259e-17)
(1.0007 -0.00045873 -1.0738e-17)
(0.99971 -0.00011431 2.2237e-17)
(1.0056 0.0015848 2.979e-18)
(0.98192 -0.0009527 -2.1424e-18)
(1.0264 0.01726 1.032e-17)
(0.9836 -0.0014275 -5.4618e-18)
(0.97765 0.0393 -7.1263e-19)
(0.99985 0.00011339 4.7338e-19)
(0.9999 -0.00023814 -6.3472e-18)
(1 -0.00042242 4.7406e-18)
(1.0002 -0.00063342 -1.5938e-17)
(1.0004 -0.00064152 -3.2006e-17)
(1.0007 -0.00047799 6.7668e-18)
(0.99966 -0.00013438 -3.208e-17)
(1.0059 0.0016868 -6.8094e-18)
(0.98191 -0.0012144 6.9489e-18)
(1.025 0.017718 -3.2391e-17)
(0.98637 -0.0011347 3.74e-18)
(0.97871 0.038503 2.0097e-18)
(0.99984 0.00011743 8.3129e-19)
(0.99989 -0.00024722 1.7196e-17)
(1 -0.00043607 7.9375e-18)
(1.0002 -0.0006562 6.4925e-18)
(1.0004 -0.00066338 2.5593e-17)
(1.0007 -0.00049779 2.0175e-18)
(0.9996 -0.00015605 2.2152e-17)
(1.0062 0.0017916 4.8847e-18)
(0.98196 -0.0014775 -2.1123e-17)
(1.0237 0.018137 1.1152e-17)
(0.98887 -0.00082724 2.5291e-18)
(0.97986 0.037759 2.085e-18)
(0.99983 0.00012153 -2.9026e-18)
(0.99988 -0.00025645 -5.6604e-18)
(1 -0.0004498 -6.9738e-18)
(1.0002 -0.00067934 1.0662e-17)
(1.0004 -0.00068542 1.2364e-17)
(1.0008 -0.00051817 -4.0179e-18)
(0.99955 -0.00017928 -1.8608e-17)
(1.0065 0.0018988 2.2238e-17)
(0.98207 -0.0017401 3.9102e-18)
(1.0223 0.018514 -3.3688e-18)
(0.9911 -0.00050949 1.0461e-17)
(0.98107 0.037062 -1.4496e-18)
(0.99982 0.00012568 5.9644e-18)
(0.99987 -0.00026586 6.7787e-18)
(1 -0.00046361 -7.4131e-18)
(1.0002 -0.00070283 -6.6416e-18)
(1.0005 -0.00070766 -1.7741e-17)
(1.0008 -0.00053916 -6.9006e-18)
(0.99949 -0.00020403 9.1745e-18)
(1.0068 0.0020077 -3.5667e-17)
(0.98223 -0.0019999 9.5759e-18)
(1.021 0.018851 -3.9823e-18)
(0.99308 -0.00018556 -1.1077e-17)
(0.98231 0.036406 4.2119e-18)
(0.99981 0.00012988 -2.6324e-18)
(0.99986 -0.00027543 -1.191e-17)
(1 -0.0004775 -7.1846e-18)
(1.0002 -0.0007267 -1.2603e-17)
(1.0005 -0.00073008 -5.4169e-18)
(1.0009 -0.0005608 2.0289e-17)
(0.99943 -0.00023027 -9.0128e-18)
(1.0071 0.0021179 3.9677e-17)
(0.98244 -0.0022554 9.0311e-18)
(1.0198 0.019147 1.2084e-17)
(0.99484 0.0001408 4.669e-18)
(0.98356 0.035787 -6.832e-18)
(0.9998 0.00013414 -1.3963e-18)
(0.99985 -0.00028518 8.8572e-18)
(1 -0.00049148 1.4235e-17)
(1.0002 -0.00075095 3.3981e-17)
(1.0005 -0.00075268 7.1804e-18)
(1.0009 -0.00058315 -1.3917e-17)
(0.99937 -0.00025793 4.3493e-18)
(1.0074 0.0022287 -4.2685e-17)
(0.9827 -0.0025046 -1.0955e-17)
(1.0185 0.019401 -6.7191e-18)
(0.99639 0.00046621 4.5808e-18)
(0.98479 0.035199 6.8725e-18)
(0.99978 0.00013845 1.0686e-18)
(0.99985 -0.00029511 2.0967e-18)
(1 -0.00050555 -1.398e-17)
(1.0002 -0.00077561 -5.6601e-18)
(1.0005 -0.00077547 9.1171e-18)
(1.001 -0.00060623 1.6657e-17)
(0.9993 -0.00028694 1.5125e-17)
(1.0077 0.0023395 4.2253e-18)
(0.98299 -0.0027463 1.2257e-17)
(1.0174 0.019617 -3.1134e-18)
(0.99775 0.00078769 -8.1769e-18)
(0.986 0.034639 -1.7719e-18)
(0.99977 0.00014282 -4.3761e-20)
(0.99984 -0.00030522 2.3896e-18)
(0.99999 -0.0005197 3.1244e-18)
(1.0002 -0.00080069 -7.3478e-18)
(1.0005 -0.00079844 8.4875e-20)
(1.001 -0.00063011 -1.5103e-17)
(0.99923 -0.00031723 -1.023e-17)
(1.008 0.0024499 3.1257e-17)
(0.98332 -0.0029792 -1.8524e-17)
(1.0163 0.019793 1.209e-17)
(0.99895 0.0011026 4.3188e-18)
(0.98718 0.034101 -5.0095e-18)
(0.99976 0.00014724 -3.3097e-18)
(0.99983 -0.00031552 -1.1207e-17)
(0.99999 -0.00053394 7.9767e-18)
(1.0002 -0.0008262 -2.0067e-17)
(1.0005 -0.00082158 -2.3057e-17)
(1.0011 -0.00065484 -2.0863e-17)
(0.99916 -0.00034872 -2.0851e-17)
(1.0082 0.0025593 -3.201e-18)
(0.98368 -0.0032023 1.6189e-17)
(1.0153 0.019932 -1.0371e-17)
(1 0.0014089 4.2947e-19)
(0.98831 0.033585 4.7197e-18)
(0.99975 0.00015173 6.3882e-18)
(0.99981 -0.00032601 1.1712e-17)
(0.99998 -0.00054828 -1.2864e-17)
(1.0002 -0.00085217 1.6476e-17)
(1.0005 -0.0008449 -2.7038e-18)
(1.0011 -0.00068046 1.3675e-17)
(0.99909 -0.00038133 2.5063e-17)
(1.0085 0.0026672 -2.4246e-17)
(0.98406 -0.0034148 -8.2096e-18)
(1.0143 0.020036 1.0951e-17)
(1.0009 0.0017045 3.7329e-18)
(0.98939 0.033085 -2.2335e-18)
(0.99973 0.00015627 -4.7934e-18)
(0.9998 -0.0003367 -3.4615e-18)
(0.99997 -0.00056272 -2.6897e-18)
(1.0002 -0.0008786 1.8851e-17)
(1.0005 -0.00086837 -5.7882e-18)
(1.0012 -0.00070704 -1.7328e-19)
(0.99902 -0.000415 -4.9042e-18)
(1.0087 0.0027731 1.9421e-17)
(0.98446 -0.0036161 -7.7953e-18)
(1.0135 0.020105 -7.5201e-18)
(1.0017 0.0019881 -1.1035e-17)
(0.99043 0.0326 2.5975e-18)
(0.99972 0.00016088 3.2583e-18)
(0.99979 -0.00034759 -4.389e-18)
(0.99997 -0.00057725 6.1575e-18)
(1.0002 -0.00090551 -2.8603e-17)
(1.0005 -0.00089201 3.9214e-17)
(1.0012 -0.00073462 5.6654e-18)
(0.99895 -0.00044964 1.935e-17)
(1.0089 0.0028765 -1.2017e-17)
(0.98488 -0.003806 1.0283e-19)
(1.0127 0.020142 5.5924e-18)
(1.0025 0.0022585 -2.1474e-18)
(0.99142 0.032128 -9.7717e-19)
(0.99971 0.00016554 -9.3211e-19)
(0.99978 -0.00035869 8.5791e-19)
(0.99996 -0.00059188 1.5003e-17)
(1.0002 -0.00093292 7.7977e-18)
(1.0005 -0.0009158 -1.9604e-17)
(1.0013 -0.00076326 -1.1097e-17)
(0.99887 -0.00048521 3.3788e-18)
(1.0092 0.002977 -5.8423e-18)
(0.9853 -0.0039842 1.3043e-17)
(1.012 0.020149 -3.6711e-18)
(1.0031 0.0025149 1.0333e-17)
(0.99236 0.031667 -3.5693e-18)
(0.99969 0.00017026 -1.6224e-18)
(0.99977 -0.00037001 -8.2699e-18)
(0.99995 -0.00060661 -4.4608e-18)
(1.0002 -0.00096086 3.1313e-17)
(1.0005 -0.00093973 -1.7466e-17)
(1.0014 -0.00079302 -9.3992e-19)
(0.9988 -0.00052164 -5.0528e-17)
(1.0094 0.0030744 5.7429e-18)
(0.98574 -0.004151 -2.439e-17)
(1.0113 0.020128 -7.928e-18)
(1.0037 0.0027567 -1.0334e-17)
(0.99326 0.031215 2.1195e-18)
(0.99968 0.00017505 -7.0042e-19)
(0.99976 -0.00038154 5.1236e-18)
(0.99994 -0.00062145 -1.8414e-18)
(1.0003 -0.00098933 -1.8232e-17)
(1.0005 -0.00096381 2.51e-17)
(1.0014 -0.00082394 -2.3104e-18)
(0.99872 -0.00055891 2.6765e-17)
(1.0096 0.0031682 -3.5303e-18)
(0.98618 -0.0043064 1.1842e-17)
(1.0108 0.020081 9.9156e-18)
(1.0042 0.0029836 8.5246e-18)
(0.99411 0.030771 -5.1305e-19)
(0.99966 0.0001799 3.9704e-18)
(0.99974 -0.0003933 -3.0655e-18)
(0.99993 -0.0006364 -6.4418e-18)
(1.0003 -0.0010184 1.9899e-17)
(1.0005 -0.00098802 1.8419e-18)
(1.0015 -0.00085607 2.8644e-17)
(0.99864 -0.00059699 4.6171e-18)
(1.0098 0.0032583 1.6867e-17)
(0.98663 -0.0044508 4.4428e-18)
(1.0103 0.020009 -3.2082e-18)
(1.0047 0.0031955 1.1094e-18)
(0.99493 0.030334 4.6418e-19)
(0.99965 0.0001848 1.1321e-18)
(0.99973 -0.00040529 1.2534e-18)
(0.99993 -0.00065145 -5.8413e-18)
(1.0003 -0.001048 -3.9629e-17)
(1.0006 -0.0010124 5.5781e-18)
(1.0016 -0.00088945 2.4843e-18)
(0.99856 -0.00063589 -2.002e-17)
(1.01 0.0033444 2.3729e-19)
(0.98708 -0.0045848 1.3091e-17)
(1.0098 0.019916 -2.0626e-18)
(1.0051 0.0033925 -5.4008e-18)
(0.99571 0.029904 2.7382e-18)
(0.99963 0.00018978 -4.8479e-18)
(0.99972 -0.00041751 5.3124e-18)
(0.99992 -0.00066662 9.6294e-19)
(1.0003 -0.0010782 2.2006e-17)
(1.0006 -0.0010368 -2.5446e-17)
(1.0016 -0.00092413 -1.0973e-17)
(0.99849 -0.00067563 2.0477e-17)
(1.0101 0.0034263 -1.1424e-17)
(0.98753 -0.0047089 -2.0694e-17)
(1.0094 0.019803 -1.0192e-17)
(1.0055 0.0035749 6.879e-18)
(0.99645 0.029479 9.137e-19)
(0.99961 0.00019481 -5.13e-19)
(0.9997 -0.00042997 -5.3458e-18)
(0.99991 -0.00068191 1.0256e-17)
(1.0003 -0.001109 9.7572e-18)
(1.0006 -0.0010614 3.1428e-17)
(1.0017 -0.00096012 4.2154e-18)
(0.99841 -0.00071624 1.8188e-17)
(1.0103 0.0035039 2.8964e-17)
(0.98798 -0.0048237 -9.1379e-19)
(1.0091 0.019671 1.7928e-17)
(1.0059 0.003743 -7.2775e-19)
(0.99716 0.029059 -2.6651e-18)
(0.9996 0.00019991 4.9722e-18)
(0.99969 -0.00044267 -7.7829e-18)
(0.9999 -0.00069731 -1.5566e-17)
(1.0003 -0.0011404 -2.5933e-18)
(1.0006 -0.0010861 -3.411e-17)
(1.0018 -0.00099746 -1.2542e-17)
(0.99833 -0.00075781 -6.3129e-18)
(1.0105 0.003577 2.1652e-19)
(0.98843 -0.00493 2.693e-17)
(1.0089 0.019523 4.1314e-18)
(1.0063 0.0038972 -9.4428e-18)
(0.99785 0.028644 1.5993e-18)
(0.99958 0.00020507 -5.5744e-18)
(0.99967 -0.00045562 9.7223e-18)
(0.99988 -0.00071283 8.1482e-18)
(1.0003 -0.0011726 -5.1677e-18)
(1.0006 -0.0011109 2.7431e-17)
(1.0019 -0.0010362 1.5005e-17)
(0.99825 -0.00080041 -4.9904e-18)
(1.0106 0.0036456 -2.9188e-17)
(0.98887 -0.0050284 -9.1574e-19)
(1.0086 0.019361 -1.1806e-17)
(1.0067 0.0040381 1.1179e-17)
(0.99851 0.028233 -2.0946e-18)
(0.99956 0.00021029 3.3496e-18)
(0.99966 -0.00046883 -1.8604e-18)
(0.99987 -0.00072848 1.0789e-17)
(1.0003 -0.0012054 -2.1742e-17)
(1.0005 -0.0011359 8.9569e-18)
(1.002 -0.0010762 -5.3904e-18)
(0.99817 -0.00084416 -1.0753e-17)
(1.0108 0.0037096 -2.3429e-18)
(0.98931 -0.0051196 -3.2496e-17)
(1.0084 0.019185 7.789e-18)
(1.007 0.0041663 -1.0238e-17)
(0.99914 0.027827 6.9906e-19)
(0.99954 0.00021557 2.6484e-19)
(0.99964 -0.0004823 -5.8525e-18)
(0.99986 -0.00074426 6.1267e-18)
(1.0003 -0.0012388 2.8616e-17)
(1.0005 -0.0011609 -2.1334e-17)
(1.0021 -0.0011176 1.734e-17)
(0.9981 -0.0008892 -6.2175e-18)
(1.0109 0.0037689 5.4256e-18)
(0.98975 -0.0052045 3.8606e-17)
(1.0083 0.018998 -1.446e-17)
(1.0074 0.0042824 1.565e-17)
(0.99976 0.027425 1.9782e-18)
(0.99952 0.00022092 4.7534e-19)
(0.99962 -0.00049603 -1.2113e-18)
(0.99985 -0.00076018 -8.8141e-18)
(1.0003 -0.0012731 -4.3079e-18)
(1.0005 -0.0011861 1.8593e-17)
(1.0021 -0.0011604 1.3808e-19)
(0.99802 -0.00093567 -1.2221e-17)
(1.011 0.0038236 -1.2952e-17)
(0.99019 -0.0052836 -1.616e-17)
(1.0082 0.018801 -1.3653e-18)
(1.0077 0.0043869 2.867e-18)
(1.0004 0.027026 2.0774e-19)
(0.9995 0.00022633 -7.6491e-19)
(0.99961 -0.00051004 1.4414e-17)
(0.99984 -0.00077622 -5.8788e-18)
(1.0003 -0.001308 -2.4345e-17)
(1.0005 -0.0012115 8.5715e-18)
(1.0022 -0.0012045 -4.4179e-17)
(0.99795 -0.00098375 6.0964e-18)
(1.0112 0.0038734 8.1555e-18)
(0.99062 -0.0053577 7.5069e-19)
(1.0081 0.018595 1.4686e-17)
(1.0081 0.0044806 -9.5614e-19)
(1.0009 0.026632 -5.5286e-18)
(0.99948 0.00023179 -2.0194e-19)
(0.99959 -0.00052432 -2.8286e-19)
(0.99982 -0.00079241 7.9139e-18)
(1.0003 -0.0013437 1.5031e-17)
(1.0005 -0.001237 -3.4058e-17)
(1.0023 -0.0012498 1.9084e-18)
(0.99787 -0.0010336 1.0919e-17)
(1.0113 0.0039185 1.2773e-17)
(0.99105 -0.0054274 -1.0219e-17)
(1.008 0.018382 -1.4299e-17)
(1.0084 0.0045639 -1.5529e-17)
(1.0015 0.026241 5.8393e-18)
(0.99946 0.00023732 -1.3214e-18)
(0.99957 -0.00053888 4.0283e-19)
(0.99981 -0.00080875 -3.8158e-18)
(1.0003 -0.0013802 -1.0036e-17)
(1.0005 -0.0012628 1.888e-17)
(1.0024 -0.0012964 2.3714e-17)
(0.9978 -0.0010855 3.1845e-18)
(1.0114 0.0039587 6.4724e-18)
(0.99148 -0.0054932 1.6298e-17)
(1.008 0.018162 2.4065e-18)
(1.0087 0.0046375 1.1482e-17)
(1.002 0.025854 -3.5446e-18)
(0.99944 0.0002429 2.4322e-18)
(0.99955 -0.00055373 7.4268e-19)
(0.99979 -0.00082524 -5.4531e-18)
(1.0003 -0.0014175 1.4826e-18)
(1.0005 -0.0012888 -1.0236e-17)
(1.0025 -0.0013442 -5.6883e-18)
(0.99774 -0.0011396 -1.1771e-18)
(1.0115 0.003994 -2.9226e-17)
(0.9919 -0.0055556 3.1987e-18)
(1.008 0.017935 -4.88e-18)
(1.009 0.0047019 -4.67e-18)
(1.0026 0.025471 -4.2736e-18)
(0.99942 0.00024854 -4.9637e-18)
(0.99953 -0.00056887 9.703e-19)
(0.99978 -0.00084188 2.8925e-18)
(1.0003 -0.0014556 -1.8629e-17)
(1.0005 -0.001315 -1.1669e-17)
(1.0026 -0.0013931 -2.6408e-17)
(0.99767 -0.0011962 5.6803e-18)
(1.0116 0.0040244 1.1934e-17)
(0.99232 -0.0056152 -3.4304e-17)
(1.008 0.017705 2.2502e-17)
(1.0093 0.0047576 -5.0514e-18)
(1.0031 0.025092 2.7558e-18)
(0.99939 0.00025424 4.5564e-18)
(0.99952 -0.0005843 2.1714e-18)
(0.99976 -0.00085869 1.1123e-18)
(1.0003 -0.0014946 5.9084e-18)
(1.0005 -0.0013415 -2.5774e-18)
(1.0027 -0.001443 5.1184e-17)
(0.99761 -0.0012554 2.0394e-17)
(1.0117 0.0040498 -1.8561e-17)
(0.99274 -0.0056722 3.3016e-17)
(1.008 0.017469 -8.3953e-18)
(1.0097 0.0048051 -3.3321e-18)
(1.0036 0.024716 -1.3754e-18)
(0.99937 0.00025999 1.1176e-18)
(0.9995 -0.00060004 -1.375e-17)
(0.99975 -0.00087568 2.2263e-18)
(1.0003 -0.0015343 2.6534e-17)
(1.0005 -0.0013685 1.9947e-17)
(1.0029 -0.0014939 -8.2612e-19)
(0.99756 -0.0013174 -2.8254e-17)
(1.0118 0.0040702 5.6206e-18)
(0.99315 -0.0057272 -7.4454e-18)
(1.008 0.017231 -1.162e-17)
(1.01 0.0048448 8.4765e-18)
(1.0041 0.024344 1.2818e-18)
(0.99935 0.00026579 -4.4205e-18)
(0.99948 -0.00061608 -4.5839e-18)
(0.99973 -0.00089284 -1.206e-17)
(1.0003 -0.001575 -2.2253e-17)
(1.0004 -0.0013958 -2.0071e-17)
(1.003 -0.0015458 -2.326e-17)
(0.99751 -0.0013826 5.2174e-18)
(1.0119 0.0040854 4.3694e-17)
(0.99356 -0.0057804 3.2447e-18)
(1.008 0.016989 -1.0152e-18)
(1.0103 0.0048772 -2.993e-18)
(1.0045 0.023975 -3.446e-18)
(0.99932 0.00027164 3.2802e-18)
(0.99945 -0.00063243 4.2581e-18)
(0.99971 -0.00091019 1.8584e-17)
(1.0003 -0.0016165 1.5412e-17)
(1.0004 -0.0014236 1.9526e-17)
(1.0031 -0.0015984 -8.6453e-19)
(0.99746 -0.0014512 -2.907e-17)
(1.0119 0.0040955 -2.3617e-17)
(0.99397 -0.005832 8.052e-18)
(1.0081 0.016745 4.0222e-18)
(1.0106 0.0049025 6.7499e-18)
(1.005 0.023611 2.6627e-18)
(0.9993 0.00027753 -2.3165e-18)
(0.99943 -0.0006491 6.6799e-18)
(0.99969 -0.00092775 -1.2296e-17)
(1.0003 -0.0016589 2.2308e-18)
(1.0004 -0.001452 9.0785e-18)
(1.0032 -0.0016518 -2.2739e-18)
(0.99742 -0.0015232 6.5268e-18)
(1.012 0.0041004 6.558e-18)
(0.99437 -0.0058824 2.6498e-18)
(1.0081 0.016498 9.944e-18)
(1.0109 0.0049212 -8.1182e-18)
(1.0055 0.023249 5.3776e-19)
(0.99927 0.00028347 3.4976e-18)
(0.99941 -0.00066608 4.1399e-19)
(0.99967 -0.00094551 -5.7557e-18)
(1.0003 -0.0017022 8.8792e-19)
(1.0004 -0.0014811 -1.4919e-18)
(1.0033 -0.0017058 -2.2463e-17)
(0.99738 -0.001599 1.8224e-17)
(1.0121 0.0041001 2.3275e-17)
(0.99477 -0.0059316 -1.3193e-17)
(1.0082 0.01625 -1.3837e-17)
(1.0112 0.0049335 -2.3738e-18)
(1.0059 0.022892 4.5814e-18)
(0.99925 0.00028944 -2.5408e-18)
(0.99939 -0.00068339 -3.1885e-19)
(0.99965 -0.00096351 7.1562e-18)
(1.0003 -0.0017465 -1.7055e-17)
(1.0004 -0.0015108 -1.3486e-17)
(1.0034 -0.0017604 2.8359e-17)
(0.99735 -0.0016787 -2.7869e-18)
(1.0121 0.0040944 -2.4644e-17)
(0.99517 -0.0059798 3.361e-18)
(1.0082 0.016001 1.3029e-17)
(1.0115 0.0049397 8.0461e-18)
(1.0063 0.022537 -1.652e-18)
(0.99922 0.00029545 2.5248e-19)
(0.99937 -0.00070103 2.3354e-18)
(0.99963 -0.00098174 3.9101e-18)
(1.0003 -0.0017916 8.8169e-18)
(1.0003 -0.0015414 2.6433e-17)
(1.0035 -0.0018156 6.6121e-18)
(0.99732 -0.0017624 -2.4266e-17)
(1.0122 0.0040834 2.3093e-18)
(0.99556 -0.0060272 8.6573e-18)
(1.0083 0.01575 -1.1739e-17)
(1.0117 0.00494 -5.4409e-18)
(1.0068 0.022186 -1.9115e-18)
(0.99919 0.0003015 7.1687e-19)
(0.99934 -0.000719 -4.0623e-19)
(0.99961 -0.0010002 -1.0317e-17)
(1.0003 -0.0018376 -1.896e-19)
(1.0003 -0.001573 -5.2262e-17)
(1.0036 -0.0018712 8.1527e-18)
(0.99731 -0.0018502 2.3837e-17)
(1.0123 0.0040671 -6.635e-18)
(0.99595 -0.0060738 -9.0661e-18)
(1.0084 0.015499 1.9495e-17)
(1.012 0.0049346 6.5116e-18)
(1.0072 0.021839 4.9548e-18)
(0.99916 0.00030757 7.7006e-19)
(0.99932 -0.0007373 -8.4299e-19)
(0.99959 -0.001019 1.8658e-17)
(1.0003 -0.0018846 4.0667e-18)
(1.0003 -0.0016056 4.6312e-17)
(1.0037 -0.0019273 -2.8733e-17)
(0.99729 -0.0019424 -7.9824e-18)
(1.0123 0.0040454 6.2448e-18)
(0.99634 -0.0061197 3.1236e-18)
(1.0084 0.015247 -1.0969e-17)
(1.0123 0.0049238 -1.0537e-18)
(1.0076 0.021494 -3.6537e-18)
(0.99913 0.00031366 -3.0094e-18)
(0.99929 -0.00075594 1.4153e-18)
(0.99956 -0.001038 -1.0967e-17)
(1.0003 -0.0019325 5.3475e-18)
(1.0002 -0.0016393 -1.7597e-17)
(1.0038 -0.0019838 3.8965e-18)
(0.99729 -0.0020388 3.1961e-17)
(1.0124 0.0040183 -2.3373e-17)
(0.99672 -0.006165 -1.1481e-17)
(1.0085 0.014994 -1.0852e-17)
(1.0126 0.0049077 -5.179e-18)
(1.008 0.021153 -1.0034e-18)
(0.9991 0.00031977 3.7487e-18)
(0.99927 -0.00077493 -3.3614e-18)
(0.99954 -0.0010574 -1.0643e-17)
(1.0003 -0.0019813 -8.5271e-18)
(1.0002 -0.0016744 -2.877e-17)
(1.004 -0.0020406 -1.8073e-17)
(0.99728 -0.0021397 -1.9597e-17)
(1.0124 0.003986 2.1732e-17)
(0.9971 -0.0062098 1.113e-17)
(1.0086 0.014741 1.6435e-17)
(1.0128 0.0048865 -2.0282e-18)
(1.0084 0.020815 4.8442e-18)
(0.99907 0.00032589 -6.0248e-18)
(0.99924 -0.00079426 5.4464e-18)
(0.99951 -0.0010771 2.6058e-17)
(1.0004 -0.002031 -2.0113e-18)
(1.0002 -0.0017108 3.1831e-17)
(1.0041 -0.0020978 1.3625e-18)
(0.99729 -0.002245 -1.8769e-17)
(1.0124 0.0039483 8.5053e-18)
(0.99748 -0.006254 -4.0139e-18)
(1.0087 0.014487 -3.4412e-18)
(1.0131 0.0048602 6.5798e-18)
(1.0088 0.02048 -3.2758e-18)
(0.99904 0.00033202 4.9373e-18)
(0.99922 -0.00081394 -7.4019e-18)
(0.99949 -0.0010972 -3.0382e-17)
(1.0004 -0.0020816 1.3158e-17)
(1.0001 -0.0017489 -2.2678e-17)
(1.0042 -0.0021554 2.4983e-17)
(0.9973 -0.0023547 6.1179e-18)
(1.0125 0.0039055 -8.0967e-18)
(0.99785 -0.0062978 -1.9264e-18)
(1.0088 0.014234 -8.6195e-18)
(1.0133 0.004829 -1.0729e-17)
(1.0092 0.020148 4.5289e-18)
(0.99901 0.00033814 -3.6367e-18)
(0.99919 -0.00083397 2.4613e-18)
(0.99946 -0.0011176 1.8461e-17)
(1.0004 -0.0021332 -1.7345e-17)
(1.0001 -0.0017885 3.6488e-17)
(1.0043 -0.0022134 -1.9391e-17)
(0.99732 -0.0024687 3.5664e-18)
(1.0125 0.0038575 -1.2797e-17)
(0.99822 -0.0063411 6.2878e-18)
(1.0088 0.01398 -1.2063e-18)
(1.0136 0.0047931 4.592e-18)
(1.0095 0.019818 -2.0137e-18)
(0.99898 0.00034426 4.4604e-18)
(0.99916 -0.00085436 1.9162e-18)
(0.99943 -0.0011385 -1.2308e-17)
(1.0004 -0.0021857 -3.5273e-19)
(1.0001 -0.00183 -1.6111e-18)
(1.0044 -0.0022719 4.6895e-18)
(0.99735 -0.002587 3.3864e-17)
(1.0125 0.0038046 8.7533e-18)
(0.99858 -0.0063839 -1.8637e-17)
(1.0089 0.013725 -6.2522e-18)
(1.0138 0.0047524 -4.3214e-18)
(1.0099 0.019491 2.1167e-18)
(0.99894 0.00035036 -5.1125e-18)
(0.99913 -0.00087511 -7.101e-18)
(0.9994 -0.0011599 5.1635e-18)
(1.0004 -0.002239 1.5008e-17)
(1 -0.0018735 -3.3099e-17)
(1.0045 -0.0023308 1.5756e-17)
(0.99738 -0.0027095 -3.2606e-17)