/*--------------------------------*- C++ -*----------------------------------*\
  =========                 |
  \\      /  F ield         | OpenFOAM: The Open Source CFD Toolbox
   \\    /   O peration     | Website:  https://openfoam.org
    \\  /    A nd           | Version:  6.0
     \\/     M anipulation  |
\*---------------------------------------------------------------------------*/
FoamFile
{
    version     2.0;
    format      ascii;
    class       surfaceScalarField;
    location    "1.7";
    object      phi;
}
// * * * * * * * * * * * * * * * * * * * * * * * * * * * * * * * * * * * * * //

dimensions      [0 3 -1 0 0 0 0];

internalField   nonuniform List<scalar> 
26699
(
2.0051e-05
0.005201
3.925e-10
4.0126e-05
0.0051116
5.9639e-05
0.0049351
7.8186e-05
0.0046741
9.5416e-05
0.0043332
0.00011102
0.0039182
0.00012472
0.0034362
0.00013626
0.0028953
0.00014546
0.002305
0.00015182
0.0016755
0.00015718
0.0010154
0.00046489
3.45e-05
2.0051e-05
0.0051809
1.2565e-09
4.0127e-05
0.0050916
5.9641e-05
0.0049155
7.8189e-05
0.0046556
9.5419e-05
0.004316
0.00011102
0.0039026
0.00012471
0.0034225
0.00013624
0.0028838
0.00014544
0.0022958
0.00015107
0.0016699
0.00015895
0.0010075
0.0005586
6.5235e-05
2.0052e-05
0.0051609
2.197e-09
4.0128e-05
0.0050715
5.9643e-05
0.004896
7.8192e-05
0.004637
9.5422e-05
0.0042988
0.00011102
0.003887
0.00012471
0.0034088
0.00013622
0.0028723
0.00014545
0.0022865
0.00015032
0.001665
0.00016025
0.00099759
0.00062837
9.0491e-05
2.0052e-05
0.0051408
3.1435e-09
4.013e-05
0.0050514
5.9646e-05
0.0048765
7.8195e-05
0.0046185
9.5424e-05
0.0042815
0.00011102
0.0038714
0.0001247
0.0033951
0.00013619
0.0028608
0.00014549
0.0022772
0.00014959
0.0016609
0.00016102
0.00098615
0.00067861
0.00011078
2.0052e-05
0.0051208
4.0908e-09
4.0131e-05
0.0050313
5.9648e-05
0.004857
7.8198e-05
0.0045999
9.5427e-05
0.0042643
0.00011102
0.0038558
0.0001247
0.0033814
0.00013617
0.0028494
0.00014555
0.0022678
0.00014891
0.0016575
0.00016128
0.00097378
0.00071301
0.00012688
2.0052e-05
0.0051007
5.0387e-09
4.0133e-05
0.0050112
5.965e-05
0.0048375
7.8201e-05
0.0045814
9.543e-05
0.0042471
0.00011103
0.0038402
0.0001247
0.0033678
0.00013614
0.0028379
0.00014563
0.0022584
0.0001483
0.0016549
0.00016109
0.00096099
0.00073461
0.00013949
2.0052e-05
0.0050807
5.9873e-09
4.0134e-05
0.0049912
5.9653e-05
0.004818
7.8204e-05
0.0045628
9.5433e-05
0.0042299
0.00011103
0.0038246
0.0001247
0.0033541
0.0001361
0.0028265
0.00014572
0.0022487
0.00014778
0.0016528
0.00016055
0.00094823
0.00074599
0.00014917
2.0053e-05
0.0050606
6.9366e-09
4.0135e-05
0.0049711
5.9655e-05
0.0047984
7.8207e-05
0.0045443
9.5436e-05
0.0042126
0.00011103
0.003809
0.0001247
0.0033404
0.00013607
0.0028151
0.00014583
0.002239
0.00014736
0.0016513
0.00015975
0.00093584
0.00074932
0.00015642
2.0053e-05
0.0050405
7.8867e-09
4.0137e-05
0.004951
5.9657e-05
0.0047789
7.821e-05
0.0045257
9.5439e-05
0.0041954
0.00011103
0.0037934
0.0001247
0.0033268
0.00013603
0.0028038
0.00014594
0.0022291
0.00014705
0.0016502
0.00015877
0.00092412
0.00074642
0.00016167
2.0053e-05
0.0050205
8.8376e-09
4.0138e-05
0.0049309
5.966e-05
0.0047594
7.8213e-05
0.0045072
9.5442e-05
0.0041782
0.00011103
0.0037778
0.0001247
0.0033131
0.00013599
0.0027925
0.00014605
0.002219
0.00014685
0.0016494
0.0001577
0.00091327
0.0007388
0.00016532
2.0053e-05
0.0050004
9.7895e-09
4.0139e-05
0.0049108
5.9662e-05
0.0047399
7.8216e-05
0.0044886
9.5445e-05
0.0041609
0.00011104
0.0037623
0.0001247
0.0032994
0.00013595
0.0027813
0.00014616
0.0022088
0.00014675
0.0016488
0.00015659
0.00090342
0.00072772
0.00016768
2.0054e-05
0.0049804
1.0742e-08
4.0141e-05
0.0048907
5.9664e-05
0.0047204
7.8219e-05
0.00447
9.5448e-05
0.0041437
0.00011104
0.0037467
0.00012471
0.0032857
0.00013591
0.0027701
0.00014626
0.0021985
0.00014675
0.0016483
0.00015551
0.00089466
0.0007142
0.00016903
2.0054e-05
0.0049603
1.1696e-08
4.0142e-05
0.0048707
5.9667e-05
0.0047008
7.8222e-05
0.0044515
9.5451e-05
0.0041265
0.00011104
0.0037311
0.00012471
0.0032721
0.00013586
0.0027589
0.00014635
0.002188
0.00014684
0.0016478
0.00015448
0.00088701
0.00069906
0.00016962
2.0054e-05
0.0049402
1.2651e-08
4.0144e-05
0.0048506
5.9669e-05
0.0046813
7.8226e-05
0.0044329
9.5454e-05
0.0041092
0.00011104
0.0037155
0.00012472
0.0032584
0.00013582
0.0027478
0.00014643
0.0021774
0.00014701
0.0016472
0.00015355
0.00088047
0.00068299
0.00016963
2.0054e-05
0.0049202
1.3608e-08
4.0145e-05
0.0048305
5.9671e-05
0.0046618
7.8229e-05
0.0044144
9.5458e-05
0.004092
0.00011104
0.0036999
0.00012472
0.0032447
0.00013577
0.0027368
0.0001465
0.0021666
0.00014724
0.0016465
0.00015272
0.00087499
0.00066649
0.00016922
2.0054e-05
0.0049001
1.4565e-08
4.0146e-05
0.0048104
5.9674e-05
0.0046423
7.8232e-05
0.0043958
9.5461e-05
0.0040748
0.00011104
0.0036843
0.00012473
0.003231
0.00013573
0.0027258
0.00014655
0.0021558
0.00014754
0.0016455
0.00015202
0.00087051
0.00064998
0.00016853
2.0055e-05
0.00488
1.5524e-08
4.0148e-05
0.0047903
5.9676e-05
0.0046227
7.8235e-05
0.0043773
9.5464e-05
0.0040576
0.00011105
0.0036687
0.00012474
0.0032173
0.00013568
0.0027148
0.00014658
0.0021449
0.00014787
0.0016442
0.00015144
0.00086694
0.00063377
0.00016765
2.0055e-05
0.0048599
1.6484e-08
4.0149e-05
0.0047702
5.9678e-05
0.0046032
7.8238e-05
0.0043587
9.5468e-05
0.0040403
0.00011105
0.0036532
0.00012475
0.0032036
0.00013564
0.0027039
0.0001466
0.002134
0.00014824
0.0016425
0.00015099
0.00086418
0.00061809
0.00016668
2.0055e-05
0.0048399
1.7445e-08
4.015e-05
0.0047501
5.9681e-05
0.0045837
7.8241e-05
0.0043401
9.5471e-05
0.0040231
0.00011105
0.0036376
0.00012476
0.0031899
0.0001356
0.0026931
0.00014659
0.002123
0.00014863
0.0016405
0.00015067
0.00086214
0.00060309
0.00016567
2.0055e-05
0.0048198
1.8408e-08
4.0152e-05
0.00473
5.9683e-05
0.0045641
7.8244e-05
0.0043216
9.5475e-05
0.0040059
0.00011105
0.003622
0.00012477
0.0031762
0.00013557
0.0026823
0.00014658
0.002112
0.00014902
0.0016381
0.00015045
0.00086071
0.00058887
0.00016467
2.0055e-05
0.0047997
1.9373e-08
4.0153e-05
0.0047099
5.9685e-05
0.0045446
7.8248e-05
0.004303
9.5478e-05
0.0039886
0.00011105
0.0036064
0.00012478
0.0031625
0.00013554
0.0026715
0.00014654
0.002101
0.00014941
0.0016352
0.00015034
0.00085978
0.0005755
0.00016371
2.0056e-05
0.0047796
2.0339e-08
4.0155e-05
0.0046898
5.9688e-05
0.0045251
7.8251e-05
0.0042845
9.5482e-05
0.0039714
0.00011106
0.0035908
0.0001248
0.0031487
0.00013551
0.0026608
0.00014649
0.00209
0.0001498
0.0016319
0.00015032
0.00085926
0.00056299
0.00016283
2.0056e-05
0.0047596
2.1307e-08
4.0156e-05
0.0046697
5.969e-05
0.0045055
7.8254e-05
0.0042659
9.5486e-05
0.0039542
0.00011106
0.0035753
0.00012481
0.003135
0.00013548
0.0026502
0.00014643
0.002079
0.00015017
0.0016281
0.00015038
0.00085905
0.00055135
0.00016203
2.0056e-05
0.0047395
2.2276e-08
4.0157e-05
0.0046496
5.9692e-05
0.004486
7.8257e-05
0.0042473
9.5489e-05
0.0039369
0.00011106
0.0035597
0.00012482
0.0031212
0.00013547
0.0026395
0.00014636
0.0020681
0.00015052
0.001624
0.00015051
0.00085906
0.00054054
0.00016132
2.0056e-05
0.0047194
2.3247e-08
4.0159e-05
0.0046295
5.9695e-05
0.0044665
7.8261e-05
0.0042288
9.5493e-05
0.0039197
0.00011106
0.0035441
0.00012483
0.0031075
0.00013545
0.0026289
0.00014628
0.0020573
0.00015085
0.0016194
0.00015069
0.00085922
0.00053052
0.00016071
2.0056e-05
0.0046993
2.422e-08
4.016e-05
0.0046094
5.9697e-05
0.0044469
7.8264e-05
0.0042102
9.5497e-05
0.0039025
0.00011106
0.0035286
0.00012485
0.0030937
0.00013544
0.0026183
0.00014619
0.0020465
0.00015115
0.0016145
0.00015091
0.00085946
0.00052125
0.00016019
2.0057e-05
0.0046792
2.5195e-08
4.0161e-05
0.0045893
5.97e-05
0.0044274
7.8267e-05
0.0041916
9.5501e-05
0.0038852
0.00011106
0.003513
0.00012486
0.0030799
0.00013544
0.0026077
0.00014609
0.0020359
0.00015142
0.0016091
0.00015117
0.00085971
0.00051266
0.00015976
2.0057e-05
0.0046592
2.6172e-08
4.0163e-05
0.0045692
5.9702e-05
0.0044079
7.8271e-05
0.0041731
9.5505e-05
0.003868
0.00011107
0.0034974
0.00012488
0.0030661
0.00013544
0.0025972
0.000146
0.0020253
0.00015166
0.0016035
0.00015144
0.00085993
0.00050469
0.00015941
2.0057e-05
0.0046391
2.7151e-08
4.0164e-05
0.0045491
5.9705e-05
0.0043883
7.8274e-05
0.0041545
9.551e-05
0.0038508
0.00011107
0.0034819
0.00012489
0.0030523
0.00013545
0.0025866
0.0001459
0.0020149
0.00015187
0.0015975
0.00015173
0.00086007
0.00049729
0.00015913
2.0057e-05
0.004619
2.8132e-08
4.0166e-05
0.004529
5.9707e-05
0.0043688
7.8277e-05
0.0041359
9.5514e-05
0.0038335
0.00011107
0.0034663
0.0001249
0.0030384
0.00013546
0.002576
0.00014579
0.0020046
0.00015206
0.0015912
0.00015203
0.0008601
0.0004904
0.00015892
2.0058e-05
0.0045989
2.9115e-08
4.0167e-05
0.0045089
5.9709e-05
0.0043492
7.8281e-05
0.0041173
9.5519e-05
0.0038163
0.00011107
0.0034508
0.00012492
0.0030246
0.00013547
0.0025655
0.00014569
0.0019943
0.00015221
0.0015847
0.00015232
0.00086
0.00048394
0.00015877
2.0058e-05
0.0045788
3.0101e-08
4.0168e-05
0.0044888
5.9712e-05
0.0043297
7.8284e-05
0.0040988
9.5523e-05
0.0037991
0.00011107
0.0034352
0.00012493
0.0030107
0.00013549
0.0025549
0.0001456
0.0019842
0.00015235
0.0015779
0.00015261
0.00085973
0.00047788
0.00015867
2.0058e-05
0.0045587
3.1088e-08
4.017e-05
0.0044686
5.9714e-05
0.0043101
7.8288e-05
0.0040802
9.5528e-05
0.0037818
0.00011107
0.0034197
0.00012494
0.0029969
0.00013552
0.0025443
0.0001455
0.0019742
0.00015246
0.001571
0.00015289
0.0008593
0.00047216
0.00015861
2.0058e-05
0.0045386
3.2078e-08
4.0171e-05
0.0044485
5.9717e-05
0.0042906
7.8291e-05
0.0040616
9.5533e-05
0.0037646
0.00011108
0.0034041
0.00012495
0.002983
0.00013554
0.0025337
0.00014542
0.0019644
0.00015254
0.0015639
0.00015316
0.00085868
0.00046674
0.00015858
2.0058e-05
0.0045186
3.3071e-08
4.0173e-05
0.0044284
5.9719e-05
0.004271
7.8294e-05
0.004043
9.5538e-05
0.0037473
0.00011108
0.0033886
0.00012496
0.0029691
0.00013557
0.0025231
0.00014533
0.0019546
0.00015261
0.0015566
0.00015341
0.00085788
0.00046157
0.00015858
2.0059e-05
0.0044985
3.4066e-08
4.0174e-05
0.0044083
5.9722e-05
0.0042515
7.8298e-05
0.0040245
9.5543e-05
0.0037301
0.00011108
0.0033731
0.00012497
0.0029552
0.0001356
0.0025125
0.00014526
0.001945
0.00015267
0.0015492
0.00015366
0.00085689
0.00045662
0.00015861
2.0059e-05
0.0044784
3.5064e-08
4.0175e-05
0.0043882
5.9725e-05
0.0042319
7.8301e-05
0.0040059
9.5548e-05
0.0037128
0.00011108
0.0033575
0.00012499
0.0029413
0.00013564
0.0025019
0.00014519
0.0019354
0.00015271
0.0015417
0.00015388
0.00085572
0.00045186
0.00015864
2.0059e-05
0.0044583
3.6064e-08
4.0177e-05
0.0043681
5.9727e-05
0.0042124
7.8305e-05
0.0039873
9.5553e-05
0.0036956
0.00011108
0.003342
0.000125
0.0029274
0.00013567
0.0024912
0.00014513
0.0019259
0.00015274
0.0015341
0.00015409
0.00085437
0.00044726
0.0001587
2.0059e-05
0.0044382
3.7067e-08
4.0178e-05
0.0043479
5.973e-05
0.0041928
7.8308e-05
0.0039687
9.5559e-05
0.0036783
0.00011108
0.0033265
0.000125
0.0029135
0.00013571
0.0024805
0.00014508
0.0019166
0.00015276
0.0015264
0.00015429
0.00085284
0.00044279
0.00015875
2.0059e-05
0.0044181
3.8073e-08
4.018e-05
0.0043278
5.9732e-05
0.0041733
7.8312e-05
0.0039502
9.5564e-05
0.0036611
0.00011109
0.003311
0.00012501
0.0028995
0.00013575
0.0024697
0.00014503
0.0019073
0.00015278
0.0015186
0.00015447
0.00085115
0.00043844
0.00015882
2.006e-05
0.004398
3.9082e-08
4.0181e-05
0.0043077
5.9735e-05
0.0041537
7.8315e-05
0.0039316
9.557e-05
0.0036438
0.00011109
0.0032954
0.00012502
0.0028856
0.00013579
0.002459
0.00014499
0.0018981
0.00015279
0.0015108
0.00015464
0.0008493
0.0004342
0.00015889
2.006e-05
0.0043779
4.0094e-08
4.0182e-05
0.0042876
5.9738e-05
0.0041342
7.8319e-05
0.003913
9.5576e-05
0.0036266
0.00011109
0.0032799
0.00012503
0.0028717
0.00013583
0.0024482
0.00014496
0.001889
0.0001528
0.001503
0.0001548
0.00084731
0.00043004
0.00015896
2.006e-05
0.0043578
4.1109e-08
4.0184e-05
0.0042675
5.9741e-05
0.0041146
7.8323e-05
0.0038944
9.5582e-05
0.0036093
0.00011109
0.0032644
0.00012504
0.0028577
0.00013587
0.0024373
0.00014494
0.0018799
0.00015281
0.0014951
0.00015495
0.00084517
0.00042595
0.00015903
2.006e-05
0.0043377
4.2127e-08
4.0185e-05
0.0042473
5.9743e-05
0.0040951
7.8326e-05
0.0038758
9.5588e-05
0.0035921
0.0001111
0.0032489
0.00012505
0.0028438
0.00013591
0.0024265
0.00014492
0.0018709
0.00015282
0.0014872
0.00015509
0.0008429
0.00042193
0.0001591
2.0061e-05
0.0043176
4.3149e-08
4.0187e-05
0.0042272
5.9746e-05
0.0040755
7.833e-05
0.0038573
9.5595e-05
0.0035748
0.0001111
0.0032334
0.00012505
0.0028298
0.00013595
0.0024156
0.00014491
0.0018619
0.00015282
0.0014793
0.00015521
0.00084051
0.00041797
0.00015917
2.0061e-05
0.0042975
4.4174e-08
4.0188e-05
0.0042071
5.9749e-05
0.0040559
7.8333e-05
0.0038387
9.5601e-05
0.0035575
0.0001111
0.0032179
0.00012506
0.0028159
0.00013599
0.0024046
0.0001449
0.001853
0.00015283
0.0014714
0.00015534
0.000838
0.00041406
0.00015924
2.0061e-05
0.0042774
4.5202e-08
4.019e-05
0.004187
5.9752e-05
0.0040364
7.8337e-05
0.0038201
9.5608e-05
0.0035403
0.0001111
0.0032024
0.00012507
0.0028019
0.00013603
0.0023937
0.0001449
0.0018441
0.00015284
0.0014634
0.00015545
0.00083539
0.0004102
0.00015931
2.0061e-05
0.0042572
4.6234e-08
4.0191e-05
0.0041668
5.9755e-05
0.0040168
7.834e-05
0.0038015
9.5615e-05
0.003523
0.00011111
0.0031869
0.00012507
0.0027879
0.00013607
0.0023827
0.00014491
0.0018353
0.00015285
0.0014555
0.00015556
0.00083269
0.00040639
0.00015937
2.0062e-05
0.0042371
4.7269e-08
4.0193e-05
0.0041467
5.9758e-05
0.0039973
7.8344e-05
0.0037829
9.5622e-05
0.0035057
0.00011111
0.0031714
0.00012508
0.002774
0.00013611
0.0023716
0.00014492
0.0018265
0.00015286
0.0014475
0.00015566
0.00082989
0.00040262
0.00015943
2.0062e-05
0.004217
4.8308e-08
4.0194e-05
0.0041266
5.9761e-05
0.0039777
7.8348e-05
0.0037643
9.5629e-05
0.0034884
0.00011111
0.0031559
0.00012508
0.00276
0.00013615
0.0023606
0.00014493
0.0018177
0.00015288
0.0014396
0.00015576
0.00082701
0.00039888
0.00015949
2.0062e-05
0.0041969
4.9351e-08
4.0196e-05
0.0041064
5.9764e-05
0.0039581
7.8351e-05
0.0037457
9.5637e-05
0.0034711
0.00011112
0.0031404
0.00012509
0.002746
0.00013619
0.0023495
0.00014495
0.001809
0.00015289
0.0014317
0.00015586
0.00082405
0.00039519
0.00015955
2.0062e-05
0.0041768
5.0398e-08
4.0197e-05
0.0040863
5.9767e-05
0.0039386
7.8355e-05
0.0037271
9.5644e-05
0.0034539
0.00011112
0.003125
0.0001251
0.002732
0.00013623
0.0023383
0.00014497
0.0018002
0.00015291
0.0014237
0.00015595
0.00082101
0.00039153
0.00015961
2.0063e-05
0.0041567
5.1448e-08
4.0199e-05
0.0040662
5.977e-05
0.003919
7.8358e-05
0.0037086
9.5652e-05
0.0034366
0.00011113
0.0031095
0.0001251
0.0027181
0.00013627
0.0023272
0.00014499
0.0017915
0.00015293
0.0014158
0.00015604
0.00081791
0.00038791
0.00015966
2.0063e-05
0.0041366
5.2503e-08
4.02e-05
0.004046
5.9773e-05
0.0038994
7.8362e-05
0.00369
9.566e-05
0.0034193
0.00011113
0.003094
0.00012511
0.0027041
0.00013631
0.002316
0.00014502
0.0017828
0.00015296
0.0014078
0.00015612
0.00081474
0.00038432
0.00015971
2.0063e-05
0.0041165
5.3562e-08
4.0202e-05
0.0040259
5.9776e-05
0.0038798
7.8366e-05
0.0036714
9.5668e-05
0.003402
0.00011114
0.0030786
0.00012511
0.0026901
0.00013635
0.0023047
0.00014504
0.0017741
0.00015298
0.0013999
0.0001562
0.00081152
0.00038077
0.00015976
2.0064e-05
0.0040963
5.4626e-08
4.0203e-05
0.0040057
5.9779e-05
0.0038603
7.8369e-05
0.0036528
9.5676e-05
0.0033847
0.00011114
0.0030631
0.00012512
0.0026762
0.00013639
0.0022934
0.00014507
0.0017654
0.000153
0.001392
0.00015629
0.00080824
0.00037725
0.00015981
2.0064e-05
0.0040762
5.5693e-08
4.0205e-05
0.0039856
5.9783e-05
0.0038407
7.8373e-05
0.0036342
9.5684e-05
0.0033673
0.00011115
0.0030476
0.00012512
0.0026622
0.00013642
0.0022821
0.0001451
0.0017567
0.00015303
0.001384
0.00015637
0.0008049
0.00037376
0.00015985
2.0064e-05
0.0040561
5.6766e-08
4.0206e-05
0.0039655
5.9786e-05
0.0038211
7.8377e-05
0.0036156
9.5693e-05
0.00335
0.00011116
0.0030321
0.00012513
0.0026482
0.00013646
0.0022708
0.00014514
0.0017481
0.00015306
0.0013761
0.00015644
0.00080152
0.00037031
0.00015989
2.0065e-05
0.004036
5.7843e-08
4.0208e-05
0.0039453
5.9789e-05
0.0038015
7.838e-05
0.003597
9.5701e-05
0.0033327
0.00011117
0.0030167
0.00012513
0.0026342
0.0001365
0.0022594
0.00014517
0.0017394
0.00015309
0.0013682
0.00015652
0.00079809
0.00036689
0.00015994
2.0065e-05
0.0040159
5.8924e-08
4.021e-05
0.0039252
5.9793e-05
0.0037819
7.8384e-05
0.0035784
9.571e-05
0.0033154
0.00011117
0.0030012
0.00012514
0.0026203
0.00013654
0.002248
0.0001452
0.0017307
0.00015312
0.0013603
0.00015659
0.00079461
0.0003635
0.00015998
2.0065e-05
0.0039957
6.001e-08
4.0211e-05
0.003905
5.9796e-05
0.0037624
7.8388e-05
0.0035598
9.5718e-05
0.003298
0.00011118
0.0029858
0.00012514
0.0026063
0.00013657
0.0022366
0.00014524
0.0017221
0.00015314
0.0013524
0.00015666
0.00079109
0.00036015
0.00016002
2.0066e-05
0.0039756
6.1102e-08
4.0213e-05
0.0038849
5.98e-05
0.0037428
7.8392e-05
0.0035412
9.5727e-05
0.0032807
0.00011119
0.0029703
0.00012515
0.0025924
0.00013661
0.0022252
0.00014527
0.0017134
0.00015317
0.0013445
0.00015674
0.00078753
0.00035682
0.00016006
2.0066e-05
0.0039555
6.2198e-08
4.0214e-05
0.0038647
5.9803e-05
0.0037232
7.8396e-05
0.0035227
9.5736e-05
0.0032634
0.0001112
0.0029548
0.00012516
0.0025784
0.00013664
0.0022137
0.00014531
0.0017047
0.0001532
0.0013366
0.00015681
0.00078393
0.00035353
0.0001601
2.0066e-05
0.0039353
6.3299e-08
4.0216e-05
0.0038446
5.9807e-05
0.0037036
7.8399e-05
0.0035041
9.5744e-05
0.003246
0.00011121
0.0029394
0.00012516
0.0025645
0.00013668
0.0022022
0.00014535
0.0016961
0.00015323
0.0013287
0.00015687
0.00078029
0.00035027
0.00016014
2.0067e-05
0.0039152
6.4406e-08
4.0218e-05
0.0038244
5.9811e-05
0.003684
7.8403e-05
0.0034855
9.5753e-05
0.0032287
0.00011122
0.0029239
0.00012517
0.0025505
0.00013671
0.0021906
0.00014538
0.0016874
0.00015326
0.0013208
0.00015694
0.00077661
0.00034704
0.00016017
2.0067e-05
0.0038951
6.5518e-08
4.0219e-05
0.0038043
5.9815e-05
0.0036644
7.8408e-05
0.0034669
9.5762e-05
0.0032113
0.00011123
0.0029084
0.00012518
0.0025366
0.00013675
0.002179
0.00014542
0.0016787
0.00015329
0.0013129
0.00015701
0.0007729
0.00034384
0.00016021
2.0067e-05
0.0038749
6.6636e-08
4.0221e-05
0.0037841
5.9819e-05
0.0036448
7.8412e-05
0.0034483
9.5771e-05
0.003194
0.00011125
0.0028929
0.00012519
0.0025226
0.00013678
0.0021675
0.00014546
0.0016701
0.00015332
0.0013051
0.00015707
0.00076915
0.00034066
0.00016024
2.0068e-05
0.0038548
6.7759e-08
4.0223e-05
0.003764
5.9822e-05
0.0036252
7.8416e-05
0.0034297
9.578e-05
0.0031766
0.00011126
0.0028775
0.0001252
0.0025087
0.00013682
0.0021558
0.00014549
0.0016614
0.00015336
0.0012972
0.00015713
0.00076538
0.00033752
0.00016028
2.0068e-05
0.0038347
6.8888e-08
4.0224e-05
0.0037438
5.9826e-05
0.0036056
7.842e-05
0.0034111
9.5789e-05
0.0031592
0.00011127
0.002862
0.00012521
0.0024947
0.00013685
0.0021442
0.00014553
0.0016527
0.00015339
0.0012893
0.00015719
0.00076157
0.0003344
0.00016031
2.0069e-05
0.0038145
7.0022e-08
4.0226e-05
0.0037236
5.9831e-05
0.003586
7.8425e-05
0.0033925
9.5798e-05
0.0031419
0.00011129
0.0028465
0.00012522
0.0024808
0.00013688
0.0021325
0.00014557
0.001644
0.00015341
0.0012815
0.00015726
0.00075773
0.00033132
0.00016034
2.0069e-05
0.0037944
7.1163e-08
4.0228e-05
0.0037035
5.9835e-05
0.0035664
7.843e-05
0.0033739
9.5807e-05
0.0031245
0.0001113
0.002831
0.00012523
0.0024669
0.00013691
0.0021208
0.0001456
0.0016353
0.00015344
0.0012736
0.00015731
0.00075386
0.00032825
0.00016038
2.0069e-05
0.0037743
7.231e-08
4.023e-05
0.0036833
5.9839e-05
0.0035468
7.8435e-05
0.0033553
9.5817e-05
0.0031071
0.00011132
0.0028155
0.00012524
0.002453
0.00013695
0.0021091
0.00014564
0.0016266
0.00015347
0.0012658
0.00015737
0.00074996
0.00032522
0.00016041
2.007e-05
0.0037541
7.3462e-08
4.0231e-05
0.0036632
5.9843e-05
0.0035272
7.844e-05
0.0033367
9.5826e-05
0.0030897
0.00011133
0.0028
0.00012525
0.002439
0.00013698
0.0020974
0.00014568
0.0016179
0.0001535
0.001258
0.00015743
0.00074603
0.00032221
0.00016044
2.007e-05
0.003734
7.4621e-08
4.0233e-05
0.003643
5.9848e-05
0.0035076
7.8445e-05
0.0033181
9.5835e-05
0.0030723
0.00011135
0.0027845
0.00012527
0.0024251
0.00013701
0.0020857
0.00014571
0.0016092
0.00015353
0.0012502
0.00015749
0.00074208
0.00031923
0.00016047
2.0071e-05
0.0037138
7.5786e-08
4.0235e-05
0.0036228
5.9852e-05
0.0034879
7.845e-05
0.0032995
9.5845e-05
0.0030549
0.00011137
0.0027689
0.00012528
0.0024112
0.00013704
0.0020739
0.00014575
0.0016005
0.00015356
0.0012424
0.00015754
0.0007381
0.00031627
0.0001605
2.0071e-05
0.0036937
7.6958e-08
4.0237e-05
0.0036027
5.9856e-05
0.0034683
7.8456e-05
0.0032809
9.5854e-05
0.0030375
0.00011138
0.0027534
0.00012529
0.0023973
0.00013707
0.0020621
0.00014579
0.0015918
0.00015359
0.0012346
0.0001576
0.0007341
0.00031333
0.00016053
2.0072e-05
0.0036735
7.8136e-08
4.0239e-05
0.0035825
5.9861e-05
0.0034487
7.8462e-05
0.0032623
9.5864e-05
0.0030201
0.0001114
0.0027379
0.00012531
0.0023834
0.0001371
0.0020503
0.00014582
0.0015831
0.00015362
0.0012268
0.00015765
0.00073007
0.00031042
0.00016056
2.0073e-05
0.0036534
7.9321e-08
4.0241e-05
0.0035623
5.9866e-05
0.0034291
7.8468e-05
0.0032437
9.5874e-05
0.0030027
0.00011142
0.0027223
0.00012532
0.0023695
0.00013713
0.0020385
0.00014586
0.0015744
0.00015365
0.001219
0.0001577
0.00072601
0.00030753
0.00016059
2.0073e-05
0.0036332
8.0512e-08
4.0243e-05
0.0035422
5.987e-05
0.0034094
7.8474e-05
0.0032251
9.5884e-05
0.0029853
0.00011144
0.0027068
0.00012533
0.0023556
0.00013716
0.0020267
0.0001459
0.0015656
0.00015368
0.0012112
0.00015775
0.00072194
0.00030467
0.00016062
2.0074e-05
0.0036131
8.171e-08
4.0245e-05
0.003522
5.9875e-05
0.0033898
7.848e-05
0.0032065
9.5894e-05
0.0029679
0.00011146
0.0026912
0.00012535
0.0023417
0.00013719
0.0020148
0.00014593
0.0015569
0.0001537
0.0012034
0.0001578
0.00071784
0.00030182
0.00016065
2.0074e-05
0.0035929
8.2914e-08
4.0247e-05
0.0035018
5.988e-05
0.0033702
7.8487e-05
0.0031879
9.5904e-05
0.0029505
0.00011148
0.0026756
0.00012537
0.0023278
0.00013722
0.002003
0.00014597
0.0015481
0.00015373
0.0011957
0.00015785
0.00071372
0.000299
0.00016067
2.0075e-05
0.0035727
8.4125e-08
4.025e-05
0.0034816
5.9885e-05
0.0033505
7.8494e-05
0.0031693
9.5915e-05
0.0029331
0.0001115
0.0026601
0.00012538
0.0023139
0.00013725
0.0019911
0.000146
0.0015394
0.00015376
0.0011879
0.0001579
0.00070958
0.0002962
0.0001607
2.0076e-05
0.0035526
8.5343e-08
4.0252e-05
0.0034615
5.989e-05
0.0033309
7.8502e-05
0.0031507
9.5925e-05
0.0029156
0.00011152
0.0026445
0.0001254
0.0023001
0.00013728
0.0019792
0.00014604
0.0015306
0.00015379
0.0011801
0.00015795
0.00070542
0.00029342
0.00016073
2.0076e-05
0.0035324
8.6567e-08
4.0254e-05
0.0034413
5.9896e-05
0.0033113
7.8509e-05
0.0031321
9.5936e-05
0.0028982
0.00011154
0.0026289
0.00012541
0.0022862
0.00013731
0.0019673
0.00014608
0.0015219
0.00015382
0.0011724
0.000158
0.00070124
0.00029066
0.00016076
2.0077e-05
0.0035123
8.7798e-08
4.0257e-05
0.0034211
5.9901e-05
0.0032916
7.8517e-05
0.0031134
9.5947e-05
0.0028808
0.00011156
0.0026133
0.00012543
0.0022723
0.00013733
0.0019554
0.00014611
0.0015131
0.00015385
0.0011647
0.00015804
0.00069704
0.00028792
0.00016079
2.0078e-05
0.0034921
8.9035e-08
4.0259e-05
0.0034009
5.9906e-05
0.003272
7.8525e-05
0.0030948
9.5958e-05
0.0028633
0.00011158
0.0025976
0.00012544
0.0022584
0.00013736
0.0019435
0.00014615
0.0015043
0.00015387
0.0011569
0.00015809
0.00069282
0.0002852
0.00016081
2.0078e-05
0.0034719
9.0278e-08
4.0262e-05
0.0033808
5.9912e-05
0.0032523
7.8533e-05
0.0030762
9.597e-05
0.0028459
0.0001116
0.002582
0.00012546
0.0022446
0.00013739
0.0019316
0.00014618
0.0014955
0.0001539
0.0011492
0.00015814
0.00068859
0.0002825
0.00016084
2.0079e-05
0.0034517
9.1528e-08
4.0265e-05
0.0033606
5.9918e-05
0.0032327
7.8542e-05
0.0030576
9.5981e-05
0.0028285
0.00011162
0.0025664
0.00012548
0.0022307
0.00013741
0.0019197
0.00014622
0.0014867
0.00015393
0.0011415
0.00015818
0.00068434
0.00027981
0.00016087
2.008e-05
0.0034316
9.2783e-08
4.0267e-05
0.0033404
5.9923e-05
0.003213
7.8551e-05
0.003039
9.5993e-05
0.002811
0.00011164
0.0025507
0.00012549
0.0022169
0.00013744
0.0019077
0.00014625
0.0014779
0.00015396
0.0011338
0.00015823
0.00068007
0.00027715
0.00016089
2.0081e-05
0.0034114
9.4044e-08
4.027e-05
0.0033202
5.9929e-05
0.0031934
7.856e-05
0.0030203
9.6005e-05
0.0027936
0.00011166
0.0025351
0.00012551
0.002203
0.00013747
0.0018957
0.00014629
0.0014691
0.00015399
0.0011261
0.00015827
0.00067578
0.0002745
0.00016092
2.0082e-05
0.0033912
9.5311e-08
4.0273e-05
0.0033
5.9935e-05
0.0031737
7.8569e-05
0.0030017
9.6017e-05
0.0027761
0.00011168
0.0025194
0.00012553
0.0021892
0.00013749
0.0018838
0.00014632
0.0014602
0.00015401
0.0011184
0.00015831
0.00067148
0.00027187
0.00016094
2.0083e-05
0.003371
9.6582e-08
4.0276e-05
0.0032798
5.9941e-05
0.003154
7.8579e-05
0.0029831
9.6029e-05
0.0027587
0.0001117
0.0025038
0.00012554
0.0021753
0.00013752
0.0018718
0.00014636
0.0014514
0.00015404
0.0011107
0.00015836
0.00066717
0.00026925
0.00016097
2.0084e-05
0.0033509
9.7859e-08
4.0279e-05
0.0032596
5.9948e-05
0.0031344
7.8589e-05
0.0029644
9.6041e-05
0.0027412
0.00011172
0.0024881
0.00012556
0.0021615
0.00013754
0.0018598
0.0001464
0.0014425
0.00015407
0.0011031
0.0001584
0.00066284
0.00026665
0.000161
2.0085e-05
0.0033307
9.914e-08
4.0283e-05
0.0032394
5.9954e-05
0.0031147
7.8599e-05
0.0029458
9.6053e-05
0.0027238
0.00011174
0.0024724
0.00012558
0.0021476
0.00013757
0.0018478
0.00014643
0.0014337
0.0001541
0.0010954
0.00015844
0.0006585
0.00026407
0.00016102
2.0086e-05
0.0033105
1.0042e-07
4.0286e-05
0.0032192
5.9961e-05
0.003095
7.8609e-05
0.0029271
9.6066e-05
0.0027063
0.00011176
0.0024567
0.00012559
0.0021338
0.00013759
0.0018358
0.00014647
0.0014248
0.00015413
0.0010877
0.00015848
0.00065415
0.0002615
0.00016105
2.0087e-05
0.0032903
1.0171e-07
4.029e-05
0.003199
5.9967e-05
0.0030753
7.8619e-05
0.0029085
9.6078e-05
0.0026889
0.00011178
0.002441
0.00012561
0.00212
0.00013762
0.0018238
0.0001465
0.0014159
0.00015415
0.0010801
0.00015852
0.00064978
0.00025895
0.00016107
2.0088e-05
0.0032701
1.0301e-07
4.0293e-05
0.0031788
5.9974e-05
0.0030557
7.863e-05
0.0028898
9.6091e-05
0.0026714
0.0001118
0.0024253
0.00012563
0.0021061
0.00013764
0.0018118
0.00014654
0.001407
0.00015418
0.0010724
0.00015856
0.0006454
0.00025641
0.0001611
2.0089e-05
0.0032499
1.043e-07
4.0297e-05
0.0031586
5.9981e-05
0.003036
7.864e-05
0.0028712
9.6103e-05
0.0026539
0.00011182
0.0024096
0.00012564
0.0020923
0.00013767
0.0017998
0.00014657
0.0013981
0.00015421
0.0010648
0.0001586
0.00064101
0.00025389
0.00016112
2.009e-05
0.0032297
1.056e-07
4.0301e-05
0.0031384
5.9988e-05
0.0030163
7.8651e-05
0.0028525
9.6116e-05
0.0026365
0.00011184
0.0023939
0.00012566
0.0020785
0.00013769
0.0017878
0.00014661
0.0013892
0.00015424
0.0010572
0.00015864
0.00063661
0.00025138
0.00016115
2.0092e-05
0.0032095
1.069e-07
4.0304e-05
0.0031182
5.9995e-05
0.0029966
7.8662e-05
0.0028338
9.6128e-05
0.002619
0.00011186
0.0023781
0.00012568
0.0020647
0.00013771
0.0017757
0.00014664
0.0013803
0.00015427
0.0010495
0.00015868
0.00063219
0.00024889
0.00016118
2.0093e-05
0.0031893
1.082e-07
4.0308e-05
0.003098
6.0002e-05
0.0029769
7.8673e-05
0.0028151
9.6141e-05
0.0026015
0.00011188
0.0023624
0.00012569
0.0020509
0.00013774
0.0017637
0.00014668
0.0013713
0.0001543
0.0010419
0.00015872
0.00062777
0.00024641
0.0001612
2.0094e-05
0.0031691
1.095e-07
4.0312e-05
0.0030777
6.0009e-05
0.0029572
7.8684e-05
0.0027965
9.6153e-05
0.0025841
0.0001119
0.0023466
0.00012571
0.002037
0.00013776
0.0017516
0.00014672
0.0013624
0.00015433
0.0010343
0.00015876
0.00062334
0.00024394
0.00016123
2.0096e-05
0.0031489
1.108e-07
4.0317e-05
0.0030575
6.0016e-05
0.0029375
7.8695e-05
0.0027778
9.6165e-05
0.0025666
0.00011192
0.0023309
0.00012573
0.0020232
0.00013778
0.0017396
0.00014675
0.0013534
0.00015436
0.0010267
0.0001588
0.0006189
0.00024149
0.00016125
2.0097e-05
0.0031287
1.121e-07
4.0321e-05
0.0030373
6.0023e-05
0.0029178
7.8706e-05
0.0027591
9.6178e-05
0.0025491
0.00011193
0.0023151
0.00012574
0.0020094
0.00013781
0.0017275
0.00014679
0.0013444
0.00015439
0.0010191
0.00015884
0.00061444
0.00023905
0.00016128
2.0098e-05
0.0031085
1.134e-07
4.0325e-05
0.0030171
6.0031e-05
0.0028981
7.8717e-05
0.0027404
9.619e-05
0.0025317
0.00011195
0.0022994
0.00012576
0.0019956
0.00013783
0.0017154
0.00014682
0.0013354
0.00015442
0.0010115
0.00015888
0.00060998
0.00023662
0.0001613
2.01e-05
0.0030883
1.147e-07
4.0329e-05
0.0029968
6.0038e-05
0.0028784
7.8729e-05
0.0027217
9.6202e-05
0.0025142
0.00011197
0.0022836
0.00012578
0.0019818
0.00013786
0.0017033
0.00014686
0.0013264
0.00015444
0.0010039
0.00015891
0.00060552
0.0002342
0.00016133
2.0101e-05
0.0030681
1.16e-07
4.0334e-05
0.0029766
6.0045e-05
0.0028587
7.874e-05
0.002703
9.6214e-05
0.0024967
0.00011199
0.0022678
0.00012579
0.001968
0.00013788
0.0016913
0.0001469
0.0013174
0.00015447
0.00099636
0.00015895
0.00060104
0.00023179
0.00016136
2.0103e-05
0.0030478
1.173e-07
4.0338e-05
0.0029564
6.0053e-05
0.002839
7.8751e-05
0.0026843
9.6226e-05
0.0024792
0.00011201
0.002252
0.00012581
0.0019542
0.0001379
0.0016792
0.00014693
0.0013084
0.0001545
0.00098879
0.00015899
0.00059655
0.0002294
0.00016138
2.0104e-05
0.0030276
1.186e-07
4.0343e-05
0.0029361
6.006e-05
0.0028192
7.8762e-05
0.0026656
9.6238e-05
0.0024618
0.00011203
0.0022363
0.00012583
0.0019404
0.00013793
0.0016671
0.00014697
0.0012993
0.00015453
0.00098122
0.00015903
0.00059206
0.00022702
0.00016141
2.0106e-05
0.0030074
1.1989e-07
4.0347e-05
0.0029159
6.0067e-05
0.0027995
7.8773e-05
0.0026469
9.625e-05
0.0024443
0.00011205
0.0022205
0.00012585
0.0019266
0.00013795
0.001655
0.000147
0.0012903
0.00015456
0.00097366
0.00015906
0.00058756
0.00022465
0.00016144
2.0108e-05
0.0029872
1.2118e-07
4.0352e-05
0.0028956
6.0075e-05
0.0027798
7.8784e-05
0.0026282
9.6262e-05
0.0024268
0.00011207
0.0022047
0.00012586
0.0019128
0.00013797
0.0016429
0.00014704
0.0012812
0.0001546
0.0009661
0.0001591
0.00058306
0.00022229
0.00016146
2.0109e-05
0.0029669
1.2247e-07
4.0356e-05
0.0028754
6.0082e-05
0.0027601
7.8795e-05
0.0026095
9.6274e-05
0.0024093
0.00011208
0.0021888
0.00012588
0.001899
0.000138
0.0016308
0.00014708
0.0012721
0.00015463