/*--------------------------------*- C++ -*----------------------------------*\
  =========                 |
  \\      /  F ield         | OpenFOAM: The Open Source CFD Toolbox
   \\    /   O peration     | Website:  https://openfoam.org
    \\  /    A nd           | Version:  6.0
     \\/     M anipulation  |
\*---------------------------------------------------------------------------*/
FoamFile
{
    version     2.0;
    format      ascii;
    class       surfaceScalarField;
    location    "1.83";
    object      phi;
}
// * * * * * * * * * * * * * * * * * * * * * * * * * * * * * * * * * * * * * //

dimensions      [0 3 -1 0 0 0 0];

internalField   nonuniform List<scalar> 
26699
(
2.0051e-05
0.005201
4.1411e-10
4.0126e-05
0.0051116
5.9639e-05
0.0049351
7.8186e-05
0.0046741
9.5416e-05
0.0043332
0.00011102
0.0039182
0.00012472
0.0034362
0.00013626
0.0028953
0.00014546
0.002305
0.00015182
0.0016755
0.00015718
0.0010154
0.00046489
3.4498e-05
2.0051e-05
0.0051809
1.2979e-09
4.0127e-05
0.0050916
5.9641e-05
0.0049155
7.8189e-05
0.0046556
9.5419e-05
0.004316
0.00011102
0.0039026
0.00012471
0.0034225
0.00013624
0.0028838
0.00014545
0.0022958
0.00015107
0.0016699
0.00015894
0.0010075
0.00055859
6.5235e-05
2.0052e-05
0.0051609
2.2613e-09
4.0128e-05
0.0050715
5.9643e-05
0.004896
7.8192e-05
0.004637
9.5422e-05
0.0042988
0.00011102
0.003887
0.00012471
0.0034088
0.00013622
0.0028723
0.00014546
0.0022865
0.00015031
0.001665
0.00016023
0.00099761
0.00062833
9.0495e-05
2.0052e-05
0.0051408
3.2326e-09
4.013e-05
0.0050514
5.9646e-05
0.0048765
7.8195e-05
0.0046185
9.5425e-05
0.0042815
0.00011102
0.0038714
0.0001247
0.0033951
0.00013619
0.0028608
0.00014549
0.0022772
0.00014957
0.0016609
0.00016099
0.00098619
0.00067853
0.00011078
2.0052e-05
0.0051208
4.2048e-09
4.0131e-05
0.0050313
5.9648e-05
0.004857
7.8198e-05
0.0045999
9.5428e-05
0.0042643
0.00011102
0.0038558
0.0001247
0.0033814
0.00013616
0.0028494
0.00014556
0.0022678
0.00014889
0.0016576
0.00016123
0.00097385
0.00071286
0.00012689
2.0052e-05
0.0051007
5.178e-09
4.0133e-05
0.0050112
5.965e-05
0.0048375
7.8201e-05
0.0045814
9.543e-05
0.0042471
0.00011103
0.0038402
0.0001247
0.0033678
0.00013613
0.0028379
0.00014564
0.0022583
0.00014827
0.001655
0.00016102
0.0009611
0.00073438
0.0001395
2.0052e-05
0.0050807
6.1521e-09
4.0134e-05
0.0049912
5.9653e-05
0.004818
7.8204e-05
0.0045628
9.5433e-05
0.0042298
0.00011103
0.0038246
0.0001247
0.0033541
0.0001361
0.0028265
0.00014574
0.0022487
0.00014774
0.001653
0.00016046
0.00094838
0.00074566
0.00014918
2.0053e-05
0.0050606
7.1273e-09
4.0135e-05
0.0049711
5.9655e-05
0.0047984
7.8207e-05
0.0045443
9.5436e-05
0.0042126
0.00011103
0.003809
0.0001247
0.0033404
0.00013607
0.0028151
0.00014585
0.0022389
0.00014731
0.0016515
0.00015963
0.00093606
0.00074887
0.00015643
2.0053e-05
0.0050405
8.1036e-09
4.0137e-05
0.004951
5.9657e-05
0.0047789
7.821e-05
0.0045257
9.544e-05
0.0041954
0.00011103
0.0037934
0.0001247
0.0033267
0.00013603
0.0028038
0.00014596
0.002229
0.00014699
0.0016505
0.00015863
0.00092442
0.00074582
0.00016168
2.0053e-05
0.0050205
9.0809e-09
4.0138e-05
0.0049309
5.966e-05
0.0047594
7.8213e-05
0.0045072
9.5443e-05
0.0041782
0.00011103
0.0037778
0.0001247
0.0033131
0.00013598
0.0027925
0.00014608
0.0022189
0.00014678
0.0016498
0.00015753
0.00091366
0.00073805
0.00016531
2.0053e-05
0.0050004
1.0059e-08
4.0139e-05
0.0049108
5.9662e-05
0.0047399
7.8216e-05
0.0044886
9.5446e-05
0.0041609
0.00011104
0.0037623
0.0001247
0.0032994
0.00013594
0.0027813
0.0001462
0.0022086
0.00014667
0.0016493
0.0001564
0.00090393
0.00072679
0.00016766
2.0053e-05
0.0049804
1.1039e-08
4.0141e-05
0.0048907
5.9664e-05
0.0047204
7.8219e-05
0.0044701
9.5449e-05
0.0041437
0.00011104
0.0037467
0.00012471
0.0032857
0.00013589
0.0027701
0.00014631
0.0021982
0.00014666
0.001649
0.00015529
0.0008953
0.00071308
0.000169
2.0054e-05
0.0049603
1.202e-08
4.0142e-05
0.0048707
5.9667e-05
0.0047008
7.8223e-05
0.0044515
9.5452e-05
0.0041265
0.00011104
0.0037311
0.00012471
0.0032721
0.00013585
0.002759
0.00014641
0.0021876
0.00014675
0.0016486
0.00015423
0.00088782
0.00069773
0.00016958
2.0054e-05
0.0049402
1.3002e-08
4.0143e-05
0.0048506
5.9669e-05
0.0046813
7.8226e-05
0.0044329
9.5455e-05
0.0041092
0.00011104
0.0037155
0.00012472
0.0032584
0.0001358
0.0027479
0.0001465
0.0021769
0.00014691
0.0016482
0.00015327
0.00088146
0.00068143
0.00016957
2.0054e-05
0.0049202
1.3985e-08
4.0145e-05
0.0048305
5.9671e-05
0.0046618
7.8229e-05
0.0044144
9.5459e-05
0.004092
0.00011104
0.0036999
0.00012473
0.0032447
0.00013575
0.0027369
0.00014658
0.0021661
0.00014715
0.0016477
0.00015242
0.00087618
0.00066471
0.00016915
2.0054e-05
0.0049001
1.497e-08
4.0146e-05
0.0048104
5.9674e-05
0.0046423
7.8232e-05
0.0043958
9.5462e-05
0.0040748
0.00011104
0.0036843
0.00012474
0.003231
0.0001357
0.0027259
0.00014664
0.0021551
0.00014744
0.0016469
0.00015169
0.00087193
0.00064796
0.00016844
2.0054e-05
0.00488
1.5956e-08
4.0148e-05
0.0047903
5.9676e-05
0.0046227
7.8235e-05
0.0043773
9.5465e-05
0.0040576
0.00011105
0.0036687
0.00012475
0.0032173
0.00013565
0.002715
0.00014668
0.0021441
0.00014778
0.0016458
0.00015109
0.00086862
0.00063151
0.00016754
2.0055e-05
0.0048599
1.6943e-08
4.0149e-05
0.0047702
5.9678e-05
0.0046032
7.8238e-05
0.0043587
9.5469e-05
0.0040403
0.00011105
0.0036532
0.00012476
0.0032036
0.0001356
0.0027042
0.00014671
0.002133
0.00014815
0.0016443
0.00015063
0.00086615
0.00061559
0.00016655
2.0055e-05
0.0048399
1.7932e-08
4.015e-05
0.0047501
5.9681e-05
0.0045837
7.8242e-05
0.0043401
9.5472e-05
0.0040231
0.00011105
0.0036376
0.00012477
0.0031899
0.00013556
0.0026934
0.00014671
0.0021218
0.00014855
0.0016425
0.00015028
0.00086441
0.00060035
0.00016552
2.0055e-05
0.0048198
1.8922e-08
4.0152e-05
0.00473
5.9683e-05
0.0045641
7.8245e-05
0.0043216
9.5476e-05
0.0040059
0.00011105
0.003622
0.00012478
0.0031762
0.00013552
0.0026827
0.0001467
0.0021107
0.00014895
0.0016402
0.00015006
0.0008633
0.00058591
0.0001645
2.0055e-05
0.0047997
1.9914e-08
4.0153e-05
0.0047099
5.9686e-05
0.0045446
7.8248e-05
0.004303
9.5479e-05
0.0039886
0.00011105
0.0036064
0.00012479
0.0031624
0.00013548
0.002672
0.00014668
0.0020995
0.00014936
0.0016376
0.00014995
0.00086272
0.00057233
0.00016353
2.0055e-05
0.0047796
2.0907e-08
4.0154e-05
0.0046898
5.9688e-05
0.0045251
7.8251e-05
0.0042845
9.5483e-05
0.0039714
0.00011106
0.0035909
0.00012481
0.0031487
0.00013545
0.0026613
0.00014663
0.0020883
0.00014977
0.0016344
0.00014993
0.00086255
0.00055963
0.00016263
2.0056e-05
0.0047596
2.1902e-08
4.0156e-05
0.0046697
5.969e-05
0.0045055
7.8255e-05
0.0042659
9.5487e-05
0.0039542
0.00011106
0.0035753
0.00012482
0.0031349
0.00013542
0.0026507
0.00014658
0.0020771
0.00015016
0.0016308
0.00015
0.00086271
0.00054781
0.00016182
2.0056e-05
0.0047395
2.2898e-08
4.0157e-05
0.0046496
5.9693e-05
0.004486
7.8258e-05
0.0042473
9.5491e-05
0.0039369
0.00011106
0.0035597
0.00012484
0.0031211
0.00013539
0.0026402
0.00014651
0.002066
0.00015053
0.0016268
0.00015014
0.0008631
0.00053685
0.0001611
2.0056e-05
0.0047194
2.3897e-08
4.0159e-05
0.0046295
5.9695e-05
0.0044665
7.8261e-05
0.0042288
9.5495e-05
0.0039197
0.00011106
0.0035442
0.00012485
0.0031073
0.00013537
0.0026297
0.00014642
0.0020549
0.00015088
0.0016224
0.00015033
0.00086365
0.00052671
0.00016047
2.0056e-05
0.0046993
2.4897e-08
4.016e-05
0.0046094
5.9698e-05
0.0044469
7.8264e-05
0.0042102
9.5499e-05
0.0039025
0.00011106
0.0035286
0.00012487
0.0030935
0.00013536
0.0026192
0.00014633
0.002044
0.0001512
0.0016175
0.00015058
0.00086427
0.00051735
0.00015994
2.0056e-05
0.0046792
2.5899e-08
4.0161e-05
0.0045893
5.97e-05
0.0044274
7.8268e-05
0.0041916
9.5503e-05
0.0038852
0.00011106
0.003513
0.00012488
0.0030797
0.00013535
0.0026087
0.00014623
0.0020331
0.00015149
0.0016122
0.00015086
0.0008649
0.0005087
0.00015951
2.0057e-05
0.0046592
2.6903e-08
4.0163e-05
0.0045692
5.9702e-05
0.0044078
7.8271e-05
0.0041731
9.5507e-05
0.003868
0.00011106
0.0034975
0.0001249
0.0030659
0.00013535
0.0025983
0.00014613
0.0020223
0.00015175
0.0016066
0.00015116
0.0008655
0.0005007
0.00015915
2.0057e-05
0.0046391
2.791e-08
4.0164e-05
0.0045491
5.9705e-05
0.0043883
7.8275e-05
0.0041545
9.5511e-05
0.0038508
0.00011107
0.0034819
0.00012492
0.003052
0.00013535
0.0025878
0.00014602
0.0020116
0.00015198
0.0016006
0.00015148
0.000866
0.0004933
0.00015888
2.0057e-05
0.004619
2.8918e-08
4.0165e-05
0.004529
5.9707e-05
0.0043688
7.8278e-05
0.0041359
9.5516e-05
0.0038335
0.00011107
0.0034664
0.00012493
0.0030381
0.00013536
0.0025774
0.00014591
0.0020011
0.00015218
0.0015944
0.0001518
0.00086638
0.00048643
0.00015867
2.0057e-05
0.0045989
2.9929e-08
4.0167e-05
0.0045089
5.971e-05
0.0043492
7.8281e-05
0.0041173
9.552e-05
0.0038163
0.00011107
0.0034508
0.00012495
0.0030243
0.00013538
0.002567
0.0001458
0.0019907
0.00015235
0.0015878
0.00015213
0.00086661
0.00048003
0.00015853
2.0057e-05
0.0045788
3.0941e-08
4.0168e-05
0.0044887
5.9712e-05
0.0043297
7.8285e-05
0.0040988
9.5525e-05
0.003799
0.00011107
0.0034353
0.00012496
0.0030104
0.00013539
0.0025565
0.00014569
0.0019804
0.0001525
0.001581
0.00015245
0.00086665
0.00047405
0.00015843
2.0057e-05
0.0045587
3.1957e-08
4.017e-05
0.0044686
5.9715e-05
0.0043101
7.8288e-05
0.0040802
9.5529e-05
0.0037818
0.00011107
0.0034197
0.00012497
0.0029965
0.00013542
0.0025461
0.00014558
0.0019702
0.00015262
0.001574
0.00015276
0.00086651
0.00046844
0.00015838
2.0058e-05
0.0045386
3.2974e-08
4.0171e-05
0.0044485
5.9717e-05
0.0042906
7.8292e-05
0.0040616
9.5534e-05
0.0037646
0.00011107
0.0034042
0.00012499
0.0029826
0.00013544
0.0025356
0.00014548
0.0019602
0.00015271
0.0015667
0.00015306
0.00086615
0.00046314
0.00015836
2.0058e-05
0.0045185
3.3994e-08
4.0172e-05
0.0044284
5.972e-05
0.004271
7.8295e-05
0.004043
9.5539e-05
0.0037473
0.00011107
0.0033887
0.000125
0.0029686
0.00013548
0.0025252
0.00014538
0.0019503
0.00015278
0.0015593
0.00015335
0.00086559
0.00045812
0.00015837
2.0058e-05
0.0044984
3.5017e-08
4.0174e-05
0.0044083
5.9722e-05
0.0042515
7.8299e-05
0.0040245
9.5544e-05
0.0037301
0.00011108
0.0033731
0.00012501
0.0029547
0.00013551
0.0025147
0.00014529
0.0019405
0.00015284
0.0015518
0.00015362
0.00086481
0.00045333
0.0001584
2.0058e-05
0.0044784
3.6042e-08
4.0175e-05
0.0043882
5.9725e-05
0.0042319
7.8302e-05
0.0040059
9.5549e-05
0.0037128
0.00011108
0.0033576
0.00012502
0.0029407
0.00013555
0.0025041
0.00014521
0.0019308
0.00015288
0.0015441
0.00015387
0.00086381
0.00044875
0.00015846
2.0058e-05
0.0044583
3.707e-08
4.0177e-05
0.0043681
5.9727e-05
0.0042124
7.8306e-05
0.0039873
9.5554e-05
0.0036956
0.00011108
0.0033421
0.00012503
0.0029268
0.00013559
0.0024936
0.00014513
0.0019213
0.0001529
0.0015363
0.0001541
0.00086261
0.00044433
0.00015852
2.0059e-05
0.0044382
3.8101e-08
4.0178e-05
0.0043479
5.973e-05
0.0041928
7.831e-05
0.0039687
9.556e-05
0.0036783
0.00011108
0.0033266
0.00012504
0.0029128
0.00013563
0.002483
0.00014506
0.0019119
0.00015292
0.0015285
0.00015432
0.00086121
0.00044006
0.00015859
2.0059e-05
0.0044181
3.9135e-08
4.018e-05
0.0043278
5.9733e-05
0.0041733
7.8313e-05
0.0039502
9.5565e-05
0.0036611
0.00011108
0.0033111
0.00012505
0.0028989
0.00013567
0.0024724
0.000145
0.0019025
0.00015292
0.0015206
0.00015452
0.00085961
0.00043591
0.00015867
2.0059e-05
0.004398
4.0172e-08
4.0181e-05
0.0043077
5.9735e-05
0.0041537
7.8317e-05
0.0039316
9.5571e-05
0.0036438
0.00011108
0.0032955
0.00012506
0.0028849
0.00013572
0.0024617
0.00014495
0.0018933
0.00015293
0.0015126
0.00015471
0.00085783
0.00043187
0.00015875
2.0059e-05
0.0043779
4.1212e-08
4.0182e-05
0.0042876
5.9738e-05
0.0041342
7.832e-05
0.003913
9.5577e-05
0.0036266
0.00011109
0.00328
0.00012507
0.0028709
0.00013576
0.002451
0.00014491
0.0018842
0.00015292
0.0015046
0.00015488
0.00085587
0.00042791
0.00015884
2.0059e-05
0.0043578
4.2255e-08
4.0184e-05
0.0042674
5.9741e-05
0.0041146
7.8324e-05
0.0038944
9.5583e-05
0.0036093
0.00011109
0.0032645
0.00012508
0.0028569
0.00013581
0.0024403
0.00014487
0.0018751
0.00015291
0.0014965
0.00015504
0.00085375
0.00042403
0.00015892
2.006e-05
0.0043377
4.3301e-08
4.0185e-05
0.0042473
5.9743e-05
0.0040951
7.8328e-05
0.0038758
9.5589e-05
0.003592
0.00011109
0.003249
0.00012508
0.0028429
0.00013586
0.0024295
0.00014484
0.0018661
0.00015291
0.0014885
0.00015518
0.00085148
0.00042021
0.000159
2.006e-05
0.0043176
4.435e-08
4.0187e-05
0.0042272
5.9746e-05
0.0040755
7.8331e-05
0.0038572
9.5595e-05
0.0035748
0.00011109
0.0032335
0.00012509
0.0028289
0.0001359
0.0024187
0.00014482
0.0018572
0.0001529
0.0014804
0.00015532
0.00084906
0.00041644
0.00015908
2.006e-05
0.0042975
4.5403e-08
4.0188e-05
0.0042071
5.9749e-05
0.0040559
7.8335e-05
0.0038387
9.5602e-05
0.0035575
0.0001111
0.003218
0.0001251
0.0028149
0.00013595
0.0024078
0.0001448
0.0018483
0.00015289
0.0014723
0.00015544
0.0008465
0.00041272
0.00015916
2.006e-05
0.0042773
4.6459e-08
4.019e-05
0.0041869
5.9752e-05
0.0040364
7.8339e-05
0.0038201
9.5608e-05
0.0035402
0.0001111
0.0032025
0.0001251
0.0028009
0.00013599
0.002397
0.0001448
0.0018395
0.00015288
0.0014642
0.00015556
0.00084383
0.00040905
0.00015924
2.0061e-05
0.0042572
4.7519e-08
4.0191e-05
0.0041668
5.9755e-05
0.0040168
7.8342e-05
0.0038015
9.5615e-05
0.003523
0.0001111
0.003187
0.00012511
0.0027869
0.00013604
0.002386
0.00014479
0.0018308
0.00015288
0.0014561
0.00015567
0.00084104
0.00040541
0.00015931
2.0061e-05
0.0042371
4.8583e-08
4.0193e-05
0.0041467
5.9757e-05
0.0039972
7.8346e-05
0.0037829
9.5622e-05
0.0035057
0.00011111
0.0031716
0.00012511
0.0027729
0.00013608
0.002375
0.0001448
0.0018221
0.00015288
0.001448
0.00015577
0.00083815
0.0004018
0.00015938
2.0061e-05
0.004217
4.965e-08
4.0194e-05
0.0041265
5.976e-05
0.0039777
7.835e-05
0.0037643
9.5629e-05
0.0034884
0.00011111
0.0031561
0.00012512
0.0027589
0.00013613
0.002364
0.00014481
0.0018134
0.00015288
0.00144
0.00015587
0.00083516
0.00039823
0.00015945
2.0061e-05
0.0041969
5.0722e-08
4.0196e-05
0.0041064
5.9763e-05
0.0039581
7.8354e-05
0.0037457
9.5636e-05
0.0034711
0.00011111
0.0031406
0.00012512
0.0027449
0.00013617
0.002353
0.00014482
0.0018047
0.00015289
0.0014319
0.00015597
0.00083207
0.00039468
0.00015951
2.0061e-05
0.0041768
5.1797e-08
4.0197e-05
0.0040863
5.9766e-05
0.0039385
7.8357e-05
0.0037271
9.5644e-05
0.0034538
0.00011112
0.0031251
0.00012512
0.0027309
0.00013622
0.0023419
0.00014483
0.0017961
0.00015289
0.0014238
0.00015606
0.00082891
0.00039117
0.00015957
2.0062e-05
0.0041567
5.2876e-08
4.0199e-05
0.0040661
5.9769e-05
0.003919
7.8361e-05
0.0037085
9.5651e-05
0.0034366
0.00011112
0.0031097
0.00012513
0.0027169
0.00013626
0.0023308
0.00014485
0.0017875
0.0001529
0.0014158
0.00015614
0.00082567
0.00038768
0.00015963
2.0062e-05
0.0041366
5.396e-08
4.02e-05
0.004046
5.9772e-05
0.0038994
7.8365e-05
0.0036899
9.5659e-05
0.0034193
0.00011113
0.0030942
0.00012513
0.0027029
0.0001363
0.0023196
0.00014488
0.001779
0.00015292
0.0014077
0.00015623
0.00082236
0.00038422
0.00015969
2.0062e-05
0.0041164
5.5047e-08
4.0202e-05
0.0040259
5.9775e-05
0.0038798
7.8368e-05
0.0036713
9.5667e-05
0.003402
0.00011113
0.0030787
0.00012514
0.0026889
0.00013634
0.0023084
0.0001449
0.0017704
0.00015293
0.0013997
0.00015631
0.00081899
0.00038078
0.00015974
2.0063e-05
0.0040963
5.614e-08
4.0203e-05
0.0040057
5.9778e-05
0.0038603
7.8372e-05
0.0036527
9.5675e-05
0.0033847
0.00011114
0.0030633
0.00012514
0.0026749
0.00013638
0.0022972
0.00014493
0.0017618
0.00015295
0.0013917
0.00015639
0.00081555
0.00037738
0.00015979
2.0063e-05
0.0040762
5.7236e-08
4.0205e-05
0.0039856
5.9782e-05
0.0038407
7.8376e-05
0.0036342
9.5683e-05
0.0033674
0.00011114
0.0030478
0.00012514
0.0026609
0.00013642
0.0022859
0.00014496
0.0017533
0.00015297
0.0013837
0.00015646
0.00081206
0.000374
0.00015984
2.0063e-05
0.0040561
5.8337e-08
4.0206e-05
0.0039654
5.9785e-05
0.0038211
7.838e-05
0.0036156
9.5691e-05
0.00335
0.00011115
0.0030324
0.00012515
0.0026469
0.00013646
0.0022746
0.000145
0.0017448
0.00015299
0.0013757
0.00015654
0.00080852
0.00037064
0.00015989
2.0063e-05
0.004036
5.9443e-08
4.0208e-05
0.0039453
5.9788e-05
0.0038015
7.8383e-05
0.003597
9.57e-05
0.0033327
0.00011116
0.0030169
0.00012515
0.0026329
0.0001365
0.0022632
0.00014503
0.0017362
0.00015302
0.0013677
0.00015661
0.00080493
0.00036731
0.00015994
2.0064e-05
0.0040158
6.0554e-08
4.021e-05
0.0039251
5.9791e-05
0.0037819
7.8387e-05
0.0035784
9.5708e-05
0.0033154
0.00011116
0.0030014
0.00012515
0.0026189
0.00013653
0.0022518
0.00014507
0.0017277
0.00015304
0.0013597
0.00015668
0.00080129
0.00036401
0.00015999
2.0064e-05
0.0039957
6.167e-08
4.0211e-05
0.003905
5.9795e-05
0.0037624
7.8391e-05
0.0035598
9.5717e-05
0.0032981
0.00011117
0.002986
0.00012516
0.0026049
0.00013657
0.0022404
0.0001451
0.0017192
0.00015307
0.0013518
0.00015675
0.0007976
0.00036073
0.00016003
2.0064e-05
0.0039756
6.2791e-08
4.0213e-05
0.0038848
5.9798e-05
0.0037428
7.8395e-05
0.0035412
9.5725e-05
0.0032807
0.00011118
0.0029705
0.00012516
0.0025909
0.00013661
0.002229
0.00014514
0.0017106
0.0001531
0.0013438
0.00015682
0.00079388
0.00035748
0.00016007
2.0064e-05
0.0039555
6.3917e-08
4.0214e-05
0.0038647
5.9802e-05
0.0037232
7.8399e-05
0.0035226
9.5734e-05
0.0032634
0.00011119
0.0029551
0.00012516
0.0025769
0.00013664
0.0022175
0.00014518
0.0017021
0.00015313
0.0013359
0.00015689
0.00079012
0.00035425
0.00016012
2.0065e-05
0.0039353
6.5048e-08
4.0216e-05
0.0038445
5.9805e-05
0.0037036
7.8402e-05
0.003504
9.5743e-05
0.0032461
0.0001112
0.0029396
0.00012517
0.002563
0.00013668
0.002206
0.00014522
0.0016935
0.00015316
0.0013279
0.00015696
0.00078632
0.00035105
0.00016016
2.0065e-05
0.0039152
6.6185e-08
4.0218e-05
0.0038244
5.9809e-05
0.003684
7.8406e-05
0.0034854
9.5752e-05
0.0032287
0.0001112
0.0029242
0.00012517
0.002549
0.00013671
0.0021944
0.00014526
0.001685
0.00015319
0.00132
0.00015702
0.00078249
0.00034788
0.0001602
2.0065e-05
0.0038951
6.7327e-08
4.0219e-05
0.0038042
5.9813e-05
0.0036644
7.841e-05
0.0034668
9.5761e-05
0.0032114
0.00011121
0.0029087
0.00012518
0.002535
0.00013675
0.0021829
0.0001453
0.0016764
0.00015322
0.0013121
0.00015709
0.00077862
0.00034473
0.00016024
2.0066e-05
0.0038749
6.8475e-08
4.0221e-05
0.0037841
5.9816e-05
0.0036448
7.8414e-05
0.0034482
9.577e-05
0.003194
0.00011123
0.0028933
0.00012518
0.0025211
0.00013678
0.0021713
0.00014534
0.0016679
0.00015325
0.0013042
0.00015715
0.00077472
0.0003416
0.00016027
2.0066e-05
0.0038548
6.9628e-08
4.0223e-05
0.0037639
5.982e-05
0.0036252
7.8418e-05
0.0034296
9.5779e-05
0.0031767
0.00011124
0.0028778
0.00012519
0.0025071
0.00013682
0.0021596
0.00014538
0.0016593
0.00015328
0.0012963
0.00015721
0.00077079
0.0003385
0.00016031
2.0066e-05
0.0038347
7.0788e-08
4.0224e-05
0.0037438
5.9824e-05
0.0036056
7.8422e-05
0.003411
9.5789e-05
0.0031593
0.00011125
0.0028624
0.00012519
0.0024932
0.00013685
0.002148
0.00014542
0.0016507
0.00015331
0.0012884
0.00015727
0.00076683
0.00033543
0.00016035
2.0067e-05
0.0038145
7.1953e-08
4.0226e-05
0.0037236
5.9828e-05
0.003586
7.8426e-05
0.0033924
9.5798e-05
0.0031419
0.00011126
0.0028469
0.0001252
0.0024792
0.00013688
0.0021363
0.00014546
0.0016422
0.00015334
0.0012805
0.00015733
0.00076284
0.00033237
0.00016038
2.0067e-05
0.0037944
7.3125e-08
4.0228e-05
0.0037034
5.9832e-05
0.0035664
7.8431e-05
0.0033738
9.5807e-05
0.0031245
0.00011127
0.0028314
0.00012521
0.0024653
0.00013692
0.0021246
0.00014551
0.0016336
0.00015337
0.0012727
0.00015739
0.00075883
0.00032935
0.00016042
2.0068e-05
0.0037742
7.4303e-08
4.023e-05
0.0036833
5.9836e-05
0.0035468
7.8435e-05
0.0033552
9.5816e-05
0.0031072
0.00011129
0.0028159
0.00012522
0.0024514
0.00013695
0.0021129
0.00014555
0.001625
0.00015341
0.0012648
0.00015745
0.00075479
0.00032634
0.00016045
2.0068e-05
0.0037541
7.5487e-08
4.0231e-05
0.0036631
5.984e-05
0.0035272
7.8439e-05
0.0033366
9.5825e-05
0.0030898
0.0001113
0.0028005
0.00012523
0.0024375
0.00013698
0.0021011
0.00014559
0.0016164
0.00015344
0.0012569
0.0001575
0.00075072
0.00032336
0.00016049
2.0068e-05
0.0037339
7.6678e-08
4.0233e-05
0.003643
5.9844e-05
0.0035076
7.8444e-05
0.003318
9.5834e-05
0.0030724
0.00011132
0.002785
0.00012523
0.0024235
0.00013701
0.0020893
0.00014563
0.0016078
0.00015347
0.0012491
0.00015756
0.00074663
0.0003204
0.00016052
2.0069e-05
0.0037138
7.7876e-08
4.0235e-05
0.0036228
5.9848e-05
0.003488
7.8449e-05
0.0032994
9.5844e-05
0.003055
0.00011133
0.0027695
0.00012524
0.0024096
0.00013705
0.0020775
0.00014567
0.0015991
0.0001535
0.0012413
0.00015761
0.00074252
0.00031746
0.00016055
2.0069e-05
0.0036936
7.9081e-08
4.0237e-05
0.0036026
5.9853e-05
0.0034684
7.8453e-05
0.0032808
9.5853e-05
0.0030376
0.00011135
0.002754
0.00012526
0.0023957
0.00013708
0.0020657
0.00014571
0.0015905
0.00015353
0.0012335
0.00015767
0.00073838
0.00031454
0.00016058
2.007e-05
0.0036735
8.0292e-08
4.0238e-05
0.0035825
5.9857e-05
0.0034487
7.8458e-05
0.0032622
9.5862e-05
0.0030202
0.00011136
0.0027385
0.00012527
0.0023818
0.00013711
0.0020539
0.00014575
0.0015819
0.00015356
0.0012256
0.00015772
0.00073422
0.00031164
0.00016062
2.007e-05
0.0036533
8.1511e-08
4.024e-05
0.0035623
5.9861e-05
0.0034291
7.8464e-05
0.0032436
9.5871e-05
0.0030028
0.00011138
0.002723
0.00012528
0.0023679
0.00013714
0.002042
0.00014579
0.0015732
0.00015359
0.0012178
0.00015777
0.00073004
0.00030877
0.00016065
2.0071e-05
0.0036332
8.2737e-08
4.0242e-05
0.0035421
5.9866e-05
0.0034095
7.8469e-05
0.003225
9.5881e-05
0.0029854
0.0001114
0.0027075
0.00012529
0.002354
0.00013717
0.0020301
0.00014583
0.0015646
0.00015362
0.0012101
0.00015782
0.00072585
0.00030591
0.00016068
2.0071e-05
0.003613
8.397e-08
4.0244e-05
0.0035219
5.987e-05
0.0033899
7.8474e-05
0.0032064
9.589e-05
0.002968
0.00011142
0.002692
0.0001253
0.0023401
0.0001372
0.0020182
0.00014587
0.0015559
0.00015365
0.0012023
0.00015787
0.00072163
0.00030307
0.00016071
2.0072e-05
0.0035929
8.5211e-08
4.0246e-05
0.0035018
5.9875e-05
0.0033702
7.848e-05
0.0031878
9.5899e-05
0.0029505
0.00011143
0.0026764
0.00012532
0.0023263
0.00013723
0.0020063
0.00014591
0.0015472
0.00015368
0.0011945
0.00015792
0.00071739
0.00030026
0.00016074
2.0072e-05
0.0035727
8.6459e-08
4.0248e-05
0.0034816
5.988e-05
0.0033506
7.8486e-05
0.0031692
9.5909e-05
0.0029331
0.00011145
0.0026609
0.00012533
0.0023124
0.00013726
0.0019944
0.00014595
0.0015385
0.00015371
0.0011867
0.00015797
0.00071313
0.00029746
0.00016077
2.0073e-05
0.0035526
8.7715e-08
4.025e-05
0.0034614
5.9885e-05
0.003331
7.8492e-05
0.0031506
9.5919e-05
0.0029157
0.00011147
0.0026453
0.00012535
0.0022985
0.00013729
0.0019824
0.00014599
0.0015298
0.00015374
0.001179
0.00015802
0.00070886
0.00029468
0.0001608
2.0073e-05
0.0035324
8.8979e-08
4.0252e-05
0.0034412
5.9889e-05
0.0033113
7.8498e-05
0.003132
9.5928e-05
0.0028983
0.00011149
0.0026298
0.00012536
0.0022846
0.00013732
0.0019705
0.00014603
0.0015211
0.00015377
0.0011713
0.00015806
0.00070457
0.00029192
0.00016083
2.0074e-05
0.0035122
9.0251e-08
4.0254e-05
0.0034211
5.9894e-05
0.0032917
7.8505e-05
0.0031133
9.5938e-05
0.0028808
0.00011151
0.0026142
0.00012538
0.0022708
0.00013735
0.0019585
0.00014607
0.0015124
0.0001538
0.0011635
0.00015811
0.00070026
0.00028917
0.00016085
2.0074e-05
0.0034921
9.1531e-08
4.0256e-05
0.0034009
5.9899e-05
0.003272
7.8511e-05
0.0030947
9.5948e-05
0.0028634
0.00011153
0.0025986
0.00012539
0.0022569
0.00013738
0.0019465
0.00014611
0.0015036
0.00015383
0.0011558
0.00015816
0.00069594
0.00028645
0.00016088
2.0075e-05
0.0034719
9.2819e-08
4.0259e-05
0.0033807
5.9905e-05
0.0032524
7.8518e-05
0.0030761
9.5958e-05
0.0028459
0.00011155
0.002583
0.00012541
0.0022431
0.0001374
0.0019345
0.00014615
0.0014949
0.00015386
0.0011481
0.0001582
0.0006916
0.00028374
0.00016091
2.0076e-05
0.0034517
9.4115e-08
4.0261e-05
0.0033605
5.991e-05
0.0032328
7.8526e-05
0.0030575
9.5969e-05
0.0028285
0.00011157
0.0025674
0.00012543
0.0022292
0.00013743
0.0019225
0.00014619
0.0014861
0.00015389
0.0011404
0.00015825
0.00068725
0.00028105
0.00016094
2.0076e-05
0.0034316
9.5419e-08
4.0263e-05
0.0033403
5.9915e-05
0.0032131
7.8533e-05
0.0030389
9.5979e-05
0.0028111
0.00011159
0.0025518
0.00012544
0.0022153
0.00013746
0.0019105
0.00014623
0.0014774
0.00015392
0.0011327
0.00015829
0.00068288
0.00027837
0.00016097
2.0077e-05
0.0034114
9.6732e-08
4.0266e-05
0.0033201
5.992e-05
0.0031934
7.8541e-05
0.0030203
9.599e-05
0.0027936
0.00011161
0.0025362
0.00012546
0.0022015
0.00013749
0.0018985
0.00014627
0.0014686
0.00015395
0.001125
0.00015833
0.0006785
0.00027571
0.00016099
2.0078e-05
0.0033912
9.8053e-08
4.0268e-05
0.0032999
5.9926e-05
0.0031738
7.8549e-05
0.0030016
9.6001e-05
0.0027762
0.00011163
0.0025205
0.00012548
0.0021877
0.00013751
0.0018864
0.0001463
0.0014598
0.00015398
0.0011173
0.00015838
0.00067411
0.00027306
0.00016102
2.0078e-05
0.003371
9.9382e-08
4.0271e-05
0.0032797
5.9931e-05
0.0031541
7.8557e-05
0.002983
9.6012e-05
0.0027587
0.00011166
0.0025049
0.00012549
0.0021738
0.00013754
0.0018744
0.00014634
0.001451
0.00015401
0.0011096
0.00015842
0.0006697
0.00027043
0.00016105
2.0079e-05
0.0033509
1.0072e-07
4.0273e-05
0.0032595
5.9937e-05
0.0031345
7.8566e-05
0.0029644
9.6023e-05
0.0027412
0.00011168
0.0024892
0.00012551
0.00216
0.00013757
0.0018623
0.00014638
0.0014422
0.00015404
0.001102
0.00015846
0.00066528
0.00026782
0.00016108
2.008e-05
0.0033307
1.0206e-07
4.0276e-05
0.0032394
5.9943e-05
0.0031148
7.8575e-05
0.0029458
9.6034e-05
0.0027238
0.0001117
0.0024736
0.00012553
0.0021462
0.00013759
0.0018503
0.00014642
0.0014334
0.00015407
0.0010943
0.0001585
0.00066086
0.00026522
0.0001611
2.0081e-05
0.0033105
1.0342e-07
4.0279e-05
0.0032192
5.9949e-05
0.0030951
7.8584e-05
0.0029271
9.6046e-05
0.0027063
0.00011172
0.0024579
0.00012555
0.0021323
0.00013762
0.0018382
0.00014646
0.0014245
0.0001541
0.0010867
0.00015854
0.00065641
0.00026263
0.00016113
2.0081e-05
0.0032903
1.0478e-07
4.0282e-05
0.003199
5.9955e-05
0.0030755
7.8593e-05
0.0029085
9.6057e-05
0.0026889
0.00011174
0.0024422
0.00012557
0.0021185
0.00013765
0.0018261
0.0001465
0.0014157
0.00015413
0.001079
0.00015858
0.00065196
0.00026006
0.00016116
2.0082e-05
0.0032701
1.0615e-07
4.0284e-05
0.0031788
5.9961e-05
0.0030558
7.8603e-05
0.0028898
9.6069e-05
0.0026714
0.00011176
0.0024265
0.00012558
0.0021047
0.00013767
0.001814
0.00014653
0.0014068
0.00015416
0.0010714
0.00015862
0.0006475
0.00025751
0.00016118
2.0083e-05
0.0032499
1.0753e-07
4.0288e-05
0.0031585
5.9967e-05
0.0030361
7.8612e-05
0.0028712
9.6081e-05
0.0026539
0.00011178
0.0024108
0.0001256
0.0020909
0.0001377
0.0018019
0.00014657
0.0013979
0.00015419
0.0010638
0.00015866
0.00064303
0.00025496
0.00016121
2.0084e-05
0.0032297
1.0891e-07
4.0291e-05
0.0031383
5.9973e-05
0.0030164
7.8622e-05
0.0028525
9.6093e-05
0.0026364
0.00011181
0.0023951
0.00012562
0.0020771
0.00013772
0.0017898
0.00014661
0.001389
0.00015422
0.0010562
0.0001587
0.00063855
0.00025243
0.00016123
2.0085e-05
0.0032095
1.103e-07
4.0294e-05
0.0031181
5.9979e-05
0.0029967
7.8633e-05
0.0028339
9.6106e-05
0.002619
0.00011183
0.0023794
0.00012564
0.0020632
0.00013775
0.0017777
0.00014665
0.0013801
0.00015425
0.0010486
0.00015874
0.00063406
0.00024991
0.00016126
2.0086e-05
0.0031893
1.117e-07
4.0297e-05
0.0030979
5.9986e-05
0.002977
7.8643e-05
0.0028152
9.6118e-05
0.0026015
0.00011185
0.0023636
0.00012566
0.0020494
0.00013777
0.0017656
0.00014669
0.0013712
0.00015428
0.001041
0.00015878
0.00062956
0.00024741
0.00016129
2.0087e-05
0.0031691
1.1311e-07
4.0301e-05
0.0030777
5.9993e-05
0.0029573
7.8654e-05
0.0027966
9.6131e-05
0.002584
0.00011187
0.0023479
0.00012568
0.0020356
0.0001378
0.0017535
0.00014672
0.0013623
0.00015432
0.0010334
0.00015882
0.00062506
0.00024492
0.00016131
2.0088e-05
0.0031489
1.1452e-07
4.0304e-05
0.0030575
5.9999e-05
0.0029377
7.8665e-05
0.0027779
9.6144e-05
0.0025665
0.00011189
0.0023322
0.00012569
0.0020218
0.00013782
0.0017414
0.00014676
0.0013534
0.00015435
0.0010258
0.00015886
0.00062055
0.00024243
0.00016134
2.0089e-05
0.0031287
1.1594e-07
4.0308e-05
0.0030373
6.0006e-05
0.002918
7.8676e-05
0.0027592
9.6156e-05
0.0025491
0.00011191
0.0023164
0.00012571
0.002008
0.00013784
0.0017292
0.0001468
0.0013444
0.00015438
0.0010182
0.0001589
0.00061602
0.00023997
0.00016137
2.009e-05
0.0031085
1.1737e-07
4.0312e-05
0.0030171
6.0013e-05
0.0028983
7.8687e-05
0.0027406
9.6169e-05
0.0025316
0.00011193
0.0023006
0.00012573
0.0019942
0.00013787
0.0017171
0.00014684
0.0013354
0.00015441
0.0010107
0.00015894
0.0006115
0.00023751
0.00016139
2.0091e-05
0.0030883
1.188e-07
4.0315e-05
0.0029968
6.002e-05
0.0028785
7.8698e-05
0.0027219
9.6182e-05
0.0025141
0.00011196
0.0022849
0.00012575
0.0019804
0.00013789
0.001705
0.00014687
0.0013264
0.00015444
0.0010031
0.00015897
0.00060696
0.00023506
0.00016142
2.0093e-05
0.0030681
1.2023e-07
4.0319e-05
0.0029766
6.0027e-05
0.0028588
7.8709e-05
0.0027032
9.6195e-05
0.0024966
0.00011198
0.0022691
0.00012577
0.0019666
0.00013792
0.0016928
0.00014691
0.0013175
0.00015447
0.00099553
0.00015901
0.00060242
0.00023263
0.00016145
2.0094e-05
0.0030479
1.2167e-07
4.0323e-05
0.0029564
6.0035e-05
0.0028391
7.8721e-05
0.0026845
9.6208e-05
0.0024791
0.000112
0.0022533
0.00012579
0.0019529
0.00013794
0.0016807
0.00014695
0.0013084
0.0001545
0.00098798
0.00015905
0.00059787
0.00023021
0.00016147
2.0095e-05
0.0030277
1.2312e-07
4.0327e-05
0.0029361
6.0042e-05
0.0028194
7.8733e-05
0.0026658
9.6221e-05
0.0024616
0.00011202
0.0022375
0.00012581
0.0019391
0.00013796
0.0016685
0.00014699
0.0012994
0.00015453
0.00098043
0.00015909
0.00059332
0.00022779
0.0001615
2.0097e-05
0.0030074
1.2457e-07
4.0332e-05
0.0029159
6.0049e-05
0.0027997
7.8744e-05
0.0026471
9.6234e-05
0.0024441
0.00011204
0.0022217
0.00012583
0.0019253
0.00013799
0.0016563
0.00014703
0.0012904
0.00015457
0.00097289
0.00015912
0.00058876
0.00022539
0.00016153
2.0098e-05
0.0029872
1.2602e-07
4.0336e-05
0.0028957
6.0057e-05
0.00278
7.8756e-05
0.0026284
9.6247e-05
0.0024267
0.00011206
0.0022059
0.00012585
0.0019115
0.00013801
0.0016442
0.00014706
0.0012813
0.0001546
0.00096536
0.00015916
0.0005842
0.000223
0.00016155
2.0099e-05
0.002967
1.2748e-07
4.034e-05
0.0028754
6.0064e-05
0.0027603
7.8768e-05
0.0026097
9.626e-05
0.0024092
0.00011208
0.00219
0.00012587
0.0018977
0.00013803
0.001632
0.0001471