/*--------------------------------*- C++ -*----------------------------------*\
  =========                 |
  \\      /  F ield         | OpenFOAM: The Open Source CFD Toolbox
   \\    /   O peration     | Website:  https://openfoam.org
    \\  /    A nd           | Version:  6.0
     \\/     M anipulation  |
\*---------------------------------------------------------------------------*/
FoamFile
{
    version     2.0;
    format      ascii;
    class       volScalarField;
    location    "16";
    object      p;
}
// * * * * * * * * * * * * * * * * * * * * * * * * * * * * * * * * * * * * * //

dimensions      [0 2 -2 0 0 0 0];

internalField   nonuniform List<scalar> 
62000
(
0.0159548
0.0159539
0.0159529
0.0159519
0.0159508
0.0159498
0.0159487
0.0159475
0.0159461
0.0159444
0.0159423
0.0159397
0.0159362
0.015932
0.0159265
0.0159198
0.0159113
0.0159011
0.0158885
0.0158735
0.0158554
0.0158343
0.015809
0.0157799
0.0157457
0.0157069
0.0156622
0.0156123
0.0155563
0.0154951
0.015428
0.0153556
0.0152779
0.0151969
0.0151145
0.0150318
0.014949
0.0148661
0.014782
0.0146944
0.0145985
0.0144865
0.0143473
0.0141659
0.0139243
0.0136013
0.0131754
0.0126273
0.011943
0.0111251
0.0101877
0.00917189
0.00811994
0.00710387
0.00615524
0.00528853
0.00449438
0.00362089
0.0029066
0.00290762
0.0159727
0.0159721
0.0159716
0.0159712
0.0159709
0.0159707
0.0159704
0.01597
0.0159693
0.0159683
0.0159668
0.0159647
0.0159618
0.015958
0.0159529
0.0159466
0.0159385
0.0159288
0.0159167
0.0159024
0.0158851
0.0158649
0.015841
0.0158134
0.0157814
0.015745
0.0157037
0.0156578
0.015607
0.015552
0.0154926
0.0154292
0.0153623
0.0152944
0.0152279
0.0151645
0.0151047
0.015049
0.0149974
0.0149482
0.0148978
0.0148396
0.0147633
0.0146547
0.0144956
0.0142638
0.0139345
0.0134828
0.0128862
0.0121363
0.0112361
0.0102184
0.0091171
0.00801404
0.00695366
0.00596316
0.0050419
0.00399477
0.00323045
0.00279581
0.016024
0.0160234
0.0160229
0.0160226
0.0160222
0.0160218
0.0160213
0.0160206
0.0160195
0.016018
0.0160158
0.0160129
0.0160089
0.0160038
0.0159972
0.0159893
0.0159792
0.0159672
0.0159525
0.0159353
0.0159147
0.0158907
0.0158626
0.0158302
0.0157929
0.0157505
0.0157026
0.0156492
0.0155902
0.015526
0.0154563
0.015381
0.0153008
0.0152178
0.0151349
0.0150534
0.0149737
0.0148959
0.0148202
0.0147454
0.0146683
0.0145835
0.0144819
0.0143512
0.0141753
0.0139334
0.0136019
0.0131544
0.0125647
0.0118165
0.0109015
0.00984201
0.00865764
0.0074382
0.00624583
0.00514071
0.00415155
0.0031258
0.00245279
0.00208376
0.0161145
0.0161137
0.0161129
0.0161119
0.0161107
0.0161093
0.0161075
0.0161053
0.0161025
0.0160992
0.016095
0.0160899
0.0160835
0.016076
0.0160667
0.0160559
0.0160427
0.0160274
0.0160092
0.015988
0.0159631
0.0159345
0.0159012
0.0158633
0.0158199
0.0157709
0.0157158
0.0156546
0.0155871
0.0155135
0.0154335
0.0153468
0.0152538
0.015157
0.015059
0.0149611
0.0148635
0.0147664
0.0146697
0.0145728
0.0144734
0.0143673
0.0142476
0.0141048
0.0139263
0.0136957
0.0133933
0.0129956
0.0124763
0.0118137
0.0109892
0.0100083
0.00886579
0.00764053
0.00639816
0.00521698
0.0041482
0.0030754
0.00233409
0.00201747
0.0162421
0.016241
0.0162393
0.0162372
0.0162344
0.0162312
0.0162273
0.0162228
0.0162175
0.0162113
0.016204
0.0161956
0.0161858
0.0161746
0.0161615
0.0161466
0.0161293
0.0161095
0.0160866
0.0160604
0.0160303
0.015996
0.0159569
0.0159125
0.0158624
0.0158062
0.0157434
0.0156741
0.0155979
0.0155149
0.0154248
0.015327
0.015222
0.015112
0.0149998
0.0148866
0.0147721
0.0146563
0.0145391
0.0144197
0.0142963
0.0141657
0.0140229
0.013861
0.0136713
0.0134426
0.0131617
0.0128113
0.0123701
0.0118174
0.0111286
0.0102944
0.00928226
0.0081464
0.00693565
0.00572283
0.00456153
0.00334627
0.00239042
0.00184168
0.0163856
0.0163842
0.0163822
0.0163793
0.0163756
0.0163711
0.0163656
0.016359
0.0163513
0.0163424
0.016332
0.0163201
0.0163064
0.0162911
0.0162735
0.0162538
0.0162313
0.0162061
0.0161773
0.0161449
0.0161081
0.0160667
0.0160198
0.0159673
0.0159083
0.0158427
0.01577
0.0156898
0.0156021
0.0155066
0.0154028
0.01529
0.0151682
0.0150397
0.0149071
0.014771
0.0146308
0.0144856
0.0143343
0.0141755
0.0140068
0.0138248
0.0136251
0.0134021
0.0131498
0.0128614
0.0125302
0.0121479
0.0117026
0.0111816
0.0105644
0.00983626
0.0089457
0.00792245
0.00679628
0.00562206
0.00444575
0.00316274
0.00206075
0.00135593
0.0165436
0.016542
0.0165394
0.0165356
0.0165307
0.0165247
0.0165174
0.0165087
0.0164985
0.0164866
0.016473
0.0164575
0.0164398
0.0164199
0.0163975
0.0163725
0.0163444
0.0163131
0.0162779
0.0162386
0.0161945
0.0161452
0.01609
0.0160286
0.0159603
0.0158849
0.0158016
0.0157104
0.0156109
0.0155029
0.0153855
0.0152578
0.0151197
0.0149733
0.0148209
0.0146628
0.0144977
0.0143236
0.0141381
0.0139383
0.0137205
0.0134802
0.0132117
0.012909
0.0125662
0.0121785
0.0117438
0.0112612
0.0107297
0.0101491
0.0095107
0.00880552
0.00797682
0.00704173
0.00601583
0.0049372
0.00383808
0.00261232
0.00149692
0.000816015
0.0167058
0.0167041
0.016701
0.0166965
0.0166906
0.0166832
0.0166742
0.0166635
0.0166508
0.0166361
0.0166193
0.0166002
0.0165786
0.0165545
0.0165275
0.0164977
0.0164643
0.0164275
0.0163864
0.0163408
0.0162901
0.0162339
0.0161716
0.0161028
0.0160268
0.0159436
0.0158526
0.0157535
0.0156462
0.0155304
0.0154053
0.0152698
0.0151238
0.0149695
0.0148092
0.0146431
0.0144695
0.0142854
0.0140872
0.0138707
0.0136306
0.0133608
0.0130535
0.0127003
0.0122932
0.0118263
0.011298
0.0107115
0.0100732
0.00939415
0.00867997
0.00793291
0.00710073
0.00619781
0.00523711
0.00424471
0.00323894
0.00210641
0.00101109
0.000371827
0.016875
0.0168729
0.0168691
0.0168635
0.0168561
0.016847
0.0168359
0.0168228
0.0168075
0.0167898
0.0167697
0.016747
0.0167215
0.0166932
0.0166617
0.0166271
0.0165888
0.0165466
0.0165001
0.016449
0.0163926
0.0163306
0.0162625
0.016188
0.0161066
0.0160183
0.0159225
0.0158194
0.0157089
0.0155908
0.0154647
0.0153294
0.0151852
0.0150345
0.0148801
0.0147226
0.0145601
0.0143893
0.0142059
0.014005
0.0137805
0.0135245
0.0132273
0.0128775
0.0124635
0.0119754
0.0114086
0.0107649
0.0100531
0.0092905
0.00849301
0.00767447
0.0067905
0.00586004
0.00489884
0.00392771
0.00295067
0.00184263
0.000698473
-1.89711e-07
0.0170378
0.0170355
0.0170313
0.0170249
0.0170165
0.017006
0.0169932
0.016978
0.0169602
0.0169397
0.0169164
0.0168902
0.016861
0.0168286
0.0167928
0.0167535
0.0167105
0.0166633
0.0166117
0.0165553
0.0164936
0.0164262
0.0163528
0.0162732
0.0161869
0.0160941
0.0159946
0.0158885
0.015776
0.0156574
0.0155322
0.0154
0.0152611
0.0151185
0.0149758
0.014834
0.0146916
0.0145456
0.0143919
0.0142254
0.01404
0.0138274
0.0135764
0.0132731
0.012902
0.0124485
0.0119024
0.0112606
0.0105285
0.00972359
0.00886663
0.00797782
0.00701931
0.00601521
0.00498897
0.00396047
0.00292438
0.00174474
0.000462334
-0.000391691
0.017199
0.0171964
0.0171913
0.0171838
0.0171738
0.0171613
0.0171462
0.0171284
0.0171077
0.017084
0.0170572
0.0170271
0.0169936
0.0169567
0.0169161
0.0168718
0.0168234
0.0167707
0.0167132
0.0166508
0.0165829
0.0165092
0.0164294
0.0163434
0.0162508
0.0161518
0.0160463
0.0159347
0.0158173
0.0156946
0.0155666
0.0154329
0.0152945
0.0151549
0.015018
0.0148858
0.0147573
0.0146303
0.0145011
0.0143656
0.0142186
0.0140524
0.0138556
0.0136129
0.0133063
0.0129168
0.0124281
0.0118305
0.0111228
0.0103177
0.00943479
0.00849585
0.00746539
0.00637203
0.00524621
0.00411101
0.00295615
0.00164078
0.000174235
-0.000865481
0.0173452
0.0173422
0.0173364
0.0173277
0.0173161
0.0173016
0.0172842
0.0172637
0.0172399
0.0172128
0.0171822
0.017148
0.01711
0.0170684
0.0170227
0.016973
0.0169187
0.0168599
0.0167959
0.0167264
0.0166511
0.0165696
0.0164815
0.0163866
0.0162848
0.0161761
0.0160606
0.0159386
0.0158105
0.0156769
0.0155379
0.0153936
0.015245
0.015096
0.0149512
0.0148129
0.0146808
0.0145535
0.0144283
0.0143025
0.0141724
0.0140321
0.013871
0.0136745
0.0134236
0.0130965
0.0126725
0.0121352
0.011476
0.0107004
0.00982314
0.00886239
0.00778132
0.0066094
0.00538415
0.00413349
0.00284855
0.00139071
-0.000249321
-0.00144638
0.0174722
0.0174687
0.0174619
0.0174517
0.0174384
0.0174218
0.0174019
0.0173786
0.0173517
0.0173211
0.0172867
0.0172483
0.0172058
0.0171591
0.017108
0.0170523
0.0169917
0.0169258
0.0168543
0.0167767
0.0166926
0.0166015
0.016503
0.0163969
0.0162828
0.0161609
0.0160309
0.0158931
0.015748
0.015596
0.0154373
0.0152718
0.0151009
0.0149285
0.0147593
0.0145961
0.014439
0.0142873
0.0141394
0.0139941
0.0138499
0.0137029
0.0135451
0.0133635
0.0131401
0.0128526
0.0124778
0.0119946
0.0113878
0.0106558
0.00980591
0.00885107
0.00774955
0.00652972
0.00523334
0.00389422
0.00250741
0.00094128
-0.000822904
-0.00211811
0.0175642
0.0175602
0.0175528
0.0175418
0.0175273
0.0175092
0.0174876
0.0174622
0.0174328
0.0173994
0.0173617
0.0173196
0.0172729
0.0172216
0.0171653
0.0171039
0.017037
0.0169642
0.0168849
0.0167987
0.0167051
0.0166034
0.0164932
0.0163742
0.0162457
0.0161077
0.01596
0.0158025
0.0156354
0.015459
0.0152735
0.0150785
0.0148753
0.0146676
0.0144602
0.014256
0.0140551
0.0138575
0.0136625
0.0134703
0.0132815
0.013095
0.0129054
0.0127028
0.0124717
0.0121915
0.0118385
0.0113897
0.0108252
0.0101372
0.00932667
0.00839931
0.00730721
0.00607491
0.00474709
0.00336256
0.0019222
0.000302841
-0.00152415
-0.00285587
0.0176294
0.0176249
0.0176166
0.0176043
0.0175883
0.0175686
0.017545
0.0175174
0.0174857
0.0174494
0.0174086
0.017363
0.0173124
0.0172566
0.0171954
0.0171284
0.0170553
0.0169755
0.0168885
0.0167936
0.0166903
0.0165778
0.0164555
0.0163228
0.0161791
0.0160239
0.0158568
0.0156776
0.015486
0.0152822
0.0150658
0.0148364
0.014595
0.0143449
0.0140907
0.013835
0.0135782
0.0133201
0.013061
0.0128022
0.0125463
0.0122946
0.0120451
0.0117912
0.0115208
0.0112164
0.0108563
0.0104177
0.00987828
0.00922633
0.00845698
0.00757007
0.00651044
0.0052982
0.00397829
0.00259344
0.00114868
-0.000472249
-0.00230727
-0.00362565
0.0176653
0.0176601
0.0176508
0.0176374
0.0176199
0.0175984
0.017573
0.0175432
0.017509
0.0174701
0.0174263
0.0173774
0.0173231
0.0172634
0.0171977
0.0171258
0.0170471
0.0169611
0.0168671
0.0167643
0.016652
0.0165293
0.0163953
0.0162495
0.0160908
0.0159188
0.0157326
0.0155317
0.0153155
0.0150838
0.014836
0.0145712
0.01429
0.0139953
0.0136915
0.0133806
0.0130628
0.0127379
0.0124067
0.0120713
0.0117357
0.0114037
0.011076
0.0107498
0.0104168
0.0100636
0.00967182
0.00922044
0.00868736
0.00805874
0.00732603
0.00648367
0.00547006
0.00429964
0.00301661
0.00166566
0.000254727
-0.00132832
-0.00313346
-0.00440745
0.0176768
0.0176708
0.0176603
0.0176455
0.0176264
0.0176033
0.017576
0.0175442
0.0175079
0.0174666
0.0174202
0.0173684
0.017311
0.0172477
0.017178
0.0171017
0.0170179
0.0169263
0.0168259
0.0167159
0.0165954
0.0164635
0.016319
0.0161613
0.015989
0.0158015
0.0155977
0.0153768
0.0151378
0.0148802
0.0146029
0.0143046
0.0139857
0.0136486
0.0132968
0.0129324
0.0125549
0.0121641
0.0117607
0.0113474
0.0109294
0.0105121
0.010099
0.00969036
0.00928195
0.00886449
0.00842362
0.00794178
0.00739834
0.00677939
0.00607391
0.00527317
0.00430937
0.00319184
0.00196243
0.000666396
-0.000688246
-0.00221283
-0.00396744
-0.00518208
0.0176595
0.0176525
0.0176412
0.0176254
0.0176054
0.0175813
0.0175529
0.0175199
0.0174821
0.0174392
0.0173909
0.017337
0.0172771
0.017211
0.0171383
0.0170584
0.0169707
0.0168745
0.0167689
0.0166529
0.0165256
0.0163859
0.0162325
0.0160645
0.0158806
0.0156797
0.0154607
0.0152223
0.0149634
0.014683
0.0143798
0.0140521
0.0136998
0.0133247
0.0129303
0.0125177
0.0120862
0.0116351
0.0111651
0.0106791
0.0101828
0.00968309
0.00918543
0.00869278
0.00820447
0.00771534
0.00721536
0.00669083
0.00612381
0.00550146
0.00481219
0.00404486
0.003127
0.00206268
0.000891018
-0.000343694
-0.00163455
-0.00309456
-0.00479313
-0.00594674
0.0176286
0.0176207
0.0176082
0.0175913
0.0175701
0.0175447
0.0175151
0.0174808
0.0174417
0.0173973
0.0173474
0.0172917
0.0172297
0.0171613
0.0170859
0.0170031
0.0169119
0.0168119
0.0167019
0.016581
0.016448
0.0163018
0.0161411
0.0159646
0.015771
0.015559
0.0153272
0.0150742
0.0147987
0.0144994
0.0141744
0.013822
0.0134415
0.0130346
0.0126038
0.0121501
0.0116724
0.0111693
0.0106414
0.0100916
0.00952571
0.00895144
0.00837585
0.00780398
0.00723809
0.0066767
0.00611384
0.00553999
0.0049402
0.00430378
0.00361908
0.00287451
0.00199338
0.000975574
-0.000143119
-0.00131997
-0.00255091
-0.00395248
-0.00559869
-0.00669671
0.0175865
0.0175777
0.0175642
0.0175461
0.0175237
0.0174971
0.0174662
0.0174306
0.0173901
0.0173442
0.0172927
0.0172354
0.0171717
0.0171014
0.0170239
0.0169388
0.0168451
0.0167422
0.0166289
0.0165041
0.0163667
0.0162153
0.0160486
0.0158653
0.0156638
0.0154427
0.0152006
0.0149358
0.0146468
0.014332
0.0139894
0.0136169
0.0132135
0.0127804
0.01232
0.0118327
0.0113169
0.0107708
0.0101946
0.00959095
0.00896565
0.00832681
0.00768245
0.00703916
0.0064015
0.00577111
0.00514571
0.0045196
0.00388109
0.00322186
0.0025313
0.00179769
0.000941706
-4.08904e-05
-0.00111737
-0.00224722
-0.00342918
-0.00478398
-0.00638727
-0.0074395
0.0175394
0.0175296
0.0175149
0.0174956
0.017472
0.0174443
0.0174122
0.0173755
0.0173339
0.0172868
0.0172341
0.0171754
0.0171103
0.0170385
0.0169593
0.0168722
0.0167763
0.0166708
0.0165547
0.0164266
0.0162855
0.0161299
0.0159583
0.0157693
0.0155614
0.015333
0.0150825
0.0148081
0.0145081
0.0141808
0.013824
0.0134353
0.0130134
0.0125595
0.0120752
0.0115608
0.0110142
0.0104332
0.00981761
0.00916972
0.00849508
0.00780188
0.00709868
0.00639311
0.00569139
0.00499771
0.0043128
0.00363463
0.00295432
0.00226635
0.00156089
0.000827504
-1.56778e-05
-0.000975828
-0.00202325
-0.00311942
-0.00426627
-0.00558901
-0.00715976
-0.00817631
0.0174808
0.0174703
0.0174551
0.0174353
0.0174114
0.0173834
0.0173511
0.0173141
0.017272
0.0172245
0.0171712
0.0171118
0.0170459
0.016973
0.0168927
0.0168043
0.0167068
0.0165995
0.0164812
0.0163507
0.0162066
0.0160475
0.0158718
0.0156782
0.015465
0.0152305
0.0149729
0.0146906
0.0143816
0.014044
0.0136755
0.0132735
0.0128367
0.0123656
0.011862
0.0113256
0.0107541
0.0101449
0.00949725
0.0088131
0.00809764
0.0073589
0.00660565
0.00584614
0.00508775
0.0043367
0.00359618
0.00286728
0.00214367
0.0014225
0.000694989
-4.78769e-05
-0.000889382
-0.00183945
-0.00287103
-0.00394763
-0.00507356
-0.00637791
-0.0079265
-0.00891707
0.0174262
0.017415
0.017399
0.0173786
0.0173541
0.0173256
0.0172929
0.0172555
0.0172131
0.0171652
0.0171114
0.0170515
0.0169848
0.0169111
0.0168297
0.0167401
0.0166411
0.0165321
0.0164119
0.016279
0.0161322
0.01597
0.0157908
0.0155932
0.0153752
0.0151353
0.0148716
0.0145823
0.0142654
0.0139189
0.0135403
0.013127
0.0126773
0.012192
0.011672
0.0111172
0.0105249
0.00989213
0.00921778
0.00850336
0.00775368
0.00697644
0.00618044
0.00537412
0.00456581
0.00376306
0.00297126
0.00219387
0.00142706
0.000670134
-8.44721e-05
-0.000844327
-0.00169384
-0.00264476
-0.00367242
-0.00474169
-0.00585899
-0.00715684
-0.00869109
-0.00966339
0.0173745
0.0173629
0.0173465
0.0173256
0.0173006
0.0172717
0.0172385
0.0172007
0.0171577
0.0171092
0.0170548
0.0169943
0.0169269
0.0168525
0.0167703
0.0166797
0.0165797
0.0164694
0.0163475
0.0162127
0.0160636
0.0158986
0.0157161
0.0155146
0.0152922
0.0150472
0.0147778
0.0144819
0.0141577
0.0138028
0.013415
0.0129913
0.0125301
0.0120315
0.0114971
0.010926
0.0103154
0.00966193
0.00896429
0.00822353
0.00744401
0.00663311
0.00579939
0.00495147
0.0040981
0.00324811
0.00240832
0.00158455
0.000774614
-1.96567e-05
-0.00080536
-0.00158814
-0.00245296
-0.00341327
-0.00444646
-0.00551859
-0.00663726
-0.00793749
-0.00946361
-0.0104239
0.0173308
0.0173187
0.0173016
0.0172801
0.0172545
0.0172251
0.0171914
0.0171531
0.0171098
0.0170609
0.0170062
0.0169451
0.0168772
0.0168021
0.0167191
0.0166274
0.0165261
0.0164143
0.0162906
0.0161537
0.0160021
0.0158342
0.0156483
0.0154429
0.0152161
0.0149659
0.0146907
0.0143883
0.0140566
0.0136936
0.0132966
0.0128627
0.01239
0.011879
0.0113304
0.0107438
0.0101158
0.00944311
0.00872387
0.00795886
0.00715204
0.00631043
0.00544236
0.00455634
0.00366163
0.0027677
0.001883
0.00101462
0.000162703
-0.000669781
-0.00148827
-0.00229799
-0.0031838
-0.00416018
-0.00520633
-0.00628873
-0.0074157
-0.00872435
-0.0102458
-0.0111986
0.0172838
0.0172716
0.0172546
0.0172334
0.0172083
0.0171794
0.0171462
0.0171084
0.0170654
0.0170167
0.016962
0.0169009
0.0168328
0.0167573
0.0166737
0.0165814
0.0164791
0.016366
0.0162407
0.0161018
0.0159478
0.015777
0.0155877
0.0153782
0.0151466
0.0148911
0.0146097
0.0143004
0.013961
0.0135893
0.0131827
0.0127381
0.0122539
0.0117297
0.0111669
0.0105645
0.00991915
0.00922723
0.00848677
0.0076981
0.00686491
0.00599377
0.00509285
0.00417046
0.00323632
0.00230033
0.00137234
0.000460491
-0.000433018
-0.00130413
-0.00215697
-0.00299685
-0.00390705
-0.00490365
-0.00596744
-0.00706518
-0.00820521
-0.00952604
-0.0110451
-0.0119937
0.0172499
0.0172375
0.0172203
0.017199
0.0171739
0.017145
0.0171121
0.0170744
0.0170316
0.0169832
0.0169286
0.0168673
0.016799
0.016723
0.0166387
0.0165454
0.0164418
0.0163272
0.0161999
0.0160587
0.0159018
0.0157278
0.0155346
0.0153206
0.0150839
0.0148226
0.0145345
0.0142177
0.0138699
0.0134889
0.0130719
0.0126159
0.0121188
0.0115811
0.0110029
0.0103838
0.00972022
0.00900833
0.00824591
0.00743312
0.00657324
0.00567266
0.00473914
0.00378111
0.00280839
0.0018315
0.000861352
-9.30856e-05
-0.00102733
-0.00193718
-0.00282414
-0.0036958
-0.004633
-0.00565295
-0.00673781
-0.00785397
-0.00900935
-0.0103438
-0.0118608
-0.0128078
0.0172256
0.0172133
0.0171963
0.0171751
0.0171501
0.0171213
0.0170884
0.0170507
0.0170078
0.0169591
0.0169042
0.0168426
0.0167737
0.0166973
0.0166122
0.016518
0.0164132
0.0162971
0.0161679
0.0160243
0.0158645
0.0156869
0.0154895
0.0152706
0.0150282
0.0147604
0.014465
0.0141398
0.0137828
0.0133915
0.0129632
0.0124946
0.011984
0.0114309
0.0108363
0.0101992
0.00951604
0.00878282
0.00799717
0.00715897
0.00627126
0.00534022
0.00437333
0.00337912
0.0023675
0.0013497
0.000337313
-0.000659471
-0.00163467
-0.00258299
-0.00350472
-0.00440944
-0.00537489
-0.00641943
-0.00752664
-0.00866257
-0.00983447
-0.011183
-0.0126981
-0.0136452
0.0172174
0.0172049
0.0171876
0.0171661
0.0171408
0.0171118
0.0170786
0.0170408
0.0169977
0.0169488
0.0168936
0.0168316
0.0167622
0.0166849
0.0165989
0.0165032
0.0163968
0.0162785
0.0161468
0.0160001
0.0158368
0.015655
0.0154528
0.0152283
0.0149796
0.0147045
0.014401
0.0140667
0.0136996
0.013297
0.0128562
0.0123741
0.0118482
0.0112789
0.0106662
0.0100096
0.00930514
0.00854885
0.00773824
0.00687285
0.00595568
0.00499259
0.00399108
0.00295957
0.00190842
0.000849129
-0.000205486
-0.0012449
-0.00226049
-0.00324754
-0.0042029
-0.00514101
-0.0061357
-0.00720601
-0.00833667
-0.00949286
-0.0106808
-0.0120423
-0.0135546
-0.0145036
0.0172102
0.0171981
0.0171814
0.0171607
0.0171363
0.0171082
0.0170758
0.0170387
0.016996
0.0169474
0.0168922
0.0168301
0.0167602
0.0166822
0.0165951
0.0164982
0.01639
0.0162697
0.0161354
0.0159855
0.0158183
0.015632
0.0154244
0.0151939
0.0149382
0.0146551
0.0143426
0.0139984
0.0136202
0.0132053
0.012751
0.0122539
0.0117119
0.0111245
0.0104925
0.00981465
0.00908723
0.00830609
0.00746854
0.006574
0.00562529
0.00462824
0.0035902
0.00251978
0.00142757
0.000325681
-0.000772328
-0.00185484
-0.00291162
-0.00393704
-0.00492648
-0.0058987
-0.0069228
-0.00801869
-0.00917221
-0.010348
-0.0115514
-0.0129249
-0.0144337
-0.0153857
0.0172233
0.0172113
0.0171947
0.0171742
0.01715
0.017122
0.0170899
0.017053
0.0170105
0.0169619
0.0169066
0.0168439
0.0167733
0.0166942
0.0166056
0.0165068
0.0163963
0.0162731
0.0161355
0.0159817
0.01581
0.0156184
0.0154049
0.0151675
0.0149041
0.0146123
0.0142901
0.013935
0.0135447
0.0131165
0.0126476
0.0121345
0.0115748
0.0109684
0.0103154
0.00961487
0.00886276
0.00805486
0.00718834
0.00626254
0.00528017
0.00424709
0.00317058
0.0020595
0.00092473
-0.000221025
-0.00136327
-0.00248973
-0.00358773
-0.00465201
-0.00567455
-0.00668077
-0.00773461
-0.00885643
-0.0100329
-0.0112277
-0.012445
-0.0138283
-0.0153325
-0.0162892
0.0172506
0.0172391
0.0172229
0.0172028
0.0171788
0.0171511
0.017119
0.0170819
0.017039
0.0169899
0.0169336
0.0168701
0.0167982
0.0167177
0.0166274
0.0165266
0.0164136
0.0162874
0.0161462
0.0159883
0.0158117
0.0156144
0.0153943
0.0151494
0.0148775
0.0145762
0.0142434
0.0138766
0.0134733
0.0130309
0.0125463
0.012016
0.0114379
0.0108108
0.0101357
0.00941096
0.00863256
0.00779608
0.00689867
0.00593948
0.00492131
0.00384997
0.00273291
0.00157905
0.000399887
-0.000791522
-0.00197947
-0.00315103
-0.00429125
-0.00539453
-0.00645075
-0.00749172
-0.00857535
-0.00972237
-0.0109205
-0.0121327
-0.0133628
-0.0147546
-0.0162535
-0.0172158
0.0172994
0.017288
0.0172717
0.0172513
0.0172269
0.0171987
0.0171661
0.0171284
0.0170849
0.0170349
0.0169777
0.0169128
0.0168395
0.016757
0.0166645
0.0165609
0.0164446
0.0163146
0.0161691
0.0160061
0.0158237
0.0156199
0.0153925
0.0151393
0.0148582
0.0145467
0.0142024
0.0138231
0.013406
0.0129484
0.0124472
0.0118989
0.0113008
0.0106526
0.0099539
0.00920374
0.00839752
0.00753075
0.00660051
0.00560594
0.0045499
0.00343828
0.00227863
0.00108016
-0.000145181
-0.00138371
-0.00261869
-0.00383643
-0.00501953
-0.0061626
-0.00725218
-0.00832761
-0.00944116
-0.0106136
-0.0118332
-0.0130621
-0.0143031
-0.0157011
-0.0171938
-0.0181635
0.017349
0.0173383
0.0173229
0.0173035
0.0172801
0.0172528
0.0172208
0.0171836
0.0171401
0.0170898
0.0170319
0.016966
0.0168911
0.0168067
0.0167118
0.0166054
0.0164858
0.0163518
0.0162017
0.0160333
0.0158448
0.015634
0.0153986
0.0151366
0.0148456
0.0145231
0.0141669
0.0137741
0.0133425
0.0128689
0.0123504
0.0117831
0.0111646
0.0104937
0.00977074
0.00899391
0.00815846
0.0072598
0.006295
0.00526322
0.00416734
0.00301343
0.00180912
0.000564011
-0.000709499
-0.00199697
-0.00328075
-0.00454598
-0.00577342
-0.00695666
-0.00808083
-0.00919147
-0.0103351
-0.0115322
-0.0127716
-0.0140154
-0.0152661
-0.0166692
-0.0181549
-0.0191327
0.017421
0.0174108
0.0173958
0.0173766
0.0173534
0.0173262
0.0172943
0.0172569
0.0172131
0.0171621
0.0171032
0.0170356
0.0169587
0.0168717
0.0167736
0.0166633
0.0165393
0.0164004
0.0162447
0.01607
0.0158746
0.0156561
0.0154121
0.0151406
0.0148391
0.014505
0.014136
0.0137294
0.0132824
0.0127923
0.0122557
0.0116688
0.0110289
0.0103349
0.00958647
0.00878183
0.00791586
0.00698387
0.00598297
0.00491229
0.00377484
0.00257682
0.00132603
3.24978e-05
-0.00129089
-0.00262887
-0.00396289
-0.00527688
-0.00654972
-0.00777428
-0.0089335
-0.010079
-0.0112529
-0.0124748
-0.0137341
-0.0149921
-0.0162507
-0.0176565
-0.0191346
-0.0201221
0.0175121
0.0175027
0.0174882
0.0174692
0.017446
0.0174184
0.0173858
0.0173472
0.0173018
0.0172487
0.0171873
0.017117
0.0170367
0.0169462
0.0168441
0.0167297
0.0166009
0.0164567
0.0162951
0.016114
0.0159112
0.0156845
0.0154315
0.01515
0.0148375
0.0144913
0.014109
0.0136879
0.0132252
0.0127179
0.0121627
0.0115555
0.0108938
0.0101756
0.00940097
0.00856752
0.00766993
0.00670344
0.00566512
0.0045541
0.00337344
0.00212952
0.000830417
-0.000513475
-0.00188862
-0.00327898
-0.00466498
-0.00602928
-0.00734912
-0.00861584
-0.0098117
-0.0109931
-0.0121974
-0.0134434
-0.0147208
-0.0159913
-0.0172566
-0.0186642
-0.020134
-0.0211316
0.0176279
0.0176184
0.0176029
0.0175825
0.0175573
0.0175275
0.0174923
0.017451
0.0174026
0.0173465
0.0172818
0.0172079
0.0171238
0.0170292
0.0169227
0.0168034
0.0166694
0.0165195
0.0163515
0.0161633
0.0159527
0.0157175
0.015455
0.0151631
0.0148392
0.0144805
0.0140846
0.0136486
0.0131698
0.0126449
0.0120706
0.0114427
0.0107582
0.0100156
0.00921379
0.00835074
0.00742065
0.00641866
0.0053418
0.00418912
0.00296381
0.00167245
0.000323389
-0.0010725
-0.00250102
-0.0039453
-0.00538474
-0.00680076
-0.00816887
-0.00947926
-0.0107126
-0.0119298
-0.0131645
-0.0144348
-0.0157307
-0.0170132
-0.0182835
-0.0196904
-0.0211511
-0.0221602
0.0177062
0.0176984
0.017685
0.0176666
0.0176435
0.0176152
0.0175812
0.0175405
0.0174922
0.0174356
0.0173697
0.0172941
0.0172078
0.0171103
0.0170005
0.0168772
0.0167386
0.0165833
0.0164092
0.0162141
0.0159958
0.015752
0.01548
0.0151775
0.0148421
0.0144708
0.0140611
0.01361
0.0131147
0.0125719
0.0119782
0.0113291
0.0106217
0.0098537
0.00902444
0.00813119
0.00716792
0.00612963
0.00501327
0.00381779
0.00254645
0.00120608
-0.000194634
-0.00164431
-0.00312801
-0.00462804
-0.00612265
-0.00759203
-0.00901007
-0.0103653
-0.0116379
-0.012892
-0.0141575
-0.0154512
-0.0167637
-0.0180564
-0.0193305
-0.0207358
-0.0221865
-0.0232071
0.0178221
0.0178141
0.0177997
0.0177795
0.017754
0.0177233
0.0176866
0.0176432
0.0175922
0.0175328
0.0174639
0.0173851
0.0172953
0.017194
0.0170799
0.0169519
0.0168079
0.0166467
0.0164662
0.0162639
0.0160378
0.0157852
0.0155037
0.0151908
0.0148438
0.01446
0.0140365
0.0135703
0.0130585
0.0124977
0.0118843
0.0112139
0.010483
0.00968977
0.00883248
0.00790854
0.00691152
0.00583621
0.00467946
0.0034401
0.00212148
0.000730699
-0.000723156
-0.00222814
-0.00376856
-0.00532582
-0.00687706
-0.00840123
-0.00987059
-0.0112723
-0.0125851
-0.0138761
-0.0151723
-0.0164899
-0.0178195
-0.019122
-0.0203981
-0.0217993
-0.0232389
-0.0242717
0.0178914
0.0178854
0.017873
0.0178548
0.0178311
0.0178018
0.0177662
0.0177234
0.0176724
0.0176125
0.0175426
0.0174623
0.0173705
0.0172666
0.0171493
0.0170176
0.0168692
0.016703
0.0165166
0.0163078
0.0160743
0.0158135
0.0155228
0.0151999
0.0148418
0.0144457
0.0140087
0.0135277
0.0129996
0.0124209
0.011788
0.0110961
0.010342
0.00952291
0.00863745
0.00768243
0.00665116
0.00553822
0.00434028
0.00305602
0.00168887
0.000246248
-0.00126233
-0.00282433
-0.0044232
-0.00603945
-0.00764903
-0.00922963
-0.0107519
-0.0122014
-0.0135561
-0.0148853
-0.0162126
-0.0175532
-0.018898
-0.0202085
-0.0214852
-0.0228812
-0.0243086
-0.0253531
0.0179645
0.0179588
0.0179465
0.0179281
0.0179039
0.017874
0.0178375
0.0177937
0.0177415
0.0176802
0.0176086
0.0175264
0.0174322
0.0173258
0.0172055
0.0170703
0.016918
0.0167473
0.0165559
0.0163412
0.0161012
0.0158331
0.0155341
0.0152018
0.0148334
0.0144257
0.0139758
0.0134805
0.0129366
0.0123405
0.0116883
0.0109753
0.0101976
0.00935289
0.00843888
0.00745244
0.00638646
0.00523526
0.00399531
0.00266515
0.00124831
-0.000247431
-0.00181212
-0.00343255
-0.00509136
-0.00676803
-0.00843736
-0.0100758
-0.0116524
-0.0131513
-0.014549
-0.0159163
-0.0172748
-0.0186389
-0.0199996
-0.0213175
-0.0225928
-0.0239809
-0.0253946
-0.0264512
0.0179829
0.0179789
0.0179684
0.0179521
0.01793
0.0179019
0.0178672
0.0178249
0.017774
0.0177137
0.0176428
0.0175609
0.0174667
0.0173598
0.0172385
0.0171019
0.0169474
0.0167739
0.0165789
0.0163599
0.0161146
0.0158404
0.0155342
0.0151938
0.014816
0.0143977
0.013936
0.0134272
0.0128683
0.0122552
0.0115842
0.0108502
0.0100495
0.00917879
0.00823627
0.00721816
0.00611702
0.00492695
0.00364423
0.0022672
0.000799501
-0.000750725
-0.00237302
-0.00405353
-0.00577394
-0.00751274
-0.00924346
-0.0109413
-0.0125738
-0.0141234
-0.0155654
-0.0169723
-0.0183624
-0.0197491
-0.0211237
-0.022447
-0.0237193
-0.0250981
-0.0264966
-0.0275644
0.0179875
0.0179841
0.0179744
0.0179587
0.0179373
0.01791
0.0178761
0.0178346
0.0177844
0.0177248
0.0176545
0.0175729
0.0174788
0.0173717
0.0172499
0.0171124
0.0169565
0.0167811
0.0165836
0.0163614
0.0161121
0.0158329
0.0155209
0.0151735
0.0147877
0.01436
0.0138874
0.0133662
0.012793
0.0121638
0.0114746
0.0107202
0.00989652
0.00900043
0.00802915
0.0069791
0.00584235
0.00461276
0.00328645
0.0018616
0.000341948
-0.00126397
-0.00294519
-0.00468713
-0.00647055
-0.00827288
-0.0100663
-0.0118249
-0.0135145
-0.0151163
-0.0166038
-0.0180501
-0.0194719
-0.0208821
-0.0222711
-0.0235992
-0.0248662
-0.0262328
-0.0276146
-0.0286933
0.0179647
0.0179618
0.0179528
0.017938
0.0179175
0.017891
0.0178579
0.0178172
0.0177678
0.0177089
0.0176393
0.0175584
0.0174649
0.0173583
0.0172369
0.0170993
0.0169431
0.0167669
0.016568
0.0163437
0.0160917
0.0158088
0.0154923
0.0151393
0.0147466
0.0143108
0.0138285
0.013296
0.0127097
0.0120653
0.0113588
0.0105845
0.00973858
0.00881686
0.00781702
0.00673478
0.005562
0.00429232
0.00292166
0.00144804
-0.000124694
-0.00178761
-0.0035292
-0.00533417
-0.00718224
-0.00904972
-0.0109075
-0.0127281
-0.0144763
-0.0161315
-0.0176658
-0.0191529
-0.020607
-0.0220395
-0.023441
-0.0247714
-0.0260313
-0.0273841
-0.0287474
-0.0298361
0.0179197
0.017917
0.0179087
0.0178947
0.0178751
0.0178496
0.0178175
0.0177778
0.0177294
0.0176713
0.0176024
0.0175222
0.0174291
0.0173229
0.0172016
0.0170641
0.0169078
0.0167312
0.0165315
0.016306
0.0160522
0.0157668
0.0154469
0.0150896
0.0146913
0.0142487
0.013758
0.0132154
0.0126171
0.0119587
0.0112357
0.0104425
0.00957453
0.00862794
0.00759941
0.00648483
0.00527564
0.00396526
0.00254946
0.00102613
-0.000600754
-0.00232186
-0.00412511
-0.00599446
-0.00790855
-0.00984259
-0.0117659
-0.01365
-0.0154577
-0.0171676
-0.0187495
-0.0202775
-0.021764
-0.0232198
-0.0246343
-0.0259663
-0.0272165
-0.0285525
-0.0298956
-0.0309938
0.0178548
0.017852
0.0178434
0.0178289
0.0178088
0.0177828
0.0177503
0.0177105
0.0176621
0.0176044
0.0175361
0.0174566
0.0173645
0.0172594
0.0171392
0.0170028
0.0168474
0.0166715
0.0164721
0.0162465
0.015992
0.0157054
0.0153833
0.015023
0.0146206
0.0141724
0.0136748
0.0131235
0.0125145
0.0118431
0.0111048
0.0102934
0.0094044
0.00843298
0.00737614
0.00622916
0.00498322
0.00363156
0.00216986
0.00059586
-0.00108634
-0.00286697
-0.00473336
-0.00666869
-0.00865046
-0.0106527
-0.012643
-0.0145918
-0.0164602
-0.0182259
-0.0198566
-0.0214267
-0.022946
-0.024424
-0.0258493
-0.0271803
-0.0284189
-0.0297364
-0.0310576
-0.0321641
0.0177631
0.0177602
0.0177511
0.017736
0.0177152
0.0176885
0.0176555
0.0176154
0.0175671
0.0175097
0.0174419
0.0173633
0.0172722
0.0171683
0.0170495
0.0169146
0.0167606
0.0165862
0.0163881
0.0161635
0.0159096
0.015623
0.0153002
0.0149383
0.0145332
0.0140811
0.013578
0.0130194
0.0124011
0.0117182
0.0109656
0.0101372
0.00922768
0.00823243
0.00714737
0.00596794
0.0046849
0.00329136
0.00178292
0.000157267
-0.0015814
-0.0034228
-0.00535373
-0.00735644
-0.00940739
-0.0114791
-0.0135379
-0.0155524
-0.0174825
-0.0193045
-0.0209849
-0.022597
-0.0241495
-0.0256508
-0.0270874
-0.0284166
-0.0296409
-0.0309368
-0.0322342
-0.0333484
0.0176217
0.0176189
0.01761
0.0175953
0.0175749
0.0175489
0.0175168
0.0174777
0.0174307
0.017375
0.0173091
0.0172326
0.017144
0.0170428
0.016927
0.0167951
0.0166442
0.0164728
0.0162774