/*--------------------------------*- C++ -*----------------------------------*\
  =========                 |
  \\      /  F ield         | OpenFOAM: The Open Source CFD Toolbox
   \\    /   O peration     | Website:  https://openfoam.org
    \\  /    A nd           | Version:  6.0
     \\/     M anipulation  |
\*---------------------------------------------------------------------------*/
FoamFile
{
    version     2.0;
    format      ascii;
    class       volScalarField;
    location    "11";
    object      p;
}
// * * * * * * * * * * * * * * * * * * * * * * * * * * * * * * * * * * * * * //

dimensions      [0 2 -2 0 0 0 0];

internalField   nonuniform List<scalar> 
62000
(
0.0119618
0.0118752
0.0117806
0.011679
0.0115697
0.0114549
0.0113333
0.0112075
0.0110762
0.010941
0.0107996
0.0106522
0.0104966
0.0103325
0.010158
0.00997254
0.00977441
0.00956262
0.00933551
0.0090921
0.0088306
0.00855041
0.00824958
0.00792816
0.00758412
0.00721825
0.00682854
0.00641632
0.00597995
0.00552092
0.00503734
0.00453062
0.00399832
0.00344476
0.00286728
0.00226302
0.00162781
0.000959429
0.000256592
-0.000481433
-0.00125468
-0.00206133
-0.00289724
-0.00375635
-0.00462995
-0.00551132
-0.0063931
-0.00727109
-0.00814677
-0.00900347
-0.00984248
-0.0105978
-0.0112715
-0.0117184
-0.0118601
-0.0115609
-0.0107849
-0.00906858
-0.0078581
-0.0129649
0.0120799
0.0120304
0.0119705
0.011898
0.0118104
0.0117075
0.0115862
0.0114499
0.0113002
0.0111426
0.0109776
0.0108074
0.0106303
0.0104464
0.0102534
0.0100507
0.00983626
0.00960926
0.00936774
0.00911076
0.00883625
0.00854364
0.00823073
0.00789743
0.00754171
0.00716384
0.00676215
0.00633695
0.00588721
0.00541298
0.00491335
0.00438792
0.00383699
0.00326112
0.00265927
0.00202651
0.00135851
0.000652353
-9.41453e-05
-0.000882996
-0.00171553
-0.0025908
-0.00350529
-0.00445287
-0.00542435
-0.00641205
-0.0074073
-0.00840584
-0.00941019
-0.0104054
-0.0113987
-0.0123176
-0.013177
-0.0137934
-0.0140534
-0.0137454
-0.0127841
-0.0106093
-0.00877516
-0.00995523
0.0123122
0.0122892
0.012252
0.0122002
0.0121335
0.0120496
0.0119405
0.0118058
0.0116458
0.0114679
0.0112761
0.0110761
0.0108682
0.0106534
0.0104296
0.0101963
0.0099511
0.00969335
0.00942088
0.00913308
0.00882763
0.00850431
0.00816069
0.00779686
0.00741064
0.00700231
0.00657011
0.00611414
0.00563339
0.00512735
0.00459548
0.00403733
0.00345349
0.00284558
0.00221074
0.00154426
0.000841981
0.000101733
-0.000678169
-0.00149936
-0.00236247
-0.00326502
-0.00420076
-0.00515946
-0.00612596
-0.00708461
-0.00801703
-0.00890871
-0.00975316
-0.0105309
-0.0112522
-0.0118558
-0.0123835
-0.0126847
-0.012703
-0.012285
-0.0114418
-0.00976386
-0.0087879
-0.0113692
0.0127022
0.0126816
0.0126412
0.0125849
0.0125179
0.0124397
0.0123399
0.0122122
0.0120521
0.0118658
0.0116585
0.011439
0.0112099
0.010974
0.0107293
0.0104752
0.0102088
0.00992906
0.00963368
0.009322
0.00899182
0.00864311
0.00827358
0.00788356
0.00747094
0.00703618
0.00657745
0.006095
0.00558757
0.0050547
0.00449561
0.00391011
0.00329949
0.00266418
0.00200138
0.00130464
0.000569387
-0.000207016
-0.00102702
-0.00189365
-0.00280915
-0.00377234
-0.00477774
-0.00581478
-0.00686648
-0.0079129
-0.00892861
-0.00989029
-0.0107803
-0.0115714
-0.012269
-0.0128153
-0.0132724
-0.0135135
-0.01352
-0.0131851
-0.0125735
-0.0112525
-0.0107028
-0.0130893
0.013055
0.0130362
0.0129913
0.0129252
0.0128484
0.0127653
0.0126662
0.0125409
0.0123799
0.0121858
0.0119642
0.0117255
0.0114754
0.0112188
0.0109552
0.0106837
0.010401
0.0101056
0.00979441
0.00946648
0.00911923
0.00875278
0.00836471
0.00795561
0.00752343
0.00706879
0.00658997
0.00608728
0.00555956
0.00500619
0.00442651
0.00382035
0.00318899
0.0025334
0.00184897
0.00112831
0.000365357
-0.000443885
-0.00130374
-0.00222001
-0.00319853
-0.0042423
-0.00535024
-0.00651614
-0.00772648
-0.00896279
-0.0101981
-0.0114037
-0.0125522
-0.0136041
-0.0145501
-0.0153185
-0.015959
-0.0163322
-0.0164154
-0.0160854
-0.0153805
-0.0137544
-0.0125704
-0.0137795
0.0133275
0.0133217
0.0132844
0.0132177
0.0131356
0.0130475
0.0129461
0.0128196
0.0126542
0.0124489
0.0122075
0.0119417
0.0116598
0.0113694
0.0110722
0.0107689
0.0104562
0.0101325
0.00979413
0.00943981
0.0090664
0.00867384
0.00825938
0.00782359
0.0073643
0.0068822
0.00637552
0.00584478
0.00528874
0.0047071
0.00409909
0.00346491
0.00280642
0.00212414
0.00141409
0.000667525
-0.000122296
-0.000960372
-0.00185229
-0.002806
-0.00383056
-0.00493305
-0.00611727
-0.00738254
-0.00872087
-0.0101181
-0.0115491
-0.0129835
-0.0143856
-0.0157048
-0.0169117
-0.0179139
-0.0187354
-0.0192052
-0.0192635
-0.0187543
-0.0176849
-0.0154682
-0.0134796
-0.0136575
0.0135707
0.0135869
0.0135671
0.0135108
0.0134329
0.0133467
0.0132478
0.0131242
0.0129592
0.0127477
0.0124909
0.0121998
0.011884
0.0115537
0.011213
0.0108645
0.0105064
0.0101374
0.0097543
0.00935566
0.00893814
0.00850163
0.00804311
0.00756304
0.00705917
0.00653203
0.00597985
0.00540313
0.00480085
0.00417273
0.00351841
0.0028384
0.00213495
0.00141019
0.000659683
-0.0001244
-0.00094869
-0.00181805
-0.00273782
-0.00371628
-0.00476386
-0.00588977
-0.00710094
-0.00840101
-0.00978695
-0.0112494
-0.0127666
-0.0143091
-0.0158371
-0.0172917
-0.0186284
-0.0197356
-0.0206107
-0.0210515
-0.0209744
-0.020207
-0.0187651
-0.0161062
-0.0136541
-0.013156
0.0138457
0.0138821
0.0138813
0.0138403
0.0137732
0.0136954
0.0136053
0.0134917
0.0133357
0.0131291
0.0128696
0.0125664
0.0122287
0.0118679
0.0114895
0.0110981
0.0106931
0.0102747
0.00983992
0.00938806
0.00891587
0.00842361
0.00790821
0.0073703
0.00680761
0.00622068
0.0056077
0.0049693
0.00430443
0.00361324
0.00289543
0.00215215
0.00138658
0.000601134
-0.000206366
-0.00104328
-0.00191471
-0.00282433
-0.00377583
-0.0047761
-0.00583494
-0.00696144
-0.00816327
-0.00944609
-0.0108101
-0.0122496
-0.0137466
-0.0152745
-0.0167927
-0.0182403
-0.0195632
-0.0206415
-0.0214569
-0.0217913
-0.0215454
-0.0205596
-0.0188874
-0.0160521
-0.0134477
-0.012537
0.0141612
0.0142116
0.0142255
0.0141989
0.0141439
0.0140766
0.0139978
0.0138978
0.013757
0.0135647
0.0133157
0.0130168
0.0126756
0.012303
0.0119053
0.0114876
0.0110503
0.0105943
0.0101174
0.00961939
0.00909736
0.00855205
0.00798066
0.00738416
0.00676055
0.00611049
0.00543237
0.00472689
0.00399325
0.00323173
0.00244242
0.00162695
0.00078874
-6.75736e-05
-0.000944064
-0.00184573
-0.00277597
-0.00373661
-0.00472887
-0.0057571
-0.00682908
-0.00795213
-0.00913271
-0.0103766
-0.0116854
-0.013056
-0.0144736
-0.0159154
-0.0173431
-0.0186975
-0.0199231
-0.0208991
-0.0216
-0.0218033
-0.021414
-0.0202979
-0.0185506
-0.0157386
-0.0131366
-0.0119542
0.0145128
0.0145677
0.0145894
0.0145734
0.0145286
0.0144708
0.0144027
0.0143161
0.0141915
0.014017
0.0137853
0.0135012
0.0131705
0.0128032
0.0124047
0.0119806
0.011531
0.0110573
0.0105572
0.0100309
0.00947553
0.00889214
0.00827807
0.00763474
0.00696041
0.00625605
0.00552025
0.00475403
0.00395668
0.00312888
0.00227084
0.0013846
0.000474478
-0.000455022
-0.0014033
-0.00237458
-0.00336997
-0.00438934
-0.00543119
-0.00649696
-0.00759178
-0.00872026
-0.00988645
-0.0110948
-0.0123466
-0.0136401
-0.0149627
-0.0162955
-0.0176034
-0.018833
-0.01993
-0.0207811
-0.0213614
-0.0214545
-0.0209695
-0.0198033
-0.0180821
-0.01538
-0.0128157
-0.0114258
0.0148827
0.014935
0.0149585
0.0149484
0.0149104
0.0148598
0.0148001
0.0147248
0.0146146
0.0144573
0.0142445
0.0139795
0.0136668
0.0133151
0.0129292
0.0125139
0.012069
0.0115958
0.0110918
0.0105567
0.00998762
0.00938556
0.00874777
0.00807584
0.00736817
0.00662592
0.00584792
0.00503533
0.00418773
0.00330588
0.00239031
0.00144332
0.000469055
-0.000526002
-0.00154173
-0.00258005
-0.00364056
-0.00472127
-0.00581819
-0.00692989
-0.00805876
-0.00920649
-0.0103742
-0.0115643
-0.0127769
-0.0140103
-0.0152536
-0.0164909
-0.0176909
-0.0188063
-0.0197873
-0.0205299
-0.0210122
-0.0210254
-0.0204898
-0.0193269
-0.0176786
-0.0151014
-0.0125563
-0.0109788
0.0152755
0.0153194
0.0153394
0.0153309
0.0152964
0.0152499
0.0151958
0.0151283
0.0150287
0.0148849
0.0146877
0.0144401
0.0141455
0.0138119
0.0134433
0.0130443
0.0126138
0.0121529
0.0116584
0.0111298
0.0105634
0.0099601
0.0093166
0.00863442
0.0079118
0.00714991
0.00634757
0.00550607
0.00462499
0.00370528
0.00274748
0.00175397
0.000729506
-0.000320305
-0.00139305
-0.00249058
-0.00361086
-0.00475046
-0.00590333
-0.00706565
-0.00823734
-0.00941728
-0.0106037
-0.0117965
-0.0129941
-0.014194
-0.0153856
-0.0165557
-0.0176754
-0.018704
-0.0195958
-0.0202579
-0.0206722
-0.0206407
-0.0200867
-0.0189523
-0.0173822
-0.0149013
-0.0123355
-0.010574
0.0156944
0.0157283
0.0157422
0.0157317
0.0156969
0.015651
0.0155985
0.0155345
0.0154408
0.0153055
0.0151192
0.0148847
0.0146048
0.0142873
0.0139356
0.0135539
0.0131409
0.0126971
0.0122188
0.011705
0.0111515
0.0105586
0.00992243
0.00924419
0.00852165
0.00775575
0.00694511
0.00609083
0.00519248
0.00425081
0.00326642
0.00224164
0.00118062
9.05312e-05
-0.0010275
-0.00217368
-0.00334536
-0.00453809
-0.00574428
-0.00695819
-0.00817768
-0.00939929
-0.0106186
-0.0118331
-0.0130393
-0.0142333
-0.0154045
-0.0165409
-0.0176158
-0.0185933
-0.0194315
-0.0200472
-0.0204247
-0.0203731
-0.0198204
-0.0187219
-0.0172175
-0.0147964
-0.0121741
-0.0102244
0.0161332
0.0161556
0.0161619
0.016148
0.0161114
0.0160644
0.0160117
0.0159487
0.0158575
0.0157264
0.0155464
0.0153201
0.0150503
0.0147448
0.0144067
0.0140401
0.0136432
0.0132166
0.0127559
0.0122599
0.0117237
0.0111471
0.0105256
0.00985993
0.00914728
0.00838822
0.00758095
0.00672626
0.00582339
0.00487292
0.00387514
0.00283211
0.00174832
0.000629423
-0.000521614
-0.00170569
-0.00291948
-0.0041579
-0.00541236
-0.00667581
-0.00794453
-0.00921312
-0.010475
-0.0117253
-0.0129584
-0.0141691
-0.0153455
-0.0164765
-0.0175358
-0.0184919
-0.0193046
-0.0199001
-0.0202632
-0.0202106
-0.0196681
-0.018601
-0.0171399
-0.0147389
-0.0120295
-0.00988892
0.0165826
0.0165939
0.0165923
0.0165741
0.016535
0.0164863
0.0164326
0.0163697
0.0162797
0.0161512
0.015975
0.0157542
0.0154913
0.0151943
0.0148662
0.0145112
0.0141274
0.0137153
0.0132702
0.0127908
0.0122717
0.0117124
0.0111078
0.0104581
0.00976004
0.00901363
0.00821659
0.0073692
0.00647037
0.00552014
0.0045186
0.00346739
0.00237006
0.00123354
5.88949e-05
-0.00115365
-0.00240101
-0.00367785
-0.00497499
-0.00628448
-0.00760145
-0.00891904
-0.0102288
-0.0115241
-0.0127974
-0.0140415
-0.0152436
-0.0163924
-0.0174615
-0.0184218
-0.0192344
-0.0198322
-0.020199
-0.0201554
-0.0196264
-0.0185829
-0.0171456
-0.0147365
-0.0119225
-0.00958936
0.0170466
0.0170465
0.0170369
0.0170142
0.0169724
0.0169221
0.0168675
0.0168045
0.016715
0.0165877
0.0164135
0.0161956
0.0159366
0.0156449
0.0153233
0.0149764
0.0146021
0.014201
0.0137683
0.0133027
0.0127983
0.0122545
0.0116657
0.0110319
0.0103491
0.00961701
0.00883279
0.00799624
0.00710575
0.00616092
0.0051613
0.00410802
0.00300473
0.00185647
0.000665894
-0.000568005
-0.00184206
-0.00315097
-0.00448536
-0.00583679
-0.00719963
-0.00856588
-0.00992575
-0.0112708
-0.0125917
-0.0138797
-0.0151202
-0.0163015
-0.017396
-0.0183765
-0.0192033
-0.0198159
-0.0201952
-0.0201665
-0.0196492
-0.0186195
-0.0171869
-0.014745
-0.0118134
-0.00929006
0.0175372
0.0175278
0.0175108
0.017483
0.0174374
0.0173843
0.0173274
0.0172628
0.0171724
0.0170448
0.0168709
0.0166539
0.0163967
0.0161077
0.0157898
0.0154477
0.0150795
0.0146857
0.0142617
0.013806
0.0133126
0.012781
0.0122051
0.0115847
0.0109153
0.0101964
0.00942454
0.0085991
0.00771802
0.00678025
0.00578502
0.00473284
0.00362628
0.00247151
0.00126894
1.84529e-05
-0.00127752
-0.00261392
-0.00398135
-0.00537118
-0.00677726
-0.00819078
-0.00960085
-0.0109977
-0.0123705
-0.0137086
-0.014996
-0.01622
-0.0173519
-0.0183645
-0.0192172
-0.0198544
-0.0202536
-0.0202416
-0.0197343
-0.018711
-0.0172711
-0.014783
-0.0117306
-0.00902039
0.0180459
0.0180281
0.0180048
0.0179732
0.017925
0.0178697
0.0178111
0.0177451
0.0176534
0.0175247
0.0173499
0.0171326
0.0168755
0.0165874
0.0162712
0.0159319
0.0155672
0.0151782
0.0147598
0.0143109
0.0138252
0.0133023
0.0127357
0.0121252
0.0114661
0.0107575
0.00999562
0.00917942
0.00830636
0.007375
0.00638392
0.00533314
0.00422521
0.00306427
0.00185225
0.000587578
-0.000727512
-0.00208836
-0.00348575
-0.00491109
-0.00635791
-0.0078168
-0.00927606
-0.0107247
-0.0121505
-0.0135412
-0.0148789
-0.0161501
-0.017324
-0.0183737
-0.0192562
-0.019921
-0.0203404
-0.0203448
-0.0198434
-0.0188188
-0.0173604
-0.0148142
-0.0116383
-0.00874682
0.0185728
0.0185482
0.0185197
0.0184849
0.0184347
0.0183781
0.0183186
0.018252
0.0181597
0.0180305
0.0178552
0.0176375
0.0173803
0.0170924
0.0167768
0.0164386
0.0160756
0.0156889
0.0152735
0.0148282
0.0143469
0.013829
0.0132681
0.0126639
0.0120114
0.0113095
0.0105542
0.00974416
0.00887647
0.0079491
0.00696042
0.00590977
0.00479867
0.00363241
0.00241054
0.00113235
-0.00020083
-0.0015848
-0.0030106
-0.00446974
-0.00595559
-0.00745828
-0.00896545
-0.0104652
-0.011944
-0.0133882
-0.0147782
-0.0160994
-0.0173191
-0.0184095
-0.0193257
-0.0200208
-0.0204627
-0.0204827
-0.0199854
-0.0189555
-0.0174736
-0.0148649
-0.0115689
-0.00850259
0.0191237
0.0190926
0.0190597
0.0190226
0.0189715
0.0189148
0.0188557
0.0187895
0.0186973
0.018568
0.018392
0.0181735
0.0179154
0.0176269
0.017311
0.0169727
0.01661
0.016224
0.0158096
0.0153658
0.0148863
0.0143706
0.0138121
0.0132107
0.0125612
0.0118623
0.01111
0.0103025
0.00943669
0.00851024
0.00752095
0.00646779
0.00535231
0.00417776
0.00294534
0.0016528
0.000301241
-0.00110566
-0.00255927
-0.00405127
-0.00557499
-0.00712022
-0.00867404
-0.0102237
-0.0117546
-0.0132514
-0.0146933
-0.0160642
-0.0173292
-0.0184603
-0.0194089
-0.020133
-0.0205946
-0.0206278
-0.0201309
-0.019091
-0.0175797
-0.0149031
-0.0114885
-0.00825412
0.0197194
0.019684
0.0196475
0.0196079
0.019555
0.0194972
0.0194371
0.0193703
0.0192773
0.0191469
0.0189696
0.0187496
0.0184898
0.0181997
0.0178822
0.0175426
0.0171785
0.0167914
0.0163761
0.0159315
0.0154512
0.0149351
0.0143762
0.0137744
0.0131246
0.0124253
0.0116724
0.0108638
0.00999631
0.00906714
0.008074
0.00701531
0.00589164
0.00470756
0.00346188
0.00215331
0.000782059
-0.000648696
-0.00213062
-0.0036556
-0.00521691
-0.00680408
-0.00840371
-0.0100024
-0.0115844
-0.0131333
-0.0146265
-0.0160471
-0.0173581
-0.01853
-0.0195119
-0.0202654
-0.0207478
-0.0207939
-0.020297
-0.0192458
-0.017704
-0.0149595
-0.0114318
-0.00803687
0.0203483
0.0203096
0.0202709
0.0202305
0.0201774
0.0201197
0.0200597
0.0199927
0.019899
0.0197673
0.0195881
0.0193659
0.0191038
0.0188114
0.0184916
0.0181499
0.0177839
0.0173948
0.0169773
0.0165306
0.0160479
0.0155292
0.0149675
0.0143627
0.0137096
0.0130067
0.0122498
0.0114366
0.0105638
0.0096285
0.00862786
0.00756012
0.006426
0.00522811
0.00396707
0.00264008
0.00124723
-0.000208829
-0.00172006
-0.00327856
-0.00487764
-0.00650657
-0.00815152
-0.00979846
-0.0114306
-0.0130304
-0.0145737
-0.0160425
-0.0173975
-0.0186087
-0.0196214
-0.0204024
-0.0209019
-0.0209582
-0.0204587
-0.0193935
-0.0178179
-0.0150031
-0.0113649
-0.00781588
0.021015
0.0209742
0.0209341
0.0208934
0.0208406
0.0207836
0.0207244
0.0206581
0.0205644
0.0204321
0.0202515
0.0200276
0.0197632
0.0194684
0.019146
0.0188016
0.0184325
0.0180402
0.0176192
0.0171687
0.0166819
0.0161586
0.0155919
0.0149817
0.0143227
0.0136133
0.0128493
0.0120283
0.0111469
0.0102019
0.00919042
0.00811033
0.0069615
0.00574798
0.00446807
0.00312008
0.00170331
0.000219945
-0.00132223
-0.00291545
-0.00455311
-0.00622414
-0.00791444
-0.00960921
-0.0112911
-0.012941
-0.014534
-0.0160504
-0.0174493
-0.0186992
-0.0197437
-0.0205516
-0.0210705
-0.021138
-0.0206367
-0.0195578
-0.0179493
-0.0150659
-0.0113229
-0.00762749
0.0217233
0.0216802
0.0216392
0.021599
0.0215475
0.0214924
0.0214353
0.0213705
0.0212776
0.021145
0.0209631
0.0207371
0.0204701
0.0201724
0.0198468
0.019499
0.0191263
0.0187301
0.0183048
0.0178494
0.017357
0.0168277
0.0162541
0.0156364
0.014969
0.0142506
0.0134767
0.0126449
0.0117518
0.0107939
0.00976814
0.00867232
0.00750648
0.00627288
0.00497171
0.0035999
0.00215675
0.000643961
-0.000930879
-0.00256022
-0.00423746
-0.00595136
-0.00768729
-0.00943003
-0.0111611
-0.0128609
-0.0145024
-0.0160656
-0.0175065
-0.0187942
-0.0198677
-0.0207015
-0.0212363
-0.0213126
-0.0208074
-0.0197134
-0.0180699
-0.0151167
-0.0112717
-0.00743548
0.022497
0.0224535
0.0224118
0.0223715
0.02232
0.0222653
0.0222086
0.0221441
0.0220506
0.0219168
0.0217327
0.0215038
0.0212333
0.0209317
0.0206017
0.0202495
0.0198717
0.0194702
0.0190389
0.0185771
0.0180776
0.0175404
0.016958
0.0163307
0.0156529
0.014923
0.0141366
0.0132913
0.0123835
0.0114096
0.0103667
0.00925212
0.00806526
0.00680988
0.00548397
0.00408565
0.00261359
0.00106904
-0.000540539
-0.00220774
-0.00392597
-0.00568372
-0.00746599
-0.00925692
-0.0110375
-0.0127868
-0.0144772
-0.0160866
-0.0175703
-0.0188949
-0.0199998
-0.0208593
-0.0214135
-0.021501
-0.020994
-0.0198862
-0.0182094
-0.0151885
-0.0112465
-0.00727726
0.0233226
0.0232792
0.0232382
0.0231993
0.0231494
0.0230962
0.0230405
0.0229765
0.0228823
0.0227466
0.0225596
0.022327
0.0220521
0.0217458
0.0214108
0.0210533
0.0206698
0.0202622
0.0198241
0.0193547
0.0188466
0.0183
0.0177071
0.0170682
0.0163777
0.0156341
0.0148327
0.0139713
0.013046
0.0120535
0.0109903
0.00985402
0.00864417
0.00736289
0.00601007
0.00458257
0.00307911
0.0015006
-0.00014579
-0.00185253
-0.00361343
-0.00541621
-0.00724608
-0.00908572
-0.0109167
-0.0127155
-0.014455
-0.0161099
-0.0176358
-0.0189966
-0.0201313
-0.0210158
-0.0215867
-0.0216834
-0.0211731
-0.0200505
-0.018339
-0.0152498
-0.0112135
-0.00711548
0.0242074
0.024165
0.0241252
0.0240878
0.0240396
0.0239882
0.023934
0.0238707
0.0237762
0.023639
0.0234491
0.0232127
0.0229331
0.0226215
0.0222807
0.0219168
0.0215262
0.0211109
0.0206643
0.0201856
0.0196672
0.0191093
0.018504
0.0178515
0.0171462
0.0163865
0.0155679
0.0146878
0.0137426
0.0127286
0.0116427
0.010482
0.0092457
0.00793716
0.00655434
0.00509517
0.00355794
0.00194301
0.000257724
-0.00149077
-0.00329583
-0.00514541
-0.00702369
-0.00891333
-0.0107949
-0.0126442
-0.0144334
-0.0161344
-0.0177034
-0.0191008
-0.0202688
-0.0211781
-0.0217696
-0.0218791
-0.0213681
-0.020233
-0.0184887
-0.0153329
-0.0112067
-0.00698703
0.0251547
0.0251131
0.0250747
0.0250394
0.0249937
0.0249448
0.0248927
0.0248307
0.024736
0.0245969
0.0244036
0.0241625
0.0238772
0.0235592
0.0232113
0.0228399
0.0224412
0.022017
0.0215607
0.0210714
0.0205411
0.0199703
0.0193506
0.0186826
0.0179604
0.0171825
0.0163442
0.0154432
0.0144755
0.0134377
0.0123264
0.0111389
0.00987432
0.00853498
0.00712035
0.00562715
0.00405383
0.00240025
0.000673914
-0.00111835
-0.0029695
-0.00486766
-0.00679593
-0.00873701
-0.0106705
-0.0125713
-0.0144108
-0.0161585
-0.0177706
-0.0192046
-0.0204047
-0.02134
-0.0219489
-0.0220687
-0.021556
-0.0204075
-0.0186294
-0.0154067
-0.011193
-0.00685233
0.0261887
0.0261493
0.0261123
0.026078
0.0260329
0.0259845
0.0259324
0.0258696
0.0257727
0.0256301
0.0254317
0.0251843
0.0248916
0.0245656
0.0242089
0.0238281
0.0234192
0.0229842
0.0225161
0.0220141
0.02147
0.0208842
0.0202483
0.0195627
0.0188216
0.0180232
0.0171632
0.0162388
0.0152465
0.0141824
0.0130435
0.0118268
0.0105311
0.00916001
0.00771078
0.0061815
0.00456959
0.00287523
0.00110521
-0.000732734
-0.00263232
-0.00458055
-0.0065607
-0.00855435
-0.0105412
-0.0124946
-0.0143861
-0.0161814
-0.0178385
-0.0193103
-0.0205473
-0.021508
-0.0221384
-0.0222723
-0.021761
-0.0206016
-0.0187916
-0.0155036
-0.0112063
-0.00674795
0.027289
0.0272523
0.0272178
0.0271861
0.027143
0.027096
0.0270442
0.0269803
0.0268805
0.0267332
0.0265285
0.0262736
0.0259723
0.0256369
0.0252701
0.0248787
0.0244585
0.0240114
0.0235302
0.023014
0.0224545
0.021852
0.0211979
0.0204927
0.0197305
0.0189096
0.0180256
0.0170757
0.0160564
0.014964
0.0137951
0.0125471
0.0112191
0.00981288
0.00832776
0.00676006
0.00510762
0.00337
0.00155434
-0.000331732
-0.00228166
-0.0042823
-0.00631613
-0.00836449
-0.0104064
-0.0124143
-0.0143589
-0.0162033
-0.0179061
-0.0194163
-0.0206894
-0.0216772
-0.0223259
-0.0224711
-0.0219598
-0.0207886
-0.0189458
-0.0155928
-0.0112135
-0.00663501
0.0284606
0.028427
0.0283951
0.0283656
0.0283242
0.0282783
0.0282267
0.0281616
0.0280589
0.0279069
0.0276955
0.0274325
0.0271217
0.026776
0.0263979
0.0259945
0.0255612
0.0251002
0.024604
0.0240717
0.0234948
0.0228736
0.0221993
0.0214725
0.0206873
0.0198418
0.0189317
0.0179542
0.0169058
0.0157828
0.0145821
0.0133009
0.0119378
0.0104959
0.00897231
0.00736413
0.00566901
0.0038857
0.0020221
8.54918e-05
-0.00191689
-0.00397208
-0.0060614
-0.0081664
-0.0102651
-0.0123292
-0.0143288
-0.0162242
-0.017975
-0.0195261
-0.0208401
-0.0218545
-0.0225249
-0.0226849
-0.0221768
-0.0209963
-0.0191223
-0.0157054
-0.0112467
-0.00655129
0.0297001
0.0296688
0.0296392
0.0296121
0.0295729
0.0295286
0.0294776
0.0294117
0.0293059
0.0291485
0.0289296
0.0286574
0.028336
0.0279787
0.027588
0.0271714
0.0267239
0.0262478
0.0257353
0.0251855
0.0245896
0.0239481
0.0232518
0.0225015
0.0216913
0.0208192
0.0198809
0.0188738
0.0177943
0.0166389
0.0154043
0.014088
0.0126887
0.0112081
0.00964463
0.00799424
0.00625414
0.00442337
0.00250945
0.000520458
-0.00153687
-0.00364854
-0.00579594
-0.00795951
-0.0101175
-0.0122398
-0.0142967
-0.0162444
-0.0180452
-0.0196376
-0.0209924
-0.0220354
-0.0227239
-0.0228953
-0.0223884
-0.0211978
-0.0192915
-0.0158109
-0.0112741
-0.00645869
0.0310314
0.0310032
0.0309753
0.0309487
0.0309091
0.0308637
0.0308104
0.030741
0.0306297
0.0304651
0.0302368
0.0299537
0.0296198
0.029249
0.0288438
0.0284119
0.027948
0.0274546
0.0269237
0.0263545
0.0257376
0.0250738
0.0243538
0.0235781
0.022741
0.0218404
0.0208722
0.0198335
0.0187212
0.0175314
0.0162613
0.0149081
0.0134699
0.0119502
0.0103445
0.00864988
0.00686297
0.00498253
0.00301624
0.000972568
-0.00114177
-0.00331217
-0.00551964
-0.00774403
-0.00996327
-0.012146
-0.0142623
-0.0162651
-0.0181184
-0.0197555
-0.0211555
-0.0222271
-0.0229364
-0.0231226
-0.0226198
-0.0214211
-0.0194837
-0.0159399
-0.0113271
-0.00639509
0.0324225
0.0323976
0.0323724
0.032348
0.0323093
0.0322637
0.0322086
0.0321354
0.032018
0.0318449
0.0316061
0.0313107
0.0309632
0.0305778
0.0301571
0.0297089
0.0292277
0.0287161
0.0281657
0.0275756
0.0269363
0.0262487
0.0255031
0.0247003
0.0238346
0.0229037
0.0219037
0.0208318
0.0196848
0.0184591
0.0171515
0.0157597
0.0142821
0.0127197
0.011071
0.00933045
0.00749522
0.00556337
0.00354313
0.0014428
-0.000730408
-0.00296189
-0.00523158
-0.00751938
-0.00980221
-0.012048
-0.0142258
-0.0162861
-0.0181935
-0.0198767
-0.0213216
-0.0224241
-0.0231511
-0.0233482
-0.0228473
-0.0216393
-0.0196697
-0.0160629
-0.0113756
-0.00632334
0.033887
0.0338651
0.0338418
0.0338183
0.0337796
0.0337331
0.0336755
0.0335982
0.0334742
0.0332924
0.0330422
0.0327338
0.0323713
0.0319699
0.0315318
0.0310654
0.0305646
0.0300324
0.0294601
0.028847
0.0281832
0.0274697
0.0266968
0.0258652
0.0249691
0.0240064
0.0229731
0.0218665
0.0206833
0.01942
0.0180737
0.0166418
0.015122
0.0135178
0.0118234
0.0100356
0.00815033
0.0061655
0.00408938
0.00193059
-0.000303636
-0.00259817
-0.00493237
-0.00728573
-0.00963452
-0.0119458
-0.0141876
-0.0163083
-0.0182726
-0.0200056
-0.021499
-0.0226332
-0.0233807
-0.0235919
-0.0230954
-0.0218797
-0.0198787
-0.0162089
-0.0114489
-0.00628064
0.0354392
0.0354208
0.0353995
0.0353766
0.0353364
0.0352867
0.0352239
0.0351392
0.0350049
0.0348101
0.0345446
0.0342189
0.033838
0.0334172
0.0329591
0.0324721
0.0319499
0.0313955
0.0307998
0.0301622
0.0294725
0.0287319
0.0279302
0.0270685
0.0261409
0.0251453
0.0240776
0.0229351
0.0217146
0.0204128
0.0190264
0.0175532
0.0159915
0.0143418
0.0126016
0.010765
0.00882848
0.00678941
0.00465612
0.00243739
0.000140414
-0.00221924
-0.0046202
-0.00704164
-0.00945892
-0.0118384
-0.0141466
-0.0163302
-0.0183534
-0.0201377
-0.0216794
-0.0228475
-0.0236134
-0.0238352
-0.0233405
-0.0221156
-0.0200821
-0.0163499
-0.011519
-0.00623089
0.0370918
0.0370817
0.0370618
0.0370347
0.0369857
0.0369236
0.0368457
0.0367446
0.0365926
0.0363793
0.0360944
0.0357494
0.0353484
0.0349073
0.0344282
0.0339195
0.0333746
0.0327967
0.0321766
0.0315134
0.030797
0.0300285
0.0291976
0.0283054
0.0273459
0.0263169
0.0252144
0.0240355
0.0227774
0.0214363
0.0200094
0.0184942
0.0168881
0.0151941
0.0134057
0.0115191
0.00953006
0.00743533
0.00524334
0.00296293
0.000601293
-0.00182552
-0.00429551
-0.00678732
-0.00927562
-0.0117258
-0.0141031
-0.0163524
-0.0184375
-0.0202768
-0.0218701
-0.0230735
-0.0238613
-0.0240974
-0.0236071
-0.0223742
-0.0203086
-0.0165135
-0.0116137
-0.00621123
0.0385622
0.0385562
0.0385472
0.0385347
0.0385013
0.0384529
0.0383856
0.0382902
0.0381393
0.0379221
0.0376298
0.037274
0.0368602
0.0364044
0.0359091
0.0353828
0.0348187
0.0342201
0.0335775
0.0328904
0.0321484
0.0313528
0.0304933
0.0295711
0.0285801
0.0275181
0.0263811
0.0251662
0.0238704
0.0224902
0.0210223
0.0194645
0.0178148
0.0160731
0.0142366
0.012299
0.0102563
0.00810489
0.00585309
0.0035097
0.00108179
-0.00141417
-0.00395544
-0.00652018
-0.00908214
-0.0116057
-0.0140548
-0.0163725
-0.0185215
-0.0204173
-0.0220626
-0.0233036
-0.0241125
-0.0243599
-0.0238715
-0.0226291
-0.0205306
-0.0166735
-0.0117069
-0.00618657
0.0402229
0.0402168
0.0402016
0.0401797
0.0401352
0.0400757
0.039997
0.0398901
0.0397269
0.0394967
0.0391903
0.0388198
0.0383906
0.0379186
0.0374065
0.0368623
0.0362793
0.0356604
0.0349964
0.0342864
0.0335201
0.032699
0.0318123
0.0308615
0.0298403
0.0287465
0.0275761
0.026326
0.0249932
0.0235741
0.0220657
0.0204652
0.0187698
0.0169826
0.0150959
0.0131063
0.0110088
0.00879939
0.0064862
0.00407805
0.00158186
-0.000985431
-0.00360039
-0.00624053
-0.00887883
-0.0114785
-0.0140021
-0.0163911
-0.0186069
-0.0205626
-0.0222628
-0.0235435
-0.0243777
-0.0246409
-0.0241571
-0.0229065
-0.0207751
-0.0168556
-0.0118245
-0.006193
0.0417077
0.0416997
0.0416889
0.0416755
0.0416415
0.0415925
0.0415232
0.0414228
0.0412627
0.0410313
0.0407206
0.0403426
0.039904
0.039421
0.0388966
0.0383389
0.0377411
0.0371059
0.0364241
0.0356946
0.034907
0.0340629
0.0331515
0.032174
0.0311246
0.0300007
0.0287983
0.0275144
0.0261457
0.0246887
0.0231399
0.0214971
0.0197579
0.0179219
0.0159859
0.0139432
0.01179
0.00952144
0.00714564
0.0046713
0.00210509
-0.000535638
-0.00322668
-0.0059449
-0.00866232
-0.011341
-0.0139418
-0.0164047
-0.0186896
-0.020707
-0.0224632
-0.0237857
-0.0246451
-0.0249219
-0.0244406
-0.0231806
-0.0210159
-0.0170355
-0.0119422
-0.00619574
0.0434019
0.0433899
0.0433677
0.0433385
0.0432865
0.0432201
0.0431341
0.0430187
0.0428441
0.0425992
0.0422749
0.0418836
0.0414317
0.0409351
0.0403971
0.0398251
0.0392125
0.0385615
0.0378631
0.0371155
0.0363087
0.0354437
0.0345098
0.033508
0.0324326
0.0312806
0.0300481
0.0287319
0.0273287
0.0258349
0.024247
0.0225625
0.020778
0.018896
0.0169087
0.0148124
0.0126022
0.010273
0.00783273
0.00529009
0.00265154
-6.51254e-05
-0.00283493
-0.00563398
-0.00843341
-0.0111939
-0.0138749
-0.0164145
-0.0187713
-0.0208534
-0.0226685
-0.0240358
-0.0249253
-0.0252207
-0.0247449
-0.0234769
-0.0212789
-0.0172375
-0.0120847
-0.00622891
0.0448504
0.0448326
0.0448126
0.0447912
0.0447503
0.0446957
0.0446216
0.0445157
0.0443483
0.044107
0.0437837
0.0433905
0.0429347
0.0424326
0.0418878
0.0413076
0.0406855
0.0400232
0.039312
0.0385498
0.0377265
0.0368432
0.0358891
0.0348652
0.0337658
0.0325876
0.0313269
0.0299802
0.0285441
0.0270149
0.0253887
0.0236632
0.0218354
0.0199046
0.017867
0.0157162
0.0134481
0.011057
0.00855082
0.00593815
0.00322521
0.000430226
-0.00242098
-0.00530376
-0.00818817
-0.0110335
-0.0137976
-0.0164166
-0.0188477
-0.0209967
-0.0228724
-0.0242866
-0.0252066
-0.0255191
-0.0250473
-0.0237709
-0.0215398
-0.0174391
-0.0122294
-0.00626053
0.0465102
0.0464789
0.046444
0.0464084
0.0463556
0.0462923
0.0462121
0.0461018
0.0459299
0.045683
0.0453526
0.0449508
0.0444852
0.0439719
0.0434152
0.0428222
0.0421869
0.0415106
0.0407849
0.0400073
0.0391677
0.0382668
0.0372937
0.0362492
0.0351274
0.0339248
0.0326376
0.0312619
0.0297943
0.0282307
0.0265676
0.0248018
0.0229294
0.0209529
0.0188634
0.0166575
0.0143303
0.0118755
0.00930123
0.00661601
0.00382593
0.000949726
-0.00198591
-0.00495547
-0.00792799
-0.0108612
-0.0137113
-0.0164126
-0.0189208
-0.0211395
-0.0230785
-0.0245431
-0.025499
-0.0258338
-0.0253697
-0.0240863
-0.0218222
-0.0176627
-0.012399
-0.00632318
0.0482355
0.0481966
0.0481511
0.0481033
0.0480369
0.04796
0.0478664
0.047743
0.0475582
0.0472982
0.0469547
0.0465396
0.0460609
0.0455348
0.0449657
0.0443605
0.0437128
0.0430237
0.0422847
0.0414928
0.0406379
0.0397204
0.0387294
0.0376652
0.0365222
0.0352964
0.0339838
0.0325803
0.0310823
0.0294857
0.027786
0.0259807
0.0240661
0.0220409
0.0199007
0.0176389
0.0152514
0.0127314
0.0100872
0.0073274
0.00445782
0.00149772
-0.00152526
-0.00458472
-0.00764854
-0.0106728
-0.013612
-0.0163985
-0.0189865
-0.0212775
-0.023282
-0.024799
-0.0257913
-0.0261475
-0.0256902
-0.0244
-0.0221038
-0.0178877
-0.0125724
-0.00638661
0.0499939
0.0499538
0.0499055
0.0498529
0.0497797
0.0496946
0.0495913
0.0494572
0.0492598
0.048986
0.048627
0.0481958
0.0477003
0.0471572
0.0465712
0.0459493
0.0452852
0.04458
0.0438252
0.0430173
0.0421461
0.0412117
0.0402028
0.0391196
0.0379559
0.0367077
0.0353705
0.0339401
0.0324126
0.0307834
0.0290483
0.0272039
0.0252454
0.0231745
0.0209816
0.0186629
0.0162136
0.0136265
0.0109099
0.00807252
0.00512033
0.00207308
-0.00104057
-0.00419327
-0.00735171
-0.0104703
-0.0135017
-0.0163761
-0.0190468
-0.0214126
-0.0234856
-0.0250589
-0.0260931
-0.0264763
-0.0260297
-0.0247347
-0.0224069
-0.0181349
-0.0127713
-0.00648114
0.0517184
0.0516773
0.0516288
0.0515763
0.0515026
0.051416
0.05131
0.0511709
0.0509664
0.0506829
0.0503128
0.049869
0.0493606
0.0488043
0.0482053
0.0475704
0.0468933
0.0461748
0.0454063
0.044584
0.0436977
0.0427472
0.041721
0.040619
0.0394352
0.0381648
0.0368035
0.0353466
0.0337899
0.0321287
0.0303579
0.0284745
0.0264737
0.0243535
0.0221085
0.0197318
0.0172194
0.0145633
0.0117722
0.00885511
0.00581767
0.0026804
-0.000527074
-0.00377626
-0.00703275
-0.0102489
-0.0133758
-0.0163414
-0.0190976
-0.0215413
-0.0236854
-0.0253171
-0.0263941
-0.0268036
-0.0263678
-0.0250689
-0.0227112
-0.0183855
-0.0129761
-0.00657823
0.0534526
0.0534103
0.0533617
0.05331
0.0532382
0.0531544
0.0530512
0.0529141
0.0527093
0.0524227
0.0520465
0.0515942
0.0510751
0.0505067
0.0498947