/*--------------------------------*- C++ -*----------------------------------*\
  =========                 |
  \\      /  F ield         | OpenFOAM: The Open Source CFD Toolbox
   \\    /   O peration     | Website:  https://openfoam.org
    \\  /    A nd           | Version:  6.0
     \\/     M anipulation  |
\*---------------------------------------------------------------------------*/
FoamFile
{
    version     2.0;
    format      ascii;
    class       surfaceScalarField;
    location    "11";
    object      phi;
}
// * * * * * * * * * * * * * * * * * * * * * * * * * * * * * * * * * * * * * //

dimensions      [0 3 -1 0 0 0 0];

internalField   nonuniform List<scalar> 
123526
(
5.50757e-05
2.30508e-05
-5.46825e-05
5.55038e-05
2.49161e-05
5.5961e-05
2.6932e-05
5.64605e-05
2.91106e-05
5.69942e-05
3.14647e-05
5.75769e-05
3.40082e-05
5.82006e-05
3.67562e-05
5.88807e-05
3.97248e-05
5.96103e-05
4.29307e-05
6.04057e-05
4.6394e-05
6.12592e-05
5.01353e-05
6.21876e-05
5.41757e-05
6.31854e-05
5.85387e-05
6.4272e-05
6.32471e-05
6.54442e-05
6.83292e-05
6.6717e-05
7.38177e-05
6.80882e-05
7.97405e-05
6.95813e-05
8.61252e-05
7.11943e-05
9.30148e-05
7.29423e-05
0.000100448
7.48342e-05
0.000108455
7.68882e-05
0.000117086
7.91046e-05
0.000126389
8.15141e-05
0.000136396
8.41167e-05
0.000147177
8.69366e-05
0.00015877
8.99883e-05
0.000171231
9.32884e-05
0.000184622
9.68601e-05
0.000198989
0.000100719
0.000214402
0.00010489
0.000230904
0.000109393
0.000248562
0.000114252
0.000267417
0.000119494
0.000287521
0.000125141
0.000308911
0.000131225
0.000331607
0.000137766
0.000355628
0.000144793
0.000380955
0.000152332
0.000407548
0.000160404
0.000435331
0.000169031
0.000464176
0.000178231
0.000493894
0.000188016
0.000524218
0.000198391
0.000554781
0.000209351
0.00058509
0.000220882
0.000614497
0.000232953
0.000642159
0.000245514
0.000667
0.000258487
0.000687659
0.000271765
0.000702434
0.000285197
0.000709226
0.000298584
0.000705466
0.000311662
0.000688065
0.000324095
0.000653328
0.000335453
0.000596909
0.00034521
0.000513717
0.00035278
0.000398204
0.000356781
0.000242569
0.000360242
4.14066e-05
-0.000175456
0.000378418
5.40283e-05
2.26678e-05
-5.36429e-05
5.44466e-05
2.45023e-05
5.48929e-05
2.64852e-05
5.53802e-05
2.86277e-05
5.59013e-05
3.09425e-05
5.64704e-05
3.34433e-05
5.70803e-05
3.61449e-05
5.77458e-05
3.90631e-05
5.84608e-05
4.22135e-05
5.92405e-05
4.56173e-05
6.00782e-05
4.92951e-05
6.09896e-05
5.32667e-05
6.197e-05
5.75553e-05
6.3038e-05
6.21812e-05
6.4191e-05
6.71735e-05
6.54431e-05
7.25677e-05
6.67928e-05
7.83887e-05
6.82625e-05
8.46577e-05
6.98511e-05
9.14248e-05
7.15723e-05
9.87289e-05
7.3436e-05
0.000106591
7.54589e-05
0.000115065
7.76426e-05
0.000124205
8.00157e-05
0.000134025
8.25797e-05
0.000144613
8.53568e-05
0.000155994
8.83626e-05
0.000168226
9.16121e-05
0.000181374
9.51296e-05
0.000195472
9.89283e-05
0.000210604
0.000103036
0.000226797
0.000107468
0.00024413
0.000112253
0.000262634
0.000117412
0.000282363
0.00012297
0.000303355
0.000128958
0.000325623
0.000135394
0.000349197
0.000142305
0.000374048
0.000149718
0.00040014
0.000157652
0.000427403
0.000166129
0.000455706
0.000175167
0.000484864
0.000184777
0.000514618
0.000194965
0.000544605
0.000205727
0.000574341
0.000217049
0.00060319
0.000228903
0.000630324
0.000241238
0.000654687
0.000253981
0.000674943
0.000267023
0.000689424
0.000280215
0.000696074
0.000293361
0.000692373
0.000306199
0.000675296
0.000318392
0.000641218
0.000329521
0.000585878
0.000339041
0.000504324
0.000346408
0.000391018
0.000351253
0.000237985
0.000353834
3.92583e-05
-0.000168942
0.000347727
5.32818e-05
2.22934e-05
-5.2905e-05
5.36905e-05
2.40979e-05
5.41269e-05
2.60482e-05
5.46034e-05
2.81554e-05
5.51132e-05
3.04316e-05
5.56699e-05
3.28906e-05
5.62666e-05
3.55469e-05
5.69174e-05
3.84158e-05
5.76167e-05
4.1512e-05
5.83793e-05
4.48576e-05
5.91986e-05
4.84731e-05
6.00901e-05
5.23774e-05
6.10493e-05
5.65932e-05
6.20943e-05
6.11381e-05
6.32229e-05
6.60421e-05
6.44488e-05
7.13437e-05
6.57708e-05
7.70645e-05
6.7211e-05
8.32197e-05
6.87683e-05
8.98661e-05
7.04563e-05
9.70431e-05
7.22848e-05
0.000104761
7.42703e-05
0.000113081
7.64142e-05
0.000122061
7.87448e-05
0.000131696
8.12637e-05
0.000142094
8.39922e-05
0.000153266
8.69463e-05
0.000165272
9.01399e-05
0.000178181
9.35974e-05
0.000192016
9.73312e-05
0.000206872
0.000101369
0.000222761
0.000105725
0.000239774
0.000110427
0.000257933
0.000115497
0.000277294
0.000120958
0.000297897
0.000126839
0.000319745
0.00013316
0.00034288
0.000139947
0.000367266
0.000147225
0.000392868
0.000155013
0.00041962
0.000163333
0.000447392
0.000172203
0.000476
0.000181633
0.000505192
0.000191631
0.000534612
0.000202194
0.000563784
0.000213308
0.000592081
0.000224945
0.000618692
0.000237055
0.00064258
0.000249565
0.000662436
0.000262365
0.000676625
0.000275309
0.000683131
0.000288199
0.000679486
0.000300778
0.000662728
0.000312714
0.0006293
0.000323594
0.00057502
0.000332887
0.000495054
0.000340042
0.000383888
0.000344471
0.000233573
0.000347449
3.62775e-05
-0.000171008
0.000349451
5.2481e-05
2.19274e-05
-5.21128e-05
5.28814e-05
2.37017e-05
5.33102e-05
2.56191e-05
5.3779e-05
2.76907e-05
5.42812e-05
2.99285e-05
5.483e-05
3.23458e-05
5.54189e-05
3.49569e-05
5.60613e-05
3.7777e-05
5.6752e-05
4.08194e-05
5.75051e-05
4.41074e-05
5.83147e-05
4.76612e-05
5.91954e-05
5.1499e-05
6.0143e-05
5.5643e-05
6.11748e-05
6.01083e-05
6.22888e-05
6.49256e-05
6.34982e-05
7.01364e-05
6.48018e-05
7.5759e-05
6.6221e-05
8.18028e-05
6.77547e-05
8.83312e-05
6.94164e-05
9.53837e-05
7.12156e-05
0.000102961
7.31684e-05
0.000111131
7.52764e-05
0.000119953
7.75674e-05
0.000129406
8.00428e-05
0.000139619
8.27239e-05
0.000150586
8.5626e-05
0.000162371
8.87631e-05
0.000175045
9.2159e-05
0.000188621
9.58259e-05
0.000203206
9.97904e-05
0.000218798
0.000104068
0.000235498
0.000108684
0.000253318
0.000113659
0.000272319
0.000119019
0.00029254
0.00012479
0.000313977
0.000130992
0.000336682
0.00013765
0.000360612
0.00014479
0.000385733
0.00015243
0.000411984
0.000160592
0.000439235
0.000169295
0.000467304
0.000178548
0.000495945
0.00018836
0.000524808
0.000198729
0.000553425
0.000209639
0.000581181
0.000221064
0.00060728
0.000232954
0.000630707
0.000245233
0.000650176
0.000257795
0.000664087
0.000270493
0.000670466
0.000283131
0.000666894
0.000295457
0.000650464
0.000307145
0.000617692
0.000317792
0.000564472
0.000326892
0.000486084
0.000333906
0.000377059
0.000338315
0.000229431
0.000340736
3.43015e-05
-0.000170804
0.000340944
5.16882e-05
2.1566e-05
-5.13238e-05
5.20845e-05
2.33098e-05
5.25084e-05
2.5195e-05
5.29714e-05
2.72321e-05
5.34667e-05
2.94324e-05
5.40075e-05
3.1809e-05
5.45872e-05
3.43761e-05
5.52195e-05
3.71483e-05
5.5899e-05
4.0138e-05
5.66399e-05
4.33693e-05
5.74363e-05
4.68625e-05
5.83031e-05
5.06346e-05
5.92358e-05
5.47075e-05
6.02521e-05
5.90941e-05
6.13494e-05
6.38258e-05
6.2541e-05
6.89469e-05
6.38252e-05
7.44727e-05
6.52234e-05
8.04069e-05
6.67341e-05
8.68192e-05
6.83705e-05
9.37495e-05
7.01416e-05
0.00010119
7.20634e-05
0.000109211
7.41373e-05
0.000117879
7.63904e-05
0.000127155
7.88241e-05
0.000137185
8.14593e-05
0.000147952
8.43111e-05
0.000159519
8.73931e-05
0.000171964
9.07287e-05
0.000185286
9.43298e-05
0.000199606
9.82227e-05
0.000214906
0.000102422
0.0002313
0.000106953
0.000248787
0.000111837
0.000267435
0.000117097
0.000287282
0.000122761
0.000308317
0.000128847
0.000330599
0.000135381
0.000354082
0.000142387
0.000378731
0.000149885
0.00040449
0.000157896
0.000431228
0.000166438
0.000458766
0.000175522
0.000486864
0.000185156
0.000515178
0.000195337
0.000543247
0.000206051
0.000570468
0.000217271
0.000596061
0.000228946
0.00061903
0.000241003
0.000638116
0.000253334
0.000651752
0.000265794
0.000657999
0.000278191
0.000654493
0.000290276
0.000638379
0.000301732
0.000606243
0.000312166
0.000554047
0.000321095
0.000477162
0.000328002
0.000370157
0.000332406
0.000225014
0.000334552
3.21042e-05
-0.000170348
0.000333986
5.10315e-05
2.12053e-05
-5.06686e-05
5.14257e-05
2.29196e-05
5.18463e-05
2.47741e-05
5.23042e-05
2.67782e-05
5.2793e-05
2.89427e-05
5.33254e-05
3.12805e-05
5.38952e-05
3.38052e-05
5.45153e-05
3.65315e-05
5.51809e-05
3.94706e-05
5.59055e-05
4.26474e-05
5.66837e-05
4.6082e-05
5.753e-05
4.97904e-05
5.84408e-05
5.37941e-05
5.9433e-05
5.81036e-05
6.05051e-05
6.27512e-05
6.16698e-05
6.77841e-05
6.29262e-05
7.32145e-05
6.42947e-05
7.90404e-05
6.57745e-05
8.53382e-05
6.73782e-05
9.2148e-05
6.91148e-05
9.94523e-05
7.09998e-05
0.000107328
7.30345e-05
0.000115844
7.52455e-05
0.000124946
7.76341e-05
0.000134797
8.02207e-05
0.000145367
8.30201e-05
0.000156721
8.60455e-05
0.000168939
8.932e-05
0.000182013
9.28551e-05
0.000196072
9.66767e-05
0.000211086
0.000100799
0.000227178
0.000105247
0.00024434
0.000110041
0.000262641
0.000115205
0.00028212
0.000120764
0.00030276
0.000126739
0.000324628
0.000133153
0.000347671
0.000140032
0.000371856
0.000147394
0.000397133
0.000155259
0.000423367
0.000163647
0.000450383
0.000172569
0.000477949
0.00018203
0.000505723
0.00019203
0.000533255
0.000202554
0.000559953
0.000213574
0.000585053
0.00022504
0.000607578
0.000236878
0.000626295
0.000248983
0.000639669
0.000261211
0.0006458
0.000273373
0.000642371
0.000285227
0.000626582
0.000296462
0.00059508
0.000306693
0.000543908
0.00031546
0.00046852
0.000322261
0.000363531
0.000326657
0.000220873
0.000328534
3.06537e-05
-0.000168583
0.000327164
5.05224e-05
2.08468e-05
-5.01613e-05
5.0913e-05
2.25333e-05
5.13285e-05
2.43584e-05
5.178e-05
2.63307e-05
5.22612e-05
2.84607e-05
5.27847e-05
3.07608e-05
5.3344e-05
3.32448e-05
5.39522e-05
3.59268e-05
5.46039e-05
3.88171e-05
5.53125e-05
4.19415e-05
5.60724e-05
4.532e-05
5.68978e-05
4.89674e-05
5.77849e-05
5.29046e-05
5.87509e-05
5.71397e-05
5.9794e-05
6.17058e-05
6.09275e-05
6.66527e-05
6.21503e-05
7.19898e-05
6.34832e-05
7.77097e-05
6.49254e-05
8.38949e-05
6.64896e-05
9.0586e-05
6.81849e-05
9.77564e-05
7.00265e-05
0.000105488
7.20158e-05
0.000113854
7.41789e-05
0.000122784
7.65172e-05
0.000132459
7.90506e-05
0.000142835
8.17936e-05
0.000153978
8.47592e-05
0.000165975
8.79698e-05
0.000178803
9.1437e-05
0.000192606
9.51858e-05
0.000207339
9.92308e-05
0.000223134
0.000103595
0.000239976
0.000108301
0.000257937
0.000113369
0.000277054
0.000118826
0.000297305
0.000124692
0.000318766
0.00013099
0.000341377
0.000137744
0.000365106
0.000144973
0.000389907
0.000152698
0.000415646
0.000160936
0.000442149
0.000169699
0.000469189
0.000178992
0.000496432
0.000188814
0.000523434
0.00019915
0.000549617
0.000209972
0.00057423
0.000221231
0.000596316
0.000232853
0.000614668
0.000244733
0.000627781
0.000256732
0.000633791
0.000268663
0.000630431
0.000280289
0.000614948
0.000291308
0.000584058
0.000301346
0.000533866
0.000309956
0.000459901
0.000316654
0.000356816
0.000321027
0.00021646
0.000322665
2.89153e-05
-0.000166814
0.000320747
5.00997e-05
2.04939e-05
-4.97453e-05
5.04828e-05
2.21538e-05
5.08904e-05
2.39503e-05
5.13333e-05
2.58914e-05
5.18057e-05
2.79874e-05
5.23193e-05
3.02507e-05
5.28684e-05
3.26947e-05
5.34652e-05
3.53332e-05
5.41046e-05
3.81759e-05
5.47994e-05
4.12493e-05
5.55439e-05
4.45733e-05
5.63514e-05
4.81617e-05
5.72185e-05
5.20349e-05
5.81614e-05
5.61985e-05
5.91787e-05
6.0686e-05
6.02831e-05
6.555e-05
6.14741e-05
7.0797e-05
6.2772e-05
7.64138e-05
6.41764e-05
8.24893e-05
6.57001e-05
8.90643e-05
6.73523e-05
9.61036e-05
6.91482e-05
0.000103694
7.10895e-05
0.000111913
7.32019e-05
0.000120673
7.54868e-05
0.000130174
7.79641e-05
0.000140359
8.06478e-05
0.000151295
8.3551e-05
0.000163072
8.66955e-05
0.00017566
9.00928e-05
0.000189209
9.37676e-05
0.000203665
9.77336e-05
0.000219169
0.000102015
0.000235696
0.000106631
0.00025332
0.000111604
0.000272083
0.00011696
0.000291951
0.000122718
0.000313012
0.000128901
0.000335198
0.000135533
0.000358478
0.000142632
0.000382812
0.000150218
0.000408064
0.000158309
0.000434063
0.000166915
0.000460588
0.000176042
0.000487311
0.000185688
0.000513796
0.000195837
0.000539476
0.000206462
0.000563615
0.000217514
0.000585277
0.00022892
0.000603278
0.000240577
0.000616143
0.000252348
0.000622047
0.000264051
0.000618765
0.000275453
0.000603597
0.000286261
0.000573318
0.000296108
0.000524106
0.000304567
0.000451561
0.000311166
0.000350385
0.000315492
0.000212378
0.000316932
2.78846e-05
-0.000164184
0.000314679
4.96983e-05
2.01503e-05
-4.93516e-05
5.00723e-05
2.17842e-05
5.04702e-05
2.35523e-05
5.09033e-05
2.54624e-05
5.13653e-05
2.75247e-05
5.18685e-05
2.97515e-05
5.24065e-05
3.21557e-05
5.2992e-05
3.47512e-05
5.36196e-05
3.75466e-05
5.43021e-05
4.05696e-05
5.50335e-05
4.384e-05
5.5827e-05
4.73706e-05
5.66782e-05
5.11813e-05
5.76034e-05
5.52754e-05
5.86004e-05
5.96869e-05
5.96817e-05
6.44708e-05
6.08464e-05
6.96305e-05
6.21148e-05
7.51476e-05
6.34862e-05
8.11167e-05
6.49736e-05
8.7579e-05
6.65861e-05
9.44904e-05
6.8339e-05
0.000101943
7.02342e-05
0.000110017
7.22971e-05
0.000118612
7.45295e-05
0.000127942
7.69509e-05
0.000137938
7.95754e-05
0.000148671
8.2416e-05
0.000160233
8.54943e-05
0.000172583
8.88214e-05
0.000185883
9.24217e-05
0.000200066
9.63091e-05
0.000215283
0.000100506
0.000231499
0.000105033
0.000248794
0.000109912
0.000267205
0.000115168
0.000286698
0.000120819
0.000307364
0.000126888
0.000329132
0.000133398
0.000351971
0.000140368
0.000375845
0.000147817
0.000400618
0.000155762
0.000426121
0.000164213
0.000452139
0.000173175
0.00047835
0.000182645
0.000504326
0.000192609
0.000529511
0.000203038
0.000553184
0.000213883
0.000574428
0.000225074
0.00059208
0.000236509
0.000604698
0.000248054
0.00061049
0.000259531
0.000607276
0.000270713
0.000592401
0.000281314
0.000562704
0.000290977
0.000514426
0.000299289
0.000443227
0.000305787
0.000343851
0.000310045
0.000208052
0.000311333
2.64458e-05
-0.000161932
0.000308889
4.92699e-05
1.98159e-05
-4.8934e-05
4.96337e-05
2.1424e-05
5.00217e-05
2.31638e-05
5.04447e-05
2.5043e-05
5.08967e-05
2.70718e-05
5.13895e-05
2.92622e-05
5.19171e-05
3.1627e-05
5.24916e-05
3.41797e-05
5.31082e-05
3.69281e-05
5.37792e-05
3.99009e-05
5.44989e-05
4.3118e-05
5.52801e-05
4.65912e-05
5.61185e-05
5.03402e-05
5.70295e-05
5.4366e-05
5.80108e-05
5.8703e-05
5.90744e-05
6.34089e-05
6.02191e-05
6.84839e-05
6.14644e-05
7.39042e-05
6.28096e-05
7.97702e-05
6.42674e-05
8.61232e-05
6.58465e-05
9.29106e-05
6.75623e-05
0.000100229
6.94166e-05
0.000108163
7.14347e-05
0.000116595
7.36186e-05
0.000125758
7.59876e-05
0.00013557
7.85559e-05
0.000146103
8.13364e-05
0.000157453
8.43503e-05
0.00016957
8.7609e-05
0.000182626
9.11364e-05
0.00019654
9.4946e-05
0.000211473
9.90607e-05
0.000227385
0.0001035
0.000244354
0.000108285
0.000262422
0.000113442
0.000281544
0.000118987
0.000301822
0.000124943
0.000323178
0.000131333
0.000345585
0.000138176
0.000369006
0.000145489
0.000393309
0.000153288
0.000418326
0.000161584
0.000443848
0.000170382
0.000469559
0.000179678
0.000495038
0.000189456
0.00051974
0.00019969
0.000542961
0.000210331
0.000563799
0.000221309
0.000581118
0.000232524
0.000593501
0.000243846
0.000599193
0.000255101
0.000596055
0.000266066
0.000581482
0.000276464
0.000552367
0.000285948
0.000505022
0.000294114
0.000435169
0.000300508
0.000337612
0.000304683
0.000204103
0.000305861
2.56486e-05
-0.000159031
0.000303314
4.87946e-05
1.94906e-05
-4.8467e-05
4.91496e-05
2.1073e-05
4.95285e-05
2.27845e-05
4.99422e-05
2.46331e-05
5.03846e-05
2.66287e-05
5.08674e-05
2.8783e-05
5.13846e-05
3.11088e-05
5.19484e-05
3.36191e-05
5.25539e-05
3.63209e-05
5.32137e-05
3.92439e-05
5.39219e-05
4.24078e-05
5.46915e-05
4.5824e-05
5.55179e-05
4.95116e-05
5.64165e-05
5.34695e-05
5.73846e-05
5.77329e-05
5.84338e-05
6.23618e-05
5.95624e-05
6.73537e-05
6.07894e-05
7.26793e-05
6.21138e-05
7.84447e-05
6.35478e-05
8.46913e-05
6.50998e-05
9.13579e-05
6.67848e-05
9.85463e-05
6.86045e-05
0.000106343
7.05839e-05
0.000114618
7.27249e-05
0.000123617
7.50469e-05
0.000133249
7.75638e-05
0.000143587
8.02885e-05
0.000154729
8.32421e-05
0.000166617
8.64358e-05
0.000179433
8.98933e-05
0.000193083
9.36285e-05
0.000207739
9.76625e-05
0.00022335
0.000102017
0.000240001
0.00010671
0.000257729
0.000111769
0.000276487
0.00011721
0.000296384
0.000123055
0.000317336
0.000129327
0.000339316
0.000136043
0.000362293
0.000143221
0.000386133
0.000150876
0.000410672
0.00015902
0.000435707
0.000167654
0.000460925
0.000176777
0.000485915
0.000186372
0.000510143
0.000196412
0.000532917
0.00020685
0.000553356
0.000217617
0.000570343
0.000228616
0.000582491
0.000239719
0.000588077
0.000250755
0.000585002
0.000261509
0.000570709
0.000271709
0.000542146
0.000281017
0.000495688
0.00028904
0.000427112
0.000295327
0.000331273
0.000299411
0.000199926
0.000300506
2.43638e-05
-0.000156653
0.000297902
4.82664e-05
1.91723e-05
-4.79475e-05
4.86135e-05
2.07291e-05
4.89847e-05
2.24126e-05
4.93901e-05
2.42309e-05
4.9824e-05
2.61937e-05
5.02978e-05
2.83125e-05
5.08057e-05
3.05998e-05
5.13594e-05
3.30683e-05
5.19544e-05
3.57241e-05
5.26029e-05
3.85977e-05
5.32995e-05
4.17089e-05
5.40569e-05
4.50683e-05
5.48711e-05
4.86947e-05
5.57569e-05
5.25851e-05
5.6712e-05
5.67753e-05
5.77475e-05
6.13279e-05
5.88617e-05
6.62375e-05
6.00729e-05
7.14699e-05
6.13798e-05
7.71366e-05
6.27941e-05
8.3279e-05
6.43237e-05
8.98277e-05
6.5983e-05
9.68888e-05
6.77737e-05
0.000104552
6.972e-05
0.000112673
7.1824e-05
0.000121513
7.41046e-05
0.00013097
7.65755e-05
0.000141116
7.92495e-05
0.000152056
8.21476e-05
0.00016372
8.52809e-05
0.0001763
8.86729e-05
0.000189693
9.23366e-05
0.000204076
9.62948e-05
0.000219392
0.000100566
0.000235729
0.000105171
0.000253125
0.000110135
0.000271525
0.000115474
0.000291048
0.000121211
0.000311602
0.000127366
0.000333164
0.000133957
0.000355705
0.000141002
0.000379092
0.000148515
0.000403163
0.000156507
0.00042772
0.00016498
0.000452457
0.000173931
0.000476971
0.000183345
0.000500737
0.000193194
0.000523078
0.000203432
0.000543129
0.000213992
0.000559798
0.000224778
0.000571722
0.000235666
0.000577212
0.000246489
0.000574211
0.000257036
0.000560204
0.000267043
0.000532196
0.000276179
0.000486627
0.000284059
0.000419335
0.000290237
0.000325243
0.000294229
0.000196148
0.000295258
2.36953e-05
-0.000153681
0.000292622
4.76934e-05
1.88609e-05
-4.73791e-05
4.80346e-05
2.03922e-05
4.83988e-05
2.20483e-05
4.8797e-05
2.38368e-05
4.92227e-05
2.57673e-05
4.96878e-05
2.78513e-05
5.01861e-05
3.01006e-05
5.07298e-05
3.2528e-05
5.13139e-05
3.51384e-05
5.19511e-05
3.79633e-05
5.26356e-05
4.10226e-05
5.33807e-05
4.43257e-05
5.41818e-05
4.78915e-05
5.50544e-05
5.17147e-05
5.59956e-05
5.5832e-05
5.7017e-05
6.03086e-05
5.81165e-05
6.51364e-05
5.93122e-05
7.02763e-05
6.06024e-05
7.58453e-05
6.19986e-05
8.18849e-05
6.35081e-05
8.83175e-05
6.51449e-05
9.52539e-05
6.69102e-05
0.000102786
6.88277e-05
0.000110757
7.08992e-05
0.000119442
7.31431e-05
0.000128727
7.5573e-05
0.000138687
7.82014e-05
0.000149428
8.10488e-05
0.000160873
8.41263e-05
0.000173223
8.7457e-05
0.000186363
9.10545e-05
0.000200479
9.49392e-05
0.000215507
9.91321e-05
0.000231536
0.000103652
0.000248605
0.000108524
0.000266655
0.000113764
0.00028581
0.000119395
0.000305974
0.000125436
0.000327125
0.000131905
0.000349239
0.000138819
0.00037218
0.000146192
0.000395791
0.000154035
0.000419879
0.000162349
0.000444143
0.000171131
0.000468188
0.000180367
0.000491499
0.000190028
0.000513413
0.00020007
0.000533081
0.000210426
0.000549433
0.000221004
0.000561131
0.000231682
0.000566519
0.000242297
0.000563576
0.000252643
0.000549835
0.000262462
0.00052235
0.00027143
0.000477625
0.000279169
0.00041155
0.000285237
0.00031911
0.000289138
0.000192135
0.00029011
2.24968e-05
-0.00015128
0.000287453
4.70812e-05
1.85546e-05
-4.6774e-05
4.74161e-05
2.00609e-05
4.77738e-05
2.16899e-05
4.81648e-05
2.34492e-05
4.85829e-05
2.53481e-05
4.90398e-05
2.73977e-05
4.95294e-05
2.96099e-05
5.00636e-05
3.19968e-05
5.06375e-05
3.45626e-05
5.12634e-05
3.73397e-05
5.1936e-05
4.03476e-05
5.2668e-05
4.35953e-05
5.34557e-05
4.7101e-05
5.4314e-05
5.08577e-05
5.52406e-05
5.49028e-05
5.62468e-05
5.93039e-05
5.73307e-05
6.40504e-05
5.85103e-05
6.90985e-05
5.97836e-05
7.45706e-05
6.11618e-05
8.05085e-05
6.26519e-05
8.68267e-05
6.42674e-05
9.36401e-05
6.60092e-05
0.000101044
6.79003e-05
0.000108867
6.99423e-05
0.0001174
7.2153e-05
0.000126517
7.45456e-05
0.000136294
7.71322e-05
0.000146842
7.99331e-05
0.000158073
8.29591e-05
0.000170198
8.62328e-05
0.00018309
8.97671e-05
0.000196945
9.3584e-05
0.00021169
9.77014e-05
0.000227418
0.00010214
0.000244167
0.000106924
0.000261874
0.000112068
0.000280668
0.000117596
0.00030045
0.000123526
0.000321198
0.000129875
0.000342892
0.000136661
0.000365398
0.000143898
0.000388558
0.000151593
0.000412188
0.000159752
0.00043599
0.000168368
0.000459578
0.000177429
0.000482446
0.000186906
0.000503945
0.000196755
0.000523242
0.000206914
0.000539289
0.000217288
0.000550773
0.000227762
0.000556068
0.000238173
0.000553192
0.000248324
0.000539723
0.000257959
0.000512766
0.000266763
0.00046889
0.000274364
0.000404044
0.000280322
0.000313288
0.000284133
0.000188521
0.000285053
2.19103e-05
-0.000148298
0.000282385
4.64408e-05
1.82539e-05
-4.61382e-05
4.677e-05
1.97356e-05
4.71214e-05
2.13382e-05
4.75055e-05
2.30689e-05
4.79161e-05
2.49367e-05
4.83647e-05
2.69526e-05
4.88453e-05
2.91282e-05
4.93699e-05
3.14754e-05
4.99333e-05
3.39975e-05
5.05481e-05
3.67276e-05
5.12087e-05
3.96852e-05
5.19281e-05
4.28783e-05
5.2702e-05
4.63249e-05
5.35459e-05
5.0016e-05
5.44571e-05
5.39897e-05
5.54472e-05
5.83159e-05
5.65143e-05
6.29817e-05
5.76763e-05
6.79386e-05
5.89313e-05
7.33145e-05
6.02905e-05
7.91514e-05
6.17604e-05
8.53561e-05
6.33542e-05
9.2048e-05
6.50727e-05
9.93253e-05
6.69383e-05
0.000107003
6.8952e-05
0.000115386
7.11314e-05
0.000124339
7.34889e-05
0.000133937
7.60366e-05
0.000144295
7.8794e-05
0.000155316
8.17716e-05
0.000167221
8.49917e-05
0.000179871
8.84673e-05
0.00019347
9.22183e-05
0.000207938
9.62649e-05
0.000223371
0.000100625
0.000239807
0.000105324
0.000257177
0.000110377
0.000275617
0.000115804
0.000295025
0.000121626
0.000315378
0.00012786
0.000336661
0.000134521
0.000358738
0.000141623
0.000381457
0.000149176
0.000404636
0.000157181
0.000427984
0.000165636
0.000451121
0.000174525
0.000473554
0.000183823
0.000494642
0.000193484
0.000513573
0.000203449
0.000529315
0.000213625
0.000540582
0.0002239
0.000545776
0.000234115
0.000542955
0.000244075
0.000529736
0.000253532
0.000503277
0.000262176
0.000460206
0.000269641
0.000396525
0.00027549
0.000307362
0.000279215
0.000184668
0.000280084
2.07839e-05
-0.000145903
0.000277409
4.57774e-05
1.79577e-05
-4.54814e-05
4.61007e-05
1.94153e-05
4.6446e-05
2.09919e-05
4.68235e-05
2.26945e-05
4.7227e-05
2.45319e-05
4.76679e-05
2.65148e-05
4.81403e-05
2.86546e-05
4.86557e-05
3.09628e-05
4.92093e-05
3.34419e-05
4.98131e-05
3.61259e-05
5.04618e-05
3.90341e-05
5.11681e-05
4.21735e-05
5.19282e-05
4.55621e-05
5.27569e-05
4.91886e-05
5.36521e-05
5.30918e-05
5.46252e-05
5.73441e-05
5.56746e-05
6.19302e-05
5.68179e-05
6.67969e-05
5.80535e-05
7.20776e-05
5.93923e-05
7.78144e-05
6.08409e-05
8.39068e-05
6.24122e-05
9.04784e-05
6.41067e-05
9.76304e-05
6.59463e-05
0.000105164
6.79319e-05
0.000113401
7.00805e-05
0.000122191
7.24041e-05
0.000131614
7.49142e-05
0.000141786
7.76299e-05
0.000152601
8.05615e-05
0.00016429
8.37305e-05
0.000176703
8.71493e-05
0.000190052
9.08389e-05
0.000204249
9.48165e-05
0.000219392
9.91024e-05
0.000235522
0.000103719
0.000252561
0.000108683
0.000270656
0.000114013
0.000289696
0.000119731
0.000309663
0.000125851
0.000330543
0.000132391
0.000352202
0.000139363
0.000374489
0.000146776
0.000397227
0.000154632
0.000420133
0.000162929
0.000442831
0.000171651
0.000464838
0.000180773
0.000485529
0.000190252
0.000504104
0.000200028
0.000519552
0.000210012
0.000530612
0.000220094
0.000535716
0.000230117
0.000532957
0.000239892
0.000519997
0.000249176
0.000494042
0.000257663
0.000451784
0.000264995
0.000389284
0.000270738
0.000301749
0.000274378
0.000181215
0.000275198
2.02781e-05
-0.000142933
0.000272524
4.5101e-05
1.76671e-05
-4.4808e-05
4.54195e-05
1.91011e-05
4.57589e-05
2.06523e-05
4.613e-05
2.23273e-05
4.65262e-05
2.41349e-05
4.69593e-05
2.60854e-05
4.74228e-05
2.81901e-05
4.79289e-05
3.04601e-05
4.84721e-05
3.28971e-05
4.9065e-05
3.55358e-05
4.97018e-05
3.83955e-05
5.03954e-05
4.14823e-05
5.11414e-05
4.48139e-05
5.19552e-05
4.83769e-05
5.28341e-05
5.22109e-05
5.379e-05
5.63904e-05
5.48208e-05
6.08977e-05
5.59446e-05
6.56753e-05
5.71594e-05
7.08616e-05
5.84766e-05
7.64992e-05
5.99024e-05
8.24803e-05
6.14497e-05
8.89328e-05
6.31189e-05
9.59608e-05
6.49316e-05
0.000103353
6.68883e-05
0.000111444
6.90057e-05
0.000120074
7.12953e-05
0.000129324
7.37684e-05
0.000139313
7.64432e-05
0.000149927
7.93299e-05
0.000161404
8.24493e-05
0.000173584
8.58141e-05
0.000186688
8.94428e-05
0.000200619
9.33551e-05
0.00021548
9.75685e-05
0.000231309
0.000102106
0.000248025
0.000106984
0.00026578
0.000112221
0.000284461
0.000117837
0.000304049
0.000123847
0.000324534
0.000130269
0.000345782
0.000137114
0.000367644
0.00014439
0.00038995
0.000152102
0.00041242
0.000160244
0.000434686
0.000168804
0.000456275
0.000177755
0.000476572
0.000187057
0.000494794
0.000196649
0.000509949
0.000206447
0.000520798
0.000216341
0.000525805
0.000226178
0.000523095
0.000235773
0.000510372
0.000244888
0.000484892
0.000253224
0.000443403
0.000260425
0.000382022
0.000266063
0.000296025
0.000269622
0.000177513
0.000270395
1.92241e-05
-0.000140563
0.000267723
4.44138e-05
1.7381e-05
-4.41275e-05
4.47263e-05
1.87919e-05
4.50596e-05
2.03181e-05
4.54241e-05
2.19661e-05
4.58133e-05
2.37444e-05
4.62388e-05
2.56631e-05
4.66943e-05
2.77333e-05
4.71913e-05
2.99658e-05
4.77249e-05
3.23615e-05
4.83071e-05
3.49557e-05
4.89323e-05
3.77678e-05
4.9613e-05
4.0803e-05
5.03455e-05
4.40786e-05
5.11442e-05
4.75794e-05
5.2007e-05
5.13454e-05
5.29454e-05
5.54534e-05
5.39577e-05
5.98833e-05
5.50615e-05
6.45731e-05
5.62552e-05
6.96665e-05
5.755e-05
7.52062e-05
5.8952e-05
8.10774e-05
6.04743e-05
8.74122e-05
6.21171e-05
9.43176e-05
6.39017e-05
0.00010157
6.58285e-05
0.000109517
6.79138e-05
0.00011799
7.01689e-05
0.000127069
7.26046e-05
0.000136878
7.52387e-05
0.000147293
7.80809e-05
0.000158562
8.11517e-05
0.000170514
8.44626e-05
0.000183377
8.80336e-05
0.000197048
9.1881e-05
0.000211631
9.60243e-05
0.000227165
0.000100485
0.000243565
0.000105279
0.000260989
0.000110425
0.000279317
0.000115942
0.000298534
0.000121846
0.000318632
0.000128152
0.000339478
0.000134873
0.000360926
0.000142018
0.00038281
0.000149588
0.000404855
0.00015758
0.0004267
0.000165982
0.00044788
0.000174767
0.000467794
0.000183896
0.000485674
0.000193311
0.000500546
0.000202926
0.000511195
0.000212638
0.000516113
0.000222295
0.000513461
0.000231716
0.000500983
0.000240667
0.000475985
0.000248854
0.000435276
0.000255928
0.000375032
0.000261463
0.00029061
0.000264943
0.000174205
0.00026567
1.87855e-05
-0.000137632
0.00026301
4.37226e-05
1.71003e-05
-4.34407e-05
4.40298e-05
1.84885e-05
4.43571e-05
1.99902e-05
4.4715e-05
2.16117e-05
4.5097e-05
2.33613e-05
4.55147e-05
2.52489e-05
4.59616e-05
2.72852e-05
4.64496e-05
2.94809e-05
4.69732e-05
3.1836e-05
4.75449e-05
3.43867e-05
4.81587e-05
3.71521e-05
4.88273e-05
4.01368e-05
4.95462e-05
4.33574e-05
5.03305e-05
4.67972e-05
5.11775e-05
5.04964e-05
5.20987e-05
5.45342e-05
5.30923e-05
5.88881e-05
5.41759e-05
6.34915e-05
5.5348e-05
6.84933e-05
5.66196e-05
7.39365e-05
5.79971e-05
7.96992e-05
5.94933e-05
8.59177e-05
6.11086e-05
9.27019e-05
6.28639e-05
9.98157e-05
6.47597e-05
0.000107621
6.6812e-05
0.000115938
6.90317e-05
0.00012485
7.14293e-05
0.000134481
7.40223e-05
0.000144701
7.68199e-05
0.000155765
7.98421e-05
0.000167493
8.31006e-05
0.000180119
8.66129e-05
0.000193534
9.0398e-05
0.000207846
9.44723e-05
0.000223091
9.88582e-05
0.00023918
0.00010357
0.000256278
0.000108627
0.000274261
0.000114048
0.000293114
0.000119848
0.000312834
0.000126042
0.000333285
0.000132643
0.000354326
0.000139658
0.000375794
0.000147091
0.00039742
0.000154938
0.00041885
0.000163185
0.000439628
0.000171809
0.000459164
0.00018077
0.000476703
0.000190012
0.000491292
0.000199451
0.000501738
0.000208986
0.00050656
0.000218467
0.000503953
0.000227718
0.0004917
0.00023651
0.000467156
0.000244552
0.000427184
0.000251502
0.000368016
0.000256937
0.000285081
0.000260342
0.000170646
0.000261025
1.77987e-05
-0.000135308
0.000258378
4.30284e-05
1.6824e-05
-4.27532e-05
4.33298e-05
1.81898e-05
4.36512e-05
1.96675e-05
4.40027e-05
2.1263e-05
4.43781e-05
2.29844e-05
4.47884e-05
2.48414e-05
4.52277e-05
2.68445e-05
4.5707e-05
2.90041e-05
4.62215e-05
3.13195e-05
4.67827e-05
3.38274e-05
4.73853e-05
3.6547e-05
4.80414e-05
3.9482e-05
4.87472e-05
4.26488e-05
4.95168e-05
4.60286e-05
5.03481e-05
4.96625e-05
5.12521e-05
5.36315e-05
5.22273e-05
5.79107e-05
5.32909e-05
6.24295e-05
5.44413e-05
6.73414e-05
5.56899e-05
7.26898e-05
5.70426e-05
7.83457e-05
5.85122e-05
8.44497e-05
6.00993e-05
9.11144e-05
6.18245e-05
9.80917e-05
6.36884e-05
0.000105757
6.57067e-05
0.000113921
6.78901e-05
0.000122667
7.02488e-05
0.000132122
7.28001e-05
0.00014215
7.55527e-05
0.000153013
7.85263e-05
0.00016452
8.17316e-05
0.000176913
8.51876e-05
0.000190079
8.89095e-05
0.000204122
9.29163e-05
0.000219084
9.72284e-05
0.000234869
0.00010186
0.000251648
0.000106831
0.000269293
0.000112158
0.000287789
0.000117856
0.000307137
0.000123941
0.000327203
0.000130424
0.000347846
0.000137313
0.000368908
0.000144612
0.000390125
0.000152317
0.00041115
0.000160414
0.000431536
0.000168882
0.000450703
0.000177679
0.000467913
0.000186753
0.000482229
0.000196021
0.000492481
0.000205383
0.000497216
0.000214694
0.000494662
0.00022378
0.000482644
0.000232416
0.000458562
0.000240318
0.00041934
0.000247146
0.000361268
0.000252482
0.000279858
0.000255813
0.000167478
0.000256455
1.74241e-05
-0.000132435
0.000253831
4.23376e-05
1.65532e-05
-4.20651e-05
4.26344e-05
1.78972e-05
4.29501e-05
1.93513e-05
4.32957e-05
2.09213e-05
4.36641e-05
2.2615e-05
4.40671e-05
2.44421e-05
4.44978e-05
2.64126e-05
4.49684e-05
2.85368e-05
4.5473e-05
3.08131e-05
4.60241e-05
3.32792e-05
4.66154e-05
3.59538e-05
4.72597e-05
3.88401e-05
4.79522e-05
4.19541e-05
4.87078e-05
4.52752e-05
4.95234e-05
4.88449e-05
5.04106e-05
5.27463e-05
5.13674e-05
5.69523e-05
5.24111e-05
6.13879e-05
5.354e-05
6.62114e-05
5.47652e-05