/*--------------------------------*- C++ -*----------------------------------*\
  =========                 |
  \\      /  F ield         | OpenFOAM: The Open Source CFD Toolbox
   \\    /   O peration     | Website:  https://openfoam.org
    \\  /    A nd           | Version:  6.0
     \\/     M anipulation  |
\*---------------------------------------------------------------------------*/
FoamFile
{
    version     2.0;
    format      ascii;
    class       volVectorField;
    location    "11";
    object      U;
}
// * * * * * * * * * * * * * * * * * * * * * * * * * * * * * * * * * * * * * //

dimensions      [0 1 -1 0 0 0 0];

internalField   nonuniform List<vector> 
62000
(
(0.984816 -0.173151 -2.13987e-21)
(0.984802 -0.173155 1.7836e-21)
(0.984792 -0.17317 1.80211e-21)
(0.984784 -0.173202 -7.82207e-21)
(0.984774 -0.17325 -8.77171e-21)
(0.984764 -0.173307 3.0386e-20)
(0.984754 -0.173367 -3.30253e-20)
(0.984746 -0.173426 1.90888e-20)
(0.98474 -0.17348 -8.75519e-21)
(0.984736 -0.173526 -4.39386e-20)
(0.984735 -0.173568 -4.84069e-21)
(0.984736 -0.173604 6.06396e-20)
(0.984738 -0.173638 1.18867e-20)
(0.98474 -0.17367 -4.16326e-20)
(0.984744 -0.173699 6.37027e-20)
(0.984747 -0.173727 -3.36571e-20)
(0.984751 -0.173754 3.32322e-20)
(0.984755 -0.173778 -3.90692e-20)
(0.984759 -0.1738 1.83703e-20)
(0.984763 -0.173821 -5.5068e-20)
(0.984767 -0.17384 7.06802e-20)
(0.984772 -0.173856 1.87807e-20)
(0.984776 -0.17387 2.54472e-20)
(0.98478 -0.173881 -1.21681e-19)
(0.984785 -0.17389 4.34156e-20)
(0.98479 -0.173896 -2.37427e-20)
(0.984795 -0.1739 1.52491e-21)
(0.984801 -0.173901 -1.53768e-20)
(0.984807 -0.1739 5.22563e-20)
(0.984815 -0.173897 -2.50797e-20)
(0.984823 -0.173893 5.65793e-20)
(0.984834 -0.173887 -1.06232e-19)
(0.984845 -0.173879 1.19175e-20)
(0.984858 -0.17387 -2.12223e-20)
(0.984874 -0.173861 -4.78818e-21)
(0.984895 -0.173853 -1.52134e-20)
(0.984919 -0.173845 -2.21212e-22)
(0.98495 -0.173835 4.92615e-21)
(0.984987 -0.173823 8.9336e-21)
(0.985033 -0.173806 -2.12275e-20)
(0.98509 -0.173783 1.50667e-20)
(0.985159 -0.17375 1.05656e-19)
(0.985243 -0.173705 2.36901e-19)
(0.985344 -0.173641 -1.66055e-19)
(0.985465 -0.173556 -8.51325e-20)
(0.985608 -0.173442 3.62448e-19)
(0.985777 -0.173292 -3.13849e-20)
(0.985978 -0.173095 2.12502e-19)
(0.986217 -0.172836 1.11685e-18)
(0.9865 -0.172491 3.60152e-19)
(0.986838 -0.172019 2.18294e-19)
(0.987233 -0.171378 2.65039e-18)
(0.987698 -0.17048 -7.29674e-19)
(0.988209 -0.169229 -3.77508e-18)
(0.988745 -0.167485 -9.55859e-19)
(0.989276 -0.165042 -4.06024e-18)
(0.989623 -0.161312 3.30719e-19)
(0.990733 -0.156123 4.02126e-19)
(0.988764 -0.14313 -1.76295e-18)
(1.02701 -0.0905795 -2.62724e-19)
(0.984848 -0.173141 -5.80245e-22)
(0.984845 -0.173123 5.53038e-21)
(0.98486 -0.17306 2.25361e-21)
(0.984878 -0.173015 -9.76203e-21)
(0.984888 -0.172998 4.02147e-21)
(0.984891 -0.173009 -2.73897e-20)
(0.984888 -0.173049 2.50651e-20)
(0.984881 -0.173111 1.41579e-20)
(0.984873 -0.173183 -2.63146e-20)
(0.984865 -0.173253 1.3091e-21)
(0.984861 -0.173315 2.47296e-20)
(0.984859 -0.173369 -1.77861e-22)
(0.98486 -0.173415 6.62437e-21)
(0.984863 -0.173457 -5.7776e-20)
(0.984868 -0.173496 1.13703e-19)
(0.984874 -0.173534 -9.92411e-20)
(0.984881 -0.173572 4.53733e-20)
(0.984889 -0.173609 -9.62893e-21)
(0.984899 -0.173646 -2.45818e-20)
(0.984909 -0.173684 6.55482e-20)
(0.984919 -0.173721 -1.01333e-19)
(0.984931 -0.173757 5.72786e-20)
(0.984943 -0.173792 -6.8813e-20)
(0.984955 -0.173827 4.11354e-20)
(0.984968 -0.17386 3.47502e-20)
(0.984981 -0.173893 -2.22942e-20)
(0.984995 -0.173923 1.32966e-21)
(0.985009 -0.173953 2.37724e-20)
(0.985024 -0.173981 1.76897e-20)
(0.985041 -0.174009 -3.0614e-20)
(0.985059 -0.174037 5.95585e-20)
(0.98508 -0.174066 9.13749e-21)
(0.985103 -0.174095 2.35428e-20)
(0.98513 -0.174123 1.91028e-21)
(0.985162 -0.174152 1.71352e-21)
(0.985202 -0.174182 -4.86573e-21)
(0.985252 -0.17421 -1.5093e-20)
(0.985313 -0.174232 -7.50359e-21)
(0.985387 -0.174243 3.23043e-21)
(0.985475 -0.17424 1.57368e-20)
(0.985581 -0.174219 -2.9199e-20)
(0.985708 -0.174175 -3.66184e-21)
(0.985856 -0.174103 -3.04838e-19)
(0.986028 -0.173998 -3.99639e-20)
(0.986228 -0.173856 7.43104e-19)
(0.986458 -0.173672 -3.36432e-19)
(0.986726 -0.173439 -3.03639e-19)
(0.98704 -0.173144 -4.67352e-19)
(0.987413 -0.172758 -4.32902e-20)
(0.98786 -0.172243 5.96605e-21)
(0.988394 -0.171528 -1.12565e-18)
(0.989022 -0.170545 -3.40737e-18)
(0.989756 -0.169147 2.5836e-18)
(0.990532 -0.167201 7.07935e-18)
(0.991287 -0.164543 1.89715e-18)
(0.991955 -0.160986 1.42623e-18)
(0.992042 -0.156001 3.58817e-18)
(0.992604 -0.150711 1.86007e-18)
(0.994631 -0.141016 -3.30957e-18)
(0.995066 -0.125251 -1.0382e-18)
(0.984887 -0.174191 -2.88538e-21)
(0.984908 -0.174161 -3.99776e-22)
(0.984946 -0.174044 4.55852e-22)
(0.984979 -0.173941 2.03081e-21)
(0.985002 -0.173851 5.66721e-21)
(0.985018 -0.173783 -5.37111e-21)
(0.985028 -0.173754 2.8141e-20)
(0.985032 -0.173769 -1.35866e-20)
(0.985032 -0.17382 -7.16246e-21)
(0.985029 -0.173888 -4.23891e-20)
(0.985027 -0.173959 3.56254e-20)
(0.985027 -0.174021 2.54099e-21)
(0.985029 -0.174072 -7.69412e-21)
(0.985033 -0.174113 2.00623e-20)
(0.98504 -0.174148 -3.37684e-20)
(0.985047 -0.174179 5.20209e-22)
(0.985057 -0.17421 -1.42758e-20)
(0.985068 -0.17424 1.03086e-21)
(0.985081 -0.174271 3.23826e-20)
(0.985095 -0.174303 -4.73859e-20)
(0.985112 -0.174336 2.91977e-20)
(0.98513 -0.17437 1.05096e-19)
(0.98515 -0.174405 -1.76381e-20)
(0.985172 -0.17444 -1.36766e-19)
(0.985195 -0.174476 6.89687e-20)
(0.98522 -0.174512 -3.25729e-20)
(0.985246 -0.174549 5.18934e-20)
(0.985273 -0.174586 -3.25108e-20)
(0.985302 -0.174622 -5.44894e-20)
(0.985333 -0.174659 5.0508e-20)
(0.985367 -0.174698 -3.29753e-20)
(0.985404 -0.174737 3.9895e-20)
(0.985443 -0.174776 -9.17525e-20)
(0.985488 -0.174813 6.90435e-20)
(0.985538 -0.174849 -2.9546e-20)
(0.985599 -0.174882 1.3857e-20)
(0.98567 -0.17491 6.36191e-21)
(0.985754 -0.174926 9.79348e-21)
(0.985852 -0.174926 1.91118e-20)
(0.985964 -0.174905 -3.41487e-20)
(0.986091 -0.17486 1.88786e-20)
(0.986236 -0.174786 -3.57005e-20)
(0.986397 -0.174681 2.20735e-19)
(0.986575 -0.174544 1.36817e-19)
(0.986767 -0.174377 -1.26268e-19)
(0.986975 -0.174181 7.63857e-19)
(0.9872 -0.173956 -9.1539e-20)
(0.98745 -0.173698 8.40316e-19)
(0.987732 -0.173385 -1.30411e-18)
(0.988061 -0.172986 -3.66475e-19)
(0.988446 -0.172437 -2.55049e-19)
(0.988901 -0.171677 4.72146e-20)
(0.989438 -0.170574 -1.1663e-18)
(0.99 -0.168996 -9.90722e-20)
(0.990534 -0.166807 2.87075e-18)
(0.991024 -0.163839 1.71517e-18)
(0.990974 -0.159667 1.50289e-18)
(0.991416 -0.155271 4.82443e-18)
(0.992207 -0.148455 -1.3768e-19)
(1.00595 -0.12372 -6.26921e-19)
(0.985074 -0.174923 -2.98133e-21)
(0.985076 -0.174875 9.08412e-21)
(0.985085 -0.174756 -1.40397e-21)
(0.985088 -0.174653 -9.22613e-21)
(0.985084 -0.174549 1.37736e-20)
(0.98508 -0.174444 2.33758e-20)
(0.985079 -0.174365 -3.047e-20)
(0.985077 -0.174337 3.22154e-21)
(0.985074 -0.174365 1.00441e-20)
(0.985071 -0.174435 2.03357e-20)
(0.985069 -0.174529 -3.77854e-20)
(0.98507 -0.174625 -1.10485e-20)
(0.985075 -0.174712 -1.18517e-20)
(0.985084 -0.174788 5.47056e-20)
(0.985096 -0.174853 -3.5658e-20)
(0.985111 -0.174912 7.97444e-20)
(0.985128 -0.174965 -9.52758e-20)
(0.985147 -0.175016 -1.23397e-20)
(0.985168 -0.175066 9.30985e-20)
(0.985191 -0.175114 -3.23914e-20)
(0.985217 -0.175162 -1.14959e-20)
(0.985244 -0.175209 -1.12973e-20)
(0.985274 -0.175255 -9.49306e-20)
(0.985305 -0.1753 5.70305e-20)
(0.985339 -0.175344 -2.03755e-20)
(0.985374 -0.175386 3.59971e-20)
(0.985412 -0.175429 1.5167e-20)
(0.985451 -0.17547 6.61492e-20)
(0.985492 -0.175509 -4.16946e-20)
(0.985536 -0.175548 -4.61058e-20)
(0.985583 -0.175586 6.19767e-20)
(0.985634 -0.175624 -4.77426e-20)
(0.985689 -0.175659 7.19519e-20)
(0.985748 -0.17569 -3.12335e-20)
(0.985815 -0.175715 1.70158e-20)
(0.985893 -0.175735 1.79638e-20)
(0.985984 -0.175746 -1.30444e-21)
(0.98609 -0.175741 -9.47243e-21)
(0.986212 -0.175715 1.2814e-21)
(0.986351 -0.175664 -2.46104e-20)
(0.986508 -0.175584 5.51244e-20)
(0.986686 -0.17547 -1.79162e-20)
(0.986882 -0.175323 -5.54168e-20)
(0.987096 -0.17514 -1.94184e-19)
(0.987326 -0.174926 -2.45991e-19)
(0.98757 -0.174684 -6.18837e-21)
(0.987825 -0.174416 -6.30662e-19)
(0.988097 -0.174118 -7.52519e-19)
(0.988386 -0.173773 -1.09616e-18)
(0.988705 -0.17335 8.39237e-19)
(0.989059 -0.172788 1.10898e-18)
(0.989466 -0.172025 -9.54468e-19)
(0.989943 -0.170929 -1.48234e-18)
(0.990449 -0.169342 -2.96041e-18)
(0.990955 -0.167098 -1.92946e-18)
(0.991509 -0.163934 -4.3912e-18)
(0.99169 -0.159304 -7.9526e-18)
(0.992548 -0.153724 1.50115e-18)
(0.994399 -0.144308 5.48458e-18)
(1.00066 -0.118298 3.26082e-18)
(0.985293 -0.175558 5.92815e-21)
(0.985236 -0.175511 -1.98478e-21)
(0.985203 -0.175418 3.25092e-21)
(0.985175 -0.175346 -4.60865e-21)
(0.985144 -0.175259 1.0124e-20)
(0.985118 -0.175149 -5.04934e-21)
(0.985101 -0.175038 2.56132e-21)
(0.98509 -0.174964 -3.85344e-20)
(0.985081 -0.174948 3.19565e-20)
(0.985073 -0.174993 -6.15647e-20)
(0.985066 -0.175079 6.71557e-20)
(0.985064 -0.175185 -8.04894e-21)
(0.985068 -0.175292 -1.67321e-20)
(0.985078 -0.175391 -7.05624e-21)
(0.985094 -0.17548 -1.15377e-21)
(0.985115 -0.17556 -6.97318e-20)
(0.985142 -0.175635 5.62369e-21)
(0.985172 -0.175706 7.35487e-20)
(0.985205 -0.175775 -2.21784e-20)
(0.985242 -0.175843 -2.16994e-20)
(0.98528 -0.175908 3.78561e-20)
(0.985321 -0.175972 -1.65942e-20)
(0.985363 -0.176033 6.91571e-20)
(0.985407 -0.176092 3.27497e-20)
(0.985453 -0.176148 2.10062e-20)
(0.9855 -0.176201 -7.77712e-20)
(0.985548 -0.176251 -9.9962e-21)
(0.985598 -0.176299 -4.89983e-20)
(0.985649 -0.176344 1.04914e-20)
(0.985703 -0.176386 -1.13722e-20)
(0.98576 -0.176426 -2.96275e-21)
(0.985821 -0.176464 2.91498e-20)
(0.985885 -0.176497 -7.27606e-20)
(0.985955 -0.176524 -1.4846e-21)
(0.986034 -0.176545 -2.14133e-20)
(0.986126 -0.176558 -7.98937e-21)
(0.986233 -0.176559 1.27156e-21)
(0.986358 -0.176542 8.45592e-21)
(0.986504 -0.176502 -3.94997e-20)
(0.986674 -0.176433 -1.90533e-20)
(0.986871 -0.176331 -8.86675e-20)
(0.987097 -0.176191 1.02332e-19)
(0.987355 -0.17601 8.47604e-20)
(0.987644 -0.175785 5.33926e-21)
(0.987966 -0.175514 -2.28932e-19)
(0.988318 -0.175198 -3.58346e-19)
(0.988699 -0.174832 -1.92005e-19)
(0.98911 -0.174409 -3.12064e-19)
(0.989549 -0.173902 1.89688e-19)
(0.990023 -0.173275 -2.3374e-18)
(0.99053 -0.172459 -6.90572e-19)
(0.991087 -0.171384 5.3432e-19)
(0.991702 -0.169911 -7.78993e-19)
(0.992337 -0.167857 -2.97361e-18)
(0.992965 -0.165031 5.33386e-19)
(0.993648 -0.161118 3.26726e-18)
(0.993972 -0.155559 9.55748e-18)
(0.994935 -0.148935 -9.07852e-18)
(0.996963 -0.139126 6.79288e-18)
(0.998602 -0.117486 -3.87526e-18)
(0.985281 -0.176623 -2.29102e-21)
(0.985182 -0.176602 9.20133e-21)
(0.985156 -0.176537 -1.5056e-20)
(0.985148 -0.176499 1.11596e-20)
(0.985135 -0.176446 7.11729e-21)
(0.985126 -0.176349 -7.54789e-21)
(0.985127 -0.176224 5.96745e-22)
(0.985135 -0.176109 -5.48014e-21)
(0.985146 -0.17604 -1.79208e-20)
(0.985154 -0.176032 3.40564e-20)
(0.98516 -0.176075 -5.11578e-20)
(0.985165 -0.176149 4.41296e-20)
(0.985172 -0.176234 3.67992e-20)
(0.985184 -0.176317 -5.65872e-20)
(0.985202 -0.176392 -1.70875e-20)
(0.985227 -0.176459 6.43441e-20)
(0.985259 -0.17652 -7.50139e-20)
(0.985297 -0.176579 9.94359e-20)
(0.98534 -0.176637 -2.01598e-20)
(0.985388 -0.176695 8.13168e-21)
(0.98544 -0.176753 -1.70749e-20)
(0.985495 -0.176811 -1.9364e-20)
(0.985552 -0.176867 -3.20864e-20)
(0.985612 -0.176921 5.17336e-20)
(0.985672 -0.176973 -3.49426e-20)
(0.985734 -0.177022 -2.95106e-20)
(0.985796 -0.17707 5.85235e-20)
(0.98586 -0.177114 -4.74325e-20)
(0.985925 -0.177155 7.25906e-20)
(0.985992 -0.177193 -3.70191e-20)
(0.986061 -0.177229 2.19289e-20)
(0.986133 -0.177262 -2.96252e-20)
(0.98621 -0.177292 2.71648e-20)
(0.986292 -0.177314 -4.73242e-21)
(0.986384 -0.17733 -2.20861e-21)
(0.986489 -0.17734 -5.35414e-22)
(0.986611 -0.177337 1.00247e-20)
(0.986755 -0.177317 -1.36409e-20)
(0.986923 -0.177272 1.02913e-20)
(0.98712 -0.177199 1.97074e-19)
(0.987353 -0.17709 1.17947e-19)
(0.987625 -0.17694 -8.69706e-20)
(0.987942 -0.176743 1.6992e-19)
(0.988306 -0.17649 1.72916e-19)
(0.988721 -0.176177 2.77843e-20)
(0.989188 -0.175796 -6.5018e-19)
(0.989707 -0.175334 1.08534e-18)
(0.990276 -0.174775 1.21979e-18)
(0.990893 -0.174084 8.24962e-19)
(0.991557 -0.173215 1.71654e-18)
(0.992255 -0.172095 -1.43846e-18)
(0.992999 -0.170647 4.80459e-19)
(0.993782 -0.168736 4.8954e-18)
(0.994547 -0.166175 -1.35022e-18)
(0.995255 -0.162795 -1.56705e-18)
(0.995949 -0.158314 3.73958e-18)
(0.99618 -0.152308 -2.41183e-18)
(0.99688 -0.14567 -2.99185e-18)
(0.998725 -0.137195 -1.08278e-17)
(0.996933 -0.118249 1.47201e-19)
(0.984962 -0.17823 2.73545e-21)
(0.984883 -0.178225 -1.22811e-20)
(0.984923 -0.178167 5.97119e-21)
(0.984984 -0.178148 1.10087e-20)
(0.98503 -0.178122 -2.33834e-20)
(0.985073 -0.178048 1.94455e-20)
(0.985124 -0.177926 -1.27675e-20)
(0.985183 -0.17779 1.07071e-20)
(0.985243 -0.177682 1.6583e-20)
(0.985299 -0.177624 -3.93321e-20)
(0.985346 -0.177616 5.5255e-20)
(0.985384 -0.177644 2.16084e-20)
(0.985416 -0.177687 -8.8418e-20)
(0.985445 -0.177731 -1.47313e-20)
(0.985474 -0.177767 4.43249e-20)
(0.985506 -0.177795 2.64601e-20)
(0.985544 -0.177816 -3.19525e-20)
(0.985588 -0.177835 2.61049e-20)
(0.985637 -0.177853 3.74121e-20)
(0.985694 -0.177872 -2.01657e-20)
(0.985755 -0.177893 -1.09164e-20)
(0.985822 -0.177916 3.22559e-20)
(0.985893 -0.177939 6.04486e-20)
(0.985967 -0.177964 -4.82602e-20)
(0.986044 -0.177988 -4.53641e-20)
(0.986123 -0.178012 4.48237e-20)
(0.986203 -0.178035 -3.40466e-20)
(0.986285 -0.178057 -1.02876e-20)
(0.986369 -0.178079 8.58235e-20)
(0.986454 -0.178098 -3.29661e-20)
(0.986542 -0.178116 -1.76524e-20)
(0.986633 -0.178132 2.9438e-20)
(0.986728 -0.178145 1.45206e-20)
(0.986829 -0.178154 -3.98456e-21)
(0.986939 -0.178159 -2.04971e-21)
(0.987062 -0.178158 -2.72071e-21)
(0.987203 -0.178148 5.33769e-21)
(0.987366 -0.178122 -6.98022e-21)
(0.987555 -0.178074 5.80437e-20)
(0.987776 -0.177998 1.01177e-19)
(0.988035 -0.177888 -1.56628e-19)
(0.98834 -0.177736 -1.73227e-19)
(0.988697 -0.177534 -3.44188e-19)
(0.989112 -0.177271 3.91437e-19)
(0.989591 -0.176935 5.18764e-19)
(0.990135 -0.176514 3.55706e-19)
(0.990748 -0.175987 -1.06401e-18)
(0.991427 -0.175329 -1.21827e-18)
(0.992167 -0.1745 1.51149e-18)
(0.992962 -0.173449 2.59826e-18)
(0.993791 -0.172097 3.86018e-19)
(0.994655 -0.170372 -6.69993e-19)
(0.995531 -0.168151 -6.29766e-21)
(0.996346 -0.165263 2.06553e-18)
(0.997046 -0.16158 -2.09486e-18)
(0.997651 -0.156886 -1.26042e-18)
(0.997699 -0.150904 -2.03151e-18)
(0.998092 -0.14475 8.91191e-18)
(0.999832 -0.137421 6.81525e-19)
(0.996073 -0.119535 -7.88356e-21)
(0.984493 -0.18018 -4.67158e-21)
(0.984489 -0.180172 -3.72653e-21)
(0.984621 -0.180103 5.03752e-21)
(0.984762 -0.180084 1.76577e-20)
(0.984878 -0.180071 -3.77224e-20)
(0.984981 -0.180015 4.27581e-20)
(0.985089 -0.179906 -2.0412e-21)
(0.985205 -0.179767 -2.7529e-21)
(0.985324 -0.17964 -1.46952e-20)
(0.98544 -0.179552 3.4462e-20)
(0.985546 -0.179509 -5.23109e-20)
(0.985639 -0.1795 1.93783e-20)
(0.985717 -0.179507 -5.34564e-22)
(0.985784 -0.179516 2.75229e-20)
(0.985841 -0.179516 1.1807e-20)
(0.985895 -0.179505 -6.50933e-20)
(0.985947 -0.179483 5.45606e-20)
(0.986001 -0.179454 1.9375e-20)
(0.986059 -0.179424 -5.5432e-20)
(0.986123 -0.179393 2.65071e-20)
(0.986192 -0.179363 1.05349e-20)
(0.986267 -0.179337 -8.65351e-21)
(0.986348 -0.179312 6.38718e-21)
(0.986435 -0.17929 -6.05224e-21)
(0.986526 -0.17927 -4.72337e-20)
(0.986621 -0.179251 2.73651e-20)
(0.986719 -0.179234 -3.67033e-20)
(0.986821 -0.179218 6.00627e-20)
(0.986925 -0.179203 -1.49176e-20)
(0.987033 -0.179189 -6.19448e-21)
(0.987143 -0.179175 -2.98988e-21)
(0.987258 -0.179161 2.3501e-20)
(0.987378 -0.179147 -1.08298e-20)
(0.987503 -0.17913 2.57834e-21)
(0.987638 -0.179111 -4.65961e-21)
(0.987786 -0.179092 -1.34676e-20)
(0.987951 -0.179065 3.00453e-20)
(0.988136 -0.179026 -6.21307e-21)
(0.988348 -0.178968 -8.44668e-20)
(0.988591 -0.178884 3.78434e-20)
(0.988872 -0.17877 -1.00524e-19)
(0.9892 -0.178616 1.55076e-19)
(0.989581 -0.178411 -2.82285e-19)
(0.990023 -0.178144 -6.63051e-19)
(0.990532 -0.177798 -1.85686e-19)
(0.991115 -0.177356 3.5902e-19)
(0.991771 -0.176792 1.25981e-18)
(0.992502 -0.176077 -3.23853e-19)
(0.993298 -0.175164 -4.75515e-19)
(0.994152 -0.174 -1.06284e-18)
(0.995034 -0.172507 9.93463e-20)
(0.995942 -0.170619 2.65655e-18)
(0.996839 -0.168228 -2.54807e-18)
(0.997641 -0.165181 1.89552e-18)
(0.998285 -0.16139 -4.08254e-18)
(0.998786 -0.156689 -1.0824e-18)
(0.998693 -0.150882 -5.09912e-18)
(0.998907 -0.145163 -7.10024e-18)
(1.00067 -0.138397 -1.19956e-18)
(0.995869 -0.120594 -9.70945e-19)
(0.98407 -0.182222 -2.30372e-21)
(0.984157 -0.182195 1.97169e-21)
(0.984368 -0.182104 9.87082e-21)
(0.984574 -0.182071 1.54707e-20)
(0.984744 -0.182056 -4.55154e-20)
(0.984895 -0.18201 2.59651e-20)
(0.985047 -0.181912 -4.5706e-20)
(0.985207 -0.181781 7.07898e-20)
(0.985374 -0.181652 -3.27839e-20)
(0.985542 -0.181553 5.62213e-21)
(0.985705 -0.181495 5.93479e-20)
(0.985857 -0.181469 -1.32772e-19)
(0.985992 -0.18146 8.81914e-20)
(0.98611 -0.181451 1.08684e-20)
(0.986212 -0.181432 1.70162e-20)
(0.986302 -0.181399 -7.42684e-20)
(0.986383 -0.181351 3.49404e-20)
(0.986458 -0.181291 -4.05937e-20)
(0.986532 -0.181224 7.54182e-20)
(0.986607 -0.181152 -1.27718e-20)
(0.986685 -0.181079 -8.58699e-20)
(0.986768 -0.181006 3.25479e-20)
(0.986857 -0.180935 -2.29352e-21)
(0.986952 -0.180865 -9.51612e-20)
(0.987054 -0.180797 7.34731e-20)
(0.987161 -0.180731 4.68602e-20)
(0.987274 -0.180668 2.46138e-20)
(0.987393 -0.180607 -3.28161e-20)
(0.987517 -0.180549 -2.68782e-20)
(0.987645 -0.180493 1.15179e-20)
(0.98778 -0.180439 1.0773e-20)
(0.98792 -0.180387 -8.76815e-21)
(0.988065 -0.180336 -3.90552e-22)
(0.988218 -0.180285 8.15534e-21)
(0.988381 -0.180235 -2.75399e-21)
(0.988558 -0.180187 4.59206e-20)
(0.988751 -0.180135 3.452e-21)
(0.988963 -0.180074 -6.78368e-20)
(0.9892 -0.179998 -1.50427e-20)
(0.989467 -0.179899 -1.20052e-19)
(0.98977 -0.179773 2.37634e-19)
(0.990117 -0.17961 3.63809e-20)
(0.990515 -0.179399 1.78122e-19)
(0.990973 -0.179125 -1.21056e-19)
(0.991496 -0.17877 -4.13012e-19)
(0.992092 -0.178313 -1.4848e-18)
(0.992761 -0.177727 -2.27968e-19)
(0.993505 -0.176975 1.19229e-18)
(0.994314 -0.176011 -1.04814e-18)
(0.995178 -0.17478 -4.09002e-18)
(0.996064 -0.173205 3.6314e-18)
(0.996967 -0.171227 -4.77208e-18)
(0.997845 -0.16875 3.22983e-18)
(0.998609 -0.165635 1.8044e-18)
(0.999197 -0.161818 8.25394e-18)
(0.999631 -0.157158 4.59756e-19)
(0.999479 -0.151483 3.02938e-18)
(0.99964 -0.145989 3.38644e-18)
(1.00149 -0.139373 -2.43104e-18)
(0.996123 -0.121237 3.14169e-20)
(0.983796 -0.184158 3.26025e-21)
(0.983955 -0.184113 1.14594e-21)
(0.984215 -0.184007 -1.1735e-20)
(0.984458 -0.183958 1.11196e-20)
(0.984659 -0.183935 -4.89337e-21)
(0.984838 -0.18389 8.63093e-21)
(0.985016 -0.1838 2.8775e-21)
(0.985202 -0.183677 -4.21342e-20)
(0.985399 -0.183553 1.8309e-20)
(0.985603 -0.183455 -1.18047e-20)
(0.985808 -0.183396 7.52017e-21)
(0.986007 -0.183368 2.70021e-20)
(0.986194 -0.183357 -5.1848e-21)
(0.986365 -0.183348 1.50244e-20)
(0.986519 -0.18333 -6.20379e-20)
(0.986655 -0.183295 2.4115e-20)
(0.986776 -0.183242 9.79002e-21)
(0.986885 -0.183174 -2.4596e-20)
(0.986986 -0.183092 4.69449e-20)
(0.987081 -0.183001 1.31626e-20)
(0.987175 -0.182903 -2.68731e-21)
(0.987269 -0.182802 -1.44704e-20)
(0.987368 -0.182697 4.99009e-20)
(0.987471 -0.182592 -1.25397e-19)
(0.98758 -0.182487 6.43029e-20)
(0.987697 -0.182381 2.28238e-20)
(0.987821 -0.182278 -3.19435e-20)
(0.987952 -0.182176 4.78568e-20)
(0.98809 -0.182077 -2.52068e-20)
(0.988237 -0.18198 -7.12716e-21)
(0.988391 -0.181886 -7.70979e-21)
(0.988553 -0.181795 1.27733e-21)
(0.988724 -0.181705 4.47928e-21)
(0.988903 -0.181617 1.08e-20)
(0.989095 -0.181531 -4.02283e-20)
(0.9893 -0.18145 5.77269e-22)
(0.989523 -0.181368 -5.96162e-20)
(0.989765 -0.181279 1.8073e-19)
(0.990031 -0.181178 7.65745e-20)
(0.990324 -0.181057 -1.8672e-21)
(0.990652 -0.18091 9.1622e-20)
(0.991021 -0.18073 3.2907e-20)
(0.991437 -0.180503 3.80074e-19)
(0.991909 -0.180214 -1.57084e-19)
(0.992442 -0.179843 -2.27959e-19)
(0.993044 -0.179368 1.40523e-18)
(0.993715 -0.178757 -2.00294e-18)
(0.994457 -0.177974 -3.39857e-19)
(0.995259 -0.176969 -8.95277e-20)
(0.996112 -0.175688 2.73045e-18)
(0.996983 -0.174056 -1.12725e-18)
(0.997865 -0.172018 2.5104e-18)
(0.998716 -0.169486 -5.06596e-18)
(0.999445 -0.166329 -1.34567e-18)
(1 -0.162493 4.60339e-18)
(1.00041 -0.157844 -1.94461e-18)
(1.00027 -0.152207 5.70435e-18)
(1.00045 -0.146768 1.23089e-18)
(1.00239 -0.140096 9.57118e-18)
(0.996674 -0.121493 1.52169e-18)
(0.983678 -0.185891 -7.35653e-22)
(0.983876 -0.185833 -2.88025e-21)
(0.984155 -0.185719 -2.4946e-21)
(0.98441 -0.185658 2.39042e-20)
(0.984622 -0.185626 -1.32025e-20)
(0.984811 -0.185579 -1.56501e-20)
(0.985 -0.185494 -5.7365e-21)
(0.985198 -0.185377 -2.34061e-20)
(0.985409 -0.18526 1.48837e-20)
(0.985631 -0.185168 2.39064e-21)
(0.98586 -0.185114 1.11725e-21)
(0.986091 -0.185092 5.79425e-20)
(0.986316 -0.185089 -4.03886e-20)
(0.986532 -0.185091 -4.4917e-21)
(0.986733 -0.185085 4.22967e-20)
(0.986917 -0.185063 -2.31153e-20)
(0.987084 -0.185023 -8.18972e-21)
(0.987234 -0.184964 1.29539e-20)
(0.987371 -0.18489 3.79958e-20)
(0.987496 -0.184802 1.72803e-20)
(0.987614 -0.184702 2.81459e-21)
(0.987728 -0.184594 -4.62074e-20)
(0.987841 -0.184478 2.00221e-20)
(0.987956 -0.184357 3.24563e-20)
(0.988074 -0.184232 -6.97061e-20)
(0.988199 -0.184103 1.74016e-20)
(0.988331 -0.183973 -6.74493e-20)
(0.988472 -0.183843 4.88179e-20)
(0.988622 -0.183713 2.95704e-20)
(0.988781 -0.183584 -4.37364e-20)
(0.988951 -0.183458 -1.53736e-20)
(0.989131 -0.183333 1.12044e-20)
(0.989323 -0.183209 2.48898e-21)
(0.989526 -0.183087 9.41151e-21)
(0.989743 -0.182967 1.72811e-20)
(0.989976 -0.182853 3.24352e-20)
(0.990228 -0.182739 -1.85394e-20)
(0.9905 -0.18262 -6.7283e-20)
(0.990796 -0.18249 -2.33244e-20)
(0.991119 -0.182341 3.91227e-20)
(0.991475 -0.182168 -4.5556e-19)
(0.991869 -0.181962 4.20164e-20)
(0.992309 -0.18171 -6.13513e-19)
(0.992799 -0.181395 1.25776e-18)
(0.993347 -0.180999 -2.1054e-19)
(0.993958 -0.180495 -3.9954e-20)
(0.994634 -0.179851 1.25058e-19)
(0.995375 -0.17903 1.50266e-18)
(0.996171 -0.177981 2.68808e-18)
(0.997013 -0.176648 -2.63972e-18)
(0.997869 -0.174961 -3.78147e-18)
(0.998733 -0.172864 -2.12415e-18)
(0.999566 -0.170276 4.76088e-18)
(1.00028 -0.167069 -2.7127e-18)
(1.00083 -0.16319 -7.29087e-18)
(1.00125 -0.158505 -2.74194e-18)
(1.00115 -0.152825 -5.55159e-18)
(1.00138 -0.147343 -2.73453e-18)
(1.00339 -0.14052 -8.29109e-18)
(0.997381 -0.121445 3.33973e-18)
(0.983669 -0.187389 9.65892e-22)
(0.983878 -0.187328 -2.88333e-21)
(0.984155 -0.187217 1.02591e-20)
(0.984409 -0.187151 2.64687e-21)
(0.984618 -0.187114 -1.39053e-20)
(0.984806 -0.187067 -1.58098e-20)
(0.984996 -0.186984 3.71561e-20)
(0.985196 -0.186872 -4.00503e-20)
(0.98541 -0.186759 -9.437e-21)
(0.985639 -0.186673 2.42003e-20)
(0.985878 -0.186624 2.16361e-20)
(0.986125 -0.186609 6.34012e-20)
(0.986373 -0.186616 -3.65524e-20)
(0.986618 -0.18663 -5.86516e-20)
(0.986855 -0.186641 1.2804e-20)
(0.98708 -0.186638 -4.31875e-20)
(0.98729 -0.186619 3.30833e-20)
(0.987483 -0.186582 -4.93919e-20)
(0.987661 -0.186528 1.04421e-20)
(0.987823 -0.186459 -1.22201e-20)
(0.987974 -0.186376 -5.3967e-21)
(0.988114 -0.18628 -3.14565e-20)
(0.988249 -0.186173 7.9428e-21)
(0.988382 -0.186056 6.81997e-20)
(0.988514 -0.185931 -2.08931e-20)
(0.98865 -0.185798 7.72088e-21)
(0.988792 -0.18566 1.73019e-20)
(0.988942 -0.185518 -1.44266e-20)
(0.989101 -0.185373 -2.41508e-21)
(0.989271 -0.185226 1.2608e-20)
(0.989452 -0.185079 1.07189e-20)
(0.989647 -0.184931 -4.36566e-21)
(0.989855 -0.184782 -5.9919e-21)
(0.990078 -0.184633 6.27331e-21)
(0.990317 -0.184486 -3.06684e-20)
(0.990575 -0.184343 -1.04925e-20)
(0.990854 -0.184201 -5.24947e-21)
(0.991156 -0.184052 -9.25952e-20)
(0.991482 -0.183893 1.09622e-19)
(0.991836 -0.183714 -7.74155e-20)
(0.992223 -0.183511 -1.93619e-21)
(0.992648 -0.183273 -1.22575e-20)
(0.993115 -0.18299 2.29188e-19)
(0.993631 -0.182642 -5.75399e-19)
(0.994202 -0.182209 8.51928e-19)
(0.99483 -0.181666 -5.77558e-19)
(0.995519 -0.180978 1.79205e-18)
(0.996269 -0.180108 -5.66231e-19)
(0.997069 -0.179004 -1.40335e-18)
(0.99791 -0.17761 2.61534e-18)
(0.998762 -0.175858 8.02529e-19)
(0.999622 -0.173692 2.91586e-19)
(1.00045 -0.171036 7.34545e-19)
(1.00117 -0.167758 2.63528e-18)
(1.00173 -0.163807 -2.21805e-19)
(1.00219 -0.159043 -2.31656e-18)
(1.00215 -0.153272 2.81539e-18)
(1.00243 -0.147701 8.23131e-19)
(1.00448 -0.140707 1.26789e-18)
(0.998174 -0.12119 -2.35876e-18)
(0.983708 -0.188676 1.82954e-21)
(0.983911 -0.188614 -1.53687e-21)
(0.984179 -0.188507 1.40335e-21)
(0.984424 -0.188439 8.92339e-21)
(0.984626 -0.188398 1.28343e-20)
(0.984809 -0.18835 -4.98112e-20)
(0.984995 -0.188269 3.57152e-20)
(0.985193 -0.18816 7.26782e-21)
(0.985406 -0.188051 -2.32916e-21)
(0.985634 -0.187969 -1.55415e-20)
(0.985875 -0.187926 4.60299e-20)
(0.986126 -0.187917 -1.54335e-20)
(0.986384 -0.187933 -2.02425e-20)
(0.986645 -0.187959 -5.69212e-20)
(0.986903 -0.187984 1.10652e-19)
(0.987157 -0.188001 -2.37868e-20)
(0.987401 -0.188004 -1.86754e-20)
(0.987632 -0.187992 -4.99872e-20)
(0.987849 -0.187965 5.37407e-20)
(0.98805 -0.187923 2.67004e-20)
(0.988237 -0.187866 -1.3897e-20)
(0.988411 -0.187797 1.7324e-20)
(0.988575 -0.187713 -7.59293e-20)
(0.988732 -0.187616 7.98124e-21)
(0.988885 -0.187508 3.67859e-20)
(0.989037 -0.187388 -5.90494e-21)
(0.989193 -0.187259 -8.37965e-20)
(0.989354 -0.187122 1.37143e-20)
(0.989524 -0.186978 5.95075e-20)
(0.989704 -0.186828 -1.39141e-20)
(0.989897 -0.186674 -1.92333e-20)
(0.990104 -0.186517 1.0032e-20)
(0.990327 -0.186355 1.20117e-20)
(0.990566 -0.18619 9.52443e-22)
(0.990825 -0.186024 2.74932e-21)
(0.991105 -0.185861 -1.4806e-20)
(0.991409 -0.185695 1.11327e-19)
(0.991738 -0.185522 5.22904e-20)
(0.992093 -0.185336 -3.88563e-20)
(0.992479 -0.185129 1.82721e-19)
(0.992899 -0.184894 5.17238e-20)
(0.993356 -0.184624 -1.12298e-19)
(0.993857 -0.184304 -9.49274e-20)
(0.994405 -0.183917 -3.26073e-19)
(0.995005 -0.183441 -1.23756e-18)
(0.995661 -0.18285 1.0969e-18)
(0.996374 -0.182109 -1.91693e-18)
(0.997144 -0.18118 -1.60452e-18)
(0.99796 -0.18001 3.25489e-21)
(0.998814 -0.178546 -2.44047e-18)
(0.999677 -0.176717 3.61381e-18)
(1.00055 -0.17447 4.61658e-18)
(1.00139 -0.171729 -3.81693e-18)
(1.00213 -0.168363 -3.45397e-18)
(1.00272 -0.164316 1.46065e-18)
(1.00323 -0.159449 8.91379e-18)
(1.00324 -0.15356 -2.22265e-18)
(1.00356 -0.147885 2.17919e-18)
(1.00564 -0.140711 3.5924e-18)
(0.99899 -0.12079 -1.60635e-18)
(0.983749 -0.189774 -2.00419e-21)
(0.983938 -0.189716 2.18355e-21)
(0.984196 -0.189617 1.47986e-20)
(0.984434 -0.189549 -1.92089e-20)
(0.984628 -0.189506 3.45754e-20)
(0.984805 -0.189457 -5.03982e-20)
(0.984986 -0.189376 1.41779e-20)
(0.985181 -0.189269 -6.26575e-22)
(0.985391 -0.189163 3.04914e-20)
(0.985616 -0.189083 -1.59999e-20)
(0.985855 -0.189043 4.51525e-21)
(0.986105 -0.189039 4.38395e-21)
(0.986364 -0.189061 -6.95409e-20)
(0.98663 -0.189095 2.13889e-20)
(0.986898 -0.189132 4.57015e-20)
(0.987168 -0.189164 8.40306e-22)
(0.987434 -0.189186 -6.9732e-20)
(0.987694 -0.189196 2.89262e-20)
(0.987943 -0.189195 1.20347e-19)
(0.98818 -0.189182 -7.87815e-20)
(0.988404 -0.189155 -5.41303e-20)
(0.988613 -0.189117 4.38103e-20)
(0.98881 -0.189064 2.50695e-20)
(0.988997 -0.188997 2.41433e-20)
(0.989176 -0.188917 -4.86105e-20)
(0.989351 -0.188823 -8.73568e-20)
(0.989526 -0.188716 6.77776e-20)
(0.989704 -0.188598 7.38414e-20)
(0.989888 -0.188469 1.19309e-20)
(0.990081 -0.188331 -3.70765e-20)
(0.990287 -0.188184 1.03727e-20)
(0.990507 -0.18803 1.31135e-20)
(0.990744 -0.187867 -2.13246e-20)
(0.990999 -0.187697 -6.55606e-21)
(0.991275 -0.187523 2.20353e-21)
(0.991575 -0.187348 1.33148e-20)
(0.991902 -0.187168 1.43274e-20)
(0.992257 -0.186976 -4.04658e-20)
(0.992641 -0.186768 6.18811e-20)
(0.993058 -0.186536 -2.85831e-20)
(0.993511 -0.186273 -4.58155e-20)
(0.994004 -0.18597 -1.48403e-20)
(0.99454 -0.185613 4.37004e-19)
(0.995125 -0.185184 6.84453e-19)
(0.995762 -0.184662 6.87861e-19)
(0.996453 -0.184017 -1.47199e-18)
(0.997199 -0.183218 -9.58772e-21)
(0.997999 -0.182222 7.27678e-19)
(0.998843 -0.180981 -4.13318e-19)
(0.999724 -0.179437 2.81174e-18)
(1.00061 -0.177523 -1.48146e-18)
(1.00151 -0.175185 -4.33819e-18)
(1.00238 -0.172349 3.70708e-19)
(1.00314 -0.168881 4.25029e-18)
(1.00379 -0.164725 -2.14231e-18)
(1.00434 -0.15974 -2.09946e-18)
(1.00441 -0.153725 -2.56845e-18)
(1.00476 -0.147944 -5.9008e-18)
(1.00684 -0.140605 -5.80738e-18)
(0.999816 -0.120305 3.63226e-18)
(0.983771 -0.190716 -1.72588e-21)
(0.983945 -0.190661 2.47854e-21)
(0.984196 -0.190569 5.13324e-22)
(0.984428 -0.190502 9.29139e-21)
(0.984617 -0.190458 -1.40021e-20)
(0.984789 -0.190409 -2.83343e-20)
(0.984967 -0.190328 1.01617e-20)
(0.985159 -0.190222 -1.3065e-20)
(0.985366 -0.190117 2.84786e-20)
(0.985589 -0.190039 -5.55707e-21)
(0.985824 -0.190001 -1.78722e-20)
(0.98607 -0.19 1.48933e-20)
(0.986326 -0.190025 2.30076e-20)
(0.986589 -0.190065 6.07977e-20)
(0.986859 -0.19011 -1.09168e-19)
(0.987134 -0.190152 5.38067e-20)
(0.987412 -0.190188 6.97104e-21)
(0.98769 -0.190216 -4.89724e-20)
(0.987962 -0.190237 -2.79393e-20)
(0.988228 -0.190248 9.01647e-20)
(0.988483 -0.19025 -8.91077e-20)
(0.988726 -0.190241 2.72853e-20)
(0.988957 -0.190221 -5.98556e-20)
(0.989176 -0.190187 9.98844e-20)
(0.989385 -0.19014 -1.93554e-20)
(0.989588 -0.190078 -4.43441e-20)
(0.989787 -0.190002 3.76147e-20)
(0.989986 -0.189912 5.65637e-20)
(0.990189 -0.189809 -4.46584e-20)
(0.9904 -0.189693 2.24159e-20)
(0.990621 -0.189565 -5.88184e-20)
(0.990857 -0.189425 1.02118e-21)
(0.991109 -0.189272 1.30639e-20)
(0.99138 -0.189109 -6.27294e-21)
(0.991675 -0.188936 -2.4754e-21)
(0.991995 -0.188759 2.63417e-20)
(0.992344 -0.188572 -5.09926e-20)
(0.992723 -0.188369 2.30417e-20)
(0.993135 -0.188146 -2.96554e-20)
(0.993583 -0.187894 -7.20892e-20)
(0.99407 -0.187607 -6.47154e-20)
(0.994598 -0.187274 6.26398e-20)
(0.995173 -0.186882 -2.45353e-19)
(0.995798 -0.186412 -5.18304e-19)
(0.996475 -0.185842 5.41051e-20)