/*--------------------------------*- C++ -*----------------------------------*\
  =========                 |
  \\      /  F ield         | OpenFOAM: The Open Source CFD Toolbox
   \\    /   O peration     | Website:  https://openfoam.org
    \\  /    A nd           | Version:  6.0
     \\/     M anipulation  |
\*---------------------------------------------------------------------------*/
FoamFile
{
    version     2.0;
    format      ascii;
    class       surfaceScalarField;
    location    "1.28";
    object      phi;
}
// * * * * * * * * * * * * * * * * * * * * * * * * * * * * * * * * * * * * * //

dimensions      [0 3 -1 0 0 0 0];

internalField   nonuniform List<scalar> 
26699
(
2.0051e-05
0.005201
3.777e-10
4.0126e-05
0.0051116
5.9639e-05
0.0049351
7.8186e-05
0.0046741
9.5415e-05
0.0043332
0.00011102
0.0039182
0.00012472
0.0034362
0.00013626
0.0028953
0.00014546
0.002305
0.00015183
0.0016755
0.00015719
0.0010154
0.00046495
3.4447e-05
2.0051e-05
0.0051809
1.1771e-09
4.0128e-05
0.0050916
5.964e-05
0.0049156
7.819e-05
0.0046556
9.5417e-05
0.004316
0.00011102
0.0039026
0.00012471
0.0034225
0.00013624
0.0028838
0.00014544
0.0022958
0.00015112
0.0016698
0.00015897
0.0010075
0.00055884
6.5078e-05
2.0051e-05
0.0051609
2.0348e-09
4.0129e-05
0.0050715
5.9643e-05
0.004896
7.8193e-05
0.004637
9.542e-05
0.0042988
0.00011102
0.003887
0.00012471
0.0034088
0.00013622
0.0028723
0.00014544
0.0022866
0.0001504
0.0016648
0.00016031
0.00099764
0.00062891
9.0234e-05
2.0052e-05
0.0051408
2.899e-09
4.013e-05
0.0050514
5.9645e-05
0.0048765
7.8196e-05
0.0046185
9.5423e-05
0.0042815
0.00011102
0.0038714
0.0001247
0.0033951
0.0001362
0.0028608
0.00014546
0.0022773
0.00014972
0.0016606
0.00016112
0.00098624
0.0006796
0.00011043
2.0052e-05
0.0051208
3.764e-09
4.0132e-05
0.0050313
5.9647e-05
0.004857
7.8199e-05
0.0045999
9.5425e-05
0.0042643
0.00011103
0.0038558
0.0001247
0.0033814
0.00013617
0.0028493
0.0001455
0.002268
0.00014909
0.001657
0.00016143
0.00097391
0.00071458
0.00012645
2.0052e-05
0.0051007
4.6297e-09
4.0133e-05
0.0050112
5.9649e-05
0.0048375
7.8202e-05
0.0045814
9.5428e-05
0.0042471
0.00011103
0.0038402
0.0001247
0.0033678
0.00013615
0.0028379
0.00014556
0.0022586
0.00014854
0.001654
0.0001613
0.00096115
0.00073689
0.00013899
2.0053e-05
0.0050807
5.4963e-09
4.0134e-05
0.0049912
5.9652e-05
0.004818
7.8205e-05
0.0045628
9.5431e-05
0.0042299
0.00011103
0.0038246
0.00012469
0.0033541
0.00013612
0.0028264
0.00014563
0.0022491
0.00014809
0.0016515
0.00016084
0.00094841
0.00074912
0.0001486
2.0053e-05
0.0050606
6.3636e-09
4.0136e-05
0.0049711
5.9654e-05
0.0047985
7.8207e-05
0.0045443
9.5434e-05
0.0042126
0.00011103
0.003809
0.00012469
0.0033404
0.00013609
0.002815
0.0001457
0.0022394
0.00014774
0.0016495
0.00016012
0.00093602
0.00075345
0.0001558
2.0053e-05
0.0050405
7.2319e-09
4.0137e-05
0.004951
5.9656e-05
0.0047789
7.821e-05
0.0045257
9.5437e-05
0.0041954
0.00011103
0.0037934
0.00012469
0.0033268
0.00013606
0.0028037
0.00014578
0.0022297
0.00014749
0.0016478
0.00015924
0.00092427
0.00075169
0.000161
2.0053e-05
0.0050205
8.1011e-09
4.0139e-05
0.0049309
5.9659e-05
0.0047594
7.8213e-05
0.0045071
9.544e-05
0.0041782
0.00011103
0.0037778
0.00012469
0.0033131
0.00013603
0.0027923
0.00014586
0.0022199
0.00014735
0.0016463
0.00015827
0.00091335
0.00074535
0.00016461
2.0054e-05
0.0050004
8.9713e-09
4.014e-05
0.0049108
5.9661e-05
0.0047399
7.8216e-05
0.0044886
9.5442e-05
0.004161
0.00011104
0.0037622
0.0001247
0.0032995
0.000136
0.002781
0.00014593
0.00221
0.00014731
0.0016449
0.00015728
0.00090339
0.00073568
0.00016695
2.0054e-05
0.0049804
9.8426e-09
4.0141e-05
0.0048907
5.9663e-05
0.0047204
7.8219e-05
0.00447
9.5446e-05
0.0041437
0.00011104
0.0037466
0.0001247
0.0032858
0.00013597
0.0027698
0.00014599
0.0021999
0.00014736
0.0016435
0.0001563
0.00089444
0.00072368
0.0001683
2.0054e-05
0.0049603
1.0715e-08
4.0143e-05
0.0048707
5.9666e-05
0.0047008
7.8222e-05
0.0044515
9.5449e-05
0.0041265
0.00011104
0.003731
0.0001247
0.0032721
0.00013593
0.0027585
0.00014604
0.0021898
0.00014749
0.0016421
0.00015539
0.00088655
0.00071016
0.0001689
2.0054e-05
0.0049402
1.1588e-08
4.0144e-05
0.0048506
5.9668e-05
0.0046813
7.8225e-05
0.0044329
9.5452e-05
0.0041093
0.00011104
0.0037154
0.0001247
0.0032585
0.0001359
0.0027473
0.00014608
0.0021797
0.00014769
0.0016405
0.00015456
0.00087968
0.00069578
0.00016894
2.0055e-05
0.0049202
1.2463e-08
4.0145e-05
0.0048305
5.967e-05
0.0046618
7.8228e-05
0.0044144
9.5455e-05
0.0040921
0.00011104
0.0036999
0.00012471
0.0032448
0.00013587
0.0027362
0.00014611
0.0021694
0.00014794
0.0016387
0.00015383
0.00087379
0.00068101
0.00016859
2.0055e-05
0.0049001
1.3339e-08
4.0147e-05
0.0048104
5.9673e-05
0.0046423
7.8231e-05
0.0043958
9.5458e-05
0.0040748
0.00011105
0.0036843
0.00012471
0.0032312
0.00013584
0.002725
0.00014612
0.0021591
0.00014822
0.0016365
0.00015321
0.0008688
0.00066625
0.00016797
2.0055e-05
0.00488
1.4216e-08
4.0148e-05
0.0047903
5.9675e-05
0.0046227
7.8234e-05
0.0043772
9.5462e-05
0.0040576
0.00011105
0.0036687
0.00012472
0.0032175
0.00013582
0.0027139
0.00014612
0.0021488
0.00014854
0.0016341
0.00015271
0.00086463
0.00065177
0.00016719
2.0055e-05
0.00486
1.5095e-08
4.0149e-05
0.0047702
5.9677e-05
0.0046032
7.8238e-05
0.0043587
9.5465e-05
0.0040404
0.00011105
0.0036531
0.00012473
0.0032038
0.00013579
0.0027029
0.00014611
0.0021385
0.00014887
0.0016314
0.00015231
0.00086119
0.00063776
0.00016632
2.0056e-05
0.0048399
1.5975e-08
4.0151e-05
0.0047501
5.968e-05
0.0045837
7.8241e-05
0.0043401
9.5469e-05
0.0040231
0.00011105
0.0036375
0.00012473
0.0031901
0.00013577
0.0026918
0.00014608
0.0021282
0.00014921
0.0016282
0.00015202
0.00085837
0.00062435
0.00016543
2.0056e-05
0.0048198
1.6857e-08
4.0152e-05
0.00473
5.9682e-05
0.0045642
7.8244e-05
0.0043216
9.5472e-05
0.0040059
0.00011105
0.0036219
0.00012474
0.0031764
0.00013575
0.0026808
0.00014605
0.0021179
0.00014954
0.0016247
0.00015183
0.00085608
0.00061162
0.00016456
2.0056e-05
0.0047997
1.774e-08
4.0154e-05
0.0047099
5.9684e-05
0.0045446
7.8247e-05
0.004303
9.5476e-05
0.0039887
0.00011106
0.0036064
0.00012475
0.0031627
0.00013574
0.0026698
0.000146
0.0021077
0.00014986
0.0016209
0.00015172
0.00085422
0.00059959
0.00016375
2.0057e-05
0.0047797
1.8624e-08
4.0155e-05
0.0046898
5.9687e-05
0.0045251
7.825e-05
0.0042844
9.548e-05
0.0039715
0.00011106
0.0035908
0.00012476
0.003149
0.00013572
0.0026589
0.00014595
0.0020974
0.00015017
0.0016167
0.00015168
0.0008527
0.00058828
0.000163
2.0057e-05
0.0047596
1.9511e-08
4.0156e-05
0.0046697
5.9689e-05
0.0045056
7.8253e-05
0.0042659
9.5484e-05
0.0039542
0.00011106
0.0035752
0.00012477
0.0031353
0.00013572
0.0026479
0.00014589
0.0020873
0.00015045
0.0016121
0.00015171
0.00085144
0.00057765
0.00016234
2.0057e-05
0.0047395
2.0399e-08
4.0158e-05
0.0046496
5.9692e-05
0.004486
7.8256e-05
0.0042473
9.5488e-05
0.003937
0.00011106
0.0035596
0.00012478
0.0031216
0.00013571
0.002637
0.00014583
0.0020771
0.00015071
0.0016072
0.00015178
0.00085037
0.00056766
0.00016177
2.0057e-05
0.0047194
2.1288e-08
4.0159e-05
0.0046295
5.9694e-05
0.0044665
7.8259e-05
0.0042287
9.5492e-05
0.0039198
0.00011106
0.0035441
0.00012479
0.0031079
0.00013571
0.0026261
0.00014577
0.0020671
0.00015095
0.001602
0.0001519
0.00084943
0.00055829
0.00016128
2.0058e-05
0.0046993
2.218e-08
4.016e-05
0.0046094
5.9697e-05
0.004447
7.8262e-05
0.0042102
9.5496e-05
0.0039025
0.00011106
0.0035285
0.0001248
0.0030941
0.00013571
0.0026152
0.00014571
0.0020571
0.00015117
0.0015966
0.00015204
0.00084855
0.00054946
0.00016087
2.0058e-05
0.0046793
2.3073e-08
4.0162e-05
0.0045893
5.9699e-05
0.0044274
7.8265e-05
0.0041916
9.55e-05
0.0038853
0.00011107
0.0035129
0.00012481
0.0030804
0.00013571
0.0026043
0.00014565
0.0020471
0.00015136
0.0015909
0.00015221
0.0008477
0.00054112
0.00016054
2.0058e-05
0.0046592
2.3969e-08
4.0163e-05
0.0045692
5.9702e-05
0.0044079
7.8269e-05
0.004173
9.5505e-05
0.0038681
0.00011107
0.0034974
0.00012482
0.0030666
0.00013572
0.0025934
0.00014559
0.0020373
0.00015153
0.0015849
0.00015239
0.00084683
0.00053323
0.00016028
2.0058e-05
0.0046391
2.4866e-08
4.0165e-05
0.0045491
5.9704e-05
0.0043883
7.8272e-05
0.0041545
9.551e-05
0.0038508
0.00011107
0.0034818
0.00012483
0.0030529
0.00013573
0.0025825
0.00014553
0.0020275
0.00015167
0.0015788
0.00015258
0.00084593
0.00052573
0.00016008
2.0059e-05
0.004619
2.5765e-08
4.0166e-05
0.004529
5.9707e-05
0.0043688
7.8275e-05
0.0041359
9.5515e-05
0.0038336
0.00011107
0.0034662
0.00012484
0.0030391
0.00013575
0.0025716
0.00014548
0.0020177
0.0001518
0.0015725
0.00015277
0.00084495
0.00051857
0.00015993
2.0059e-05
0.0045989
2.6667e-08
4.0167e-05
0.0045089
5.9709e-05
0.0043493
7.8278e-05
0.0041173
9.552e-05
0.0038163
0.00011107
0.0034507
0.00012485
0.0030253
0.00013576
0.0025607
0.00014543
0.0020081
0.00015191
0.001566
0.00015296
0.0008439
0.00051171
0.00015982
2.0059e-05
0.0045788
2.7571e-08
4.0169e-05
0.0044888
5.9712e-05
0.0043297
7.8281e-05
0.0040988
9.5525e-05
0.0037991
0.00011107
0.0034351
0.00012486
0.0030115
0.00013578
0.0025497
0.00014539
0.0019985
0.00015201
0.0015594
0.00015315
0.00084276
0.00050512
0.00015975
2.006e-05
0.0045588
2.8476e-08
4.017e-05
0.0044687
5.9715e-05
0.0043102
7.8285e-05
0.0040802
9.553e-05
0.0037819
0.00011108
0.0034196
0.00012487
0.0029977
0.0001358
0.0025388
0.00014536
0.0019889
0.00015209
0.0015527
0.00015334
0.00084151
0.00049875
0.0001597
2.006e-05
0.0045387
2.9385e-08
4.0171e-05
0.0044485
5.9718e-05
0.0042906
7.8288e-05
0.0040616
9.5535e-05
0.0037646
0.00011108
0.0034041
0.00012489
0.0029839
0.00013582
0.0025279
0.00014533
0.0019794
0.00015217
0.0015458
0.00015351
0.00084017
0.00049259
0.00015968
2.006e-05
0.0045186
3.0295e-08
4.0173e-05
0.0044284
5.972e-05
0.0042711
7.8291e-05
0.0040431
9.5541e-05
0.0037474
0.00011108
0.0033885
0.0001249
0.0029701
0.00013585
0.0025169
0.0001453
0.0019699
0.00015223
0.0015389
0.00015369
0.00083871
0.00048661
0.00015967
2.0061e-05
0.0044985
3.1208e-08
4.0174e-05
0.0044083
5.9723e-05
0.0042515
7.8294e-05
0.0040245
9.5547e-05
0.0037301
0.00011108
0.003373
0.00012491
0.0029563
0.00013587
0.002506
0.00014528
0.0019605
0.00015229
0.0015319
0.00015385
0.00083715
0.00048078
0.00015968
2.0061e-05
0.0044784
3.2124e-08
4.0176e-05
0.0043882
5.9726e-05
0.004232
7.8297e-05
0.0040059
9.5553e-05
0.0037128
0.00011108
0.0033575
0.00012492
0.0029425
0.0001359
0.002495
0.00014527
0.0019512
0.00015234
0.0015248
0.00015401
0.00083549
0.00047509
0.00015969
2.0061e-05
0.0044583
3.3042e-08
4.0177e-05
0.0043681
5.9729e-05
0.0042124
7.8301e-05
0.0039873
9.5559e-05
0.0036956
0.00011109
0.0033419
0.00012493
0.0029286
0.00013593
0.002484
0.00014526
0.0019418
0.00015239
0.0015177
0.00015416
0.00083373
0.00046953
0.00015972
2.0062e-05
0.0044382
3.3962e-08
4.0179e-05
0.004348
5.9732e-05
0.0041929
7.8304e-05
0.0039688
9.5566e-05
0.0036783
0.00011109
0.0033264
0.00012494
0.0029148
0.00013596
0.002473
0.00014525
0.0019325
0.00015244
0.0015105
0.0001543
0.00083187
0.00046409
0.00015974
2.0062e-05
0.0044181
3.4885e-08
4.018e-05
0.0043278
5.9735e-05
0.0041733
7.8307e-05
0.0039502
9.5572e-05
0.0036611
0.00011109
0.0033109
0.00012495
0.0029009
0.00013599
0.0024619
0.00014525
0.0019233
0.00015248
0.0015032
0.00015443
0.00082992
0.00045875
0.00015977
2.0062e-05
0.004398
3.5811e-08
4.0181e-05
0.0043077
5.9738e-05
0.0041538
7.8311e-05
0.0039316
9.5579e-05
0.0036438
0.0001111
0.0032954
0.00012496
0.002887
0.00013602
0.0024509
0.00014525
0.001914
0.00015252
0.001496
0.00015456
0.00082787
0.00045351
0.0001598
2.0063e-05
0.0043779
3.674e-08
4.0183e-05
0.0042876
5.9741e-05
0.0041342
7.8314e-05
0.0039131
9.5586e-05
0.0036265
0.0001111
0.0032799
0.00012497
0.0028732
0.00013605
0.0024398
0.00014526
0.0019048
0.00015256
0.0014887
0.00015469
0.00082575
0.00044836
0.00015983
2.0063e-05
0.0043578
3.7672e-08
4.0184e-05
0.0042675
5.9744e-05
0.0041146
7.8317e-05
0.0038945
9.5593e-05
0.0036092
0.00011111
0.0032643
0.00012498
0.0028593
0.00013609
0.0024287
0.00014527
0.0018957
0.0001526
0.0014813
0.00015481
0.00082354
0.0004433
0.00015987
2.0063e-05
0.0043377
3.8607e-08
4.0186e-05
0.0042474
5.9747e-05
0.0040951
7.8321e-05
0.0038759
9.56e-05
0.003592
0.00011111
0.0032488
0.00012499
0.0028454
0.00013612
0.0024176
0.00014528
0.0018865
0.00015264
0.001474
0.00015492
0.00082126
0.00043833
0.0001599
2.0064e-05
0.0043176
3.9544e-08
4.0187e-05
0.0042272
5.975e-05
0.0040755
7.8324e-05
0.0038573
9.5608e-05
0.0035747
0.00011112
0.0032333
0.000125
0.0028315
0.00013615
0.0024064
0.00014529
0.0018774
0.00015268
0.0014666
0.00015503
0.0008189
0.00043343
0.00015993
2.0064e-05
0.0042975
4.0485e-08
4.0189e-05
0.0042071
5.9753e-05
0.004056
7.8328e-05
0.0038388
9.5615e-05
0.0035574
0.00011112
0.0032178
0.00012502
0.0028176
0.00013619
0.0023952
0.00014531
0.0018682
0.00015271
0.0014592
0.00015514
0.00081647
0.00042862
0.00015995
2.0065e-05
0.0042774
4.1429e-08
4.019e-05
0.004187
5.9757e-05
0.0040364
7.8332e-05
0.0038202
9.5623e-05
0.0035401
0.00011113
0.0032023
0.00012503
0.0028037
0.00013622
0.002384
0.00014533
0.0018591
0.00015275
0.0014518
0.00015524
0.00081398
0.00042388
0.00015998
2.0065e-05
0.0042573
4.2376e-08
4.0192e-05
0.0041669
5.976e-05
0.0040168
7.8335e-05
0.0038016
9.5631e-05
0.0035228
0.00011114
0.0031868
0.00012504
0.0027898
0.00013626
0.0023728
0.00014534
0.00185
0.00015278
0.0014443
0.00015534
0.00081142
0.00041921
0.00016001
2.0065e-05
0.0042372
4.3326e-08
4.0193e-05
0.0041467
5.9763e-05
0.0039973
7.8339e-05
0.003783
9.5639e-05
0.0035055
0.00011115
0.0031713
0.00012505
0.0027759
0.00013629
0.0023616
0.00014536
0.001841
0.00015282
0.0014369
0.00015544
0.0008088
0.00041462
0.00016003
2.0066e-05
0.0042171
4.4279e-08
4.0195e-05
0.0041266
5.9767e-05
0.0039777
7.8343e-05
0.0037645
9.5648e-05
0.0034882
0.00011116
0.0031558
0.00012506
0.002762
0.00013633
0.0023503
0.00014538
0.0018319
0.00015286
0.0014294
0.00015553
0.00080612
0.00041009
0.00016006
2.0066e-05
0.004197
4.5236e-08
4.0197e-05
0.0041065
5.9771e-05
0.0039581
7.8348e-05
0.0037459
9.5656e-05
0.0034709
0.00011117
0.0031403
0.00012508
0.0027481
0.00013636
0.002339
0.00014541
0.0018229
0.00015289
0.0014219
0.00015563
0.00080339
0.00040564
0.00016008
2.0067e-05
0.0041768
4.6196e-08
4.0198e-05
0.0040863
5.9774e-05
0.0039385
7.8352e-05
0.0037273
9.5665e-05
0.0034536
0.00011118
0.0031247
0.00012509
0.0027342
0.00013639
0.0023277
0.00014543
0.0018138
0.00015293
0.0014144
0.00015572
0.0008006
0.00040125
0.0001601
2.0067e-05
0.0041567
4.716e-08
4.02e-05
0.0040662
5.9778e-05
0.003919
7.8357e-05
0.0037087
9.5674e-05
0.0034363
0.00011119
0.0031092
0.0001251
0.0027203
0.00013643
0.0023164
0.00014545
0.0018048
0.00015296
0.0014069
0.0001558
0.00079776
0.00039692
0.00016013
2.0068e-05
0.0041366
4.8127e-08
4.0202e-05
0.0040461
5.9782e-05
0.0038994
7.8362e-05
0.0036901
9.5684e-05
0.0034189
0.0001112
0.0030937
0.00012512
0.0027064
0.00013646
0.0023051
0.00014547
0.0017958
0.00015299
0.0013994
0.00015589
0.00079486
0.00039266
0.00016015
2.0068e-05
0.0041165
4.9097e-08
4.0203e-05
0.0040259
5.9786e-05
0.0038798
7.8367e-05
0.0036716
9.5693e-05
0.0034016
0.00011122
0.0030782
0.00012513
0.0026925
0.00013649
0.0022937
0.0001455
0.0017868
0.00015303
0.0013919
0.00015597
0.00079192
0.00038847
0.00016017
2.0069e-05
0.0040964
5.007e-08
4.0205e-05
0.0040058
5.979e-05
0.0038602
7.8372e-05
0.003653
9.5703e-05
0.0033843
0.00011123
0.0030627
0.00012514
0.0026786
0.00013652
0.0022823
0.00014552
0.0017778
0.00015306
0.0013843
0.00015605
0.00078893
0.00038433
0.00016019
2.0069e-05
0.0040763
5.1047e-08
4.0207e-05
0.0039857
5.9794e-05
0.0038406
7.8377e-05
0.0036344
9.5713e-05
0.0033669
0.00011125
0.0030471
0.00012516
0.0026647
0.00013655
0.0022709
0.00014554
0.0017688
0.00015309
0.0013768
0.00015613
0.00078589
0.00038025
0.00016021
2.007e-05
0.0040561
5.2026e-08
4.0209e-05
0.0039655
5.9799e-05
0.003821
7.8383e-05
0.0036158
9.5723e-05
0.0033496
0.00011126
0.0030316
0.00012517
0.0026507
0.00013659
0.0022595
0.00014556
0.0017598
0.00015312
0.0013692
0.00015621
0.0007828
0.00037624
0.00016022
2.0071e-05
0.004036
5.3009e-08
4.0211e-05
0.0039454
5.9803e-05
0.0038014
7.8389e-05
0.0035972
9.5734e-05
0.0033323
0.00011128
0.003016
0.00012519
0.0026368
0.00013662
0.0022481
0.00014559
0.0017509
0.00015316
0.0013616
0.00015628
0.00077968
0.00037228
0.00016024
2.0071e-05
0.0040159
5.3994e-08
4.0213e-05
0.0039252
5.9808e-05
0.0037818
7.8396e-05
0.0035786
9.5744e-05
0.0033149
0.00011129
0.0030005
0.0001252
0.0026229
0.00013665
0.0022367
0.00014561
0.0017419
0.00015319
0.0013541
0.00015636
0.0007765
0.00036838
0.00016026
2.0072e-05
0.0039958
5.4981e-08
4.0216e-05
0.0039051
5.9813e-05
0.0037622
7.8402e-05
0.00356
9.5755e-05
0.0032976
0.00011131
0.0029849
0.00012522
0.002609
0.00013667
0.0022252
0.00014563
0.0017329
0.00015322
0.0013465
0.00015643
0.00077329
0.00036453
0.00016028
2.0073e-05
0.0039756
5.5971e-08
4.0218e-05
0.003885
5.9818e-05
0.0037426
7.8409e-05
0.0035415
9.5767e-05
0.0032802
0.00011132
0.0029694
0.00012523
0.0025951
0.0001367
0.0022137
0.00014566
0.001724
0.00015325
0.0013389
0.0001565
0.00077004
0.00036073
0.00016029
2.0073e-05
0.0039555
5.6963e-08
4.022e-05
0.0038648
5.9823e-05
0.003723
7.8417e-05
0.0035229
9.5778e-05
0.0032628
0.00011134
0.0029538
0.00012525
0.0025812
0.00013673
0.0022022
0.00014568
0.001715
0.00015328
0.0013313
0.00015657
0.00076674
0.00035699
0.00016031
2.0074e-05
0.0039354
5.7956e-08
4.0223e-05
0.0038447
5.9828e-05
0.0037034
7.8424e-05
0.0035043
9.579e-05
0.0032455
0.00011136
0.0029383
0.00012526
0.0025673
0.00013676
0.0021907
0.0001457
0.0017061
0.00015331
0.0013237
0.00015664
0.00076341
0.0003533
0.00016033
2.0075e-05
0.0039152
5.895e-08
4.0225e-05
0.0038245
5.9833e-05
0.0036838
7.8432e-05
0.0034857
9.5801e-05
0.0032281
0.00011138
0.0029227
0.00012527
0.0025534
0.00013679
0.0021792
0.00014573
0.0016971
0.00015334
0.0013161
0.0001567
0.00076004
0.00034966
0.00016034
2.0076e-05
0.0038951
5.9945e-08
4.0228e-05
0.0038044
5.9839e-05
0.0036642
7.8441e-05
0.0034671
9.5813e-05
0.0032107
0.00011139
0.0029071
0.00012529
0.0025395
0.00013681
0.0021677
0.00014575
0.0016882
0.00015336
0.0013085
0.00015677
0.00075664
0.00034607
0.00016036
2.0077e-05
0.003875
6.094e-08
4.0231e-05
0.0037842
5.9845e-05
0.0036446
7.8449e-05
0.0034485
9.5825e-05
0.0031934
0.00011141
0.0028915
0.0001253
0.0025256
0.00013684
0.0021562
0.00014578
0.0016793
0.00015339
0.0013009
0.00015683
0.0007532
0.00034253
0.00016038
2.0078e-05
0.0038548
6.1934e-08
4.0234e-05
0.003764
5.9851e-05
0.003625
7.8458e-05
0.0034299
9.5837e-05
0.003176
0.00011143
0.0028759
0.00012531
0.0025117
0.00013686
0.0021446
0.0001458
0.0016703
0.00015342
0.0012932
0.0001569
0.00074972
0.00033903
0.00016039
2.0079e-05
0.0038347
6.2927e-08
4.0237e-05
0.0037439
5.9857e-05
0.0036054
7.8467e-05
0.0034112
9.5849e-05
0.0031586
0.00011144
0.0028603
0.00012533
0.0024978
0.00013689
0.0021331
0.00014582
0.0016614
0.00015345
0.0012856
0.00015696
0.00074621
0.00033558
0.00016041
2.008e-05
0.0038145
6.3918e-08
4.0241e-05
0.0037237
5.9863e-05
0.0035857
7.8476e-05
0.0033926
9.5861e-05
0.0031412
0.00011146
0.0028447
0.00012534
0.002484
0.00013691
0.0021215
0.00014585
0.0016525
0.00015348
0.001278
0.00015702
0.00074267
0.00033218
0.00016042
2.0081e-05
0.0037944
6.4907e-08
4.0244e-05
0.0037036
5.9869e-05
0.0035661
7.8485e-05
0.003374
9.5873e-05
0.0031238
0.00011148
0.0028291
0.00012535
0.0024701
0.00013694
0.0021099
0.00014587
0.0016435
0.0001535
0.0012703
0.00015708
0.0007391
0.00032881
0.00016044
2.0083e-05
0.0037742
6.5892e-08
4.0247e-05
0.0036834
5.9876e-05
0.0035465
7.8495e-05
0.0033554
9.5886e-05
0.0031064
0.00011149
0.0028135
0.00012537
0.0024562
0.00013696
0.0020983
0.0001459
0.0016346
0.00015353
0.0012627
0.00015714
0.00073549
0.00032549
0.00016046
2.0084e-05
0.0037541
6.6873e-08
4.0251e-05
0.0036632
5.9883e-05
0.0035269
7.8504e-05
0.0033368
9.5897e-05
0.003089
0.00011151
0.0027979
0.00012538
0.0024423
0.00013698
0.0020867
0.00014592
0.0016256
0.00015356
0.0012551
0.00015719
0.00073186
0.00032221
0.00016047
2.0085e-05
0.0037339
6.7848e-08
4.0255e-05
0.0036431
5.9889e-05
0.0035072
7.8514e-05
0.0033181
9.5909e-05
0.0030716
0.00011152
0.0027823
0.00012539
0.0024285
0.00013701
0.0020751
0.00014595
0.0016167
0.00015358
0.0012474
0.00015725
0.0007282
0.00031897
0.00016049
2.0087e-05
0.0037138
6.8818e-08
4.0259e-05
0.0036229
5.9896e-05
0.0034876
7.8524e-05
0.0032995
9.5921e-05
0.0030543
0.00011154
0.0027667
0.0001254
0.0024146
0.00013703
0.0020634
0.00014597
0.0016078
0.00015361
0.0012398
0.0001573
0.0007245
0.00031577
0.0001605
2.0088e-05
0.0036936
6.9781e-08
4.0263e-05
0.0036027
5.9903e-05
0.003468
7.8534e-05
0.0032809
9.5933e-05
0.0030369
0.00011156
0.0027511
0.00012541
0.0024008
0.00013705
0.0020518
0.000146
0.0015988
0.00015364
0.0012322
0.00015736
0.00072078
0.00031261
0.00016052
2.009e-05
0.0036735
7.0736e-08
4.0267e-05
0.0035825
5.991e-05
0.0034483
7.8543e-05
0.0032623
9.5944e-05
0.0030195
0.00011157
0.0027354
0.00012543
0.0023869
0.00013708
0.0020402
0.00014602
0.0015899
0.00015366
0.0012245
0.00015741
0.00071704
0.00030949
0.00016053
2.0091e-05
0.0036533
7.1683e-08
4.0271e-05
0.0035624
5.9917e-05
0.0034287
7.8553e-05
0.0032436
9.5955e-05
0.003002
0.00011159
0.0027198
0.00012544
0.0023731
0.0001371
0.0020285
0.00014605
0.0015809
0.00015369
0.0012169
0.00015746
0.00071326
0.0003064
0.00016055
2.0093e-05
0.0036331
7.2622e-08
4.0275e-05
0.0035422
5.9924e-05
0.003409
7.8563e-05
0.003225
9.5966e-05
0.0029846
0.0001116
0.0027042
0.00012545
0.0023592
0.00013712
0.0020168
0.00014607
0.001572
0.00015372
0.0012092
0.00015751
0.00070947
0.00030335
0.00016057
2.0094e-05
0.003613
7.355e-08
4.0279e-05
0.003522
5.9931e-05
0.0033894
7.8572e-05
0.0032063
9.5977e-05
0.0029672
0.00011161
0.0026885
0.00012546
0.0023454
0.00013715
0.0020051
0.0001461
0.001563
0.00015374
0.0012016
0.00015756
0.00070564
0.00030033
0.00016058
2.0096e-05
0.0035928
7.4467e-08
4.0283e-05
0.0035018
5.9938e-05
0.0033697
7.8582e-05
0.0031877
9.5987e-05
0.0029498
0.00011163
0.0026729
0.00012547
0.0023315
0.00013717
0.0019934
0.00014612
0.0015541
0.00015377
0.0011939
0.00015761
0.0007018
0.00029734
0.0001606
2.0098e-05
0.0035726
7.5374e-08
4.0287e-05
0.0034816
5.9944e-05
0.00335
7.8591e-05
0.003169
9.5997e-05
0.0029324
0.00011164
0.0026572
0.00012548
0.0023177
0.00013719
0.0019817
0.00014615
0.0015451
0.00015379
0.0011863
0.00015766
0.00069793
0.00029439
0.00016061
2.0099e-05
0.0035524
7.627e-08
4.0292e-05
0.0034614
5.9951e-05
0.0033304
7.86e-05
0.0031504
9.6007e-05
0.002915
0.00011166
0.0026416
0.00012549
0.0023038
0.00013721
0.00197
0.00014618
0.0015362
0.00015382
0.0011786
0.00015771
0.00069404
0.00029147
0.00016063
2.0101e-05
0.0035323
7.7153e-08
4.0296e-05
0.0034412
5.9958e-05
0.0033107
7.8609e-05
0.0031317
9.6017e-05
0.0028976
0.00011167
0.0026259
0.0001255
0.00229
0.00013723
0.0019583
0.0001462
0.0015272
0.00015384
0.001171
0.00015776
0.00069012
0.00028858
0.00016065
2.0103e-05
0.0035121
7.8024e-08
4.03e-05
0.003421
5.9964e-05
0.0032911
7.8618e-05
0.0031131
9.6026e-05
0.0028802
0.00011168
0.0026103
0.00012552
0.0022762
0.00013726
0.0019465
0.00014623
0.0015182
0.00015387
0.0011634
0.0001578
0.00068619
0.00028572
0.00016066
2.0104e-05
0.0034919
7.8883e-08
4.0304e-05
0.0034008
5.9971e-05
0.0032714
7.8627e-05
0.0030944
9.6036e-05
0.0028628
0.0001117
0.0025946
0.00012553
0.0022623
0.00013728
0.0019348
0.00014626
0.0015092
0.00015389
0.0011557
0.00015785
0.00068223
0.0002829
0.00016068
2.0106e-05
0.0034717
7.973e-08
4.0309e-05
0.0033806
5.9977e-05
0.0032517
7.8635e-05
0.0030758
9.6045e-05
0.0028454
0.00011171
0.002579
0.00012554
0.0022485
0.0001373
0.001923
0.00014628
0.0015003
0.00015392
0.0011481
0.00015789
0.00067826
0.0002801
0.0001607
2.0108e-05
0.0034515
8.0564e-08
4.0313e-05
0.0033604
5.9984e-05
0.0032321
7.8644e-05
0.0030571
9.6054e-05
0.002828
0.00011172
0.0025633
0.00012555
0.0022347
0.00013732
0.0019113
0.00014631
0.0014913
0.00015394
0.0011405
0.00015794
0.00067426
0.00027732
0.00016071
2.0109e-05
0.0034313
8.1386e-08
4.0317e-05
0.0033402
5.999e-05
0.0032124
7.8652e-05
0.0030385
9.6062e-05
0.0028106
0.00011173
0.0025476
0.00012556
0.0022209
0.00013734
0.0018995
0.00014634
0.0014823
0.00015397
0.0011328
0.00015798
0.00067025
0.00027458
0.00016073
2.0111e-05
0.0034111
8.2196e-08
4.0321e-05
0.00332
5.9996e-05
0.0031927
7.866e-05
0.0030198
9.6071e-05
0.0027932
0.00011175
0.0025319
0.00012557
0.002207
0.00013737
0.0018877
0.00014637
0.0014733
0.00015399
0.0011252
0.00015803
0.00066621
0.00027186
0.00016075
2.0113e-05
0.0033909
8.2994e-08
4.0325e-05
0.0032998
6.0001e-05
0.003173
7.8668e-05
0.0030011
9.6079e-05
0.0027757
0.00011176
0.0025163
0.00012558
0.0021932
0.00013739
0.0018759
0.0001464
0.0014643
0.00015402
0.0011176
0.00015807
0.00066216
0.00026917
0.00016076
2.0114e-05
0.0033707
8.3782e-08
4.0328e-05
0.0032796
6.0007e-05
0.0031534
7.8675e-05
0.0029825
9.6087e-05
0.0027583
0.00011177
0.0025006
0.0001256
0.0021794
0.00013741
0.0018641
0.00014642
0.0014552
0.00015404
0.00111
0.00015811
0.00065809
0.0002665
0.00016078
2.0116e-05
0.0033505
8.4559e-08
4.0332e-05
0.0032594
6.0013e-05
0.0031337
7.8683e-05
0.0029638
9.6096e-05
0.0027409
0.00011179
0.0024849
0.00012561
0.0021656
0.00013743
0.0018522
0.00014645
0.0014462
0.00015407
0.0011024
0.00015815
0.00065401
0.00026386
0.0001608
2.0117e-05
0.0033303
8.5326e-08
4.0336e-05
0.0032391
6.0018e-05
0.003114
7.869e-05
0.0029451
9.6104e-05
0.0027235
0.0001118
0.0024692
0.00012562
0.0021517
0.00013745
0.0018404
0.00014648
0.0014372
0.00015409
0.0010947
0.0001582
0.00064991
0.00026124
0.00016081
2.0119e-05
0.0033101
8.6084e-08
4.0339e-05
0.0032189
6.0023e-05
0.0030943
7.8698e-05
0.0029264
9.6112e-05
0.0027061
0.00011181
0.0024535
0.00012563
0.0021379
0.00013748
0.0018286
0.00014651
0.0014282
0.00015412
0.0010871
0.00015824
0.00064579
0.00025864
0.00016083
2.012e-05
0.0032899
8.6834e-08
4.0343e-05
0.0031987
6.0029e-05
0.0030746
7.8705e-05
0.0029078
9.612e-05
0.0026887
0.00011182
0.0024378
0.00012565
0.0021241
0.0001375
0.0018167
0.00014654
0.0014191
0.00015414
0.0010795
0.00015828
0.00064166
0.00025607
0.00016085
2.0122e-05
0.0032697
8.7576e-08
4.0346e-05
0.0031785
6.0034e-05
0.0030549
7.8712e-05
0.0028891
9.6128e-05
0.0026713
0.00011184
0.0024221
0.00012566
0.0021103
0.00013752
0.0018049
0.00014657
0.0014101
0.00015417
0.0010719
0.00015832
0.00063751
0.00025351
0.00016087
2.0123e-05
0.0032495
8.8313e-08
4.035e-05
0.0031583
6.0039e-05
0.0030352
7.8719e-05
0.0028704
9.6136e-05
0.0026538
0.00011185
0.0024064
0.00012567
0.0020964
0.00013754
0.001793
0.0001466
0.001401
0.00015419
0.0010643
0.00015836
0.00063335
0.00025098
0.00016089
2.0124e-05
0.0032293
8.9044e-08
4.0353e-05
0.003138
6.0043e-05
0.0030156
7.8726e-05
0.0028517
9.6144e-05
0.0026364
0.00011186
0.0023906
0.00012569
0.0020826
0.00013756
0.0017811
0.00014663
0.0013919
0.00015422
0.0010567
0.0001584
0.00062918
0.00024847
0.00016091
2.0125e-05
0.0032091
8.977e-08
4.0356e-05
0.0031178
6.0048e-05
0.0029959
7.8733e-05
0.002833
9.6152e-05
0.002619
0.00011188
0.0023749
0.0001257
0.0020688
0.00013759
0.0017692
0.00014666
0.0013829
0.00015425
0.0010491
0.00015843
0.00062499
0.00024598
0.00016092
2.0127e-05
0.0031889
9.0493e-08
4.0359e-05
0.0030976
6.0053e-05
0.0029762
7.874e-05
0.0028144
9.616e-05
0.0026016
0.00011189
0.0023592
0.00012571
0.002055
0.00013761
0.0017573
0.00014669
0.0013738
0.00015427
0.0010416
0.00015847
0.00062079
0.00024351
0.00016094
2.0128e-05
0.0031686
9.1214e-08
4.0362e-05
0.0030773
6.0058e-05
0.0029565
7.8747e-05
0.0027957
9.6168e-05
0.0025842
0.0001119
0.0023435
0.00012573
0.0020412
0.00013763
0.0017454
0.00014672
0.0013647
0.0001543
0.001034
0.00015851
0.00061657
0.00024106
0.00016096
2.0129e-05
0.0031484
9.1934e-08
4.0366e-05
0.0030571
6.0062e-05
0.0029368
7.8754e-05
0.002777
9.6176e-05
0.0025667
0.00011192
0.0023277
0.00012574
0.0020273
0.00013765
0.0017335
0.00014675
0.0013556
0.00015432
0.0010264
0.00015855
0.00061235
0.00023863
0.00016098
2.013e-05
0.0031282
9.2653e-08
4.0368e-05
0.0030369
6.0067e-05
0.0029171
7.8761e-05
0.0027583
9.6184e-05
0.0025493
0.00011193
0.002312
0.00012576
0.0020135
0.00013768
0.0017216
0.00014678
0.0013465
0.00015435
0.0010188
0.00015859
0.00060811
0.00023621
0.000161
2.0131e-05
0.003108
9.3373e-08
4.0371e-05
0.0030166
6.0071e-05
0.0028974
7.8768e-05
0.0027396
9.6193e-05
0.0025319
0.00011195
0.0022962
0.00012577
0.0019997
0.0001377
0.0017097
0.00014681
0.0013374
0.00015437
0.0010113
0.00015862
0.00060386
0.00023381
0.00016102
2.0132e-05
0.0030878
9.4095e-08
4.0374e-05
0.0029964
6.0076e-05
0.0028777
7.8775e-05
0.0027209
9.6201e-05
0.0025145
0.00011196
0.0022804
0.00012579
0.0019859
0.00013772
0.0016977
0.00014684
0.0013283
0.0001544
0.0010037
0.00015866
0.00059959
0.00023143
0.00016104
2.0133e-05
0.0030675
9.482e-08
4.0377e-05
0.0029761
6.008e-05
0.002858
7.8782e-05
0.0027022
9.621e-05
0.002497
0.00011197
0.0022647
0.0001258
0.001972
0.00013774
0.0016858
0.00014687
0.0013192
0.00015443
0.00099616
0.0001587
0.00059532
0.00022907
0.00016106
2.0135e-05
0.0030473
9.5549e-08
4.038e-05
0.0029559
6.0085e-05
0.0028383
7.8789e-05
0.0026835
9.6218e-05
0.0024796
0.00011199
0.0022489
0.00012582
0.0019582
0.00013777
0.0016738
0.0001469
0.00131
0.00015445
0.00098861
0.00015873
0.00059104
0.00022672
0.00016108
2.0136e-05
0.0030271
9.6282e-08
4.0383e-05
0.0029356
6.0089e-05
0.0028186
7.8797e-05
0.0026648
9.6227e-05
0.0024622
0.000112
0.0022331
0.00012583
0.0019444
0.00013779
0.0016619
0.00014693
0.0013009
0.00015448
0.00098106
0.00015877
0.00058675
0.00022438
0.0001611
2.0137e-05
0.0030068
9.7021e-08
4.0386e-05
0.0029154
6.0094e-05
0.0027989
7.8804e-05
0.0026461
9.6236e-05
0.0024448
0.00011202
0.0022174
0.00012585
0.0019305
0.00013781
0.0016499
0.00014696
0.0012917
0.0001545
0.00097352
0.00015881
0.00058244
0.00022207
0.00016113
2.0138e-05
0.0029866
9.7767e-08
4.0389e-05
0.0028951
6.0098e-05
0.0027791
7.8811e-05
0.0026273
9.6245e-05
0.0024273
0.00011203
0.0022016
0.00012587
0.0019167
0.00013784
0.0016379
0.000147
0.0012826
0.00015453
0.00096598
0.00015884
0.00057813
0.00021976
0.00016115
2.0139e-05
0.0029664
9.8519e-08
4.0392e-05
0.0028749
6.0103e-05
0.0027594
7.8819e-05
0.0026086
9.6254e-05
0.0024099
0.00011205
0.0021858
0.00012588
0.0019029
0.00013786
0.001626
0.00014703