/*--------------------------------*- C++ -*----------------------------------*\
  =========                 |
  \\      /  F ield         | OpenFOAM: The Open Source CFD Toolbox
   \\    /   O peration     | Website:  https://openfoam.org
    \\  /    A nd           | Version:  6.0
     \\/     M anipulation  |
\*---------------------------------------------------------------------------*/
FoamFile
{
    version     2.0;
    format      ascii;
    class       volScalarField;
    location    "15";
    object      p;
}
// * * * * * * * * * * * * * * * * * * * * * * * * * * * * * * * * * * * * * //

dimensions      [0 2 -2 0 0 0 0];

internalField   nonuniform List<scalar> 
62000
(
0.0168373
0.0168669
0.0169001
0.0169367
0.0169774
0.0170218
0.017071
0.0171244
0.0171832
0.0172465
0.017316
0.0173903
0.0174716
0.0175583
0.0176529
0.0177537
0.0178638
0.0179811
0.0181095
0.0182466
0.0183964
0.0185567
0.0187314
0.0189186
0.0191223
0.0193423
0.0195821
0.0198419
0.0201246
0.0204309
0.0207623
0.0211176
0.0214974
0.0219007
0.0223286
0.0227789
0.0232461
0.0237217
0.0241932
0.0246449
0.025057
0.0254078
0.0256735
0.0258332
0.0258678
0.0257615
0.0255076
0.0250812
0.0244879
0.0236806
0.0226804
0.0214678
0.0200994
0.0187709
0.0174874
0.0162685
0.0151104
0.0136303
0.0127565
0.0133814
0.0167938
0.0168273
0.0168642
0.0169045
0.0169489
0.0169969
0.0170497
0.0171064
0.0171684
0.0172345
0.0173065
0.017383
0.017466
0.017554
0.0176495
0.0177508
0.017861
0.0179781
0.018106
0.0182423
0.0183912
0.0185506
0.0187242
0.0189106
0.0191134
0.0193336
0.0195744
0.0198367
0.020123
0.0204351
0.0207738
0.0211391
0.0215312
0.0219519
0.0224025
0.0228817
0.0233855
0.0239063
0.0244336
0.0249531
0.0254467
0.0258942
0.0262733
0.0265647
0.0267498
0.0268137
0.0267488
0.0265281
0.0261518
0.0255595
0.0247597
0.0237064
0.0224441
0.0211833
0.0199441
0.0187597
0.0176583
0.0161636
0.0157943
0.0155475
0.0167243
0.0167643
0.0168067
0.0168516
0.0169
0.0169514
0.0170071
0.0170664
0.0171309
0.0171993
0.0172735
0.0173521
0.0174373
0.0175273
0.0176248
0.017728
0.0178401
0.017959
0.0180886
0.0182266
0.0183771
0.0185379
0.0187128
0.0189001
0.0191035
0.0193241
0.0195654
0.0198284
0.0201152
0.0204276
0.0207664
0.0211314
0.0215235
0.0219438
0.0223939
0.0228726
0.0233757
0.023896
0.0244227
0.0249413
0.0254332
0.0258776
0.0262519
0.0265359
0.0267106
0.0267605
0.0266776
0.0264337
0.026025
0.0253823
0.0244984
0.0233007
0.0218173
0.0202607
0.0186736
0.017152
0.0158113
0.0143331
0.0142373
0.0135408
0.016669
0.0167129
0.0167592
0.0168076
0.0168592
0.0169135
0.0169717
0.0170332
0.0170995
0.0171694
0.017245
0.0173249
0.0174114
0.0175025
0.0176014
0.0177058
0.0178193
0.0179396
0.0180706
0.01821
0.018362
0.0185242
0.0187007
0.0188896
0.0190944
0.0193164
0.019559
0.0198234
0.0201115
0.0204254
0.0207658
0.021133
0.0215274
0.0219507
0.0224041
0.0228867
0.023395
0.0239222
0.0244577
0.0249863
0.0254897
0.025947
0.026336
0.0266374
0.0268337
0.0269127
0.02687
0.0266841
0.0263552
0.0258136
0.0250453
0.0239476
0.0225233
0.0209503
0.0192771
0.0176257
0.0161663
0.0147318
0.0147148
0.0143531
0.0166111
0.0166564
0.0167052
0.0167565
0.0168116
0.0168694
0.0169314
0.0169964
0.017066
0.017139
0.0172174
0.0172996
0.017388
0.0174809
0.0175812
0.0176869
0.0178014
0.0179227
0.0180545
0.0181949
0.0183477
0.018511
0.0186886
0.018879
0.0190855
0.0193093
0.0195539
0.0198203
0.0201107
0.0204271
0.0207706
0.0211413
0.0215402
0.0219686
0.022428
0.0229181
0.0234363
0.0239761
0.0245267
0.0250727
0.0255958
0.0260754
0.0264901
0.0268213
0.0270542
0.0271804
0.0272027
0.0271104
0.0269153
0.0265588
0.0260289
0.0252065
0.0240662
0.0227389
0.0212377
0.0196688
0.018192
0.016706
0.0165806
0.0161575
0.0165323
0.0165792
0.0166303
0.0166849
0.0167437
0.0168059
0.0168725
0.0169424
0.017017
0.0170947
0.0171776
0.017264
0.0173564
0.0174528
0.0175562
0.0176646
0.0177816
0.0179048
0.0180385
0.0181802
0.0183343
0.0184987
0.0186773
0.0188688
0.0190767
0.019302
0.0195482
0.0198162
0.0201083
0.0204263
0.0207709
0.0211427
0.021542
0.0219706
0.0224302
0.0229211
0.023441
0.0239828
0.0245344
0.0250791
0.0255975
0.0260678
0.0264673
0.0267761
0.0269789
0.0270695
0.0270559
0.0269392
0.026747
0.0264406
0.0260266
0.0253842
0.0244802
0.0233989
0.0221277
0.0207325
0.0193418
0.0178744
0.0177089
0.0170884
0.0164737
0.0165232
0.0165767
0.0166337
0.0166951
0.0167599
0.0168294
0.0169024
0.0169801
0.0170612
0.0171473
0.0172368
0.017332
0.0174309
0.0175366
0.0176468
0.0177654
0.0178901
0.0180249
0.0181676
0.0183226
0.0184877
0.018667
0.0188592
0.0190679
0.0192942
0.0195416
0.0198108
0.0201042
0.0204232
0.0207685
0.0211397
0.0215378
0.0219645
0.0224221
0.0229116
0.0234305
0.0239706
0.024518
0.0250541
0.0255575
0.026004
0.0263677
0.0266246
0.0267552
0.0267505
0.0266189
0.0263686
0.0260404
0.0256187
0.0251354
0.0244887
0.0236578
0.0227122
0.0216243
0.0204399
0.0192537
0.0180096
0.0180247
0.0175967
0.0164596
0.0165109
0.0165652
0.0166224
0.0166836
0.0167481
0.016817
0.0168895
0.0169668
0.0170475
0.0171334
0.0172229
0.0173183
0.0174175
0.0175236
0.0176343
0.0177534
0.0178785
0.0180139
0.018157
0.0183125
0.0184779
0.0186576
0.0188501
0.0190594
0.0192866
0.0195353
0.0198065
0.0201025
0.0204249
0.0207736
0.0211485
0.0215502
0.0219814
0.0224459
0.0229453
0.0234774
0.0240332
0.0245969
0.0251486
0.025665
0.0261194
0.0264818
0.0267224
0.0268149
0.0267435
0.0265112
0.0261268
0.025638
0.0250477
0.0244151
0.0236622
0.022799
0.0218934
0.0209359
0.0199613
0.0190433
0.0181493
0.0184636
0.018517
0.0164965
0.0165486
0.0166028
0.0166589
0.0167184
0.0167803
0.0168463
0.0169152
0.0169889
0.0170658
0.017148
0.0172339
0.0173257
0.0174217
0.0175247
0.0176328
0.0177495
0.0178727
0.0180065
0.0181486
0.0183033
0.0184684
0.0186481
0.018841
0.0190512
0.01928
0.0195313
0.0198063
0.0201079
0.0204376
0.0207954
0.021181
0.021596
0.0220443
0.0225308
0.0230594
0.0236284
0.0242286
0.0248441
0.0254546
0.0260367
0.026562
0.0269975
0.0273081
0.0274594
0.0274261
0.0272016
0.0267877
0.0262298
0.02554
0.0247948
0.0239399
0.023015
0.0221038
0.0212176
0.0203985
0.019694
0.0190945
0.0196251
0.020067
0.0165516
0.0166025
0.0166548
0.0167085
0.0167649
0.0168233
0.0168852
0.0169497
0.0170186
0.0170905
0.0171678
0.0172487
0.017336
0.0174276
0.0175267
0.0176313
0.0177451
0.0178658
0.0179977
0.0181383
0.0182922
0.018457
0.018637
0.0188309
0.0190429
0.0192745
0.0195299
0.0198111
0.0201211
0.0204621
0.0208342
0.0212376
0.0216747
0.0221507
0.0226731
0.0232471
0.0238728
0.024542
0.0252394
0.0259461
0.0266398
0.0272924
0.0278695
0.0283317
0.0286382
0.0287538
0.0286596
0.0283464
0.0278495
0.0271796
0.0264213
0.0255307
0.0245742
0.0236429
0.0227776
0.0220235
0.0214042
0.0209206
0.0214671
0.0219908
0.0166048
0.0166535
0.0167036
0.0167548
0.0168084
0.0168635
0.0169218
0.0169823
0.0170469
0.0171143
0.0171868
0.0172629
0.0173454
0.0174323
0.017527
0.0176273
0.0177374
0.0178549
0.0179842
0.0181231
0.018276
0.0184407
0.0186216
0.0188174
0.0190323
0.0192681
0.0195292
0.0198181
0.0201386
0.0204929
0.0208821
0.0213067
0.0217701
0.0222793
0.0228429
0.0234687
0.0241584
0.0249055
0.0256966
0.0265152
0.0273419
0.0281508
0.0289076
0.0295715
0.0300967
0.03044
0.0305702
0.0304642
0.0301424
0.0296059
0.0289343
0.0280855
0.0271382
0.0261896
0.0252982
0.024516
0.023837
0.0232754
0.023638
0.0239487
0.0166231
0.0166686
0.0167158
0.0167645
0.0168156
0.0168685
0.0169244
0.0169825
0.0170446
0.0171094
0.0171791
0.0172524
0.0173321
0.0174162
0.0175084
0.0176063
0.0177144
0.0178302
0.0179584
0.0180967
0.0182497
0.0184154
0.0185982
0.0187969
0.0190159
0.0192568
0.0195246
0.0198219
0.0201529
0.0205205
0.0209261
0.0213712
0.0218598
0.0223996
0.0230014
0.0236743
0.0244218
0.0252393
0.0261157
0.0270378
0.0279897
0.0289487
0.0298827
0.0307515
0.0315072
0.0321009
0.0324913
0.0326426
0.0325584
0.0322257
0.0317132
0.0309685
0.0300756
0.0291226
0.0281846
0.0273121
0.0264772
0.0257062
0.0257652
0.0256977
0.0165944
0.0166375
0.0166834
0.0167312
0.0167819
0.0168346
0.0168905
0.0169487
0.0170107
0.0170754
0.0171448
0.0172176
0.0172964
0.0173796
0.0174706
0.0175676
0.0176746
0.0177898
0.0179175
0.018056
0.0182099
0.0183772
0.0185627
0.018765
0.0189886
0.0192352
0.0195096
0.0198147
0.020155
0.0205336
0.0209526
0.0214137
0.0219216
0.022485
0.0231149
0.023822
0.024611
0.0254794
0.0264184
0.0274181
0.028467
0.0295461
0.0306271
0.0316721
0.0326335
0.0334599
0.034103
0.034516
0.0346868
0.0345871
0.0342694
0.033667
0.0328578
0.0319199
0.0309325
0.0299478
0.0289175
0.027891
0.0276175
0.0271366
0.0165127
0.0165534
0.0165977
0.0166448
0.0166954
0.0167487
0.0168059
0.0168658
0.0169299
0.0169967
0.0170684
0.0171434
0.0172245
0.0173097
0.0174027
0.0175014
0.0176101
0.0177268
0.0178562
0.0179964
0.0181524
0.0183222
0.0185108
0.0187171
0.0189454
0.0191973
0.0194774
0.0197888
0.0201358
0.0205219
0.0209493
0.0214203
0.0219397
0.0225159
0.023161
0.0238858
0.024696
0.0255907
0.0265633
0.0276069
0.028714
0.0298701
0.0310506
0.0322216
0.0333381
0.0343488
0.0352019
0.0358431
0.0362479
0.0363739
0.0362581
0.0358153
0.0351161
0.0342187
0.0332058
0.0321261
0.0309209
0.0296636
0.0291017
0.0282635
0.0163954
0.0164351
0.0164791
0.0165262
0.0165776
0.0166322
0.0166911
0.0167532
0.0168198
0.0168895
0.0169642
0.0170425
0.0171266
0.0172149
0.0173107
0.017412
0.0175231
0.017642
0.0177735
0.017916
0.0180742
0.0182467
0.0184384
0.0186483
0.0188807
0.0191369
0.0194214
0.0197368
0.0200876
0.0204771
0.0209078
0.0213817
0.0219041
0.0224831
0.0231301
0.0238563
0.0246679
0.0255651
0.026543
0.0275976
0.0287251
0.0299151
0.0311477
0.0323932
0.033611
0.0347519
0.0357635
0.0365874
0.0371899
0.0375176
0.037592
0.0373117
0.0367349
0.0359029
0.0348949
0.0337596
0.0324296
0.0310078
0.0302365
0.0291363
0.0162451
0.0162844
0.016328
0.0163753
0.0164271
0.0164828
0.0165433
0.0166074
0.0166766
0.0167493
0.0168273
0.0169091
0.0169971
0.0170892
0.0171888
0.0172938
0.0174086
0.0175308
0.0176655
0.0178107
0.0179717
0.0181469
0.0183414
0.0185542
0.0187897
0.019049
0.019336
0.0196532
0.0200047
0.0203937
0.0208226
0.0212938
0.0218119
0.0223843
0.0230224
0.0237368
0.0245337
0.0254142
0.0263746
0.0274132
0.0285294
0.0297165
0.0309588
0.0322317
0.0334993
0.0347165
0.0358325
0.0367882
0.037544
0.0380392
0.0382838
0.0381601
0.0377182
0.0369772
0.0360142
0.0348741
0.0334868
0.0319805
0.0310889
0.0298292
0.0160647
0.0161055
0.016151
0.0162003
0.0162545
0.0163125
0.0163754
0.0164423
0.0165142
0.0165899
0.016671
0.0167559
0.016847
0.0169424
0.0170449
0.017153
0.0172705
0.0173955
0.0175325
0.0176802
0.0178432
0.0180204
0.0182168
0.0184316
0.0186689
0.0189297
0.0192174
0.019534
0.0198835
0.0202686
0.0206921
0.0211556
0.0216638
0.0222234
0.0228447
0.023538
0.0243092
0.0251598
0.0260873
0.0270917
0.0281751
0.0293342
0.0305571
0.0318242
0.0331047
0.0343583
0.0355375
0.0365844
0.0374566
0.0380889
0.0384821
0.0385064
0.0382013
0.0375698
0.0366831
0.0355848
0.0342005
0.0326832
0.0317482
0.030415
0.0158603
0.0159024
0.0159491
0.0159999
0.0160556
0.0161156
0.0161807
0.0162499
0.0163245
0.016403
0.0164872
0.0165753
0.0166696
0.0167683
0.0168742
0.0169854
0.0171059
0.0172336
0.017373
0.0175226
0.0176873
0.0178656
0.0180629
0.0182783
0.0185159
0.0187765
0.0190631
0.0193772
0.0197223
0.0201012
0.0205161
0.0209691
0.021464
0.0220065
0.0226066
0.0232737
0.0240133
0.0248273
0.0257138
0.0266741
0.0277125
0.0288283
0.0300134
0.0312523
0.0325194
0.0337797
0.0349898
0.0360947
0.0370513
0.0377931
0.0383151
0.038477
0.0383132
0.0378076
0.037027
0.0360101
0.0346808
0.0332099
0.0322914
0.0309492
0.0156454
0.0156898
0.0157386
0.0157912
0.0158486
0.0159101
0.0159767
0.0160475
0.0161236
0.0162038
0.0162896
0.0163795
0.0164756
0.0165761
0.0166837
0.0167966
0.0169185
0.0170474
0.0171878
0.017338
0.0175031
0.0176814
0.0178783
0.018093
0.0183293
0.0185882
0.018872
0.0191819
0.0195211
0.0198919
0.0202969
0.0207373
0.0212171
0.0217411
0.0223183
0.0229575
0.0236639
0.0244395
0.025283
0.0261969
0.027187
0.0282549
0.0293956
0.0305976
0.03184
0.0330926
0.0343167
0.0354608
0.0364826
0.037316
0.0379516
0.0382423
0.0382161
0.037843
0.037184
0.0362743
0.0350329
0.0336464
0.0327823
0.0314719
0.0154182
0.0154645
0.0155144
0.0155681
0.0156261
0.0156882
0.0157553
0.0158266
0.0159033
0.0159841
0.0160706
0.0161612
0.0162583
0.0163596
0.0164682
0.0165819
0.0167048
0.0168342
0.0169749
0.0171251
0.0172896
0.0174668
0.0176623
0.0178749
0.0181088
0.0183646
0.0186443
0.0189487
0.0192806
0.0196426
0.0200365
0.0204641
0.0209285
0.0214339
0.0219888
0.0226011
0.0232758
0.0240152
0.0248182
0.025688
0.0266319
0.0276534
0.0287497
0.0299128
0.031126
0.032364
0.0335921
0.0347629
0.0358358
0.0367466
0.037484
0.0378949
0.0380064
0.0377719
0.037247
0.036461
0.0353293
0.0340481
0.0332612
0.0320053
0.0151698
0.015219
0.015272
0.0153281
0.0153885
0.0154523
0.0155208
0.015593
0.0156703
0.0157513
0.0158377
0.0159282
0.0160246
0.0161255
0.0162332
0.0163462
0.0164679
0.0165964
0.0167357
0.0168843
0.017047
0.017222
0.0174148
0.0176243
0.0178545
0.018106
0.0183804
0.0186784
0.0190025
0.0193551
0.0197383
0.020153
0.0206027
0.0210908
0.0216251
0.0222131
0.0228596
0.0235671
0.0243348
0.0251666
0.026071
0.0270527
0.0281113
0.0292415
0.0304302
0.0316561
0.0328888
0.0340842
0.0352041
0.0361865
0.0370183
0.0375437
0.037786
0.0376876
0.0372977
0.0366405
0.0356249
0.0344564
0.0337542
0.0325609
0.0149005
0.0149518
0.0150062
0.0150638
0.0151254
0.0151905
0.01526
0.0153331
0.015411
0.0154924
0.0155789
0.0156693
0.0157655
0.0158657
0.0159727
0.0160846
0.0162052
0.016332
0.0164695
0.0166158
0.0167757
0.0169475
0.0171366
0.0173418
0.0175672
0.0178133
0.0180816
0.0183726
0.0186886
0.0190319
0.0194043
0.0198073
0.0202435
0.0207161
0.0212324
0.0217996
0.0224223
0.0231033
0.0238421
0.0246431
0.0255157
0.0264658
0.0274946
0.0285992
0.0297694
0.0309878
0.0322271
0.033447
0.034611
0.0356599
0.0365809
0.0372148
0.037587
0.0376246
0.037371
0.0368431
0.035945
0.0348879
0.0342718
0.0331409
0.0146181
0.0146716
0.0147281
0.0147873
0.0148501
0.014916
0.0149859
0.0150592
0.0151369
0.0152179
0.0153036
0.015393
0.0154877
0.0155863
0.0156913
0.0158009
0.0159188
0.0160428
0.016177
0.0163199
0.016476
0.0166435
0.016828
0.0170281
0.0172478
0.0174877
0.0177493
0.0180329
0.0183408
0.018675
0.0190376
0.0194294
0.0198537
0.0203129
0.020814
0.0213639
0.0219673
0.0226273
0.0233439
0.0241219
0.0249716
0.0258998
0.0269091
0.0279984
0.0291604
0.0303803
0.031634
0.0328838
0.0340953
0.0352116
0.0362193
0.036959
0.0374538
0.0376209
0.037497
0.0370929
0.0363058
0.0353532
0.0348171
0.0337429
0.0143169
0.0143718
0.0144288
0.0144886
0.0145514
0.0146172
0.0146867
0.0147594
0.0148364
0.0149164
0.015001
0.0150889
0.0151822
0.0152789
0.0153819
0.0154891
0.0156045
0.0157255
0.0158564
0.0159954
0.0161473
0.0163101
0.0164894
0.0166837
0.0168972
0.0171304
0.0173849
0.017661
0.0179608
0.0182864
0.0186395
0.0190217
0.0194354
0.0198831
0.0203716
0.0209075
0.0214958
0.0221399
0.0228402
0.0236021
0.0244364
0.0253508
0.026349
0.0274317
0.0285933
0.029822
0.0310956
0.0323794
0.0336402
0.0348232
0.0359155
0.0367572
0.0373749
0.0376702
0.0376731
0.0373875
0.0367053
0.0358486
0.0353869
0.0343614
0.0139853
0.0140425
0.0141019
0.0141635
0.0142282
0.0142951
0.0143654
0.0144383
0.0145149
0.0145942
0.0146774
0.0147636
0.0148545
0.0149487
0.0150486
0.0151526
0.0152643
0.0153815
0.0155081
0.0156429
0.01579
0.0159476
0.0161213
0.0163097
0.0165165
0.0167427
0.0169899
0.0172585
0.0175505
0.0178677
0.0182124
0.0185853
0.0189899
0.0194278
0.0199058
0.0204305
0.021007
0.0216396
0.0223288
0.0230807
0.0239068
0.0248155
0.0258115
0.0268968
0.0280677
0.0293141
0.0306164
0.0319412
0.033257
0.0345099
0.0356867
0.0366301
0.0373648
0.0377816
0.0379038
0.0377286
0.0371423
0.0363719
0.0359756
0.0349901
0.0136221
0.0136804
0.0137405
0.013803
0.0138683
0.0139361
0.014007
0.0140803
0.0141572
0.0142364
0.0143193
0.0144046
0.0144945
0.014587
0.0146849
0.0147864
0.0148953
0.015009
0.0151319
0.0152622
0.0154046
0.0155569
0.0157248
0.0159069
0.016107
0.016326
0.0165658
0.016827
0.0171111
0.0174206
0.0177569
0.0181217
0.0185179
0.0189474
0.0194165
0.0199321
0.0204997
0.0211239
0.0218059
0.0225522
0.0233752
0.0242837
0.0252833
0.0263773
0.0275635
0.0288336
0.0301691
0.0315397
0.0329123
0.034237
0.0354959
0.0365402
0.0373941
0.0379328
0.0381719
0.0381022
0.0376055
0.0369135
0.0365769
0.0356232
0.0132378
0.0132973
0.0133586
0.0134219
0.0134879
0.0135559
0.0136269
0.0137002
0.0137767
0.0138554
0.0139373
0.0140215
0.0141096
0.0142001
0.0142955
0.0143941
0.0144995
0.0146095
0.0147281
0.0148539
0.0149912
0.0151382
0.0153003
0.015476
0.0156694
0.0158813
0.0161138
0.0163674
0.0166442
0.0169458
0.0172745
0.0176314
0.0180201
0.0184418
0.0189031
0.019411
0.0199713
0.0205897
0.0212674
0.022012
0.0228363
0.0237498
0.024759
0.0258681
0.0270765
0.0283771
0.029753
0.0311751
0.0326104
0.03401
0.0353525
0.0364991
0.0374686
0.038124
0.0384742
0.0385039
0.0380897
0.0374687
0.037184
0.0362547
0.0128262
0.0128859
0.0129469
0.01301
0.0130753
0.013143
0.0132134
0.0132862
0.0133621
0.0134399
0.0135211
0.0136041
0.0136912
0.0137801
0.0138738
0.0139702
0.0140732
0.01418
0.0142952
0.0144169
0.0145498
0.0146916
0.0148482
0.0150178
0.0152046
0.0154095
0.0156347
0.0158812
0.0161505
0.0164447
0.0167657
0.0171153
0.0174964
0.0179108
0.0183649
0.0188659
0.0194201
0.020034
0.0207093
0.0214541
0.0222819
0.0232031
0.0242247
0.0253522
0.026586
0.0279205
0.0293397
0.0308166
0.0323163
0.033793
0.0352178
0.0364683
0.0375569
0.0383313
0.0387925
0.0389188
0.0385837
0.0380285
0.037792
0.0368805
0.012378
0.0124392
0.012502
0.0125664
0.0126333
0.0127019
0.0127731
0.0128462
0.0129221
0.0129995
0.0130798
0.0131618
0.0132472
0.0133343
0.0134256
0.0135195
0.0136194
0.0137231
0.0138346
0.0139524
0.0140808
0.0142179
0.0143692
0.0145331
0.0147135
0.0149117
0.0151299
0.0153692
0.0156313
0.015918
0.0162316
0.0165733
0.0169473
0.0173541
0.0178011
0.0182954
0.018844
0.019454
0.0201281
0.0208746
0.0217082
0.0226397
0.023677
0.0248266
0.0260902
0.0274632
0.0289309
0.0304671
0.0320362
0.033593
0.0351028
0.0364603
0.0376658
0.038556
0.0391247
0.0393443
0.0390838
0.0385897
0.038395
0.0374962
0.0118938
0.0119553
0.0120181
0.0120832
0.0121506
0.0122201
0.0122922
0.0123663
0.0124431
0.0125212
0.0126022
0.0126842
0.0127697
0.0128562
0.0129468
0.0130392
0.0131375
0.0132387
0.0133474
0.0134617
0.0135862
0.0137187
0.013865
0.0140233
0.0141976
0.0143892
0.0146004
0.0148327
0.0150874
0.0153668
0.0156724
0.0160067
0.0163725
0.016772
0.0172113
0.0176986
0.0182415
0.0188478
0.0195206
0.0202691
0.0211086
0.0220508
0.0231043
0.0242769
0.0255713
0.0269842
0.0285018
0.0300994
0.0317393
0.0333789
0.034974
0.0364412
0.0377683
0.0387779
0.0394558
0.0397682
0.0395812
0.0391458
0.0389908
0.0380998
0.0113891
0.0114512
0.0115148
0.0115804
0.0116484
0.0117184
0.0117909
0.0118653
0.0119424
0.0120208
0.0121017
0.0121837
0.0122685
0.0123543
0.0124436
0.0125345
0.0126306
0.0127294
0.0128351
0.012946
0.0130667
0.0131949
0.0133364
0.0134894
0.0136579
0.0138431
0.0140476
0.0142728
0.0145203
0.0147918
0.0150897
0.0154153
0.0157734
0.0161639
0.0165952
0.017075
0.0176115
0.0182137
0.0188849
0.0196354
0.0204813
0.0214352
0.0225064
0.0237038
0.0250317
0.0264874
0.0280587
0.029721
0.0314365
0.0331618
0.0348464
0.0364266
0.0378746
0.0390016
0.0397871
0.040191
0.0400751
0.0396953
0.0395746
0.0386879
0.0108604
0.0109221
0.0109849
0.01105
0.0111173
0.011187
0.0112592
0.0113335
0.0114107
0.011489
0.0115702
0.0116521
0.0117372
0.0118226
0.0119117
0.0120017
0.0120969
0.0121939
0.0122976
0.0124059
0.0125234
0.0126477
0.0127849
0.0129329
0.0130958
0.0132749
0.0134727
0.0136909
0.0139309
0.0141946
0.0144837
0.0148009
0.0151493
0.0155311
0.0159531
0.0164244
0.0169537
0.0175505
0.0182193
0.0189704
0.0198216
0.020786
0.021874
0.0230957
0.0244568
0.0259556
0.0275808
0.0293097
0.0311016
0.0329169
0.0346924
0.0363901
0.0379626
0.0392112
0.0401071
0.0406037
0.0405589
0.040234
0.0401462
0.0392602
0.0102974
0.0103602
0.010425
0.0104916
0.0105609
0.0106319
0.0107055
0.0107808
0.0108587
0.0109375
0.0110187
0.0111006
0.0111851
0.0112701
0.0113581
0.011447
0.0115407
0.0116361
0.0117376
0.0118435
0.0119581
0.012079
0.0122123
0.0123557
0.0125133
0.0126864
0.0128776
0.0130887
0.013321
0.0135761
0.0138564
0.0141635
0.0145026
0.0148736
0.0152856
0.015747
0.0162677
0.016858
0.0175229
0.018274
0.0191298
0.0201047
0.0212099
0.0224569
0.0238526
0.0253967
0.0270787
0.0288771
0.03075
0.0326583
0.0345302
0.0363489
0.0380458
0.0394148
0.0404203
0.0410089
0.0410338
0.0407611
0.0407016
0.0398138
0.00970906
0.00977181
0.00983629
0.00990331
0.009973
0.010045
0.0101197
0.0101964
0.0102757
0.0103559
0.0104385
0.0105215
0.0106072
0.0106927
0.0107814
0.0108703
0.0109638
0.0110583
0.0111586
0.0112624
0.0113746
0.0114922
0.0116217
0.0117606
0.0119129
0.01208
0.0122643
0.0124681
0.0126922
0.0129385
0.0132088
0.0135058
0.0138332
0.0141934
0.0145934
0.0150436
0.0155539
0.0161359
0.0167951
0.0175441
0.0184027
0.0193862
0.0205071
0.0217779
0.0232075
0.0247964
0.0265356
0.0284044
0.0303603
0.0323656
0.034338
0.0362814
0.038106
0.0395994
0.0407177
0.0413995
0.0414947
0.0412743
0.0412419
0.0403496
0.00910818
0.00917108
0.00923584
0.00930307
0.00937306
0.00944541
0.00952055
0.00959787
0.00967785
0.00975905
0.00984252
0.00992655
0.010013
0.0100994
0.0101884
0.0102775
0.0103707
0.0104646
0.0105637
0.0106658
0.0107756
0.0108902
0.0110159
0.0111502
0.0112971
0.0114579
0.0116352
0.0118311
0.0120467
0.0122831
0.012543
0.012828
0.0131439
0.0134902
0.0138774
0.0143144
0.0148124
0.0153842
0.0160362
0.0167817
0.0176421
0.0186338
0.0197703
0.0210656
0.0225302
0.0241656
0.0259644
0.0279066
0.0299497
0.0320555
0.0341345
0.0362056
0.0381583
0.039775
0.0410052
0.0417798
0.0419439
0.0417731
0.0417632
0.0408646
0.00848152
0.00854303
0.00860611
0.0086727
0.00874229
0.00881536
0.00889174
0.00897095
0.00905338
0.00913712
0.0092236
0.00931026
0.00939972
0.00948818
0.00957952
0.00966982
0.00976422
0.00985801
0.00995676
0.0100574
0.0101651
0.0102764
0.0103983
0.0105277
0.0106688
0.010823
0.0109926
0.0111801
0.011386
0.011612
0.0118598
0.0121324
0.0124335
0.0127662
0.0131379
0.01356
0.0140438
0.0146034
0.0152459
0.0159858
0.0168458
0.0178436
0.0189938
0.0203122
0.0218107
0.0234923
0.0253508
0.0273673
0.0294998
0.0317102
0.0339007
0.0361028
0.0381863
0.0399301
0.041275
0.0421432
0.0423768
0.0422557
0.0422674
0.0413606
0.00778043
0.00784906
0.0079227
0.00800026
0.00808186
0.00816559
0.00825208
0.0083394
0.00842874
0.00851774
0.00860822
0.00869768
0.00878884
0.00887858
0.00897029
0.00906089
0.00915472
0.00924782
0.00934493
0.00944352
0.00954823
0.00965579
0.00977295
0.00989663
0.0100312
0.0101778
0.0103389
0.0105167
0.010712
0.0109258
0.0111607
0.0114182
0.0117049
0.0120202
0.0123754
0.0127807
0.0132484
0.0137939
0.0144253
0.0151583
0.016017
0.0170202
0.018184
0.0195259
0.0210594
0.0227887
0.0247094
0.0268032
0.0290289
0.0313475
0.0336551
0.0359908
0.038206
0.0400756
0.041534
0.0424947
0.0427959
0.0427217
0.0427506
0.0418345
0.00729753
0.0073579
0.00741894
0.00748366
0.00755124
0.00762286
0.00769782
0.00777605
0.00785749
0.0079405
0.00802605
0.00811164
0.00819969
0.00828654
0.00837582
0.00846359
0.00855476
0.00864442
0.00873795
0.00883206
0.00893188
0.00903362
0.00914435
0.00926071
0.00938712
0.00952476
0.00967579
0.00984266
0.0100256
0.010226
0.0104456
0.0106875
0.0109559
0.0112542
0.0115904
0.011977
0.0124268
0.0129563
0.0135745
0.0142983
0.0151533
0.01616
0.0173357
0.0186995
0.020267
0.0220439
0.0240269
0.026199
0.02852
0.0309507
0.0333799
0.035852
0.0382016
0.0402004
0.0417741
0.0428277
0.0431968
0.0431698
0.0432152
0.0422885
0.00663553
0.0067043
0.00677723
0.00685352
0.00693358
0.00701546
0.00710003
0.00718516
0.00727227
0.00735867
0.00744631
0.00753238
0.00761974
0.00770503
0.00779167
0.0078764
0.00796352
0.00804882
0.00813698
0.00822533
0.00831839
0.00841267
0.0085151
0.00862233
0.0087388
0.00886566
0.00900495
0.0091589
0.0093279
0.00951259
0.00971575
0.00993904
0.0101897
0.0104668
0.0107831
0.0111492
0.0115792
0.0120911
0.0126946
0.0134079
0.0142585
0.0152681
0.0164556
0.0178419
0.0194446
0.0212706
0.0233183
0.0255716
0.0279913
0.0305372
0.0330927
0.0357037
0.0381885
0.040315
0.0420024
0.0431473
0.0435819
0.0435993
0.0436569
0.0427191
0.00621236
0.00627309
0.00633378
0.00639724
0.00646298
0.00653195
0.00660376
0.00667814
0.00675523
0.00683318
0.00691303
0.00699217
0.00707299
0.00715175
0.00723202
0.00730984
0.00739003
0.00746758
0.00754776
0.00762729
0.00771112
0.00779535
0.00788718
0.00798308
0.0080875
0.00820164
0.00832716
0.00846643
0.00861922
0.00878672
0.00897083
0.00917481
0.00940328
0.00966002
0.0099536
0.0102976
0.0107062
0.0111984
0.0117852
0.012486
0.0133299
0.0143405
0.0155381
0.0169457
0.0185827
0.0204576
0.0225705
0.0249059
0.0274261
0.0300905
0.0327757
0.0355279
0.0381506
0.0404079
0.0422102
0.0434463
0.0439467
0.0440089
0.0440784
0.0431292
0.00558516
0.00565482
0.0057282
0.00580453
0.00588393
0.00596439
0.00604663
0.00612846
0.00621125
0.0062922
0.00637325
0.00645149
0.00652985
0.00660486
0.00667994
0.00675181
0.00682472
0.00689439
0.00696546
0.00703528
0.00710829
0.00718094
0.00726031
0.00734297
0.00743338
0.00753279
0.00764265
0.00776506
0.00789992
0.00804773
0.00821142
0.00839281
0.00859986
0.00883158
0.00910187
0.00942196
0.00980739
0.0102785
0.0108472
0.0115342
0.0123708
0.0133819
0.0145898
0.0160194
0.0176919
0.0196176
0.0217978
0.0242182
0.0268417
0.0296272
0.0324456
0.0353411
0.0381024
0.0404892
0.0424044
0.0437298
0.0442935
0.0443979
0.0444754
0.043515
0.00525097
0.00531168
0.00537115
0.00543176
0.0054934
0.00555682
0.00562183
0.00568816
0.00575599
0.00582357
0.0058918
0.00595835
0.00602539
0.00608941
0.0061537
0.0062145
0.00627636
0.00633433
0.00639348
0.00645064
0.00651053
0.00656924
0.00663407
0.00670147
0.00677589
0.0068587
0.00695088
0.00705459
0.00716918
0.00729571
0.00743635
0.00759451
0.00777555
0.00798342
0.00822738
0.00852189
0.00888235
0.00933044
0.00987893
0.0105501
0.0113774
0.0123874
0.0136041
0.0150545
0.0167621
0.0187387
0.0209867
0.0234931
0.0262214
0.0291302
0.0320842
0.0351249
0.0380275
0.0405464
0.0425755
0.0439899
0.0446175
0.0447649
0.0448507
0.0438799
0.00475288
0.00481516
0.00487664
0.0049386
0.00500137
0.00506459
0.00512878
0.00519299
0.00525802
0.00532181
0.00538555
0.00544683
0.00550778
0.00556524
0.00562189
0.0056746
0.00572701
0.00577491
0.0058225
0.00586731
0.00591344
0.0059574
0.00600637
0.00605699
0.00611374
0.00617809
0.00625079
0.00633371
0.0064264
0.00652921
0.00664544
0.00677709
0.00693294
0.00711176
0.00732886
0.00759581
0.0079296
0.00835317
0.0088803
0.00953482
0.0103522
0.011361
0.0125869
0.0140592
0.0158032
0.0178325
0.0201508
0.0227456
0.0255813
0.0286156
0.0317077
0.034895
0.0379394
0.0405889
0.0427303
0.0442319
0.044921
0.0451092
0.0452002
0.0442197
0.00429031
0.00435324
0.00441558
0.00447809
0.00454098
0.00460371
0.00466654
0.00472848
0.00479006
0.00484923
0.00490701
0.00496121
0.00501389
0.00506186
0.00510811
0.00514925
0.00518941
0.00522393
0.00525747
0.0052872
0.00531745
0.00534451
0.00537573
0.00540774
0.005445
0.00548914
0.00554047
0.00560093
0.00566945
0.00574699
0.00583614
0.00594054
0.00606612
0.00621734
0.00640417
0.00664194
0.00694732
0.00734454
0.00784843
0.00848442
0.00929022
0.0102964
0.0115304
0.0130237
0.014804
0.0168863
0.0192756
0.0219601
0.0249043
0.0280655
0.0312968
0.0346324
0.0378211
0.0406038
0.0428585
0.0444473
0.045199
0.0454296
0.0455269
0.0445382
0.00383956
0.00390091
0.00396125
0.00402163
0.00408184
0.00414148
0.0042006
0.00425829
0.00431497
0.00436866
0.00442021
0.00446745
0.00451227
0.00455177
0.00458837
0.00461922
0.00464762
0.00466957
0.00468892
0.00470352
0.00471708
0.00472632
0.00473844
0.00475034
0.0047665
0.00478873
0.00481704
0.00485306
0.00489579
0.00494564
0.00500632
0.00508006
0.00517653
0.00529469
0.00545094
0.00565769
0.00593299
0.00630257
0.00678227
0.00739916
0.00819325
0.0091971
0.0104399
0.0119555
0.0137736
0.0159112
0.0183739
0.0211506
0.0242056
0.0274956
0.0308682
0.0343528
0.0376858
0.0406005
0.0429671
0.0446416
0.0454538
0.0457251
0.0458267
0.0448313
0.00343821
0.0034964
0.00355222
0.00360723
0.0036613
0.00371453
0.00376671
0.00381735
0.00386634
0.00391194
0.00395445
0.00399204
0.00402618
0.00405395
0.00407787
0.00409488
0.00410864
0.00411477
0.00411753
0.00411442
0.00410938
0.00409888
0.00409029
0.00408048
0.00407398
0.00407282
0.00407647
0.00408652
0.00410139
0.00412217
0.00415195
0.00419462
0.00425706
0.00434397
0.00446636
0.00464043
0.00488398
0.0052242
0.00567807
0.00627427
0.00705529
0.00805566
0.00930655
0.010844
0.0127002
0.0148935
0.0174308
0.020301
0.0234679
0.0268874
0.0304018
0.0340372
0.037517
0.0405661
0.0430456
0.0448063
0.0456807
0.0459949
0.0461028
0.0451031
0.00301076
0.00306654
0.0031191
0.00317002
0.00321894
0.00326596
0.00331102
0.00335376
0.00339424
0.00343088
0.00346396
0.00349176
0.00351548
0.00353265
0.00354495
0.00354996
0.00355026
0.00354219
0.003529
0.00350897
0.00348526
0.00345481
0.00342481
0.0033924
0.00336217
0.00333635
0.00331413
0.00329665
0.00328254
0.00327229
0.00327027
0.00327891
0.00330885
0.00335899
0.00344738
0.00358695
0.00379728
0.00410709
0.00453442
0.00510972
0.00587782
0.00687538
0.00813535
0.00969627
0.0115924
0.0138439
0.0164584
0.0194248
0.0227058
0.0262568
0.0299147
0.0337013
0.0373276
0.0405102
0.0431014
0.0449471
0.0458821
0.0462381
0.0463514
0.0453495
0.00257935
0.00263139
0.00267954
0.00272559
0.00276913
0.00281047
0.00284922
0.00288521
0.00291807
0.00294631
0.00296984
0.0029872
0.00299938
0.00300381
0.00300245
0.00299257
0.00297726
0.00295232
0.00292151
0.00288268
0.00283922
0.00278775
0.00273559
0.00267987
0.00262516
0.00257395
0.00252488
0.00247906
0.00243452
0.00239253
0.00235681
0.00233142
0.00232398
0.00233973
0.00239083
0.00249454
0.00267018
0.00294804
0.00334739
0.0039004
0.0046545
0.00564836
0.00691701
0.00850126
0.0104379
0.0127486
0.0154417
0.0185059
0.0219023
0.0255848
0.0293864
0.0333265
0.0371018
0.0404199
0.043124
0.0450556
0.0460534
0.0464539
0.0465756
0.0455749
0.0020953
0.00214222
0.00218489
0.00222521
0.00226259
0.00229731
0.00232906
0.00235767
0.00238286
0.00240312
0.0024183
0.00242689
0.00242966
0.00242433
0.00241211
0.00239087
0.00236264
0.00232394
0.00227754
0.00222202
0.00216
0.00208854
0.00201471
0.00193589
0.00185666
0.00177976
0.00170349
0.00162858
0.00155321
0.00147818
0.00140841