/*--------------------------------*- C++ -*----------------------------------*\
  =========                 |
  \\      /  F ield         | OpenFOAM: The Open Source CFD Toolbox
   \\    /   O peration     | Website:  https://openfoam.org
    \\  /    A nd           | Version:  6.0
     \\/     M anipulation  |
\*---------------------------------------------------------------------------*/
FoamFile
{
    version     2.0;
    format      ascii;
    class       surfaceScalarField;
    location    "15";
    object      phi;
}
// * * * * * * * * * * * * * * * * * * * * * * * * * * * * * * * * * * * * * //

dimensions      [0 3 -1 0 0 0 0];

internalField   nonuniform List<scalar> 
123526
(
-2.69608e-05
2.33259e-05
2.73527e-05
-2.65374e-05
2.52221e-05
-2.60772e-05
2.72727e-05
-2.55824e-05
2.94903e-05
-2.5044e-05
3.18884e-05
-2.44653e-05
3.44817e-05
-2.38356e-05
3.72863e-05
-2.31582e-05
4.03193e-05
-2.242e-05
4.35986e-05
-2.16254e-05
4.71451e-05
-2.07609e-05
5.09813e-05
-1.98309e-05
5.51301e-05
-1.88194e-05
5.96169e-05
-1.77291e-05
6.44668e-05
-1.65406e-05
6.97109e-05
-1.52621e-05
7.53855e-05
-1.38732e-05
8.15221e-05
-1.23716e-05
8.81514e-05
-1.07377e-05
9.53226e-05
-8.97727e-06
0.000103081
-7.0602e-06
0.000111461
-4.98538e-06
0.000120521
-2.73762e-06
0.000130322
-2.95257e-07
0.0001409
2.35064e-06
0.000152343
5.21863e-06
0.000164699
8.3316e-06
0.000178042
1.17011e-05
0.000192455
1.53598e-05
0.000208001
1.93193e-05
0.000224782
2.36165e-05
0.000242863
2.82667e-05
0.000262354
3.33046e-05
0.000283329
3.87561e-05
0.000305887
4.4651e-05
0.000330123
5.10343e-05
0.000356106
5.793e-05
0.000383939
6.53797e-05
0.000413673
7.34247e-05
0.000445359
8.20972e-05
0.000479033
9.14359e-05
0.000514677
0.000101483
0.000552231
0.000112268
0.000591583
0.000123822
0.00063253
0.000136167
0.000674761
0.000149318
0.000717826
0.000163285
0.0007611
0.00017805
0.000803729
0.000193597
0.000844578
0.000209855
0.000882171
0.000226749
0.000914595
0.000244128
0.000939457
0.000261763
0.000953726
0.000279426
0.00095354
0.000296743
0.000934136
0.000313273
0.000889623
0.000328447
0.00081278
0.000341603
0.00069526
0.00035159
0.000524024
0.000282972
0.000346838
-2.66258e-05
2.294e-05
2.70102e-05
-2.62102e-05
2.48048e-05
-2.57587e-05
2.68215e-05
-2.52731e-05
2.90022e-05
-2.47447e-05
3.13606e-05
-2.41767e-05
3.39109e-05
-2.35585e-05
3.6669e-05
-2.28937e-05
3.96517e-05
-2.2169e-05
4.28757e-05
-2.13889e-05
4.63626e-05
-2.054e-05
5.01351e-05
-1.9627e-05
5.4215e-05
-1.86338e-05
5.86273e-05
-1.75632e-05
6.33942e-05
-1.63962e-05
6.85478e-05
-1.51408e-05
7.41277e-05
-1.37771e-05
8.0162e-05
-1.23026e-05
8.66741e-05
-1.06984e-05
9.37214e-05
-8.96967e-06
0.000101349
-7.08755e-06
0.000109581
-5.05009e-06
0.000118481
-2.84336e-06
0.000128117
-4.45089e-07
0.0001385
2.15263e-06
0.000149745
4.96895e-06
0.000161882
8.02595e-06
0.000174985
1.13359e-05
0.000189145
1.493e-05
0.000204406
1.8821e-05
0.000220891
2.30444e-05
0.00023864
2.76165e-05
0.000257782
3.25694e-05
0.000278374
3.79312e-05
0.000300523
4.37295e-05
0.000324321
5.00086e-05
0.000349823
5.67923e-05
0.000377151
6.41208e-05
0.00040634
7.20346e-05
0.00043744
8.05644e-05
0.000470496
8.97477e-05
0.000505485
9.96244e-05
0.000542343
0.000110224
0.000580969
0.000121574
0.000621162
0.000133698
0.000662614
0.000146612
0.000704885
0.000160326
0.000747358
0.000174824
0.000789196
0.000190092
0.000829286
0.000206059
0.000866174
0.00022265
0.000897993
0.000239713
0.000922386
0.000257018
0.000936356
0.000274348
0.000936129
0.000291334
0.000917024
0.000307559
0.000873277
0.000322421
0.000797775
0.000335422
0.000682119
0.000343738
0.000515521
0.000283981
0.00034246
-2.62387e-05
2.25604e-05
2.66168e-05
-2.58302e-05
2.43946e-05
-2.53863e-05
2.63781e-05
-2.49094e-05
2.8523e-05
-2.43905e-05
3.08425e-05
-2.38332e-05
3.33508e-05
-2.32267e-05
3.60634e-05
-2.25746e-05
3.89969e-05
-2.18638e-05
4.21669e-05
-2.10987e-05
4.55954e-05
-2.02663e-05
4.93054e-05
-1.93707e-05
5.33176e-05
-1.83966e-05
5.76568e-05
-1.73463e-05
6.23422e-05
-1.62014e-05
6.74068e-05
-1.49695e-05
7.28937e-05
-1.36312e-05
7.88273e-05
-1.21838e-05
8.52241e-05
-1.06089e-05
9.21493e-05
-8.91136e-06
9.9649e-05
-7.06295e-06
0.000107735
-5.06154e-06
0.000116478
-2.89352e-06
0.00012595
-5.36813e-07
0.000136142
2.01645e-06
0.000147193
4.78515e-06
0.000159113
7.79092e-06
0.00017198
1.10457e-05
0.000185889
1.45803e-05
0.00020087
1.84071e-05
0.000217063
2.25613e-05
0.000234486
2.70579e-05
0.000253285
3.19299e-05
0.000273501
3.72036e-05
0.000295247
4.29064e-05
0.000318615
4.90811e-05
0.000343645
5.57504e-05
0.000370478
6.29537e-05
0.000399133
7.073e-05
0.00042966
7.91092e-05
0.000462113
8.81279e-05
0.000496462
9.78253e-05
0.000532643
0.00010823
0.000570563
0.000119371
0.000610023
0.000131273
0.00065072
0.000143952
0.000692219
0.000157419
0.000733917
0.000171658
0.000774988
0.000186657
0.000814339
0.00020234
0.000850546
0.000218635
0.000881769
0.000235388
0.000905699
0.000252373
0.000919381
0.000269385
0.000919153
0.000286058
0.00090035
0.000301998
0.000857359
0.000316564
0.000783219
0.000329307
0.000669392
0.000338339
0.000506514
0.000282662
0.000339707
-2.58409e-05
2.21867e-05
2.62126e-05
-2.54389e-05
2.39907e-05
-2.50024e-05
2.59416e-05
-2.45333e-05
2.80513e-05
-2.40231e-05
3.03327e-05
-2.34752e-05
3.27999e-05
-2.2879e-05
3.54679e-05
-2.22384e-05
3.83533e-05
-2.15399e-05
4.14703e-05
-2.07889e-05
4.48417e-05
-1.99713e-05
4.84905e-05
-1.90925e-05
5.24364e-05
-1.81359e-05
5.67039e-05
-1.71054e-05
6.13094e-05
-1.59813e-05
6.62866e-05
-1.47724e-05
7.16822e-05
-1.34583e-05
7.7517e-05
-1.20376e-05
8.38005e-05
-1.0491e-05
9.06058e-05
-8.82424e-06
9.79795e-05
-7.00879e-06
0.000105921
-5.04303e-06
0.00011451
-2.91315e-06
0.000123821
-5.97597e-07
0.000133825
1.91158e-06
0.000144684
4.63277e-06
0.000156391
7.58715e-06
0.000169025
1.07865e-05
0.000182689
1.42606e-05
0.000197395
1.80222e-05
0.000213301
2.21049e-05
0.000230404
2.65246e-05
0.000248866
3.13123e-05
0.000268713
3.64949e-05
0.000290063
4.20985e-05
0.000313009
4.81648e-05
0.000337576
5.47161e-05
0.000363925
6.17906e-05
0.000392056
6.94268e-05
0.000422022
7.76539e-05
0.000453884
8.6508e-05
0.000487606
9.6028e-05
0.000523121
0.000106243
0.000560343
0.000117182
0.000599077
0.000128871
0.000639021
0.000141324
0.00067975
0.000154554
0.000720669
0.000168544
0.000760969
0.000183279
0.000799582
0.000198682
0.000835105
0.000214683
0.000865746
0.000231127
0.000889224
0.000247798
0.000902641
0.000264495
0.000902377
0.000280862
0.000883878
0.00029652
0.000841602
0.000310816
0.000768818
0.000323251
0.000656851
0.000332523
0.000497103
0.000280117
0.000334871
-2.54707e-05
2.18196e-05
2.58357e-05
-2.50759e-05
2.35937e-05
-2.46459e-05
2.55123e-05
-2.41847e-05
2.75872e-05
-2.36818e-05
2.9831e-05
-2.31426e-05
3.22576e-05
-2.25552e-05
3.48818e-05
-2.19245e-05
3.77198e-05
-2.12367e-05
4.07849e-05
-2.04974e-05
4.41002e-05
-1.96928e-05
4.76889e-05
-1.8828e-05
5.15699e-05
-1.78873e-05
5.5767e-05
-1.68737e-05
6.02941e-05
-1.57688e-05
6.51857e-05
-1.45803e-05
7.04916e-05
-1.32893e-05
7.62294e-05
-1.18931e-05
8.24018e-05
-1.03738e-05
8.90892e-05
-8.7363e-06
9.63393e-05
-6.95296e-06
0.00010414
-5.02184e-06
0.000112576
-2.92954e-06
0.00012173
-6.54788e-07
0.000131549
1.81022e-06
0.00014222
4.48341e-06
0.000153717
7.38568e-06
0.000166123
1.05283e-05
0.000179546
1.39409e-05
0.000193981
1.76354e-05
0.000209606
2.16455e-05
0.000226394
2.59858e-05
0.000244526
3.06881e-05
0.000264011
3.57776e-05
0.000284972
4.12804e-05
0.000307505
4.72373e-05
0.000331618
5.36701e-05
0.000357491
6.06166e-05
0.000385109
6.81144e-05
0.000414523
7.61924e-05
0.000445806
8.48865e-05
0.000478913
9.42353e-05
0.000513774
0.000104268
0.000550315
0.000115014
0.00058834
0.000126497
0.000627552
0.000138733
0.000667533
0.000151732
0.0007077
0.000165477
0.00074726
0.000179951
0.000785163
0.000195076
0.000820036
0.000210782
0.00085011
0.000226919
0.000873155
0.000243278
0.000886306
0.000259664
0.000886039
0.000275729
0.000867829
0.000291108
0.000826267
0.000305153
0.0007548
0.000317279
0.000644766
0.000326395
0.000488031
0.000277067
0.000329517
-2.51236e-05
2.14592e-05
2.54819e-05
-2.47357e-05
2.32037e-05
-2.43134e-05
2.50902e-05
-2.38596e-05
2.71306e-05
-2.33652e-05
2.93371e-05
-2.28343e-05
3.17235e-05
-2.22559e-05
3.43043e-05
-2.16348e-05
3.70955e-05
-2.09573e-05
4.01092e-05
-2.02292e-05
4.33692e-05
-1.94366e-05
4.68988e-05
-1.85852e-05
5.07159e-05
-1.76588e-05
5.48439e-05
-1.66613e-05
5.92941e-05
-1.55737e-05
6.41017e-05
-1.44046e-05
6.93198e-05
-1.31344e-05
7.49626e-05
-1.17616e-05
8.1026e-05
-1.02677e-05
8.75981e-05
-8.65813e-06
9.4727e-05
-6.90539e-06
0.000102389
-5.00789e-06
0.000110677
-2.9522e-06
0.000119676
-7.17599e-07
0.000129313
1.70366e-06
0.000139799
4.32913e-06
0.000151091
7.17932e-06
0.000163273
1.02654e-05
0.000176459
1.36164e-05
0.000190629
1.72443e-05
0.000205978
2.11815e-05
0.000222457
2.54436e-05
0.000240265
3.00605e-05
0.000259393
3.50579e-05
0.000279974
4.04609e-05
0.000302101
4.631e-05
0.000325767
5.26266e-05
0.000351173
5.94479e-05
0.000378287
6.6811e-05
0.00040716
7.47446e-05
0.000437873
8.3284e-05
0.000470374
9.24673e-05
0.000504591
0.000102324
0.000540458
0.000112881
0.000577781
0.000124164
0.000616265
0.000136186
0.000655501
0.000148958
0.000694918
0.000162459
0.000733738
0.000176672
0.000770933
0.00019152
0.000805156
0.000206935
0.000834677
0.00022277
0.000857293
0.000238826
0.000870197
0.000254909
0.000869896
0.000270683
0.000851978
0.000285788
0.000811095
0.000299596
0.000740918
0.000311445
0.000632845
0.000320415
0.00047896
0.000272872
0.000324471
-2.47721e-05
2.11061e-05
2.51229e-05
-2.4392e-05
2.28214e-05
-2.39778e-05
2.46765e-05
-2.35328e-05
2.66828e-05
-2.30474e-05
2.88526e-05
-2.25262e-05
3.11993e-05
-2.19581e-05
3.37373e-05
-2.13477e-05
3.64823e-05
-2.06817e-05
3.94454e-05
-1.99656e-05
4.26509e-05
-1.9186e-05
4.61222e-05
-1.83484e-05
4.98764e-05
-1.7437e-05
5.39365e-05
-1.64557e-05
5.8311e-05
-1.53859e-05
6.3036e-05
-1.4236e-05
6.81678e-05
-1.29871e-05
7.37172e-05
-1.16373e-05
7.96737e-05
-1.01688e-05
8.61325e-05
-8.58693e-06
9.31424e-05
-6.86453e-06
0.000100669
-5.00015e-06
0.00010881
-2.98055e-06
0.000117658
-7.8551e-07
0.000127116
1.59265e-06
0.000137421
4.17105e-06
0.000148512
6.97004e-06
0.000160474
1.00004e-05
0.000173428
1.3291e-05
0.000187338
1.6853e-05
0.000202416
2.07193e-05
0.000218591
2.4904e-05
0.00023608
2.94378e-05
0.00025486
3.43451e-05
0.000275066
3.96508e-05
0.000296794
4.53946e-05
0.000320022
5.15979e-05
0.000344969
5.82972e-05
0.000371587
6.55292e-05
0.000399928
7.3322e-05
0.00043008
8.17104e-05
0.000461987
9.0732e-05
0.000495573
0.000100415
0.000530781
0.000110788
0.000567418
0.000121872
0.000605195
0.000133683
0.000643711
0.000146227
0.000682404
0.000159487
0.000720514
0.000173441
0.000757032
0.000188016
0.000790635
0.000203147
0.000819618
0.000218688
0.000841821
0.00023445
0.000854471
0.000250245
0.000854159
0.000265739
0.000836514
0.000280579
0.000796311
0.000294161
0.000727374
0.000305769
0.000621295
0.000314631
0.000470153
0.000268132
0.000319455
-2.43962e-05
2.07605e-05
2.47395e-05
-2.40241e-05
2.24474e-05
-2.36195e-05
2.42717e-05
-2.3184e-05
2.62446e-05
-2.27096e-05
2.83783e-05
-2.21994e-05
3.06859e-05
-2.16434e-05
3.31818e-05
-2.10455e-05
3.58812e-05
-2.03929e-05
3.87944e-05
-1.96911e-05
4.1946e-05
-1.89265e-05
4.53599e-05
-1.81049e-05
4.90521e-05
-1.72103e-05
5.30452e-05
-1.62472e-05
5.73452e-05
-1.51966e-05
6.1989e-05
-1.40676e-05
6.70359e-05
-1.28406e-05
7.24937e-05
-1.1515e-05
7.8345e-05
-1.00723e-05
8.46927e-05
-8.51845e-06
9.15858e-05
-6.82645e-06
9.8979e-05
-4.99523e-06
0.000106977
-3.01153e-06
0.000115675
-8.5572e-07
0.000124959
1.47984e-06
0.000135086
4.0119e-06
0.000145979
6.76048e-06
0.000157726
9.73636e-06
0.000170452
1.29675e-05
0.000184106
1.64656e-05
0.000198917
2.02621e-05
0.000214795
2.43718e-05
0.000231971
2.88242e-05
0.000250408
3.36436e-05
0.000270246
3.88544e-05
0.000291582
4.44955e-05
0.00031438
5.05881e-05
0.000338875
5.71682e-05
0.000365006
6.42718e-05
0.000392825
7.19267e-05
0.000422426
8.01669e-05
0.000453748
8.90291e-05
0.000486712
9.85413e-05
0.000521269
0.00010873
0.000557229
0.000119617
0.000594305
0.000131217
0.000632104
0.000143535
0.000670077
0.000156553
0.000707478
0.000170252
0.000743319
0.000184558
0.0007763
0.000199411
0.000804752
0.000214668
0.00082654
0.000230149
0.00083895
0.000245665
0.000838599
0.000260892
0.000821228
0.000275479
0.000781676
0.000288844
0.000713955
0.00030024
0.000609849
0.000308953
0.000461363
0.000262852
0.000314131
-2.40003e-05
2.04225e-05
2.43356e-05
-2.36373e-05
2.20819e-05
-2.32412e-05
2.38763e-05
-2.28164e-05
2.58168e-05
-2.23523e-05
2.79153e-05
-2.18542e-05
3.01849e-05
-2.13106e-05
3.26395e-05
-2.07265e-05
3.52943e-05
-2.00883e-05
3.81585e-05
-1.94018e-05
4.12574e-05
-1.86536e-05
4.46148e-05
-1.78491e-05
4.82459e-05
-1.69732e-05
5.2173e-05
-1.60294e-05
5.63997e-05
-1.49999e-05
6.09634e-05
-1.38928e-05
6.59268e-05
-1.26897e-05
7.1294e-05
-1.13891e-05
7.70419e-05
-9.97371e-06
8.328e-05
-8.44875e-06
9.00582e-05
-6.78802e-06
9.73202e-05
-4.99032e-06
0.000105177
-3.04274e-06
0.000113729
-9.2602e-07
0.000122841
1.36731e-06
0.000132794
3.85361e-06
0.000143492
6.55269e-06
0.000155027
9.47491e-06
0.000167529
1.26481e-05
0.000180932
1.60833e-05
0.000195482
1.98119e-05
0.000211067
2.38479e-05
0.000227936
2.82208e-05
0.000246035
3.29543e-05
0.000265513
3.80722e-05
0.000286464
4.36127e-05
0.000308839
4.95967e-05
0.000332891
5.60596e-05
0.000358543
6.30368e-05
0.000385848
7.05554e-05
0.000414909
7.86489e-05
0.000445657
8.7353e-05
0.000478012
9.66951e-05
0.000511933
0.000106701
0.000547232
0.000117392
0.000583628
0.000128781
0.000620733
0.000140873
0.000658012
0.000153652
0.000694731
0.000167098
0.000729921
0.000181141
0.000762306
0.000195723
0.000790238
0.000210706
0.000811624
0.000225915
0.000823782
0.000241164
0.000823407
0.000256135
0.00080629
0.000270478
0.000767393
0.000283632
0.00070084
0.00029484
0.000598704
0.000303352
0.000452907
0.000257774
0.000308515
-2.3603e-05
2.0091e-05
2.39323e-05
-2.32468e-05
2.17236e-05
-2.28596e-05
2.34891e-05
-2.24436e-05
2.53981e-05
-2.19903e-05
2.74624e-05
-2.15034e-05
2.96949e-05
-2.09724e-05
3.21092e-05
-2.04017e-05
3.47204e-05
-1.97782e-05
3.75367e-05
-1.91074e-05
4.05837e-05
-1.8376e-05
4.38857e-05
-1.75896e-05
4.74568e-05
-1.67326e-05
5.13191e-05
-1.58091e-05
5.54736e-05
-1.48009e-05
5.99586e-05
-1.37166e-05
6.48396e-05
-1.25375e-05
7.0118e-05
-1.12626e-05
7.57641e-05
-9.87449e-06
8.18945e-05
-8.37868e-06
8.85595e-05
-6.74918e-06
9.56926e-05
-4.98502e-06
0.00010341
-3.07341e-06
0.000111819
-9.95536e-07
0.000120762
1.25597e-06
0.000130543
3.69716e-06
0.000141051
6.34742e-06
0.000152377
9.21711e-06
0.000164659
1.23332e-05
0.000177815
1.57069e-05
0.000192108
1.93686e-05
0.000207405
2.33326e-05
0.000223972
2.76274e-05
0.000241741
3.22765e-05
0.000260864
3.7303e-05
0.000281437
4.27446e-05
0.000303396
4.86216e-05
0.000327013
5.49689e-05
0.000352196
6.18212e-05
0.000378996
6.9205e-05
0.000407526
7.7153e-05
0.00043771
8.57003e-05
0.000469466
9.48734e-05
0.00050276
0.000104697
0.000537408
0.000115192
0.000573129
0.000126372
0.000609548
0.000138241
0.000646134
0.000150783
0.000682173
0.00016398
0.000716711
0.000177765
0.000748494
0.000192084
0.000775908
0.0002068
0.000796886
0.000221749
0.000808802
0.000236739
0.00080838
0.000251464
0.00079152
0.00026557
0.000753251
0.00027852
0.000687849
0.000289555
0.000587634
0.000297854
0.000444547
0.000252734
0.000302813
-2.32281e-05
1.97648e-05
2.35518e-05
-2.28781e-05
2.13715e-05
-2.24976e-05
2.31088e-05
-2.20893e-05
2.49872e-05
-2.16446e-05
2.70184e-05
-2.11672e-05
2.92148e-05
-2.06472e-05
3.15901e-05
-2.00881e-05
3.41588e-05
-1.94779e-05
3.69284e-05
-1.88212e-05
3.99249e-05
-1.81054e-05
4.31726e-05
-1.73354e-05
4.66851e-05
-1.64966e-05
5.04838e-05
-1.55922e-05
5.45674e-05
-1.46049e-05
5.89751e-05
-1.35426e-05
6.37752e-05
-1.23872e-05
6.89661e-05
-1.11376e-05
7.45119e-05
-9.77665e-06
8.05362e-05
-8.30972e-06
8.709e-05
-6.71128e-06
9.40962e-05
-4.98035e-06
0.000101677
-3.10432e-06
0.000109944
-1.0648e-06
0.000118721
1.14554e-06
0.000128333
3.54231e-06
0.000138653
6.1447e-06
0.000149774
8.9626e-06
0.00016184
1.20228e-05
0.000174754
1.53359e-05
0.000188794
1.89321e-05
0.000203809
2.2825e-05
0.00022008
2.7043e-05
0.000237523
3.1609e-05
0.000256298
3.65455e-05
0.0002765
4.18894e-05
0.000298052
4.76608e-05
0.000321241
5.38937e-05
0.000345963
6.06223e-05
0.000372268
6.78724e-05
0.000400277
7.56761e-05
0.000429908
8.40677e-05
0.000461078
9.30729e-05
0.00049376
0.000102716
0.000527773
0.000113017
0.00056284
0.00012399
0.000598591
0.000135639
0.00063451
0.000147949
0.000669891
0.000160903
0.000703799
0.000174437
0.000735002
0.0001885
0.000761908
0.000202959
0.000782489
0.000217654
0.000794151
0.000232396
0.000793693
0.000246881
0.000777069
0.000260757
0.000739432
0.000273504
0.000675141
0.000284376
0.000576825
0.000292488
0.000436491
0.000248095
0.000297211
-2.28901e-05
1.94427e-05
2.32102e-05
-2.25441e-05
2.1024e-05
-2.21694e-05
2.27336e-05
-2.17666e-05
2.45822e-05
-2.13293e-05
2.65809e-05
-2.08596e-05
2.87422e-05
-2.03485e-05
3.10792e-05
-1.97993e-05
3.36066e-05
-1.92002e-05
3.63305e-05
-1.85559e-05
3.92776e-05
-1.78537e-05
4.24724e-05
-1.70987e-05
4.59274e-05
-1.6276e-05
4.96639e-05
-1.53894e-05
5.36782e-05
-1.44211e-05
5.801e-05
-1.33795e-05
6.27308e-05
-1.22462e-05
6.78359e-05
-1.10207e-05
7.32834e-05
-9.6854e-06
7.92036e-05
-8.24619e-06
8.5648e-05
-6.67757e-06
9.25295e-05
-4.97883e-06
9.99762e-05
-3.13738e-06
0.000108104
-1.13525e-06
0.000116718
1.03483e-06
0.000126164
3.38818e-06
0.000136299
5.94358e-06
0.000147219
8.71086e-06
0.000159073
1.1716e-05
0.000171748
1.49697e-05
0.000185541
1.85011e-05
0.000200278
2.23242e-05
0.000216258
2.64665e-05
0.000233382
3.09503e-05
0.000251814
3.5798e-05
0.000271652
4.10456e-05
0.000292804
4.67125e-05
0.000315574
5.28324e-05
0.000339843
5.94386e-05
0.000365662
6.65565e-05
0.00039316
7.42176e-05
0.000422248
8.24552e-05
0.000452841
9.12947e-05
0.000484921
0.00010076
0.000518307
0.000110871
0.000552726
0.00012164
0.000587816
0.000133073
0.000623069
0.000145156
0.000657793
0.000157873
0.000691069
0.000171164
0.000721686
0.00018498
0.000748083
0.00019919
0.000768257
0.000213639
0.000779673
0.000228137
0.000779163
0.000242389
0.000762779
0.000256039
0.000725752
0.000268584
0.000662563
0.000279298
0.000566084
0.000287262
0.000428475
0.000243487
0.000291802
-2.25945e-05
1.91243e-05
2.29101e-05
-2.22533e-05
2.06804e-05
-2.18821e-05
2.23628e-05
-2.14847e-05
2.4182e-05
-2.1052e-05
2.6149e-05
-2.05884e-05
2.82759e-05
-2.00839e-05
3.05758e-05
-1.95424e-05
3.30627e-05
-1.89521e-05
3.57422e-05
-1.83175e-05
3.86411e-05
-1.76266e-05
4.17842e-05
-1.68839e-05
4.51831e-05
-1.60755e-05
4.88587e-05
-1.5204e-05
5.28051e-05
-1.42531e-05
5.70626e-05
-1.323e-05
6.17056e-05
-1.21175e-05
6.67265e-05
-1.09141e-05
7.20775e-05
-9.60335e-06
7.78954e-05
-8.19031e-06
8.42324e-05
-6.65035e-06
9.09913e-05
-4.98244e-06
9.83061e-05
-3.1744e-06
0.000106297
-1.20847e-06
0.00011475
9.22512e-07
0.000124034
3.23353e-06
0.000133988
5.74311e-06
0.00014471
8.46065e-06
0.000156355
1.1412e-05
0.000168796
1.46071e-05
0.000182345
1.80751e-05
0.00019681
2.18292e-05
0.000212504
2.58967e-05
0.000229315
3.02998e-05
0.000247412
3.50597e-05
0.000266892
4.02121e-05
0.000287651
4.5776e-05
0.00031001
5.17842e-05
0.000333835
5.82696e-05
0.000359177
6.52571e-05
0.000386173
7.27774e-05
0.00041473
8.08633e-05
0.000444758
8.95398e-05
0.000476249
9.88301e-05
0.000509024
0.000108754
0.000542813
0.000119325
0.00057726
0.000130548
0.000611866
0.000142411
0.000645953
0.000154899
0.000678618
0.000167955
0.000708668
0.000181531
0.000734566
0.000195499
0.000754347
0.00020971
0.000765507
0.000223971
0.000764951
0.000237992
0.000748791
0.000251421
0.000712376
0.000263762
0.000650259
0.000274318
0.000555591
0.000282168
0.000420677
0.000239133
0.0002866
-2.23336e-05
1.88095e-05
2.26463e-05
-2.19954e-05
2.03405e-05
-2.16288e-05
2.1996e-05
-2.12351e-05
2.37861e-05
-2.08077e-05
2.57217e-05
-2.03492e-05
2.78147e-05
-1.98508e-05
3.00778e-05
-1.9316e-05
3.25251e-05
-1.87334e-05
3.51609e-05
-1.81075e-05
3.80125e-05
-1.74264e-05
4.11049e-05
-1.66947e-05
4.44489e-05
-1.58984e-05
4.8065e-05
-1.50407e-05
5.1945e-05
-1.4105e-05
5.61298e-05
-1.30987e-05
6.06967e-05
-1.20046e-05
6.56351e-05
-1.08216e-05
7.08916e-05
-9.53323e-06
7.66093e-05
-8.14464e-06
8.28411e-05
-6.63149e-06
8.94799e-05
-4.99287e-06
9.66653e-05
-3.21672e-06
0.000104522
-1.28561e-06
0.000112818
8.07516e-07
0.000121941
3.07744e-06
0.000131717
5.54227e-06
0.000142245
8.21136e-06
0.000153685
1.11097e-05
0.000165897
1.42476e-05
0.000179207
1.7653e-05
0.000193405
2.13393e-05
0.000208819
2.53334e-05
0.000225322
2.96566e-05
0.00024309
3.43301e-05
0.000262219
3.93887e-05
0.000282592
4.4851e-05
0.000304547
5.07494e-05
0.000327937
5.7116e-05
0.000352811
6.39752e-05
0.000379315
7.13573e-05
0.000407349
7.92946e-05
0.000436822
8.78115e-05
0.000467733
9.69312e-05
0.000499903
0.000106673
0.000533068
0.000117051
0.000566876
0.00012807
0.000600839
0.00013972
0.000634289
0.000151987
0.000666338
0.000164814
0.000695816
0.000178158
0.000721212
0.000191892
0.000740591
0.000205869
0.000751504
0.000219897
0.000750894
0.000233691
0.000734962
0.0002469
0.000699142
0.000259038
0.000638093
0.000269432
0.000545174
0.00027719
0.000412873
0.00023469
0.000281573
-2.20982e-05
1.84988e-05
2.24063e-05
-2.17645e-05
2.00049e-05
-2.1402e-05
2.16335e-05
-2.10129e-05
2.33948e-05
-2.05901e-05
2.52993e-05
-2.01365e-05
2.73587e-05
-1.96438e-05
2.95857e-05
-1.91148e-05
3.19939e-05
-1.85393e-05
3.45868e-05
-1.79207e-05
3.73921e-05
-1.72484e-05
4.04349e-05
-1.65262e-05
4.3725e-05
-1.5741e-05
4.72828e-05
-1.48953e-05
5.10977e-05
-1.39735e-05
5.52113e-05
-1.29824e-05
5.97036e-05
-1.19055e-05
6.45612e-05
-1.07414e-05
6.9725e-05
-9.47411e-06
7.53445e-05
-8.10855e-06
8.1473e-05
-6.62094e-06
8.7994e-05
-5.01026e-06
9.50525e-05
-3.2647e-06
0.000102777
-1.36715e-06
0.000110919
6.8939e-07
0.000119885
2.91936e-06
0.000129487
5.34068e-06
0.000139824
7.96227e-06
0.000151063
1.0809e-05
0.000163049
1.38905e-05
0.000176125
1.72347e-05
0.000190061
2.08543e-05
0.000205199
2.47761e-05
0.000221401
2.90209e-05
0.000238846
3.36094e-05
0.00025763
3.85758e-05
0.000277625
4.39383e-05
0.000299185
4.97288e-05
0.000322146
5.59788e-05
0.000346562
6.27123e-05
0.000372583
6.99591e-05
0.000400104
7.7751e-05
0.000429033
8.61122e-05
0.000459376
9.50656e-05
0.000490956
0.000104631
0.000523512
0.000114821
0.000556698
0.000125643
0.000590035
0.000137087
0.000622866
0.00014914
0.000654319
0.000161746
0.000683242
0.000174865
0.000708148
0.00018837
0.00072714
0.000202118
0.000737798
0.000215918
0.000737139
0.000229487
0.000721424
0.000242478
0.0006862
0.00025441
0.000626196
0.00026464
0.000535005
0.000272313
0.000405248
0.000230399
0.00027668
-2.18749e-05
1.81928e-05
2.21792e-05
-2.15452e-05
1.9674e-05
-2.11882e-05
2.1276e-05
-2.08037e-05
2.30085e-05
-2.03869e-05
2.4882e-05
-1.99388e-05
2.69082e-05
-1.94523e-05
2.90993e-05
-1.89298e-05
3.14688e-05
-1.83614e-05
3.40192e-05
-1.77506e-05
3.67788e-05
-1.70868e-05
3.97727e-05
-1.63741e-05
4.30099e-05
-1.55992e-05
4.65104e-05
-1.47654e-05
5.02614e-05
-1.38564e-05
5.43052e-05
-1.28799e-05
5.87244e-05
-1.18189e-05
6.35029e-05
-1.06727e-05
6.85759e-05
-9.42514e-06
7.40993e-05
-8.08147e-06
8.01267e-05
-6.61805e-06
8.65323e-05
-5.03411e-06
9.34664e-05
-3.31792e-06
0.000101062
-1.45275e-06
0.000109053
5.68317e-07
0.000117865
2.7595e-06
0.000127295
5.13829e-06
0.000137446
7.71366e-06
0.000148487
1.05097e-05
0.000160253
1.35362e-05
0.000173099
1.68201e-05
0.000186777
2.03745e-05
0.000201646
2.42253e-05
0.000217551
2.83931e-05
0.000234679
3.28983e-05
0.000253126
3.77742e-05
0.000272749
4.3039e-05
0.00029392
4.87239e-05
0.000316461
5.48598e-05
0.000340426
6.14705e-05
0.000365973
6.85853e-05
0.00039299
7.62356e-05
0.000421383
8.44453e-05
0.000451166
9.32372e-05
0.000482163
0.000102631
0.000514115
0.00011264
0.000546684
0.000123271
0.000579396
0.000134515
0.000611609
0.00014636
0.000642462
0.000158752
0.000670826
0.000171652
0.00069524
0.000184932
0.000713836
0.000198456
0.000724251
0.000212029
0.000723539
0.000225375
0.000708047
0.000238148
0.000673405
0.000249876
0.000614442
0.000259938
0.000524924
0.000267524
0.000397621
0.000225987
0.000271882
-2.16555e-05
1.7892e-05
2.19533e-05
-2.13323e-05
1.93486e-05
-2.09802e-05
2.09241e-05
-2.06022e-05
2.26281e-05
-2.01906e-05
2.4471e-05
-1.97489e-05
2.64642e-05
-1.92686e-05
2.86197e-05
-1.87529e-05
3.0951e-05
-1.81917e-05
3.34596e-05
-1.75887e-05
3.61741e-05
-1.69336e-05
3.91197e-05
-1.623e-05
4.23048e-05
-1.54659e-05
4.5749e-05
-1.46432e-05
4.94371e-05
-1.37475e-05
5.34123e-05
-1.27848e-05
5.77598e-05
-1.17399e-05
6.24606e-05
-1.06108e-05
6.74445e-05
-9.38288e-06
7.28734e-05
-8.06036e-06
7.88017e-05
-6.62063e-06
8.50941e-05
-5.06259e-06
9.19063e-05
-3.37499e-06
9.93756e-05
-1.54129e-06
0.000107218
4.45243e-07
0.000115879
2.59854e-06
0.000125141
4.9359e-06
0.000135109
7.46589e-06
0.000145957
1.02125e-05
0.000157505
1.31849e-05
0.000170126
1.64101e-05
0.000183552
1.99004e-05
0.000198156
2.36817e-05
0.000213771
2.77742e-05
0.000230587
3.21977e-05
0.000248702
3.69852e-05
0.000267961
4.21544e-05
0.00028875
4.77361e-05
0.00031088
5.37607e-05
0.000334402
6.02516e-05
0.000359483
6.72377e-05
0.000386005
7.47501e-05
0.000413874
8.28125e-05
0.000443108
9.14473e-05
0.000473534
0.000100674
0.000504896
0.000110507
0.000536862
0.000120953
0.000568966
0.000132004
0.000600576
0.000143647
0.000630849
0.000155831
0.000658671
0.000168516
0.000682607
0.000181577
0.000700824
0.000194879
0.000710991
0.000208227
0.000710229
0.000221352
0.000694951
0.000233908
0.000660892
0.000245432
0.000602952
0.000255323
0.00051509
0.000262813
0.000390175
0.000221719
0.000267154
-2.14295e-05
1.75971e-05
2.17226e-05
-2.11114e-05
1.90293e-05
-2.07662e-05
2.05785e-05
-2.03943e-05
2.22542e-05
-1.99901e-05
2.40667e-05
-1.95555e-05
2.60271e-05
-1.9083e-05
2.81474e-05
-1.85752e-05
3.04407e-05
-1.80225e-05
3.29079e-05
-1.74284e-05
3.55777e-05
-1.67829e-05
3.84757e-05
-1.60896e-05
4.16094e-05
-1.53364e-05
4.4998e-05
-1.45258e-05
4.86243e-05
-1.3643e-05
5.25321e-05
-1.26947e-05
5.6809e-05
-1.16654e-05
6.14336e-05
-1.05536e-05
6.63301e-05
-9.34458e-06
7.16665e-05
-8.04293e-06
7.74975e-05
-6.62626e-06
8.36789e-05
-5.09363e-06
9.03716e-05
-3.43398e-06
9.77169e-05
-1.63108e-06
0.000105413
3.2161e-07
0.000113927
2.43785e-06
0.000123024
4.73451e-06
0.000132812
7.22022e-06
0.000143471
9.91818e-06
0.000154807
1.28379e-05
0.000167206
1.60052e-05
0.000180385
1.94331e-05
0.000194729
2.31464e-05
0.000210059
2.71652e-05
0.000226569
3.1509e-05
0.000244359
3.62101e-05
0.00026326
4.1286e-05
0.000283674
4.6767e-05
0.000305399
5.26831e-05
0.000328486
5.90574e-05
0.000353109
6.59184e-05
0.000379145
7.32967e-05
0.000406496
8.12158e-05
0.000435188
8.96982e-05
0.000465051
9.87635e-05
0.000495828
0.000108425
0.000527195
0.000118692
0.000558693
0.000129554
0.000589702
0.000141
0.000619391
0.00015298
0.000646668
0.000165454
0.000670124
0.000178299
0.000687956
0.000191381
0.000697885
0.000204507
0.000697078
0.000217411
0.00068202
0.000229752
0.000648531
0.000241072
0.000591608
0.00025079
0.000505355
0.000258173
0.000382754
0.000217363
0.00026248
-2.11946e-05
1.73081e-05
2.14811e-05
-2.08833e-05
1.87164e-05
-2.05447e-05
2.02397e-05
-2.01799e-05
2.18876e-05
-1.9783e-05
2.367e-05
-1.9356e-05
2.55981e-05
-1.88917e-05
2.76836e-05
-1.83922e-05
2.99394e-05
-1.78488e-05
3.23655e-05
-1.72641e-05
3.49913e-05
-1.66288e-05
3.78422e-05
-1.59462e-05
4.09252e-05
-1.52047e-05
4.4259e-05
-1.44064e-05
4.78244e-05
-1.35374e-05
5.16658e-05
-1.26037e-05
5.58733e-05
-1.15904e-05
6.04228e-05
-1.04961e-05
6.52334e-05
-9.30642e-06
7.04788e-05
-8.02565e-06
7.62144e-05
-6.63209e-06
8.22868e-05
-5.1247e-06
8.88622e-05
-3.49271e-06
9.60859e-05
-1.72024e-06
0.00010364
1.99165e-07
0.000112008
2.27891e-06
0.000120944
4.53569e-06
0.000130556
6.97776e-06
0.000141029
9.62828e-06
0.000152156
1.2496e-05
0.000164338
1.56072e-05
0.000177274
1.89736e-05
0.000191363
2.26206e-05
0.000206413
2.65674e-05
0.000222624
3.08334e-05
0.000240094
3.54501e-05
0.000258643
4.04351e-05
0.000278689
4.58179e-05
0.000300016
5.16283e-05
0.000322677
5.7889e-05
0.00034685
6.46281e-05
0.000372407
7.18759e-05
0.00039925
7.96557e-05
0.000427412
8.79898e-05
0.000456722
9.68976e-05
0.000486928
0.000106393
0.000517709
0.000116484
0.000548617
0.000127162
0.00057904
0.000138416
0.000608164
0.000150196
0.000634914
0.000162463
0.000657906
0.000175094
0.00067537
0.000187959
0.000685061
0.000200864
0.000684209
0.000213548
0.000669363
0.000225674
0.000636444
0.000236791
0.000580524
0.000246335
0.000495865
0.000253602
0.00037553
0.000213182
0.000257854
-2.09475e-05
1.70252e-05
2.1229e-05
-2.06418e-05
1.84099e-05
-2.03107e-05
1.99079e-05
-1.99528e-05
2.15283e-05
-1.95644e-05
2.32811e-05
-1.91456e-05
2.51772e-05
-1.86905e-05
2.72282e-05
-1.82004e-05
2.9447e-05
-1.76669e-05
3.18326e-05
-1.70926e-05
3.44148e-05
-1.64683e-05
3.72192e-05
-1.57974e-05
4.02521e-05
-1.50682e-05
4.35319e-05
-1.42833e-05
4.70373e-05
-1.34283e-05
5.08132e-05
-1.25099e-05
5.49525e-05
-1.15129e-05
5.94282e-05
-1.04364e-05
6.41543e-05
-9.26607e-06
6.93104e-05
-8.00641e-06
7.49522e-05
-6.63586e-06
8.09177e-05
-5.15367e-06
8.7378e-05
-3.54916e-06
9.44823e-05
-1.80684e-06
0.000101896
7.96628e-08
0.000110122
2.12347e-06
0.0001189
4.34085e-06
0.000128339
6.74019e-06
0.000138629
9.34387e-06
0.000149551
1.2161e-05
0.000161521
1.52167e-05
0.000174218
1.85235e-05
0.000188057
2.21054e-05
0.000202832
2.59821e-05
0.000218748
3.0172e-05
0.000235904
3.47065e-05
0.000254109
3.96027e-05
0.000273793
4.489e-05
0.000294729
5.05974e-05
0.00031697
5.67474e-05
0.0003407
6.33679e-05
0.000365788
7.04887e-05
0.00039213
7.81328e-05
0.000419768
8.63223e-05
0.000448531
9.50766e-05
0.000478171
0.00010441
0.000508371
0.000114329
0.000538691
0.000124827
0.000568531
0.000135892
0.000597088
0.000147475
0.000623309
0.000159537
0.000645835
0.000171956
0.000662926
0.000184605
0.00067239
0.000197291
0.000671499
0.000209756
0.000656872
0.000221668
0.000624513
0.000232584
0.000569585
0.000241955
0.000486478
0.000249096
0.000368355
0.000208956
0.000253277
-2.06905e-05
1.67482e-05
2.09646e-05
-2.03924e-05
1.81099e-05