/*--------------------------------*- C++ -*----------------------------------*\
  =========                 |
  \\      /  F ield         | OpenFOAM: The Open Source CFD Toolbox
   \\    /   O peration     | Website:  https://openfoam.org
    \\  /    A nd           | Version:  6.0
     \\/     M anipulation  |
\*---------------------------------------------------------------------------*/
FoamFile
{
    version     2.0;
    format      ascii;
    class       surfaceScalarField;
    location    "0.93";
    object      phi;
}
// * * * * * * * * * * * * * * * * * * * * * * * * * * * * * * * * * * * * * //

dimensions      [0 3 -1 0 0 0 0];

internalField   nonuniform List<scalar> 
26699
(
2.0051e-05
0.005201
3.4144e-10
4.0126e-05
0.0051116
5.9638e-05
0.0049351
7.8187e-05
0.0046741
9.5414e-05
0.0043332
0.00011102
0.0039182
0.00012471
0.0034362
0.00013626
0.0028953
0.00014545
0.002305
0.00015186
0.0016754
0.00015716
0.0010155
0.00046497
3.4398e-05
2.0051e-05
0.0051809
1.078e-09
4.0128e-05
0.0050916
5.9639e-05
0.0049156
7.8191e-05
0.0046556
9.5415e-05
0.004316
0.00011102
0.0039026
0.00012471
0.0034225
0.00013625
0.0028838
0.00014542
0.0022958
0.00015121
0.0016697
0.00015892
0.0010078
0.00055895
6.4937e-05
2.0051e-05
0.0051609
1.8768e-09
4.0129e-05
0.0050715
5.9642e-05
0.004896
7.8194e-05
0.004637
9.5418e-05
0.0042988
0.00011103
0.003887
0.0001247
0.0034088
0.00013623
0.0028723
0.00014541
0.0022866
0.00015057
0.0016645
0.00016022
0.0009981
0.00062919
8.9985e-05
2.0052e-05
0.0051408
2.6813e-09
4.0131e-05
0.0050514
5.9644e-05
0.0048765
7.8197e-05
0.0046185
9.5421e-05
0.0042816
0.00011103
0.0038714
0.0001247
0.0033951
0.00013621
0.0028608
0.00014541
0.0022774
0.00014998
0.0016599
0.00016102
0.00098707
0.00068016
0.00011004
2.0052e-05
0.0051208
3.4868e-09
4.0132e-05
0.0050313
5.9646e-05
0.004857
7.82e-05
0.0045999
9.5424e-05
0.0042643
0.00011103
0.0038558
0.0001247
0.0033815
0.00013619
0.0028493
0.00014544
0.0022682
0.00014946
0.0016559
0.00016131
0.00097521
0.00071557
0.0001259
2.0052e-05
0.0051007
4.2932e-09
4.0134e-05
0.0050112
5.9649e-05
0.0048375
7.8203e-05
0.0045813
9.5427e-05
0.0042471
0.00011103
0.0038402
0.00012469
0.0033678
0.00013616
0.0028378
0.00014547
0.0022589
0.00014902
0.0016524
0.00016119
0.00096304
0.00073852
0.00013824
2.0053e-05
0.0050807
5.1004e-09
4.0135e-05
0.0049912
5.9651e-05
0.004818
7.8205e-05
0.0045628
9.5429e-05
0.0042299
0.00011103
0.0038246
0.00012469
0.0033541
0.00013614
0.0028264
0.00014551
0.0022495
0.00014868
0.0016492
0.00016074
0.00095097
0.00075161
0.00014765
2.0053e-05
0.0050606
5.9086e-09
4.0136e-05
0.0049711
5.9653e-05
0.0047985
7.8208e-05
0.0045442
9.5432e-05
0.0042127
0.00011103
0.003809
0.00012469
0.0033405
0.00013612
0.0028149
0.00014555
0.0022401
0.00014844
0.0016463
0.00016006
0.00093935
0.00075704
0.00015462
2.0053e-05
0.0050405
6.7177e-09
4.0138e-05
0.004951
5.9656e-05
0.0047789
7.8211e-05
0.0045257
9.5436e-05
0.0041954
0.00011103
0.0037934
0.00012469
0.0033268
0.00013609
0.0028035
0.0001456
0.0022305
0.0001483
0.0016436
0.00015922
0.00092843
0.00075663
0.00015963
2.0054e-05
0.0050205
7.5278e-09
4.0139e-05
0.0049309
5.9658e-05
0.0047594
7.8214e-05
0.0045071
9.5439e-05
0.0041782
0.00011104
0.0037778
0.00012469
0.0033132
0.00013607
0.0027922
0.00014564
0.002221
0.00014825
0.001641
0.00015832
0.00091836
0.00075189
0.00016306
2.0054e-05
0.0050004
8.3389e-09
4.0141e-05
0.0049108
5.9661e-05
0.0047399
7.8217e-05
0.0044886
9.5442e-05
0.004161
0.00011104
0.0037622
0.00012469
0.0032995
0.00013605
0.0027808
0.00014567
0.0022114
0.00014829
0.0016384
0.0001574
0.00090925
0.00074403
0.00016526
2.0054e-05
0.0049804
9.1512e-09
4.0142e-05
0.0048907
5.9663e-05
0.0047204
7.822e-05
0.00447
9.5445e-05
0.0041438
0.00011104
0.0037466
0.0001247
0.0032859
0.00013602
0.0027695
0.0001457
0.0022017
0.0001484
0.0016357
0.00015651
0.00090114
0.00073402
0.00016652
2.0055e-05
0.0049603
9.9645e-09
4.0143e-05
0.0048706
5.9665e-05
0.0047009
7.8223e-05
0.0044515
9.5449e-05
0.0041265
0.00011104
0.003731
0.0001247
0.0032722
0.000136
0.0027582
0.00014571
0.002192
0.00014856
0.0016328
0.00015569
0.00089402
0.00072262
0.00016709
2.0055e-05
0.0049402
1.0779e-08
4.0145e-05
0.0048506
5.9668e-05
0.0046813
7.8226e-05
0.0044329
9.5452e-05
0.0041093
0.00011104
0.0037154
0.0001247
0.0032585
0.00013598
0.0027469
0.00014572
0.0021822
0.00014877
0.0016298
0.00015496
0.00088783
0.00071041
0.00016716
2.0055e-05
0.0049202
1.1595e-08
4.0146e-05
0.0048305
5.967e-05
0.0046618
7.8229e-05
0.0044143
9.5456e-05
0.0040921
0.00011104
0.0036998
0.00012471
0.0032449
0.00013596
0.0027357
0.00014573
0.0021725
0.00014901
0.0016265
0.00015433
0.00088251
0.00069785
0.0001669
2.0056e-05
0.0049001
1.2412e-08
4.0147e-05
0.0048104
5.9673e-05
0.0046423
7.8232e-05
0.0043958
9.546e-05
0.0040749
0.00011105
0.0036842
0.00012471
0.0032312
0.00013594
0.0027244
0.00014572
0.0021627
0.00014927
0.0016229
0.00015381
0.00087796
0.00068523
0.00016643
2.0056e-05
0.00488
1.323e-08
4.0149e-05
0.0047903
5.9675e-05
0.0046228
7.8235e-05
0.0043772
9.5464e-05
0.0040576
0.00011105
0.0036687
0.00012472
0.0032175
0.00013593
0.0027132
0.00014571
0.0021529
0.00014953
0.0016191
0.0001534
0.00087409
0.00067278
0.00016585
2.0056e-05
0.00486
1.4049e-08
4.015e-05
0.0047702
5.9678e-05
0.0046032
7.8238e-05
0.0043587
9.5468e-05
0.0040404
0.00011105
0.0036531
0.00012473
0.0032038
0.00013591
0.002702
0.00014569
0.0021431
0.00014979
0.001615
0.00015309
0.0008708
0.00066065
0.00016522
2.0057e-05
0.0048399
1.487e-08
4.0152e-05
0.0047501
5.9681e-05
0.0045837
7.8241e-05
0.0043401
9.5472e-05
0.0040232
0.00011105
0.0036375
0.00012474
0.0031902
0.0001359
0.0026909
0.00014567
0.0021333
0.00015005
0.0016106
0.00015287
0.00086798
0.00064893
0.00016459
2.0057e-05
0.0048198
1.5692e-08
4.0153e-05
0.00473
5.9683e-05
0.0045642
7.8244e-05
0.0043215
9.5476e-05
0.0040059
0.00011105
0.0036219
0.00012475
0.0031765
0.0001359
0.0026797
0.00014565
0.0021236
0.00015029
0.001606
0.00015273
0.00086554
0.00063764
0.00016401
2.0057e-05
0.0047997
1.6516e-08
4.0154e-05
0.0047099
5.9686e-05
0.0045446
7.8247e-05
0.004303
9.5481e-05
0.0039887
0.00011105
0.0036063
0.00012476
0.0031628
0.00013589
0.0026686
0.00014562
0.0021139
0.00015051
0.0016011
0.00015265
0.00086339
0.00062682
0.00016348
2.0058e-05
0.0047797
1.7341e-08
4.0156e-05
0.0046898
5.9689e-05
0.0045251
7.825e-05
0.0042844
9.5486e-05
0.0039715
0.00011106
0.0035908
0.00012477
0.003149
0.00013589
0.0026575
0.0001456
0.0021042
0.00015071
0.001596
0.00015264
0.00086146
0.00061644
0.00016302
2.0058e-05
0.0047596
1.8168e-08
4.0157e-05
0.0046697
5.9691e-05
0.0045056
7.8253e-05
0.0042659
9.549e-05
0.0039542
0.00011106
0.0035752
0.00012478
0.0031353
0.0001359
0.0026463
0.00014557
0.0020945
0.0001509
0.0015907
0.00015267
0.00085969
0.00060649
0.00016262
2.0059e-05
0.0047395
1.8997e-08
4.0159e-05
0.0046496
5.9694e-05
0.004486
7.8256e-05
0.0042473
9.5496e-05
0.003937
0.00011106
0.0035596
0.00012479
0.0031216
0.0001359
0.0026352
0.00014555
0.0020848
0.00015107
0.0015852
0.00015274
0.00085802
0.00059694
0.00016229
2.0059e-05
0.0047194
1.9827e-08
4.016e-05
0.0046295
5.9697e-05
0.0044665
7.8259e-05
0.0042287
9.5501e-05
0.0039197
0.00011106
0.0035441
0.0001248
0.0031079
0.00013591
0.0026241
0.00014553
0.0020752
0.00015121
0.0015795
0.00015283
0.00085641
0.00058774
0.00016202
2.0059e-05
0.0046994
2.0659e-08
4.0161e-05
0.0046094
5.97e-05
0.004447
7.8262e-05
0.0042102
9.5507e-05
0.0039025
0.00011106
0.0035285
0.00012481
0.0030941
0.00013592
0.002613
0.00014551
0.0020656
0.00015135
0.0015736
0.00015294
0.00085481
0.00057888
0.00016181
2.006e-05
0.0046793
2.1492e-08
4.0163e-05
0.0045893
5.9703e-05
0.0044274
7.8265e-05
0.0041916
9.5512e-05
0.0038853
0.00011107
0.003513
0.00012482
0.0030804
0.00013594
0.0026019
0.0001455
0.0020561
0.00015147
0.0015677
0.00015307
0.00085321
0.00057031
0.00016164
2.006e-05
0.0046592
2.2327e-08
4.0164e-05
0.0045692
5.9706e-05
0.0044079
7.8269e-05
0.004173
9.5519e-05
0.003868
0.00011107
0.0034974
0.00012484
0.0030666
0.00013596
0.0025908
0.00014549
0.0020465
0.00015157
0.0015616
0.0001532
0.00085157
0.00056201
0.00016151
2.0061e-05
0.0046391
2.3165e-08
4.0166e-05
0.0045491
5.9709e-05
0.0043883
7.8272e-05
0.0041545
9.5525e-05
0.0038507
0.00011108
0.0034819
0.00012485
0.0030528
0.00013598
0.0025796
0.00014548
0.002037
0.00015167
0.0015554
0.00015334
0.0008499
0.00055395
0.0001614
2.0061e-05
0.004619
2.4004e-08
4.0167e-05
0.004529
5.9712e-05
0.0043688
7.8276e-05
0.0041359
9.5532e-05
0.0038335
0.00011108
0.0034663
0.00012487
0.003039
0.000136
0.0025685
0.00014548
0.0020276
0.00015175
0.0015491
0.00015348
0.00084817
0.00054611
0.00016132
2.0062e-05
0.0045989
2.4844e-08
4.0169e-05
0.0045089
5.9715e-05
0.0043493
7.8279e-05
0.0041174
9.5539e-05
0.0038162
0.00011109
0.0034508
0.00012488
0.0030252
0.00013602
0.0025574
0.00014547
0.0020181
0.00015183
0.0015428
0.00015362
0.00084638
0.00053847
0.00016126
2.0062e-05
0.0045788
2.5687e-08
4.017e-05
0.0044888
5.9718e-05
0.0043297
7.8283e-05
0.0040988
9.5546e-05
0.003799
0.00011109
0.0034352
0.0001249
0.0030114
0.00013605
0.0025462
0.00014548
0.0020087
0.0001519
0.0015363
0.00015376
0.00084453
0.00053102
0.00016121
2.0063e-05
0.0045588
2.6532e-08
4.0172e-05
0.0044687
5.9722e-05
0.0043102
7.8287e-05
0.0040802
9.5554e-05
0.0037817
0.0001111
0.0034197
0.00012491
0.0029976
0.00013607
0.0025351
0.00014548
0.0019993
0.00015197
0.0015298
0.00015389
0.0008426
0.00052374
0.00016117
2.0063e-05
0.0045387
2.7378e-08
4.0174e-05
0.0044485
5.9725e-05
0.0042906
7.8291e-05
0.0040617
9.5562e-05
0.0037644
0.00011111
0.0034041
0.00012493
0.0029838
0.0001361
0.0025239
0.00014548
0.0019899
0.00015203
0.0015233
0.00015402
0.00084061
0.00051663
0.00016114
2.0064e-05
0.0045186
2.8227e-08
4.0175e-05
0.0044284
5.9729e-05
0.004271
7.8296e-05
0.0040431
9.557e-05
0.0037472
0.00011112
0.0033886
0.00012494
0.00297
0.00013613
0.0025127
0.00014549
0.0019805
0.00015209
0.0015167
0.00015415
0.00083855
0.00050966
0.00016111
2.0064e-05
0.0044985
2.9077e-08
4.0177e-05
0.0044083
5.9733e-05
0.0042515
7.83e-05
0.0040245
9.5579e-05
0.0037299
0.00011113
0.003373
0.00012496
0.0029561
0.00013616
0.0025015
0.0001455
0.0019712
0.00015215
0.0015101
0.00015427
0.00083643
0.00050285
0.00016109
2.0065e-05
0.0044784
2.9928e-08
4.0179e-05
0.0043882
5.9736e-05
0.0042319
7.8305e-05
0.004006
9.5588e-05
0.0037126
0.00011114
0.0033575
0.00012498
0.0029423
0.00013619
0.0024903
0.00014551
0.0019619
0.0001522
0.0015034
0.00015439
0.00083424
0.00049616
0.00016107
2.0065e-05
0.0044583
3.0781e-08
4.0181e-05
0.0043681
5.974e-05
0.0042124
7.8311e-05
0.0039874
9.5598e-05
0.0036953
0.00011115
0.0033419
0.00012499
0.0029285
0.00013622
0.0024791
0.00014552
0.0019525
0.00015225
0.0014966
0.0001545
0.00083198
0.00048962
0.00016105
2.0066e-05
0.0044382
3.1635e-08
4.0183e-05
0.004348
5.9745e-05
0.0041928
7.8316e-05
0.0039688
9.5608e-05
0.003678
0.00011116
0.0033264
0.00012501
0.0029146
0.00013624
0.0024678
0.00014553
0.0019433
0.0001523
0.0014899
0.00015462
0.00082967
0.0004832
0.00016103
2.0067e-05
0.0044181
3.249e-08
4.0185e-05
0.0043279
5.9749e-05
0.0041733
7.8322e-05
0.0039502
9.5619e-05
0.0036607
0.00011118
0.0033108
0.00012503
0.0029008
0.00013627
0.0024566
0.00014554
0.001934
0.00015235
0.0014831
0.00015472
0.00082729
0.00047691
0.00016102
2.0067e-05
0.004398
3.3346e-08
4.0187e-05
0.0043077
5.9754e-05
0.0041537
7.8329e-05
0.0039317
9.563e-05
0.0036434
0.00011119
0.0032953
0.00012504
0.0028869
0.0001363
0.0024453
0.00014556
0.0019247
0.00015239
0.0014762
0.00015483
0.00082486
0.00047073
0.000161
2.0068e-05
0.0043779
3.4201e-08
4.0189e-05
0.0042876
5.9759e-05
0.0041341
7.8336e-05
0.0039131
9.5641e-05
0.0036261
0.0001112
0.0032797
0.00012506
0.0028731
0.00013633
0.0024341
0.00014557
0.0019155
0.00015244
0.0014693
0.00015493
0.00082237
0.00046468
0.00016098
2.0069e-05
0.0043578
3.5056e-08
4.0192e-05
0.0042675
5.9764e-05
0.0041145
7.8343e-05
0.0038945
9.5653e-05
0.0036088
0.00011122
0.0032641
0.00012508
0.0028592
0.00013635
0.0024228
0.00014558
0.0019063
0.00015248
0.0014624
0.00015503
0.00081983
0.00045874
0.00016097
2.007e-05
0.0043377
3.591e-08
4.0195e-05
0.0042474
5.9769e-05
0.004095
7.835e-05
0.0038759
9.5665e-05
0.0035915
0.00011123
0.0032486
0.00012509
0.0028453
0.00013638
0.0024115
0.00014559
0.0018971
0.00015253
0.0014555
0.00015512
0.00081724
0.00045291
0.00016095
2.0071e-05
0.0043176
3.6763e-08
4.0197e-05
0.0042272
5.9774e-05
0.0040754
7.8358e-05
0.0038573
9.5677e-05
0.0035742
0.00011125
0.003233
0.00012511
0.0028315
0.00013641
0.0024002
0.00014561
0.0018879
0.00015257
0.0014485
0.00015521
0.0008146
0.00044719
0.00016093
2.0072e-05
0.0042975
3.7612e-08
4.02e-05
0.0042071
5.978e-05
0.0040558
7.8367e-05
0.0038388
9.569e-05
0.0035568
0.00011127
0.0032174
0.00012512
0.0028176
0.00013643
0.0023889
0.00014562
0.0018787
0.00015261
0.0014416
0.0001553
0.0008119
0.00044157
0.00016092
2.0073e-05
0.0042773
3.8459e-08
4.0204e-05
0.004187
5.9786e-05
0.0040362
7.8375e-05
0.0038202
9.5703e-05
0.0035395
0.00011128
0.0032018
0.00012514
0.0028038
0.00013645
0.0023776
0.00014563
0.0018695
0.00015265
0.0014345
0.00015539
0.00080916
0.00043606
0.0001609
2.0074e-05
0.0042572
3.9301e-08
4.0207e-05
0.0041668
5.9793e-05
0.0040166
7.8385e-05
0.0038016
9.5716e-05
0.0035222
0.0001113
0.0031863
0.00012515
0.0027899
0.00013648
0.0023663
0.00014565
0.0018603
0.00015269
0.0014275
0.00015548
0.00080637
0.00043065
0.00016089
2.0076e-05
0.0042371
4.0138e-08
4.021e-05
0.0041467
5.9799e-05
0.0039971
7.8394e-05
0.003783
9.5729e-05
0.0035049
0.00011131
0.0031707
0.00012517
0.0027761
0.0001365
0.0023549
0.00014566
0.0018512
0.00015273
0.0014204
0.00015556
0.00080354
0.00042534
0.00016087
2.0077e-05
0.004217
4.0968e-08
4.0214e-05
0.0041266
5.9806e-05
0.0039775
7.8403e-05
0.0037644
9.5742e-05
0.0034875
0.00011133
0.0031551
0.00012518
0.0027622
0.00013652
0.0023436
0.00014567
0.001842
0.00015277
0.0014133
0.00015564
0.00080067
0.00042013
0.00016086
2.0079e-05
0.0041969
4.1791e-08
4.0218e-05
0.0041064
5.9813e-05
0.0039579
7.8413e-05
0.0037458
9.5754e-05
0.0034702
0.00011134
0.0031395
0.00012519
0.0027484
0.00013654
0.0023322
0.00014569
0.0018329
0.0001528
0.0014062
0.00015572
0.00079775
0.00041501
0.00016084
2.008e-05
0.0041768
4.2605e-08
4.0222e-05
0.0040863
5.982e-05
0.0039383
7.8423e-05
0.0037272
9.5767e-05
0.0034528
0.00011136
0.0031239
0.0001252
0.0027345
0.00013657
0.0023209
0.0001457
0.0018237
0.00015284
0.0013991
0.0001558
0.00079479
0.00040998
0.00016083
2.0082e-05
0.0041566
4.3409e-08
4.0226e-05
0.0040662
5.9827e-05
0.0039187
7.8433e-05
0.0037086
9.5779e-05
0.0034355
0.00011137
0.0031083
0.00012521
0.0027207
0.00013659
0.0023095
0.00014572
0.0018146
0.00015288
0.0013919
0.00015588
0.00079179
0.00040505
0.00016081
2.0083e-05
0.0041365
4.4201e-08
4.023e-05
0.004046
5.9834e-05
0.0038991
7.8443e-05
0.00369
9.5792e-05
0.0034181
0.00011139
0.0030927
0.00012522
0.0027068
0.00013661
0.0022981
0.00014573
0.0018055
0.00015291
0.0013847
0.00015595
0.00078875
0.0004002
0.0001608
2.0085e-05
0.0041164
4.4981e-08
4.0235e-05
0.0040259
5.9842e-05
0.0038795
7.8453e-05
0.0036714
9.5803e-05
0.0034008
0.0001114
0.0030771
0.00012524
0.002693
0.00013663
0.0022867
0.00014575
0.0017963
0.00015295
0.0013775
0.00015602
0.00078568
0.00039543
0.00016079
2.0087e-05
0.0040962
4.5747e-08
4.0239e-05
0.0040057
5.9849e-05
0.0038598
7.8463e-05
0.0036527
9.5815e-05
0.0033834
0.00011141
0.0030615
0.00012525
0.0026792
0.00013665
0.0022753
0.00014576
0.0017872
0.00015298
0.0013703
0.00015609
0.00078256
0.00039075
0.00016078
2.0089e-05
0.0040761
4.6498e-08
4.0244e-05
0.0039855
5.9856e-05
0.0038402
7.8473e-05
0.0036341
9.5826e-05
0.0033661
0.00011142
0.0030459
0.00012525
0.0026653
0.00013667
0.0022639
0.00014578
0.0017781
0.00015301
0.0013631
0.00015616
0.00077941
0.00038615
0.00016076
2.0091e-05
0.004056
4.7234e-08
4.0248e-05
0.0039654
5.9864e-05
0.0038206
7.8482e-05
0.0036155
9.5837e-05
0.0033487
0.00011144
0.0030303
0.00012526
0.0026515
0.00013669
0.0022525
0.00014579
0.001769
0.00015305
0.0013558
0.00015623
0.00077623
0.00038163
0.00016075
2.0093e-05
0.0040358
4.7952e-08
4.0253e-05
0.0039452
5.9871e-05
0.003801
7.8491e-05
0.0035969
9.5847e-05
0.0033314
0.00011145
0.0030147
0.00012527
0.0026377
0.0001367
0.002241
0.00014581
0.0017599
0.00015308
0.0013486
0.0001563
0.00077301
0.00037719
0.00016074
2.0095e-05
0.0040157
4.8653e-08
4.0257e-05
0.0039251
5.9878e-05
0.0037814
7.8501e-05
0.0035783
9.5857e-05
0.003314
0.00011146
0.0029991
0.00012528
0.0026239
0.00013672
0.0022296
0.00014582
0.0017508
0.00015311
0.0013413
0.00015636
0.00076976
0.00037282
0.00016073
2.0097e-05
0.0039955
4.9336e-08
4.0262e-05
0.0039049
5.9885e-05
0.0037618
7.8509e-05
0.0035596
9.5866e-05
0.0032967
0.00011147
0.0029835
0.00012529
0.00261
0.00013674
0.0022181
0.00014584
0.0017417
0.00015314
0.001334
0.00015643
0.00076647
0.00036853
0.00016072
2.0099e-05
0.0039754
5e-08
4.0266e-05
0.0038847
5.9892e-05
0.0037421
7.8518e-05
0.003541
9.5875e-05
0.0032793
0.00011148
0.0029679
0.0001253
0.0025962
0.00013676
0.0022067
0.00014586
0.0017326
0.00015317
0.0013266
0.00015649
0.00076315
0.00036431
0.00016071
2.01e-05
0.0039552
5.0645e-08
4.0271e-05
0.0038646
5.9899e-05
0.0037225
7.8526e-05
0.0035224
9.5883e-05
0.0032619
0.00011149
0.0029523
0.00012531
0.0025824
0.00013678
0.0021952
0.00014587
0.0017235
0.0001532
0.0013193
0.00015655
0.00075981
0.00036016
0.0001607
2.0102e-05
0.0039351
5.1271e-08
4.0275e-05
0.0038444
5.9905e-05
0.0037029
7.8534e-05
0.0035038
9.5891e-05
0.0032446
0.0001115
0.0029367
0.00012531
0.0025686
0.0001368
0.0021837
0.00014589
0.0017144
0.00015323
0.001312
0.00015661
0.00075643
0.00035608
0.00016069
2.0104e-05
0.0039149
5.1877e-08
4.0279e-05
0.0038242
5.9911e-05
0.0036832
7.8541e-05
0.0034851
9.5899e-05
0.0032272
0.00011151
0.0029211
0.00012532
0.0025548
0.00013682
0.0021722
0.00014591
0.0017053
0.00015326
0.0013046
0.00015667
0.00075302
0.00035206
0.00016069
2.0106e-05
0.0038948
5.2465e-08
4.0283e-05
0.003804
5.9917e-05
0.0036636
7.8548e-05
0.0034665
9.5906e-05
0.0032099
0.00011152
0.0029055
0.00012533
0.002541
0.00013684
0.0021607
0.00014593
0.0016962
0.00015329
0.0012972
0.00015673
0.00074958
0.00034811
0.00016068
2.0108e-05
0.0038746
5.3034e-08
4.0287e-05
0.0037839
5.9923e-05
0.003644
7.8555e-05
0.0034479
9.5913e-05
0.0031925
0.00011153
0.0028899
0.00012534
0.0025272
0.00013685
0.0021492
0.00014594
0.0016872
0.00015332
0.0012899
0.00015679
0.00074612
0.00034423
0.00016067
2.011e-05
0.0038544
5.3585e-08
4.0291e-05
0.0037637
5.9928e-05
0.0036243
7.8562e-05
0.0034292
9.592e-05
0.0031752
0.00011154
0.0028742
0.00012535
0.0025133
0.00013687
0.0021377
0.00014596
0.0016781
0.00015335
0.0012825
0.00015684
0.00074263
0.00034041
0.00016067
2.0111e-05
0.0038343
5.4119e-08
4.0295e-05
0.0037435
5.9933e-05
0.0036047
7.8568e-05
0.0034106
9.5927e-05
0.0031578
0.00011154
0.0028586
0.00012535
0.0024995
0.00013689
0.0021261
0.00014598
0.001669
0.00015338
0.0012751
0.0001569
0.00073911
0.00033664
0.00016066
2.0113e-05
0.0038141
5.4636e-08
4.0298e-05
0.0037233
5.9938e-05
0.0035851
7.8574e-05
0.003392
9.5933e-05
0.0031404
0.00011155
0.002843
0.00012536
0.0024857
0.00013691
0.0021146
0.000146
0.0016599
0.00015341
0.0012677
0.00015695
0.00073556
0.00033294
0.00016066
2.0114e-05
0.0037939
5.5138e-08
4.0301e-05
0.0037031
5.9943e-05
0.0035654
7.858e-05
0.0033733
9.5939e-05
0.0031231
0.00011156
0.0028274
0.00012537
0.0024719
0.00013693
0.002103
0.00014602
0.0016508
0.00015343
0.0012603
0.000157
0.00073199
0.00032929
0.00016065
2.0116e-05
0.0037738
5.5625e-08
4.0305e-05
0.0036829
5.9947e-05
0.0035458
7.8585e-05
0.0033547
9.5945e-05
0.0031057
0.00011157
0.0028118
0.00012538
0.0024581
0.00013695
0.0020915
0.00014604
0.0016417
0.00015346
0.0012528
0.00015706
0.0007284
0.0003257
0.00016065
2.0117e-05
0.0037536
5.6099e-08
4.0308e-05
0.0036627
5.9951e-05
0.0035261
7.859e-05
0.003336
9.595e-05
0.0030884
0.00011158
0.0027961
0.00012539
0.0024443
0.00013697
0.0020799
0.00014606
0.0016326
0.00015349
0.0012454
0.00015711
0.00072478
0.00032216
0.00016064
2.0119e-05
0.0037334
5.6561e-08
4.031e-05
0.0036426
5.9955e-05
0.0035065
7.8595e-05
0.0033174
9.5956e-05
0.003071
0.00011159
0.0027805
0.00012539
0.0024305
0.00013699
0.0020683
0.00014608
0.0016235
0.00015351
0.001238
0.00015716
0.00072113
0.00031868
0.00016064
2.012e-05
0.0037132
5.7012e-08
4.0313e-05
0.0036224
5.9959e-05
0.0034868
7.86e-05
0.0032988
9.5962e-05
0.0030536
0.0001116
0.0027649
0.0001254
0.0024167
0.000137
0.0020567
0.0001461
0.0016144
0.00015354
0.0012305
0.00015721
0.00071747
0.00031525
0.00016064
2.0121e-05
0.0036931
5.7453e-08
4.0316e-05
0.0036022
5.9963e-05
0.0034672
7.8605e-05
0.0032801
9.5967e-05
0.0030363
0.00011161
0.0027492
0.00012541
0.0024029
0.00013702
0.0020451
0.00014612
0.0016053
0.00015357
0.0012231
0.00015725
0.00071378
0.00031187
0.00016064
2.0122e-05
0.0036729
5.7885e-08
4.0318e-05
0.003582
5.9966e-05
0.0034475
7.861e-05
0.0032615
9.5973e-05
0.0030189
0.00011161
0.0027336
0.00012542
0.0023891
0.00013704
0.0020335
0.00014614
0.0015962
0.00015359
0.0012156
0.0001573
0.00071007
0.00030854
0.00016063
2.0123e-05
0.0036527
5.8311e-08
4.0321e-05
0.0035618
5.997e-05
0.0034279
7.8615e-05
0.0032428
9.5978e-05
0.0030015
0.00011162
0.0027179
0.00012543
0.0023753
0.00013706
0.0020218
0.00014616
0.0015871
0.00015362
0.0012082
0.00015735
0.00070633
0.00030525
0.00016063
2.0124e-05
0.0036325
5.873e-08
4.0323e-05
0.0035416
5.9973e-05
0.0034082
7.8619e-05
0.0032242
9.5983e-05
0.0029842
0.00011163
0.0027023
0.00012544
0.0023615
0.00013708
0.0020102
0.00014618
0.001578
0.00015364
0.0012007
0.00015739
0.00070258
0.00030201
0.00016063
2.0125e-05
0.0036123
5.9145e-08
4.0325e-05
0.0035214
5.9976e-05
0.0033886
7.8624e-05
0.0032055
9.5989e-05
0.0029668
0.00011164
0.0026866
0.00012545
0.0023477
0.0001371
0.0019985
0.0001462
0.0015689
0.00015367
0.0011933
0.00015744
0.00069881
0.00029882
0.00016063
2.0126e-05
0.0035922
5.9556e-08
4.0327e-05
0.0035012
5.9979e-05
0.0033689
7.8628e-05
0.0031869
9.5994e-05
0.0029495
0.00011165
0.002671
0.00012546
0.0023338
0.00013712
0.0019869
0.00014623
0.0015598
0.00015369
0.0011858
0.00015748
0.00069501
0.00029567
0.00016063
2.0127e-05
0.003572
5.9964e-08
4.0329e-05
0.003481
5.9982e-05
0.0033493
7.8633e-05
0.0031682
9.6e-05
0.0029321
0.00011166
0.0026553
0.00012547
0.00232
0.00013714
0.0019752
0.00014625
0.0015507
0.00015372
0.0011783
0.00015753
0.0006912
0.00029257
0.00016063
2.0128e-05
0.0035518
6.0371e-08
4.0331e-05
0.0034608
5.9985e-05
0.0033296
7.8637e-05
0.0031496
9.6006e-05
0.0029147
0.00011167
0.0026397
0.00012548
0.0023062
0.00013716
0.0019635
0.00014627
0.0015416
0.00015374
0.0011709
0.00015757
0.00068737
0.0002895
0.00016064
2.0128e-05
0.0035316
6.0777e-08
4.0333e-05
0.0034406
5.9988e-05
0.00331
7.8642e-05
0.0031309
9.6011e-05
0.0028973
0.00011168
0.002624
0.00012549
0.0022924
0.00013718
0.0019518
0.00014629
0.0015325
0.00015376
0.0011634
0.00015761
0.00068352
0.00028648
0.00016064
2.0129e-05
0.0035114
6.1183e-08
4.0335e-05
0.0034204
5.9991e-05
0.0032903
7.8647e-05
0.0031123
9.6017e-05
0.00288
0.00011169
0.0026083
0.0001255
0.0022786
0.0001372
0.0019401
0.00014631
0.0015234
0.00015379
0.0011559
0.00015766
0.00067965
0.00028349
0.00016064
2.013e-05
0.0034912
6.159e-08
4.0337e-05
0.0034001
5.9994e-05
0.0032707
7.8651e-05
0.0030936
9.6023e-05
0.0028626
0.0001117
0.0025926
0.00012551
0.0022648
0.00013722
0.0019284
0.00014634
0.0015142
0.00015381
0.0011485
0.0001577
0.00067577
0.00028055
0.00016064
2.0131e-05
0.003471
6.1999e-08
4.0339e-05
0.0033799
5.9997e-05
0.003251
7.8656e-05
0.003075
9.6029e-05
0.0028452
0.00011171
0.002577
0.00012552
0.002251
0.00013724
0.0019167
0.00014636
0.0015051
0.00015383
0.001141
0.00015774
0.00067187
0.00027764
0.00016065
2.0131e-05
0.0034508
6.241e-08
4.0341e-05
0.0033597
6e-05
0.0032313
7.8661e-05
0.0030563
9.6035e-05
0.0028279
0.00011172
0.0025613
0.00012553
0.0022372
0.00013726
0.001905
0.00014638
0.001496
0.00015386
0.0011335
0.00015778
0.00066795
0.00027477
0.00016065
2.0132e-05
0.0034306
6.2825e-08
4.0343e-05
0.0033395
6.0003e-05
0.0032117
7.8666e-05
0.0030376
9.6041e-05
0.0028105
0.00011173
0.0025456
0.00012554
0.0022234
0.00013727
0.0018933
0.00014641
0.0014869
0.00015388
0.001126
0.00015782
0.00066401
0.00027193
0.00016065
2.0133e-05
0.0034104
6.3243e-08
4.0345e-05
0.0033193
6.0006e-05
0.003192
7.867e-05
0.003019
9.6047e-05
0.0027931
0.00011174
0.0025299
0.00012555
0.0022096
0.00013729
0.0018815
0.00014643
0.0014777
0.0001539
0.0011185
0.00015786
0.00066006
0.00026913
0.00016066
2.0133e-05
0.0033902
6.3665e-08
4.0346e-05
0.0032991
6.0009e-05
0.0031724
7.8675e-05
0.0030003
9.6053e-05
0.0027757
0.00011175
0.0025142
0.00012556
0.0021957
0.00013731
0.0018698
0.00014645
0.0014686
0.00015393
0.0011111
0.00015789
0.00065609
0.00026636
0.00016066
2.0134e-05
0.00337
6.4091e-08
4.0348e-05
0.0032789
6.0013e-05
0.0031527
7.868e-05
0.0029816
9.606e-05
0.0027584
0.00011176
0.0024985
0.00012557
0.0021819
0.00013733
0.001858
0.00014648
0.0014594
0.00015395
0.0011036
0.00015793
0.00065211
0.00026363
0.00016067
2.0135e-05
0.0033498
6.4523e-08
4.035e-05
0.0032587
6.0016e-05
0.003133
7.8686e-05
0.002963
9.6066e-05
0.002741
0.00011177
0.0024828
0.00012559
0.0021681
0.00013735
0.0018462
0.0001465
0.0014503
0.00015397
0.0010961
0.00015797
0.00064812
0.00026092
0.00016067
2.0135e-05
0.0033296
6.496e-08
4.0352e-05
0.0032384
6.0019e-05
0.0031134
7.8691e-05
0.0029443
9.6073e-05
0.0027236
0.00011178
0.0024671
0.0001256
0.0021543
0.00013737
0.0018345
0.00014652
0.0014411
0.000154
0.0010887
0.00015801
0.00064411
0.00025825
0.00016068
2.0136e-05
0.0033094
6.5403e-08
4.0354e-05
0.0032182
6.0022e-05
0.0030937
7.8696e-05
0.0029256
9.6079e-05
0.0027062
0.00011179
0.0024514
0.00012561
0.0021405
0.00013739
0.0018227
0.00014655
0.001432
0.00015402
0.0010812
0.00015804
0.00064008
0.0002556
0.00016069
2.0137e-05
0.0032892
6.5852e-08
4.0356e-05
0.003198
6.0025e-05
0.003074
7.8702e-05
0.0029069
9.6086e-05
0.0026888
0.0001118
0.0024357
0.00012562
0.0021267
0.00013741
0.0018109
0.00014657
0.0014228
0.00015404
0.0010737
0.00015808
0.00063604
0.00025299
0.0001607
2.0138e-05
0.003269
6.6308e-08
4.0358e-05
0.0031778
6.0029e-05
0.0030544
7.8707e-05
0.0028883
9.6093e-05
0.0026714
0.00011182
0.0024199
0.00012564
0.0021128
0.00013743
0.0017991
0.0001466
0.0014137
0.00015407
0.0010662
0.00015812
0.00063199
0.0002504
0.0001607
2.0138e-05
0.0032488
6.677e-08
4.036e-05
0.0031576
6.0032e-05
0.0030347
7.8713e-05
0.0028696
9.61e-05
0.002654
0.00011183
0.0024042
0.00012565
0.002099
0.00013745
0.0017873
0.00014662
0.0014045
0.00015409
0.0010588
0.00015815
0.00062793
0.00024784
0.00016071
2.0139e-05
0.0032286
6.7239e-08
4.0362e-05
0.0031373
6.0036e-05
0.003015
7.8718e-05
0.0028509
9.6108e-05
0.0026367
0.00011184
0.0023885
0.00012566
0.0020852
0.00013748
0.0017755
0.00014665
0.0013953
0.00015411
0.0010513
0.00015819
0.00062385
0.00024531
0.00016072
2.014e-05
0.0032084
6.7715e-08
4.0365e-05
0.0031171
6.0039e-05
0.0029953
7.8724e-05
0.0028322
9.6115e-05
0.0026193
0.00011185
0.0023727
0.00012567
0.0020714
0.0001375
0.0017636
0.00014667
0.0013861
0.00015413
0.0010439
0.00015822
0.00061977
0.0002428
0.00016073
2.0141e-05
0.0031882
6.8199e-08
4.0367e-05
0.0030969
6.0043e-05
0.0029757
7.873e-05
0.0028135
9.6122e-05
0.0026019
0.00011186
0.002357
0.00012569
0.0020576
0.00013752
0.0017518
0.0001467
0.001377
0.00015416
0.0010364
0.00015826
0.00061567
0.00024032
0.00016074
2.0141e-05
0.003168
6.869e-08
4.0369e-05
0.0030767
6.0046e-05
0.002956
7.8736e-05
0.0027948
9.613e-05
0.0025845
0.00011188
0.0023412
0.0001257
0.0020437
0.00013754
0.00174
0.00014672
0.0013678
0.00015418
0.0010289
0.00015829
0.00061155
0.00023787
0.00016075
2.0142e-05
0.0031478
6.9189e-08
4.0371e-05
0.0030564
6.005e-05
0.0029363
7.8742e-05
0.0027762
9.6138e-05
0.0025671
0.00011189
0.0023255
0.00012572
0.0020299
0.00013756
0.0017281
0.00014675
0.0013586
0.0001542
0.0010215
0.00015833
0.00060743
0.00023543
0.00016076
2.0143e-05
0.0031276
6.9697e-08
4.0374e-05
0.0030362
6.0054e-05
0.0029166
7.8748e-05
0.0027575
9.6146e-05
0.0025497
0.0001119
0.0023097
0.00012573
0.0020161
0.00013758
0.0017163
0.00014678
0.0013494
0.00015423
0.001014
0.00015836
0.0006033
0.00023302
0.00016077
2.0144e-05
0.0031074
7.0212e-08
4.0376e-05
0.003016
6.0058e-05
0.0028969
7.8755e-05
0.0027388
9.6154e-05
0.0025323
0.00011191
0.002294
0.00012574
0.0020022
0.0001376
0.0017044
0.0001468
0.0013402
0.00015425
0.0010066
0.00015839
0.00059915
0.00023063
0.00016078
2.0145e-05
0.0030871
7.0736e-08
4.0378e-05
0.0029957
6.0062e-05
0.0028773
7.8761e-05
0.0027201
9.6162e-05
0.0025149
0.00011193
0.0022782
0.00012576
0.0019884
0.00013762
0.0016926
0.00014683
0.001331
0.00015427
0.00099915
0.00015843
0.000595
0.00022826
0.00016079
2.0146e-05
0.0030669
7.1269e-08
4.0381e-05
0.0029755
6.0066e-05
0.0028576
7.8768e-05
0.0027014
9.617e-05
0.0024975
0.00011194
0.0022624
0.00012577
0.0019746
0.00013764
0.0016807
0.00014686
0.0013218
0.0001543
0.00099171
0.00015846
0.00059083
0.00022592
0.00016081
2.0146e-05
0.0030467
7.1811e-08
4.0383e-05
0.0029553
6.007e-05
0.0028379
7.8774e-05
0.0026827
9.6179e-05
0.0024801
0.00011195
0.0022467
0.00012579
0.0019607
0.00013766
0.0016688
0.00014688
0.0013125
0.00015432
0.00098427
0.00015849
0.00058666
0.00022359
0.00016082
2.0147e-05
0.0030265
7.2362e-08
4.0386e-05
0.002935
6.0074e-05
0.0028182
7.8781e-05
0.0026639
9.6187e-05
0.0024627
0.00011197
0.0022309
0.0001258
0.0019469
0.00013768
0.0016569
0.00014691
0.0013033
0.00015434
0.00097684
0.00015853
0.00058247
0.00022129
0.00016083
2.0148e-05
0.0030063
7.2922e-08
4.0389e-05
0.0029148
6.0078e-05
0.0027985
7.8788e-05
0.0026452
9.6196e-05
0.0024453
0.00011198
0.0022151
0.00012582
0.0019331
0.00013771
0.0016451
0.00014694
0.0012941
0.00015437
0.00096941
0.00015856
0.00057828
0.000219
0.00016085
2.0149e-05
0.002986
7.3491e-08
4.0391e-05
0.0028945
6.0083e-05
0.0027788
7.8795e-05
0.0026265
9.6205e-05
0.0024279
0.00011199
0.0021993
0.00012583
0.0019192
0.00013773
0.0016332
0.00014696
0.0012848
0.00015439
0.00096198
0.00015859
0.00057407
0.00021673
0.00016086
2.015e-05
0.0029658
7.4071e-08
4.0394e-05
0.0028743
6.0087e-05
0.0027591
7.8802e-05
0.0026078
9.6214e-05
0.0024104
0.00011201
0.0021835
0.00012585
0.0019054
0.00013775
0.0016213
0.00014699
0.0012756