/*--------------------------------*- C++ -*----------------------------------*\
  =========                 |
  \\      /  F ield         | OpenFOAM: The Open Source CFD Toolbox
   \\    /   O peration     | Website:  https://openfoam.org
    \\  /    A nd           | Version:  6.0
     \\/     M anipulation  |
\*---------------------------------------------------------------------------*/
FoamFile
{
    version     2.0;
    format      ascii;
    class       volScalarField;
    location    "4";
    object      p;
}
// * * * * * * * * * * * * * * * * * * * * * * * * * * * * * * * * * * * * * //

dimensions      [0 2 -2 0 0 0 0];

internalField   nonuniform List<scalar> 
47000
(
0.00887223
0.0101319
0.0124836
0.0155128
0.018772
0.0217093
0.0239848
0.0252991
0.025646
0.0250618
0.0237757
0.0219747
0.0199095
0.0177378
0.015616
0.0136126
0.0117909
0.0101576
0.00872225
0.00746347
0.00636995
0.00541571
0.00458421
0.00385186
0.0032028
0.00261781
0.00208256
0.00157996
0.00117227
0.000989643
0.00876433
0.0100138
0.0123667
0.01544
0.0188157
0.0219619
0.0245376
0.0262216
0.0269733
0.0267861
0.0258552
0.0243394
0.0224787
0.0204265
0.0183487
0.016322
0.0144255
0.0126758
0.0110953
0.00966876
0.00839324
0.00724509
0.00621176
0.00526914
0.00440239
0.00359053
0.00281937
0.00207694
0.00143927
0.00102942
0.00856171
0.00973326
0.0119541
0.014877
0.0181236
0.0211987
0.0237814
0.0255525
0.0264561
0.0264594
0.0257297
0.0243996
0.0226928
0.0207521
0.0187425
0.016742
0.0148369
0.0130491
0.0114086
0.00990451
0.00853954
0.00729247
0.00615413
0.00510153
0.00412259
0.00319856
0.00232104
0.00149192
0.000781976
0.000309517
0.00826891
0.00933192
0.0113624
0.0140504
0.0170602
0.0199404
0.0223979
0.0241269
0.0250649
0.0251618
0.024561
0.0233713
0.0217981
0.0199709
0.0180492
0.0161088
0.014239
0.0124642
0.0108197
0.00929771
0.00790562
0.00662449
0.00544873
0.00435726
0.00334165
0.00238669
0.00149014
0.000664409
-3.90895e-05
-0.000509691
0.00789423
0.00884373
0.0106738
0.0131091
0.0158538
0.0184996
0.0207826
0.0224144
0.0233316
0.0234723
0.0229601
0.0218832
0.020429
0.0187134
0.0168883
0.0150256
0.013215
0.0114821
0.00986585
0.00836058
0.00697755
0.00569995
0.00452533
0.00343452
0.00242233
0.00147627
0.000598027
-0.000195903
-0.000878548
-0.00134441
0.00743633
0.00827533
0.00991125
0.0120991
0.0145791
0.0169828
0.0190747
0.0205854
0.0214534
0.0216092
0.0211602
0.0201766
0.0188294
0.0172209
0.0154949
0.0137182
0.0119797
0.0103048
0.00873498
0.00726611
0.00591263
0.00465934
0.00350655
0.00243655
0.00144671
0.000526255
-0.000321323
-0.00107911
-0.00174233
-0.00221044
0.00690681
0.00764278
0.00909904
0.0110566
0.0132874
0.0154588
0.0173617
0.0187454
0.0195521
0.0197073
0.0193053
0.0184011
0.0171503
0.015643
0.0140145
0.0123258
0.0106645
0.00905508
0.0075406
0.00611796
0.00480413
0.00358525
0.0024639
0.00142353
0.000463443
-0.000426163
-0.0012411
-0.00196591
-0.00261382
-0.00308353
0.00630494
0.00694383
0.00823629
0.00998347
0.0119846
0.0139394
0.0156622
0.0169205
0.0176608
0.0178062
0.0174398
0.0166037
0.0154398
0.0140268
0.0124916
0.0108898
0.00930662
0.00776525
0.00630983
0.00493779
0.00366819
0.00248817
0.00140224
0.000394695
-0.000533606
-0.00139196
-0.00217621
-0.00287282
-0.00350896
-0.00398413
0.0056411
0.00619155
0.00733693
0.00889486
0.0106884
0.0124454
0.0140016
0.0151412
0.0158156
0.0159463
0.0156077
0.0148307
0.0137453
0.0124194
0.0109723
0.00945395
0.00794704
0.00647324
0.00507725
0.00375673
0.00253248
0.00139239
0.000342649
-0.000631817
-0.00152885
-0.00235756
-0.00311405
-0.0037869
-0.00441393
-0.0048917
0.00491072
0.00537944
0.00639227
0.00777974
0.00938537
0.0109623
0.0123649
0.013393
0.0140029
0.014116
0.0137989
0.0130735
0.0120586
0.0108129
0.00944831
0.00800927
0.00657589
0.00516803
0.00383061
0.00256129
0.0013823
0.000282076
-0.000731742
-0.00167373
-0.00254065
-0.00334158
-0.00407311
-0.0047256
-0.005345
-0.00582756
0.00412516
0.00452013
0.00541404
0.00664862
0.00808534
0.00949949
0.010762
0.011687
0.0122357
0.0123298
0.01203
0.0113498
0.0103987
0.00922676
0.0079391
0.00657491
0.00521166
0.00386724
0.00258662
0.00136721
0.000232462
-0.0008288
-0.00180763
-0.00271827
-0.0035565
-0.00433153
-0.00504039
-0.00567507
-0.00628781
-0.00677162
0.00327835
0.00360471
0.00439078
0.00548708
0.00677063
0.00803657
0.00917052
0.00999977
0.0104901
0.0105643
0.0102777
0.00963733
0.00874399
0.00763996
0.00642405
0.00513055
0.0038342
0.00255089
0.0013254
0.000154745
-0.00093662
-0.00195963
-0.00290419
-0.00378429
-0.00459489
-0.00534536
-0.00603328
-0.00665181
-0.00725811
-0.00774486
0.0023816
0.00264629
0.00333471
0.00430601
0.00545103
0.00658243
0.00759902
0.00833998
0.00877554
0.00882986
0.00855388
0.00794882
0.00710801
0.00606667
0.0049178
0.00369097
0.00245831
0.00123362
6.13869e-05
-0.00106193
-0.002111
-0.00309667
-0.00400777
-0.00485822
-0.00564215
-0.00636926
-0.0070375
-0.00764108
-0.0082411
-0.00872721
0.00142695
0.00163422
0.00223314
0.00309026
0.00410863
0.00511677
0.00602514
0.00668399
0.00706762
0.00710189
0.00683401
0.00626038
0.00546744
0.00448422
0.00339819
0.00223457
0.00106288
-0.000105204
-0.00122561
-0.00230255
-0.00330997
-0.00425874
-0.0051368
-0.00595798
-0.00671579
-0.00742021
-0.00806961
-0.00865887
-0.00925227
-0.00973941
0.000426802
0.000582463
0.00109941
0.00185225
0.00275503
0.00365045
0.00445949
0.0050424
0.00537742
0.00539212
0.0051307
0.00458531
0.0038364
0.00290722
0.0018803
0.00077663
-0.000336724
-0.00145023
-0.0025203
-0.00355195
-0.0045185
-0.00543098
-0.00627646
-0.00706887
-0.00780106
-0.00848343
-0.00911457
-0.00968999
-0.0102766
-0.0107614
-0.000627942
-0.000521033
-8.00731e-05
0.000576508
0.00137268
0.002164
0.00288092
0.00339293
0.00368189
0.00367728
0.0034207
0.00290075
0.00219238
0.00131374
0.000342657
-0.000703761
-0.00176091
-0.00282137
-0.00384215
-0.00482914
-0.00575515
-0.00663149
-0.00744446
-0.00820817
-0.00891489
-0.00957541
-0.0101886
-0.0107503
-0.0113296
-0.0118137
-0.00172427
-0.0016614
-0.00129079
-0.000723005
-2.50095e-05
0.00067042
0.00130226
0.00174844
0.00199427
0.00197108
0.00171838
0.0012216
0.000550908
-0.000280313
-0.00119846
-0.0021902
-0.0031932
-0.00420223
-0.00517485
-0.00611797
-0.00700395
-0.00784448
-0.00862517
-0.00936041
-0.0100419
-0.0106809
-0.0112763
-0.0118244
-0.0123962
-0.0128765
-0.00287251
-0.00285197
-0.00254722
-0.00206217
-0.00145546
-0.000849206
-0.000296703
8.77769e-05
0.000292722
0.000251451
1.59615e-06
-0.000473996
-0.0011096
-0.00189607
-0.00276378
-0.00370294
-0.00465343
-0.00561216
-0.00653734
-0.00743695
-0.00828302
-0.00908769
-0.00983598
-0.0105426
-0.0111987
-0.0118161
-0.0123938
-0.0129281
-0.0134918
-0.0139701
-0.004059
-0.00407694
-0.00383377
-0.00342573
-0.00290373
-0.0023802
-0.00190135
-0.00157438
-0.00140773
-0.00146626
-0.00171375
-0.00216977
-0.0027724
-0.00351651
-0.00433607
-0.00522468
-0.00612429
-0.00703397
-0.00791259
-0.00876928
-0.00957578
-0.0103448
-0.0110607
-0.0117388
-0.0123697
-0.0129656
-0.0135256
-0.014046
-0.0146014
-0.0150746
-0.00529522
-0.00535087
-0.00516589
-0.00483018
-0.0043875
-0.00394135
-0.00353154
-0.00325862
-0.00312828
-0.00320344
-0.00344919
-0.00388702
-0.00445861
-0.00516238
-0.0059357
-0.00677537
-0.00762535
-0.00848683
-0.00931937
-0.0101333
-0.0109002
-0.0116334
-0.0123168
-0.012966
-0.0135714
-0.0141456
-0.0146877
-0.015194
-0.0157404
-0.0162106
-0.0065669
-0.0066571
-0.00652701
-0.00625915
-0.00589062
-0.00551669
-0.00517128
-0.00494892
-0.00485261
-0.00494353
-0.00518771
-0.00560848
-0.00615061
-0.00681589
-0.00754475
-0.0083371
-0.00913874
-0.00995303
-0.0107402
-0.0115119
-0.0122394
-0.0129368
-0.0135876
-0.0142081
-0.0147879
-0.0153404
-0.0158645
-0.0163565
-0.0168939
-0.0173581
-0.00788664
-0.00801133
-0.00793355
-0.00772991
-0.00743123
-0.00712525
-0.00684044
-0.00666575
-0.00660171
-0.0067077
-0.00695063
-0.0073553
-0.00786937
-0.00849769
-0.00918356
-0.00992981
-0.0106841
-0.0114518
-0.0121938
-0.0129233
-0.0136113
-0.0142727
-0.0148907
-0.015482
-0.016036
-0.0165665
-0.0170723
-0.0175497
-0.0180774
-0.0185376
-0.00923954
-0.00939607
-0.00936804
-0.00922512
-0.00899219
-0.00874997
-0.00852198
-0.00839202
-0.00835826
-0.00847844
-0.0087201
-0.00910944
-0.00959662
-0.0101894
-0.0108337
-0.0115351
-0.012243
-0.012965
-0.0136625
-0.0143501
-0.0149988
-0.0156243
-0.0162093
-0.0167714
-0.0172995
-0.0178079
-0.0182953
-0.0187579
-0.0192757
-0.0197292
-0.0106393
-0.0108282
-0.0108479
-0.0107629
-0.0105923
-0.0104103
-0.010236
-0.0101484
-0.0101433
-0.010277
-0.0105175
-0.0108922
-0.0113535
-0.0119118
-0.0125156
-0.0131732
-0.0138354
-0.014512
-0.0151652
-0.0158109
-0.0164199
-0.0170092
-0.017561
-0.0180935
-0.0185952
-0.0190811
-0.0195498
-0.0199972
-0.0205046
-0.0209532
-0.0120704
-0.0122892
-0.0123549
-0.012325
-0.0122134
-0.0120884
-0.0119647
-0.0119169
-0.0119388
-0.0120852
-0.0123243
-0.0126848
-0.0131211
-0.0136461
-0.0142105
-0.0148252
-0.0154427
-0.0160746
-0.0166838
-0.0172878
-0.0178574
-0.0184104
-0.0189288
-0.0194317
-0.0199069
-0.0203703
-0.02082
-0.021252
-0.0217489
-0.02219
-0.0135475
-0.0137973
-0.0139074
-0.0139304
-0.0138751
-0.0138043
-0.0137286
-0.0137186
-0.0137661
-0.0139244
-0.0141622
-0.0145089
-0.0149208
-0.0154134
-0.0159391
-0.0165117
-0.0170847
-0.0176722
-0.0182375
-0.0187997
-0.0193296
-0.019846
-0.0203306
-0.0208033
-0.0212517
-0.021692
-0.0221223
-0.0225385
-0.0230243
-0.0234598
-0.0150544
-0.0153332
-0.0154862
-0.01556
-0.0155586
-0.0155392
-0.015509
-0.0155347
-0.0156064
-0.0157758
-0.016012
-0.0163452
-0.0167334
-0.0171943
-0.0176823
-0.0182134
-0.0187428
-0.0192863
-0.019808
-0.0203286
-0.0208188
-0.0212985
-0.0217492
-0.0221917
-0.022613
-0.0230302
-0.0234409
-0.0238411
-0.0243157
-0.0247429
-0.0166069
-0.0169158
-0.0171109
-0.0172338
-0.017284
-0.0173139
-0.017327
-0.0173868
-0.0174814
-0.0176613
-0.0178957
-0.0182156
-0.0185806
-0.0190103
-0.019461
-0.0199512
-0.0204371
-0.0209367
-0.0214148
-0.0218935
-0.0223436
-0.0227863
-0.0232026
-0.0236143
-0.0240081
-0.0244016
-0.0247923
-0.025176
-0.0256388
-0.0260597
-0.0181881
-0.0185253
-0.0187613
-0.0189319
-0.0190317
-0.0191087
-0.0191632
-0.0192553
-0.0193715
-0.0195613
-0.0197937
-0.0201005
-0.0204426
-0.0208417
-0.0212558
-0.0217056
-0.0221485
-0.0226047
-0.0230393
-0.0234763
-0.0238863
-0.0242918
-0.0246736
-0.0250544
-0.0254204
-0.0257901
-0.0261605
-0.0265276
-0.0269784
-0.0273904
-0.0198145
-0.0201818
-0.0204581
-0.020675
-0.0208228
-0.0209452
-0.0210393
-0.0211623
-0.0212992
-0.0214982
-0.0217283
-0.022022
-0.0223414
-0.0227104
-0.0230881
-0.0234978
-0.0238977
-0.0243103
-0.0247013
-0.0250962
-0.0254657
-0.0258335
-0.0261802
-0.0265296
-0.0268673
-0.0272127
-0.0275623
-0.0279121
-0.0283505
-0.0287555
-0.0214688
-0.0218643
-0.0221803
-0.0224424
-0.0226368
-0.0228029
-0.0229351
-0.0230878
-0.0232442
-0.0234517
-0.0236792
-0.0239599
-0.024257
-0.0245961
-0.0249379
-0.0253079
-0.0256653
-0.0260346
-0.0263819
-0.0267348
-0.0270637
-0.0273937
-0.0277052
-0.0280229
-0.0283321
-0.0286529
-0.0289815
-0.029314
-0.0297396
-0.030135
-0.0231684
-0.023594
-0.0239494
-0.024256
-0.0244957
-0.0247042
-0.0248731
-0.0250542
-0.0252293
-0.0254448
-0.0256695
-0.025937
-0.0262118
-0.0265212
-0.0268272
-0.0271574
-0.0274721
-0.0277979
-0.0281013
-0.0284118
-0.0286995
-0.0289912
-0.0292667
-0.0295522
-0.0298323
-0.0301279
-0.0304349
-0.0307495
-0.0311619
-0.0315495
-0.0248952
-0.0253493
-0.0257437
-0.0260941
-0.0263782
-0.0266279
-0.0268323
-0.0270408
-0.0272338
-0.0274567
-0.0276782
-0.0279326
-0.0281852
-0.0284651
-0.0287356
-0.0290263
-0.0292986
-0.0295809
-0.0298404
-0.0301083
-0.0303548
-0.0306079
-0.0308474
-0.0311003
-0.0313511
-0.0316214
-0.0319065
-0.0322029
-0.0326019
-0.0329793
-0.0266675
-0.0271523
-0.0275857
-0.0279795
-0.028307
-0.028597
-0.0288359
-0.0290708
-0.0292809
-0.0295107
-0.0297287
-0.0299699
-0.0302002
-0.0304506
-0.0306853
-0.0309365
-0.0311659
-0.0314046
-0.0316197
-0.0318445
-0.032049
-0.0322629
-0.0324656
-0.0326854
-0.0329061
-0.0331504
-0.0334131
-0.0336907
-0.0340757
-0.0344446
-0.0284665
-0.0289805
-0.0294529
-0.0298897
-0.0302601
-0.0305896
-0.0308621
-0.0311227
-0.0313493
-0.0315855
-0.0317998
-0.0320275
-0.0322355
-0.0324565
-0.0326557
-0.0328674
-0.0330541
-0.033249
-0.0334196
-0.0336012
-0.0337637
-0.0339381
-0.0341037
-0.0342901
-0.0344805
-0.0346985
-0.0349385
-0.0351972
-0.035568
-0.0359259
-0.0303114
-0.0308569
-0.0313686
-0.0318483
-0.0322611
-0.0326294
-0.0329348
-0.0332205
-0.0334629
-0.0337052
-0.0339153
-0.0341293
-0.0343148
-0.0345062
-0.0346695
-0.0348414
-0.034985
-0.0351356
-0.0352611
-0.0353988
-0.0355184
-0.0356527
-0.0357805
-0.0359328
-0.0360921
-0.0362832
-0.0364997
-0.0367388
-0.0370948
-0.0374434
-0.0321827
-0.0327584
-0.0333095
-0.0338321
-0.0342872
-0.0346939
-0.0350317
-0.0353418
-0.0355996
-0.0358475
-0.0360532
-0.0362534
-0.0364163
-0.036578
-0.0367055
-0.0368376
-0.036938
-0.0370442
-0.0371245
-0.0372181
-0.0372945
-0.0373884
-0.037478
-0.0375958
-0.0377238
-0.0378876
-0.0380805
-0.0382997
-0.0386407
-0.0389776
-0.0341005
-0.0347088
-0.0352999
-0.0358657
-0.0363628
-0.0368076
-0.0371772
-0.0375114
-0.0377841
-0.0380372
-0.0382382
-0.0384243
-0.0385642
-0.0386959
-0.0387871
-0.0388789
-0.0389354
-0.0389966
-0.0390308
-0.0390795
-0.039112
-0.0391646
-0.0392152
-0.0392978
-0.0393936
-0.0395295
-0.0396979
-0.0398966
-0.0402219
-0.0405487
-0.0360444
-0.0366841
-0.0373157
-0.037925
-0.0384643
-0.038947
-0.0393483
-0.0397062
-0.0399935
-0.0402516
-0.0404475
-0.0406193
-0.0407361
-0.0408377
-0.0408925
-0.0409438
-0.0409563
-0.0409722
-0.0409602
-0.0409637
-0.0409519
-0.0409628
-0.0409741
-0.041021
-0.0410843
-0.0411919
-0.0413357
-0.0415136
-0.041823
-0.0421373
-0.0380355
-0.0387094
-0.0393822
-0.0400354
-0.0406169
-0.0411376
-0.0415703
-0.0419516
-0.0422532
-0.042516
-0.0427065
-0.0428636
-0.0429568
-0.0430278
-0.0430455
-0.0430557
-0.0430234
-0.0429933
-0.042934
-0.0428915
-0.0428345
-0.0428028
-0.0427738
-0.0427842
-0.0428142
-0.0428927
-0.0430109
-0.0431673
-0.0434602
-0.0437635
-0.0400526
-0.0407594
-0.0414742
-0.042172
-0.0427963
-0.0433551
-0.0438194
-0.044224
-0.0445397
-0.0448068
-0.0449918
-0.045134
-0.0452034
-0.0452435
-0.045224
-0.0451928
-0.0451155
-0.045039
-0.0449322
-0.0448432
-0.0447405
-0.0446657
-0.044596
-0.0445696
-0.0445658
-0.0446149
-0.0447073
-0.0448419
-0.045118
-0.045408
-0.0421177
-0.0428603
-0.0436181
-0.0443612
-0.0450286
-0.0456258
-0.0461215
-0.0465494
-0.046879
-0.0471504
-0.0473294
-0.0474562
-0.0475013
-0.0475099
-0.0474523
-0.047379
-0.0472557
-0.0471318
-0.0469764
-0.0468399
-0.0466905
-0.0465717
-0.0464603
-0.0463961
-0.0463576
-0.0463764
-0.0464421
-0.0465542
-0.0468127
-0.0470908
-0.0442087
-0.0449861
-0.0457878
-0.0465771
-0.0472885
-0.0479245
-0.0484521
-0.0489034
-0.0492469
-0.0495224
-0.0496952
-0.0498064
-0.0498269
-0.0498037
-0.0497077
-0.0495919
-0.0494222
-0.0492506
-0.0490461
-0.0488617
-0.048665
-0.0485017
-0.0483481
-0.0482455
-0.048172
-0.0481601
-0.0481988
-0.048288
-0.0485287
-0.0487926
-0.0463486
-0.0471638
-0.0480107
-0.0488471
-0.0496031
-0.0502785
-0.0508381
-0.051313
-0.0516703
-0.0519497
-0.052116
-0.0522111
-0.0522063
-0.0521505
-0.0520153
-0.051856
-0.0516388
-0.0514184
-0.0511636
-0.0509301
-0.050685
-0.0504761
-0.0502791
-0.0501373
-0.0500276
-0.0499842
-0.0499949
-0.0500605
-0.0502825
-0.0505335
-0.0485145
-0.0493666
-0.0502598
-0.0511447
-0.0519464
-0.0526619
-0.0532541
-0.0537528
-0.0541241
-0.0544073
-0.0545669
-0.0546458
-0.0546153
-0.0545266
-0.0543516
-0.0541484
-0.0538832
-0.0536134
-0.0533079
-0.0530247
-0.0527306
-0.0524755
-0.0522346
-0.052053
-0.0519068
-0.0518313
-0.0518138
-0.0518553
-0.0520585
-0.0522943
-0.0507302
-0.0516225
-0.0525636
-0.053498
-0.0543463
-0.0551025
-0.0557278
-0.0562506
-0.056636
-0.056923
-0.0570756
-0.0571376
-0.0570806
-0.0569581
-0.0567424
-0.0564941
-0.0561797
-0.0558593
-0.0555017
-0.0551676
-0.0548232
-0.0545207
-0.0542348
-0.0540122
-0.0538284
-0.0537199
-0.053673
-0.0536897
-0.053873
-0.0540948
-0.0529722
-0.0539039
-0.0548942
-0.0558797
-0.0567758
-0.0575739
-0.058233
-0.0587804
-0.0591801
-0.0594709
-0.0596164
-0.0596612
-0.0595775
-0.0594207
-0.0591637
-0.0588698
-0.0585056
-0.058134
-0.0577236
-0.0573379
-0.0569426
-0.056592
-0.0562603
-0.0559963
-0.0557743
-0.0556325
-0.0555559
-0.0555473
-0.0557107
-0.0559161
-0.055265
-0.0562396
-0.0572808
-0.0583188
-0.0592638
-0.0601046
-0.0607982
-0.0613709
-0.0617851
-0.0620796
-0.0622176
-0.0622447
-0.0621334
-0.0619414
-0.0616418
-0.061301
-0.0608856
-0.0604614
-0.0599968
-0.0595581
-0.0591104
-0.0587104
-0.0583318
-0.0580253
-0.0577639
-0.0575876
-0.0574802
-0.0574454
-0.0575876
-0.057778
-0.0575845
-0.0586014
-0.059695
-0.0607871
-0.0617826
-0.0626674
-0.0633965
-0.063995
-0.0644241
-0.0647226
-0.064853
-0.0648621
-0.0647227
-0.0644949
-0.0641523
-0.0637639
-0.0632966
-0.062819
-0.0622995
-0.0618071
-0.0613063
-0.0608562
-0.0604299
-0.0600801
-0.0597789
-0.0595676
-0.059429
-0.0593676
-0.0594886
-0.0596615
-0.059956
-0.0610188
-0.0621667
-0.0633147
-0.0643618
-0.0652918
-0.0660574
-0.0666823
-0.0671267
-0.0674292
-0.0675517
-0.0675422
-0.0673737
-0.067109
-0.066722
-0.0662847
-0.0657638
-0.0652314
-0.0646554
-0.0641076
-0.0635522
-0.0630506
-0.0625753
-0.062181
-0.0618387
-0.0615913
-0.0614203
-0.0613313
-0.0614299
-0.0615862
-0.0623544
-0.0634629
-0.0646667
-0.0658722
-0.0669729
-0.0679495
-0.0687527
-0.0694051
-0.0698653
-0.0701719
-0.0702865
-0.070258
-0.0700601
-0.0697579
-0.0693258
-0.0688388
-0.0682637
-0.0676755
-0.0670421
-0.0664383
-0.0658274
-0.0652734
-0.0647483
-0.0643088
-0.0639249
-0.063641
-0.0634372
-0.0633201
-0.063396
-0.0635336
-0.064806
-0.0659639
-0.0672253
-0.0684905
-0.0696462
-0.0706711
-0.0715131
-0.0721938
-0.0726703
-0.0729812
-0.0730874
-0.0730394
-0.072811
-0.07247
-0.0719913
-0.071453
-0.0708219
-0.0701764
-0.0694839
-0.0688223
-0.0681542
-0.0675464
-0.0669701
-0.0664842
-0.0660573
-0.0657355
-0.0654976
-0.0653513
-0.0654033
-0.065523
-0.0672843
-0.0684916
-0.0698125
-0.0711394
-0.0723523
-0.0734272
-0.0743096
-0.0750197
-0.0755132
-0.0758287
-0.0759265
-0.0758587
-0.0755992
-0.0752189
-0.0746928
-0.0741024
-0.0734144
-0.0727106
-0.0719581
-0.0712378
-0.0705117
-0.0698492
-0.0692207
-0.0686876
-0.068217
-0.0678569
-0.0675845
-0.0674086
-0.0674364
-0.0675359
-0.0698163
-0.0710778
-0.0724593
-0.0738504
-0.0751225
-0.0762493
-0.0771736
-0.0779142
-0.0784253
-0.0787456
-0.0788347
-0.0787463
-0.0784547
-0.0780337
-0.0774585
-0.0768143
-0.0760676
-0.0753036
-0.0744892
-0.0737084
-0.0729224
-0.0722036
-0.0715216
-0.0709399
-0.0704243
-0.0700245
-0.0697161
-0.0695093
-0.0695115
-0.0695916
-0.0723746
-0.0736897
-0.0751345
-0.0765923
-0.0779262
-0.0791073
-0.0800753
-0.0808478
-0.0813773
-0.0817028
-0.0817832
-0.0816738
-0.0813496
-0.0808871
-0.0802622
-0.0795631
-0.0787567
-0.0779316
-0.0770543
-0.0762119
-0.0753651
-0.074589
-0.0738524
-0.0732214
-0.0726601
-0.0722201
-0.0718752
-0.071637
-0.0716134
-0.0716718
-0.0749872
-0.076359
-0.07787
-0.0793975
-0.0807958
-0.0820335
-0.083047
-0.0838527
-0.0844015
-0.0847323
-0.0848037
-0.0846726
-0.0843145
-0.0838091
-0.0831326
-0.0823769
-0.0815087
-0.0806205
-0.0796782
-0.0787723
-0.0778628
-0.0770278
-0.0762352
-0.0755533
-0.0749448
-0.0744631
-0.0740802
-0.0738092
-0.0737581
-0.0737954
-0.0776249
-0.079053
-0.0806332
-0.0822338
-0.0836998
-0.0849969
-0.086058
-0.0868985
-0.0874675
-0.0878042
-0.0878666
-0.0877135
-0.087321
-0.0867719
-0.0860429
-0.0852295
-0.0842986
-0.0833461
-0.0823377
-0.0813672
-0.0803939
-0.0794989
-0.0786492
-0.0779156
-0.0772592
-0.0767352
-0.0763139
-0.0760095
-0.0759306
-0.0759445
-0.0803168
-0.081806
-0.0834575
-0.0851347
-0.0866716
-0.0880307
-0.0891417
-0.0900186
-0.0906086
-0.0909514
-0.0910044
-0.0908285
-0.0904002
-0.0898059
-0.0890224
-0.0881495
-0.0871535
-0.0861347
-0.085058
-0.0840209
-0.0829818
-0.082025
-0.0811166
-0.0803298
-0.0796239
-0.079056
-0.0785945
-0.0782552
-0.0781469
-0.0781378
-0.0830336
-0.0845827
-0.0863098
-0.0880673
-0.0896788
-0.0911031
-0.0922664
-0.0931813
-0.0937936
-0.094143
-0.0941867
-0.0939878
-0.0935232
-0.0928828
-0.0920439
-0.0911101
-0.090048
-0.0889616
-0.0878155
-0.0867106
-0.0856045
-0.0845849
-0.0836167
-0.0827758
-0.0820196
-0.0814072
-0.0809049
-0.08053
-0.0803917
-0.0803575
-0.0858056
-0.0874182
-0.0892245
-0.0910662
-0.0927559
-0.0942485
-0.0954664
-0.0964211
-0.0970565
-0.0974129
-0.0974469
-0.097224
-0.0967216
-0.0960335
-0.0951372
-0.0941406
-0.09301
-0.0918538
-0.0906358
-0.089461
-0.0882859
-0.0872016
-0.086172
-0.0852753
-0.0844671
-0.0838084
-0.0832636
-0.0828515
-0.0826815
-0.0826223
-0.0886021
-0.0902779
-0.0921674
-0.0940979
-0.0958697
-0.0974339
-0.0987091
-0.0997056
-0.100365
-0.100729
-0.100754
-0.100507
-0.0999659
-0.0992292
-0.0982745
-0.0972137
-0.0960134
-0.094786
-0.093495
-0.0922489
-0.0910036
-0.0898536
-0.0887613
-0.0878079
-0.0869467
-0.0862412
-0.0856532
-0.085203
-0.0850007
-0.0849147
-0.0914553
-0.0931986
-0.095175
-0.0971981
-0.0990558
-0.100695
-0.10203
-0.10307
-0.103755
-0.104127
-0.104141
-0.103869
-0.103289
-0.102501
-0.101486
-0.100359
-0.0990865
-0.0977856
-0.0964192
-0.0950996
-0.0937819
-0.0925642
-0.0914076
-0.0903956
-0.0894798
-0.0887256
-0.0880923
-0.0876023
-0.0873659
-0.0872524
-0.0943339
-0.0961448
-0.0982126
-0.100332
-0.10228
-0.103998
-0.105395
-0.106481
-0.107193
-0.107573
-0.107578
-0.10728
-0.106659
-0.105821
-0.104744
-0.103549
-0.102203
-0.100827
-0.0993839
-0.0979895
-0.0965982
-0.0953116
-0.0940893
-0.0930179
-0.0920464
-0.0912426
-0.0905635
-0.0900329
-0.0897613
-0.0896181
-0.097271
-0.0991546
-0.101317
-0.103538
-0.105579
-0.107378
-0.108841
-0.109974
-0.110714
-0.111103
-0.111098
-0.110773
-0.110111
-0.109219
-0.108078
-0.106813
-0.105391
-0.103938
-0.102416
-0.100944
-0.0994771
-0.0981196
-0.0968299
-0.0956971
-0.094668
-0.0938129
-0.0930858
-0.0925124
-0.0922037
-0.0920296
-0.100234
-0.102191
-0.104453
-0.106778
-0.108918
-0.110802
-0.112333
-0.113516
-0.114285
-0.114684
-0.114668
-0.114318
-0.113612
-0.112667
-0.111461
-0.110124
-0.108625
-0.107093
-0.10549
-0.10394
-0.102396
-0.100966
-0.0996075
-0.0984122
-0.0973246
-0.0964171
-0.0956413
-0.0950243
-0.0946774
-0.09447
-0.103257
-0.105294
-0.107659
-0.110093
-0.112334
-0.114307
-0.115909
-0.117144
-0.117943
-0.118352
-0.118325
-0.117947
-0.117198
-0.116196
-0.114922
-0.113513
-0.111933
-0.11032
-0.108633
-0.107003
-0.105379
-0.103875
-0.102446
-0.101186
-0.100038
-0.0990762
-0.0982494
-0.0975867
-0.0971994
-0.0969579
-0.106306
-0.108424
-0.110896
-0.113444
-0.115791
-0.117857
-0.119533
-0.120822
-0.121652
-0.122072
-0.122036
-0.121629
-0.120835
-0.119776
-0.118434
-0.116949
-0.115289
-0.113592
-0.111821
-0.110108
-0.108403
-0.106824
-0.105323
-0.103998
-0.102788
-0.101771
-0.100892
-0.100183
-0.0997538
-0.0994761
-0.109417
-0.111622
-0.114205
-0.116871
-0.119328
-0.12149
-0.123243
-0.124587
-0.125451
-0.125882
-0.125834
-0.125399
-0.124559
-0.123441
-0.122028
-0.120465
-0.118721
-0.116939
-0.115081
-0.113283
-0.111495
-0.109838
-0.108263
-0.10687
-0.105596
-0.104522
-0.103589
-0.102831
-0.102358
-0.102043
-0.112553
-0.114848
-0.117547
-0.120335
-0.122907
-0.125169
-0.127002
-0.128405
-0.129303
-0.129747
-0.129688
-0.129224
-0.128337
-0.127159
-0.125674
-0.124032
-0.122202
-0.120333
-0.118386
-0.116502
-0.11463
-0.112894
-0.111243
-0.109781
-0.108442
-0.10731
-0.106322
-0.105513
-0.104996
-0.104642
-0.115753
-0.118142
-0.120961
-0.123877
-0.126568
-0.128934
-0.13085
-0.132314
-0.133247
-0.133703
-0.133634
-0.133139
-0.132203
-0.130964
-0.129404
-0.127681
-0.125763
-0.123805
-0.121766
-0.119794
-0.117834
-0.116017
-0.114289
-0.112755
-0.111349
-0.110156
-0.109111
-0.10825
-0.107685
-0.107291
-0.118977
-0.121464
-0.124408
-0.127456
-0.130271
-0.132745
-0.134748
-0.136275
-0.137246
-0.137716
-0.137636
-0.137111
-0.136127
-0.134824
-0.133189
-0.131382
-0.129374
-0.127325
-0.125193
-0.123131
-0.121084
-0.119184
-0.117376
-0.11577
-0.114295
-0.11304
-0.111937
-0.111022
-0.110409
-0.109973
-0.122266
-0.124856
-0.12793
-0.131115
-0.134059
-0.136645
-0.138738
-0.14033
-0.141339
-0.141823
-0.141732
-0.141176
-0.140141
-0.138773
-0.13706
-0.135168
-0.133068
-0.130925
-0.128698
-0.126543
-0.124405
-0.122421
-0.120531
-0.11885
-0.117304
-0.115985
-0.114821
-0.11385
-0.113186
-0.112707
-0.125579
-0.128274
-0.131483
-0.134812
-0.13789
-0.140593
-0.142779
-0.14444
-0.14549
-0.145988
-0.145887
-0.1453
-0.144214
-0.14278
-0.140988
-0.139009
-0.136815
-0.134577
-0.132252
-0.130004
-0.127773
-0.125703
-0.123729
-0.121972
-0.120353
-0.11897
-0.117744
-0.116716
-0.115999
-0.115474
-0.128956
-0.131763
-0.135111
-0.13859
-0.141807
-0.144631
-0.146914
-0.148645
-0.149736
-0.15025
-0.150137
-0.149519
-0.14838
-0.146879
-0.145005
-0.142937
-0.140646
-0.13831
-0.135886
-0.133541
-0.131217
-0.129057
-0.126998
-0.125162
-0.123468
-0.122018
-0.120728
-0.119639
-0.118867
-0.118294
-0.132358
-0.135277
-0.138771
-0.142405
-0.145767
-0.148718
-0.151102
-0.152907
-0.154041
-0.154572
-0.15445
-0.153799
-0.152607
-0.151037
-0.14908
-0.146921
-0.144532
-0.142097
-0.139571
-0.137129
-0.134709
-0.132458
-0.130311
-0.128396
-0.126625
-0.125107
-0.123752
-0.122601
-0.121773
-0.121149
-0.135824
-0.138862
-0.142507
-0.146302
-0.149815
-0.152896
-0.155385
-0.157266
-0.158445
-0.158993
-0.158859
-0.158176
-0.15693
-0.155289
-0.153247
-0.150995
-0.148506
-0.145969
-0.143339
-0.140797
-0.138278
-0.135934
-0.133697
-0.131699
-0.12985
-0.128261
-0.126838
-0.125623
-0.124735
-0.124057
-0.139313
-0.142471
-0.146273
-0.150237
-0.153907
-0.157125
-0.159722
-0.161682
-0.162909
-0.163476
-0.163333
-0.162617
-0.161315
-0.159604
-0.157475
-0.155128
-0.152537
-0.149896
-0.14716
-0.144517
-0.141899
-0.13946
-0.137131
-0.135049
-0.13312
-0.13146
-0.129967
-0.128686
-0.127737
-0.127003
-0.142867
-0.14615
-0.150115
-0.154255
-0.158088
-0.161447
-0.164156
-0.166199
-0.167473
-0.16806
-0.167906
-0.167157
-0.165799
-0.164014
-0.161797
-0.159353
-0.156658
-0.153911
-0.151067
-0.148321
-0.1456
-0.143063
-0.140639
-0.138471
-0.13646
-0.134725
-0.13316
-0.13181
-0.130797
-0.130006
-0.146443
-0.149852
-0.153987
-0.15831
-0.162313
-0.165819
-0.168646
-0.170774
-0.1721
-0.172708
-0.172545
-0.171763
-0.170348
-0.168489
-0.166182
-0.16364
-0.160839
-0.157984
-0.15503
-0.152179
-0.149354
-0.146718
-0.144197
-0.141942
-0.13985
-0.138038
-0.136398
-0.134978
-0.1339
-0.133048
-0.150084
-0.153623
-0.157935
-0.162449
-0.166629
-0.170287
-0.173235
-0.175451
-0.176829
-0.177459
-0.177287
-0.17647
-0.174998
-0.173063
-0.170664
-0.168021
-0.165112
-0.162148
-0.159081
-0.156122
-0.153192
-0.150453
-0.147832
-0.145488
-0.143311
-0.14142
-0.139703
-0.138208
-0.137063
-0.136148
-0.153744
-0.157415
-0.16191
-0.166624
-0.170988
-0.174806
-0.177881
-0.180189
-0.181622
-0.182277
-0.182096
-0.181246
-0.179715
-0.177704
-0.17521
-0.172466
-0.169447
-0.166371
-0.163191
-0.160124
-0.157086
-0.154243
-0.15152
-0.149086
-0.146825
-0.144853
-0.143055
-0.141484
-0.14027
-0.13929
-0.157465
-0.161275
-0.165962
-0.170884
-0.175439
-0.179421
-0.182627
-0.185031
-0.18652
-0.1872
-0.18701
-0.186126
-0.184535
-0.182445
-0.179856
-0.177008
-0.173877
-0.170688
-0.167392
-0.164214
-0.161065
-0.158114
-0.155287
-0.152761
-0.150414
-0.148356
-0.146475
-0.144825
-0.143539
-0.142489
-0.161201
-0.165153
-0.17004
-0.17518
-0.179935
-0.184089
-0.187431
-0.189935
-0.191485
-0.192191
-0.191994
-0.191076
-0.189425
-0.187256
-0.184569
-0.181617
-0.178373
-0.175068
-0.171656
-0.168366
-0.165105
-0.162044
-0.159112
-0.156492
-0.154057
-0.15191
-0.149944
-0.148211
-0.146853
-0.145731
-0.164997
-0.169097
-0.174195
-0.179561
-0.184523
-0.188855
-0.192339
-0.194945
-0.196556
-0.197291
-0.197085
-0.196133
-0.19442
-0.19217
-0.189384
-0.186325
-0.182966
-0.179544
-0.176012
-0.172607
-0.169231
-0.166058
-0.163018
-0.160302
-0.157775
-0.155534
-0.153479
-0.151662
-0.150229
-0.149031
-0.168806
-0.173058
-0.178374
-0.183977
-0.189156
-0.193673
-0.197305
-0.200019
-0.201695
-0.202461
-0.202249
-0.201262
-0.199488
-0.197156
-0.194271
-0.191104
-0.187628
-0.184087
-0.180436
-0.176913
-0.17342
-0.170133
-0.166983
-0.164169
-0.161546
-0.159209
-0.157063
-0.155159
-0.15365
-0.152373
-0.17267
-0.177085
-0.182629
-0.188479
-0.193883
-0.198592
-0.202377
-0.205203
-0.206945
-0.207742
-0.207523
-0.206501
-0.204663
-0.202247
-0.19926
-0.195984
-0.192389
-0.188726
-0.184954
-0.18131
-0.177697
-0.174292
-0.171032
-0.168114
-0.165392
-0.162953
-0.160715
-0.158721
-0.157134
-0.155776
-0.176545
-0.181125
-0.186909
-0.193016
-0.198655
-0.203564
-0.207508
-0.210451
-0.212264
-0.213096
-0.212873
-0.211817
-0.209914
-0.207414
-0.204326
-0.200938
-0.197223
-0.193436
-0.189541
-0.185772
-0.182038
-0.178513
-0.17514
-0.172116
-0.16929
-0.166747
-0.164414
-0.162328
-0.160663
-0.15922
-0.180476
-0.185233
-0.191265
-0.197639
-0.203521
-0.208639
-0.212748
-0.215811
-0.217696
-0.218564
-0.218335
-0.217244
-0.215275
-0.212688
-0.209495
-0.205994
-0.202155
-0.198242
-0.194221
-0.190323
-0.186465
-0.182819
-0.179331
-0.176194
-0.173261
-0.17061
-0.168181
-0.166001
-0.164255
-0.162726
-0.184416
-0.189354
-0.195645
-0.202299
-0.208434
-0.213767
-0.218049
-0.221238
-0.2232
-0.224107
-0.223877
-0.222752
-0.220716
-0.21804
-0.214745
-0.211128
-0.207163
-0.203121
-0.198969
-0.194938
-0.190955
-0.187184
-0.183581
-0.180328
-0.177283
-0.174522
-0.171995
-0.16972
-0.167892
-0.166275
-0.188414
-0.193543
-0.200102
-0.207045
-0.213443
-0.219001
-0.223461
-0.226781
-0.22882
-0.229768
-0.229534
-0.228373
-0.226267
-0.2235
-0.220098
-0.216361
-0.21227
-0.208093
-0.203808
-0.199643
-0.195534
-0.191636
-0.187915
-0.184542
-0.181381
-0.178506
-0.17588
-0.173507
-0.171594
-0.169889
-0.192422
-0.197744
-0.204584
-0.211828
-0.218498
-0.224289
-0.228936
-0.232392
-0.234516
-0.235507
-0.235276
-0.234079
-0.231902
-0.229043
-0.225533
-0.221672
-0.21745
-0.213136
-0.208714
-0.20441
-0.200174
-0.196149
-0.192309
-0.188811
-0.185531
-0.182542
-0.179814
-0.177341
-0.175343
-0.173546
-0.196488
-0.202014
-0.209144
-0.2167
-0.223652
-0.229685
-0.234525
-0.238122
-0.24033
-0.241366
-0.241134
-0.239899
-0.237647
-0.234692
-0.231068
-0.22708
-0.222726
-0.218272
-0.213712
-0.209269
-0.204904
-0.200749
-0.196788
-0.193161
-0.189761
-0.186656
-0.183823
-0.181248
-0.179162
-0.177271