/*--------------------------------*- C++ -*----------------------------------*\
  =========                 |
  \\      /  F ield         | OpenFOAM: The Open Source CFD Toolbox
   \\    /   O peration     | Website:  https://openfoam.org
    \\  /    A nd           | Version:  6.0
     \\/     M anipulation  |
\*---------------------------------------------------------------------------*/
FoamFile
{
    version     2.0;
    format      ascii;
    class       surfaceScalarField;
    location    "4";
    object      phi;
}
// * * * * * * * * * * * * * * * * * * * * * * * * * * * * * * * * * * * * * //

dimensions      [0 3 -1 0 0 0 0];

internalField   nonuniform List<scalar> 
93586
(
2.3233e-05
0.00154693
-8.18265e-08
4.66941e-05
0.00154243
7.03337e-05
0.00153385
9.3995e-05
0.00152114
0.000117584
0.0015042
0.000140991
0.00148297
0.000164143
0.00145744
0.000186926
0.00142769
0.000209259
0.00139383
0.000231036
0.00135606
0.00025218
0.00131455
0.000272612
0.0012695
0.000292275
0.00122108
0.000311108
0.00116946
0.000329066
0.00111478
0.000346101
0.00105717
0.000362171
0.000996771
0.000377233
0.000933723
0.000391249
0.000868172
0.000404182
0.000800278
0.000415996
0.000730206
0.000426659
0.000658134
0.000436142
0.00058425
0.000444418
0.000508746
0.000451464
0.000431822
0.000457261
0.00035368
0.000461792
0.000274517
0.000465089
0.00019447
0.000466706
0.000114098
3.08434e-05
0.000464703
2.27633e-05
0.00152419
-3.04385e-08
4.58309e-05
0.00151935
6.91152e-05
0.00151055
9.24611e-05
0.00149777
0.000115766
0.00148088
0.000138904
0.0014598
0.000161788
0.00143453
0.000184293
0.00140515
0.000206334
0.00137176
0.000227803
0.00133456
0.00024863
0.0012937
0.000268739
0.00124936
0.000288079
0.00120172
0.000306596
0.00115092
0.000324248
0.0010971
0.000340989
0.0010404
0.000356782
0.000980952
0.000371585
0.000918894
0.00038536
0.00085437
0.000398071
0.00078754
0.000409683
0.000718566
0.000420165
0.000647624
0.000429487
0.000574899
0.000437622
0.00050058
0.000444548
0.000424864
0.000450244
0.000347951
0.000454689
0.000270036
0.000457866
0.000191254
0.000459512
0.000112407
3.14956e-05
0.000458802
2.24478e-05
0.00150174
6.49604e-09
4.52373e-05
0.00149656
6.82417e-05
0.00148755
9.13023e-05
0.0014747
0.00011431
0.00145787
0.000137137
0.00143696
0.000159695
0.00141197
0.000181859
0.00138297
0.00020355
0.00135007
0.000224666
0.00131343
0.000245142
0.00127322
0.000264907
0.00122959
0.000283914
0.00118271
0.000302111
0.00113272
0.000319457
0.00107975
0.000335911
0.00102395
0.000351432
0.000965432
0.000365981
0.000904346
0.000379522
0.000840832
0.000392016
0.000775048
0.000403431
0.000707154
0.000413735
0.000637324
0.000422899
0.00056574
0.000430895
0.00049259
0.000437701
0.000418065
0.000443294
0.000342365
0.000447652
0.000265687
0.000450729
0.000188188
0.000452439
0.000110711
3.15518e-05
0.00045241
2.21557e-05
0.00147954
3.06545e-08
4.46716e-05
0.00147403
6.73929e-05
0.00146482
9.01578e-05
0.00145192
0.000112855
0.00143515
0.000135356
0.00141443
0.000157573
0.00138973
0.000179389
0.00136113
0.000200728
0.00132871
0.000221493
0.00129264
0.000241624
0.00125306
0.000261055
0.00121013
0.000279739
0.001164
0.000297627
0.0011148
0.000314681
0.00106268
0.000330857
0.00100775
0.000346118
0.000950148
0.000360423
0.000890016
0.000373737
0.000827495
0.000386023
0.000762738
0.000397247
0.000695905
0.000407379
0.000627168
0.000416388
0.000556705
0.000424249
0.000484702
0.000430938
0.000411348
0.000436432
0.000336841
0.000440705
0.000261382
0.00044371
0.000185148
0.00044542
0.000108962
3.12585e-05
0.000445659
2.18664e-05
0.00145763
4.7384e-08
4.41024e-05
0.00145179
6.65323e-05
0.00144239
8.89927e-05
0.00142945
0.000111371
0.00141278
0.000133539
0.00139226
0.000155415
0.00136786
0.000176883
0.00133965
0.000197873
0.00130772
0.000218295
0.00127222
0.000238091
0.00123327
0.000257197
0.00119103
0.00027557
0.00114563
0.000293161
0.00109722
0.000309932
0.00104591
0.000325841
0.000991843
0.00034085
0.000935145
0.00035492
0.000875952
0.000368014
0.000814407
0.000380098
0.000750661
0.000391138
0.000684873
0.000401103
0.000617212
0.000409963
0.000547854
0.000417693
0.000476982
0.000424268
0.000404785
0.000429665
0.000331457
0.00043386
0.000257202
0.000436809
0.000182215
0.000438508
0.000107282
3.0934e-05
0.000438867
2.15775e-05
0.00143599
6.01547e-08
4.35276e-05
0.00142983
6.56593e-05
0.00142025
8.78088e-05
0.00140728
0.000109863
0.00139071
0.000131696
0.0013704
0.000153229
0.00134631
0.000174353
0.00131851
0.000195001
0.00128705
0.000215086
0.0012521
0.000234556
0.00121378
0.000253348
0.00117221
0.000271419
0.00112754
0.000288722
0.00107989
0.00030522
0.00102939
0.00032087
0.000976171
0.000335635
0.000920358
0.000349477
0.000862089
0.000362359
0.000801502
0.000374248
0.000738751
0.000385108
0.00067399
0.000394911
0.000607386
0.000403626
0.000539115
0.000411229
0.000469355
0.000417694
0.000398293
0.000422999
0.000326124
0.00042712
0.000253052
0.000430021
0.000179282
0.000431704
0.000105562
3.04711e-05
0.000432116
2.12858e-05
0.00141463
7.78212e-08
4.29435e-05
0.00140818
6.47706e-05
0.00139843
8.6604e-05
0.00138545
0.000108331
0.00136899
0.000129829
0.0013489
0.000151023
0.00132512
0.000171806
0.00129772
0.000192119
0.00126675
0.000211877
0.00123235
0.000231028
0.00119464
0.000249515
0.00115373
0.000267294
0.00110977
0.000284318
0.00106287
0.000300551
0.00101317
0.00031595
0.00096078
0.000330479
0.000905839
0.000344099
0.000848477
0.000356775
0.000788836
0.000368473
0.000727063
0.00037916
0.000663314
0.000388805
0.000597753
0.00039738
0.000530553
0.000404858
0.00046189
0.000411217
0.000391949
0.000416434
0.000320924
0.000420484
0.00024902
0.00042334
0.000176445
0.000425005
0.00010392
3.00697e-05
0.000425445
2.09912e-05
0.00139355
8.1592e-08
4.235e-05
0.0013868
6.38674e-05
0.0013769
8.53813e-05
0.00136392
0.00010678
0.00134758
0.000127945
0.00132771
0.000148802
0.00130424
0.000169252
0.00127725
0.000189236
0.00124674
0.000208674
0.00121289
0.000227517
0.00117577
0.000245707
0.00113552
0.000263201
0.00109226
0.000279955
0.0010461
0.00029593
0.000997173
0.000311085
0.000945605
0.000325384
0.00089152
0.000338789
0.000835052
0.000351265
0.00077634
0.000362777
0.00071553
0.000373294
0.000652777
0.000382786
0.00058824
0.000391223
0.000522093
0.000398582
0.000454508
0.000404838
0.000385669
0.000409968
0.000315767
0.000413952
0.000245008
0.000416765
0.000173602
0.00041841
0.000102241
2.95711e-05
0.000418859
2.06936e-05
0.00137278
8.09687e-08
4.17486e-05
0.00136575
6.29527e-05
0.0013557
8.41454e-05
0.00134273
0.000105216
0.00132651
0.000126051
0.00130688
0.000146576
0.00128373
0.000166699
0.00125713
0.000186362
0.00122709
0.000205488
0.00119377
0.00022403
0.00115724
0.00024193
0.00111763
0.000259148
0.00107505
0.000275638
0.00102962
0.000291362
0.000981459
0.00030628
0.000930697
0.000320355
0.000877456
0.00033355
0.000821868
0.00034583
0.000764071
0.000357161
0.000704211
0.000367513
0.000642438
0.000376854
0.000578912
0.000385158
0.000513803
0.0003924
0.000447282
0.000398555
0.00037953
0.000403603
0.000310738
0.000407522
0.000241109
0.000410293
0.000170853
0.000411916
0.000100643
2.91571e-05
0.000412371
2.03939e-05
0.00135229
7.92728e-08
4.11417e-05
0.00134499
6.20306e-05
0.0013348
8.2902e-05
0.00132184
0.000103647
0.00130576
0.000124154
0.00128635
0.000144354
0.00126351
0.000164155
0.00123731
0.000183504
0.00120772
0.000202325
0.00117493
0.000220573
0.00113898
0.000238191
0.00109999
0.00025514
0.00105808
0.000271372
0.00101337
0.000286851
0.000965962
0.000301537
0.000915992
0.000315393
0.000863581
0.000328383
0.00080886
0.000340472
0.000751964
0.000351626
0.000693037
0.000361816
0.000632229
0.000371011
0.000569697
0.000379184
0.000505609
0.000386311
0.000440134
0.000392368
0.00037345
0.000397335
0.000305746
0.000401192
0.000237225
0.000403921
0.000168094
0.000405523
9.90086e-05
2.86564e-05
0.000405976
2.00929e-05
0.00133213
7.72079e-08
4.05319e-05
0.00132456
6.11051e-05
0.00131424
8.16561e-05
0.00130129
0.000102078
0.00128534
0.000122262
0.00126617
0.000142141
0.00124364
0.000161627
0.00121782
0.000180668
0.00118869
0.000199192
0.00115641
0.000217153
0.00112103
0.000234495
0.00108266
0.000251179
0.00104141
0.00026716
0.000997395
0.0002824
0.000950734
0.000296859
0.000901545
0.000310501
0.000849952
0.000323289
0.000796084
0.000335191
0.000740075
0.000346172
0.000682069
0.000356203
0.000622213
0.000365255
0.00056066
0.0003733
0.000497579
0.000380315
0.000433136
0.000386276
0.000367506
0.000391164
0.000300877
0.000394961
0.00023345
0.000397649
0.00016543
0.000399228
9.74563e-05
2.82473e-05
0.00039968
1.97919e-05
0.00131226
7.34581e-08
3.99216e-05
0.00130442
6.01798e-05
0.00129397
8.04125e-05
0.00128104
0.000100514
0.00126523
0.00012038
0.00124629
0.000139944
0.00122406
0.000159121
0.00119863
0.000177861
0.00116994
0.000196093
0.00113816
0.000213772
0.00110333
0.000230845
0.00106557
0.000247271
0.00102497
0.000263005
0.000981643
0.00027801
0.000935712
0.000292246
0.000887291
0.000305678
0.000836502
0.00031827
0.000783474
0.000329988
0.000728339
0.000340799
0.000671239
0.000350675
0.000612318
0.000359586
0.00055173
0.000367506
0.000489639
0.00037441
0.00042621
0.000380278
0.000361616
0.000385089
0.000296042
0.000388826
0.000229687
0.000391474
0.000162754
0.000393031
9.58677e-05
2.77544e-05
0.000393478
1.94916e-05
0.0012927
6.99714e-08
3.9313e-05
0.00128461
5.92579e-05
0.00127403
7.91751e-05
0.00126113
9.89607e-05
0.00124545
0.000118512
0.00122674
0.000137767
0.00120482
0.00015664
0.00117976
0.000175085
0.00115151
0.000193031
0.00112022
0.000210435
0.00108594
0.000227243
0.00104877
0.000243415
0.00100881
0.000258907
0.000966162
0.000273682
0.00092095
0.0002877
0.000873285
0.000300926
0.000823289
0.000313324
0.000771089
0.000324862
0.000716815
0.000335507
0.000660608
0.00034523
0.000602611
0.000354003
0.000542973
0.0003618
0.000481859
0.000368597
0.000419431
0.000374373
0.000355859
0.000379109
0.000291327
0.000382788
0.000226031
0.000385396
0.000160171
0.00038693
9.43615e-05
2.73553e-05
0.000387373
1.9193e-05
0.00127343
6.73934e-08
3.87077e-05
0.00126508
5.83421e-05
0.00125439
7.79472e-05
0.00124151
9.7421e-05
0.00122597
0.000116664
0.00120748
0.000135613
0.00118586
0.000154189
0.00116116
0.000172344
0.00113334
0.00019001
0.00110253
0.000207143
0.00106879
0.000223691
0.0010322
0.000239615
0.000992867
0.000254869
0.000950891
0.000269418
0.000906385
0.000283221
0.000859465
0.000296245
0.000810249
0.000308453
0.000758863
0.000319814
0.000705438
0.000330295
0.000650109
0.000339868
0.00059302
0.000348506
0.000534317
0.000356182
0.000474164
0.000362873
0.000412719
0.000368559
0.000350152
0.000373221
0.000286642
0.000376843
0.000222384
0.000379411
0.000157575
0.000380924
9.28188e-05
2.68735e-05
0.00038136
1.88965e-05
0.00125448
6.50905e-08
3.81074e-05
0.00124588
5.74343e-05
0.00123507
7.67312e-05
0.00122222
9.58976e-05
0.00120681
0.000114836
0.00118855
0.000133487
0.00116722
0.00015177
0.00114289
0.00016964
0.00111548
0.00018703
0.00108515
0.000203898
0.00105194
0.000220191
0.00101592
0.00023587
0.000977201
0.00025089
0.000935882
0.000265216
0.000892072
0.000278809
0.000845886
0.000291634
0.000797439
0.000303655
0.000746856
0.000314842
0.000694266
0.000325163
0.000639804
0.000334589
0.00058361
0.000343093
0.00052583
0.00035065
0.000466624
0.000357238
0.00040615
0.000362836
0.000344574
0.000367425
0.000282074
0.000370991
0.000218842
0.000373521
0.000155071
0.000375011
9.13582e-05
2.64862e-05
0.000375443
1.8603e-05
0.00123581
6.2895e-08
3.75131e-05
0.00122695
5.65362e-05
0.00121604
7.5529e-05
0.00120321
9.43926e-05
0.00118794
0.000113032
0.00116989
0.000131388
0.00114885
0.000149384
0.00112488
0.000166974
0.00109788
0.000184094
0.00106802
0.000200701
0.00103532
0.000216742
0.000999863
0.000232181
0.000961749
0.000246971
0.000921075
0.000261079
0.00087795
0.000274464
0.000832484
0.000287093
0.000784794
0.000298931
0.000735002
0.000309946
0.000683234
0.000320109
0.000629625
0.00032939
0.000574312
0.000337763
0.000517439
0.000345204
0.000459165
0.000351689
0.000399645
0.000357201
0.000339042
0.000361719
0.000277534
0.00036523
0.000215307
0.000367721
0.000152554
0.00036919
8.98608e-05
2.60168e-05
0.000369615
1.83126e-05
0.00121744
6.07799e-08
3.69256e-05
0.00120835
5.5649e-05
0.00119733
7.4342e-05
0.00118453
9.29075e-05
0.00116938
0.000111253
0.00115155
0.00012932
0.0011308
0.000147033
0.00110717
0.000164348
0.00108057
0.000181202
0.00105117
0.000197551
0.00101898
0.000213346
0.00098408
0.000228548
0.000946561
0.000243112
0.000906523
0.000257004
0.000864072
0.000270185
0.000819317
0.000282621
0.000772373
0.000294278
0.00072336
0.000305126
0.000672402
0.000315133
0.000619634
0.000324272
0.00056519
0.000332516
0.000509212
0.000339842
0.000451858
0.000346227
0.000393278
0.000351653
0.000333637
0.000356102
0.000273108
0.000359559
0.000211874
0.000362013
0.000150127
0.000363459
8.84448e-05
2.56417e-05
0.00036388
1.80261e-05
0.00119935
5.88094e-08
3.63457e-05
0.00119002
5.47735e-05
0.00117889
7.31711e-05
0.00116612
9.14433e-05
0.0011511
0.000109499
0.00113348
0.000127281
0.001113
0.000144717
0.00108972
0.000161762
0.00106352
0.000178354
0.00103457
0.000194451
0.00100287
0.000210002
0.000968513
0.000224971
0.000931579
0.000239313
0.000892166
0.000252993
0.000850378
0.000265972
0.000806322
0.000278219
0.000760111
0.000289698
0.000711865
0.00030038
0.000661705
0.000310233
0.000609764
0.000319232
0.000556175
0.000327349
0.000501077
0.000334563
0.000444626
0.00034085
0.000386972
0.000346192
0.000328275
0.000350572
0.000268706
0.000353976
0.000208447
0.000356393
0.000147685
0.000357818
8.69917e-05
2.51852e-05
0.000358232
1.77433e-05
0.00118156
5.67675e-08
3.57738e-05
0.001172
5.39103e-05
0.00116076
7.20172e-05
0.00114802
9.00005e-05
0.00113313
0.000107772
0.00111572
0.000125274
0.00109551
0.000142437
0.00107257
0.000159216
0.00104675
0.00017555
0.00101824
0.000191398
0.000987039
0.00020671
0.000953213
0.000221449
0.000916854
0.000235572
0.000878057
0.000249043
0.000836922
0.000261825
0.000793555
0.000273884
0.000748067
0.000285188
0.000700576
0.000295707
0.000651203
0.000305409
0.000600078
0.000314271
0.000547331
0.000322263
0.000493101
0.000329366
0.000437543
0.000335556
0.000380802
0.000340816
0.000323036
0.000345129
0.000264416
0.000348481
0.00020512
0.00035086
0.000145333
0.000352264
8.56191e-05
2.48221e-05
0.000352674
1.74647e-05
0.00116403
5.46743e-08
3.52102e-05
0.00115424
5.30599e-05
0.0011429
7.08804e-05
0.00113019
8.85797e-05
0.00111542
0.000106071
0.00109821
0.000123298
0.00107827
0.000140192
0.00105566
0.000156709
0.00103022
0.00017279
0.00100215
0.000188393
0.000971424
0.00020347
0.000938122
0.000217983
0.000902329
0.000231889
0.000864136
0.000245155
0.000823643
0.000257741
0.000780954
0.000269617
0.000736177
0.000280748
0.00068943
0.000291106
0.000640831
0.000300661
0.000590507
0.000309386
0.00053859
0.000317256
0.000485214
0.00032425
0.000430532
0.000330345
0.000374688
0.000335524
0.000317838
0.00033977
0.000260149
0.000343071
0.000201797
0.000345414
0.000142965
0.000346797
8.42092e-05
2.43784e-05
0.0003472
1.71901e-05
0.0011468
5.24969e-08
3.46551e-05
0.00113679
5.22223e-05
0.00112535
6.97612e-05
0.00111266
8.7181e-05
0.00109801
0.000104396
0.00108101
0.000121353
0.00106133
0.000137983
0.00103904
0.000154242
0.00101398
0.000170074
0.000986329
0.000185436
0.000956076
0.000200281
0.00092329
0.000214571
0.000888053
0.000228264
0.000850456
0.000241327
0.000810596
0.000253721
0.000768574
0.000265416
0.000724499
0.000276377
0.000678484
0.000286577
0.000630648
0.000295985
0.000581116
0.000304577
0.000530016
0.000312327
0.000477482
0.000319213
0.000423665
0.000325215
0.000368707
0.000330314
0.000312761
0.000334495
0.000255991
0.000337746
0.000198572
0.000340053
0.000140685
0.000341415
8.28787e-05
2.40269e-05
0.000341814
1.69199e-05
0.00112982
5.0273e-08
3.41085e-05
0.00111959
5.13979e-05
0.00110805
6.86596e-05
0.00109538
8.58044e-05
0.00108086
0.000102749
0.00106405
0.000119439
0.00104463
0.000135809
0.00102265
0.000151815
0.000997961
0.000167401
0.000970729
0.000182525
0.00094094
0.000197142
0.00090866
0.000211212
0.00087397
0.000224696
0.000836959
0.000237559
0.00079772
0.000249764
0.000756355
0.00026128
0.000712969
0.000272074
0.000667675
0.000282118
0.00062059
0.000291383
0.000571836
0.000299843
0.000521541
0.000307474
0.000469835
0.000314255
0.000416868
0.000320164
0.000362779
0.000325186
0.000307721
0.000329302
0.000251854
0.000332503
0.00019535
0.000334776
0.000138388
0.000336118
8.15107e-05
2.35956e-05
0.000336509
1.66538e-05
0.00111313
4.79568e-08
3.35706e-05
0.00110269
5.05865e-05
0.00109105
6.75755e-05
0.0010784
8.44498e-05
0.001064
0.000101127
0.00104738
0.000117556
0.00102821
0.000133669
0.00100655
0.000149427
0.000982218
0.00016477
0.000955397
0.000179661
0.000926064
0.000194052
0.000894282
0.000207907
0.000860131
0.000221184
0.000823695
0.000233851
0.000785069
0.000245869
0.000744351
0.000257209
0.000701645
0.000267838
0.000657062
0.000277729
0.000610717
0.000286852
0.000562731
0.000295183
0.000513228
0.000302697
0.000462339
0.000309374
0.000410211
0.000315193
0.000356981
0.000320137
0.000302799
0.000324191
0.000247824
0.000327343
0.000192224
0.000329581
0.000136178
0.000330903
8.02209e-05
2.32553e-05
0.00033129
1.63922e-05
0.00109669
4.56289e-08
3.30413e-05
0.00108603
4.97881e-05
0.00107429
6.65088e-05
0.00106167
8.31171e-05
0.00104738
9.95323e-05
0.00103095
0.000115703
0.00101203
0.000131565
0.000990675
0.000147077
0.000966696
0.000162182
0.000940279
0.000176843
0.000911393
0.000191012
0.0008801
0.000204654
0.000846477
0.000217728
0.000810608
0.0002302
0.000772584
0.000242035
0.000732503
0.000253202
0.000690465
0.000263669
0.000646581
0.000273408
0.000600964
0.000282391
0.000553732
0.000290595
0.00050501
0.000297994
0.000454924
0.000304569
0.00040362
0.000310298
0.000351234
0.000315167
0.000297912
0.000319159
0.000243812
0.000322263
0.0001891
0.000324467
0.00013395
0.000325769
7.88936e-05
2.28361e-05
0.00032615
1.61346e-05
0.00108052
4.32169e-08
3.25205e-05
0.00106965
4.90026e-05
0.00105782
6.54594e-05
0.00104523
8.18059e-05
0.00103104
9.79631e-05
0.00101481
0.00011388
0.000996131
0.000129494
0.000975073
0.000144764
0.000951441
0.000159636
0.00092542
0.000174069
0.000896974
0.00018802
0.000866163
0.000201452
0.000833061
0.000214326
0.00079775
0.000226607
0.000760319
0.000238261
0.000720864
0.000249257
0.000679486
0.000259564
0.000636291
0.000269155
0.000591391
0.000278
0.000544904
0.000286079
0.000496951
0.000293365
0.000447657
0.000299839
0.000397167
0.00030548
0.000345613
0.000310275
0.00029314
0.000314205
0.000239905
0.000317262
0.000186069
0.000319433
0.000131807
0.000320716
7.76432e-05
2.25065e-05
0.000321092
1.58814e-05
0.00106459
4.08314e-08
3.20082e-05
0.00105352
4.82299e-05
0.00104159
6.4427e-05
0.00102901
8.05161e-05
0.00101495
9.64194e-05
0.00099889
0.000112087
0.000980454
0.000127457
0.00095969
0.000142489
0.000936399
0.00015713
0.000910767
0.00017134
0.000882753
0.000185076
0.000852415
0.000198302
0.000819824
0.000210977
0.000785061
0.00022307
0.000748214
0.000234546
0.000709376
0.000245374
0.000668645
0.000255523
0.000626128
0.000264967
0.000581933
0.000273678
0.000536178
0.000281633
0.000488982
0.000288807
0.000440466
0.000295182
0.000390776
0.000300738
0.00034004
0.000305459
0.000288402
0.000309329
0.000236015
0.00031234
0.000183039
0.000314478
0.000129647
0.000315742
7.63552e-05
2.20991e-05
0.000316111
1.56321e-05
0.00104893
3.83753e-08
3.15042e-05
0.00103766
4.74698e-05
0.00102564
6.34115e-05
0.00101309
7.92473e-05
0.000999125
9.49007e-05
0.000983249
0.000110323
0.000965046
0.000125453
0.000944572
0.000140251
0.000921617
0.000154664
0.000896367
0.000168655
0.000868778
0.000182179
0.000838905
0.000195201
0.000806818
0.000207682
0.000772595
0.00021959
0.000736322
0.000230889
0.000698092
0.000241552
0.000657999
0.000251546
0.00061615
0.000260846
0.000572652
0.000269423
0.000527618
0.000277256
0.000481168
0.000284321
0.000433421
0.000290599
0.000384519
0.000296069
0.000334591
0.000300718
0.000283776
0.000304529
0.000232227
0.000307494
0.000180101
0.0003096
0.000127569
0.000310845
7.51428e-05
2.17796e-05
0.000311211
1.53871e-05
0.0010335
3.59804e-08
3.10085e-05
0.00102203
4.67221e-05
0.00100992
6.24125e-05
0.000997382
7.79991e-05
0.000983528
9.34068e-05
0.000967828
0.000108588
0.000949856
0.000123481
0.000929666
0.000138049
0.000907039
0.000152238
0.000882165
0.000166012
0.000854994
0.000179328
0.000825578
0.000192149
0.000793986
0.000204438
0.000760294
0.000216163
0.000724586
0.00022729
0.000686952
0.000237789
0.000647488
0.000247631
0.000606296
0.000256788
0.000563481
0.000265235
0.000519158
0.000272948
0.000473441
0.000279905
0.000426449
0.000286087
0.000378322
0.000291473
0.000329187
0.000296051
0.000279181
0.000299804
0.000228454
0.000302724
0.000177163
0.000304798
0.000125473
0.000306025
7.38929e-05
2.13835e-05
0.000306384
1.5146e-05
0.00101834
3.35239e-08
3.05209e-05
0.00100667
4.59866e-05
0.000994465
6.14299e-05
0.000981952
7.67713e-05
0.000968202
9.19372e-05
0.000952675
0.00010688
0.000934928
0.000121541
0.000915018
0.000135882
0.000892714
0.000149851
0.000868209
0.000163412
0.000841449
0.000176522
0.000812483
0.000189146
0.000781378
0.000201246
0.000748209
0.000212791
0.000713057
0.000223747
0.000676012
0.000234086
0.000637166
0.000243777
0.000596622
0.000252794
0.000554482
0.000261112
0.000510858
0.000268707
0.000465864
0.000275557
0.000419617
0.000281645
0.000372256
0.000286949
0.000323903
0.000291458
0.000274696
0.000295153
0.000224782
0.000298029
0.000174314
0.000300071
0.000123459
0.00030128
7.27174e-05
2.10737e-05
0.000301636
1.4909e-05
0.00100339
3.11553e-08
3.00413e-05
0.000991523
4.52632e-05
0.000979233
6.04633e-05
0.000966739
7.55636e-05
0.000953092
9.04915e-05
0.000937734
0.000105201
0.00092021
0.000119633
0.000900574
0.00013375
0.000878588
0.000147502
0.000854445
0.000160853
0.000828089
0.000173761
0.000799564
0.00018619
0.000768938
0.000198104
0.000736283
0.000209472
0.000701678
0.00022026
0.000665211
0.000230441
0.000626974
0.000239983
0.000587066
0.000248863
0.00054559
0.000257053
0.000502654
0.000264533
0.000458372
0.000271278
0.000412857
0.000277273
0.000366247
0.000282496
0.000318663
0.000286936
0.000270241
0.000290575
0.000221123
0.000293407
0.000171464
0.000295419
0.000121426
0.000296609
7.15043e-05
2.06886e-05
0.000296959
1.46757e-05
0.000988698
2.8732e-08
2.95695e-05
0.000976645
4.45516e-05
0.000964267
5.95125e-05
0.000951793
7.43755e-05
0.000938245
8.90692e-05
0.000923053
0.000103548
0.000905747
0.000117755
0.00088638
0.000131653
0.000864706
0.000145191
0.00084092
0.000158336
0.000814961
0.000171043
0.000786871
0.000183281
0.000756716
0.000195012
0.000724567
0.000206206
0.000690501
0.000216828
0.000654605
0.000226853
0.000616967
0.000236249
0.000577687
0.000244993
0.000536864
0.000253058
0.000494607
0.000260423
0.000451026
0.000267066
0.000406233
0.000272969
0.000360365
0.000278112
0.00031354
0.000282484
0.000265892
0.000286069
0.000217562
0.000288858
0.000168702
0.000290839
0.000119473
0.000292012
7.03642e-05
2.03881e-05
0.000292358
1.44464e-05
0.000974217
2.64174e-08
2.91054e-05
0.000961974
4.38516e-05
0.00094951
5.85771e-05
0.000937054
7.32067e-05
0.000923606
8.767e-05
0.000908577
0.000101923
0.000891486
0.000115907
0.000872383
0.000129589
0.000851016
0.000142917
0.000827581
0.000155858
0.000802011
0.000168369
0.000774349
0.000180418
0.000744657
0.000191969
0.000713005
0.00020299
0.000679469
0.00021345
0.000644133
0.000223321
0.000607085
0.000232573
0.000568422
0.000241184
0.000528242
0.000249125
0.000486652
0.000256378
0.00044376
0.000262919
0.000399677
0.000268732
0.000354538
0.000273797
0.000308459
0.000278103
0.000261571
0.000281633
0.000214014
0.000284379
0.000165937
0.000286331
0.000117501
0.000287487
6.91869e-05
2.00136e-05
0.000287827
1.42207e-05
0.000959987
2.40497e-08
2.8649e-05
0.000947562
4.3163e-05
0.000935012
5.7657e-05
0.000922575
7.20569e-05
0.000909223
8.62936e-05
0.000894353
0.000100323
0.000877472
0.00011409
0.00085863
0.000127558
0.000837563
0.00014068
0.000814473
0.00015342
0.000789287
0.000165738
0.000762046
0.000177601
0.00073281
0.000188974
0.000701648
0.000199826
0.000668634
0.000210125
0.00063385
0.000219845
0.000597383
0.000228955
0.000559328
0.000237434
0.000519782
0.000245254
0.00047885
0.000252396
0.000436638
0.000258837
0.000393255
0.000264562
0.000348835
0.00026955
0.000303492
0.00027379
0.000257354
0.000277266
0.000210562
0.000279971
0.000163259
0.000281893
0.000115607
0.000283032
6.8081e-05
1.9722e-05
0.000283369
1.39989e-05
0.000945957
2.18046e-08
2.82e-05
0.00093335
4.24856e-05
0.000920716
5.67518e-05
0.000908296
7.09257e-05
0.000895039
8.49393e-05
0.000880328
9.87495e-05
0.000863654
0.000112301
0.000845067
0.00012556
0.000824296
0.000138478
0.000801545
0.00015102
0.000776736
0.000163148
0.000749908
0.000174828
0.00072112
0.000186026
0.000690439
0.000196711
0.000657938
0.000206852
0.000623697
0.000216423
0.000587802
0.000225394
0.000550345
0.000233743
0.000511422
0.000241444
0.000471136
0.000248477
0.000429593
0.00025482
0.000386898
0.000260457
0.000343184
0.000265369
0.000298564
0.000269544
0.000253163
0.000272968
0.00020712
0.000275632
0.000160577
0.000277525
0.000113693
0.000278648
6.69382e-05
1.93577e-05
0.000278979
1.37805e-05
0.000932173
1.95068e-08
2.77582e-05
0.000919389
4.18193e-05
0.000906672
5.58613e-05
0.000894269
6.98129e-05
0.000881104
8.3607e-05
0.000866547
9.72013e-05
0.000850076
0.000110542
0.00083174
0.000123594
0.00081126
0.000136311
0.000788842
0.000148659
0.000764404
0.000160599
0.000737983
0.000172099
0.000709637
0.000183124
0.00067943
0.000193646
0.000647434
0.000203631
0.000613728
0.000213055
0.000578395
0.000221889
0.000541528
0.00023011
0.000503219
0.000237693
0.000463571
0.000244619
0.000422687
0.000250865
0.000380671
0.000256416
0.000337654
0.000261253
0.000293747
0.000265365
0.000249075
0.000268737
0.000203772
0.000271361
0.00015798
0.000273226
0.000111856
0.000274331
6.58655e-05
1.90746e-05
0.000274659
1.35658e-05
0.000918581
1.73427e-08
2.73237e-05
0.000905619
4.11638e-05
0.000892821
5.49853e-05
0.000880434
6.87181e-05
0.000867362
8.22961e-05
0.000852957
9.5678e-05
0.000836686
0.00010881
0.000818597
0.000121659
0.000798403
0.000134179
0.000776312
0.000146336
0.000752238
0.000158091
0.000726218
0.000169414
0.000698305
0.000180269
0.000668564
0.000190628
0.000637064
0.000200461
0.000603884
0.00020974
0.000569105
0.000218439
0.000532817
0.000226534
0.000495113
0.000234001
0.000456092
0.000240821
0.000415855
0.000246972
0.000374506
0.000252439
0.000332174
0.000257202
0.000288968
0.000261252
0.00024501
0.000264572
0.000200434
0.000267157
0.000155379
0.000268994
0.00011
0.000270083
6.47561e-05
1.87203e-05
0.000270406
1.33544e-05
0.000905227
1.51228e-08
2.68963e-05
0.000892095
4.05189e-05
0.000879215
5.41234e-05
0.000866845
6.7641e-05
0.000853862
8.10065e-05
0.000839605
9.41792e-05
0.000823529
0.000107107
0.000805683
0.000119756
0.00078577
0.000132081
0.000764002
0.000144049
0.000740286
0.000155623
0.000714659
0.000166771
0.000687174
0.000177459
0.000657892
0.000187659
0.000626881
0.00019734
0.000594219
0.000206477
0.000559986
0.000215043
0.000524269
0.000223014
0.00048716
0.000230367
0.000448757
0.000237083
0.000409159
0.00024314
0.000368468
0.000248524
0.000326812
0.000253214
0.000284298
0.000257203
0.000241046
0.000260473
0.000197188
0.000263019
0.00015286
0.000264828
0.000108218
0.000265902
6.37154e-05
1.84452e-05
0.000266221
1.31467e-05
0.000892058
1.3043e-08
2.64757e-05
0.000878754
3.98844e-05
0.000865796
5.32755e-05
0.000853441
6.65812e-05
0.000840547
7.97375e-05
0.000826437
9.27044e-05
0.000810555
0.00010543
0.000792947
0.000117882
0.000773311
0.000130016
0.000751858
0.000141799
0.000728495
0.000153194
0.000703255
0.000164169
0.000676189
0.000174693
0.000647358
0.000184736
0.000616829
0.000194269
0.000584676
0.000203266
0.000550978
0.0002117
0.000515823
0.00021955
0.000479299
0.00022679
0.000441504
0.000233403
0.000402534
0.000239368
0.000362489
0.00024467
0.000321498
0.000249289
0.000279663
0.000253217
0.000237104
0.000256438
0.00019395
0.000258946
0.000150337
0.000260728
0.000106417
0.000261786
6.26383e-05
1.81004e-05
0.0002621
1.29421e-05
0.000879121
1.09053e-08
2.6062e-05
0.000865652
3.92603e-05
0.000852615
5.24413e-05
0.000840276
6.55386e-05
0.000827467
7.8489e-05
0.000813501
9.12534e-05
0.000797807
0.000103781
0.000780433
0.000116039
0.000761069
0.000127984
0.000739927
0.000139585
0.000716912
0.000150803
0.000692052
0.000161609
0.0006654
0.000171971
0.000637013
0.000181859
0.000606957
0.000191246
0.000575306
0.000200105
0.000542137
0.00020841
0.000507536
0.000216139
0.000471589
0.000223269
0.000434392
0.000229782
0.000396041
0.000235655
0.000356635
0.000240876
0.000316298
0.000245426
0.000275134
0.000249294
0.000233259
0.000252466
0.000190801
0.000254936
0.000147894
0.000256692
0.000104689
0.000257734
6.16285e-05
1.7833e-05
0.000258045
1.27411e-05
0.000866362
8.91413e-09
2.5655e-05
0.000852727
3.86462e-05
0.000839613
5.16204e-05
0.000827289
6.45127e-05
0.000814566
7.72605e-05
0.000800741
8.98256e-05
0.000785234
0.000102158
0.000768091
0.000114225
0.000748993
0.000125985
0.000728158
0.000137405
0.000705483
0.00014845
0.000680998
0.00015909
0.000654751
0.000169291
0.000626801
0.000179028
0.000597211
0.00018827
0.000566053
0.000196993
0.000533404
0.000205171
0.000499346
0.000212783
0.000463967
0.000219803
0.000427359
0.000226217
0.000389617
0.000232001
0.000350837
0.000237143
0.000311144
0.000241623
0.000270638
0.000245433
0.000229435
0.000248557
0.00018766
0.00025099
0.000145445
0.000252719
0.000102941
0.000253747
6.05826e-05
1.74975e-05
0.000254052
1.25431e-05
0.000853828
6.86092e-09
2.52546e-05
0.000840033
3.8042e-05
0.000826843
5.08129e-05
0.000814534
6.35033e-05
0.000801893
7.60518e-05
0.000788207
8.84206e-05
0.000772882
0.00010056
0.000755965
0.00011244
0.00073713
0.000124017
0.000716596
0.000135261
0.000694256
0.000146135
0.00067014
0.00015661
0.000644293
0.000166654
0.000616773
0.000176241
0.000587642
0.000185341
0.00055697
0.000193931
0.000524833
0.000201983
0.000491311
0.000209479
0.000456491
0.000216392
0.000420463
0.000222708
0.000383321
0.000228404
0.00034516
0.000233467
0.000306103
0.00023788
0.000266247
0.000241632
0.000225707
0.000244709
0.000184607