/*--------------------------------*- C++ -*----------------------------------*\
  =========                 |
  \\      /  F ield         | OpenFOAM: The Open Source CFD Toolbox
   \\    /   O peration     | Website:  https://openfoam.org
    \\  /    A nd           | Version:  6.0
     \\/     M anipulation  |
\*---------------------------------------------------------------------------*/
FoamFile
{
    version     2.0;
    format      ascii;
    class       volVectorField;
    location    "4";
    object      U;
}
// * * * * * * * * * * * * * * * * * * * * * * * * * * * * * * * * * * * * * //

dimensions      [0 1 -1 0 0 0 0];

internalField   nonuniform List<vector> 
47000
(
(1.00003 0.000129048 2.61274e-20)
(1.00001 0.000414338 5.80091e-20)
(0.999979 0.00064288 -5.29337e-19)
(0.999908 0.000778374 -1.19504e-18)
(0.999794 0.000792989 1.07992e-18)
(0.999635 0.000679795 -8.27371e-19)
(0.999437 0.00044949 3.832e-18)
(0.999218 0.000128692 1.16895e-19)
(0.998993 -0.000247025 7.71065e-19)
(0.998786 -0.000641893 -6.52333e-18)
(0.998608 -0.0010254 4.42447e-18)
(0.998473 -0.00137612 1.53471e-18)
(0.998381 -0.00168294 2.30494e-18)
(0.998333 -0.00194221 2.7963e-18)
(0.998323 -0.00215801 -2.60058e-18)
(0.998347 -0.00233549 -1.24067e-18)
(0.998396 -0.00248373 -1.41389e-19)
(0.998466 -0.00260947 -1.41505e-18)
(0.998551 -0.0027219 -1.43679e-19)
(0.998646 -0.00282639 -4.00612e-19)
(0.99875 -0.00293078 -2.35338e-18)
(0.99886 -0.00304012 -8.60657e-19)
(0.998974 -0.00316267 -9.14852e-19)
(0.999093 -0.00330555 -1.37405e-19)
(0.999218 -0.00348129 5.13812e-19)
(0.999348 -0.00370684 -1.64957e-19)
(0.999489 -0.00401347 4.15341e-19)
(0.999613 -0.004468 -2.28982e-19)
(1.00012 -0.00500046 3.64999e-20)
(0.994902 -0.00786058 -2.63703e-20)
(1.00016 0.000346263 -5.84373e-20)
(1.00009 0.000768524 -1.99261e-19)
(0.99994 0.0010249 -2.62078e-21)
(0.999702 0.00105543 1.49297e-18)
(0.999382 0.000833348 -8.97879e-19)
(0.998992 0.000381922 2.83825e-18)
(0.998559 -0.000245227 -2.49875e-18)
(0.998117 -0.000976831 7.51423e-19)
(0.997697 -0.00174007 -4.83368e-18)
(0.997332 -0.00247586 -3.5408e-19)
(0.997038 -0.00314272 -8.66183e-19)
(0.996828 -0.00371944 1.60542e-18)
(0.996698 -0.00420161 -3.52787e-18)
(0.996645 -0.0045955 2.79171e-19)
(0.996656 -0.00491692 9.46049e-19)
(0.996724 -0.00518014 -4.31818e-19)
(0.996832 -0.00540308 1.97138e-18)
(0.996974 -0.00559817 -1.25255e-18)
(0.997139 -0.0057808 -2.5041e-18)
(0.997325 -0.00595926 3.00027e-18)
(0.997523 -0.00614535 9.72395e-19)
(0.997734 -0.00634603 2.44181e-19)
(0.997955 -0.00657278 6.18581e-19)
(0.998186 -0.00683396 5.97703e-19)
(0.998429 -0.00714337 -2.752e-19)
(0.998686 -0.0075156 -2.49706e-20)
(0.998959 -0.00797249 -1.74702e-19)
(0.999221 -0.00856266 -2.53703e-19)
(0.999695 -0.00901282 1.59087e-19)
(0.997315 -0.0110487 3.88729e-20)
(1.00028 0.000365103 6.59563e-20)
(1.00018 0.000624248 2.05408e-20)
(0.999997 0.000700121 -3.35782e-20)
(0.999715 0.000541286 -2.50395e-18)
(0.999351 0.000131149 3.08076e-19)
(0.998918 -0.000493012 -2.3777e-18)
(0.998447 -0.00126569 2.36572e-18)
(0.997973 -0.00210884 -2.26431e-18)
(0.997529 -0.00294703 4.5848e-18)
(0.997145 -0.00372462 3.06418e-18)
(0.996837 -0.00440507 -1.26884e-18)
(0.996617 -0.00497471 -1.01034e-18)
(0.996481 -0.00543488 5.45245e-18)
(0.996427 -0.00579807 -1.59498e-18)
(0.996441 -0.00608374 1.01941e-18)
(0.996514 -0.00630975 5.87425e-19)
(0.996633 -0.0064948 -2.0344e-18)
(0.99679 -0.00665262 2.70243e-18)
(0.996975 -0.00679777 1.50517e-18)
(0.997182 -0.00693848 -1.63078e-19)
(0.997406 -0.00708428 2.28623e-18)
(0.997645 -0.00724046 1.9363e-18)
(0.997895 -0.00741452 1.31657e-18)
(0.998159 -0.00761049 2.70378e-19)
(0.998435 -0.00783417 -3.68442e-19)
(0.998724 -0.00808915 7.1841e-20)
(0.999025 -0.0083791 -3.57777e-19)
(0.999312 -0.00872826 3.37709e-19)
(0.999626 -0.00879745 -9.83747e-20)
(0.998838 -0.00994884 -1.35022e-20)
(1.00035 0.000342947 -8.86965e-20)
(1.00026 0.000425145 4.39197e-20)
(1.00008 0.000332657 4.69493e-19)
(0.999824 2.65471e-05 1.81274e-18)
(0.999489 -0.000501931 2.18891e-19)
(0.999088 -0.00121039 3.73245e-19)
(0.998649 -0.0020326 -2.55205e-18)
(0.998201 -0.00289406 -1.84218e-19)
(0.997776 -0.00372457 -2.40632e-18)
(0.997403 -0.00447569 -8.27945e-19)
(0.997098 -0.00511676 1.21079e-18)
(0.996875 -0.00564004 -7.96542e-19)
(0.996732 -0.00605021 -2.28292e-18)
(0.996666 -0.00636295 1.27933e-18)
(0.996667 -0.00659877 7.77128e-20)
(0.996729 -0.00677689 2.6624e-18)
(0.996837 -0.00691542 -7.00389e-19)
(0.996985 -0.0070283 -1.16211e-18)
(0.997162 -0.00712889 -1.4115e-18)
(0.997364 -0.00722511 -3.64708e-18)
(0.997584 -0.00732482 -8.11506e-19)
(0.997821 -0.00743239 -1.79893e-18)
(0.998071 -0.00755333 -1.34143e-18)
(0.998333 -0.00769033 -8.90697e-19)
(0.998607 -0.00784712 9.06025e-19)
(0.998891 -0.00802622 -3.54252e-19)
(0.999177 -0.0082311 2.46989e-19)
(0.999451 -0.00848852 2.46555e-20)
(0.999659 -0.00846807 7.07937e-21)
(0.999447 -0.00947132 -2.56934e-21)
(1.00037 0.000310501 1.84792e-20)
(1.00029 0.000230034 -4.75603e-20)
(1.00013 -8.46739e-06 -6.6442e-20)
(0.999907 -0.000432069 -5.08706e-20)
(0.999612 -0.00104364 -1.02443e-18)
(0.999255 -0.00179932 3.60248e-19)
(0.99886 -0.00263605 -6.79132e-19)
(0.998451 -0.0034858 -1.30963e-18)
(0.998058 -0.00428568 2.53889e-18)
(0.997705 -0.00499481 -6.17798e-19)
(0.997412 -0.00558815 2.71988e-18)
(0.997192 -0.00606264 2.92164e-18)
(0.997044 -0.00642514 -2.44375e-18)
(0.996968 -0.0066931 -2.33212e-18)
(0.996957 -0.00688712 -3.16519e-18)
(0.997003 -0.00702688 -2.65825e-18)
(0.997096 -0.00712961 5.09206e-19)
(0.997229 -0.00720915 -6.08704e-19)
(0.997392 -0.00727788 3.42746e-18)
(0.997582 -0.00734362 8.66199e-19)
(0.997791 -0.0074133 -1.95997e-18)
(0.998017 -0.00749116 -5.34724e-19)
(0.998256 -0.0075821 3.09265e-19)
(0.998508 -0.00768906 3.06473e-19)
(0.99877 -0.00781595 -4.91263e-19)
(0.999039 -0.00796649 2.70746e-19)
(0.999306 -0.00814545 5.61891e-20)
(0.999564 -0.00837903 2.79471e-20)
(0.999716 -0.00833876 -1.69133e-20)
(0.999766 -0.00927556 -1.99888e-20)
(1.00035 0.000272234 -1.37336e-20)
(1.00027 4.46135e-05 7.06568e-20)
(1.00014 -0.000319836 -6.82035e-19)
(0.999945 -0.00083786 -3.51602e-19)
(0.999691 -0.00150806 6.94976e-19)
(0.99938 -0.00228751 2.07989e-18)
(0.999032 -0.00311846 2.49887e-18)
(0.998664 -0.00394083 2.2438e-19)
(0.998306 -0.00469988 -3.44253e-21)
(0.99798 -0.00536206 2.53969e-18)
(0.997704 -0.0059075 -2.44208e-18)
(0.99749 -0.00633678 -3.34501e-18)
(0.997342 -0.00665811 1.05186e-18)
(0.997259 -0.00688969 3.52282e-18)
(0.997237 -0.00705163 6.6016e-18)
(0.99727 -0.00716341 1.3258e-20)
(0.997348 -0.00724123 8.24643e-19)
(0.997465 -0.00729857 2.76396e-18)
(0.997614 -0.007347 -2.61078e-18)
(0.997789 -0.00739425 1.49401e-18)
(0.997984 -0.00744668 1.62798e-18)
(0.998197 -0.00750862 7.27816e-19)
(0.998424 -0.00758478 3.93985e-19)
(0.998663 -0.00767859 -8.92543e-20)
(0.998911 -0.00779424 -8.86868e-21)
(0.999165 -0.00793603 -7.05959e-21)
(0.999414 -0.00810833 -4.30654e-20)
(0.99966 -0.00833381 -9.38619e-20)
(0.999783 -0.00828345 -1.15523e-19)
(0.999957 -0.0091853 1.067e-19)
(1.00029 0.000234985 2.59028e-20)
(1.00022 -0.00011994 1.08468e-19)
(1.0001 -0.00058844 3.47035e-19)
(0.999938 -0.0011797 3.63806e-19)
(0.999723 -0.00188955 1.40507e-18)
(0.999454 -0.00267737 -1.23981e-18)
(0.999149 -0.0034917 -1.70516e-18)
(0.998823 -0.00428059 1.11728e-18)
(0.9985 -0.00499727 -2.55701e-18)
(0.998201 -0.00561483 -8.7571e-19)
(0.997944 -0.00611779 -4.57735e-18)
(0.99774 -0.00650939 2.94785e-18)
(0.997594 -0.00679855 1.41824e-18)
(0.997508 -0.00700352 2.2675e-21)
(0.997478 -0.00714352 -3.57028e-18)
(0.9975 -0.00723742 5.04834e-19)
(0.997566 -0.00730033 -8.75129e-19)
(0.99767 -0.00734525 -2.92609e-18)
(0.997805 -0.007383 2.34612e-20)
(0.997968 -0.00742119 -1.77469e-18)
(0.998151 -0.00746581 -1.37315e-18)
(0.998351 -0.00752126 -5.07886e-19)
(0.998566 -0.0075922 -3.30828e-19)
(0.998793 -0.00768233 -1.50432e-19)
(0.999028 -0.00779591 8.86357e-20)
(0.999269 -0.0079371 1.71775e-19)
(0.999504 -0.00810892 -8.83952e-20)
(0.999744 -0.00833036 -3.55417e-19)
(0.999852 -0.00827232 -9.32149e-20)
(1.0001 -0.00915531 -1.33076e-19)
(1.00019 0.000201582 7.6874e-20)
(1.00013 -0.00025966 -2.09121e-19)
(1.00003 -0.000810824 -3.35227e-19)
(0.99989 -0.0014571 -2.80301e-19)
(0.999706 -0.00219234 -4.65388e-19)
(0.999474 -0.00297896 -5.57328e-19)
(0.999208 -0.00377187 1.15108e-18)
(0.998919 -0.0045268 -2.71376e-18)
(0.99863 -0.00520431 -1.24359e-18)
(0.998358 -0.00578307 2.24476e-18)
(0.998121 -0.00625125 3.47117e-18)
(0.99793 -0.00661389 -1.56512e-18)
(0.99779 -0.00688014 -3.60575e-18)
(0.997704 -0.00706778 -1.52033e-18)
(0.997669 -0.00719496 8.36752e-20)
(0.997684 -0.0072797 6.25073e-20)
(0.997741 -0.00733599 4.23213e-19)
(0.997836 -0.00737625 -1.20862e-19)
(0.99796 -0.00741064 1.43479e-18)
(0.998112 -0.00744664 1.2049e-18)
(0.998285 -0.00748991 8.43353e-19)
(0.998476 -0.00754491 1.67529e-19)
(0.998682 -0.00761619 -1.03193e-19)
(0.998899 -0.00770758 9.64931e-20)
(0.999125 -0.00782314 1.16325e-20)
(0.999357 -0.00796651 -2.89796e-19)
(0.999582 -0.00813912 5.81552e-19)
(0.999818 -0.00835711 6.11709e-19)
(0.999921 -0.00829183 -1.97458e-19)
(1.00019 -0.00916363 8.77316e-20)
(1.00007 0.000173999 -4.05304e-21)
(1.00001 -0.00037361 7.71905e-20)
(0.999929 -0.000988267 3.96042e-19)
(0.999805 -0.0016743 -1.21518e-20)
(0.999647 -0.0024243 -5.72442e-19)
(0.999446 -0.0032039 -4.64165e-20)
(0.999213 -0.00397411 -8.24237e-19)
(0.998958 -0.00469748 1.40671e-18)
(0.9987 -0.005341 1.63771e-19)
(0.998454 -0.00588793 -2.28227e-18)
(0.998237 -0.00632933 -3.38824e-18)
(0.99806 -0.00667137 -1.6207e-18)
(0.997928 -0.00692304 2.98046e-18)
(0.997846 -0.00710135 1.9421e-18)
(0.997811 -0.00722326 -1.255e-18)
(0.997823 -0.00730579 -2.50544e-18)
(0.997874 -0.00736185 3.59146e-19)
(0.997962 -0.00740325 1.7766e-18)
(0.99808 -0.00743955 -1.40285e-18)
(0.998226 -0.00747805 5.64598e-19)
(0.998392 -0.00752413 -2.78378e-19)
(0.998576 -0.00758226 -1.78539e-20)
(0.998775 -0.00765685 8.96673e-20)
(0.998987 -0.00775173 -1.16881e-21)
(0.999206 -0.00787064 8.26743e-20)
(0.999431 -0.00801655 4.04542e-19)
(0.99965 -0.00818945 2.70672e-19)
(0.999887 -0.00840357 3.68475e-20)
(0.999988 -0.00833074 -6.66061e-20)
(1.00028 -0.00919444 6.99137e-20)
(0.99993 0.000152348 -1.98058e-20)
(0.999877 -0.00046348 3.76158e-20)
(0.999799 -0.0011252 -1.10773e-19)
(0.999691 -0.00183864 -5.38517e-20)
(0.999553 -0.00259559 -4.88388e-19)
(0.999377 -0.00336484 -1.22512e-19)
(0.999174 -0.00411295 1.14591e-19)
(0.998948 -0.0048084 -7.59003e-19)
(0.998718 -0.00542361 -4.78995e-19)
(0.998497 -0.00594557 3.31085e-19)
(0.9983 -0.00636752 8.82026e-19)
(0.998138 -0.00669623 1.62888e-18)
(0.998017 -0.00694031 6.20893e-20)
(0.99794 -0.00711576 -3.55578e-18)
(0.997909 -0.00723832 -3.9347e-19)
(0.99792 -0.00732395 6.13285e-19)
(0.997971 -0.00738455 9.9021e-19)
(0.998056 -0.00743127 -2.20402e-19)
(0.998171 -0.00747315 4.92478e-19)
(0.998312 -0.00751727 2.42343e-19)
(0.998475 -0.00756879 2.48588e-19)
(0.998656 -0.00763212 7.05341e-20)
(0.998851 -0.00771155 1.68381e-19)
(0.999059 -0.00781082 -2.38428e-19)
(0.999275 -0.00793332 3.88324e-19)
(0.999496 -0.00808139 -1.04038e-18)
(0.999713 -0.00825383 3.53972e-19)
(0.999952 -0.00846377 -7.31364e-20)
(1.00006 -0.00838351 4.50388e-19)
(1.00035 -0.00924126 -6.139e-20)
(0.999772 0.000136529 -5.20301e-20)
(0.999721 -0.000531629 -2.33762e-20)
(0.99965 -0.00122686 -2.10651e-21)
(0.999553 -0.0019579 2.28115e-19)
(0.999432 -0.00271614 7.05687e-19)
(0.999277 -0.00347335 9.94958e-19)
(0.999098 -0.00420096 9.48159e-19)
(0.998897 -0.00487247 1.48266e-19)
(0.998693 -0.00546489 1.40111e-18)
(0.998495 -0.00596804 -3.71036e-19)
(0.998318 -0.00637685 8.47808e-20)
(0.998172 -0.00669828 1.86065e-18)
(0.998064 -0.00694037 1.92002e-18)
(0.997996 -0.00711799 7.22088e-19)
(0.99797 -0.0072457 1.30404e-18)
(0.997985 -0.00733837 3.81978e-19)
(0.998036 -0.00740694 -6.6006e-19)
(0.998122 -0.00746191 6.19738e-19)
(0.998236 -0.00751184 -2.82128e-20)
(0.998377 -0.0075636 -5.96467e-19)
(0.998539 -0.00762213 5.89114e-21)
(0.998719 -0.00769178 -1.83961e-20)
(0.998913 -0.0077767 1.14992e-19)
(0.99912 -0.00788055 4.98996e-19)
(0.999335 -0.00800636 -1.34503e-19)
(0.999556 -0.00815594 1.02621e-18)
(0.999772 -0.00832721 -5.52899e-19)
(1.00002 -0.00853274 4.95952e-19)
(1.00012 -0.00844497 1.89707e-19)
(1.00042 -0.00929721 -7.18995e-21)
(0.999603 0.0001255 2.7849e-20)
(0.999552 -0.000581381 -3.54671e-20)
(0.999486 -0.00129909 1.21595e-19)
(0.999398 -0.00204017 -1.46014e-19)
(0.999289 -0.00279573 -5.92473e-19)
(0.999152 -0.00354026 -3.96283e-19)
(0.998993 -0.0042494 -1.72936e-18)
(0.998815 -0.00490083 1.05472e-18)
(0.998633 -0.00547535 -2.80614e-19)
(0.998458 -0.00596497 1.50588e-19)
(0.998301 -0.00636584 3.90159e-19)
(0.998171 -0.0066848 -2.39121e-18)
(0.998076 -0.00692922 -1.74827e-18)
(0.998019 -0.00711282 1.63894e-18)
(0.998001 -0.00724899 2.60861e-19)
(0.998021 -0.00735153 5.43023e-19)
(0.998077 -0.00743048 -6.26218e-19)
(0.998166 -0.00749571 -3.43987e-19)
(0.998282 -0.00755535 -1.33126e-19)
(0.998425 -0.00761603 1.21529e-19)
(0.998588 -0.00768252 2.13914e-19)
(0.99877 -0.0077591 2.4294e-19)
(0.998965 -0.0078498 -3.10022e-19)
(0.999173 -0.00795816 -1.35671e-19)
(0.999389 -0.00808695 -3.69358e-19)
(0.99961 -0.00823753 -1.86459e-19)
(0.999828 -0.00840722 -1.74229e-19)
(1.00008 -0.00860842 -1.14222e-18)
(1.00019 -0.00851349 4.34157e-19)
(1.00048 -0.00936121 1.93499e-19)
(0.999425 0.000118648 -9.45989e-21)
(0.999374 -0.000615526 9.90746e-20)
(0.999312 -0.00134711 5.39298e-20)
(0.99923 -0.00209247 -1.26906e-20)
(0.999132 -0.00284264 1.37497e-20)
(0.999008 -0.00357452 3.48732e-19)
(0.998867 -0.00426734 6.9386e-19)
(0.998709 -0.00490222 -5.72853e-19)
(0.998548 -0.00546308 -7.50449e-19)
(0.998393 -0.00594355 -2.20244e-19)
(0.998255 -0.00634065 -7.12322e-20)
(0.998143 -0.00666089 1.20857e-18)
(0.998062 -0.00691094 -1.85816e-18)
(0.998017 -0.00710332 -3.22974e-19)
(0.998008 -0.00725031 -1.26619e-19)
(0.998037 -0.00736469 2.2557e-19)
(0.998099 -0.00745566 4.42178e-19)
(0.998192 -0.00753248 2.34139e-19)
(0.998313 -0.00760287 -1.50205e-19)
(0.99846 -0.00767326 6.26372e-21)
(0.998626 -0.00774823 -3.50523e-19)
(0.998811 -0.00783201 -4.03454e-19)
(0.999009 -0.0079285 -2.69405e-20)
(0.99922 -0.00804118 -2.09361e-19)
(0.999438 -0.00817257 -1.03391e-18)
(0.999663 -0.00832371 -8.7988e-19)
(0.999883 -0.0084915 -1.76846e-18)
(1.00014 -0.00868842 6.10683e-20)
(1.00026 -0.0085864 -6.6826e-19)
(1.00055 -0.00942934 -1.65523e-19)
(0.999241 0.00011488 -6.80538e-21)
(0.999189 -0.000637158 -5.26295e-20)
(0.999129 -0.00137589 -1.10934e-19)
(0.999052 -0.00212128 3.62232e-21)
(0.998962 -0.00286435 2.62603e-19)
(0.998851 -0.00358403 -1.36275e-20)
(0.998725 -0.00426264 7.40318e-21)
(0.998585 -0.00488408 2.88158e-19)
(0.998443 -0.00543481 4.64983e-19)
(0.998307 -0.00590966 3.07904e-19)
(0.998188 -0.00630626 2.92269e-19)
(0.998093 -0.00663064 -1.56667e-19)
(0.998027 -0.00688872 7.43092e-19)
(0.997994 -0.00709187 1.5854e-19)
(0.997996 -0.00725134 3.89745e-19)
(0.998034 -0.00737889 -1.66865e-19)
(0.998104 -0.00748296 -1.09919e-19)
(0.998205 -0.00757223 -2.05555e-19)
(0.998332 -0.00765404 2.24588e-19)
(0.998484 -0.0077346 1.7513e-20)
(0.998656 -0.00781836 -2.79508e-19)
(0.998845 -0.00790945 5.74777e-19)
(0.999048 -0.0080117 2.50394e-19)
(0.999262 -0.00812852 4.69065e-19)
(0.999485 -0.00826226 9.40178e-19)
(0.999713 -0.00841372 3.86858e-19)
(0.999938 -0.00857954 2.99553e-18)
(1.0002 -0.00877245 1.38084e-18)
(1.00033 -0.00866371 2.06918e-19)
(1.0006 -0.00950259 -2.63694e-19)
(0.999053 0.000113673 1.57951e-21)
(0.999 -0.000648553 -4.91644e-21)
(0.998942 -0.00138941 -1.02549e-21)
(0.998869 -0.00213177 -7.33581e-20)
(0.998786 -0.0028667 -1.3471e-20)
(0.998685 -0.0035749 -1.8384e-19)
(0.998572 -0.00424125 1.0969e-19)
(0.998448 -0.00485195 1.69751e-19)
(0.998323 -0.00539549 -3.31006e-19)
(0.998206 -0.00586757 1.45652e-19)
(0.998104 -0.00626619 2.38101e-19)
(0.998025 -0.00659684 -3.38563e-19)
(0.997975 -0.0068647 6.90845e-19)
(0.997956 -0.00708002 -8.03312e-20)
(0.99797 -0.00725306 -2.3339e-19)
(0.998018 -0.00739464 1.9694e-20)
(0.998098 -0.00751249 -2.89107e-20)
(0.998206 -0.00761472 -2.44089e-20)
(0.998341 -0.00770832 -4.01684e-19)
(0.9985 -0.00779929 6.57589e-20)
(0.998678 -0.00789194 9.79028e-19)
(0.998873 -0.00799034 -1.018e-18)
(0.999082 -0.00809824 -1.23857e-18)
(0.999302 -0.00821898 -4.90969e-19)
(0.999529 -0.00835482 7.75547e-19)
(0.999763 -0.00850637 9.81055e-21)
(0.999993 -0.00867013 -2.65505e-18)
(1.00027 -0.00885915 -2.0133e-18)
(1.0004 -0.00874374 2.07229e-19)
(1.00066 -0.00957802 2.72419e-19)
(0.998863 0.000114149 -3.4777e-22)
(0.998808 -0.000652157 -1.84285e-20)
(0.998752 -0.00139129 1.86312e-20)
(0.998682 -0.0021285 3.91325e-20)
(0.998604 -0.00285479 -3.68263e-20)
(0.998512 -0.00355238 -3.31966e-19)
(0.998411 -0.00420828 6.31828e-20)
(0.998301 -0.00481051 -3.41381e-19)
(0.998193 -0.00534927 -5.14977e-20)
(0.998092 -0.0058208 -2.38569e-19)
(0.998007 -0.00622339 -5.47181e-19)
(0.997945 -0.00656188 -1.78716e-19)
(0.99791 -0.00684074 -2.89533e-20)
(0.997905 -0.00706915 -5.35959e-20)
(0.997932 -0.00725646 2.53298e-19)
(0.997991 -0.00741261 1.7211e-19)
(0.998081 -0.00754461 -1.09372e-19)
(0.998199 -0.00766008 -3.99056e-19)
(0.998342 -0.00776566 6.71764e-20)
(0.998509 -0.00786716 -8.40946e-19)
(0.998695 -0.00796874 -3.53392e-19)
(0.998897 -0.00807442 -6.89733e-19)
(0.999112 -0.00818786 1.35906e-18)
(0.999339 -0.0083124 -3.08867e-19)
(0.999572 -0.00845018 -1.43991e-19)
(0.999812 -0.00860174 1.47852e-18)
(1.00005 -0.00876352 6.93762e-19)
(1.00033 -0.0089489 3.81034e-19)
(1.00047 -0.00882712 -4.33041e-19)
(1.00072 -0.00965742 3.16999e-20)
(0.998671 0.000116021 1.45399e-20)
(0.998615 -0.000649514 7.53287e-21)
(0.99856 -0.00138422 -7.44386e-20)
(0.998493 -0.00211486 7.24459e-20)
(0.99842 -0.00283239 8.39718e-21)
(0.998335 -0.00352029 1.54977e-20)
(0.998244 -0.00416734 -5.043e-20)
(0.998147 -0.00476306 2.39539e-19)
(0.998054 -0.00529901 2.88987e-19)
(0.997969 -0.00577178 7.26878e-20)
(0.997901 -0.00617981 2.24518e-19)
(0.997855 -0.00652729 -8.49075e-20)
(0.997835 -0.00681799 -1.06985e-19)
(0.997844 -0.00706009 1.00937e-19)
(0.997884 -0.00726208 1.14235e-20)
(0.997956 -0.00743305 -3.03769e-19)
(0.998056 -0.0075794 1.54967e-19)
(0.998185 -0.00770821 6.6499e-19)
(0.998337 -0.00782583 -2.60584e-19)
(0.998513 -0.00793785 1.67341e-18)
(0.998708 -0.00804832 -5.18677e-21)
(0.998918 -0.00816117 1.99956e-18)
(0.99914 -0.00828002 -1.97626e-18)
(0.999374 -0.00840818 1.17679e-18)
(0.999614 -0.00854775 5.11329e-19)
(0.999861 -0.0086992 -6.71283e-19)
(1.0001 -0.00885896 3.51842e-19)
(1.00039 -0.00904076 1.48455e-18)
(1.00054 -0.00891255 -1.90992e-19)
(1.00078 -0.00973818 -6.0808e-20)
(0.99848 0.000118671 -9.05868e-21)
(0.998422 -0.000642376 4.9061e-20)
(0.998368 -0.00137061 -3.85886e-20)
(0.998303 -0.00209381 -2.03246e-19)
(0.998234 -0.00280275 -1.1298e-19)
(0.998155 -0.00348191 -6.80932e-20)
(0.998074 -0.00412158 -8.82545e-20)
(0.997989 -0.00471245 1.50451e-20)
(0.99791 -0.00524719 -9.03059e-21)
(0.99784 -0.0057226 3.64613e-20)
(0.997787 -0.00613718 3.27295e-20)
(0.997757 -0.00649446 1.83603e-19)
(0.997752 -0.00679757 -1.2987e-19)
(0.997775 -0.0070537 -3.18403e-19)
(0.997828 -0.00727058 1.05452e-19)
(0.997912 -0.00745648 -1.50081e-19)
(0.998025 -0.00761721 2.02431e-19)
(0.998164 -0.00775938 -6.67507e-19)
(0.998327 -0.00788902 6.5125e-19)
(0.998513 -0.00801151 -8.7566e-19)
(0.998716 -0.00813081 3.41632e-19)
(0.998935 -0.00825074 2.90582e-19)
(0.999166 -0.0083749 4.45895e-19)
(0.999408 -0.00850658 -8.86822e-19)
(0.999656 -0.00864785 -7.12582e-19)
(0.999909 -0.00879916 -8.17455e-19)
(1.00016 -0.00895699 4.76723e-19)
(1.00046 -0.0091354 -9.11387e-19)
(1.00062 -0.00900098 -3.85799e-19)
(1.00084 -0.0098225 -8.66959e-20)
(0.998289 0.000122015 2.31276e-20)
(0.99823 -0.000631652 7.01245e-20)
(0.998177 -0.00135213 3.49386e-20)
(0.998113 -0.00206743 1.51334e-19)
(0.998047 -0.0027681 -5.32604e-20)
(0.997975 -0.00343947 -2.81795e-19)
(0.997902 -0.00407305 1.67445e-19)
(0.997828 -0.00466048 -1.35037e-20)
(0.997761 -0.00519534 -4.05111e-20)
(0.997706 -0.00567451 -1.09004e-19)
(0.997668 -0.00609649 -6.25874e-20)
(0.997652 -0.00646416 2.11517e-19)
(0.997662 -0.00678004 -1.7146e-19)
(0.997699 -0.00705038 5.78053e-19)
(0.997766 -0.00728222 -8.64769e-19)
(0.997863 -0.00748304 3.63456e-19)
(0.997988 -0.00765811 4.21566e-20)
(0.998139 -0.00781355 3.7428e-19)
(0.998313 -0.00795512 -6.9373e-19)
(0.998509 -0.008088 1.04036e-18)
(0.998722 -0.008216 1.03001e-18)
(0.998951 -0.0083429 -6.32839e-19)
(0.999191 -0.00847222 2.27612e-18)
(0.999441 -0.00860727 1.71436e-18)
(0.999697 -0.00875011 -7.51535e-19)
(0.999959 -0.00890119 1.59194e-18)
(1.00022 -0.00905704 7.08665e-19)
(1.00053 -0.00923204 -1.89484e-19)
(1.00069 -0.00909126 7.19973e-21)
(1.0009 -0.00990787 4.16628e-19)
(0.998099 0.000125632 -3.80553e-22)
(0.998039 -0.000618555 -1.12328e-19)
(0.997987 -0.00133029 2.49279e-19)
(0.997924 -0.00203754 -2.68878e-19)
(0.997861 -0.00273042 1.83235e-20)
(0.997794 -0.00339492 4.05226e-19)
(0.997729 -0.00402358 -1.47704e-19)
(0.997665 -0.00460879 1.18661e-19)
(0.99761 -0.00514488 1.42452e-19)
(0.997567 -0.00562871 5.94873e-20)
(0.997544 -0.00605875 -1.45764e-19)
(0.997542 -0.00643722 -4.79787e-19)
(0.997567 -0.00676608 2.58652e-19)
(0.997618 -0.00705071 -4.04677e-19)
(0.997699 -0.00729748 9.44962e-19)
(0.997809 -0.00751314 5.86592e-19)
(0.997946 -0.00770245 -8.90976e-19)
(0.998109 -0.00787105 -8.85366e-19)
(0.998294 -0.00802444 4.89619e-19)
(0.998501 -0.00816759 -2.58457e-18)
(0.998725 -0.0083042 -2.85201e-18)
(0.998964 -0.00843795 1.62436e-18)
(0.999213 -0.00857234 -2.11232e-18)
(0.999473 -0.00871066 -7.8085e-19)
(0.999738 -0.008855 1.85248e-18)
(1.00001 -0.00900583 -1.32135e-18)
(1.00027 -0.00915975 -2.70529e-18)
(1.00059 -0.00933145 -6.01204e-19)
(1.00077 -0.00918443 3.43174e-19)
(1.00096 -0.00999667 -3.00241e-19)
(0.99791 0.000129571 -8.06937e-20)
(0.997849 -0.000603521 -2.29782e-20)
(0.997798 -0.00130606 -2.016e-19)
(0.997736 -0.0020053 2.55193e-19)
(0.997676 -0.00269093 -2.33798e-19)
(0.997614 -0.00334945 1.16656e-19)
(0.997555 -0.00397423 -4.48113e-19)
(0.9975 -0.00455828 1.80349e-19)
(0.997456 -0.00509654 2.57551e-19)
(0.997426 -0.00558576 2.22924e-19)
(0.997416 -0.00602437 7.40829e-19)
(0.997429 -0.00641395 -2.98736e-19)
(0.997467 -0.00675591 -2.34995e-19)
(0.997532 -0.00705484 -3.45843e-19)
(0.997627 -0.00731645 2.21649e-19)
(0.99775 -0.00754684 -4.84489e-19)
(0.9979 -0.00775023 1.37926e-18)
(0.998075 -0.00793185 1.66152e-18)
(0.998273 -0.00809693 -4.5817e-20)
(0.998491 -0.00825021 1.96383e-18)
(0.998726 -0.00839528 -2.4926e-19)
(0.998975 -0.00853575 -1.36516e-18)
(0.999235 -0.00867506 1.09402e-18)
(0.999504 -0.00881652 -2.56465e-20)
(0.999779 -0.00896223 -7.9614e-19)
(1.00006 -0.0091127 4.95995e-19)
(1.00033 -0.0092646 3.0616e-18)
(1.00066 -0.00943289 1.55665e-18)
(1.00084 -0.0092794 -5.0311e-19)
(1.00103 -0.0100864 -3.7542e-19)
(0.997724 0.000133541 6.51065e-20)
(0.997662 -0.000587386 -8.53858e-20)
(0.997611 -0.00128037 1.09275e-19)
(0.99755 -0.00197181 -2.48528e-19)
(0.997492 -0.00265079 1.98745e-19)
(0.997434 -0.00330419 2.36862e-19)
(0.997382 -0.00392605 5.61225e-19)
(0.997335 -0.00450987 -7.2117e-19)
(0.997301 -0.00505109 -9.788e-19)
(0.997283 -0.00554633 -2.0277e-19)
(0.997285 -0.00599391 -3.63257e-20)
(0.997311 -0.00639483 7.01666e-20)
(0.997363 -0.00674997 -2.89614e-19)
(0.997443 -0.00706315 -4.11619e-21)
(0.99755 -0.00733951 -1.0702e-18)
(0.997687 -0.00758447 -4.42827e-19)
(0.99785 -0.0078018 -6.23381e-19)
(0.998038 -0.00799629 -2.3517e-20)
(0.998248 -0.00817291 -1.82137e-18)
(0.998478 -0.0083362 -1.07813e-18)
(0.998725 -0.00848962 1.64468e-18)
(0.998985 -0.0086367 1.5067e-18)
(0.999256 -0.00878082 -1.0521e-18)
(0.999535 -0.00892533 -1.57515e-19)
(0.99982 -0.00907234 -1.65116e-19)
(1.00011 -0.00922241 2.24396e-19)
(1.00039 -0.0093723 -1.82112e-18)
(1.00073 -0.00953721 -8.34105e-19)
(1.00092 -0.00937732 2.32018e-18)
(1.00109 -0.0101796 3.33561e-20)
(0.99754 0.000137669 -3.66795e-20)
(0.997476 -0.000570266 -5.39209e-20)
(0.997426 -0.00125369 -2.80073e-19)
(0.997366 -0.00193767 1.08728e-19)
(0.997309 -0.0026106 5.03607e-19)
(0.997255 -0.00325967 4.37023e-20)
(0.997208 -0.00387949 9.09018e-19)
(0.997169 -0.00446391 -3.35641e-19)
(0.997145 -0.0050088 8.78673e-19)
(0.997138 -0.00551057 3.47002e-19)
(0.997152 -0.00596748 3.60775e-19)
(0.997191 -0.00637991 -4.10974e-19)
(0.997256 -0.00674827 1.52192e-19)
(0.997349 -0.00707564 -1.06987e-19)
(0.997471 -0.00736662 2.25767e-19)
(0.997621 -0.00762601 1.4134e-18)
(0.997797 -0.00785713 9.34316e-20)
(0.997998 -0.00806433 -1.08626e-18)
(0.99822 -0.00825235 1.19364e-18)
(0.998463 -0.0084255 -1.10584e-18)
(0.998722 -0.00858713 2.71427e-18)
(0.998994 -0.00874067 -1.4226e-18)
(0.999276 -0.00888947 2.32975e-18)
(0.999566 -0.00903688 -7.70439e-19)
(0.999861 -0.00918504 7.65122e-19)
(1.00016 -0.00933458 1.6773e-20)
(1.00045 -0.00948232 1.20386e-18)
(1.0008 -0.00964368 1.23739e-18)
(1.001 -0.0094771 -1.15774e-18)
(1.00116 -0.0102737 -1.48191e-19)
(0.997358 0.000141741 1.14889e-19)
(0.997293 -0.000552757 4.11909e-19)
(0.997243 -0.00122658 3.23345e-19)
(0.997183 -0.00190349 -1.65871e-19)
(0.997128 -0.00257102 -1.4216e-19)
(0.997076 -0.00321654 -9.30612e-19)
(0.997035 -0.00383511 -1.51489e-18)
(0.997003 -0.00442089 1.7802e-18)
(0.996988 -0.00497007 -2.47579e-19)
(0.996991 -0.00547886 3.18494e-19)
(0.997017 -0.00594539 -1.82343e-18)
(0.997068 -0.00636947 6.61775e-19)
(0.997146 -0.00675108 1.25939e-19)
(0.997252 -0.00709259 -2.06806e-19)
(0.997387 -0.00739808 1.90326e-18)
(0.997551 -0.00767177 -4.63162e-19)
(0.997741 -0.00791652 -4.74977e-19)
(0.997955 -0.00813629 -4.12112e-19)
(0.99819 -0.00833557 -6.36656e-19)
(0.998446 -0.00851846 5.44082e-19)
(0.998717 -0.00868818 -6.07093e-19)
(0.999002 -0.00884808 1.57955e-18)
(0.999295 -0.00900145 -2.13965e-18)
(0.999597 -0.00915166 -2.0608e-18)
(0.999902 -0.00930091 -2.78492e-18)
(1.00021 -0.00944985 1.95398e-19)
(1.00051 -0.00959539 -4.14731e-19)
(1.00088 -0.00975317 -8.6503e-20)
(1.00109 -0.00957991 4.9576e-19)
(1.00122 -0.0103714 3.32307e-19)
(0.997178 0.000145922 -1.01475e-19)
(0.997112 -0.00053477 -2.73073e-19)
(0.997062 -0.00119926 5.93678e-20)
(0.997002 -0.00186953 -1.49078e-19)
(0.996948 -0.00253228 6.00651e-20)
(0.996899 -0.00317497 6.94678e-19)
(0.996862 -0.00379303 -6.5603e-20)
(0.996837 -0.00438084 -6.7973e-19)
(0.996829 -0.00493489 -1.17992e-18)
(0.996842 -0.00545111 -2.01815e-18)
(0.996879 -0.00592754 -8.87415e-19)
(0.996942 -0.00636342 -7.54602e-19)
(0.997033 -0.00675831 6.78157e-19)
(0.997153 -0.0071139 1.20598e-18)
(0.997301 -0.00743381 -3.22278e-18)
(0.997478 -0.00772165 -1.64207e-18)
(0.997682 -0.0079799 3.26866e-18)
(0.997909 -0.0082121 1.81636e-18)
(0.998158 -0.00842251 3.42842e-18)
(0.998427 -0.008615 1.50983e-18)
(0.998711 -0.00879269 -1.7023e-18)
(0.999008 -0.00895881 -2.95878e-18)
(0.999314 -0.0091166 4.59443e-18)
(0.999627 -0.00926947 7.95499e-19)
(0.999945 -0.00941963 2.51521e-18)
(1.00027 -0.00956781 -8.17167e-19)
(1.00058 -0.00971097 1.8026e-18)
(1.00095 -0.00986493 1.76341e-18)
(1.00117 -0.00968464 -5.97583e-19)
(1.00129 -0.01047 2.31179e-19)
(0.997001 0.000150041 -2.12821e-20)
(0.996933 -0.000516757 -2.47809e-19)
(0.996883 -0.00117202 -2.82695e-19)
(0.996822 -0.00183613 4.75901e-19)
(0.996769 -0.00249473 -2.91685e-19)
(0.996723 -0.00313529 -4.59031e-19)
(0.99669 -0.00375355 6.33842e-19)
(0.99667 -0.00434403 -6.6421e-19)
(0.996671 -0.00490349 -3.0172e-19)
(0.996692 -0.00542753 2.53126e-18)
(0.99674 -0.00591413 8.46808e-19)
(0.996815 -0.00636195 1.24929e-18)
(0.996918 -0.00677015 -1.61538e-19)
(0.99705 -0.00713979 -1.01151e-18)
(0.997212 -0.00747403 1.84949e-18)
(0.997403 -0.00777594 8.91525e-19)
(0.99762 -0.00804758 -2.98778e-18)
(0.997861 -0.0082921 -3.38962e-18)
(0.998124 -0.00851352 -3.3381e-19)
(0.998406 -0.00871552 -2.8448e-18)
(0.998704 -0.00890106 1.6315e-18)
(0.999014 -0.00907329 -1.82645e-19)
(0.999332 -0.00923541 -6.93636e-18)
(0.999658 -0.00939083 2.578e-18)
(0.999987 -0.00954181 6.72213e-19)
(1.00032 -0.00968912 1.12519e-18)
(1.00064 -0.00982982 3.97769e-19)
(1.00103 -0.00997989 -4.4916e-18)
(1.00126 -0.00979255 -8.30104e-19)
(1.00136 -0.0105722 -4.35347e-19)
(0.996826 0.000154278 3.73026e-20)
(0.996757 -0.000498501 3.64313e-19)
(0.996705 -0.00114492 -2.15795e-21)
(0.996645 -0.00180336 2.11817e-19)
(0.996592 -0.00245839 2.31983e-19)
(0.996548 -0.00309748 6.52591e-19)
(0.996518 -0.00371658 1.13493e-19)
(0.996504 -0.00431033 1.20015e-18)
(0.996511 -0.00487568 1.97658e-18)
(0.996541 -0.00540793 -1.52805e-18)
(0.996599 -0.00590495 3.3351e-18)
(0.996685 -0.00636486 -3.85239e-19)
(0.9968 -0.00678643 -3.69092e-19)
(0.996945 -0.00717012 -1.03914e-18)
(0.99712 -0.00751864 7.99154e-19)
(0.997324 -0.00783453 3.45427e-19)
(0.997555 -0.00811945 -4.35527e-19)
(0.99781 -0.00837618 3.62682e-18)
(0.998087 -0.00860852 -2.47062e-18)
(0.998384 -0.0088199 1.39703e-19)
(0.998695 -0.00901318 -1.02755e-18)
(0.999019 -0.00919139 -3.14285e-18)
(0.999351 -0.00935769 4.78353e-18)
(0.999689 -0.0095155 -1.35717e-19)
(1.00003 -0.00966712 -8.30043e-19)
(1.00037 -0.00981339 1.12875e-18)
(1.00071 -0.00995139 -4.65388e-18)
(1.00111 -0.0100973 -1.11984e-19)
(1.00134 -0.00990249 7.74057e-19)
(1.00144 -0.0106755 2.40993e-19)
(0.996653 0.000158486 1.07675e-19)
(0.996582 -0.000480371 -2.87724e-21)
(0.99653 -0.00111814 -2.38795e-19)
(0.996468 -0.00177138 1.59956e-19)
(0.996416 -0.00242346 6.68645e-20)
(0.996373 -0.00306171 5.26321e-19)
(0.996347 -0.00368227 -6.5039e-19)
(0.996337 -0.00427987 -6.27634e-19)
(0.996351 -0.00485159 9.19453e-19)
(0.996389 -0.00539243 -7.24194e-19)
(0.996456 -0.00590014 -4.97234e-18)
(0.996552 -0.0063723 -1.19658e-18)
(0.996679 -0.00680733 2.86937e-18)
(0.996837 -0.00720507 6.95807e-19)
(0.997025 -0.00756785 -1.77358e-18)
(0.997243 -0.00789766 -6.22653e-19)
(0.997488 -0.00819581 -2.11086e-18)
(0.997758 -0.00846468 -2.75555e-18)
(0.998049 -0.00870784 -2.29981e-18)
(0.99836 -0.00892852 2.26615e-18)
(0.998685 -0.00912945 3.21401e-18)
(0.999023 -0.00931355 4.36053e-18)
(0.999368 -0.00948393 -2.85582e-19)
(0.99972 -0.00964401 -2.26006e-18)
(1.00007 -0.00979616 -2.68277e-18)
(1.00043 -0.00994125 -3.11338e-20)