/*--------------------------------*- C++ -*----------------------------------*\
  =========                 |
  \\      /  F ield         | OpenFOAM: The Open Source CFD Toolbox
   \\    /   O peration     | Website:  https://openfoam.org
    \\  /    A nd           | Version:  6.0
     \\/     M anipulation  |
\*---------------------------------------------------------------------------*/
FoamFile
{
    version     2.0;
    format      ascii;
    class       volScalarField;
    location    "6";
    object      p;
}
// * * * * * * * * * * * * * * * * * * * * * * * * * * * * * * * * * * * * * //

dimensions      [0 2 -2 0 0 0 0];

internalField   nonuniform List<scalar> 
62000
(
0.0317464
0.0317606
0.0317701
0.0317755
0.0317772
0.031776
0.0317722
0.0317665
0.0317595
0.0317513
0.0317434
0.0317348
0.0317279
0.0317205
0.0317161
0.0317112
0.0317097
0.0317073
0.0317084
0.0317075
0.0317093
0.0317072
0.0317058
0.0316969
0.0316833
0.0316507
0.0315997
0.0315177
0.0314067
0.0312546
0.0310648
0.0308286
0.0305455
0.0302053
0.0298001
0.0293414
0.0288545
0.0283735
0.0279441
0.0276255
0.0274916
0.0276268
0.0281168
0.0290324
0.0304059
0.0322096
0.0343237
0.0365355
0.0385445
0.0399914
0.0405735
0.0400217
0.0383079
0.0354453
0.0317373
0.0274341
0.022937
0.0184297
0.0143663
0.0120591
0.0318022
0.0318097
0.0318137
0.0318141
0.0318115
0.0318064
0.0317993
0.0317908
0.0317816
0.0317719
0.031763
0.0317541
0.0317475
0.031741
0.0317377
0.0317344
0.0317346
0.0317342
0.0317368
0.0317379
0.0317411
0.0317411
0.0317414
0.0317361
0.0317258
0.0316982
0.0316496
0.031571
0.0314606
0.0313113
0.0311212
0.0308873
0.0306057
0.0302637
0.0298557
0.0293911
0.0288955
0.0284032
0.0279592
0.0276237
0.0274737
0.0275992
0.0280965
0.0290519
0.0305198
0.0324996
0.0349003
0.0375348
0.0401133
0.0422659
0.0436501
0.0439214
0.0429678
0.0406844
0.0372931
0.0329665
0.0280966
0.0228355
0.0181201
0.013759
0.0317877
0.0317737
0.0317615
0.0317498
0.031739
0.0317291
0.0317203
0.0317126
0.0317068
0.0317023
0.0317004
0.0317
0.031703
0.0317071
0.0317152
0.0317237
0.031736
0.0317478
0.0317625
0.0317753
0.0317895
0.0317998
0.0318094
0.0318127
0.0318097
0.0317873
0.0317399
0.0316587
0.0315402
0.0313776
0.0311666
0.0309044
0.030583
0.0301897
0.0297121
0.0291583
0.0285491
0.0279132
0.0272894
0.0267312
0.0263097
0.0261115
0.0262324
0.0267643
0.027775
0.0292867
0.0312407
0.0334883
0.0357785
0.0377714
0.039136
0.0395145
0.0387581
0.0366971
0.0335053
0.0293
0.0244887
0.019259
0.0148454
0.00965282
0.0317448
0.0317136
0.031689
0.0316691
0.0316538
0.0316428
0.031636
0.031633
0.0316341
0.0316385
0.0316474
0.0316591
0.0316756
0.0316941
0.0317173
0.0317413
0.0317695
0.0317969
0.0318271
0.0318546
0.0318826
0.0319056
0.0319261
0.0319387
0.0319428
0.0319249
0.0318784
0.031794
0.0316672
0.0314903
0.0312569
0.0309629
0.0305995
0.0301478
0.0295965
0.0289473
0.0282163
0.0274254
0.0266054
0.0258011
0.0250746
0.0245048
0.0241824
0.0241989
0.0246292
0.0255129
0.0268197
0.0284408
0.0301694
0.0317115
0.0327674
0.032994
0.0322369
0.0302936
0.0273006
0.0233553
0.0188817
0.0141503
0.0104221
0.00575642
0.0317577
0.0317205
0.0316913
0.0316687
0.0316524
0.0316424
0.0316387
0.0316406
0.0316485
0.0316615
0.0316803
0.0317032
0.0317318
0.0317631
0.0317997
0.0318374
0.0318793
0.0319205
0.0319641
0.0320046
0.0320448
0.0320788
0.032109
0.0321297
0.0321399
0.0321262
0.0320815
0.0319966
0.0318661
0.0316817
0.0314356
0.0311227
0.0307314
0.0302453
0.0296468
0.0289371
0.0281272
0.0272326
0.0262765
0.0252952
0.0243419
0.023486
0.022811
0.0224037
0.0223411
0.0226727
0.0233899
0.0244158
0.0255845
0.0266459
0.0273371
0.0273408
0.0265067
0.0246237
0.0218082
0.0181481
0.0140803
0.00995449
0.00689852
0.00313115
0.0318602
0.0318235
0.0317951
0.0317737
0.0317595
0.0317522
0.031752
0.0317583
0.0317717
0.0317911
0.0318175
0.0318489
0.0318871
0.0319288
0.0319766
0.032026
0.0320798
0.0321331
0.0321884
0.0322402
0.0322909
0.0323344
0.0323729
0.0324004
0.0324159
0.0324064
0.0323649
0.0322823
0.0321533
0.0319689
0.0317206
0.0314024
0.0310042
0.0305048
0.0298907
0.0291585
0.0283162
0.0273744
0.0263498
0.0252714
0.0241831
0.0231454
0.0222325
0.0215242
0.0210944
0.0209969
0.0212365
0.0217608
0.0224364
0.0230536
0.0233844
0.0231417
0.0221895
0.0203202
0.01763
0.0142124
0.0104985
0.00690746
0.00435874
0.00134999
0.0321355
0.0321004
0.0320727
0.0320518
0.0320379
0.032031
0.0320315
0.0320391
0.0320542
0.0320761
0.0321055
0.0321407
0.0321832
0.03223
0.0322832
0.0323386
0.0323988
0.0324588
0.0325211
0.0325799
0.0326375
0.0326874
0.0327319
0.0327645
0.0327843
0.0327787
0.0327412
0.0326633
0.0325394
0.0323608
0.0321185
0.0318066
0.0314131
0.0309217
0.0303138
0.0295877
0.0287481
0.0278014
0.0267592
0.0256436
0.0244908
0.023352
0.0222922
0.0213827
0.0206921
0.0202739
0.0201409
0.020258
0.020518
0.0207445
0.0207414
0.0202509
0.0191521
0.0172485
0.0146257
0.0113784
0.00792626
0.0047365
0.00251472
3.80534e-05
0.0325464
0.0325154
0.0324913
0.0324732
0.0324615
0.0324562
0.0324579
0.0324661
0.0324816
0.0325037
0.0325336
0.0325694
0.032613
0.0326613
0.0327167
0.0327749
0.0328385
0.0329023
0.0329687
0.0330318
0.0330937
0.0331479
0.0331962
0.0332325
0.0332554
0.0332531
0.0332199
0.0331478
0.0330314
0.032862
0.0326307
0.0323314
0.0319545
0.0314795
0.0308935
0.0301911
0.0293761
0.0284516
0.0274249
0.0263126
0.0251433
0.0239601
0.0228187
0.0217815
0.0209096
0.0202538
0.0198303
0.0196162
0.0195238
0.0194057
0.0190924
0.0183546
0.0170892
0.0151145
0.0125018
0.009354
0.00606724
0.00315176
0.00110878
-0.00103091
0.033155
0.0331265
0.0331032
0.0330847
0.0330716
0.0330641
0.0330629
0.033068
0.0330801
0.0330987
0.0331249
0.0331573
0.0331975
0.0332428
0.0332955
0.0333514
0.0334133
0.033476
0.0335418
0.0336052
0.0336677
0.0337231
0.0337729
0.0338109
0.0338356
0.0338359
0.0338067
0.0337407
0.0336326
0.0334741
0.0332565
0.0329741
0.0326156
0.0321663
0.0316083
0.0309391
0.0301603
0.0292721
0.0282784
0.0271909
0.0260319
0.0248368
0.0236528
0.0225332
0.0215319
0.0206949
0.0200396
0.0195508
0.0191569
0.0187328
0.0181327
0.0171527
0.0157052
0.0136249
0.0109763
0.00786452
0.00466373
0.00191528
-5.35693e-05
-0.00199279
0.0338571
0.0338331
0.0338135
0.033798
0.0337871
0.0337808
0.0337799
0.0337843
0.033795
0.0338114
0.0338352
0.0338648
0.0339022
0.0339447
0.0339949
0.0340486
0.0341086
0.0341698
0.0342345
0.034297
0.034359
0.0344142
0.0344641
0.0345025
0.0345279
0.0345299
0.0345042
0.034444
0.0343441
0.0341968
0.0339934
0.0337283
0.0333926
0.0329676
0.0324414
0.0318082
0.0310692
0.0302227
0.0292695
0.0282171
0.0270822
0.0258933
0.0246896
0.0235159
0.0224183
0.0214373
0.0205895
0.0198651
0.0192038
0.0185005
0.0176287
0.016408
0.0147673
0.0125579
0.00983498
0.00671051
0.00353265
0.00087418
-0.00109124
-0.00292508
0.0347008
0.0346797
0.0346623
0.0346485
0.0346385
0.0346326
0.0346316
0.0346354
0.0346449
0.0346598
0.0346812
0.0347081
0.0347421
0.0347809
0.0348269
0.0348764
0.0349321
0.0349892
0.0350501
0.0351094
0.0351686
0.0352217
0.0352702
0.0353077
0.0353328
0.0353357
0.0353127
0.0352575
0.0351652
0.0350284
0.0348387
0.0345909
0.0342746
0.0338766
0.0333799
0.0327818
0.0320817
0.031276
0.030363
0.0293465
0.0282383
0.0270606
0.0258455
0.02463
0.0234527
0.0223488
0.021333
0.020399
0.0194957
0.0185339
0.0174038
0.015946
0.0141033
0.0117438
0.00891898
0.00574354
0.00254433
-8.13519e-05
-0.00208635
-0.00387383
0.035621
0.0356048
0.0355923
0.035583
0.0355771
0.0355747
0.0355764
0.0355819
0.0355923
0.035607
0.0356278
0.0356532
0.0356855
0.035722
0.0357655
0.0358123
0.0358651
0.0359194
0.0359775
0.036034
0.0360907
0.0361415
0.0361881
0.0362242
0.0362485
0.0362516
0.0362306
0.0361796
0.036094
0.0359666
0.0357891
0.0355565
0.0352606
0.0348838
0.0344152
0.0338486
0.0331835
0.0324146
0.0315381
0.0305546
0.0294712
0.0283048
0.0270809
0.0258293
0.0245814
0.023367
0.0221982
0.0210709
0.019941
0.0187334
0.0173523
0.0156578
0.0136069
0.0110837
0.00813439
0.00488042
0.0016266
-0.00100397
-0.0030763
-0.00485873
0.0367021
0.0366878
0.0366761
0.0366668
0.0366602
0.0366566
0.0366566
0.0366603
0.0366685
0.0366809
0.0366988
0.0367212
0.0367498
0.0367826
0.0368218
0.0368644
0.0369126
0.0369626
0.0370165
0.0370692
0.0371225
0.0371705
0.0372147
0.037249
0.0372721
0.0372752
0.0372557
0.0372082
0.0371283
0.0370088
0.0368422
0.0366232
0.0363422
0.0359871
0.0355413
0.035002
0.0343666
0.0336285
0.0327818
0.0318243
0.0307592
0.0295983
0.0283614
0.0270717
0.0257544
0.0244338
0.0231196
0.021809
0.0204639
0.0190205
0.0173954
0.0154661
0.0132015
0.0105017
0.00741205
0.00405813
0.000727424
-0.00193627
-0.00409124
-0.00589315
0.0378223
0.0378122
0.0378046
0.0377992
0.0377962
0.0377958
0.0377984
0.0378038
0.0378133
0.0378262
0.0378444
0.0378665
0.0378947
0.0379266
0.0379651
0.0380065
0.0380536
0.0381021
0.0381544
0.0382054
0.0382568
0.038303
0.0383455
0.0383785
0.0384007
0.0384036
0.0383853
0.0383407
0.0382654
0.0381528
0.0379949
0.0377869
0.0375211
0.0371806
0.036755
0.0362377
0.0356262
0.0349125
0.0340889
0.0331506
0.0320972
0.0309361
0.0296817
0.0283513
0.026964
0.0255391
0.0240837
0.0225956
0.0210412
0.0193675
0.017501
0.0153359
0.0128533
0.00996827
0.00672423
0.00325412
-0.000171261
-0.00288722
-0.005136
-0.00697682
0.0390511
0.0390433
0.0390378
0.0390345
0.0390335
0.0390349
0.0390394
0.0390468
0.039058
0.0390726
0.0390918
0.0391146
0.0391428
0.0391745
0.0392119
0.0392519
0.0392971
0.0393436
0.0393938
0.0394428
0.0394922
0.0395368
0.0395778
0.0396097
0.0396312
0.0396341
0.0396169
0.0395746
0.0395033
0.0393961
0.0392457
0.039047
0.0387907
0.0384652
0.0380542
0.0375542
0.0369609
0.0362648
0.0354567
0.0345293
0.0334791
0.0323093
0.0310296
0.0296521
0.0281904
0.0266592
0.0250631
0.0234003
0.0216414
0.0197415
0.017637
0.0152365
0.0125316
0.00945212
0.00604336
0.00244363
-0.00108895
-0.00387301
-0.00622157
-0.0081128
0.0403233
0.0403201
0.0403199
0.0403221
0.0403266
0.0403334
0.040343
0.0403548
0.04037
0.0403879
0.0404103
0.0404356
0.0404663
0.0404998
0.0405391
0.0405804
0.0406268
0.0406741
0.0407248
0.0407739
0.0408232
0.0408674
0.040908
0.0409396
0.0409609
0.0409642
0.040948
0.0409079
0.0408397
0.0407371
0.0405924
0.0404006
0.0401543
0.039837
0.0394382
0.0389506
0.03837
0.0376855
0.0368864
0.0359633
0.0349094
0.0337245
0.0324137
0.0309843
0.0294449
0.0278056
0.0260687
0.0242325
0.0222704
0.0201462
0.0178036
0.0151654
0.0122341
0.00895309
0.00536914
0.00162813
-0.0020233
-0.00488765
-0.00734222
-0.00929511
0.0417489
0.0417469
0.0417471
0.0417491
0.0417533
0.0417597
0.0417688
0.0417807
0.0417958
0.0418142
0.0418368
0.0418626
0.0418934
0.0419273
0.0419664
0.0420077
0.0420538
0.0421009
0.0421513
0.0422003
0.0422494
0.0422937
0.0423343
0.0423661
0.0423878
0.0423918
0.0423769
0.0423387
0.0422734
0.0421743
0.0420343
0.0418482
0.0416066
0.0412984
0.0409068
0.0404277
0.0398549
0.0391762
0.0383794
0.037453
0.0363875
0.0351792
0.0338296
0.0323413
0.0307183
0.028967
0.0270871
0.025077
0.0229133
0.0205659
0.0179862
0.0151092
0.0119467
0.00845613
0.00468844
0.000795861
-0.00298354
-0.00593933
-0.00850355
-0.0105248
0.0431994
0.0432014
0.0432059
0.0432125
0.0432211
0.0432318
0.043245
0.0432604
0.043279
0.0433004
0.0433261
0.0433549
0.043389
0.0434259
0.0434683
0.0435128
0.043562
0.0436119
0.043665
0.0437161
0.0437672
0.043813
0.0438548
0.0438878
0.0439105
0.0439157
0.0439022
0.043866
0.0438029
0.0437069
0.0435703
0.0433879
0.043152
0.0428466
0.0424607
0.0419861
0.0414166
0.0407388
0.039939
0.0390039
0.0379211
0.036684
0.0352902
0.0337383
0.0320281
0.030162
0.0281373
0.0259527
0.0235866
0.0210156
0.0181966
0.015077
0.0116788
0.00797138
0.00401049
-4.39529e-05
-0.00396102
-0.00701831
-0.00969748
-0.0117948
0.0447594
0.0447635
0.0447702
0.044779
0.0447902
0.0448036
0.0448199
0.0448387
0.0448608
0.0448859
0.0449151
0.0449474
0.0449844
0.0450242
0.045069
0.0451157
0.0451667
0.0452185
0.0452731
0.045326
0.0453786
0.0454261
0.0454695
0.045504
0.0455283
0.045535
0.0455233
0.0454889
0.045428
0.0453343
0.0452004
0.0450209
0.0447862
0.0444851
0.0441007
0.0436275
0.0430575
0.0423758
0.0415675
0.0406174
0.0395107
0.0382378
0.036793
0.0351711
0.0333679
0.0313823
0.0292098
0.0268487
0.0242796
0.0214844
0.0184253
0.0150606
0.0114208
0.00748849
0.00332609
-0.000899465
-0.00496248
-0.00813057
-0.0109279
-0.013106
0.0463615
0.0463705
0.046383
0.0463981
0.0464158
0.0464357
0.0464583
0.046483
0.0465108
0.046541
0.0465754
0.0466124
0.0466544
0.0466988
0.0467484
0.0467995
0.0468551
0.0469109
0.0469695
0.0470259
0.0470816
0.0471319
0.0471778
0.0472145
0.0472408
0.0472496
0.0472397
0.0472072
0.0471483
0.0470566
0.0469244
0.0467462
0.0465141
0.0462118
0.045828
0.0453531
0.0447791
0.0440899
0.0432691
0.0422999
0.0411649
0.0398517
0.0383517
0.0366558
0.0347562
0.0326483
0.0303256
0.0277861
0.0250119
0.0219903
0.0186872
0.0150722
0.0111853
0.00702041
0.00264695
-0.0017597
-0.00597793
-0.00926607
-0.0121868
-0.0144517
0.0481297
0.0481399
0.0481527
0.0481678
0.0481851
0.0482049
0.0482275
0.0482528
0.0482813
0.0483131
0.0483489
0.0483879
0.0484316
0.0484784
0.0485299
0.0485835
0.0486411
0.0486996
0.0487607
0.0488198
0.0488784
0.0489315
0.04898
0.0490194
0.0490482
0.0490593
0.0490516
0.0490211
0.048964
0.0488738
0.0487431
0.0485658
0.0483321
0.0480307
0.0476439
0.0471652
0.0465844
0.0458839
0.0450463
0.044053
0.0428843
0.0415251
0.0399639
0.0381883
0.0361868
0.033952
0.0314752
0.0287543
0.025773
0.0225228
0.0189737
0.0151045
0.0109629
0.00655665
0.00196357
-0.00263305
-0.0070145
-0.0104309
-0.0134778
-0.015833
0.0499242
0.0499388
0.0499564
0.0499765
0.0499989
0.0500236
0.050051
0.0500806
0.0501134
0.0501491
0.0501892
0.0502325
0.050281
0.0503324
0.0503892
0.0504479
0.050511
0.0505746
0.0506408
0.0507046
0.0507675
0.0508247
0.0508768
0.0509195
0.0509512
0.050965
0.0509595
0.0509311
0.0508757
0.050787
0.0506568
0.0504793
0.0502459
0.0499403
0.0495504
0.0490654
0.0484752
0.0477608
0.0469036
0.0458832
0.0446775
0.043269
0.0416433
0.0397846
0.0376781
0.0353134
0.0326797
0.0297747
0.0265828
0.0231006
0.0192996
0.0151694
0.010767
0.00611076
0.0012882
-0.00350838
-0.00806214
-0.0116157
-0.0147936
-0.0172438
0.0518356
0.0518525
0.0518725
0.0518951
0.0519204
0.0519484
0.0519793
0.052013
0.0520501
0.0520905
0.0521351
0.0521829
0.0522356
0.0522913
0.052352
0.0524146
0.0524813
0.0525487
0.0526185
0.0526863
0.052753
0.0528139
0.0528696
0.0529157
0.0529507
0.0529673
0.0529644
0.0529381
0.0528844
0.0527966
0.052667
0.052489
0.0522523
0.0519452
0.0515492
0.0510565
0.0504548
0.0497239
0.0488437
0.0477923
0.0465452
0.0450825
0.0433871
0.04144
0.0392234
0.0367238
0.0339289
0.0308356
0.0274301
0.0237117
0.0196566
0.0152598
0.0105871
0.00567147
0.000610609
-0.00439463
-0.00912849
-0.0128265
-0.0161375
-0.0186853
0.053793
0.0538153
0.0538418
0.0538713
0.0539039
0.0539391
0.0539772
0.0540175
0.0540612
0.0541076
0.0541584
0.0542121
0.054271
0.0543325
0.0543994
0.0544679
0.0545407
0.0546139
0.0546895
0.0547624
0.0548341
0.0548996
0.0549594
0.0550094
0.0550478
0.0550675
0.0550672
0.055043
0.0549909
0.0549042
0.0547745
0.0545953
0.0543575
0.0540442
0.0536426
0.0531407
0.0525258
0.0517765
0.0508714
0.0497867
0.0484958
0.0469763
0.0452084
0.0431701
0.0408402
0.0382027
0.0352431
0.031958
0.0283339
0.0243751
0.0200579
0.015387
0.0104365
0.00525225
-5.69478e-05
-0.00528081
-0.0102035
-0.0140543
-0.0175027
-0.0201519
0.0559302
0.0559537
0.0559805
0.05601
0.0560423
0.0560774
0.0561156
0.0561569
0.0562017
0.0562501
0.0563029
0.0563594
0.0564208
0.0564857
0.0565556
0.0566278
0.056704
0.0567812
0.0568607
0.056938
0.0570139
0.0570838
0.0571477
0.0572015
0.0572436
0.0572666
0.057269
0.057247
0.0571966
0.0571107
0.0569813
0.056801
0.0565588
0.0562427
0.0558331
0.055321
0.0546917
0.053922
0.0529895
0.0518684
0.0505299
0.0489492
0.0471041
0.0449695
0.0425212
0.0397404
0.0366113
0.033129
0.0292823
0.025077
0.0204957
0.0155425
0.0103034
0.00484032
-0.000726083
-0.00617694
-0.0112959
-0.0153053
-0.0188922
-0.0216446
0.0581005
0.0581289
0.058161
0.058196
0.0582338
0.0582744
0.0583178
0.0583638
0.0584134
0.0584662
0.0585239
0.0585852
0.0586521
0.0587224
0.0587984
0.0588765
0.0589591
0.0590424
0.059128
0.0592109
0.0592922
0.0593671
0.0594356
0.0594937
0.0595396
0.059566
0.0595712
0.0595516
0.0595028
0.059418
0.0592884
0.0591067
0.0588629
0.0585399
0.0581235
0.0576003
0.0569554
0.0561641
0.0552027
0.0540435
0.0526556
0.0510115
0.0490867
0.0468528
0.0442831
0.0413552
0.0380525
0.0343685
0.0302932
0.025836
0.0209803
0.0157379
0.0102015
0.00444945
-0.00138426
-0.00707183
-0.0123954
-0.0165713
-0.0203003
-0.0231587
0.060399
0.06043
0.0604649
0.0605028
0.0605439
0.060588
0.0606354
0.0606859
0.06074
0.0607979
0.0608603
0.0609266
0.060998
0.061073
0.0611531
0.0612357
0.0613222
0.0614099
0.0614997
0.0615871
0.0616728
0.0617522
0.061825
0.0618872
0.0619369
0.0619669
0.0619751
0.0619579
0.0619112
0.0618273
0.0616983
0.0615155
0.0612676
0.0609414
0.0605164
0.0599819
0.0593205
0.0585062
0.0575136
0.0563136
0.0548727
0.0531613
0.0511521
0.048814
0.0461173
0.043037
0.0395549
0.0356627
0.0313535
0.0266367
0.0215041
0.0159623
0.0101172
0.00406603
-0.00204378
-0.00797609
-0.0135111
-0.0178578
-0.021729
-0.0246947
0.0627526
0.0627898
0.0628319
0.0628774
0.0629264
0.0629782
0.0630332
0.0630907
0.0631517
0.0632156
0.0632843
0.0633564
0.063434
0.0635147
0.0636011
0.0636894
0.0637821
0.0638755
0.0639711
0.0640639
0.0641548
0.0642392
0.0643165
0.0643831
0.0644369
0.0644705
0.0644819
0.0644675
0.0644229
0.0643408
0.064212
0.0640285
0.0637794
0.0634468
0.0630148
0.0624684
0.0617898
0.0609515
0.0599265
0.0586843
0.0571886
0.0554078
0.0533117
0.0508666
0.0480394
0.0448025
0.041136
0.0370303
0.0324799
0.0274967
0.0220749
0.0162267
0.0100644
0.00370414
-0.00269174
-0.00887808
-0.0146325
-0.0191571
-0.0231736
-0.0262483
0.0653014
0.06534
0.0653823
0.0654276
0.0654758
0.0655271
0.0655816
0.0656394
0.0657008
0.0657662
0.0658363
0.0659106
0.0659901
0.0660738
0.0661626
0.0662544
0.0663502
0.0664476
0.0665471
0.0666445
0.0667399
0.066829
0.0669109
0.0669821
0.0670402
0.0670779
0.0670929
0.0670817
0.0670398
0.0669595
0.0668323
0.0666487
0.0663966
0.0660614
0.0656211
0.0650626
0.0643663
0.0635025
0.0624433
0.0611561
0.0596025
0.0577482
0.0555609
0.0530035
0.0500403
0.0466406
0.0427834
0.0384567
0.0336586
0.0283994
0.0226846
0.0165172
0.0100271
0.00334875
-0.00334156
-0.00978946
-0.015769
-0.0204743
-0.0246351
-0.0278198
0.0678822
0.0679262
0.0679742
0.0680253
0.0680792
0.068136
0.0681956
0.0682579
0.0683237
0.0683931
0.0684676
0.0685462
0.0686309
0.0687195
0.0688142
0.0689116
0.0690137
0.0691171
0.0692228
0.0693261
0.0694273
0.0695219
0.069609
0.0696852
0.0697481
0.0697903
0.0698092
0.0698017
0.069763
0.0696856
0.0695599
0.0693771
0.0691249
0.0687843
0.0683374
0.0677665
0.0670517
0.0661616
0.0650672
0.0637338
0.0621207
0.060191
0.0579098
0.0552371
0.0521339
0.0485669
0.0445131
0.0399592
0.0349048
0.0293615
0.0233394
0.0168476
0.0100211
0.00301485
-0.0039795
-0.010698
-0.0169102
-0.0218029
-0.0261103
-0.0294062
0.0705909
0.0706376
0.0706885
0.0707425
0.0707997
0.0708599
0.0709234
0.0709901
0.0710603
0.0711347
0.0712137
0.0712973
0.0713861
0.0714795
0.0715782
0.0716801
0.0717863
0.0718944
0.0720047
0.0721131
0.0722195
0.0723195
0.0724119
0.0724935
0.0725615
0.0726085
0.0726321
0.0726288
0.0725942
0.07252
0.0723974
0.072216
0.0719622
0.0716204
0.0711652
0.0705821
0.0698478
0.0689305
0.0677989
0.0664171
0.0647413
0.0627327
0.0603531
0.0575599
0.0543109
0.0505702
0.0463126
0.0415234
0.0362046
0.0303665
0.0240313
0.0172011
0.0100288
0.00268679
-0.00461949
-0.0116156
-0.0180651
-0.0231469
-0.027599
-0.0310067
0.0733489
0.0734023
0.0734609
0.0735231
0.0735886
0.0736571
0.0737285
0.0738024
0.0738796
0.0739602
0.0740458
0.0741352
0.0742307
0.0743299
0.0744354
0.0745436
0.0746565
0.074771
0.074888
0.0750027
0.0751154
0.0752216
0.0753199
0.0754073
0.075481
0.0755335
0.0755621
0.0755639
0.075534
0.0754644
0.0753451
0.0751659
0.0749137
0.0745671
0.0741058
0.0735096
0.0727558
0.0718105
0.0706414
0.0692102
0.0674707
0.0653808
0.0629005
0.0599834
0.0565845
0.0526646
0.0481972
0.0431652
0.0375729
0.03143
0.0247672
0.0175936
0.0100677
0.00238056
-0.00524689
-0.0125293
-0.0192233
-0.0245003
-0.0290992
-0.0326197
0.0763086
0.0763632
0.0764214
0.0764828
0.0765469
0.0766143
0.0766846
0.0767585
0.0768358
0.0769179
0.0770046
0.0770967
0.0771941
0.077297
0.0774055
0.077518
0.0776349
0.0777546
0.0778766
0.0779973
0.0781159
0.0782284
0.0783331
0.0784268
0.0785068
0.0785655
0.0786001
0.0786078
0.0785837
0.0785192
0.0784047
0.0782284
0.0779757
0.0776285
0.0771591
0.0765501
0.0757768
0.074803
0.0735952
0.0721127
0.0703065
0.068132
0.0655464
0.0625002
0.0589452
0.0548393
0.0501543
0.044871
0.0389958
0.0325371
0.0255382
0.0180062
0.0101186
0.0020794
-0.00587675
-0.0134518
-0.0203938
-0.0258663
-0.0306096
-0.0342435
0.0792924
0.0793526
0.0794171
0.0794846
0.0795548
0.0796279
0.0797037
0.0797823
0.0798644
0.0799507
0.0800424
0.0801392
0.0802425
0.080351
0.0804663
0.0805855
0.0807098
0.0808367
0.0809663
0.0810943
0.0812202
0.0813399
0.0814516
0.0815523
0.0816394
0.081705
0.0817465
0.0817611
0.0817436
0.0816855
0.0815758
0.0814032
0.0811528
0.0808014
0.0803262
0.0797049
0.0789121
0.0779103
0.0766636
0.0751293
0.0732553
0.0709942
0.0683005
0.0651216
0.0614059
0.0571084
0.0521988
0.0466564
0.0404884
0.0337034
0.0263542
0.0184588
0.0102014
0.00180077
-0.00649334
-0.0143696
-0.0215665
-0.0272407
-0.0321301
-0.0358787
0.0824037
0.0824671
0.0825347
0.0826057
0.0826796
0.0827568
0.0828371
0.0829208
0.0830081
0.0831
0.083197
0.0832994
0.0834076
0.0835216
0.0836415
0.0837659
0.0838951
0.0840276
0.0841628
0.084297
0.0844295
0.0845563
0.0846752
0.0847836
0.0848786
0.0849522
0.0850017
0.0850242
0.0850146
0.0849635
0.0848602
0.0846919
0.0844421
0.0840916
0.0836094
0.0829765
0.0821649
0.0811346
0.0798481
0.0782601
0.0763154
0.0739642
0.0711578
0.0678406
0.0639579
0.0594615
0.0543192
0.0485085
0.0420378
0.0349152
0.0272058
0.0189319
0.0102967
0.00152751
-0.00711214
-0.0152953
-0.0227497
-0.028625
-0.0336582
-0.0375225
0.085579
0.0856511
0.0857284
0.0858088
0.0858917
0.0859772
0.0860648
0.0861547
0.0862477
0.0863443
0.0864463
0.0865531
0.0866666
0.0867854
0.0869112
0.0870411
0.0871768
0.0873157
0.0874581
0.0875996
0.0877399
0.0878749
0.0880023
0.0881198
0.0882241
0.0883073
0.0883663
0.0883984
0.088398
0.0883557
0.0882595
0.088097
0.087852
0.0874989
0.0870127
0.0863687
0.0855385
0.0844801
0.0831536
0.0815112
0.0794945
0.0770508
0.0741287
0.0706693
0.0666144
0.061913
0.0565305
0.0504432
0.0436599
0.0361893
0.0281065
0.0194485
0.0104263
0.00127842
-0.00771642
-0.0162149
-0.0239339
-0.0300163
-0.0351955
-0.0391775
0.08904
0.0891061
0.0891716
0.089238
0.0893055
0.0893767
0.0894512
0.0895311
0.0896158
0.0897076
0.089806
0.0899124
0.090026
0.0901474
0.0902758
0.0904108
0.0905514
0.0906973
0.090847
0.0909975
0.0911471
0.0912925
0.0914309
0.0915599
0.0916761
0.0917713
0.0918422
0.0918862
0.0918975
0.0918656
0.0917793
0.0916241
0.0913823
0.0910324
0.0905408
0.0898862
0.0890376
0.0879504
0.0865826
0.0848836
0.0827918
0.0802516
0.0772088
0.0736014
0.0693674
0.0644533
0.0588219
0.0524485
0.0453423
0.0375125
0.0290457
0.0199884
0.0105696
0.00103499
-0.00832259
-0.0171413
-0.0251265
-0.0314149
-0.036738
-0.0408396
0.0920864
0.0921746
0.0922705
0.0923708
0.0924742
0.0925796
0.092687
0.092796
0.092908
0.0930233
0.0931442
0.09327
0.0934028
0.0935413
0.093687
0.0938375
0.0939939
0.0941546
0.094319
0.0944839
0.0946481
0.0948082
0.0949614
0.0951055
0.0952371
0.0953474
0.0954333
0.0954921
0.0955175
0.095499
0.0954238
0.0952779
0.0950437
0.0946933
0.0941992
0.0935344
0.0926675
0.0915514
0.0901415
0.0883848
0.0862161
0.0835767
0.0804098
0.0766497
0.0722312
0.0670975
0.0612095
0.0545412
0.0471019
0.0389028
0.0300397
0.0205764
0.0107501
0.000817274
-0.00891319
-0.0180608
-0.0263194
-0.03282
-0.0382896
-0.0425136
0.095686
0.0957632
0.0958423
0.095924
0.0960082
0.0960973
0.0961907
0.0962904
0.0963957
0.096509
0.0966299
0.0967598
0.0968977
0.0970446
0.0971992
0.0973613
0.0975299
0.0977049
0.0978844
0.0980659
0.0982474
0.0984257
0.0985975
0.0987607
0.0989113
0.0990404
0.0991446
0.0992214
0.0992639
0.0992608
0.0991998
0.0990649
0.0988368
0.0984921
0.0979941
0.0973197
0.0964341
0.0952878
0.093834
0.0920166
0.0897673
0.0870242
0.0837276
0.0798086
0.0751981
0.0698366
0.0636827
0.0567095
0.0489267
0.0403467
0.0310763
0.0211916
0.0109466
0.000606165
-0.00950484
-0.018986
-0.0275187
-0.0342303
-0.0398449
-0.044194
0.0988634
0.0989603
0.0990671
0.0991807
0.0992993
0.0994218
0.0995481
0.0996776
0.0998118
0.0999511
0.100098
0.100251
0.100414
0.100584
0.100762
0.100947
0.10114
0.101338
0.101541
0.101745
0.10195
0.102151
0.102346
0.102532
0.102706
0.102857
0.102983
0.10308
0.103143
0.103158
0.103112
0.102991
0.102774
0.102431
0.101932
0.101248
0.100343
0.0991662
0.0976672
0.0957876
0.0934553
0.0906054
0.0871751
0.083092
0.0782834
0.0726868
0.0662587
0.0589711
0.0508345
0.0418633
0.0321737
0.0218593
0.0111834
0.000422547
-0.0100796
-0.0199031
-0.0287174
-0.0356467
-0.0414095
-0.0458872
0.102671
0.102753
0.102838
0.102928
0.103023
0.103124
0.103233
0.10335
0.103475
0.103612
0.103758
0.103916
0.104086
0.104267
0.104458
0.104659
0.104869
0.105087
0.105312
0.10554
0.105769
0.105996
0.106217
0.106429
0.106628
0.106805
0.106955
0.107076
0.107161
0.107197
0.10717
0.107063
0.106856
0.106521
0.106019
0.105326
0.104401
0.103192
0.101645
0.0996999
0.0972804
0.0943186
0.0907486
0.0864944
0.0814798
0.0756391
0.0689268
0.0613141
0.0528126
0.0434383
0.0333173
0.0225574
0.0114375
0.000246018
-0.0106547
-0.0208244
-0.0299206
-0.0370665
-0.0429766
-0.047586
0.105994
0.106096
0.106211
0.106336
0.106469
0.10661
0.106757
0.10691
0.10707
0.107239
0.107417
0.107605
0.107805
0.108014
0.108235
0.108464
0.108702
0.108948
0.109202
0.109458
0.109716
0.109971
0.110221
0.110461
0.110689
0.110893
0.11107
0.111217
0.111327
0.111385
0.111378
0.111288
0.111094
0.110763
0.110262
0.109558
0.108614
0.107371
0.105775
0.103762
0.101253
0.0981758
0.0944616
0.0900308
0.0848034
0.0787106
0.0717049
0.0637572
0.0548797
0.0450912
0.0345266
0.0233113
0.0117339
9.79737e-05
-0.0112125
-0.0217374
-0.0311233
-0.0384927
-0.0445537
-0.0492991
0.109912
0.11001
0.110119
0.110238
0.110366
0.110503
0.110648
0.110803
0.110966
0.111141
0.111326
0.111523
0.111733
0.111956
0.11219
0.112437
0.112694
0.112963
0.11324
0.113522
0.113807
0.114091
0.114369
0.11464
0.114897
0.11513
0.115336
0.115511
0.115647
0.115729
0.115744
0.115672
0.11549
0.115169
0.114666
0.113953
0.112987
0.111709
0.110061
0.107977
0.105374
0.102175
0.0983103
0.0936953
0.0882465
0.081892
0.0745823
0.0662878
0.0570225
0.0468069
0.0357855
0.0240978
0.0120487
-4.23476e-05
-0.01177
-0.0226533
-0.032329
-0.0399213
-0.0461326
-0.0510174
0.113862
0.113963
0.114074
0.114196
0.114326
0.114467
0.114616
0.114777
0.114948
0.115132
0.11533
0.115543
0.115771
0.116014
0.116272
0.116542
0.116826
0.117121
0.117426
0.117736
0.118051
0.118365
0.118674
0.118974
0.119262
0.119526
0.119761
0.119966
0.120129
0.120237
0.120275
0.120222
0.120056
0.11974
0.119238
0.118514
0.117527
0.116212
0.114511
0.112354
0.109653
0.106329
0.102309
0.0975037
0.091826
0.085201
0.0775774
0.0689252
0.0592602
0.0486053
0.0371137
0.0249425
0.0124071
-0.000153264
-0.0123095
-0.0235608
-0.0335346
-0.041357
-0.0477226
-0.0527508
0.117957
0.118068
0.118188
0.11832
0.118461
0.118613
0.118775
0.118948
0.119131
0.119329
0.11954
0.119767
0.120009
0.120267
0.120541
0.12083
0.121134
0.121452
0.121781
0.122118
0.122461
0.122805
0.123144
0.123476
0.123794
0.124089
0.124355
0.124589
0.124782
0.124917
0.124978
0.124945
0.124792
0.124487
0.123984
0.12325
0.122239
0.120886
0.119129
0.116894
0.11409
0.110636
0.106453
0.10145
0.0955339
0.0886279
0.0806787
0.0716561
0.0615784
0.0504704
0.0384941
0.0258208
0.0127841
-0.000256394
-0.0128479
-0.0244698
-0.0347421
-0.0427944
-0.049314
-0.0544882
0.12208
0.122203
0.12234
0.122489
0.122648
0.122818
0.122999
0.123191
0.123396
0.123614
0.123848
0.124097
0.124365
0.124649
0.12495
0.125266
0.125599
0.125945
0.126304
0.126671
0.127045
0.127419
0.12779
0.128153
0.128504
0.12883
0.129127
0.129392
0.129613
0.129776
0.129861
0.129849
0.129712
0.129413
0.128909
0.128164
0.127129
0.125736
0.123921
0.121606
0.118698
0.115109
0.110758
0.105549
0.0993876
0.092191
0.0839054
0.0745003
0.063997
0.0524223
0.0399464
0.0267585
0.0132048
-0.000330404
-0.013369
-0.0253714
-0.0359507
-0.0442404
-0.0509175
-0.056241
0.12644
0.126576
0.126726
0.126889
0.127064
0.127251
0.127451
0.127662
0.127886
0.128124
0.128378
0.128649
0.128936
0.129241
0.129563
0.129902
0.130258
0.130629
0.131015
0.13141
0.131813
0.132218
0.13262
0.133016
0.133399
0.133757
0.134086
0.134381
0.134632
0.134821
0.134932
0.134939
0.134815
0.134526
0.13402
0.133262
0.132202
0.130767
0.128891
0.126493
0.123474
0.119744
0.115218
0.109796
0.103378
0.0958799
0.0872449
0.0774439
0.0665003
0.0544447
0.0414532
0.0277305
0.0136443
-0.000396418
-0.0138883
-0.0262739
-0.0371609
-0.0456882
-0.0525226
-0.057997
0.130907
0.131057
0.131222
0.131402
0.131595
0.131801
0.13202
0.132251
0.132497
0.132758
0.133038
0.133334
0.13365
0.133983
0.134336
0.134705
0.135093
0.135495
0.135913
0.136339
0.136774
0.137211
0.137645
0.138073
0.138488
0.138878
0.139238
0.139564
0.139844
0.14006
0.140194
0.140221
0.140113
0.139829
0.139322
0.138551
0.137465
0.135987
0.134048
0.131564
0.128431
0.124556
0.119849
0.114207
0.107524
0.0997132
0.0907172
0.0805066
0.069109
0.0565571
0.0430343
0.0287624
0.0141277
-0.00043355
-0.0143909
-0.02717
-0.038374
-0.0471462
-0.0541408
-0.0597686
0.135646
0.135809
0.135987
0.136182
0.136391
0.136615
0.136852
0.137104
0.137371
0.137653
0.137953
0.138271
0.138608
0.138963
0.139339
0.139732
0.140144
0.140573
0.141018
0.141474
0.141939
0.142407
0.142873
0.143332
0.143779
0.144201
0.144591
0.144947
0.145255
0.145499
0.145656
0.145702
0.145607
0.145331
0.144821
0.144036
0.142921
0.141398
0.139393
0.13682
0.133569
0.129542
0.124646
0.118774
0.111815
0.10368
0.0943088
0.0836742
0.0718059
0.0587437
0.0446709
0.0298285
0.0146292
-0.000462691
-0.0148912
-0.0280668
-0.0395889
-0.0486066
-0.0557611
-0.0615425
0.140523
0.1407
0.140896
0.141108
0.141336
0.141578
0.141836
0.142108
0.142397
0.142702
0.143027
0.14337
0.143736
0.14412
0.144526
0.144949
0.145392
0.145852
0.146328
0.146815
0.147312
0.147811
0.148308
0.148799
0.149277
0.14973