/*--------------------------------*- C++ -*----------------------------------*\
  =========                 |
  \\      /  F ield         | OpenFOAM: The Open Source CFD Toolbox
   \\    /   O peration     | Website:  https://openfoam.org
    \\  /    A nd           | Version:  6.0
     \\/     M anipulation  |
\*---------------------------------------------------------------------------*/
FoamFile
{
    version     2.0;
    format      ascii;
    class       volVectorField;
    location    "0.6";
    object      U;
}
// * * * * * * * * * * * * * * * * * * * * * * * * * * * * * * * * * * * * * //

dimensions      [0 1 -1 0 0 0 0];

internalField   nonuniform List<vector> 
13500
(
(1 2.2646e-06 -4.4378e-18)
(1 -5.1052e-06 3.0071e-18)
(1 -4.4425e-06 -1.2884e-17)
(1 -1.1171e-05 -8.9739e-18)
(1 -6.0189e-06 1.6754e-17)
(1 -9.8536e-06 3.1612e-17)
(0.99999 3.7214e-06 2.6728e-17)
(0.99999 1.0534e-05 -4.4057e-18)
(0.9999 4.5451e-05 1.5769e-17)
(0.99975 9.2742e-05 3.5029e-18)
(0.99676 0.00055017 2.8677e-17)
(1.0171 0.010953 8.2581e-18)
(1 6.8652e-06 2.7494e-18)
(1 -1.5172e-05 -9.1325e-18)
(1 -1.244e-05 6.1524e-18)
(1 -3.3591e-05 -3.5424e-19)
(1 -1.5551e-05 -4.4682e-19)
(1 -3.1207e-05 -3.8011e-17)
(0.99998 1.6697e-05 -4.6162e-17)
(0.99996 2.6083e-05 -2.521e-17)
(0.9997 0.00014929 -1.5738e-17)
(0.99952 0.00025305 -1.7314e-18)
(0.99006 0.0014762 -1.3581e-17)
(1.047 0.030934 -5e-18)
(1 1.1441e-05 -3.5511e-18)
(1 -2.5449e-05 1.8144e-17)
(1 -2.0345e-05 3.2e-18)
(1 -5.6921e-05 1.0347e-17)
(1 -2.4321e-05 -3.8632e-18)
(1 -5.4813e-05 3.045e-17)
(0.99997 3.2319e-05 -6.4959e-18)
(0.99995 3.6647e-05 5.7264e-18)
(0.9995 0.00026243 -1.9091e-17)
(0.99956 0.00043389 2.6305e-17)
(0.98349 0.0019802 -7.105e-18)
(1.0702 0.045591 1.7619e-18)
(1 1.5979e-05 9.2832e-18)
(1 -3.5939e-05 -1.7591e-17)
(1 -2.8362e-05 -1.5169e-17)
(1 -8.0998e-05 -7.2612e-19)
(1 -3.2941e-05 5.9632e-18)
(1.0001 -8.0028e-05 -8.445e-19)
(0.99996 4.9205e-05 6.4017e-17)
(0.99995 4.3155e-05 1.0318e-17)
(0.99928 0.00038098 2.2575e-17)
(0.99984 0.00063992 -9.5288e-18)
(0.9774 0.0020951 3.4616e-17)
(1.0856 0.056252 -8.0191e-18)
(1 2.048e-05 -6.5229e-18)
(1 -4.6535e-05 1.5204e-17)
(1 -3.6448e-05 1.2913e-17)
(1 -0.00010549 1.3243e-17)
(1 -4.1459e-05 2.9237e-18)
(1.0001 -0.00010636 2.2383e-17)
(0.99995 6.6994e-05 -2.8587e-17)
(0.99996 4.5662e-05 2.0964e-18)
(0.99905 0.00050212 -1.384e-17)
(1.0003 0.00087015 -2.2737e-18)
(0.9721 0.0018891 -8.9648e-18)
(1.0934 0.064094 2.2208e-18)
(1 2.4935e-05 6.6011e-18)
(1 -5.7229e-05 -6.3029e-18)
(1 -4.4623e-05 3.9434e-18)
(1.0001 -0.00013039 -2.6234e-17)
(1 -4.9902e-05 -8.5859e-20)
(1.0001 -0.00013395 -4.431e-17)
(0.99994 8.5676e-05 1.0965e-18)
(0.99999 4.3544e-05 -1.6826e-17)
(0.99881 0.00062395 5.2705e-18)
(1.0009 0.0011248 -2.2905e-17)
(0.96779 0.0014319 -2.163e-17)
(1.0948 0.069756 2.1516e-18)
(0.99999 2.9331e-05 -1.0927e-18)
(1 -6.8024e-05 -7.5383e-18)
(1 -5.2903e-05 -3.205e-18)
(1.0001 -0.00015577 1.9802e-17)
(1 -5.8268e-05 -2.7079e-17)
(1.0001 -0.00016295 1.6955e-17)
(0.99993 0.00010526 1.9117e-17)
(1 3.6223e-05 5.9196e-18)
(0.99855 0.00074453 1.1781e-17)
(1.0016 0.0014028 1.2331e-17)
(0.96456 0.00079181 9.3336e-18)
(1.0912 0.07368 3.4654e-18)
(0.99999 3.3657e-05 -2.2554e-18)
(1 -7.892e-05 -1.483e-18)
(1 -6.1311e-05 -2.7608e-17)
(1.0001 -0.00018163 -9.4556e-18)
(1.0001 -6.6602e-05 7.5798e-18)
(1.0002 -0.00019351 2.7788e-17)
(0.99991 0.00012559 1.2166e-17)
(1.0001 2.3247e-05 5.2854e-18)
(0.99828 0.00086167 -7.7009e-18)
(1.0023 0.0017012 1.7273e-17)
(0.96242 3.4115e-05 7.5543e-18)
(1.0839 0.076235 -1.1034e-17)
(0.99999 3.7902e-05 -7.0013e-18)
(1 -8.9917e-05 6.3755e-18)
(1 -6.988e-05 4.6419e-17)
(1.0001 -0.000208 -1.1342e-17)
(1.0001 -7.4982e-05 2.8382e-17)
(1.0002 -0.00022575 -5.4864e-17)
(0.9999 0.00014636 -4.0531e-17)
(1.0002 4.2588e-06 1.0271e-17)
(0.998 0.000973 -5.7839e-18)
(1.0031 0.0020152 -9.5259e-18)
(0.96129 -0.00078122 -1.3939e-17)
(1.0744 0.077724 1.4449e-17)
(0.99999 4.2054e-05 4.6126e-18)
(1 -0.00010101 2.3998e-18)
(1 -7.8646e-05 -3.9319e-17)
(1.0001 -0.00023489 1.6142e-17)
(1.0001 -8.3512e-05 -1.2377e-17)
(1.0002 -0.0002598 2.34e-17)
(0.99989 0.00016715 1.4402e-17)
(1.0002 -2.1018e-05 2.5971e-18)
(0.99772 0.0010762 5.456e-19)
(1.0038 0.0023397 1.5109e-18)
(0.96105 -0.0016026 4.4482e-18)
(1.0637 0.078392 -7.4977e-19)
(0.99999 4.61e-05 -2.5325e-18)
(1 -0.00011221 -7.8704e-18)
(1 -8.7653e-05 9.6382e-18)
(1.0001 -0.00026233 -2.8483e-18)
(1.0001 -9.2326e-05 1.9103e-18)
(1.0003 -0.00029582 -2.5646e-17)
(0.99987 0.0001874 -3.3169e-17)
(1.0004 -5.2751e-05 -3.2979e-17)
(0.99745 0.001169 1.6167e-17)
(1.0045 0.002669 1.9634e-18)
(0.96153 -0.0023883 -1.1281e-17)
(1.0528 0.078431 -6.2412e-18)
(0.99998 5.0027e-05 3.4955e-18)
(1 -0.00012351 2.9728e-18)
(1 -9.695e-05 4.6449e-18)
(1.0001 -0.00029036 -2.27e-18)
(1.0001 -0.00010159 -5.7265e-18)
(1.0003 -0.00033398 9.6997e-18)
(0.99986 0.00020641 1.9201e-17)
(1.0005 -9.0979e-05 2.0375e-17)
(0.99719 0.0012494 1.0389e-17)
(1.0052 0.0029984 -2.4773e-17)
(0.96256 -0.0031076 1.136e-19)
(1.0423 0.077993 -7.2458e-18)
(0.99998 5.3822e-05 -3.4948e-18)
(1 -0.00013493 5.846e-18)
(1 -0.0001066 8.421e-18)
(1.0001 -0.00031902 5.9269e-18)
(1.0001 -0.00011152 -5.3108e-18)
(1.0003 -0.00037448 4.7686e-18)
(0.99984 0.00022333 4.3783e-18)
(1.0006 -0.00013559 -1.8193e-18)
(0.99695 0.0013156 -1.6791e-17)
(1.0058 0.0033234 2.2978e-17)
(0.96398 -0.0037401 1.0131e-19)
(1.0328 0.0772 1.5418e-18)
(0.99998 5.7472e-05 5.3145e-18)
(1 -0.00014647 -4.5634e-18)
(1 -0.00011666 7.3699e-19)
(1.0001 -0.00034836 -4.9445e-18)
(1.0001 -0.00012237 1.2061e-17)
(1.0004 -0.00041753 5.8188e-18)
(0.99983 0.00023723 1.7615e-17)
(1.0008 -0.0001863 -6.7584e-18)
(0.99672 0.0013664 -2.056e-19)
(1.0063 0.0036406 5.6495e-18)
(0.96565 -0.0042749 1.7182e-17)
(1.0245 0.076144 9.8289e-19)
(0.99997 6.096e-05 1.2817e-18)
(1 -0.00015814 1.0128e-17)
(1 -0.00012723 1.4081e-17)
(1.0002 -0.00037847 -4.93e-18)
(1.0001 -0.00013444 8.7326e-18)
(1.0004 -0.00046339 -2.7163e-18)
(0.99982 0.00024708 -3.085e-17)
(1.001 -0.00024267 2.1393e-17)
(0.99653 0.0014009 -1.894e-17)
(1.0068 0.0039475 -3.2576e-17)
(0.96745 -0.0047089 -3.7656e-18)
(1.0175 0.0749 9.1247e-19)
(0.99997 6.4272e-05 -3.27e-18)
(1 -0.00016999 -1.0771e-17)
(1 -0.00013839 -3.3797e-17)
(1.0002 -0.00040945 8.3057e-18)
(1.0001 -0.00014812 -1.3252e-17)
(1.0005 -0.00051232 8.71e-18)
(0.99981 0.00025183 -2.8857e-18)
(1.0011 -0.00030407 -1.2878e-17)
(0.99636 0.0014187 4.1563e-18)
(1.0072 0.0042425 1.9456e-17)
(0.96928 -0.0050451 -7.9235e-18)
(1.0119 0.073524 1.2801e-17)
(0.99997 6.7389e-05 3.4404e-19)
(1 -0.00018203 8.0555e-18)
(1 -0.00015027 2.3333e-17)
(1.0002 -0.00044143 -1.8707e-18)
(1.0001 -0.00016379 -1.3165e-17)
(1.0005 -0.00056459 -1.6231e-17)
(0.99981 0.00025047 1.1025e-17)
(1.0013 -0.00036971 7.3862e-18)
(0.99623 0.0014201 2.4041e-17)
(1.0075 0.0045247 -2.7262e-18)
(0.97108 -0.0052911 1.9729e-18)
(1.0074 0.072061 -5.1057e-18)
(0.99996 7.029e-05 -1.9303e-18)
(1 -0.00019432 -9.7607e-18)
(1 -0.000163 -1.0528e-17)
(1.0002 -0.00047457 6.2512e-18)
(1.0001 -0.00018192 -7.3928e-18)
(1.0006 -0.00062048 -1.302e-17)
(0.99981 0.00024208 1.0717e-17)
(1.0015 -0.00043864 -5.0107e-18)
(0.99613 0.0014059 -2.9759e-17)
(1.0078 0.004794 -1.5285e-17)
(0.97279 -0.005457 8.564e-18)
(1.0041 0.070544 -5.5529e-18)
(0.99996 7.2954e-05 -2.7639e-18)
(1 -0.00020692 -3.6891e-18)
(1 -0.00017672 -7.8028e-19)
(1.0002 -0.00050907 -2.7374e-17)
(1.0001 -0.00020299 6.2038e-18)
(1.0006 -0.00068024 5.6692e-18)
(0.99982 0.00022592 -2.0364e-17)
(1.0017 -0.00050979 -1.711e-17)
(0.99606 0.0013771 4.3494e-18)
(1.0081 0.0050506 -1.1549e-18)
(0.9744 -0.0055544 -9.8857e-18)
(1.0017 0.068999 1.0495e-18)
(0.99995 7.5355e-05 3.5951e-18)
(0.99999 -0.00021988 1.6912e-17)
(1 -0.00019163 2.009e-17)
(1.0002 -0.00054514 2.5778e-18)
(1.0002 -0.00022749 1.7148e-17)
(1.0007 -0.00074408 9.9355e-18)
(0.99983 0.00020145 2.9398e-18)
(1.002 -0.00058198 1.8727e-17)
(0.99601 0.0013354 2.1632e-17)
(1.0083 0.0052949 1.8256e-17)
(0.9759 -0.005595 7.3859e-18)
(0.99998 0.067445 1.2485e-18)
(0.99995 7.7462e-05 -1.7135e-18)
(0.99999 -0.0002333 -4.0578e-18)
(1 -0.00020791 -2.1404e-17)
(1.0002 -0.00058303 -2.441e-18)
(1.0002 -0.0002559 -1.2996e-17)
(1.0008 -0.00081213 -5.3761e-18)
(0.99985 0.00016842 -1.8857e-18)
(1.0022 -0.00065399 -1.6934e-17)
(0.996 0.0012826 -2.0692e-17)
(1.0085 0.0055278 9.3623e-18)
(0.97728 -0.0055898 5.0996e-19)
(0.99889 0.065897 7.1823e-19)
(0.99994 7.9244e-05 4.5419e-18)
(0.99999 -0.00024729 -5.3012e-18)
(1 -0.00022577 -2.0073e-17)
(1.0003 -0.00062301 4.6405e-17)
(1.0002 -0.00028867 1.8851e-17)
(1.0008 -0.00088442 -1.3155e-17)
(0.99988 0.00012687 2.5359e-17)
(1.0024 -0.00072458 2.2888e-17)
(0.996 0.0012206 3.3582e-17)
(1.0087 0.0057499 -3.4323e-17)
(0.97855 -0.0055491 -1.3568e-17)
(0.99826 0.064364 1.9051e-19)
(0.99993 8.0665e-05 -3.3245e-18)
(0.99999 -0.00026193 -1.0638e-18)
(1 -0.00024542 3.427e-17)
(1.0003 -0.00066532 -3.5079e-17)
(1.0002 -0.00032616 -1.8149e-18)
(1.0009 -0.00096086 4.3587e-17)
(0.99992 7.712e-05 7.8581e-18)
(1.0026 -0.00079254 -3.5349e-18)
(0.99603 0.0011514 -2.0831e-17)
(1.0088 0.005962 4.0453e-17)
(0.97973 -0.0054816 -5.752e-18)
(0.99795 0.062853 -3.0145e-19)
(0.99993 8.1686e-05 -1.6947e-18)
(0.99998 -0.00027737 -2.1197e-18)
(1 -0.00026709 1.784e-18)
(1.0003 -0.00071021 3.6495e-17)
(1.0002 -0.00036867 -1.0231e-17)
(1.001 -0.0010412 -3.2217e-17)
(0.99996 1.9808e-05 -2.0036e-17)
(1.0028 -0.00085676 -3.8064e-18)
(0.99608 0.0010768 6.5894e-18)
(1.0089 0.0061646 -3.4134e-17)
(0.98082 -0.0053945 9.6326e-18)
(0.99788 0.061369 3.2747e-18)
(0.99992 8.2267e-05 2.8006e-18)
(0.99998 -0.00029372 1.4753e-17)
(1 -0.00029098 -1.3161e-17)
(1.0003 -0.00075789 -3.8214e-18)
(1.0002 -0.00041634 -1.9632e-17)
(1.0011 -0.0011251 3.5051e-17)
(1 -4.4189e-05 -1.7587e-17)
(1.003 -0.00091625 1.5784e-17)
(0.99614 0.00099862 -2.031e-18)
(1.009 0.0063582 3.2006e-17)
(0.98184 -0.0052939 -9.4034e-18)
(0.99798 0.059915 -5.4646e-18)
(0.99991 8.2368e-05 -5.3714e-19)
(0.99998 -0.00031111 -8.485e-18)
(1 -0.00031726 -1.8427e-17)
(1.0003 -0.00080853 -1.0471e-17)
(1.0003 -0.00046921 1.9042e-17)
(1.0012 -0.0012121 -4.4696e-17)
(1.0001 -0.00011379 -2.7131e-18)
(1.0032 -0.00097019 -2.1325e-17)
(0.9962 0.00091837 3.2829e-18)
(1.0091 0.0065433 -9.232e-18)
(0.9828 -0.0051842 1.001e-17)
(0.99818 0.058493 2.3203e-18)
(0.9999 8.195e-05 2.8138e-18)
(0.99997 -0.00032965 -9.0886e-18)
(1 -0.0003461 -1.82e-18)
(1.0004 -0.0008622 2.5442e-18)
(1.0003 -0.00052712 6.0266e-18)
(1.0012 -0.0013014 1.2915e-17)
(1.0001 -0.00018777 4.4491e-17)
(1.0034 -0.0010179 2.5487e-18)
(0.99628 0.00083732 5.3523e-18)
(1.0092 0.0067199 1.0176e-17)
(0.9837 -0.0050691 -8.5642e-18)
(0.99845 0.057103 1.7855e-18)
(0.9999 8.0977e-05 -1.6135e-18)
(0.99997 -0.00034944 9.0803e-18)
(1 -0.00037759 2.6192e-17)
(1.0004 -0.00091892 -2.5635e-17)
(1.0003 -0.00058979 -9.3741e-18)
(1.0013 -0.0013923 -2.2728e-18)
(1.0002 -0.00026483 -1.4665e-17)
(1.0035 -0.001059 1.9774e-18)
(0.99636 0.00075649 -9.2718e-18)
(1.0093 0.0068884 -3.7402e-18)
(0.98457 -0.0049511 -2.4425e-19)
(0.99875 0.055745 -2.1804e-18)
(0.99989 7.942e-05 -1.7341e-18)
(0.99996 -0.00037056 5.435e-18)
(1 -0.00041177 -6.3366e-19)
(1.0004 -0.00097859 8.5003e-18)
(1.0003 -0.00065675 -1.7295e-17)
(1.0014 -0.0014839 2.5714e-17)
(1.0002 -0.00034366 7.3137e-18)
(1.0037 -0.0010933 -1.8865e-17)
(0.99645 0.00067664 -1.1896e-17)
(1.0093 0.0070488 -1.4808e-17)
(0.98539 -0.0048322 1.3558e-18)
(0.99907 0.05442 -4.0023e-18)
(0.99988 7.7258e-05 6.0259e-19)
(0.99996 -0.00039307 -1.298e-17)
(1 -0.00044863 1.6218e-17)
(1.0004 -0.001041 2.351e-17)
(1.0004 -0.00072742 3.3899e-17)
(1.0015 -0.0015753 -1.8885e-17)
(1.0003 -0.00042302 -1.8184e-17)
(1.0038 -0.0011207 3.8278e-18)
(0.99654 0.00059829 1.1146e-17)
(1.0094 0.0072011 1.159e-17)
(0.98619 -0.0047137 6.3226e-18)
(0.99939 0.053127 3.9782e-18)
(0.99987 7.4478e-05 1.1548e-18)
(0.99995 -0.00041696 1.0321e-17)
(1 -0.00048806 -3.726e-17)
(1.0004 -0.0011059 -3.4067e-18)
(1.0004 -0.00080109 -2.8159e-17)
(1.0016 -0.0016657 -1.1896e-17)
(1.0003 -0.00050177 2.5703e-20)
(1.004 -0.0011413 -4.3798e-18)
(0.99663 0.00052176 -2.1976e-17)
(1.0094 0.0073453 -1.8503e-17)
(0.98696 -0.0045965 -8.6423e-18)
(0.99971 0.051864 -1.9641e-18)
(0.99986 7.1081e-05 -7.4847e-19)
(0.99995 -0.00044223 -6.7123e-18)
(1 -0.00052989 2.9316e-17)
(1.0005 -0.0011728 -3.2503e-17)
(1.0004 -0.00087695 -2.117e-18)
(1.0016 -0.0017541 2.5332e-17)
(1.0004 -0.00057894 7.2761e-19)
(1.0041 -0.0011554 4.1759e-18)
(0.99673 0.00044721 1.9238e-17)
(1.0095 0.0074814 2.405e-17)
(0.98771 -0.004481 4.9425e-18)
(1 0.050631 -1.0985e-18)
(0.99985 6.7079e-05 -1.9484e-18)
(0.99994 -0.00046879 -2.4753e-18)
(1 -0.00057387 -1.2996e-17)
(1.0005 -0.0012414 1.6192e-17)
(1.0005 -0.00095416 3.0946e-17)
(1.0017 -0.0018397 -1.1196e-17)
(1.0004 -0.00065371 2.2645e-17)
(1.0042 -0.0011636 3.1302e-18)
(0.99682 0.00037463 -2.182e-18)
(1.0095 0.0076094 1.0875e-17)
(0.98843 -0.0043677 -5.5312e-18)
(1.0003 0.049427 -7.6727e-19)
(0.99984 6.2501e-05 4.873e-19)
(0.99993 -0.00049653 -6.5459e-18)
(1 -0.00061969 4.8646e-18)
(1.0005 -0.001311 -1.6502e-17)
(1.0005 -0.0010319 -3.273e-17)
(1.0018 -0.0019218 7.0556e-18)
(1.0005 -0.0007255 -3.2668e-17)
(1.0043 -0.0011663 -7.1587e-18)
(0.99691 0.00030395 7.0745e-18)
(1.0095 0.0077293 -3.4138e-17)
(0.98914 -0.0042567 3.7836e-18)
(1.0006 0.048252 2.1601e-18)
(0.99982 5.7386e-05 8.5569e-19)
(0.99993 -0.00052531 1.7735e-17)
(1 -0.00066698 8.1449e-18)
(1.0005 -0.001381 6.722e-18)
(1.0005 -0.0011092 2.6172e-17)
(1.0019 -0.0019999 2.1036e-18)
(1.0005 -0.00079387 2.2558e-17)
(1.0044 -0.001164 5.1337e-18)
(0.99701 0.00023502 -2.1513e-17)
(1.0096 0.007841 1.1752e-17)
(0.98983 -0.0041482 2.5598e-18)
(1.0009 0.047104 2.2427e-18)
(0.99981 5.1786e-05 -2.9877e-18)
(0.99992 -0.00055493 -5.8377e-18)
(1 -0.00071533 -7.1563e-18)
(1.0005 -0.0014509 1.1039e-17)
(1.0006 -0.0011854 1.2642e-17)
(1.0019 -0.0020734 -4.1893e-18)
(1.0006 -0.00085861 -1.8948e-17)
(1.0045 -0.0011575 2.3379e-17)
(0.99711 0.00016765 3.979e-18)
(1.0096 0.0079448 -3.5487e-18)
(0.9905 -0.004042 1.0604e-17)
(1.0012 0.045983 -1.5597e-18)
(0.9998 4.5766e-05 6.1391e-18)
(0.99991 -0.00058518 6.9907e-18)
(1 -0.0007643 -7.6067e-18)
(1.0006 -0.0015201 -6.8763e-18)
(1.0006 -0.0012597 -1.8142e-17)
(1.002 -0.0021422 -7.1954e-18)
(1.0006 -0.00091966 9.3418e-18)
(1.0046 -0.0011474 -3.7501e-17)
(0.9972 0.00010162 9.7537e-18)
(1.0096 0.0080405 -4.1933e-18)
(0.99116 -0.0039383 -1.1234e-17)
(1.0014 0.044888 4.5343e-18)
(0.99978 3.9398e-05 -2.7095e-18)
(0.9999 -0.00061583 -1.2282e-17)
(1 -0.00081344 -7.372e-18)
(1.0006 -0.001588 -1.3048e-17)
(1.0006 -0.0013316 -5.539e-18)
(1.0021 -0.002206 2.1156e-17)
(1.0007 -0.00097709 -9.1767e-18)
(1.0047 -0.0011343 4.1719e-17)
(0.9973 3.6725e-05 9.2018e-18)
(1.0096 0.0081283 1.2725e-17)
(0.9918 -0.003837 4.737e-18)
(1.0017 0.043818 -7.3563e-18)
(0.99977 3.2762e-05 -1.4371e-18)
(0.99989 -0.00064663 9.134e-18)
(1 -0.0008623 1.4606e-17)
(1.0006 -0.0016542 3.5181e-17)
(1.0006 -0.0014006 7.3418e-18)
(1.0021 -0.0022648 -1.4511e-17)
(1.0007 -0.0010311 4.4286e-18)
(1.0048 -0.0011188 -4.4886e-17)
(0.9974 -2.7233e-05 -1.1166e-17)
(1.0096 0.0082082 -7.074e-18)
(0.99242 -0.003738 4.6535e-18)
(1.0019 0.042772 7.4025e-18)
(0.99975 2.594e-05 1.0998e-18)
(0.99988 -0.00067733 2.1622e-18)
(1 -0.00091047 -1.4344e-17)
(1.0006 -0.001718 -5.8602e-18)
(1.0006 -0.0014663 9.3215e-18)
(1.0022 -0.0023188 1.7369e-17)
(1.0007 -0.001082 1.5399e-17)
(1.0049 -0.0011014 4.4419e-18)
(0.9975 -9.0438e-05 1.2494e-17)
(1.0097 0.0082804 -3.276e-18)
(0.99303 -0.0036412 -8.3078e-18)
(1.0021 0.041751 -1.9081e-18)
(0.99973 1.9015e-05 -4.5048e-20)
(0.99987 -0.00070768 2.4641e-18)
(1 -0.00095758 3.2057e-18)
(1.0006 -0.0017793 -7.6074e-18)
(1.0007 -0.0015285 8.6401e-20)
(1.0022 -0.0023681 -1.5748e-17)
(1.0007 -0.0011301 -1.0416e-17)
(1.0049 -0.0010827 3.2872e-17)
(0.9976 -0.00015306 -1.8888e-17)
(1.0097 0.0083451 1.2722e-17)
(0.99363 -0.0035466 4.3904e-18)
(1.0024 0.040752 -5.3978e-18)
(0.99971 1.2069e-05 -3.4063e-18)
(0.99986 -0.00073748 -1.1557e-17)
(1 -0.0010033 8.1837e-18)
(1.0006 -0.0018378 -2.0776e-17)
(1.0007 -0.001587 -2.3572e-17)
(1.0022 -0.0024131 -2.1755e-17)
(1.0008 -0.0011757 -2.1228e-17)
(1.005 -0.0010632 -3.3662e-18)
(0.99771 -0.00021522 1.6509e-17)
(1.0097 0.0084023 -1.091e-17)
(0.99421 -0.0034542 4.3814e-19)
(1.0026 0.039777 5.0865e-18)
(0.99969 5.1757e-06 6.5745e-18)
(0.99984 -0.00076652 1.2077e-17)
(1 -0.0010473 -1.3198e-17)
(1.0007 -0.0018932 1.7057e-17)
(1.0007 -0.001642 -2.7635e-18)
(1.0023 -0.0024542 1.426e-17)
(1.0008 -0.0012194 2.5516e-17)
(1.0051 -0.0010432 -2.5501e-17)
(0.99781 -0.00027706 -8.374e-18)
(1.0097 0.0084522 1.1518e-17)
(0.99477 -0.0033639 3.8028e-18)
(1.0028 0.038823 -2.4071e-18)
(0.99967 -1.5946e-06 -4.9331e-18)
(0.99983 -0.00079463 -3.5695e-18)
(1 -0.0010895 -2.7591e-18)
(1.0007 -0.0019454 1.9516e-17)
(1.0007 -0.0016935 -5.9167e-18)
(1.0023 -0.0024916 -1.8066e-19)
(1.0008 -0.0012613 -4.9929e-18)
(1.0051 -0.0010231 2.0427e-17)
(0.99792 -0.00033866 -7.9547e-18)
(1.0097 0.0084949 -7.9086e-18)
(0.99533 -0.0032757 -1.1243e-17)
(1.003 0.037891 2.8003e-18)
(0.99965 -8.1828e-06 3.3532e-18)
(0.99981 -0.00082167 -4.5257e-18)
(1 -0.0011296 6.3172e-18)
(1.0007 -0.0019946 -2.9611e-17)
(1.0007 -0.0017417 4.0087e-17)
(1.0023 -0.0025258 5.9078e-18)
(1.0008 -0.001302 1.9699e-17)
(1.0052 -0.0010031 -1.264e-17)
(0.99803 -0.00040011 1.0205e-19)
(1.0097 0.0085306 5.8783e-18)
(0.99587 -0.0031894 -2.1948e-18)
(1.0032 0.036981 -1.0535e-18)
(0.99963 -1.4539e-05 -9.5926e-19)
(0.9998 -0.00084755 8.8456e-19)
(0.99999 -0.0011676 1.5391e-17)
(1.0007 -0.0020406 8.0727e-18)
(1.0007 -0.0017868 -2.004e-17)
(1.0024 -0.0025574 -1.1571e-17)
(1.0008 -0.0013418 3.4397e-18)
(1.0053 -0.00098368 -6.1455e-18)
(0.99814 -0.00046146 1.3309e-17)
(1.0098 0.0085595 -3.8597e-18)
(0.99639 -0.0031052 1.054e-17)
(1.0034 0.03609 -3.8476e-18)
(0.99961 -2.0626e-05 -1.6696e-18)
(0.99978 -0.0008722 -8.527e-18)
(0.99997 -0.0012035 -4.5762e-18)
(1.0007 -0.0020837 3.2415e-17)
(1.0007 -0.0018291 -1.7853e-17)
(1.0024 -0.0025866 -9.8002e-19)
(1.0009 -0.0013809 -5.1438e-17)
(1.0053 -0.0009649 6.0407e-18)
(0.99825 -0.00052277 -2.49e-17)
(1.0098 0.0085817 -8.3295e-18)
(0.99691 -0.003023 -1.0554e-17)
(1.0036 0.03522 2.2852e-18)
(0.99959 -2.6414e-05 -7.2072e-19)
(0.99976 -0.00089558 5.2829e-18)
(0.99996 -0.0012373 -1.8891e-18)
(1.0007 -0.002124 -1.8875e-17)
(1.0007 -0.0018689 2.5656e-17)
(1.0024 -0.0026138 -2.4092e-18)
(1.0009 -0.0014196 2.7247e-17)
(1.0054 -0.00094697 -3.7136e-18)
(0.99837 -0.00058407 1.2087e-17)
(1.0098 0.0085974 1.0416e-17)
(0.99741 -0.0029428 8.7076e-18)
(1.0038 0.03437 -5.5281e-19)
(0.99956 -3.1888e-05 4.0856e-18)
(0.99974 -0.00091771 -3.1606e-18)
(0.99995 -0.0012691 -6.6077e-18)
(1.0007 -0.0021618 2.0599e-17)
(1.0007 -0.0019065 1.8829e-18)
(1.0025 -0.0026396 2.987e-17)
(1.0009 -0.0014582 4.7002e-18)
(1.0054 -0.00093005 1.7742e-17)
(0.99848 -0.00064539 4.5344e-18)
(1.0098 0.0086068 -3.3701e-18)
(0.9979 -0.0028645 1.1352e-18)
(1.004 0.033538 5.0075e-19)
(0.99954 -3.7039e-05 1.1648e-18)
(0.99972 -0.00093861 1.2924e-18)
(0.99993 -0.0012989 -5.9914e-18)
(1.0007 -0.0021973 -4.1021e-17)
(1.0007 -0.0019424 5.7011e-18)
(1.0025 -0.002664 2.5901e-18)
(1.0009 -0.0014969 -2.0381e-17)
(1.0055 -0.00091426 2.4951e-19)
(0.9986 -0.00070676 1.337e-17)
(1.0098 0.00861 -2.1656e-18)
(0.99837 -0.0027882 -5.5279e-18)
(1.0042 0.032726 2.9514e-18)
(0.99952 -4.1871e-05 -4.9883e-18)
(0.9997 -0.00095833 5.4771e-18)
(0.99991 -0.001327 9.8805e-19)
(1.0007 -0.0022307 2.2778e-17)
(1.0007 -0.0019767 -2.6008e-17)
(1.0025 -0.0026876 -1.1442e-17)
(1.0009 -0.0015358 2.0845e-17)
(1.0055 -0.00089971 -1.2017e-17)
(0.99872 -0.00076818 -2.1142e-17)
(1.0098 0.0086071 -1.0696e-17)
(0.99884 -0.0027138 7.0445e-18)
(1.0044 0.031931 9.8449e-19)
(0.99949 -4.6391e-05 -5.2779e-19)
(0.99968 -0.00097695 -5.5113e-18)
(0.99989 -0.0013535 1.0519e-17)
(1.0007 -0.0022623 1.0099e-17)
(1.0007 -0.0020098 3.2121e-17)
(1.0025 -0.0027105 4.3951e-18)
(1.0009 -0.0015751 1.8515e-17)
(1.0056 -0.00088649 3.0464e-17)
(0.99884 -0.00082969 -9.3751e-19)
(1.0098 0.0085983 1.8814e-17)
(0.99929 -0.0026413 -7.4418e-19)
(1.0046 0.031155 -2.8719e-18)
(0.99946 -5.0617e-05 5.1159e-18)
(0.99966 -0.00099454 -8.0236e-18)
(0.99987 -0.0013785 -1.5965e-17)
(1.0007 -0.0022924 -2.6847e-18)
(1.0007 -0.0020419 -3.4862e-17)
(1.0025 -0.002733 -1.3079e-17)
(1.0009 -0.001615 -6.4267e-18)
(1.0056 -0.00087466 2.2679e-19)
(0.99896 -0.00089127 2.7522e-17)
(1.0099 0.0085839 4.3317e-18)
(0.99974 -0.0025708 -9.6874e-18)
(1.0048 0.030396 1.7229e-18)
(0.99944 -5.4568e-05 -5.7353e-18)
(0.99963 -0.0010112 1.0023e-17)
(0.99985 -0.0014023 8.3571e-18)
(1.0006 -0.0023212 -5.3492e-18)
(1.0007 -0.0020734 2.8035e-17)
(1.0026 -0.0027553 1.5646e-17)
(1.001 -0.0016554 -5.0804e-18)
(1.0057 -0.0008643 -3.0697e-17)
(0.99908 -0.00095295 -9.3423e-19)
(1.0099 0.0085638 -1.2384e-17)
(1.0002 -0.0025023 1.1474e-17)
(1.005 0.029654 -2.256e-18)
(0.99941 -5.8269e-05 3.4462e-18)
(0.99961 -0.0010271 -1.9178e-18)
(0.99983 -0.001425 1.1065e-17)
(1.0006 -0.0023489 -2.2503e-17)
(1.0007 -0.0021044 9.1535e-18)
(1.0026 -0.0027775 -5.6208e-18)
(1.001 -0.0016966 -1.0947e-17)
(1.0058 -0.00085544 -2.4634e-18)
(0.9992 -0.0010147 -3.3229e-17)
(1.0099 0.0085384 8.167e-18)
(1.0006 -0.0024357 -1.0518e-17)
(1.0051 0.028929 7.5292e-19)
(0.99938 -6.1745e-05 2.7244e-19)
(0.99959 -0.0010422 -6.0329e-18)
(0.99981 -0.0014468 6.2828e-18)
(1.0006 -0.0023758 2.9617e-17)
(1.0007 -0.0021352 -2.1802e-17)
(1.0026 -0.0027998 1.808e-17)
(1.001 -0.0017385 -6.3296e-18)
(1.0058 -0.00084815 5.7057e-18)
(0.99933 -0.0010766 3.9484e-17)
(1.0099 0.0085076 -1.5158e-17)
(1.001 -0.002371 1.609e-17)
(1.0053 0.028221 2.1291e-18)
(0.99935 -6.5025e-05 4.8897e-19)
(0.99956 -0.0010567 -1.2483e-18)
(0.99979 -0.0014679 -9.0393e-18)
(1.0006 -0.0024021 -4.459e-18)
(1.0007 -0.0021659 1.9e-17)
(1.0026 -0.0028224 1.4325e-19)
(1.001 -0.0017811 -1.2442e-17)
(1.0059 -0.00084245 -1.3618e-17)
(0.99946 -0.0011386 -1.653e-17)
(1.0099 0.0084717 -1.4288e-18)
(1.0014 -0.0023083 2.9581e-18)
(1.0055 0.027528 2.2313e-19)
(0.99933 -6.8137e-05 -7.8694e-19)
(0.99954 -0.0010707 1.4858e-17)
(0.99977 -0.0014884 -6.0287e-18)
(1.0006 -0.0024279 -2.5196e-17)
(1.0006 -0.0021966 8.7588e-18)
(1.0026 -0.0028452 -4.6063e-17)
(1.001 -0.0018247 6.206e-18)
(1.0059 -0.00083838 8.576e-18)
(0.99958 -0.0012008 7.6779e-19)
(1.0099 0.0084309 1.5389e-17)
(1.0018 -0.0022475 -9.7531e-19)
(1.0057 0.026851 -5.9489e-18)
(0.9993 -7.1106e-05 -2.0777e-19)
(0.99951 -0.0010843 -2.9165e-19)
(0.99974 -0.0015085 8.1154e-18)
(1.0006 -0.0024534 1.5555e-17)
(1.0006 -0.0022275 -3.4804e-17)
(1.0026 -0.0028685 1.9901e-18)
(1.0011 -0.0018691 1.1117e-17)
(1.0059 -0.00083598 1.3429e-17)
(0.99971 -0.001263 -1.0461e-17)
(1.0099 0.0083851 -1.498e-17)
(1.0022 -0.0021888 -1.5998e-17)
(1.0059 0.026189 6.2817e-18)
(0.99927 -7.3961e-05 -1.3593e-18)
(0.99948 -0.0010975 4.151e-19)
(0.99972 -0.0015282 -3.9129e-18)
(1.0006 -0.0024787 -1.0385e-17)
(1.0006 -0.0022587 1.9292e-17)
(1.0027 -0.0028922 2.4723e-17)
(1.0011 -0.0019144 3.2425e-18)
(1.006 -0.00083527 6.8035e-18)
(0.99984 -0.0013254 1.6684e-17)
(1.01 0.0083347 2.5219e-18)
(1.0025 -0.002132 1.1842e-17)
(1.006 0.025542 -3.8122e-18)
(0.99924 -7.6724e-05 2.5019e-18)
(0.99946 -0.0011105 7.6535e-19)
(0.99969 -0.0015478 -5.5916e-18)
(1.0006 -0.002504 1.5341e-18)
(1.0006 -0.0022903 -1.046e-17)
(1.0027 -0.0029165 -5.9303e-18)
(1.0011 -0.0019606 -1.1981e-18)
(1.006 -0.00083627 -3.072e-17)
(0.99997 -0.001388 3.2775e-18)
(1.01 0.0082796 -5.1076e-18)
(1.0029 -0.0020771 -4.8157e-18)
(1.0062 0.024909 -4.5933e-18)
(0.99921 -7.9419e-05 -5.1057e-18)
(0.99943 -0.0011232 9.9986e-19)
(0.99967 -0.0015672 2.9658e-18)
(1.0006 -0.0025293 -1.9276e-17)
(1.0006 -0.0023224 -1.1924e-17)
(1.0027 -0.0029414 -2.753e-17)
(1.0011 -0.0020078 5.784e-18)
(1.0061 -0.00083902 1.2545e-17)
(1.0001 -0.0014507 -3.5141e-17)
(1.01 0.0082201 2.3555e-17)
(1.0033 -0.0020243 -5.2173e-18)
(1.0064 0.024291 2.9628e-18)
(0.99917 -8.2066e-05 4.6867e-18)
(0.9994 -0.0011359 2.2377e-18)
(0.99964 -0.0015867 1.1407e-18)
(1.0005 -0.0025548 6.1144e-18)
(1.0006 -0.002355 -2.6331e-18)
(1.0027 -0.0029669 5.3357e-17)
(1.0011 -0.0020559 2.0767e-17)
(1.0061 -0.00084354 -1.9504e-17)
(1.0002 -0.0015136 3.3825e-17)
(1.01 0.0081562 -8.7883e-18)
(1.0036 -0.0019734 -3.4472e-18)
(1.0066 0.023687 -1.4765e-18)
(0.99914 -8.4683e-05 1.1495e-18)
(0.99937 -0.0011485 -1.4171e-17)
(0.99961 -0.0016062 2.2826e-18)
(1.0005 -0.0025804 2.7454e-17)
(1.0006 -0.0023881 2.0381e-17)
(1.0027 -0.002993 -8.6272e-19)
(1.0012 -0.002105 -2.877e-17)
(1.0062 -0.00084984 5.909e-18)
(1.0004 -0.0015767 -7.6296e-18)
(1.01 0.0080881 -1.2158e-17)
(1.0039 -0.0019246 8.7658e-18)
(1.0067 0.023096 1.3776e-18)
(0.99911 -8.7286e-05 -4.5466e-18)
(0.99934 -0.001161 -4.7236e-18)
(0.99959 -0.0016259 -1.2365e-17)
(1.0005 -0.0026063 -2.3024e-17)
(1.0006 -0.0024219 -2.0507e-17)
(1.0027 -0.0030199 -2.4246e-17)
(1.0012 -0.002155 5.3134e-18)
(1.0062 -0.00085796 4.5905e-17)
(1.0005 -0.0016399 3.3268e-18)
(1.01 0.0080159 -1.0597e-18)
(1.0043 -0.0018777 -3.0973e-18)
(1.0069 0.022518 -3.6977e-18)
(0.99908 -8.9891e-05 3.3737e-18)
(0.99931 -0.0011736 4.3884e-18)
(0.99956 -0.0016457 1.9054e-17)
(1.0005 -0.0026325 1.5946e-17)
(1.0006 -0.0024563 1.9951e-17)
(1.0028 -0.0030475 -9.014e-19)
(1.0012 -0.0022061 -2.9605e-17)
(1.0063 -0.00086791 -2.4811e-17)
(1.0006 -0.0017034 8.2593e-18)
(1.0101 0.0079397 4.2085e-18)
(1.0046 -0.0018329 6.9941e-18)
(1.0071 0.021954 2.8593e-18)
(0.99904 -9.2509e-05 -2.3825e-18)
(0.99928 -0.0011862 6.8836e-18)
(0.99953 -0.0016658 -1.2606e-17)
(1.0005 -0.0026591 2.3073e-18)
(1.0005 -0.0024914 9.2756e-18)
(1.0028 -0.0030758 -2.3699e-18)
(1.0012 -0.0022581 6.6461e-18)
(1.0063 -0.00087971 6.8877e-18)
(1.0008 -0.0017671 2.7216e-18)
(1.0101 0.0078596 1.0398e-17)
(1.0049 -0.0017901 -8.4143e-18)
(1.0072 0.021402 5.7789e-19)
(0.99901 -9.5151e-05 3.597e-18)
(0.99925 -0.001199 4.2659e-19)
(0.9995 -0.0016862 -5.9005e-18)
(1.0005 -0.0026861 9.1831e-19)
(1.0005 -0.0025273 -1.5244e-18)
(1.0028 -0.0031049 -2.3411e-17)
(1.0012 -0.0023111 1.856e-17)
(1.0064 -0.00089338 2.444e-17)
(1.0009 -0.001831 -1.3535e-17)
(1.0101 0.0077758 -1.4465e-17)
(1.0052 -0.0017493 -2.465e-18)
(1.0074 0.020862 4.9128e-18)
(0.99897 -9.7827e-05 -2.6129e-18)
(0.99922 -0.0012118 -3.2854e-19)
(0.99948 -0.0017068 7.3364e-18)
(1.0005 -0.0027135 -1.7643e-17)
(1.0005 -0.0025638 -1.3779e-17)
(1.0028 -0.0031349 2.9555e-17)
(1.0013 -0.0023651 -2.8385e-18)
(1.0064 -0.00090894 -2.5879e-17)
(1.001 -0.0018952 3.4504e-18)
(1.0101 0.0076883 1.3618e-17)
(1.0055 -0.0017106 8.3527e-18)
(1.0076 0.020335 -1.7714e-18)
(0.99894 -0.00010054 2.5963e-19)
(0.99919 -0.0012248 2.4063e-18)
(0.99945 -0.0017278 4.0085e-18)
(1.0004 -0.0027413 9.1204e-18)
(1.0005 -0.0026012 2.7006e-17)
(1.0028 -0.0031656 6.8902e-18)
(1.0013 -0.0024202 -2.4719e-17)
(1.0064 -0.00092641 2.4235e-18)
(1.0012 -0.0019596 8.8906e-18)
(1.0101 0.0075972 -1.2266e-17)
(1.0058 -0.0016739 -5.6519e-18)
(1.0077 0.019819 -2.0477e-18)
(0.9989 -0.00010331 7.3715e-19)
(0.99915 -0.0012379 -4.1867e-19)
(0.99942 -0.0017492 -1.0576e-17)
(1.0004 -0.0027696 -1.9615e-19)
(1.0005 -0.0026393 -5.3393e-17)
(1.0028 -0.0031972 8.4944e-18)
(1.0013 -0.0024762 2.4281e-17)
(1.0065 -0.00094581 -6.9651e-18)
(1.0013 -0.0020244 -9.308e-18)
(1.0102 0.0075027 2.0366e-17)
(1.0061 -0.0016393 6.771e-18)
(1.0079 0.019315 5.3062e-18)
(0.99887 -0.00010613 7.918e-19)
(0.99912 -0.0012512 -8.6857e-19)
(0.99939 -0.001771 1.9127e-17)
(1.0004 -0.0027984 4.2061e-18)
(1.0005 -0.0026782 4.7314e-17)
(1.0028 -0.0032297 -2.9939e-17)
(1.0013 -0.0025333 -8.1324e-18)
(1.0065 -0.00096715 6.553e-18)
(1.0014 -0.0020894 3.2101e-18)
(1.0102 0.0074048 -1.1458e-17)
(1.0064 -0.0016067 -1.0933e-18)
(1.0081 0.018822 -3.9124e-18)
(0.99883 -0.00010901 -3.0945e-18)
(0.99909 -0.0012647 1.458e-18)
(0.99935 -0.0017931 -1.1242e-17)
(1.0004 -0.0028277 5.5302e-18)
(1.0005 -0.0027179 -1.7978e-17)
(1.0028 -0.003263 4.0601e-18)
(1.0014 -0.0025914 3.2563e-17)
(1.0066 -0.00099046 -2.4523e-17)
(1.0016 -0.0021547 -1.1798e-17)
(1.0102 0.0073036 -1.1331e-17)
(1.0066 -0.0015762 -5.3913e-18)
(1.0082 0.01834 -1.0734e-18)
(0.99879 -0.00011195 3.8544e-18)
(0.99905 -0.0012783 -3.463e-18)
(0.99932 -0.0018157 -1.0909e-17)
(1.0004 -0.0028575 -8.8187e-18)
(1.0005 -0.0027584 -2.9392e-17)
(1.0029 -0.0032973 -1.8829e-17)
(1.0014 -0.0026506 -1.9966e-17)
(1.0066 -0.0010158 2.28e-17)
(1.0017 -0.0022204 1.1441e-17)
(1.0102 0.0071993 1.7158e-17)
(1.0069 -0.0015477 -2.1151e-18)
(1.0084 0.017868 5.1809e-18)
(0.99876 -0.00011496 -6.1946e-18)
(0.99902 -0.0012922 5.6106e-18)
(0.99929 -0.0018386 2.671e-17)
(1.0004 -0.0028879 -2.08e-18)
(1.0004 -0.0027997 3.2519e-17)
(1.0029 -0.0033325 1.4211e-18)
(1.0014 -0.0027109 -1.9126e-17)
(1.0066 -0.001043 8.9192e-18)
(1.0018 -0.0022865 -4.1259e-18)
(1.0103 0.0070919 -3.593e-18)
(1.0071 -0.0015214 6.8599e-18)
(1.0085 0.017408 -3.5034e-18)
(0.99872 -0.00011803 5.0763e-18)
(0.99898 -0.0013063 -7.6248e-18)
(0.99926 -0.0018621 -3.1141e-17)
(1.0003 -0.0029188 1.3606e-17)
(1.0004 -0.002842 -2.3167e-17)
(1.0029 -0.0033687 2.6026e-17)
(1.0015 -0.0027722 6.2332e-18)
(1.0067 -0.0010724 -8.4926e-18)
(1.002 -0.002353 -1.9808e-18)
(1.0103 0.0069815 -8.9945e-18)
(1.0074 -0.0014971 -1.1195e-17)
(1.0087 0.016957 4.8393e-18)
(0.99868 -0.00012119 -3.739e-18)
(0.99895 -0.0013206 2.5353e-18)
(0.99923 -0.001886 1.8922e-17)
(1.0003 -0.0029503 -1.7935e-17)
(1.0004 -0.0028851 3.7276e-17)
(1.0029 -0.0034058 -2.0198e-17)
(1.0015 -0.0028345 3.6338e-18)
(1.0067 -0.0011037 -1.3416e-17)
(1.0021 -0.0024198 6.4704e-18)
(1.0103 0.0068682 -1.2571e-18)
(1.0076 -0.0014749 4.7901e-18)
(1.0089 0.016516 -2.1532e-18)
(0.99864 -0.00012441 4.5856e-18)
(0.99891 -0.0013351 1.9737e-18)
(0.99919 -0.0019103 -1.2614e-17)
(1.0003 -0.0029824 -3.6431e-19)
(1.0004 -0.002929 -1.6461e-18)
(1.0029 -0.003444 4.8856e-18)
(1.0015 -0.002898 3.4517e-17)
(1.0068 -0.0011371 9.1763e-18)
(1.0023 -0.0024871 -1.9182e-17)
(1.0103 0.006752 -6.5194e-18)
(1.0079 -0.0014548 -4.5185e-18)
(1.009 0.016085 2.2586e-18)
(0.9986 -0.00012772 -5.2559e-18)
(0.99887 -0.0013499 -7.3137e-18)
(0.99916 -0.0019351 5.2922e-18)
(1.0003 -0.0030151 1.5516e-17)
(1.0004 -0.0029739 -3.3812e-17)