/*--------------------------------*- C++ -*----------------------------------*\
  =========                 |
  \\      /  F ield         | OpenFOAM: The Open Source CFD Toolbox
   \\    /   O peration     | Website:  https://openfoam.org
    \\  /    A nd           | Version:  6.0
     \\/     M anipulation  |
\*---------------------------------------------------------------------------*/
FoamFile
{
    version     2.0;
    format      ascii;
    class       volScalarField;
    location    "9";
    object      p;
}
// * * * * * * * * * * * * * * * * * * * * * * * * * * * * * * * * * * * * * //

dimensions      [0 2 -2 0 0 0 0];

internalField   nonuniform List<scalar> 
62000
(
0.0102306
0.0102566
0.0102877
0.0103237
0.0103652
0.0104118
0.0104643
0.0105222
0.0105864
0.0106566
0.0107337
0.0108174
0.0109088
0.0110077
0.0111156
0.0112322
0.0113593
0.011497
0.0116475
0.011811
0.0119902
0.0121858
0.0124011
0.0126374
0.0128988
0.0131889
0.0135131
0.0138756
0.0142814
0.014735
0.0152409
0.0158025
0.0164233
0.0171062
0.0178527
0.0186594
0.0195147
0.0203985
0.0212828
0.0221326
0.0229068
0.0235624
0.0240608
0.024379
0.024522
0.0245326
0.0244976
0.0245288
0.024743
0.0251977
0.0258582
0.0265615
0.0269969
0.0269396
0.0261405
0.0245432
0.0222393
0.019222
0.0168459
0.0156085
0.0101377
0.0101786
0.010223
0.0102713
0.0103237
0.0103798
0.0104404
0.0105051
0.0105747
0.0106488
0.0107286
0.0108137
0.0109056
0.0110038
0.0111103
0.0112247
0.0113492
0.0114838
0.0116309
0.0117908
0.0119662
0.012158
0.0123693
0.0126016
0.0128591
0.0131466
0.0134693
0.0138317
0.0142385
0.0146945
0.0152032
0.0157679
0.0163922
0.0170815
0.0178402
0.0186655
0.0195449
0.0204582
0.0213783
0.0222709
0.0230953
0.0238071
0.0243654
0.0247436
0.024943
0.0250046
0.0250192
0.0251114
0.0254238
0.0260494
0.0269933
0.0281185
0.0290999
0.0296777
0.0295164
0.0284576
0.0265048
0.0234845
0.0215014
0.0193407
0.0100155
0.0100725
0.0101311
0.0101916
0.0102546
0.0103199
0.010388
0.0104588
0.010533
0.0106104
0.0106922
0.0107782
0.0108699
0.0109672
0.011072
0.0111843
0.0113065
0.0114385
0.0115829
0.0117402
0.0119129
0.012102
0.01231
0.0125386
0.0127921
0.0130759
0.0133957
0.0137557
0.0141603
0.0146134
0.0151174
0.0156741
0.0162871
0.0169639
0.017711
0.0185253
0.0193918
0.0202877
0.0211843
0.0220457
0.0228275
0.0234796
0.0239519
0.0242058
0.0242273
0.0240412
0.0237247
0.0233972
0.0232118
0.0232935
0.0236999
0.0243632
0.0250165
0.0254627
0.0253827
0.0246181
0.0231618
0.0207917
0.0198499
0.0181944
0.00998592
0.0100436
0.0101018
0.010161
0.0102223
0.0102854
0.010351
0.010419
0.0104903
0.0105646
0.0106431
0.0107256
0.0108136
0.010907
0.0110079
0.0111163
0.0112346
0.011363
0.011504
0.0116582
0.0118282
0.0120147
0.0122205
0.0124467
0.0126981
0.0129804
0.0132999
0.0136611
0.0140685
0.0145254
0.0150341
0.0155956
0.0162141
0.0168998
0.0176619
0.0184984
0.0193932
0.0203231
0.0212594
0.0221661
0.0229974
0.0236989
0.0242124
0.0244864
0.0244895
0.0242247
0.0237467
0.0231562
0.0226013
0.0222216
0.0221166
0.022282
0.0225231
0.0227252
0.0226318
0.0221208
0.0211979
0.0196283
0.0196754
0.019463
0.0100057
0.0100501
0.0100958
0.0101429
0.0101927
0.0102448
0.0103002
0.0103587
0.0104213
0.0104875
0.0105587
0.0106346
0.0107167
0.0108048
0.0109009
0.0110051
0.0111196
0.0112446
0.0113828
0.0115347
0.011703
0.0118884
0.0120937
0.0123203
0.0125728
0.0128575
0.013181
0.0135489
0.0139659
0.014436
0.0149621
0.0155457
0.0161924
0.0169154
0.0177276
0.0186293
0.019606
0.0206367
0.0216957
0.0227504
0.0237573
0.0246614
0.0254011
0.0259162
0.0261605
0.0261156
0.02581
0.0253169
0.0247633
0.0242817
0.0239866
0.0239122
0.0239169
0.0239573
0.0238336
0.0234609
0.0228464
0.0217278
0.0222322
0.0229192
0.00997866
0.010008
0.0100394
0.0100731
0.0101102
0.0101505
0.0101949
0.0102432
0.0102964
0.0103543
0.0104181
0.0104874
0.0105638
0.0106471
0.0107392
0.0108399
0.0109518
0.0110748
0.0112116
0.0113628
0.0115313
0.0117178
0.0119252
0.0121551
0.0124123
0.012703
0.0130341
0.013412
0.0138423
0.0143298
0.0148789
0.015492
0.0161764
0.0169483
0.0178237
0.0188061
0.0198839
0.0210401
0.0222539
0.0234982
0.0247346
0.0259115
0.0269676
0.0278389
0.0284688
0.0288215
0.0289004
0.0287483
0.0284624
0.0281525
0.0279284
0.027835
0.0277617
0.0277076
0.0275238
0.0271484
0.0265754
0.0255005
0.0259756
0.02673
0.00982937
0.00984964
0.00987296
0.00989917
0.0099294
0.00996328
0.0100017
0.0100445
0.0100926
0.0101458
0.0102054
0.0102712
0.0103446
0.0104256
0.010516
0.0106157
0.0107271
0.0108503
0.0109879
0.0111407
0.0113114
0.0115011
0.0117127
0.0119481
0.0122123
0.0125109
0.0128511
0.0132396
0.0136826
0.0141863
0.014756
0.0153955
0.0161136
0.0169282
0.0178584
0.0189098
0.0200744
0.0213395
0.0226899
0.0241049
0.0255522
0.0269861
0.0283485
0.0295757
0.0306059
0.0313908
0.031913
0.0321876
0.0322804
0.032272
0.0322542
0.0322674
0.0322128
0.0321154
0.0318571
0.0313913
0.0306928
0.0294216
0.0296254
0.0300129
0.00956997
0.00958749
0.00960843
0.00963262
0.00966104
0.00969337
0.00973044
0.00977205
0.00981921
0.00987165
0.00993061
0.00999587
0.010069
0.0101498
0.0102403
0.0103404
0.0104525
0.0105769
0.0107162
0.0108712
0.0110449
0.0112384
0.0114548
0.0116963
0.0119676
0.0122741
0.0126226
0.0130199
0.0134726
0.0139874
0.0145712
0.0152283
0.0159685
0.0168111
0.0177762
0.0188719
0.0200928
0.0214301
0.0228742
0.0244101
0.0260128
0.0276426
0.029247
0.0307656
0.0321355
0.0333015
0.034231
0.0349169
0.0353966
0.0357215
0.0359622
0.0361434
0.0361681
0.0360675
0.0357499
0.0351771
0.0343074
0.0327806
0.0326764
0.0326287
0.0091985
0.00921921
0.00924371
0.00927166
0.00930396
0.0093401
0.00938091
0.00942601
0.00947648
0.00953191
0.0095937
0.00966149
0.00973707
0.00982011
0.00991276
0.010015
0.0101292
0.0102558
0.0103974
0.010555
0.0107316
0.0109286
0.0111491
0.0113956
0.0116727
0.0119854
0.0123399
0.0127426
0.0132005
0.0137206
0.0143104
0.0149748
0.0157242
0.0165777
0.0175569
0.0186704
0.019915
0.0212856
0.0227768
0.0243795
0.0260748
0.0278298
0.0295985
0.0313255
0.0329504
0.034415
0.0356778
0.0367145
0.0375401
0.0381796
0.0386817
0.0390536
0.0391926
0.0391313
0.0387919
0.0381451
0.0371373
0.0354051
0.0350653
0.0346805
0.00877138
0.00879778
0.00882773
0.00886102
0.00889844
0.00893953
0.00898505
0.00903469
0.00908938
0.00914877
0.00921408
0.00928505
0.00936331
0.00944873
0.0095433
0.00964717
0.00976283
0.00989067
0.0100335
0.0101924
0.0103706
0.0105695
0.0107923
0.0110416
0.0113219
0.0116381
0.0119953
0.0123998
0.0128581
0.0133777
0.0139662
0.0146288
0.0153756
0.0162263
0.0172015
0.0183107
0.0195523
0.0209238
0.0224235
0.0240469
0.0257811
0.0275995
0.0294626
0.0313215
0.0331201
0.0348009
0.0363175
0.0376346
0.0387499
0.0396669
0.0404157
0.0409846
0.041264
0.041279
0.0409659
0.0403028
0.0392286
0.0373871
0.0369176
0.0363306
0.00827814
0.00831216
0.00834952
0.00838999
0.00843429
0.00848196
0.00853364
0.00858899
0.00864892
0.00871303
0.00878258
0.00885729
0.00893886
0.00902704
0.00912398
0.00922974
0.00934693
0.00947587
0.00961946
0.00977889
0.00995744
0.0101565
0.0103795
0.0106292
0.01091
0.0112263
0.0115829
0.0119855
0.0124401
0.0129543
0.0135357
0.0141895
0.0149256
0.0157625
0.0167213
0.017811
0.019031
0.0203809
0.021862
0.0234738
0.0252083
0.0270448
0.0289504
0.0308825
0.0327908
0.0346207
0.0363243
0.0378594
0.0392112
0.0403665
0.0413395
0.0421026
0.0425374
0.0426633
0.0424231
0.0418039
0.0407389
0.0388851
0.0383841
0.0377098
0.0077534
0.00779426
0.00783771
0.00788386
0.00793337
0.00798597
0.00804229
0.00810208
0.00816614
0.00823412
0.00830708
0.00838479
0.00846874
0.00855885
0.00865702
0.00876351
0.0088808
0.00900941
0.00915216
0.00931044
0.00948752
0.00968484
0.00990593
0.0101535
0.0104319
0.0107455
0.0110984
0.0114958
0.0119434
0.0124485
0.0130188
0.013659
0.0143786
0.015196
0.0161306
0.0171918
0.0183795
0.0196948
0.0211414
0.0227219
0.0244326
0.0262581
0.0281716
0.0301369
0.0321097
0.0340396
0.0358797
0.0375841
0.0391296
0.0404904
0.0416687
0.0426221
0.043226
0.0434888
0.0433621
0.0428407
0.0418519
0.0400662
0.0396084
0.0389279
0.00715244
0.00720104
0.00725206
0.00730548
0.00736202
0.0074212
0.0074837
0.0075491
0.0076183
0.00769078
0.00776778
0.00784889
0.00793579
0.00802813
0.00812803
0.00823554
0.00835327
0.00848154
0.00862326
0.00877981
0.00895451
0.00914878
0.00936627
0.00960971
0.00988344
0.0101917
0.0105383
0.0109281
0.0113663
0.0118601
0.0124165
0.0130406
0.0137413
0.0145354
0.0154427
0.0164716
0.0176225
0.0188979
0.0203031
0.0218435
0.023519
0.0253188
0.0272214
0.029197
0.031207
0.033206
0.0351492
0.0369893
0.0386977
0.0402389
0.0416058
0.0427446
0.0435238
0.0439447
0.0439621
0.0435784
0.0427142
0.0410526
0.040687
0.0400493
0.0065181
0.0065731
0.0066299
0.00668871
0.00675016
0.00681389
0.00688054
0.0069498
0.00702242
0.00709799
0.00717747
0.00726059
0.00734877
0.00744187
0.00754172
0.00764858
0.0077649
0.00789117
0.00803019
0.00818345
0.00835425
0.00854398
0.00875631
0.00899395
0.00926114
0.00956208
0.00990052
0.010281
0.0107082
0.0111891
0.0117308
0.0123376
0.013018
0.0137889
0.0146683
0.0156647
0.0167788
0.0180141
0.0193772
0.0208758
0.022513
0.0242818
0.0261656
0.0281402
0.0301727
0.0322228
0.0342485
0.0362027
0.0380533
0.0397581
0.0413033
0.0426245
0.0435863
0.0441794
0.0443636
0.044147
0.0434418
0.04194
0.0416952
0.041125
0.00580846
0.00586977
0.00593264
0.00599724
0.00606413
0.00613294
0.00620417
0.0062775
0.00635365
0.00643217
0.00651409
0.00659908
0.00668867
0.00678252
0.00688263
0.00698905
0.00710432
0.00722872
0.00736508
0.00751485
0.0076813
0.0078658
0.00807207
0.00830283
0.0085622
0.00885446
0.00918344
0.00955348
0.00996895
0.0104365
0.010963
0.0115526
0.0122138
0.0129615
0.0138148
0.0147808
0.0158608
0.0170593
0.0183839
0.0198443
0.0214461
0.0231858
0.0250511
0.0270227
0.0290732
0.0311669
0.0332652
0.0353217
0.0373025
0.0391601
0.0408756
0.0423765
0.0435229
0.0442987
0.044664
0.0446321
0.0441046
0.042781
0.0426699
0.0421756
0.00506135
0.00512654
0.00519252
0.00525983
0.005329
0.00539986
0.00547291
0.00554799
0.00562564
0.00570552
0.00578837
0.00587398
0.00596351
0.00605692
0.00615575
0.00626037
0.00637302
0.00649422
0.00662659
0.00677177
0.00693288
0.00711127
0.00731067
0.00753376
0.00778448
0.00806723
0.00838601
0.00874511
0.00914856
0.0096028
0.0101146
0.0106878
0.0113302
0.0120577
0.012887
0.0138261
0.0148762
0.0160427
0.0173342
0.018762
0.020334
0.0220497
0.0239006
0.0258719
0.0279409
0.0300765
0.0322435
0.0343968
0.0365013
0.0385061
0.0403884
0.0420685
0.0434041
0.0443691
0.0449258
0.0450901
0.044752
0.0436148
0.0436415
0.0432219
0.0042151
0.0042848
0.00435533
0.00442701
0.00450043
0.0045752
0.00465184
0.00472995
0.00481027
0.0048922
0.00497675
0.00506345
0.00515377
0.00524724
0.00534576
0.00544932
0.00556034
0.00567902
0.00580807
0.00594899
0.00610493
0.00627719
0.00646954
0.00668467
0.00692641
0.00719925
0.0075075
0.00785555
0.00824709
0.00868848
0.00918616
0.00974409
0.0103703
0.0110787
0.0118875
0.0128034
0.0138284
0.0149686
0.0162336
0.017636
0.0191859
0.0208853
0.0227289
0.0247061
0.0267984
0.0289789
0.0312157
0.033465
0.0356914
0.0378409
0.039888
0.0417469
0.0432725
0.0444315
0.0451849
0.0455505
0.0454049
0.0444544
0.0446168
0.0442656
0.00332756
0.00340003
0.00347279
0.00354637
0.00362129
0.00369728
0.00377485
0.00385376
0.00393453
0.00401673
0.00410103
0.00418715
0.0042762
0.00436805
0.00446416
0.00456485
0.00467228
0.00478686
0.00491112
0.00504671
0.00519666
0.00536223
0.00554717
0.00575412
0.00598674
0.00624957
0.00654733
0.00688455
0.00726462
0.00769376
0.0081785
0.00872258
0.00933343
0.0100264
0.0108172
0.0117139
0.0127184
0.0138378
0.0150826
0.0164665
0.0180015
0.019692
0.0215357
0.0235254
0.0256467
0.0278765
0.0301859
0.0325328
0.0348814
0.0371757
0.0393883
0.0414276
0.0431472
0.0445042
0.0454592
0.0460296
0.0460785
0.0453124
0.0456066
0.0453158
0.00234472
0.00242014
0.00249578
0.00257211
0.00264954
0.00272779
0.00280721
0.0028875
0.00296922
0.00305184
0.00313618
0.00322187
0.0033102
0.00340078
0.00349532
0.00359385
0.00369866
0.00380991
0.00393013
0.00406091
0.00420524
0.00436434
0.00454201
0.0047409
0.00496448
0.00521749
0.00550505
0.00583187
0.00620103
0.00661878
0.00709146
0.00762295
0.00822134
0.00889959
0.00967594
0.0105569
0.0115454
0.0126493
0.01388
0.0152523
0.01678
0.0184696
0.0203214
0.0223314
0.0244889
0.0267741
0.0291611
0.031609
0.0340823
0.0365232
0.0389026
0.0411239
0.0430388
0.0445972
0.045756
0.0465317
0.0467731
0.0461867
0.0466071
0.0463677
0.00131645
0.00139226
0.00146759
0.00154327
0.00161974
0.00169692
0.00177518
0.00185445
0.00193502
0.00201657
0.00209951
0.00218366
0.00226988
0.00235812
0.0024496
0.00254472
0.00264542
0.00275214
0.00286723
0.00299242
0.0031306
0.00328297
0.00345331
0.00364421
0.003859
0.00410254
0.00438036
0.00469728
0.00505621
0.00546332
0.00592515
0.00644547
0.00703177
0.00769911
0.00846281
0.00933134
0.0103076
0.0114005
0.0126221
0.0139884
0.0155151
0.0172103
0.0190769
0.0211138
0.0233136
0.0256598
0.0281291
0.0306821
0.0332833
0.0358736
0.0384227
0.0408295
0.0429447
0.0447085
0.0460748
0.0470577
0.0474913
0.0470805
0.0476227
0.047427
0.000170298
0.000247635
0.000324728
0.000402161
0.000480429
0.00055919
0.000638856
0.000719042
0.000800324
0.000882022
0.000964938
0.00104855
0.00113413
0.00122111
0.00131116
0.00140421
0.00150247
0.00160599
0.00171721
0.00183776
0.00197053
0.00211671
0.00228015
0.00246345
0.00266984
0.00290437
0.00317294
0.00348053
0.00382987
0.00422719
0.00467894
0.00518911
0.00576613
0.00642246
0.00717657
0.00803524
0.00900254
0.0100885
0.0113057
0.0126716
0.0142032
0.0159106
0.0177988
0.0198695
0.0221184
0.0245319
0.0270891
0.0297521
0.0324856
0.0352289
0.0379511
0.0405468
0.042865
0.0448377
0.0464138
0.047604
0.0482276
0.0479878
0.0486467
0.0484876
-0.00101999
-0.000942735
-0.000866232
-0.000789633
-0.000712517
-0.000635064
-0.000556878
-0.00047814
-0.000398518
-0.000318483
-0.000237633
-0.000156243
-7.34832e-05
1.05184e-05
9.69212e-05
0.000186049
0.000279805
0.000378528
0.000484471
0.000599414
0.000726172
0.000865879
0.0010224
0.0011983
0.00139665
0.00162265
0.00188251
0.00218134
0.00252174
0.00290992
0.00335262
0.00385382
0.00442133
0.00507015
0.00581562
0.00666678
0.00762785
0.00870984
0.00992633
0.0112957
0.0128367
0.0145611
0.0164759
0.0185858
0.020889
0.023375
0.0260251
0.0288026
0.0316727
0.0345733
0.037473
0.0402625
0.04279
0.044977
0.0467674
0.0481671
0.0489812
0.0489098
0.0496822
0.0495544
-0.00231709
-0.00223928
-0.00216212
-0.0020849
-0.00200728
-0.00192947
-0.00185125
-0.00177287
-0.00169396
-0.00161508
-0.00153562
-0.001456
-0.0013751
-0.00129342
-0.00120943
-0.00112316
-0.00103251
-0.00093746
-0.000835698
-0.000725537
-0.000604146
-0.000470411
-0.000320394
-0.000151523
3.92141e-05
0.000257167
0.000508801
0.000799391
0.0011314
0.00151115
0.00194532
0.00243821
0.00299874
0.00363912
0.00437836
0.00522369
0.00618067
0.00726149
0.00848049
0.00985721
0.011412
0.0131583
0.0151052
0.0172598
0.019623
0.0221871
0.0249356
0.027833
0.0308448
0.0339077
0.0369896
0.039978
0.0427189
0.0451248
0.0471327
0.0487432
0.0497468
0.0498407
0.0507227
0.0506212
-0.00365978
-0.0035839
-0.00350939
-0.00343508
-0.00336063
-0.00328599
-0.00321091
-0.00313539
-0.00305932
-0.00298304
-0.00290643
-0.00282963
-0.00275206
-0.00267375
-0.00259377
-0.0025117
-0.0024258
-0.00233571
-0.00223933
-0.00213475
-0.00201925
-0.00189171
-0.00174819
-0.00158615
-0.00140267
-0.00119231
-0.000948427
-0.0006656
-0.000341466
3.02799e-05
0.000456709
0.000942103
0.00149478
0.00212988
0.00286301
0.00370398
0.00465853
0.00574002
0.00696368
0.00835021
0.00992166
0.0116932
0.0136758
0.0158791
0.0183068
0.0209535
0.0238051
0.0268272
0.0299858
0.033216
0.0364853
0.0396787
0.0426411
0.0452727
0.0475038
0.0493285
0.0505234
0.0507814
0.0517712
0.051693
-0.00512952
-0.00505394
-0.00497933
-0.00490487
-0.0048301
-0.00475531
-0.00468015
-0.00460502
-0.00452945
-0.00445423
-0.0043787
-0.00430347
-0.00422738
-0.00415113
-0.00407318
-0.00399368
-0.00391053
-0.00382385
-0.00373133
-0.00363125
-0.00352076
-0.00339881
-0.00326131
-0.00310571
-0.00292912
-0.00272594
-0.00248938
-0.00221392
-0.0018973
-0.00153307
-0.00111421
-0.000636061
-8.90129e-05
0.000539033
0.00126784
0.00210527
0.00305858
0.00414241
0.00537287
0.00677187
0.00836317
0.0101636
0.012186
0.0144426
0.0169396
0.0196741
0.0226341
0.0257866
0.0290975
0.032501
0.0359637
0.0393687
0.0425579
0.0454209
0.0478794
0.0499204
0.0513068
0.0517272
0.0528217
0.0527635
-0.00664086
-0.00656707
-0.00649477
-0.00642283
-0.00635087
-0.006279
-0.00620688
-0.00613466
-0.00606215
-0.00598988
-0.00591765
-0.00584575
-0.00577355
-0.0057012
-0.00562773
-0.00555284
-0.00547474
-0.0053932
-0.00530612
-0.00521157
-0.00510679
-0.00499077
-0.00485936
-0.00471008
-0.00454011
-0.00434376
-0.00411418
-0.00384578
-0.00353637
-0.00317951
-0.00276776
-0.00229646
-0.0017566
-0.00113282
-0.000409038
0.000425569
0.0013784
0.00246548
0.00370382
0.00511672
0.00672958
0.00856112
0.010626
0.0129392
0.015509
0.0183357
0.0214081
0.0246966
0.028165
0.0317485
0.0354096
0.0390334
0.042459
0.0455615
0.0482541
0.0505158
0.0520964
0.0526793
0.0538774
0.0538379
-0.00826623
-0.00819324
-0.00812154
-0.00805016
-0.0079788
-0.00790763
-0.00783649
-0.00776562
-0.00769476
-0.00762457
-0.00755458
-0.00748526
-0.00741557
-0.00734616
-0.00727555
-0.00720387
-0.00712906
-0.0070513
-0.00696831
-0.00687833
-0.00677852
-0.00666791
-0.00654224
-0.00639902
-0.00623543
-0.00604566
-0.00582284
-0.00556132
-0.00525903
-0.00490938
-0.00450497
-0.00404072
-0.00350624
-0.00288937
-0.00216937
-0.00133752
-0.000384702
0.000706499
0.00195411
0.00338268
0.00501957
0.00688503
0.00899592
0.0113695
0.0140166
0.0169401
0.0201309
0.0235609
0.0271933
0.0309631
0.03483
0.0386801
0.0423483
0.0456969
0.0486284
0.0511137
0.0528896
0.0536338
0.054933
0.0549099
-0.00993722
-0.00986761
-0.00979995
-0.00973281
-0.00966586
-0.00959899
-0.00953201
-0.00946489
-0.00939766
-0.00933075
-0.0092642
-0.0091982
-0.00913233
-0.00906666
-0.00900039
-0.00893315
-0.00886326
-0.00879051
-0.00871284
-0.00862825
-0.00853398
-0.00842908
-0.00830925
-0.00817208
-0.00801476
-0.00783142
-0.00761526
-0.0073606
-0.00706542
-0.0067232
-0.00632605
-0.00586897
-0.00534214
-0.00472979
-0.00401502
-0.00318587
-0.00223289
-0.00113733
0.000120014
0.00156496
0.00322698
0.0051279
0.00728688
0.00972344
0.0124513
0.0154756
0.0187892
0.0223664
0.0261688
0.0301325
0.0342112
0.0382957
0.0422163
0.0458198
0.0489975
0.0517113
0.0536857
0.054592
0.0559915
0.0559846
-0.011744
-0.0116756
-0.0116086
-0.011542
-0.0114752
-0.0114085
-0.0113417
-0.0112751
-0.0112085
-0.0111427
-0.0110772
-0.0110128
-0.0109483
-0.0108846
-0.0108201
-0.0107552
-0.0106878
-0.0106182
-0.010544
-0.0104636
-0.010374
-0.0102743
-0.01016
-0.0100287
-0.00987759
-0.00970068
-0.00949122
-0.00924354
-0.00895574
-0.00862114
-0.00823198
-0.00778278
-0.00726222
-0.0066578
-0.00594753
-0.00512144
-0.00416844
-0.00306799
-0.0018001
-0.000337265
0.00135166
0.00329064
0.0055006
0.00800392
0.0108166
0.0139468
0.0173888
0.0211195
0.025099
0.029264
0.0335627
0.0378901
0.0420696
0.0459344
0.0493632
0.0523086
0.054483
0.0555506
0.0570479
0.0570556
-0.0135867
-0.013521
-0.0134572
-0.0133937
-0.0133303
-0.0132671
-0.0132037
-0.0131404
-0.013077
-0.0130143
-0.0129522
-0.0128911
-0.0128305
-0.0127706
-0.0127106
-0.0126504
-0.0125879
-0.0125234
-0.0124546
-0.0123797
-0.0122956
-0.0122016
-0.0120932
-0.0119681
-0.0118233
-0.0116529
-0.0114504
-0.01121
-0.0109299
-0.0106036
-0.0102227
-0.00978205
-0.00927062
-0.00867202
-0.00796827
-0.00714561
-0.00619273
-0.00508756
-0.00380901
-0.00232806
-0.000611437
0.00136667
0.00362946
0.00620187
0.00910269
0.0123427
0.015918
0.0198082
0.0239714
0.0283462
0.0328725
0.0374508
0.0418988
0.0460336
0.0497208
0.0529029
0.0552807
0.0565104
0.0581051
0.0581279
-0.0155437
-0.0154794
-0.0154164
-0.0153538
-0.0152911
-0.0152286
-0.0151661
-0.0151041
-0.0150423
-0.0149816
-0.0149215
-0.0148629
-0.0148046
-0.0147476
-0.0146903
-0.0146331
-0.0145738
-0.014513
-0.0144483
-0.0143779
-0.0142989
-0.0142105
-0.0141081
-0.0139891
-0.013851
-0.0136875
-0.0134922
-0.0132595
-0.0129878
-0.0126704
-0.0122991
-0.011868
-0.0113646
-0.010776
-0.010078
-0.0092596
-0.00830705
-0.00719702
-0.00590712
-0.004407
-0.002661
-0.000641592
0.00167691
0.00432187
0.00731518
0.01067
0.0143847
0.0184409
0.0227957
0.0273885
0.0321518
0.0369898
0.0417126
0.0461229
0.0500731
0.0534951
0.0560778
0.0574691
0.0591584
0.0591954
-0.0175349
-0.0174746
-0.0174163
-0.0173585
-0.0173007
-0.0172429
-0.0171849
-0.0171268
-0.0170688
-0.0170114
-0.0169549
-0.0168996
-0.0168452
-0.0167921
-0.0167393
-0.0166868
-0.0166328
-0.0165774
-0.0165184
-0.016454
-0.016381
-0.016299
-0.016203
-0.0160908
-0.0159596
-0.0158034
-0.0156159
-0.0153916
-0.0151291
-0.0148216
-0.0144606
-0.01404
-0.0135481
-0.0129671
-0.0122775
-0.0114636
-0.0105119
-0.00939731
-0.00809646
-0.00657711
-0.00480149
-0.00273975
-0.000364139
0.00235585
0.00544459
0.00891858
0.0127774
0.0170064
0.0215597
0.0263804
0.0313889
0.0364955
0.0415012
0.046195
0.050415
0.054082
0.0568729
0.0584267
0.0602106
0.0602625
-0.0196605
-0.0196016
-0.019544
-0.0194865
-0.0194287
-0.0193709
-0.0193128
-0.0192552
-0.0191975
-0.0191412
-0.0190856
-0.0190319
-0.0189788
-0.0189277
-0.0188768
-0.0188269
-0.0187757
-0.0187239
-0.0186691
-0.0186095
-0.018542
-0.0184661
-0.0183767
-0.0182716
-0.018148
-0.0179996
-0.0178206
-0.0176056
-0.0173533
-0.0170568
-0.0167074
-0.0162988
-0.015817
-0.0152482
-0.0145661
-0.0137577
-0.0128074
-0.0116885
-0.0103764
-0.00883703
-0.00703038
-0.00492433
-0.00248883
0.000309634
0.00349823
0.00709647
0.0111058
0.0155143
0.0202747
0.0253318
0.030596
0.0359799
0.0412744
0.0462563
0.0507499
0.0546648
0.0576656
0.0593812
0.0612571
0.0613236
-0.0218064
-0.0217503
-0.021696
-0.0216421
-0.0215878
-0.0215338
-0.0214793
-0.0214252
-0.021371
-0.0213181
-0.0212662
-0.0212163
-0.0211677
-0.0211211
-0.0210754
-0.0210309
-0.0209856
-0.0209399
-0.0208915
-0.0208386
-0.0207779
-0.0207092
-0.0206272
-0.02053
-0.0204146
-0.0202749
-0.0201053
-0.0199006
-0.0196595
-0.0193753
-0.0190385
-0.0186427
-0.0181747
-0.0176156
-0.0169438
-0.0161416
-0.0151936
-0.0140712
-0.0127485
-0.0111897
-0.00935188
-0.00720091
-0.00470403
-0.00182496
0.00146678
0.00519336
0.00935863
0.013953
0.0189284
0.0242314
0.029761
0.0354307
0.0410213
0.0462984
0.0510723
0.05524
0.0584539
0.0603323
0.0623004
0.062383
-0.0240625
-0.0240079
-0.0239547
-0.0239016
-0.0238483
-0.023795
-0.0237417
-0.0236891
-0.0236367
-0.023586
-0.0235364
-0.0234893
-0.0234431
-0.0233996
-0.0233569
-0.0233159
-0.0232742
-0.023233
-0.0231895
-0.0231423
-0.0230881
-0.0230266
-0.0229525
-0.0228638
-0.0227576
-0.0226276
-0.0224686
-0.0222755
-0.0220471
-0.0217762
-0.0214537
-0.0210724
-0.0206169
-0.0200726
-0.0194103
-0.0186157
-0.0176708
-0.0165454
-0.0152122
-0.0136333
-0.0117633
-0.0095654
-0.00700452
-0.00404122
-0.00064196
0.00321836
0.00754587
0.0123333
0.017532
0.02309
0.0288952
0.0348597
0.0407521
0.0463284
0.0513858
0.0558093
0.0592379
0.0612784
0.0633363
0.063435
-0.0263558
-0.0263067
-0.0262591
-0.0262113
-0.0261626
-0.0261134
-0.0260634
-0.0260131
-0.0259627
-0.0259136
-0.0258659
-0.0258206
-0.0257771
-0.0257366
-0.0256979
-0.0256615
-0.0256254
-0.0255902
-0.0255536
-0.0255137
-0.0254675
-0.0254146
-0.0253497
-0.0252708
-0.0251751
-0.0250562
-0.0249094
-0.0247294
-0.0245152
-0.0242596
-0.0239526
-0.023587
-0.0231483
-0.0226159
-0.0219664
-0.0211803
-0.0202398
-0.0191126
-0.01777
-0.0161717
-0.0142695
-0.0120242
-0.00939788
-0.00634814
-0.00283807
0.00116025
0.00565549
0.0106424
0.0160724
0.0218945
0.0279853
0.0342529
0.0404542
0.0463365
0.0516842
0.0563683
0.0600148
0.0622187
0.0643671
0.0644841
-0.0288405
-0.0287866
-0.0287308
-0.0286734
-0.0286142
-0.0285553
-0.028496
-0.0284386
-0.0283819
-0.0283288
-0.0282777
-0.0282311
-0.0281868
-0.0281472
-0.0281098
-0.0280763
-0.0280437
-0.0280136
-0.0279831
-0.0279508
-0.0279131
-0.02787
-0.0278158
-0.0277487
-0.0276655
-0.0275597
-0.0274271
-0.0272624
-0.0270645
-0.0268259
-0.0265366
-0.0261888
-0.0257655
-0.0252508
-0.0246134
-0.0238372
-0.0229021
-0.0217738
-0.0204219
-0.0188038
-0.0168682
-0.0145735
-0.011879
-0.00873909
-0.00511364
-0.000971739
0.00369764
0.00889143
0.0145608
0.0206556
0.0270416
0.0336214
0.0401378
0.0463303
0.0519715
0.056919
0.0607853
0.063152
0.065389
0.0655246
-0.0310236
-0.0309826
-0.0309449
-0.030908
-0.0308712
-0.0308339
-0.0307965
-0.0307588
-0.0307214
-0.0306853
-0.030651
-0.0306193
-0.0305898
-0.0305638
-0.03054
-0.0305193
-0.0304994
-0.0304817
-0.0304636
-0.0304438
-0.0304189
-0.0303891
-0.0303487
-0.0302961
-0.0302281
-0.0301381
-0.0300222
-0.0298752
-0.029696
-0.0294769
-0.0292069
-0.0288785
-0.0284753
-0.0279755
-0.0273537
-0.0265886
-0.0256604
-0.0245323
-0.0231721
-0.0215348
-0.0195659
-0.0172211
-0.0144569
-0.0112245
-0.0074802
-0.00319028
0.00165885
0.00706592
0.0129824
0.0193585
0.0260492
0.0329491
0.0397884
0.0462987
0.0522406
0.0574567
0.0615459
0.064077
0.0664037
0.0665611
-0.0335966
-0.0335504
-0.0335033
-0.0334549
-0.0334052
-0.0333562
-0.0333077
-0.0332617
-0.0332174
-0.0331777
-0.033141
-0.0331101
-0.0330826
-0.0330608
-0.0330422
-0.0330288
-0.0330174
-0.03301
-0.0330035
-0.0329968
-0.0329864
-0.0329722
-0.0329485
-0.0329134
-0.0328637
-0.0327924
-0.0326962
-0.0325698
-0.0324118
-0.0322144
-0.0319666
-0.0316599
-0.0312757
-0.0307974
-0.0301908
-0.0294386
-0.0285181
-0.0273907
-0.0260222
-0.0243649
-0.0223612
-0.019964
-0.017127
-0.013798
-0.00993013
-0.00548638
-0.000450918
0.00517687
0.0113483
0.018014
0.0250179
0.0322472
0.0394165
0.0462496
0.052496
0.0579839
0.0622977
0.0649932
0.067408
0.0675882
-0.0357977
-0.0357655
-0.0357386
-0.0357142
-0.0356911
-0.0356687
-0.035647
-0.0356259
-0.035606
-0.0355886
-0.035574
-0.0355633
-0.035556
-0.0355535
-0.0355545
-0.0355599
-0.0355677
-0.0355791
-0.0355918
-0.0356044
-0.0356136
-0.0356195
-0.0356165
-0.0356027
-0.0355746
-0.0355254
-0.0354519
-0.035349
-0.0352151
-0.0350423
-0.0348187
-0.034536
-0.0341765
-0.0337167
-0.0331293
-0.0323911
-0.0314796
-0.0303538
-0.0289777
-0.0273008
-0.025262
-0.0228114
-0.0199
-0.0164718
-0.0124766
-0.00787429
-0.00264667
0.00320839
0.0096423
0.0166056
0.0239317
0.0314984
0.0390063
0.0461712
0.0527299
0.058495
0.063037
0.0658991
0.0684036
0.0686105
-0.0384421
-0.0384013
-0.0383613
-0.0383222
-0.0382837
-0.038248
-0.0382146
-0.0381859
-0.0381608
-0.0381422
-0.0381288
-0.0381231
-0.0381228
-0.03813
-0.0381423
-0.0381613
-0.0381842
-0.0382128
-0.0382443
-0.0382771
-0.038308
-0.0383367
-0.0383575
-0.0383683
-0.0383653
-0.0383412
-0.0382937
-0.0382173
-0.0381106
-0.0379651
-0.0377689
-0.037513
-0.0371768
-0.0367426
-0.0361737
-0.035451
-0.0345495
-0.0334255
-0.0320412
-0.0303435
-0.0282678
-0.0257611
-0.0227717
-0.01924
-0.0151122
-0.0103452
-0.00491854
0.00117146
0.00787565
0.0151445
0.0228012
0.0307147
0.0385694
0.046072
0.0529476
0.0589932
0.0637654
0.0667944
0.0693875
0.0696231
-0.040696
-0.0406674
-0.0406471
-0.0406323
-0.0406217
-0.0406148
-0.0406114
-0.0406112
-0.0406148
-0.0406232
-0.040637
-0.0406569
-0.0406826
-0.040715
-0.0407531
-0.0407974
-0.0408461
-0.0409002
-0.0409577
-0.0410166
-0.0410739
-0.0411296
-0.0411778
-0.0412164
-0.0412417
-0.0412458
-0.0412272
-0.0411803
-0.0411035
-0.0409883
-0.0408215
-0.0405944
-0.0402873
-0.0398755
-0.0393292
-0.0386233
-0.0377327
-0.0366114
-0.0352194
-0.0335009
-0.0313875
-0.0288236
-0.0257541
-0.0221159
-0.0178515
-0.0129147
-0.00728289
-0.000951092
0.00603109
0.0136135
0.0216095
0.0298781
0.0380892
0.0459396
0.0531408
0.0594727
0.0644787
0.0676775
0.0703616
0.0706308
-0.043374
-0.043345
-0.0433224
-0.0433048
-0.043291
-0.0432821
-0.0432774
-0.0432783
-0.0432839
-0.043297
-0.0433167
-0.0433452
-0.0433807
-0.0434253
-0.0434771
-0.0435376
-0.0436044
-0.0436789
-0.0437589
-0.0438423
-0.0439259
-0.0440094
-0.0440866
-0.0441552
-0.044211
-0.0442458
-0.0442586
-0.0442439
-0.0441996
-0.0441168
-0.0439824
-0.0437867
-0.0435072
-0.0431254
-0.0426008
-0.0419133
-0.0410344
-0.0399156
-0.038515
-0.0367741
-0.0346209
-0.0319966
-0.0288432
-0.0250937
-0.0206871
-0.0155739
-0.0097296
-0.00314792
0.00412029
0.0120246
0.0203684
0.029002
0.0375784
0.0457836
0.0533153
0.059937
0.0651792
0.0685488
0.0713237
0.0716299
-0.0460176
-0.0459912
-0.0459726
-0.0459605
-0.0459531
-0.0459515
-0.0459549
-0.0459646
-0.0459805
-0.0460047
-0.0460376
-0.0460805
-0.0461328
-0.0461959
-0.0462685
-0.0463511
-0.0464419
-0.0465416
-0.0466482
-0.0467593
-0.0468717
-0.046985
-0.047093
-0.0471932
-0.0472813
-0.0473486
-0.047395
-0.0474145
-0.0474047
-0.0473569
-0.0472565
-0.0470942
-0.0468483
-0.0464924
-0.0459941
-0.0453257
-0.0444594
-0.0433438
-0.0419349
-0.0401714
-0.0379776
-0.0352915
-0.0320519
-0.0281878
-0.0236346
-0.0183396
-0.0122761
-0.00543708
0.00212533
0.0103598
0.0190606
0.0280681
0.0370204
0.0455913
0.0534628
0.0603802
0.0658625
0.0694064
0.0722755
0.0726246
-0.0488099
-0.0487869
-0.0487719
-0.0487636
-0.0487611
-0.0487657
-0.0487766
-0.0487952
-0.0488208
-0.0488561
-0.0489004
-0.0489562
-0.0490218
-0.0490994
-0.0491875
-0.0492873
-0.0493971
-0.049518
-0.0496481
-0.0497847
-0.0499249
-0.0500677
-0.0502068
-0.0503395
-0.0504609
-0.0505623
-0.0506438
-0.0506992
-0.050726
-0.0507147
-0.0506508
-0.0505241
-0.0503096
-0.0499872
-0.0495135
-0.0488656
-0.0480124
-0.0468996
-0.0454815
-0.0436938
-0.0414568
-0.0387056
-0.0353756
-0.0313919
-0.026686
-0.021202
-0.0149115
-0.00780654
5.87067e-05
0.00863236
0.0176993
0.0270915
0.0364294
0.0453733
0.0535896
0.0608065
0.0665315
0.0702514
0.0732157
0.0736115
-0.0516339
-0.0516191
-0.0516129
-0.0516141
-0.0516214
-0.0516358
-0.0516571
-0.0516863
-0.0517238
-0.0517717
-0.051831
-0.0519027
-0.0519868
-0.0520843
-0.0521946
-0.0523178
-0.0524526
-0.0525996
-0.0527572
-0.0529223
-0.0530921
-0.0532659
-0.0534371
-0.053603
-0.0537587
-0.053895
-0.0540128
-0.0541053
-0.0541699
-0.0541968
-0.0541704
-0.0540802
-0.0539023
-0.0536087
-0.0531637
-0.052537
-0.0516978
-0.0505886
-0.0491616
-0.0473495
-0.0450687
-0.0422508
-0.038828
-0.034721
-0.0298578
-0.0241788
-0.0176541
-0.0102749
-0.002098
0.00682387
0.0162671
0.0260538
0.0357883
0.0451167
0.0536873
0.0612097
0.0671818
0.0710818
0.0741455
0.0745942
-0.0546026
-0.0545984
-0.0546038
-0.0546169
-0.0546369
-0.0546646
-0.0546997
-0.0547431
-0.0547948
-0.0548572
-0.0549305
-0.0550169
-0.0551155
-0.0552282