/*--------------------------------*- C++ -*----------------------------------*\
  =========                 |
  \\      /  F ield         | OpenFOAM: The Open Source CFD Toolbox
   \\    /   O peration     | Website:  https://openfoam.org
    \\  /    A nd           | Version:  6.0
     \\/     M anipulation  |
\*---------------------------------------------------------------------------*/
FoamFile
{
    version     2.0;
    format      ascii;
    class       surfaceScalarField;
    location    "9";
    object      phi;
}
// * * * * * * * * * * * * * * * * * * * * * * * * * * * * * * * * * * * * * //

dimensions      [0 3 -1 0 0 0 0];

internalField   nonuniform List<scalar> 
123526
(
-2.68597e-05
2.33263e-05
2.72496e-05
-2.64334e-05
2.52226e-05
-2.59752e-05
2.72732e-05
-2.54768e-05
2.94908e-05
-2.49403e-05
3.18889e-05
-2.43575e-05
3.44824e-05
-2.37297e-05
3.72871e-05
-2.30482e-05
4.03204e-05
-2.23132e-05
4.35999e-05
-2.15148e-05
4.71468e-05
-2.06549e-05
5.09834e-05
-1.97218e-05
5.51326e-05
-1.87169e-05
5.96199e-05
-1.76243e-05
6.44705e-05
-1.64442e-05
6.97153e-05
-1.51647e-05
7.53907e-05
-1.37857e-05
8.15281e-05
-1.2285e-05
8.81585e-05
-1.06628e-05
9.53309e-05
-8.90625e-06
0.00010309
-7.00349e-06
0.000111472
-4.93677e-06
0.000120534
-2.70673e-06
0.000130337
-2.78201e-07
0.000140917
2.34588e-06
0.000152362
5.19432e-06
0.00016472
8.28206e-06
0.000178066
1.16277e-05
0.000192482
1.52586e-05
0.000208031
1.9191e-05
0.000224816
2.34579e-05
0.000242902
2.80784e-05
0.000262398
3.30842e-05
0.000283381
3.85055e-05
0.000305949
4.43738e-05
0.000330194
5.07362e-05
0.00035619
5.76175e-05
0.000384036
6.50607e-05
0.000413785
7.31091e-05
0.000445488
8.1797e-05
0.00047918
9.11651e-05
0.000514843
0.000101256
0.000552417
0.000112099
0.000591795
0.000123718
0.000632777
0.00013613
0.000675063
0.00014934
0.000718222
0.000163341
0.000761644
0.000178111
0.000804494
0.000193616
0.000845637
0.000209807
0.000883551
0.0002266
0.000916231
0.000243898
0.000941086
0.00026149
0.000954899
0.000279151
0.000953613
0.00029651
0.000932361
0.000313116
0.000885265
0.000328394
0.00080526
0.000341587
0.00068456
0.000351537
0.000508715
0.000253946
0.000347156
-2.66761e-05
2.29408e-05
2.70577e-05
-2.62583e-05
2.48052e-05
-2.58088e-05
2.68215e-05
-2.53196e-05
2.90019e-05
-2.47925e-05
3.13598e-05
-2.42196e-05
3.39098e-05
-2.36018e-05
3.66676e-05
-2.29309e-05
3.96501e-05
-2.22068e-05
4.28741e-05
-2.14203e-05
4.63612e-05
-2.05725e-05
5.01339e-05
-1.96529e-05
5.42142e-05
-1.86618e-05
5.86272e-05
-1.7585e-05
6.3395e-05
-1.64212e-05
6.85498e-05
-1.51603e-05
7.41311e-05
-1.38008e-05
8.01671e-05
-1.23224e-05
8.66812e-05
-1.07236e-05
9.37307e-05
-8.99369e-06
0.000101361
-7.119e-06
0.000109596
-5.0841e-06
0.0001185
-2.88745e-06
0.000128139
-4.96742e-07
0.000138527
2.08782e-06
0.000149776
4.89236e-06
0.000161916
7.93467e-06
0.000175023
1.12307e-05
0.000189186
1.48103e-05
0.000204451
1.86871e-05
0.00022094
2.28963e-05
0.000238694
2.74542e-05
0.000257841
3.23934e-05
0.000278441
3.77428e-05
0.000300597
4.35332e-05
0.000324403
4.98104e-05
0.000349913
5.65986e-05
0.000377249
6.39387e-05
0.000406447
7.18718e-05
0.000437558
8.04287e-05
0.000470626
8.96463e-05
0.000505629
9.95625e-05
0.000542507
0.000110203
0.000581163
0.000121589
0.000621402
0.000133736
0.000662931
0.000146651
0.000705326
0.000160333
0.000747989
0.000174768
0.000790093
0.000189935
0.000830514
0.000205794
0.000867749
0.000222272
0.00089982
0.000239279
0.000924183
0.000256598
0.000937662
0.000274003
0.000936291
0.000291117
0.000915299
0.000307497
0.000868949
0.000322522
0.00079029
0.00033563
0.000671522
0.00034424
0.000500152
0.000255572
0.00034272
-2.62459e-05
2.25626e-05
2.66201e-05
-2.58369e-05
2.43966e-05
-2.53974e-05
2.63797e-05
-2.49196e-05
2.85242e-05
-2.44051e-05
3.08433e-05
-2.38462e-05
3.33512e-05
-2.32437e-05
3.60634e-05
-2.25897e-05
3.89965e-05
-2.18835e-05
4.21663e-05
-2.11163e-05
4.55948e-05
-2.02889e-05
4.93048e-05
-1.9391e-05
5.33174e-05
-1.84227e-05
5.76571e-05
-1.73698e-05
6.23434e-05
-1.6231e-05
6.74091e-05
-1.49962e-05
7.28975e-05
-1.36639e-05
7.88331e-05
-1.22139e-05
8.52322e-05
-1.06447e-05
9.21601e-05
-8.94553e-06
9.96629e-05
-7.10296e-06
0.000107752
-5.10175e-06
0.000116499
-2.94001e-06
0.000125976
-5.85987e-07
0.000136173
1.96062e-06
0.000147229
4.72498e-06
0.000159152
7.72498e-06
0.000172022
1.09756e-05
0.000185935
1.45066e-05
0.00020092
1.83306e-05
0.000217116
2.24826e-05
0.000234543
2.6978e-05
0.000253346
3.18485e-05
0.000273569
3.7122e-05
0.000295321
4.28277e-05
0.000318696
4.9009e-05
0.000343731
5.56883e-05
0.00037057
6.29044e-05
0.000399231
7.0696e-05
0.000429767
7.90916e-05
0.000462232
8.81257e-05
0.000496597
9.78343e-05
0.000532801
0.000108243
0.000570758
0.000119373
0.000610276
0.000131244
0.000651066
0.000143869
0.000692708
0.000157254
0.000734613
0.000171395
0.000775962
0.000186276
0.000815642
0.000201865
0.000852172
0.000218089
0.000883601
0.000234857
0.000907438
0.000251943
0.000920565
0.000269119
0.000919122
0.000286001
0.000898395
0.000302156
0.000852784
0.000316914
0.000775499
0.000329798
0.000658607
0.0003391
0.0004908
0.000253255
0.000341304
-2.57201e-05
2.21919e-05
2.60872e-05
-2.53196e-05
2.39964e-05
-2.48896e-05
2.59476e-05
-2.44227e-05
2.80575e-05
-2.39204e-05
3.0339e-05
-2.33753e-05
3.28063e-05
-2.2788e-05
3.54744e-05
-2.21509e-05
3.83598e-05
-2.14631e-05
4.14769e-05
-2.0716e-05
4.48485e-05
-1.99101e-05
4.84975e-05
-1.90354e-05
5.24438e-05
-1.80917e-05
5.67118e-05
-1.70651e-05
6.13181e-05
-1.59539e-05
6.62964e-05
-1.47484e-05
7.16933e-05
-1.34464e-05
7.75297e-05
-1.20285e-05
8.38153e-05
-1.04926e-05
9.06229e-05
-8.82836e-06
9.79995e-05
-7.02207e-06
0.000105945
-5.05882e-06
0.000114537
-2.93644e-06
0.000123853
-6.23656e-07
0.000133861
1.87987e-06
0.000144724
4.59851e-06
0.000156434
7.54967e-06
0.000169071
1.07476e-05
0.000182737
1.42216e-05
0.000197445
1.79834e-05
0.000213354
2.20675e-05
0.00023046
2.64883e-05
0.000248926
3.1277e-05
0.000268779
3.64606e-05
0.000290135
4.20667e-05
0.000313088
4.81369e-05
0.00033766
5.46921e-05
0.000364014
6.17696e-05
0.000392153
6.94066e-05
0.000422129
7.76308e-05
0.000454007
8.64758e-05
0.000487751
9.59774e-05
0.000523299
0.000106162
0.000560573
0.000117054
0.000599384
0.000128676
0.000639444
0.000141046
0.00068034
0.000154175
0.000721486
0.000168065
0.000762075
0.000182704
0.000801009
0.000198059
0.000836827
0.000214056
0.000867617
0.000230601
0.000890935
0.000247462
0.000903725
0.000264407
0.000902199
0.000281052
0.000881753
0.000296969
0.000836882
0.000311473
0.000761005
0.00032404
0.000646058
0.000333608
0.000481228
0.000249589
0.000337292
-2.52512e-05
2.18283e-05
2.56106e-05
-2.48587e-05
2.36038e-05
-2.44369e-05
2.55237e-05
-2.39793e-05
2.75997e-05
-2.34867e-05
2.98446e-05
-2.29526e-05
3.22722e-05
-2.23771e-05
3.48973e-05
-2.17532e-05
3.77361e-05
-2.10797e-05
4.08019e-05
-2.03486e-05
4.41179e-05
-1.956e-05
4.77074e-05
-1.87043e-05
5.15891e-05
-1.77811e-05
5.57869e-05
-1.67769e-05
6.03149e-05
-1.56898e-05
6.52076e-05
-1.45102e-05
7.05147e-05
-1.32359e-05
7.62539e-05
-1.18476e-05
8.24279e-05
-1.03435e-05
8.91173e-05
-8.71281e-06
9.63697e-05
-6.94235e-06
0.000104173
-5.01719e-06
0.000112612
-2.93519e-06
0.00012177
-6.65496e-07
0.000131592
1.79207e-06
0.000142266
4.46123e-06
0.000153765
7.35896e-06
0.000166172
1.0499e-05
0.000179597
1.391e-05
0.000194034
1.76032e-05
0.000209661
2.16123e-05
0.000226452
2.59512e-05
0.000244588
3.06505e-05
0.000264078
3.57362e-05
0.000285047
4.12353e-05
0.000307587
4.71881e-05
0.000331707
5.36144e-05
0.000357588
6.05506e-05
0.000385216
6.80332e-05
0.000414646
7.60895e-05
0.00044595
8.47531e-05
0.000479087
9.40603e-05
0.000513991
0.000104039
0.000550594
0.000114715
0.000588707
0.000126114
0.000628044
0.000138257
0.000668196
0.00015116
0.000708584
0.000164825
0.000748409
0.000179242
0.000786589
0.000194377
0.000821689
0.000210153
0.000851829
0.000226473
0.000874622
0.000243101
0.000887071
0.000259804
0.000885485
0.0002762
0.000865323
0.000291867
0.000821192
0.000306131
0.0007467
0.000318372
0.00063378
0.000327631
0.000471912
0.000245687
0.000331418
-2.49025e-05
2.147e-05
2.52575e-05
-2.45152e-05
2.32166e-05
-2.4099e-05
2.51055e-05
-2.36473e-05
2.7148e-05
-2.31612e-05
2.93568e-05
-2.26342e-05
3.17453e-05
-2.20664e-05
3.43281e-05
-2.14511e-05
3.71212e-05
-2.07872e-05
4.01367e-05
-2.00669e-05
4.33983e-05
-1.92902e-05
4.69294e-05
-1.8448e-05
5.07479e-05
-1.75397e-05
5.48772e-05
-1.65522e-05
5.93286e-05
-1.54835e-05
6.41374e-05
-1.43244e-05
6.93568e-05
-1.30726e-05
7.50008e-05
-1.17093e-05
8.10656e-05
-1.02323e-05
8.76391e-05
-8.63153e-06
9.47697e-05
-6.89354e-06
0.000102434
-5.00382e-06
0.000110723
-2.96018e-06
0.000119725
-7.32362e-07
0.000129364
1.67973e-06
0.000139852
4.29927e-06
0.000151145
7.1429e-06
0.000163328
1.02241e-05
0.000176515
1.35707e-05
0.000190687
1.71938e-05
0.000206038
2.11264e-05
0.00022252
2.53821e-05
0.000240332
2.99904e-05
0.000259468
3.49775e-05
0.000280057
4.03692e-05
0.000302193
4.62052e-05
0.000325869
5.25048e-05
0.000351287
5.93037e-05
0.000378416
6.66379e-05
0.00040731
7.45346e-05
0.000438051
8.30279e-05
0.000470591
9.21544e-05
0.000504862
0.000101943
0.000540803
0.000112421
0.000578225
0.000123617
0.000616844
0.000135553
0.000656255
0.000148245
0.000695886
0.000161699
0.000734949
0.000175902
0.00077238
0.000190819
0.000806767
0.000206371
0.000836273
0.000222458
0.000858556
0.000238843
0.000870688
0.000255291
0.000869036
0.000271428
0.000849171
0.000286833
0.000805782
0.00030086
0.000732666
0.000312808
0.000621828
0.000321621
0.000463073
0.000242168
0.000325118
-2.46567e-05
2.11151e-05
2.50078e-05
-2.42733e-05
2.28332e-05
-2.38608e-05
2.46911e-05
-2.34133e-05
2.67004e-05
-2.29314e-05
2.88732e-05
-2.24091e-05
3.1223e-05
-2.18464e-05
3.3764e-05
-2.12369e-05
3.65118e-05
-2.05794e-05
3.94778e-05
-1.98664e-05
4.26859e-05
-1.90981e-05
4.61597e-05
-1.82656e-05
4.99161e-05
-1.73681e-05
5.39783e-05
-1.63932e-05
5.83547e-05
-1.53387e-05
6.30815e-05
-1.41959e-05
6.82149e-05
-1.29624e-05
7.37659e-05
-1.16198e-05
7.97238e-05
-1.0166e-05
8.61841e-05
-8.59105e-06
9.31955e-05
-6.88195e-06
0.000100723
-5.02437e-06
0.000108866
-3.01624e-06
0.000117716
-8.27854e-07
0.000127176
1.54075e-06
0.000137483
4.11232e-06
0.000148574
6.90325e-06
0.000160536
9.92673e-06
0.000173491
1.32102e-05
0.000187403
1.67645e-05
0.000202484
2.06219e-05
0.000218664
2.47958e-05
0.000236159
2.93154e-05
0.000254947
3.42059e-05
0.000275163
3.94934e-05
0.000296903
4.52166e-05
0.000320145
5.13945e-05
0.000345108
5.80624e-05
0.000371747
6.52561e-05
0.000400115
7.30028e-05
0.000430303
8.13369e-05
0.000462256
9.02953e-05
0.000495902
9.99077e-05
0.000531188
0.000110203
0.000567928
0.00012121
0.000605835
0.000132952
0.000644511
0.000145445
0.000683391
0.000158694
0.000721697
0.000172687
0.000758383
0.000187385
0.000792065
0.000202707
0.000820939
0.000218552
0.00084272
0.000234683
0.000854533
0.000250865
0.000852839
0.000266733
0.000833271
0.000281866
0.000790625
0.00029565
0.000718843
0.000307339
0.000610105
0.000315798
0.000454558
0.000238786
0.000319075
-2.44658e-05
2.07642e-05
2.48137e-05
-2.40861e-05
2.24538e-05
-2.36778e-05
2.4281e-05
-2.32344e-05
2.62571e-05
-2.27571e-05
2.83942e-05
-2.22395e-05
3.07055e-05
-2.16819e-05
3.3205e-05
-2.10779e-05
3.59081e-05
-2.04263e-05
3.88249e-05
-1.97201e-05
4.19802e-05
-1.89591e-05
4.53975e-05
-1.81349e-05
4.90928e-05
-1.72467e-05
5.30889e-05
-1.62827e-05
5.73917e-05
-1.52404e-05
6.2038e-05
-1.41117e-05
6.70873e-05
-1.28941e-05
7.25471e-05
-1.15698e-05
7.84004e-05
-1.01366e-05
8.47498e-05
-8.5851e-06
9.16447e-05
-6.90231e-06
9.90396e-05
-5.0744e-06
0.000107039
-3.09935e-06
0.000115739
-9.48107e-07
0.000125025
1.3792e-06
0.000135154
3.90495e-06
0.000146048
6.64531e-06
0.000157795
9.61329e-06
0.000170523
1.28359e-05
0.00018418
1.63237e-05
0.000198996
2.01087e-05
0.00021488
2.4204e-05
0.000232064
2.8638e-05
0.000250511
3.34362e-05
0.000270362
3.86238e-05
0.000291713
4.42394e-05
0.000314528
5.03018e-05
0.000339045
5.68459e-05
0.000365202
6.39072e-05
0.000393053
7.15132e-05
0.000422695
7.96982e-05
0.000454068
8.84997e-05
0.000487098
9.79475e-05
0.000521737
0.000108071
0.0005578
0.0001189
0.000595002
0.000130456
0.000632948
0.000142758
0.000671082
0.000155807
0.000708639
0.000169589
0.000744591
0.000184064
0.000777579
0.000199151
0.000805843
0.000214746
0.000827138
0.000230614
0.000838658
0.000246522
0.000836918
0.000262111
0.000817659
0.000276966
0.000775755
0.000290498
0.000705296
0.000301945
0.000598642
0.000310169
0.000446297
0.000235531
0.000313383
-2.42889e-05
2.04181e-05
2.46311e-05
-2.39149e-05
2.20793e-05
-2.35118e-05
2.3876e-05
-2.30742e-05
2.58192e-05
-2.26024e-05
2.79208e-05
-2.20909e-05
3.01938e-05
-2.15394e-05
3.26521e-05
-2.0942e-05
3.53108e-05
-2.02973e-05
3.8179e-05
-1.95986e-05
4.12819e-05
-1.88456e-05
4.46433e-05
-1.80305e-05
4.82783e-05
-1.71521e-05
5.22092e-05
-1.61991e-05
5.64395e-05
-1.51691e-05
6.10066e-05
-1.40542e-05
6.59732e-05
-1.2852e-05
7.13436e-05
-1.15452e-05
7.70943e-05
-1.01317e-05
8.33351e-05
-8.60236e-06
9.0116e-05
-6.94455e-06
9.73807e-05
-5.14478e-06
0.00010524
-3.20117e-06
0.000113795
-1.08529e-06
0.00012291
1.20262e-06
0.000132866
3.6846e-06
0.000143566
6.37664e-06
0.000155102
9.29156e-06
0.000167608
1.2456e-05
0.000181015
1.58804e-05
0.000195572
1.95962e-05
0.000211165
2.36163e-05
0.000228044
2.79692e-05
0.000246156
3.26793e-05
0.000265649
3.77721e-05
0.000286618
4.32856e-05
0.000309014
4.92386e-05
0.000333091
5.56658e-05
0.000358774
6.26023e-05
0.000386115
7.00757e-05
0.00041522
7.81204e-05
0.000446022
8.67736e-05
0.000478443
9.60656e-05
0.000512443
0.000106026
0.000547838
0.000116684
0.000584343
0.000128061
0.000621569
0.000140174
0.000658969
0.000153023
0.000695788
0.000166594
0.000731018
0.000180843
0.000763328
0.000195689
0.00079099
0.000211026
0.000811813
0.000226625
0.000823042
0.000242252
0.000821278
0.000257558
0.000802324
0.000272131
0.000761162
0.000285403
0.000691992
0.000296617
0.000587398
0.00030468
0.000438188
0.000232187
0.000307937
-2.40966e-05
2.00781e-05
2.44337e-05
-2.37286e-05
2.17113e-05
-2.33321e-05
2.34778e-05
-2.29014e-05
2.53884e-05
-2.2437e-05
2.74549e-05
-2.19333e-05
2.969e-05
-2.13899e-05
3.21074e-05
-2.0801e-05
3.4722e-05
-2.01652e-05
3.75421e-05
-1.9476e-05
4.05931e-05
-1.87331e-05
4.38992e-05
-1.79286e-05
4.74746e-05
-1.70616e-05
5.13411e-05
-1.6121e-05
5.54999e-05
-1.51045e-05
5.9989e-05
-1.40045e-05
6.48741e-05
-1.28186e-05
7.01565e-05
-1.15299e-05
7.58064e-05
-1.01365e-05
8.19406e-05
-8.62943e-06
8.86096e-05
-6.99642e-06
9.57466e-05
-5.22434e-06
0.000103468
-3.31143e-06
0.000111881
-1.22989e-06
0.000120829
1.01998e-06
0.000130615
3.45985e-06
0.000141126
6.10552e-06
0.000152456
8.96966e-06
0.000164743
1.20785e-05
0.000177906
1.54423e-05
0.000192208
1.90922e-05
0.000207516
2.3041e-05
0.000224096
2.73163e-05
0.000241879
3.1943e-05
0.00026102
3.69457e-05
0.000281613
4.23623e-05
0.000303596
4.82116e-05
0.000327241
5.45278e-05
0.000352457
6.1346e-05
0.000379295
6.86935e-05
0.000407871
7.66045e-05
0.000438109
8.51162e-05
0.000469928
9.42586e-05
0.000503298
0.000104061
0.00053803
0.000114552
0.000573847
0.000125753
0.000610361
0.000137679
0.000647035
0.000150328
0.000683128
0.000163685
0.00071765
0.000177705
0.000749296
0.000192304
0.000776378
0.00020738
0.000796746
0.000222704
0.000807708
0.000238046
0.000805919
0.000253067
0.000787278
0.000267356
0.000746853
0.000280365
0.000678964
0.000291351
0.000576393
0.000299287
0.00043021
0.000228789
0.000302632
-2.38767e-05
1.97446e-05
2.42067e-05
-2.35159e-05
2.13503e-05
-2.31269e-05
2.30871e-05
-2.27042e-05
2.49656e-05
-2.22482e-05
2.69974e-05
-2.17534e-05
2.9195e-05
-2.12193e-05
3.15721e-05
-2.06404e-05
3.41432e-05
-2.00151e-05
3.69157e-05
-1.93371e-05
3.99154e-05
-1.86059e-05
4.31668e-05
-1.78139e-05
4.66832e-05
-1.69602e-05
5.04861e-05
-1.60339e-05
5.45742e-05
-1.50326e-05
5.89864e-05
-1.3949e-05
6.37912e-05
-1.27807e-05
6.8987e-05
-1.15113e-05
7.45377e-05
-1.01389e-05
8.05671e-05
-8.65486e-06
8.71262e-05
-7.04708e-06
9.41377e-05
-5.30286e-06
0.000101724
-3.4205e-06
0.000109997
-1.37282e-06
0.000118782
8.39823e-07
0.000128401
3.23876e-06
0.000138727
5.83958e-06
0.000149854
8.65481e-06
0.000161928
1.17102e-05
0.00017485
1.50161e-05
0.000188902
1.8603e-05
0.00020393
2.24834e-05
0.000220215
2.66851e-05
0.000237676
3.12318e-05
0.00025647
3.61487e-05
0.000276694
4.14728e-05
0.000298271
4.72229e-05
0.00032149
5.3433e-05
0.000346245
6.01378e-05
0.000372589
6.73643e-05
0.000400643
7.51465e-05
0.000430325
8.35213e-05
0.000461552
9.25183e-05
0.000494299
0.000102166
0.000528381
0.000112493
0.000563519
0.000123519
0.000599335
0.000135257
0.000635297
0.000147706
0.000670679
0.000160846
0.000704509
0.000174632
0.000735509
0.000188982
0.000762024
0.000203793
0.000781952
0.00021884
0.000792649
0.000233897
0.00079085
0.000248632
0.000772518
0.000262639
0.000732828
0.000275386
0.00066619
0.000286147
0.000565609
0.000293965
0.000422353
0.000225282
0.000297401
-2.36245e-05
1.94182e-05
2.39486e-05
-2.32708e-05
2.0997e-05
-2.28898e-05
2.27046e-05
-2.24757e-05
2.45515e-05
-2.20289e-05
2.65493e-05
-2.15439e-05
2.87101e-05
-2.10205e-05
3.10474e-05
-2.04527e-05
3.35756e-05
-1.98393e-05
3.63011e-05
-1.91738e-05
3.92503e-05
-1.84557e-05
4.24478e-05
-1.76777e-05
4.5906e-05
-1.68387e-05
4.96461e-05
-1.59281e-05
5.36645e-05
-1.49435e-05
5.80007e-05
-1.38778e-05
6.27264e-05
-1.27285e-05
6.78367e-05
-1.14798e-05
7.32898e-05
-1.01296e-05
7.92159e-05
-8.66959e-06
8.56667e-05
-7.08787e-06
9.2555e-05
-5.37206e-06
0.000100009
-3.52052e-06
0.000108145
-1.50666e-06
0.000116768
6.69167e-07
0.000126224
3.02792e-06
0.000136368
5.58498e-06
0.000147296
8.35268e-06
0.00015916
1.13564e-05
0.000171846
1.46063e-05
0.000185652
1.81324e-05
0.000200404
2.19473e-05
0.000216401
2.60777e-05
0.000233544
3.0548e-05
0.000251997
3.53822e-05
0.000271857
4.06173e-05
0.000293034
4.62719e-05
0.000315834
5.23795e-05
0.000340137
5.89745e-05
0.000365993
6.60836e-05
0.000393532
7.37405e-05
0.000422666
8.19813e-05
0.000453309
9.08352e-05
0.000485442
0.000100331
0.000518881
0.000110494
0.000553351
0.000121344
0.000588477
0.000132894
0.000623739
0.00014514
0.000658423
0.000158062
0.000691576
0.000171613
0.000721945
0.000185712
0.000747912
0.000200255
0.000767414
0.000215026
0.000777867
0.000229797
0.000776059
0.000244248
0.000758041
0.000257978
0.000719077
0.000270466
0.000653681
0.000281006
0.000555046
0.000288705
0.00041461
0.000221717
0.000292214
-2.33442e-05
1.90984e-05
2.36601e-05
-2.29985e-05
2.06508e-05
-2.26256e-05
2.23298e-05
-2.22204e-05
2.41459e-05
-2.17829e-05
2.61102e-05
-2.13081e-05
2.8235e-05
-2.07951e-05
3.05332e-05
-2.02389e-05
3.30193e-05
-1.96375e-05
3.56987e-05
-1.89851e-05
3.85981e-05
-1.82809e-05
4.17424e-05
-1.75177e-05
4.51432e-05
-1.66943e-05
4.88215e-05
-1.58005e-05
5.27712e-05
-1.48336e-05
5.70326e-05
-1.37869e-05
6.16803e-05
-1.26577e-05
6.67064e-05
-1.14306e-05
7.20632e-05
-1.01036e-05
7.78877e-05
-8.66835e-06
8.4232e-05
-7.11337e-06
9.0999e-05
-5.4265e-06
9.83227e-05
-3.60612e-06
0.000106324
-1.62616e-06
0.000114788
5.13018e-07
0.000124084
2.83204e-06
0.000134049
5.34605e-06
0.000144782
8.06723e-06
0.000156438
1.10205e-05
0.000168892
1.4216e-05
0.000182456
1.7683e-05
0.000196938
2.1434e-05
0.00021265
2.54959e-05
0.00022948
2.98917e-05
0.000247598
3.46458e-05
0.000267101
3.97944e-05
0.000287885
4.5356e-05
0.000310272
5.13637e-05
0.000334128
5.78514e-05
0.000359504
6.48455e-05
0.000386537
7.2379e-05
0.000415131
8.04875e-05
0.000445199
8.91997e-05
0.000476728
9.85429e-05
0.000509537
0.000108543
0.00054335
0.000119217
0.000577802
0.000130578
0.00061238
0.00014262
0.000646382
0.000155321
0.000678875
0.000168636
0.000708632
0.000182483
0.000734065
0.00019676
0.000753157
0.000211254
0.000763368
0.000225743
0.000761561
0.000239914
0.000743851
0.000253371
0.000705605
0.000265606
0.000641425
0.000275933
0.000544703
0.000283507
0.000407004
0.000218108
0.000287064
-2.30384e-05
1.87856e-05
2.33487e-05
-2.26996e-05
2.03121e-05
-2.23346e-05
2.19633e-05
-2.19379e-05
2.37492e-05
-2.15098e-05
2.56808e-05
-2.1045e-05
2.77701e-05
-2.05431e-05
3.00302e-05
-1.99986e-05
3.24749e-05
-1.94099e-05
3.51089e-05
-1.87709e-05
3.79595e-05
-1.80809e-05
4.10516e-05
-1.7333e-05
4.4396e-05
-1.65258e-05
4.80134e-05
-1.56492e-05
5.18955e-05
-1.47008e-05
5.60833e-05
-1.36738e-05
6.0654e-05
-1.25655e-05
6.55972e-05
-1.13608e-05
7.08592e-05
-1.00577e-05
7.65835e-05
-8.64801e-06
8.28229e-05
-7.12042e-06
8.94704e-05
-5.463e-06
9.66657e-05
-3.67413e-06
0.000104534
-1.72824e-06
0.000112843
3.74361e-07
0.000121981
2.65392e-06
0.00013177
5.12537e-06
0.000142309
7.80069e-06
0.000153762
1.07044e-05
0.000165988
1.38464e-05
0.000179314
1.72557e-05
0.000193529
2.09444e-05
0.000208961
2.49387e-05
0.000225484
2.9262e-05
0.000243272
3.39376e-05
0.000262423
3.90015e-05
0.00028282
4.44719e-05
0.000304801
5.03815e-05
0.000328217
5.67635e-05
0.000353121
6.3644e-05
0.000379655
7.10554e-05
0.000407718
7.90326e-05
0.000437219
8.76034e-05
0.000468154
9.67947e-05
0.000500342
0.000106631
0.000533509
0.000117129
0.000567298
0.000128299
0.000601202
0.000140136
0.000634536
0.000152617
0.000666383
0.000165694
0.00069554
0.000179289
0.000720455
0.000193302
0.000739148
0.000207523
0.000749136
0.000221733
0.000747331
0.000235628
0.000729931
0.000248819
0.000692393
0.000260808
0.000629414
0.000270927
0.000534561
0.000278374
0.000399515
0.000214469
0.000281956
-2.27145e-05
1.84789e-05
2.30179e-05
-2.23829e-05
1.99802e-05
-2.20253e-05
2.16041e-05
-2.16369e-05
2.33604e-05
-2.12176e-05
2.52601e-05
-2.07625e-05
2.73149e-05
-2.02709e-05
2.95375e-05
-1.97377e-05
3.19417e-05
-1.91611e-05
3.45313e-05
-1.85354e-05
3.73339e-05
-1.78597e-05
4.03747e-05
-1.71271e-05
4.36638e-05
-1.63362e-05
4.72214e-05
-1.54772e-05
5.10369e-05
-1.45474e-05
5.51523e-05
-1.35403e-05
5.96474e-05
-1.24532e-05
6.4509e-05
-1.12712e-05
6.96777e-05
-9.99223e-06
7.53035e-05
-8.60841e-06
8.14396e-05
-7.10846e-06
8.79695e-05
-5.48069e-06
9.50384e-05
-3.72348e-06
0.000102775
-1.8117e-06
0.000110931
2.54403e-07
0.000119913
2.49471e-06
0.00012953
4.92394e-06
0.000139879
7.55387e-06
0.000151132
1.04086e-05
0.000163133
1.34979e-05
0.000176225
1.68501e-05
0.000190178
2.04774e-05
0.000205334
2.44056e-05
0.000221555
2.86571e-05
0.000239018
3.32555e-05
0.000257823
3.82359e-05
0.000277838
4.36163e-05
0.00029942
4.94288e-05
0.000322404
5.5706e-05
0.000346842
6.24737e-05
0.000372886
6.97636e-05
0.000400426
7.76098e-05
0.000429371
8.60395e-05
0.000459724
9.50786e-05
0.000491302
0.000104751
0.000523837
0.000115072
0.000556976
0.000126051
0.000590224
0.000137682
0.000622907
0.000149942
0.000654126
0.000162784
0.000682702
0.000176129
0.000707112
0.000189879
0.00072542
0.000203831
0.000735183
0.000217767
0.000733387
0.000231392
0.00071629
0.000244323
0.00067945
0.000256074
0.000617648
0.000265992
0.000524631
0.000273309
0.000392174
0.000210844
0.000276897
-2.23764e-05
1.81785e-05
2.2675e-05
-2.2051e-05
1.96552e-05
-2.17006e-05
2.12524e-05
-2.13198e-05
2.29799e-05
-2.09092e-05
2.48483e-05
-2.04635e-05
2.68692e-05
-1.99822e-05
2.90552e-05
-1.94601e-05
3.14198e-05
-1.88956e-05
3.39659e-05
-1.82828e-05
3.67216e-05
-1.7621e-05
3.97121e-05
-1.69033e-05
4.29468e-05
-1.61286e-05
4.64457e-05
-1.52867e-05
5.0196e-05
-1.43755e-05
5.42401e-05
-1.33882e-05
5.86609e-05
-1.23223e-05
6.34421e-05
-1.1163e-05
6.85191e-05
-9.90828e-06
7.40478e-05
-8.55039e-06
8.00822e-05
-7.07816e-06
8.64963e-05
-5.48011e-06
9.34407e-05
-3.75454e-06
0.000101049
-1.87681e-06
0.000109054
1.52947e-07
0.000117883
2.35423e-06
0.000127328
4.74153e-06
0.000137491
7.32641e-06
0.000148547
1.01326e-05
0.000160326
1.31696e-05
0.000173188
1.64654e-05
0.000186882
2.0032e-05
0.000201768
2.38943e-05
0.00021769
2.80751e-05
0.000234835
3.2597e-05
0.000253299
3.74946e-05
0.00027294
4.27857e-05
0.000294128
4.85017e-05
0.000316687
5.46749e-05
0.000340668
6.13302e-05
0.000366229
6.84989e-05
0.000393256
7.62143e-05
0.000421654
8.45028e-05
0.000451432
9.33896e-05
0.000482411
0.000102897
0.000514325
0.000113041
0.000546826
0.00012383
0.000579429
0.000135256
0.000611472
0.000147296
0.000642074
0.000159903
0.000670081
0.000173
0.000694
0.000186491
0.000711931
0.000200178
0.000721486
0.000213846
0.000719699
0.000227206
0.000702905
0.000239884
0.00066675
0.000251404
0.000606108
0.000261129
0.000514882
0.000268316
0.000384946
0.000207209
0.000271897
-2.20308e-05
1.78836e-05
2.23221e-05
-2.17123e-05
1.93362e-05
-2.13688e-05
2.09073e-05
-2.09958e-05
2.26065e-05
-2.05932e-05
2.44442e-05
-2.01564e-05
2.6432e-05
-1.96845e-05
2.85821e-05
-1.91728e-05
3.0908e-05
-1.86194e-05
3.34115e-05
-1.80189e-05
3.61212e-05
-1.73704e-05
3.90624e-05
-1.66672e-05
4.22439e-05
-1.59078e-05
4.56852e-05
-1.50828e-05
4.93714e-05
-1.41896e-05
5.33457e-05
-1.32217e-05
5.76934e-05
-1.21765e-05
6.23958e-05
-1.10395e-05
6.73826e-05
-9.80867e-06
7.2816e-05
-8.47637e-06
7.87504e-05
-7.03157e-06
8.50506e-05
-5.46296e-06
9.18725e-05
-3.76881e-06
9.93539e-05
-1.92488e-06
0.00010721
6.8821e-08
0.000115888
2.23138e-06
0.000125166
4.57702e-06
0.000135145
7.11717e-06
0.000146006
9.87514e-06
0.000157568
1.28603e-05
0.000170203
1.61001e-05
0.000183643
1.96061e-05
0.000198262
2.34035e-05
0.000213892
2.75137e-05
0.000230722
3.19596e-05
0.000248851
3.67749e-05
0.000268123
4.19771e-05
0.000288925
4.75971e-05
0.000311066
5.36665e-05
0.000334598
6.02097e-05
0.000359684
6.72574e-05
0.000386207
7.4842e-05
0.000414068
8.29894e-05
0.000443284
9.17239e-05
0.000473676
0.000101067
0.000504982
0.000111034
0.00053686
0.000121632
0.000568833
0.000132854
0.000600253
0.000144675
0.000630256
0.000157051
0.00065771
0.000169904
0.000681151
0.00018314
0.000698719
0.000196566
0.000708064
0.000209971
0.000706289
0.000223073
0.00068979
0.000235506
0.00065431
0.000246801
0.000594802
0.000256339
0.000505338
0.000263398
0.000377872
0.000203625
0.000266962
-2.16785e-05
1.75946e-05
2.19655e-05
-2.13657e-05
1.90235e-05
-2.10287e-05
2.0569e-05
-2.06628e-05
2.22406e-05
-2.02681e-05
2.40484e-05
-1.98398e-05
2.60037e-05
-1.93774e-05
2.81188e-05
-1.88759e-05
3.04066e-05
-1.83337e-05
3.28684e-05
-1.77451e-05
3.5533e-05
-1.71095e-05
3.8426e-05
-1.64201e-05
4.15553e-05
-1.56759e-05
4.49401e-05
-1.48671e-05
4.85635e-05
-1.39915e-05
5.24692e-05
-1.30425e-05
5.67452e-05
-1.20177e-05
6.13701e-05
-1.09027e-05
6.62682e-05
-9.69547e-06
7.16078e-05
-8.38844e-06
7.74438e-05
-6.97076e-06
8.36319e-05
-5.43129e-06
9.03334e-05
-3.76824e-06
9.76899e-05
-1.95779e-06
0.0001054
1.9977e-10
0.000113929
2.12439e-06
0.000123041
4.42872e-06
0.00013284
6.92446e-06
0.00014351
9.63453e-06
0.000154857
1.25681e-05
0.000167269
1.57521e-05
0.00018046
1.91982e-05
0.000194816
2.29305e-05
0.000210158
2.69709e-05
0.000226679
3.1341e-05
0.000244479
3.60744e-05
0.000263389
4.1188e-05
0.000283811
4.67124e-05
0.000305541
5.26782e-05
0.000328631
5.91097e-05
0.000353251
6.60365e-05
0.000379279
7.34907e-05
0.000406612
8.14972e-05
0.000435275
9.00797e-05
0.00046509
9.92592e-05
0.000495798
0.00010905
0.000527064
0.000119458
0.000558418
0.000130477
0.000589226
0.000142082
0.000618641
0.000154228
0.000645551
0.00016684
0.000668525
0.000179826
0.000685734
0.000192996
0.000694884
0.000206145
0.00069312
0.000218996
0.000676915
0.000231189
0.000642096
0.000242266
0.000583705
0.000251624
0.000495957
0.000258557
0.000370902
0.000200036
0.000262098
-2.13245e-05
1.73107e-05
2.16055e-05
-2.10177e-05
1.87165e-05
-2.0687e-05
2.02369e-05
-2.0328e-05
2.18813e-05
-1.99406e-05
2.36598e-05
-1.95203e-05
2.55833e-05
-1.90666e-05
2.7664e-05
-1.85746e-05
2.99146e-05
-1.80428e-05
3.23356e-05
-1.74656e-05
3.4956e-05
-1.68423e-05
3.78017e-05
-1.61666e-05
4.08798e-05
-1.54368e-05
4.42093e-05
-1.4644e-05
4.7771e-05
-1.37854e-05
5.16094e-05
-1.28549e-05
5.58151e-05
-1.18498e-05
6.03639e-05
-1.07562e-05
6.5175e-05
-9.57191e-06
7.04225e-05
-8.28958e-06
7.61619e-05
-6.89846e-06
8.22399e-05
-5.38758e-06
8.88228e-05
-3.75512e-06
9.60565e-05
-1.97766e-06
0.000103623
-5.49918e-08
0.000112006
2.03121e-06
0.000120955
4.29462e-06
0.000130576
6.74633e-06
0.000141058
9.40883e-06
0.000152194
1.22912e-05
0.000164386
1.54198e-05
0.000177332
1.8806e-05
0.00019143
2.2474e-05
0.000206489
2.64444e-05
0.000222706
3.07393e-05
0.000240183
3.5391e-05
0.000258736
4.04164e-05
0.000278785
4.58453e-05
0.000300112
5.1708e-05
0.000322767
5.8028e-05
0.000346931
6.48344e-05
0.000372471
7.21584e-05
0.000399287
8.00244e-05
0.000427408
8.84555e-05
0.000456659
9.74719e-05
0.000486783
0.000107087
0.000517449
0.000117307
0.000548201
0.000128125
0.000578412
0.000139516
0.000607254
0.000151436
0.000633637
0.000163812
0.000656155
0.000176552
0.000673019
0.000189472
0.00068197
0.00020237
0.00068022
0.000214975
0.000664301
0.000226935
0.00063013
0.000237802
0.000572832
0.000246986
0.000486773
0.000253796
0.000364084
0.000196517
0.00025731
-2.09694e-05
1.70324e-05
2.12465e-05
-2.06677e-05
1.84154e-05
-2.03431e-05
1.99113e-05
-1.99905e-05
2.15291e-05
-1.96105e-05
2.32787e-05
-1.91981e-05
2.51712e-05
-1.87532e-05
2.72181e-05
-1.82705e-05
2.94323e-05
-1.7749e-05
3.18132e-05
-1.71828e-05
3.43903e-05
-1.65716e-05
3.71897e-05
-1.59087e-05
4.02177e-05
-1.5193e-05
4.34928e-05
-1.44153e-05
4.69941e-05
-1.35732e-05
5.07665e-05
-1.26605e-05
5.49031e-05
-1.16747e-05
5.93772e-05
-1.06019e-05
6.41029e-05
-9.44017e-06
6.92599e-05
-8.18203e-06
7.49042e-05
-6.81696e-06
8.08739e-05
-5.33417e-06
8.73404e-05
-3.73177e-06
9.44532e-05
-1.98679e-06
0.000101878
-9.89442e-08
0.000110117
1.94971e-06
0.000118906
4.17266e-06
0.000128352
6.58075e-06
0.000138649
9.19611e-06
0.000149578
1.20276e-05
0.000161555
1.51012e-05
0.000174259
1.84281e-05
0.000188103
2.20315e-05
0.000202884
2.59328e-05
0.000218803
3.01526e-05
0.000235961
3.4723e-05
0.000254165
3.96606e-05
0.000273846
4.49945e-05
0.000294777
5.07544e-05
0.000317007
5.69634e-05
0.00034072
6.36499e-05
0.000365783
7.08444e-05
0.000392091
7.85707e-05
0.00041968
8.68513e-05
0.000448376
9.57056e-05
0.000477924
0.000105147
0.000508003
0.000115181
0.000538161
0.0001258
0.000567786
0.00013698
0.000596064
0.000148678
0.000621928
0.000160821
0.000643999
0.00017332
0.00066052
0.000185995
0.000669285
0.000198648
0.000667549
0.000211014
0.000651912
0.000222748
0.000618376
0.00023341
0.000562151
0.000242425
0.000477737
0.000249116
0.000357359
0.000192992
0.0002526
-2.06172e-05
1.67587e-05