/*--------------------------------*- C++ -*----------------------------------*\
  =========                 |
  \\      /  F ield         | OpenFOAM: The Open Source CFD Toolbox
   \\    /   O peration     | Website:  https://openfoam.org
    \\  /    A nd           | Version:  6.0
     \\/     M anipulation  |
\*---------------------------------------------------------------------------*/
FoamFile
{
    version     2.0;
    format      ascii;
    class       volScalarField;
    location    "8";
    object      p;
}
// * * * * * * * * * * * * * * * * * * * * * * * * * * * * * * * * * * * * * //

dimensions      [0 2 -2 0 0 0 0];

internalField   nonuniform List<scalar> 
62000
(
0.0334193
0.0341128
0.0347719
0.0353988
0.0360051
0.0365886
0.0371626
0.0377275
0.0382977
0.0388761
0.0394796
0.0401136
0.0407954
0.0415324
0.0423429
0.0432356
0.0442291
0.0453327
0.0465642
0.0479334
0.0494566
0.0511446
0.053011
0.0550681
0.0573261
0.0597988
0.0624932
0.0654233
0.0685937
0.0720181
0.0756968
0.0796327
0.0838089
0.0882087
0.0928051
0.0975632
0.10243
0.107328
0.112146
0.116738
0.120936
0.124534
0.127269
0.128844
0.128969
0.127428
0.124182
0.119475
0.11402
0.108893
0.105527
0.105222
0.108045
0.114032
0.120802
0.125808
0.126608
0.121841
0.116194
0.111879
0.0341219
0.0344026
0.034712
0.0350503
0.0354287
0.0358445
0.0363056
0.0368099
0.0373637
0.0379652
0.0386218
0.0393336
0.0401088
0.0409508
0.0418699
0.0428736
0.0439747
0.0451833
0.0465137
0.0479773
0.0495886
0.0513595
0.0533037
0.0554331
0.057759
0.0602927
0.063043
0.0660186
0.0692259
0.0726724
0.0763661
0.0803067
0.0844816
0.0888601
0.0934119
0.0981102
0.102911
0.10774
0.112489
0.117024
0.121192
0.124808
0.127621
0.129343
0.12969
0.128433
0.125509
0.121119
0.115941
0.111045
0.107934
0.108126
0.111954
0.119839
0.12966
0.138683
0.144105
0.14354
0.143413
0.138214
0.0368538
0.0367569
0.0367314
0.0367692
0.0368801
0.0370616
0.0373188
0.0376506
0.0380613
0.0385498
0.0391207
0.0397729
0.0405107
0.0413339
0.0422483
0.0432569
0.044368
0.0455879
0.046928
0.0483978
0.0500107
0.0517787
0.0537158
0.0558355
0.0581501
0.0606728
0.0634136
0.0663816
0.0695827
0.0730239
0.0767148
0.0806609
0.08485
0.0892482
0.0938234
0.0985493
0.103381
0.10824
0.113018
0.117582
0.121785
0.125444
0.128305
0.130069
0.130429
0.129111
0.125977
0.121122
0.115094
0.10884
0.103783
0.101543
0.102665
0.108005
0.115978
0.12412
0.130024
0.130782
0.133572
0.124776
0.0401435
0.0400638
0.0400497
0.0400931
0.0402027
0.0403782
0.0406243
0.0409421
0.041335
0.0418043
0.0423532
0.0429834
0.0436972
0.044497
0.0453853
0.0463664
0.0474447
0.0486265
0.0499192
0.051332
0.0528755
0.0545616
0.0564034
0.0584157
0.0606117
0.0630068
0.065613
0.0684414
0.0714979
0.0747902
0.0783299
0.0821297
0.0861844
0.0904686
0.0949523
0.0996078
0.104384
0.109202
0.113954
0.118512
0.12274
0.126458
0.12942
0.131327
0.13186
0.130708
0.127669
0.122722
0.116267
0.109087
0.10247
0.0980245
0.0964181
0.0988176
0.104244
0.110646
0.116187
0.117878
0.122635
0.113876
0.0423185
0.0424351
0.0426066
0.0428256
0.0431002
0.0434297
0.043819
0.044269
0.0447845
0.0453666
0.0460208
0.0467485
0.0475535
0.0484375
0.0494041
0.0504558
0.0515966
0.0528301
0.0541617
0.0555979
0.0571464
0.0588164
0.0606189
0.062567
0.064673
0.0669524
0.0694176
0.0720802
0.0749462
0.0780234
0.0813256
0.0848747
0.0886777
0.0927211
0.0969862
0.101444
0.106043
0.110706
0.115336
0.119821
0.124044
0.127843
0.130995
0.133224
0.134223
0.133676
0.131339
0.12711
0.121253
0.114387
0.107627
0.102496
0.0996642
0.100468
0.104324
0.109607
0.114934
0.117547
0.123705
0.117662
0.0440909
0.0443782
0.0447099
0.045081
0.0454996
0.0459666
0.0464874
0.0470642
0.0477014
0.0484017
0.0491694
0.0500082
0.0509209
0.0519117
0.0529828
0.0541387
0.0553816
0.0567158
0.0581436
0.0596704
0.0612996
0.0630373
0.06489
0.0668667
0.0689753
0.0712285
0.0736352
0.0762043
0.0789396
0.0818461
0.0849398
0.0882486
0.0917919
0.0955729
0.0995805
0.103792
0.108158
0.112612
0.117074
0.121455
0.125663
0.129567
0.132979
0.135663
0.137342
0.137711
0.136518
0.1336
0.129118
0.12354
0.117802
0.113282
0.110559
0.110981
0.114263
0.119086
0.124372
0.127712
0.134835
0.131769
0.0456085
0.0460356
0.0465018
0.047002
0.0475433
0.0481264
0.0487562
0.049435
0.0501679
0.050958
0.0518112
0.0527316
0.0537239
0.0547927
0.055942
0.057177
0.058501
0.0599186
0.0614322
0.0630466
0.0647636
0.0665875
0.068521
0.0705695
0.0727362
0.075029
0.0774516
0.0800077
0.0826956
0.0855159
0.0884823
0.091627
0.0949787
0.0985496
0.102341
0.106334
0.110488
0.114748
0.119054
0.123345
0.127556
0.13159
0.135303
0.138501
0.140944
0.142351
0.142473
0.141116
0.138356
0.134531
0.130406
0.1272
0.125352
0.126168
0.129503
0.134271
0.139589
0.143418
0.151167
0.15017
0.0471056
0.0476404
0.048209
0.0488076
0.0494426
0.0501156
0.0508309
0.0515914
0.0524009
0.0532633
0.0541823
0.0551636
0.0562103
0.0573297
0.0585244
0.059803
0.0611685
0.0626288
0.0641864
0.0658486
0.0676169
0.0694963
0.0714884
0.0735969
0.0758218
0.0781678
0.0806337
0.0832179
0.0859126
0.0887122
0.0916276
0.0946898
0.0979319
0.101375
0.105024
0.108866
0.112868
0.116989
0.121187
0.125428
0.129675
0.133862
0.137887
0.141599
0.144791
0.147212
0.148626
0.148818
0.147808
0.145826
0.143492
0.14186
0.14122
0.142774
0.146501
0.151446
0.15683
0.160985
0.169182
0.169239
0.0482918
0.0489284
0.0495988
0.0502979
0.0510316
0.0518
0.0526068
0.0534536
0.0543443
0.0552814
0.0562699
0.0573134
0.0584166
0.0595844
0.0608219
0.0621359
0.0635318
0.065017
0.0665966
0.0682788
0.0700674
0.0719689
0.0739862
0.0761238
0.0783815
0.0807629
0.0832645
0.0858815
0.0886012
0.0914132
0.0943236
0.0973626
0.100565
0.103951
0.107532
0.111296
0.115217
0.119266
0.123417
0.127659
0.131979
0.136337
0.14067
0.144863
0.148741
0.152078
0.154656
0.156253
0.156846
0.156581
0.155954
0.155878
0.156498
0.158928
0.163189
0.168422
0.173911
0.178332
0.186893
0.187274
0.049497
0.0502138
0.0509611
0.0517354
0.0525423
0.0533825
0.0542596
0.0551757
0.0561332
0.057135
0.0581837
0.0592836
0.0604369
0.0616498
0.0629248
0.0642702
0.0656899
0.0671933
0.0687847
0.0704745
0.0722672
0.0741714
0.0761915
0.078334
0.0805999
0.0829939
0.0855125
0.0881502
0.0908921
0.0937245
0.0966514
0.0997001
0.102904
0.106288
0.109858
0.113606
0.117511
0.121549
0.125711
0.130002
0.134427
0.138968
0.143593
0.14822
0.152698
0.156826
0.160403
0.163206
0.165185
0.166425
0.167323
0.168669
0.170479
0.173766
0.178616
0.184216
0.189857
0.194569
0.203493
0.203798
0.0504989
0.0512941
0.0521186
0.0529686
0.053849
0.0547605
0.055706
0.0566875
0.0577078
0.0587695
0.0598757
0.06103
0.0622351
0.0634956
0.0648143
0.0661978
0.0676501
0.069179
0.0707893
0.0724911
0.0742896
0.0761944
0.0782116
0.0803496
0.0826113
0.0850037
0.0875248
0.0901702
0.0929252
0.0957757
0.0987239
0.101797
0.10503
0.10844
0.11204
0.115818
0.119754
0.123833
0.128053
0.132432
0.136989
0.141721
0.146623
0.151638
0.156634
0.161431
0.165846
0.169661
0.172809
0.175324
0.177527
0.180109
0.182982
0.187088
0.192528
0.198532
0.204394
0.20946
0.218771
0.218842
0.0514572
0.0523159
0.0532011
0.0541106
0.055049
0.0560181
0.0570204
0.0580591
0.0591354
0.0602528
0.0614124
0.0626189
0.0638727
0.0651801
0.0665411
0.0679637
0.0694498
0.0710082
0.0726418
0.0743616
0.0761717
0.0780827
0.0801009
0.0822361
0.0844929
0.0868804
0.0893986
0.0920454
0.0948075
0.0976719
0.100642
0.103745
0.107015
0.110474
0.114126
0.117963
0.121965
0.12612
0.130433
0.13493
0.139638
0.144564
0.149726
0.155087
0.160529
0.165891
0.171005
0.175662
0.179785
0.183373
0.186691
0.190344
0.194162
0.199013
0.205042
0.2115
0.217648
0.223154
0.232895
0.232723
0.0521127
0.0530398
0.0539949
0.0549748
0.0559836
0.0570221
0.0580927
0.0591971
0.0603377
0.0615166
0.0627367
0.0640007
0.0653111
0.0666712
0.0680834
0.0695529
0.0710828
0.0726796
0.0743471
0.0760945
0.0779266
0.0798535
0.0818821
0.0840228
0.0862814
0.0886688
0.0911869
0.093836
0.0966049
0.099483
0.102475
0.10561
0.108925
0.112438
0.116157
0.120072
0.124162
0.128417
0.132847
0.137483
0.142356
0.147479
0.152888
0.158563
0.164397
0.170244
0.175953
0.181321
0.186269
0.190766
0.195031
0.199612
0.204268
0.209821
0.21643
0.223367
0.229873
0.235896
0.246102
0.24575
0.0528098
0.0537906
0.0547977
0.055829
0.0568887
0.0579785
0.0591004
0.0602571
0.0614498
0.0626813
0.0639527
0.0652678
0.066627
0.0680357
0.0694936
0.0710077
0.0725792
0.0742158
0.0759195
0.0777002
0.0795614
0.0815132
0.0835621
0.0857187
0.0879894
0.0903861
0.0929123
0.0955704
0.0983513
0.101247
0.104264
0.107434
0.110795
0.114371
0.118164
0.122166
0.126358
0.130729
0.135291
0.140078
0.145123
0.150444
0.156091
0.162055
0.168241
0.174515
0.180741
0.186723
0.192381
0.197664
0.202763
0.208169
0.213591
0.219804
0.226998
0.234462
0.241383
0.247995
0.258697
0.258257
0.0533492
0.0543867
0.05545
0.056537
0.0576511
0.0587941
0.0599676
0.0611745
0.0624164
0.0636962
0.0650157
0.0663787
0.0677865
0.0692429
0.0707492
0.0723105
0.0739289
0.0756104
0.0773571
0.079178
0.0810766
0.0830621
0.0851412
0.0873243
0.0896181
0.0920352
0.0945801
0.097257
0.100058
0.102978
0.106026
0.109237
0.112651
0.11629
0.120164
0.12426
0.12856
0.133056
0.137761
0.142708
0.147932
0.153452
0.159332
0.165572
0.172085
0.178751
0.185442
0.191974
0.198267
0.204251
0.210094
0.216247
0.222382
0.229242
0.237025
0.245037
0.252431
0.259681
0.2709
0.270463
0.05388
0.054963
0.0560697
0.0571994
0.0583556
0.059541
0.0607571
0.0620079
0.0632937
0.0646185
0.0659823
0.0673904
0.0688418
0.0703431
0.0718927
0.0734983
0.0751598
0.0768851
0.0786745
0.0805379
0.0824775
0.0845027
0.0866194
0.0888379
0.0911646
0.0936128
0.0961875
0.0988938
0.101726
0.10468
0.107767
0.111024
0.114495
0.118205
0.122162
0.126357
0.130772
0.135399
0.140251
0.145364
0.150769
0.15649
0.162599
0.169106
0.175933
0.182966
0.190091
0.197131
0.204007
0.210637
0.217173
0.22403
0.230852
0.238347
0.24674
0.255341
0.263248
0.27118
0.282932
0.282582
0.0541364
0.0552739
0.0564368
0.0576233
0.0588366
0.0600786
0.0613505
0.0626552
0.0639943
0.0653706
0.066786
0.0682439
0.0697461
0.0712964
0.072896
0.07455
0.0762606
0.0780335
0.0798706
0.0817804
0.083766
0.0858359
0.0879963
0.0902574
0.0926254
0.0951139
0.0977283
0.100474
0.103348
0.106345
0.10948
0.112793
0.116328
0.120112
0.124159
0.128457
0.13299
0.137752
0.142757
0.148039
0.15363
0.159555
0.165896
0.17267
0.179805
0.187197
0.194741
0.202267
0.209699
0.216941
0.224133
0.231665
0.239157
0.247296
0.25631
0.265519
0.273977
0.282616
0.294912
0.294715
0.0544388
0.0556187
0.0568226
0.0580499
0.059304
0.0605873
0.0619012
0.0632492
0.0646318
0.0660528
0.0675122
0.069015
0.0705607
0.0721559
0.073799
0.075498
0.077253
0.0790717
0.0809546
0.0829116
0.0849446
0.0870625
0.0892711
0.0915804
0.0939966
0.0965333
0.0991961
0.101991
0.104915
0.107966
0.111159
0.114535
0.11814
0.122008
0.126148
0.130553
0.13521
0.140111
0.145271
0.150726
0.156505
0.162637
0.169213
0.176255
0.183698
0.191447
0.199403
0.207404
0.215376
0.223212
0.231047
0.239245
0.247409
0.2562
0.265864
0.275714
0.284753
0.294124
0.306971
0.306983
0.0545897
0.0558166
0.0570672
0.0583408
0.0596403
0.0609682
0.0623255
0.0637162
0.0651409
0.0666037
0.0681057
0.0696514
0.0712417
0.0728816
0.0745716
0.0763175
0.0781212
0.0799887
0.0819215
0.0839287
0.0860127
0.0881822
0.0904432
0.0928055
0.0952754
0.0978668
0.100585
0.103438
0.106421
0.109534
0.112793
0.116241
0.119927
0.123881
0.128121
0.132639
0.137423
0.142467
0.147787
0.15342
0.159393
0.165738
0.172554
0.17987
0.187628
0.195739
0.204111
0.212588
0.221098
0.229523
0.237992
0.246852
0.255691
0.265152
0.27548
0.285987
0.295634
0.305746
0.319153
0.319417
0.0547262
0.0559899
0.0572755
0.058584
0.059918
0.0612814
0.0626748
0.0641034
0.0655666
0.0670697
0.0686117
0.0701991
0.0718305
0.0735135
0.075246
0.0770366
0.0788851
0.0808
0.0827808
0.0848384
0.086974
0.089197
0.091513
0.0939319
0.0964599
0.0991112
0.101891
0.104808
0.107858
0.111041
0.114374
0.117902
0.121674
0.125725
0.130071
0.134707
0.139622
0.144814
0.150298
0.156112
0.162284
0.168848
0.17591
0.183507
0.191587
0.200066
0.20886
0.217818
0.226867
0.235882
0.244989
0.254519
0.264049
0.274197
0.285219
0.296414
0.306688
0.317559
0.331531
0.332083
0.0545821
0.0558938
0.0572294
0.0585887
0.0599742
0.0613887
0.062833
0.0643109
0.0658234
0.0673742
0.0689647
0.0705994
0.0722798
0.0740105
0.0757925
0.077632
0.0795313
0.0814965
0.0835293
0.0856394
0.0878293
0.0901077
0.0924812
0.0949594
0.0975489
0.100264
0.103111
0.106097
0.10922
0.11248
0.115895
0.11951
0.123377
0.127529
0.131988
0.136748
0.1418
0.147145
0.152798
0.1588
0.165177
0.171968
0.179286
0.187174
0.195586
0.204446
0.213673
0.223121
0.232719
0.242331
0.252083
0.26229
0.272521
0.283377
0.295109
0.307003
0.317927
0.329561
0.344108
0.344975
0.0544751
0.0558237
0.0571951
0.0585906
0.0600125
0.0614645
0.0629472
0.0644652
0.0660184
0.0676115
0.069244
0.070922
0.0726448
0.0744198
0.0762456
0.0781309
0.0800761
0.0820899
0.0841724
0.0863349
0.088579
0.0909142
0.0933469
0.0958869
0.0985409
0.101324
0.104241
0.107301
0.110503
0.113846
0.117349
0.121058
0.125024
0.129287
0.133864
0.138754
0.143949
0.149452
0.15528
0.161474
0.168063
0.175087
0.182669
0.190858
0.199613
0.208864
0.218535
0.228484
0.23864
0.248857
0.259265
0.270165
0.281119
0.292706
0.305177
0.317798
0.329389
0.341801
0.356928
0.358134
0.0542203
0.0556109
0.0570244
0.0584616
0.0599248
0.0614176
0.0629403
0.0644979
0.0660906
0.0677233
0.0693967
0.0711163
0.0728829
0.0747024
0.0765751
0.0785081
0.0805036
0.0825684
0.084704
0.0869209
0.0892218
0.0916157
0.0941098
0.096714
0.099435
0.102288
0.10528
0.108419
0.111703
0.115134
0.11873
0.122539
0.126614
0.13099
0.135692
0.140718
0.146063
0.15173
0.157739
0.164132
0.17094
0.178208
0.186065
0.194565
0.203676
0.213332
0.223462
0.233926
0.244654
0.25549
0.266564
0.278172
0.289862
0.302199
0.315425
0.328783
0.341061
0.354254
0.369973
0.371539
0.0539482
0.0553711
0.0568153
0.0582833
0.0597774
0.0613023
0.0628582
0.0644511
0.06608
0.0677512
0.0694631
0.0712233
0.0730303
0.0748928
0.0768084
0.0787871
0.080829
0.0829434
0.0851301
0.0874015
0.0897591
0.0922129
0.0947698
0.09744
0.10023
0.103157
0.106226
0.109446
0.112817
0.11634
0.120036
0.123949
0.128136
0.132634
0.137467
0.142634
0.148134
0.153971
0.160167
0.166766
0.1738
0.18132
0.18946
0.198282
0.20776
0.217833
0.228434
0.239426
0.250738
0.262205
0.27396
0.286293
0.298743
0.311857
0.325867
0.339989
0.352968
0.366958
0.383273
0.385221
0.0533898
0.0548574
0.0563486
0.0578645
0.0594073
0.0609805
0.0625847
0.0642246
0.0659008
0.0676178
0.0693769
0.0711834
0.0730387
0.0749487
0.0769143
0.0789427
0.0810368
0.0832038
0.0854456
0.0877733
0.0901901
0.0927052
0.0953267
0.0980648
0.100927
0.103929
0.107078
0.110383
0.113844
0.117464
0.121261
0.125285
0.12959
0.134213
0.139182
0.144496
0.150156
0.15617
0.162559
0.169371
0.17664
0.184423
0.192858
0.202014
0.211873
0.222378
0.233465
0.245002
0.256912
0.269026
0.281475
0.294553
0.307779
0.321686
0.336494
0.351388
0.365088
0.379878
0.396804
0.399149
0.0528491
0.0543507
0.0558751
0.0574247
0.0590019
0.0606109
0.0622519
0.0639307
0.0656466
0.0674053
0.0692059
0.0710556
0.0729538
0.0749089
0.0769195
0.0789956
0.0811383
0.0833571
0.0856523
0.088037
0.0905134
0.0930915
0.0957793
0.0985873
0.101523
0.104603
0.107834
0.111228
0.114782
0.118501
0.122405
0.126542
0.130967
0.135722
0.140831
0.146298
0.152124
0.15832
0.164909
0.171941
0.179452
0.187506
0.196245
0.205747
0.215996
0.226947
0.238532
0.250629
0.26315
0.275928
0.289084
0.302923
0.31695
0.331681
0.347316
0.363007
0.377442
0.393048
0.410588
0.413351
0.0521432
0.0536841
0.055248
0.0568373
0.0584539
0.0601022
0.0617823
0.0634999
0.0652552
0.0670538
0.0688961
0.0707886
0.0727322
0.0747338
0.076794
0.0789208
0.0811173
0.0833911
0.0857441
0.0881885
0.0907275
0.0933709
0.0961274
0.0990074
0.102019
0.105179
0.108496
0.111979
0.115629
0.11945
0.123463
0.127717
0.132269
0.137156
0.142411
0.148035
0.154031
0.160416
0.167211
0.174471
0.182235
0.190569
0.199625
0.209483
0.220139
0.23155
0.24365
0.256322
0.269472
0.282929
0.296809
0.311431
0.326274
0.341844
0.358319
0.374817
0.390003
0.406429
0.424597
0.427792
0.0513921
0.0529626
0.0545551
0.0561736
0.0578201
0.0595002
0.0612136
0.0629675
0.0647604
0.0665993
0.0684825
0.0704186
0.0724059
0.0744545
0.0765618
0.0787392
0.0809873
0.0833163
0.0857265
0.0882317
0.0908342
0.0935444
0.0963713
0.0993253
0.102415
0.105658
0.109061
0.112636
0.116384
0.12031
0.124435
0.128808
0.133487
0.138514
0.143916
0.149701
0.155874
0.162451
0.169459
0.176954
0.184978
0.193603
0.202984
0.21321
0.224283
0.236166
0.248796
0.262058
0.275851
0.290006
0.304626
0.320042
0.335729
0.35217
0.369514
0.38684
0.402793
0.420053
0.438852
0.442499
0.0503308
0.0519451
0.0535843
0.0552511
0.0569474
0.0586773
0.0604412
0.0622445
0.0640878
0.065976
0.0679104
0.0698968
0.0719373
0.074038
0.0762007
0.078433
0.0807394
0.0831269
0.0855984
0.0881665
0.090835
0.0936138
0.0965127
0.0995423
0.102711
0.106038
0.10953
0.1132
0.117047
0.12108
0.125318
0.129812
0.134622
0.139788
0.145342
0.151292
0.157645
0.164423
0.17165
0.179388
0.187682
0.196608
0.206326
0.216932
0.228438
0.240809
0.253984
0.267854
0.282308
0.297179
0.312558
0.328791
0.345335
0.362662
0.380885
0.399048
0.415782
0.433878
0.453322
0.457435
0.0492797
0.0509271
0.0525996
0.0543009
0.056033
0.0578008
0.0596044
0.0614499
0.0633366
0.0652706
0.067251
0.0692855
0.0713739
0.0735254
0.0757388
0.0780249
0.080386
0.0828317
0.0853634
0.0879952
0.0907304
0.0935791
0.0965517
0.0996586
0.102909
0.106322
0.109904
0.113669
0.117618
0.121758
0.126111
0.130729
0.13567
0.140979
0.146687
0.152805
0.159344
0.166326
0.173779
0.181766
0.190338
0.199574
0.209638
0.220636
0.232586
0.245458
0.259194
0.273686
0.288818
0.304429
0.320582
0.33764
0.355069
0.373314
0.392442
0.411463
0.428991
0.447938
0.468028
0.472628
0.0480771
0.0497634
0.0514757
0.0532172
0.05499
0.0567989
0.0586436
0.0605307
0.0624601
0.0644376
0.0664638
0.0685455
0.0706843
0.0728873
0.0751556
0.0774978
0.0799184
0.082425
0.0850204
0.087718
0.0905221
0.0934425
0.0964904
0.0996761
0.103009
0.106509
0.110183
0.114045
0.118097
0.122346
0.126815
0.131556
0.136632
0.142083
0.147949
0.154239
0.160967
0.168159
0.175844
0.184089
0.192948
0.202505
0.212927
0.224329
0.236738
0.250128
0.264441
0.279575
0.295406
0.311774
0.328722
0.346628
0.364956
0.384131
0.404171
0.424056
0.44239
0.462188
0.482938
0.488036
0.0468455
0.048561
0.0503019
0.0520733
0.0538771
0.0557193
0.0575996
0.0595255
0.0614955
0.0635168
0.0655875
0.0677167
0.0699034
0.0721576
0.0744775
0.0768749
0.079352
0.0819188
0.0845766
0.0873405
0.0902138
0.093207
0.0963314
0.0995973
0.103015
0.106603
0.11037
0.11433
0.118485
0.122844
0.12743
0.132297
0.137506
0.143105
0.149129
0.155595
0.162515
0.169921
0.177843
0.186352
0.195506
0.205392
0.216181
0.228
0.240881
0.254801
0.269707
0.285499
0.302046
0.319198
0.336959
0.355721
0.374973
0.395108
0.416083
0.43685
0.456
0.476662
0.49807
0.503689
0.0453159
0.0470765
0.0488658
0.0506872
0.0525429
0.0544373
0.0563704
0.0583482
0.0603713
0.0624446
0.0645695
0.0667521
0.0689951
0.0713051
0.073684
0.0761403
0.0786797
0.0813094
0.0840333
0.086865
0.0898095
0.0928767
0.0960788
0.0994261
0.102929
0.106606
0.110467
0.114526
0.118786
0.123255
0.127959
0.132952
0.138299
0.144044
0.15023
0.156873
0.16399
0.171614
0.179779
0.188558
0.198015
0.208241
0.21941
0.23166
0.245027
0.259496
0.275013
0.291482
0.308767
0.32672
0.345316
0.364959
0.385149
0.40625
0.428163
0.449814
0.46979
0.491314
0.513393
0.519545
0.0438187
0.045613
0.0474364
0.0492936
0.0511866
0.0531204
0.055095
0.0571169
0.0591854
0.0613066
0.0634797
0.0657129
0.0680065
0.07037
0.0728028
0.0753163
0.0779144
0.0806066
0.0833953
0.0862958
0.0893123
0.092455
0.0957363
0.0991663
0.102755
0.106523
0.110479
0.114637
0.119001
0.123581
0.128404
0.133524
0.139009
0.144905
0.151254
0.158076
0.165392
0.173239
0.18165
0.190705
0.200472
0.211045
0.222605
0.235297
0.249165
0.264194
0.280339
0.297502
0.315545
0.334324
0.353778
0.374308
0.395459
0.417552
0.440421
0.46297
0.48378
0.506177
0.528925
0.535632
0.0421805
0.0440125
0.0458746
0.0477712
0.0497043
0.0516792
0.0536955
0.0557602
0.0578732
0.0600406
0.0622628
0.064547
0.0668954
0.0693153
0.0718084
0.0743837
0.0770471
0.0798063
0.0826649
0.0856374
0.0887289
0.091949
0.0953109
0.0988244
0.1025
0.106359
0.110408
0.114666
0.119134
0.123825
0.128767
0.134016
0.139641
0.145686
0.152201
0.159205
0.166723
0.174796
0.183459
0.192796
0.202881
0.213814
0.225778
0.238926
0.25331
0.268918
0.285708
0.303586
0.322408
0.34203
0.362363
0.383809
0.405934
0.429019
0.452843
0.47629
0.49794
0.521205
0.544634
0.551907
0.0404448
0.0423071
0.0442011
0.0461329
0.0481043
0.0501212
0.0521825
0.0542961
0.05646
0.0586813
0.0609583
0.0632999
0.0657056
0.0681859
0.0707394
0.0733782
0.0761061
0.0789329
0.0818608
0.0849056
0.0880719
0.0913694
0.0948116
0.0984081
0.10217
0.106118
0.11026
0.114615
0.119187
0.123988
0.129048
0.134426
0.140188
0.146388
0.15307
0.16026
0.167984
0.176286
0.185205
0.19483
0.205241
0.216542
0.22892
0.242536
0.257449
0.27365
0.291103
0.309711
0.329332
0.34982
0.371056
0.393427
0.416547
0.440647
0.465439
0.489794
0.512289
0.536432
0.560537
0.568401
0.038391
0.0403166
0.0422803
0.0442842
0.0463289
0.0484168
0.0505474
0.0527265
0.0549555
0.057239
0.059579
0.0619813
0.0644504
0.0669925
0.0696111
0.0723141
0.0751093
0.0780032
0.0810009
0.0841165
0.0873561
0.0907287
0.0942487
0.0979254
0.10177
0.105804
0.110037
0.114487
0.119159
0.124068
0.129245
0.134749
0.140654
0.147006
0.153861
0.16124
0.169174
0.17771
0.18689
0.19681
0.207556
0.219237
0.232043
0.246142
0.2616
0.278412
0.296547
0.315906
0.336345
0.357716
0.379875
0.403204
0.42733
0.452438
0.478192
0.503452
0.526795
0.551809
0.576601
0.585066
0.03701
0.0389326
0.0408881
0.0428851
0.0449265
0.0470186
0.0491591
0.0513565
0.0536085
0.0559221
0.0582947
0.0607355
0.0632445
0.0658315
0.0684964
0.0712506
0.0740993
0.077051
0.0801089
0.0832885
0.0865948
0.0900369
0.0936295
0.0973814
0.101304
0.10542
0.109739
0.11428
0.119049
0.124063
0.129354
0.134985
0.14103
0.147542
0.15457
0.162142
0.170289
0.179064
0.188512
0.198734
0.209823
0.221893
0.235138
0.249732
0.265748
0.283187
0.302019
0.322147
0.34342
0.365696
0.3888
0.413097
0.438249
0.464386
0.491114
0.517285
0.541479
0.567371
0.592843
0.601935
0.0351228
0.037106
0.0391266
0.0411882
0.0432928
0.0454433
0.0476398
0.0498883
0.0521907
0.0545514
0.0569723
0.0594592
0.0620169
0.0646516
0.0673671
0.0701714
0.0730731
0.0760783
0.0791921
0.0824291
0.0857956
0.0893
0.092958
0.0967783
0.100773
0.104965
0.109364
0.113991
0.118854
0.123969
0.129373
0.13513
0.141318
0.147986
0.155193
0.162962
0.171327
0.180347
0.190071
0.200604
0.212048
0.22452
0.238217
0.253321
0.269912
0.287996
0.307544
0.32846
0.350587
0.373784
0.397853
0.42315
0.449335
0.476493
0.504185
0.531262
0.556307
0.583071
0.60923
0.618959
0.0338863
0.0358724
0.0378896
0.0399469
0.0420483
0.0442001
0.0464012
0.0486599
0.0509751
0.0533533
0.0557929
0.0583028
0.0608839
0.0635461
0.0662898
0.0691265
0.0720627
0.0751066
0.0782619
0.0815445
0.08496
0.0885172
0.0922318
0.0961126
0.100172
0.104433
0.108908
0.113616
0.118568
0.123783
0.129298
0.135179
0.141507
0.148338
0.155724
0.163693
0.172282
0.181554
0.19156
0.202414
0.214223
0.227108
0.241268
0.256894
0.274074
0.292819
0.313099
0.334819
0.357817
0.381953
0.407009
0.433315
0.460552
0.48875
0.517417
0.545403
0.571299
0.598941
0.62578
0.636174
0.0321121
0.0341683
0.0362589
0.0383868
0.040555
0.0427657
0.0450202
0.0473246
0.0496817
0.0520961
0.0545706
0.0571116
0.0597246
0.062417
0.0651926
0.0680607
0.0710304
0.0741085
0.0773002
0.0806215
0.0840785
0.0876804
0.0914437
0.0953774
0.0994943
0.103819
0.108363
0.113149
0.118187
0.123498
0.129122
0.135127
0.141598
0.148587
0.156157
0.164332
0.17315
0.182681
0.19298
0.204165
0.216352
0.229664
0.244301
0.260465
0.278252
0.297675
0.318708
0.341252
0.365138
0.39023
0.416291
0.443635
0.47193
0.501158
0.53079
0.559679
0.586424
0.614935
0.642457
0.653529
0.0310691
0.0331256
0.0352067
0.0373209
0.0394741
0.0416725
0.0439164
0.046215
0.0485683
0.0509834
0.0534595
0.0560066
0.0586261
0.0613288
0.0641156
0.066999
0.0699858
0.0730854
0.0763013
0.0796511
0.0831403
0.0867787
0.0905831
0.0945629
0.0987312
0.103114
0.107723
0.112583
0.117704
0.123108
0.12884
0.134968
0.141579
0.148733
0.156487
0.164871
0.173925
0.183723
0.194323
0.20585
0.218425
0.232175
0.247302
0.264017
0.282426
0.302543
0.324344
0.347728
0.372518
0.398583
0.425669
0.454059
0.483429
0.513708
0.544314
0.574106
0.601699
0.631085
0.659283
0.671067
0.0294581
0.0315614
0.0336888
0.0358464
0.0380405
0.0402752
0.0425532
0.0448819
0.0472644
0.0497058
0.0522085
0.0547792
0.0574233
0.0601486
0.0629589
0.0658641
0.0688739
0.071996
0.0752358
0.078611
0.0821284
0.085798
0.089638
0.0936583
0.0978728
0.102309
0.106979
0.111908
0.11711
0.122607
0.128444
0.134695
0.14145
0.148764
0.156708
0.165305
0.174601
0.184674
0.195587
0.207467
0.220444
0.234647
0.250279
0.267563
0.286611
0.307443
0.330032
0.354275
0.379988
0.407043
0.43517
0.46463
0.495081
0.526399
0.557968
0.588656
0.617094
0.647349
0.676226
0.688736
0.0278423
0.0299934
0.0321679
0.0343703
0.036607
0.0388813
0.0411954
0.0435566
0.0459671
0.0484331
0.0509557
0.0535443
0.0562024
0.0589411
0.0617624
0.0646798
0.0677015
0.070838
0.0740936
0.077488
0.0810277
0.0847235
0.0885944
0.0926509
0.0969076
0.101394
0.106121
0.111118
0.116398
0.121986
0.12793
0.134303
0.141198
0.14868
0.156813
0.165628
0.175172
0.18553
0.196764
0.209009
0.222399
0.237066
0.253217
0.271083
0.290787
0.312349
0.335743
0.360862
0.387513
0.415574
0.444758
0.475296
0.506844
0.539221
0.571763
0.603345
0.632627
0.663755
0.693308
0.70658
0.0261944
0.0283782
0.0305839
0.0328164
0.0350811
0.0373816
0.03972
0.0421039
0.0445364
0.047023
0.049566
0.0521733
0.0548506
0.057607
0.0604463
0.0633802
0.066419
0.0695719
0.0728449
0.076258
0.0798185
0.0835383
0.0874373
0.091527
0.0958229
0.100356
0.105139
0.110201
0.115558
0.121237
0.127285
0.133782
0.140822
0.148468
0.156796
0.165834
0.175634
0.186284
0.197851
0.210473
0.224291
0.239438
0.256124
0.274592
0.29497
0.317283
0.3415
0.367516
0.395123
0.424208
0.454464
0.486103
0.518751
0.552176
0.585678
0.618145
0.648266
0.680263
0.710496
0.724549
0.0246405
0.0268431
0.0290651
0.0313123
0.0335911
0.0359054
0.0382568
0.0406535
0.043097
0.0455942
0.0481452
0.0507606
0.0534434
0.0562059
0.0590497
0.0619898
0.065035
0.0681969
0.0714804
0.0749074
0.0784849
0.0822256
0.0861501
0.0902709
0.0946041
0.0991822
0.104019
0.109146
0.114579
0.120348
0.126503
0.133124
0.140308
0.148127
0.156651
0.165917
0.17598
0.186931
0.198841
0.211851
0.226109
0.241749
0.258984
0.278067
0.299137
0.322216
0.347275
0.374203
0.402784
0.432904
0.464249
0.496996
0.530761
0.565254
0.599723
0.633073
0.66403
0.696902
0.727818
0.742687
0.0229468
0.0251681
0.0274061
0.029667
0.0319568
0.0342797
0.0366385
0.0390414
0.0414916
0.0439951
0.046554
0.0491767
0.0518689
0.0546403
0.0574946
0.0604446
0.0635009
0.066674
0.0699699
0.0734109
0.077005
0.0807656
0.0847146
0.0888651
0.0932346
0.0978571
0.102747
0.107939
0.113449
0.11931
0.125572
0.13232
0.139654
0.147643
0.156372
0.165872
0.176204
0.187467
0.199731
0.213142
0.227855
0.244005
0.261806
0.281524
0.303305
0.327172
0.353093
0.380953
0.410525
0.4417
0.474148
0.508024
0.542907
0.578453
0.613876
0.6481
0.679891
0.713634
0.74524
0.76094
0.0212001
0.0234368
0.0256875
0.0279589
0.0302579
0.0325888
0.0349539
0.0373621
0.0398154
0.042321
0.0448793
0.0475017
0.0501913
0.0529613
0.0558133
0.0587633
0.0618206
0.064998
0.0683003
0.0717518
0.0753599
0.0791389
0.0831115
0.0872916
0.0916974
0.0963648
0.101309
0.106567
0.112156
0.11811
0.124485
0.131362
0.138847
0.147017
0.155952
0.165692
0.176302
0.187886
0.200513
0.214337
0.229518
0.24619
0.264572
0.28494
0.307449
0.332121
0.358922
0.387733
0.41831
0.450551
0.484116
0.51913
0.555148
0.591766
0.628149
0.663243
0.695865
0.730487
0.762791
0.779351
0.0192236
0.021477
0.0237411
0.0260233
0.0283299
0.0306659
0.0330343
0.0354445
0.0378998
0.0404072
0.0429687
0.0455936
0.0482879
0.0510624
0.0539207
0.0568768
0.0599418
0.0631274
0.0664398
0.0699035
0.0735271
0.0773256
0.0813227
0.0855334
0.0899769
0.094691
0.0996921
0.105018
0.110688
0.116741
0.123229
0.130241
0.137886
0.146235
0.155385
0.165373
0.176269
0.188183
0.201186
0.215437
0.231101
0.248312
0.267293
0.28833
0.311588
0.337087
0.36479
0.39457
0.426174
0.459495
0.494197
0.530368
0.56752
0.605192
0.64252
0.678475
0.711926
0.747423
0.780435
0.797864
0.0170977
0.0193639
0.0216385
0.0239291
0.026243
0.0285854
0.0309589
0.0333735
0.035831
0.0383399
0.0409001
0.0435244
0.0462157
0.0489887
0.0518445
0.0548008
0.0578669
0.0610573
0.0643768
0.067852
0.071491
0.0753098
0.079333
0.0835763
0.0880599
0.0928234
0.0978839
0.103281
0.109037
0.11519
0.121799
0.12895
0.136756
0.145298
0.154667
0.16491
0.1761
0.188352
0.201742
0.216431
0.23259
0.250355
0.26995
0.291673
0.315698
0.342041
0.370664
0.40143
0.434078
0.468488
0.504338
0.541677
0.57998
0.618724
0.657001
0.693812
0.728092
0.764472
0.798203
0.816522
0.0146492
0.0169316
0.0192203
0.0215237
0.0238479
0.0261985
0.0285788
0.0309989
0.0334624
0.0359764
0.0385433
0.0411731
0.0438721
0.046652
0.0495166
0.052481
0.0555571
0.0587579
0.0620901
0.0655803
0.069238
0.0730799
0.0771318
0.0814105
0.0859371
0.0907529
0.0958763
0.101349
0.107194
0.113454
0.120186
0.127483
0.13546
0.144194
0.153792
0.164297
0.175789
0.188391
0.202179
0.217319
0.233991
0.252326
0.272552
0.294983
0.319796
0.347006
0.376572
0.408345
0.442058
0.477571
0.51459
0.553115
0.592565
0.63236
0.67157
0.70923
0.744337
0.781597
0.81606
0.835269
0.0120317
0.0143263
0.0166258
0.0189385
0.0212717
0.0236309
0.0260186
0.0284455
0.0309137
0.0334319
0.0360002
0.038632
0.0413308
0.0441121
0.0469772
0.049945
0.0530256
0.0562349
0.0595782
0.0630841
0.066762
0.0706291
0.0747124
0.0790293
0.083602
0.0884735
0.0936634
0.0992151
0.105155
0.111524
0.118387
0.125835
0.133984
0.142924
0.152754
0.163529
0.175332
0.188293
0.202489
0.218092
0.235288
0.254208
0.275082
0.298237
0.323856
0.351954
0.38248
0.41528
0.450075
0.486702
0.524902
0.564621
0.605234
0.646096
0.686242
0.724746
0.76068
0.79883
0.834036
0.854149
0.00912553
0.011433
0.0137433
0.0160653
0.0184056
0.0207703
0.0231625
0.0255933
0.0280662
0.0305891
0.033164
0.035802
0.0385096
0.0412996
0.0441757
0.0471544
0.0502483
0.0534717
0.0568319
0.0603573