/*--------------------------------*- C++ -*----------------------------------*\
  =========                 |
  \\      /  F ield         | OpenFOAM: The Open Source CFD Toolbox
   \\    /   O peration     | Website:  https://openfoam.org
    \\  /    A nd           | Version:  6.0
     \\/     M anipulation  |
\*---------------------------------------------------------------------------*/
FoamFile
{
    version     2.0;
    format      ascii;
    class       surfaceScalarField;
    location    "8";
    object      phi;
}
// * * * * * * * * * * * * * * * * * * * * * * * * * * * * * * * * * * * * * //

dimensions      [0 3 -1 0 0 0 0];

internalField   nonuniform List<scalar> 
123526
(
-0.00010703
2.20009e-05
0.000107372
-0.00010665
2.38022e-05
-0.00010624
2.57517e-05
-0.000105804
2.78615e-05
-0.000105331
3.01446e-05
-0.000104828
3.26152e-05
-0.000104282
3.52887e-05
-0.000103698
3.81819e-05
-0.000103062
4.13121e-05
-0.000102378
4.46994e-05
-0.000101631
4.83662e-05
-0.000100823
5.23353e-05
-9.99406e-05
5.66324e-05
-9.89799e-05
6.12829e-05
-9.79276e-05
6.63186e-05
-9.67825e-05
7.1777e-05
-9.55329e-05
7.7691e-05
-9.41657e-05
8.40927e-05
-9.26709e-05
9.10344e-05
-9.10452e-05
9.85641e-05
-8.9267e-05
0.00010672
-8.73262e-05
0.000115565
-8.52179e-05
0.000125166
-8.29096e-05
0.000135563
-8.04025e-05
0.000146858
-7.76694e-05
0.000159105
-7.46934e-05
0.000172392
-7.14572e-05
0.000186817
-6.79316e-05
0.000202458
-6.41015e-05
0.000219447
-5.99326e-05
0.000237866
-5.54063e-05
0.000257863
-5.0491e-05
0.000279544
-4.5156e-05
0.000303053
-3.9369e-05
0.000328535
-3.30748e-05
0.000356113
-2.62501e-05
0.000385969
-1.88466e-05
0.000418228
-1.08141e-05
0.000453032
-2.11356e-06
0.000490525
7.31584e-06
0.000530796
1.75544e-05
0.000573903
2.86728e-05
0.000619887
4.07457e-05
0.000668712
5.3846e-05
0.000720257
6.80274e-05
0.000774302
8.33149e-05
0.000830503
9.96706e-05
0.000888366
0.000117025
0.000947203
0.000135237
0.00100605
0.000154212
0.00106348
0.000173874
0.00111733
0.000194236
0.00116432
0.00021532
0.00119981
0.000237006
0.0012175
0.00025908
0.00120955
0.000281018
0.00116631
0.000301904
0.0010769
0.000321486
0.000915214
0.000656523
0.000317619
-0.000104701
2.16242e-05
0.000105057
-0.000104307
2.33968e-05
-0.00010388
2.53165e-05
-0.000103425
2.73957e-05
-0.000102935
2.96474e-05
-0.000102414
3.20857e-05
-0.000101857
3.47258e-05
-0.000101267
3.75842e-05
-0.000100635
4.06768e-05
-9.99648e-05
4.40235e-05
-9.92479e-05
4.76465e-05
-9.84833e-05
5.15672e-05
-9.76635e-05
5.58101e-05
-9.67804e-05
6.0397e-05
-9.58246e-05
6.536e-05
-9.47907e-05
7.07397e-05
-9.36682e-05
7.65649e-05
-9.24395e-05
8.28598e-05
-9.10944e-05
8.9685e-05
-8.96251e-05
9.70899e-05
-8.80088e-05
0.000105099
-8.62326e-05
0.000113783
-8.42888e-05
0.000123218
-8.2145e-05
0.000133415
-7.97985e-05
0.000144507
-7.72243e-05
0.000156527
-7.44014e-05
0.000169564
-7.13156e-05
0.000183727
-6.79328e-05
0.00019907
-6.42409e-05
0.000215751
-6.01983e-05
0.00023382
-5.57887e-05
0.000253449
-5.09756e-05
0.000274722
-4.57278e-05
0.000297794
-4.00138e-05
0.000322807
-3.37758e-05
0.000349862
-2.69866e-05
0.000379167
-1.95945e-05
0.000410822
-1.15462e-05
0.000444969
-2.80177e-06
0.000481765
6.69439e-06
0.000521284
1.70078e-05
0.000563574
2.81883e-05
0.000608692
4.02811e-05
0.000656605
5.33221e-05
0.000707202
6.73246e-05
0.000760286
8.22799e-05
0.000815539
9.81356e-05
0.000872502
0.000114842
0.000930509
0.000132316
0.000988591
0.000150555
0.00104531
0.000169569
0.00109841
0.000189421
0.00114462
0.000210164
0.00117931
0.00023168
0.00119624
0.000253714
0.00118788
0.00027559
0.00114474
0.00029656
0.00105637
0.000310007
0.000902082
0.000663655
0.000303393
-0.000104923
2.12418e-05
0.000105286
-0.000104512
2.29753e-05
-0.000104057
2.48533e-05
-0.000103559
2.68883e-05
-0.000103012
2.90938e-05
-0.000102419
3.14843e-05
-0.000101774
3.40755e-05
-0.000101082
3.68842e-05
-0.000100336
3.99259e-05
-9.95391e-05
4.32207e-05
-9.86893e-05
4.67918e-05
-9.77868e-05
5.06595e-05
-9.68297e-05
5.48478e-05
-9.58127e-05
5.93752e-05
-9.47327e-05
6.42739e-05
-9.35854e-05
6.95875e-05
-9.2367e-05
7.53401e-05
-9.10597e-05
8.15472e-05
-8.96584e-05
8.8277e-05
-8.81531e-05
9.5579e-05
-8.65243e-05
0.000103464
-8.47558e-05
0.000112009
-8.28409e-05
0.000121297
-8.07437e-05
0.000131312
-7.84607e-05
0.000142217
-7.59643e-05
0.000154024
-7.32316e-05
0.000166825
-7.02466e-05
0.000180736
-6.69728e-05
0.00019579
-6.33967e-05
0.000212169
-5.94741e-05
0.000229893
-5.51884e-05
0.000249158
-5.05004e-05
0.000270026
-4.53817e-05
0.000292661
-3.97974e-05
0.000317209
-3.36911e-05
0.000343741
-2.70341e-05
0.000372496
-1.97732e-05
0.000403547
-1.18539e-05
0.000437036
-3.23468e-06
0.000473132
6.1334e-06
0.000511903
1.62988e-05
0.000553397
2.72957e-05
0.000597684
3.91536e-05
0.000644737
5.18926e-05
0.000694455
6.55149e-05
0.000746656
8.0011e-05
0.000801041
9.5347e-05
0.000857162
0.000111513
0.000914353
0.000128486
0.000971621
0.000146325
0.00102749
0.000165081
0.00107967
0.000184824
0.00112489
0.000205571
0.00115861
0.000227142
0.00117465
0.000249224
0.00116586
0.000270976
0.00112292
0.000291944
0.00103542
0.000305134
0.00088879
0.000665037
0.00030356
-0.000105515
2.08731e-05
0.000105872
-0.000105116
2.25689e-05
-0.000104673
2.44051e-05
-0.000104185
2.6394e-05
-0.000103645
2.8549e-05
-0.000103052
3.0885e-05
-0.000102398
3.34178e-05
-0.000101684
3.6165e-05
-0.000100903
3.91417e-05
-0.000100054
4.23689e-05
-9.9136e-05
4.58711e-05
-9.81469e-05
4.96687e-05
-9.70875e-05
5.37861e-05
-9.59526e-05
5.82393e-05
-9.47432e-05
6.30616e-05
-9.34578e-05
6.83003e-05
-9.20973e-05
7.39756e-05
-9.06481e-05
8.00947e-05
-8.91098e-05
8.67335e-05
-8.74765e-05
9.39412e-05
-8.5733e-05
0.000101714
-8.38657e-05
0.000110137
-8.18708e-05
0.000119295
-7.97135e-05
0.000129149
-7.73915e-05
0.000139889
-7.48767e-05
0.000151503
-7.21461e-05
0.000164087
-6.91823e-05
0.000177765
-6.59477e-05
0.000192549
-6.24272e-05
0.000208642
-5.85758e-05
0.000226036
-5.43756e-05
0.000244952
-4.97903e-05
0.000265429
-4.47859e-05
0.000287644
-3.93311e-05
0.000311739
-3.33678e-05
0.000337764
-2.68688e-05
0.000365983
-1.97812e-05
0.000396446
-1.20508e-05
0.000429291
-3.63625e-06
0.000464703
5.50761e-06
0.000502745
1.54196e-05
0.000543471
2.61266e-05
0.000586962
3.76545e-05
0.000633193
5.00235e-05
0.000682069
6.32413e-05
0.000733418
7.73127e-05
0.000786949
9.22299e-05
0.000842217
0.000108018
0.000898545
0.000124692
0.000954914
0.000142346
0.00100983
0.00016103
0.00106098
0.000180804
0.00110512
0.000201629
0.00113783
0.000223262
0.00115306
0.000245339
0.00114389
0.000266903
0.00110143
0.000287721
0.00101478
0.000302839
0.000873782
0.000662212
0.000305882
-0.000105346
2.05207e-05
0.00010568
-0.000104971
2.21845e-05
-0.000104559
2.39848e-05
-0.000104107
2.59333e-05
-0.000103608
2.80432e-05
-0.000103059
3.03288e-05
-0.000102453
3.2806e-05
-0.000101787
3.54921e-05
-0.000101051
3.84016e-05
-0.000100244
4.15561e-05
-9.93592e-05
4.49813e-05
-9.83927e-05
4.86976e-05
-9.7342e-05
5.27301e-05
-9.62002e-05
5.70933e-05
-9.49668e-05
6.18224e-05
-9.36396e-05
6.69689e-05
-9.22209e-05
7.25506e-05
-9.06979e-05
7.85675e-05
-8.90744e-05
8.51037e-05
-8.73466e-05
9.2209e-05
-8.5505e-05
9.9866e-05
-8.35391e-05
0.000108166
-8.14501e-05
0.0001172
-7.92068e-05
0.0001269
-7.68104e-05
0.000137486
-7.42353e-05
0.000148922
-7.14606e-05
0.000161306
-6.847e-05
0.000174768
-6.52267e-05
0.000189299
-6.17158e-05
0.000205125
-5.78932e-05
0.000222208
-5.37419e-05
0.000240795
-4.92227e-05
0.000260902
-4.4306e-05
0.000282713
-3.89552e-05
0.000306375
-3.31152e-05
0.000331911
-2.67593e-05
0.000359615
-1.98362e-05
0.00038951
-1.22929e-05
0.000421736
-4.08948e-06
0.000456488
4.81772e-06
0.000493826
1.44648e-05
0.000533813
2.48767e-05
0.000576541
3.60817e-05
0.00062198
4.81054e-05
0.000670038
6.09663e-05
0.00072055
7.46853e-05
0.000773226
8.92777e-05
0.000827616
0.000104793
0.000883029
0.000121271
0.000938424
0.000138818
0.000992283
0.000157472
0.00104231
0.000177272
0.00108529
0.000198136
0.00111695
0.000219759
0.00113136
0.00024175
0.00112189
0.000263088
0.00107996
0.000283585
0.00099424
0.000300139
0.000857072
0.00065574
0.000306368
-0.000104511
2.0184e-05
0.000104836
-0.000104153
2.182e-05
-0.000103763
2.35896e-05
-0.00010334
2.55038e-05
-0.000102876
2.75753e-05
-0.000102371
2.98179e-05
-0.000101816
3.22468e-05
-0.000101207
3.4879e-05
-0.000100536
3.77277e-05
-9.97966e-05
4.08145e-05
-9.89834e-05
4.41657e-05
-9.8088e-05
4.78013e-05
-9.71069e-05
5.17466e-05
-9.60282e-05
5.60143e-05
-9.485e-05
6.06414e-05
-9.35661e-05
6.56842e-05
-9.21775e-05
7.11581e-05
-9.06694e-05
7.70573e-05
-8.90451e-05
8.34747e-05
-8.73013e-05
9.04618e-05
-8.54297e-05
9.79889e-05
-8.34225e-05
0.000106154
-8.12839e-05
0.000115055
-7.89862e-05
0.000124598
-7.65347e-05
0.000135028
-7.39072e-05
0.000146289
-7.10868e-05
0.000158479
-6.80598e-05
0.000171734
-6.47924e-05
0.000186025
-6.12718e-05
0.000201598
-5.74561e-05
0.000218388
-5.33288e-05
0.000236662
-4.88551e-05
0.000256417
-4.39993e-05
0.000277846
-3.87299e-05
0.000301092
-3.29906e-05
0.00032616
-2.67565e-05
0.000353369
-1.99777e-05
0.00038272
-1.2603e-05
0.000414349
-4.59465e-06
0.000448467
4.09111e-06
0.000485127
1.3492e-05
0.000524399
2.36344e-05
0.000566383
3.45513e-05
0.000611047
4.62753e-05
0.000658296
5.8836e-05
0.000707967
7.22685e-05
0.00075977
8.66059e-05
0.000813246
0.000101914
0.000867692
0.000118244
0.000922048
0.000135705
0.000974791
0.000154318
0.00102365
0.0001741
0.00106547
0.000194932
0.0010961
0.000216468
0.0011098
0.000238291
0.00110008
0.000259375
0.00105887
0.000279418
0.000974275
0.00029643
0.000840089
0.00064776
0.000304512
-0.000103331
1.9856e-05
0.000103645
-0.000102985
2.1466e-05
-0.000102609
2.32072e-05
-0.000102202
2.50904e-05
-0.000101759
2.71277e-05
-0.000101279
2.93323e-05
-0.000100756
3.17191e-05
-0.000100186
3.43044e-05
-9.95624e-05
3.70999e-05
-9.88789e-05
4.01267e-05
-9.81288e-05
4.34114e-05
-9.73042e-05
4.6973e-05
-9.63987e-05
5.08366e-05
-9.54e-05
5.50123e-05
-9.43027e-05
5.95388e-05
-9.3098e-05
6.44763e-05
-9.17837e-05
6.98383e-05
-9.03424e-05
7.56128e-05
-8.87753e-05
8.19019e-05
-8.70763e-05
8.87594e-05
-8.52372e-05
9.61441e-05
-8.32489e-05
0.000104162
-8.11169e-05
0.000112917
-7.88151e-05
0.000122292
-7.6351e-05
0.000132558
-7.37053e-05
0.000143639
-7.08643e-05
0.000155632
-6.78179e-05
0.000168682
-6.45356e-05
0.000182736
-6.1008e-05
0.000198065
-5.71962e-05
0.000214571
-5.30871e-05
0.000232547
-4.86436e-05
0.000251967
-4.38375e-05
0.000273026
-3.86328e-05
0.000295875
-3.29771e-05
0.000320493
-2.68465e-05
0.000347227
-2.01928e-05
0.000376055
-1.29666e-05
0.000407112
-5.1325e-06
0.000440623
3.3542e-06
0.000476631
1.25352e-05
0.00051521
2.24406e-05
0.000556471
3.31086e-05
0.000600373
4.4579e-05
0.00064682
5.68912e-05
0.00069565
7.00916e-05
0.000746567
8.42258e-05
0.000799104
9.93691e-05
0.000852549
0.000115575
0.00090583
0.00013295
0.000957419
0.000151495
0.00100508
0.000171205
0.00104572
0.000191933
0.00107535
0.000213304
0.00108835
0.000234886
0.00107847
0.000255679
0.00103795
0.000275198
0.000954703
0.000291993
0.000823132
0.00063855
0.000300965
-0.000101972
1.95362e-05
0.000102284
-0.000101631
2.1121e-05
-0.000101263
2.28351e-05
-0.000100866
2.4689e-05
-0.000100435
2.66943e-05
-9.9971e-05
2.88642e-05
-9.94677e-05
3.12128e-05
-9.8922e-05
3.3756e-05
-9.83287e-05
3.65041e-05
-9.76811e-05
3.94779e-05
-9.69754e-05
4.27037e-05
-9.62018e-05
4.61994e-05
-9.53566e-05
4.99892e-05
-9.44246e-05
5.40808e-05
-9.34016e-05
5.85132e-05
-9.2276e-05
6.33505e-05
-9.10446e-05
6.86033e-05
-8.96867e-05
7.42536e-05
-8.82016e-05
8.04123e-05
-8.65799e-05
8.71352e-05
-8.48113e-05
9.43705e-05
-8.28848e-05
0.000102232
-8.08043e-05
0.000110831
-7.85435e-05
0.000120027
-7.61101e-05
0.000130119
-7.34861e-05
0.00014101
-7.06597e-05
0.0001528
-6.76232e-05
0.00016564
-6.43493e-05
0.000179456
-6.08317e-05
0.000194542
-5.70348e-05
0.00021077
-5.2947e-05
0.000228455
-4.85378e-05
0.000247547
-4.3774e-05
0.000268253
-3.86272e-05
0.000290716
-3.30444e-05
0.0003149
-2.70037e-05
0.000341177
-2.04591e-05
0.000369501
-1.3363e-05
0.000400006
-5.68167e-06
0.000432931
2.63028e-06
0.000468308
1.16195e-05
0.000506208
2.13212e-05
0.000546755
3.17785e-05
0.0005899
4.30375e-05
0.000635544
5.51452e-05
0.00068352
6.81563e-05
0.000733532
8.2124e-05
0.000785103
9.71273e-05
0.000837515
0.000113218
0.00088969
0.000130492
0.000940108
0.000148933
0.000986582
0.000168516
0.00102609
0.000189071
0.00105475
0.000210213
0.00106715
0.000231487
0.00105718
0.000251953
0.00101745
0.000270929
0.00093576
0.000287193
0.000806863
0.00062929
0.000296506
-0.000100524
1.92203e-05
0.000100824
-0.00010019
2.07803e-05
-9.98292e-05
2.24675e-05
-9.94395e-05
2.42925e-05
-9.90174e-05
2.62669e-05
-9.85622e-05
2.84032e-05
-9.80694e-05
3.07156e-05
-9.75376e-05
3.32194e-05
-9.6961e-05
3.59237e-05
-9.6336e-05
3.88487e-05
-9.56574e-05
4.20211e-05
-9.49187e-05
4.54572e-05
-9.41144e-05
4.91806e-05
-9.32324e-05
5.31958e-05
-9.22664e-05
5.75423e-05
-9.12061e-05
6.22874e-05
-9.00464e-05
6.74385e-05
-8.87664e-05
7.29709e-05
-8.73629e-05
7.90037e-05
-8.5825e-05
8.55945e-05
-8.414e-05
9.26804e-05
-8.22945e-05
0.000100384
-8.02905e-05
0.000108822
-7.80997e-05
0.000117833
-7.5729e-05
0.000127742
-7.31594e-05
0.000138436
-7.038e-05
0.000150015
-6.73836e-05
0.000162638
-6.41453e-05
0.000176213
-6.06604e-05
0.000191052
-5.68965e-05
0.000207002
-5.28453e-05
0.000224398
-4.84743e-05
0.00024317
-4.37598e-05
0.000263525
-3.86695e-05
0.000285615
-3.31555e-05
0.000309376
-2.71972e-05
0.000335209
-2.07503e-05
0.000363045
-1.37693e-05
0.000393016
-6.22183e-06
0.000425375
1.93808e-06
0.00046014
1.0762e-05
0.000497377
2.02901e-05
0.000537222
3.05699e-05
0.000579615
4.16523e-05
0.000624458
5.35898e-05
0.000671579
6.64422e-05
0.000720679
8.02663e-05
0.000771274
9.51407e-05
0.000822644
0.000111112
0.00087371
0.000128263
0.000922963
0.000146563
0.000968268
0.000165967
0.00100666
0.000186292
0.00103441
0.000207146
0.00104624
0.000228065
0.00103624
0.000248165
0.000997237
0.000266613
0.000917267
0.000282269
0.000791054
0.000619698
0.000291645
-9.90139e-05
1.89113e-05
9.93145e-05
-9.86846e-05
2.04467e-05
-9.83287e-05
2.21076e-05
-9.79446e-05
2.39043e-05
-9.75293e-05
2.58483e-05
-9.70817e-05
2.79519e-05
-9.65983e-05
3.02291e-05
-9.60766e-05
3.26951e-05
-9.5513e-05
3.53576e-05
-9.49023e-05
3.82369e-05
-9.42426e-05
4.13594e-05
-9.35257e-05
4.47406e-05
-9.27502e-05
4.8403e-05
-9.19018e-05
5.23481e-05
-9.09777e-05
5.66158e-05
-8.99662e-05
6.12762e-05
-8.8864e-05
6.6333e-05
-8.76487e-05
7.17548e-05
-8.63174e-05
7.76684e-05
-8.48573e-05
8.41324e-05
-8.32546e-05
9.10731e-05
-8.14937e-05
9.86203e-05
-7.95747e-05
0.000106898
-7.74676e-05
0.000115722
-7.51771e-05
0.000125447
-7.2683e-05
0.000135938
-6.99737e-05
0.0001473
-6.70416e-05
0.000159701
-6.38623e-05
0.000173028
-6.04326e-05
0.000187617
-5.67211e-05
0.000203287
-5.27205e-05
0.000220394
-4.84047e-05
0.000238844
-4.37447e-05
0.000258857
-3.87168e-05
0.000280576
-3.32726e-05
0.000303923
-2.73938e-05
0.000329322
-2.10381e-05
0.000356681
-1.41617e-05
0.000386131
-6.73325e-06
0.000417937
1.29326e-06
0.000452103
9.9735e-06
0.000488686
1.93524e-05
0.00052783
2.94805e-05
0.000569472
4.04121e-05
0.000613509
5.2203e-05
0.000659766
6.49156e-05
0.000707942
7.86072e-05
0.000757549
9.33532e-05
0.000807866
0.000109192
0.000857822
0.000126197
0.00090592
0.000144317
0.000950084
0.000163498
0.000987421
0.000183545
0.00101432
0.000204068
0.00102566
0.000224596
0.00101567
0.000244302
0.000977485
0.00026225
0.000899327
0.000277338
0.000775946
0.000610393
0.000286671
-9.74775e-05
1.86064e-05
9.77707e-05
-9.71537e-05
2.01174e-05
-9.68034e-05
2.17522e-05
-9.64246e-05
2.35208e-05
-9.60153e-05
2.54346e-05
-9.55734e-05
2.7506e-05
-9.50964e-05
2.97486e-05
-9.45822e-05
3.21774e-05
-9.40272e-05
3.47993e-05
-9.34276e-05
3.76342e-05
-9.27808e-05
4.07089e-05
-9.20807e-05
4.40378e-05
-9.13246e-05
4.76427e-05
-9.05013e-05
5.15223e-05
-8.96069e-05
5.57167e-05
-8.86317e-05
6.02987e-05
-8.75721e-05
6.52685e-05
-8.64071e-05
7.05876e-05
-8.51335e-05
7.63899e-05
-8.37383e-05
8.27349e-05
-8.22075e-05
8.95375e-05
-8.05242e-05
9.69344e-05
-7.86871e-05
0.000105056
-7.66646e-05
0.000113697
-7.44597e-05
0.000123237
-7.20505e-05
0.000133525
-6.94239e-05
0.000144669
-6.65713e-05
0.000156844
-6.34681e-05
0.00016992
-6.01103e-05
0.000184255
-5.64681e-05
0.000199642
-5.25355e-05
0.000216456
-4.82834e-05
0.000234587
-4.3692e-05
0.000254254
-3.8733e-05
0.000275608
-3.33632e-05
0.000298545
-2.75651e-05
0.000323517
-2.12983e-05
0.000350407
-1.45204e-05
0.000379346
-7.20107e-06
0.000410611
7.05709e-07
0.000444191
9.25845e-06
0.000480128
1.85057e-05
0.000518579
2.85001e-05
0.000559475
3.92977e-05
0.000602709
5.0956e-05
0.000648106
6.35377e-05
0.000695361
7.70987e-05
0.000743985
9.17095e-05
0.00079326
0.000107401
0.000842124
0.000124231
0.0008891
0.000142141
0.000932163
0.000161062
0.000968485
0.000180794
0.000994577
0.000200954
0.00100545
0.000221068
0.000995542
0.000240361
0.000958099
0.000257845
0.000881805
0.000272444
0.000761205
0.000600944
0.000281695
-9.59221e-05
1.8308e-05
9.62153e-05
-9.5602e-05
1.97951e-05
-9.52568e-05
2.14041e-05
-9.48834e-05
2.3145e-05
-9.44805e-05
2.50291e-05
-9.40453e-05
2.70686e-05
-9.35764e-05
2.9277e-05
-9.30698e-05
3.16693e-05
-9.2524e-05
3.42513e-05
-9.19331e-05
3.70429e-05
-9.12974e-05
4.00713e-05
-9.06086e-05
4.33498e-05
-8.98678e-05
4.68997e-05
-8.90613e-05
5.0717e-05
-8.8189e-05
5.48418e-05
-8.72398e-05
5.935e-05
-8.62126e-05
6.4238e-05
-8.50861e-05
6.94605e-05
-8.38583e-05
7.51581e-05
-8.2516e-05
8.1391e-05
-8.10455e-05
8.80626e-05
-7.94296e-05
9.53161e-05
-7.7666e-05
0.000103288
-7.57226e-05
0.00011175
-7.36005e-05
0.00012111
-7.12768e-05
0.000131198
-6.87368e-05
0.000142124
-6.59706e-05
0.000154074
-6.29526e-05
0.000166898
-5.96783e-05
0.000180977
-5.6117e-05
0.000196078
-5.22621e-05
0.000212598
-4.80897e-05
0.000230405
-4.35735e-05
0.00024973
-3.86928e-05
0.000270718
-3.34033e-05
0.000293248
-2.76892e-05
0.000317796
-2.15118e-05
0.000344223
-1.483e-05
0.000372657
-7.61388e-06
0.000403388
1.81983e-07
0.000436386
8.61781e-06
0.000471682
1.77447e-05
0.00050944
2.76161e-05
0.000549589
3.82888e-05
0.00059202
4.98203e-05
0.000636553
6.22724e-05
0.000682885
7.56981e-05
0.000730527
9.0162e-05
0.000778765
0.000105687
0.000826551
0.00012232
0.000872428
0.00013999
0.000914427
0.000158623
0.000949794
0.000178013
0.000975135
0.000197789
0.000985618
0.000217477
0.000975808
0.00023635
0.000939174
0.0002534
0.00086475
0.000267591
0.000746986
0.000591785
0.000276765
-9.43687e-05
1.80129e-05
9.46503e-05
-9.40559e-05
1.94761e-05
-9.37172e-05
2.10595e-05
-9.33505e-05
2.27729e-05
-9.29537e-05
2.46274e-05
-9.25249e-05
2.66352e-05
-9.20616e-05
2.88098e-05
-9.15621e-05
3.11658e-05
-9.10226e-05
3.37084e-05
-9.04403e-05
3.64572e-05
-8.98128e-05
3.944e-05
-8.91351e-05
4.26691e-05
-8.8405e-05
4.61656e-05
-8.76133e-05
4.99226e-05
-8.67568e-05
5.3981e-05
-8.58281e-05
5.8419e-05
-8.48245e-05
6.32299e-05
-8.37273e-05
6.83613e-05
-8.25341e-05
7.39605e-05
-8.12333e-05
8.00882e-05
-7.98112e-05
8.66361e-05
-7.8251e-05
9.37537e-05
-7.65503e-05
0.000101583
-7.46765e-05
0.000109874
-7.26301e-05
0.000119059
-7.0387e-05
0.000128951
-6.79315e-05
0.000139664
-6.5252e-05
0.00015139
-6.23223e-05
0.000163964
-5.9136e-05
0.000177787
-5.56626e-05
0.000192602
-5.18955e-05
0.000208827
-4.78064e-05
0.000226312
-4.3377e-05
0.00024529
-3.85809e-05
0.000265914
-3.33779e-05
0.000288038
-2.77525e-05
0.000312165
-2.16669e-05
0.000338131
-1.50813e-05
0.000366066
-7.96619e-06
0.000396268
-2.7653e-07
0.000428692
8.04823e-06
0.000463354
1.70606e-05
0.000500426
2.68137e-05
0.000539835
3.73644e-05
0.000581469
4.87691e-05
0.000625148
6.10875e-05
0.000670569
7.43691e-05
0.000717244
8.86724e-05
0.000764469
0.000104012
0.000811207
0.000120426
0.000856028
0.000137835
0.00089701
0.000156158
0.000931463
0.00017519
0.000956101
0.000194569
0.000966209
0.000213828
0.000956539
0.000232279
0.00092065
0.000248925
0.000848073
0.000262775
0.000733007
0.000582505
0.000271879
-9.28137e-05
1.77243e-05
9.30953e-05
-9.25047e-05
1.91642e-05
-9.21712e-05
2.07224e-05
-9.18099e-05
2.24087e-05
-9.14196e-05
2.42341e-05
-9.09977e-05
2.62107e-05
-9.05425e-05
2.83517e-05
-9.00504e-05
3.06719e-05
-8.95198e-05
3.31755e-05
-8.89454e-05
3.58823e-05
-8.83273e-05
3.88202e-05
-8.76584e-05
4.20009e-05
-8.69397e-05
4.5445e-05
-8.61592e-05
4.91432e-05
-8.53173e-05
5.31368e-05
-8.44045e-05
5.75069e-05
-8.3421e-05
6.22434e-05
-8.23473e-05
6.72872e-05
-8.11827e-05
7.27924e-05
-7.99156e-05
7.88198e-05
-7.85333e-05
8.52498e-05
-7.70195e-05
9.22379e-05
-7.53719e-05
9.99313e-05
-7.35584e-05
0.000108058
-7.15788e-05
0.000117075
-6.94088e-05
0.000126778
-6.70317e-05
0.000137283
-6.44353e-05
0.00014879
-6.15918e-05
0.000161117
-5.84944e-05
0.000174686
-5.5111e-05
0.000189216
-5.14333e-05
0.000205147
-4.74371e-05
0.000222307
-4.30964e-05
0.000240943
-3.83916e-05
0.000261201
-3.32802e-05
0.000282921
-2.77476e-05
0.000306627
-2.17571e-05
0.000332136
-1.52693e-05
0.000359573
-8.25503e-06
0.000389247
-6.70061e-07
0.0004211
7.54548e-06
0.00045513
1.64447e-05
0.000491515
2.608e-05
0.000530186
3.6507e-05
0.000571025
4.77807e-05
0.000613853
5.9958e-05
0.000658369
7.30845e-05
0.000704086
8.72128e-05
0.00075031
0.000102351
0.000796021
0.000118528
0.000839814
0.000135656
0.000879816
0.000153655
0.000913407
0.000172319
0.000937385
0.000191296
0.000947171
0.000210128
0.000937656
0.000228164
0.000902561
0.000244431
0.000831793
0.000257989
0.000719418
0.000573469
0.000267036
-9.12723e-05
1.74397e-05
9.15465e-05
-9.09688e-05
1.88565e-05
-9.06409e-05
2.03898e-05
-9.02851e-05
2.20493e-05
-8.99009e-05
2.38459e-05
-8.94848e-05
2.57915e-05
-8.90358e-05
2.78994e-05
-8.85507e-05
3.01841e-05
-8.80274e-05
3.26491e-05
-8.74616e-05
3.5314e-05
-8.68523e-05
3.82073e-05
-8.61938e-05
4.13401e-05
-8.54852e-05
4.47325e-05
-8.4717e-05
4.83729e-05
-8.38877e-05
5.23031e-05
-8.29898e-05
5.66071e-05
-8.20226e-05
6.12717e-05
-8.09684e-05
6.62313e-05
-7.98266e-05
7.16463e-05
-7.85866e-05
7.7578e-05
-7.72364e-05
8.38956e-05
-7.57606e-05
9.07601e-05
-7.41573e-05
9.83239e-05
-7.23949e-05
0.000106293
-7.04732e-05
0.000115149
-6.83679e-05
0.00012467
-6.6062e-05
0.000134973
-6.35422e-05
0.000146267
-6.07807e-05
0.000158351
-5.77687e-05
0.000171671
-5.44742e-05
0.000185919
-5.08885e-05
0.000201557
-4.69823e-05
0.000218397
-4.27369e-05
0.000236688
-3.81258e-05
0.000256583
-3.31099e-05
0.000277899
-2.76741e-05
0.000301187
-2.17818e-05
0.000326239
-1.53944e-05
0.000353181
-8.48256e-06
0.000382332
-1.00319e-06
0.000413618
7.10243e-06
0.000447022
1.58872e-05
0.00048273
2.5402e-05
0.000520671
3.5701e-05
0.000560727
4.68369e-05
0.000602718
5.88642e-05
0.000646346
7.18239e-05
0.000691127
8.57635e-05
0.00073638
0.000100685
0.000781098
0.00011661
0.000823906
0.000133446
0.000862973
0.000151112
0.00089574
0.000169402
0.000919098
0.000187977
0.000928576
0.000206391
0.000919237
0.00022402
0.000884874
0.000239931
0.000815858
0.000253232
0.000706
0.000564315
0.000262226
-8.97407e-05
1.71615e-05
9.00152e-05
-8.94409e-05
1.85556e-05
-8.9118e-05
2.00645e-05
-8.87677e-05
2.16977e-05
-8.839e-05
2.34659e-05
-8.79809e-05
2.53811e-05
-8.75402e-05
2.74563e-05
-8.70628e-05
2.97061e-05
-8.65487e-05
3.21328e-05
-8.59909e-05
3.47565e-05
-8.53913e-05
3.76059e-05
-8.47413e-05
4.06914e-05
-8.40437e-05
4.40328e-05
-8.32854e-05
4.76162e-05
-8.24687e-05
5.1484e-05
-8.15836e-05
5.5723e-05
-8.0632e-05
6.03171e-05
-7.9595e-05
6.51942e-05
-7.84736e-05
7.05214e-05
-7.72571e-05
7.63604e-05
-7.59346e-05
8.25693e-05
-7.44912e-05
8.93149e-05
-7.29255e-05
9.67543e-05
-7.12069e-05
0.000104572
-6.93352e-05
0.000113274
-6.72866e-05
0.000122618
-6.50441e-05
0.000132727
-6.25941e-05
0.000143813
-5.99081e-05
0.000155662
-5.69771e-05
0.000168737
-5.37679e-05
0.000182709
-5.02698e-05
0.000198058
-4.64578e-05
0.000214577
-4.23045e-05
0.000232529
-3.77897e-05
0.000252062
-3.28715e-05
0.000272977
-2.75349e-05
0.000295847
-2.17436e-05
0.000320444
-1.5459e-05
0.000346893
-8.65201e-06
0.000375519
-1.28041e-06
0.000406239
6.7129e-06
0.000439021
1.53799e-05
0.000474052
2.47696e-05
0.000511268
3.49345e-05
0.000550547
4.5925e-05
0.000591708
5.77924e-05
0.000634456
7.05743e-05
0.000678314
8.43128e-05
0.000722612
9.90052e-05
0.00076636
0.000114667
0.000808209
0.000131202
0.000846372
0.000148529
0.000878357
0.000166445
0.000901128
0.000184624
0.000910336
0.000202628
0.000901177
0.000219863
0.000867582
0.000235437
0.000800265
0.000248503
0.000692902
0.000555376
0.000257453
-8.82313e-05
1.68863e-05
8.84944e-05
-8.79385e-05
1.8258e-05
-8.7622e-05
1.97427e-05
-8.72784e-05
2.13498e-05
-8.69069e-05
2.309e-05
-8.65044e-05
2.49751e-05
-8.60695e-05
2.70179e-05
-8.55995e-05
2.92331e-05
-8.5092e-05
3.16221e-05
-8.4543e-05
3.42049e-05
-8.39514e-05
3.70109e-05
-8.33118e-05
4.00494e-05
-8.26232e-05
4.33405e-05
-8.18767e-05
4.68676e-05
-8.10708e-05
5.06741e-05
-8.0199e-05
5.48494e-05
-7.92606e-05
5.93746e-05
-7.82394e-05
6.41715e-05
-7.71353e-05
6.94134e-05
-7.59391e-05
7.51627e-05
-7.46401e-05
8.12666e-05
-7.32243e-05
8.78975e-05
-7.16909e-05
9.52171e-05
-7.00099e-05
0.000102889
-6.81817e-05
0.000111442
-6.61828e-05
0.000120617
-6.39965e-05
0.000130537
-6.16092e-05
0.000141423
-5.89924e-05
0.000153042
-5.61361e-05
0.000165878
-5.30075e-05
0.000179578
-4.95959e-05
0.000194643
-4.58707e-05
0.00021085
-4.1812e-05
0.000228462
-3.73923e-05
0.000247637
-3.25726e-05
0.000268153
-2.73368e-05
0.000290607
-2.16485e-05
0.000314753
-1.54692e-05
0.00034071
-8.76967e-06
0.000368818
-1.50862e-06
0.000398977
6.36914e-06
0.000431143
1.49141e-05
0.000465508
2.41735e-05
0.00050201
3.41976e-05
0.000540525
4.50346e-05
0.000580874
5.67333e-05
0.000622763
6.93271e-05
0.000665724
8.28543e-05
0.000709096
9.73077e-05
0.000751908
0.000112698
0.000792837
0.000128927
0.000830138
0.000145913
0.000861375
0.000163459
0.000883591
0.000181248
0.000892539
0.000198855
0.000883571
0.00021571
0.000850684
0.000230963
0.000784996
0.00024381
0.00067995
0.000546328
0.000252714
-8.67353e-05
1.66176e-05
8.69988e-05
-8.64462e-05
1.79673e-05
-8.61347e-05
1.94282e-05
-8.57964e-05
2.10098e-05
-8.54314e-05
2.27224e-05
-8.50358e-05
2.45779e-05
-8.46092e-05
2.65889e-05
-8.4147e-05
2.87699e-05
-8.36487e-05
3.11218e-05
-8.3108e-05
3.36644e-05
-8.25263e-05
3.64275e-05
-8.18954e-05
3.94199e-05
-8.1218e-05
4.26612e-05
-8.04815e-05
4.61328e-05
-7.96881e-05
4.98786e-05
-7.88285e-05
5.3991e-05
-7.79046e-05
5.8448e-05
-7.68986e-05
6.31656e-05
-7.5812e-05
6.83236e-05
-7.4635e-05
7.39849e-05
-7.33581e-05
7.99862e-05
-7.19674e-05
8.65054e-05
-7.04627e-05
9.37088e-05
-6.88151e-05
0.00010124
-6.70252e-05
0.000109648
-6.50704e-05
0.00011866
-6.29341e-05
0.000128397
-6.06031e-05
0.000139089
-5.80491e-05
0.000150485
-5.52622e-05
0.000163088
-5.22087e-05
0.000176524
-4.88765e-05
0.00019131
-4.52395e-05
0.000207206
-4.12691e-05
0.000224487
-3.69442e-05
0.000243306
-3.22225e-05
0.000263427
-2.70877e-05
0.00028547
-2.15034e-05
0.000309166
-1.5431e-05
0.000334635
-8.84124e-06
0.000362224
-1.69366e-06
0.000391824
6.06497e-06
0.000423377
1.44833e-05
0.00045708
2.36067e-05
0.000492875
3.34836e-05
0.000530634
4.41598e-05
0.000570178
5.56814e-05
0.000611221
6.80787e-05
0.000653298
8.1386e-05
0.000695762
9.5593e-05
0.000737657
0.000110706
0.00077769
0.000126627
0.000814154
0.000143274
0.000844672
0.000160454
0.000866358
0.000177861
0.000875073
0.000195084
0.000866292
0.000211573
0.000834139
0.000226519
0.000770027
0.000239157
0.000667284
0.000537476
0.000248021
-8.52638e-05
1.63524e-05
8.55201e-05
-8.498e-05
1.76805e-05
-8.46739e-05
1.9118e-05
-8.4341e-05
2.06744e-05
-8.3982e-05
2.23599e-05
-8.35923e-05
2.41861e-05
-8.3172e-05
2.61658e-05
-8.2717e-05
2.83131e-05
-8.22263e-05
3.06282e-05
-8.16947e-05
3.3131e-05
-8.11222e-05
3.58516e-05
-8.05023e-05
3.87983e-05
-7.9835e-05
4.19903e-05
-7.91109e-05
4.5407e-05
-7.83293e-05
4.90929e-05
-7.74831e-05
5.31432e-05
-7.65724e-05
5.75333e-05
-7.55814e-05
6.21733e-05
-7.45108e-05
6.72492e-05
-7.33517e-05
7.28245e-05
-7.20947e-05
7.87257e-05
-7.07269e-05
8.51361e-05
-6.92481e-05
9.22266e-05
-6.76305e-05
9.96203e-05
-6.58749e-05
0.000107889
-6.39595e-05
0.000116742
-6.18682e-05
0.000126303
-5.95881e-05
0.000136806
-5.70914e-05
0.000147986
-5.43676e-05
0.000160363
-5.13841e-05
0.000173539
-4.81291e-05
0.000188052
-4.45711e-05
0.000203646
-4.06896e-05
0.000220598
-3.64559e-05
0.000239068
-3.18306e-05
0.000258799
-2.67965e-05
0.000280433
-2.13166e-05
0.000303684
-1.53524e-05
0.000328669
-8.87438e-06
0.000355745
-1.8429e-06
0.000384792
5.79325e-06
0.000415742
1.40807e-05
0.000448795
2.30631e-05
0.000483896
3.27868e-05
0.000520915
4.32958e-05
0.000559675
5.46335e-05
0.000599892
6.68275e-05
0.00064111
7.99087e-05
0.000682694
9.38641e-05
0.000723705
0.000108698
0.000762877
0.000124309
0.000798538
0.000140621
0.000828369
0.000157442
0.00084955
0.000174477
0.000858037
0.000191328
0.000849446
0.000207465
0.00081797
0.000222118
0.000755363
0.000234554
0.000654754
0.000528528
0.000243373
-8.38101e-05
1.60934e-05
8.40668e-05
-8.35298e-05
1.74003e-05
-8.32287e-05
1.8815e-05
-8.29012e-05
2.03466e-05
-8.25486e-05
2.20054e-05
-8.21659e-05
2.38029e-05
-8.17539e-05
2.57517e-05
-8.13068e-05
2.7866e-05
-8.08255e-05
3.0145e-05
-8.03021e-05
3.26086e-05
-7.97397e-05
3.52874e-05
-7.91287e-05
3.8189e-05
-7.8473e-05
4.13324e-05
-7.7759e-05
4.4695e-05
-7.69901e-05
4.83216e-05
-7.61561e-05
5.23105e-05
-7.52599e-05
5.66342e-05
-7.42837e-05
6.11973e-05
-7.32297e-05
6.6192e-05
-7.20883e-05
7.16824e-05
-7.08511e-05
7.74851e-05
-6.95052e-05
8.37888e-05
-6.80509e-05
9.07689e-05
-6.64611e-05
9.80287e-05
-6.47371e-05
0.000106162
-6.28576e-05
0.00011486
-6.08072e-05
0.00012425
-5.85736e-05
0.00013457
-5.61291e-05
0.000145539
-5.34642e-05
0.000157695
-5.05455e-05
0.000170619
-4.73604e-05
0.000184866
-4.38823e-05
0.000200162
-4.0082e-05
0.000216795
-3.59377e-05
0.000234919
-3.14067e-05
0.000254265
-2.64717e-05
0.000275497
-2.10957e-05
0.000298306
-1.524e-05
0.000322812
-8.87509e-06
0.000349377
-1.96187e-06
0.000377875
5.5488e-06
0.000408225
1.37016e-05
0.000440634
2.25385e-05
0.000475049
3.21042e-05
0.000511336
4.24406e-05
0.000549322
5.35889e-05
0.000588726
6.55744e-05
0.000629099
7.8425e-05
0.000669818
9.21259e-05
0.000709963
0.000106678
0.000748294
0.000121983
0.000783172