/*--------------------------------*- C++ -*----------------------------------*\
  =========                 |
  \\      /  F ield         | OpenFOAM: The Open Source CFD Toolbox
   \\    /   O peration     | Website:  https://openfoam.org
    \\  /    A nd           | Version:  6.0
     \\/     M anipulation  |
\*---------------------------------------------------------------------------*/
FoamFile
{
    version     2.0;
    format      ascii;
    class       volVectorField;
    location    "8";
    object      U;
}
// * * * * * * * * * * * * * * * * * * * * * * * * * * * * * * * * * * * * * //

dimensions      [0 1 -1 0 0 0 0];

internalField   nonuniform List<vector> 
62000
(
(0.939746 0.339641 -3.70172e-21)
(0.93988 0.339907 3.12038e-21)
(0.93999 0.340082 3.38164e-21)
(0.940071 0.340285 -1.53825e-20)
(0.940119 0.34051 -1.84821e-20)
(0.940135 0.340751 6.48005e-20)
(0.940119 0.341012 -7.38505e-20)
(0.940074 0.341287 4.4147e-20)
(0.940003 0.341579 -2.16844e-20)
(0.939911 0.341881 -1.153e-19)
(0.939802 0.342192 -1.73595e-20)
(0.93968 0.342506 1.70891e-19)
(0.939551 0.342819 3.7132e-20)
(0.939418 0.343126 -1.32563e-19)
(0.939287 0.343423 2.16079e-19)
(0.939159 0.343704 -1.18129e-19)
(0.939037 0.343968 1.30832e-19)
(0.938924 0.344209 -1.5634e-19)
(0.938819 0.344427 8.27235e-20)
(0.938723 0.344619 -2.67573e-19)
(0.938637 0.344785 3.63236e-19)
(0.938561 0.344924 1.20559e-19)
(0.938494 0.345036 1.84089e-19)
(0.938435 0.345123 -8.24906e-19)
(0.938386 0.345185 3.13477e-19)
(0.938346 0.345223 -2.18101e-19)
(0.938316 0.345239 -1.36415e-20)
(0.938296 0.345234 -2.05533e-19)
(0.938288 0.345211 6.2423e-19)
(0.938292 0.345168 -3.79416e-19)
(0.93831 0.345106 9.52783e-19)
(0.938342 0.345022 -2.0642e-18)
(0.938389 0.344917 1.81953e-19)
(0.938451 0.344793 -8.15949e-19)
(0.938529 0.344652 -2.78028e-19)
(0.938621 0.344493 -9.23209e-19)
(0.938726 0.344312 -3.11402e-19)
(0.938842 0.344106 -3.54599e-19)
(0.938965 0.343873 1.01026e-18)
(0.939088 0.343613 5.04296e-18)
(0.939198 0.343323 -1.24275e-18)
(0.939292 0.342974 -7.25682e-18)
(0.939372 0.342545 -1.14491e-17)
(0.939431 0.34203 6.16204e-18)
(0.939464 0.341433 1.70107e-18)
(0.939459 0.340776 -8.33226e-18)
(0.939403 0.340103 2.06689e-18)
(0.939265 0.339483 -3.13104e-18)
(0.939005 0.338988 -1.38759e-17)
(0.938565 0.338653 -2.85981e-18)
(0.93787 0.338428 -1.36486e-18)
(0.936888 0.338056 -1.96658e-17)
(0.935581 0.337192 1.80247e-18)
(0.93395 0.335274 2.50787e-17)
(0.932195 0.331656 7.55303e-18)
(0.930592 0.325843 2.65496e-17)
(0.92956 0.317326 -3.81674e-18)
(0.929409 0.305947 -6.8116e-18)
(0.930947 0.287116 1.32045e-17)
(0.90469 0.252843 2.43377e-18)
(0.940156 0.337832 -1.00585e-21)
(0.940545 0.338168 9.86323e-21)
(0.940936 0.338401 4.28831e-21)
(0.941322 0.338624 -1.84167e-20)
(0.941683 0.338872 7.87416e-21)
(0.942007 0.339128 -5.65417e-20)
(0.942282 0.339404 5.28673e-20)
(0.942499 0.339701 3.2119e-20)
(0.942649 0.340027 -6.1743e-20)
(0.94273 0.340385 2.29514e-21)
(0.942739 0.340781 6.46795e-20)
(0.942679 0.341212 8.90474e-22)
(0.942554 0.341683 2.11202e-20)
(0.942371 0.342189 -1.80945e-19)
(0.942139 0.342727 3.79866e-19)
(0.941866 0.343292 -3.47554e-19)
(0.941561 0.343874 1.7151e-19)
(0.941234 0.344466 -3.66507e-20)
(0.940892 0.345057 -1.08964e-19)
(0.940545 0.345637 3.19933e-19)
(0.940196 0.346198 -5.26011e-19)
(0.939852 0.346731 3.20409e-19)
(0.939517 0.34723 -4.38053e-19)
(0.939193 0.347687 2.66092e-19)
(0.938882 0.3481 2.70057e-19)
(0.938587 0.348465 -1.85882e-19)
(0.938309 0.348779 -9.51731e-21)
(0.938052 0.349042 2.21765e-19)
(0.937817 0.349254 2.04698e-19)
(0.937605 0.349411 -4.68505e-19)
(0.937416 0.349501 9.8679e-19)
(0.937254 0.349508 2.2876e-19)
(0.937127 0.349416 7.37407e-19)
(0.937052 0.349229 6.85511e-20)
(0.937031 0.348956 2.48324e-19)
(0.937059 0.348599 -2.62158e-19)
(0.937135 0.348137 -8.72138e-19)
(0.937269 0.347551 -4.35396e-19)
(0.937467 0.346825 -2.73619e-18)
(0.937726 0.345959 -3.32385e-18)
(0.938034 0.344937 2.66631e-18)
(0.938377 0.343767 1.58369e-18)
(0.938745 0.342485 1.19487e-17)
(0.939117 0.341157 6.94603e-19)
(0.939454 0.339889 -1.78428e-17)
(0.939702 0.338823 6.87516e-18)
(0.939784 0.338124 5.44671e-18)
(0.939602 0.337942 6.10896e-18)
(0.939042 0.33833 1.29777e-18)
(0.938001 0.339144 3.11415e-19)
(0.936375 0.340006 8.90206e-18)
(0.934206 0.340092 2.41435e-17)
(0.931512 0.338623 -1.69329e-17)
(0.928349 0.334592 -4.32329e-17)
(0.925216 0.32693 -1.13065e-17)
(0.922716 0.315252 -9.11455e-18)
(0.921602 0.299117 -2.12424e-17)
(0.921794 0.279301 -1.11334e-17)
(0.927625 0.249224 1.78411e-17)
(0.885379 0.205807 6.37756e-18)
(0.938754 0.345677 -5.17476e-21)
(0.938907 0.345722 -7.32386e-22)
(0.939131 0.345734 8.2499e-22)
(0.939433 0.345684 3.85229e-21)
(0.939796 0.345626 1.11264e-20)
(0.940208 0.345543 -1.07881e-20)
(0.940653 0.345442 5.95536e-20)
(0.941111 0.34533 -2.87661e-20)
(0.941562 0.345215 -1.58372e-20)
(0.941988 0.345109 -1.03193e-19)
(0.942369 0.345023 8.91363e-20)
(0.942691 0.344967 7.06417e-21)
(0.94294 0.344952 -2.22116e-20)
(0.943107 0.34499 6.16829e-20)
(0.943189 0.345088 -1.10464e-19)
(0.943185 0.34525 -5.80741e-22)
(0.943098 0.345478 -5.69689e-20)
(0.942933 0.345769 -1.29124e-21)
(0.9427 0.346118 1.40883e-19)
(0.942409 0.346516 -2.29346e-19)
(0.942068 0.346953 1.48269e-19)
(0.94169 0.347418 6.27565e-19)
(0.941284 0.347899 -6.78361e-20)
(0.940858 0.348383 -9.63287e-19)
(0.94042 0.348859 5.16964e-19)
(0.939977 0.349315 -3.12223e-19)
(0.939535 0.349743 5.26103e-19)
(0.9391 0.350136 -3.27976e-19)
(0.938674 0.350487 -7.10737e-19)
(0.938259 0.350787 8.20389e-19)
(0.937852 0.351012 -6.07607e-19)
(0.937463 0.351129 8.65679e-19)
(0.937109 0.351109 -2.57728e-18)
(0.936819 0.350961 2.43311e-18)
(0.936594 0.350704 -1.37181e-18)
(0.936423 0.350343 5.77312e-19)
(0.93631 0.349847 4.65207e-19)
(0.936272 0.349184 -6.89e-20)
(0.93633 0.348332 -1.96161e-19)
(0.93649 0.347292 3.43115e-18)
(0.93677 0.346031 -1.39505e-18)
(0.937149 0.34463 2.17236e-18)
(0.937609 0.343182 -7.7365e-18)
(0.938124 0.341804 -3.75879e-18)
(0.938646 0.340663 3.85059e-18)
(0.939106 0.339968 -1.33723e-17)
(0.939411 0.339929 1.67065e-18)
(0.93945 0.340717 -1.03857e-17)
(0.939108 0.342337 1.37538e-17)
(0.938303 0.344531 3.33091e-18)
(0.936978 0.346764 1.58534e-18)
(0.935244 0.348009 -6.23221e-19)
(0.933136 0.347408 6.69328e-18)
(0.930715 0.343961 2.59409e-18)
(0.928396 0.336623 -1.48581e-17)
(0.926746 0.325286 -1.02861e-17)
(0.926437 0.309771 -6.30363e-18)
(0.926426 0.291532 -2.50709e-17)
(0.934924 0.266196 -2.19077e-18)
(0.898779 0.240538 2.26065e-18)
(0.937067 0.354784 -5.56112e-21)
(0.936804 0.35471 1.72446e-20)
(0.936618 0.354641 -2.67929e-21)
(0.936526 0.354502 -1.82922e-20)
(0.936531 0.354341 2.81032e-20)
(0.936639 0.354135 4.96482e-20)
(0.936847 0.353883 -6.5761e-20)
(0.937151 0.353585 7.35754e-21)
(0.937537 0.353244 2.42482e-20)
(0.937991 0.352865 5.22958e-20)
(0.938491 0.352456 -9.80968e-20)
(0.939014 0.35203 -3.18691e-20)
(0.939537 0.351599 -3.72293e-20)
(0.940037 0.35118 1.72712e-19)
(0.940491 0.35079 -1.19116e-19)
(0.940881 0.350442 2.91701e-19)
(0.941193 0.35015 -3.66523e-19)
(0.941417 0.349924 -5.9197e-20)
(0.941548 0.349771 4.24576e-19)
(0.941585 0.349694 -1.5195e-19)
(0.941533 0.349692 -6.00597e-20)
(0.941397 0.349762 -6.69485e-20)
(0.941186 0.349896 -6.47205e-19)
(0.940909 0.350085 3.74967e-19)
(0.940578 0.350316 -1.93672e-19)
(0.940202 0.35058 3.0651e-19)
(0.939791 0.350861 1.57658e-19)
(0.939355 0.351149 8.16301e-19)
(0.938898 0.351434 -5.27934e-19)
(0.938423 0.351702 -7.41915e-19)
(0.937928 0.351919 1.26036e-18)
(0.937432 0.352038 -1.07406e-18)
(0.936959 0.352022 2.1222e-18)
(0.936544 0.351883 -1.38246e-18)
(0.936182 0.351646 5.80679e-19)
(0.935862 0.351319 1.07168e-18)
(0.935588 0.350866 -5.03849e-19)
(0.935386 0.350246 6.73648e-19)
(0.935282 0.349438 -3.35644e-19)
(0.935289 0.34844 1.08851e-18)
(0.935454 0.347216 -3.0798e-18)
(0.935768 0.34589 8.50596e-19)
(0.936194 0.344594 1.82568e-18)
(0.936702 0.343458 4.50952e-18)
(0.937245 0.342659 5.63978e-18)
(0.937766 0.34242 1.05954e-18)
(0.938186 0.342949 8.37176e-18)
(0.938416 0.344406 8.5939e-18)
(0.938385 0.346757 9.49633e-18)
(0.938055 0.349711 -6.42385e-18)
(0.937431 0.352702 -7.836e-18)
(0.936672 0.354685 4.94588e-18)
(0.935772 0.354886 6.34808e-18)
(0.934748 0.352419 1.71525e-17)
(0.933798 0.346322 1.23899e-17)
(0.933314 0.336616 1.92884e-17)
(0.933835 0.323235 3.94117e-17)
(0.933447 0.307658 -5.28805e-19)
(0.9429 0.288144 -2.25455e-17)
(0.917831 0.275357 -1.50157e-17)
(0.936179 0.361049 1.12896e-20)
(0.935682 0.361031 -3.80096e-21)
(0.935216 0.361005 6.56482e-21)
(0.934798 0.360925 -9.32585e-21)
(0.934443 0.360831 2.16174e-20)
(0.934168 0.360698 -1.07315e-20)
(0.93399 0.36052 6.17299e-21)
(0.933918 0.360291 -9.17153e-20)
(0.93396 0.360007 7.83928e-20)
(0.934117 0.359664 -1.62884e-19)
(0.934382 0.359262 1.83314e-19)
(0.934746 0.358803 -2.29613e-20)
(0.93519 0.358295 -5.29059e-20)
(0.935695 0.357748 -2.51111e-20)
(0.936234 0.357175 -6.32505e-21)
(0.936782 0.356592 -2.7617e-19)
(0.937315 0.356013 7.09431e-21)
(0.937807 0.355456 3.17185e-19)
(0.93824 0.354935 -1.09319e-19)
(0.938597 0.354464 -1.22226e-19)
(0.938868 0.354055 2.05244e-19)
(0.939046 0.353714 -1.11233e-19)
(0.93913 0.353446 4.83429e-19)
(0.939122 0.353251 2.89464e-19)
(0.939029 0.353125 2.3795e-19)
(0.938858 0.353064 -7.18352e-19)
(0.938618 0.353056 -1.07109e-19)
(0.938318 0.353095 -6.39369e-19)
(0.937964 0.35317 1.15254e-19)
(0.93756 0.353269 -2.42709e-19)
(0.937111 0.353353 -1.06823e-19)
(0.936639 0.353367 8.35694e-19)
(0.936174 0.353269 -2.15404e-18)
(0.935751 0.353069 -1.16525e-19)
(0.935361 0.352799 -1.22936e-18)
(0.934992 0.352467 -6.24086e-19)
(0.934651 0.35203 1.63499e-19)
(0.934366 0.351448 -2.25991e-18)
(0.934164 0.350698 3.62817e-18)
(0.93406 0.349779 6.62285e-19)
(0.93412 0.348654 4.23836e-18)
(0.934356 0.347463 -3.15203e-18)
(0.934705 0.346356 -2.12851e-18)
(0.935124 0.345448 -7.18763e-19)
(0.935575 0.344898 4.26105e-18)
(0.936009 0.344911 5.91826e-18)
(0.936373 0.345659 1.62887e-18)
(0.936606 0.347279 2.53513e-18)
(0.936691 0.349698 -2.73055e-18)
(0.936636 0.352619 1.67752e-17)
(0.9365 0.35549 4.00157e-18)
(0.9365 0.357313 -3.38567e-18)
(0.936586 0.357439 2.04709e-18)
(0.936747 0.355124 1.29099e-17)
(0.937005 0.349494 -9.24783e-19)
(0.937558 0.340589 -1.51903e-17)
(0.938868 0.328396 -3.80096e-17)
(0.938439 0.313887 3.70038e-17)
(0.947837 0.297314 -2.2279e-17)
(0.931486 0.287775 1.72744e-17)
(0.935924 0.364956 -4.45689e-21)
(0.935367 0.36499 1.83236e-20)
(0.934803 0.365018 -3.07726e-20)
(0.934239 0.36501 2.34426e-20)
(0.933688 0.365003 1.57679e-20)
(0.93317 0.364973 -1.68506e-20)
(0.932703 0.364915 1.50377e-21)
(0.932307 0.364821 -1.34972e-20)
(0.931999 0.364682 -4.70561e-20)
(0.931794 0.364491 9.2392e-20)
(0.931703 0.364241 -1.48681e-19)
(0.93173 0.363928 1.33404e-19)
(0.931876 0.363549 1.23776e-19)
(0.932133 0.363106 -1.9615e-19)
(0.932486 0.362602 -6.83089e-20)
(0.932917 0.362046 2.60394e-19)
(0.933404 0.361447 -3.28645e-19)
(0.933919 0.360818 4.7455e-19)
(0.934439 0.360172 -8.93349e-20)
(0.934936 0.359527 6.11609e-20)
(0.935391 0.358899 -8.96857e-20)
(0.935783 0.3583 -1.20411e-19)
(0.936099 0.357745 -2.37028e-19)
(0.936331 0.357246 4.35026e-19)
(0.936474 0.356805 -3.06545e-19)
(0.936528 0.35643 -3.22808e-19)
(0.936497 0.356118 6.82611e-19)
(0.936385 0.355869 -7.08742e-19)
(0.936195 0.355682 1.14464e-18)
(0.935932 0.355547 -6.34368e-19)
(0.935602 0.35543 5.08565e-19)
(0.935234 0.355273 -9.27979e-19)
(0.934858 0.355031 1.03156e-18)
(0.934505 0.354715 -8.83591e-20)
(0.934164 0.35436 -5.16435e-20)
(0.933822 0.353974 -2.96297e-20)
(0.933489 0.353511 -7.17244e-19)
(0.933193 0.352929 2.02294e-18)
(0.932957 0.352209 -1.59573e-18)
(0.932796 0.351346 -9.73098e-18)
(0.932782 0.350311 -4.2193e-18)
(0.932949 0.349235 2.96267e-18)
(0.93321 0.348273 -3.39581e-18)
(0.933505 0.347507 -3.56473e-18)
(0.933802 0.347063 -3.0752e-19)
(0.934059 0.34711 8.83496e-18)
(0.93425 0.347773 -1.2447e-17)
(0.934339 0.349155 -1.19554e-17)
(0.934358 0.351143 -7.03933e-18)
(0.934359 0.353446 -1.17329e-17)
(0.934448 0.355545 8.07678e-18)
(0.934907 0.356512 -2.46182e-18)
(0.935667 0.355835 -2.17486e-17)
(0.936703 0.352926 5.43954e-18)
(0.937914 0.347005 6.21584e-18)
(0.939342 0.33808 -1.43526e-17)
(0.941403 0.326194 9.17334e-18)
(0.941317 0.311625 1.16459e-17)
(0.950188 0.295889 3.66349e-17)
(0.938677 0.285282 5.88679e-19)
(0.935955 0.367641 5.42685e-21)
(0.935415 0.367706 -2.49582e-20)
(0.934848 0.367758 1.2284e-20)
(0.934254 0.367785 2.3801e-20)
(0.93364 0.367822 -5.23773e-20)
(0.933019 0.367851 4.48842e-20)
(0.932406 0.367868 -3.09688e-20)
(0.931819 0.367867 2.68722e-20)
(0.931278 0.367842 4.48648e-20)
(0.930801 0.367784 -1.10295e-19)
(0.930406 0.367686 1.64931e-19)
(0.930111 0.367537 7.44519e-20)
(0.929928 0.367332 -2.98113e-19)
(0.929862 0.367065 -6.10341e-20)
(0.929915 0.366731 1.69405e-19)
(0.930082 0.366329 1.1583e-19)
(0.93035 0.36586 -1.43992e-19)
(0.930703 0.365329 1.32671e-19)
(0.931119 0.364741 2.18818e-19)
(0.931573 0.36411 -1.02556e-19)
(0.93204 0.363448 -6.15933e-20)
(0.932496 0.362768 2.45226e-19)
(0.932919 0.362088 5.32719e-19)
(0.933289 0.361423 -3.78558e-19)
(0.933594 0.360783 -4.53442e-19)
(0.933822 0.360184 5.29436e-19)
(0.93397 0.359631 -4.17677e-19)
(0.934033 0.359135 -1.85937e-19)
(0.934009 0.358701 1.5656e-18)
(0.9339 0.358332 -7.20614e-19)
(0.933715 0.357999 -5.87147e-19)
(0.933481 0.357645 7.66785e-19)
(0.933228 0.357229 5.65093e-19)
(0.932981 0.356763 -5.51452e-19)
(0.932727 0.356286 -3.86319e-19)
(0.932454 0.355807 1.30445e-18)
(0.932173 0.355278 2.81423e-19)
(0.93191 0.354659 4.76408e-19)
(0.931682 0.353933 -2.69356e-18)
(0.931503 0.353092 -2.8031e-18)
(0.931443 0.352115 5.39616e-18)
(0.931556 0.351114 4.38814e-18)
(0.931736 0.350235 7.32111e-18)
(0.931905 0.349523 -6.79922e-18)
(0.932037 0.349063 -7.53443e-18)
(0.932099 0.348986 -4.73859e-18)
(0.932087 0.349363 1.15038e-17)
(0.931988 0.350262 1.11172e-17)
(0.931878 0.35154 -1.17574e-17)
(0.93184 0.352916 -1.74301e-17)
(0.932019 0.353918 -1.93891e-18)
(0.932763 0.353698 3.56323e-18)
(0.933987 0.351878 -2.11124e-19)
(0.935666 0.348025 -8.21151e-18)
(0.937618 0.341452 8.46261e-18)
(0.939772 0.332132 4.52272e-18)
(0.942492 0.320168 6.9879e-18)
(0.942964 0.305193 -3.57215e-17)
(0.951187 0.289407 -1.85738e-18)
(0.941589 0.277275 1.78183e-18)
(0.936079 0.369648 -9.42727e-21)
(0.935577 0.369718 -7.82057e-21)
(0.935042 0.369777 1.05283e-20)
(0.934468 0.369817 3.89344e-20)
(0.933858 0.369874 -8.59713e-20)
(0.933218 0.369931 1.0096e-19)
(0.932557 0.369986 -4.06633e-21)
(0.931889 0.370037 -6.15224e-21)
(0.931228 0.370078 -3.92392e-20)
(0.930591 0.370103 9.97782e-20)
(0.929998 0.370106 -1.57521e-19)
(0.929468 0.370079 6.08592e-20)
(0.929021 0.370014 -2.35816e-21)
(0.92867 0.369903 1.03926e-19)
(0.928428 0.369737 5.29338e-20)
(0.928303 0.36951 -2.83364e-19)
(0.928294 0.369216 2.5491e-19)
(0.928398 0.36885 1.06817e-19)
(0.928601 0.368412 -3.12872e-19)
(0.928888 0.367905 1.58962e-19)
(0.929238 0.367334 7.94231e-20)
(0.929628 0.366708 -4.81603e-20)
(0.930033 0.36604 7.59298e-20)
(0.930431 0.365346 -3.6418e-20)
(0.9308 0.364634 -5.14616e-19)
(0.931123 0.363927 3.54414e-19)
(0.931386 0.363232 -5.65559e-19)
(0.931578 0.362567 1.09262e-18)
(0.931689 0.36195 -1.95202e-19)
(0.931718 0.361388 -1.29876e-19)
(0.931669 0.360865 -3.1689e-20)
(0.931567 0.360326 1.3564e-18)
(0.93144 0.359735 -5.60059e-19)
(0.931307 0.35911 -3.79549e-19)
(0.931151 0.358493 9.88223e-19)
(0.930964 0.357897 8.97498e-19)
(0.930755 0.357272 -1.56002e-18)
(0.930546 0.356583 2.88117e-19)
(0.930351 0.355814 3.25344e-18)
(0.930183 0.354956 -3.55179e-19)
(0.930101 0.353993 2.27225e-18)
(0.930176 0.353017 -3.31327e-18)
(0.930293 0.352155 5.01647e-18)
(0.930357 0.351416 1.08409e-17)
(0.930351 0.350844 3.02258e-18)
(0.930251 0.350531 -4.33583e-18)
(0.930073 0.350505 -1.31197e-17)
(0.92982 0.350802 2.83885e-18)
(0.929602 0.351256 3.63032e-18)
(0.929526 0.351606 6.67116e-18)
(0.929762 0.351431 -7.10631e-20)
(0.930713 0.349965 -1.44329e-17)
(0.932289 0.346954 1.26207e-17)
(0.934455 0.342109 -8.80962e-18)
(0.936973 0.33483 1.93937e-17)
(0.939708 0.325058 4.48216e-18)
(0.94296 0.312962 2.26605e-17)
(0.94404 0.297667 3.14359e-17)
(0.951676 0.281651 6.17165e-18)
(0.942437 0.268876 8.96015e-18)
(0.936208 0.371269 -4.6825e-21)
(0.935745 0.37135 4.07114e-21)
(0.93525 0.371411 2.12671e-20)
(0.934713 0.371453 3.4869e-20)
(0.934134 0.371512 -1.04371e-19)
(0.933514 0.371574 6.15489e-20)
(0.932859 0.371639 -1.14541e-19)
(0.932175 0.371705 1.83571e-19)
(0.931472 0.371772 -8.8179e-20)
(0.930764 0.371835 1.62253e-20)
(0.930066 0.371892 1.84645e-19)
(0.929395 0.371935 -4.30924e-19)
(0.928771 0.371959 3.02433e-19)
(0.928212 0.371955 4.58669e-20)
(0.927736 0.371917 7.72848e-20)
(0.927356 0.371833 -3.21808e-19)
(0.927085 0.371696 1.63795e-19)
(0.926928 0.371496 -2.11904e-19)
(0.926883 0.371224 4.37116e-19)
(0.926946 0.370879 -5.43406e-20)
(0.927104 0.370457 -5.96308e-19)
(0.92734 0.369959 2.41431e-19)
(0.927635 0.369392 -1.37155e-20)
(0.927965 0.368765 -9.89303e-19)
(0.928308 0.368086 7.45876e-19)
(0.928642 0.367373 5.92569e-19)
(0.928948 0.366635 4.31933e-19)
(0.929208 0.365894 -5.5745e-19)
(0.929406 0.365172 -6.4771e-19)
(0.929534 0.364485 3.08614e-19)
(0.929594 0.363821 4.90987e-19)
(0.929605 0.363135 -6.19045e-19)
(0.92959 0.362395 -9.79677e-19)
(0.92956 0.361622 2.03934e-18)
(0.929499 0.360867 2.32811e-19)
(0.929397 0.360145 -3.38948e-18)
(0.929264 0.359407 2.76111e-19)
(0.929119 0.358623 2.48141e-18)
(0.928972 0.357779 2.49083e-19)
(0.928832 0.356867 3.51815e-18)
(0.928749 0.355873 -5.16533e-18)
(0.928804 0.354871 -3.79357e-19)
(0.928882 0.35396 -3.35471e-18)
(0.928874 0.353123 1.36237e-18)
(0.928776 0.352365 5.5744e-18)
(0.928569 0.351748 1.72371e-17)
(0.92829 0.35126 2.34309e-18)
(0.927951 0.350916 -1.08979e-17)
(0.927689 0.350538 8.47931e-18)
(0.927622 0.34989 2.92138e-17)
(0.927934 0.348602 -2.33494e-17)
(0.929069 0.345987 2.79503e-17)
(0.93093 0.341897 -1.70965e-17)
(0.933471 0.336173 -1.03135e-17)
(0.936412 0.32829 -4.00445e-17)
(0.939593 0.318166 -2.39555e-18)
(0.94323 0.306022 -1.40943e-17)
(0.944868 0.290636 -1.65757e-17)
(0.952053 0.274504 1.38291e-17)
(0.942571 0.261996 2.83374e-18)
(0.936315 0.372588 6.66186e-21)
(0.935885 0.37267 2.48521e-21)
(0.935427 0.372729 -2.53102e-20)
(0.934928 0.372771 2.46903e-20)
(0.934387 0.37283 -1.12244e-20)
(0.933803 0.372893 2.08893e-20)
(0.933177 0.37296 7.69502e-21)
(0.932513 0.373032 -1.10667e-19)
(0.931815 0.373107 4.84879e-20)
(0.931092 0.373186 -3.54978e-20)
(0.930353 0.373265 2.08689e-20)
(0.929615 0.373342 8.72397e-20)
(0.928892 0.373414 -1.67394e-20)
(0.928202 0.373474 5.77976e-20)
(0.927562 0.373517 -2.51231e-19)
(0.926991 0.373533 9.77886e-20)
(0.926507 0.373514 4.41619e-20)
(0.92612 0.373447 -1.30518e-19)
(0.92584 0.373322 2.65236e-19)
(0.92567 0.373131 9.27392e-20)
(0.925609 0.372866 -8.70976e-21)
(0.925647 0.37252 -1.0794e-19)
(0.925773 0.372093 4.44445e-19)
(0.925968 0.371588 -1.26952e-18)
(0.926213 0.371006 6.77181e-19)
(0.926487 0.370361 3.03703e-19)
(0.926767 0.369659 -5.23286e-19)
(0.927031 0.368921 9.66567e-19)
(0.927262 0.36817 -4.70046e-19)
(0.927444 0.367427 -2.64715e-19)
(0.927574 0.366684 -5.35465e-19)
(0.927667 0.3659 -2.36727e-19)
(0.927738 0.365049 6.38241e-19)
(0.927792 0.364156 -2.03492e-18)
(0.927811 0.36328 3.97941e-18)
(0.927786 0.362438 -2.70988e-19)
(0.927725 0.361584 2.25237e-18)
(0.927643 0.360692 -5.92973e-18)
(0.927548 0.359752 -1.96264e-18)
(0.92745 0.358755 1.44109e-20)
(0.927381 0.35769 -1.60392e-18)
(0.927431 0.356614 -2.90466e-19)
(0.927494 0.3556 -5.86656e-18)
(0.92745 0.354607 1.9831e-18)
(0.927306 0.353611 2.86678e-18)
(0.927053 0.352649 -1.60897e-17)
(0.926741 0.35168 2.07108e-17)
(0.926391 0.350707 3.09706e-18)
(0.926154 0.349548 1.06767e-18)
(0.926152 0.347995 -2.03539e-17)
(0.926572 0.345727 7.04708e-18)
(0.927889 0.342128 -1.49576e-17)
(0.929998 0.337141 3.03775e-17)
(0.93283 0.330716 6.12125e-18)
(0.936078 0.322393 -2.83917e-17)
(0.939583 0.312067 1.1101e-17)
(0.943472 0.300003 -3.29688e-17)
(0.945571 0.28476 -7.58042e-18)
(0.952444 0.268713 -5.08077e-17)
(0.94263 0.257134 -1.11404e-17)
(0.936407 0.373707 -1.50285e-21)
(0.936004 0.373792 -6.07598e-21)
(0.935576 0.373847 -5.53467e-21)
(0.935112 0.373885 5.35169e-20)
(0.934607 0.37394 -3.00527e-20)
(0.93406 0.373998 -3.78218e-20)
(0.933471 0.37406 -1.51382e-20)
(0.932839 0.374129 -6.29333e-20)
(0.932166 0.374203 3.8378e-20)
(0.931457 0.374284 4.77995e-21)
(0.930718 0.374371 1.13261e-21)
(0.929959 0.374462 1.88325e-19)
(0.929192 0.374556 -1.36857e-19)
(0.928431 0.37465 -1.80253e-20)
(0.927691 0.374738 1.69664e-19)
(0.926992 0.374815 -9.55276e-20)
(0.926351 0.374873 -3.9285e-20)
(0.925784 0.374899 6.33512e-20)
(0.925305 0.374884 2.16761e-19)
(0.924926 0.374817 1.28327e-19)
(0.924652 0.374686 5.48299e-20)
(0.924483 0.374482 -3.28241e-19)
(0.924416 0.374198 1.77215e-19)
(0.92444 0.373831 3.5374e-19)
(0.92454 0.373374 -7.48046e-19)
(0.924699 0.372837 2.55327e-19)
(0.924896 0.37222 -1.03166e-18)
(0.925111 0.37154 8.68671e-19)
(0.92532 0.370821 8.03879e-19)
(0.925508 0.370081 -1.25906e-18)
(0.925666 0.369315 -6.34245e-19)
(0.925803 0.368484 8.68663e-19)
(0.925928 0.367565 3.00975e-19)
(0.92604 0.366588 -8.74799e-19)
(0.926119 0.365617 -1.15703e-18)
(0.926155 0.364671 -1.43599e-18)
(0.926155 0.363708 9.00359e-19)
(0.92613 0.362707 2.26903e-18)
(0.926088 0.36166 8.14428e-19)
(0.926036 0.360558 -8.05712e-19)
(0.925993 0.359389 9.01409e-18)
(0.926051 0.358203 -9.07551e-19)
(0.926118 0.357041 9.66959e-18)
(0.926067 0.355852 -1.76071e-17)
(0.92592 0.354584 2.77443e-18)
(0.925673 0.35326 4.8884e-19)
(0.925387 0.351818 -1.03261e-18)
(0.925088 0.350256 -1.44796e-17)
(0.924936 0.348393 -2.34313e-17)
(0.925048 0.346055 2.1244e-17)
(0.925606 0.342963 2.81889e-17)
(0.927108 0.338563 1.52073e-17)
(0.929435 0.332872 -2.97523e-17)
(0.932492 0.325931 1.64902e-17)
(0.935953 0.317331 4.1737e-17)
(0.939682 0.306951 1.82323e-17)
(0.943706 0.295078 3.21895e-17)
(0.946159 0.280158 1.65908e-17)
(0.952836 0.264372 4.87388e-17)
(0.942799 0.254068 -3.31349e-17)
(0.936485 0.374661 1.96675e-21)
(0.936104 0.374742 -6.0268e-21)
(0.935701 0.374793 2.21707e-20)
(0.935265 0.37483 6.26578e-21)
(0.93479 0.374883 -3.19911e-20)
(0.934276 0.374939 -3.85873e-20)
(0.93372 0.375 9.29486e-20)
(0.933122 0.375066 -1.04811e-19)
(0.93248 0.375138 -2.77624e-20)
(0.931797 0.375217 6.79259e-20)
(0.931077 0.375303 6.60614e-20)
(0.930324 0.375396 2.09394e-19)
(0.929547 0.375495 -1.16975e-19)
(0.928758 0.375601 -2.13083e-19)
(0.927966 0.37571 4.79059e-20)
(0.92719 0.375817 -1.88314e-19)
(0.926446 0.375918 1.42738e-19)
(0.92575 0.376002 -2.5587e-19)
(0.925119 0.376061 3.76442e-20)
(0.924568 0.376082 -9.43923e-20)
(0.924109 0.376054 -6.47862e-20)
(0.923748 0.375966 -2.6856e-19)
(0.923489 0.375805 1.57606e-20)
(0.92333 0.375566 6.01752e-19)
(0.923263 0.375236 -2.16032e-19)
(0.923275 0.374819 6.52233e-20)
(0.92335 0.37431 2.05851e-19)
(0.923471 0.37372 -2.91575e-19)
(0.923614 0.37307 -6.58544e-20)
(0.923763 0.372376 4.43844e-19)
(0.923907 0.371632 5.02691e-19)
(0.924049 0.370796 -3.85368e-19)
(0.924194 0.36985 -1.28587e-18)
(0.924334 0.368825 -1.91112e-18)
(0.924449 0.367787 3.01836e-18)
(0.924526 0.36676 8.51702e-19)
(0.924572 0.365703 5.48284e-19)
(0.924594 0.364598 2.98745e-18)
(0.924598 0.363441 -2.8312e-18)
(0.924593 0.362222 1.82735e-18)
(0.924582 0.360931 6.23996e-20)
(0.924657 0.359606 1.43498e-19)
(0.924742 0.358267 -3.5432e-18)
(0.924708 0.356854 8.14662e-18)
(0.924588 0.355298 -1.09302e-17)
(0.924385 0.353611 6.70098e-18)
(0.924171 0.35172 -1.90852e-17)
(0.923968 0.349622 5.21102e-18)
(0.923942 0.347145 1.23785e-17)
(0.9242 0.344144 -2.15429e-17)
(0.924916 0.34038 -5.11414e-18)
(0.926599 0.33535 -1.02914e-18)
(0.92912 0.32913 -5.73761e-18)
(0.932351 0.321838 -1.7725e-17)
(0.935949 0.313104 1.10781e-18)
(0.939821 0.302786 1.79366e-17)
(0.943893 0.291187 -1.92096e-17)
(0.946606 0.276707 -5.43006e-18)
(0.953172 0.26131 -6.59808e-18)
(0.943056 0.252428 2.48301e-17)
(0.936543 0.375518 3.68396e-21)
(0.936178 0.375608 -3.12979e-21)
(0.935794 0.375659 3.04192e-21)
(0.935379 0.375694 1.99986e-20)
(0.934929 0.375743 3.02835e-20)
(0.934442 0.375795 -1.19067e-19)
(0.933915 0.375849 8.84612e-20)
(0.933348 0.375908 1.973e-20)
(0.932738 0.375973 -5.18651e-21)
(0.932085 0.376044 -4.3754e-20)
(0.93139 0.376123 1.41034e-19)
(0.930658 0.37621 -4.49059e-20)
(0.929892 0.376305 -6.61986e-20)
(0.9291 0.37641 -2.09206e-19)
(0.92829 0.376522 4.30886e-19)
(0.927475 0.37664 -8.86139e-20)
(0.92667 0.37676 -7.77441e-20)
(0.92589 0.376874 -2.46769e-19)
(0.925151 0.376974 2.79239e-19)
(0.924469 0.377051 1.63181e-19)
(0.923861 0.377093 -7.37657e-20)
(0.923335 0.377088 1.39003e-19)
(0.922903 0.377024 -5.99666e-19)
(0.922569 0.37689 3.69618e-20)
(0.92233 0.376672 3.51224e-19)
(0.922181 0.376368 -6.88016e-20)
(0.922113 0.375968 -1.17825e-18)
(0.922109 0.37548 9.39918e-20)
(0.922153 0.374917 1.11013e-18)
(0.922227 0.374293 -3.08655e-19)
(0.922319 0.3736 -6.14794e-19)
(0.92243 0.372793 3.73587e-19)
(0.922561 0.371851 1.13776e-18)
(0.922699 0.370808 2.79142e-18)
(0.922824 0.369732 -4.42349e-19)
(0.922921 0.368646 6.60982e-19)
(0.922994 0.367512 -4.92033e-18)
(0.923049 0.366316 -1.4801e-18)
(0.92309 0.365054 9.82551e-19)
(0.923126 0.363714 -4.2297e-18)
(0.923148 0.362288 -9.50197e-19)
(0.923244 0.36081 2.0842e-18)
(0.923357 0.359275 1.72334e-18)
(0.923353 0.357625 4.84228e-18)
(0.923282 0.355779 1.62237e-17)
(0.92315 0.353742 -1.30924e-17)
(0.923033 0.351435 2.11995e-17)
(0.922953 0.34886 1.62309e-17)
(0.923077 0.345855 -9.89461e-20)
(0.923498 0.342305 2.15765e-17)
(0.924379 0.338003 -2.94166e-17)
(0.926236 0.33249 -3.56935e-17)
(0.928925 0.325887 2.81406e-17)
(0.932286 0.318376 2.47426e-17)
(0.935965 0.309613 -1.07513e-17)
(0.939917 0.299441 -6.19713e-17)
(0.943972 0.288161 1.49392e-17)
(0.946874 0.274179 -1.59167e-17)
(0.953388 0.259238 -2.40567e-17)
(0.943306 0.251773 2.02742e-17)
(0.936579 0.376278 -3.99069e-21)
(0.936226 0.376367 4.41992e-21)
(0.935856 0.376416 3.1543e-20)
(0.935458 0.37645 -4.18729e-20)
(0.935027 0.376498 7.93342e-20)
(0.934561 0.376548 -1.1929e-19)
(0.93406 0.3766 3.42363e-20)
(0.933519 0.376655 -2.09431e-21)
(0.932938 0.376715 8.28945e-20)
(0.932314 0.37678 -4.43094e-20)
(0.931648 0.376852 1.40742e-20)
(0.930941 0.37693 1.52019e-20)
(0.930196 0.377018 -2.36553e-19)
(0.929416 0.377115 7.01345e-20)
(0.928608 0.377223 1.73586e-19)
(0.92778 0.377339 6.627e-21)
(0.926945 0.377463 -3.12114e-19)
(0.926115 0.377588 1.28317e-19)
(0.925304 0.377708 6.35582e-19)
(0.924529 0.377815 -4.20378e-19)
(0.923807 0.3779 -3.3522e-19)
(0.923149 0.37795 2.90967e-19)
(0.922569 0.377954 1.96462e-19)
(0.922078 0.377899 2.27324e-19)
(0.921677 0.37777 -4.42452e-19)
(0.921369 0.377561 -1.00303e-18)
(0.921148 0.377259 7.62102e-19)
(0.921005 0.376867 1.14619e-18)
(0.920927 0.376394 3.42487e-19)
(0.920898 0.37585 -6.52496e-19)
(0.920909 0.375223 3.16151e-19)
(0.920959 0.374463 5.54734e-19)
(0.921044 0.373549 -9.55071e-19)
(0.921153 0.372512 -1.3564e-19)
(0.921262 0.371419 -1.86194e-18)
(0.921355 0.370296 -5.3663e-19)
(0.921436 0.369103 -5.48345e-19)
(0.921508 0.367829 1.461e-18)
(0.921573 0.366469 -2.10291e-18)
(0.921641 0.365012 6.40129e-19)
(0.921694 0.363448 1.09891e-18)
(0.921812 0.361809 3.02151e-19)
(0.921953 0.360072 -7.16682e-18)
(0.921989 0.358183 -1.01131e-17)
(0.921977 0.356054 -9.01823e-18)
(0.921928 0.353687 1.81369e-17)
(0.921922 0.351003 5.25184e-19)
(0.921978 0.348009 -7.5487e-18)
(0.922259 0.344556 4.06423e-18)
(0.922845 0.340557 -2.55933e-17)
(0.923887 0.335832 1.25519e-17)
(0.925903 0.329954 3.52348e-17)
(0.928737 0.323082 -2.19655e-18)
(0.932193 0.315449 -3.22127e-17)
(0.935908 0.306734 1.56152e-17)
(0.939895 0.296758 1.51683e-17)
(0.943894 0.285815 1.92918e-17)
(0.946935 0.272347 4.45328e-17)
(0.953438 0.257888 4.30116e-17)
(0.943451 0.251778 -4.62234e-17)
(0.936604 0.376973 -3.38643e-21)
(0.936259 0.377066 4.97822e-21)
(0.9359 0.377113 1.12625e-21)
(0.935514 0.377144 2.03971e-20)
(0.935098 0.377189 -3.13524e-20)
(0.934649 0.377235 -6.73913e-20)
(0.934167 0.377283 2.34287e-20)
(0.933648 0.377334 -3.49938e-20)
(0.93309 0.377389 7.50599e-20)
(0.932492 0.377448 -1.60343e-20)
(0.931851 0.377514 -5.44289e-20)
(0.93117 0.377586 4.50377e-20)
(0.930448 0.377665 7.71346e-20)
(0.929687 0.377754 2.21854e-19)
(0.928889 0.377854 -4.0994e-19)
(0.928063 0.377963 2.16023e-19)
(0.927218 0.378082 3.55135e-20)
(0.926363 0.378205 -2.26732e-19)
(0.925508 0.378329 -1.48453e-19)
(0.924671 0.378448 4.96257e-19)
(0.923866 0.378553 -5.367e-19)
(0.923106 0.378633 1.61929e-19)
(0.922407 0.378679 -4.64501e-19)
(0.921782 0.378677 7.89242e-19)
(0.921237 0.378612 -1.64284e-19)
(0.92078 0.378476 -4.82132e-19)
(0.92041 0.378254 3.90479e-19)
(0.920124 0.377944 7.6348e-19)
(0.919913 0.377554 -7.41444e-19)
(0.919765 0.377087 4.67633e-19)
(0.919673 0.376528 -1.64258e-18)
(0.919637 0.375824 -1.94476e-19)
(0.919652 0.37495 7.46334e-19)
(0.919707 0.373934 -4.53635e-19)
(0.919776 0.372842 -9.75254e-19)
(0.919843 0.371699 -2.41901e-18)
(0.919911 0.370462 3.17229e-18)
(0.919981 0.369123 -1.31402e-18)
(0.920057 0.367676 1.03314e-18)
(0.920145 0.366108 2.22456e-18)
(0.920223 0.364409 1.84427e-18)
(0.92036 0.362611 -1.18777e-18)
(0.920526 0.360672 4.17893e-18)
(0.920603 0.358551 7.92373e-18)
(0.920654 0.356154 -7.92582e-19)
(0.92069 0.353484 -1.09543e-17)
(0.920797 0.350463 -1.49909e-17)
(0.920989 0.347106 -1.19703e-18)
(0.921425 0.343276 1.16603e-17)
(0.922168 0.338913 -2.25343e-18)
(0.923361 0.333855 2.20359e-17)
(0.925519 0.327705 -3.45784e-17)
(0.928472 0.320651 -1.88427e-17)
(0.931994 0.312964 -7.9869e-18)
(0.935715 0.304341 -1.71024e-17)
(0.939707 0.294586 1.11345e-17)
(0.943626 0.283978 -1.47204e-17)
(0.946777 0.271009 -5.88585e-17)
(0.9533 0.257021 -6.73379e-17)
(0.943427 0.252156 2.47681e-17)
(0.936616 0.37761 -5.1085e-21)
(0.936278 0.3777 4.13775e-21)
(0.935927 0.377745 3.42102e-21)
(0.93555 0.377775 -2.53635e-20)
(0.935144 0.37782 2.65624e-20)
(0.934708 0.377865 -1.36941e-20)
(0.93424 0.377912 4.58849e-20)
(0.933737 0.377962 -7.01702e-20)
(0.933198 0.378014 3.43074e-21)
(0.932619 0.378071 5.15122e-21)
(0.932 0.378131 -5.8303e-20)