/*--------------------------------*- C++ -*----------------------------------*\
  =========                 |
  \\      /  F ield         | OpenFOAM: The Open Source CFD Toolbox
   \\    /   O peration     | Website:  https://openfoam.org
    \\  /    A nd           | Version:  6.0
     \\/     M anipulation  |
\*---------------------------------------------------------------------------*/
FoamFile
{
    version     2.0;
    format      ascii;
    class       volScalarField;
    location    "1";
    object      p;
}
// * * * * * * * * * * * * * * * * * * * * * * * * * * * * * * * * * * * * * //

dimensions      [0 2 -2 0 0 0 0];

internalField   nonuniform List<scalar> 
62000
(
0.0895413
0.0895397
0.0895361
0.08953
0.0895208
0.0895079
0.0894904
0.0894674
0.0894377
0.0894001
0.0893529
0.0892942
0.089222
0.0891335
0.0890259
0.0888954
0.0887383
0.0885495
0.0883236
0.0880541
0.0877338
0.0873541
0.0869053
0.0863763
0.0857548
0.0850264
0.0841757
0.0831851
0.0820361
0.0807083
0.0791804
0.0774307
0.0754374
0.0731799
0.0706402
0.0678046
0.0646661
0.0612259
0.0574965
0.053503
0.0492855
0.0448996
0.0404153
0.0359148
0.0314877
0.027225
0.0232111
0.0195166
0.0161925
0.0132667
0.0107444
0.00860985
0.00683525
0.00538004
0.00420509
0.00326991
0.00254083
0.00198781
0.00158722
0.00132675
0.0898078
0.0898063
0.089803
0.0897974
0.0897889
0.0897769
0.0897607
0.0897394
0.089712
0.0896771
0.0896334
0.089579
0.0895121
0.0894301
0.0893304
0.0892095
0.0890638
0.0888888
0.0886794
0.0884295
0.0881325
0.0877803
0.0873639
0.0868731
0.0862961
0.0856198
0.0848295
0.0839089
0.0828404
0.0816046
0.0801814
0.0785499
0.076689
0.0745783
0.0721995
0.0695381
0.0665852
0.0633393
0.0598087
0.0560132
0.0519865
0.0477766
0.0434457
0.0390679
0.034726
0.0305053
0.0264873
0.0227427
0.0193251
0.0162676
0.0135823
0.0112612
0.00928445
0.00761854
0.00623166
0.0050905
0.0041702
0.00345102
0.00292289
0.00259352
0.0903256
0.0903242
0.0903212
0.0903159
0.090308
0.0902969
0.0902818
0.090262
0.0902365
0.0902041
0.0901635
0.090113
0.0900507
0.0899745
0.0898818
0.0897694
0.0896339
0.0894712
0.0892764
0.0890441
0.0887678
0.0884401
0.0880527
0.0875959
0.0870588
0.0864289
0.0856927
0.0848347
0.0838381
0.0826848
0.0813555
0.0798301
0.0780881
0.0761095
0.0738758
0.0713718
0.0685871
0.0655177
0.0621683
0.0585543
0.0547032
0.0506565
0.0464688
0.0422069
0.0379467
0.0337682
0.0297492
0.0259598
0.0224552
0.019273
0.016431
0.0139284
0.011753
0.00987817
0.0082799
0.00693244
0.00582
0.00493346
0.00427639
0.00387405
0.0910802
0.0910789
0.0910761
0.0910712
0.0910639
0.0910535
0.0910395
0.0910211
0.0909973
0.0909671
0.0909292
0.0908821
0.0908241
0.0907531
0.0906666
0.0905618
0.0904355
0.0902837
0.0901021
0.0898853
0.0896275
0.0893218
0.0889603
0.0885339
0.0880324
0.0874441
0.0867563
0.0859542
0.0850221
0.0839428
0.0826977
0.0812675
0.0796325
0.0777728
0.07567
0.0733083
0.0706759
0.0677669
0.0645827
0.0611345
0.0574449
0.0535489
0.0494945
0.0453415
0.0411591
0.0370217
0.0330035
0.0291731
0.0255868
0.0222854
0.019292
0.0166124
0.0142413
0.0121596
0.0103505
0.00879645
0.00749083
0.00643556
0.00564785
0.005169
0.0920607
0.0920595
0.0920568
0.0920522
0.0920453
0.0920356
0.0920224
0.0920051
0.0919828
0.0919546
0.0919191
0.091875
0.0918207
0.0917542
0.0916733
0.0915753
0.0914571
0.0913151
0.0911451
0.0909423
0.0907011
0.090415
0.0900766
0.0896773
0.0892078
0.0886567
0.0880122
0.0872602
0.086386
0.085373
0.0842034
0.0828589
0.08132
0.0795675
0.0775827
0.0753495
0.0728551
0.0700915
0.0670577
0.0637611
0.0602195
0.0564623
0.0525314
0.0484799
0.0443706
0.0402725
0.036256
0.0323874
0.0287236
0.0253078
0.0221677
0.0193149
0.0167509
0.0144636
0.012444
0.0106827
0.00918274
0.00795715
0.00703688
0.00647812
0.0932541
0.093253
0.0932505
0.0932462
0.0932398
0.0932307
0.0932184
0.0932023
0.0931814
0.0931549
0.0931217
0.0930804
0.0930295
0.0929671
0.0928912
0.0927993
0.0926884
0.0925552
0.0923958
0.0922054
0.0919791
0.0917105
0.0913928
0.0910179
0.0905768
0.0900591
0.0894534
0.0887464
0.087924
0.0869704
0.0858688
0.0846011
0.0831488
0.0814927
0.0796144
0.0774973
0.0751277
0.0724961
0.069599
0.0664405
0.0630343
0.0594047
0.0555876
0.0516301
0.0475889
0.0435277
0.0395125
0.0356076
0.0318693
0.0283429
0.0250597
0.0220369
0.0192822
0.0167909
0.0145608
0.0125916
0.0108959
0.00949814
0.00844307
0.00780114
0.0946533
0.0946523
0.0946499
0.0946459
0.0946398
0.0946313
0.0946197
0.0946045
0.0945848
0.0945599
0.0945287
0.0944898
0.0944419
0.0943833
0.0943119
0.0942254
0.094121
0.0939956
0.0938455
0.0936664
0.0934532
0.0932004
0.0929012
0.0925481
0.0921326
0.0916448
0.0910737
0.090407
0.0896311
0.0887309
0.0876902
0.0864917
0.0851171
0.0835479
0.0817655
0.0797532
0.0774965
0.0749844
0.0722114
0.0691786
0.0658958
0.0623829
0.0586702
0.0547992
0.0508208
0.0467933
0.0427786
0.0388381
0.0350276
0.0313936
0.0279705
0.0247804
0.0218369
0.0191421
0.0167015
0.0145234
0.0126303
0.0110584
0.00986619
0.00913789
0.0962485
0.0962475
0.0962454
0.0962416
0.096236
0.096228
0.0962171
0.0962028
0.0961843
0.0961609
0.0961314
0.0960948
0.0960496
0.0959943
0.0959269
0.0958453
0.0957469
0.0956285
0.0954868
0.0953177
0.0951165
0.0948777
0.0945951
0.0942615
0.0938689
0.0934078
0.0928679
0.0922373
0.0915031
0.0906508
0.0896648
0.0885283
0.0872237
0.0857325
0.0840366
0.0821188
0.079964
0.07756
0.0748994
0.0719807
0.0688103
0.0654037
0.0617864
0.0579944
0.0540731
0.0500757
0.0460598
0.0420839
0.0382025
0.034463
0.0309023
0.0275469
0.0244159
0.0215182
0.0188667
0.0164785
0.0143862
0.0126379
0.0113058
0.0104881
0.0980354
0.0980345
0.0980324
0.0980288
0.0980233
0.0980157
0.0980053
0.0979917
0.0979741
0.0979519
0.0979239
0.0978892
0.0978464
0.097794
0.0977302
0.0976529
0.0975596
0.0974476
0.0973134
0.0971532
0.0969626
0.0967363
0.0964686
0.0961525
0.0957804
0.0953433
0.0948312
0.094233
0.0935361
0.0927268
0.0917898
0.0907091
0.0894672
0.0880464
0.0864282
0.0845955
0.0825326
0.0802261
0.0776672
0.0748518
0.0717832
0.068473
0.0649423
0.0612218
0.0573518
0.0533805
0.0493612
0.0453493
0.0413976
0.037554
0.0338574
0.0303382
0.0270207
0.0239201
0.0210569
0.0184573
0.0161637
0.0142366
0.0127619
0.0118516
0.100004
0.100003
0.100001
0.0999979
0.0999928
0.0999856
0.0999759
0.099963
0.0999464
0.0999254
0.0998989
0.099866
0.0998254
0.0997757
0.0997152
0.0996418
0.0995533
0.0994469
0.0993195
0.0991673
0.0989862
0.0987713
0.0985168
0.0982163
0.0978626
0.0974469
0.0969598
0.0963906
0.0957271
0.0949562
0.0940632
0.0930325
0.091847
0.0904891
0.0889408
0.0871846
0.0852044
0.0829859
0.0805185
0.0777964
0.0748197
0.0715966
0.0681439
0.0644876
0.0606631
0.0567135
0.052688
0.0486388
0.0446168
0.0406698
0.0368383
0.0331562
0.0296525
0.026349
0.0232731
0.0204601
0.017963
0.0158543
0.0142341
0.013228
0.102153
0.102152
0.10215
0.102147
0.102142
0.102135
0.102126
0.102113
0.102098
0.102078
0.102052
0.102021
0.101983
0.101935
0.101878
0.101808
0.101723
0.101622
0.1015
0.101355
0.101183
0.100978
0.100735
0.100449
0.100112
0.099715
0.0992502
0.0987069
0.0980734
0.0973369
0.0964833
0.0954972
0.0943622
0.0930609
0.0915752
0.0898877
0.0879817
0.0858421
0.0834571
0.0808187
0.0779246
0.0747796
0.0713966
0.0677973
0.0640121
0.0600797
0.0560449
0.0519565
0.0478635
0.0438132
0.0398473
0.0360027
0.0323128
0.0288056
0.0255157
0.0224874
0.0197843
0.0174912
0.0157222
0.0146174
0.104474
0.104473
0.104472
0.104469
0.104464
0.104458
0.104449
0.104437
0.104422
0.104403
0.104379
0.104349
0.104313
0.104267
0.104212
0.104146
0.104065
0.103968
0.103852
0.103714
0.103549
0.103353
0.103121
0.102847
0.102524
0.102144
0.1017
0.101179
0.100573
0.0998669
0.0990484
0.0981024
0.0970125
0.0957616
0.094332
0.0927059
0.0908664
0.0887975
0.0864862
0.0839227
0.0811024
0.078027
0.0747059
0.0711563
0.0674045
0.0634844
0.0594367
0.0553069
0.0511417
0.0469875
0.0428869
0.0388796
0.0350031
0.0312912
0.0277856
0.0245398
0.0216278
0.0191471
0.0172261
0.0160192
0.106969
0.106968
0.106966
0.106963
0.106959
0.106953
0.106944
0.106933
0.106918
0.1069
0.106877
0.106848
0.106813
0.10677
0.106717
0.106653
0.106576
0.106483
0.106371
0.106238
0.10608
0.105892
0.10567
0.105407
0.105097
0.104733
0.104306
0.103806
0.103223
0.102545
0.101758
0.100847
0.0997976
0.0985919
0.0972122
0.0956409
0.0938606
0.0918547
0.089609
0.0871122
0.0843574
0.0813434
0.0780764
0.0745696
0.0708449
0.0669321
0.0628677
0.0586938
0.0544545
0.0501955
0.0459596
0.041789
0.0377249
0.0338068
0.0300835
0.0266177
0.0234938
0.0208222
0.0187457
0.0174336
0.109628
0.109627
0.109626
0.109623
0.109619
0.109613
0.109605
0.109594
0.10958
0.109563
0.109541
0.109513
0.109479
0.109438
0.109387
0.109326
0.109251
0.109162
0.109055
0.108927
0.108775
0.108594
0.10838
0.108127
0.107829
0.107478
0.107067
0.106586
0.106024
0.10537
0.10461
0.103732
0.102718
0.101552
0.100217
0.098694
0.0969663
0.0950163
0.0928287
0.0903908
0.0876936
0.0847334
0.081513
0.0780422
0.0743386
0.0704279
0.0663427
0.0621214
0.0578059
0.0534404
0.0490679
0.0447328
0.0404798
0.0363537
0.0324105
0.0287216
0.0253825
0.0225163
0.0202807
0.01886
0.112454
0.112453
0.112452
0.112449
0.112445
0.112439
0.112431
0.112421
0.112408
0.112391
0.11237
0.112343
0.11231
0.11227
0.112221
0.112162
0.112091
0.112004
0.111901
0.111778
0.111631
0.111456
0.11125
0.111005
0.110717
0.110379
0.109981
0.109516
0.108973
0.108341
0.107606
0.106755
0.105773
0.104643
0.103346
0.101867
0.100185
0.0982847
0.0961482
0.0937619
0.0911148
0.0882009
0.08502
0.0815783
0.0778898
0.0739759
0.0698654
0.0655934
0.0611989
0.0567249
0.0522142
0.0477131
0.0432693
0.038933
0.0347671
0.0308521
0.0272943
0.0242298
0.0218312
0.0202986
0.115441
0.11544
0.115439
0.115436
0.115432
0.115427
0.11542
0.11541
0.115397
0.115381
0.11536
0.115335
0.115303
0.115265
0.115217
0.11516
0.115091
0.115008
0.114908
0.114788
0.114646
0.114477
0.114277
0.114041
0.113762
0.113433
0.113048
0.112598
0.112071
0.111457
0.110744
0.109918
0.108964
0.107864
0.106603
0.105161
0.10352
0.101662
0.0995705
0.0972289
0.0946249
0.0917503
0.0886019
0.0851829
0.0815033
0.0775809
0.0734405
0.0691139
0.0646374
0.0600523
0.0554012
0.0507319
0.046095
0.0415461
0.0371544
0.0330098
0.0292294
0.0259626
0.0233969
0.0217489
0.118592
0.118592
0.11859
0.118588
0.118584
0.118579
0.118571
0.118562
0.118549
0.118533
0.118513
0.118489
0.118458
0.11842
0.118375
0.118319
0.118252
0.118171
0.118074
0.117958
0.11782
0.117656
0.117461
0.117231
0.11696
0.116642
0.116267
0.115829
0.115317
0.11472
0.114026
0.113221
0.112291
0.111219
0.109987
0.108578
0.106973
0.105152
0.103098
0.100795
0.0982274
0.0953851
0.0922626
0.0888597
0.085183
0.0812466
0.0770716
0.0726863
0.0681243
0.0634253
0.0586312
0.0537912
0.0489587
0.0441939
0.0395732
0.0351952
0.0311882
0.0277148
0.024978
0.0232109
0.121901
0.121901
0.121899
0.121897
0.121894
0.121888
0.121881
0.121872
0.12186
0.121845
0.121826
0.121802
0.121772
0.121735
0.121691
0.121637
0.121571
0.121492
0.121398
0.121285
0.121151
0.120991
0.120802
0.120578
0.120313
0.120003
0.119638
0.11921
0.11871
0.118128
0.11745
0.116664
0.115755
0.114706
0.113501
0.11212
0.110545
0.108756
0.106735
0.104463
0.101926
0.0991094
0.0960063
0.0926132
0.0889335
0.0849776
0.080763
0.0763146
0.0716634
0.066847
0.0619069
0.0568932
0.051862
0.0468782
0.0420246
0.0374092
0.0331711
0.0294866
0.0265742
0.0246842
0.125372
0.125371
0.12537
0.125368
0.125364
0.125359
0.125352
0.125343
0.125332
0.125317
0.125298
0.125275
0.125246
0.12521
0.125166
0.125114
0.12505
0.124973
0.124881
0.12477
0.124639
0.124483
0.124298
0.124079
0.12382
0.123516
0.123159
0.122741
0.122252
0.121682
0.121018
0.120249
0.119357
0.118329
0.117145
0.115788
0.114239
0.112477
0.110482
0.108237
0.105723
0.102927
0.0998366
0.0964472
0.0927585
0.0887774
0.0845181
0.0800021
0.0752576
0.0703202
0.0652306
0.06004
0.0548065
0.0495998
0.0445094
0.0396521
0.0351784
0.0312781
0.0281857
0.026169
0.129
0.129
0.128998
0.128996
0.128993
0.128988
0.128982
0.128973
0.128962
0.128947
0.128929
0.128906
0.128878
0.128843
0.128801
0.128749
0.128686
0.128611
0.128521
0.128413
0.128284
0.128131
0.127949
0.127735
0.127481
0.127183
0.126833
0.126423
0.125943
0.125383
0.124732
0.123975
0.123099
0.122087
0.120922
0.119585
0.118057
0.116317
0.114344
0.11212
0.109624
0.106841
0.103758
0.100366
0.0966622
0.0926505
0.0883412
0.0837528
0.0789105
0.0738481
0.0686051
0.0632337
0.0577941
0.0523605
0.0470288
0.0419249
0.0372105
0.0330894
0.0298121
0.0276647
0.132792
0.132791
0.13279
0.132788
0.132784
0.13278
0.132773
0.132764
0.132753
0.132739
0.132721
0.132698
0.13267
0.132636
0.132594
0.132543
0.132482
0.132408
0.132319
0.132213
0.132086
0.131936
0.131757
0.131546
0.131297
0.131004
0.130659
0.130256
0.129783
0.129232
0.12859
0.127845
0.126982
0.125984
0.124834
0.123513
0.122002
0.120279
0.118323
0.116114
0.11363
0.110855
0.107773
0.104373
0.100648
0.0966001
0.0922355
0.0875697
0.082625
0.0774332
0.0720328
0.0664764
0.0608265
0.0551613
0.0495836
0.0442281
0.0392679
0.0349208
0.0314538
0.0291716
0.13674
0.136739
0.136738
0.136736
0.136733
0.136728
0.136722
0.136714
0.136703
0.136689
0.136671
0.136649
0.136621
0.136588
0.136547
0.136497
0.136436
0.136363
0.136276
0.136171
0.136046
0.135898
0.135722
0.135514
0.135268
0.134979
0.134639
0.13424
0.133774
0.13323
0.132596
0.13186
0.131007
0.13002
0.128882
0.127574
0.126076
0.124365
0.122422
0.120223
0.117746
0.114973
0.111886
0.108472
0.104721
0.100631
0.0962053
0.0914568
0.0864047
0.0810788
0.0755163
0.0697704
0.0639054
0.058004
0.0521751
0.0465626
0.041351
0.0367723
0.0331105
0.0306891
0.140851
0.14085
0.140849
0.140847
0.140844
0.140839
0.140833
0.140825
0.140814
0.1408
0.140783
0.140761
0.140734
0.140701
0.14066
0.14061
0.140551
0.140478
0.140392
0.140288
0.140165
0.140018
0.139844
0.139638
0.139395
0.139109
0.138773
0.138378
0.137917
0.137379
0.136751
0.136022
0.135176
0.134197
0.133068
0.13177
0.130281
0.128579
0.126643
0.12445
0.121975
0.119199
0.116101
0.112667
0.108883
0.104745
0.100254
0.095417
0.0902525
0.0847875
0.079058
0.0731177
0.0670326
0.0608896
0.054804
0.0489289
0.0434602
0.0386444
0.0347824
0.0322175
0.145122
0.145121
0.14512
0.145118
0.145115
0.145111
0.145105
0.145097
0.145086
0.145073
0.145056
0.145034
0.145007
0.144974
0.144934
0.144885
0.144826
0.144754
0.144669
0.144566
0.144444
0.144298
0.144125
0.143921
0.14368
0.143396
0.143062
0.142671
0.142213
0.141679
0.141056
0.140331
0.139491
0.138518
0.137395
0.136103
0.13462
0.132923
0.130991
0.128798
0.12632
0.123535
0.120422
0.116961
0.11314
0.108948
0.104384
0.0994543
0.0941718
0.0885624
0.0826607
0.0765207
0.0702101
0.0638199
0.0574718
0.051328
0.0455961
0.0405371
0.0364694
0.0337563
0.14956
0.149559
0.149558
0.149556
0.149553
0.149549
0.149542
0.149534
0.149523
0.14951
0.149492
0.149471
0.149444
0.149411
0.149371
0.149322
0.149263
0.149192
0.149107
0.149005
0.148883
0.148738
0.148567
0.148363
0.148124
0.147841
0.147509
0.14712
0.146665
0.146133
0.145513
0.144791
0.143954
0.142985
0.141866
0.140576
0.139096
0.1374
0.135467
0.13327
0.130784
0.127986
0.124851
0.121359
0.117494
0.113243
0.108601
0.103572
0.0981655
0.0924061
0.0863268
0.0799814
0.0734394
0.0667959
0.0601793
0.0537605
0.0477591
0.0424508
0.0381717
0.0353057
0.154158
0.154158
0.154157
0.154155
0.154152
0.154148
0.154142
0.154134
0.154123
0.15411
0.154093
0.154071
0.154045
0.154012
0.153972
0.153923
0.153865
0.153794
0.153709
0.153607
0.153485
0.153341
0.15317
0.152967
0.152728
0.152447
0.152116
0.151727
0.151273
0.150742
0.150124
0.149404
0.148568
0.1476
0.146482
0.145192
0.143711
0.142013
0.140075
0.13787
0.135372
0.132554
0.129393
0.125864
0.121949
0.117633
0.112907
0.107773
0.102237
0.0963218
0.0900589
0.0835021
0.0767226
0.0698197
0.0629278
0.0562274
0.0499497
0.0443856
0.039889
0.0368653
0.158926
0.158926
0.158925
0.158923
0.15892
0.158915
0.158909
0.158901
0.15889
0.158877
0.15886
0.158838
0.158812
0.158779
0.158739
0.15869
0.158632
0.158561
0.158476
0.158374
0.158252
0.158108
0.157937
0.157734
0.157495
0.157214
0.156883
0.156495
0.15604
0.15551
0.154891
0.154171
0.153335
0.152366
0.151246
0.149954
0.148469
0.146765
0.144818
0.142601
0.140085
0.137244
0.13405
0.130479
0.126509
0.122122
0.117306
0.11206
0.106389
0.100312
0.0938596
0.0870849
0.0800613
0.0728921
0.0657183
0.0587293
0.0521685
0.0463419
0.0416219
0.0384354
0.16386
0.163859
0.163858
0.163857
0.163854
0.163849
0.163844
0.163836
0.163825
0.163811
0.163794
0.163773
0.163746
0.163714
0.163674
0.163625
0.163566
0.163495
0.16341
0.163307
0.163186
0.163041
0.162869
0.162666
0.162427
0.162145
0.161813
0.161424
0.160969
0.160437
0.159817
0.159095
0.158257
0.157285
0.156161
0.154864
0.153372
0.151659
0.149699
0.147466
0.144929
0.142059
0.138828
0.135209
0.131178
0.126713
0.121802
0.116438
0.110626
0.10438
0.0977313
0.0907321
0.0834577
0.0760152
0.0685522
0.0612673
0.054416
0.0483199
0.04337
0.0400155
0.168969
0.168968
0.168967
0.168965
0.168962
0.168957
0.168951
0.168943
0.168932
0.168918
0.1689
0.168879
0.168852
0.168819
0.168778
0.168729
0.16867
0.168598
0.168513
0.16841
0.168288
0.168142
0.16797
0.167766
0.167525
0.167242
0.166909
0.166518
0.166061
0.165527
0.164904
0.164179
0.163337
0.16236
0.16123
0.159925
0.158423
0.156698
0.154722
0.152468
0.149905
0.147002
0.143729
0.140057
0.135958
0.131411
0.126398
0.12091
0.114949
0.108528
0.101677
0.0944458
0.0869132
0.0791901
0.0714304
0.063842
0.0566928
0.05032
0.0451337
0.0416059
0.174245
0.174245
0.174244
0.174242
0.174239
0.174235
0.174228
0.17422
0.174209
0.174195
0.174178
0.174156
0.174129
0.174096
0.174055
0.174005
0.173946
0.173874
0.173787
0.173684
0.173561
0.173414
0.173241
0.173035
0.172793
0.172508
0.172173
0.17178
0.17132
0.170783
0.170156
0.169426
0.168578
0.167594
0.166456
0.165141
0.163626
0.161885
0.15989
0.157612
0.155018
0.152077
0.148757
0.145026
0.140855
0.136218
0.131097
0.125479
0.119362
0.112759
0.105698
0.0982285
0.0904302
0.0824187
0.0743543
0.0664544
0.0589994
0.0523424
0.0469128
0.0432061
0.1797
0.1797
0.179699
0.179697
0.179693
0.179689
0.179682
0.179674
0.179663
0.179649
0.179631
0.179609
0.179581
0.179548
0.179506
0.179457
0.179396
0.179323
0.179236
0.179132
0.179007
0.17886
0.178684
0.178477
0.178233
0.177945
0.177608
0.177211
0.176748
0.176206
0.175574
0.174838
0.173983
0.172991
0.171841
0.170514
0.168984
0.167224
0.165206
0.1629
0.160271
0.157288
0.153915
0.15012
0.145871
0.141139
0.135903
0.130147
0.123869
0.117077
0.109798
0.102082
0.0940101
0.0857021
0.0773249
0.0691053
0.0613364
0.0543875
0.0487078
0.0448167
0.18533
0.18533
0.185329
0.185327
0.185324
0.185319
0.185313
0.185304
0.185293
0.185279
0.185261
0.185239
0.185211
0.185177
0.185135
0.185085
0.185023
0.18495
0.184861
0.184756
0.18463
0.184481
0.184304
0.184094
0.183848
0.183557
0.183216
0.182816
0.182347
0.1818
0.181162
0.180418
0.179554
0.178552
0.17739
0.176048
0.1745
0.172718
0.170674
0.168336
0.165669
0.162638
0.159208
0.155343
0.15101
0.146177
0.140819
0.13492
0.128472
0.121483
0.11398
0.106009
0.0976553
0.0890424
0.0803438
0.0717958
0.0637044
0.0564556
0.0505185
0.0464369
0.191146
0.191145
0.191144
0.191142
0.191138
0.191133
0.191127
0.191118
0.191106
0.191091
0.191073
0.19105
0.191022
0.190987
0.190944
0.190893
0.190831
0.190756
0.190666
0.190559
0.190432
0.190281
0.190101
0.18989
0.18964
0.189346
0.189
0.188596
0.188122
0.187568
0.186922
0.18617
0.185296
0.184281
0.183105
0.181745
0.180177
0.178371
0.176297
0.173923
0.171214
0.168131
0.164639
0.160699
0.156276
0.151335
0.145849
0.139799
0.133175
0.125981
0.118245
0.110011
0.101367
0.0924407
0.0834117
0.0745265
0.0661041
0.0585471
0.0523453
0.0480674
0.19714
0.19714
0.197139
0.197136
0.197133
0.197128
0.197121
0.197112
0.197101
0.197086
0.197067
0.197044
0.197015
0.196979
0.196936
0.196884
0.196821
0.196745
0.196654
0.196545
0.196416
0.196263
0.196081
0.195866
0.195613
0.195315
0.194965
0.194554
0.194074
0.193513
0.192859
0.192097
0.191211
0.190182
0.18899
0.187611
0.186019
0.184186
0.182079
0.179667
0.17691
0.173771
0.170212
0.166192
0.161672
0.156617
0.150997
0.144789
0.13798
0.130575
0.122596
0.114091
0.105148
0.0958991
0.0865305
0.0772987
0.0685361
0.0606624
0.054188
0.0497076
0.203324
0.203324
0.203323
0.20332
0.203317
0.203312
0.203305
0.203295
0.203283
0.203268
0.203249
0.203225
0.203195
0.203159
0.203115
0.203062
0.202997
0.20292
0.202827
0.202717
0.202585
0.202429
0.202245
0.202026
0.201769
0.201467
0.201112
0.200696
0.200208
0.199639
0.198976
0.198202
0.197303
0.196259
0.195049
0.193648
0.192031
0.190167
0.188024
0.185569
0.182761
0.179562
0.17593
0.171824
0.167203
0.162028
0.156266
0.149892
0.142892
0.135265
0.127037
0.118251
0.109
0.0994186
0.0897008
0.080113
0.0710011
0.0628018
0.0560472
0.0513581
0.209697
0.209697
0.209696
0.209694
0.20969
0.209685
0.209678
0.209668
0.209656
0.20964
0.20962
0.209595
0.209565
0.209528
0.209483
0.209428
0.209363
0.209284
0.20919
0.209077
0.208943
0.208784
0.208597
0.208375
0.208113
0.207806
0.207445
0.207022
0.206527
0.205949
0.205275
0.20449
0.203576
0.202515
0.201284
0.199859
0.198214
0.196318
0.194136
0.191634
0.188771
0.185507
0.181798
0.177601
0.172872
0.16757
0.16166
0.155112
0.147912
0.140056
0.131569
0.122494
0.112925
0.103002
0.0929246
0.0829707
0.0734996
0.0649657
0.0579227
0.0530182
0.216273
0.216272
0.21627
0.216267
0.216262
0.216255
0.216247
0.216236
0.216222
0.216205
0.216184
0.216159
0.216127
0.216089
0.216043
0.215987
0.21592
0.215839
0.215743
0.215629
0.215492
0.215331
0.21514
0.214914
0.214648
0.214336
0.213969
0.213539
0.213035
0.212447
0.211762
0.210963
0.210033
0.208953
0.207701
0.20625
0.204575
0.202642
0.200418
0.197866
0.194945
0.191611
0.18782
0.183525
0.178682
0.173247
0.167181
0.160453
0.153045
0.144951
0.136196
0.126821
0.116924
0.106649
0.0962024
0.0858723
0.0760324
0.0671547
0.059815
0.0546888
0.22301
0.22301
0.223009
0.223007
0.223005
0.223
0.222993
0.222984
0.222972
0.222956
0.222936
0.222911
0.22288
0.222842
0.222796
0.22274
0.222672
0.22259
0.222492
0.222376
0.222237
0.222072
0.221878
0.221648
0.221378
0.221059
0.220686
0.220248
0.219736
0.219137
0.218439
0.217625
0.216678
0.215578
0.214302
0.212824
0.211116
0.209144
0.206875
0.20427
0.201285
0.197877
0.193999
0.189602
0.184639
0.179064
0.172834
0.165918
0.158293
0.149953
0.140919
0.131236
0.121001
0.110363
0.0995364
0.0888194
0.0786001
0.0693689
0.061724
0.0563691
0.229987
0.229986
0.229984
0.22998
0.229975
0.229969
0.22996
0.229949
0.229935
0.229917
0.229896
0.22987
0.229837
0.229798
0.22975
0.229693
0.229623
0.22954
0.22944
0.229322
0.229181
0.229013
0.228815
0.228581
0.228306
0.227982
0.227601
0.227155
0.226633
0.226023
0.225311
0.224482
0.223517
0.222395
0.221093
0.219585
0.217842
0.215829
0.213511
0.210848
0.207797
0.20431
0.200339
0.195835
0.190745
0.185023
0.178623
0.17151
0.16366
0.155063
0.145743
0.13574
0.125157
0.114145
0.102927
0.0918125
0.0812034
0.0716089
0.0636502
0.0580601
0.237126
0.237126
0.237126
0.237124
0.237121
0.237116
0.237109
0.2371
0.237088
0.237072
0.237051
0.237025
0.236993
0.236954
0.236906
0.236848
0.236778
0.236693
0.236592
0.236472
0.236328
0.236158
0.235956
0.235717
0.235437
0.235106
0.234718
0.234264
0.233731
0.233109
0.232383
0.231537
0.230552
0.229407
0.228078
0.226537
0.224756
0.2227
0.22033
0.217607
0.214484
0.210913
0.206845
0.202227
0.197005
0.191129
0.184551
0.177233
0.169149
0.160287
0.150669
0.140337
0.129394
0.117997
0.106377
0.094853
0.0838432
0.0738751
0.0655935
0.0597608
0.244518
0.244517
0.244514
0.24451
0.244505
0.244498
0.244489
0.244477
0.244463
0.244445
0.244423
0.244396
0.244362
0.244322
0.244273
0.244214
0.244142
0.244056
0.243953
0.24383
0.243684
0.24351
0.243304
0.243061
0.242775
0.242438
0.242042
0.241578
0.241035
0.2404
0.239659
0.238794
0.237788
0.236618
0.23526
0.233686
0.231865
0.229761
0.227336
0.224549
0.221351
0.217692
0.213522
0.208784
0.203423
0.197386
0.190622
0.183091
0.174763
0.165626
0.1557
0.145028
0.133714
0.12192
0.109886
0.0979414
0.0865199
0.076168
0.0675545
0.0614724
0.252073
0.252073
0.252072
0.25207
0.252068
0.252063
0.252056
0.252047
0.252035
0.252019
0.251998
0.251972
0.251939
0.251899
0.25185
0.25179
0.251718
0.251631
0.251526
0.251401
0.251252
0.251075
0.250866
0.250618
0.250326
0.249982
0.249578
0.249104
0.248549
0.2479
0.247142
0.246259
0.24523
0.244034
0.242645
0.241034
0.239171
0.237017
0.234535
0.231679
0.228402
0.224651
0.220372
0.215509
0.210003
0.203797
0.19684
0.189087
0.180507
0.171085
0.16084
0.149816
0.138119
0.125917
0.113456
0.101079
0.0892344
0.0784878
0.0695329
0.063194
0.259891
0.25989
0.259888
0.259885
0.25988
0.259874
0.259866
0.259855
0.259842
0.259824
0.259802
0.259775
0.259741
0.2597
0.259649
0.259588
0.259514
0.259425
0.259318
0.259191
0.259039
0.258858
0.258644
0.258391
0.258093
0.257742
0.257329
0.256845
0.256278
0.255614
0.254839
0.253936
0.252883
0.251659
0.250237
0.248588
0.24668
0.244474
0.24193
0.239003
0.235641
0.231793
0.227401
0.222407
0.216748
0.210367
0.203208
0.195224
0.186382
0.176665
0.16609
0.154703
0.142611
0.129988
0.117089
0.104267
0.0919874
0.0808353
0.0715296
0.0649265
0.267919
0.267917
0.267915
0.267912
0.267907
0.267901
0.267892
0.267881
0.267867
0.267849
0.267826
0.267799
0.267764
0.267722
0.267671
0.267608
0.267533
0.267442
0.267334
0.267204
0.267048
0.266864
0.266646
0.266387
0.266083
0.265724
0.265302
0.264806
0.264226
0.263547
0.262754
0.261829
0.260752
0.259498
0.258042
0.256352
0.254396
0.252135
0.249526
0.246523
0.243074
0.239124
0.234613
0.229481
0.223664
0.2171
0.209731
0.201508
0.192394
0.18237
0.171455
0.159692
0.147194
0.134137
0.120786
0.107507
0.0947796
0.0832106
0.0735442
0.0666693
0.276174
0.276173
0.276171
0.276168
0.276163
0.276156
0.276148
0.276137
0.276122
0.276104
0.276081
0.276053
0.276017
0.275974
0.275922
0.275858
0.275781
0.275689
0.275578
0.275445
0.275286
0.275098
0.274875
0.274611
0.274299
0.273932
0.2735
0.272993
0.272399
0.271704
0.270892
0.269945
0.268841
0.267556
0.266063
0.26433
0.262325
0.260005
0.257328
0.254247
0.250705
0.246648
0.242013
0.236737
0.230754
0.224
0.216412
0.20794
0.198544
0.188203
0.176936
0.164786
0.151867
0.138363
0.124548
0.110799
0.0976117
0.0856146
0.0755776
0.0684232
0.284657
0.284656
0.284654
0.284651
0.284647
0.284641
0.284632
0.284621
0.284607
0.284588
0.284565
0.284537
0.284501
0.284458
0.284405
0.28434
0.284262
0.284168
0.284055
0.283919
0.283758
0.283565
0.283337
0.283067
0.282748
0.282372
0.28193
0.281411
0.280803
0.280091
0.279258
0.278287
0.277155
0.275838
0.274306
0.272529
0.270471
0.26809
0.265342
0.262177
0.258539
0.254369
0.249605
0.24418
0.238024
0.231071
0.223256
0.214525
0.204837
0.194168
0.182537
0.169986
0.156634
0.142671
0.128377
0.114144
0.100485
0.0880472
0.0776294
0.0701875
0.293386
0.293385
0.293383
0.29338
0.293375
0.293369
0.29336
0.293349
0.293335
0.293316
0.293293
0.293264
0.293228
0.293184
0.293129
0.293064
0.292984
0.292887
0.292772
0.292634
0.292468
0.292272
0.292038
0.291762
0.291435
0.29105
0.290598
0.290066
0.289442
0.288712
0.287858
0.286862
0.2857
0.284349
0.282777
0.280952
0.278839
0.276394
0.273571
0.270319
0.266581
0.262294
0.257394
0.251812
0.245476
0.238316
0.230266
0.221267
0.211276
0.200268
0.188259
0.175296
0.161497
0.147059
0.132273
0.117544
0.103399
0.0905094
0.0797004
0.0719633
0.302355
0.302354
0.302352
0.302349
0.302345
0.302339
0.30233
0.302319
0.302305
0.302286
0.302263
0.302234
0.302197
0.302153
0.302098
0.302031
0.30195
0.301852
0.301734
0.301593
0.301424
0.301222
0.300984
0.3007
0.300366
0.299971
0.299507
0.298962
0.298322
0.297573
0.296697
0.295674
0.294482
0.293094
0.29148
0.289606
0.287435
0.284922
0.282021
0.278679
0.274835
0.270426
0.265385
0.25964
0.253117
0.245742
0.237447
0.228169
0.217865
0.206506
0.194108
0.180718
0.166458
0.151532
0.13624
0.120999
0.106355
0.0930011
0.0817903
0.0737497
0.311582
0.311581
0.311579
0.311576
0.311571
0.311565
0.311557
0.311545
0.311531
0.311512
0.311489
0.311459
0.311422
0.311376
0.31132
0.311252
0.311169
0.311068
0.310948
0.310803
0.31063
0.310424
0.310179
0.309889
0.309546
0.309141
0.308665
0.308105
0.307449
0.30668
0.30578
0.30473
0.303505
0.302079
0.300421
0.298495
0.296264
0.293681
0.290698
0.287261
0.283307
0.27877
0.273582
0.267667
0.260949
0.253352
0.244802
0.235236
0.224606
0.212885
0.200084
0.186254
0.171519
0.15609
0.140277
0.124511
0.109354
0.0955233
0.0839
0.0755478
0.321062
0.321061
0.321059
0.321057
0.321052
0.321046
0.321038
0.321027
0.321012
0.320993
0.320969
0.320939
0.320902
0.320855
0.320798
0.320729
0.320644
0.320542
0.320418
0.32027
0.320093
0.319882
0.319631
0.319333
0.318982
0.318566
0.318077
0.317502
0.316828
0.316038
0.315114
0.314035
0.312776
0.31131
0.309606
0.307626
0.305331
0.302675
0.299607
0.296071
0.292002
0.287332
0.281991
0.2759
0.268979
0.26115
0.252336
0.242472
0.231506
0.219408
0.206192
0.191907
0.176683
0.160736
0.144387
0.12808
0.112397
0.0980761
0.0860291
0.0773569
0.330813
0.330812
0.33081
0.330807
0.330803
0.330797
0.330788
0.330777
0.330762
0.330743
0.330718
0.330687
0.330649
0.330601
0.330543
0.330471
0.330385
0.330279
0.330153
0.330001
0.329819
0.329603
0.329345
0.329039
0.328678
0.328252
0.327749
0.327159
0.326465
0.325653
0.324703
0.323594
0.3223
0.320793
0.319039
0.317003
0.314643
0.31191
0.308753
0.305113
0.300924
0.296117
0.290616
0.284341
0.27721
0.26914
0.260053
0.249879
0.238565
0.22608
0.212434
0.197679
0.181951
0.165471
0.14857
0.131708
0.115484
0.10066
0.0881785
0.079178
0.34083
0.340829
0.340827
0.340825
0.34082
0.340814
0.340805
0.340794
0.340779
0.340759
0.340734
0.340703
0.340664
0.340616
0.340556
0.340483
0.340394
0.340287
0.340157
0.340001
0.339815
0.339592
0.339328
0.339013
0.338642
0.338204
0.337687
0.33708
0.336367
0.335532
0.334555
0.333414
0.332083
0.330532
0.328728
0.326633
0.324204
0.321391
0.318141
0.314394
0.310081
0.305129
0.299463
0.292998
0.285648
0.277329
0.267958
0.257463
0.245789
0.232902
0.218813
0.203574
0.187325
0.170297
0.152829
0.135396
0.118615
0.103276
0.0903478
0.0810103
0.351129
0.351128
0.351127
0.351124
0.351119
0.351113
0.351104
0.351092
0.351077
0.351057
0.351031
0.350999
0.350959
0.350909
0.350848
0.350773
0.350681
0.350571
0.350437
0.350277
0.350085
0.349857
0.349585
0.349262
0.34888
0.348429
0.347898
0.347273
0.34654
0.345681
0.344675
0.343501
0.342131
0.340535
0.338679
0.336521
0.334021
0.331125
0.327778
0.323919
0.319477
0.314375
0.308536
0.301873
0.294297
0.285719
0.276054
0.265227
0.25318
0.239879
0.225332
0.209593
0.192808
0.175215
0.157164