/*--------------------------------*- C++ -*----------------------------------*\
  =========                 |
  \\      /  F ield         | OpenFOAM: The Open Source CFD Toolbox
   \\    /   O peration     | Website:  https://openfoam.org
    \\  /    A nd           | Version:  6.0
     \\/     M anipulation  |
\*---------------------------------------------------------------------------*/
FoamFile
{
    version     2.0;
    format      ascii;
    class       volScalarField;
    location    "0.03";
    object      p;
}
// * * * * * * * * * * * * * * * * * * * * * * * * * * * * * * * * * * * * * //

dimensions      [0 2 -2 0 0 0 0];

internalField   nonuniform List<scalar> 
13500
(
0.19751
0.19649
0.19465
0.19206
0.18892
0.18555
0.18243
0.18048
0.17921
0.19252
0.17486
0.42022
0.19751
0.19649
0.19466
0.19206
0.18892
0.18555
0.18243
0.18048
0.1792
0.19255
0.17442
0.40954
0.19751
0.19649
0.19466
0.19206
0.18892
0.18555
0.18244
0.18049
0.17918
0.19257
0.17388
0.39995
0.19751
0.1965
0.19466
0.19207
0.18893
0.18556
0.18244
0.18049
0.17917
0.19256
0.17338
0.39183
0.19752
0.1965
0.19467
0.19208
0.18894
0.18557
0.18245
0.18049
0.17915
0.19252
0.17293
0.38412
0.19752
0.19651
0.19467
0.19209
0.18895
0.18557
0.18246
0.18049
0.17913
0.19244
0.17253
0.37652
0.19752
0.19651
0.19468
0.1921
0.18895
0.18558
0.18246
0.18049
0.1791
0.19234
0.17216
0.36906
0.19753
0.19652
0.19469
0.1921
0.18896
0.18559
0.18247
0.18049
0.17907
0.19221
0.17182
0.36178
0.19753
0.19652
0.1947
0.19211
0.18897
0.1856
0.18247
0.18048
0.17904
0.19206
0.17151
0.35468
0.19754
0.19653
0.1947
0.19212
0.18898
0.18561
0.18247
0.18047
0.179
0.19188
0.17123
0.34775
0.19754
0.19654
0.19471
0.19213
0.18899
0.18562
0.18248
0.18046
0.17896
0.19168
0.17096
0.34099
0.19755
0.19655
0.19472
0.19214
0.189
0.18563
0.18248
0.18044
0.17892
0.19146
0.17071
0.33441
0.19756
0.19655
0.19473
0.19215
0.18901
0.18564
0.18249
0.18042
0.17887
0.19121
0.17048
0.32799
0.19756
0.19656
0.19474
0.19217
0.18902
0.18565
0.18249
0.1804
0.17882
0.19095
0.17026
0.32174
0.19757
0.19657
0.19476
0.19218
0.18903
0.18566
0.18249
0.18038
0.17877
0.19067
0.17005
0.31565
0.19758
0.19658
0.19477
0.19219
0.18904
0.18567
0.18249
0.18036
0.17871
0.19037
0.16986
0.30973
0.19759
0.19659
0.19478
0.1922
0.18905
0.18568
0.18249
0.18034
0.17865
0.19005
0.16967
0.30397
0.1976
0.19661
0.19479
0.19222
0.18907
0.18569
0.18249
0.18031
0.17858
0.18972
0.16948
0.29837
0.1976
0.19662
0.19481
0.19223
0.18908
0.1857
0.1825
0.18028
0.17852
0.18937
0.16931
0.29292
0.19761
0.19663
0.19482
0.19224
0.18909
0.18571
0.1825
0.18025
0.17845
0.18901
0.16913
0.28762
0.19762
0.19665
0.19484
0.19226
0.18911
0.18573
0.1825
0.18021
0.17837
0.18863
0.16896
0.28247
0.19763
0.19666
0.19485
0.19227
0.18912
0.18574
0.18249
0.18018
0.1783
0.18825
0.16878
0.27747
0.19764
0.19667
0.19487
0.19229
0.18913
0.18575
0.18249
0.18014
0.17822
0.18785
0.16861
0.27261
0.19766
0.19669
0.19489
0.19231
0.18915
0.18576
0.18249
0.18011
0.17813
0.18745
0.16844
0.26788
0.19767
0.19671
0.19491
0.19232
0.18916
0.18578
0.18249
0.18007
0.17805
0.18703
0.16826
0.2633
0.19768
0.19672
0.19492
0.19234
0.18918
0.18579
0.18249
0.18003
0.17796
0.1866
0.16808
0.25885
0.19769
0.19674
0.19494
0.19236
0.1892
0.1858
0.18248
0.17998
0.17787
0.18617
0.1679
0.25452
0.19771
0.19676
0.19496
0.19238
0.18921
0.18582
0.18248
0.17994
0.17777
0.18573
0.16771
0.25033
0.19772
0.19678
0.19498
0.1924
0.18923
0.18583
0.18248
0.17989
0.17767
0.18529
0.16752
0.24625
0.19773
0.1968
0.19501
0.19241
0.18925
0.18584
0.18247
0.17985
0.17757
0.18483
0.16733
0.2423
0.19775
0.19682
0.19503
0.19244
0.18927
0.18586
0.18247
0.1798
0.17747
0.18438
0.16713
0.23846
0.19777
0.19684
0.19505
0.19246
0.18929
0.18587
0.18246
0.17975
0.17736
0.18392
0.16692
0.23473
0.19778
0.19686
0.19507
0.19248
0.18931
0.18588
0.18246
0.1797
0.17725
0.18345
0.16671
0.23112
0.1978
0.19688
0.1951
0.1925
0.18933
0.1859
0.18245
0.17965
0.17713
0.18299
0.16649
0.22761
0.19782
0.1969
0.19512
0.19252
0.18935
0.18591
0.18245
0.1796
0.17702
0.18252
0.16626
0.22421
0.19784
0.19693
0.19515
0.19255
0.18937
0.18593
0.18244
0.17955
0.1769
0.18204
0.16603
0.22091
0.19785
0.19695
0.19518
0.19257
0.18939
0.18594
0.18243
0.17949
0.17678
0.18157
0.16579
0.21771
0.19787
0.19697
0.1952
0.1926
0.18942
0.18596
0.18243
0.17944
0.17665
0.1811
0.16555
0.2146
0.19789
0.197
0.19523
0.19262
0.18944
0.18597
0.18242
0.17938
0.17653
0.18062
0.1653
0.21159
0.19792
0.19703
0.19526
0.19265
0.18947
0.18599
0.18241
0.17933
0.1764
0.18015
0.16504
0.20866
0.19794
0.19705
0.19529
0.19268
0.18949
0.186
0.1824
0.17927
0.17627
0.17967
0.16477
0.20583
0.19796
0.19708
0.19532
0.19271
0.18952
0.18602
0.1824
0.17921
0.17613
0.1792
0.1645
0.20308
0.19798
0.19711
0.19535
0.19274
0.18954
0.18603
0.18239
0.17915
0.176
0.17872
0.16422
0.20041
0.19801
0.19714
0.19538
0.19277
0.18957
0.18605
0.18238
0.17909
0.17586
0.17825
0.16393
0.19782
0.19803
0.19717
0.19541
0.1928
0.1896
0.18606
0.18237
0.17903
0.17572
0.17778
0.16364
0.19531
0.19806
0.1972
0.19544
0.19283
0.18963
0.18608
0.18236
0.17896
0.17557
0.17731
0.16334
0.19288
0.19808
0.19723
0.19548
0.19287
0.18966
0.18609
0.18235
0.1789
0.17543
0.17684
0.16304
0.19052
0.19811
0.19726
0.19551
0.1929
0.18969
0.18611
0.18234
0.17884
0.17528
0.17637
0.16273
0.18823
0.19814
0.19729
0.19555
0.19294
0.18972
0.18613
0.18233
0.17877
0.17513
0.17591
0.16241
0.186
0.19817
0.19732
0.19558
0.19297
0.18975
0.18614
0.18232
0.17871
0.17498
0.17544
0.16209
0.18385
0.1982
0.19735
0.19562
0.19301
0.18978
0.18616
0.18231
0.17864
0.17483
0.17498
0.16176
0.18176
0.19823
0.19739
0.19566
0.19305
0.18982
0.18618
0.1823
0.17857
0.17468
0.17453
0.16143
0.17973
0.19826
0.19742
0.1957
0.19309
0.18985
0.1862
0.18229
0.1785
0.17452
0.17407
0.16109
0.17776
0.19829
0.19746
0.19574
0.19313
0.18989
0.18622
0.18228
0.17843
0.17436
0.17362
0.16074
0.17585
0.19832
0.19749
0.19578
0.19317
0.18992
0.18623
0.18227
0.17836
0.1742
0.17317
0.16039
0.174
0.19836
0.19753
0.19582
0.19321
0.18996
0.18625
0.18226
0.17829
0.17404
0.17273
0.16004
0.17221
0.19839
0.19757
0.19586
0.19325
0.19
0.18627
0.18225
0.17822
0.17388
0.17228
0.15968
0.17046
0.19843
0.19761
0.1959
0.1933
0.19004
0.18629
0.18224
0.17815
0.17372
0.17184
0.15932
0.16877
0.19846
0.19765
0.19594
0.19334
0.19008
0.18632
0.18223
0.17808
0.17356
0.17141
0.15895
0.16713
0.1985
0.19769
0.19599
0.19339
0.19012
0.18634
0.18222
0.178
0.17339
0.17098
0.15859
0.16554
0.19854
0.19773
0.19603
0.19344
0.19016
0.18636
0.18221
0.17793
0.17323
0.17055
0.15821
0.16399
0.19858
0.19777
0.19608
0.19349
0.1902
0.18638
0.1822
0.17786
0.17306
0.17012
0.15784
0.16249
0.19862
0.19781
0.19612
0.19354
0.19024
0.18641
0.1822
0.17778
0.1729
0.1697
0.15746
0.16103
0.19866
0.19785
0.19617
0.19359
0.19029
0.18643
0.18219
0.17771
0.17273
0.16928
0.15708
0.15961
0.1987
0.1979
0.19622
0.19364
0.19033
0.18645
0.18218
0.17763
0.17256
0.16886
0.15669
0.15824
0.19874
0.19794
0.19627
0.19369
0.19038
0.18648
0.18217
0.17756
0.17239
0.16845
0.15631
0.1569
0.19879
0.19799
0.19632
0.19374
0.19042
0.18651
0.18216
0.17748
0.17222
0.16804
0.15592
0.1556
0.19883
0.19804
0.19637
0.1938
0.19047
0.18654
0.18216
0.17741
0.17205
0.16764
0.15553
0.15434
0.19888
0.19808
0.19642
0.19385
0.19052
0.18656
0.18215
0.17733
0.17189
0.16724
0.15514
0.15312
0.19892
0.19813
0.19648
0.19391
0.19057
0.18659
0.18214
0.17725
0.17172
0.16684
0.15475
0.15192
0.19897
0.19818
0.19653
0.19397
0.19062
0.18662
0.18213
0.17718
0.17155
0.16644
0.15435
0.15077
0.19902
0.19823
0.19659
0.19403
0.19067
0.18665
0.18213
0.1771
0.17138
0.16606
0.15396
0.14964
0.19907
0.19829
0.19664
0.19409
0.19073
0.18669
0.18212
0.17703
0.17121
0.16567
0.15357
0.14855
0.19912
0.19834
0.1967
0.19415
0.19078
0.18672
0.18212
0.17695
0.17104
0.16529
0.15317
0.14748
0.19917
0.19839
0.19676
0.19421
0.19083
0.18675
0.18211
0.17688
0.17087
0.16491
0.15278
0.14645
0.19922
0.19845
0.19682
0.19427
0.19089
0.18679
0.18211
0.17681
0.1707
0.16454
0.15239
0.14544
0.19928
0.1985
0.19688
0.19434
0.19095
0.18683
0.18211
0.17673
0.17054
0.16417
0.15199
0.14446
0.19933
0.19856
0.19694
0.1944
0.191
0.18686
0.1821
0.17666
0.17037
0.1638
0.1516
0.14351
0.19939
0.19862
0.197
0.19447
0.19106
0.1869
0.1821
0.17659
0.1702
0.16344
0.15121
0.14258
0.19944
0.19868
0.19707
0.19454
0.19112
0.18694
0.1821
0.17652
0.17004
0.16308
0.15082
0.14168
0.1995
0.19874
0.19713
0.19461
0.19118
0.18698
0.1821
0.17645
0.16987
0.16273
0.15043
0.1408
0.19956
0.19881
0.1972
0.19468
0.19125
0.18702
0.1821
0.17638
0.16971
0.16238
0.15004
0.13994
0.19962
0.19887
0.19727
0.19475
0.19131
0.18706
0.1821
0.17631
0.16955
0.16204
0.14965
0.13911
0.19968
0.19894
0.19734
0.19482
0.19137
0.18711
0.1821
0.17624
0.16938
0.1617
0.14926
0.1383
0.19974
0.199
0.19741
0.19489
0.19144
0.18715
0.1821
0.17618
0.16922
0.16136
0.14888
0.13751
0.19981
0.19907
0.19748
0.19497
0.19151
0.1872
0.1821
0.17611
0.16906
0.16103
0.1485
0.13674
0.19987
0.19914
0.19756
0.19504
0.19158
0.18724
0.1821
0.17605
0.1689
0.1607
0.14812
0.13599
0.19994
0.19922
0.19763
0.19512
0.19165
0.18729
0.18211
0.17598
0.16874
0.16038
0.14774
0.13526
0.20001
0.19929
0.19771
0.1952
0.19172
0.18734
0.18211
0.17592
0.16859
0.16006
0.14736
0.13455
0.20008
0.19936
0.19779
0.19528
0.19179
0.18739
0.18212
0.17586
0.16843
0.15975
0.14699
0.13386
0.20015
0.19944
0.19787
0.19536
0.19186
0.18744
0.18212
0.1758
0.16828
0.15944
0.14662
0.13319
0.20022
0.19952
0.19795
0.19544
0.19194
0.1875
0.18213
0.17574
0.16812
0.15914
0.14625
0.13253
0.20029
0.1996
0.19804
0.19553
0.19201
0.18755
0.18214
0.17569
0.16797
0.15884
0.14589
0.13189
0.20036
0.19969
0.19813
0.19561
0.19209
0.1876
0.18215
0.17563
0.16782
0.15854
0.14552
0.13127
0.20044
0.19977
0.19821
0.1957
0.19217
0.18766
0.18216
0.17558
0.16767
0.15825
0.14517
0.13066
0.20052
0.19986
0.1983
0.19579
0.19225
0.18772
0.18217
0.17552
0.16753
0.15796
0.14481
0.13007
0.2006
0.19995
0.1984
0.19588
0.19234
0.18777
0.18218
0.17547
0.16738
0.15768
0.14446
0.12949
0.20068
0.20004
0.19849
0.19597
0.19242
0.18783
0.18219
0.17542
0.16724
0.1574
0.14411
0.12892
0.20076
0.20013
0.19859
0.19607
0.19251
0.18789
0.1822
0.17537
0.16709
0.15713
0.14376
0.12838
0.20085
0.20023
0.19869
0.19616
0.1926
0.18796
0.18222
0.17532
0.16695
0.15686
0.14342
0.12784
0.20093
0.20032
0.19879
0.19626
0.19269
0.18802
0.18224
0.17528
0.16681
0.1566
0.14308
0.12732
0.20102
0.20043
0.19889
0.19636
0.19278
0.18809
0.18226
0.17523
0.16668
0.15634
0.14275
0.12681
0.20111
0.20053
0.199
0.19647
0.19287
0.18815
0.18228
0.17519
0.16654
0.15608
0.14242
0.12632
0.2012
0.20063
0.19911
0.19657
0.19297
0.18822
0.1823
0.17515
0.16641
0.15583
0.14209
0.12583
0.2013
0.20074
0.19922
0.19668
0.19307
0.18829
0.18232
0.17511
0.16628
0.15558
0.14177
0.12536
0.2014
0.20085
0.19933
0.19679
0.19317
0.18836
0.18234
0.17507
0.16615
0.15534
0.14145
0.1249
0.2015
0.20097
0.19945
0.1969
0.19327
0.18844
0.18237
0.17503
0.16603
0.1551
0.14114
0.12446
0.2016
0.20108
0.19957
0.19702
0.19337
0.18851
0.1824
0.175
0.1659
0.15487
0.14083
0.12402
0.2017
0.2012
0.19969
0.19714
0.19348
0.18859
0.18243
0.17496
0.16578
0.15464
0.14053
0.12359
0.20181
0.20132
0.19981
0.19726
0.19359
0.18867
0.18246
0.17493
0.16567
0.15441
0.14023
0.12318
0.20192
0.20145
0.19994
0.19738
0.1937
0.18875
0.1825
0.1749
0.16555
0.15419
0.13993
0.12278
0.20203
0.20158
0.20008
0.19751
0.19382
0.18884
0.18254
0.17487
0.16544
0.15398
0.13964
0.12238
0.20215
0.20171
0.20021
0.19764
0.19394
0.18892
0.18258
0.17485
0.16533
0.15377
0.13936
0.122
0.20227
0.20185
0.20035
0.19777
0.19406
0.18901
0.18262
0.17483
0.16522
0.15356
0.13908
0.12162
0.20239
0.20199
0.20049
0.19791
0.19418
0.1891
0.18266
0.17481
0.16512
0.15336
0.1388
0.12126
0.20252
0.20213
0.20064
0.19805
0.19431
0.1892
0.18271
0.17479
0.16502
0.15316
0.13853
0.12091
0.20265
0.20228
0.20079
0.1982
0.19444
0.1893
0.18276
0.17477
0.16493
0.15297
0.13827
0.12056
0.20278
0.20243
0.20095
0.19835
0.19458
0.1894
0.18282
0.17476
0.16483
0.15278
0.13801
0.12022
0.20292
0.20258
0.2011
0.1985
0.19472
0.18951
0.18288
0.17475
0.16474
0.1526
0.13776
0.1199
0.20307
0.20274
0.20127
0.19866
0.19486
0.18961
0.18294
0.17474
0.16466
0.15242
0.13751
0.11958
0.20321
0.2029
0.20144
0.19882
0.195
0.18973
0.183
0.17474
0.16458
0.15224
0.13726
0.11927
0.20336
0.20307
0.20161
0.19899
0.19515
0.18984
0.18307
0.17474
0.1645
0.15208
0.13703
0.11897
0.20352
0.20324
0.20179
0.19916
0.19531
0.18997
0.18315
0.17474
0.16443
0.15191
0.1368
0.11868
0.20368
0.20342
0.20197
0.19934
0.19547
0.19009
0.18322
0.17475
0.16436
0.15176
0.13657
0.11839
0.20385
0.2036
0.20216
0.19952
0.19563
0.19022
0.18331
0.17476
0.1643
0.1516
0.13636
0.11812
0.20402
0.20379
0.20235
0.19971
0.1958
0.19036
0.18339
0.17478
0.16424
0.15146
0.13614
0.11785
0.2042
0.20399
0.20255
0.1999
0.19598
0.1905
0.18349
0.1748
0.16419
0.15132
0.13594
0.11759
0.20438
0.20418
0.20275
0.2001
0.19615
0.19064
0.18358
0.17483
0.16414
0.15118
0.13574
0.11734
0.20458
0.20439
0.20296
0.20031
0.19634
0.1908
0.18368
0.17486
0.1641
0.15105
0.13555
0.1171
0.20477
0.2046
0.20318
0.20052
0.19653
0.19095
0.18379
0.17489
0.16407
0.15093
0.13536
0.11686
0.20498
0.20482
0.20341
0.20074
0.19673
0.19112
0.18391
0.17494
0.16404
0.15082
0.13519
0.11663
0.20519
0.20504
0.20364
0.20096
0.19693
0.19129
0.18403
0.17499
0.16401
0.15071
0.13501
0.11642
0.2054
0.20527
0.20387
0.20119
0.19714
0.19147
0.18415
0.17504
0.164
0.15061
0.13485
0.11621
0.20563
0.20551
0.20412
0.20143
0.19736
0.19165
0.18429
0.1751
0.16399
0.15052
0.1347
0.116
0.20586
0.20575
0.20437
0.20168
0.19758
0.19184
0.18443
0.17517
0.16398
0.15043
0.13455
0.11581
0.2061
0.20601
0.20463
0.20194
0.19781
0.19204
0.18457
0.17525
0.16399
0.15035
0.13441
0.11563
0.20635
0.20627
0.2049
0.2022
0.19805
0.19225
0.18473
0.17533
0.164
0.15028
0.13427
0.11545
0.20661
0.20653
0.20518
0.20247
0.1983
0.19247
0.18489
0.17543
0.16402
0.15022
0.13415
0.11528
0.20687
0.20681
0.20547
0.20275
0.19855
0.19269
0.18506
0.17553
0.16404
0.15017
0.13403
0.11512
0.20715
0.2071
0.20576
0.20304
0.19882
0.19293
0.18524
0.17564
0.16408
0.15012
0.13392
0.11497
0.20743
0.20739
0.20607
0.20334
0.19909
0.19317
0.18543
0.17576
0.16413
0.15009
0.13383
0.11483
0.20772
0.20769
0.20638
0.20365
0.19938
0.19342
0.18563
0.17588
0.16418
0.15006
0.13373
0.1147
0.20803
0.20801
0.2067
0.20397
0.19967
0.19368
0.18584
0.17602
0.16424
0.15004
0.13365
0.11457
0.20834
0.20833
0.20704
0.20429
0.19998
0.19396
0.18606
0.17617
0.16431
0.15004
0.13358
0.11446
0.20866
0.20867
0.20738
0.20463
0.20029
0.19424
0.18628
0.17633
0.1644
0.15004
0.13352
0.11435
0.20899
0.20901
0.20774
0.20498
0.20062
0.19454
0.18652
0.1765
0.16449
0.15006
0.13347
0.11425
0.20934
0.20937
0.20811
0.20534
0.20096
0.19485
0.18677
0.17668
0.16459
0.15008
0.13342
0.11417
0.20969
0.20973
0.20849
0.20572
0.20131
0.19516
0.18704
0.17688
0.16471
0.15012
0.13339
0.11409
0.21006
0.21011
0.20888
0.2061
0.20167
0.1955
0.18731
0.17709
0.16484
0.15017
0.13337
0.11402
0.21044
0.2105
0.20928
0.2065
0.20204
0.19584
0.1876
0.17731
0.16497
0.15022
0.13335
0.11396
0.21083
0.21091
0.20969
0.20691
0.20243
0.1962
0.1879
0.17754
0.16512
0.1503
0.13335
0.11391
0.21123
0.21132
0.21012
0.20733
0.20283
0.19657
0.18821
0.17779
0.16529
0.15038
0.13336
0.11387
0.21164
0.21175
0.21056
0.20777
0.20325
0.19695
0.18854
0.17805
0.16546
0.15048
0.13338
0.11384
0.21207
0.2122
0.21102
0.20822
0.20368
0.19735
0.18889
0.17832
0.16565
0.15059
0.13342
0.11382
0.21251
0.21265
0.21149
0.20869
0.20413
0.19777
0.18924
0.17861
0.16586
0.15071
0.13346
0.1138
0.21296
0.21312
0.21197
0.20917
0.20459
0.19819
0.18962
0.17891
0.16608
0.15084
0.13352
0.1138
0.21342
0.21361
0.21247
0.20966
0.20507
0.19864
0.19
0.17924
0.16631
0.15099
0.13358
0.11381
0.2139
0.2141
0.21298
0.21017
0.20556
0.1991
0.19041
0.17957
0.16655
0.15116
0.13366
0.11383
0.21439
0.21462
0.21351
0.2107
0.20607
0.19958
0.19083
0.17992
0.16682
0.15134
0.13376
0.11386
0.21489
0.21515
0.21405
0.21124
0.20659
0.20007
0.19127
0.18029
0.1671
0.15153
0.13386
0.1139
0.21541
0.21569
0.2146
0.2118
0.20714
0.20058
0.19172
0.18068
0.16739
0.15174
0.13398
0.11395
0.21594
0.21625
0.21518
0.21237
0.2077
0.20111
0.1922
0.18108
0.1677
0.15196
0.13411
0.11401
0.21648
0.21683
0.21577
0.21297
0.20828
0.20165
0.19269
0.1815
0.16803
0.15219
0.13426
0.11408
0.21704
0.21742
0.21637
0.21358
0.20888
0.20222
0.1932
0.18194
0.16837
0.15245
0.13441
0.11416
0.21762
0.21803
0.21699
0.2142
0.20949
0.2028
0.19373
0.18239
0.16873
0.15271
0.13459
0.11426
0.2182
0.21865
0.21763
0.21485
0.21013
0.2034
0.19428
0.18287
0.16911
0.153
0.13477
0.11436
0.21881
0.21929
0.21829
0.21551
0.21078
0.20402
0.19484
0.18336
0.16951
0.1533
0.13497
0.11448
0.21943
0.21995
0.21896
0.2162
0.21146
0.20466
0.19543
0.18387
0.16992
0.15361
0.13519
0.1146
0.22006
0.22062
0.21965
0.2169
0.21215
0.20532
0.19604
0.1844
0.17035
0.15394
0.13541
0.11474
0.22071
0.22132
0.22036
0.21762
0.21286
0.206
0.19667
0.18495
0.1708
0.15429
0.13566
0.11489
0.22137
0.22203
0.22109
0.21836
0.2136
0.2067
0.19732
0.18552
0.17127
0.15465
0.13591
0.11506
0.22206
0.22276
0.22184
0.21912
0.21436
0.20742
0.19799
0.18611
0.17176
0.15503
0.13618
0.11523
0.22275
0.2235
0.2226
0.2199
0.21513
0.20817
0.19868
0.18672
0.17226
0.15543
0.13647
0.11542
0.22347
0.22427
0.22339
0.2207
0.21593
0.20893
0.19939
0.18734
0.17279
0.15584
0.13677
0.11562
0.2242
0.22506
0.22419
0.22152
0.21675
0.20972
0.20013
0.18799
0.17333
0.15627
0.13709
0.11583
0.22495
0.22586
0.22502
0.22237
0.2176
0.21052
0.20088
0.18866
0.17389
0.15671
0.13742
0.11606
0.22572
0.22669
0.22587
0.22324
0.21847
0.21135
0.20166
0.18935
0.17447
0.15718
0.13776
0.1163
0.22651
0.22753
0.22674
0.22413
0.21936
0.21221
0.20247
0.19006
0.17507
0.15765
0.13812
0.11656
0.22732
0.2284
0.22764
0.22504
0.22027
0.21309
0.20329
0.19079
0.17569
0.15815
0.1385
0.11682
0.22815
0.2293
0.22855
0.22598
0.22121
0.21399
0.20414
0.19154
0.17634
0.15866
0.13889
0.11711
0.22901
0.23021
0.2295
0.22695
0.22218
0.21492
0.20502
0.19232
0.177
0.15919
0.13929
0.1174
0.22989
0.23115
0.23047
0.22794
0.22318
0.21587
0.20591
0.19311
0.17768
0.15974
0.13972
0.11771
0.23079
0.23212
0.23147
0.22896
0.2242
0.21685
0.20684
0.19393
0.17838
0.16031
0.14015
0.11804
0.23172
0.23311
0.23249
0.23001
0.22525
0.21787
0.20779
0.19478
0.1791
0.1609
0.14061
0.11838
0.23267
0.23414
0.23355
0.23109
0.22633
0.21891
0.20877
0.19565
0.17985
0.1615
0.14107
0.11873
0.23366
0.23519
0.23464
0.23221
0.22745
0.21998
0.20978
0.19654
0.18061
0.16212
0.14156
0.1191
0.23467
0.23628
0.23577
0.23336
0.2286
0.22108
0.21081
0.19746
0.1814
0.16276
0.14206
0.11948
0.23573
0.2374
0.23693
0.23454
0.22978
0.22222
0.21188
0.19841
0.18222
0.16343
0.14258
0.11988
0.23681
0.23857
0.23813
0.23577
0.23101
0.2234
0.21298
0.19939
0.18305
0.16411
0.14312
0.12029
0.23794
0.23977
0.23938
0.23704
0.23227
0.22461
0.21411
0.2004
0.18392
0.16482
0.14367
0.12072
0.2391
0.24101
0.24067
0.23835
0.23358
0.22587
0.21528
0.20144
0.18481
0.16555
0.14424
0.12116
0.24031
0.2423
0.242
0.23971
0.23493
0.22717
0.21649
0.20251
0.18572
0.1663
0.14483
0.12162
0.24157
0.24364
0.24339
0.24113
0.23633
0.22851
0.21773
0.20362
0.18667
0.16707
0.14543
0.12209
0.24287
0.24504
0.24483
0.24259
0.23778
0.22991
0.21902
0.20477
0.18764
0.16787
0.14606
0.12257
0.24423
0.24649
0.24633
0.24412
0.23929
0.23136
0.22035
0.20596
0.18865
0.1687
0.14671
0.12308
0.24564
0.24799
0.24789
0.2457
0.24086
0.23286
0.22174
0.20718
0.18969
0.16955
0.14737
0.12359
0.24712
0.24957
0.24951
0.24736
0.24249
0.23442
0.22317
0.20845
0.19077
0.17043
0.14806
0.12412
0.24865
0.2512
0.2512
0.24908
0.24418
0.23604
0.22465
0.20977
0.19188
0.17134
0.14876
0.12466
0.25025
0.25291
0.25297
0.25087
0.24594
0.23773
0.22619
0.21113
0.19303
0.17227
0.14949
0.12522
0.25192
0.25469
0.25481
0.25274
0.24778
0.23948
0.22779
0.21254
0.19421
0.17323
0.15023
0.12579
0.25366
0.25655
0.25673
0.25469
0.24969
0.24131
0.22945
0.21401
0.19544
0.17422
0.151
0.12637
0.25548
0.25849
0.25873
0.25672
0.25168
0.24321
0.23118
0.21552
0.1967
0.17524
0.15178
0.12696
0.25738
0.26052
0.26082
0.25884
0.25376
0.24519
0.23297
0.21709
0.19801
0.17629
0.15258
0.12756
0.25936
0.26263
0.263
0.26105
0.25592
0.24725
0.23484
0.21872
0.19937
0.17736
0.1534
0.12816
0.26142
0.26484
0.26527
0.26335
0.25817
0.24939
0.23677
0.22041
0.20076
0.17847
0.15424
0.12878
0.26358
0.26713
0.26763
0.26575
0.26052
0.25161
0.23878
0.22215
0.2022
0.1796
0.15509
0.1294
0.26582
0.26952
0.2701
0.26825
0.26296
0.25393
0.24087
0.22396
0.20368
0.18076
0.15596
0.13002
0.26816
0.27202
0.27267
0.27084
0.26551
0.25633
0.24304
0.22582
0.20521
0.18194
0.15683
0.13065
0.2706
0.27461
0.27534
0.27354
0.26815
0.25883
0.24529
0.22775
0.20678
0.18315
0.15772
0.13127
0.27314
0.27731
0.27813
0.27635
0.27091
0.26142
0.24762
0.22974
0.20839
0.18438
0.15862
0.1319
0.2758
0.28013
0.28103
0.27927
0.27377
0.26411
0.25003
0.2318
0.21005
0.18564
0.15952
0.13252
0.27856
0.28306
0.28405
0.28231
0.27674
0.2669
0.25253
0.23392
0.21175
0.18693
0.16044
0.13313
0.28145
0.28611
0.2872
0.28547
0.27984
0.26979
0.25512
0.2361
0.21349
0.18823
0.16135
0.13375
0.28448
0.28929
0.29048
0.28876
0.28305
0.27279
0.25779
0.23836
0.21528
0.18956
0.16228
0.13435
0.28764
0.29263
0.29391
0.29219
0.2864
0.27591
0.26056
0.24068
0.21711
0.19092
0.16321
0.13494
0.29097
0.29612
0.2975
0.29578
0.2899
0.27915
0.26342
0.24306
0.21898
0.19229
0.16414
0.13552
0.29447
0.29978
0.30127
0.29953
0.29354
0.28252
0.26638
0.24552
0.22089
0.19369
0.16507
0.13609
0.29816
0.30365
0.30524
0.30348
0.29736
0.28603
0.26944
0.24804
0.22284
0.1951
0.16601
0.13664
0.30208
0.30774
0.30943
0.30764
0.30135
0.28968
0.2726
0.25062
0.22483
0.19652
0.16694
0.13718
0.30624
0.31209
0.31388
0.31204
0.30556
0.2935
0.27587
0.25327
0.22684
0.19795
0.16786
0.13768
0.31067
0.31672
0.31861
0.31671
0.30999
0.29748
0.27925
0.25597
0.22887
0.19937
0.16876
0.13816
0.31542
0.32168
0.32367
0.32169
0.31466
0.30165
0.28274
0.25871
0.23091
0.20076
0.16963
0.1386
0.32052
0.32701
0.32909
0.327
0.31962
0.30601
0.28634
0.2615
0.23294
0.20212
0.17044
0.13899
0.326
0.33275
0.33493
0.33269
0.32487
0.31057
0.29005
0.26431
0.23493
0.20341
0.17119
0.13931
0.33191
0.33896
0.34122
0.3388
0.33045
0.31535
0.29386
0.26713
0.23687
0.20462
0.17185
0.13956
0.33828
0.34567
0.34803
0.34536
0.33639
0.32036
0.29776
0.26994
0.23874
0.20572
0.17238
0.13969
0.34516
0.35295
0.3554
0.35244
0.34271
0.32559
0.30175
0.27273
0.24049
0.20667
0.17277
0.1397
0.3526
0.36084
0.3634
0.36006
0.34943
0.33106
0.30581
0.27546
0.24212
0.20746
0.17297
0.13956
0.36063
0.36941
0.3721
0.36829
0.35659
0.33676
0.30992
0.27813
0.24358
0.20806
0.17297
0.13923
0.3693
0.37873
0.38156
0.37718
0.36421
0.34269
0.31406
0.28068
0.24486
0.20843
0.17274
0.13869
0.37867
0.38888
0.39189
0.3868
0.37231
0.34884
0.31821
0.28309
0.24591
0.20855
0.17226
0.13792
0.38878
0.39996
0.40321
0.39725
0.38094
0.35519
0.32231
0.2853
0.2467
0.20839
0.17151
0.1369
0.39969
0.41208
0.41567
0.40862
0.39013
0.36171
0.32631
0.28724
0.24716
0.2079
0.17045
0.1356
0.41148
0.42541
0.42945
0.42106
0.39993
0.36838
0.33012
0.28881
0.24721
0.20701
0.16905
0.13401
0.42418
0.44012
0.44478
0.43473
0.41037
0.37512
0.33363
0.28988
0.24672
0.20563
0.16725
0.1321
0.43783
0.45639
0.46192
0.4498
0.42151
0.38188
0.3367
0.29031
0.24555
0.20364
0.16494
0.1298
0.45246
0.47442
0.48114
0.46647
0.43335
0.38854
0.33916
0.2899
0.24354
0.20089
0.16202
0.12705
0.468
0.49442
0.50271
0.4849
0.44587
0.39495
0.34079
0.28847
0.24051
0.19725
0.15837
0.12374
0.48437
0.51649
0.5268
0.50512
0.45896
0.4009
0.34137
0.28582
0.23629
0.19259
0.1539
0.1198
0.50141
0.54061
0.55336
0.527
0.47237
0.40612
0.34066
0.28173
0.23075
0.18682
0.14855
0.11515
0.51897
0.56654
0.58195
0.54997
0.48561
0.4102
0.33838
0.27604
0.22376
0.17987
0.14228
0.1098
0.53708
0.59367
0.61134
0.57277
0.49776
0.41261
0.33423
0.26855
0.21522
0.17166
0.13506
0.10375
0.55623
0.62098
0.63905
0.59289
0.50714
0.41248
0.32783
0.2591
0.20499
0.16208
0.12682
0.096988
0.57809
0.64704
0.66076
0.60587
0.51079
0.40837
0.31864
0.2475
0.19299
0.15106
0.11746
0.089505
0.60645
0.67036
0.67001
0.60469
0.50392
0.39793
0.30581
0.23358
0.17927
0.13861
0.10696
0.081279
0.64767
0.68974
0.65906
0.5803
0.48007
0.37783
0.28811
0.21713
0.16397
0.12493
0.095425
0.072388
0.7083
0.70058
0.61984
0.52428
0.43275
0.34434
0.2639
0.1977
0.14716
0.11025
0.083104
0.063106
0.79207
0.68569
0.53919
0.43023
0.3577
0.2944
0.23149
0.17456
0.12864
0.094646
0.070251
0.053885
0.91011
0.63054
0.40895
0.30177
0.25832
0.22779
0.18903
0.14596
0.1072
0.077442
0.056717
0.04493
1.053
0.55945
0.26214
0.16848
0.15666
0.15659
0.14137
0.11358
0.0839
0.059854
0.04383
0.037056
0.11527
0.076336
0.057406
0.045155
0.036816
0.030891
0.026493
0.023126
0.020489
0.018389
0.016728
0.015581
0.14306
0.10111
0.07811
0.062137
0.050944
0.042853
0.036783
0.032101
0.028441
0.025528
0.023209
0.021589
0.13492
0.10082
0.079774
0.064207
0.053012
0.04477
0.03851
0.033634
0.029824
0.026797
0.024362
0.022563
0.13356
0.10409
0.083702
0.068044
0.056562
0.047973
0.041373
0.036179
0.032115
0.028894
0.026273
0.024261
0.1361
0.10898
0.088714
0.072767
0.060868
0.051837
0.044833
0.039269
0.034893
0.031431
0.028593
0.026335
0.13883
0.11335
0.093326
0.077211
0.064972
0.055547
0.048186
0.042291
0.037613
0.033914
0.030875
0.028376
0.14133
0.11717
0.097464
0.081296
0.068805
0.059046
0.051375
0.045193
0.040232
0.036305
0.033083
0.03036
0.14373
0.12061
0.10124
0.085089
0.07242
0.062377
0.054431
0.047998
0.042775
0.038627
0.035235
0.032307
0.14602
0.12373
0.1047
0.088616
0.075831
0.065554
0.057362
0.050709
0.045246
0.040885
0.037333
0.034219
0.14817
0.12657
0.10788
0.091893
0.079042
0.068581
0.060167
0.053319
0.047643
0.043079
0.039376
0.036094
0.15015
0.12914
0.1108
0.094936
0.08206
0.07146
0.062851
0.055828
0.049963
0.045211
0.041362
0.037926
0.15196
0.13147
0.11348
0.097765
0.084893
0.074196
0.065416
0.058235
0.052206
0.047279
0.04329
0.039714
0.15359
0.13358
0.11594
0.1004
0.087549
0.076792
0.067868
0.060544
0.054371
0.049284
0.04516
0.041455
0.15505
0.1355
0.1182
0.10284
0.090036
0.079248
0.070209
0.062756
0.056458
0.051226
0.046971
0.043146
0.15635
0.13723
0.12027
0.10511
0.092361
0.081568
0.072441
0.064874
0.058467
0.053104
0.048725
0.044785
0.15748
0.13877
0.12216
0.10721
0.094531
0.083754
0.074566
0.0669
0.060398
0.054916
0.050421
0.046373
0.15846
0.14016
0.12387
0.10914
0.096554
0.08581
0.076586
0.068836
0.062252
0.056663
0.052058
0.047909
0.15928
0.14138
0.12541
0.11093
0.098439
0.087742
0.078502
0.070685
0.06403
0.058346
0.053638
0.049394
0.15995
0.14246
0.1268
0.11257
0.10019
0.089555
0.080318
0.072449
0.065732
0.059963
0.055161
0.050828
0.16048
0.1434
0.12805
0.11407
0.10183
0.091256
0.082037
0.074129
0.06736
0.061517
0.056628
0.052212
0.16089
0.14421
0.12917
0.11544
0.10334
0.092849
0.08366
0.075729
0.068915
0.063008
0.05804
0.053548
0.16117
0.1449
0.13017
0.1167
0.10475
0.09434
0.085191
0.077248
0.070399
0.064437
0.059397
0.054835
0.16134
0.14549
0.13106
0.11784
0.10605
0.095733
0.086633
0.07869
0.071813
0.065806
0.060701
0.056075
0.16141
0.14597
0.13185
0.11888
0.10726
0.097031
0.087987
0.080054
0.073159
0.067114
0.061953
0.057268
0.16139
0.14635
0.13253
0.11981
0.10836
0.098238
0.089256
0.081343
0.074437
0.068362
0.063153
0.058415
0.16127
0.14664
0.13313
0.12065
0.10937
0.099356
0.090443
0.082558
0.07565
0.069553
0.064303
0.059515
0.16108
0.14684
0.13363
0.12139
0.1103
0.10039
0.091551
0.083702
0.0768
0.070685
0.065402
0.060571
0.16082
0.14696
0.13405
0.12204
0.11113
0.10134
0.092583
0.084776
0.077888
0.071762
0.066452
0.061581
0.16048
0.147
0.13438
0.12262
0.11189
0.10222
0.093543
0.085784
0.078915
0.072783
0.067453
0.062548
0.16008
0.14697
0.13464
0.12311
0.11257
0.10302
0.094434
0.086727
0.079885
0.073751
0.068405
0.063471
0.15963
0.14687
0.13483
0.12353
0.11317
0.10376
0.095259
0.087609
0.080798
0.074668
0.06931
0.064351
0.15913
0.14671
0.13496
0.12389
0.11371
0.10443
0.096022
0.088432
0.081655
0.075534
0.070168
0.065189
0.15858
0.14649
0.13502
0.12419
0.11419
0.10504
0.096726
0.089199
0.08246
0.076351
0.070979
0.065986
0.15798
0.14623
0.13503
0.12442
0.1146
0.10559
0.097374
0.089912
0.083212
0.077121
0.071746
0.066742
0.15736
0.14592
0.13499
0.12461
0.11497
0.10609
0.097968
0.090572
0.083915
0.077844
0.072468
0.067458
0.1567
0.14556
0.1349
0.12474
0.11528
0.10653
0.09851
0.091183
0.084568
0.078523
0.073146
0.068134
0.15601
0.14517
0.13477
0.12483
0.11554
0.10693
0.099002
0.091745
0.085174
0.079157
0.073783
0.068771
0.1553
0.14475
0.13459
0.12487
0.11575
0.10727
0.099446
0.09226
0.085734
0.079749
0.07438
0.06937
0.15457
0.14429
0.13438
0.12487
0.11592
0.10757
0.099843
0.092731
0.08625
0.080299
0.074937
0.069932
0.15382
0.14381
0.13414
0.12483
0.11604
0.10783
0.1002
0.093158
0.086724
0.080808
0.075456
0.070459
0.15305
0.1433
0.13386
0.12475
0.11613
0.10804
0.10051
0.093543
0.087158
0.081279
0.075939
0.07095
0.15226
0.14277
0.13355
0.12463
0.11617
0.10821
0.10078
0.093888
0.087552
0.081711
0.076386
0.071407
0.15147
0.14222
0.13321
0.12448
0.11618
0.10834
0.10101
0.094195
0.08791
0.082108
0.0768
0.071831
0.15066
0.14164
0.13284
0.1243
0.11615
0.10844
0.1012
0.094466
0.088233
0.08247
0.077181
0.072224
0.14985
0.14105
0.13246
0.12409
0.1161
0.1085
0.10136
0.094702
0.088523
0.082799
0.077532
0.072587
0.14902
0.14044
0.13205
0.12385
0.11601
0.10853
0.10149
0.094906
0.088781
0.083096
0.077852
0.072921
0.1482
0.13983
0.13162
0.12359
0.11589
0.10853
0.10158
0.095078
0.089009
0.083363
0.078143
0.073226
0.14737
0.1392
0.13117
0.1233
0.11575
0.10851
0.10165
0.095221
0.089208
0.083601
0.078406
0.073505
0.14654
0.13856
0.13071
0.123
0.11558
0.10846
0.10169
0.095336
0.08938
0.083812
0.078643
0.073757
0.14571
0.13791
0.13024
0.12268
0.1154
0.10838
0.10171
0.095425
0.089525
0.083995
0.078853
0.073984
0.14488
0.13727
0.12975
0.12235
0.11519
0.10828
0.1017
0.095489
0.089644
0.084153
0.079038
0.074187
0.14405
0.13661
0.12926
0.122
0.11497
0.10817
0.10167
0.095528
0.089739
0.084287
0.079198
0.074367
0.14323
0.13596
0.12876
0.12164
0.11472
0.10803
0.10162
0.095545
0.08981
0.084396
0.079335
0.074523
0.14241
0.1353
0.12825
0.12126
0.11447
0.10787
0.10154
0.095539
0.089858
0.084483
0.079448
0.074658
0.1416
0.13465
0.12773
0.12088
0.11419
0.1077
0.10145
0.095512
0.089884
0.084547
0.07954
0.07477
0.14079
0.13399
0.12721
0.12048
0.11391
0.10751
0.10134