/*--------------------------------*- C++ -*----------------------------------*\
  =========                 |
  \\      /  F ield         | OpenFOAM: The Open Source CFD Toolbox
   \\    /   O peration     | Website:  https://openfoam.org
    \\  /    A nd           | Version:  6.0
     \\/     M anipulation  |
\*---------------------------------------------------------------------------*/
FoamFile
{
    version     2.0;
    format      ascii;
    class       volVectorField;
    location    "0.03";
    object      U;
}
// * * * * * * * * * * * * * * * * * * * * * * * * * * * * * * * * * * * * * //

dimensions      [0 1 -1 0 0 0 0];

internalField   nonuniform List<vector> 
13500
(
(1 -1.4898e-05 -8.5935e-18)
(1 -4.7792e-05 5.7834e-18)
(1 -8.0578e-05 -2.4767e-17)
(1.0001 -0.00011211 -1.6975e-17)
(1.0001 -0.00014102 3.1764e-17)
(1.0001 -0.00016458 5.8248e-17)
(1.0002 -0.00017878 4.9664e-17)
(1.0003 -0.00018152 -7.8539e-18)
(1.0003 -0.00013505 2.8344e-17)
(1.0005 -0.00015245 6.2717e-18)
(0.99762 0.00030986 4.0829e-17)
(1.0135 0.0088137 1.9806e-17)
(1 -5.1522e-05 5.324e-18)
(1 -0.0001656 -1.7564e-17)
(1.0001 -0.00027654 1.1827e-17)
(1.0002 -0.00037849 -6.6955e-19)
(1.0003 -0.00046683 -8.4717e-19)
(1.0005 -0.00053155 -7.004e-17)
(1.0006 -0.0005613 -8.5779e-17)
(1.0008 -0.0005503 -4.4939e-17)
(1.0009 -0.00042579 -2.8289e-17)
(1.0013 -0.00040611 -3.0972e-18)
(0.99584 0.0005765 -1.9335e-17)
(1.0216 0.020685 -1.2e-17)
(1 -8.7907e-05 -6.8765e-18)
(1.0001 -0.00028046 3.4896e-17)
(1.0002 -0.00046282 6.1521e-18)
(1.0003 -0.00062401 1.9571e-17)
(1.0005 -0.00075493 -7.3251e-18)
(1.0007 -0.00084103 5.6106e-17)
(1.001 -0.00086592 -1.2079e-17)
(1.0012 -0.00082477 1.0207e-17)
(1.0013 -0.00063488 -3.432e-17)
(1.0018 -0.00053868 4.7063e-17)
(0.99546 0.00063099 -1.0186e-17)
(1.0216 0.024073 4.2639e-18)
(1 -0.00011624 1.7977e-17)
(1.0001 -0.0003681 -3.3832e-17)
(1.0002 -0.00060165 -2.9163e-17)
(1.0004 -0.00080171 -1.3732e-18)
(1.0006 -0.0009553 1.1308e-17)
(1.0009 -0.0010467 -1.5559e-18)
(1.0012 -0.0010581 1.1898e-16)
(1.0015 -0.00098715 1.8393e-17)
(1.0015 -0.00075095 4.0582e-17)
(1.0021 -0.0005781 -1.7052e-17)
(0.99558 0.00059564 4.9928e-17)
(1.0199 0.024197 -1.9353e-17)
(0.99999 -0.00013419 -1.2631e-17)
(1.0001 -0.0004228 2.924e-17)
(1.0002 -0.00068661 2.4825e-17)
(1.0004 -0.00090782 2.505e-17)
(1.0007 -0.0010712 5.5454e-18)
(1.001 -0.0011613 4.1241e-17)
(1.0013 -0.0011606 -5.3134e-17)
(1.0016 -0.0010689 3.7368e-18)
(1.0016 -0.00080518 -2.4888e-17)
(1.0022 -0.00057033 -4.0701e-18)
(0.99585 0.00054059 -1.2758e-17)
(1.0183 0.023535 5.3828e-18)
(0.99998 -0.00014474 1.2783e-17)
(1.0001 -0.0004546 -1.2122e-17)
(1.0002 -0.00073521 7.5821e-18)
(1.0004 -0.00096733 -4.9623e-17)
(1.0007 -0.0011347 -1.6201e-19)
(1.001 -0.0012223 -8.1643e-17)
(1.0014 -0.0012132 2.04e-18)
(1.0016 -0.0011086 -2.999e-17)
(1.0017 -0.0008292 9.4748e-18)
(1.0023 -0.00054428 -4.0952e-17)
(0.99616 0.00048996 -3.1415e-17)
(1.0171 0.022705 5.1801e-18)
(0.99997 -0.00015089 -2.116e-18)
(1.0001 -0.00047297 -1.4498e-17)
(1.0002 -0.00076299 -6.1617e-18)
(1.0005 -0.0010009 3.7456e-17)
(1.0007 -0.0011701 -5.1364e-17)
(1.0011 -0.0012558 3.1241e-17)
(1.0014 -0.0012416 3.5549e-17)
(1.0017 -0.0011293 1.0551e-17)
(1.0017 -0.00084044 2.119e-17)
(1.0023 -0.00051298 2.2047e-17)
(0.99647 0.00044708 1.3717e-17)
(1.0161 0.021818 8.274e-18)
(0.99996 -0.00015462 -4.3676e-18)
(1 -0.00048408 -2.852e-18)
(1.0002 -0.00077977 -5.3085e-17)
(1.0005 -0.0010213 -1.7886e-17)
(1.0007 -0.0011916 1.4375e-17)
(1.0011 -0.0012763 5.1202e-17)
(1.0014 -0.0012593 2.2632e-17)
(1.0017 -0.001142 9.4201e-18)
(1.0017 -0.00084674 -1.3855e-17)
(1.0023 -0.00048156 3.086e-17)
(0.99677 0.00041037 1.1247e-17)
(1.0153 0.020929 -2.6159e-17)
(0.99995 -0.0001571 -1.3558e-17)
(1 -0.00049147 1.2261e-17)
(1.0002 -0.00079103 8.9258e-17)
(1.0005 -0.0010351 -2.1454e-17)
(1.0007 -0.0012065 5.3842e-17)
(1.0011 -0.0012909 -1.0109e-16)
(1.0014 -0.0012722 -7.538e-17)
(1.0017 -0.0011514 1.8306e-17)
(1.0018 -0.00085133 -1.0412e-17)
(1.0024 -0.00045192 -1.7021e-17)
(0.99706 0.0003786 -2.0589e-17)
(1.0146 0.020064 3.4102e-17)
(0.99994 -0.00015896 8.9326e-18)
(1 -0.00049704 4.6153e-18)
(1.0002 -0.00079962 -7.5608e-17)
(1.0004 -0.0010459 3.0533e-17)
(1.0007 -0.0012185 -2.3479e-17)
(1.0011 -0.0013031 4.3117e-17)
(1.0014 -0.0012833 2.6792e-17)
(1.0017 -0.0011597 4.6282e-18)
(1.0018 -0.00085548 9.7734e-19)
(1.0024 -0.00042465 2.6922e-18)
(0.99734 0.00035099 6.6824e-18)
(1.0139 0.019231 -1.8531e-18)
(0.99993 -0.00016052 -4.9043e-18)
(1 -0.00050173 -1.5136e-17)
(1.0002 -0.00080698 1.8534e-17)
(1.0004 -0.0010554 -5.3874e-18)
(1.0007 -0.0012292 3.625e-18)
(1.0011 -0.0013142 -4.7256e-17)
(1.0014 -0.0012938 -6.1713e-17)
(1.0017 -0.0011676 -5.878e-17)
(1.0018 -0.00085969 2.9106e-17)
(1.0024 -0.0003999 3.4962e-18)
(0.99761 0.00032692 -1.6926e-17)
(1.0133 0.018429 -1.4529e-17)
(0.99992 -0.00016194 6.7693e-18)
(1 -0.00050604 5.7172e-18)
(1.0002 -0.0008138 8.9322e-18)
(1.0004 -0.0010642 -4.294e-18)
(1.0007 -0.0012394 -1.0866e-17)
(1.0011 -0.001325 1.7873e-17)
(1.0014 -0.001304 3.5723e-17)
(1.0017 -0.0011755 3.6313e-17)
(1.0018 -0.00086411 1.8715e-17)
(1.0024 -0.00037764 -4.4172e-17)
(0.99787 0.00030591 1.3521e-19)
(1.0128 0.017659 -1.6583e-17)
(0.99991 -0.0001633 -6.768e-18)
(1 -0.00051018 1.1243e-17)
(1.0002 -0.0008204 1.6196e-17)
(1.0004 -0.0010729 1.1212e-17)
(1.0007 -0.0012494 -1.0079e-17)
(1.0011 -0.0013357 8.7873e-18)
(1.0014 -0.0013143 8.1469e-18)
(1.0017 -0.0011835 -3.2433e-18)
(1.0018 -0.00086884 -3.0244e-17)
(1.0025 -0.00035778 4.0952e-17)
(0.99812 0.00028753 1.181e-19)
(1.0123 0.016919 3.6755e-18)
(0.9999 -0.00016465 1.0292e-17)
(0.99999 -0.00051428 -8.7762e-18)
(1.0002 -0.00082696 1.4182e-18)
(1.0004 -0.0010815 -9.3531e-18)
(1.0007 -0.0012595 2.2891e-17)
(1.0011 -0.0013464 1.0723e-17)
(1.0014 -0.0013247 3.2789e-17)
(1.0017 -0.0011917 -1.2045e-17)
(1.0018 -0.00087388 -3.706e-19)
(1.0025 -0.00034022 1.0048e-17)
(0.99837 0.00027139 2.6279e-17)
(1.0118 0.016209 2.3567e-18)
(0.99989 -0.00016599 2.4821e-18)
(0.99998 -0.00051838 1.9478e-17)
(1.0002 -0.00083353 2.7084e-17)
(1.0004 -0.0010902 -9.3258e-18)
(1.0007 -0.0012696 1.6577e-17)
(1.0011 -0.0013573 -5.0057e-18)
(1.0014 -0.0013352 -5.7431e-17)
(1.0017 -0.0012001 3.8126e-17)
(1.0018 -0.00087926 -3.4148e-17)
(1.0025 -0.00032487 -5.7962e-17)
(0.9986 0.00025717 -5.6966e-18)
(1.0114 0.015527 2.1569e-18)
(0.99988 -0.00016735 -6.3326e-18)
(0.99997 -0.00052251 -2.0714e-17)
(1.0002 -0.00084015 -6.5006e-17)
(1.0004 -0.001099 1.5712e-17)
(1.0007 -0.0012799 -2.5155e-17)
(1.0011 -0.0013683 1.6052e-17)
(1.0014 -0.0013459 -5.3777e-18)
(1.0017 -0.0012087 -2.2951e-17)
(1.0019 -0.00088496 7.484e-18)
(1.0025 -0.00031162 3.4606e-17)
(0.99883 0.00024457 -1.2189e-17)
(1.0109 0.014873 2.8364e-17)
(0.99987 -0.00016871 6.6627e-19)
(0.99996 -0.00052668 1.5492e-17)
(1.0001 -0.00084684 4.4881e-17)
(1.0004 -0.0011078 -3.5387e-18)
(1.0007 -0.0012902 -2.4994e-17)
(1.0011 -0.0013794 -2.9914e-17)
(1.0014 -0.0013567 2.0528e-17)
(1.0017 -0.0012175 1.3164e-17)
(1.0019 -0.00089101 4.3365e-17)
(1.0025 -0.00030038 -4.8404e-18)
(0.99904 0.00023333 3.0814e-18)
(1.0106 0.014245 -1.1328e-17)
(0.99986 -0.00017009 -3.7381e-18)
(0.99995 -0.00053089 -1.8772e-17)
(1.0001 -0.00085361 -2.0252e-17)
(1.0004 -0.0011168 1.1825e-17)
(1.0007 -0.0013007 -1.4039e-17)
(1.0011 -0.0013907 -2.3998e-17)
(1.0014 -0.0013678 1.9962e-17)
(1.0018 -0.0012265 -8.9297e-18)
(1.0019 -0.00089739 -5.3705e-17)
(1.0026 -0.00029106 -2.7111e-17)
(0.99925 0.00022321 1.3415e-17)
(1.0102 0.013643 -1.2077e-17)
(0.99985 -0.00017149 -5.3524e-18)
(0.99994 -0.00053516 -7.0948e-18)
(1.0001 -0.00086046 -1.5007e-18)
(1.0004 -0.0011258 -5.1786e-17)
(1.0007 -0.0013114 1.1777e-17)
(1.0011 -0.0014022 1.0448e-17)
(1.0014 -0.001379 -3.7938e-17)
(1.0018 -0.0012357 -3.0493e-17)
(1.0019 -0.00090412 7.8387e-18)
(1.0026 -0.00028358 -2.0153e-18)
(0.99945 0.000214 -1.5439e-17)
(1.0099 0.013064 2.3098e-18)
(0.99983 -0.0001729 6.9619e-18)
(0.99993 -0.00053947 3.2525e-17)
(1.0001 -0.00086739 3.8649e-17)
(1.0004 -0.001135 4.876e-18)
(1.0007 -0.0013222 3.2563e-17)
(1.0011 -0.0014138 1.8313e-17)
(1.0014 -0.0013904 5.4731e-18)
(1.0018 -0.0012452 3.3375e-17)
(1.0019 -0.00091119 3.906e-17)
(1.0026 -0.00027784 3.2358e-17)
(0.99965 0.00020552 1.1675e-17)
(1.0096 0.01251 2.685e-18)
(0.99982 -0.00017434 -3.3182e-18)
(0.99992 -0.00054384 -7.8039e-18)
(1.0001 -0.00087441 -4.1176e-17)
(1.0004 -0.0011443 -4.6187e-18)
(1.0007 -0.0013331 -2.4682e-17)
(1.0011 -0.0014256 -9.9108e-18)
(1.0014 -0.0014019 -3.5187e-18)
(1.0018 -0.001255 -3.0182e-17)
(1.0019 -0.0009186 -3.7386e-17)
(1.0026 -0.00027377 1.656e-17)
(0.99984 0.00019759 8.7831e-19)
(1.0093 0.011977 1.5181e-18)
(0.99981 -0.00017578 8.7953e-18)
(0.99991 -0.00054826 -1.0195e-17)
(1.0001 -0.00088151 -3.8621e-17)
(1.0004 -0.0011537 8.7794e-17)
(1.0007 -0.0013441 3.5806e-17)
(1.0011 -0.0014375 -2.4254e-17)
(1.0014 -0.0014137 4.7267e-17)
(1.0018 -0.0012649 4.0792e-17)
(1.0019 -0.00092636 6.0693e-17)
(1.0026 -0.00027129 -6.0658e-17)
(1 0.00019009 -2.1552e-17)
(1.009 0.011466 3.9169e-19)
(0.9998 -0.00017725 -6.4378e-18)
(0.9999 -0.00055274 -2.0459e-18)
(1.0001 -0.0008887 6.5936e-17)
(1.0004 -0.0011632 -6.6368e-17)
(1.0007 -0.0013553 -3.446e-18)
(1.0011 -0.0014497 8.0362e-17)
(1.0014 -0.0014257 1.4655e-17)
(1.0018 -0.0012752 -6.3004e-18)
(1.002 -0.00093447 -3.7657e-17)
(1.0027 -0.00027033 7.1446e-17)
(1.0002 0.00018286 -9.2444e-18)
(1.0088 0.010976 -6.3377e-19)
(0.99979 -0.00017874 -3.2817e-18)
(0.99988 -0.00055727 -4.0766e-18)
(1.0001 -0.00089599 3.4342e-18)
(1.0003 -0.0011729 6.9048e-17)
(1.0007 -0.0013667 -1.9435e-17)
(1.0011 -0.001462 -5.9403e-17)
(1.0014 -0.0014379 -3.7357e-17)
(1.0018 -0.0012856 -6.7845e-18)
(1.002 -0.00094293 1.1919e-17)
(1.0027 -0.00027083 -6.0205e-17)
(1.0004 0.0001758 1.5427e-17)
(1.0086 0.010505 6.6738e-18)
(0.99978 -0.00018024 5.4232e-18)
(0.99987 -0.00056186 2.8374e-17)
(1.0001 -0.00090336 -2.5323e-17)
(1.0003 -0.0011827 -7.2287e-18)
(1.0007 -0.0013782 -3.7305e-17)
(1.0011 -0.0014744 6.4634e-17)
(1.0014 -0.0014502 -3.2804e-17)
(1.0018 -0.0012964 2.8135e-17)
(1.002 -0.00095175 -3.673e-18)
(1.0027 -0.00027271 5.64e-17)
(1.0005 0.0001688 -1.5196e-17)
(1.0083 0.010053 -1.1102e-17)
(0.99976 -0.00018176 -1.0401e-18)
(0.99986 -0.0005665 -1.6318e-17)
(1.0001 -0.00091083 -3.5461e-17)
(1.0003 -0.0011925 -1.9811e-17)
(1.0007 -0.0013898 3.6183e-17)
(1.0011 -0.0014871 -8.2426e-17)
(1.0014 -0.0014628 -5.0678e-18)
(1.0018 -0.0013073 -3.801e-17)
(1.002 -0.00096091 5.9456e-18)
(1.0027 -0.00027591 -1.6263e-17)
(1.0007 0.00016176 1.6179e-17)
(1.0081 0.0096197 4.6778e-18)
(0.99975 -0.00018331 5.4483e-18)
(0.99985 -0.00057121 -1.748e-17)
(1 -0.00091839 -3.504e-18)
(1.0003 -0.0012026 4.8146e-18)
(1.0007 -0.0014017 1.1453e-17)
(1.0011 -0.0014999 2.3817e-17)
(1.0014 -0.0014756 8.3007e-17)
(1.0018 -0.0013186 4.5432e-18)
(1.002 -0.00097044 9.6991e-18)
(1.0027 -0.00028038 1.7872e-17)
(1.0008 0.00015462 -1.3956e-17)
(1.008 0.0092034 3.5303e-18)
(0.99974 -0.00018487 -3.1242e-18)
(0.99984 -0.00057597 1.7463e-17)
(1 -0.00092605 5.0407e-17)
(1.0003 -0.0012127 -4.8506e-17)
(1.0007 -0.0014136 -1.7817e-17)
(1.0011 -0.0015129 -4.1934e-18)
(1.0014 -0.0014886 -2.736e-17)
(1.0018 -0.0013301 3.5254e-18)
(1.0021 -0.00098032 -1.6794e-17)
(1.0028 -0.00028605 -6.5906e-18)
(1.001 0.00014729 -4.5594e-19)
(1.0078 0.0088036 -4.3183e-18)
(0.99973 -0.00018645 -3.3577e-18)
(0.99982 -0.00058079 1.0453e-17)
(1 -0.0009338 -1.2188e-18)
(1.0003 -0.001223 1.6084e-17)
(1.0007 -0.0014258 -3.288e-17)
(1.001 -0.0015261 4.7436e-17)
(1.0014 -0.0015018 1.3655e-17)
(1.0018 -0.0013419 -3.3632e-17)
(1.0021 -0.00099055 -2.1567e-17)
(1.0028 -0.00029288 -2.5974e-17)
(1.0011 0.00013971 2.171e-18)
(1.0076 0.0084198 -7.7796e-18)
(0.99971 -0.00018805 1.1668e-18)
(0.99981 -0.00058567 -2.4963e-17)
(1 -0.00094165 3.1215e-17)
(1.0003 -0.0012334 4.4489e-17)
(1.0007 -0.001438 6.4445e-17)
(1.001 -0.0015395 -3.4839e-17)
(1.0015 -0.0015152 -3.3944e-17)
(1.0018 -0.001354 6.8232e-18)
(1.0021 -0.0010012 2.0209e-17)
(1.0028 -0.0003008 2.0301e-17)
(1.0012 0.00013183 1.0386e-17)
(1.0075 0.0080512 7.7321e-18)
(0.9997 -0.00018967 2.2358e-18)
(0.9998 -0.00059062 1.985e-17)
(1 -0.00094961 -7.1717e-17)
(1.0003 -0.0012439 -6.4452e-18)
(1.0006 -0.0014505 -5.3541e-17)
(1.001 -0.0015531 -2.195e-17)
(1.0015 -0.0015288 4.7147e-20)
(1.0019 -0.0013664 -7.8108e-18)
(1.0021 -0.0010121 -3.9878e-17)
(1.0028 -0.00030979 -3.2367e-17)
(1.0014 0.00012359 -1.4328e-17)
(1.0073 0.0076973 -3.7508e-18)
(0.99969 -0.00019132 -1.4492e-18)
(0.99979 -0.00059562 -1.2909e-17)
(0.99999 -0.00095767 5.643e-17)
(1.0003 -0.0012546 -6.1511e-17)
(1.0006 -0.0014631 -4.0304e-18)
(1.001 -0.0015668 4.6744e-17)
(1.0015 -0.0015427 1.3582e-18)
(1.0019 -0.001379 7.4442e-18)
(1.0021 -0.0010234 3.4906e-17)
(1.0028 -0.00031977 4.2028e-17)
(1.0015 0.00011497 8.1607e-18)
(1.0072 0.0073574 -2.044e-18)
(0.99967 -0.00019298 -3.7723e-18)
(0.99978 -0.0006007 -4.7605e-18)
(0.99998 -0.00096583 -2.5016e-17)
(1.0003 -0.0012655 3.0643e-17)
(1.0006 -0.0014759 5.8852e-17)
(1.001 -0.0015808 -2.0661e-17)
(1.0015 -0.0015568 4.2305e-17)
(1.0019 -0.001392 5.5807e-18)
(1.0022 -0.0010351 -3.9644e-18)
(1.0028 -0.00033072 1.8946e-17)
(1.0016 0.00010592 -9.2629e-18)
(1.0071 0.0070311 -1.3882e-18)
(0.99966 -0.00019467 9.4349e-19)
(0.99976 -0.00060583 -1.2589e-17)
(0.99997 -0.0009741 9.3652e-18)
(1.0003 -0.0012764 -3.1233e-17)
(1.0006 -0.0014889 -6.2257e-17)
(1.001 -0.001595 1.3023e-17)
(1.0015 -0.0015711 -6.1035e-17)
(1.0019 -0.0014052 -1.2768e-17)
(1.0022 -0.0010472 1.285e-17)
(1.0029 -0.00034259 -5.9528e-17)
(1.0017 9.6411e-05 6.2783e-18)
(1.0069 0.0067176 4.0791e-18)
(0.99965 -0.00019638 1.6567e-18)
(0.99975 -0.00061103 3.4109e-17)
(0.99996 -0.00098248 1.5681e-17)
(1.0003 -0.0012875 1.2721e-17)
(1.0006 -0.0015021 4.9784e-17)
(1.001 -0.0016094 3.885e-18)
(1.0015 -0.0015857 4.2156e-17)
(1.0019 -0.0014187 9.1543e-18)
(1.0022 -0.0010596 -3.9103e-17)
(1.0029 -0.00035533 2.0475e-17)
(1.0018 8.6417e-05 4.2656e-18)
(1.0068 0.0064166 4.1623e-18)
(0.99963 -0.00019811 -5.7841e-18)
(0.99974 -0.0006163 -1.1227e-17)
(0.99995 -0.00099096 -1.3777e-17)
(1.0002 -0.0012988 2.0894e-17)
(1.0006 -0.0015154 2.4055e-17)
(1.001 -0.001624 -7.7327e-18)
(1.0015 -0.0016005 -3.5416e-17)
(1.0019 -0.0014326 4.1701e-17)
(1.0022 -0.0010724 7.221e-18)
(1.0029 -0.00036892 -6.1695e-18)
(1.002 7.5916e-05 1.7867e-17)
(1.0067 0.0061274 -2.8612e-18)
(0.99962 -0.00019987 1.1885e-17)
(0.99972 -0.00062164 1.3445e-17)
(0.99994 -0.00099956 -1.4645e-17)
(1.0002 -0.0013102 -1.3017e-17)
(1.0006 -0.0015289 -3.4518e-17)
(1.001 -0.0016388 -1.3285e-17)
(1.0015 -0.0016156 1.7465e-17)
(1.0019 -0.0014467 -6.6897e-17)
(1.0022 -0.0010856 1.7733e-17)
(1.0029 -0.00038331 -7.275e-18)
(1.0021 6.4888e-05 -1.8978e-17)
(1.0066 0.0058497 8.2414e-18)
(0.9996 -0.00020165 -5.2454e-18)
(0.99971 -0.00062704 -2.3622e-17)
(0.99993 -0.0010083 -1.4194e-17)
(1.0002 -0.0013218 -2.4702e-17)
(1.0006 -0.0015426 -1.0541e-17)
(1.001 -0.0016538 3.9071e-17)
(1.0015 -0.0016309 -1.7162e-17)
(1.0019 -0.0014612 7.4429e-17)
(1.0022 -0.0010991 1.6745e-17)
(1.0029 -0.00039847 2.2085e-17)
(1.0022 5.3318e-05 8.0178e-18)
(1.0065 0.0055829 -1.3294e-17)
(0.99959 -0.00020345 -2.782e-18)
(0.9997 -0.00063252 1.7567e-17)
(0.99991 -0.0010171 2.8124e-17)
(1.0002 -0.0013335 6.6601e-17)
(1.0006 -0.0015565 1.3973e-17)
(1.001 -0.0016691 -2.6799e-17)
(1.0015 -0.0016464 8.2811e-18)
(1.0019 -0.0014759 -8.0088e-17)
(1.0023 -0.001113 -2.0329e-17)
(1.003 -0.00041436 -1.2266e-17)
(1.0023 4.1196e-05 7.9259e-18)
(1.0065 0.0053266 1.3278e-17)
(0.99957 -0.00020528 2.129e-18)
(0.99968 -0.00063807 4.1583e-18)
(0.9999 -0.0010261 -2.762e-17)
(1.0002 -0.0013454 -1.1093e-17)
(1.0006 -0.0015706 1.7745e-17)
(1.001 -0.0016846 3.2087e-17)
(1.0015 -0.0016622 2.8812e-17)
(1.0019 -0.001491 7.9212e-18)
(1.0023 -0.0011273 2.2754e-17)
(1.003 -0.00043096 -5.6669e-18)
(1.0023 2.8511e-05 -1.4167e-17)
(1.0064 0.0050804 -3.4318e-18)
(0.99956 -0.00020713 -8.7174e-20)
(0.99967 -0.00064369 4.739e-18)
(0.99989 -0.0010351 6.173e-18)
(1.0002 -0.0013574 -1.4403e-17)
(1.0006 -0.0015849 1.6699e-19)
(1.001 -0.0017003 -2.9091e-17)
(1.0015 -0.0016783 -1.9488e-17)
(1.0019 -0.0015064 5.8664e-17)
(1.0023 -0.001142 -3.4419e-17)
(1.003 -0.00044824 2.2e-17)
(1.0024 1.526e-05 7.5027e-18)
(1.0063 0.0048439 -9.5249e-18)
(0.99954 -0.00020901 -6.5934e-18)
(0.99965 -0.00064939 -2.2227e-17)
(0.99988 -0.0010443 1.5761e-17)
(1.0002 -0.0013696 -3.9338e-17)
(1.0006 -0.0015994 -4.4884e-17)
(1.001 -0.0017162 -4.0199e-17)
(1.0015 -0.0016947 -3.9737e-17)
(1.002 -0.0015221 -6.0064e-18)
(1.0023 -0.001157 3.0088e-17)
(1.003 -0.00046616 -1.8856e-17)
(1.0025 1.4378e-06 7.5575e-19)
(1.0062 0.0046166 8.9368e-18)
(0.99953 -0.00021091 1.2726e-17)
(0.99964 -0.00065516 2.3228e-17)
(0.99986 -0.0010536 -2.5418e-17)
(1.0002 -0.001382 3.2298e-17)
(1.0006 -0.0016141 -5.2672e-18)
(1.001 -0.0017324 2.635e-17)
(1.0015 -0.0017113 4.7767e-17)
(1.002 -0.0015381 -4.5526e-17)
(1.0023 -0.0011724 -1.5273e-17)
(1.003 -0.00048471 1.9873e-17)
(1.0026 -1.2955e-05 6.5535e-18)
(1.0062 0.0043983 -4.196e-18)
(0.99951 -0.00021284 -9.5482e-18)
(0.99962 -0.000661 -6.865e-18)
(0.99985 -0.0010631 -5.3149e-18)
(1.0002 -0.0013945 3.6958e-17)
(1.0006 -0.001629 -1.1275e-17)
(1.001 -0.0017488 -3.3484e-19)
(1.0015 -0.0017282 -9.3479e-18)
(1.002 -0.0015545 3.6469e-17)
(1.0024 -0.0011882 -1.452e-17)
(1.0031 -0.00050385 -1.3644e-17)
(1.0027 -2.7916e-05 -1.9389e-17)
(1.0061 0.0041884 4.8396e-18)
(0.9995 -0.0002148 6.4899e-18)
(0.99961 -0.00066693 -8.704e-18)
(0.99984 -0.0010726 1.2166e-17)
(1.0002 -0.0014072 -5.6079e-17)
(1.0006 -0.0016441 7.6362e-17)
(1.001 -0.0017655 1.0921e-17)
(1.0015 -0.0017453 3.6903e-17)
(1.002 -0.0015712 -2.2573e-17)
(1.0024 -0.0012044 1.7554e-19)
(1.0031 -0.00052356 1.0118e-17)
(1.0028 -4.3445e-05 -3.8248e-18)
(1.0061 0.0039868 -1.8257e-18)
(0.99948 -0.00021678 -1.8566e-18)
(0.99959 -0.00067293 1.7012e-18)
(0.99983 -0.0010823 2.9645e-17)
(1.0002 -0.0014201 1.5288e-17)
(1.0006 -0.0016595 -3.8179e-17)
(1.001 -0.0017824 -2.1396e-17)
(1.0015 -0.0017628 6.4545e-18)
(1.002 -0.0015882 -1.098e-17)
(1.0024 -0.001221 2.4296e-17)
(1.0031 -0.00054382 -6.6486e-18)
(1.0028 -5.9535e-05 1.8248e-17)
(1.006 0.003793 -6.5585e-18)
(0.99947 -0.00021879 -3.2312e-18)
(0.99958 -0.00067902 -1.6399e-17)
(0.99981 -0.0010921 -8.8141e-18)
(1.0001 -0.0014332 6.14e-17)
(1.0006 -0.001675 -3.4023e-17)
(1.001 -0.0017996 -1.8154e-18)
(1.0015 -0.0017805 -9.6395e-17)
(1.002 -0.0016056 1.0786e-17)
(1.0024 -0.001238 -4.5492e-17)
(1.0031 -0.00056461 -1.4317e-17)
(1.0029 -7.6182e-05 -1.8338e-17)
(1.006 0.0036067 3.8976e-18)
(0.99945 -0.00022084 -1.3947e-18)
(0.99956 -0.00068519 1.016e-17)
(0.9998 -0.0011021 -3.6383e-18)
(1.0001 -0.0014464 -3.575e-17)
(1.0005 -0.0016908 4.8893e-17)
(1.001 -0.001817 -4.4596e-18)
(1.0015 -0.0017985 5.1066e-17)
(1.002 -0.0016233 -6.6383e-18)
(1.0024 -0.0012553 2.2071e-17)
(1.0031 -0.00058591 1.7888e-17)
(1.003 -9.3379e-05 1.5136e-17)
(1.0059 0.0034276 -9.2238e-19)
(0.99943 -0.0002229 7.9065e-18)
(0.99955 -0.00069144 -6.0782e-18)
(0.99979 -0.0011122 -1.273e-17)
(1.0001 -0.0014599 3.9025e-17)
(1.0005 -0.0017068 3.5898e-18)
(1.001 -0.0018347 5.5257e-17)
(1.0015 -0.0018169 8.8137e-18)
(1.002 -0.0016413 3.1701e-17)
(1.0025 -0.0012731 8.2815e-18)
(1.0032 -0.0006077 -5.7874e-18)
(1.0031 -0.00011112 1.9807e-18)
(1.0059 0.0032554 8.4938e-19)
(0.99942 -0.000225 2.2539e-18)
(0.99953 -0.00069777 2.4855e-18)
(0.99977 -0.0011225 -1.1543e-17)
(1.0001 -0.0014735 -7.7717e-17)
(1.0005 -0.0017231 1.0871e-17)
(1.001 -0.0018527 4.7993e-18)
(1.0015 -0.0018355 -3.8224e-17)
(1.002 -0.0016597 4.4685e-19)
(1.0025 -0.0012912 2.445e-17)
(1.0032 -0.00062997 -3.7134e-18)
(1.0031 -0.00012939 -9.6626e-18)
(1.0058 0.0030898 4.9141e-18)
(0.9994 -0.00022713 -9.6528e-18)
(0.99952 -0.0007042 1.0533e-17)
(0.99976 -0.0011328 1.9025e-18)
(1.0001 -0.0014873 4.3159e-17)
(1.0005 -0.0017395 -4.9588e-17)
(1.001 -0.0018709 -2.117e-17)
(1.0015 -0.0018544 3.91e-17)
(1.002 -0.0016785 -2.1481e-17)
(1.0025 -0.0013097 -3.8686e-17)
(1.0032 -0.00065269 -1.8314e-17)
(1.0032 -0.00014819 1.2325e-17)
(1.0058 0.0029305 1.608e-18)
(0.99938 -0.0002293 -1.0212e-18)
(0.9995 -0.00071071 -1.0599e-17)
(0.99974 -0.0011434 2.0267e-17)
(1.0001 -0.0015013 1.914e-17)
(1.0005 -0.0017563 6.1255e-17)
(1.001 -0.0018894 8.1396e-18)
(1.0015 -0.0018737 3.4748e-17)
(1.002 -0.0016976 5.4468e-17)
(1.0025 -0.0013287 -1.7288e-18)
(1.0032 -0.00067585 3.2201e-17)
(1.0033 -0.0001675 -1.2982e-18)
(1.0058 0.0027773 -4.7519e-18)
(0.99937 -0.00023149 9.8987e-18)
(0.99948 -0.00071731 -1.543e-17)
(0.99973 -0.0011541 -3.0762e-17)
(1.0001 -0.0015155 -5.0845e-18)
(1.0005 -0.0017732 -6.6491e-17)
(1.001 -0.0019082 -2.421e-17)
(1.0015 -0.0018932 -1.2051e-17)
(1.0021 -0.0017171 4.133e-19)
(1.0025 -0.001348 5.039e-17)
(1.0032 -0.00069944 7.3956e-18)
(1.0033 -0.00018731 -1.7019e-17)
(1.0057 0.0026299 2.8168e-18)
(0.99935 -0.00023371 -1.1097e-17)
(0.99947 -0.000724 1.9275e-17)
(0.99971 -0.0011649 1.6102e-17)
(1.0001 -0.00153 -1.0135e-17)
(1.0005 -0.0017904 5.3478e-17)
(1.001 -0.0019273 2.8974e-17)
(1.0015 -0.0019131 -9.5295e-18)
(1.0021 -0.0017369 -5.4903e-17)
(1.0026 -0.0013677 -1.7045e-18)
(1.0033 -0.00072344 -2.1168e-17)
(1.0034 -0.00020762 2.0172e-17)
(1.0057 0.002488 -3.6916e-18)
(0.99933 -0.00023597 6.6676e-18)
(0.99945 -0.00073078 -3.6879e-18)
(0.9997 -0.0011759 2.1321e-17)
(1.0001 -0.0015446 -4.2654e-17)
(1.0005 -0.0018079 1.7469e-17)
(1.001 -0.0019467 -1.0405e-17)
(1.0015 -0.0019333 -2.0552e-17)
(1.0021 -0.0017571 -4.4107e-18)
(1.0026 -0.0013878 -6.0893e-17)
(1.0033 -0.00074785 1.3939e-17)
(1.0034 -0.0002284 -1.8528e-17)
(1.0057 0.0023514 1.2214e-18)
(0.99931 -0.00023826 5.2697e-19)
(0.99943 -0.00073766 -1.1601e-17)
(0.99968 -0.001187 1.2108e-17)
(1 -0.0015594 5.6145e-17)
(1.0005 -0.0018256 -4.1601e-17)
(1.001 -0.0019664 3.3499e-17)
(1.0015 -0.0019538 -1.189e-17)
(1.0021 -0.0017777 1.0206e-17)
(1.0026 -0.0014083 7.2369e-17)
(1.0033 -0.00077265 -2.5866e-17)
(1.0035 -0.00024966 2.8376e-17)
(1.0057 0.0022198 3.4322e-18)
(0.99929 -0.00024059 9.4586e-19)
(0.99942 -0.00074464 -2.4001e-18)
(0.99967 -0.0011983 -1.7419e-17)
(1 -0.0015744 -8.4501e-18)
(1.0005 -0.0018436 3.6266e-17)
(1.001 -0.0019864 2.7731e-19)
(1.0015 -0.0019747 -2.3382e-17)
(1.0021 -0.0017986 -2.4378e-17)
(1.0026 -0.0014293 -3.0307e-17)
(1.0033 -0.00079784 -2.4278e-18)
(1.0035 -0.00027138 5.2443e-18)
(1.0056 0.0020931 3.3835e-19)
(0.99927 -0.00024295 -1.5225e-18)
(0.9994 -0.00075171 2.8571e-17)
(0.99965 -0.0012098 -1.1618e-17)
(1 -0.0015897 -4.7772e-17)
(1.0005 -0.0018619 1.6726e-17)
(1.001 -0.0020066 -8.5364e-17)
(1.0015 -0.0019959 1.1656e-17)
(1.0021 -0.0018199 1.5346e-17)
(1.0026 -0.0014506 1.4074e-18)
(1.0033 -0.00082339 2.6223e-17)
(1.0036 -0.00029355 -1.7019e-18)
(1.0056 0.001971 -9.5377e-18)
(0.99926 -0.00024534 -4.0198e-19)
(0.99938 -0.00075888 -5.6094e-19)
(0.99964 -0.0012214 1.564e-17)
(1 -0.0016052 2.9496e-17)
(1.0005 -0.0018804 -6.6444e-17)
(1.001 -0.0020273 3.6823e-18)
(1.0015 -0.0020175 2.0895e-17)
(1.0021 -0.0018417 2.4043e-17)
(1.0027 -0.0014724 -1.92e-17)
(1.0034 -0.00084932 -2.5509e-17)
(1.0036 -0.00031616 -2.8305e-17)
(1.0056 0.0018533 1.0027e-17)
(0.99924 -0.00024778 -2.6294e-18)
(0.99936 -0.00076615 7.9806e-19)
(0.99962 -0.0012332 -7.5411e-18)
(0.99999 -0.0016209 -1.9695e-17)
(1.0005 -0.0018992 3.684e-17)
(1.001 -0.0020482 4.5839e-17)
(1.0015 -0.0020394 6.098e-18)
(1.0021 -0.0018638 1.2187e-17)
(1.0027 -0.0014945 3.0626e-17)
(1.0034 -0.0008756 4.3004e-18)
(1.0037 -0.00033919 2.0976e-17)
(1.0056 0.0017399 -6.0716e-18)
(0.99922 -0.00025025 4.8392e-18)
(0.99934 -0.00077353 1.4715e-18)
(0.99961 -0.0012452 -1.0777e-17)
(0.99998 -0.0016368 2.9093e-18)
(1.0004 -0.0019183 -1.9975e-17)
(1.001 -0.0020694 -1.0995e-17)
(1.0016 -0.0020617 -2.2525e-18)
(1.0021 -0.0018863 -5.5036e-17)
(1.0027 -0.0015171 6.0222e-18)
(1.0034 -0.00090223 -8.6804e-18)
(1.0037 -0.00036265 -8.5316e-18)
(1.0056 0.0016305 -7.2607e-18)
(0.9992 -0.00025276 -9.8752e-18)
(0.99932 -0.00078101 1.9223e-18)
(0.99959 -0.0012573 5.7167e-18)
(0.99996 -0.001653 -3.6569e-17)
(1.0004 -0.0019377 -2.2778e-17)
(1.001 -0.002091 -5.1072e-17)
(1.0016 -0.0020843 1.0885e-17)
(1.0021 -0.0019092 2.2472e-17)
(1.0027 -0.00154 -6.4556e-17)
(1.0034 -0.00092921 4.0043e-17)
(1.0038 -0.00038651 -9.2577e-18)
(1.0056 0.0015251 4.6975e-18)
(0.99918 -0.0002553 9.0644e-18)
(0.9993 -0.0007886 4.3022e-18)
(0.99957 -0.0012697 2.1982e-18)
(0.99995 -0.0016694 1.1595e-17)
(1.0004 -0.0019573 -5.0356e-18)
(1.001 -0.0021129 9.9003e-17)
(1.0016 -0.0021074 3.9094e-17)
(1.0022 -0.0019325 -3.4967e-17)
(1.0027 -0.0015634 6.2149e-17)
(1.0034 -0.00095653 -1.494e-17)
(1.0038 -0.00041078 -6.1285e-18)
(1.0055 0.0014233 -2.3072e-18)
(0.99916 -0.00025789 2.2228e-18)
(0.99929 -0.0007963 -2.7246e-17)
(0.99955 -0.0012822 4.4e-18)
(0.99994 -0.0016861 5.2091e-17)
(1.0004 -0.0019773 3.8946e-17)
(1.001 -0.0021352 -1.5866e-18)
(1.0016 -0.0021308 -5.4153e-17)
(1.0022 -0.0019562 1.0582e-17)
(1.0028 -0.0015872 -1.4023e-17)
(1.0035 -0.00098418 -2.0647e-17)
(1.0039 -0.00043543 1.5574e-17)
(1.0055 0.0013251 2.1753e-18)
(0.99914 -0.00026052 -8.7924e-18)
(0.99927 -0.00080411 -9.0816e-18)
(0.99954 -0.0012949 -2.3835e-17)
(0.99992 -0.001703 -4.3692e-17)
(1.0004 -0.0019976 -3.9197e-17)
(1.001 -0.0021578 -4.5004e-17)
(1.0016 -0.0021545 1.0007e-17)
(1.0022 -0.0019803 8.2324e-17)
(1.0028 -0.0016115 6.1168e-18)
(1.0035 -0.0010122 -1.7941e-18)
(1.0039 -0.00046047 -5.5077e-18)
(1.0055 0.0012304 -5.7578e-18)
(0.99911 -0.00026319 6.5239e-18)
(0.99925 -0.00081203 8.4377e-18)
(0.99952 -0.0013077 3.673e-17)
(0.99991 -0.0017201 3.0262e-17)
(1.0004 -0.0020182 3.8137e-17)
(1.001 -0.0021808 -1.6714e-18)
(1.0016 -0.0021787 -5.5771e-17)
(1.0022 -0.0020049 -4.4501e-17)
(1.0028 -0.0016361 1.5195e-17)
(1.0035 -0.0010405 7.1448e-18)
(1.004 -0.00048588 1.2444e-17)
(1.0055 0.0011389 4.4745e-18)
(0.99909 -0.0002659 -4.6068e-18)
(0.99923 -0.00082007 1.3234e-17)
(0.9995 -0.0013208 -2.4302e-17)
(0.9999 -0.0017376 4.3815e-18)
(1.0004 -0.0020391 1.7738e-17)
(1.001 -0.0022041 -4.4012e-18)
(1.0016 -0.0022033 1.2511e-17)
(1.0022 -0.0020299 1.236e-17)
(1.0028 -0.0016612 5.015e-18)
(1.0035 -0.0010691 1.7635e-17)
(1.004 -0.00051166 -1.4974e-17)
(1.0055 0.0010506 9.1095e-19)
(0.99907 -0.00026866 6.9547e-18)
(0.99921 -0.00082822 8.2011e-19)
(0.99948 -0.0013341 -1.1375e-17)
(0.99988 -0.0017552 1.745e-18)
(1.0004 -0.0020603 -2.9097e-18)
(1.001 -0.0022278 -4.3501e-17)
(1.0016 -0.0022282 3.4977e-17)
(1.0022 -0.0020553 4.3877e-17)
(1.0028 -0.0016867 -2.4909e-17)
(1.0036 -0.0010981 -2.4525e-17)
(1.004 -0.0005378 -4.3928e-18)
(1.0055 0.00096532 7.608e-18)
(0.99905 -0.00027146 -5.052e-18)
(0.99918 -0.0008365 -6.3164e-19)
(0.99947 -0.0013476 1.4144e-17)
(0.99987 -0.0017732 -3.3497e-17)
(1.0004 -0.0020819 -2.6352e-17)
(1.001 -0.0022519 5.4924e-17)
(1.0016 -0.0022536 -5.3519e-18)
(1.0022 -0.0020811 -4.6455e-17)
(1.0028 -0.0017127 6.3526e-18)
(1.0036 -0.0011273 2.308e-17)
(1.0041 -0.00056429 1.4878e-17)
(1.0055 0.00088292 -2.7412e-18)
(0.99903 -0.0002743 5.0191e-19)
(0.99916 -0.00084489 4.6258e-18)
(0.99945 -0.0013612 7.7278e-18)
(0.99985 -0.0017914 1.7317e-17)
(1.0004 -0.0021038 5.1669e-17)
(1.001 -0.0022764 1.2814e-17)
(1.0016 -0.0022794 -4.6627e-17)
(1.0022 -0.0021074 4.3555e-18)
(1.0029 -0.0017391 1.638e-17)
(1.0036 -0.0011569 -2.0784e-17)
(1.0041 -0.00059112 -1.0071e-17)
(1.0055 0.0008033 -3.1538e-18)
(0.999 -0.0002772 1.425e-18)
(0.99914 -0.00085342 -8.0493e-19)
(0.99943 -0.0013751 -2.0391e-17)
(0.99984 -0.0018099 -3.7266e-19)
(1.0004 -0.002126 -1.0217e-16)
(1.0009 -0.0023012 1.5807e-17)
(1.0016 -0.0023057 4.5799e-17)
(1.0022 -0.0021342 -1.2511e-17)
(1.0029 -0.0017659 -1.7145e-17)
(1.0036 -0.0011868 3.4496e-17)
(1.0042 -0.00061829 1.2066e-17)
(1.0055 0.00072634 8.1495e-18)
(0.99898 -0.00028013 1.5304e-18)
(0.99912 -0.00086206 -1.6698e-18)
(0.99941 -0.0013892 3.6877e-17)
(0.99982 -0.0018287 7.9892e-18)
(1.0003 -0.0021486 9.0551e-17)
(1.0009 -0.0023265 -5.5687e-17)
(1.0016 -0.0023323 -1.5351e-17)
(1.0023 -0.0021614 1.1779e-17)
(1.0029 -0.0017932 5.9206e-18)
(1.0036 -0.0012171 -1.9407e-17)
(1.0042 -0.0006458 -1.9473e-18)
(1.0055 0.00065191 -6.0045e-18)
(0.99896 -0.00028312 -5.9814e-18)
(0.9991 -0.00087084 2.8026e-18)
(0.99939 -0.0014035 -2.1675e-17)
(0.99981 -0.0018477 1.0507e-17)
(1.0003 -0.0021715 -3.4409e-17)
(1.0009 -0.0023521 7.5522e-18)
(1.0016 -0.0023595 6.1474e-17)
(1.0023 -0.002189 -4.4092e-17)
(1.0029 -0.0018209 -2.1751e-17)
(1.0037 -0.0012476 -1.9183e-17)
(1.0042 -0.00067363 -9.6119e-18)
(1.0055 0.00057993 -1.6412e-18)
(0.99893 -0.00028616 7.4497e-18)
(0.99908 -0.00087975 -6.6566e-18)
(0.99937 -0.0014181 -2.1034e-17)
(0.99979 -0.0018671 -1.6754e-17)
(1.0003 -0.0021948 -5.6278e-17)
(1.0009 -0.0023782 -3.5053e-17)
(1.0016 -0.002387 -3.7697e-17)
(1.0023 -0.0022171 4.0999e-17)
(1.0029 -0.0018491 2.1102e-17)
(1.0037 -0.0012785 2.9046e-17)
(1.0043 -0.00070179 -3.7706e-18)
(1.0055 0.00051027 7.9061e-18)
(0.99891 -0.00028925 -1.1972e-17)
(0.99905 -0.00088879 1.0784e-17)
(0.99935 -0.0014328 5.1502e-17)
(0.99977 -0.0018868 -3.9524e-18)
(1.0003 -0.0022185 6.2269e-17)
(1.0009 -0.0024047 2.633e-18)
(1.0016 -0.0024151 -3.6133e-17)
(1.0023 -0.0022458 1.6052e-17)
(1.003 -0.0018778 -7.6085e-18)
(1.0037 -0.0013097 -6.0824e-18)
(1.0043 -0.00073026 1.2229e-17)
(1.0055 0.00044284 -5.3459e-18)
(0.99889 -0.00029239 9.8101e-18)
(0.99903 -0.00089798 -1.4656e-17)
(0.99933 -0.0014478 -6.0047e-17)
(0.99976 -0.0019067 2.5859e-17)
(1.0003 -0.0022426 -4.4376e-17)
(1.0009 -0.0024316 4.8469e-17)
(1.0016 -0.0024435 1.177e-17)
(1.0023 -0.0022748 -1.5278e-17)
(1.003 -0.0019069 -3.6565e-18)
(1.0037 -0.0013412 -1.5223e-17)
(1.0043 -0.00075904 -1.9962e-17)
(1.0055 0.00037754 7.3501e-18)
(0.99886 -0.00029558 -7.225e-18)
(0.99901 -0.0009073 4.8731e-18)
(0.99931 -0.001463 3.6486e-17)
(0.99974 -0.001927 -3.409e-17)
(1.0003 -0.002267 7.1412e-17)
(1.0009 -0.0024589 -3.7636e-17)
(1.0016 -0.0024725 6.8632e-18)
(1.0023 -0.0023044 -2.4156e-17)
(1.003 -0.0019365 1.1947e-17)
(1.0038 -0.001373 -2.1272e-18)
(1.0044 -0.00078812 8.5421e-18)
(1.0055 0.00031428 -3.2788e-18)
(0.99884 -0.00029883 8.8605e-18)
(0.99898 -0.00091676 3.7933e-18)
(0.99929 -0.0014785 -2.4325e-17)
(0.99972 -0.0019476 -6.9469e-19)