/*--------------------------------*- C++ -*----------------------------------*\
  =========                 |
  \\      /  F ield         | OpenFOAM: The Open Source CFD Toolbox
   \\    /   O peration     | Website:  https://openfoam.org
    \\  /    A nd           | Version:  6.0
     \\/     M anipulation  |
\*---------------------------------------------------------------------------*/
FoamFile
{
    version     2.0;
    format      ascii;
    class       surfaceScalarField;
    location    "1.69";
    object      phi;
}
// * * * * * * * * * * * * * * * * * * * * * * * * * * * * * * * * * * * * * //

dimensions      [0 3 -1 0 0 0 0];

internalField   nonuniform List<scalar> 
26699
(
2.0051e-05
0.005201
3.9892e-10
4.0126e-05
0.0051116
5.9639e-05
0.0049351
7.8186e-05
0.0046741
9.5416e-05
0.0043332
0.00011102
0.0039182
0.00012472
0.0034362
0.00013626
0.0028953
0.00014546
0.002305
0.00015182
0.0016755
0.00015718
0.0010154
0.00046489
3.45e-05
2.0051e-05
0.0051809
1.2633e-09
4.0127e-05
0.0050916
5.9641e-05
0.0049155
7.8189e-05
0.0046556
9.5419e-05
0.004316
0.00011102
0.0039026
0.00012471
0.0034225
0.00013624
0.0028838
0.00014544
0.0022958
0.00015107
0.0016699
0.00015895
0.0010075
0.00055861
6.5234e-05
2.0052e-05
0.0051609
2.2012e-09
4.0128e-05
0.0050715
5.9643e-05
0.004896
7.8192e-05
0.004637
9.5421e-05
0.0042988
0.00011102
0.003887
0.00012471
0.0034088
0.00013622
0.0028723
0.00014545
0.0022865
0.00015032
0.001665
0.00016025
0.00099758
0.00062837
9.0489e-05
2.0052e-05
0.0051408
3.1454e-09
4.013e-05
0.0050514
5.9646e-05
0.0048765
7.8195e-05
0.0046185
9.5424e-05
0.0042815
0.00011102
0.0038714
0.0001247
0.0033951
0.00013619
0.0028608
0.00014549
0.0022772
0.00014959
0.0016609
0.00016103
0.00098615
0.00067862
0.00011077
2.0052e-05
0.0051208
4.0904e-09
4.0131e-05
0.0050313
5.9648e-05
0.004857
7.8198e-05
0.0045999
9.5427e-05
0.0042643
0.00011102
0.0038558
0.0001247
0.0033814
0.00013617
0.0028493
0.00014555
0.0022678
0.00014891
0.0016575
0.00016128
0.00097378
0.00071303
0.00012688
2.0052e-05
0.0051007
5.036e-09
4.0133e-05
0.0050112
5.965e-05
0.0048375
7.8201e-05
0.0045814
9.543e-05
0.0042471
0.00011103
0.0038402
0.0001247
0.0033678
0.00013614
0.0028379
0.00014563
0.0022584
0.0001483
0.0016549
0.0001611
0.00096099
0.00073464
0.00013949
2.0052e-05
0.0050807
5.9823e-09
4.0134e-05
0.0049912
5.9653e-05
0.004818
7.8204e-05
0.0045628
9.5433e-05
0.0042299
0.00011103
0.0038246
0.0001247
0.0033541
0.0001361
0.0028265
0.00014572
0.0022487
0.00014779
0.0016528
0.00016056
0.00094822
0.00074603
0.00014917
2.0053e-05
0.0050606
6.9293e-09
4.0135e-05
0.0049711
5.9655e-05
0.0047984
7.8207e-05
0.0045443
9.5436e-05
0.0042126
0.00011103
0.003809
0.0001247
0.0033404
0.00013607
0.0028151
0.00014582
0.002239
0.00014737
0.0016512
0.00015976
0.00093583
0.00074937
0.00015641
2.0053e-05
0.0050405
7.8772e-09
4.0137e-05
0.004951
5.9657e-05
0.0047789
7.821e-05
0.0045257
9.5439e-05
0.0041954
0.00011103
0.0037934
0.0001247
0.0033268
0.00013603
0.0028038
0.00014593
0.0022291
0.00014706
0.0016501
0.00015878
0.0009241
0.00074648
0.00016167
2.0053e-05
0.0050205
8.8259e-09
4.0138e-05
0.0049309
5.966e-05
0.0047594
7.8213e-05
0.0045072
9.5442e-05
0.0041782
0.00011103
0.0037778
0.0001247
0.0033131
0.00013599
0.0027925
0.00014604
0.002219
0.00014685
0.0016493
0.00015771
0.00091324
0.00073888
0.00016531
2.0053e-05
0.0050004
9.7755e-09
4.0139e-05
0.0049108
5.9662e-05
0.0047399
7.8216e-05
0.0044886
9.5445e-05
0.0041609
0.00011104
0.0037623
0.0001247
0.0032994
0.00013595
0.0027813
0.00014615
0.0022088
0.00014675
0.0016487
0.00015661
0.00090339
0.00072782
0.00016767
2.0054e-05
0.0049804
1.0726e-08
4.0141e-05
0.0048907
5.9664e-05
0.0047204
7.8219e-05
0.00447
9.5448e-05
0.0041437
0.00011104
0.0037467
0.00012471
0.0032858
0.00013591
0.0027701
0.00014625
0.0021985
0.00014676
0.0016482
0.00015553
0.00089461
0.00071432
0.00016903
2.0054e-05
0.0049603
1.1678e-08
4.0142e-05
0.0048707
5.9667e-05
0.0047008
7.8222e-05
0.0044515
9.5451e-05
0.0041265
0.00011104
0.0037311
0.00012471
0.0032721
0.00013586
0.0027589
0.00014634
0.002188
0.00014685
0.0016477
0.00015451
0.00088695
0.0006992
0.00016962
2.0054e-05
0.0049402
1.2631e-08
4.0144e-05
0.0048506
5.9669e-05
0.0046813
7.8226e-05
0.0044329
9.5454e-05
0.0041093
0.00011104
0.0037155
0.00012472
0.0032584
0.00013582
0.0027478
0.00014642
0.0021774
0.00014702
0.0016471
0.00015357
0.0008804
0.00068315
0.00016963
2.0054e-05
0.0049202
1.3585e-08
4.0145e-05
0.0048305
5.9671e-05
0.0046618
7.8229e-05
0.0044144
9.5458e-05
0.004092
0.00011104
0.0036999
0.00012472
0.0032447
0.00013577
0.0027368
0.00014649
0.0021667
0.00014725
0.0016464
0.00015275
0.0008749
0.00066668
0.00016922
2.0054e-05
0.0049001
1.454e-08
4.0146e-05
0.0048104
5.9673e-05
0.0046423
7.8232e-05
0.0043958
9.5461e-05
0.0040748
0.00011105
0.0036843
0.00012473
0.003231
0.00013573
0.0027258
0.00014654
0.0021559
0.00014755
0.0016453
0.00015205
0.0008704
0.00065019
0.00016853
2.0055e-05
0.00488
1.5496e-08
4.0148e-05
0.0047903
5.9676e-05
0.0046227
7.8235e-05
0.0043773
9.5464e-05
0.0040576
0.00011105
0.0036687
0.00012474
0.0032173
0.00013569
0.0027148
0.00014657
0.002145
0.00014788
0.001644
0.00015147
0.00086681
0.00063401
0.00016766
2.0055e-05
0.0048599
1.6454e-08
4.0149e-05
0.0047702
5.9678e-05
0.0046032
7.8238e-05
0.0043587
9.5468e-05
0.0040403
0.00011105
0.0036532
0.00012475
0.0032036
0.00013564
0.0027039
0.00014659
0.002134
0.00014825
0.0016424
0.00015102
0.00086404
0.00061835
0.00016668
2.0055e-05
0.0048399
1.7414e-08
4.015e-05
0.0047501
5.9681e-05
0.0045837
7.8241e-05
0.0043401
9.5471e-05
0.0040231
0.00011105
0.0036376
0.00012476
0.0031899
0.00013561
0.0026931
0.00014658
0.0021231
0.00014863
0.0016403
0.0001507
0.00086197
0.00060337
0.00016568
2.0055e-05
0.0048198
1.8374e-08
4.0152e-05
0.00473
5.9683e-05
0.0045641
7.8244e-05
0.0043216
9.5475e-05
0.0040059
0.00011105
0.003622
0.00012477
0.0031762
0.00013557
0.0026823
0.00014657
0.0021121
0.00014903
0.0016379
0.00015048
0.00086051
0.00058918
0.00016468
2.0055e-05
0.0047997
1.9337e-08
4.0153e-05
0.0047099
5.9685e-05
0.0045446
7.8248e-05
0.004303
9.5478e-05
0.0039886
0.00011105
0.0036064
0.00012478
0.0031625
0.00013554
0.0026715
0.00014653
0.0021011
0.00014942
0.001635
0.00015037
0.00085956
0.00057582
0.00016373
2.0056e-05
0.0047796
2.0301e-08
4.0155e-05
0.0046898
5.9688e-05
0.0045251
7.8251e-05
0.0042845
9.5482e-05
0.0039714
0.00011106
0.0035908
0.00012479
0.0031488
0.00013551
0.0026608
0.00014648
0.0020901
0.0001498
0.0016316
0.00015035
0.00085901
0.00056334
0.00016284
2.0056e-05
0.0047596
2.1266e-08
4.0156e-05
0.0046697
5.969e-05
0.0045055
7.8254e-05
0.0042659
9.5486e-05
0.0039542
0.00011106
0.0035753
0.00012481
0.003135
0.00013549
0.0026501
0.00014642
0.0020792
0.00015017
0.0016279
0.00015041
0.00085877
0.00055171
0.00016204
2.0056e-05
0.0047395
2.2233e-08
4.0157e-05
0.0046496
5.9692e-05
0.004486
7.8257e-05
0.0042473
9.5489e-05
0.0039369
0.00011106
0.0035597
0.00012482
0.0031212
0.00013547
0.0026395
0.00014635
0.0020683
0.00015052
0.0016237
0.00015054
0.00085875
0.00054091
0.00016134
2.0056e-05
0.0047194
2.3202e-08
4.0159e-05
0.0046295
5.9695e-05
0.0044665
7.8261e-05
0.0042288
9.5493e-05
0.0039197
0.00011106
0.0035441
0.00012483
0.0031075
0.00013546
0.0026288
0.00014627
0.0020575
0.00015085
0.0016191
0.00015072
0.00085888
0.00053091
0.00016072
2.0057e-05
0.0046993
2.4173e-08
4.016e-05
0.0046094
5.9697e-05
0.0044469
7.8264e-05
0.0042102
9.5497e-05
0.0039025
0.00011106
0.0035286
0.00012485
0.0030937
0.00013545
0.0026182
0.00014618
0.0020468
0.00015115
0.0016142
0.00015094
0.00085909
0.00052164
0.00016021
2.0057e-05
0.0046792
2.5146e-08
4.0161e-05
0.0045893
5.97e-05
0.0044274
7.8267e-05
0.0041916
9.5501e-05
0.0038852
0.00011106
0.003513
0.00012486
0.0030799
0.00013545
0.0026076
0.00014608
0.0020361
0.00015142
0.0016088
0.00015119
0.00085931
0.00051306
0.00015977
2.0057e-05
0.0046592
2.6121e-08
4.0163e-05
0.0045692
5.9702e-05
0.0044079
7.8271e-05
0.0041731
9.5505e-05
0.003868
0.00011107
0.0034974
0.00012487
0.0030661
0.00013545
0.0025971
0.00014599
0.0020256
0.00015166
0.0016032
0.00015147
0.0008595
0.0005051
0.00015943
2.0057e-05
0.0046391
2.7097e-08
4.0164e-05
0.0045491
5.9704e-05
0.0043883
7.8274e-05
0.0041545
9.551e-05
0.0038508
0.00011107
0.0034819
0.00012489
0.0030523
0.00013546
0.0025865
0.00014589
0.0020152
0.00015187
0.0015972
0.00015175
0.00085962
0.0004977
0.00015915
2.0057e-05
0.004619
2.8076e-08
4.0166e-05
0.004529
5.9707e-05
0.0043688
7.8277e-05
0.0041359
9.5514e-05
0.0038335
0.00011107
0.0034663
0.0001249
0.0030384
0.00013547
0.0025759
0.00014579
0.0020048
0.00015205
0.0015909
0.00015204
0.00085962
0.0004908
0.00015894
2.0058e-05
0.0045989
2.9057e-08
4.0167e-05
0.0045089
5.9709e-05
0.0043492
7.8281e-05
0.0041173
9.5518e-05
0.0038163
0.00011107
0.0034508
0.00012491
0.0030246
0.00013548
0.0025654
0.00014569
0.0019946
0.0001522
0.0015844
0.00015234
0.00085949
0.00048434
0.00015879
2.0058e-05
0.0045788
3.004e-08
4.0168e-05
0.0044888
5.9712e-05
0.0043297
7.8284e-05
0.0040988
9.5523e-05
0.0037991
0.00011107
0.0034352
0.00012493
0.0030107
0.0001355
0.0025548
0.00014559
0.0019846
0.00015234
0.0015777
0.00015262
0.00085921
0.00047827
0.00015869
2.0058e-05
0.0045587
3.1026e-08
4.017e-05
0.0044686
5.9714e-05
0.0043101
7.8288e-05
0.0040802
9.5528e-05
0.0037818
0.00011107
0.0034197
0.00012494
0.0029969
0.00013552
0.0025442
0.0001455
0.0019746
0.00015244
0.0015707
0.0001529
0.00085875
0.00047255
0.00015863
2.0058e-05
0.0045386
3.2014e-08
4.0171e-05
0.0044485
5.9717e-05
0.0042906
7.8291e-05
0.0040616
9.5533e-05
0.0037646
0.00011108
0.0034041
0.00012495
0.002983
0.00013555
0.0025336
0.00014541
0.0019647
0.00015253
0.0015636
0.00015317
0.00085811
0.00046711
0.0001586
2.0058e-05
0.0045186
3.3004e-08
4.0173e-05
0.0044284
5.9719e-05
0.004271
7.8294e-05
0.004043
9.5537e-05
0.0037473
0.00011108
0.0033886
0.00012496
0.0029691
0.00013558
0.002523
0.00014533
0.001955
0.0001526
0.0015563
0.00015342
0.0008573
0.00046193
0.0001586
2.0059e-05
0.0044985
3.3997e-08
4.0174e-05
0.0044083
5.9722e-05
0.0042515
7.8298e-05
0.0040245
9.5543e-05
0.0037301
0.00011108
0.0033731
0.00012497
0.0029552
0.00013561
0.0025123
0.00014526
0.0019453
0.00015266
0.0015489
0.00015366
0.00085629
0.00045696
0.00015862
2.0059e-05
0.0044784
3.4993e-08
4.0175e-05
0.0043882
5.9725e-05
0.0042319
7.8301e-05
0.0040059
9.5548e-05
0.0037129
0.00011108
0.0033575
0.00012498
0.0029413
0.00013564
0.0025017
0.00014519
0.0019358
0.0001527
0.0015414
0.00015388
0.00085511
0.00045219
0.00015866
2.0059e-05
0.0044583
3.5991e-08
4.0177e-05
0.0043681
5.9727e-05
0.0042124
7.8305e-05
0.0039873
9.5553e-05
0.0036956
0.00011108
0.003342
0.00012499
0.0029274
0.00013568
0.002491
0.00014513
0.0019263
0.00015273
0.0015338
0.00015409
0.00085375
0.00044757
0.00015871
2.0059e-05
0.0044382
3.6992e-08
4.0178e-05
0.0043479
5.973e-05
0.0041928
7.8308e-05
0.0039687
9.5559e-05
0.0036784
0.00011109
0.0033265
0.000125
0.0029135
0.00013572
0.0024803
0.00014508
0.001917
0.00015275
0.0015261
0.00015429
0.00085221
0.00044309
0.00015877
2.006e-05
0.0044181
3.7996e-08
4.018e-05
0.0043278
5.9732e-05
0.0041733
7.8312e-05
0.0039502
9.5564e-05
0.0036611
0.00011109
0.0033109
0.00012501
0.0028996
0.00013576
0.0024695
0.00014503
0.0019077
0.00015277
0.0015184
0.00015447
0.00085051
0.00043872
0.00015883
2.006e-05
0.004398
3.9002e-08
4.0181e-05
0.0043077
5.9735e-05
0.0041537
7.8315e-05
0.0039316
9.557e-05
0.0036438
0.00011109
0.0032954
0.00012502
0.0028857
0.00013579
0.0024588
0.000145
0.0018985
0.00015278
0.0015106
0.00015464
0.00084866
0.00043446
0.0001589
2.006e-05
0.0043779
4.0012e-08
4.0183e-05
0.0042876
5.9738e-05
0.0041342
7.8319e-05
0.003913
9.5576e-05
0.0036266
0.00011109
0.0032799
0.00012503
0.0028717
0.00013583
0.002448
0.00014497
0.0018893
0.00015279
0.0015028
0.0001548
0.00084666
0.00043028
0.00015897
2.006e-05
0.0043578
4.1025e-08
4.0184e-05
0.0042675
5.9741e-05
0.0041146
7.8322e-05
0.0038944
9.5582e-05
0.0036093
0.00011109
0.0032644
0.00012504
0.0028578
0.00013587
0.0024371
0.00014494
0.0018803
0.0001528
0.0014949
0.00015494
0.00084452
0.00042618
0.00015904
2.006e-05
0.0043377
4.2041e-08
4.0185e-05
0.0042473
5.9743e-05
0.0040951
7.8326e-05
0.0038758
9.5588e-05
0.0035921
0.0001111
0.0032489
0.00012504
0.0028438
0.00013591
0.0024262
0.00014493
0.0018713
0.00015281
0.0014871
0.00015508
0.00084225
0.00042214
0.00015912
2.0061e-05
0.0043176
4.306e-08
4.0187e-05
0.0042272
5.9746e-05
0.0040755
7.833e-05
0.0038573
9.5595e-05
0.0035748
0.0001111
0.0032334
0.00012505
0.0028299
0.00013595
0.0024153
0.00014492
0.0018623
0.00015282
0.0014792
0.00015521
0.00083986
0.00041816
0.00015918
2.0061e-05
0.0042975
4.4083e-08
4.0188e-05
0.0042071
5.9749e-05
0.0040559
7.8333e-05
0.0038387
9.5601e-05
0.0035575
0.0001111
0.0032179
0.00012506
0.0028159
0.000136
0.0024044
0.00014491
0.0018534
0.00015283
0.0014712
0.00015533
0.00083736
0.00041424
0.00015925
2.0061e-05
0.0042774
4.5109e-08
4.019e-05
0.004187
5.9752e-05
0.0040364
7.8337e-05
0.0038201
9.5608e-05
0.0035403
0.0001111
0.0032024
0.00012506
0.002802
0.00013604
0.0023934
0.00014491
0.0018445
0.00015284
0.0014633
0.00015544
0.00083476
0.00041036
0.00015932
2.0061e-05
0.0042572
4.6138e-08
4.0191e-05
0.0041668
5.9755e-05
0.0040168
7.834e-05
0.0038015
9.5615e-05
0.003523
0.00011111
0.0031869
0.00012507
0.002788
0.00013608
0.0023824
0.00014492
0.0018357
0.00015285
0.0014554
0.00015555
0.00083206
0.00040653
0.00015938
2.0062e-05
0.0042371
4.7171e-08
4.0193e-05
0.0041467
5.9758e-05
0.0039973
7.8344e-05
0.0037829
9.5622e-05
0.0035057
0.00011111
0.0031714
0.00012508
0.002774
0.00013612
0.0023714
0.00014493
0.0018268
0.00015286
0.0014474
0.00015565
0.00082927
0.00040274
0.00015944
2.0062e-05
0.004217
4.8208e-08
4.0194e-05
0.0041266
5.9761e-05
0.0039777
7.8347e-05
0.0037643
9.5629e-05
0.0034884
0.00011112
0.0031559
0.00012508
0.0027601
0.00013616
0.0023603
0.00014494
0.0018181
0.00015288
0.0014395
0.00015575
0.00082639
0.000399
0.0001595
2.0062e-05
0.0041969
4.9249e-08
4.0196e-05
0.0041064
5.9764e-05
0.0039581
7.8351e-05
0.0037457
9.5637e-05
0.0034711
0.00011112
0.0031404
0.00012509
0.0027461
0.0001362
0.0023492
0.00014496
0.0018093
0.0001529
0.0014316
0.00015585
0.00082344
0.00039529
0.00015956
2.0063e-05
0.0041768
5.0293e-08
4.0197e-05
0.0040863
5.9767e-05
0.0039386
7.8355e-05
0.0037272
9.5644e-05
0.0034539
0.00011112
0.003125
0.00012509
0.0027321
0.00013623
0.0023381
0.00014498
0.0018006
0.00015291
0.0014236
0.00015594
0.00082042
0.00039162
0.00015961
2.0063e-05
0.0041567
5.1342e-08
4.0199e-05
0.0040662
5.977e-05
0.003919
7.8358e-05
0.0037086
9.5652e-05
0.0034366
0.00011113
0.0031095
0.0001251
0.0027182
0.00013627
0.0023269
0.000145
0.0017918
0.00015294
0.0014157
0.00015603
0.00081732
0.00038798
0.00015966
2.0063e-05
0.0041366
5.2395e-08
4.02e-05
0.004046
5.9773e-05
0.0038994
7.8362e-05
0.00369
9.566e-05
0.0034193
0.00011113
0.003094
0.0001251
0.0027042
0.00013631
0.0023157
0.00014503
0.0017831
0.00015296
0.0014078
0.00015611
0.00081417
0.00038438
0.00015971
2.0063e-05
0.0041165
5.3451e-08
4.0202e-05
0.0040259
5.9776e-05
0.0038798
7.8365e-05
0.0036714
9.5668e-05
0.003402
0.00011114
0.0030785
0.00012511
0.0026902
0.00013635
0.0023044
0.00014505
0.0017744
0.00015298
0.0013998
0.0001562
0.00081096
0.00038082
0.00015976
2.0064e-05
0.0040963
5.4512e-08
4.0203e-05
0.0040057
5.9779e-05
0.0038603
7.8369e-05
0.0036528
9.5676e-05
0.0033846
0.00011115
0.0030631
0.00012511
0.0026762
0.00013639
0.0022932
0.00014508
0.0017657
0.00015301
0.0013919
0.00015628
0.00080769
0.00037729
0.00015981
2.0064e-05
0.0040762
5.5578e-08
4.0205e-05
0.0039856
5.9783e-05
0.0038407
7.8373e-05
0.0036342
9.5684e-05
0.0033673
0.00011115
0.0030476
0.00012512
0.0026623
0.00013643
0.0022819
0.00014511
0.001757
0.00015304
0.001384
0.00015636
0.00080436
0.00037379
0.00015985
2.0064e-05
0.0040561
5.6648e-08
4.0206e-05
0.0039655
5.9786e-05
0.0038211
7.8376e-05
0.0036156
9.5693e-05
0.00335
0.00011116
0.0030321
0.00012513
0.0026483
0.00013646
0.0022705
0.00014515
0.0017483
0.00015306
0.0013761
0.00015644
0.00080099
0.00037033
0.0001599
2.0065e-05
0.004036
5.7722e-08
4.0208e-05
0.0039453
5.9789e-05
0.0038015
7.838e-05
0.003597
9.5701e-05
0.0033327
0.00011117
0.0030167
0.00012513
0.0026343
0.0001365
0.0022591
0.00014518
0.0017397
0.00015309
0.0013682
0.00015651
0.00079757
0.00036691
0.00015994
2.0065e-05
0.0040159
5.8802e-08
4.021e-05
0.0039252
5.9793e-05
0.0037819
7.8384e-05
0.0035784
9.571e-05
0.0033154
0.00011117
0.0030012
0.00012514
0.0026204
0.00013654
0.0022477
0.00014521
0.001731
0.00015312
0.0013603
0.00015659
0.0007941
0.00036351
0.00015998
2.0065e-05
0.0039957
5.9886e-08
4.0211e-05
0.003905
5.9796e-05
0.0037624
7.8388e-05
0.0035598
9.5718e-05
0.003298
0.00011118
0.0029857
0.00012514
0.0026064
0.00013657
0.0022363
0.00014525
0.0017223
0.00015315
0.0013524
0.00015666
0.00079059
0.00036015
0.00016002
2.0066e-05
0.0039756
6.0975e-08
4.0213e-05
0.0038849
5.98e-05
0.0037428
7.8391e-05
0.0035412
9.5727e-05
0.0032807
0.00011119
0.0029703
0.00012515
0.0025925
0.00013661
0.0022249
0.00014528
0.0017136
0.00015318
0.0013445
0.00015673
0.00078704
0.00035682
0.00016006
2.0066e-05
0.0039555
6.2069e-08
4.0214e-05
0.0038647
5.9804e-05
0.0037232
7.8395e-05
0.0035227
9.5736e-05
0.0032634
0.0001112
0.0029548
0.00012516
0.0025785
0.00013664
0.0022134
0.00014532
0.001705
0.00015321
0.0013366
0.0001568
0.00078345
0.00035352
0.0001601
2.0066e-05
0.0039353
6.3168e-08
4.0216e-05
0.0038446
5.9807e-05
0.0037036
7.8399e-05
0.0035041
9.5745e-05
0.003246
0.00011121
0.0029393
0.00012516
0.0025646
0.00013668
0.0022019
0.00014535
0.0016963
0.00015324
0.0013287
0.00015687
0.00077983
0.00035025
0.00016014
2.0067e-05
0.0039152
6.4272e-08
4.0218e-05
0.0038244
5.9811e-05
0.003684
7.8403e-05
0.0034855
9.5753e-05
0.0032287
0.00011122
0.0029239
0.00012517
0.0025506
0.00013671
0.0021903
0.00014539
0.0016876
0.00015327
0.0013208
0.00015693
0.00077616
0.00034701
0.00016017
2.0067e-05
0.0038951
6.5382e-08
4.0219e-05
0.0038043
5.9815e-05
0.0036644
7.8407e-05
0.0034669
9.5762e-05
0.0032113
0.00011124
0.0029084
0.00012518
0.0025367
0.00013675
0.0021788
0.00014543
0.0016789
0.0001533
0.0013129
0.000157
0.00077246
0.0003438
0.00016021
2.0068e-05
0.0038749
6.6497e-08
4.0221e-05
0.0037841
5.9819e-05
0.0036448
7.8412e-05
0.0034483
9.5771e-05
0.003194
0.00011125
0.0028929
0.00012519
0.0025227
0.00013678
0.0021672
0.00014546
0.0016702
0.00015333
0.0013051
0.00015706
0.00076873
0.00034063
0.00016024
2.0068e-05
0.0038548
6.7618e-08
4.0223e-05
0.003764
5.9823e-05
0.0036252
7.8416e-05
0.0034297
9.578e-05
0.0031766
0.00011126
0.0028774
0.0001252
0.0025088
0.00013682
0.0021555
0.0001455
0.0016616
0.00015336
0.0012972
0.00015713
0.00076496
0.00033748
0.00016028
2.0068e-05
0.0038347
6.8744e-08
4.0224e-05
0.0037438
5.9827e-05
0.0036056
7.842e-05
0.0034111
9.5789e-05
0.0031592
0.00011128
0.0028619
0.00012521
0.0024949
0.00013685
0.0021439
0.00014554
0.0016529
0.00015339
0.0012894
0.00015719
0.00076116
0.00033436
0.00016031
2.0069e-05
0.0038145
6.9876e-08
4.0226e-05
0.0037237
5.9831e-05
0.003586
7.8425e-05
0.0033925
9.5798e-05
0.0031418
0.00011129
0.0028465
0.00012522
0.0024809
0.00013688
0.0021322
0.00014557
0.0016442
0.00015342
0.0012815
0.00015725
0.00075733
0.00033126
0.00016034
2.0069e-05
0.0037944
7.1014e-08
4.0228e-05
0.0037035
5.9835e-05
0.0035664
7.843e-05
0.0033739
9.5808e-05
0.0031245
0.0001113
0.002831
0.00012523
0.002467
0.00013692
0.0021206
0.00014561
0.0016355
0.00015345
0.0012737
0.00015731
0.00075347
0.0003282
0.00016037
2.007e-05
0.0037743
7.2158e-08
4.023e-05
0.0036833
5.9839e-05
0.0035468
7.8435e-05
0.0033553
9.5817e-05
0.0031071
0.00011132
0.0028155
0.00012524
0.0024531
0.00013695
0.0021089
0.00014565
0.0016268
0.00015348
0.0012659
0.00015737
0.00074958
0.00032516
0.00016041
2.007e-05
0.0037541
7.3309e-08
4.0232e-05
0.0036632
5.9843e-05
0.0035272
7.844e-05
0.0033367
9.5826e-05
0.0030897
0.00011134
0.0027999
0.00012526
0.0024392
0.00013698
0.0020971
0.00014568
0.0016181
0.00015351
0.001258
0.00015742
0.00074567
0.00032215
0.00016044
2.0071e-05
0.003734
7.4465e-08
4.0233e-05
0.003643
5.9848e-05
0.0035075
7.8445e-05
0.0033181
9.5836e-05
0.0030723
0.00011135
0.0027844
0.00012527
0.0024252
0.00013701
0.0020854
0.00014572
0.0016094
0.00015354
0.0012502
0.00015748
0.00074173
0.00031916
0.00016047
2.0071e-05
0.0037138
7.5628e-08
4.0235e-05
0.0036228
5.9852e-05
0.0034879
7.8451e-05
0.0032995
9.5845e-05
0.0030549
0.00011137
0.0027689
0.00012528
0.0024113
0.00013704
0.0020736
0.00014576
0.0016007
0.00015357
0.0012424
0.00015754
0.00073776
0.0003162
0.0001605
2.0072e-05
0.0036937
7.6797e-08
4.0237e-05
0.0036027
5.9857e-05
0.0034683
7.8456e-05
0.0032809
9.5855e-05
0.0030375
0.00011139
0.0027534
0.0001253
0.0023974
0.00013707
0.0020618
0.00014579
0.0015919
0.00015359
0.0012346
0.00015759
0.00073376
0.00031326
0.00016053
2.0072e-05
0.0036735
7.7972e-08
4.0239e-05
0.0035825
5.9861e-05
0.0034487
7.8462e-05
0.0032623
9.5865e-05
0.0030201
0.00011141
0.0027378
0.00012531
0.0023835
0.0001371
0.0020501
0.00014583
0.0015832
0.00015362
0.0012268
0.00015764
0.00072974
0.00031035
0.00016056
2.0073e-05
0.0036534
7.9154e-08
4.0241e-05
0.0035623
5.9866e-05
0.0034291
7.8468e-05
0.0032437
9.5874e-05
0.0030027
0.00011142
0.0027223
0.00012532
0.0023696
0.00013713
0.0020382
0.00014587
0.0015745
0.00015365
0.001219
0.0001577
0.0007257
0.00030746
0.00016059
2.0073e-05
0.0036332
8.0342e-08
4.0243e-05
0.0035422
5.9871e-05
0.0034094
7.8475e-05
0.0032251
9.5885e-05
0.0029853
0.00011144
0.0027067
0.00012534
0.0023557
0.00013716
0.0020264
0.0001459
0.0015657
0.00015368
0.0012112
0.00015775
0.00072163
0.00030459
0.00016061
2.0074e-05
0.0036131
8.1537e-08
4.0245e-05
0.003522
5.9876e-05
0.0033898
7.8481e-05
0.0032065
9.5895e-05
0.0029679
0.00011146
0.0026912
0.00012535
0.0023418
0.00013719
0.0020146
0.00014594
0.001557
0.00015371
0.0012035
0.0001578
0.00071754
0.00030174
0.00016064
2.0074e-05
0.0035929
8.2738e-08
4.0248e-05
0.0035018
5.9881e-05
0.0033702
7.8488e-05
0.0031879
9.5905e-05
0.0029505
0.00011148
0.0026756
0.00012537
0.0023279
0.00013722
0.0020027
0.00014597
0.0015482
0.00015374
0.0011957
0.00015785
0.00071343
0.00029892
0.00016067
2.0075e-05
0.0035727
8.3946e-08
4.025e-05
0.0034817
5.9886e-05
0.0033505
7.8495e-05
0.0031693
9.5916e-05
0.0029331
0.0001115
0.00266
0.00012538
0.0023141
0.00013725
0.0019909
0.00014601
0.0015395
0.00015376
0.001188
0.0001579
0.0007093
0.00029612
0.0001607
2.0076e-05
0.0035526
8.516e-08
4.0252e-05
0.0034615
5.9891e-05
0.0033309
7.8503e-05
0.0031507
9.5926e-05
0.0029156
0.00011152
0.0026444
0.0001254
0.0023002
0.00013728
0.001979
0.00014604
0.0015307
0.00015379
0.0011802
0.00015794
0.00070514
0.00029334
0.00016073
2.0076e-05
0.0035324
8.6381e-08
4.0255e-05
0.0034413
5.9896e-05
0.0033113
7.851e-05
0.0031321
9.5937e-05
0.0028982
0.00011154
0.0026288
0.00012542
0.0022863
0.00013731
0.0019671
0.00014608
0.0015219
0.00015382
0.0011725
0.00015799
0.00070097
0.00029058
0.00016075
2.0077e-05
0.0035123
8.7608e-08
4.0257e-05
0.0034211
5.9902e-05
0.0032916
7.8518e-05
0.0031135
9.5949e-05
0.0028808
0.00011156
0.0026132
0.00012543
0.0022724
0.00013733
0.0019552
0.00014611
0.0015132
0.00015385
0.0011647
0.00015804
0.00069678
0.00028783
0.00016078
2.0078e-05
0.0034921
8.8841e-08
4.026e-05
0.0034009
5.9907e-05
0.003272
7.8527e-05
0.0030948
9.596e-05
0.0028633
0.00011158
0.0025976
0.00012545
0.0022586
0.00013736
0.0019433
0.00014615
0.0015044
0.00015388
0.001157
0.00015809
0.00069257
0.00028511
0.00016081
2.0079e-05
0.0034719
9.008e-08
4.0262e-05
0.0033808
5.9913e-05
0.0032523
7.8535e-05
0.0030762
9.5971e-05
0.0028459
0.0001116
0.0025819
0.00012547
0.0022447
0.00013739
0.0019314
0.00014619
0.0014956
0.0001539
0.0011493
0.00015813
0.00068835
0.00028241
0.00016083
2.008e-05
0.0034517
9.1326e-08
4.0265e-05
0.0033606
5.9918e-05
0.0032327
7.8544e-05
0.0030576
9.5983e-05
0.0028285
0.00011162
0.0025663
0.00012548
0.0022308
0.00013741
0.0019194
0.00014622
0.0014868
0.00015393
0.0011416
0.00015818
0.0006841
0.00027973
0.00016086
2.008e-05
0.0034316
9.2576e-08
4.0268e-05
0.0033404
5.9924e-05
0.003213
7.8553e-05
0.003039
9.5995e-05
0.002811
0.00011164
0.0025507
0.0001255
0.002217
0.00013744
0.0019075
0.00014626
0.001478
0.00015396
0.0011339
0.00015822
0.00067984
0.00027706
0.00016089
2.0081e-05
0.0034114
9.3832e-08
4.0271e-05
0.0033202
5.993e-05
0.0031933
7.8562e-05
0.0030203
9.6006e-05
0.0027936
0.00011166
0.002535
0.00012551
0.0022031
0.00013747
0.0018955
0.00014629
0.0014691
0.00015399
0.0011262
0.00015826
0.00067556
0.00027441
0.00016091
2.0082e-05
0.0033912
9.5094e-08
4.0274e-05
0.0033
5.9936e-05
0.0031737
7.8571e-05
0.0030017
9.6019e-05
0.0027761
0.00011168
0.0025193
0.00012553
0.0021893
0.00013749
0.0018836
0.00014633
0.0014603
0.00015402
0.0011185
0.00015831
0.00067127
0.00027178
0.00016094
2.0083e-05
0.003371
9.636e-08
4.0277e-05
0.0032798
5.9942e-05
0.003154
7.8581e-05
0.0029831
9.6031e-05
0.0027587
0.0001117
0.0025037
0.00012555
0.0021754
0.00013752
0.0018716
0.00014636
0.0014514
0.00015404
0.0011108
0.00015835
0.00066697
0.00026917
0.00016096
2.0084e-05
0.0033509
9.763e-08
4.028e-05
0.0032596
5.9949e-05
0.0031344
7.8591e-05
0.0029644
9.6043e-05
0.0027412
0.00011172
0.002488
0.00012556
0.0021616
0.00013754
0.0018596
0.0001464
0.0014426
0.00015407
0.0011031
0.00015839
0.00066264
0.00026657
0.00016099
2.0085e-05
0.0033307
9.8905e-08
4.0283e-05
0.0032394
5.9955e-05
0.0031147
7.8601e-05
0.0029458
9.6055e-05
0.0027238
0.00011174
0.0024723
0.00012558
0.0021477
0.00013757
0.0018476
0.00014643
0.0014337
0.0001541
0.0010955
0.00015843
0.00065831
0.00026399
0.00016102
2.0086e-05
0.0033105
1.0018e-07
4.0287e-05
0.0032192
5.9962e-05
0.003095
7.8611e-05
0.0029271
9.6068e-05
0.0027063
0.00011176
0.0024566
0.0001256
0.0021339
0.00013759
0.0018357
0.00014647
0.0014248
0.00015413
0.0010878
0.00015848
0.00065396
0.00026142
0.00016104
2.0087e-05
0.0032903
1.0146e-07
4.029e-05
0.003199
5.9968e-05
0.0030753
7.8622e-05
0.0029085
9.608e-05
0.0026889
0.00011178
0.0024409
0.00012561
0.0021201
0.00013761
0.0018237
0.0001465
0.001416
0.00015416
0.0010801
0.00015852
0.0006496
0.00025887
0.00016107
2.0089e-05
0.0032701
1.0275e-07
4.0294e-05
0.0031788
5.9975e-05
0.0030556
7.8632e-05
0.0028898
9.6093e-05
0.0026714
0.0001118
0.0024252
0.00012563
0.0021062
0.00013764
0.0018116
0.00014654
0.0014071
0.00015418
0.0010725
0.00015856
0.00064523
0.00025633
0.00016109
2.009e-05
0.0032499
1.0404e-07
4.0298e-05
0.0031586
5.9982e-05
0.003036
7.8643e-05
0.0028711
9.6105e-05
0.0026539
0.00011182
0.0024095
0.00012565
0.0020924
0.00013766
0.0017996
0.00014657
0.0013982
0.00015421
0.0010649
0.0001586
0.00064084
0.00025381
0.00016112
2.0091e-05
0.0032297
1.0532e-07
4.0302e-05
0.0031384
5.9989e-05
0.0030163
7.8654e-05
0.0028525
9.6117e-05
0.0026365
0.00011184
0.0023938
0.00012566
0.0020786
0.00013769
0.0017876
0.00014661
0.0013892
0.00015424
0.0010572
0.00015864
0.00063645
0.00025131
0.00016114
2.0092e-05
0.0032095
1.0661e-07
4.0306e-05
0.0031182
5.9996e-05
0.0029966
7.8665e-05
0.0028338
9.613e-05
0.002619
0.00011186
0.002378
0.00012568
0.0020648
0.00013771
0.0017756
0.00014664
0.0013803
0.00015427
0.0010496
0.00015868
0.00063204
0.00024881
0.00016117
2.0094e-05
0.0031893
1.079e-07
4.031e-05
0.003098
6.0003e-05
0.0029769
7.8676e-05
0.0028151
9.6142e-05
0.0026015
0.00011188
0.0023623
0.00012569
0.002051
0.00013773
0.0017635
0.00014668
0.0013713
0.0001543
0.001042
0.00015872
0.00062762
0.00024633
0.0001612
2.0095e-05
0.0031691
1.092e-07
4.0314e-05
0.0030777
6.001e-05
0.0029572
7.8687e-05
0.0027965
9.6155e-05
0.0025841
0.0001119
0.0023466
0.00012571
0.0020371
0.00013776
0.0017515
0.00014672
0.0013624
0.00015433
0.0010344
0.00015876
0.00062319
0.00024387
0.00016122
2.0096e-05
0.0031489
1.1049e-07
4.0318e-05
0.0030575
6.0017e-05
0.0029375
7.8698e-05
0.0027778
9.6167e-05
0.0025666
0.00011192
0.0023308
0.00012573
0.0020233
0.00013778
0.0017394
0.00014675
0.0013534
0.00015436
0.0010268
0.00015879
0.00061876
0.00024142
0.00016125
2.0098e-05
0.0031287
1.1178e-07
4.0322e-05
0.0030373
6.0025e-05
0.0029178
7.8709e-05
0.0027591
9.6179e-05
0.0025491
0.00011194
0.0023151
0.00012574
0.0020095
0.00013781
0.0017274
0.00014679
0.0013444
0.00015439
0.0010192
0.00015883
0.00061431
0.00023898
0.00016127
2.0099e-05
0.0031085
1.1307e-07
4.0326e-05
0.0030171
6.0032e-05
0.0028981
7.872e-05
0.0027404
9.6191e-05
0.0025317
0.00011195
0.0022993
0.00012576
0.0019957
0.00013783
0.0017153
0.00014682
0.0013354
0.00015442
0.0010116
0.00015887
0.00060986
0.00023655
0.0001613
2.0101e-05
0.0030883
1.1435e-07
4.0331e-05
0.0029968
6.0039e-05
0.0028784
7.8731e-05
0.0027217
9.6203e-05
0.0025142
0.00011197
0.0022835
0.00012578
0.0019819
0.00013785
0.0017032
0.00014686
0.0013264
0.00015444
0.001004
0.00015891
0.00060539
0.00023413
0.00016132
2.0102e-05
0.0030681
1.1564e-07
4.0335e-05
0.0029766
6.0047e-05
0.0028587
7.8742e-05
0.002703
9.6216e-05
0.0024967
0.00011199
0.0022677
0.0001258
0.0019681
0.00013788
0.0016911
0.00014689
0.0013174
0.00015447
0.00099641
0.00015895
0.00060092
0.00023173
0.00016135
2.0104e-05
0.0030478
1.1693e-07
4.034e-05
0.0029564
6.0054e-05
0.0028389
7.8753e-05
0.0026843
9.6227e-05
0.0024792
0.00011201
0.002252
0.00012581
0.0019543
0.0001379
0.0016791
0.00014693
0.0013084
0.0001545
0.00098883
0.00015898
0.00059644
0.00022934
0.00016138
2.0105e-05
0.0030276
1.1821e-07
4.0344e-05
0.0029361
6.0061e-05
0.0028192
7.8764e-05
0.0026656
9.6239e-05
0.0024618
0.00011203
0.0022362
0.00012583
0.0019405
0.00013792
0.001667
0.00014697
0.0012993
0.00015453
0.00098127
0.00015902
0.00059195
0.00022696
0.0001614
2.0107e-05
0.0030074
1.1949e-07
4.0349e-05
0.0029159
6.0069e-05
0.0027995
7.8775e-05
0.0026469
9.6251e-05
0.0024443
0.00011205
0.0022204
0.00012585
0.0019267
0.00013795
0.0016549
0.000147
0.0012903
0.00015456
0.0009737
0.00015906
0.00058746
0.00022459
0.00016143
2.0108e-05
0.0029872
1.2077e-07
4.0353e-05
0.0028956
6.0076e-05
0.0027798
7.8786e-05
0.0026282
9.6263e-05
0.0024268
0.00011207
0.0022046
0.00012587
0.0019129
0.00013797
0.0016428
0.00014704
0.0012812
0.00015459
0.00096615
0.0001591
0.00058296
0.00022223
0.00016145
2.011e-05
0.0029669
1.2204e-07
4.0358e-05
0.0028754
6.0083e-05
0.0027601
7.8797e-05
0.0026095
9.6275e-05
0.0024093
0.00011208
0.0021888
0.00012588
0.0018991
0.00013799