/*--------------------------------*- C++ -*----------------------------------*\
  =========                 |
  \\      /  F ield         | OpenFOAM: The Open Source CFD Toolbox
   \\    /   O peration     | Website:  https://openfoam.org
    \\  /    A nd           | Version:  6.0
     \\/     M anipulation  |
\*---------------------------------------------------------------------------*/
FoamFile
{
    version     2.0;
    format      ascii;
    class       volScalarField;
    location    "5";
    object      p;
}
// * * * * * * * * * * * * * * * * * * * * * * * * * * * * * * * * * * * * * //

dimensions      [0 2 -2 0 0 0 0];

internalField   nonuniform List<scalar> 
62000
(
0.0573987
0.0559291
0.0545013
0.0531521
0.0518384
0.0506063
0.0494088
0.0482915
0.0472066
0.0462034
0.0452303
0.0443365
0.0434664
0.0426729
0.0418953
0.0411858
0.0404817
0.0398317
0.0391741
0.0385525
0.0379076
0.0372789
0.0366086
0.0359343
0.0351989
0.0344417
0.033607
0.0327362
0.0317806
0.0307847
0.0297071
0.0285848
0.0273988
0.0262205
0.0251042
0.024109
0.0233128
0.022851
0.0229
0.0236769
0.0254231
0.0284277
0.0330612
0.0397692
0.0490156
0.0611968
0.0765779
0.0950034
0.11591
0.137757
0.158706
0.175684
0.186726
0.189432
0.183092
0.169978
0.150492
0.129959
0.109724
0.100136
0.0499246
0.0484301
0.0470083
0.0456902
0.0444362
0.04329
0.0422078
0.0412297
0.0403106
0.039493
0.038729
0.0380605
0.0374367
0.0368998
0.0363961
0.0359662
0.0355545
0.0351973
0.0348391
0.0345119
0.0341629
0.0338191
0.0334318
0.0330236
0.0325509
0.0320324
0.0314343
0.0307701
0.0300216
0.0292038
0.028318
0.02737
0.0263633
0.0253275
0.0243172
0.0234017
0.022679
0.0222833
0.0223868
0.0231973
0.0249491
0.0279212
0.0324814
0.0390788
0.0481986
0.0602861
0.0756962
0.0944173
0.11608
0.139355
0.16259
0.18279
0.197925
0.20526
0.203551
0.194458
0.17776
0.158655
0.139017
0.127285
0.0428572
0.0416067
0.0403746
0.0391953
0.0380356
0.0369386
0.0358713
0.0348754
0.0339149
0.0330364
0.0321978
0.0314487
0.0307397
0.0301266
0.0295526
0.0290745
0.0286315
0.0282761
0.0279464
0.0276861
0.027436
0.0272293
0.0270121
0.0268077
0.0265697
0.0263132
0.0260044
0.0256504
0.0252374
0.0247744
0.0242739
0.0237341
0.0231462
0.0225173
0.0218827
0.0213204
0.0209309
0.0208418
0.0212039
0.0222011
0.0240339
0.0269438
0.0312585
0.0373866
0.0457796
0.0568626
0.0710067
0.0882604
0.108385
0.130227
0.152338
0.171945
0.187122
0.195164
0.194726
0.187025
0.17163
0.153172
0.13396
0.11846
0.0383375
0.0373237
0.036299
0.0352956
0.0342798
0.0332906
0.0322961
0.0313333
0.0303711
0.029451
0.0285404
0.0276832
0.0268443
0.0260717
0.0253269
0.0246599
0.0240288
0.0234816
0.0229738
0.0225488
0.0221604
0.021845
0.021556
0.0213208
0.0210961
0.0208991
0.0206967
0.0204962
0.020284
0.0200702
0.019869
0.019676
0.0194666
0.0192253
0.0189765
0.0187921
0.0187688
0.0190182
0.0196669
0.020865
0.0227719
0.0255801
0.0295652
0.0350822
0.0425308
0.0522952
0.0647329
0.0799239
0.0977219
0.117137
0.136923
0.154562
0.168366
0.175732
0.175351
0.168074
0.153503
0.135674
0.116858
0.0994882
0.0352983
0.0344581
0.0335938
0.0327372
0.0318522
0.0309776
0.0300785
0.029193
0.0282846
0.027398
0.0264921
0.0256173
0.0247281
0.0238842
0.0230357
0.0222472
0.0214676
0.0207611
0.0200777
0.0194751
0.0189065
0.0184198
0.0179717
0.0175987
0.0172622
0.0169865
0.0167428
0.0165425
0.0163762
0.0162564
0.0162011
0.0162027
0.016227
0.0162439
0.0162659
0.0163583
0.0166078
0.01711
0.0179672
0.0192981
0.0212226
0.0238885
0.0275224
0.0324293
0.0389582
0.0474488
0.0582368
0.071412
0.0868985
0.10383
0.121144
0.136558
0.148591
0.154807
0.15398
0.146805
0.132793
0.115668
0.0971706
0.0795804
0.032564
0.0318494
0.0311126
0.0303829
0.0296236
0.0288707
0.0280882
0.02731
0.0265004
0.0256982
0.0248655
0.0240449
0.0231965
0.0223692
0.0215213
0.0207067
0.019883
0.0191061
0.0183346
0.0176228
0.0169318
0.0163114
0.0157251
0.0152145
0.0147475
0.0143545
0.0140126
0.0137391
0.0135292
0.0134014
0.0133768
0.0134495
0.0135785
0.0137246
0.0138947
0.0141456
0.0145555
0.0152046
0.0161748
0.0175562
0.0194358
0.0219243
0.0252068
0.0295458
0.0352458
0.042606
0.0519348
0.0633239
0.0767392
0.0914181
0.106446
0.119746
0.130074
0.135115
0.13373
0.126483
0.112916
0.0964166
0.0780845
0.06123
0.0303613
0.0297342
0.0290828
0.0284369
0.0277603
0.0270882
0.0263859
0.0256865
0.0249537
0.0242254
0.0234613
0.0227034
0.0219078
0.0211251
0.0203078
0.0195121
0.0186907
0.0179024
0.0171019
0.0163461
0.0155947
0.0149
0.0142267
0.0136199
0.013051
0.0125548
0.0121137
0.0117493
0.011463
0.0112773
0.0112191
0.0112827
0.0114264
0.0116078
0.0118273
0.0121388
0.0126118
0.0133136
0.0143098
0.0156672
0.0174463
0.0197297
0.0226696
0.0264933
0.0314675
0.037854
0.045935
0.0557932
0.0674258
0.0801417
0.0931534
0.104556
0.113271
0.11713
0.115089
0.107708
0.0944039
0.0784327
0.0600975
0.0443006
0.0283158
0.0277548
0.0271719
0.0265957
0.02599
0.0253886
0.0247571
0.0241261
0.0234616
0.0227974
0.0220979
0.0213994
0.0206638
0.0199328
0.0191663
0.0184105
0.0176243
0.0168573
0.0160691
0.0153099
0.0145432
0.0138178
0.0131011
0.0124381
0.0118027
0.0112316
0.0107102
0.0102638
0.00989703
0.00963731
0.00951468
0.0095267
0.00963134
0.00978277
0.00998349
0.010282
0.0107431
0.0114244
0.0123784
0.0136527
0.0152878
0.0173448
0.0199504
0.0233024
0.0276352
0.0331786
0.0401874
0.0487344
0.0588306
0.0698482
0.0810954
0.0908179
0.09812
0.100916
0.0982547
0.090648
0.0775336
0.061911
0.0434423
0.0287585
0.0267035
0.0261888
0.0256491
0.0251142
0.0245479
0.0239852
0.0233916
0.0228001
0.022174
0.0215509
0.02089
0.0202322
0.019533
0.0188406
0.0181068
0.0173841
0.0166242
0.0158818
0.0151105
0.0143631
0.0135988
0.0128672
0.0121334
0.0114424
0.0107679
0.0101471
0.00956679
0.0090536
0.00861495
0.00828033
0.00808342
0.00802295
0.0080571
0.00814309
0.0082787
0.0085143
0.00890985
0.00951587
0.0103753
0.0115212
0.0129784
0.0147936
0.0170736
0.0199916
0.0237545
0.0285628
0.0346466
0.0420638
0.0508372
0.0603799
0.0700879
0.0783233
0.0843062
0.0860612
0.0827327
0.0748669
0.0617772
0.0463696
0.0276326
0.0138955
0.0250322
0.0245545
0.0240551
0.0235623
0.0230399
0.0225217
0.0219732
0.0214253
0.0208434
0.020262
0.0196441
0.0190268
0.0183703
0.0177167
0.0170236
0.0163368
0.0156128
0.0148999
0.0141553
0.0134269
0.012676
0.0119491
0.011212
0.010508
0.00981079
0.00915702
0.00853354
0.00796744
0.00746667
0.0070627
0.0067902
0.00664969
0.00660075
0.00659649
0.0066411
0.00678076
0.00707449
0.0075678
0.0082965
0.00928209
0.0105378
0.0120993
0.014058
0.0165656
0.0198048
0.023951
0.0292096
0.0356256
0.0432225
0.051455
0.0597816
0.0666731
0.0714795
0.072283
0.0683177
0.0601127
0.0469937
0.0316352
0.0125584
-0.000406783
0.0236665
0.0232096
0.02273
0.0222565
0.0217536
0.0212553
0.0207277
0.0202024
0.0196442
0.0190882
0.0184955
0.0179043
0.0172721
0.0166438
0.0159734
0.0153094
0.0146056
0.0139125
0.0131849
0.0124715
0.0117319
0.0110117
0.0102755
0.00956547
0.00885421
0.00817716
0.00752078
0.00691136
0.00635719
0.00588952
0.00554418
0.00532199
0.00518088
0.00507958
0.00501553
0.00503955
0.00520787
0.00556248
0.00613424
0.00693621
0.00797267
0.00927217
0.0109137
0.0130298
0.0157824
0.0193235
0.0238367
0.0293516
0.0358954
0.0429482
0.0500317
0.0556947
0.0593628
0.0592053
0.0545539
0.0459758
0.0326846
0.0172667
-0.0022469
-0.0146747
0.0222837
0.0218433
0.0213828
0.0209298
0.0204486
0.019972
0.0194667
0.018962
0.0184252
0.0178883
0.0173167
0.0167447
0.016135
0.0155266
0.0148794
0.0142358
0.0135542
0.0128797
0.0121706
0.011471
0.0107429
0.0100291
0.00929488
0.00858048
0.00785829
0.00716221
0.00647807
0.00583103
0.00522859
0.00470194
0.00428642
0.00398281
0.00375081
0.00354229
0.00336322
0.00325928
0.00328746
0.00348726
0.00388571
0.00448915
0.00529472
0.00632519
0.00764911
0.00938145
0.0116655
0.0146325
0.018445
0.0231204
0.0286816
0.0346394
0.0405574
0.0450642
0.0476811
0.0466156
0.0412933
0.0322662
0.0187695
0.00316396
-0.0168189
-0.0288814
0.0212175
0.0207814
0.0203221
0.0198687
0.0193854
0.0189066
0.0183984
0.0178931
0.017355
0.0168201
0.016249
0.0156806
0.0150717
0.0144679
0.0138223
0.0131834
0.0125043
0.0118347
0.011129
0.0104338
0.0097082
0.00899547
0.00825911
0.0075384
0.00680455
0.00609001
0.00537965
0.00469717
0.00404938
0.00346618
0.00298259
0.00259902
0.0022716
0.00195921
0.00165818
0.0014199
0.0012989
0.00133272
0.0015457
0.00193936
0.00250512
0.00326152
0.00426795
0.00562339
0.00745442
0.00987314
0.0130232
0.0169089
0.0215539
0.026487
0.0313193
0.0347333
0.0362971
0.0342918
0.0282447
0.018735
0.00491117
-0.0109618
-0.0314907
-0.0433816
0.0199909
0.0195588
0.0191065
0.0186614
0.0181878
0.017719
0.0172212
0.0167247
0.0161958
0.015668
0.0151053
0.0145436
0.013944
0.0133469
0.0127105
0.0120785
0.0114076
0.0107435
0.010043
0.00934981
0.00862466
0.00790908
0.00716681
0.00643608
0.00568755
0.00495237
0.00421454
0.0034963
0.00280322
0.00216426
0.00161327
0.00114942
0.000730978
0.000307393
-0.000115173
-0.000492082
-0.000767666
-0.000906053
-0.000885342
-0.000708088
-0.000387986
8.93187e-05
0.000774683
0.00175196
0.00313225
0.00501079
0.00751322
0.0106336
0.0143902
0.018337
0.022114
0.0244652
0.0250272
0.0221109
0.015341
0.00528289
-0.00888841
-0.0251229
-0.0462104
-0.0580599
0.0189774
0.0185379
0.0180773
0.0176239
0.0171422
0.0166659
0.0161616
0.0156604
0.0151276
0.0145975
0.0140321
0.0134684
0.012865
0.0122651
0.0116237
0.0109869
0.0103096
0.0096395
0.00893202
0.0082317
0.00749843
0.00677326
0.00601931
0.00527379
0.00450661
0.00374754
0.00297969
0.0022238
0.00148442
0.000788912
0.000170076
-0.000373458
-0.000888401
-0.00141711
-0.00196556
-0.002483
-0.00291664
-0.00323227
-0.00340983
-0.00345485
-0.00338553
-0.00319125
-0.00282929
-0.00222984
-0.00129572
5.21814e-05
0.00192372
0.00430265
0.0072072
0.0102058
0.0129758
0.0142979
0.0138368
0.00996898
0.00242387
-0.00821382
-0.0228378
-0.0394945
-0.0612113
-0.0731652
0.0178874
0.0174417
0.0169774
0.0165215
0.0160384
0.0155606
0.0150549
0.0145505
0.0140149
0.01348
0.0129112
0.0123424
0.0117365
0.011132
0.0104885
0.00984763
0.00916761
0.00849221
0.00777919
0.00707045
0.00632724
0.00558914
0.0048197
0.00405512
0.00326513
0.00247823
0.00167696
0.000880529
9.238e-05
-0.000661451
-0.00134946
-0.00197492
-0.00258183
-0.0032239
-0.00389622
-0.00455623
-0.00515025
-0.00564568
-0.00602454
-0.00629519
-0.0064803
-0.00657356
-0.00654033
-0.00632435
-0.00584158
-0.00502698
-0.00378577
-0.0021421
-8.34768e-05
0.00198156
0.00374937
0.00405027
0.00259896
-0.0022027
-0.0105265
-0.0218019
-0.0368896
-0.0540416
-0.0763928
-0.0885439
0.0170836
0.0166203
0.0161356
0.0156578
0.0151512
0.01465
0.0141207
0.0135949
0.0130375
0.0124836
0.0118946
0.0113081
0.0106821
0.0100604
0.00939708
0.0087384
0.0080388
0.00734552
0.00661366
0.00588671
0.00512441
0.00436639
0.00357518
0.00278633
0.00196874
0.00114977
0.000311142
-0.000529283
-0.00136908
-0.0021838
-0.00294327
-0.00365122
-0.0043575
-0.00510646
-0.00590727
-0.00671095
-0.00746738
-0.00814577
-0.00872988
-0.00923021
-0.00967371
-0.0100584
-0.0103577
-0.010528
-0.0104972
-0.0102139
-0.00959653
-0.00867698
-0.00744254
-0.0062896
-0.00549166
-0.00619206
-0.00866314
-0.0144405
-0.0235921
-0.0355352
-0.0511808
-0.0688794
-0.091935
-0.104393
0.0160985
0.0156216
0.0151258
0.0146381
0.0141227
0.0136127
0.0130746
0.0125382
0.0119706
0.0114043
0.010804
0.0102046
0.00956773
0.00893299
0.00825854
0.00758672
0.00687457
0.00616637
0.00541869
0.00467326
0.00389058
0.00310948
0.00229253
0.00147479
0.000624844
-0.000230899
-0.00111124
-0.0019997
-0.00289484
-0.00377364
-0.00460719
-0.00540144
-0.00620293
-0.00706875
-0.00799612
-0.00894554
-0.00986619
-0.0107293
-0.0115206
-0.0122532
-0.0129582
-0.0136389
-0.0142769
-0.014841
-0.0152703
-0.0155253
-0.0155377
-0.0153445
-0.0149386
-0.0146949
-0.0148758
-0.0165817
-0.0200497
-0.0267934
-0.0367815
-0.0494416
-0.0656533
-0.083956
-0.107717
-0.120551
0.0153035
0.0148034
0.0142838
0.0137723
0.0132334
0.0127004
0.0121404
0.0115837
0.0109962
0.0104114
0.00979181
0.0091735
0.00851552
0.00786008
0.00716246
0.00646715
0.00572964
0.0049959
0.00422161
0.00344893
0.00263805
0.00182728
0.00097888
0.000127089
-0.000759963
-0.00165699
-0.00258339
-0.00352392
-0.00447812
-0.00542442
-0.00633542
-0.00721733
-0.00812314
-0.00909941
-0.010159
-0.0112557
-0.0123428
-0.0133936
-0.014396
-0.0153645
-0.016335
-0.0173159
-0.0182973
-0.0192593
-0.0201517
-0.0209467
-0.021587
-0.0221152
-0.0225236
-0.0231764
-0.0243111
-0.0270108
-0.031508
-0.0392582
-0.0501268
-0.0635329
-0.0803964
-0.09935
-0.123889
-0.137183
0.0144237
0.0139048
0.0133688
0.0128418
0.0122882
0.0117401
0.0111648
0.0105906
0.00998576
0.00938121
0.00874287
0.00810401
0.0074274
0.00675111
0.00603439
0.00531793
0.00455977
0.00380291
0.0030045
0.00220485
0.00136496
0.000522276
-0.000360769
-0.00125047
-0.00217882
-0.0031215
-0.0040982
-0.00509501
-0.00611227
-0.00712988
-0.00812158
-0.00909599
-0.0101021
-0.0112006
-0.0123909
-0.0136375
-0.0148933
-0.0161338
-0.0173491
-0.0185562
-0.0197956
-0.0210815
-0.0224128
-0.0237808
-0.0251452
-0.0264887
-0.0277657
-0.0290213
-0.0302535
-0.031806
-0.0339124
-0.0376162
-0.043126
-0.0518773
-0.0636368
-0.0778329
-0.0953536
-0.115006
-0.140321
-0.154128
0.0138355
0.0132862
0.0127168
0.0121549
0.0115647
0.0109801
0.0103678
0.00975887
0.00911866
0.00848138
0.00780884
0.00713785
0.00642661
0.005718
0.00496631
0.00421628
0.00342255
0.00263118
0.00179705
0.000961731
8.5034e-05
-0.000795604
-0.00171861
-0.0026508
-0.00362481
-0.00461728
-0.00564848
-0.00670557
-0.00778984
-0.00888246
-0.00995877
-0.0110274
-0.0121444
-0.0133585
-0.0146864
-0.0160851
-0.0175123
-0.018946
-0.0203783
-0.0218281
-0.0233406
-0.0249363
-0.0266225
-0.0284013
-0.0302419
-0.0321375
-0.0340515
-0.0360327
-0.0380792
-0.040524
-0.0435807
-0.0482803
-0.0548366
-0.0646261
-0.0773164
-0.0923317
-0.110589
-0.130987
-0.15715
-0.171537
0.0130613
0.012488
0.0118971
0.0113144
0.0107041
0.010099
0.00946586
0.00883394
0.00817073
0.00750815
0.00681117
0.00611403
0.00537823
0.00464296
0.00386584
0.00308844
0.00226724
0.00144603
0.000580468
-0.000289082
-0.00120252
-0.00212282
-0.00308859
-0.00406686
-0.00509053
-0.00613704
-0.0072269
-0.00834855
-0.00950388
-0.0106756
-0.0118401
-0.0130085
-0.0142322
-0.0155751
-0.0170394
-0.0185935
-0.0201947
-0.0218238
-0.0234754
-0.0251706
-0.0269599
-0.0288703
-0.0309182
-0.0331156
-0.0354416
-0.037898
-0.0404594
-0.0431741
-0.0460473
-0.0493908
-0.0534224
-0.0591327
-0.0667226
-0.077551
-0.0911859
-0.107058
-0.126058
-0.14724
-0.174245
-0.189255
0.0124662
0.0118602
0.0112357
0.0106196
0.00997617
0.0093384
0.00867344
0.00801128
0.00731797
0.00662643
0.00589925
0.00517193
0.00440347
0.00363551
0.00282296
0.00200929
0.00114965
0.000289232
-0.000616945
-0.00152835
-0.00248503
-0.00345052
-0.00446372
-0.00549235
-0.00656971
-0.00767419
-0.00882677
-0.0100169
-0.0112473
-0.012502
-0.0137588
-0.0150287
-0.0163708
-0.0178354
-0.0194436
-0.0211557
-0.0229342
-0.0247626
-0.0266377
-0.0285829
-0.0306536
-0.0328839
-0.0352986
-0.0379206
-0.0407365
-0.0437592
-0.0469685
-0.0504185
-0.0541107
-0.058352
-0.0633351
-0.0700542
-0.0787123
-0.0906133
-0.105228
-0.121987
-0.141803
-0.163812
-0.191733
-0.207419
0.0117851
0.0111526
0.0105041
0.00986452
0.00919821
0.00853691
0.00784788
0.00715924
0.00643919
0.00571833
0.00496251
0.00420461
0.00340699
0.00260756
0.00176464
0.000918447
2.6032e-05
-0.000869782
-0.00181313
-0.00276487
-0.00376464
-0.00477654
-0.0058395
-0.00692156
-0.00805614
-0.00922248
-0.0104417
-0.0117043
-0.0130138
-0.0143554
-0.015708
-0.0170854
-0.0185409
-0.0201417
-0.0218924
-0.023766
-0.0257246
-0.0277545
-0.0298556
-0.0320538
-0.0344101
-0.036965
-0.0397536
-0.0428072
-0.046123
-0.0497197
-0.0535897
-0.0577823
-0.06231
-0.0674549
-0.0734238
-0.0811653
-0.0908848
-0.103863
-0.119473
-0.137152
-0.157787
-0.180659
-0.209484
-0.225883
0.0114095
0.0107384
0.010048
0.00936504
0.00865371
0.00794739
0.00721296
0.00648098
0.00571703
0.00495468
0.00415579
0.00335651
0.00251492
0.0016733
0.000785397
-0.000105097
-0.00104403
-0.00198609
-0.00297724
-0.00397751
-0.00502743
-0.00609127
-0.00720871
-0.00834827
-0.00954396
-0.0107758
-0.0120655
-0.0134044
-0.0147968
-0.016229
-0.0176815
-0.0191675
-0.020749
-0.0224775
-0.024379
-0.0264168
-0.0285588
-0.0307943
-0.033126
-0.035582
-0.038229
-0.0411144
-0.0442824
-0.0477742
-0.0515955
-0.0557731
-0.0603048
-0.0652447
-0.0706022
-0.0766549
-0.0835834
-0.0923518
-0.103167
-0.117252
-0.13389
-0.152518
-0.174043
-0.197818
-0.22762
-0.244776
0.0108602
0.0101588
0.00944029
0.00872972
0.00799108
0.00725671
0.00649358
0.00573047
0.00493507
0.00413878
0.0033065
0.002472
0.00159634
0.000718416
-0.0002051
-0.00113331
-0.00211077
-0.00309396
-0.00412857
-0.00517544
-0.00627521
-0.00739223
-0.00856659
-0.00976682
-0.0110272
-0.0123285
-0.0136923
-0.0151115
-0.0165904
-0.0181171
-0.0196725
-0.0212732
-0.0229741
-0.0248463
-0.0268961
-0.0291014
-0.0314296
-0.0338731
-0.0364384
-0.0391553
-0.0420976
-0.0453181
-0.0488734
-0.0528098
-0.0571475
-0.0619126
-0.0671211
-0.0728148
-0.0790225
-0.0859881
-0.0939248
-0.103719
-0.115632
-0.130837
-0.148521
-0.168127
-0.190545
-0.215249
-0.246013
-0.263957
0.0105041
0.0097641
0.00900607
0.00825602
0.0074779
0.00670448
0.00590278
0.00510249
0.00426957
0.00343659
0.00256583
0.00169243
0.000774889
-0.000145429
-0.00111455
-0.00208978
-0.00311686
-0.00415097
-0.00523836
-0.00633979
-0.00749594
-0.00867172
-0.00990755
-0.0111725
-0.0125013
-0.0138755
-0.0153172
-0.0168199
-0.0183889
-0.020013
-0.0216753
-0.0233908
-0.0252248
-0.0272301
-0.0294367
-0.0318123
-0.0343298
-0.0369863
-0.0397893
-0.0427735
-0.0460158
-0.0495793
-0.0535265
-0.0579168
-0.0627754
-0.0681382
-0.0740236
-0.0804806
-0.0875329
-0.0954232
-0.104332
-0.115172
-0.128215
-0.144565
-0.163322
-0.183936
-0.20731
-0.232986
-0.264783
-0.28355
0.0100818
0.00931089
0.00852403
0.00774538
0.0069387
0.00613554
0.00530302
0.00446893
0.00360143
0.00273082
0.00182259
0.000909419
-4.71045e-05
-0.00100897
-0.00201923
-0.0030379
-0.00410944
-0.00519073
-0.00632776
-0.0074821
-0.00869453
-0.00993003
-0.0112294
-0.0125618
-0.013962
-0.0154126
-0.0169353
-0.0185251
-0.0201872
-0.0219124
-0.0236837
-0.0255202
-0.0274789
-0.0296339
-0.0319941
-0.0345433
-0.0372529
-0.0401251
-0.0431688
-0.0464243
-0.0499712
-0.0538832
-0.0582296
-0.0630813
-0.0684712
-0.0744397
-0.0810171
-0.0882458
-0.0961644
-0.10499
-0.114923
-0.126799
-0.140982
-0.158496
-0.178344
-0.199991
-0.224323
-0.250988
-0.283798
-0.303416
0.00999628
0.00918113
0.00834609
0.00751718
0.00665803
0.00580204
0.00491583
0.00402985
0.00310944
0.00218808
0.00122709
0.000262547
-0.000748292
-0.00176304
-0.00282922
-0.00390356
-0.0050332
-0.0061727
-0.0073697
-0.00858509
-0.0098604
-0.0111608
-0.0125279
-0.0139312
-0.0154061
-0.0169359
-0.0185429
-0.0202225
-0.0219811
-0.0238097
-0.0256936
-0.0276502
-0.0297475
-0.0320395
-0.034563
-0.0372865
-0.0401941
-0.0432848
-0.0465771
-0.0501072
-0.0539672
-0.0582331
-0.0629875
-0.0683083
-0.0742373
-0.0808211
-0.0880935
-0.0961049
-0.104888
-0.11466
-0.125579
-0.13853
-0.15388
-0.17257
-0.193534
-0.216243
-0.241593
-0.269289
-0.303181
-0.323679
0.00973129
0.00888158
0.00801351
0.00715145
0.00625882
0.00536801
0.00444569
0.00352062
0.00256031
0.00159619
0.000592534
-0.000416636
-0.0014715
-0.00253242
-0.00364473
-0.00476707
-0.00594622
-0.00713759
-0.00838941
-0.00966267
-0.0109997
-0.0123651
-0.0138015
-0.0152778
-0.0168303
-0.0184423
-0.0201364
-0.021909
-0.0237665
-0.0257017
-0.0276999
-0.0297823
-0.0320081
-0.0344557
-0.0371374
-0.040041
-0.0431472
-0.0464614
-0.0500033
-0.0538137
-0.0579899
-0.062617
-0.0677865
-0.0735848
-0.0800633
-0.0872712
-0.0952548
-0.104059
-0.11373
-0.124462
-0.136423
-0.150428
-0.166963
-0.186854
-0.208951
-0.232744
-0.25911
-0.287847
-0.322797
-0.344201
0.0096524
0.00875936
0.00784663
0.00693979
0.00600191
0.00506612
0.00409881
0.00312998
0.00212501
0.00111681
6.68061e-05
-0.000989526
-0.00209486
-0.00320723
-0.00437434
-0.00555347
-0.00679202
-0.00804463
-0.00935955
-0.0106981
-0.0121023
-0.0135377
-0.015047
-0.0165997
-0.0182325
-0.0199295
-0.0217136
-0.0235816
-0.0255408
-0.0275844
-0.0296996
-0.0319064
-0.0342756
-0.0368669
-0.0397146
-0.0428018
-0.0461095
-0.0496533
-0.0534493
-0.0575466
-0.0620448
-0.0670417
-0.0726343
-0.0789202
-0.0859561
-0.0937996
-0.102499
-0.112108
-0.122668
-0.13437
-0.14734
-0.162454
-0.180191
-0.201286
-0.224536
-0.24944
-0.276877
-0.306697
-0.342772
-0.365104
0.00949313
0.00856555
0.0076199
0.00667999
0.00570855
0.00473763
0.00373358
0.00272466
0.00167835
0.000625603
-0.000469302
-0.0015727
-0.00272491
-0.00388639
-0.0051029
-0.00633325
-0.00762484
-0.00893281
-0.0103063
-0.0117067
-0.0131769
-0.0146819
-0.0162654
-0.0178964
-0.0196119
-0.0213965
-0.0232729
-0.0252389
-0.0273017
-0.029456
-0.0316894
-0.0340263
-0.0365307
-0.0392795
-0.0422948
-0.0455658
-0.0490817
-0.0528546
-0.05691
-0.0612956
-0.0661226
-0.0714939
-0.0775196
-0.0842997
-0.0919055
-0.100393
-0.109826
-0.120251
-0.131724
-0.144413
-0.158447
-0.174642
-0.193609
-0.215933
-0.240353
-0.266386
-0.294888
-0.325794
-0.362967
-0.386252
0.00967834
0.00870105
0.00770119
0.00670489
0.00567459
0.00464443
0.00358027
0.00251299
0.00140743
0.000297335
-0.000856635
-0.00201834
-0.00323133
-0.0044531
-0.00573237
-0.00702643
-0.00838364
-0.00975849
-0.0112004
-0.0126711
-0.0142136
-0.0157935
-0.0174549
-0.0191673
-0.0209681
-0.0228426
-0.0248134
-0.0268789
-0.0290469
-0.0313129
-0.0336672
-0.0361331
-0.0387842
-0.0416831
-0.0448717
-0.0483321
-0.052059
-0.0560669
-0.0603863
-0.0650669
-0.0702289
-0.0759842
-0.082452
-0.0897372
-0.0979219
-0.107066
-0.117239
-0.128494
-0.140883
-0.154565
-0.169641
-0.186984
-0.207186
-0.230731
-0.256334
-0.283522
-0.313144
-0.345177
-0.38351
-0.407767
0.00966456
0.00864908
0.00761208
0.00657825
0.00550959
0.00443948
0.00333364
0.00222155
0.00107003
-8.87925e-05
-0.00129169
-0.00250402
-0.00376746
-0.00504147
-0.00637346
-0.00772184
-0.00913556
-0.0105693
-0.0120738
-0.0136106
-0.0152235
-0.0168778
-0.018618
-0.0204136
-0.0223014
-0.0242675
-0.026334
-0.0285001
-0.030774
-0.0331533
-0.035629
-0.038228
-0.0410182
-0.0440829
-0.0474437
-0.0511
-0.0550398
-0.0592865
-0.0638715
-0.0688524
-0.0743535
-0.0805011
-0.0874181
-0.0952181
-0.103992
-0.113804
-0.124733
-0.136833
-0.150157
-0.164858
-0.181019
-0.19949
-0.220955
-0.245748
-0.272552
-0.300907
-0.331638
-0.364795
-0.404259
-0.429511
0.00982464
0.00876328
0.00767911
0.00659819
0.00548188
0.00436436
0.00321088
0.00205204
0.00085256
-0.000354401
-0.00160815
-0.00287322
-0.00419297
-0.00552557
-0.00691953
-0.00833319
-0.00981474
-0.0113192
-0.012896
-0.0145082
-0.0161981
-0.0179323
-0.0197549
-0.0216362
-0.0236126
-0.0256713
-0.0278339
-0.0301006
-0.0324812
-0.034974
-0.0375719
-0.0403027
-0.0432447
-0.046465
-0.0500092
-0.0538628
-0.0580211
-0.0625107
-0.0673686
-0.072656
-0.078506
-0.085055
-0.0924318
-0.100757
-0.110131
-0.120625
-0.132318
-0.145275
-0.159541
-0.175263
-0.192503
-0.212169
-0.234894
-0.26092
-0.288934
-0.318481
-0.350371
-0.384692
-0.425347
-0.451608
0.00997419
0.00887711
0.0077573
0.00663871
0.005483
0.00432239
0.00312336
0.00191416
0.000662383
-0.000600735
-0.00191131
-0.00323578
-0.00461508
-0.00600902
-0.00746464
-0.00894144
-0.0104877
-0.0120587
-0.0137049
-0.0153891
-0.0171545
-0.0189674
-0.0208721
-0.0228389
-0.0249036
-0.0270546
-0.0293128
-0.0316802
-0.0341668
-0.0367727
-0.0394931
-0.0423587
-0.0454442
-0.0488364
-0.0525622
-0.0566177
-0.0609983
-0.0657345
-0.0708699
-0.0764693
-0.0826744
-0.0896323
-0.0974771
-0.106336
-0.116322
-0.127509
-0.139983
-0.153811
-0.16904
-0.185807
-0.204163
-0.225011
-0.249025
-0.276314
-0.305555
-0.3363
-0.369335
-0.404812
-0.446626
-0.47392
0.0105477
0.00937896
0.00817897
0.00697672
0.0057364
0.00449238
0.00321032
0.00192414
0.000596021
-0.00073862
-0.00212302
-0.00351672
-0.00496801
-0.00643173
-0.00795935
-0.00950783
-0.0111272
-0.0127719
-0.0144926
-0.0162531
-0.0180957
-0.0199881
-0.0219742
-0.0240252
-0.0261766
-0.0284179
-0.0307699
-0.0332361
-0.0358272
-0.0385453
-0.0413875
-0.0443863
-0.0476268
-0.0511815
-0.0550968
-0.059358
-0.0639652
-0.068955
-0.0743756
-0.0802963
-0.0868671
-0.0942449
-0.102568
-0.111973
-0.122583
-0.134476
-0.147744
-0.162455
-0.178654
-0.196469
-0.215948
-0.238034
-0.263328
-0.291862
-0.322335
-0.354304
-0.388533
-0.425204
-0.468232
-0.496569
0.0102235
0.00905253
0.0078592
0.00666722
0.00543495
0.00419275
0.00290537
0.00160451
0.000255138
-0.00110859
-0.00252684
-0.00396065
-0.00545478
-0.00696492
-0.0085412
-0.0101415
-0.0118159
-0.0135187
-0.0153013
-0.0171271
-0.0190388
-0.0210036
-0.0230656
-0.0251961
-0.0274299
-0.0297581
-0.0322008
-0.0347632
-0.0374568
-0.0402862
-0.04325
-0.0463851
-0.0497728
-0.0535043
-0.0576066
-0.0620776
-0.0669166
-0.0721651
-0.077877
-0.0841262
-0.0910711
-0.0988766
-0.107686
-0.117647
-0.128892
-0.141505
-0.15558
-0.171191
-0.188379
-0.207266
-0.227901
-0.251214
-0.27782
-0.307634
-0.339356
-0.37255
-0.407954
-0.445807
-0.490016
-0.51942
0.0106089
0.00935881
0.00808125
0.00680238
0.00548637
0.00416556
0.00280497
0.00143779
2.53569e-05
-0.00139633
-0.00287254
-0.00436084
-0.00591149
-0.00747678
-0.00911073
-0.0107685
-0.0125025
-0.0142654
-0.01611
-0.0179994
-0.0199767
-0.0220096
-0.0241424
-0.0263471
-0.0286586
-0.031069
-0.0335988
-0.0362545
-0.0390493
-0.041989
-0.045075
-0.0483449
-0.0518907
-0.0557869
-0.0600849
-0.064769
-0.0698454
-0.0753607
-0.0813735
-0.0879618
-0.0952925
-0.103538
-0.112846
-0.123376
-0.135271
-0.148617
-0.163513
-0.180036
-0.198223
-0.21819
-0.239989
-0.264576
-0.292483
-0.323558
-0.356535
-0.390979
-0.427604
-0.466676
-0.512114
-0.542591
0.010196
0.00893778
0.00765982
0.00638402
0.00506904
0.00374447
0.00237489
0.000991922
-0.000440439
-0.00188732
-0.00339087
-0.00491036
-0.00649339
-0.00809313
-0.00976334
-0.0114595
-0.0132352
-0.0150423
-0.0169351
-0.018876
-0.020909
-0.0230013
-0.0251979
-0.0274706
-0.0298545
-0.032343
-0.0349566
-0.0377038
-0.0405982
-0.0436481
-0.046856
-0.0502638
-0.0539573
-0.0580345
-0.0625235
-0.0674257
-0.0727454
-0.078534
-0.0848548
-0.0917901
-0.0995145
-0.108208
-0.118024
-0.129134
-0.141691
-0.155783
-0.171516
-0.188967
-0.208171
-0.22924
-0.252232
-0.278088
-0.30733
-0.339705
-0.373952
-0.409643
-0.447467
-0.487743
-0.534376
-0.565948
0.0104997
0.00915309
0.00778241
0.00641334
0.00500993
0.00360434
0.00216124
0.000713525
-0.000777965
-0.00227749
-0.00383106
-0.0053965
-0.00702512
-0.00866927
-0.0103843
-0.0121258
-0.0139474
-0.0158017
-0.0177425
-0.0197338
-0.021819
-0.0239667
-0.0262219
-0.0285577
-0.0310094
-0.0335722
-0.0362667
-0.0391029
-0.0420958
-0.0452548
-0.048585
-0.052128
-0.0559822
-0.0602265
-0.064917
-0.0700412
-0.0756101
-0.0816807
-0.0883199
-0.0956138
-0.103744
-0.112899
-0.123238
-0.134942
-0.148177
-0.163031
-0.179615
-0.198007
-0.218242
-0.240423
-0.264621
-0.291781
-0.322346
-0.356002
-0.391523
-0.428487
-0.467555
-0.50907
-0.556939
-0.589615
0.00993247
0.00857785
0.00720954
0.00584886
0.00445365
0.00305331
0.00161129
0.000158955
-0.00134095
-0.0028535
-0.00442252
-0.00600688
-0.00765615
-0.0093225
-0.011062
-0.0128294
-0.0146805
-0.0165661
-0.0185424
-0.0205725
-0.0227011
-0.0248963
-0.0272042
-0.029598
-0.0321136
-0.0347473
-0.03752
-0.0404435
-0.0435332
-0.0468013
-0.0502536
-0.0539364
-0.0579409
-0.0623711
-0.0672583
-0.0726091
-0.0784333
-0.0847924
-0.0917577
-0.0994183
-0.107964
-0.117589
-0.12846
-0.140772
-0.154696
-0.170326
-0.187776
-0.207127
-0.228409
-0.251724
-0.27715
-0.305614
-0.33754
-0.372521
-0.409331
-0.447558
-0.487846
-0.530585
-0.579658
-0.613463
0.0100635
0.00864354
0.00720983
0.00578531
0.00432882
0.00287323
0.00137817
-0.000121002
-0.00166741
-0.0032222
-0.00483458
-0.00645926
-0.00815025
-0.00985719
-0.0116378
-0.0134462
-0.015338
-0.0172648
-0.0192823
-0.0213554
-0.0235283
-0.0257708
-0.0281295
-0.030579
-0.0331558
-0.035858
-0.038707
-0.041716
-0.0449025
-0.0482792
-0.0518552
-0.0556757
-0.0598452
-0.0644452
-0.0695407
-0.0751219
-0.0812081
-0.0878651
-0.0951675
-0.103207
-0.112181
-0.122291
-0.133711
-0.146645
-0.161276
-0.177698
-0.19603
-0.216355
-0.238698
-0.263163
-0.289831
-0.319629
-0.352903
-0.389188
-0.427291
-0.466809
-0.508359
-0.552356
-0.602667
-0.637616
0.0101158
0.00864176
0.0071535
0.00567339
0.00416198
0.0026508
0.00110299
-0.00044771
-0.00204105
-0.00363944
-0.00529071
-0.00695092
-0.00867417
-0.0104097
-0.0122182
-0.0140525
-0.0159722
-0.0179268
-0.0199759
-0.0220828
-0.0242939
-0.0265788
-0.0289851
-0.0314878
-0.0341239
-0.0368931
-0.0398172
-0.0429116
-0.0461942
-0.0496804
-0.0533801
-0.0573435
-0.0616652
-0.0664572
-0.0717553
-0.0775731
-0.0839278
-0.0908899
-0.0985375
-0.106965
-0.116376
-0.126981
-0.13896
-0.152529
-0.16788
-0.185109
-0.204338
-0.225654
-0.249077
-0.274709
-0.30264
-0.333777
-0.368439
-0.406073
-0.445483
-0.48628
-0.529067
-0.574304
-0.625827
-0.661946
0.0101745
0.00866016
0.0071329
0.00561561
0.00406807
0.0025233
0.000941765
-0.00064116
-0.00226793
-0.00389993
-0.00558618
-0.00728195
-0.00904135
-0.0108147
-0.0126602
-0.0145333
-0.0164904
-0.0184841
-0.0205712
-0.0227185
-0.0249707
-0.0273
-0.029754
-0.0323094
-0.035004
-0.0378394
-0.0408382
-0.0440173
-0.0473963
-0.0509919
-0.0548172
-0.0589208
-0.0634132
-0.0683807
-0.0738958
-0.0799557
-0.0865863
-0.0938634
-0.101868
-0.110697
-0.12056
-0.131675
-0.14423
-0.158451
-0.174538
-0.192593
-0.212737
-0.23506
-0.259579
-0.286395
-0.315605
-0.348106
-0.384141
-0.423103
-0.463825
-0.505928
-0.549994
-0.596503
-0.649269
-0.686573
0.0100739
0.00852746
0.00697136
0.0054268
0.00385336
0.00228218
0.00067561
-0.000932728
-0.00258297
-0.00423743
-0.00594437
-0.00765974
-0.00943811
-0.0112285
-0.0130924
-0.0149833
-0.0169616
-0.0189774
-0.0210911
-0.023268
-0.0255549
-0.0279233
-0.0304221
-0.0330285
-0.0357804
-0.0386816
-0.0417546
-0.0450188
-0.0484943
-0.0522015
-0.0561539
-0.060406
-0.0650578
-0.0702266
-0.0759545
-0.0822631
-0.0891769
-0.0967765
-0.105146
-0.114385
-0.12471
-0.136346
-0.149488
-0.164373
-0.181212
-0.200106
-0.221181
-0.244529
-0.270161
-0.29818
-0.328687
-0.362564
-0.400016
-0.44035
-0.482395
-0.525789
-0.571108
-0.618873
-0.672859
-0.71137
0.0102161
0.00863414
0.00704425
0.00546845
0.00386562
0.00226847
0.000636567
-0.000994999
-0.00266932
-0.00434795
-0.00608053
-0.00782259
-0.00962867
-0.0114494
-0.0133434