/*--------------------------------*- C++ -*----------------------------------*\
  =========                 |
  \\      /  F ield         | OpenFOAM: The Open Source CFD Toolbox
   \\    /   O peration     | Website:  https://openfoam.org
    \\  /    A nd           | Version:  6.0
     \\/     M anipulation  |
\*---------------------------------------------------------------------------*/
FoamFile
{
    version     2.0;
    format      ascii;
    class       volVectorField;
    location    "5";
    object      U;
}
// * * * * * * * * * * * * * * * * * * * * * * * * * * * * * * * * * * * * * //

dimensions      [0 1 -1 0 0 0 0];

internalField   nonuniform List<vector> 
62000
(
(0.9382 0.3427 -6.18978e-21)
(0.938259 0.342438 5.25793e-21)
(0.938327 0.342324 5.20706e-21)
(0.938411 0.342184 -2.27366e-20)
(0.93851 0.342041 -2.52766e-20)
(0.938622 0.341898 8.95554e-20)
(0.938744 0.341751 -9.8024e-20)
(0.938874 0.341606 5.74571e-20)
(0.939009 0.341463 -2.63621e-20)
(0.939146 0.341322 -1.34178e-19)
(0.939283 0.341183 -1.41463e-20)
(0.939417 0.34105 1.92536e-19)
(0.939546 0.340923 3.82559e-20)
(0.939668 0.340804 -1.37335e-19)
(0.939782 0.34069 2.13754e-19)
(0.939888 0.340586 -1.15843e-19)
(0.939983 0.340487 1.1842e-19)
(0.94007 0.3404 -1.4142e-19)
(0.940148 0.34032 6.75227e-20)
(0.940217 0.340252 -2.15426e-19)
(0.940278 0.340192 2.83557e-19)
(0.940332 0.340145 8.02546e-20)
(0.940378 0.340106 1.15654e-19)
(0.940418 0.340081 -5.47624e-19)
(0.940451 0.340066 2.02796e-19)
(0.94048 0.340066 -1.1858e-19)
(0.9405 0.340077 5.48292e-21)
(0.940515 0.340106 -8.97293e-20)
(0.94052 0.340148 2.96686e-19)
(0.940517 0.340207 -1.60821e-19)
(0.9405 0.340277 3.78643e-19)
(0.940471 0.340362 -7.55844e-19)
(0.940427 0.340465 7.87253e-20)
(0.940374 0.340599 -2.17024e-19)
(0.940312 0.340755 -6.90897e-20)
(0.940238 0.340937 -2.17602e-19)
(0.940144 0.341151 -6.35481e-20)
(0.940031 0.341402 -6.14633e-20)
(0.939899 0.34169 2.17125e-19)
(0.939753 0.34201 1.01629e-18)
(0.939598 0.342361 -2.58998e-19)
(0.939427 0.342774 -1.61725e-18)
(0.939224 0.343264 -2.95497e-18)
(0.938973 0.343831 1.89107e-18)
(0.938655 0.344453 6.30575e-19)
(0.938244 0.345078 -4.01656e-18)
(0.937711 0.345612 1.40386e-18)
(0.937026 0.345904 -2.36695e-18)
(0.936164 0.34574 -1.39532e-17)
(0.935113 0.344869 -3.69483e-18)
(0.933895 0.343025 -2.28837e-18)
(0.932546 0.340028 -3.33991e-17)
(0.931156 0.335765 3.52523e-18)
(0.92993 0.330268 4.31159e-17)
(0.929017 0.323789 1.19109e-17)
(0.928681 0.316451 3.77059e-17)
(0.929195 0.30856 -4.58601e-18)
(0.930523 0.299447 -7.28341e-18)
(0.933604 0.287715 1.27357e-17)
(0.901511 0.255317 2.22274e-18)
(0.937776 0.357169 -1.40254e-21)
(0.937559 0.356727 1.32683e-20)
(0.937361 0.356454 5.06473e-21)
(0.937194 0.35613 -2.35493e-20)
(0.937065 0.355766 9.67075e-21)
(0.936976 0.355364 -6.53585e-20)
(0.936928 0.354921 6.10067e-20)
(0.936923 0.354442 3.43972e-20)
(0.936957 0.353924 -6.51834e-20)
(0.93703 0.353368 3.27889e-21)
(0.937137 0.352772 6.30934e-20)
(0.937275 0.352143 -3.53042e-22)
(0.937437 0.35148 1.7539e-20)
(0.937619 0.350789 -1.59172e-19)
(0.937814 0.35007 3.21525e-19)
(0.93802 0.349332 -2.90191e-19)
(0.938229 0.348575 1.37509e-19)
(0.938438 0.347815 -2.86521e-20)
(0.938645 0.34705 -8.31599e-20)
(0.938846 0.346298 2.24212e-19)
(0.93904 0.345555 -3.62485e-19)
(0.939228 0.344838 2.14095e-19)
(0.939408 0.344145 -2.70098e-19)
(0.939583 0.343489 1.65189e-19)
(0.939751 0.34287 1.56023e-19)
(0.939918 0.342299 -9.89378e-20)
(0.940076 0.341773 -2.05988e-21)
(0.940238 0.341308 1.11293e-19)
(0.940384 0.340898 9.1085e-20)
(0.94053 0.340552 -1.97467e-19)
(0.940645 0.340261 3.83448e-19)
(0.940746 0.340056 7.91339e-20)
(0.940808 0.339966 1.99635e-19)
(0.940855 0.340033 3.00593e-20)
(0.940888 0.340223 4.91585e-20)
(0.940886 0.340537 -5.95847e-20)
(0.940815 0.341002 -2.07624e-19)
(0.940655 0.34165 -9.57416e-20)
(0.940394 0.34249 -5.37804e-19)
(0.940028 0.343514 -6.69922e-19)
(0.939547 0.344734 5.26539e-19)
(0.93895 0.346131 3.6114e-19)
(0.938213 0.347656 3.03112e-18)
(0.937316 0.34922 2.14776e-19)
(0.936246 0.350663 -6.54516e-18)
(0.934986 0.35177 3.21589e-18)
(0.933531 0.352222 3.54275e-18)
(0.931854 0.35167 4.78363e-18)
(0.929973 0.349671 1.58614e-18)
(0.927865 0.345899 3.23663e-19)
(0.925626 0.340013 1.33795e-17)
(0.923331 0.331973 4.11244e-17)
(0.92109 0.321849 -3.019e-17)
(0.919427 0.309788 -7.62374e-17)
(0.918398 0.296586 -1.8625e-17)
(0.918494 0.282312 -1.21183e-17)
(0.92013 0.267644 -2.7823e-17)
(0.922971 0.250913 -1.25353e-17)
(0.929698 0.231179 1.79435e-17)
(0.880355 0.179109 6.12428e-18)
(0.938154 0.365885 -5.81167e-21)
(0.937794 0.365554 -6.42424e-22)
(0.937431 0.365371 1.07123e-21)
(0.93708 0.365167 4.09298e-21)
(0.936751 0.364931 1.11759e-20)
(0.936453 0.364668 -1.07412e-20)
(0.936192 0.364369 5.50792e-20)
(0.935978 0.364032 -2.73937e-20)
(0.935814 0.36365 -1.48373e-20)
(0.935707 0.363218 -8.5418e-20)
(0.935657 0.362728 7.33767e-20)
(0.935667 0.362178 5.12292e-21)
(0.935733 0.361565 -1.68462e-20)
(0.935855 0.360884 4.43037e-20)
(0.936025 0.360134 -7.56768e-20)
(0.936238 0.359319 8.01875e-22)
(0.936487 0.358436 -3.48406e-20)
(0.936764 0.357498 1.62368e-21)
(0.937062 0.356504 8.46742e-20)
(0.937372 0.355474 -1.28952e-19)
(0.937688 0.354409 8.06499e-20)
(0.938004 0.353332 3.21328e-19)
(0.938317 0.352243 -4.76324e-20)
(0.938622 0.351168 -4.58584e-19)
(0.938919 0.350109 2.39364e-19)
(0.939207 0.349088 -1.23933e-19)
(0.939482 0.348106 2.04805e-19)
(0.939751 0.347188 -1.27141e-19)
(0.939997 0.346328 -2.61571e-19)
(0.940233 0.345545 2.46811e-19)
(0.940427 0.34483 -1.8769e-19)
(0.940602 0.344232 2.68351e-19)
(0.940725 0.343808 -6.96478e-19)
(0.940832 0.343603 6.30094e-19)
(0.940925 0.343565 -3.30063e-19)
(0.940979 0.343689 1.4443e-19)
(0.940949 0.344016 9.17364e-20)
(0.940807 0.344591 -2.21956e-23)
(0.940534 0.345432 -7.98912e-21)
(0.940125 0.346533 6.22767e-19)
(0.939547 0.347928 -2.88832e-19)
(0.938812 0.349541 4.92982e-19)
(0.937921 0.351257 -1.92133e-18)
(0.93687 0.352948 -1.10383e-18)
(0.935668 0.354392 1.62364e-18)
(0.934321 0.355315 -5.69875e-18)
(0.932863 0.355328 1.04842e-18)
(0.93128 0.354052 -7.64344e-18)
(0.929629 0.351012 1.2778e-17)
(0.927855 0.345958 4.07905e-18)
(0.92607 0.338608 1.83756e-18)
(0.924317 0.32904 -1.28058e-18)
(0.922599 0.317481 1.2177e-17)
(0.921526 0.304052 3.86785e-18)
(0.920906 0.289753 -2.60592e-17)
(0.921349 0.27469 -1.52277e-17)
(0.923121 0.259485 -9.4251e-18)
(0.92583 0.24277 -2.98573e-17)
(0.9329 0.225168 -2.28239e-18)
(0.89162 0.182254 2.05639e-18)
(0.938166 0.369473 -5.19956e-21)
(0.937837 0.369253 1.58494e-20)
(0.937484 0.369152 -2.65924e-21)
(0.937117 0.369051 -1.59783e-20)
(0.936745 0.368929 2.36725e-20)
(0.936377 0.368799 3.93784e-20)
(0.93602 0.368652 -5.28825e-20)
(0.935685 0.368488 5.51477e-21)
(0.935382 0.368301 1.7084e-20)
(0.93512 0.368083 3.47035e-20)
(0.934907 0.367827 -6.65281e-20)
(0.934753 0.367525 -1.94359e-20)
(0.934661 0.367168 -2.10616e-20)
(0.934637 0.366748 9.96943e-20)
(0.934683 0.366254 -6.6248e-20)
(0.934797 0.365684 1.52233e-19)
(0.934977 0.365027 -1.8534e-19)
(0.935216 0.36429 -2.54847e-20)
(0.935509 0.363464 1.93478e-19)
(0.935845 0.362564 -6.85935e-20)
(0.936217 0.361586 -2.36466e-20)
(0.936613 0.360549 -2.62416e-20)
(0.937026 0.359453 -2.40828e-19)
(0.937445 0.358324 1.42264e-19)
(0.937864 0.357164 -6.44253e-20)
(0.938276 0.356002 1.09397e-19)
(0.938675 0.35484 4.46769e-20)
(0.939057 0.353711 2.52286e-19)
(0.939411 0.352612 -1.54709e-19)
(0.939737 0.351568 -2.117e-19)
(0.940015 0.350575 3.0478e-19)
(0.940255 0.349691 -2.50781e-19)
(0.940437 0.348993 4.72903e-19)
(0.94059 0.348516 -2.77927e-19)
(0.940718 0.348209 1.09946e-19)
(0.940803 0.348061 1.96275e-19)
(0.940802 0.348122 -7.55986e-20)
(0.940685 0.348444 1.07861e-19)
(0.940438 0.349044 -3.94897e-20)
(0.940062 0.34992 1.68148e-19)
(0.93951 0.351122 -5.46842e-19)
(0.938798 0.352542 1.68718e-19)
(0.937965 0.35402 4.32927e-19)
(0.937031 0.355426 1.11748e-18)
(0.93603 0.356528 1.99481e-18)
(0.934981 0.357056 8.84263e-19)
(0.933941 0.356617 4.10368e-18)
(0.932896 0.354869 5.50752e-18)
(0.931911 0.35136 7.02874e-18)
(0.930888 0.34592 -6.03062e-18)
(0.929919 0.338321 -1.09017e-17)
(0.928988 0.328699 6.63807e-18)
(0.927977 0.317355 9.20445e-18)
(0.927515 0.304342 3.21538e-17)
(0.927221 0.290687 2.23598e-17)
(0.927767 0.276599 2.83071e-17)
(0.929238 0.262528 5.23767e-17)
(0.931305 0.247645 2.15162e-18)
(0.937293 0.234036 -2.17064e-17)
(0.908962 0.202131 -1.31543e-17)
(0.938144 0.371132 9.28874e-21)
(0.937874 0.370933 -3.29823e-21)
(0.937573 0.370856 4.92764e-21)
(0.937248 0.370789 -7.38221e-21)
(0.936904 0.370713 1.55315e-20)
(0.936544 0.370641 -8.17302e-21)
(0.936175 0.370566 3.70586e-21)
(0.935805 0.370491 -5.97952e-20)
(0.93544 0.37041 5.03466e-20)
(0.935092 0.370319 -9.61336e-20)
(0.934769 0.370209 1.06756e-19)
(0.934484 0.370078 -1.28215e-20)
(0.934245 0.369914 -2.67608e-20)
(0.934063 0.369709 -1.15794e-20)
(0.933945 0.36945 -1.78672e-21)
(0.933898 0.369132 -1.15291e-19)
(0.933926 0.368738 1.01189e-20)
(0.934029 0.36827 1.27777e-19)
(0.934208 0.367712 -3.97586e-20)
(0.934456 0.367071 -3.99078e-20)
(0.934769 0.366334 7.20235e-20)
(0.935137 0.365517 -3.32837e-20)
(0.935551 0.364611 1.40466e-19)
(0.935998 0.363638 7.25521e-20)
(0.936471 0.362595 5.51291e-20)
(0.936955 0.361508 -1.81947e-19)
(0.937441 0.360379 -2.59613e-20)
(0.937917 0.359243 -1.35944e-19)
(0.938371 0.358096 2.887e-20)
(0.938793 0.356967 -4.65844e-20)
(0.93917 0.355854 -1.56121e-20)
(0.9395 0.354821 1.60126e-19)
(0.939768 0.353953 -4.14951e-19)
(0.939996 0.353282 -4.28736e-21)
(0.940188 0.352756 -2.1763e-19)
(0.940331 0.352367 -1.13445e-19)
(0.940388 0.352171 6.29703e-20)
(0.940332 0.352221 -3.38976e-19)
(0.940156 0.35253 5.49053e-19)
(0.939864 0.353103 5.0119e-20)
(0.939402 0.353994 6.94132e-19)
(0.938777 0.355082 -5.53142e-19)
(0.938067 0.35617 -3.92312e-19)
(0.937317 0.357146 -2.68204e-19)
(0.936576 0.357785 1.35066e-18)
(0.935873 0.357841 2.40637e-18)
(0.935278 0.356943 3.70011e-19)
(0.934769 0.354794 9.87079e-19)
(0.934416 0.350982 -3.38078e-18)
(0.934079 0.345404 1.49699e-17)
(0.933827 0.337873 4.16811e-18)
(0.933597 0.328558 -5.82762e-18)
(0.933166 0.31778 -1.57284e-18)
(0.933174 0.30553 1.99194e-17)
(0.933107 0.292798 1.32789e-18)
(0.933667 0.279878 -2.35154e-17)
(0.934781 0.267035 -4.3033e-17)
(0.936229 0.253837 3.8965e-17)
(0.940756 0.243383 -1.40007e-17)
(0.923265 0.218585 1.21794e-17)
(0.938245 0.37217 -3.2617e-21)
(0.938018 0.371998 1.30976e-20)
(0.937761 0.371935 -2.14624e-20)
(0.937478 0.371881 1.59718e-20)
(0.937172 0.371817 9.93106e-21)
(0.936844 0.37176 -1.09073e-20)
(0.936496 0.371703 8.04328e-22)
(0.936133 0.371652 -7.81788e-21)
(0.93576 0.371605 -2.55471e-20)
(0.935383 0.371559 4.93582e-20)
(0.935011 0.371509 -7.45575e-20)
(0.934654 0.371454 6.55094e-20)
(0.93432 0.371386 5.46309e-20)
(0.934022 0.371297 -8.56406e-20)
(0.93377 0.371178 -2.57191e-20)
(0.933576 0.37102 9.96903e-20)
(0.933446 0.37081 -1.17635e-19)
(0.933389 0.370545 1.57927e-19)
(0.93341 0.370208 -3.27147e-20)
(0.93351 0.3698 1.30199e-20)
(0.933689 0.369306 -2.83351e-20)
(0.933943 0.368732 -3.32591e-20)
(0.934267 0.368064 -5.88294e-20)
(0.934652 0.367317 9.70894e-20)
(0.935087 0.36648 -6.79602e-20)
(0.93556 0.365575 -6.20758e-20)
(0.936059 0.364598 1.31391e-19)
(0.936568 0.363579 -1.14246e-19)
(0.937074 0.362513 1.98966e-19)
(0.937561 0.361428 -1.04167e-19)
(0.938015 0.360319 8.88554e-20)
(0.938428 0.359252 -1.29921e-19)
(0.938785 0.358315 1.58114e-19)
(0.939097 0.357533 -2.92288e-21)
(0.93937 0.35686 -7.06627e-21)
(0.939592 0.356287 2.05583e-21)
(0.939732 0.355875 -5.80087e-20)
(0.939767 0.355677 2.86257e-19)
(0.939694 0.355701 -2.48229e-19)
(0.939522 0.355956 -1.40878e-18)
(0.939189 0.356494 -6.43908e-19)
(0.938682 0.357191 5.45984e-19)
(0.938113 0.357822 -5.50429e-19)
(0.93755 0.358304 -8.5652e-19)
(0.937054 0.358426 -8.60515e-20)
(0.936656 0.357971 2.6569e-18)
(0.936436 0.3566 -4.66764e-18)
(0.936361 0.354068 -5.72776e-18)
(0.936507 0.350003 -5.09705e-18)
(0.936701 0.344358 -9.36126e-18)
(0.936999 0.336977 5.89308e-18)
(0.937295 0.328049 -3.32791e-18)
(0.937291 0.317891 -2.79483e-17)
(0.937638 0.306428 3.94716e-18)
(0.937734 0.294584 9.71411e-18)
(0.938279 0.282713 -1.51246e-17)
(0.939077 0.270917 1.35013e-17)
(0.940051 0.259018 5.99224e-18)
(0.943119 0.250744 2.39693e-17)
(0.933337 0.230372 -1.52133e-18)
(0.938368 0.372879 3.58557e-21)
(0.938173 0.37271 -1.61039e-20)
(0.93795 0.372651 8.00807e-21)
(0.937704 0.372603 1.44032e-20)
(0.937436 0.372546 -3.0645e-20)
(0.937145 0.372495 2.57079e-20)
(0.936832 0.372447 -1.67555e-20)
(0.936497 0.372405 1.42338e-20)
(0.936145 0.372368 2.17644e-20)
(0.935778 0.372335 -5.27076e-20)
(0.935402 0.372304 7.47043e-20)
(0.935024 0.372275 2.91109e-20)
(0.934651 0.372245 -1.22844e-19)
(0.934294 0.372207 -1.9973e-20)
(0.933962 0.372154 6.36779e-20)
(0.933667 0.372083 3.81553e-20)
(0.933418 0.37198 -4.69579e-20)
(0.933227 0.371843 3.91315e-20)
(0.933103 0.371655 5.61877e-20)
(0.933052 0.371418 -3.14304e-20)
(0.93308 0.371111 -1.73006e-20)
(0.933189 0.370739 5.23167e-20)
(0.933377 0.370284 1.02006e-19)
(0.933642 0.369752 -8.1562e-20)
(0.933976 0.369132 -8.20982e-20)
(0.934371 0.368434 8.68502e-20)
(0.934814 0.36765 -6.83776e-20)
(0.935292 0.366806 -2.59076e-20)
(0.935789 0.365889 2.17739e-19)
(0.936289 0.364923 -9.14708e-20)
(0.936777 0.363899 -7.46793e-20)
(0.937241 0.362879 1.08467e-19)
(0.93766 0.361951 7.60251e-20)
(0.938042 0.361134 -5.38608e-20)
(0.938388 0.360379 -4.24891e-20)
(0.938688 0.359683 1.49996e-19)
(0.938915 0.359106 6.08347e-20)
(0.939049 0.358699 4.68959e-20)
(0.93909 0.358467 -3.12194e-19)
(0.939048 0.35842 -2.934e-19)
(0.938858 0.358603 7.3436e-19)
(0.93848 0.358895 6.63306e-19)
(0.938048 0.359055 1.29983e-18)
(0.937656 0.359031 -1.17782e-18)
(0.937369 0.358632 -1.48875e-18)
(0.93722 0.357672 -1.37322e-18)
(0.937291 0.355847 3.81538e-18)
(0.937545 0.352958 4.21954e-18)
(0.938057 0.348674 -5.76695e-18)
(0.938635 0.342995 -9.09636e-18)
(0.939326 0.335785 -3.05646e-18)
(0.939993 0.327242 2.14473e-18)
(0.940281 0.317663 8.72842e-19)
(0.940856 0.306915 -9.74685e-18)
(0.94106 0.295843 7.78067e-18)
(0.941579 0.28484 5.33627e-18)
(0.942119 0.273864 7.48763e-18)
(0.942766 0.262922 -2.03823e-17)
(0.944546 0.256072 -1.75561e-18)
(0.939787 0.238446 -1.03803e-18)
(0.938465 0.373431 -5.63551e-21)
(0.938293 0.37328 -4.35157e-21)
(0.938097 0.373226 6.22456e-21)
(0.937881 0.373181 2.11723e-20)
(0.937646 0.373124 -4.54201e-20)
(0.93739 0.373072 5.17008e-20)
(0.937112 0.373019 -2.86478e-21)
(0.936813 0.372972 -3.62692e-21)
(0.936493 0.37293 -1.80556e-20)
(0.936155 0.372894 4.20439e-20)
(0.9358 0.372863 -6.51115e-20)
(0.935433 0.372838 2.46348e-20)
(0.935058 0.372815 -6.05207e-22)
(0.934684 0.372792 3.59196e-20)
(0.934318 0.372764 1.5464e-20)
(0.933971 0.372729 -8.73748e-20)
(0.93365 0.372676 7.45221e-20)
(0.933369 0.372606 2.67683e-20)
(0.933137 0.372504 -7.89981e-20)
(0.932965 0.37237 3.82806e-20)
(0.932859 0.372188 1.58007e-20)
(0.932829 0.371959 -1.32238e-20)
(0.932876 0.371663 1.04946e-20)
(0.933004 0.371306 -9.62408e-21)
(0.933209 0.370868 -7.96202e-20)
(0.933488 0.37036 4.99878e-20)
(0.933833 0.369763 -7.33096e-20)
(0.934231 0.3691 1.27724e-19)
(0.93467 0.368352 -3.03632e-20)
(0.935135 0.367536 -1.3891e-20)
(0.935612 0.366637 -4.90197e-21)
(0.936084 0.365712 1.35764e-19)
(0.936532 0.364843 -5.25353e-20)
(0.936953 0.364043 -1.78422e-20)
(0.93735 0.363263 8.86746e-20)
(0.937712 0.362496 7.67031e-20)
(0.938014 0.361805 -1.32902e-19)
(0.938237 0.361235 2.38487e-20)
(0.938385 0.360786 3.42197e-19)
(0.938467 0.360471 3.60156e-20)
(0.938415 0.360325 2.23789e-19)
(0.938159 0.360233 -4.28594e-19)
(0.937849 0.359946 6.13601e-19)
(0.937599 0.359444 1.77906e-18)
(0.937479 0.358557 7.79071e-19)
(0.937517 0.357129 -8.91841e-19)
(0.937799 0.354889 -3.4129e-18)
(0.93828 0.351681 4.04593e-19)
(0.93904 0.347211 1.77014e-18)
(0.93987 0.341511 4.97965e-18)
(0.940821 0.334461 -1.23592e-18)
(0.941723 0.326264 -9.03934e-18)
(0.942188 0.317187 8.52089e-18)
(0.942904 0.307043 -6.06902e-18)
(0.943182 0.296595 1.08014e-17)
(0.943679 0.286268 3.17288e-18)
(0.944028 0.275904 1.11455e-17)
(0.944484 0.265642 1.28977e-17)
(0.945199 0.259683 5.60399e-19)
(0.943631 0.243869 -1.59865e-19)
(0.938555 0.373836 -2.58101e-21)
(0.938401 0.373671 2.24324e-21)
(0.938226 0.373614 1.09436e-20)
(0.938033 0.373567 1.69119e-20)
(0.937823 0.37351 -5.08463e-20)
(0.937595 0.373458 2.91528e-20)
(0.937347 0.373407 -5.07197e-20)
(0.93708 0.373361 7.93408e-20)
(0.936792 0.373319 -3.71494e-20)
(0.936485 0.373282 6.34663e-21)
(0.936158 0.373249 6.73077e-20)
(0.935814 0.373222 -1.53243e-19)
(0.935456 0.373198 1.03586e-19)
(0.935089 0.373178 1.29255e-20)
(0.934719 0.373158 2.01026e-20)
(0.934352 0.373136 -9.13233e-20)
(0.933997 0.373105 4.38658e-20)
(0.933664 0.373067 -5.18591e-20)
(0.933364 0.37301 9.7656e-20)
(0.933105 0.372935 -1.61761e-20)
(0.932899 0.372827 -1.16163e-19)
(0.932755 0.372689 4.64946e-20)
(0.932679 0.372502 -2.89606e-21)
(0.932678 0.372268 -1.4507e-19)
(0.932754 0.37197 1.11872e-19)
(0.932907 0.371611 7.66298e-20)
(0.933134 0.371172 4.49316e-20)
(0.933427 0.370669 -6.3652e-20)
(0.933777 0.37008 -6.5931e-20)
(0.934171 0.369414 3.16464e-20)
(0.9346 0.368649 3.74224e-20)
(0.935044 0.367837 -5.23783e-20)
(0.935483 0.367054 -7.31124e-20)
(0.935912 0.366305 1.63879e-19)
(0.936331 0.365536 2.46606e-20)
(0.936731 0.364741 -2.63824e-19)
(0.937086 0.363978 3.84786e-20)
(0.937379 0.363288 1.85358e-19)
(0.937615 0.362666 -3.99967e-21)
(0.937803 0.362124 3.22443e-19)
(0.937871 0.36169 -5.31903e-19)
(0.937721 0.361251 -2.11137e-20)
(0.93751 0.360564 -4.59251e-19)
(0.937371 0.359634 5.06996e-20)
(0.937372 0.358313 9.53833e-19)
(0.937542 0.356472 3.04856e-18)
(0.937962 0.35387 8.76783e-19)
(0.938585 0.350389 -3.09691e-18)
(0.939495 0.345763 2.57219e-18)
(0.940474 0.340053 1.13855e-17)
(0.941577 0.333144 -1.04287e-17)
(0.942613 0.325242 1.38888e-17)
(0.943173 0.316582 -9.61605e-18)
(0.943967 0.306928 -4.06011e-18)
(0.944294 0.296971 -2.15919e-17)
(0.944778 0.287153 -9.54554e-19)
(0.944997 0.277227 -6.13946e-18)
(0.945368 0.267433 -4.98186e-18)
(0.945253 0.262003 2.50982e-19)
(0.945686 0.24741 -1.78108e-18)
(0.938654 0.374188 3.363e-21)
(0.938513 0.374034 1.09637e-21)
(0.938352 0.37398 -1.2051e-20)
(0.938175 0.373933 1.14505e-20)
(0.937984 0.373874 -5.04544e-21)
(0.937776 0.373819 8.78205e-21)
(0.93755 0.373762 2.76054e-21)
(0.937307 0.37371 -4.2997e-20)
(0.937044 0.373662 1.91996e-20)
(0.936762 0.373618 -1.18781e-20)
(0.936462 0.373578 8.08202e-21)
(0.936143 0.373544 2.8428e-20)
(0.935806 0.373514 -5.39923e-21)
(0.935455 0.373487 1.61371e-20)
(0.935095 0.373462 -6.77714e-20)
(0.93473 0.373437 2.71355e-20)
(0.934365 0.373408 1.17118e-20)
(0.934009 0.373377 -2.77914e-20)
(0.933671 0.373335 5.48477e-20)
(0.93336 0.373286 1.57793e-20)
(0.933086 0.373215 -2.97678e-21)
(0.932858 0.373128 -1.63924e-20)
(0.932687 0.373006 6.40953e-20)
(0.932578 0.372852 -1.67481e-19)
(0.93254 0.372649 8.55939e-20)
(0.932575 0.372398 3.16028e-20)
(0.932685 0.372079 -5.28549e-20)
(0.932864 0.371705 8.64871e-20)
(0.933111 0.371248 -4.48627e-20)
(0.933414 0.370715 -2.00646e-20)
(0.933769 0.370075 -4.11841e-20)
(0.934157 0.369376 -1.07177e-20)
(0.934558 0.368685 4.42642e-20)
(0.934965 0.368001 -1.32084e-19)
(0.935378 0.367269 2.48339e-19)
(0.935789 0.366472 -1.14037e-20)
(0.936172 0.36567 1.46065e-19)
(0.936511 0.364897 -3.70279e-19)
(0.936811 0.364141 -1.43449e-19)
(0.937078 0.363416 -4.12789e-20)
(0.937242 0.362738 -8.07426e-20)
(0.937178 0.362001 2.10753e-21)
(0.937039 0.360968 -4.83812e-19)
(0.936979 0.35967 1.16338e-20)
(0.937062 0.357978 2.87474e-19)
(0.937313 0.355786 -2.66292e-18)
(0.937813 0.352881 3.67209e-18)
(0.93851 0.349173 7.19984e-19)
(0.939493 0.344424 -2.26438e-19)
(0.940539 0.33871 -6.64946e-18)
(0.941715 0.331923 3.36246e-18)
(0.942804 0.324268 -7.03155e-18)
(0.943394 0.31595 1.22189e-17)
(0.944223 0.306686 4.21204e-18)
(0.94459 0.297102 -7.73869e-18)
(0.945072 0.287654 3.30841e-18)
(0.945215 0.278036 -6.96405e-18)
(0.945585 0.268554 -6.26585e-19)
(0.944843 0.263425 -3.40493e-18)
(0.946624 0.249765 -1.38453e-18)
(0.93873 0.374477 -7.01316e-22)
(0.938599 0.37432 -2.71937e-21)
(0.938449 0.374266 -2.27907e-21)
(0.938285 0.37422 2.26079e-20)
(0.938108 0.374162 -1.27235e-20)
(0.937916 0.374109 -1.47101e-20)
(0.937708 0.374053 -5.15173e-21)
(0.937483 0.374001 -2.15651e-20)
(0.937242 0.37395 1.46567e-20)
(0.936983 0.373901 2.68412e-21)
(0.936706 0.373854 1.34267e-21)
(0.93641 0.373811 5.53348e-20)
(0.936097 0.373772 -3.92461e-20)
(0.935767 0.373735 -4.38115e-21)
(0.935424 0.373699 4.17864e-20)
(0.935071 0.373667 -2.32086e-20)
(0.93471 0.373631 -7.91782e-21)
(0.934349 0.373597 1.37075e-20)
(0.933996 0.373557 3.93699e-20)
(0.933656 0.373515 1.79494e-20)
(0.93334 0.37346 2.8158e-21)
(0.933057 0.373397 -5.07407e-20)
(0.932815 0.373309 2.17341e-20)
(0.932625 0.373202 3.93493e-20)
(0.932493 0.373058 -8.33867e-20)
(0.932426 0.37288 2.25337e-20)
(0.932429 0.372645 -9.00758e-20)
(0.9325 0.372366 6.83662e-20)
(0.932642 0.372012 5.08372e-20)
(0.932847 0.371585 -8.32726e-20)
(0.933114 0.371052 -3.05333e-20)
(0.933428 0.370451 4.27588e-20)
(0.933769 0.369848 1.37302e-20)
(0.93413 0.369234 -4.21793e-20)
(0.934513 0.368545 -4.14999e-20)
(0.934909 0.367765 -5.42032e-20)
(0.935295 0.366947 3.58833e-20)
(0.935655 0.36612 9.79502e-20)
(0.935993 0.365263 3.59365e-20)
(0.936311 0.364392 -6.60972e-20)
(0.936546 0.363516 5.30658e-19)
(0.936544 0.36253 5.67016e-21)
(0.936452 0.361209 7.6243e-19)
(0.93644 0.359606 -1.53828e-18)
(0.93657 0.357607 8.18352e-20)
(0.936862 0.355128 1.09235e-19)
(0.937394 0.351977 -6.10426e-19)
(0.938113 0.348088 -2.21782e-18)
(0.939111 0.343244 -4.78955e-18)
(0.940165 0.337536 4.92901e-18)
(0.941354 0.330854 7.42108e-18)
(0.942443 0.323405 3.95791e-18)
(0.943024 0.315362 -1.06019e-17)
(0.943859 0.306404 5.55505e-18)
(0.944255 0.297102 1.45464e-17)
(0.944747 0.287916 2.7481e-18)
(0.944859 0.278503 6.7643e-18)
(0.945284 0.26922 1.70233e-18)
(0.944092 0.264245 -5.1341e-19)
(0.94685 0.251292 2.54452e-18)
(0.938778 0.374757 8.49663e-22)
(0.938655 0.37461 -2.54447e-21)
(0.938514 0.374559 8.95065e-21)
(0.93836 0.374514 2.14184e-21)
(0.938194 0.374455 -1.21919e-20)
(0.938016 0.374398 -1.35255e-20)
(0.937823 0.374337 3.22573e-20)
(0.937615 0.374279 -3.46317e-20)
(0.937392 0.374221 -7.70013e-21)
(0.937153 0.374166 2.12359e-20)
(0.936897 0.374111 1.86702e-20)
(0.936623 0.37406 5.44172e-20)
(0.936332 0.374011 -3.28858e-20)
(0.936023 0.373964 -5.17649e-20)
(0.935699 0.373918 1.14178e-20)
(0.935362 0.373874 -3.83209e-20)
(0.935014 0.373827 2.99811e-20)
(0.934658 0.373783 -4.39168e-20)
(0.934302 0.373735 1.01302e-20)
(0.933951 0.373687 -1.00138e-20)
(0.933611 0.373632 -3.94052e-21)
(0.933293 0.373574 -2.93558e-20)
(0.933004 0.3735 7.87811e-21)
(0.932752 0.373416 6.5957e-20)
(0.932548 0.373304 -1.87884e-20)
(0.932399 0.373169 7.72604e-21)
(0.93231 0.372988 1.66734e-20)
(0.932285 0.372774 -1.75759e-20)
(0.932327 0.372493 -1.56609e-21)
(0.932436 0.372146 1.94349e-20)
(0.932611 0.371695 2.2692e-20)
(0.93284 0.371178 -1.90622e-20)
(0.933108 0.370649 -4.50168e-20)
(0.933407 0.370097 -4.85495e-20)
(0.93374 0.369456 9.60879e-20)
(0.934102 0.3687 1.76111e-20)
(0.934469 0.36788 6.56357e-21)
(0.934825 0.367018 4.32964e-20)
(0.935175 0.366089 -8.27055e-20)
(0.935519 0.365106 4.49601e-20)
(0.935797 0.364072 -5.45389e-20)
(0.935835 0.362883 6.68306e-20)
(0.935766 0.361329 -2.64087e-19)
(0.935778 0.35948 5.74e-19)
(0.935925 0.357235 -7.88379e-19)
(0.936225 0.354526 5.60529e-19)
(0.936752 0.351182 -2.15598e-18)
(0.937453 0.347155 1.14997e-18)
(0.938424 0.342244 2.35659e-18)
(0.939442 0.336548 -4.44361e-18)
(0.940603 0.329957 -2.33108e-18)
(0.941651 0.32268 -1.43435e-18)
(0.94219 0.31486 -7.24406e-19)
(0.943011 0.306138 -4.09839e-18)
(0.943435 0.297041 5.5214e-19)
(0.943945 0.288032 1.0281e-19)
(0.94406 0.278749 -1.02286e-18)
(0.944586 0.269584 -1.68182e-19)
(0.943079 0.264679 -7.54456e-19)
(0.946679 0.25233 -2.86383e-18)
(0.938825 0.374993 1.49811e-21)
(0.938708 0.374831 -1.28624e-21)
(0.938574 0.374775 1.11647e-21)
(0.938428 0.374727 7.12115e-21)
(0.93827 0.374667 1.00599e-20)
(0.938101 0.374611 -4.00713e-20)
(0.93792 0.374551 2.87753e-20)
(0.937724 0.374494 5.5255e-21)
(0.937515 0.374437 -2.14321e-21)
(0.937291 0.37438 -1.24114e-20)
(0.937051 0.374322 3.60238e-20)
(0.936795 0.374267 -1.29279e-20)
(0.936521 0.374212 -1.64499e-20)
(0.936231 0.374159 -4.48004e-20)
(0.935925 0.374105 8.81959e-20)
(0.935604 0.374052 -2.00142e-20)
(0.935269 0.373996 -1.57804e-20)
(0.934923 0.373942 -3.9579e-20)
(0.934572 0.373885 4.32008e-20)
(0.934218 0.373829 2.0918e-20)
(0.933867 0.373767 -1.05295e-20)
(0.933528 0.373707 1.39897e-20)
(0.933208 0.373633 -6.07705e-20)
(0.932914 0.373555 6.68879e-21)
(0.932656 0.373457 3.07685e-20)
(0.932441 0.373343 -5.55112e-21)
(0.932278 0.373193 -6.59648e-20)
(0.93217 0.373018 1.22508e-20)
(0.932124 0.372786 5.00451e-20)
(0.932142 0.372495 -8.25783e-21)
(0.932228 0.372104 -1.98136e-20)
(0.932371 0.371647 2.67471e-21)
(0.932558 0.371179 2.39806e-20)
(0.932784 0.370681 5.21645e-20)
(0.933055 0.37008 -1.23627e-20)
(0.933366 0.369351 -1.16119e-20)
(0.933695 0.368537 -4.77298e-20)
(0.934027 0.367655 -4.16449e-20)
(0.934366 0.366674 1.86841e-20)
(0.934712 0.365607 -5.61264e-20)
(0.935008 0.36445 -5.37266e-20)
(0.935065 0.363101 6.0838e-20)
(0.935 0.361364 -4.07904e-20)
(0.935012 0.359321 9.11019e-20)
(0.935153 0.356885 6.91948e-19)
(0.935434 0.353999 -7.32917e-19)
(0.935929 0.350508 1.40705e-18)
(0.936583 0.346378 1.5663e-18)
(0.937497 0.341424 7.18041e-20)
(0.938449 0.335749 2.77102e-18)
(0.939552 0.329237 -4.95616e-18)
(0.940534 0.322102 -6.31256e-18)
(0.941014 0.31446 5.04539e-18)
(0.941809 0.30592 4.02513e-18)
(0.942257 0.296971 -9.03508e-19)
(0.942793 0.288077 -6.33946e-18)
(0.942938 0.278866 1.11613e-18)
(0.943592 0.269759 1.22706e-18)
(0.941881 0.264868 2.79042e-18)
(0.94626 0.253006 -4.65798e-18)
(0.938884 0.375236 -1.50837e-21)
(0.938771 0.37508 1.67012e-21)
(0.938641 0.375026 1.09655e-20)
(0.9385 0.374978 -1.43964e-20)
(0.938348 0.374916 2.54015e-20)
(0.938185 0.374856 -3.72148e-20)
(0.938009 0.374792 1.06494e-20)
(0.937821 0.374731 -3.25615e-22)
(0.93762 0.374668 2.19414e-20)
(0.937405 0.374607 -1.17069e-20)
(0.937176 0.374544 3.04421e-21)
(0.936932 0.374484 2.98034e-21)
(0.936671 0.374423 -4.93748e-20)
(0.936394 0.374363 1.61072e-20)
(0.936102 0.3743 3.27957e-20)
(0.935795 0.374238 2.20622e-22)
(0.935472 0.374171 -4.90153e-20)
(0.935137 0.374105 2.04486e-20)
(0.934793 0.374035 8.2688e-20)
(0.934442 0.373967 -5.53501e-20)
(0.934088 0.373893 -3.57498e-20)
(0.933739 0.373822 2.99422e-20)
(0.933399 0.373741 1.45102e-20)
(0.933076 0.373658 1.42585e-20)
(0.932779 0.373561 -3.00913e-20)
(0.932515 0.373454 -4.9445e-20)
(0.932292 0.373317 4.21434e-20)
(0.932116 0.373163 4.23063e-20)
(0.931994 0.372958 -1.47124e-21)
(0.931931 0.372702 -1.16873e-20)
(0.931932 0.372352 3.75551e-21)
(0.931991 0.37194 -5.91176e-21)
(0.932096 0.371514 -7.8985e-21)
(0.932245 0.371056 -1.58569e-20)
(0.932445 0.370492 2.20123e-21)
(0.932694 0.369785 -8.45078e-21)
(0.932971 0.368981 2.52118e-20)
(0.933262 0.368089 -3.18921e-21)
(0.933572 0.367072 3.32475e-20)
(0.933897 0.365941 8.97726e-21)
(0.934192 0.364692 -2.93218e-20)
(0.934249 0.363219 -1.59723e-20)
(0.93417 0.361341 -6.73907e-20)
(0.934165 0.35915 -1.0829e-19)
(0.934279 0.356568 -3.13397e-19)
(0.934523 0.35355 4.94928e-19)
(0.934964 0.349952 -4.27826e-19)
(0.93555 0.345751 -5.44097e-19)
(0.936385 0.340773 2.72518e-19)
(0.93725 0.335122 -2.44613e-18)
(0.938276 0.32868 1.55387e-18)
(0.93917 0.321665 4.26421e-18)
(0.939577 0.314168 -1.11085e-18)
(0.940337 0.305765 -3.15394e-18)
(0.94081 0.296917 1.4982e-18)
(0.941377 0.288087 9.42369e-19)
(0.941571 0.278908 -9.70277e-19)
(0.942372 0.269812 -4.92282e-18)
(0.940541 0.264906 -8.63098e-18)
(0.945725 0.253489 1.10619e-17)
(0.938925 0.375465 -1.20217e-21)
(0.938816 0.375304 1.74039e-21)
(0.938689 0.37525 3.28102e-22)
(0.938551 0.375202 6.27311e-21)
(0.938404 0.375141 -9.61227e-21)
(0.938245 0.375082 -1.88837e-20)
(0.938075 0.37502 7.28221e-21)
(0.937893 0.374958 -8.21872e-21)
(0.937698 0.374894 1.9096e-20)
(0.937491 0.374829 -3.5834e-21)
(0.93727 0.374762 -1.13358e-20)
(0.937034 0.374696 9.96515e-21)
(0.936783 0.374628 1.47347e-20)
(0.936517 0.374559 3.77247e-20)
(0.936236 0.374488 -6.89504e-20)
(0.935941 0.374416 3.37532e-20)
(0.935629 0.374339 4.0592e-21)
(0.935304 0.374263 -2.99444e-20)
(0.934968 0.374182 -1.58979e-20)
(0.934622 0.374102 5.2106e-20)
(0.934268 0.374016 -4.97194e-20)
(0.933914 0.373933 1.60549e-20)
(0.933563 0.373841 -3.0311e-20)
(0.933221 0.373749 4.8582e-20)
(0.932896 0.373645 -8.77684e-21)
(0.932594 0.373534 -1.63553e-20)
(0.932324 0.373399 1.52216e-20)
(0.932092 0.373252 1.80384e-20)
(0.931906 0.37306 -1.40766e-20)
(0.931772 0.372823 7.18941e-21)
(0.931697 0.372496 -6.42549e-22)
(0.931677 0.372111 2.83617e-21)
(0.931702 0.371716 -5.95734e-22)
(0.931772 0.371288 4.19175e-21)
(0.931896 0.370749 2.22213e-20)
(0.932076 0.370061 5.13209e-20)
(0.93229 0.369267 -6.10719e-20)
(0.932528 0.368368 5.39184e-20)
(0.932793 0.367326 -1.54964e-20)
(0.933082 0.366149 -7.90227e-20)
(0.933355 0.364831 -1.04211e-19)
(0.933397 0.363265 3.70171e-20)
(0.93329 0.361283 -6.59622e-20)
(0.933253 0.358983 -9.05774e-20)
(0.933326 0.356294 1.39679e-20)
(0.933516 0.35318 -1.10839e-19)
(0.933888 0.349507 -3.83022e-19)
(0.934392 0.345261 -6.83234e-20)
(0.935132 0.340274 1.57147e-19)
(0.935896 0.334652 4.34044e-19)
(0.936833 0.328272 7.24396e-19)
(0.93763 0.321356 -2.3271e-18)
(0.937957 0.313975 -1.43148e-18)
(0.938678 0.305674 8.9774e-19)
(0.939173 0.296893 2.69311e-19)
(0.939774 0.288089 -5.02183e-19)
(0.940031 0.278909 8.83614e-19)
(0.940991 0.26979 9.25049e-18)
(0.939106 0.264845 1.54708e-17)
(0.94511 0.253789 -6.83264e-18)
(0.938946 0.375712 -1.69153e-21)
(0.938839 0.375559 1.39226e-21)
(0.938714 0.375507 1.05092e-21)
(0.938579 0.375459 -7.3217e-21)
(0.938435 0.375397 7.58588e-21)
(0.938281 0.375335 -3.5912e-21)
(0.938115 0.375267 1.14259e-20)
(0.937938 0.375201 -1.67269e-20)
(0.937749 0.375132 1.25258e-21)
(0.937548 0.375062 1.4723e-21)
(0.937335 0.37499 -1.07625e-20)