/*--------------------------------*- C++ -*----------------------------------*\
  =========                 |
  \\      /  F ield         | OpenFOAM: The Open Source CFD Toolbox
   \\    /   O peration     | Website:  https://openfoam.org
    \\  /    A nd           | Version:  6.0
     \\/     M anipulation  |
\*---------------------------------------------------------------------------*/
FoamFile
{
    version     2.0;
    format      ascii;
    class       volVectorField;
    location    "0.38";
    object      U;
}
// * * * * * * * * * * * * * * * * * * * * * * * * * * * * * * * * * * * * * //

dimensions      [0 1 -1 0 0 0 0];

internalField   nonuniform List<vector> 
13500
(
(1 1.4451e-06 -4.5822e-18)
(1 -5.2313e-06 3.1014e-18)
(1 -5.2459e-06 -1.3304e-17)
(1 -1.2943e-05 -9.2484e-18)
(1 -5.5753e-06 1.727e-17)
(1 -1.481e-05 3.2615e-17)
(0.99999 7.0392e-06 2.7388e-17)
(1 -1.6678e-07 -4.5672e-18)
(0.99988 5.3426e-05 1.5955e-17)
(0.99981 7.2365e-05 3.6621e-18)
(0.99716 0.00047225 2.8247e-17)
(1.0152 0.011004 8.5676e-18)
(1 4.2289e-06 2.8388e-18)
(1 -1.558e-05 -9.4189e-18)
(1 -1.5327e-05 6.3531e-18)
(1 -3.9185e-05 -3.6503e-19)
(1 -1.4841e-05 -4.6058e-19)
(1 -4.7681e-05 -3.9218e-17)
(0.99997 2.7502e-05 -4.7301e-17)
(1 -1.3558e-05 -2.6135e-17)
(0.99964 0.00017842 -1.5924e-17)
(0.99971 0.0001743 -1.8103e-18)
(0.99156 0.0012387 -1.3377e-17)
(1.0407 0.030885 -5.1873e-18)
(1 6.8026e-06 -3.6666e-18)
(1 -2.6086e-05 1.8713e-17)
(1 -2.5821e-05 3.3044e-18)
(1 -6.6438e-05 1.0663e-17)
(1 -2.4096e-05 -3.9822e-18)
(1.0001 -8.4101e-05 3.1417e-17)
(0.99995 5.0355e-05 -6.6551e-18)
(1.0001 -3.8355e-05 5.9365e-18)
(0.9994 0.00031287 -1.9314e-17)
(0.99986 0.00027666 2.75e-17)
(0.98636 0.0016162 -7.0025e-18)
(1.0588 0.045103 1.8308e-18)
(1 9.1581e-06 9.5854e-18)
(1 -3.6774e-05 -1.8143e-17)
(1 -3.6961e-05 -1.5664e-17)
(1 -9.4564e-05 -7.4829e-19)
(1 -3.4238e-05 6.1469e-18)
(1.0001 -0.00012332 -8.7111e-19)
(0.99993 7.2701e-05 6.5593e-17)
(1.0001 -7.2816e-05 1.0698e-17)
(0.99915 0.00044806 2.2838e-17)
(1.0002 0.0003868 -9.9613e-18)
(0.98187 0.0016513 3.4136e-17)
(1.0686 0.055095 -8.3337e-18)
(1 1.1301e-05 -6.7352e-18)
(1 -4.7595e-05 1.568e-17)
(1 -4.8764e-05 1.3334e-17)
(1.0001 -0.00012334 1.3648e-17)
(1 -4.5691e-05 3.0138e-18)
(1.0001 -0.000165 2.3095e-17)
(0.99992 9.2658e-05 -2.929e-17)
(1.0002 -0.00011668 2.1741e-18)
(0.99891 0.00057747 -1.4e-17)
(1.0007 0.00050516 -2.3768e-18)
(0.97827 0.0014295 -8.8262e-18)
(1.0712 0.062138 2.3056e-18)
(1 1.3213e-05 6.816e-18)
(1 -5.8588e-05 -6.5005e-18)
(1 -6.1358e-05 4.0721e-18)
(1.0001 -0.00015291 -2.7036e-17)
(1 -5.8932e-05 -8.8499e-20)
(1.0002 -0.0002096 -4.5719e-17)
(0.99991 0.0001087 1.1232e-18)
(1.0003 -0.00017058 -1.7447e-17)
(0.99867 0.0006964 5.3317e-18)
(1.0013 0.00063282 -2.3949e-17)
(0.97565 0.0010365 -2.1347e-17)
(1.0682 0.066934 2.2377e-18)
(0.99999 1.4874e-05 -1.1283e-18)
(1 -6.9817e-05 -7.7746e-18)
(1 -7.4903e-05 -3.3096e-18)
(1.0001 -0.0001835 2.0407e-17)
(1.0001 -7.4528e-05 -2.7913e-17)
(1.0002 -0.00025777 1.7495e-17)
(0.9999 0.00011913 1.9586e-17)
(1.0004 -0.00023483 6.138e-18)
(0.99845 0.00080064 1.1916e-17)
(1.002 0.00077085 1.2893e-17)
(0.97397 0.00054867 9.2273e-18)
(1.0616 0.069976 3.6139e-18)
(0.99999 1.6257e-05 -2.3288e-18)
(1 -8.1373e-05 -1.5294e-18)
(1 -8.9611e-05 -2.8509e-17)
(1.0001 -0.0002154 -9.7447e-18)
(1.0001 -9.3202e-05 7.8133e-18)
(1.0003 -0.0003102 2.8673e-17)
(0.9999 0.00012205 1.2464e-17)
(1.0006 -0.00030914 5.4812e-18)
(0.99825 0.00088653 -7.7888e-18)
(1.0027 0.00091951 1.8063e-17)
(0.97313 2.845e-05 7.4841e-18)
(1.053 0.071669 -1.152e-17)
(0.99999 1.7325e-05 -7.2292e-18)
(1 -9.3375e-05 6.5753e-18)
(1 -0.00010575 4.7935e-17)
(1.0001 -0.00024903 -1.1689e-17)
(1.0001 -0.00011581 2.9256e-17)
(1.0003 -0.00036765 -5.661e-17)
(0.99991 0.00011557 -4.1524e-17)
(1.0007 -0.0003927 1.0652e-17)
(0.99808 0.00095147 -5.8494e-18)
(1.0033 0.0010784 -9.9609e-18)
(0.97296 -0.00047691 -1.3792e-17)
(1.044 0.072344 1.5096e-17)
(0.99999 1.8034e-05 4.7628e-18)
(1 -0.00010599 2.475e-18)
(1 -0.00012365 -4.0603e-17)
(1.0001 -0.00028486 1.6635e-17)
(1.0001 -0.00014329 -1.2758e-17)
(1.0004 -0.0004309 2.4145e-17)
(0.99993 9.806e-05 1.4755e-17)
(1.0009 -0.00048419 2.6939e-18)
(0.99795 0.00099429 5.518e-19)
(1.004 0.0012467 1.5809e-18)
(0.97331 -0.00093582 4.4129e-18)
(1.0354 0.072268 -7.7786e-19)
(0.99999 1.8325e-05 -2.6149e-18)
(1 -0.0001194 -8.117e-18)
(1 -0.0001437 9.953e-18)
(1.0001 -0.00032348 -2.9353e-18)
(1.0001 -0.00017659 1.9691e-18)
(1.0004 -0.00050064 -2.6463e-17)
(0.99996 6.8365e-05 -3.3981e-17)
(1.0011 -0.0005818 -3.4204e-17)
(0.99785 0.0010152 1.6349e-17)
(1.0045 0.0014234 2.0544e-18)
(0.97401 -0.0013307 -1.1189e-17)
(1.0278 0.071648 -6.5326e-18)
(0.99998 1.813e-05 3.6093e-18)
(1 -0.00013387 3.0659e-18)
(1 -0.00016632 4.7966e-18)
(1.0002 -0.00036552 -2.3393e-18)
(1.0001 -0.00021661 -5.9029e-18)
(1.0005 -0.00057739 1.0009e-17)
(1 2.5974e-05 1.967e-17)
(1.0013 -0.00068332 2.1131e-17)
(0.99778 0.0010158 1.0505e-17)
(1.005 0.0016075 -2.5913e-17)
(0.97494 -0.0016554 1.0923e-19)
(1.0216 0.070645 -7.5974e-18)
(0.99998 1.7372e-05 -3.6086e-18)
(1 -0.00014966 6.0292e-18)
(1 -0.00019196 8.6962e-18)
(1.0002 -0.00041161 6.108e-18)
(1.0002 -0.00026409 -5.4745e-18)
(1.0006 -0.00066135 4.9206e-18)
(1.0001 -2.8898e-05 4.4854e-18)
(1.0015 -0.00078624 -1.8869e-18)
(0.99774 0.00099863 -1.698e-17)
(1.0054 0.0017977 2.4036e-17)
(0.97598 -0.0019118 9.7786e-20)
(1.0167 0.069381 1.6115e-18)
(0.99997 1.5964e-05 5.4876e-18)
(1 -0.00016705 -4.7063e-18)
(1.0001 -0.00022107 7.6114e-19)
(1.0002 -0.0004623 -5.0955e-18)
(1.0002 -0.0003195 1.2433e-17)
(1.0007 -0.00075233 6.0043e-18)
(1.0001 -9.5286e-05 1.8045e-17)
(1.0017 -0.00088793 -7.0102e-18)
(0.99774 0.0009668 -2.0826e-19)
(1.0058 0.0019926 5.911e-18)
(0.97706 -0.0021066 1.7086e-17)
(1.013 0.06795 1.0278e-18)
(0.99997 1.3822e-05 1.3235e-18)
(1 -0.00018632 1.0445e-17)
(1.0001 -0.00025403 1.4541e-17)
(1.0002 -0.00051803 -5.0806e-18)
(1.0002 -0.00038298 9.0019e-18)
(1.0007 -0.00084968 -2.8029e-18)
(1.0002 -0.00017154 -3.1603e-17)
(1.0019 -0.00098581 2.219e-17)
(0.99775 0.00092377 -1.9153e-17)
(1.0061 0.0021907 -3.4081e-17)
(0.97814 -0.0022493 -3.7405e-18)
(1.0104 0.06642 9.5541e-19)
(0.99997 1.0867e-05 -3.3765e-18)
(1 -0.0002077 -1.1108e-17)
(1.0001 -0.0002911 -3.4902e-17)
(1.0003 -0.00057899 8.5594e-18)
(1.0003 -0.00045427 -1.3661e-17)
(1.0008 -0.00095232 8.9879e-18)
(1.0003 -0.00025548 -2.956e-18)
(1.0021 -0.0010776 -1.3358e-17)
(0.99778 0.0008729 4.2025e-18)
(1.0064 0.0023905 2.0355e-17)
(0.97918 -0.0023499 -7.8838e-18)
(1.0086 0.064839 1.3449e-17)
(0.99996 7.0341e-06 3.5526e-19)
(1 -0.00023137 8.3078e-18)
(1.0001 -0.00033241 2.4096e-17)
(1.0003 -0.00064514 -1.9278e-18)
(1.0003 -0.00053268 -1.3571e-17)
(1.0009 -0.0010588 -1.6749e-17)
(1.0004 -0.00034459 1.1294e-17)
(1.0023 -0.0011613 7.6618e-18)
(0.99783 0.00081718 2.431e-17)
(1.0066 0.0025904 -2.8524e-18)
(0.98019 -0.0024178 1.9659e-18)
(1.0074 0.06324 -5.3636e-18)
(0.99996 2.2842e-06 -1.9932e-18)
(1 -0.00025742 -1.0066e-17)
(1.0001 -0.00037792 -1.0873e-17)
(1.0003 -0.00071613 6.4421e-18)
(1.0004 -0.00061712 -7.6209e-18)
(1.001 -0.0011672 -1.3435e-17)
(1.0004 -0.00043622 1.0978e-17)
(1.0025 -0.0012354 -5.1976e-18)
(0.99788 0.00075913 -3.0094e-17)
(1.0068 0.0027889 -1.5992e-17)
(0.98114 -0.002461 8.5343e-18)
(1.0066 0.061648 -5.8365e-18)
(0.99995 -3.3927e-06 -2.854e-18)
(1 -0.00028582 -3.8046e-18)
(1.0001 -0.00042735 -8.058e-19)
(1.0003 -0.00079132 -2.821e-17)
(1.0004 -0.00070619 6.3951e-18)
(1.0011 -0.0012758 5.8501e-18)
(1.0005 -0.00052783 -2.0861e-17)
(1.0027 -0.0012992 -1.7749e-17)
(0.99794 0.00070067 4.3977e-18)
(1.0069 0.0029846 -1.208e-18)
(0.98205 -0.0024863 -9.8486e-18)
(1.0062 0.060075 1.1034e-18)
(0.99994 -9.9702e-06 3.7122e-18)
(1 -0.00031642 1.7441e-17)
(1.0001 -0.00048024 2.0747e-17)
(1.0004 -0.00086979 2.6565e-18)
(1.0005 -0.00079821 1.7677e-17)
(1.0012 -0.0013826 1.0253e-17)
(1.0006 -0.00061716 3.0115e-18)
(1.0028 -0.0013522 1.9426e-17)
(0.99799 0.00064314 2.1875e-17)
(1.0071 0.0031763 1.9101e-17)
(0.98291 -0.0024987 7.3651e-18)
(1.0059 0.058531 1.3127e-18)
(0.99993 -1.7384e-05 -1.7694e-18)
(1 -0.00034896 -4.1848e-18)
(1.0001 -0.00053594 -2.2104e-17)
(1.0004 -0.00095044 -2.5155e-18)
(1.0005 -0.00089142 -1.3397e-17)
(1.0013 -0.0014856 -5.5478e-18)
(1.0007 -0.00070233 -1.9317e-18)
(1.003 -0.0013946 -1.7568e-17)
(0.99805 0.00058736 -2.0927e-17)
(1.0072 0.0033628 9.7945e-18)
(0.98374 -0.0025021 5.1178e-19)
(1.0058 0.057022 7.5524e-19)
(0.99993 -2.5534e-05 4.69e-18)
(1 -0.00038306 -5.4672e-18)
(1.0001 -0.00059365 -2.0731e-17)
(1.0004 -0.001032 4.7822e-17)
(1.0006 -0.00098405 1.9433e-17)
(1.0014 -0.0015834 -1.3575e-17)
(1.0008 -0.00078197 2.5977e-17)
(1.0031 -0.0014269 2.3744e-17)
(0.99811 0.00053373 3.3963e-17)
(1.0073 0.0035434 -3.5907e-17)
(0.98453 -0.0024992 -1.3534e-17)
(1.0058 0.055548 2.0051e-19)
(0.99992 -3.4289e-05 -3.4329e-18)
(0.99999 -0.00041828 -1.0971e-18)
(1.0001 -0.00065248 3.5392e-17)
(1.0005 -0.0011132 -3.615e-17)
(1.0006 -0.0010744 -1.8708e-18)
(1.0014 -0.0016748 4.498e-17)
(1.0008 -0.00085519 8.0499e-18)
(1.0032 -0.0014499 -3.6671e-18)
(0.99817 0.00048232 -2.1068e-17)
(1.0073 0.0037172 4.232e-17)
(0.9853 -0.0024919 -5.743e-18)
(1.0057 0.054113 -3.1709e-19)
(0.99991 -4.3493e-05 -1.75e-18)
(0.99999 -0.00045408 -2.186e-18)
(1.0001 -0.00071148 1.8426e-18)
(1.0005 -0.0011928 3.7608e-17)
(1.0006 -0.0011611 -1.0546e-17)
(1.0015 -0.0017587 -3.3247e-17)
(1.0009 -0.00092158 -2.0525e-17)
(1.0033 -0.0014647 -3.9486e-18)
(0.99823 0.000433 6.6648e-18)
(1.0074 0.0038837 -3.5707e-17)
(0.98604 -0.0024814 9.6149e-18)
(1.0058 0.052714 3.4406e-18)
(0.9999 -5.2976e-05 2.892e-18)
(0.99998 -0.00048995 1.5215e-17)
(1.0001 -0.00076973 -1.3592e-17)
(1.0005 -0.0012697 -3.938e-18)
(1.0007 -0.001243 -2.0239e-17)
(1.0016 -0.0018349 3.6171e-17)
(1.0009 -0.00098112 -1.8016e-17)
(1.0034 -0.0014724 1.6375e-17)
(0.99829 0.00038549 -2.0545e-18)
(1.0075 0.0040426 3.3478e-17)
(0.98676 -0.0024685 -9.3923e-18)
(1.0058 0.051352 -5.7402e-18)
(0.99988 -6.2564e-05 -5.5466e-19)
(0.99998 -0.00052535 -8.7505e-18)
(1.0001 -0.00082638 -1.9031e-17)
(1.0005 -0.0013429 -1.079e-17)
(1.0007 -0.0013193 1.9631e-17)
(1.0016 -0.0019031 -4.6124e-17)
(1.001 -0.0010341 -2.7795e-18)
(1.0034 -0.0014742 -2.2124e-17)
(0.99834 0.00033946 3.3207e-18)
(1.0075 0.0041936 -9.6567e-18)
(0.98746 -0.0024538 9.9987e-18)
(1.0058 0.050026 2.4368e-18)
(0.99987 -7.2089e-05 2.9055e-18)
(0.99997 -0.0005598 -9.3731e-18)
(1.0001 -0.0008807 -1.8798e-18)
(1.0005 -0.0014116 2.6218e-18)
(1.0007 -0.0013894 6.2129e-18)
(1.0017 -0.0019635 1.3328e-17)
(1.001 -0.0010812 4.5577e-17)
(1.0035 -0.0014712 2.6441e-18)
(0.9984 0.00029455 5.4148e-18)
(1.0076 0.0043366 1.0642e-17)
(0.98814 -0.0024375 -8.5604e-18)
(1.0058 0.048734 1.8738e-18)
(0.99986 -8.1399e-05 -1.6661e-18)
(0.99996 -0.00059287 9.3644e-18)
(1.0001 -0.00093209 2.7051e-17)
(1.0006 -0.0014754 -2.6417e-17)
(1.0008 -0.0014532 -9.664e-18)
(1.0017 -0.0020166 -2.3454e-18)
(1.001 -0.0011229 -1.5023e-17)
(1.0036 -0.0014644 2.0512e-18)
(0.99846 0.00025045 -9.3801e-18)
(1.0076 0.0044714 -3.9123e-18)
(0.9888 -0.0024199 -2.4726e-19)
(1.0059 0.047475 -2.288e-18)
(0.99984 -9.036e-05 -1.7906e-18)
(0.99995 -0.00062423 5.605e-18)
(1.0001 -0.00098014 -6.5439e-19)
(1.0006 -0.0015339 8.7596e-18)
(1.0008 -0.0015106 -1.783e-17)
(1.0018 -0.0020631 2.6536e-17)
(1.001 -0.0011602 7.4926e-18)
(1.0036 -0.0014547 -1.9572e-17)
(0.99852 0.00020687 -1.2037e-17)
(1.0077 0.0045983 -1.5483e-17)
(0.98944 -0.0024011 1.353e-18)
(1.0059 0.046248 -4.1958e-18)
(0.99983 -9.8867e-05 6.2225e-19)
(0.99994 -0.00065363 -1.3386e-17)
(1.0001 -0.0010246 1.675e-17)
(1.0006 -0.0015873 2.4227e-17)
(1.0008 -0.0015622 3.4948e-17)
(1.0018 -0.0021036 -1.9488e-17)
(1.0011 -0.0011938 -1.8629e-17)
(1.0037 -0.001443 3.9711e-18)
(0.99858 0.00016358 1.1277e-17)
(1.0077 0.0047171 1.2116e-17)
(0.99007 -0.0023812 6.3249e-18)
(1.0059 0.045053 4.1706e-18)
(0.99981 -0.00010684 1.1925e-18)
(0.99993 -0.00068092 1.0644e-17)
(1.0001 -0.0010653 -3.8483e-17)
(1.0006 -0.0016355 -3.5106e-18)
(1.0008 -0.0016082 -2.9031e-17)
(1.0018 -0.002139 -1.2276e-17)
(1.0011 -0.0012243 2.6347e-20)
(1.0037 -0.0014299 -4.5433e-18)
(0.99864 0.00012039 -2.2239e-17)
(1.0078 0.004828 -1.9341e-17)
(0.99068 -0.0023601 -8.6539e-18)
(1.0059 0.043887 -2.0571e-18)
(0.9998 -0.00011424 -7.7289e-19)
(0.99992 -0.00070603 -6.9224e-18)
(1.0001 -0.0011024 3.0279e-17)
(1.0006 -0.0016789 -3.3494e-17)
(1.0008 -0.0016492 -2.1828e-18)
(1.0018 -0.0021701 2.6142e-17)
(1.0011 -0.0012526 7.4542e-19)
(1.0038 -0.001416 4.3322e-18)
(0.99871 7.7163e-05 1.9468e-17)
(1.0078 0.0049312 2.5136e-17)
(0.99128 -0.0023381 4.9471e-18)
(1.006 0.042751 -1.1482e-18)
(0.99978 -0.00012104 -2.012e-18)
(0.99991 -0.00072898 -2.5527e-18)
(1.0001 -0.001136 -1.3423e-17)
(1.0006 -0.0017178 1.6686e-17)
(1.0008 -0.001686 3.1904e-17)
(1.0019 -0.0021976 -1.1553e-17)
(1.0011 -0.0012792 2.32e-17)
(1.0038 -0.0014016 3.2473e-18)
(0.99877 3.3786e-05 -2.2091e-18)
(1.0078 0.0050268 1.1361e-17)
(0.99186 -0.0023151 -5.5451e-18)
(1.006 0.041643 -8.0032e-19)
(0.99976 -0.00012724 5.032e-19)
(0.99989 -0.00074985 -6.7507e-18)
(1.0001 -0.0011662 5.0245e-18)
(1.0006 -0.0017528 -1.7005e-17)
(1.0008 -0.0017191 -3.3745e-17)
(1.0019 -0.0022222 7.2811e-18)
(1.0011 -0.0013047 -3.3469e-17)
(1.0039 -0.0013871 -7.4263e-18)
(0.99884 -9.8092e-06 7.1607e-18)
(1.0079 0.0051149 -3.567e-17)
(0.99243 -0.0022912 3.7893e-18)
(1.006 0.040563 2.2607e-18)
(0.99974 -0.00013286 8.8362e-19)
(0.99988 -0.00076877 1.829e-17)
(1.0001 -0.0011935 8.4127e-18)
(1.0006 -0.0017843 6.927e-18)
(1.0008 -0.0017491 2.6983e-17)
(1.0019 -0.0022446 2.1708e-18)
(1.0011 -0.0013294 2.3111e-17)
(1.0039 -0.0013728 5.3257e-18)
(0.99891 -5.3672e-05 -2.178e-17)
(1.0079 0.0051958 1.2277e-17)
(0.99298 -0.0022665 2.5649e-18)
(1.006 0.039509 2.3439e-18)
(0.99972 -0.00013794 -3.0853e-18)
(0.99986 -0.00078593 -6.0203e-18)
(1.0001 -0.0012182 -7.3915e-18)
(1.0006 -0.0018128 1.1376e-17)
(1.0008 -0.0017766 1.3035e-17)
(1.0019 -0.0022652 -4.3231e-18)
(1.0011 -0.0013537 -1.9413e-17)
(1.004 -0.001359 2.4252e-17)
(0.99898 -9.7831e-05 4.0263e-18)
(1.0079 0.0052697 -3.7062e-18)
(0.99352 -0.002241 1.064e-17)
(1.0061 0.038481 -1.6283e-18)
(0.9997 -0.00014252 6.3396e-18)
(0.99984 -0.0008015 7.2094e-18)
(1.0001 -0.0012406 -7.8569e-18)
(1.0006 -0.0018389 -7.0859e-18)
(1.0008 -0.0018022 -1.8705e-17)
(1.0019 -0.0022847 -7.4254e-18)
(1.0012 -0.0013779 9.5715e-18)
(1.004 -0.0013457 -3.8901e-17)
(0.99905 -0.0001423 9.8751e-18)
(1.008 0.0053366 -4.3781e-18)
(0.99404 -0.0022147 -1.1276e-17)
(1.0061 0.037478 4.7301e-18)
(0.99968 -0.00014667 -2.798e-18)
(0.99983 -0.00081569 -1.2667e-17)
(1.0001 -0.001261 -7.6145e-18)
(1.0006 -0.0018629 -1.3446e-17)
(1.0008 -0.0018263 -5.711e-18)
(1.0019 -0.0023032 2.1832e-17)
(1.0012 -0.0014022 -9.4027e-18)
(1.0041 -0.0013331 4.3276e-17)
(0.99913 -0.00018709 9.3179e-18)
(1.008 0.0053967 1.3286e-17)
(0.99455 -0.0021879 4.7562e-18)
(1.0061 0.036501 -7.6698e-18)
(0.99966 -0.00015043 -1.4841e-18)
(0.99981 -0.0008287 9.4198e-18)
(1.0001 -0.0012798 1.5086e-17)
(1.0006 -0.0018853 3.6254e-17)
(1.0008 -0.0018493 7.5699e-18)
(1.002 -0.0023212 -1.4975e-17)
(1.0012 -0.0014267 4.5376e-18)
(1.0041 -0.0013212 -4.6559e-17)
(0.99921 -0.00023221 -1.1309e-17)
(1.008 0.0054503 -7.3846e-18)
(0.99505 -0.0021604 4.6772e-18)
(1.0062 0.035547 7.7128e-18)
(0.99964 -0.00015387 1.1357e-18)
(0.99979 -0.00084073 2.2298e-18)
(1 -0.0012974 -1.4816e-17)
(1.0006 -0.0019065 -6.0388e-18)
(1.0008 -0.0018716 9.6113e-18)
(1.002 -0.0023388 1.7924e-17)
(1.0012 -0.0014517 1.5779e-17)
(1.0042 -0.0013103 4.6081e-18)
(0.99929 -0.00027763 1.2656e-17)
(1.0081 0.0054975 -3.4182e-18)
(0.99554 -0.0021325 -8.3508e-18)
(1.0062 0.034616 -1.9885e-18)
(0.99962 -0.00015703 -4.6515e-20)
(0.99977 -0.00085195 2.5412e-18)
(1 -0.0013139 3.3112e-18)
(1.0006 -0.0019267 -7.8393e-18)
(1.0008 -0.0018934 8.9252e-20)
(1.002 -0.0023563 -1.6251e-17)
(1.0012 -0.0014771 -1.0673e-17)
(1.0042 -0.0013002 3.4095e-17)
(0.99937 -0.00032337 -1.9136e-17)
(1.0081 0.0055385 1.3275e-17)
(0.99601 -0.0021042 4.415e-18)
(1.0062 0.033708 -5.6146e-18)
(0.9996 -0.00015997 -3.5176e-18)
(0.99975 -0.00086253 -1.1919e-17)
(1 -0.0013296 8.4532e-18)
(1.0006 -0.0019462 -2.1409e-17)
(1.0008 -0.0019149 -2.4306e-17)
(1.002 -0.0023739 -2.245e-17)
(1.0012 -0.001503 -2.1754e-17)
(1.0042 -0.0012911 -3.4918e-18)
(0.99945 -0.0003694 1.6727e-17)
(1.0081 0.0055735 -1.1382e-17)
(0.99647 -0.0020755 4.4175e-19)
(1.0063 0.032823 5.2886e-18)
(0.99958 -0.00016273 6.7893e-18)
(0.99973 -0.0008726 1.2455e-17)
(0.99999 -0.0013447 -1.3633e-17)
(1.0005 -0.0019653 1.7577e-17)
(1.0008 -0.0019363 -2.8499e-18)
(1.002 -0.0023915 1.4715e-17)
(1.0012 -0.0015296 2.6148e-17)
(1.0043 -0.0012831 -2.6448e-17)
(0.99953 -0.00041573 -8.4862e-18)
(1.0081 0.0056025 1.2012e-17)
(0.99692 -0.0020465 3.8298e-18)
(1.0063 0.031959 -2.5004e-18)
(0.99955 -0.00016536 -5.0943e-18)
(0.99971 -0.0008823 -3.6812e-18)
(0.99997 -0.0013595 -2.8502e-18)
(1.0005 -0.0019841 2.0111e-17)
(1.0008 -0.0019578 -6.1013e-18)
(1.002 -0.0024094 -1.8641e-19)
(1.0012 -0.0015568 -5.1167e-18)
(1.0043 -0.001276 2.1185e-17)
(0.99962 -0.00046234 -8.0641e-18)
(1.0082 0.0056259 -8.2479e-18)
(0.99736 -0.0020174 -1.1324e-17)
(1.0064 0.031116 2.9063e-18)
(0.99953 -0.00016788 3.4628e-18)
(0.99969 -0.00089172 -4.6674e-18)
(0.99996 -0.0013739 6.5253e-18)
(1.0005 -0.0020028 -3.0514e-17)
(1.0008 -0.0019794 4.1337e-17)
(1.002 -0.0024276 6.0964e-18)
(1.0012 -0.0015847 2.019e-17)
(1.0044 -0.0012701 -1.3109e-17)
(0.9997 -0.00050923 1.0113e-19)
(1.0082 0.0056436 6.1276e-18)
(0.99779 -0.0019881 -2.2153e-18)
(1.0064 0.030294 -1.0938e-18)
(0.99951 -0.00017033 -9.9062e-19)
(0.99967 -0.00090096 9.1226e-19)
(0.99994 -0.0013883 1.5898e-17)
(1.0005 -0.0020214 8.3188e-18)
(1.0008 -0.0020013 -2.0665e-17)
(1.002 -0.0024461 -1.1941e-17)
(1.0013 -0.0016132 3.5265e-18)
(1.0044 -0.0012652 -6.3722e-18)
(0.99979 -0.00055639 1.3492e-17)
(1.0082 0.0056559 -4.0242e-18)
(0.9982 -0.0019588 1.0625e-17)
(1.0065 0.029492 -3.9862e-18)
(0.99949 -0.00017274 -1.7242e-18)
(0.99965 -0.00091008 -8.7939e-18)
(0.99992 -0.0014026 -4.7271e-18)
(1.0005 -0.00204 3.3404e-17)
(1.0008 -0.0020235 -1.8411e-17)
(1.002 -0.002465 -1.0112e-18)
(1.0013 -0.0016425 -5.2723e-17)
(1.0044 -0.0012615 6.2647e-18)
(0.99988 -0.00060381 -2.525e-17)
(1.0082 0.005663 -8.679e-18)
(0.99861 -0.0019296 -1.0647e-17)
(1.0065 0.02871 2.368e-18)
(0.99946 -0.00017511 -7.4431e-19)
(0.99963 -0.00091915 5.4482e-18)
(0.9999 -0.0014169 -1.9514e-18)
(1.0005 -0.0020588 -1.945e-17)
(1.0008 -0.0020461 2.6457e-17)
(1.002 -0.0024843 -2.486e-18)
(1.0013 -0.0016724 2.7928e-17)
(1.0045 -0.001259 -3.8501e-18)
(0.99997 -0.00065148 1.2255e-17)
(1.0082 0.0056649 1.0851e-17)
(0.999 -0.0019004 8.7857e-18)
(1.0066 0.027947 -5.7109e-19)
(0.99944 -0.00017748 4.2193e-18)
(0.9996 -0.00092821 -3.2595e-18)
(0.99988 -0.0014312 -6.8258e-18)
(1.0005 -0.0020778 2.1227e-17)
(1.0008 -0.0020691 1.9418e-18)
(1.0021 -0.0025041 3.0823e-17)
(1.0013 -0.0017031 4.8181e-18)
(1.0045 -0.0012576 1.8396e-17)
(1.0001 -0.00069941 4.5973e-18)
(1.0083 0.0056619 -3.5109e-18)
(0.99939 -0.0018714 1.1466e-18)
(1.0067 0.027203 5.187e-19)
(0.99941 -0.00017984 1.203e-18)
(0.99958 -0.00093729 1.3328e-18)
(0.99986 -0.0014458 -6.1893e-18)
(1.0005 -0.002097 -4.2272e-17)
(1.0007 -0.0020925 5.8796e-18)
(1.0021 -0.0025243 2.6725e-18)
(1.0013 -0.0017345 -2.0893e-17)
(1.0046 -0.0012573 2.5846e-19)
(1.0002 -0.00074759 1.3564e-17)
(1.0083 0.005654 -2.255e-18)
(0.99976 -0.0018426 -5.5849e-18)
(1.0067 0.026476 3.0486e-18)
(0.99939 -0.00018222 -5.1516e-18)
(0.99956 -0.00094643 5.6486e-18)
(0.99984 -0.0014604 1.0206e-18)
(1.0005 -0.0021164 2.3473e-17)
(1.0007 -0.0021163 -2.6821e-17)
(1.0021 -0.002545 -1.1807e-17)
(1.0013 -0.0017666 2.1369e-17)
(1.0046 -0.0012584 -1.2458e-17)
(1.0002 -0.00079601 -2.1455e-17)
(1.0083 0.0056414 -1.1132e-17)
(1.0001 -0.0018141 7.1194e-18)
(1.0068 0.025768 1.0143e-18)
(0.99936 -0.00018462 -5.4508e-19)
(0.99953 -0.00095566 -5.6839e-18)
(0.99982 -0.0014753 1.0866e-17)
(1.0004 -0.0021361 1.0407e-17)
(1.0007 -0.0021407 3.3127e-17)
(1.0021 -0.0025662 4.535e-18)
(1.0013 -0.0017995 1.8983e-17)
(1.0046 -0.0012606 3.158e-17)
(1.0003 -0.00084468 -9.5467e-19)
(1.0083 0.0056243 1.9579e-17)
(1.0005 -0.001786 -7.5137e-19)
(1.0068 0.025077 -2.9639e-18)
(0.99934 -0.00018705 5.2834e-18)
(0.99951 -0.00096498 -8.2749e-18)
(0.9998 -0.0014904 -1.6493e-17)
(1.0004 -0.0021562 -2.7666e-18)
(1.0007 -0.0021655 -3.5954e-17)
(1.0021 -0.0025879 -1.3496e-17)
(1.0014 -0.0018331 -6.588e-18)
(1.0047 -0.0012641 2.3358e-19)
(1.0004 -0.00089359 2.7936e-17)
(1.0084 0.0056027 4.5036e-18)
(1.0008 -0.0017582 -9.8018e-18)
(1.0069 0.024403 1.775e-18)
(0.99931 -0.00018951 -5.9231e-18)
(0.99949 -0.00097441 1.0337e-17)
(0.99978 -0.0015057 8.6334e-18)
(1.0004 -0.0021765 -5.5123e-18)
(1.0007 -0.0021908 2.8914e-17)
(1.0021 -0.0026102 1.6144e-17)
(1.0014 -0.0018675 -5.2083e-18)
(1.0047 -0.0012688 -3.1819e-17)
(1.0005 -0.00094275 -9.4685e-19)
(1.0084 0.0055768 -1.2882e-17)
(1.0012 -0.001731 1.1613e-17)
(1.007 0.023746 -2.3243e-18)
(0.99929 -0.00019201 3.5591e-18)
(0.99946 -0.00098396 -1.9779e-18)
(0.99976 -0.0015213 1.1431e-17)
(1.0004 -0.0021972 -2.3189e-17)
(1.0007 -0.0022166 9.4411e-18)
(1.0021 -0.002633 -5.7999e-18)
(1.0014 -0.0019026 -1.1224e-17)
(1.0047 -0.0012749 -2.5525e-18)
(1.0006 -0.00099215 -3.3745e-17)
(1.0084 0.0055467 8.4912e-18)
(1.0015 -0.0017043 -1.0652e-17)
(1.0071 0.023105 7.7484e-19)
(0.99926 -0.00019455 2.8137e-19)
(0.99944 -0.00099365 -6.222e-18)
(0.99974 -0.0015372 6.4909e-18)
(1.0004 -0.0022182 3.052e-17)
(1.0007 -0.002243 -2.2486e-17)
(1.0021 -0.0026564 1.8655e-17)
(1.0014 -0.0019385 -6.4908e-18)
(1.0048 -0.0012822 5.9136e-18)
(1.0007 -0.0010418 4.0101e-17)
(1.0084 0.0055126 -1.5757e-17)
(1.0018 -0.0016782 1.6301e-17)
(1.0071 0.022479 2.1884e-18)
(0.99923 -0.00019713 5.0501e-19)
(0.99941 -0.0010035 -1.2875e-18)
(0.99971 -0.0015533 -9.3385e-18)
(1.0004 -0.0022396 -4.5949e-18)
(1.0007 -0.0022699 1.9598e-17)
(1.0021 -0.0026803 1.475e-19)
(1.0014 -0.0019751 -1.276e-17)
(1.0048 -0.0012909 -1.4112e-17)
(1.0008 -0.0010917 -1.6791e-17)
(1.0084 0.0054745 -1.4823e-18)
(1.0021 -0.0016527 3.0036e-18)
(1.0072 0.021869 2.2735e-19)
(0.9992 -0.00019976 -8.1273e-19)
(0.99939 -0.0010134 1.5324e-17)
(0.99969 -0.0015697 -6.2284e-18)
(1.0004 -0.0022613 -2.5964e-17)
(1.0007 -0.0022973 9.0349e-18)
(1.0021 -0.0027048 -4.7529e-17)
(1.0014 -0.0020125 6.3639e-18)
(1.0048 -0.0013009 8.8877e-18)
(1.0009 -0.0011419 7.7985e-19)
(1.0084 0.0054326 1.5988e-17)
(1.0024 -0.0016279 -9.834e-19)
(1.0073 0.021274 -6.1096e-18)
(0.99918 -0.00020243 -2.1458e-19)
(0.99936 -0.0010236 -3.0078e-19)
(0.99967 -0.0015864 8.3843e-18)
(1.0003 -0.0022834 1.6029e-17)
(1.0007 -0.0023253 -3.5899e-17)
(1.0021 -0.0027299 2.0536e-18)
(1.0015 -0.0020507 1.1402e-17)
(1.0049 -0.0013123 1.3914e-17)
(1.001 -0.0011923 -1.0633e-17)
(1.0085 0.005387 -1.5557e-17)
(1.0027 -0.0016038 -1.623e-17)
(1.0074 0.020693 6.4469e-18)
(0.99915 -0.00020516 -1.4039e-18)
(0.99934 -0.0010339 4.2813e-19)
(0.99965 -0.0016034 -4.0426e-18)
(1.0003 -0.0023059 -1.0702e-17)
(1.0007 -0.0023539 1.99e-17)
(1.0021 -0.0027557 2.5509e-17)
(1.0015 -0.0020897 3.3261e-18)
(1.0049 -0.001325 7.0485e-18)
(1.0011 -0.001243 1.6959e-17)
(1.0085 0.0053378 2.6205e-18)
(1.003 -0.0015805 1.202e-17)
(1.0075 0.020127 -3.9107e-18)
(0.99912 -0.00020793 2.584e-18)
(0.99931 -0.0010443 7.8937e-19)
(0.99962 -0.0016207 -5.777e-18)
(1.0003 -0.0023287 1.5809e-18)
(1.0007 -0.002383 -1.0789e-17)
(1.0022 -0.002782 -6.1189e-18)
(1.0015 -0.0021294 -1.2287e-18)
(1.0049 -0.0013392 -3.1824e-17)
(1.0012 -0.001294 3.3338e-18)
(1.0085 0.0052851 -5.299e-18)
(1.0033 -0.001558 -4.8882e-18)
(1.0075 0.019575 -4.7059e-18)
(0.99909 -0.00021076 -5.2733e-18)
(0.99928 -0.0010549 1.0313e-18)
(0.9996 -0.0016382 3.0642e-18)
(1.0003 -0.002352 -1.9864e-17)
(1.0006 -0.0024127 -1.23e-17)
(1.0022 -0.0028091 -2.8404e-17)
(1.0015 -0.0021699 5.9341e-18)
(1.005 -0.0013547 1.2996e-17)
(1.0013 -0.0013452 -3.5738e-17)
(1.0085 0.005229 2.4443e-17)
(1.0036 -0.0015364 -5.3007e-18)
(1.0076 0.019036 3.0371e-18)
(0.99906 -0.00021364 4.8405e-18)
(0.99925 -0.0010657 2.3079e-18)
(0.99957 -0.0016562 1.1785e-18)
(1.0003 -0.0023757 6.3009e-18)
(1.0006 -0.0024431 -2.7166e-18)
(1.0022 -0.0028367 5.5052e-17)
(1.0015 -0.0022113 2.1308e-17)
(1.005 -0.0013716 -2.02e-17)
(1.0014 -0.0013968 3.4403e-17)
(1.0086 0.0051696 -9.1193e-18)
(1.0038 -0.0015157 -3.5059e-18)
(1.0077 0.01851 -1.5094e-18)
(0.99903 -0.00021657 1.1872e-18)
(0.99923 -0.0010766 -1.4615e-17)
(0.99955 -0.0016744 2.3584e-18)
(1.0003 -0.0023997 2.8292e-17)
(1.0006 -0.002474 2.1025e-17)
(1.0022 -0.002865 -8.9057e-19)
(1.0016 -0.0022534 -2.9518e-17)
(1.005 -0.00139 6.1222e-18)
(1.0015 -0.0014486 -7.7613e-18)
(1.0086 0.005107 -1.2608e-17)
(1.0041 -0.001496 8.9128e-18)
(1.0078 0.017997 1.4111e-18)
(0.999 -0.00021956 -4.6959e-18)
(0.9992 -0.0010877 -4.8719e-18)
(0.99953 -0.0016929 -1.2775e-17)
(1.0003 -0.0024242 -2.3727e-17)
(1.0006 -0.0025055 -2.1156e-17)
(1.0022 -0.0028941 -2.5016e-17)
(1.0016 -0.0022964 5.4524e-18)
(1.0051 -0.0014098 4.7541e-17)
(1.0016 -0.0015007 3.3858e-18)
(1.0086 0.0050414 -1.0957e-18)
(1.0043 -0.0014772 -3.1505e-18)
(1.0079 0.017497 -3.7777e-18)
(0.99897 -0.0002226 3.4845e-18)
(0.99917 -0.001099 4.5261e-18)
(0.9995 -0.0017118 1.9687e-17)
(1.0002 -0.0024492 1.6432e-17)
(1.0006 -0.0025376 2.0582e-17)
(1.0022 -0.0029238 -9.3007e-19)
(1.0016 -0.0023401 -3.0381e-17)
(1.0051 -0.001431 -2.5693e-17)
(1.0017 -0.0015532 8.4084e-18)
(1.0086 0.0049727 4.3644e-18)
(1.0046 -0.0014595 7.1196e-18)
(1.008 0.017009 2.9242e-18)
(0.99894 -0.00022571 -2.4607e-18)
(0.99914 -0.0011105 7.0997e-18)
(0.99947 -0.0017311 -1.3025e-17)
(1.0002 -0.0024745 2.3778e-18)
(1.0006 -0.0025704 9.5699e-18)
(1.0022 -0.0029542 -2.4451e-18)
(1.0016 -0.0023848 6.8191e-18)
(1.0051 -0.0014537 7.1316e-18)
(1.0018 -0.001606 2.7736e-18)
(1.0086 0.0049011 1.0774e-17)
(1.0048 -0.0014428 -8.5666e-18)
(1.0081 0.016533 5.9177e-19)
(0.99891 -0.00022887 3.7152e-18)
(0.99911 -0.0011222 4.3999e-19)
(0.99945 -0.0017507 -6.0968e-18)
(1.0002 -0.0025004 9.4637e-19)
(1.0006 -0.0026038 -1.5723e-18)
(1.0022 -0.0029854 -2.4152e-17)
(1.0016 -0.0024302 1.9048e-17)
(1.0052 -0.0014779 2.5302e-17)
(1.0019 -0.0016592 -1.378e-17)
(1.0087 0.0048268 -1.4983e-17)
(1.0051 -0.0014272 -2.5123e-18)
(1.0082 0.016069 5.0137e-18)
(0.99887 -0.00023209 -2.6988e-18)
(0.99908 -0.001134 -3.3886e-19)
(0.99942 -0.0017706 7.5804e-18)
(1.0002 -0.0025266 -1.8182e-17)
(1.0006 -0.0026379 -1.4216e-17)
(1.0022 -0.0030173 3.0492e-17)
(1.0017 -0.0024765 -2.9135e-18)
(1.0052 -0.0015036 -2.6793e-17)
(1.002 -0.0017127 3.5151e-18)
(1.0087 0.0047496 1.4103e-17)
(1.0053 -0.0014127 8.5115e-18)
(1.0083 0.015616 -1.8076e-18)
(0.99884 -0.00023537 2.6817e-19)
(0.99905 -0.001146 2.4819e-18)
(0.9994 -0.0017909 4.1419e-18)
(1.0002 -0.0025534 9.3989e-18)
(1.0006 -0.0026726 2.7865e-17)
(1.0022 -0.00305 7.1082e-18)
(1.0017 -0.0025236 -2.5376e-17)
(1.0052 -0.0015308 2.5081e-18)
(1.0021 -0.0017666 9.0593e-18)
(1.0087 0.0046699 -1.2698e-17)
(1.0055 -0.0013994 -5.7615e-18)
(1.0083 0.015174 -2.0873e-18)
(0.99881 -0.00023872 7.614e-19)
(0.99902 -0.0011583 -4.318e-19)
(0.99937 -0.0018115 -1.0928e-17)
(1.0001 -0.0025806 -2.0214e-19)
(1.0006 -0.002708 -5.5092e-17)
(1.0022 -0.0030834 8.7629e-18)
(1.0017 -0.0025716 2.4926e-17)
(1.0053 -0.0015596 -7.2096e-18)
(1.0023 -0.0018209 -9.4828e-18)
(1.0087 0.0045876 2.1077e-17)
(1.0057 -0.0013873 6.9061e-18)
(1.0084 0.014742 5.4058e-18)
(0.99877 -0.00024213 8.1786e-19)
(0.99899 -0.0011707 -8.9586e-19)
(0.99934 -0.0018326 1.9764e-17)
(1.0001 -0.0026083 4.3346e-18)
(1.0005 -0.0027441 4.8822e-17)
(1.0022 -0.0031177 -3.0886e-17)
(1.0017 -0.0026205 -8.3501e-18)
(1.0053 -0.0015898 6.7816e-18)
(1.0024 -0.0018756 3.2728e-18)
(1.0087 0.0045027 -1.1858e-17)
(1.0059 -0.0013764 -1.1137e-18)
(1.0085 0.014321 -3.9851e-18)
(0.99874 -0.00024561 -3.1963e-18)
(0.99895 -0.0011834 1.5039e-18)
(0.99931 -0.001854 -1.1616e-17)
(1.0001 -0.0026365 5.6992e-18)
(1.0005 -0.0027809 -1.8551e-17)
(1.0022 -0.0031527 4.1886e-18)
(1.0018 -0.0026702 3.3436e-17)
(1.0053 -0.0016216 -2.5377e-17)
(1.0025 -0.0019307 -1.2027e-17)
(1.0088 0.0044155 -1.1719e-17)
(1.0061 -0.0013667 -5.5025e-18)
(1.0086 0.013911 -1.0923e-18)
(0.99871 -0.00024915 3.9813e-18)
(0.99892 -0.0011962 -3.5719e-18)
(0.99928 -0.0018758 -1.1273e-17)
(1.0001 -0.0026652 -9.0883e-18)
(1.0005 -0.0028184 -3.0331e-17)
(1.0022 -0.0031886 -1.9423e-17)
(1.0018 -0.0027208 -2.0502e-17)
(1.0054 -0.001655 2.3593e-17)
(1.0026 -0.0019862 1.1666e-17)
(1.0088 0.0043259 1.7743e-17)
(1.0064 -0.0013583 -2.1608e-18)
(1.0087 0.01351 5.2703e-18)
(0.99867 -0.00025275 -6.3986e-18)
(0.99889 -0.0012093 5.7871e-18)
(0.99926 -0.001898 2.7601e-17)
(1.0001 -0.0026944 -2.1436e-18)
(1.0005 -0.0028566 3.3557e-17)
(1.0022 -0.0032253 1.4664e-18)
(1.0018 -0.0027724 -1.9643e-17)
(1.0054 -0.0016899 9.2273e-18)
(1.0027 -0.0020422 -4.2072e-18)
(1.0088 0.0042341 -3.7158e-18)
(1.0065 -0.0013511 7.0069e-18)
(1.0088 0.013119 -3.5637e-18)
(0.99863 -0.00025643 5.2435e-18)
(0.99885 -0.0012226 -7.8648e-18)
(0.99923 -0.0019206 -3.218e-17)
(1 -0.0027242 1.4022e-17)
(1.0005 -0.0028956 -2.3908e-17)
(1.0022 -0.0032629 2.6848e-17)
(1.0018 -0.0028248 6.4007e-18)
(1.0054 -0.0017264 -8.787e-18)
(1.0028 -0.0020987 -2.0204e-18)
(1.0088 0.0041401 -9.2951e-18)
(1.0067 -0.0013453 -1.1441e-17)
(1.0089 0.012737 4.9175e-18)
(0.9986 -0.00026018 -3.8622e-18)
(0.99882 -0.0012361 2.6152e-18)
(0.9992 -0.0019436 1.9553e-17)
(1 -0.0027545 -1.8483e-17)
(1.0005 -0.0029352 3.847e-17)
(1.0022 -0.0033014 -2.0836e-17)
(1.0019 -0.0028782 3.7317e-18)
(1.0054 -0.0017645 -1.3878e-17)
(1.0029 -0.0021556 6.6035e-18)
(1.0089 0.0040439 -1.2969e-18)
(1.0069 -0.0013408 4.8943e-18)
(1.009 0.012365 -2.1895e-18)
(0.99856 -0.000264 4.7368e-18)
(0.99879 -0.0012498 2.0359e-18)
(0.99917 -0.001967 -1.3036e-17)
(1 -0.0027853 -3.7553e-19)
(1.0005 -0.0029757 -1.6982e-18)
(1.0022 -0.0033408 5.0399e-18)
(1.0019 -0.0029325 3.546e-17)
(1.0055 -0.0018042 9.4917e-18)
(1.003 -0.0022131 -1.9579e-17)
(1.0089 0.0039457 -6.7307e-18)
(1.0071 -0.0013377 -4.6225e-18)
(1.0091 0.012001 2.292e-18)
(0.99852 -0.00026789 -5.4292e-18)
(0.99875 -0.0012638 -7.5442e-18)
(0.99913 -0.0019908 5.469e-18)