/*--------------------------------*- C++ -*----------------------------------*\
  =========                 |
  \\      /  F ield         | OpenFOAM: The Open Source CFD Toolbox
   \\    /   O peration     | Website:  https://openfoam.org
    \\  /    A nd           | Version:  6.0
     \\/     M anipulation  |
\*---------------------------------------------------------------------------*/
FoamFile
{
    version     2.0;
    format      ascii;
    class       volScalarField;
    location    "8";
    object      p;
}
// * * * * * * * * * * * * * * * * * * * * * * * * * * * * * * * * * * * * * //

dimensions      [0 2 -2 0 0 0 0];

internalField   nonuniform List<scalar> 
62000
(
0.0193247
0.0193341
0.0193455
0.0193561
0.0193678
0.0193774
0.0193873
0.0193948
0.0194027
0.0194076
0.019413
0.0194149
0.0194173
0.0194152
0.0194136
0.0194065
0.0193997
0.0193863
0.0193724
0.0193507
0.0193268
0.0192931
0.0192545
0.0192029
0.019142
0.0190634
0.0189691
0.0188505
0.0187072
0.0185309
0.0183186
0.0180629
0.0177574
0.0173952
0.0169699
0.0164815
0.0159314
0.0153209
0.0146542
0.0139388
0.013186
0.0124095
0.0116235
0.0108388
0.0100578
0.00927218
0.0084569
0.0075763
0.00658888
0.00545662
0.00417601
0.00275632
0.00131647
-8.31374e-05
-0.001303
-0.00225044
-0.00282732
-0.00290447
-0.0028133
-0.00265478
0.0192367
0.0192351
0.0192379
0.019244
0.0192549
0.0192669
0.0192812
0.0192944
0.0193087
0.0193208
0.0193337
0.0193436
0.019354
0.0193604
0.0193669
0.0193684
0.0193697
0.0193651
0.0193595
0.019347
0.0193319
0.0193081
0.0192788
0.0192379
0.0191872
0.0191205
0.0190377
0.0189327
0.0188028
0.0186423
0.018446
0.0182068
0.0179187
0.0175728
0.0171659
0.0166967
0.0161654
0.0155728
0.0149225
0.0142225
0.0134845
0.0127236
0.011956
0.0111954
0.0104474
0.00970649
0.00894798
0.00813288
0.00721011
0.00612611
0.00485792
0.0033915
0.00184793
0.000281897
-0.00114096
-0.00229393
-0.00302708
-0.00312457
-0.00319883
-0.00253397
0.0191015
0.01909
0.0190844
0.0190847
0.0190926
0.0191047
0.0191211
0.0191379
0.0191561
0.0191725
0.0191896
0.0192041
0.019219
0.0192299
0.0192408
0.0192464
0.0192516
0.0192503
0.0192475
0.019237
0.0192233
0.0192002
0.0191708
0.0191291
0.0190766
0.0190075
0.0189209
0.0188115
0.0186756
0.0185085
0.0183034
0.0180542
0.0177515
0.0173893
0.0169625
0.0164703
0.0159117
0.0152857
0.0145954
0.0138487
0.013058
0.0122404
0.011416
0.0106048
0.00982124
0.00907088
0.00834151
0.00760535
0.00681865
0.00592817
0.00490271
0.00370831
0.00244854
0.00114956
-4.34591e-05
-0.00103518
-0.00171384
-0.00193585
-0.00249451
-0.00253705
0.0189967
0.0189848
0.0189799
0.0189817
0.0189925
0.0190098
0.0190336
0.0190589
0.0190861
0.0191113
0.0191369
0.0191594
0.0191819
0.0192005
0.0192185
0.0192316
0.0192438
0.01925
0.0192545
0.0192518
0.0192458
0.0192306
0.0192094
0.019176
0.0191322
0.019072
0.0189947
0.0188949
0.0187693
0.0186124
0.0184182
0.0181785
0.0178855
0.01753
0.0171087
0.0166192
0.0160591
0.0154253
0.014719
0.0139461
0.0131182
0.0122519
0.0113689
0.0104928
0.00964493
0.00884098
0.00808126
0.00735189
0.00662025
0.00584037
0.00497783
0.00398599
0.00295046
0.00186607
0.000840604
-7.40654e-05
-0.000817045
-0.00133056
-0.00243208
-0.00312389
0.0188871
0.0188822
0.0188851
0.0188946
0.0189142
0.0189423
0.0189793
0.0190195
0.0190622
0.0191029
0.0191434
0.0191804
0.0192171
0.0192492
0.0192812
0.0193079
0.0193343
0.0193547
0.0193743
0.0193873
0.019398
0.0194009
0.0193991
0.019387
0.0193663
0.0193315
0.0192819
0.0192125
0.0191198
0.0189993
0.0188436
0.0186464
0.0183964
0.018087
0.0177121
0.0172693
0.0167544
0.0161618
0.0154893
0.01474
0.0139216
0.0130477
0.0121377
0.0112145
0.0103014
0.00941895
0.00857582
0.00776864
0.00697549
0.00615918
0.00528798
0.00431042
0.00330058
0.00223022
0.00118372
0.000184015
-0.000729537
-0.0015375
-0.00299431
-0.00392673
0.0187971
0.0187994
0.0188079
0.0188214
0.018845
0.0188791
0.0189248
0.0189765
0.0190326
0.0190876
0.0191429
0.0191947
0.0192461
0.0192935
0.0193404
0.019383
0.0194253
0.0194631
0.0195005
0.0195331
0.0195647
0.0195905
0.0196135
0.0196288
0.019638
0.0196362
0.0196232
0.019594
0.0195459
0.019474
0.0193727
0.0192333
0.0190474
0.0188047
0.0185009
0.0181318
0.0176917
0.0171727
0.016569
0.0158798
0.0151083
0.014263
0.0133585
0.0124138
0.01145
0.0104881
0.00954043
0.00861065
0.00768488
0.00673586
0.00573678
0.00463985
0.00351619
0.00232763
0.00114358
-2.17345e-05
-0.00112559
-0.00215552
-0.00378224
-0.00474869
0.0186883
0.0186964
0.0187088
0.0187244
0.0187491
0.0187852
0.0188347
0.0188928
0.0189573
0.0190222
0.0190883
0.0191516
0.0192152
0.0192752
0.0193357
0.0193923
0.0194497
0.0195031
0.0195575
0.019608
0.0196591
0.0197059
0.0197521
0.0197929
0.0198304
0.01986
0.0198819
0.0198916
0.0198867
0.0198633
0.0198148
0.0197353
0.0196132
0.0194409
0.019212
0.0189221
0.0185645
0.018129
0.0176069
0.0169936
0.0162877
0.0154923
0.0146161
0.0136727
0.012679
0.0116536
0.0106093
0.00955347
0.00847846
0.0073653
0.00619456
0.00492495
0.0036299
0.00226694
0.000904127
-0.000443029
-0.00171391
-0.00289616
-0.0045947
-0.0055282
0.018595
0.0186041
0.0186154
0.0186277
0.0186472
0.0186778
0.0187234
0.0187799
0.0188452
0.018913
0.0189832
0.019052
0.0191215
0.0191885
0.0192563
0.0193215
0.0193879
0.019452
0.0195177
0.0195812
0.0196464
0.0197092
0.0197731
0.0198336
0.019893
0.0199473
0.0199968
0.0200377
0.0200679
0.0200836
0.02008
0.0200493
0.0199833
0.0198714
0.0197087
0.01949
0.0192078
0.0188505
0.0184073
0.0178702
0.017234
0.0164968
0.0156616
0.0147364
0.0137328
0.0126656
0.0115459
0.0103827
0.00917193
0.00790223
0.00656018
0.0051141
0.00364175
0.0021036
0.00056641
-0.000945949
-0.00235312
-0.00364727
-0.00538236
-0.00626906
0.018464
0.0184724
0.0184828
0.0184928
0.0185085
0.0185341
0.0185749
0.0186274
0.0186902
0.0187566
0.0188267
0.0188959
0.0189669
0.0190358
0.0191067
0.0191753
0.0192464
0.0193155
0.0193875
0.0194578
0.0195312
0.0196033
0.0196778
0.0197506
0.0198243
0.0198948
0.0199629
0.0200252
0.0200797
0.0201238
0.0201518
0.0201587
0.0201337
0.0200691
0.0199584
0.0197968
0.0195764
0.0192848
0.0189096
0.0184404
0.017869
0.0171894
0.0163997
0.0155024
0.0145042
0.0134155
0.012245
0.0110013
0.00968274
0.00828312
0.00679522
0.00519566
0.00356702
0.00187227
0.000182187
-0.00147129
-0.00298804
-0.00437062
-0.00613343
-0.00697532
0.0183632
0.0183664
0.0183708
0.0183738
0.0183806
0.0183957
0.0184259
0.0184687
0.0185229
0.0185821
0.018646
0.0187101
0.0187763
0.0188415
0.0189087
0.018975
0.019044
0.0191125
0.0191843
0.0192561
0.0193316
0.019407
0.019486
0.0195645
0.0196451
0.0197242
0.0198025
0.0198769
0.0199462
0.0200072
0.0200563
0.0200867
0.0200909
0.0200587
0.0199855
0.0198661
0.0196925
0.0194519
0.019131
0.0187181
0.0182026
0.0175753
0.0168304
0.0159658
0.0149834
0.0138894
0.0126893
0.0113909
0.00999257
0.00849294
0.0068883
0.0051642
0.0034066
0.00158391
-0.00023301
-0.00200313
-0.00361066
-0.00507221
-0.00686408
-0.00766778
0.0182288
0.0182262
0.0182256
0.0182234
0.0182234
0.0182305
0.0182514
0.0182847
0.0183294
0.0183798
0.0184353
0.0184917
0.0185509
0.0186095
0.0186711
0.0187319
0.0187966
0.0188608
0.0189293
0.018998
0.0190713
0.0191451
0.0192233
0.0193018
0.0193835
0.0194646
0.0195463
0.0196256
0.0197012
0.0197711
0.0198306
0.0198757
0.0198964
0.0198854
0.019837
0.0197465
0.0196061
0.0194031
0.0191237
0.0187552
0.0182855
0.0177031
0.0169991
0.0161677
0.0152067
0.0141185
0.0129054
0.0115734
0.0101211
0.00854932
0.00685787
0.0050385
0.00318015
0.00125374
-0.000666919
-0.00253456
-0.00421889
-0.0057524
-0.00757555
-0.00834717
0.0181064
0.0180954
0.0180865
0.0180758
0.0180661
0.0180624
0.0180718
0.0180936
0.0181274
0.0181674
0.0182131
0.0182602
0.01831
0.01836
0.0184125
0.0184652
0.0185214
0.0185783
0.0186394
0.0187018
0.0187692
0.0188379
0.0189114
0.0189861
0.0190645
0.0191432
0.0192233
0.0193019
0.0193783
0.01945
0.0195141
0.0195644
0.0195947
0.0195952
0.0195619
0.01949
0.019372
0.0191954
0.0189465
0.0186119
0.0181789
0.0176341
0.0169663
0.0161667
0.0152298
0.0141544
0.0129397
0.0115899
0.0101023
0.00847984
0.00672361
0.00483158
0.00289363
0.000885176
-0.00112106
-0.00307148
-0.00482445
-0.00642822
-0.0082858
-0.00903124
0.0179229
0.0179054
0.0178919
0.0178771
0.0178631
0.017854
0.0178571
0.0178716
0.0178976
0.0179294
0.0179668
0.0180052
0.018047
0.0180881
0.0181326
0.0181765
0.0182248
0.0182731
0.0183263
0.0183804
0.0184401
0.0185011
0.0185676
0.0186356
0.0187078
0.0187809
0.0188561
0.0189307
0.0190037
0.0190736
0.0191363
0.0191886
0.0192212
0.0192275
0.0192023
0.0191415
0.0190379
0.0188797
0.0186528
0.018344
0.0179399
0.0174261
0.0167894
0.016019
0.0151063
0.0140474
0.0128384
0.0114816
0.00997303
0.00831612
0.00651335
0.00456675
0.00256673
0.000490552
-0.00158794
-0.00361119
-0.0054264
-0.00709699
-0.00899037
-0.00971421
0.0177685
0.0177421
0.0177198
0.0176965
0.0176734
0.0176545
0.0176475
0.0176518
0.0176677
0.0176894
0.0177169
0.0177455
0.017777
0.0178084
0.0178423
0.0178763
0.0179139
0.0179525
0.0179958
0.0180407
0.0180912
0.0181436
0.0182017
0.0182617
0.0183262
0.0183921
0.0184606
0.0185289
0.0185967
0.0186617
0.0187216
0.0187708
0.0188038
0.0188114
0.01879
0.0187355
0.0186411
0.0184953
0.0182845
0.0179953
0.0176143
0.0171262
0.0165166
0.0157726
0.0148836
0.0138428
0.0126437
0.0112867
0.00976575
0.00808496
0.00624646
0.00425655
0.00220471
7.15145e-05
-0.00207077
-0.00416044
-0.00603545
-0.00777308
-0.00970458
-0.0104117
0.017565
0.017532
0.0175041
0.0174757
0.0174472
0.0174224
0.0174085
0.0174053
0.0174127
0.0174258
0.0174442
0.0174638
0.0174864
0.0175084
0.0175337
0.0175585
0.0175875
0.0176168
0.0176511
0.0176866
0.0177281
0.0177712
0.0178204
0.0178717
0.0179278
0.0179858
0.0180466
0.0181079
0.018169
0.0182287
0.0182831
0.0183297
0.0183598
0.0183672
0.0183471
0.018296
0.0182076
0.0180708
0.0178722
0.0175987
0.0172366
0.0167702
0.016184
0.0154638
0.014597
0.0135745
0.0123875
0.0110342
0.00950685
0.0078091
0.0059432
0.00391803
0.00182238
-0.000361959
-0.00256229
-0.00471428
-0.00664654
-0.00844903
-0.0104194
-0.0111137
0.0173725
0.0173315
0.0172953
0.0172584
0.0172209
0.0171868
0.0171636
0.0171511
0.0171496
0.0171538
0.0171633
0.017174
0.0171872
0.0172003
0.0172155
0.0172308
0.0172494
0.0172691
0.0172933
0.0173195
0.0173513
0.0173855
0.0174257
0.0174683
0.0175161
0.017566
0.0176192
0.0176733
0.017728
0.0177814
0.0178315
0.0178732
0.0179013
0.0179072
0.0178874
0.0178386
0.0177545
0.0176247
0.017436
0.0171755
0.0168296
0.0163822
0.015817
0.0151187
0.0142729
0.0132685
0.0120942
0.0107466
0.00921578
0.00750487
0.00561515
0.00355853
0.00142186
-0.000809958
-0.00306588
-0.00527845
-0.00726846
-0.00913711
-0.011149
-0.0118352
0.0171028
0.017057
0.0170176
0.0169778
0.0169377
0.0169006
0.0168739
0.0168569
0.0168502
0.0168484
0.0168516
0.0168553
0.0168617
0.0168669
0.016875
0.016882
0.0168931
0.0169041
0.0169202
0.0169374
0.0169607
0.016986
0.0170178
0.0170521
0.0170918
0.0171341
0.0171801
0.0172276
0.017276
0.0173244
0.0173692
0.0174083
0.0174333
0.0174383
0.017419
0.0173721
0.017292
0.0171685
0.0169889
0.0167403
0.0164091
0.015979
0.0154331
0.0147548
0.0139287
0.0129416
0.0117802
0.010439
0.00890635
0.00718418
0.00527337
0.00318785
0.00101294
-0.00126474
-0.00357436
-0.00584621
-0.00789324
-0.00982692
-0.0118814
-0.0125641
0.0168613
0.0168083
0.016761
0.0167132
0.0166648
0.0166192
0.0165841
0.016559
0.0165444
0.0165348
0.01653
0.0165258
0.0165236
0.0165206
0.0165195
0.0165179
0.0165195
0.016522
0.016529
0.0165379
0.0165528
0.0165702
0.0165941
0.016621
0.0166536
0.0166891
0.0167288
0.0167704
0.0168138
0.0168573
0.0168993
0.0169347
0.016959
0.0169636
0.0169453
0.0169011
0.0168254
0.0167084
0.0165376
0.0163004
0.0159833
0.0155697
0.015042
0.014383
0.0135757
0.0126054
0.0114566
0.010122
0.00858783
0.0068551
0.00492344
0.00280936
0.000595518
-0.00172794
-0.00409181
-0.00642363
-0.00852974
-0.0105308
-0.0126311
-0.0133157
0.0165564
0.0164987
0.0164473
0.0163956
0.0163431
0.0162932
0.016253
0.0162225
0.0162015
0.0161853
0.0161734
0.016162
0.0161529
0.0161426
0.0161349
0.016126
0.0161211
0.0161162
0.0161163
0.0161177
0.0161256
0.0161357
0.0161528
0.016173
0.0161994
0.016229
0.0162634
0.0163004
0.0163396
0.0163803
0.0164191
0.0164542
0.0164776
0.0164834
0.0164675
0.016427
0.0163565
0.016247
0.0160858
0.0158605
0.0155576
0.0151602
0.0146503
0.0140098
0.0132207
0.0122664
0.0111296
0.00980132
0.00826549
0.00652185
0.00456965
0.00242708
0.000175097
-0.00219421
-0.00461187
-0.0070036
-0.00916888
-0.0112372
-0.013385
-0.0140767
0.0162552
0.0161911
0.0161321
0.0160724
0.0160114
0.015953
0.0159047
0.0158664
0.0158381
0.0158149
0.0157961
0.0157779
0.0157614
0.0157442
0.0157284
0.0157123
0.0156992
0.0156871
0.0156796
0.0156742
0.0156752
0.0156791
0.0156901
0.0157048
0.015726
0.015751
0.0157814
0.0158149
0.0158516
0.0158901
0.0159288
0.0159629
0.0159885
0.0159967
0.0159846
0.0159493
0.0158856
0.0157845
0.0156339
0.0154211
0.0151329
0.014752
0.01426
0.0136381
0.012867
0.0119286
0.0108036
0.00948125
0.00794336
0.00618858
0.00421501
0.00204315
-0.000249317
-0.00266593
-0.00513911
-0.00759262
-0.00981997
-0.0119589
-0.0141583
-0.0148628
0.0158586
0.0157912
0.0157304
0.0156689
0.0156066
0.0155465
0.0154962
0.0154551
0.0154235
0.0153962
0.015373
0.0153497
0.0153285
0.0153056
0.015285
0.0152631
0.0152451
0.0152271
0.0152142
0.015203
0.0151986
0.015197
0.0152032
0.0152133
0.0152305
0.0152521
0.0152797
0.0153113
0.0153466
0.0153852
0.0154238
0.0154609
0.0154888
0.0155015
0.015495
0.0154666
0.0154112
0.0153203
0.0151815
0.0149826
0.01471
0.0143463
0.0138725
0.0132691
0.0125158
0.0115928
0.0104792
0.00916211
0.00762148
0.0058544
0.00385885
0.00165715
-0.000675048
-0.00313894
-0.0056674
-0.00818292
-0.0104728
-0.012683
-0.0149364
-0.0156598
0.0154807
0.015407
0.0153388
0.0152698
0.0151995
0.0151316
0.015074
0.015026
0.0149881
0.0149546
0.0149254
0.0148962
0.0148684
0.0148396
0.0148121
0.0147841
0.0147593
0.0147355
0.0147166
0.0147004
0.0146911
0.0146854
0.0146877
0.0146946
0.0147092
0.0147288
0.0147551
0.0147862
0.0148222
0.0148617
0.0149037
0.0149432
0.0149768
0.0149955
0.0149965
0.0149768
0.0149315
0.0148522
0.0147269
0.0145429
0.014287
0.0139415
0.0134867
0.0129025
0.0121674
0.0112602
0.010158
0.00884631
0.00730252
0.00552293
0.00350457
0.00127237
-0.00110255
-0.00361584
-0.00620179
-0.0087819
-0.0111379
-0.0134233
-0.0157355
-0.0164835
0.0150235
0.014946
0.0148746
0.0148024
0.0147288
0.0146578
0.0145963
0.0145442
0.0145014
0.0144629
0.0144283
0.0143938
0.0143612
0.0143272
0.0142955
0.0142627
0.0142341
0.014206
0.0141834
0.0141631
0.0141505
0.0141415
0.0141412
0.0141461
0.0141592
0.0141783
0.0142048
0.0142371
0.0142749
0.0143181
0.0143634
0.0144096
0.0144492
0.0144762
0.0144866
0.0144775
0.014444
0.0143783
0.014268
0.0141006
0.0138627
0.0135364
0.0131013
0.0125368
0.01182
0.0109286
0.00983764
0.00853067
0.0069829
0.00518954
0.00314756
0.00088375
-0.00153172
-0.00409356
-0.00673661
-0.00938153
-0.0118045
-0.0141666
-0.0165409
-0.0173201
0.0145589
0.0144754
0.0143967
0.0143168
0.0142351
0.014156
0.0140873
0.0140285
0.0139799
0.013936
0.0138962
0.0138568
0.0138188
0.01378
0.0137426
0.0137052
0.0136711
0.0136388
0.0136118
0.0135883
0.0135727
0.0135616
0.0135599
0.0135641
0.0135774
0.0135974
0.0136258
0.0136607
0.0137027
0.0137503
0.0138027
0.013855
0.0139042
0.013941
0.0139627
0.0139661
0.0139464
0.0138958
0.0138021
0.0136528
0.0134345
0.0131287
0.0127147
0.012171
0.0114737
0.0105989
0.00951991
0.00821818
0.00666649
0.00485949
0.00279342
0.000497914
-0.00196164
-0.00457439
-0.00727702
-0.00998969
-0.0124838
-0.0149273
-0.017369
-0.0181852
0.0139815
0.0138953
0.0138156
0.0137346
0.0136525
0.0135727
0.0135032
0.013443
0.0133923
0.0133458
0.0133033
0.0132605
0.0132198
0.0131775
0.0131378
0.0130972
0.0130611
0.013026
0.0129973
0.0129718
0.012955
0.012943
0.0129413
0.0129462
0.012961
0.0129835
0.0130154
0.0130551
0.0131023
0.0131572
0.0132166
0.0132794
0.0133382
0.0133872
0.0134221
0.0134398
0.0134357
0.0134022
0.0133269
0.0131973
0.013
0.0127161
0.0123242
0.011802
0.0111247
0.010267
0.00920001
0.00790333
0.00634704
0.00452548
0.00243432
0.000106228
-0.00239399
-0.00505556
-0.00781696
-0.0105976
-0.0131639
-0.0156913
-0.0182045
-0.0190652
0.013409
0.0133166
0.0132294
0.0131409
0.0130512
0.0129643
0.0128884
0.0128224
0.012767
0.012716
0.0126694
0.0126228
0.0125778
0.0125321
0.0124882
0.0124445
0.0124049
0.0123677
0.0123368
0.0123105
0.0122934
0.0122822
0.012282
0.0122893
0.0123074
0.0123342
0.0123714
0.0124173
0.0124723
0.0125353
0.0126054
0.0126779
0.0127501
0.0128123
0.0128623
0.0128962
0.0129094
0.0128947
0.0128396
0.0127315
0.0125571
0.0122967
0.0119289
0.0114299
0.0107746
0.0099351
0.00888186
0.00759082
0.00603109
0.00419502
0.00207924
-0.000281736
-0.00282618
-0.00553901
-0.00836189
-0.0112139
-0.0138572
-0.0164738
-0.0190641
-0.0199751
0.0127398
0.0126436
0.0125535
0.0124623
0.01237
0.0122808
0.0122021
0.0121336
0.0120748
0.0120207
0.0119708
0.0119212
0.0118739
0.0118258
0.0117808
0.0117357
0.0116961
0.0116584
0.0116282
0.0116025
0.011587
0.0115778
0.0115806
0.0115919
0.0116148
0.0116476
0.0116918
0.011746
0.0118099
0.0118838
0.0119645
0.0120511
0.0121361
0.0122142
0.0122806
0.0123324
0.0123647
0.0123707
0.0123376
0.012253
0.012103
0.0118679
0.0115253
0.0110507
0.0104181
0.00959788
0.00855871
0.00727386
0.00571043
0.00385966
0.00171847
-0.000676405
-0.003261
-0.00602244
-0.00890571
-0.0118294
-0.0145512
-0.0172608
-0.0199331
-0.0209023
0.0120461
0.0119436
0.011846
0.0117473
0.0116472
0.0115509
0.0114662
0.0113926
0.0113301
0.011273
0.0112206
0.011169
0.0111196
0.0110702
0.0110233
0.0109774
0.0109367
0.0108994
0.0108697
0.0108459
0.010833
0.0108275
0.0108349
0.0108518
0.0108815
0.010922
0.0109751
0.0110391
0.0111144
0.0111999
0.0112948
0.0113942
0.0114961
0.0115901
0.0116748
0.0117461
0.0117993
0.011828
0.0118189
0.0117599
0.0116365
0.0114291
0.0111139
0.0106661
0.0100585
0.00925958
0.00823676
0.0069594
0.00539413
0.00352903
0.00136324
-0.00106539
-0.00369418
-0.00650721
-0.00945396
-0.0124536
-0.0152591
-0.0180676
-0.0208277
-0.021861
0.0112234
0.0111182
0.01102
0.0109208
0.0108216
0.0107261
0.0106424
0.0105695
0.0105075
0.0104504
0.0103983
0.0103466
0.010298
0.0102488
0.0102037
0.0101589
0.0101208
0.0100857
0.0100595
0.0100391
0.0100308
0.0100304
0.0100442
0.0100684
0.0101064
0.0101564
0.0102201
0.0102959
0.0103838
0.0104836
0.0105923
0.0107091
0.0108262
0.0109391
0.0110431
0.0111354
0.0112116
0.0112646
0.011282
0.0112502
0.0111556
0.0109773
0.0106912
0.0102717
0.00969032
0.00891403
0.00790842
0.00663983
0.00507316
0.00319464
0.00100407
-0.0014589
-0.00412838
-0.00699065
-0.00999988
-0.0130759
-0.0159676
-0.0188797
-0.0217335
-0.0228397
0.0103966
0.0102845
0.0101785
0.0100722
0.00996599
0.00986453
0.00977626
0.00969988
0.00963572
0.00957727
0.00952442
0.00947255
0.00942376
0.00937544
0.00933058
0.00928757
0.00925098
0.00921908
0.00919634
0.00918102
0.00917856
0.00918528
0.00920707
0.00924044
0.00928868
0.00935008
0.00942616
0.00951542
0.00961808
0.00973284
0.00985898
0.00999116
0.010128
0.0102591
0.0103842
0.0104992
0.0105999
0.0106797
0.0107253
0.0107234
0.0106598
0.0105133
0.010259
0.00987048
0.00931827
0.00856722
0.00758168
0.00632374
0.00475828
0.00286688
0.000652925
-0.00184489
-0.0045588
-0.00747393
-0.0105495
-0.0137068
-0.0166907
-0.0197126
-0.0226658
-0.0238503
0.0094663
0.0093502
0.00924162
0.00913331
0.00902575
0.00892367
0.00883467
0.00875806
0.00869331
0.0086348
0.00858209
0.00853089
0.00848389
0.00843743
0.00839621
0.00835655
0.00832514
0.00829808
0.00828167
0.00827276
0.00827803
0.00829312
0.00832456
0.00836866
0.00842874
0.00850323
0.00859342
0.008698
0.00881647
0.0089488
0.00909151
0.00924384
0.00939813
0.00955075
0.00969769
0.00983713
0.00996423
0.0100727
0.0101485
0.0101785
0.0101478
0.0100349
0.00981403
0.00945829
0.00893663
0.0082127
0.00724842
0.0060033
0.00444016
0.00253822
0.000301382
-0.0022312
-0.00498771
-0.00795427
-0.0110959
-0.0143355
-0.0174148
-0.0205522
-0.0236117
-0.0248838
0.00851401
0.00839123
0.00827496
0.00815942
0.00804472
0.00793669
0.0078434
0.00776396
0.00769815
0.0076396
0.00758783
0.00753834
0.00749311
0.00744964
0.00741089
0.0073753
0.00734769
0.00732636
0.00731596
0.00731489
0.00732885
0.00735408
0.00739678
0.0074534
0.00752713
0.00761642
0.00772245
0.00784372
0.00798017
0.00813026
0.00829318
0.00846343
0.00864003
0.00881333
0.00898419
0.00914935
0.00930468
0.00944341
0.00955158
0.0096153
0.00962004
0.00954334
0.00935899
0.00903887
0.00855128
0.00785717
0.00691773
0.0056875
0.00413003
0.00221815
-3.98236e-05
-0.00260772
-0.00541044
-0.00843288
-0.0116454
-0.0149731
-0.0181543
-0.0214136
-0.024585
-0.02595
0.00742865
0.00730331
0.00718725
0.00707247
0.00696041
0.00685519
0.00676537
0.00668916
0.00662666
0.00657117
0.0065229
0.0064768
0.00643628
0.00639713
0.00636464
0.00633485
0.00631507
0.00630122
0.00629998
0.00630828
0.00633312
0.00636998
0.0064257
0.00649649
0.00658546
0.00669121
0.00681456
0.00695426
0.00710939
0.00727973
0.00746182
0.00765477
0.0078514
0.00804844
0.00824431
0.00843683
0.00862189
0.00879253
0.00893458
0.00903378
0.00907561
0.00903683
0.0088907
0.00860809
0.00815626
0.00749409
0.00658118
0.00536852
0.00381861
0.00190005
-0.000377507
-0.00297964
-0.00582829
-0.00890646
-0.0121903
-0.0156079
-0.0188954
-0.0222834
-0.0255739
-0.0270413
0.00635415
0.00622142
0.00609728
0.0059753
0.00585654
0.00574605
0.00565272
0.00557455
0.00551186
0.00545734
0.00541106
0.005368
0.00533068
0.00529638
0.0052684
0.0052452
0.00523196
0.005227
0.00523511
0.0052548
0.00529196
0.00534263
0.00541324
0.00550007
0.00560598
0.00572967
0.00587172
0.00603084
0.00620638
0.00639695
0.00660163
0.00681484
0.00703587
0.00725674
0.00747889
0.00770026
0.00791601
0.00811989
0.00829715
0.00843378
0.00851483
0.00851681
0.00841179
0.00817008
0.00775734
0.00713053
0.00624756
0.00505524
0.00351612
0.00159193
-0.000703358
-0.00334011
-0.00623781
-0.00937689
-0.0127381
-0.0162519
-0.0196524
-0.0231752
-0.0265898
-0.028164
0.0051711
0.00503404
0.00490727
0.00478361
0.00466406
0.00455403
0.00446124
0.00438476
0.00432366
0.00427202
0.00422924
0.0041909
0.00416002
0.00413274
0.00411416
0.00410038
0.00409891
0.00410546
0.00412686
0.0041599
0.00421182
0.00427772
0.00436466
0.00446866
0.00459249
0.00473505
0.00489661
0.00507613
0.00527228
0.00548505
0.00571079
0.00594869
0.00619224
0.0064388
0.00668873
0.0069398
0.00718754
0.00742575
0.00763964
0.00781505
0.007937
0.00798135
0.00791935
0.00772045
0.00734881
0.00675962
0.00590865
0.00473963
0.00321354
0.00128766
-0.0010233
-0.00369305
-0.00664022
-0.00984091
-0.0132804
-0.0168934
-0.0204121
-0.0240773
-0.0276233
-0.0293134
0.00393698
0.00379197
0.00365715
0.0035274
0.00340277
0.00329049
0.00319812
0.00312498
0.00306976
0.00302593
0.00299224
0.00296424
0.0029437
0.00292799
0.00292028
0.00291887
0.00292928
0.00294935
0.00298426
0.00303218
0.00309947
0.0031816
0.00328548
0.00340712
0.00354929
0.00371086
0.00389216
0.00409203
0.00430968
0.00454373
0.0047934
0.005053
0.00532249
0.00559503
0.00587338
0.00615508
0.00643556
0.00670907
0.00696086
0.00717678
0.00734186
0.00743136
0.00741551
0.00726291
0.00693596
0.006388
0.00557255
0.00442987
0.0029199
0.00099364
-0.00133134
-0.00403434
-0.00703345
-0.0103013
-0.0138258
-0.0175448
-0.0211884
-0.025002
-0.0286835
-0.0304929
0.00249381
0.0023485
0.00222441
0.00211192
0.0020106
0.00192277
0.00185564
0.00180513
0.00177102
0.00174511
0.00172831
0.00171398
0.00170763
0.00170366
0.0017094
0.00171948
0.00174339
0.00177559
0.00182426
0.00188537
0.0019672
0.00206398
0.00218365
0.00232167
0.00248111
0.00266076
0.00286097
0.00308076
0.00331873
0.00357498
0.00384599
0.00413098
0.00442411
0.00472388
0.00503155
0.00534475
0.00565909
0.00596919
0.00626029
0.00651832
0.00672832
0.00686488
0.00689731
0.00679316
0.0065132
0.0060089
0.00523128
0.00411788
0.00262641
0.000703689
-0.00163301
-0.00436744
-0.00741862
-0.0107543
-0.0143655
-0.0181941
-0.0219689
-0.025939
-0.0297627
-0.0316991
0.00162486
0.00146091
0.00130573
0.00115723
0.00101632
0.000892065
0.000790854
0.000712328
0.000653739
0.000609306
0.000576459
0.000551702
0.000535997
0.000527636
0.00052957
0.000540473
0.000566116
0.000603952
0.000659353
0.000729901
0.000822327
0.000931269
0.0010642
0.00121652
0.00139118
0.00158705
0.00180447
0.00204244
0.00230014
0.00257644
0.00287071
0.00317722
0.00349697
0.00382373
0.00416129
0.0045069
0.004856
0.00520387
0.00553583
0.00583796
0.00609543
0.00628208
0.00636623
0.00631426
0.00608516
0.00562827
0.00489218
0.00381114
0.00234114
0.000423194
-0.00192364
-0.00468973
-0.00779501
-0.011204
-0.0149085
-0.0188538
-0.0227661
-0.026898
-0.030867
-0.0329331
0.000146054
-6.04201e-06
-0.00013751
-0.000257812
-0.000365658
-0.000458643
-0.000528703
-0.000581088
-0.00061571
-0.000641646
-0.000657531
-0.000670446
-0.00067423
-0.000674508
-0.000663378
-0.000646163
-0.000612801
-0.00056899
-0.000506353
-0.000429
-0.000328516
-0.000210991
-6.82544e-05
9.5001e-05
0.000281664
0.000490958
0.000723019
0.00097725
0.00125227
0.00154851
0.0018625
0.00219383
0.00253717
0.0028919
0.00326002
0.00363886
0.00402412
0.00441145
0.0047862
0.00513457
0.00544176
0.00568094
0.00581933
0.00582211
0.00564647
0.00523964
0.00454753
0.00350167
0.00205539
0.000145843
-0.00220918
-0.00500511
-0.00816413
-0.0116466
-0.0154465
-0.0195126
-0.0235695
-0.0278715
-0.0319914
-0.0341926
-0.00066327
-0.000829249
-0.000988045
-0.00114231
-0.00128937
-0.00141984
-0.00152614
-0.00160929
-0.00167162
-0.00171964
-0.00175556
-0.00178317
-0.00180109
-0.00181101
-0.00180961
-0.00179801
-0.00177002
-0.00172796
-0.00166643
-0.00158742
-0.00148427
-0.00136216
-0.00121364
-0.00104303
-0.000847688
-0.000628136
-0.000384179
-0.000116382
0.000174605
0.000487779
0.000822956
0.00117436
0.0015439
0.00192577
0.00232485
0.00273793
0.00316058
0.00358904
0.00400867
0.00440581
0.00476579
0.00506099
0.00525748
0.00531908
0.00520108
0.0048483
0.00420401
0.00319642
0.00177674
-0.000123255
-0.0024851
-0.00531133
-0.00852603
-0.0120871
-0.015989
-0.0201826
-0.02439
-0.0288667
-0.0331397
-0.0354781
-0.00212521
-0.00227474
-0.00240383
-0.00252334
-0.00263119
-0.00272532
-0.00279677
-0.00285153
-0.00288907
-0.00291906
-0.00293974
-0.00295838
-0.00296827
-0.00297486
-0.00296991
-0.00295828
-0.00292958
-0.00288893
-0.00282803
-0.00275015
-0.00264701
-0.0025242
-0.00237354
-0.00219929
-0.00199875
-0.00177209
-0.00151915
-0.00124009
-0.000936091
-0.000606476
-0.000254344
0.000120104
0.000512087
0.000922023
0.00135255
0.00180089
0.00226269
0.00273449
0.00320154
0.00365023
0.00406592
0.00442017
0.00467784
0.00480131
0.00474389
0.00444803
0.0038541
0.00288747
0.00149638
-0.000390974
-0.00275802
-0.00561281
-0.00888202
-0.0125215
-0.0165274
-0.0208533
-0.0252187
-0.0298783
-0.0343089
-0.0367888
-0.00285367
-0.00301346
-0.00316737
-0.00332009
-0.00346746
-0.00360104
-0.00371204
-0.00380236
-0.00387359
-0.00393254
-0.00398097
-0.00402221
-0.00405461
-0.00407896
-0.00409208
-0.00409393
-0.00407859
-0.00404717
-0.00399493
-0.0039226
-0.00382397
-0.00370353
-0.00355389
-0.00337881
-0.00317591
-0.00294488
-0.00268557
-0.0023979
-0.0020824
-0.00173954
-0.00136914
-0.000976835
-0.000559538
-0.000122657
0.000339973
0.000824836
0.00132736
0.00184466
0.00236178
0.00286517
0.00334021
0.00375754
0.00408071
0.00427053
0.00427823
0.0040435
0.00350398
0.00258143
0.00122182
-0.000651745
-0.00302269
-0.00590682
-0.00923262
-0.012955
-0.0170712
-0.0215355
-0.0260642
-0.0309102
-0.0355001
-0.0381233
-0.00417544
-0.0043187
-0.0044523
-0.0045855
-0.00471415
-0.00483217
-0.00492964
-0.00500974
-0.00507245
-0.00512573
-0.0051689
-0.00520797
-0.00523741
-0.00526167
-0.00527375
-0.00527755
-0.00526363
-0.00523599
-0.00518734
-0.00511958
-0.00502502
-0.0049083
-0.00476141
-0.00458767
-0.00438475
-0.00415163
-0.00388822
-0.00359383
-0.00326937
-0.00291351
-0.00252899
-0.00211534
-0.00167666
-0.00121151
-0.000716145
-0.000193572
0.000351794
0.000917263
0.0014876
0.00204909
0.00258704
0.00307111
0.00346336
0.00372307
0.00379914
0.00362872
0.00314614
0.00227028
0.000943754
-0.000913377
-0.00328711
-0.0061987
-0.00957935
-0.0133843
-0.0176128
-0.0222206
-0.02692
-0.0319602
-0.0367131
-0.0394835
-0.00540838
-0.00554798
-0.00567561
-0.00580276
-0.00592371
-0.00603472
-0.00612433
-0.00619798
-0.00625503
-0.00630452
-0.00634673
-0.00638579
-0.00641919
-0.00644735
-0.006467
-0.00647701
-0.00647163
-0.00645054
-0.00640956
-0.00634776
-0.00625925
-0.00614731
-0.00600455
-0.00583356
-0.00563213
-0.00539864
-0.00513275
-0.0048335
-0.00450079
-0.00413465
-0.00373396
-0.00330404
-0.00284054
-0.00234816
-0.00181916
-0.0012573
-0.0006671
-5.08102e-05
0.000575898
0.00119916
0.00180416
0.00235945
0.00282558
0.00316
0.00330934
0.00320767
0.00278636
0.00196039
0.000669984
-0.00116932
-0.00354443
-0.00648497
-0.00992285
-0.0138147
-0.0181611
-0.022918
-0.0277925
-0.0330296
-0.0379467
-0.0408664
-0.00668344
-0.00682567
-0.00695464
-0.00707993
-0.00719941
-0.00730734
-0.00739523
-0.00746633
-0.0075217
-0.00756918
-0.0076089
-0.00764653
-0.00767706
-0.00770437
-0.00772202
-0.00773307
-0.00772843
-0.00771097
-0.0076739
-0.00761762
-0.00753464
-0.00742844
-0.00729078
-0.00712387
-0.00692528
-0.00669271
-0.00642564
-0.00612243
-0.00578329
-0.00540624
-0.00499302
-0.00454258
-0.00405795
-0.00353628
-0.00297261
-0.00236968
-0.00173203
-0.00106175
-0.000375035
0.000313918
0.000990045
0.00162072
0.00216477
0.00257787
0.00280402
0.00277455
0.00241702
0.00164354
0.000390387
-0.0014291
-0.00380479
-0.00677171
-0.0102646
-0.0142427
-0.0187094
-0.0236208
-0.0286775
-0.0341181
-0.0392026
-0.0422757
-0.00788868
-0.00803484
-0.00816803
-0.00829874
-0.00842205
-0.00853356
-0.00862317
-0.00869612
-0.00875333
-0.00880339
-0.00884799
-0.00889038
-0.00892932
-0.00896412
-0.00899272
-0.00901275
-0.00901923
-0.00901057
-0.00898335
-0.00893512
-0.00886029
-0.00876101
-0.00862965
-0.00846769
-0.00827284
-0.00804204
-0.0077746
-0.00746839
-0.00712267
-0.00673647
-0.00630771
-0.00584112
-0.00533062
-0.00478008
-0.00417992
-0.0035337
-0.00284607
-0.0021187
-0.0013684
-0.000609688
0.000142111
0.000853033
0.00148014
0.00197708
0.00228528
0.00233271
0.00204356
0.00132592
0.000113268
-0.00168454
-0.00405895
-0.00705453
-0.010605
-0.0146733
-0.0192651
-0.0243356
-0.0295781
-0.0352245
-0.0404773
-0.0437064
-0.00914634
-0.00929668
-0.00943574
-0.00957227
-0.00970358
-0.00982278