/*--------------------------------*- C++ -*----------------------------------*\
  =========                 |
  \\      /  F ield         | OpenFOAM: The Open Source CFD Toolbox
   \\    /   O peration     | Website:  https://openfoam.org
    \\  /    A nd           | Version:  6.0
     \\/     M anipulation  |
\*---------------------------------------------------------------------------*/
FoamFile
{
    version     2.0;
    format      ascii;
    class       surfaceScalarField;
    location    "8";
    object      phi;
}
// * * * * * * * * * * * * * * * * * * * * * * * * * * * * * * * * * * * * * //

dimensions      [0 3 -1 0 0 0 0];

internalField   nonuniform List<scalar> 
123526
(
2.75078e-05
2.33241e-05
-2.71281e-05
2.79191e-05
2.52152e-05
2.8377e-05
2.72592e-05
2.8861e-05
2.94685e-05
2.93979e-05
3.18562e-05
2.99668e-05
3.44367e-05
3.05954e-05
3.72256e-05
3.1264e-05
4.02393e-05
3.20024e-05
4.34952e-05
3.27892e-05
4.70138e-05
3.36545e-05
5.08165e-05
3.45771e-05
5.49251e-05
3.55904e-05
5.9364e-05
3.66741e-05
6.41569e-05
3.78647e-05
6.93333e-05
3.91376e-05
7.49271e-05
4.05293e-05
8.0968e-05
4.20267e-05
8.74845e-05
4.36634e-05
9.45222e-05
4.54217e-05
0.000102122
4.73421e-05
0.000110316
4.94156e-05
0.000119157
5.16676e-05
0.000128699
5.41088e-05
0.000138974
5.67581e-05
0.000150059
5.96248e-05
0.000161995
6.27381e-05
0.000174846
6.6104e-05
0.00018868
6.97568e-05
0.000203548
7.3705e-05
0.000219532
7.7983e-05
0.000236682
8.2606e-05
0.000255079
8.7605e-05
0.000274776
9.30034e-05
0.000295841
9.88235e-05
0.000318329
0.0001051
0.000342277
0.000111854
0.000367731
0.000119118
0.000394695
0.000126921
0.00042316
0.000135286
0.000453085
0.000144239
0.000484378
0.000153804
0.000516889
0.000164
0.0005504
0.000174842
0.00058459
0.000186336
0.000619017
0.000198482
0.000653081
0.000211267
0.000685995
0.000224654
0.000716734
0.000238589
0.000743987
0.000252974
0.000766107
0.000267684
0.000781033
0.000282517
0.000786247
0.000297247
0.000778605
0.000311544
0.000754364
0.000325017
0.000708998
0.000337148
0.000637242
0.000347348
0.000532996
0.000354458
0.000389742
0.000358532
0.000203261
-4.38179e-05
0.00036733
2.73275e-05
2.29367e-05
-2.69506e-05
2.77344e-05
2.47968e-05
2.81857e-05
2.68071e-05
2.86637e-05
2.89799e-05
2.91923e-05
3.13282e-05
2.9753e-05
3.3866e-05
3.03713e-05
3.66085e-05
3.10295e-05
3.9572e-05
3.17554e-05
4.27725e-05
3.25296e-05
4.62316e-05
3.338e-05
4.99705e-05
3.42877e-05
5.40101e-05
3.52831e-05
5.83741e-05
3.63492e-05
6.30838e-05
3.75187e-05
6.81693e-05
3.8771e-05
7.36679e-05
4.01382e-05
7.96056e-05
4.16115e-05
8.60046e-05
4.32199e-05
9.29176e-05
4.49499e-05
0.000100386
4.68374e-05
0.000108432
4.88774e-05
0.000117113
5.10907e-05
0.000126488
5.34917e-05
0.00013657
5.60947e-05
0.000147457
5.89129e-05
0.000159175
6.19703e-05
0.000171789
6.52769e-05
0.000185372
6.8862e-05
0.000199963
7.27368e-05
0.000215656
7.69326e-05
0.000232486
8.14648e-05
0.000250546
8.6364e-05
0.000269878
9.16515e-05
0.000290554
9.735e-05
0.000312629
0.000103493
0.00033613
0.000110102
0.000361116
0.000117207
0.000387582
0.00012484
0.000415518
0.000133024
0.000444891
0.000141785
0.000475605
0.00015115
0.00050751
0.000161138
0.000540395
0.000171766
0.000573943
0.000183042
0.000607715
0.000194967
0.000641126
0.000207526
0.0006734
0.000220684
0.000703532
0.000234383
0.000730239
0.000248524
0.000751904
0.000262983
0.000766511
0.000277554
0.000771583
0.000292017
0.000764052
0.000306047
0.000740242
0.000319261
0.000695714
0.000331145
0.000625289
0.000341148
0.000522924
0.000348268
0.000382522
0.00035137
0.00019999
-4.43694e-05
0.000351672
2.69307e-05
2.25571e-05
-2.65626e-05
2.733e-05
2.43862e-05
2.77731e-05
2.63628e-05
2.82438e-05
2.84991e-05
2.8764e-05
3.08081e-05
2.93176e-05
3.33035e-05
2.9927e-05
3.6e-05
3.05773e-05
3.89136e-05
3.12932e-05
4.20594e-05
3.20579e-05
4.54595e-05
3.28969e-05
4.91354e-05
3.3793e-05
5.31069e-05
3.47753e-05
5.73973e-05
3.58269e-05
6.20251e-05
3.69806e-05
6.70214e-05
3.8215e-05
7.24265e-05
3.95628e-05
7.82631e-05
4.1014e-05
8.45468e-05
4.2598e-05
9.13378e-05
4.43008e-05
9.86777e-05
4.61579e-05
0.000106578
4.81641e-05
0.000115102
5.034e-05
0.000124314
5.26997e-05
0.000134207
5.52567e-05
0.000144901
5.80246e-05
0.000156406
6.10258e-05
0.000168789
6.42712e-05
0.000182127
6.77879e-05
0.000196446
7.15887e-05
0.000211856
7.57017e-05
0.000228372
8.01452e-05
0.000246104
8.49461e-05
0.000265079
9.01284e-05
0.000285374
9.57124e-05
0.000307045
0.000101731
0.000330108
0.000108207
0.000354637
0.000115171
0.000380613
0.000122653
0.00040803
0.000130678
0.000436859
0.000139273
0.000467002
0.000148465
0.00049831
0.000158274
0.000530577
0.000168716
0.000563491
0.000179802
0.00059662
0.000191529
0.00062939
0.000203881
0.000661039
0.000216822
0.000690583
0.000230292
0.000716764
0.000244191
0.000737998
0.000258394
0.000752309
0.000272698
0.000757264
0.000286888
0.000749851
0.000300644
0.000726456
0.000313594
0.000682739
0.000325232
0.000613596
0.000335016
0.000513064
0.000342138
0.000375301
0.000345637
0.00019633
-4.46191e-05
0.000345709
2.65061e-05
2.21849e-05
-2.61423e-05
2.68993e-05
2.39835e-05
2.73343e-05
2.59268e-05
2.77969e-05
2.80274e-05
2.83074e-05
3.02977e-05
2.88507e-05
3.27512e-05
2.94489e-05
3.54024e-05
3.00875e-05
3.82668e-05
3.07906e-05
4.13585e-05
3.15423e-05
4.47006e-05
3.23667e-05
4.83145e-05
3.32482e-05
5.22189e-05
3.42133e-05
5.64368e-05
3.52481e-05
6.09841e-05
3.63815e-05
6.58926e-05
3.75958e-05
7.12058e-05
3.89197e-05
7.6943e-05
4.03465e-05
8.31137e-05
4.19024e-05
8.97849e-05
4.35756e-05
9.69989e-05
4.53994e-05
0.000104756
4.73698e-05
0.000113127
4.95062e-05
0.00012218
5.18227e-05
0.000131888
5.43324e-05
0.000142393
5.70487e-05
0.000153689
5.99937e-05
0.000165844
6.31776e-05
0.000178943
6.66278e-05
0.000192995
7.03558e-05
0.000208128
7.4391e-05
0.000224337
7.87489e-05
0.000241746
8.34597e-05
0.000260371
8.85438e-05
0.000280292
9.40232e-05
0.000301566
9.99303e-05
0.000324199
0.000106287
0.000348277
0.000113124
0.000373772
0.000120472
0.000400677
0.000128356
0.000428971
0.000136803
0.000458551
0.000145839
0.000489268
0.000155485
0.000520925
0.000165756
0.000553213
0.000176661
0.000585707
0.000188197
0.000617844
0.000200346
0.000648877
0.00021307
0.000677842
0.000226308
0.000703506
0.000239961
0.000724316
0.000253906
0.000738334
0.000267941
0.000743168
0.000281857
0.000735872
0.000295343
0.000712896
0.000308034
0.000669975
0.000319437
0.000602103
0.00032901
0.00050338
0.000336055
0.000368096
0.000339716
0.000192411
-4.4986e-05
0.000339714
2.61455e-05
2.18171e-05
-2.57928e-05
2.65311e-05
2.35856e-05
2.6959e-05
2.54965e-05
2.74135e-05
2.75622e-05
2.79157e-05
2.97949e-05
2.845e-05
3.22076e-05
2.90383e-05
3.48147e-05
2.96659e-05
3.76312e-05
3.03566e-05
4.06702e-05
3.10944e-05
4.39556e-05
3.19037e-05
4.75088e-05
3.27683e-05
5.13476e-05
3.37155e-05
5.54946e-05
3.473e-05
5.9963e-05
3.58423e-05
6.47856e-05
3.70329e-05
7.00087e-05
3.83321e-05
7.56486e-05
3.97312e-05
8.17084e-05
4.12576e-05
8.82622e-05
4.28986e-05
9.53525e-05
4.46876e-05
0.00010297
4.66202e-05
0.00011119
4.87156e-05
0.000120086
5.09879e-05
0.000129613
5.34497e-05
0.000139932
5.61142e-05
0.000151023
5.90031e-05
0.000162956
6.21268e-05
0.000175819
6.55114e-05
0.00018961
6.91695e-05
0.00020447
7.31283e-05
0.000220378
7.7406e-05
0.00023747
8.20288e-05
0.000255749
8.70202e-05
0.000275303
9.24001e-05
0.000296187
9.82012e-05
0.000318396
0.000104445
0.00034203
0.000111162
0.000367051
0.000118383
0.000393452
0.000126132
0.000421219
0.000134436
0.000450243
0.000143322
0.00048038
0.000152807
0.000511436
0.000162908
0.000543109
0.000173632
0.000574982
0.000184974
0.000606501
0.000196917
0.000636935
0.00020942
0.00066534
0.000222424
0.000690508
0.00023583
0.000710915
0.000249516
0.000724662
0.000263283
0.000729395
0.000276931
0.000722225
0.000290153
0.000699658
0.000302592
0.000657519
0.00031377
0.000590878
0.000323145
0.00049394
0.000330063
0.000361095
0.00033374
0.000188607
-4.51118e-05
0.000333748
2.58536e-05
2.14552e-05
-2.55008e-05
2.62354e-05
2.31944e-05
2.6657e-05
2.50738e-05
2.71048e-05
2.71054e-05
2.75983e-05
2.93013e-05
2.81229e-05
3.16743e-05
2.87e-05
3.42382e-05
2.93155e-05
3.70079e-05
2.99928e-05
3.99954e-05
3.07166e-05
4.32253e-05
3.15098e-05
4.67192e-05
3.23581e-05
5.04938e-05
3.32858e-05
5.45713e-05
3.42812e-05
5.89625e-05
3.53704e-05
6.37008e-05
3.65381e-05
6.88356e-05
3.78103e-05
7.43799e-05
3.91823e-05
8.03309e-05
4.06777e-05
8.67693e-05
4.22867e-05
9.37383e-05
4.40402e-05
0.000101218
4.59353e-05
0.000109291
4.79898e-05
0.000118033
5.02183e-05
0.000127382
5.26327e-05
0.000137518
5.52463e-05
0.000148408
5.80804e-05
0.000160122
6.11448e-05
0.000172754
6.44662e-05
0.000186289
6.80555e-05
0.00020088
7.19417e-05
0.000216492
7.61398e-05
0.000233271
8.06792e-05
0.000251213
8.55801e-05
0.000270404
9.08637e-05
0.000290904
9.65618e-05
0.000312696
0.000102696
0.000335894
0.000109296
0.000360448
0.000116393
0.000386353
0.000124009
0.000413599
0.000132172
0.000442078
0.000140907
0.000471642
0.000150232
0.000502108
0.000160161
0.000533177
0.000170701
0.000564438
0.000181848
0.00059535
0.000193581
0.000625197
0.000205861
0.000653051
0.000218629
0.000677731
0.000231787
0.00069774
0.000245216
0.000711215
0.00025872
0.000715844
0.000272103
0.000708793
0.000285068
0.000686633
0.000297263
0.000645257
0.000308224
0.000579831
0.00031741
0.000484641
0.000324186
0.000354153
0.000327817
0.000184715
-4.54633e-05
0.000327791
2.56005e-05
2.10985e-05
-2.52567e-05
2.59751e-05
2.28091e-05
2.63891e-05
2.46575e-05
2.68295e-05
2.66558e-05
2.73143e-05
2.88158e-05
2.78307e-05
3.11499e-05
2.83974e-05
3.36717e-05
2.90027e-05
3.63957e-05
2.96671e-05
3.93327e-05
3.03776e-05
4.25085e-05
3.11552e-05
4.59443e-05
3.19867e-05
4.9656e-05
3.28965e-05
5.36655e-05
3.38717e-05
5.79811e-05
3.49399e-05
6.26369e-05
3.60841e-05
6.76852e-05
3.73319e-05
7.3136e-05
3.86766e-05
7.89804e-05
4.01431e-05
8.53059e-05
4.17205e-05
9.21558e-05
4.344e-05
9.95007e-05
4.52984e-05
0.000107429
4.73133e-05
0.000116019
4.94991e-05
0.000125193
5.18675e-05
0.000135151
5.44317e-05
0.000145842
5.72124e-05
0.000157341
6.02199e-05
0.000169746
6.34793e-05
0.000183028
6.70031e-05
0.000197356
7.08173e-05
0.000212676
7.49402e-05
0.00022915
7.93971e-05
0.000246757
8.42107e-05
0.000265593
8.94005e-05
0.000285714
9.49981e-05
0.000307097
0.000101025
0.000329864
0.00010751
0.000353959
0.000114484
0.000379376
0.000121969
0.000406111
0.000129991
0.000434053
0.000138575
0.000463055
0.000147739
0.000492942
0.000157496
0.000523419
0.000167851
0.000554083
0.0001788
0.000584402
0.000190322
0.000613677
0.000202379
0.000640998
0.00021491
0.000665207
0.000227821
0.000684836
0.000240995
0.000698056
0.00025424
0.000702596
0.000267365
0.000695673
0.000280079
0.000673913
0.000292037
0.000633292
0.000302786
0.000569049
0.000311792
0.000475592
0.00031843
0.000347459
0.000321993
0.000181076
-4.54066e-05
0.000321891
2.53688e-05
2.07499e-05
-2.50257e-05
2.57381e-05
2.24325e-05
2.61443e-05
2.42505e-05
2.65768e-05
2.6216e-05
2.70518e-05
2.83407e-05
2.75577e-05
3.06366e-05
2.81127e-05
3.31169e-05
2.87057e-05
3.57959e-05
2.93568e-05
3.86834e-05
3.00538e-05
4.18059e-05
3.08161e-05
4.51848e-05
3.16327e-05
4.88349e-05
3.25242e-05
5.27776e-05
3.34821e-05
5.7019e-05
3.45289e-05
6.15938e-05
3.56523e-05
6.65572e-05
3.68751e-05
7.1916e-05
3.81949e-05
7.76557e-05
3.96326e-05
8.38701e-05
4.11805e-05
9.06032e-05
4.2867e-05
9.78157e-05
4.46905e-05
0.000105601
4.66674e-05
0.000114043
4.88124e-05
0.000123045
5.11367e-05
0.000132827
5.36534e-05
0.000143324
5.6383e-05
0.000154612
5.93352e-05
0.000166793
6.25355e-05
0.000179828
6.59948e-05
0.000193896
6.97411e-05
0.00020893
7.37891e-05
0.000225101
7.81674e-05
0.000242382
8.28953e-05
0.000260867
8.79935e-05
0.000280616
9.34928e-05
0.000301596
9.94137e-05
0.00032394
0.000105786
0.000347583
0.000112638
0.00037252
0.000119993
0.000398753
0.000127875
0.000426167
0.000136309
0.000454618
0.000145312
0.000483937
0.000154896
0.000513832
0.000165066
0.00054391
0.000175816
0.000573649
0.000187127
0.000602362
0.00019896
0.00062916
0.000211256
0.000652904
0.000223923
0.000672157
0.000236845
0.000685121
0.000249835
0.000689566
0.000262708
0.000682762
0.000275178
0.000661395
0.000286905
0.000621506
0.000297449
0.000558427
0.00030628
0.000466655
0.000312788
0.000340793
0.000316274
0.000177343
-4.55671e-05
0.00031608
2.51233e-05
2.04065e-05
-2.4796e-05
2.54826e-05
2.20615e-05
2.58804e-05
2.38496e-05
2.63035e-05
2.57829e-05
2.67702e-05
2.78729e-05
2.72672e-05
3.01312e-05
2.78134e-05
3.25708e-05
2.83964e-05
3.52057e-05
2.90369e-05
3.80447e-05
2.97215e-05
4.1115e-05
3.0471e-05
4.4438e-05
3.12724e-05
4.80277e-05
3.21489e-05
5.1905e-05
3.30886e-05
5.60736e-05
3.41175e-05
6.0569e-05
3.52198e-05
6.54493e-05
3.64214e-05
7.07181e-05
3.77167e-05
7.63551e-05
3.9129e-05
8.24607e-05
4.06484e-05
8.9079e-05
4.23044e-05
9.61615e-05
4.40947e-05
0.000103807
4.60357e-05
0.000112103
4.81418e-05
0.000120936
5.0424e-05
0.000130545
5.28953e-05
0.000140851
5.55757e-05
0.000151931
5.84751e-05
0.000163892
6.16178e-05
0.000176684
6.5016e-05
0.000190498
6.86949e-05
0.00020525
7.2672e-05
0.000221125
7.69724e-05
0.000238083
8.16174e-05
0.000256225
8.6626e-05
0.000275608
9.20287e-05
0.000296191
9.78459e-05
0.00031812
0.000104107
0.000341319
0.000110839
0.000365785
0.000118064
0.000391525
0.000125807
0.000418422
0.000134092
0.000446332
0.000142933
0.000475093
0.000152344
0.00050442
0.000162329
0.000533925
0.000172882
0.000563097
0.000183982
0.000591264
0.000195593
0.000617552
0.000207657
0.000640848
0.000220083
0.000659738
0.000232758
0.00067246
0.0002455
0.000676822
0.000258126
0.000670144
0.000270358
0.000649165
0.000281861
0.000610005
0.000292204
0.000548067
0.000300867
0.000457969
0.000307249
0.000334384
0.000310656
0.000173914
-4.52534e-05
0.000310372
2.48635e-05
2.00713e-05
-2.45353e-05
2.52183e-05
2.16992e-05
2.56089e-05
2.34578e-05
2.60248e-05
2.53594e-05
2.64824e-05
2.74152e-05
2.69695e-05
2.96365e-05
2.75047e-05
3.2036e-05
2.80763e-05
3.46274e-05
2.87046e-05
3.74186e-05
2.9377e-05
4.04374e-05
3.01128e-05
4.37055e-05
3.09009e-05
4.72357e-05
3.17611e-05
5.10486e-05
3.26856e-05
5.51457e-05
3.36954e-05
5.95629e-05
3.47795e-05
6.43613e-05
3.59589e-05
6.95414e-05
3.72322e-05
7.50774e-05
3.86188e-05
8.10759e-05
4.01119e-05
8.75815e-05
4.17385e-05
9.45362e-05
4.34974e-05
0.000102044
4.54043e-05
0.000110197
4.74733e-05
0.000118865
4.97154e-05
0.000128303
5.21433e-05
0.000138422
5.47766e-05
0.000149298
5.76249e-05
0.000161043
6.07127e-05
0.000173595
6.40507e-05
0.000187159
6.76659e-05
0.000201634
7.15725e-05
0.000217218
7.5798e-05
0.000233859
8.03615e-05
0.000251663
8.52824e-05
0.000270688
9.05904e-05
0.000290881
9.63054e-05
0.000312402
0.000102456
0.000335166
0.000109069
0.000359169
0.000116166
0.000384424
0.000123772
0.000410813
0.000131908
0.000438193
0.00014059
0.000466408
0.000149829
0.000495178
0.00015963
0.000524122
0.000169987
0.000552738
0.00018088
0.000580368
0.000192272
0.000606156
0.000204107
0.000629008
0.000216297
0.000647539
0.00022873
0.000660017
0.000241228
0.00066429
0.000253614
0.000657727
0.000265614
0.000637127
0.000276899
0.000598672
0.000287047
0.000537851
0.000295548
0.000449376
0.000301809
0.000327982
0.000305136
0.000170369
-4.5205e-05
0.00030477
2.45733e-05
1.97412e-05
-2.42558e-05
2.49205e-05
2.13423e-05
2.53038e-05
2.3072e-05
2.57125e-05
2.49426e-05
2.6162e-05
2.69648e-05
2.6642e-05
2.91498e-05
2.71681e-05
3.15098e-05
2.77311e-05
3.40584e-05
2.83484e-05
3.68025e-05
2.90097e-05
3.97707e-05
2.97325e-05
4.29846e-05
3.05066e-05
4.64561e-05
3.13526e-05
5.02058e-05
3.22604e-05
5.42324e-05
3.32537e-05
5.8573e-05
3.43187e-05
6.32909e-05
3.54791e-05
6.83841e-05
3.67305e-05
7.3821e-05
3.80943e-05
7.97144e-05
3.9562e-05
8.61092e-05
4.11612e-05
9.29385e-05
4.28901e-05
0.000100312
4.47644e-05
0.000108324
4.6798e-05
0.000116828
4.90016e-05
0.0001261
5.13877e-05
0.000136034
5.39755e-05
0.00014671
5.67748e-05
0.000158243
5.98088e-05
0.00017056
6.30895e-05
0.000183878
6.6641e-05
0.000198081
7.04805e-05
0.000213379
7.46321e-05
0.00022971
7.9116e-05
0.000247182
8.39509e-05
0.000265853
8.91658e-05
0.000285665
9.47803e-05
0.000306785
0.000100822
0.000329121
0.000107318
0.00035267
0.000114289
0.000377451
0.000121758
0.000403342
0.000129747
0.000430202
0.000138271
0.000457883
0.000147341
0.000486107
0.000156961
0.000514501
0.000167125
0.000542575
0.000177813
0.000569681
0.00018899
0.000594982
0.000200601
0.000617404
0.000212559
0.000635588
0.000224756
0.000647833
0.000237017
0.000652027
0.000249169
0.000645585
0.000260943
0.000625361
0.000272017
0.000587607
0.000281976
0.000527887
0.000290318
0.000441028
0.00029646
0.000321838
0.000299709
0.000167139
-4.46836e-05
0.000299274
2.4265e-05
1.94187e-05
-2.39457e-05
2.46085e-05
2.09936e-05
2.49849e-05
2.2695e-05
2.53868e-05
2.45349e-05
2.58273e-05
2.6524e-05
2.62976e-05
2.86731e-05
2.68131e-05
3.09943e-05
2.73652e-05
3.35006e-05
2.79708e-05
3.61982e-05
2.86205e-05
3.91165e-05
2.93304e-05
4.2277e-05
3.00923e-05
4.56909e-05
3.09231e-05
4.93781e-05
3.18171e-05
5.33354e-05
3.27928e-05
5.76003e-05
3.38413e-05
6.2239e-05
3.49813e-05
6.72463e-05
3.62125e-05
7.25856e-05
3.75529e-05
7.83756e-05
3.89964e-05
8.46615e-05
4.05685e-05
9.13674e-05
4.22687e-05
9.86079e-05
4.41114e-05
0.000106481
4.61108e-05
0.000114826
4.82772e-05
0.000123934
5.06228e-05
0.000133687
5.31666e-05
0.000144166
5.59178e-05
0.000155491
5.89002e-05
0.000167577
6.21239e-05
0.000180653
6.5615e-05
0.00019459
6.93873e-05
0.000209607
7.34671e-05
0.000225632
7.78731e-05
0.000242778
8.26234e-05
0.000261103
8.77468e-05
0.00028054
9.32624e-05
0.000301267
9.91974e-05
0.000323183
0.000105578
0.000346287
0.000112424
0.000370602
0.000119758
0.000396005
0.000127602
0.000422355
0.00013597
0.000449511
0.000144874
0.000477201
0.000154315
0.000505057
0.000164289
0.000532598
0.000174777
0.00055919
0.000185744
0.000584011
0.000197135
0.000606008
0.000208868
0.000623847
0.000220834
0.000635859
0.000232865
0.000639968
0.000244789
0.000633636
0.000256344
0.000613774
0.000267212
0.000576698
0.000276986
0.000518053
0.000285174
0.000432756
0.0002912
0.000315683
0.000294374
0.000163768
-4.4481e-05
0.000293883
2.39278e-05
1.90997e-05
-2.36253e-05
2.42615e-05
2.06488e-05
2.46307e-05
2.23223e-05
2.50239e-05
2.41322e-05
2.54575e-05
2.60888e-05
2.59201e-05
2.82028e-05
2.64283e-05
3.04858e-05
2.69718e-05
3.29508e-05
2.75685e-05
3.56028e-05
2.82074e-05
3.8472e-05
2.89066e-05
4.158e-05
2.96551e-05
4.49371e-05
3.04734e-05
4.8563e-05
3.13515e-05
5.24521e-05
3.23125e-05
5.66428e-05
3.33427e-05
6.12036e-05
3.44652e-05
6.61269e-05
3.56757e-05
7.13704e-05
3.69948e-05
7.70588e-05
3.84143e-05
8.32377e-05
3.99607e-05
8.98225e-05
4.16325e-05
9.69325e-05
4.34446e-05
0.00010467
4.54105e-05
0.000112858
4.75405e-05
0.000121804
4.98466e-05
0.000131379
5.23473e-05
0.000141665
5.5052e-05
0.000152786
5.79831e-05
0.000164645
6.11521e-05
0.000177484
6.45823e-05
0.000191158
6.82902e-05
0.0002059
7.22991e-05
0.000221625
7.66282e-05
0.000238452
8.12957e-05
0.000256437
8.6329e-05
0.000275505
9.17472e-05
0.000295847
9.75768e-05
0.000317351
0.000103843
0.000340019
0.000110566
0.000363877
0.000117768
0.000388801
0.00012547
0.000414652
0.000133685
0.000441295
0.000142424
0.000468461
0.000151691
0.00049579
0.000161479
0.000522811
0.000171771
0.000548901
0.000182532
0.000573254
0.000193709
0.000594837
0.000205222
0.000612342
0.000216964
0.00062413
0.00022877
0.000628161
0.000240473
0.000621945
0.000251814
0.000602445
0.000262482
0.000566045
0.000272077
0.000508463
0.000280115
0.000424726
0.000286027
0.000309789
0.000289129
0.000160722
-4.38124e-05
0.000288595
2.35827e-05
1.87881e-05
-2.3277e-05
2.39132e-05
2.0312e-05
2.4276e-05
2.19582e-05
2.4663e-05
2.37385e-05
2.50882e-05
2.56633e-05
2.55415e-05
2.77426e-05
2.60394e-05
2.9988e-05
2.6572e-05
3.24121e-05
2.71574e-05
3.50192e-05
2.77849e-05
3.78401e-05
2.84714e-05
4.08964e-05
2.92078e-05
4.41977e-05
3.00112e-05
4.77631e-05
3.08758e-05
5.1585e-05
3.18194e-05
5.57025e-05
3.28334e-05
6.01866e-05
3.39359e-05
6.50268e-05
3.51268e-05
7.01758e-05
3.6423e-05
7.57642e-05
3.78191e-05
8.18377e-05
3.93394e-05
8.83032e-05
4.09834e-05
9.52851e-05
4.27651e-05
0.000102889
4.46981e-05
0.000110922
4.67923e-05
0.000119711
4.90595e-05
0.000129111
5.15179e-05
0.000139207
5.41764e-05
0.000150127
5.70579e-05
0.000161763
6.0172e-05
0.000174369
6.3544e-05
0.000187786
6.71871e-05
0.000202256
7.11266e-05
0.000217688
7.53804e-05
0.0002342
7.9966e-05
0.000251852
8.49108e-05
0.000270559
9.02332e-05
0.000290522
9.59592e-05
0.000311623
0.000102114
0.000333862
0.000108716
0.000357272
0.000115787
0.000381726
0.000123349
0.000407088
0.000131414
0.000433227
0.000139992
0.00045988
0.000149088
0.000486692
0.000158695
0.000513201
0.000168794
0.000538797
0.000179355
0.000562689
0.000190324
0.000583864
0.000201621
0.000601038
0.000213146
0.000612599
0.000224733
0.000616549
0.00023622
0.000610438
0.000247354
0.000591286
0.000257827
0.000555539
0.000267247
0.000498992
0.000275139
0.00041676
0.00028094
0.000303872
0.000283973
0.000157516
-4.3501e-05
0.000283406
2.32201e-05
1.84808e-05
-2.29252e-05
2.35434e-05
1.99797e-05
2.38997e-05
2.15991e-05
2.42801e-05
2.33506e-05
2.46981e-05
2.5244e-05
2.51451e-05
2.72894e-05
2.56347e-05
2.9498e-05
2.61594e-05
3.1882e-05
2.67345e-05
3.44449e-05
2.73513e-05
3.72183e-05
2.80255e-05
4.02237e-05
2.87483e-05
4.34699e-05
2.95381e-05
4.69758e-05
3.03865e-05
5.07317e-05
3.13146e-05
5.47772e-05
3.23104e-05
5.91859e-05
3.33952e-05
6.39447e-05
3.45654e-05
6.90009e-05
3.58405e-05
7.44911e-05
3.7213e-05
8.04611e-05
3.8708e-05
8.68095e-05
4.03242e-05
9.36654e-05
4.2076e-05
0.000101138
4.39763e-05
0.00010902
4.6035e-05
0.000117652
4.82638e-05
0.000126881
5.06803e-05
0.00013679
5.32936e-05
0.000147513
5.61254e-05
0.000158931
5.91865e-05
0.000171308
6.24994e-05
0.000184472
6.608e-05
0.000198677
6.99508e-05
0.000213819
7.41301e-05
0.000230024
7.86353e-05
0.000247348
8.34928e-05
0.000265701
8.87208e-05
0.000285292
9.43447e-05
0.000305996
0.000100389
0.000327815
0.000106872
0.000350786
0.000113816
0.000374781
0.00012124
0.000399663
0.000129158
0.000425308
0.000137579
0.000451459
0.000146506
0.000477765
0.000155936
0.000503773
0.000165848
0.000528887
0.000176213
0.000552329
0.000186979
0.000573106
0.000198068
0.000589957
0.000209379
0.000601301
0.000220754
0.000605174
0.000232031
0.000599173
0.000242963
0.00058037
0.000253246
0.000545274
0.000262495
0.000489754
0.000270245
0.00040903
0.000275938
0.000298213
0.000278905
0.000154633
-4.27362e-05
0.000278315
2.28573e-05
1.81808e-05
-2.25589e-05
2.31777e-05
1.96555e-05
2.35277e-05
2.12487e-05
2.39019e-05
2.29717e-05
2.43114e-05
2.48343e-05
2.47491e-05
2.68462e-05
2.52285e-05
2.90185e-05
2.57424e-05
3.1363e-05
2.63061e-05
3.38825e-05
2.69116e-05
3.66091e-05
2.75732e-05
3.95644e-05
2.8284e-05
4.27565e-05
2.9059e-05
4.62039e-05
2.98938e-05
4.98947e-05
3.08047e-05
5.38692e-05
3.17843e-05
5.82037e-05
3.28491e-05
6.2882e-05
3.39997e-05
6.78469e-05
3.5252e-05
7.32401e-05
3.66011e-05
7.91083e-05
3.80702e-05
8.53414e-05
3.96589e-05
9.20734e-05
4.13806e-05
9.9417e-05
4.32485e-05
0.000107149
4.52719e-05
0.000115629
4.74625e-05
0.000124689
4.98376e-05
0.000134415
5.24058e-05
0.000144944
5.5189e-05
0.000156147
5.81966e-05
0.000168299
6.14528e-05
0.000181216
6.49703e-05
0.000195159
6.87735e-05
0.000210018
7.28796e-05
0.00022592
7.73053e-05
0.000242923
8.20769e-05
0.000260928
8.7212e-05
0.000280155
9.27355e-05
0.000300471
9.86712e-05
0.000321877
0.000105038
0.000344417
0.000111856
0.00036796
0.000119145
0.000392371
0.000126918
0.000417532
0.000135185
0.000443189
0.000143949
0.000468998
0.000153205
0.000494515
0.000162935
0.000519153
0.000173109
0.000542152
0.000183676
0.000562535
0.000194562
0.000579066
0.000205666
0.000590193
0.000216834
0.000593985
0.000227906
0.000588085
0.000238641
0.000569615
0.000248738
0.000535147
0.000257822
0.000480623
0.000265433
0.000401352
0.00027102
0.000292518
0.000273924
0.000151568
-4.23559e-05
0.000273319
2.24816e-05
1.78838e-05
-2.22004e-05
2.27921e-05
1.93346e-05
2.31353e-05
2.09019e-05
2.35012e-05
2.25971e-05
2.39044e-05
2.44295e-05
2.4335e-05
2.64087e-05
2.48077e-05
2.85454e-05
2.53136e-05
3.08514e-05
2.5869e-05
3.33283e-05
2.6464e-05
3.6009e-05
2.7115e-05
3.89153e-05
2.78126e-05
4.20542e-05
2.85751e-05
4.54441e-05
2.93941e-05
4.90711e-05
3.02902e-05
5.29761e-05
3.12516e-05
5.72377e-05
3.2299e-05
6.18373e-05
3.3429e-05
6.67125e-05
3.46603e-05
7.20108e-05
3.59858e-05
7.77789e-05
3.74296e-05
8.38988e-05
3.89907e-05
9.05091e-05
4.06826e-05
9.77258e-05
4.25181e-05
0.000105311
4.45065e-05
0.000113641
4.66591e-05
0.000122535
4.89929e-05
0.000132082
5.15167e-05
0.00014242
5.42511e-05
0.000153412
5.72068e-05
0.000165344
6.04052e-05
0.000178016
6.38617e-05
0.000191704
6.75979e-05
0.000206284
7.16315e-05
0.000221889
7.5979e-05
0.000238577
8.06658e-05
0.000256241
8.57093e-05
0.00027511
9.1134e-05
0.000295044
9.69631e-05
0.000316046
0.000103215
0.000338164
0.00010991
0.000361264
0.000117067
0.000385214
0.000124698
0.0004099
0.000132814
0.000435073
0.000141418
0.000460395
0.000150504
0.000485431
0.000160056
0.000509605
0.000170044
0.00053217
0.000180418
0.000552169
0.000191105
0.000568388
0.000202007
0.000579304
0.000212973
0.000583021
0.000223845
0.000577225
0.000234388
0.000559089
0.000244304
0.00052525
0.000253226
0.00047172
0.000260701
0.000393906
0.000266185
0.000287082
0.00026903
0.000148833
-4.15317e-05
0.000268417
2.21135e-05
1.75942e-05
-2.1828e-05
2.24215e-05
1.90217e-05
2.27588e-05
2.05637e-05
2.31188e-05
2.22314e-05
2.3514e-05
2.40341e-05
2.39355e-05
2.59811e-05
2.43983e-05
2.80828e-05
2.48936e-05
3.03508e-05
2.54379e-05
3.27858e-05
2.60218e-05
3.54216e-05
2.66603e-05
3.82796e-05
2.7346e-05
4.13664e-05
2.80938e-05
4.46998e-05
2.88992e-05
4.8264e-05
2.9778e-05
5.21005e-05
3.07232e-05
5.62902e-05
3.17506e-05
6.08121e-05
3.2861e-05
6.5599e-05
3.40695e-05
7.08037e-05
3.53717e-05
7.64733e-05
3.67896e-05
8.24817e-05
3.83232e-05
8.89723e-05
3.99852e-05
9.60643e-05
4.17885e-05
0.000103506
4.3742e-05
0.000111688
4.58568e-05
0.000120419
4.81497e-05
0.000129789
5.0629e-05
0.00013994
5.33157e-05
0.000150725
5.62188e-05
0.00016244
5.93617e-05
0.000174874
6.27566e-05
0.000188309
6.64268e-05
0.000202616
7.03891e-05
0.00021793
7.46592e-05
0.000234308
7.92625e-05
0.000251637
8.42159e-05
0.000270155
8.95434e-05
0.000289715
9.52677e-05
0.00031032
0.000101407
0.000332022
0.000107981
0.000354688
0.000115008
0.000378184
0.000122501
0.000402405
0.000130469
0.000427103
0.000138916
0.000451946
0.000147836
0.000476508
0.000157214
0.000500224
0.00016702
0.000522362
0.000177205
0.000541982
0.000187698
0.000557893
0.000198403
0.000568597
0.000209172
0.000572236
0.00021985
0.000566535
0.000230204
0.00054872
0.000239944
0.000515484
0.000248708
0.000462915
0.000256049
0.000386503
0.000261433
0.000281601
0.000264222
0.000145903
-4.11021e-05
0.000263604
2.17398e-05
1.73085e-05
-2.14653e-05
2.20406e-05
1.8713e-05
2.23718e-05
2.02301e-05
2.27257e-05
2.18709e-05
2.31141e-05
2.36446e-05
2.35299e-05
2.55601e-05
2.39849e-05
2.76275e-05
2.44729e-05
2.98583e-05
2.50072e-05
3.22522e-05
2.55808e-05
3.48437e-05
2.62074e-05
3.76543e-05
2.68797e-05
4.06898e-05
2.76141e-05
4.39677e-05
2.84035e-05
4.74702e-05
2.92669e-05
5.12395e-05
3.01939e-05
5.53588e-05
3.12037e-05
5.98047e-05
3.22936e-05
6.45049e-05
3.34811e-05
6.96179e-05
3.47597e-05
7.51908e-05
3.61526e-05
8.109e-05
3.76588e-05
8.7463e-05
3.92913e-05
9.44324e-05
4.10625e-05
0.000101732
4.29813e-05
0.00010977
4.50586e-05
0.000118341
4.73108e-05
0.000127537
4.97463e-05
0.000137504
5.2385e-05
0.000148085
5.52372e-05
0.000159588
5.83235e-05
0.000171786
6.16586e-05
0.000184975
6.52636e-05
0.000199014
6.9155e-05
0.000214041
7.33491e-05
0.000230116
7.787e-05
0.000247115
8.27346e-05
0.000265289
8.79663e-05
0.000284481
9.35876e-05
0.000304697
9.9616e-05
0.000325993
0.000106071
0.000348233
0.000112971
0.000371284
0.000120328
0.000395048
0.000128151
0.00041928
0.000136444
0.000443655
0.000145203
0.000467753
0.00015441
0.000491021
0.000164038
0.000512741
0.00017404
0.00053199
0.000184343
0.000547598
0.000194856
0.000558098
0.000205432
0.000561662
0.000215919
0.000556061
0.000226089
0.000538568
0.000235657
0.000505938
0.000244265
0.00045433
0.000251477
0.000379328
0.000256763
0.000276376
0.000259498
0.000143301
-4.02383e-05
0.000258881
2.13762e-05
1.703e-05
-2.10974e-05
2.16747e-05
1.8412e-05
2.19998e-05
1.99048e-05
2.23478e-05
2.15192e-05
2.27281e-05
2.32642e-05
2.31348e-05
2.51486e-05
2.35799e-05
2.71823e-05
2.40574e-05
2.93764e-05
2.45809e-05
3.173e-05
2.51435e-05
3.4278e-05
2.5758e-05
3.70421e-05
2.64187e-05
4.00272e-05
2.71387e-05
4.32505e-05
2.79149e-05
4.66925e-05
2.87615e-05
5.03957e-05
2.96725e-05
5.44457e-05
3.06627e-05
5.88164e-05
3.17332e-05
6.34315e-05
3.28983e-05
6.84541e-05
3.41538e-05
7.39319e-05
3.55211e-05
7.97235e-05
3.70001e-05
8.5981e-05
3.86031e-05
9.28299e-05
4.03425e-05
9.99909e-05
4.22268e-05
0.000107886
4.42669e-05
0.000116299
4.64788e-05
0.000125325
4.88706e-05
0.000135112
5.14625e-05
0.000145493
5.42631e-05
0.000156786
5.72951e-05
0.000168755
6.057e-05
0.0001817
6.41104e-05
0.000195476
6.79325e-05
0.000210223
7.20512e-05
0.000225999
7.64911e-05
0.000242675
8.12682e-05
0.000260511
8.64058e-05
0.000279342
9.19257e-05
0.000299176
9.78452e-05
0.000320071
0.000104183
0.000341893
0.000110958
0.000364508
0.000118182
0.000387822
0.000125864
0.000411597
0.000134007
0.000435511
0.000142607
0.000459152
0.000151647
0.00048198
0.000161102
0.000503288
0.000170923
0.00052217
0.000181041
0.000537481
0.000191365
0.000547776
0.000201753
0.000551263
0.000212054
0.000545751
0.000222044
0.000528565
0.000231442
0.000496516
0.000239899
0.000445835
0.000246984
0.000372185
0.000252174
0.000271093
0.000254859
0.000140493
-3.9776e-05
0.000254245
2.10066e-05
1.67541e-05
-2.07455e-05
2.12952e-05
1.8114e-05
2.1614e-05
1.95827e-05
2.1954e-05
2.11713e-05
2.23285e-05
2.28883e-05
2.27286e-05
2.47423e-05
2.31676e-05
2.67431e-05
2.36377e-05
2.89013e-05
2.41533e-05
3.12153e-05
2.47061e-05
3.37208e-05
2.53105e-05
3.64393e-05
2.59585e-05
3.9375e-05
2.66666e-05
4.25449e-05
2.74274e-05
4.59275e-05
2.82598e-05
4.9566e-05
2.91532e-05
5.35481e-05
3.01265e-05
5.78456e-05
3.11769e-05
6.23771e-05
3.23215e-05
6.73112e-05
3.3554e-05
7.26958e-05
3.48967e-05
7.83819e-05
3.63487e-05