/*--------------------------------*- C++ -*----------------------------------*\
  =========                 |
  \\      /  F ield         | OpenFOAM: The Open Source CFD Toolbox
   \\    /   O peration     | Website:  https://openfoam.org
    \\  /    A nd           | Version:  6.0
     \\/     M anipulation  |
\*---------------------------------------------------------------------------*/
FoamFile
{
    version     2.0;
    format      ascii;
    class       volVectorField;
    location    "8";
    object      U;
}
// * * * * * * * * * * * * * * * * * * * * * * * * * * * * * * * * * * * * * //

dimensions      [0 1 -1 0 0 0 0];

internalField   nonuniform List<vector> 
62000
(
(0.996159 -0.0875222 -5.17509e-21)
(0.996165 -0.0875073 4.25016e-21)
(0.996171 -0.0874894 4.30786e-21)
(0.996177 -0.0874658 -1.86415e-20)
(0.996181 -0.0874411 -2.10243e-20)
(0.996184 -0.0874184 7.16783e-20)
(0.996185 -0.0873982 -7.77422e-20)
(0.996185 -0.0873803 4.45746e-20)
(0.996184 -0.0873642 -2.05889e-20)
(0.996182 -0.0873492 -1.03762e-19)
(0.99618 -0.0873353 -1.30102e-20)
(0.996177 -0.0873222 1.41246e-19)
(0.996174 -0.0873105 2.83555e-20)
(0.99617 -0.0872997 -9.80955e-20)
(0.996166 -0.08729 1.50924e-19)
(0.996161 -0.0872815 -7.90604e-20)
(0.996156 -0.0872741 8.05719e-20)
(0.996151 -0.0872682 -9.35878e-20)
(0.996145 -0.0872633 4.54037e-20)
(0.996139 -0.0872605 -1.38114e-19)
(0.996132 -0.0872589 1.78199e-19)
(0.996124 -0.0872597 5.13897e-20)
(0.996116 -0.0872621 7.28027e-20)
(0.996107 -0.0872673 -3.30255e-19)
(0.996097 -0.0872744 1.19623e-19)
(0.996086 -0.0872845 -7.18631e-20)
(0.996075 -0.087297 9.00948e-23)
(0.996062 -0.0873128 -5.5022e-20)
(0.996049 -0.0873311 1.73293e-19)
(0.996034 -0.0873529 -9.28522e-20)
(0.996018 -0.0873773 2.19833e-19)
(0.996002 -0.087405 -4.45022e-19)
(0.995985 -0.0874352 4.35122e-20)
(0.995967 -0.0874668 -1.37337e-19)
(0.995948 -0.0874981 -3.91575e-20)
(0.995928 -0.0875275 -1.36065e-19)
(0.995907 -0.0875551 -2.63984e-20)
(0.995885 -0.0875805 -2.89527e-20)
(0.995863 -0.0876026 1.21335e-19)
(0.99584 -0.0876203 5.15212e-19)
(0.995816 -0.0876331 -1.19352e-19)
(0.99579 -0.0876414 -6.29861e-19)
(0.995761 -0.0876471 -9.38409e-19)
(0.995728 -0.0876537 4.73556e-19)
(0.995693 -0.087666 1.49909e-19)
(0.995655 -0.0876897 -5.84322e-19)
(0.99562 -0.0877294 7.77091e-20)
(0.995594 -0.0877866 -2.17361e-19)
(0.995586 -0.0878569 -8.69174e-19)
(0.995611 -0.0879257 -1.90588e-19)
(0.995683 -0.0879702 -7.07973e-20)
(0.995813 -0.0879495 -6.77588e-19)
(0.995999 -0.0878322 9.50832e-20)
(0.996247 -0.0875696 1.74807e-20)
(0.996533 -0.0871167 -9.05209e-20)
(0.996834 -0.0864155 -6.52951e-19)
(0.997079 -0.0853856 9.25536e-20)
(0.997514 -0.0839488 1.56969e-19)
(0.994914 -0.0807938 -5.18447e-19)
(1.0096 -0.0793797 -7.30429e-20)
(0.996056 -0.0886093 -1.38233e-21)
(0.996072 -0.0886196 1.30556e-20)
(0.996085 -0.0886267 5.34625e-21)
(0.996095 -0.0886134 -2.2627e-20)
(0.996105 -0.0885851 9.27358e-21)
(0.996114 -0.0885519 -6.32152e-20)
(0.99612 -0.0885204 5.70895e-20)
(0.996122 -0.0884937 3.2632e-20)
(0.996123 -0.0884721 -6.0185e-20)
(0.996121 -0.0884542 2.55738e-21)
(0.996116 -0.0884394 5.67687e-20)
(0.99611 -0.0884272 1.45438e-22)
(0.996103 -0.0884174 1.59029e-20)
(0.996094 -0.0884099 -1.34455e-19)
(0.996085 -0.0884047 2.66422e-19)
(0.996074 -0.088402 -2.3243e-19)
(0.996063 -0.0884017 1.07621e-19)
(0.996052 -0.0884043 -2.23915e-20)
(0.99604 -0.0884095 -6.01742e-20)
(0.996028 -0.0884178 1.64164e-19)
(0.996015 -0.0884288 -2.56026e-19)
(0.996002 -0.088443 1.47021e-19)
(0.995989 -0.0884597 -1.84272e-19)
(0.995976 -0.0884792 1.08988e-19)
(0.995963 -0.0885006 9.89722e-20)
(0.99595 -0.0885243 -6.46899e-20)
(0.995937 -0.0885489 4.02177e-22)
(0.995923 -0.0885746 7.08782e-20)
(0.995909 -0.0885998 5.82704e-20)
(0.995895 -0.0886241 -1.14936e-19)
(0.995882 -0.0886455 2.31825e-19)
(0.995869 -0.0886626 4.43738e-20)
(0.995857 -0.0886737 1.36964e-19)
(0.995846 -0.0886765 7.33683e-21)
(0.995833 -0.088668 3.40509e-20)
(0.995818 -0.0886459 -4.43792e-20)
(0.995801 -0.0886105 -1.24284e-19)
(0.995781 -0.0885625 -6.53661e-20)
(0.995759 -0.0885028 -3.168e-19)
(0.995732 -0.0884333 -3.40199e-19)
(0.995698 -0.0883588 2.56614e-19)
(0.995654 -0.0882868 1.54298e-19)
(0.995599 -0.0882279 9.98063e-19)
(0.995533 -0.0881954 4.71481e-20)
(0.995456 -0.0882032 -1.34695e-18)
(0.995374 -0.0882634 5.04033e-19)
(0.995298 -0.0883819 3.9023e-19)
(0.995243 -0.088554 4.1226e-19)
(0.995231 -0.08876 7.88176e-20)
(0.995286 -0.0889616 1.67505e-20)
(0.995434 -0.0891043 4.57502e-19)
(0.995685 -0.0891111 8.76473e-19)
(0.996032 -0.0889234 -3.26885e-19)
(0.996465 -0.0884762 -2.28061e-19)
(0.996928 -0.0877214 9.29291e-20)
(0.99735 -0.0866383 3.10424e-19)
(0.997564 -0.0852438 6.12389e-19)
(0.998053 -0.0836448 4.52973e-19)
(0.995663 -0.0805502 -8.16656e-19)
(0.994123 -0.0849081 -3.00021e-19)
(0.996004 -0.0888822 -6.7106e-21)
(0.996011 -0.0889011 -9.32894e-22)
(0.996005 -0.0889462 1.01591e-21)
(0.995999 -0.0889664 4.55219e-21)
(0.995997 -0.0889607 1.27185e-20)
(0.995998 -0.08894 -1.18848e-20)
(0.995999 -0.0889148 6.25632e-20)
(0.995999 -0.0888932 -2.93762e-20)
(0.995997 -0.0888785 -1.55754e-20)
(0.995995 -0.0888704 -9.44223e-20)
(0.995991 -0.088868 7.84968e-20)
(0.995985 -0.0888697 5.68507e-21)
(0.995979 -0.0888755 -1.7476e-20)
(0.995973 -0.0888843 4.5756e-20)
(0.995965 -0.0888961 -7.72411e-20)
(0.995957 -0.0889109 5.19997e-22)
(0.99595 -0.0889281 -3.44555e-20)
(0.995942 -0.0889482 7.66392e-22)
(0.995934 -0.0889703 7.81224e-20)
(0.995927 -0.088995 -1.17391e-19)
(0.995921 -0.0890212 7.24605e-20)
(0.995916 -0.0890495 2.77239e-19)
(0.995911 -0.0890786 -3.77463e-20)
(0.995908 -0.0891089 -3.77174e-19)
(0.995906 -0.0891388 1.92466e-19)
(0.995906 -0.0891686 -1.01744e-19)
(0.995908 -0.089196 1.64667e-19)
(0.995911 -0.0892212 -1.00649e-19)
(0.995916 -0.0892417 -1.9301e-19)
(0.995924 -0.0892568 2.01194e-19)
(0.995934 -0.0892634 -1.39974e-19)
(0.995947 -0.0892599 1.84113e-19)
(0.995964 -0.0892441 -4.97874e-19)
(0.995985 -0.0892139 4.32423e-19)
(0.996007 -0.0891666 -2.2486e-19)
(0.996027 -0.0890987 9.46068e-20)
(0.996047 -0.0890112 7.05385e-20)
(0.996065 -0.0889061 7.31374e-21)
(0.996081 -0.0887866 1.15973e-21)
(0.996092 -0.0886576 3.56287e-19)
(0.996094 -0.0885274 -1.30047e-19)
(0.996085 -0.088408 1.96451e-19)
(0.996061 -0.0883149 -6.33535e-19)
(0.99602 -0.0882663 -2.90613e-19)
(0.995962 -0.08828 3.16464e-19)
(0.995891 -0.0883711 -9.21527e-19)
(0.995815 -0.0885458 1.27017e-19)
(0.995749 -0.088798 -6.86976e-19)
(0.995712 -0.0891047 8.94877e-19)
(0.995725 -0.0894234 2.05542e-19)
(0.995812 -0.0896966 9.95571e-20)
(0.995979 -0.0898459 -2.07734e-21)
(0.99622 -0.0898172 2.05568e-19)
(0.996523 -0.0895654 -2.17931e-19)
(0.996832 -0.0890676 -1.69424e-19)
(0.997078 -0.0883496 2.10608e-19)
(0.997084 -0.0875273 -1.17781e-19)
(0.9974 -0.0867143 5.91698e-19)
(0.995821 -0.0848991 1.434e-19)
(0.997058 -0.0899761 -1.75366e-19)
(0.995959 -0.0889712 -6.67945e-21)
(0.99594 -0.0890094 2.0113e-20)
(0.995902 -0.0890934 -3.03037e-21)
(0.995869 -0.0891504 -2.00378e-20)
(0.995846 -0.0891759 2.96933e-20)
(0.995829 -0.0891753 5.0368e-20)
(0.995815 -0.0891595 -6.45794e-20)
(0.995803 -0.089141 6.89418e-21)
(0.995793 -0.0891278 2.16427e-20)
(0.995784 -0.0891218 4.42768e-20)
(0.995776 -0.0891229 -8.05179e-20)
(0.995768 -0.0891296 -2.4369e-20)
(0.995761 -0.0891409 -2.67461e-20)
(0.995755 -0.0891559 1.20236e-19)
(0.99575 -0.089174 -7.89135e-20)
(0.995746 -0.0891952 1.81062e-19)
(0.995742 -0.089219 -2.16328e-19)
(0.99574 -0.0892454 -3.08907e-20)
(0.995738 -0.0892736 2.20651e-19)
(0.995738 -0.089304 -7.61069e-20)
(0.995739 -0.0893356 -2.75697e-20)
(0.995741 -0.0893682 -2.87822e-20)
(0.995745 -0.089401 -2.56421e-19)
(0.995751 -0.0894338 1.4767e-19)
(0.995759 -0.089465 -6.40431e-20)
(0.995769 -0.0894949 1.04121e-19)
(0.995782 -0.089521 4.78177e-20)
(0.995797 -0.0895435 2.29383e-19)
(0.995816 -0.0895597 -1.43984e-19)
(0.995839 -0.0895692 -1.82158e-19)
(0.995865 -0.0895691 2.80645e-19)
(0.995897 -0.0895571 -2.28118e-19)
(0.995934 -0.0895317 4.10394e-19)
(0.995978 -0.0894913 -2.38097e-19)
(0.996025 -0.089433 1.07711e-19)
(0.996074 -0.0893542 1.72484e-19)
(0.996124 -0.0892559 -7.08378e-20)
(0.996176 -0.0891411 6.94722e-20)
(0.996229 -0.0890134 -4.62082e-20)
(0.99628 -0.088879 1.06483e-19)
(0.996328 -0.0887472 -2.96461e-19)
(0.996366 -0.0886309 7.65639e-20)
(0.996392 -0.0885464 1.45619e-19)
(0.996402 -0.0885128 3.50148e-19)
(0.996393 -0.0885482 3.99636e-19)
(0.996367 -0.0886676 6.8809e-20)
(0.996326 -0.0888779 5.4857e-19)
(0.99628 -0.089173 5.50243e-19)
(0.996242 -0.0895316 5.82644e-19)
(0.996227 -0.0899145 -3.90992e-19)
(0.996257 -0.0902691 -4.36198e-19)
(0.996332 -0.0905232 2.60697e-19)
(0.996453 -0.0906303 2.95814e-19)
(0.996614 -0.0905598 2.95771e-19)
(0.996772 -0.0902986 -1.8324e-20)
(0.996879 -0.0898778 2.25304e-20)
(0.996794 -0.0894288 -5.82189e-19)
(0.997044 -0.088894 -3.66659e-20)
(0.996041 -0.0872641 1.01222e-18)
(0.998977 -0.0908394 1.01276e-18)
(0.995847 -0.0892538 1.28341e-20)
(0.995804 -0.0893195 -4.22336e-21)
(0.995743 -0.0894325 6.94085e-21)
(0.995694 -0.0895246 -9.6365e-21)
(0.995659 -0.089586 2.12368e-20)
(0.995632 -0.089613 -1.03022e-20)
(0.995608 -0.0896133 5.4781e-21)
(0.995587 -0.0896016 -7.98296e-20)
(0.995568 -0.0895899 6.56439e-20)
(0.995552 -0.0895834 -1.28892e-19)
(0.995538 -0.0895834 1.39275e-19)
(0.995526 -0.0895888 -1.65398e-20)
(0.995516 -0.0895987 -3.58234e-20)
(0.995508 -0.0896119 -1.60566e-20)
(0.995502 -0.0896278 -3.37584e-21)
(0.995497 -0.0896465 -1.57174e-19)
(0.995495 -0.0896674 7.4181e-21)
(0.995494 -0.0896909 1.65777e-19)
(0.995494 -0.089716 -5.27537e-20)
(0.995496 -0.0897432 -5.44362e-20)
(0.9955 -0.0897714 9.09375e-20)
(0.995505 -0.0898007 -4.40465e-20)
(0.995512 -0.0898303 1.83253e-19)
(0.99552 -0.0898598 9.79363e-20)
(0.99553 -0.0898879 7.25683e-20)
(0.995543 -0.089915 -2.2924e-19)
(0.995558 -0.0899385 -3.18713e-20)
(0.995576 -0.089959 -1.7333e-19)
(0.995597 -0.0899737 3.27652e-20)
(0.995621 -0.0899829 -5.4489e-20)
(0.99565 -0.0899837 -2.20411e-20)
(0.995684 -0.0899744 1.67138e-19)
(0.995725 -0.0899535 -4.20721e-19)
(0.995773 -0.0899194 -2.26309e-20)
(0.995826 -0.0898704 -2.02145e-19)
(0.995884 -0.0898038 -9.58979e-20)
(0.995945 -0.0897214 8.38268e-21)
(0.996012 -0.0896263 -2.91678e-19)
(0.996084 -0.089522 4.23333e-19)
(0.996159 -0.0894146 9.19357e-20)
(0.996236 -0.0893126 4.25672e-19)
(0.996311 -0.089228 -2.94394e-19)
(0.99638 -0.0891756 -1.95168e-19)
(0.996441 -0.0891727 -3.49439e-20)
(0.996488 -0.0892354 2.99211e-19)
(0.996522 -0.0893766 3.86321e-19)
(0.996542 -0.0896014 1.28433e-19)
(0.996552 -0.0899034 1.75499e-19)
(0.996561 -0.090262 -1.54767e-19)
(0.996578 -0.0906409 1.01474e-18)
(0.99662 -0.0909919 2.24886e-19)
(0.996685 -0.0912476 -1.75756e-19)
(0.996775 -0.0913645 9.00996e-20)
(0.996892 -0.0913172 3.63196e-19)
(0.997003 -0.0910892 -3.0407e-20)
(0.997075 -0.0906967 -9.91837e-21)
(0.99701 -0.0902571 4.62535e-19)
(0.997263 -0.0895779 -8.72885e-19)
(0.996484 -0.0876038 1.37437e-18)
(1.00019 -0.0908651 -1.39038e-18)
(0.995651 -0.0897856 -4.83546e-21)
(0.9956 -0.0898691 1.9192e-20)
(0.995532 -0.089991 -3.10894e-20)
(0.995484 -0.0901062 2.28254e-20)
(0.995453 -0.0901981 1.45792e-20)
(0.995428 -0.0902523 -1.51729e-20)
(0.995405 -0.0902707 1.25904e-21)
(0.995384 -0.0902678 -1.10473e-20)
(0.995365 -0.0902583 -3.66419e-20)
(0.995348 -0.0902511 6.90663e-20)
(0.995332 -0.090249 -1.05404e-19)
(0.995317 -0.0902521 9.07012e-20)
(0.995305 -0.0902589 7.86787e-20)
(0.995295 -0.0902684 -1.1969e-19)
(0.995286 -0.0902799 -3.84157e-20)
(0.99528 -0.0902932 1.41901e-19)
(0.995276 -0.0903082 -1.68971e-19)
(0.995273 -0.0903252 2.29716e-19)
(0.995273 -0.0903435 -4.33318e-20)
(0.995273 -0.0903639 2.37339e-20)
(0.995276 -0.0903856 -3.86986e-20)
(0.995279 -0.0904086 -4.75966e-20)
(0.995284 -0.0904324 -8.64047e-20)
(0.995291 -0.0904567 1.4739e-19)
(0.995298 -0.0904805 -1.00245e-19)
(0.995308 -0.0905042 -9.59186e-20)
(0.995319 -0.0905255 1.95144e-19)
(0.995333 -0.0905452 -1.8437e-19)
(0.995349 -0.0905609 2.87717e-19)
(0.995368 -0.0905732 -1.53538e-19)
(0.995391 -0.09058 1.1129e-19)
(0.995419 -0.0905794 -1.90451e-19)
(0.995453 -0.0905703 1.96021e-19)
(0.995494 -0.0905519 -2.32033e-20)
(0.995541 -0.0905221 -1.15131e-20)
(0.995594 -0.0904791 -8.51686e-21)
(0.995653 -0.0904251 -1.11447e-19)
(0.99572 -0.0903633 2.61695e-19)
(0.995796 -0.0902967 -1.88939e-19)
(0.99588 -0.0902305 -1.08014e-18)
(0.995973 -0.0901719 -4.33054e-19)
(0.996071 -0.0901307 2.6713e-19)
(0.996173 -0.0901194 -3.37171e-19)
(0.996276 -0.0901519 -2.81736e-19)
(0.996377 -0.0902409 -2.38483e-20)
(0.996474 -0.0903959 6.71584e-19)
(0.996565 -0.0906191 -8.87448e-19)
(0.996652 -0.0909021 -8.06449e-19)
(0.996737 -0.0912242 -4.37835e-19)
(0.996828 -0.0915507 -7.11012e-19)
(0.996934 -0.0918366 4.46731e-19)
(0.99705 -0.0920182 -1.30577e-19)
(0.997178 -0.0920535 -8.80481e-19)
(0.997321 -0.0919192 1.20076e-19)
(0.997453 -0.0915945 1.06459e-19)
(0.997546 -0.0910823 1.69069e-20)
(0.997537 -0.090497 -4.38638e-20)
(0.997796 -0.0896042 -4.52752e-19)
(0.99703 -0.0873927 -2.20454e-18)
(1.00092 -0.0908561 -8.97065e-20)
(0.995415 -0.0905155 5.64059e-21)
(0.995369 -0.090588 -2.50127e-20)
(0.995307 -0.0906964 1.19814e-20)
(0.995269 -0.0908155 2.20131e-20)
(0.995251 -0.0909236 -4.64574e-20)
(0.995239 -0.0909982 3.8285e-20)
(0.995226 -0.0910334 -2.5137e-20)
(0.995212 -0.0910403 2.097e-20)
(0.995198 -0.0910347 3.29946e-20)
(0.995185 -0.0910274 -7.80261e-20)
(0.995171 -0.0910238 1.10883e-19)
(0.995159 -0.0910244 4.63859e-20)
(0.995147 -0.0910286 -1.81443e-19)
(0.995136 -0.0910351 -3.3475e-20)
(0.995128 -0.0910429 9.34126e-20)
(0.99512 -0.091052 5.92069e-20)
(0.995114 -0.0910623 -7.07257e-20)
(0.99511 -0.0910741 6.11112e-20)
(0.995107 -0.0910868 9.3008e-20)
(0.995105 -0.0911015 -4.48049e-20)
(0.995105 -0.0911174 -2.53063e-20)
(0.995105 -0.0911348 8.84814e-20)
(0.995107 -0.0911535 1.79415e-19)
(0.99511 -0.0911734 -1.29207e-19)
(0.995114 -0.0911937 -1.40498e-19)
(0.995118 -0.0912151 1.53116e-19)
(0.995125 -0.0912356 -1.17029e-19)
(0.995132 -0.0912563 -4.66896e-20)
(0.995142 -0.0912751 3.83031e-19)
(0.995154 -0.0912931 -1.6696e-19)
(0.995169 -0.0913083 -1.23725e-19)
(0.995188 -0.0913199 1.63457e-19)
(0.995213 -0.0913266 1.10641e-19)
(0.995245 -0.0913274 -1.00504e-19)
(0.995283 -0.0913214 -6.6397e-20)
(0.995328 -0.0913062 2.0423e-19)
(0.99538 -0.091285 3.38076e-20)
(0.995442 -0.0912607 6.94952e-20)
(0.995517 -0.0912356 -3.43462e-19)
(0.995604 -0.0912139 -3.43859e-19)
(0.995705 -0.0912013 5.9796e-19)
(0.995819 -0.0912049 4.49498e-19)
(0.995946 -0.0912341 6.84427e-19)
(0.996084 -0.0912995 -6.49183e-19)
(0.996232 -0.0914097 -6.79879e-19)
(0.996387 -0.0915703 -3.68773e-19)
(0.996548 -0.09178 8.58687e-19)
(0.996713 -0.0920284 7.92024e-19)
(0.996883 -0.092294 -7.74153e-19)
(0.997059 -0.0925435 -1.05854e-18)
(0.997249 -0.0927345 -1.20227e-19)
(0.99744 -0.0928072 1.55076e-19)
(0.997634 -0.0927211 1.07959e-20)
(0.997833 -0.0924557 -2.27259e-19)
(0.998012 -0.091989 7.3758e-20)
(0.998141 -0.0913193 4.82487e-21)
(0.998183 -0.0905713 -7.62712e-20)
(0.998433 -0.0895236 1.32291e-18)
(0.997608 -0.0872293 9.91669e-20)
(1.00144 -0.0909929 -1.75974e-19)
(0.995189 -0.0913407 -9.40824e-21)
(0.995154 -0.0913959 -7.39838e-21)
(0.995099 -0.0914806 9.86658e-21)
(0.995073 -0.0915881 3.43706e-20)
(0.995071 -0.0916979 -7.28007e-20)
(0.995073 -0.0917818 8.19125e-20)
(0.995073 -0.0918272 -3.55491e-21)
(0.99507 -0.0918411 -4.87119e-21)
(0.995065 -0.0918384 -2.7843e-20)
(0.995059 -0.0918315 6.66206e-20)
(0.995051 -0.0918269 -1.00979e-19)
(0.995043 -0.0918266 3.74566e-20)
(0.995035 -0.0918299 -1.22403e-21)
(0.995027 -0.0918356 5.69036e-20)
(0.99502 -0.0918424 2.66634e-20)
(0.995013 -0.09185 -1.39505e-19)
(0.995007 -0.0918584 1.19241e-19)
(0.995002 -0.0918677 4.61453e-20)
(0.994997 -0.0918778 -1.30934e-19)
(0.994994 -0.0918895 6.33356e-20)
(0.994991 -0.0919026 2.89561e-20)
(0.99499 -0.0919173 -1.8991e-20)
(0.994989 -0.091934 2.33139e-20)
(0.994988 -0.0919523 -1.35403e-20)
(0.994989 -0.091972 -1.52748e-19)
(0.99499 -0.0919938 9.90243e-20)
(0.994992 -0.0920162 -1.4915e-19)
(0.994995 -0.0920403 2.7196e-19)
(0.995 -0.0920645 -5.16496e-20)
(0.995007 -0.0920902 -3.03895e-20)
(0.995016 -0.0921162 -8.36584e-21)
(0.99503 -0.0921416 2.69725e-19)
(0.995048 -0.0921654 -1.11325e-19)
(0.995073 -0.0921871 -6.85184e-20)
(0.995104 -0.0922053 1.65983e-19)
(0.995143 -0.0922183 1.39361e-19)
(0.99519 -0.0922292 -2.33445e-19)
(0.99525 -0.092241 4.36834e-20)
(0.995323 -0.0922551 4.21532e-19)
(0.995414 -0.0922748 -5.48917e-20)
(0.995522 -0.0923039 2.66131e-19)
(0.99565 -0.0923469 -3.53438e-19)
(0.995798 -0.0924105 5.35655e-19)
(0.995966 -0.0925017 1.0469e-18)
(0.996153 -0.0926252 2.52278e-19)
(0.996359 -0.092783 -3.75125e-19)
(0.996581 -0.0929705 -1.04016e-18)
(0.996816 -0.0931753 2.15132e-19)
(0.997064 -0.0933753 2.36622e-19)
(0.997323 -0.0935385 4.23818e-19)
(0.997595 -0.0936254 -1.99178e-20)
(0.997863 -0.09358 -6.22901e-19)
(0.998126 -0.0933646 3.96866e-19)
(0.998384 -0.0929624 -1.57511e-19)
(0.998612 -0.092353 5.15837e-20)
(0.998775 -0.0915364 -3.21443e-20)
(0.998855 -0.0906531 -5.63676e-19)
(0.999086 -0.0895114 -1.29831e-18)
(0.998185 -0.0872027 -4.64017e-19)
(1.00188 -0.0912424 -8.3332e-19)
(0.994992 -0.0921528 -4.5128e-21)
(0.994964 -0.0921832 3.8105e-21)
(0.99491 -0.0922441 1.88225e-20)
(0.994893 -0.0923344 2.92715e-20)
(0.994904 -0.0924377 -8.50093e-20)
(0.99492 -0.0925248 4.80335e-20)
(0.994933 -0.0925775 -8.45385e-20)
(0.994942 -0.0925986 1.29956e-19)
(0.994947 -0.0926008 -5.98385e-20)
(0.994949 -0.0925964 1.03953e-20)
(0.99495 -0.0925932 1.11875e-19)
(0.994949 -0.0925938 -2.50092e-19)
(0.994946 -0.0925986 1.67557e-19)
(0.994943 -0.092606 2.32917e-20)
(0.99494 -0.0926148 3.68838e-20)
(0.994936 -0.0926245 -1.51819e-19)
(0.994932 -0.0926349 7.34266e-20)
(0.994929 -0.0926463 -8.94924e-20)
(0.994925 -0.092658 1.73735e-19)
(0.994922 -0.0926715 -2.27184e-20)
(0.994919 -0.0926861 -2.13443e-19)
(0.994917 -0.0927025 8.37599e-20)
(0.994915 -0.0927211 -4.7127e-21)
(0.994913 -0.0927418 -2.98078e-19)
(0.994912 -0.0927645 2.19721e-19)
(0.994912 -0.0927904 1.62538e-19)
(0.994912 -0.0928178 1.08262e-19)
(0.994914 -0.0928485 -1.39141e-19)
(0.994917 -0.0928807 -1.50687e-19)
(0.994922 -0.0929166 6.98026e-20)
(0.994929 -0.0929548 1.00417e-19)
(0.994941 -0.0929952 -1.22007e-19)
(0.994957 -0.0930371 -1.78595e-19)
(0.99498 -0.0930791 3.70441e-19)
(0.99501 -0.093121 3.91458e-20)
(0.995047 -0.0931603 -5.41314e-19)
(0.995095 -0.0932005 4.77575e-20)
(0.995156 -0.0932444 3.51058e-19)
(0.995233 -0.0932926 3.327e-20)
(0.995329 -0.0933474 4.44366e-19)
(0.995447 -0.0934111 -5.79923e-19)
(0.995589 -0.0934857 -3.05656e-20)
(0.995757 -0.0935752 -3.4967e-19)
(0.995951 -0.0936835 1.32557e-19)
(0.996173 -0.0938121 5.15437e-19)
(0.996422 -0.0939596 1.50281e-18)
(0.996695 -0.0941187 1.80125e-19)
(0.99699 -0.0942755 -8.11718e-19)
(0.997304 -0.0944076 5.511e-19)
(0.997633 -0.0944845 1.71635e-18)
(0.997977 -0.0944693 -1.18051e-18)
(0.998313 -0.0943105 1.11892e-18)
(0.998639 -0.0939732 -4.96293e-19)
(0.998951 -0.0934449 -1.22958e-19)
(0.999222 -0.0927088 -7.782e-20)
(0.999409 -0.0917689 4.16048e-20)
(0.999516 -0.0907806 3.79173e-19)
(0.999722 -0.0895829 7.38118e-19)
(0.998747 -0.087277 -1.06129e-18)
(1.0023 -0.0915403 -2.82392e-19)
(0.994823 -0.0928845 6.21189e-21)
(0.994794 -0.092907 2.13207e-21)
(0.994737 -0.0929529 -2.17246e-20)
(0.994724 -0.0930283 2.0332e-20)
(0.994745 -0.0931229 -8.84148e-21)
(0.994773 -0.0932081 1.55247e-20)
(0.994796 -0.0932633 5.24015e-21)
(0.994814 -0.0932881 -7.48176e-20)
(0.994828 -0.0932935 3.1863e-20)
(0.994839 -0.0932915 -2.13603e-20)
(0.994848 -0.09329 1.26958e-20)
(0.994854 -0.0932929 4.85346e-20)
(0.994859 -0.0933002 -8.90725e-21)
(0.994862 -0.0933111 2.86338e-20)
(0.994865 -0.0933239 -1.18912e-19)
(0.994866 -0.093338 4.50889e-20)
(0.994866 -0.0933532 1.95646e-20)
(0.994866 -0.0933693 -5.20454e-20)
(0.994866 -0.0933861 1.01602e-19)
(0.994865 -0.0934046 3.27378e-20)
(0.994864 -0.0934248 -3.64788e-21)
(0.994863 -0.0934467 -3.42642e-20)
(0.994862 -0.0934714 1.36326e-19)
(0.994862 -0.0934986 -3.69399e-19)
(0.994862 -0.0935283 1.89104e-19)
(0.994862 -0.0935619 7.85085e-20)
(0.994864 -0.0935979 -1.30656e-19)
(0.994867 -0.0936382 2.2771e-19)
(0.994871 -0.0936813 -1.10067e-19)
(0.994878 -0.0937293 -5.63768e-20)
(0.994888 -0.0937816 -1.08086e-19)
(0.994902 -0.093838 -4.15311e-20)
(0.994921 -0.0938977 1.19335e-19)
(0.994947 -0.0939601 -3.53478e-19)
(0.99498 -0.094024 6.62138e-19)
(0.995022 -0.0940873 -4.60902e-20)
(0.995075 -0.0941535 3.29285e-19)
(0.995143 -0.094225 -8.31844e-19)
(0.995228 -0.0943017 -2.51805e-19)
(0.995335 -0.094385 5.84668e-21)
(0.995466 -0.0944757 -1.75526e-19)
(0.995623 -0.0945739 -1.54756e-20)
(0.995811 -0.0946811 -6.04727e-19)
(0.99603 -0.0947988 1.95043e-19)
(0.996282 -0.0949255 2.66068e-19)
(0.996568 -0.0950571 -1.39255e-18)
(0.996884 -0.0951844 1.66323e-18)
(0.997229 -0.0952922 2.19496e-19)
(0.997598 -0.0953583 4.84557e-20)
(0.997985 -0.0953537 -1.17788e-18)
(0.998387 -0.0952444 3.5423e-19)
(0.998781 -0.0949826 -5.90456e-19)
(0.999159 -0.0945372 7.46536e-19)
(0.999515 -0.0938995 1.30037e-19)
(0.999821 -0.0930569 1.52568e-19)
(1.00003 -0.092018 -1.99381e-19)
(1.00015 -0.0909501 1.06345e-18)
(1.00033 -0.0897176 3.77186e-19)
(0.999284 -0.0874153 3.84093e-18)
(1.00272 -0.0918583 1.02559e-18)
(0.994671 -0.0935097 -1.35832e-21)
(0.994635 -0.0935237 -5.23758e-21)
(0.994572 -0.0935603 -4.47053e-21)
(0.994561 -0.0936244 4.23755e-20)
(0.994588 -0.093711 -2.30753e-20)
(0.994623 -0.0937941 -2.71564e-20)
(0.994653 -0.0938516 -1.00164e-20)
(0.994678 -0.0938805 -4.03811e-20)
(0.994698 -0.0938902 2.47027e-20)
(0.994715 -0.0938917 3.47135e-21)
(0.99473 -0.0938934 1.18211e-21)
(0.994743 -0.093899 1.00059e-19)
(0.994754 -0.09391 -6.96646e-20)
(0.994764 -0.0939253 -8.46753e-21)
(0.994772 -0.0939435 7.70222e-20)
(0.99478 -0.0939639 -4.16777e-20)
(0.994786 -0.0939862 -1.56597e-20)
(0.994791 -0.0940101 2.50933e-20)
(0.994795 -0.0940349 7.90301e-20)
(0.994799 -0.094062 4.25859e-20)
(0.994802 -0.0940908 1.51612e-20)
(0.994805 -0.0941219 -1.04357e-19)
(0.994807 -0.094156 5.15952e-20)
(0.994811 -0.0941929 9.82782e-20)
(0.994814 -0.0942329 -2.0152e-19)
(0.994818 -0.0942773 6.34513e-20)
(0.994824 -0.0943248 -2.48949e-19)
(0.994831 -0.0943774 1.99651e-19)
(0.99484 -0.0944334 1.71503e-19)
(0.994852 -0.0944957 -2.64099e-19)
(0.994867 -0.0945632 -1.22422e-19)
(0.994887 -0.0946362 1.61338e-19)
(0.994913 -0.0947143 5.37264e-20)
(0.994946 -0.094796 -1.45604e-19)
(0.994987 -0.0948809 -1.80152e-19)
(0.995039 -0.0949661 -2.13895e-19)
(0.995102 -0.0950551 1.34787e-19)
(0.995181 -0.0951501 3.16518e-19)
(0.995279 -0.0952503 1.14486e-19)
(0.9954 -0.0953563 -9.51884e-20)
(0.995547 -0.0954676 1.02633e-18)
(0.995723 -0.0955826 -1.11458e-19)
(0.995931 -0.095701 1.00684e-18)
(0.996175 -0.0958219 -1.7264e-18)
(0.996455 -0.0959417 2.62723e-19)
(0.996773 -0.0960542 5.33638e-20)
(0.997126 -0.0961486 -9.20749e-20)
(0.997512 -0.0962091 -1.01135e-18)
(0.997926 -0.0962136 -1.48406e-18)
(0.998361 -0.0961351 1.14606e-18)
(0.998812 -0.0959419 1.24932e-18)
(0.999253 -0.0955901 4.80836e-19)
(0.999674 -0.0950517 -6.93713e-19)
(1.00007 -0.0943218 1.45892e-19)
(1.0004 -0.0933915 -1.26808e-19)
(1.00062 -0.0922736 -3.9337e-19)
(1.00076 -0.0911442 -1.04001e-18)
(1.00092 -0.0898874 -8.34525e-19)
(0.999796 -0.087583 -3.80218e-18)
(1.00316 -0.0921648 3.16372e-18)
(0.994517 -0.0940279 1.72995e-21)
(0.994473 -0.0940454 -5.09567e-21)
(0.994403 -0.0940783 1.78382e-20)
(0.994393 -0.094134 4.54981e-21)
(0.994424 -0.0942135 -2.35764e-20)
(0.994463 -0.0942926 -2.65841e-20)
(0.994497 -0.0943491 6.17109e-20)
(0.994525 -0.0943792 -6.6045e-20)
(0.994548 -0.0943911 -1.59359e-20)
(0.994568 -0.0943955 3.91661e-20)
(0.994587 -0.0944003 3.55685e-20)
(0.994604 -0.09441 1.06016e-19)
(0.99462 -0.0944254 -5.85999e-20)
(0.994636 -0.0944462 -9.85028e-20)
(0.994651 -0.0944709 2.12378e-20)
(0.994664 -0.0944985 -7.72341e-20)
(0.994676 -0.0945289 5.69635e-20)
(0.994688 -0.0945613 -9.36617e-20)
(0.994698 -0.0945953 1.51796e-20)
(0.994708 -0.0946322 -2.90805e-20)
(0.994717 -0.0946715 -1.77985e-20)
(0.994725 -0.0947133 -7.81459e-20)
(0.994733 -0.094759 7.60292e-21)
(0.994742 -0.0948078 1.6449e-19)
(0.994751 -0.0948602 -5.45753e-20)
(0.994761 -0.0949177 1.73182e-20)
(0.994773 -0.0949787 4.87049e-20)
(0.994786 -0.0950454 -6.36745e-20)
(0.994803 -0.0951163 -1.25445e-20)
(0.994822 -0.0951939 8.69381e-20)
(0.994846 -0.0952778 9.59497e-20)
(0.994875 -0.095368 -7.16677e-20)
(0.99491 -0.0954639 -2.21279e-19)
(0.994954 -0.0955647 -3.0736e-19)
(0.995007 -0.0956692 4.75844e-19)
(0.99507 -0.0957744 1.27392e-19)
(0.995148 -0.0958836 8.13896e-20)
(0.995242 -0.0959989 3.9065e-19)
(0.995356 -0.0961186 -3.57091e-19)
(0.995494 -0.0962427 2.19066e-19)
(0.99566 -0.0963697 -2.72914e-21)
(0.995856 -0.0964966 1.95269e-20)
(0.996087 -0.0966213 -3.68894e-19)
(0.996355 -0.0967415 8.05539e-19)
(0.996662 -0.0968517 -9.95423e-19)
(0.997009 -0.096944 5.46351e-19)
(0.997396 -0.0970065 -1.47482e-18)
(0.997817 -0.0970231 4.01061e-19)
(0.99827 -0.0969722 7.82737e-19)
(0.998745 -0.0968282 -1.13309e-18)
(0.999237 -0.096562 -2.77218e-19)
(0.999717 -0.096133 -8.53256e-20)
(1.00017 -0.095516 -7.05864e-20)
(1.0006 -0.0947094 -9.19869e-20)
(1.00096 -0.0937078 1.63351e-20)
(1.00119 -0.0925268 -4.77479e-19)
(1.00134 -0.0913488 7.14279e-19)
(1.00147 -0.0900734 2.87891e-19)
(1.00028 -0.087761 4.89807e-19)
(1.0036 -0.0924554 -2.39768e-18)
(0.994346 -0.0944454 3.16247e-21)
(0.994294 -0.0944587 -2.62481e-21)
(0.994219 -0.0944906 2.35035e-21)
(0.994209 -0.0945413 1.47839e-20)
(0.994244 -0.0946161 2.10507e-20)
(0.994286 -0.0946935 -8.06011e-20)
(0.994321 -0.094751 5.71325e-20)
(0.99435 -0.0947838 1.16562e-20)
(0.994373 -0.0947994 -3.44424e-21)
(0.994394 -0.0948076 -2.42465e-20)
(0.994414 -0.0948164 7.29003e-20)
(0.994434 -0.0948299 -2.33229e-20)
(0.994455 -0.0948501 -3.16196e-20)
(0.994475 -0.0948764 -9.2224e-20)
(0.994495 -0.0949073 1.81128e-19)
(0.994514 -0.0949424 -3.70337e-20)
(0.994532 -0.0949811 -3.04872e-20)
(0.99455 -0.0950228 -8.77318e-20)
(0.994567 -0.0950667 9.51866e-20)
(0.994583 -0.0951143 5.16005e-20)
(0.994599 -0.0951647 -2.29402e-20)
(0.994614 -0.0952183 3.93901e-20)
(0.994629 -0.0952762 -1.64482e-19)
(0.994645 -0.0953379 1.13404e-20)
(0.994661 -0.0954037 8.85965e-20)
(0.994678 -0.0954752 -1.6726e-20)
(0.994698 -0.0955506 -2.60793e-19)
(0.994719 -0.0956325 2.45815e-20)
(0.994744 -0.0957188 2.26523e-19)
(0.994773 -0.0958127 -5.8152e-20)
(0.994807 -0.095913 -1.14204e-19)
(0.994847 -0.0960204 6.25283e-20)
(0.994894 -0.0961344 1.90168e-19)
(0.994951 -0.0962532 4.44669e-19)
(0.995018 -0.0963763 -7.00708e-20)
(0.995096 -0.0965 8.35976e-20)
(0.99519 -0.0966274 -6.71562e-19)
(0.995301 -0.0967604 -1.95531e-19)
(0.995434 -0.0968967 1.20277e-19)
(0.995592 -0.0970356 -4.86407e-19)
(0.995778 -0.0971749 -1.07065e-19)
(0.995997 -0.0973103 2.23658e-19)
(0.996251 -0.0974387 1.6927e-19)
(0.996544 -0.097556 4.55348e-19)
(0.996877 -0.0976555 1.42938e-18)
(0.997253 -0.0977282 -1.05658e-18)
(0.997669 -0.0977613 1.56187e-18)
(0.998123 -0.0977386 1.08212e-18)
(0.99861 -0.097639 8.8585e-21)
(0.999121 -0.0974385 1.03833e-18)
(0.999648 -0.0971099 -1.15499e-18)
(1.00016 -0.0966157 -9.78513e-19)
(1.00065 -0.0959331 4.44186e-19)
(1.00111 -0.0950628 6.98296e-20)
(1.00149 -0.0940024 1.24407e-19)
(1.00173 -0.0927697 1.46116e-18)
(1.00189 -0.0915518 -5.49854e-19)
(1.002 -0.0902598 8.98673e-19)
(1.00075 -0.0879333 1.96069e-18)
(1.00405 -0.092716 -2.03527e-18)
(0.99416 -0.0947781 -3.34533e-21)
(0.994103 -0.0948023 3.59924e-21)
(0.994025 -0.0948385 2.39841e-20)
(0.994015 -0.0948885 -3.07289e-20)
(0.994052 -0.0949614 5.46276e-20)
(0.994096 -0.0950366 -7.86447e-20)
(0.994131 -0.0950929 2.18037e-20)
(0.994158 -0.0951256 -1.03044e-21)
(0.99418 -0.095142 4.63597e-20)
(0.994199 -0.0951518 -2.39198e-20)
(0.994219 -0.0951626 6.86864e-21)
(0.994239 -0.0951791 6.96937e-21)
(0.99426 -0.0952026 -1.0652e-19)
(0.994283 -0.0952332 3.14043e-20)
(0.994306 -0.0952692 7.08176e-20)
(0.994329 -0.0953103 2.00077e-21)
(0.994353 -0.095356 -1.13168e-19)
(0.994376 -0.0954054 4.50407e-20)
(0.994399 -0.095458 2.06111e-19)
(0.994422 -0.095515 -1.32222e-19)
(0.994444 -0.095576 -9.76083e-20)
(0.994467 -0.0956407 8.17045e-20)
(0.994489 -0.0957108 5.03273e-20)
(0.994512 -0.0957852 5.53386e-20)
(0.994537 -0.0958644 -1.05825e-19)
(0.994562 -0.0959499 -2.23269e-19)
(0.99459 -0.09604 1.67891e-19)
(0.994621 -0.0961369 2.34218e-19)
(0.994656 -0.0962389 5.9739e-20)
(0.994695 -0.0963487 -1.20273e-19)
(0.994741 -0.0964656 5.52316e-20)
(0.994793 -0.0965899 8.67201e-20)
(0.994853 -0.0967208 -1.5655e-19)
(0.994924 -0.0968573 -3.07062e-20)
(0.995006 -0.0969978 -2.72825e-19)
(0.995101 -0.0971386 -7.5828e-20)
(0.995212 -0.0972828 -6.02398e-20)
(0.995343 -0.0974315 1.84356e-19)
(0.995496 -0.0975824 -2.49178e-19)
(0.995675 -0.0977339 7.33611e-20)
(0.995883 -0.0978833 1.12152e-19)
(0.996125 -0.0980254 2.60161e-20)
(0.996403 -0.0981558 -6.85361e-19)
(0.996721 -0.0982696 -9.08533e-19)
(0.997081 -0.098359 -7.72825e-19)
(0.997484 -0.0984139 1.4223e-18)
(0.99793 -0.0984212 -1.97578e-20)
(0.998414 -0.0983644 -4.99593e-19)
(0.998932 -0.0982232 2.22807e-19)
(0.999476 -0.0979748 -1.17701e-18)
(1.00004 -0.0975936 4.57386e-19)
(1.00058 -0.0970446 8.74366e-19)
(1.00111 -0.0963074 -6.09768e-20)
(1.00159 -0.0953842 4.36076e-21)
(1.00199 -0.094275 -1.7639e-19)
(1.00224 -0.0929995 -3.76703e-19)
(1.00242 -0.0917477 -7.95641e-19)
(1.00251 -0.0904405 -2.58151e-18)
(1.00119 -0.0880951 -3.66146e-18)
(1.00451 -0.0929539 4.66311e-18)
(0.993968 -0.0950448 -2.77362e-21)
(0.993907 -0.0950705 3.93255e-21)
(0.993826 -0.0951099 7.95699e-22)
(0.993817 -0.0951607 1.43084e-20)
(0.993856 -0.0952334 -2.12849e-20)
(0.9939 -0.0953094 -4.26184e-20)
(0.993935 -0.0953672 1.49717e-20)
(0.993958 -0.0954018 -1.9382e-20)
(0.993975 -0.0954205 4.13567e-20)
(0.99399 -0.0954324 -8.16189e-21)
(0.994005 -0.0954453 -2.61622e-20)
(0.994022 -0.0954637 2.1305e-20)
(0.994042 -0.0954898 3.36685e-20)
(0.994064 -0.0955234 9.04838e-20)
(0.994088 -0.0955634 -1.60943e-19)
(0.994114 -0.0956095 8.03554e-20)
(0.994141 -0.0956613 1.19144e-20)
(0.994168 -0.0957179 -7.56541e-20)
(0.994196 -0.0957784 -4.58172e-20)