/*--------------------------------*- C++ -*----------------------------------*\
  =========                 |
  \\      /  F ield         | OpenFOAM: The Open Source CFD Toolbox
   \\    /   O peration     | Website:  https://openfoam.org
    \\  /    A nd           | Version:  6.0
     \\/     M anipulation  |
\*---------------------------------------------------------------------------*/
FoamFile
{
    version     2.0;
    format      ascii;
    class       volVectorField;
    location    "2.76";
    object      U;
}
// * * * * * * * * * * * * * * * * * * * * * * * * * * * * * * * * * * * * * //

dimensions      [0 1 -1 0 0 0 0];

internalField   nonuniform List<vector> 
13500
(
(1 1.9199e-06 -4.2418e-18)
(1 -2.9648e-06 2.8706e-18)
(1 -6.2767e-06 -1.2347e-17)
(1 -9.7162e-06 -8.5376e-18)
(1 -9.2873e-06 1.6073e-17)
(1 -8.8512e-06 2.9885e-17)
(1 2.4419e-07 2.564e-17)
(0.99998 1.3694e-05 -4.1374e-18)
(0.99992 4.0845e-05 1.517e-17)
(0.9998 7.3652e-05 3.2554e-18)
(0.99572 0.00075588 2.8485e-17)
(1.019 0.010843 7.7303e-18)
(1 5.8804e-06 2.6279e-18)
(1 -8.0805e-06 -8.7179e-18)
(1 -1.727e-05 5.8964e-18)
(1 -2.7006e-05 -3.3669e-19)
(1 -2.4901e-05 -4.2862e-19)
(1 -2.3692e-05 -3.5935e-17)
(0.99999 5.1614e-06 -4.4284e-17)
(0.99994 4.3287e-05 -2.3673e-17)
(0.99973 0.000135 -1.514e-17)
(0.99984 0.00018 -1.6099e-18)
(0.98617 0.0021904 -1.3489e-17)
(1.0534 0.030648 -4.6805e-18)
(1 9.8038e-06 -3.3942e-18)
(1 -1.3252e-05 1.7321e-17)
(1 -2.8476e-05 3.067e-18)
(1 -4.4549e-05 9.8436e-18)
(1 -4.0797e-05 -3.7063e-18)
(1 -3.904e-05 2.8785e-17)
(0.99999 1.0331e-05 -6.2336e-18)
(0.9999 7.1915e-05 5.3775e-18)
(0.99951 0.00023794 -1.8366e-17)
(1.0003 0.0003012 2.4457e-17)
(0.97597 0.0032754 -7.0524e-18)
(1.0819 0.045186 1.6412e-18)
(1 1.3689e-05 8.8733e-18)
(1 -1.862e-05 -1.6792e-17)
(1 -4.0066e-05 -1.4538e-17)
(1 -6.2612e-05 -6.9063e-19)
(1 -5.7281e-05 5.7216e-18)
(1 -5.5047e-05 -7.9892e-19)
(0.99999 1.5211e-05 6.1419e-17)
(0.99988 9.9348e-05 9.6885e-18)
(0.99926 0.00034834 2.1718e-17)
(1.0013 0.00044195 -8.8588e-18)
(0.9655 0.004037 3.434e-17)
(1.1031 0.055735 -7.4705e-18)
(1 1.7565e-05 -6.2348e-18)
(1 -2.4018e-05 1.4513e-17)
(1 -5.1724e-05 1.2376e-17)
(1 -8.0746e-05 1.2598e-17)
(1.0001 -7.3878e-05 2.8055e-18)
(1.0001 -7.1121e-05 2.1157e-17)
(1 2.0137e-05 -2.7427e-17)
(0.99986 0.00012579 1.9679e-18)
(0.99896 0.0004649 -1.3316e-17)
(1.0027 0.00060445 -2.1137e-18)
(0.95516 0.0045255 -8.9073e-18)
(1.117 0.063428 2.0715e-18)
(1 2.143e-05 6.3097e-18)
(1 -2.9443e-05 -6.0166e-18)
(1 -6.3456e-05 3.7796e-18)
(1 -9.8942e-05 -2.4956e-17)
(1.0001 -9.06e-05 -8.2141e-20)
(1.0001 -8.7271e-05 -4.1884e-17)
(1 2.5097e-05 1.0524e-18)
(0.99986 0.00015108 -1.5796e-17)
(0.99861 0.00058618 5.0709e-18)
(1.0044 0.0007954 -2.1299e-17)
(0.9453 0.0047831 -2.144e-17)
(1.1244 0.068876 2.002e-18)
(0.99999 2.5284e-05 -1.0444e-18)
(1 -3.4895e-05 -7.1958e-18)
(1 -7.5266e-05 -3.0717e-18)
(1.0001 -0.00011721 1.8837e-17)
(1.0001 -0.00010745 -2.5985e-17)
(1.0001 -0.00010352 1.6026e-17)
(1 3.0119e-05 1.8344e-17)
(0.99987 0.00017514 5.5575e-18)
(0.99818 0.00071081 1.1336e-17)
(1.0065 0.0010213 1.1467e-17)
(0.93621 0.0048483 9.2361e-18)
(1.1261 0.072508 3.2136e-18)
(0.99999 2.9128e-05 -2.1558e-18)
(1 -4.0377e-05 -1.4155e-18)
(1 -8.7155e-05 -2.6462e-17)
(1.0001 -0.00013555 -8.9946e-18)
(1.0001 -0.00012443 7.2729e-18)
(1.0001 -0.00011988 2.6263e-17)
(1 3.5211e-05 1.1676e-17)
(0.99989 0.0001979 4.9615e-18)
(0.99768 0.00083734 -7.4091e-18)
(1.0089 0.001286 1.6062e-17)
(0.92811 0.0047574 7.4584e-18)
(1.1231 0.074685 -1.0219e-17)
(0.99999 3.2961e-05 -6.6923e-18)
(1 -4.5891e-05 6.0858e-18)
(1 -9.9127e-05 4.4493e-17)
(1.0001 -0.00015398 -1.0789e-17)
(1.0001 -0.00014156 2.7236e-17)
(1.0001 -0.00013636 -5.1853e-17)
(1 4.0366e-05 -3.8895e-17)
(0.99993 0.00021936 9.641e-18)
(0.99711 0.00096432 -5.5644e-18)
(1.0115 0.0015912 -8.8584e-18)
(0.92116 0.0045453 -1.3782e-17)
(1.1165 0.075713 1.3368e-17)
(0.99999 3.6784e-05 4.4091e-18)
(1 -5.1438e-05 2.2907e-18)
(1 -0.00011119 -3.7689e-17)
(1.0001 -0.00017249 1.5354e-17)
(1.0001 -0.00015883 -1.1877e-17)
(1.0001 -0.00015297 2.2115e-17)
(1 4.5573e-05 1.3822e-17)
(0.99999 0.00023952 2.4373e-18)
(0.99645 0.0010903 5.2566e-19)
(1.0142 0.0019367 1.4034e-18)
(0.91547 0.0042442 4.3842e-18)
(1.1072 0.075843 -7.0043e-19)
(0.99998 4.0596e-05 -2.4208e-18)
(1 -5.7019e-05 -7.5128e-18)
(1 -0.00012333 9.2386e-18)
(1.0001 -0.00019109 -2.7091e-18)
(1.0001 -0.00017626 1.8334e-18)
(1.0002 -0.00016973 -2.4237e-17)
(1 5.0822e-05 -3.1835e-17)
(1.0001 0.00025842 -3.0955e-17)
(0.99571 0.0012139 1.5553e-17)
(1.0171 0.0023208 1.8229e-18)
(0.91108 0.0038836 -1.1121e-17)
(1.0959 0.075285 -5.7604e-18)
(0.99998 4.4398e-05 3.3414e-18)
(1 -6.2637e-05 2.8377e-18)
(1 -0.00013557 4.4524e-18)
(1.0001 -0.00020978 -2.159e-18)
(1.0001 -0.00019386 -5.4958e-18)
(1.0002 -0.00018664 9.1668e-18)
(1 5.6096e-05 1.8428e-17)
(1.0002 0.00027614 1.9124e-17)
(0.99488 0.0013339 9.9929e-18)
(1.02 0.0027406 -2.302e-17)
(0.90799 0.0034898 1.167e-19)
(1.0835 0.074206 -6.6682e-18)
(0.99998 4.8189e-05 -3.3408e-18)
(0.99999 -6.8292e-05 5.5804e-18)
(1 -0.00014791 8.0727e-18)
(1.0001 -0.00022856 5.6375e-18)
(1.0001 -0.00021164 -5.0975e-18)
(1.0002 -0.00020372 4.5065e-18)
(1 6.1376e-05 4.2022e-18)
(1.0003 0.00029281 -1.7077e-18)
(0.99398 0.0014489 -1.6151e-17)
(1.0229 0.0031923 2.1347e-17)
(0.90616 0.0030857 1.0387e-19)
(1.0704 0.072747 1.4279e-18)
(0.99997 5.197e-05 5.0804e-18)
(0.99999 -7.3986e-05 -4.356e-18)
(1 -0.00016034 7.0677e-19)
(1.0001 -0.00024745 -4.7029e-18)
(1.0002 -0.00022959 1.1577e-17)
(1.0002 -0.00022097 5.4984e-18)
(1 6.6638e-05 1.6908e-17)
(1.0005 0.00030857 -6.3427e-18)
(0.993 0.0015578 -1.9734e-19)
(1.0258 0.0036715 5.2428e-18)
(0.90553 0.0026912 1.6879e-17)
(1.0573 0.07102 9.1081e-19)
(0.99997 5.5739e-05 1.2253e-18)
(0.99999 -7.9721e-05 9.6676e-18)
(1 -0.00017287 1.3499e-17)
(1.0001 -0.00026644 -4.6889e-18)
(1.0002 -0.00024774 8.3829e-18)
(1.0002 -0.00023842 -2.5668e-18)
(1 7.1851e-05 -2.9613e-17)
(1.0006 0.0003236 2.0077e-17)
(0.99194 0.0016595 -1.8211e-17)
(1.0285 0.0041733 -3.024e-17)
(0.906 0.0023228 -3.7052e-18)
(1.0445 0.069117 8.4381e-19)
(0.99997 5.9497e-05 -3.126e-18)
(0.99999 -8.5499e-05 -1.0281e-17)
(1 -0.00018551 -3.2401e-17)
(1.0001 -0.00028554 7.8999e-18)
(1.0002 -0.00026609 -1.2721e-17)
(1.0003 -0.00025606 8.2298e-18)
(1 7.6976e-05 -2.7708e-18)
(1.0009 0.00033813 -1.2086e-17)
(0.99082 0.0017529 3.9995e-18)
(1.0312 0.0046928 1.8058e-17)
(0.90748 0.0019939 -7.7766e-18)
(1.0323 0.067111 1.172e-17)
(0.99996 6.3244e-05 3.2892e-19)
(0.99998 -9.132e-05 7.6896e-18)
(1 -0.00019826 2.237e-17)
(1.0001 -0.00030475 -1.7792e-18)
(1.0002 -0.00028466 -1.2638e-17)
(1.0003 -0.00027392 -1.5336e-17)
(1 8.1968e-05 1.0584e-17)
(1.0011 0.0003524 6.9314e-18)
(0.98964 0.0018371 2.3111e-17)
(1.0337 0.0052252 -2.5284e-18)
(0.90984 0.0017148 1.9325e-18)
(1.021 0.065061 -4.676e-18)
(0.99996 6.6979e-05 -1.8454e-18)
(0.99998 -9.7187e-05 -9.3174e-18)
(1 -0.00021112 -1.0094e-17)
(1.0001 -0.00032408 5.9455e-18)
(1.0002 -0.00030344 -7.0981e-18)
(1.0003 -0.00029199 -1.2301e-17)
(0.99999 8.6774e-05 1.0289e-17)
(1.0014 0.00036671 -4.7022e-18)
(0.98841 0.0019111 -2.8598e-17)
(1.0359 0.0057657 -1.4169e-17)
(0.91296 0.0014929 8.3879e-18)
(1.0106 0.063011 -5.0713e-18)
(0.99995 7.0703e-05 -2.6425e-18)
(0.99998 -0.0001031 -3.5216e-18)
(1 -0.00022409 -7.4807e-19)
(1.0001 -0.00034353 -2.6035e-17)
(1.0002 -0.00032245 5.9554e-18)
(1.0003 -0.00031029 5.3567e-18)
(0.99997 9.1331e-05 -1.9551e-17)
(1.0017 0.00038136 -1.6055e-17)
(0.98714 0.0019741 4.184e-18)
(1.038 0.00631 -1.0643e-18)
(0.91674 0.0013332 -9.6858e-18)
(1.0014 0.060998 9.5919e-19)
(0.99995 7.4415e-05 3.4371e-18)
(0.99997 -0.00010906 1.6144e-17)
(1 -0.00023719 1.9263e-17)
(1.0001 -0.0003631 2.4519e-18)
(1.0002 -0.0003417 1.6464e-17)
(1.0004 -0.00032882 9.3872e-18)
(0.99995 9.5569e-05 2.822e-18)
(1.002 0.0003967 1.7572e-17)
(0.98584 0.0020251 2.078e-17)
(1.0398 0.0068538 1.6919e-17)
(0.92105 0.0012385 7.2299e-18)
(0.9934 0.059047 1.1381e-18)
(0.99994 7.8115e-05 -1.6383e-18)
(0.99997 -0.00011508 -3.8735e-18)
(1 -0.0002504 -2.0523e-17)
(1.0002 -0.00038281 -2.3216e-18)
(1.0002 -0.0003612 -1.2478e-17)
(1.0004 -0.0003476 -5.0789e-18)
(0.99992 9.9404e-05 -1.8111e-18)
(1.0024 0.00041312 -1.589e-17)
(0.98452 0.0020635 -1.9867e-17)
(1.0414 0.0073935 8.6713e-18)
(0.92577 0.0012093 4.9692e-19)
(0.98655 0.057177 6.5317e-19)
(0.99994 8.1803e-05 4.3426e-18)
(0.99996 -0.00012115 -5.0607e-18)
(1 -0.00026374 -1.9249e-17)
(1.0002 -0.00040265 4.4136e-17)
(1.0002 -0.00038096 1.8101e-17)
(1.0004 -0.00036662 -1.2428e-17)
(0.99989 0.00010274 2.4349e-17)
(1.0028 0.000431 2.1475e-17)
(0.98318 0.0020883 3.2236e-17)
(1.0427 0.0079258 -3.1781e-17)
(0.93081 0.0012447 -1.328e-17)
(0.98086 0.055403 1.7219e-19)
(0.99993 8.5479e-05 -3.1786e-18)
(0.99996 -0.00012727 -1.0156e-18)
(1 -0.00027721 3.2863e-17)
(1.0002 -0.00042264 -3.3364e-17)
(1.0003 -0.00040099 -1.7424e-18)
(1.0005 -0.0003859 4.1179e-17)
(0.99985 0.00010549 7.546e-18)
(1.0033 0.00045078 -3.3171e-18)
(0.98185 0.0020989 -1.9991e-17)
(1.0437 0.0084479 3.7452e-17)
(0.93606 0.0013423 -5.6267e-18)
(0.97629 0.053731 -2.7377e-19)
(0.99992 8.9144e-05 -1.6205e-18)
(0.99995 -0.00013345 -2.0236e-18)
(1 -0.00029081 1.7115e-18)
(1.0002 -0.00044277 3.471e-17)
(1.0003 -0.0004213 -9.8245e-18)
(1.0005 -0.00040543 -3.0436e-17)
(0.9998 0.00010752 -1.924e-17)
(1.0038 0.00047289 -3.5717e-18)
(0.98053 0.0020947 6.3207e-18)
(1.0445 0.0089572 -3.1594e-17)
(0.94144 0.0014988 9.4237e-18)
(0.97275 0.052167 2.9665e-18)
(0.99992 9.2796e-05 2.6779e-18)
(0.99995 -0.00013968 1.4084e-17)
(1 -0.00030455 -1.2621e-17)
(1.0002 -0.00046305 -3.6343e-18)
(1.0003 -0.00044191 -1.8855e-17)
(1.0005 -0.00042522 3.3113e-17)
(0.99974 0.00010871 -1.6889e-17)
(1.0043 0.0004978 1.4807e-17)
(0.97924 0.002075 -1.9481e-18)
(1.045 0.0094517 2.962e-17)
(0.94686 0.0017099 -9.1978e-18)
(0.97019 0.050711 -4.9499e-18)
(0.99991 9.6436e-05 -5.1361e-19)
(0.99994 -0.00014598 -8.1003e-18)
(1 -0.00031843 -1.7673e-17)
(1.0002 -0.00048349 -9.9587e-18)
(1.0003 -0.00046282 1.8288e-17)
(1.0005 -0.00044526 -4.2224e-17)
(0.99968 0.00010892 -2.6061e-18)
(1.0048 0.00052597 -2.0005e-17)
(0.97798 0.0020391 3.1457e-18)
(1.0452 0.0099295 -8.5432e-18)
(0.95225 0.0019707 9.7902e-18)
(0.9685 0.049362 2.0995e-18)
(0.9999 0.00010006 2.6907e-18)
(0.99994 -0.00015235 -8.6769e-18)
(1 -0.00033245 -1.7463e-18)
(1.0002 -0.00050409 2.4199e-18)
(1.0003 -0.00048404 5.7885e-18)
(1.0006 -0.00046555 1.2201e-17)
(0.9996 0.000108 4.2727e-17)
(1.0054 0.0005579 2.3908e-18)
(0.97677 0.0019868 5.1252e-18)
(1.0451 0.010389 9.4158e-18)
(0.95756 0.0022759 -8.3744e-18)
(0.96759 0.048118 1.6119e-18)
(0.99989 0.00010368 -1.5429e-18)
(0.99993 -0.00015877 8.6689e-18)
(1 -0.00034662 2.5123e-17)
(1.0002 -0.00052486 -2.4382e-17)
(1.0003 -0.00050559 -9.0042e-18)
(1.0006 -0.00048608 -2.1468e-18)
(0.99952 0.00010579 -1.4084e-17)
(1.006 0.00059406 1.8548e-18)
(0.97562 0.0019175 -8.8813e-18)
(1.0448 0.010829 -3.4607e-18)
(0.96272 0.0026201 -2.3746e-19)
(0.96736 0.046974 -1.9698e-18)
(0.99989 0.00010728 -1.6583e-18)
(0.99992 -0.00016527 5.189e-18)
(1 -0.00036094 -6.0748e-19)
(1.0002 -0.0005458 8.0848e-18)
(1.0003 -0.00052749 -1.6615e-17)
(1.0007 -0.00050686 2.4291e-17)
(0.99943 0.00010211 7.0246e-18)
(1.0066 0.00063493 -1.7695e-17)
(0.97453 0.0018309 -1.1386e-17)
(1.0443 0.011249 -1.3701e-17)
(0.96769 0.0029977 1.327e-18)
(0.96772 0.045924 -3.6083e-18)
(0.99988 0.00011088 5.7628e-19)
(0.99992 -0.00017184 -1.2392e-17)
(1 -0.00037542 1.5558e-17)
(1.0002 -0.00056692 2.2362e-17)
(1.0003 -0.00054973 3.2565e-17)
(1.0007 -0.00052786 -1.784e-17)
(0.99932 9.6786e-05 -1.7465e-17)
(1.0073 0.00068098 3.5909e-18)
(0.97353 0.0017269 1.0668e-17)
(1.0435 0.011648 1.0725e-17)
(0.97244 0.0034031 6.1793e-18)
(0.96857 0.044963 3.5863e-18)
(0.99987 0.00011446 1.1044e-18)
(0.99991 -0.00017848 9.8545e-18)
(1 -0.00039005 -3.5744e-17)
(1.0002 -0.00058823 -3.2399e-18)
(1.0003 -0.00057235 -2.7053e-17)
(1.0008 -0.00054908 -1.1237e-17)
(0.99921 8.9608e-05 2.4561e-20)
(1.0079 0.00073267 -4.107e-18)
(0.9726 0.0016054 -2.1015e-17)
(1.0426 0.012025 -1.7124e-17)
(0.97693 0.003831 -8.4399e-18)
(0.96983 0.044083 -1.7669e-18)
(0.99986 0.00011802 -7.1581e-19)
(0.9999 -0.00018519 -6.4089e-18)
(1 -0.00040485 2.8125e-17)
(1.0002 -0.00060972 -3.0916e-17)
(1.0004 -0.00059534 -2.0352e-18)
(1.0008 -0.0005705 2.393e-17)
(0.99909 8.0373e-05 6.988e-19)
(1.0086 0.00079043 3.9169e-18)
(0.97177 0.0014665 1.8397e-17)
(1.0414 0.012379 2.226e-17)
(0.98115 0.0042761 4.8284e-18)
(0.97141 0.043279 -9.8648e-19)
(0.99985 0.00012158 -1.8635e-18)
(0.99989 -0.00019198 -2.3636e-18)
(1 -0.00041982 -1.2468e-17)
(1.0002 -0.00063142 1.5401e-17)
(1.0004 -0.00061874 2.9733e-17)
(1.0009 -0.0005921 -1.0576e-17)
(0.99896 6.8866e-05 2.1752e-17)
(1.0093 0.00085467 2.9359e-18)
(0.97105 0.0013103 -2.0833e-18)
(1.04 0.012711 1.0071e-17)
(0.98507 0.0047334 -5.3958e-18)
(0.97324 0.042543 -6.8704e-19)
(0.99984 0.00012513 4.6605e-19)
(0.99988 -0.00019886 -6.2506e-18)
(1 -0.00043495 4.6676e-18)
(1.0002 -0.00065332 -1.5697e-17)
(1.0004 -0.00064254 -3.1451e-17)
(1.0009 -0.00061387 6.6647e-18)
(0.99881 5.4861e-05 -3.138e-17)
(1.01 0.00092577 -6.7116e-18)
(0.97042 0.0011372 6.7584e-18)
(1.0385 0.013019 -3.1609e-17)
(0.98868 0.0051982 3.6945e-18)
(0.97525 0.041868 1.941e-18)
(0.99983 0.00012866 8.1847e-19)
(0.99988 -0.00020581 1.6935e-17)
(1 -0.00045027 7.8157e-18)
(1.0002 -0.00067542 6.3938e-18)
(1.0004 -0.00066677 2.5149e-17)
(1.001 -0.00063576 1.9872e-18)
(0.99866 3.8127e-05 2.1669e-17)
(1.0107 0.0010041 4.8143e-18)
(0.96991 0.00094772 -2.0538e-17)
(1.0369 0.013305 1.0883e-17)
(0.99199 0.005666 2.4984e-18)
(0.97738 0.041248 2.0121e-18)
(0.99982 0.00013218 -2.858e-18)
(0.99987 -0.00021286 -5.5743e-18)
(1 -0.00046576 -6.8663e-18)
(1.0002 -0.00069775 1.05e-17)
(1.0004 -0.00069144 1.215e-17)
(1.001 -0.00065777 -3.9573e-18)
(0.9985 1.8426e-05 -1.8202e-17)
(1.0113 0.0010898 2.1918e-17)
(0.96952 0.00074259 3.8045e-18)
(1.0351 0.013566 -3.2879e-18)
(0.99498 0.0061329 1.0333e-17)
(0.97957 0.040678 -1.3983e-18)
(0.99981 0.0001357 5.8727e-18)
(0.99986 -0.00021999 6.6758e-18)
(1 -0.00048143 -7.2993e-18)
(1.0002 -0.0007203 -6.5412e-18)
(1.0004 -0.00071658 -1.7435e-17)
(1.0011 -0.00067985 -6.7968e-18)
(0.99833 -4.482e-06 8.9742e-18)
(1.012 0.0011833 -3.5154e-17)
(0.96924 0.00052262 9.3097e-18)
(1.0333 0.013804 -3.8869e-18)
(0.99767 0.006595 -1.0942e-17)
(0.98179 0.04015 4.0605e-18)
(0.9998 0.0001392 -2.592e-18)
(0.99985 -0.00022722 -1.1729e-17)
(0.99999 -0.00049729 -7.0747e-18)
(1.0002 -0.00074308 -1.2413e-17)
(1.0004 -0.00074219 -5.3237e-18)
(1.0012 -0.00070197 1.9985e-17)
(0.99815 -3.0841e-05 -8.8159e-18)
(1.0127 0.0012847 3.9106e-17)
(0.96908 0.00028882 8.7768e-18)
(1.0314 0.014019 1.1795e-17)
(1.0001 0.0070489 4.6118e-18)
(0.98398 0.039659 -6.5843e-18)
(0.99978 0.00014269 -1.3749e-18)
(0.99984 -0.00023455 8.723e-18)
(0.99999 -0.00051335 1.4017e-17)
(1.0002 -0.00076609 3.3468e-17)
(1.0004 -0.0007683 7.0567e-18)
(1.0012 -0.00072411 -1.3708e-17)
(0.99796 -6.0892e-05 4.2543e-18)
(1.0134 0.0013941 -4.207e-17)
(0.96904 4.2336e-05 -1.0645e-17)
(1.0294 0.014209 -6.5583e-18)
(1.0022 0.0074916 4.5238e-18)
(0.98612 0.039201 6.6204e-18)
(0.99977 0.00014617 1.0522e-18)
(0.99983 -0.00024197 2.0651e-18)
(0.99998 -0.00052959 -1.3767e-17)
(1.0002 -0.00078936 -5.5746e-18)
(1.0004 -0.00079493 8.9606e-18)
(1.0013 -0.00074621 1.6407e-17)
(0.99776 -9.4877e-05 1.4794e-17)
(1.014 0.0015116 4.1648e-18)
(0.96912 -0.00021553 1.1908e-17)
(1.0274 0.014376 -3.0392e-18)
(1.004 0.0079202 -8.0755e-18)
(0.98819 0.038769 -1.7073e-18)
(0.99976 0.00014964 -4.309e-20)
(0.99982 -0.0002495 2.3536e-18)
(0.99998 -0.00054604 3.0767e-18)
(1.0002 -0.00081287 -7.2371e-18)
(1.0004 -0.00082209 8.3709e-20)
(1.0014 -0.00076824 -1.4876e-17)
(0.99756 -0.00013303 -1.0007e-17)
(1.0147 0.0016372 3.0806e-17)
(0.96931 -0.00048334 -1.7994e-17)
(1.0254 0.01452 1.1802e-17)
(1.0055 0.0083324 4.2647e-18)
(0.99016 0.038361 -4.8213e-18)
(0.99975 0.00015311 -3.2593e-18)
(0.9998 -0.00025713 -1.1038e-17)
(0.99997 -0.00056269 7.8555e-18)
(1.0002 -0.00083664 -1.9766e-17)
(1.0004 -0.00084981 -2.2662e-17)
(1.0015 -0.00079015 -2.0551e-17)
(0.99735 -0.00017558 -2.0395e-17)
(1.0153 0.0017707 -3.1549e-18)
(0.96961 -0.00075955 1.5725e-17)
(1.0233 0.01464 -1.0124e-17)
(1.0069 0.0087258 4.2368e-19)
(0.99202 0.037971 4.5409e-18)
(0.99973 0.00015656 6.2909e-18)
(0.99979 -0.00026487 1.1536e-17)
(0.99996 -0.00057955 -1.2669e-17)
(1.0002 -0.00086068 1.6228e-17)
(1.0004 -0.00087811 -2.6581e-18)
(1.0015 -0.0008119 1.347e-17)
(0.99714 -0.00022275 2.4514e-17)
(1.0159 0.0019121 -2.3895e-17)
(0.97003 -0.0010425 -7.9727e-18)
(1.0213 0.014737 1.0692e-17)
(1.0079 0.0090988 3.6847e-18)
(0.99375 0.037596 -2.1481e-18)
(0.99972 0.00016001 -4.7205e-18)
(0.99978 -0.00027273 -3.4092e-18)
(0.99996 -0.00059662 -2.6493e-18)
(1.0002 -0.00088499 1.8569e-17)
(1.0004 -0.00090701 -5.6903e-18)
(1.0016 -0.00083345 -1.7072e-19)
(0.99692 -0.00027474 -4.7969e-18)
(1.0165 0.002061 1.914e-17)
(0.97055 -0.0013305 -7.5688e-18)
(1.0194 0.014811 -7.3418e-18)
(1.0088 0.0094496 -1.0892e-17)
(0.99536 0.037232 2.4965e-18)
(0.9997 0.00016344 3.2089e-18)
(0.99977 -0.00028071 -4.323e-18)
(0.99995 -0.00061391 6.0643e-18)
(1.0003 -0.00090958 -2.8175e-17)
(1.0004 -0.00093653 3.8547e-17)
(1.0017 -0.00085474 5.5809e-18)
(0.9967 -0.00033173 1.8927e-17)
(1.017 0.0022173 -1.1843e-17)
(0.97117 -0.0016217 1.0084e-19)
(1.0175 0.014862 5.4603e-18)
(1.0095 0.0097771 -2.118e-18)
(0.99684 0.036876 -9.3933e-19)
(0.99969 0.00016688 -9.1797e-19)
(0.99975 -0.0002888 8.4506e-19)
(0.99994 -0.00063142 1.4777e-17)
(1.0003 -0.00093446 7.6809e-18)
(1.0005 -0.0009667 -1.9271e-17)
(1.0018 -0.00087573 -1.0931e-17)
(0.99647 -0.00039391 3.3048e-18)
(1.0175 0.0023804 -5.7571e-18)
(0.97187 -0.0019144 1.2663e-17)
(1.0156 0.014892 -3.5843e-18)
(1.0101 0.01008 1.0196e-17)
(0.9982 0.036527 -3.4278e-18)
(0.99967 0.0001703 -1.5979e-18)
(0.99974 -0.00029703 -8.146e-18)
(0.99993 -0.00064916 -4.3934e-18)
(1.0003 -0.00095964 3.0845e-17)
(1.0005 -0.00099753 -1.7171e-17)
(1.0019 -0.00089637 -9.2601e-19)
(0.99625 -0.00046142 -4.9422e-17)
(1.0179 0.0025499 5.6595e-18)
(0.97267 -0.0022066 -2.3678e-17)
(1.0139 0.0149 -7.7412e-18)
(1.0104 0.010358 -1.0195e-17)
(0.99942 0.03618 2.0354e-18)
(0.99966 0.00017372 -6.8989e-19)
(0.99973 -0.00030538 5.0468e-18)
(0.99992 -0.00066713 -1.8136e-18)
(1.0003 -0.00098513 -1.796e-17)
(1.0005 -0.0010291 2.4675e-17)
(1.002 -0.00091661 -2.2762e-18)
(0.99602 -0.0005344 2.6179e-17)
(1.0184 0.0027254 -3.4787e-18)
(0.97354 -0.0024966 1.1497e-17)
(1.0122 0.014888 9.6823e-18)
(1.0107 0.01061 8.4092e-18)
(1.0005 0.035835 -4.9212e-19)
(0.99964 0.00017713 3.9107e-18)
(0.99971 -0.00031387 -3.0198e-18)
(0.99991 -0.00068533 -6.3454e-18)
(1.0003 -0.0010109 1.9603e-17)
(1.0005 -0.0010613 1.8112e-18)
(1.0021 -0.00093642 2.8218e-17)
(0.99579 -0.00061293 4.5159e-18)
(1.0187 0.0029061 1.6621e-17)
(0.97447 -0.0027825 4.3131e-18)
(1.0106 0.014856 -3.1327e-18)
(1.0108 0.010836 1.0939e-18)
(1.0015 0.035489 4.4549e-19)
(0.99963 0.00018054 1.1152e-18)
(0.9997 -0.00032249 1.2346e-18)
(0.99991 -0.00070377 -5.7543e-18)
(1.0003 -0.001037 -3.9039e-17)
(1.0005 -0.0010943 5.4848e-18)
(1.0022 -0.00095574 2.4475e-18)
(0.99557 -0.0006971 -1.9582e-17)
(1.0191 0.0030914 2.3376e-19)
(0.97547 -0.0030628 1.2707e-17)
(1.0091 0.014805 -2.0142e-18)
(1.0109 0.011035 -5.3252e-18)
(1.0024 0.03514 2.6256e-18)
(0.99961 0.00018394 -4.7752e-18)
(0.99968 -0.00033126 5.2333e-18)
(0.9999 -0.00072246 9.4831e-19)
(1.0003 -0.0010635 2.1679e-17)
(1.0004 -0.0011281 -2.5019e-17)
(1.0024 -0.00097454 -1.081e-17)
(0.99535 -0.00078695 2.0028e-17)
(1.0194 0.0032807 -1.1257e-17)
(0.97652 -0.0033356 -2.0087e-17)
(1.0077 0.014736 -9.9531e-18)
(1.0109 0.011209 6.7817e-18)
(1.0032 0.034789 8.7498e-19)
(0.99959 0.00018734 -5.0537e-19)
(0.99967 -0.00034017 -5.2664e-18)
(0.99989 -0.00074139 1.0103e-17)
(1.0003 -0.0010903 9.6127e-18)
(1.0004 -0.0011626 3.0903e-17)
(1.0025 -0.00099279 4.1528e-18)
(0.99513 -0.00088248 1.7789e-17)
(1.0197 0.0034731 2.854e-17)
(0.97762 -0.0035996 -8.8684e-19)
(1.0064 0.01465 1.7507e-17)
(1.0108 0.011356 -7.1772e-19)
(1.0039 0.034432 -2.5545e-18)
(0.99957 0.00019074 4.898e-18)
(0.99965 -0.00034924 -7.6677e-18)
(0.99987 -0.00076059 -1.5336e-17)
(1.0003 -0.0011174 -2.5545e-18)
(1.0004 -0.001198 -3.3542e-17)
(1.0026 -0.0010104 -1.2356e-17)
(0.99492 -0.00098368 -6.1747e-18)
(1.0199 0.0036677 2.1342e-19)
(0.97875 -0.0038532 2.6139e-17)
(1.0052 0.014548 4.0344e-18)
(1.0106 0.011478 -9.3051e-18)
(1.0045 0.034071 1.5317e-18)
(0.99955 0.00019413 -5.4913e-18)
(0.99963 -0.00035846 9.5781e-18)
(0.99986 -0.00078004 8.0275e-18)
(1.0003 -0.0011449 -5.0909e-18)
(1.0004 -0.0012342 2.6975e-17)
(1.0027 -0.0010275 1.4783e-17)
(0.99471 -0.0010905 -4.8811e-18)
(1.0201 0.0038638 -2.8761e-17)
(0.97991 -0.0040951 -8.8891e-19)
(1.0042 0.014431 -1.1529e-17)
(1.0105 0.011575 1.1015e-17)
(1.0051 0.033703 -2.0064e-18)
(0.99953 0.00019753 3.2998e-18)
(0.99962 -0.00036784 -1.833e-18)
(0.99985 -0.00079975 1.063e-17)
(1.0003 -0.0011728 -2.1421e-17)
(1.0004 -0.0012713 8.8093e-18)
(1.0028 -0.0010439 -5.3104e-18)
(0.99451 -0.0012028 -1.0517e-17)
(1.0202 0.0040604 -2.3089e-18)
(0.98109 -0.0043243 -3.1543e-17)
(1.0032 0.014301 7.6062e-18)
(1.0103 0.011648 -1.0085e-17)
(1.0055 0.033329 6.6913e-19)
(0.99951 0.00020092 2.6095e-19)
(0.9996 -0.00037739 -5.7664e-18)
(0.99984 -0.00081974 6.0371e-18)
(1.0003 -0.001201 2.8194e-17)
(1.0004 -0.0013093 -2.0981e-17)
(1.003 -0.0010597 1.7083e-17)
(0.99431 -0.0013205 -6.0813e-18)
(1.0203 0.0042566 5.3461e-18)
(0.98228 -0.0045398 3.7474e-17)
(1.0024 0.014159 -1.412e-17)
(1.0101 0.011697 1.5413e-17)
(1.006 0.032949 1.8931e-18)
(0.99949 0.00020432 4.6836e-19)
(0.99958 -0.00038711 -1.1937e-18)
(0.99983 -0.00084001 -8.6847e-18)
(1.0003 -0.0012296 -4.2441e-18)
(1.0004 -0.0013482 1.8287e-17)
(1.0031 -0.0010748 1.3627e-19)
(0.99413 -0.0014435 -1.1953e-17)
(1.0204 0.0044514 -1.2764e-17)
(0.98347 -0.0047406 -1.5686e-17)
(1.0017 0.014006 -1.333e-18)
(1.0099 0.011724 2.8209e-18)
(1.0064 0.032561 1.9792e-19)
(0.99947 0.00020771 -7.5358e-19)
(0.99956 -0.000397 1.4202e-17)
(0.99982 -0.00086055 -5.793e-18)
(1.0003 -0.0012586 -2.3987e-17)
(1.0004 -0.001388 8.432e-18)
(1.0032 -0.0010893 -4.3526e-17)
(0.99395 -0.0015715 5.9627e-18)
(1.0204 0.004644 8.0365e-18)
(0.98466 -0.0049263 7.2863e-19)
(1.001 0.013843 1.4341e-17)
(1.0097 0.011729 -9.4364e-19)
(1.0067 0.032167 -5.2887e-18)
(0.99945 0.00021111 -1.9894e-19)
(0.99954 -0.00040707 -2.7861e-19)
(0.9998 -0.00088138 7.7989e-18)
(1.0003 -0.001288 1.481e-17)
(1.0004 -0.0014288 -3.3501e-17)
(1.0034 -0.0011032 1.88e-18)
(0.99378 -0.0017043 1.068e-17)
(1.0204 0.0048333 1.2588e-17)
(0.98585 -0.0050962 -9.9199e-18)
(1.0005 0.013671 -1.3963e-17)
(1.0095 0.011714 -1.5285e-17)
(1.0071 0.031767 5.5843e-18)
(0.99943 0.00021451 -1.302e-18)
(0.99952 -0.00041733 3.9703e-19)
(0.99979 -0.0009025 -3.7602e-18)
(1.0003 -0.0013179 -9.8884e-18)
(1.0004 -0.0014706 1.8572e-17)
(1.0035 -0.0011165 2.3364e-17)
(0.99363 -0.0018416 3.1149e-18)
(1.0204 0.0050184 6.3793e-18)
(0.98702 -0.0052501 1.5821e-17)
(1.0001 0.013493 2.3499e-18)
(1.0093 0.011679 1.13e-17)
(1.0074 0.03136 -3.3895e-18)
(0.99941 0.00021791 2.3966e-18)
(0.9995 -0.00042778 7.3195e-19)
(0.99977 -0.00092392 -5.3743e-18)
(1.0003 -0.0013481 1.4608e-18)
(1.0004 -0.0015134 -1.0069e-17)
(1.0036 -0.0011291 -5.6042e-18)
(0.99348 -0.0019832 -1.1513e-18)
(1.0203 0.0051985 -2.8806e-17)
(0.98817 -0.0053879 3.1053e-18)
(0.99972 0.013308 -4.7644e-18)
(1.0092 0.011627 -4.5958e-18)
(1.0076 0.030947 -4.0848e-18)
(0.99939 0.00022132 -4.8912e-18)
(0.99948 -0.00043842 9.5631e-19)
(0.99976 -0.00094565 2.8507e-18)
(1.0003 -0.0013788 -1.8357e-17)
(1.0003 -0.0015572 -1.148e-17)
(1.0038 -0.0011413 -2.6018e-17)
(0.99334 -0.0021288 5.5561e-18)
(1.0202 0.0053727 1.1762e-17)
(0.9893 -0.0055095 -3.3303e-17)
(0.99945 0.013118 2.1969e-17)
(1.0091 0.011557 -4.969e-18)
(1.0079 0.030528 2.6345e-18)
(0.99936 0.00022473 4.49e-18)
(0.99946 -0.00044926 2.14e-18)
(0.99974 -0.00096768 1.0963e-18)
(1.0003 -0.00141 5.8218e-18)
(1.0003 -0.001602 -2.5365e-18)
(1.0039 -0.001153 5.0429e-17)
(0.99322 -0.002278 1.9949e-17)
(1.0201 0.0055401 -1.8298e-17)
(0.9904 -0.0056151 3.2052e-17)
(0.99926 0.012924 -8.1967e-18)
(1.009 0.011471 -3.2764e-18)
(1.0082 0.030104 -1.3138e-18)
(0.99934 0.00022815 1.1015e-18)
(0.99944 -0.00046032 -1.355e-17)
(0.99973 -0.00099002 2.1945e-18)
(1.0003 -0.0014416 2.6148e-17)
(1.0003 -0.0016479 1.9626e-17)
(1.0041 -0.0011643 -8.1374e-19)
(0.9931 -0.0024306 -2.7636e-17)
(1.02 0.0056999 5.539e-18)
(0.99147 -0.0057051 -7.2283e-18)
(0.99914 0.012727 -1.1344e-17)
(1.0089 0.011371 8.3355e-18)
(1.0084 0.029675 1.2251e-18)
(0.99931 0.00023158 -4.3564e-18)
(0.99941 -0.00047158 -4.5178e-18)
(0.99971 -0.0010127 -1.1888e-17)
(1.0002 -0.0014737 -2.193e-17)
(1.0003 -0.0016949 -1.975e-17)
(1.0042 -0.0011752 -2.2918e-17)
(0.993 -0.002586 5.1035e-18)
(1.0198 0.0058515 4.3077e-17)
(0.9925 -0.0057798 3.1502e-18)
(0.99909 0.012528 -9.9058e-19)
(1.0089 0.011257 -2.9428e-18)
(1.0087 0.029242 -3.291e-18)
(0.99929 0.00023502 3.2328e-18)
(0.99939 -0.00048306 4.1963e-18)
(0.99969 -0.0010357 1.832e-17)
(1.0002 -0.0015063 1.5189e-17)
(1.0003 -0.0017429 1.9215e-17)
(1.0043 -0.0011859 -8.5177e-19)
(0.9929 -0.002744 -2.8436e-17)
(1.0196 0.005994 -2.3285e-17)
(0.9935 -0.0058399 7.818e-18)
(0.99909 0.012328 3.9266e-18)
(1.0089 0.011131 6.634e-18)
(1.0089 0.028806 2.5435e-18)
(0.99926 0.00023846 -2.2831e-18)
(0.99937 -0.00049477 6.5835e-18)
(0.99968 -0.001059 -1.2121e-17)
(1.0002 -0.0015394 2.1986e-18)
(1.0003 -0.001792 8.9349e-18)
(1.0045 -0.0011965 -2.2404e-18)
(0.99282 -0.0029041 6.3842e-18)
(1.0194 0.006127 6.4666e-18)
(0.99447 -0.005886 2.573e-18)
(0.99915 0.012127 9.7062e-18)
(1.0089 0.010994 -7.9783e-18)
(1.0092 0.028366 5.1394e-19)
(0.99923 0.00024191 3.4473e-18)
(0.99934 -0.0005067 4.0804e-19)
(0.99966 -0.0010827 -5.6746e-18)
(1.0002 -0.001573 8.7529e-19)
(1.0002 -0.0018422 -1.4673e-18)
(1.0046 -0.001207 -2.2133e-17)
(0.99275 -0.0030661 1.7826e-17)
(1.0192 0.0062499 2.2954e-17)
(0.99539 -0.0059189 -1.281e-17)
(0.99926 0.011926 -1.3506e-17)
(1.009 0.010847 -2.3318e-18)
(1.0094 0.027924 4.374e-18)
(0.99921 0.00024537 -2.5043e-18)
(0.99932 -0.00051887 -3.1426e-19)
(0.99964 -0.0011067 7.0552e-18)
(1.0002 -0.0016072 -1.6809e-17)
(1.0002 -0.0018934 -1.3273e-17)
(1.0048 -0.0012175 2.7943e-17)
(0.99269 -0.0032295 -2.7262e-18)
(1.019 0.0063622 -2.4303e-17)
(0.99628 -0.0059394 3.2635e-18)
(0.9994 0.011725 1.2716e-17)
(1.0091 0.01069 7.9041e-18)
(1.0097 0.02748 -1.5771e-18)
(0.99918 0.00024884 2.4887e-19)
(0.99929 -0.00053128 2.302e-18)
(0.99962 -0.001131 3.8552e-18)
(1.0002 -0.001642 8.6898e-18)
(1.0002 -0.0019458 2.6019e-17)
(1.0049 -0.0012282 6.5154e-18)
(0.99264 -0.0033939 -2.3739e-17)
(1.0187 0.0064635 2.2781e-18)
(0.99713 -0.0059485 8.4064e-18)
(0.99959 0.011526 -1.1456e-17)
(1.0092 0.010525 -5.3439e-18)
(1.0099 0.027034 -1.8246e-18)
(0.99915 0.00025233 7.0667e-19)
(0.99926 -0.00054394 -4.0034e-19)
(0.9996 -0.0011557 -1.0173e-17)
(1.0002 -0.0016773 -1.8691e-19)
(1.0002 -0.0019993 -5.1444e-17)
(1.0051 -0.0012392 8.0337e-18)
(0.9926 -0.003559 2.3319e-17)
(1.0185 0.0065536 -6.5447e-18)
(0.99794 -0.005947 -8.8032e-18)
(0.9998 0.011328 1.9024e-17)
(1.0093 0.010353 6.3936e-18)
(1.0102 0.026587 4.7286e-18)
(0.99912 0.00025582 7.5917e-19)
(0.99924 -0.00055685 -8.3092e-19)
(0.99958 -0.0011808 1.8399e-17)
(1.0002 -0.0017132 4.0084e-18)
(1.0001 -0.0020538 4.5591e-17)
(1.0052 -0.0012506 -2.8312e-17)
(0.99257 -0.0037245 -7.8092e-18)
(1.0182 0.0066321 6.1607e-18)
(0.99871 -0.0059359 3.0331e-18)
(1 0.011131 -1.0704e-17)
(1.0095 0.010175 -1.0352e-18)
(1.0105 0.026139 -3.4868e-18)
(0.99909 0.00025933 -2.9667e-18)
(0.99921 -0.00057002 1.3953e-18)
(0.99956 -0.0012063 -1.0814e-17)
(1.0002 -0.0017497 5.2711e-18)
(1.0001 -0.0021094 -1.7324e-17)
(1.0053 -0.0012626 3.8395e-18)
(0.99255 -0.00389 3.1268e-17)
(1.018 0.0066989 -2.3061e-17)
(0.99944 -0.0059164 -1.1149e-17)
(1.0003 0.010936 -1.0588e-17)
(1.0096 0.0099905 -5.0836e-18)
(1.0107 0.025692 -9.5755e-19)
(0.99906 0.00026285 3.6957e-18)
(0.99918 -0.00058346 -3.3137e-18)
(0.99954 -0.0012321 -1.0496e-17)
(1.0002 -0.0017869 -8.4052e-18)
(1.0001 -0.0021661 -2.8327e-17)
(1.0055 -0.0012753 -1.781e-17)
(0.99254 -0.0040552 -1.9172e-17)
(1.0177 0.0067538 2.1443e-17)
(1.0001 -0.0058893 1.0808e-17)
(1.0006 0.010743 1.6034e-17)
(1.0098 0.0098012 -1.9897e-18)
(1.011 0.025244 4.622e-18)
(0.99903 0.00026638 -5.9399e-18)
(0.99915 -0.00059718 5.3695e-18)
(0.99951 -0.0012583 2.57e-17)
(1.0002 -0.0018247 -1.9827e-18)
(1 -0.0022238 3.1341e-17)
(1.0056 -0.0012888 1.3422e-18)
(0.99253 -0.0042199 -1.8363e-17)
(1.0175 0.006797 8.3941e-18)
(1.0008 -0.0058557 -3.8979e-18)
(1.0009 0.010552 -3.3575e-18)
(1.01 0.0096076 6.4554e-18)
(1.0113 0.024798 -3.1256e-18)
(0.99899 0.00026993 4.8678e-18)
(0.99912 -0.00061117 -7.2975e-18)
(0.99949 -0.0012848 -2.9965e-17)
(1.0002 -0.0018632 1.2971e-17)
(1 -0.0022826 -2.2331e-17)
(1.0058 -0.0013032 2.462e-17)
(0.99254 -0.0043838 5.9853e-18)
(1.0172 0.0068283 -7.9901e-18)
(1.0014 -0.0058166 -1.8708e-18)
(1.0012 0.010363 -8.4081e-18)
(1.0103 0.0094101 -1.0524e-17)
(1.0116 0.024352 4.3203e-18)
(0.99896 0.00027349 -3.5858e-18)
(0.99909 -0.00062545 2.4266e-18)
(0.99947 -0.0013118 1.8208e-17)
(1.0002 -0.0019025 -1.7099e-17)
(0.99996 -0.0023424 3.5932e-17)
(1.0059 -0.0013188 -1.911e-17)
(0.99255 -0.0045466 3.4892e-18)
(1.0169 0.0068479 -1.2631e-17)
(1.002 -0.0057731 6.1065e-18)
(1.0015 0.010176 -1.1762e-18)
(1.0105 0.0092094 4.5047e-18)
(1.0119 0.023908 -1.921e-18)
(0.99893 0.00027706 4.3981e-18)
(0.99906 -0.00064002 1.8893e-18)
(0.99944 -0.0013392 -1.214e-17)
(1.0002 -0.0019424 -3.4797e-19)
(0.99993 -0.0024032 -1.5854e-18)
(1.006 -0.0013357 4.6214e-18)
(0.99258 -0.0047082 3.3135e-17)
(1.0167 0.0068559 8.6404e-18)
(1.0026 -0.0057259 -1.81e-17)
(1.0019 0.0099911 -6.0973e-18)
(1.0107 0.0090058 -4.2361e-18)
(1.0122 0.023465 2.0189e-18)
(0.99889 0.00028065 -5.0413e-18)
(0.99902 -0.0006549 -7.0017e-18)
(0.99942 -0.001367 5.0931e-18)
(1.0002 -0.0019831 1.4796e-17)
(0.99989 -0.0024651 -3.2598e-17)
(1.0062 -0.0013539 1.5529e-17)
(0.99261 -0.0048685 -3.1903e-17)
(1.0164 0.0068525 1.0367e-17)