/*--------------------------------*- C++ -*----------------------------------*\
  =========                 |
  \\      /  F ield         | OpenFOAM: The Open Source CFD Toolbox
   \\    /   O peration     | Website:  https://openfoam.org
    \\  /    A nd           | Version:  6.0
     \\/     M anipulation  |
\*---------------------------------------------------------------------------*/
FoamFile
{
    version     2.0;
    format      ascii;
    class       volVectorField;
    location    "0.9";
    object      U;
}
// * * * * * * * * * * * * * * * * * * * * * * * * * * * * * * * * * * * * * //

dimensions      [0 1 -1 0 0 0 0];

internalField   nonuniform List<vector> 
13500
(
(1 2.1758e-06 -4.3614e-18)
(1 -4.4672e-06 2.9547e-18)
(1 -4.8966e-06 -1.2672e-17)
(1 -9.7591e-06 -8.81e-18)
(1 -7.3299e-06 1.6506e-17)
(1 -7.1575e-06 3.0965e-17)
(1 1.2075e-06 2.6427e-17)
(0.99998 1.5408e-05 -4.2993e-18)
(0.99991 4.2261e-05 1.5694e-17)
(0.99975 9.2966e-05 3.4057e-18)
(0.99628 0.00064191 2.8945e-17)
(1.0185 0.010882 8.094e-18)
(1 6.7308e-06 2.702e-18)
(1 -1.3245e-05 -8.9733e-18)
(1 -1.3687e-05 6.0513e-18)
(1 -2.886e-05 -3.4766e-19)
(1 -1.9813e-05 -4.402e-19)
(1 -2.1506e-05 -3.7234e-17)
(0.99999 7.4009e-06 -4.5643e-17)
(0.99994 4.5096e-05 -2.46e-17)
(0.99973 0.0001352 -1.5663e-17)
(0.99956 0.00025728 -1.6836e-18)
(0.98833 0.0017775 -1.3707e-17)
(1.0516 0.030774 -4.9007e-18)
(1 1.1351e-05 -3.4899e-18)
(1 -2.2246e-05 1.7828e-17)
(1 -2.2345e-05 3.1474e-18)
(1 -4.8615e-05 1.0158e-17)
(1 -3.1828e-05 -3.8062e-18)
(1 -3.7073e-05 2.9826e-17)
(0.99999 1.4925e-05 -6.4242e-18)
(0.9999 7.3069e-05 5.588e-18)
(0.99954 0.00023432 -1.9001e-17)
(0.99969 0.00045207 2.5579e-17)
(0.98018 0.0024924 -7.1686e-18)
(1.0785 0.045433 1.7252e-18)
(1 1.6018e-05 9.1233e-18)
(1 -3.1483e-05 -1.7285e-17)
(1 -3.1052e-05 -1.492e-17)
(1 -6.8957e-05 -7.128e-19)
(1 -4.3809e-05 5.8754e-18)
(1 -5.3539e-05 -8.2754e-19)
(0.99999 2.299e-05 6.3302e-17)
(0.99987 9.9567e-05 1.0068e-17)
(0.99934 0.00033722 2.2469e-17)
(1.0001 0.00068332 -9.2658e-18)
(0.97225 0.0028096 3.4915e-17)
(1.0979 0.05615 -7.8521e-18)
(1 2.0754e-05 -6.4105e-18)
(1 -4.0856e-05 1.4939e-17)
(1 -3.9715e-05 1.2701e-17)
(1 -8.956e-05 1.3001e-17)
(1 -5.5681e-05 2.8808e-18)
(1.0001 -7.0474e-05 2.1923e-17)
(0.99999 3.153e-05 -2.8268e-17)
(0.99985 0.00012465 2.0451e-18)
(0.99912 0.00044177 -1.3777e-17)
(1.0008 0.00095279 -2.211e-18)
(0.96491 0.0027823 -9.0508e-18)
(1.11 0.06407 2.1754e-18)
(1 2.5556e-05 6.4874e-18)
(1 -5.0363e-05 -6.1929e-18)
(1 -4.8337e-05 3.8786e-18)
(1 -0.00011043 -2.5754e-17)
(1.0001 -6.7439e-05 -8.4508e-20)
(1.0001 -8.7937e-05 -4.3401e-17)
(0.99999 4.059e-05 1.0845e-18)
(0.99985 0.00014806 -1.6415e-17)
(0.99888 0.00054632 5.246e-18)
(1.0016 0.0012647 -2.2272e-17)
(0.95845 0.0024618 -2.1806e-17)
(1.1154 0.069812 2.1062e-18)
(0.99999 3.0422e-05 -1.0739e-18)
(1 -6.001e-05 -7.4068e-18)
(1 -5.6912e-05 -3.1523e-18)
(1.0001 -0.0001316 1.9439e-17)
(1.0001 -7.9054e-05 -2.6682e-17)
(1.0001 -0.00010602 1.6607e-17)
(0.99999 5.0278e-05 1.8905e-17)
(0.99985 0.00016963 5.7754e-18)
(0.99862 0.0006494 1.1728e-17)
(1.0026 0.0016219 1.199e-17)
(0.95308 0.0018984 9.3992e-18)
(1.1154 0.073807 3.3879e-18)
(0.99999 3.535e-05 -2.2165e-18)
(1 -6.9801e-05 -1.4571e-18)
(1 -6.5441e-05 -2.7155e-17)
(1.0001 -0.00015309 -9.2825e-18)
(1.0001 -9.0511e-05 7.4683e-18)
(1.0001 -0.00012478 2.7216e-17)
(0.99999 6.0663e-05 1.2032e-17)
(0.99986 0.00018918 5.1561e-18)
(0.99833 0.00074959 -7.6661e-18)
(1.0036 0.002024 1.6795e-17)
(0.94893 0.0011438 7.5957e-18)
(1.111 0.076418 -1.0781e-17)
(0.99999 4.0338e-05 -6.8807e-18)
(1 -7.9737e-05 6.2643e-18)
(1 -7.3928e-05 4.5657e-17)
(1.0001 -0.00017492 -1.1134e-17)
(1.0001 -0.00010181 2.7966e-17)
(1.0001 -0.00014427 -5.3734e-17)
(0.99999 7.1793e-05 -4.0084e-17)
(0.99988 0.00020656 1.0019e-17)
(0.99802 0.00084553 -5.7581e-18)
(1.0047 0.002468 -9.2624e-18)
(0.94602 0.00024921 -1.4029e-17)
(1.1033 0.077946 1.4112e-17)
(0.99999 4.5382e-05 4.5332e-18)
(1 -8.982e-05 2.3579e-18)
(1 -8.2378e-05 -3.8674e-17)
(1.0001 -0.00019709 1.5846e-17)
(1.0001 -0.00011295 -1.2195e-17)
(1.0001 -0.00016457 2.2917e-17)
(0.99998 8.3715e-05 1.4244e-17)
(0.99992 0.00022162 2.5329e-18)
(0.9977 0.00093605 5.4317e-19)
(1.0058 0.0029485 1.4682e-18)
(0.94433 -0.00073576 4.4673e-18)
(1.0934 0.07864 -7.3563e-19)
(0.99999 5.0479e-05 -2.4889e-18)
(1 -0.00010005 -7.7331e-18)
(1 -9.0795e-05 9.48e-18)
(1.0001 -0.00021963 -2.796e-18)
(1.0001 -0.00012393 1.8823e-18)
(1.0002 -0.00018573 -2.5117e-17)
(0.99998 9.6477e-05 -3.2806e-17)
(0.99997 0.00023421 -3.2169e-17)
(0.99736 0.0010201 1.6095e-17)
(1.0068 0.003459 1.9076e-18)
(0.94376 -0.0017653 -1.1331e-17)
(1.0821 0.078697 -6.0888e-18)
(0.99998 5.5625e-05 3.4353e-18)
(1 -0.00011043 2.9209e-18)
(1 -9.9184e-05 4.5687e-18)
(1.0001 -0.00024254 -2.2283e-18)
(1.0001 -0.00013474 -5.6426e-18)
(1.0002 -0.00020782 9.4996e-18)
(0.99998 0.00011012 1.899e-17)
(1 0.00024418 1.9873e-17)
(0.99701 0.0010969 1.0343e-17)
(1.0078 0.0039916 -2.4079e-17)
(0.94417 -0.0027983 1.1758e-19)
(1.0702 0.078275 -7.0591e-18)
(0.99998 6.0816e-05 -3.4347e-18)
(1 -0.00012096 5.744e-18)
(1 -0.00010755 8.2829e-18)
(1.0001 -0.00026585 5.8182e-18)
(1.0001 -0.00014539 -5.2332e-18)
(1.0002 -0.00023092 4.6702e-18)
(0.99998 0.00012466 4.3303e-18)
(1.0001 0.00025138 -1.7746e-18)
(0.99666 0.0011656 -1.6717e-17)
(1.0086 0.0045382 2.2332e-17)
(0.94542 -0.0037998 1.0478e-19)
(1.0584 0.0775 1.5065e-18)
(0.99998 6.6048e-05 5.223e-18)
(1 -0.00013164 -4.4837e-18)
(1 -0.00011591 7.2494e-19)
(1.0001 -0.00028957 -4.8537e-18)
(1.0001 -0.00015587 1.1885e-17)
(1.0002 -0.00025511 5.6984e-18)
(0.99997 0.00014012 1.7423e-17)
(1.0002 0.00025567 -6.5913e-18)
(0.9963 0.0012258 -2.0444e-19)
(1.0093 0.0050906 5.4884e-18)
(0.94732 -0.004741 1.7215e-17)
(1.047 0.076469 9.6056e-19)
(0.99997 7.1314e-05 1.2596e-18)
(1 -0.00014247 9.951e-18)
(1 -0.00012425 1.385e-17)
(1.0001 -0.00031371 -4.8394e-18)
(1.0001 -0.00016618 8.6053e-18)
(1.0003 -0.00028046 -2.6601e-18)
(0.99996 0.00015646 -3.0514e-17)
(1.0003 0.00025695 2.0863e-17)
(0.99595 0.0012768 -1.8857e-17)
(1.0099 0.0056409 -3.1651e-17)
(0.94971 -0.0056 -3.7774e-18)
(1.0365 0.075258 8.9078e-19)
(0.99997 7.661e-05 -3.2137e-18)
(1 -0.00015345 -1.0583e-17)
(1 -0.0001326 -3.3243e-17)
(1.0001 -0.00033829 8.1532e-18)
(1.0001 -0.00017634 -1.3059e-17)
(1.0003 -0.00030706 8.5294e-18)
(0.99995 0.00017364 -2.8547e-18)
(1.0004 0.0002551 -1.2559e-17)
(0.99562 0.0013184 4.1383e-18)
(1.0105 0.0061819 1.8902e-17)
(0.95244 -0.0063614 -7.9334e-18)
(1.027 0.073926 1.2443e-17)
(0.99997 8.1929e-05 3.3812e-19)
(1 -0.00016459 7.915e-18)
(1 -0.00014096 2.295e-17)
(1.0001 -0.00036334 -1.8363e-18)
(1.0001 -0.00018635 -1.2973e-17)
(1.0003 -0.00033499 -1.5895e-17)
(0.99994 0.00019154 1.0905e-17)
(1.0006 0.00025005 7.2029e-18)
(0.99529 0.0013502 2.3935e-17)
(1.0109 0.0067072 -2.648e-18)
(0.95537 -0.0070159 1.9726e-18)
(1.0186 0.072516 -4.9634e-18)
(0.99996 8.7265e-05 -1.8971e-18)
(0.99999 -0.00017587 -9.5904e-18)
(1 -0.00014934 -1.0356e-17)
(1.0002 -0.00038886 6.1363e-18)
(1.0002 -0.00019622 -7.2853e-18)
(1.0004 -0.00036433 -1.2749e-17)
(0.99993 0.00021001 1.0601e-17)
(1.0007 0.00024175 -4.8865e-18)
(0.99499 0.0013719 -2.9628e-17)
(1.0112 0.0072115 -1.4845e-17)
(0.95837 -0.0075597 8.5607e-18)
(1.0115 0.071062 -5.3923e-18)
(0.99996 9.2611e-05 -2.7164e-18)
(0.99999 -0.0001873 -3.6247e-18)
(1 -0.00015776 -7.6748e-19)
(1.0002 -0.00041487 -2.6871e-17)
(1.0002 -0.00020599 6.1134e-18)
(1.0004 -0.00039516 5.5517e-18)
(0.99991 0.00022883 -2.0144e-17)
(1.0009 0.00023018 -1.6684e-17)
(0.99471 0.0013833 4.3306e-18)
(1.0114 0.0076906 -1.1203e-18)
(0.96135 -0.0079936 -9.8844e-18)
(1.0056 0.069588 1.0193e-18)
(0.99995 9.7958e-05 3.5332e-18)
(0.99999 -0.00019889 1.6617e-17)
(1 -0.00016623 1.9761e-17)
(1.0002 -0.00044139 2.5305e-18)
(1.0002 -0.00021568 1.6898e-17)
(1.0004 -0.00042757 9.7291e-18)
(0.99989 0.00024772 2.9079e-18)
(1.001 0.00021536 1.826e-17)
(0.99445 0.0013841 2.1536e-17)
(1.0115 0.0081414 1.773e-17)
(0.96424 -0.0083221 7.379e-18)
(1.0008 0.06811 1.2116e-18)
(0.99995 0.0001033 -1.684e-18)
(0.99999 -0.00021062 -3.9869e-18)
(1 -0.00017477 -2.1053e-17)
(1.0002 -0.00046845 -2.3961e-18)
(1.0002 -0.00022535 -1.2807e-17)
(1.0005 -0.00046163 -5.2641e-18)
(0.99987 0.00026632 -1.8657e-18)
(1.0012 0.00019737 -1.6512e-17)
(0.99422 0.0013744 -2.06e-17)
(1.0116 0.0085618 9.0917e-18)
(0.96698 -0.0085525 5.0704e-19)
(0.99699 0.066642 6.9649e-19)
(0.99994 0.00010863 4.4637e-18)
(0.99998 -0.0002225 -5.2088e-18)
(1 -0.00018339 -1.9745e-17)
(1.0002 -0.00049604 4.5552e-17)
(1.0002 -0.00023504 1.8577e-17)
(1.0005 -0.00049741 -1.2881e-17)
(0.99985 0.00028419 2.5086e-17)
(1.0014 0.00017631 2.2316e-17)
(0.99402 0.001354 3.3432e-17)
(1.0117 0.0089509 -3.3329e-17)
(0.96954 -0.0086939 -1.3553e-17)
(0.9941 0.06519 1.844e-19)
(0.99994 0.00011393 -3.2673e-18)
(0.99998 -0.00023453 -1.0452e-18)
(1 -0.00019213 3.3709e-17)
(1.0002 -0.00052421 -3.4434e-17)
(1.0002 -0.00024484 -1.7885e-18)
(1.0006 -0.000535 4.268e-17)
(0.99982 0.00030084 7.7739e-18)
(1.0016 0.00015233 -3.4469e-18)
(0.99385 0.001323 -2.0737e-17)
(1.0117 0.0093085 3.9281e-17)
(0.9719 -0.0087567 -5.742e-18)
(0.99198 0.063762 -2.9219e-19)
(0.99993 0.0001192 -1.6656e-18)
(0.99998 -0.00024671 -2.0827e-18)
(1 -0.000201 1.7549e-18)
(1.0002 -0.00055296 3.5823e-17)
(1.0002 -0.00025483 -1.0082e-17)
(1.0006 -0.00057448 -3.1546e-17)
(0.9998 0.00031569 -1.9821e-17)
(1.0018 0.00012563 -3.7116e-18)
(0.99372 0.0012816 6.5595e-18)
(1.0117 0.0096352 -3.3144e-17)
(0.97406 -0.0087515 9.6172e-18)
(0.99051 0.06236 3.1729e-18)
(0.99992 0.00012442 2.7525e-18)
(0.99997 -0.00025904 1.4496e-17)
(1 -0.00021005 -1.2945e-17)
(1.0002 -0.00058233 -3.751e-18)
(1.0002 -0.00026514 -1.9348e-17)
(1.0006 -0.00061591 3.432e-17)
(0.99977 0.00032813 -1.7399e-17)
(1.002 9.6464e-05 1.5388e-17)
(0.99361 0.0012301 -2.0216e-18)
(1.0117 0.0099322 3.1077e-17)
(0.97602 -0.008689 -9.3852e-18)
(0.98959 0.060987 -5.2949e-18)
(0.99992 0.0001296 -5.279e-19)
(0.99997 -0.00027152 -8.337e-18)
(1 -0.0002193 -1.8126e-17)
(1.0002 -0.00061233 -1.0278e-17)
(1.0002 -0.00027591 1.8766e-17)
(1.0007 -0.00065937 -4.3764e-17)
(0.99975 0.00033751 -2.6843e-18)
(1.0022 6.5112e-05 -2.079e-17)
(0.99354 0.001169 3.2679e-18)
(1.0117 0.010201 -8.9641e-18)
(0.9778 -0.0085794 9.9901e-18)
(0.98909 0.059643 2.2477e-18)
(0.99991 0.0001347 2.7654e-18)
(0.99997 -0.00028415 -8.9301e-18)
(1 -0.00022879 -1.7902e-18)
(1.0003 -0.00064301 2.4974e-18)
(1.0002 -0.00028729 5.9392e-18)
(1.0008 -0.00070495 1.2646e-17)
(0.99972 0.00034317 4.4015e-17)
(1.0025 3.1906e-05 2.4847e-18)
(0.99349 0.0010988 5.3274e-18)
(1.0117 0.010444 9.8818e-18)
(0.9794 -0.008432 -8.5447e-18)
(0.98892 0.058329 1.7292e-18)
(0.9999 0.00013973 -1.5857e-18)
(0.99996 -0.00029695 8.9219e-18)
(1 -0.00023857 2.5764e-17)
(1.0003 -0.0006744 -2.5163e-17)
(1.0002 -0.00029947 -9.2382e-18)
(1.0008 -0.00075272 -2.2252e-18)
(0.9997 0.00034442 -1.4508e-17)
(1.0027 -2.7891e-06 1.9278e-18)
(0.99348 0.0010203 -9.2285e-18)
(1.0116 0.010662 -3.6315e-18)
(0.98085 -0.0082552 -2.4228e-19)
(0.98901 0.057046 -2.1121e-18)
(0.99989 0.00014467 -1.7043e-18)
(0.99996 -0.00030991 5.3402e-18)
(1 -0.0002487 -6.2328e-19)
(1.0003 -0.00070654 8.3438e-18)
(1.0002 -0.00031267 -1.7045e-17)
(1.0009 -0.00080276 2.5177e-17)
(0.99968 0.00034065 7.2357e-18)
(1.0029 -3.8572e-05 -1.8391e-17)
(0.99349 0.00093433 -1.184e-17)
(1.0116 0.010859 -1.4379e-17)
(0.98217 -0.0080562 1.3538e-18)
(0.98929 0.055792 -3.8764e-18)
(0.99989 0.0001495 5.9222e-19)
(0.99995 -0.00032304 -1.2753e-17)
(1 -0.00025923 1.5952e-17)
(1.0003 -0.00073949 2.3077e-17)
(1.0002 -0.00032712 3.3408e-17)
(1.0009 -0.00085513 -1.849e-17)
(0.99966 0.00033128 -1.799e-17)
(1.0031 -7.5017e-05 3.7318e-18)
(0.99352 0.00084178 1.1094e-17)
(1.0116 0.011036 1.1256e-17)
(0.98337 -0.0078414 6.3058e-18)
(0.9897 0.054567 3.853e-18)
(0.99988 0.00015422 1.1349e-18)
(0.99995 -0.00033636 1.0141e-17)
(1 -0.00027023 -3.6651e-17)
(1.0003 -0.00077332 -3.3439e-18)
(1.0002 -0.00034309 -2.7751e-17)
(1.001 -0.00090992 -1.1647e-17)
(0.99965 0.00031581 2.5371e-20)
(1.0034 -0.00011168 -4.2695e-18)
(0.99358 0.00074368 -2.187e-17)
(1.0116 0.011195 -1.797e-17)
(0.98447 -0.0076158 -8.6152e-18)
(0.99021 0.05337 -1.9022e-18)
(0.99987 0.0001588 -7.356e-19)
(0.99994 -0.0003499 -6.5953e-18)
(1 -0.00028179 2.8837e-17)
(1.0003 -0.00080808 -3.1905e-17)
(1.0002 -0.00036084 -2.0865e-18)
(1.0011 -0.00096717 2.4803e-17)
(0.99964 0.00029385 7.1982e-19)
(1.0036 -0.00014809 4.0709e-18)
(0.99366 0.00064105 1.9145e-17)
(1.0116 0.011339 2.3358e-17)
(0.98549 -0.0073838 4.928e-18)
(0.99077 0.052201 -1.0644e-18)
(0.99986 0.00016324 -1.9149e-18)
(0.99994 -0.00036365 -2.4321e-18)
(0.99999 -0.00029398 -1.2784e-17)
(1.0003 -0.00084388 1.5894e-17)
(1.0002 -0.00038065 3.0498e-17)
(1.0011 -0.0010269 -1.0962e-17)
(0.99964 0.00026513 2.2404e-17)
(1.0038 -0.00018379 3.0515e-18)
(0.99375 0.00053495 -2.1708e-18)
(1.0116 0.011468 1.0564e-17)
(0.98645 -0.0071488 -5.5106e-18)
(0.99136 0.051059 -7.4364e-19)
(0.99985 0.00016751 4.7892e-19)
(0.99993 -0.00037767 -6.4318e-18)
(0.99999 -0.00030691 4.7851e-18)
(1.0003 -0.00088078 -1.6198e-17)
(1.0002 -0.00040283 -3.2257e-17)
(1.0012 -0.0010892 6.9079e-18)
(0.99964 0.00022951 -3.232e-17)
(1.004 -0.00021833 -6.978e-18)
(0.99386 0.0004264 7.0396e-18)
(1.0116 0.011584 -3.3161e-17)
(0.98734 -0.0069133 3.7714e-18)
(0.99197 0.049942 2.0921e-18)
(0.99984 0.0001716 8.4098e-19)
(0.99993 -0.00039196 1.7426e-17)
(0.99998 -0.00032067 8.0118e-18)
(1.0004 -0.0009189 6.5983e-18)
(1.0002 -0.00042765 2.5793e-17)
(1.0013 -0.001154 2.0596e-18)
(0.99964 0.000187 2.2317e-17)
(1.0042 -0.00025125 5.0045e-18)
(0.99398 0.00031634 -2.1404e-17)
(1.0115 0.011688 1.1416e-17)
(0.98819 -0.0066794 2.5509e-18)
(0.99258 0.048851 2.1728e-18)
(0.99983 0.00017548 -2.9364e-18)
(0.99992 -0.00040658 -5.7359e-18)
(0.99998 -0.00033537 -7.0394e-18)
(1.0004 -0.00095834 1.0836e-17)
(1.0002 -0.00045537 1.246e-17)
(1.0014 -0.0012212 -4.1016e-18)
(0.99966 0.00013775 -1.8746e-17)
(1.0044 -0.00028216 2.2789e-17)
(0.99411 0.00020568 3.9601e-18)
(1.0115 0.011783 -3.4479e-18)
(0.98899 -0.0064486 1.056e-17)
(0.99319 0.047784 -1.5116e-18)
(0.99982 0.00017915 6.0336e-18)
(0.99991 -0.00042157 6.8689e-18)
(0.99997 -0.00035113 -7.4825e-18)
(1.0004 -0.00099921 -6.7498e-18)
(1.0002 -0.00048626 -1.7879e-17)
(1.0014 -0.0012909 -7.0448e-18)
(0.99967 8.2059e-05 9.2423e-18)
(1.0046 -0.00031066 -3.6555e-17)
(0.99425 9.5194e-05 9.7041e-18)
(1.0115 0.011867 -4.0749e-18)
(0.98976 -0.0062219 -1.1185e-17)
(0.99378 0.04674 4.3951e-18)
(0.99981 0.00018256 -2.6629e-18)
(0.9999 -0.00043697 -1.2068e-17)
(0.99997 -0.00036806 -7.2515e-18)
(1.0004 -0.0010416 -1.2808e-17)
(1.0002 -0.00052052 -5.4588e-18)
(1.0015 -0.0013627 2.0713e-17)
(0.99969 2.0339e-05 -9.0789e-18)
(1.0048 -0.00033644 4.0666e-17)
(0.99439 -1.4427e-05 9.1541e-18)
(1.0115 0.011943 1.2366e-17)
(0.99051 -0.0060002 4.7155e-18)
(0.99435 0.04572 -7.1316e-18)
(0.9998 0.00018572 -1.4124e-18)
(0.9999 -0.00045283 8.975e-18)
(0.99996 -0.00038629 1.4367e-17)
(1.0004 -0.0010857 3.4534e-17)
(1.0003 -0.00055832 7.2357e-18)
(1.0016 -0.0014367 -1.4208e-17)
(0.99972 -4.6874e-05 4.3813e-18)
(1.005 -0.00035921 -4.3753e-17)
(0.99454 -0.00012262 -1.1106e-17)
(1.0115 0.01201 -6.8749e-18)
(0.99123 -0.0057839 4.6297e-18)
(0.99491 0.044722 7.1777e-18)
(0.99979 0.00018858 1.0809e-18)
(0.99989 -0.0004692 2.1245e-18)
(0.99995 -0.00040594 -1.4109e-17)
(1.0004 -0.0011314 -5.7523e-18)
(1.0003 -0.00059978 9.1867e-18)
(1.0017 -0.0015124 1.7005e-17)
(0.99975 -0.00011895 1.5235e-17)
(1.0052 -0.00037875 4.3298e-18)
(0.9947 -0.00022893 1.2427e-17)
(1.0115 0.012069 -3.1846e-18)
(0.99192 -0.0055732 -8.2651e-18)
(0.99544 0.043745 -1.8501e-18)
(0.99977 0.00019113 -4.4273e-20)
(0.99988 -0.00048616 2.4212e-18)
(0.99995 -0.00042712 3.1533e-18)
(1.0004 -0.001179 -7.4675e-18)
(1.0003 -0.00064495 8.5174e-20)
(1.0018 -0.0015897 -1.5419e-17)
(0.99979 -0.00019521 -1.0305e-17)
(1.0053 -0.00039493 3.2042e-17)
(0.99485 -0.00033301 -1.8784e-17)
(1.0115 0.012121 1.2367e-17)
(0.9926 -0.0053684 4.3667e-18)
(0.99596 0.042789 -5.2371e-18)
(0.99976 0.00019334 -3.3478e-18)
(0.99987 -0.00050375 -1.1356e-17)
(0.99994 -0.00044992 8.05e-18)
(1.0005 -0.0012285 -2.0394e-17)
(1.0003 -0.00069384 -2.3232e-17)
(1.0018 -0.0016682 -2.13e-17)
(0.99982 -0.00027489 -2.1001e-17)
(1.0055 -0.00040765 -3.2812e-18)
(0.99501 -0.00043464 1.6417e-17)
(1.0115 0.012165 -1.0607e-17)
(0.99326 -0.0051695 4.3507e-19)
(0.99646 0.041854 4.9358e-18)
(0.99975 0.00019519 6.4615e-18)
(0.99986 -0.00052202 1.1867e-17)
(0.99993 -0.00047444 -1.2982e-17)
(1.0005 -0.0012798 1.6744e-17)
(1.0003 -0.00074635 -2.7237e-18)
(1.0019 -0.0017475 1.3961e-17)
(0.99986 -0.00035727 2.5243e-17)
(1.0057 -0.0004169 -2.4858e-17)
(0.99517 -0.00053368 -8.3265e-18)
(1.0115 0.012202 1.1199e-17)
(0.99391 -0.0049765 3.779e-18)
(0.99695 0.040939 -2.3367e-18)
(0.99973 0.00019667 -4.8484e-18)
(0.99986 -0.00054104 -3.5074e-18)
(0.99993 -0.00050075 -2.7141e-18)
(1.0005 -0.0013331 1.9157e-17)
(1.0003 -0.00080236 -5.8311e-18)
(1.002 -0.0018273 -1.7689e-19)
(0.9999 -0.00044157 -4.9395e-18)
(1.0058 -0.00042273 1.9912e-17)
(0.99533 -0.00063006 -7.908e-18)
(1.0115 0.012233 -7.6898e-18)
(0.99453 -0.0047894 -1.1172e-17)
(0.99741 0.040044 2.7192e-18)
(0.99972 0.00019774 3.2956e-18)
(0.99985 -0.00056085 -4.447e-18)
(0.99992 -0.00052891 6.214e-18)
(1.0005 -0.0013882 -2.9067e-17)
(1.0003 -0.00086164 3.9508e-17)
(1.0021 -0.0019071 5.7841e-18)
(0.99995 -0.0005271 1.9488e-17)
(1.0059 -0.00042525 -1.2322e-17)
(0.9955 -0.00072381 1.0291e-19)
(1.0115 0.012256 5.7172e-18)
(0.99515 -0.0046079 -2.1781e-18)
(0.99787 0.039167 -1.0228e-18)
(0.9997 0.0001984 -9.4279e-19)
(0.99984 -0.00058148 8.6919e-19)
(0.99991 -0.00055892 1.5139e-17)
(1.0005 -0.0014451 7.9243e-18)
(1.0003 -0.00092392 -1.9751e-17)
(1.0022 -0.0019865 -1.1329e-17)
(0.99999 -0.00061319 3.4024e-18)
(1.0061 -0.00042462 -5.991e-18)
(0.99566 -0.00081499 1.3231e-17)
(1.0115 0.012273 -3.7534e-18)
(0.99574 -0.0044321 1.0468e-17)
(0.9983 0.038309 -3.7392e-18)
(0.99969 0.00019863 -1.6409e-18)
(0.99983 -0.00060297 -8.3788e-18)
(0.9999 -0.00059081 -4.5015e-18)
(1.0005 -0.0015037 3.182e-17)
(1.0004 -0.00098887 -1.7595e-17)
(1.0023 -0.002065 -9.5955e-19)
(1 -0.00069923 -5.0886e-17)
(1.0062 -0.00042107 5.8884e-18)
(0.99582 -0.00090371 -2.4748e-17)
(1.0114 0.012283 -8.1033e-18)
(0.99633 -0.0042618 -1.0476e-17)
(0.99873 0.037469 2.2206e-18)
(0.99967 0.00019841 -7.0836e-19)
(0.99981 -0.00062534 5.191e-18)
(0.9999 -0.00062452 -1.8583e-18)
(1.0006 -0.0015638 -1.8528e-17)
(1.0004 -0.0010561 2.5285e-17)
(1.0023 -0.0021423 -2.3588e-18)
(1.0001 -0.0007847 2.6954e-17)
(1.0063 -0.00041484 -3.6204e-18)
(0.99598 -0.00099013 1.2014e-17)
(1.0114 0.012286 1.0134e-17)
(0.9969 -0.0040968 8.6432e-18)
(0.99914 0.036647 -5.38e-19)
(0.99966 0.00019775 4.0155e-18)
(0.9998 -0.00064857 -3.1057e-18)
(0.99989 -0.00066 -6.4998e-18)
(1.0006 -0.0016253 2.022e-17)
(1.0004 -0.0011252 1.8555e-18)
(1.0024 -0.0022179 2.9245e-17)
(1.0001 -0.00086918 4.6495e-18)
(1.0064 -0.00040623 1.7296e-17)
(0.99615 -0.0010744 4.5074e-18)
(1.0114 0.012283 -3.2789e-18)
(0.99746 -0.0039371 1.126e-18)
(0.99954 0.035842 4.8661e-19)
(0.99964 0.00019663 1.1448e-18)
(0.99979 -0.00067267 1.2699e-18)
(0.99988 -0.00069716 -5.8936e-18)
(1.0006 -0.0016879 -4.0268e-17)
(1.0004 -0.0011958 5.6187e-18)
(1.0025 -0.0022916 2.5361e-18)
(1.0002 -0.0009523 -2.0161e-17)
(1.0065 -0.00039555 2.4337e-19)
(0.99631 -0.0011567 1.3285e-17)
(1.0114 0.012274 -2.1076e-18)
(0.998 -0.0037825 -5.4824e-18)
(0.99993 0.035054 2.8723e-18)
(0.99962 0.00019508 -4.9028e-18)
(0.99978 -0.00069759 5.382e-18)
(0.99987 -0.00073586 9.7189e-19)
(1.0006 -0.0017514 2.236e-17)
(1.0004 -0.0012673 -2.5631e-17)
(1.0025 -0.0023629 -1.1203e-17)
(1.0002 -0.0010338 2.062e-17)
(1.0066 -0.00038313 -1.1716e-17)
(0.99647 -0.0012373 -2.1005e-17)
(1.0114 0.012258 -1.0413e-17)
(0.99854 -0.0036329 6.985e-18)
(1.0003 0.034283 9.594e-19)
(0.9996 0.00019308 -5.1874e-19)
(0.99976 -0.0007233 -5.4156e-18)
(0.99986 -0.00077597 1.0347e-17)
(1.0006 -0.0018156 9.9139e-18)
(1.0004 -0.0013395 3.1656e-17)
(1.0026 -0.0024318 4.3033e-18)
(1.0002 -0.0011136 1.8314e-17)
(1.0067 -0.0003693 2.9702e-17)
(0.99664 -0.0013162 -9.2928e-19)
(1.0114 0.012236 1.8316e-17)
(0.99906 -0.0034882 -7.3837e-19)
(1.0007 0.033528 -2.7963e-18)
(0.99958 0.00019067 5.0281e-18)
(0.99975 -0.00074973 -7.8844e-18)
(0.99985 -0.0008173 -1.5704e-17)
(1.0006 -0.0018801 -2.6354e-18)
(1.0004 -0.0014117 -3.4357e-17)
(1.0027 -0.0024978 -1.2805e-17)
(1.0003 -0.0011914 -6.3574e-18)
(1.0068 -0.00035441 2.2192e-19)
(0.9968 -0.0013937 2.7338e-17)
(1.0114 0.012208 4.2195e-18)
(0.99957 -0.0033483 -9.5984e-18)
(1.001 0.032788 1.679e-18)
(0.99956 0.00018786 -5.6369e-18)
(0.99974 -0.00077681 9.8491e-18)
(0.99984 -0.00085965 8.2206e-18)
(1.0007 -0.0019446 -5.251e-18)
(1.0005 -0.0014836 2.7629e-17)
(1.0027 -0.002561 1.5319e-17)
(1.0003 -0.0012674 -5.0254e-18)
(1.0069 -0.00033877 -2.9931e-17)
(0.99697 -0.00147 -9.2887e-19)
(1.0114 0.012174 -1.2059e-17)
(1.0001 -0.003213 1.1367e-17)
(1.0014 0.032064 -2.1987e-18)
(0.99954 0.00018468 3.3871e-18)
(0.99972 -0.00080444 -1.8845e-18)
(0.99983 -0.00090282 1.0884e-17)
(1.0007 -0.0020089 -2.209e-17)
(1.0005 -0.001555 9.0209e-18)
(1.0028 -0.0026213 -5.5032e-18)
(1.0003 -0.0013415 -1.0827e-17)
(1.0069 -0.00032272 -2.4024e-18)
(0.99713 -0.0015451 -3.2997e-17)
(1.0114 0.012134 7.9552e-18)
(1.0005 -0.0030824 -1.0415e-17)
(1.0017 0.031355 7.342e-19)
(0.99952 0.00018115 2.6777e-19)
(0.99971 -0.00083253 -5.9284e-18)
(0.99982 -0.00094659 6.1803e-18)
(1.0007 -0.0020727 2.9074e-17)
(1.0005 -0.0016253 -2.1487e-17)
(1.0029 -0.0026786 1.7702e-17)
(1.0004 -0.0014139 -6.2605e-18)
(1.007 -0.00030656 5.5636e-18)
(0.9973 -0.0016193 3.9204e-17)
(1.0113 0.012088 -1.4768e-17)
(1.001 -0.0029562 1.5927e-17)
(1.0021 0.030661 2.0777e-18)
(0.9995 0.00017732 4.806e-19)
(0.99969 -0.00086095 -1.2267e-18)
(0.99981 -0.00099073 -8.8917e-18)
(1.0007 -0.0021357 -4.3772e-18)
(1.0005 -0.0016944 1.8725e-17)
(1.0029 -0.0027329 1.405e-19)
(1.0004 -0.0014847 -1.2306e-17)
(1.0071 -0.00029058 -1.3281e-17)
(0.99747 -0.0016927 -1.6412e-17)
(1.0113 0.012036 -1.3937e-18)
(1.0015 -0.0028345 2.9239e-18)
(1.0024 0.029982 2.1881e-19)
(0.99947 0.00017322 -7.7345e-19)
(0.99967 -0.00088961 1.46e-17)
(0.99979 -0.001035 -5.9303e-18)
(1.0007 -0.0021977 -2.4734e-17)
(1.0005 -0.001762 8.6318e-18)
(1.003 -0.0027844 -4.5101e-17)
(1.0004 -0.0015539 6.1384e-18)
(1.0072 -0.00027506 8.3629e-18)
(0.99764 -0.0017653 7.6233e-19)
(1.0113 0.011979 1.4997e-17)
(1.0019 -0.0027171 -9.6869e-19)
(1.0027 0.029316 -5.808e-18)
(0.99945 0.00016888 -2.0421e-19)
(0.99965 -0.00091837 -2.8659e-19)
(0.99978 -0.0010792 7.9829e-18)
(1.0007 -0.0022585 1.527e-17)
(1.0005 -0.001828 -3.4299e-17)
(1.003 -0.0028331 1.9484e-18)
(1.0005 -0.001622 1.0995e-17)
(1.0072 -0.00026023 1.3096e-17)
(0.99781 -0.0018374 -1.0381e-17)
(1.0113 0.011916 -1.4601e-17)
(1.0024 -0.002604 -1.5823e-17)
(1.0031 0.028665 6.1354e-18)
(0.99942 0.00016437 -1.3361e-18)
(0.99963 -0.00094712 4.0793e-19)
(0.99976 -0.0011232 -3.849e-18)
(1.0007 -0.0023178 -1.0195e-17)
(1.0005 -0.0018923 1.9012e-17)
(1.0031 -0.0028793 2.4207e-17)
(1.0005 -0.0016889 3.2066e-18)
(1.0073 -0.00024633 6.6359e-18)
(0.99798 -0.0019089 1.6558e-17)
(1.0113 0.011848 2.4575e-18)
(1.0028 -0.0024951 1.1707e-17)
(1.0034 0.028026 -3.7244e-18)
(0.99939 0.0001597 2.459e-18)
(0.99961 -0.00097575 7.5212e-19)
(0.99974 -0.0011667 -5.5003e-18)
(1.0007 -0.0023756 1.5061e-18)
(1.0005 -0.0019548 -1.0308e-17)
(1.0031 -0.0029232 -5.8066e-18)
(1.0005 -0.001755 -1.1851e-18)
(1.0074 -0.00023357 -2.9964e-17)
(0.99815 -0.00198 3.2509e-18)
(1.0113 0.011775 -4.9818e-18)
(1.0032 -0.0023903 -4.7611e-18)
(1.0037 0.027402 -4.4912e-18)
(0.99937 0.00015493 -5.0183e-18)
(0.99959 -0.0010041 9.8259e-19)
(0.99973 -0.0012095 2.9174e-18)
(1.0007 -0.0024317 -1.8924e-17)
(1.0005 -0.0020154 -1.175e-17)
(1.0031 -0.0029648 -2.6956e-17)
(1.0005 -0.0018204 5.7195e-18)
(1.0074 -0.00022212 1.2236e-17)
(0.99832 -0.0020507 -3.4861e-17)
(1.0113 0.011697 2.2972e-17)
(1.0036 -0.0022896 -5.1547e-18)
(1.004 0.02679 2.896e-18)
(0.99934 0.0001501 4.6064e-18)
(0.99957 -0.0010322 2.199e-18)
(0.99971 -0.0012516 1.122e-18)
(1.0007 -0.0024862 6.0024e-18)
(1.0005 -0.0020743 -2.5948e-18)
(1.0032 -0.0030046 5.2246e-17)
(1.0006 -0.0018854 2.0535e-17)
(1.0075 -0.00021216 -1.9027e-17)
(0.99849 -0.0021212 3.3553e-17)
(1.0113 0.011614 -8.5708e-18)
(1.004 -0.0021929 -3.4035e-18)
(1.0043 0.02619 -1.4456e-18)
(0.99931 0.00014525 1.1298e-18)
(0.99955 -0.0010598 -1.3926e-17)
(0.99969 -0.0012929 2.2453e-18)
(1.0007 -0.0025388 2.6952e-17)
(1.0005 -0.0021314 2.0085e-17)
(1.0032 -0.0030427 -8.4422e-19)
(1.0006 -0.0019501 -2.8449e-17)
(1.0075 -0.00020382 5.763e-18)
(0.99866 -0.0021914 -7.5674e-18)
(1.0113 0.011526 -1.1862e-17)
(1.0044 -0.0021002 8.6559e-18)
(1.0046 0.025603 1.3471e-18)
(0.99928 0.0001404 -4.4688e-18)
(0.99952 -0.001087 -4.642e-18)
(0.99967 -0.0013331 -1.2163e-17)
(1.0007 -0.0025896 -2.2603e-17)
(1.0005 -0.002187 -2.0209e-17)
(1.0033 -0.0030793 -2.3742e-17)
(1.0006 -0.0020147 5.2536e-18)
(1.0076 -0.00019725 4.4786e-17)
(0.99884 -0.0022614 3.2987e-18)
(1.0113 0.011433 -1.0359e-18)
(1.0048 -0.0020113 -3.0576e-18)
(1.0049 0.025028 -3.6221e-18)
(0.99925 0.00013559 3.316e-18)
(0.9995 -0.0011136 4.3125e-18)
(0.99964 -0.0013724 1.8742e-17)
(1.0007 -0.0026388 1.5654e-17)
(1.0005 -0.0022411 1.9661e-17)
(1.0033 -0.0031148 -8.8257e-19)
(1.0006 -0.0020795 -2.9271e-17)
(1.0077 -0.00019255 -2.4206e-17)
(0.99901 -0.0023313 8.1876e-18)
(1.0113 0.011336 4.1058e-18)
(1.0052 -0.0019263 6.9008e-18)
(1.0052 0.024465 2.7989e-18)
(0.99922 0.00013085 -2.3417e-18)
(0.99947 -0.0011395 6.7646e-18)
(0.99962 -0.0014105 -1.24e-17)
(1.0007 -0.0026862 2.2653e-18)
(1.0005 -0.0022938 9.1405e-18)
(1.0033 -0.0031492 -2.3207e-18)
(1.0007 -0.0021444 6.5719e-18)
(1.0077 -0.00018983 6.7207e-18)
(0.99919 -0.0024012 2.696e-18)
(1.0113 0.011234 1.015e-17)
(1.0056 -0.0018452 -8.301e-18)
(1.0054 0.023914 5.6518e-19)
(0.99918 0.0001262 3.5354e-18)
(0.99944 -0.0011648 4.1922e-19)
(0.99959 -0.0014476 -5.8042e-18)
(1.0007 -0.0027321 9.0158e-19)
(1.0005 -0.0023454 -1.5024e-18)
(1.0033 -0.003183 -2.2925e-17)
(1.0007 -0.0022098 1.835e-17)
(1.0078 -0.00018917 2.385e-17)
(0.99936 -0.0024709 -1.3416e-17)
(1.0113 0.011128 -1.4123e-17)
(1.0059 -0.0017677 -2.4299e-18)
(1.0057 0.023374 4.8157e-18)
(0.99915 0.00012166 -2.5682e-18)
(0.99941 -0.0011895 -3.2287e-19)
(0.99957 -0.0014837 7.2166e-18)
(1.0007 -0.0027765 -1.7321e-17)
(1.0005 -0.002396 -1.3578e-17)
(1.0034 -0.0032162 2.8942e-17)
(1.0007 -0.0022757 -2.8062e-18)
(1.0078 -0.00019065 -2.5253e-17)
(0.99954 -0.0025407 3.4189e-18)
(1.0113 0.011018 1.3297e-17)
(1.0063 -0.001694 8.2347e-18)
(1.006 0.022844 -1.7366e-18)
(0.99912 0.00011724 2.5519e-19)
(0.99939 -0.0012135 2.3647e-18)
(0.99954 -0.0015187 3.943e-18)
(1.0007 -0.0028195 8.9541e-18)
(1.0005 -0.0024459 2.6612e-17)
(1.0034 -0.0032491 6.7476e-18)
(1.0007 -0.0023422 -2.4435e-17)
(1.0079 -0.00019434 2.3655e-18)
(0.99972 -0.0026105 8.8079e-18)
(1.0114 0.010903 -1.1981e-17)
(1.0066 -0.001624 -5.5705e-18)
(1.0063 0.022326 -2.009e-18)
(0.99908 0.00011295 7.2454e-19)
(0.99936 -0.0012368 -4.1143e-19)
(0.99951 -0.0015527 -1.0403e-17)
(1.0007 -0.0028613 -1.9256e-19)
(1.0005 -0.002495 -5.2614e-17)
(1.0034 -0.0032818 8.3189e-18)
(1.0008 -0.0024094 2.4003e-17)
(1.0079 -0.00020029 -6.7976e-18)
(0.99989 -0.0026803 -9.2227e-18)
(1.0114 0.010785 1.9896e-17)
(1.0069 -0.0015576 6.6707e-18)
(1.0065 0.021818 5.2078e-18)
(0.99904 0.0001088 7.7826e-19)
(0.99932 -0.0012595 -8.5358e-19)
(0.99948 -0.0015858 1.8814e-17)
(1.0007 -0.002902 4.1295e-18)
(1.0004 -0.0025438 4.6623e-17)
(1.0035 -0.0033146 -2.932e-17)
(1.0008 -0.0024774 -8.0383e-18)
(1.008 -0.00020857 6.3966e-18)
(1.0001 -0.0027503 3.1791e-18)
(1.0114 0.010663 -1.1195e-17)
(1.0073 -0.0014948 -1.0781e-18)
(1.0068 0.02132 -3.8402e-18)
(0.99901 0.00010479 -3.0416e-18)
(0.99929 -0.0012816 1.4329e-18)
(0.99945 -0.0016182 -1.1058e-17)
(1.0007 -0.0029418 5.4296e-18)
(1.0004 -0.0025922 -1.7715e-17)
(1.0035 -0.0033475 3.9762e-18)
(1.0008 -0.0025463 3.2186e-17)
(1.008 -0.00021922 -2.3939e-17)
(1.0002 -0.0028203 -1.1684e-17)
(1.0114 0.010537 -1.1074e-17)
(1.0076 -0.0014356 -5.309e-18)
(1.0071 0.020832 -1.0544e-18)
(0.99897 0.00010091 3.7885e-18)
(0.99926 -0.001303 -3.4033e-18)
(0.99942 -0.0016497 -1.073e-17)
(1.0007 -0.0029807 -8.6582e-18)
(1.0004 -0.0026406 -2.8962e-17)
(1.0035 -0.0033808 -1.844e-17)
(1.0008 -0.0026161 -1.9735e-17)
(1.0081 -0.00023227 2.2258e-17)
(1.0004 -0.0028906 1.1329e-17)
(1.0114 0.010407 1.6771e-17)
(1.0079 -0.0013799 -2.0813e-18)
(1.0073 0.020355 5.0904e-18)
(0.99893 9.7159e-05 -6.0888e-18)
(0.99923 -0.001324 5.5139e-18)
(0.99939 -0.0016807 2.6273e-17)
(1.0007 -0.0030191 -2.0422e-18)
(1.0004 -0.002689 3.2043e-17)
(1.0035 -0.0034145 1.3913e-18)
(1.0009 -0.0026869 -1.8902e-17)
(1.0081 -0.00024778 8.7086e-18)
(1.0006 -0.002961 -4.0854e-18)
(1.0114 0.010273 -3.5117e-18)
(1.0082 -0.0013277 6.7508e-18)
(1.0076 0.019886 -3.4423e-18)
(0.99889 9.3531e-05 4.9895e-18)
(0.99919 -0.0013445 -7.4935e-18)
(0.99936 -0.0017111 -3.0632e-17)
(1.0006 -0.0030569 1.3358e-17)
(1.0004 -0.0027375 -2.2828e-17)
(1.0036 -0.0034488 2.549e-17)
(1.0009 -0.0027588 6.1608e-18)
(1.0082 -0.00026576 -8.2913e-18)
(1.0008 -0.0030317 -1.9611e-18)
(1.0114 0.010137 -8.7954e-18)
(1.0085 -0.001279 -1.1013e-17)
(1.0078 0.019427 4.7584e-18)
(0.99885 9.0012e-05 -3.6751e-18)
(0.99916 -0.0013645 2.4917e-18)
(0.99932 -0.001741 1.8612e-17)
(1.0006 -0.0030944 -1.7609e-17)
(1.0004 -0.0027864 3.6729e-17)
(1.0036 -0.0034838 -1.9783e-17)
(1.0009 -0.0028317 3.5915e-18)
(1.0082 -0.00028626 -1.3101e-17)
(1.001 -0.0031026 6.4033e-18)
(1.0115 0.0099963 -1.2307e-18)
(1.0088 -0.0012337 4.7128e-18)
(1.0081 0.018977 -2.1161e-18)
(0.99881 8.6593e-05 4.5073e-18)
(0.99912 -0.0013842 1.9397e-18)
(0.99929 -0.0017706 -1.2408e-17)
(1.0006 -0.0031316 -3.5776e-19)
(1.0003 -0.0028356 -1.6222e-18)
(1.0036 -0.0035195 4.7848e-18)
(1.001 -0.0029058 3.4107e-17)
(1.0082 -0.00030931 8.9608e-18)
(1.0011 -0.0031739 -1.8981e-17)
(1.0115 0.0098527 -6.3793e-18)
(1.0091 -0.0011918 -4.4413e-18)
(1.0083 0.018536 2.2233e-18)
(0.99877 8.3259e-05 -5.1661e-18)