/*--------------------------------*- C++ -*----------------------------------*\
  =========                 |
  \\      /  F ield         | OpenFOAM: The Open Source CFD Toolbox
   \\    /   O peration     | Website:  https://openfoam.org
    \\  /    A nd           | Version:  6.0
     \\/     M anipulation  |
\*---------------------------------------------------------------------------*/
FoamFile
{
    version     2.0;
    format      ascii;
    class       surfaceScalarField;
    location    "100";
    object      phi;
}
// * * * * * * * * * * * * * * * * * * * * * * * * * * * * * * * * * * * * * //

dimensions      [0 3 -1 0 0 0 0];

internalField   nonuniform List<scalar> 
19165
(
-0.040253
0.0301649
0.0418869
-0.0385744
0.0304568
-0.0368614
0.0307377
-0.0351232
0.0310075
-0.0333656
0.0312649
-0.0315924
0.0315093
-0.029806
0.0317403
-0.0280084
0.0319579
-0.026201
0.032162
-0.0243852
0.0323525
-0.022542
0.0325096
-0.020688
0.0326687
-0.0188266
0.0328165
-0.0169584
0.0329504
-0.0150842
0.0330703
-0.0132049
0.0331763
-0.0113213
0.0332681
-0.0094344
0.0333456
-0.00754554
0.0334088
-0.00565655
0.0334573
-0.00377022
0.0334913
-0.00189138
0.0335109
-2.95635e-05
0.0335176
0.00183194
0.0335189
0.00371027
0.0335147
0.00559622
0.0334978
0.00748488
0.0334667
0.0093734
0.033421
0.0112599
0.0333609
0.0131432
0.0332865
0.0150229
0.0331971
0.0169045
0.0330877
0.0187804
0.0329713
0.0206498
0.0328412
0.0225119
0.0326975
0.0243661
0.0325403
0.0262117
0.0323696
0.0280481
0.0321856
0.0298745
0.0319882
0.0316903
0.0317776
0.0334949
0.0315538
0.0352877
0.0313168
0.037068
0.0310668
0.0388352
0.0308038
0.0405886
0.0305279
0.0423277
0.030239
0.0440518
0.0299373
0.0457604
0.0296229
0.0474527
0.0292957
0.0491283
0.0289559
0.0507865
0.0286034
0.0524267
0.0282385
0.0540483
0.027861
0.0556508
0.0274711
0.0572335
0.0270688
0.0587959
0.0266541
0.0603375
0.0262271
0.0618575
0.0257878
0.0633556
0.0253363
0.0648311
0.0248726
0.0662835
0.0243966
0.067713
0.0239076
0.0691207
0.023405
0.0705035
0.0228923
0.0718611
0.0223674
0.0731929
0.0218302
0.0744984
0.0212805
0.0757768
0.0207182
0.0770279
0.0201433
0.0782507
0.0195555
0.0794451
0.0189546
0.0806099
0.0183403
0.081745
0.0177121
0.0828489
0.0170698
0.0839217
0.0164127
0.084961
0.0157403
0.0859668
0.0150515
0.0869356
0.0143457
0.0878665
0.0136215
0.0887534
0.0128777
0.0895931
0.0121126
0.0903745
0.0113246
0.091086
0.0105115
0.091705
0.00967112
0.0922004
0.00880109
0.0925139
0.00789948
0.0925697
0.00696424
0.0922176
0.00599562
0.091254
0.00498912
0.0893298
0.00397307
0.088748
0.00270727
0.0841485
0.00136004
0.0823077
0.00068222
0.0803952
0.000256819
0.0785549
6.44495e-06
0.0767053
-0.000152561
0.0748085
-0.000204345
0.0728552
-0.00014225
0.0708039
-1.35884e-05
0.000472148
0.0689724
-0.0398765
0.0285109
0.0415303
-0.0382032
0.0287826
-0.0365066
0.0290402
-0.0347887
0.0292885
-0.0330515
0.0295265
-0.0312972
0.0297538
-0.0295282
0.0299699
-0.0277459
0.0301744
-0.0259524
0.0303671
-0.0241489
0.0305477
-0.0223177
0.0306769
-0.020475
0.0308247
-0.0186247
0.0309647
-0.0167675
0.0310917
-0.0149048
0.031206
-0.0130377
0.0313075
-0.0111678
0.0313963
-0.00929677
0.0314727
-0.00742705
0.0315369
-0.00556143
0.0315896
-0.00370387
0.0316314
-0.00185898
0.0316636
-3.25608e-05
0.0316887
0.00179365
0.0316902
0.00363831
0.0316676
0.00549605
0.0316378
0.00736219
0.0315984
0.00923278
0.0315483
0.011105
0.0314867
0.0129764
0.031413
0.0148463
0.0313254
0.016719
0.031213
0.0185871
0.0311016
0.020449
0.0309775
0.0223042
0.0308407
0.0241514
0.0306912
0.0259904
0.0305291
0.0278199
0.0303543
0.0296396
0.030167
0.0314484
0.029967
0.0332461
0.0297546
0.0350316
0.0295297
0.0368046
0.0292924
0.0385641
0.0290427
0.0403098
0.0287807
0.0420407
0.0285064
0.0437566
0.02822
0.0454565
0.0279214
0.04714
0.0276107
0.0488062
0.027288
0.0504549
0.0269533
0.0520851
0.0266067
0.0536965
0.0262482
0.055288
0.0258779
0.0568596
0.0254957
0.0584102
0.0251019
0.0599394
0.0246963
0.0614466
0.0242792
0.062931
0.0238503
0.0643922
0.02341
0.0658294
0.022958
0.0672431
0.0224928
0.0686336
0.0220132
0.0699986
0.0215265
0.0713371
0.0210282
0.0726484
0.0205182
0.073932
0.0199965
0.0751868
0.019463
0.0764126
0.0189175
0.0776076
0.01836
0.0787722
0.0177903
0.0799036
0.0172082
0.0810028
0.0166134
0.0820659
0.0160058
0.0830945
0.0153849
0.0840829
0.0147504
0.0850331
0.0141019
0.0859381
0.013439
0.0867991
0.0127609
0.0876078
0.0120673
0.0883632
0.0113574
0.089056
0.0106306
0.089682
0.00988617
0.0902282
0.00912367
0.0906893
0.00834245
0.0910425
0.00754262
0.0912858
0.0067247
0.0913835
0.00589066
0.0913325
0.00504371
0.0910995
0.00419669
0.0904101
0.00339802
0.0891178
0.0026436
0.0877182
0.00208142
0.0863249
0.00164409
0.0850459
0.00128368
0.0839195
0.000969853
0.0830114
0.000702454
0.0823783
0.000489521
0.0820349
0.000329269
0.000216536
0.0822896
-0.0400165
0.0267839
0.0417427
-0.0382871
0.0270528
-0.0365548
0.0273074
-0.034816
0.0275493
-0.0330691
0.0277789
-0.0313125
0.0279968
-0.0295465
0.0282031
-0.0277703
0.028398
-0.0259853
0.0285814
-0.0241913
0.0287535
-0.0223709
0.0288558
-0.0205394
0.0289929
-0.0187006
0.0291252
-0.0168547
0.0292455
-0.0150033
0.0293538
-0.0131465
0.0294501
-0.0112858
0.0295347
-0.00942133
0.0296074
-0.00755407
0.0296686
-0.0056837
0.0297182
-0.0038098
0.0297562
-0.00193005
0.0297826
-3.98626e-05
0.0297972
0.00185079
0.0297982
0.00373147
0.0297857
0.00560666
0.0297613
0.00747864
0.0297253
0.00934797
0.0296777
0.0112149
0.0296187
0.0130787
0.0295481
0.01494
0.0294632
0.016803
0.0293489
0.0186611
0.0292428
0.0205126
0.0291249
0.0223576
0.0289951
0.0241944
0.0288534
0.0260232
0.0286998
0.0278423
0.0285343
0.0296518
0.0283569
0.0314503
0.0281676
0.0332378
0.0279666
0.0350128
0.0277538
0.0367755
0.0275292
0.0385243
0.027293
0.0402594
0.0270452
0.0419793
0.0267857
0.0436842
0.0265147
0.0453725
0.0262323
0.0470444
0.0259384
0.0486985
0.0256331
0.0503349
0.0253166
0.0519521
0.0249887
0.0535502
0.0246497
0.0551278
0.0242995
0.056685
0.0239382
0.0582204
0.0235658
0.059734
0.0231824
0.0612243
0.0227881
0.0626914
0.0223828
0.064134
0.0219666
0.0655519
0.0215396
0.0669444
0.0210994
0.0683129
0.0206444
0.0696534
0.0201851
0.0709661
0.019715
0.0722491
0.0192341
0.0735027
0.0187425
0.0747243
0.0182402
0.0759146
0.017727
0.0770702
0.017203
0.0781922
0.0166682
0.0792763
0.0161225
0.0803239
0.0155659
0.0813295
0.0149983
0.0822948
0.0144198
0.0832127
0.0138303
0.0840852
0.0132298
0.0849031
0.0126184
0.0856681
0.0119962
0.0863689
0.0113635
0.0870061
0.0107205
0.0875654
0.010068
0.0880456
0.00940668
0.0884277
0.0087378
0.0887086
0.00806306
0.0888614
0.00738488
0.0888817
0.0067066
0.0887336
0.00603257
0.0884109
0.00536869
0.0878786
0.00472231
0.087174
0.00410413
0.0862954
0.00351615
0.0854074
0.00296964
0.0845788
0.00246785
0.08385
0.00201115
0.0832187
0.0015974
0.0826993
0.00122082
0.0823136
0.000873484
0.0820936
0.000548534
0.000217624
0.0820916
-0.0397273
0.0251295
0.0413794
-0.0380502
0.025375
-0.0363546
0.0256106
-0.0346421
0.0258363
-0.0329162
0.0260518
-0.0311767
0.0262571
-0.0294265
0.0264519
-0.027665
0.0266364
-0.0258949
0.0268104
-0.0241154
0.0269741
-0.0223099
0.0270496
-0.0204928
0.0271757
-0.0186684
0.0273
-0.0168359
0.0274129
-0.0149971
0.0275142
-0.0131513
0.027604
-0.0112997
0.0276822
-0.00944159
0.0277488
-0.00757754
0.0278036
-0.00570641
0.0278464
-0.00382808
0.0278769
-0.0019413
0.027895
-4.60053e-05
0.0279009
0.00184986
0.0279014
0.00373786
0.0278968
0.00561806
0.0278802
0.00749148
0.0278511
0.00935846
0.0278099
0.01122
0.0277566
0.0130756
0.0276916
0.0149268
0.0276116
0.016778
0.0274968
0.0186232
0.0273971
0.0204611
0.0272861
0.022292
0.0271638
0.0241143
0.0270302
0.0259283
0.0268854
0.0277323
0.0267294
0.0295268
0.0265622
0.0313098
0.0263838
0.0330818
0.0261944
0.034841
0.0259938
0.0365878
0.0257823
0.0383202
0.0255598
0.0400389
0.0253263
0.0417419
0.025082
0.0434296
0.0248268
0.0451002
0.0245609
0.0467541
0.0242843
0.0483895
0.023997
0.0500068
0.0236992
0.051604
0.0233907
0.0531817
0.0230718
0.0547379
0.0227425
0.056273
0.0224028
0.0577852
0.0220529
0.0592746
0.0216927
0.0607396
0.0213223
0.0621803
0.0209418
0.063595
0.0205513
0.0649837
0.0201507
0.0663454
0.0197371
0.0676814
0.0193083
0.0689876
0.0188784
0.0702642
0.0184387
0.0715087
0.0179893
0.0727216
0.0175302
0.0738997
0.0170615
0.0750441
0.0165834
0.0761506
0.0160959
0.0772208
0.015599
0.0782495
0.0150929
0.0792388
0.0145778
0.0801824
0.0140537
0.0810827
0.0135209
0.081932
0.0129796
0.0827334
0.01243
0.0834776
0.0118725
0.0841681
0.0113076
0.0847938
0.0107356
0.085359
0.0101574
0.085851
0.00957361
0.0862747
0.0089853
0.086616
0.00839363
0.0868815
0.00780009
0.0870565
0.00720638
0.087151
0.00661469
0.0871521
0.0060274
0.0870758
0.00544756
0.0869155
0.00487833
0.0866979
0.00432375
0.0864227
0.00378724
0.0861197
0.00327343
0.0857989
0.00278505
0.0854877
0.00232185
0.085202
0.00188032
0.0849667
0.00145573
0.084796
0.001043
0.0847036
0.000640683
0.000230271
0.0846901
-0.0393422
0.0234935
0.0409771
-0.0376873
0.0237207
-0.0360155
0.0239382
-0.0343254
0.0241469
-0.0326207
0.0243467
-0.0309002
0.0245375
-0.0291676
0.0247193
-0.027422
0.0248919
-0.0256668
0.0250553
-0.023901
0.0252094
-0.0221087
0.0252575
-0.0203038
0.025372
-0.0184913
0.0254877
-0.01667
0.0255927
-0.0148425
0.0256868
-0.0130075
0.0257701
-0.0111675
0.0258424
-0.00932151
0.0259038
-0.00747167
0.0259541
-0.00561783
0.0259933
-0.00376194
0.0260214
-0.00190495
0.0260387
-4.94425e-05
0.026046
0.00180639
0.0260462
0.00366428
0.0260396
0.00552192
0.0260231
0.00737812
0.0259957
0.00923117
0.0259572
0.0110809
0.0259077
0.0129256
0.0258471
0.0147665
0.0257715
0.0166075
0.025656
0.0184427
0.0255627
0.0202703
0.0254587
0.0220909
0.0253441
0.0239024
0.0252189
0.0257056
0.0250831
0.0274984
0.0249367
0.0292814
0.0247799
0.0310527
0.0246127
0.0328127
0.0244351
0.0345596
0.0242471
0.0362938
0.0240488
0.0380133
0.0238403
0.0397188
0.0236216
0.0414081
0.0233927
0.0430819
0.0231538
0.0447381
0.0229048
0.0463773
0.0226459
0.0479974
0.022377
0.0495991
0.0220983
0.0511801
0.0218098
0.0527411
0.0215116
0.0542799
0.0212037
0.0557972
0.0208863
0.0572908
0.0205593
0.0587613
0.020223
0.0602062
0.0198772
0.0616266
0.0195222
0.0630196
0.019158
0.0643863
0.0187847
0.0657247
0.0183984
0.0670371
0.0179966
0.0683182
0.0175967
0.0695693
0.0171881
0.0707869
0.0167708
0.0719725
0.0163451
0.0731219
0.0159109
0.0742373
0.0154685
0.0753136
0.015018
0.0763535
0.0145596
0.0773512
0.0140935
0.0783098
0.0136198
0.0792226
0.0131389
0.0800932
0.0126511
0.0809139
0.0121566
0.0816891
0.0116558
0.0824097
0.0111492
0.0830812
0.0106373
0.0836933
0.0101206
0.0842522
0.00959987
0.0847468
0.00907583
0.0851843
0.00854938
0.0855531
0.00802154
0.0858614
0.00749349
0.0860979
0.00696651
0.0862724
0.00644207
0.0863748
0.00592171
0.0864171
0.00540713
0.0863923
0.00489994
0.086316
0.00440178
0.0861864
0.00391388
0.0860238
0.00343706
0.0858349
0.00297132
0.0856407
0.00251601
0.0854492
0.00206981
0.0852736
0.00163134
0.0851177
0.00119823
0.0849876
0.00077076
0.000331241
0.0848861
-0.0390783
0.0218616
0.0407086
-0.0374285
0.0220713
-0.0357639
0.0222726
-0.0340826
0.0224659
-0.0323881
0.0226513
-0.0306787
0.0228286
-0.028958
0.0229977
-0.0272244
0.0231587
-0.0254814
0.0233114
-0.0237274
0.0234558
-0.0219473
0.0234765
-0.0201542
0.0235792
-0.0183536
0.0236863
-0.0165439
0.0237834
-0.0147284
0.0238705
-0.0129055
0.0239476
-0.0110784
0.0240147
-0.00924593
0.0240717
-0.00741094
0.0241187
-0.00557298
0.0241557
-0.00373449
0.0241828
-0.00189565
0.0242002
-5.84109e-05
0.0242088
0.00177934
0.0242088
0.00361901
0.0242003
0.00545956
0.0241829
0.00729996
0.0241558
0.00913871
0.0241188
0.0109752
0.0240717
0.0128079
0.0240147
0.0146374
0.0239427
0.0164675
0.0238261
0.018292
0.0237389
0.0201092
0.0236418
0.0219191
0.0235349
0.02372
0.0234181
0.0255123
0.0232915
0.0272941
0.0231551
0.0290657
0.023009
0.0308254
0.0228533
0.0325734
0.0226878
0.034308
0.0225128
0.0360294
0.0223282
0.0377358
0.022134
0.0394277
0.0219305
0.0411031
0.0217175
0.0427625
0.0214952
0.0444039
0.0212637
0.0460277
0.0210229
0.047632
0.0207729
0.0492173
0.0205139
0.0507814
0.0202459
0.052325
0.0199689
0.0538458
0.0196831
0.0553446
0.0193885
0.0568188
0.0190852
0.0582694
0.0187733
0.0596938
0.0184529
0.0610929
0.018124
0.062464
0.0177869
0.0638081
0.0174416
0.065123
0.0170834
0.0664113
0.0167093
0.0676675
0.0163403
0.0688933
0.0159636
0.0700845
0.0155792
0.0712435
0.0151874
0.0723655
0.0147884
0.0734533
0.0143822
0.0745014
0.0139691
0.0755133
0.0135493
0.0764827
0.013123
0.0774136
0.0126906
0.078299
0.0122522
0.0791436
0.0118083
0.0799396
0.0113591
0.0806923
0.010905
0.0813932
0.0104465
0.0820486
0.00998395
0.0826491
0.00951795
0.083202
0.00904906
0.0836976
0.00857784
0.0841441
0.008105
0.0845319
0.0076312
0.0848702
0.00715724
0.0851502
0.00668385
0.0853824
0.00621188
0.0855593
0.0057421
0.085693
0.00527532
0.085778
0.00481224
0.0858277
0.00435352
0.0858393
0.00389964
0.0858261
0.00345099
0.0857873
0.00300771
0.0857333
0.00256978
0.0856644
0.00213687
0.0855872
0.00170849
0.0855013
0.00128342
0.0854091
0.000862953
0.00043363
0.0853061
-0.0387725
0.0202539
0.0403799
-0.0371441
0.0204444
-0.0354995
0.020628
-0.033837
0.020805
-0.0321605
0.0209751
-0.0304685
0.0211382
-0.0287646
0.0212944
-0.0270476
0.0214434
-0.0253208
0.0215852
-0.0235828
0.0217198
-0.0218187
0.0217132
-0.0200414
0.021804
-0.0182564
0.0219022
-0.0164622
0.0219913
-0.0146617
0.0220712
-0.0128535
0.0221418
-0.0110404
0.0222031
-0.00922133
0.0222552
-0.0073987
0.022298
-0.00557167
0.0223315
-0.00374232
0.0223558
-0.00191018
0.0223712
-7.68419e-05
0.0223783
0.00175721
0.0223778
0.00359029
0.0223699
0.00542216
0.0223537
0.00725194
0.0223286
0.00907901
0.0222942
0.0109027
0.0222505
0.0127222
0.0221975
0.0145376
0.0221295
0.0163537
0.0220121
0.0181634
0.0219312
0.0199659
0.0218412
0.0217606
0.0217421
0.0235466
0.0216339
0.0253233
0.0215166
0.0270896
0.0213903
0.0288453
0.0212551
0.030589
0.0211109
0.0323206
0.0209579
0.0340387
0.0207959
0.0357432
0.0206252
0.0374327
0.0204458
0.039107
0.0202576
0.0407648
0.0200609
0.042406
0.0198555
0.044029
0.0196417
0.045634
0.0194194
0.0472193
0.0191887
0.048785
0.0189497
0.0503293
0.0187025
0.0518526
0.0184472
0.0533528
0.0181838
0.0548306
0.0179124
0.0562833
0.0176331
0.0577123
0.0173461
0.0591144
0.0170513
0.0604912
0.016749
0.0618392
0.0164392
0.0631606
0.0161221
0.0644517
0.0157922
0.0657169
0.015446
0.0669489
0.0151079
0.0681512
0.014763
0.0693184
0.0144114
0.070454
0.0140533
0.0715524
0.0136889
0.0726176
0.0133183
0.0736435
0.0129419
0.0746343
0.0125597
0.0755837
0.0121721
0.0764963
0.0117792
0.0773653
0.0113814
0.0781959
0.010979
0.0789808
0.0105722
0.0797258
0.0101614
0.0804232
0.00974694
0.0810794
0.00932923
0.0816865
0.00890865
0.0822515
0.00848564
0.0827665
0.00806063
0.0832391
0.00763411
0.0836616
0.00720653
0.0840423
0.00677842
0.0843738
0.00635024
0.0846651
0.00592253
0.0849095
0.00549573
0.0851165
0.00507032
0.0852803
0.00464669
0.0854103
0.00422521
0.0855022
0.00380616
0.0855646
0.00338973
0.0855949
0.00297601
0.0856001
0.00256497
0.0855794
0.00215643
0.0855381
0.00175026
0.0854755
0.00134577
0.0853943
0.000944499
0.000534935
0.0852925
-0.0384209
0.0186665
0.040008
-0.0368135
0.018838
-0.0351894
0.0190037
-0.0335474
0.0191638
-0.0318909
0.0193182
-0.0302187
0.0194668
-0.0285341
0.0196095
-0.026836
0.0197461
-0.0251275
0.0198766
-0.0234077
0.0200008
-0.0216615
0.0199668
-0.019902
0.0200454
-0.0181343
0.0201346
-0.0163572
0.0202152
-0.0145734
0.0202874
-0.0127816
0.0203511
-0.0109844
0.0204063
-0.00918083
0.0204528
-0.00737315
0.0204908
-0.00556056
0.0205203
-0.00374518
0.0205412
-0.00192653
0.020554
-0.000106466
0.0205592
0.00171456
0.0205582
0.00353424
0.0205512
0.00535257
0.0205367
0.00716814
0.0205139
0.00898083
0.0204827
0.0107894
0.0204428
0.0125937
0.0203943
0.0143933
0.0203308
0.0161934
0.020213
0.0179867
0.0201388
0.0197729
0.0200561
0.0215507
0.019965
0.02332
0.0198656
0.0250795
0.0197578
0.0268289
0.0196418
0.0285671
0.0195176
0.0302936
0.0193852
0.0320076
0.0192447
0.0337082
0.0190961
0.0353948
0.0189394
0.0370664
0.0187748
0.0387227
0.0186023
0.0403623
0.0184218
0.0419851
0.0182336
0.0435896
0.0180376
0.045176
0.017834
0.0467423
0.0176228
0.048289
0.017404
0.0498141
0.0171778
0.051318
0.0169442
0.0527987
0.0167034
0.0542568
0.0164554
0.0556898
0.0162003
0.0570988
0.0159382
0.058481
0.0156692
0.0598379
0.0153935
0.0611661
0.0151111
0.0624676
0.0148222
0.0637393
0.0145206
0.0649852
0.0142021
0.0661984
0.0138947
0.0673822
0.0135813
0.0685314
0.013262
0.0696499
0.0129371
0.0707319
0.0126066
0.0717817
0.0122707
0.0727932
0.0119298
0.0737712
0.0115839
0.0747091
0.0112333
0.0756122
0.0108782
0.0764736
0.0105189
0.0772991
0.0101556
0.0780814
0.00978855
0.0788267
0.00941809
0.0795277
0.00904447
0.0801909
0.00866801
0.0808089
0.00828899
0.0813886
0.00790776
0.0819229
0.00752461
0.0824189
0.00713991
0.0828696
0.00675396
0.0832826
0.00636711
0.0836512
0.00597967
0.0839833
0.00559198
0.0842727
0.0052043
0.0845274
0.00481694
0.084742
0.00443013
0.084924
0.00404411
0.0850691
0.00365905
0.085184
0.00327511
0.0852658
0.00289239
0.0853195
0.00251096
0.0853436
0.00213083
0.0853419
0.00175206
0.0853127
0.00137432
0.0852583
0.000999152
0.000616756
0.0851758
-0.0380666
0.0170976
0.0396351
-0.0364779
0.01725
-0.0348722
0.0173978
-0.0332488
0.017541
-0.0316106
0.0176797
-0.0299568
0.0178135
-0.0282901
0.0179426
-0.0266102
0.0180666
-0.0249193
0.0181855
-0.0232174
0.0182992
-0.0214886
0.0182377
-0.019747
0.0183041
-0.0179965
0.0183839
-0.0162371
0.018456
-0.0144704
0.0185204
-0.0126962
0.0185772
-0.0109164
0.0186261
-0.00913057
0.0186673
-0.0073407
0.0187007
-0.00554648
0.0187263
-0.00374986
0.0187443
-0.0019506
0.0187549
-0.000150593
0.0187588
0.00165052
0.0187574
0.00345088
0.0187505
0.00525071
0.0187371
0.00704815
0.0187162
0.00884336
0.0186877
0.0106346
0.0186513
0.0124219
0.0186072
0.0142045
0.018548
0.0159879
0.0184298
0.0177643
0.0183622
0.0195338
0.0182868
0.0212948
0.0182039
0.0230472
0.0181133
0.0247898
0.0180152
0.0265221
0.0179096
0.0282432
0.0177965
0.0299525
0.017676
0.0316491
0.0175481
0.0333322
0.017413
0.0350014
0.0172705
0.0366553
0.0171208
0.0382938
0.016964
0.0399155
0.0168
0.0415204
0.016629
0.0431067
0.0164511
0.044675
0.0162662
0.046223
0.0160745
0.0477515
0.015876
0.049258
0.0156708
0.0507437
0.0154591
0.0522058
0.0152408
0.0536457
0.0150161
0.0550602
0.0147851
0.0564512
0.0145479
0.0578151
0.0143046
0.0591541
0.0140552
0.0604645
0.0137999
0.0617486
0.0135389
0.0630032
0.0132651
0.0642324
0.0129739
0.0654294
0.0126966
0.0665978
0.0124141
0.0677323
0.0121264
0.0688368
0.0118337
0.0699059
0.0115361
0.070944
0.0112339
0.0719451
0.0109272
0.072914
0.0106163
0.0738447
0.0103011
0.074742
0.00998211
0.0756
0.00965936
0.0764238
0.00933311
0.0772073
0.00900356
0.0779558
0.00867095
0.0786632
0.00833548
0.0793352
0.00799741
0.0799656
0.00765696
0.0805604
0.00731438
0.0811135
0.00696989
0.081631
0.00662375
0.0821073
0.00627617
0.0825483
0.00592743
0.0829487
0.00557772
0.0833147
0.00522728
0.0836413
0.00487632
0.0839344
0.00452504
0.0841896
0.00417363
0.0844125
0.00382226
0.0845993
0.00347109
0.0847549
0.00312025
0.0848765
0.00276986
0.0849678
0.00242001
0.0850271
0.00207077
0.0850577
0.00172225
0.0850577
0.00137427
0.0850295
0.0010281
0.000676037
0.0849696
-0.0377464
0.0155444
0.0392992
-0.0361737
0.0156781
-0.0345844
0.0158082
-0.0329778
0.0159349
-0.0313563
0.0160579
-0.0297195
0.0161772
-0.0280699
0.0162927
-0.0264072
0.0164042
-0.0247334
0.0165116
-0.0230489
0.0166149
-0.0213376
0.0165263
-0.0196138
0.0165804
-0.017881
0.016651
-0.0161395
0.0167146
-0.0143906
0.0167714
-0.0126346
0.0168212
-0.0108727
0.0168641
-0.00910541
0.0169
-0.00733389
0.0169289
-0.00555846
0.0169509
-0.00378063
0.0169662
-0.00200046
0.0169749
-0.000219616
0.0169776
0.00156232
0.0169756
0.00334359
0.0169689
0.00512456
0.0169563
0.00690318
0.0169372
0.00867982
0.0169112
0.0104525
0.0168783
0.0122215
0.0168384
0.0139857
0.0167835
0.0157508
0.0166649
0.017509
0.0166038
0.0192601
0.0165358
0.0210029
0.016461
0.0227368
0.0163794
0.0244612
0.0162909
0.026175
0.0161957
0.0278777
0.0160939
0.0295683
0.0159853
0.0312465
0.0158702
0.0329108
0.0157484
0.0345614
0.0156202
0.0361964
0.0154855
0.0378164
0.0153444
0.0394191
0.0151969
0.0410054
0.0150432
0.0425728
0.0148832
0.0441224
0.014717
0.0456516
0.0145448
0.0471616
0.0143665
0.0486495
0.0141823
0.0501169
0.0139923
0.0515606
0.0137964
0.0529826
0.0135949
0.0543792
0.0133877
0.0557528
0.013175
0.0570995
0.012957
0.0584218
0.0127336
0.0597158
0.012505
0.0609841
0.0122713
0.0622234
0.0120248
0.063438
0.0117601
0.0646212
0.0115122
0.0657764
0.0112597
0.066899
0.0110026
0.0679923
0.0107412
0.0690517
0.0104755
0.0700809
0.0102057
0.0710749
0.00993193
0.0720377
0.00965437
0.0729643
0.00937317
0.073859
0.0090885
0.0747164
0.00880052
0.0755412
0.00850941
0.076328
0.00821532
0.0770816
0.00791846
0.0777967
0.00761898
0.0784782
0.00731708
0.0791208
0.00701293
0.0797296
0.00670673
0.0802996
0.00639864
0.0808356
0.00608886
0.0813329
0.00577756
0.0817965
0.00546493
0.0822219
0.00515112
0.082614
0.00483633
0.0829685
0.00452069
0.0832903
0.00420437
0.0835754
0.00388753
0.0838283
0.00357029
0.0840457
0.00325279
0.0842315
0.00293515
0.0843831
0.00261748
0.0845037
0.0022999
0.0845914
0.00198249
0.084649
0.00166538
0.0846748
0.00134849
0.0846709
0.00103284
0.000712242
0.0846341
-0.0374078
0.0140112
0.0389405
-0.035855
0.0141261
-0.0342858
0.0142385
-0.0326988
0.0143485
-0.0310971
0.0144559
-0.02948
0.0145606
-0.0278501
0.0146625
-0.0262071
0.0147615
-0.024553
0.0148575
-0.0228882
0.0149503
-0.0211966
0.0148347
-0.0194927
0.0148766
-0.0177797
0.014938
-0.0160583
0.0149932
-0.0143291
0.0150424
-0.0125933
0.0150854
-0.0108513
0.0151222
-0.00910428
0.0151528
-0.00735275
0.0151773
-0.00559768
0.0151958
-0.00383994
0.0152082
-0.00208017
0.015215
-0.000319474
0.0152166
0.00144211
0.0152139
0.00320337
0.0152072
0.00496415
0.0151955
0.00672286
0.015178
0.00847939
0.0151546
0.0102323
0.0151251
0.0119812
0.0150894
0.0137256
0.0150387
0.0154707
0.0149196
0.0172092
0.0148651
0.0189402
0.0148045
0.0206634
0.0147378
0.0223773
0.014665
0.0240821
0.0145862
0.025776
0.0145014
0.0274593
0.0144106
0.02913
0.014314
0.0307889
0.0142115
0.0324336
0.0141032
0.034065
0.0139891
0.0356805
0.0138692
0.0372815
0.0137437
0.038865
0.0136126
0.0404326
0.013476
0.0419811
0.0133338
0.0435124
0.0131862
0.0450232
0.0130332
0.0465152
0.0128749
0.0479853
0.0127113
0.0494354
0.0125426
0.0508619
0.0123688
0.0522672
0.01219
0.0536475
0.0120063
0.0550052
0.0118178
0.0563366
0.0116245
0.0576442
0.0114265
0.058924
0.011224
0.0601788
0.011017
0.0614055
0.010797
0.0626081
0.010558
0.0637804
0.0103387
0.0649255
0.0101153
0.066039
0.00988787
0.0671243
0.0096566
0.068177
0.00942158
0.0692004
0.00918294
0.0701903
0.00894081
0.0711501
0.00869531
0.0720754
0.00844658
0.0729699
0.00819475
0.0738293
0.00793996
0.0746572
0.00768235
0.0754493
0.00742204
0.0762094
0.0071592
0.0769333
0.00689395
0.0776248
0.00662644
0.0782798
0.00635681
0.0789023
0.00608521
0.0794881
0.00581178
0.0800412
0.00553666
0.0805578
0.00525998
0.0810418
0.0049819
0.0814893
0.00470254
0.0819046
0.00442203
0.0822838
0.00414052
0.082631
0.00385811
0.0829427
0.00357494
0.0832227
0.00329113
0.0834678
0.00300678
0.0836815
0.00272202
0.0838613
0.00243694
0.08401
0.00215164
0.0841256
0.00186622
0.0842109
0.0015808
0.0842639
0.00129534
0.084287
0.00101058
0.000722316
0.0842762
-0.0372166
0.0124854
0.0387418
-0.0356724
0.0125826
-0.034113
0.0126785
-0.0325368
0.0127729
-0.0309471
0.0128657
-0.0293425
0.0129567
-0.0277262
0.0130458
-0.0260972
0.0131331
-0.0244582
0.0132182
-0.0228088
0.0133013
-0.0211337
0.0131594
-0.0194464
0.0131897
-0.0177508
0.0132423
-0.0160469
0.0132896
-0.014336
0.0133315
-0.0126185
0.013368
-0.0108954
0.0133992
-0.00916742
0.013425
-0.00743532
0.0134454
-0.00570002
0.0134606
-0.00396216
0.0134706
-0.00222271
0.0134757
-0.000482212
0.0134763
0.00125859
0.0134732
0.00299933
0.0134667
0.0047389
0.013456
0.00647686
0.0134403
0.00821196
0.0134195
0.009944
0.0133934
0.0116714
0.0133619
0.0133951
0.0133154
0.0151187
0.0131958
0.0168365
0.0131478
0.0185462
0.0130944
0.0202488
0.0130357
0.0219416
0.0129718
0.0236259
0.0129025
0.0252987
0.012828
0.0269618
0.0127483
0.0286118
0.0126634
0.0302505
0.0125734
0.0318747
0.0124783
0.0334863
0.0123782
0.0350818
0.012273
0.0366633
0.0121629
0.0382272
0.012048
0.0397757
0.0119281
0.0413052
0.0118035
0.0428179
0.0116741
0.0443102
0.0115401
0.0457843
0.0114014
0.0472367
0.0112581
0.0486695
0.0111104
0.0500793
0.0109583
0.0514682
0.0108018
0.0528327
0.010641
0.0541751
0.010476
0.0554919
0.0103069
0.0567854
0.0101337
0.058052
0.00995658
0.0592941
0.00977557
0.060509
0.00958118
0.0617005
0.00936711
0.0628629
0.00917545
0.0639986
0.0089802
0.0651041
0.00878147
0.0661821
0.00857934
0.0672288
0.00837392
0.0682472
0.00816532
0.0692335
0.00795363
0.0701906
0.00773896
0.0711148
0.00752143
0.0720093
0.00730114
0.0728701
0.00707819
0.0737006
0.00685271
0.0744969
0.0066248
0.0752624
0.00639458
0.0759933
0.00616215
0.076693
0.00592764
0.0773578
0.00569115
0.0779911
0.0054528
0.0785893
0.00521269
0.079156
0.00497095
0.0796874
0.00472767
0.0801873
0.00448298
0.080652
0.00423698
0.0810852
0.00398977
0.0814834
0.00374146
0.0818502
0.00349216
0.0821823
0.00324196
0.0824833
0.00299096
0.08275
0.00273925
0.0829856
0.00248694
0.0831877
0.0022341
0.0833589
0.00198084
0.0834972
0.00172723
0.0836054
0.00147338
0.0836812
0.00121928
0.0837271
0.000965451
0.000708591
0.0837401
-0.0369013
0.0109839
0.0384026
-0.0353815
0.0110634
-0.0338457
0.0111423
-0.032293
0.0112208
-0.0307264
0.0112987
-0.029145
0.0113758
-0.0275518
0.0114522
-0.0259459
0.0115277
-0.0243303
0.0116022
-0.0227041
0.0116756
-0.021052
0.011507
-0.0193875
0.0115257
-0.0177151
0.0115697
-0.0160343
0.0116091
-0.0143469
0.011644
-0.0126529
0.0116743
-0.0109538
0.0117
-0.00924973
0.0117211
-0.00754194
0.0117376
-0.00583113
0.0117497
-0.00411787
0.0117575
-0.00240341
0.0117611
-0.000687761
0.0117609
0.00102783
0.0117573
0.00274429
0.0117506
0.00445943
0.0117404
0.00617405
0.0117262
0.00788538
0.0117076
0.00959474
0.0116846
0.0112989
0.011657
0.0130004
0.0116145
0.0147015
0.0114939
0.0163977
0.0114522
0.0180853
0.0114059
0.0197666
0.0113551
0.0214377
0.0112997
0.023101
0.0112397
0.0247527
0.0111753
0.0263951
0.0111064
0.0280243
0.0110331
0.0296429
0.0109554
0.0312468
0.0108733
0.0328386
0.0107869
0.0344145
0.0106962
0.0359767
0.0106012
0.0375216
0.010502
0.0390514
0.0103987
0.0405627
0.0102913
0.0420574
0.0101798
0.0435323
0.0100642
0.0449893
0.00994474
0.0464252
0.00982134
0.0478419
0.00969409
0.0492362
0.00956304
0.0506101
0.00942825
0.0519604
0.00928979
0.053289
0.00914772
0.0545929
0.0090021
0.055874
0.00885301
0.0571292
0.00870051
0.0583605
0.00854467
0.0595656
0.00837514
0.0607482
0.00818504
0.0619026
0.00802013
0.0630312
0.00785211
0.0641307
0.00768106
0.0652035
0.00750705
0.0662464
0.00733018
0.0672617
0.00715052
0.0682463
0.00696816
0.0692027
0.00678318
0.0701276
0.00659568
0.0710236
0.00640574
0.0718875
0.00621345
0.072722
0.0060189
0.0735237
0.00582218
0.0742957
0.00562338
0.0750344
0.00542258
0.0757429
0.00521988
0.0764179
0.00501538
0.0770623
0.00480915
0.0776729
0.00460129
0.0782527
0.00439189
0.0787986
0.00418104
0.0793135
0.00396883
0.0797943
0.00375535
0.0802442
0.00354068
0.08066
0.00332492
0.0810448
0.00310814
0.0813955
0.00289044
0.0817152
0.00267189
0.0820011
0.00245259
0.082256
0.0022326
0.0824773
0.00201201
0.0826677
0.0017909
0.0828249
0.00156933
0.0829516
0.00134741
0.0830454
0.00112514
0.0831089
0.000902853
0.000679096
0.0831376
-0.037134
0.00947442
0.0386433
-0.0356077
0.00953742
-0.0340671
0.00960159
-0.0325121
0.00966612
-0.0309447
0.00973093
-0.0293645
0.00979595
-0.0277736
0.0098611
-0.026172
0.00992632
-0.0245616
0.00999153
-0.0229424
0.0100567
-0.021299
0.0098633
-0.0196445
0.00987152
-0.0179831
0.00990791
-0.0163141
0.00994045
-0.0146395
0.00996913
-0.0129589
0.00999395
-0.0112739
0.0100149
-0.0095846
0.010032
-0.0078922
0.0100453
-0.00619726
0.0100549
-0.00450025
0.0100608
-0.00280245
0.0100632
-0.00110347
0.0100624
0.000594802
0.0100588
0.00229323
0.0100529
0.0039889
0.0100444
0.00568351
0.0100324
0.00737384
0.0100168
0.00906197
0.00999737
0.0107443
0.00997412
0.0124239
0.00993582
0.0141026
0.00981446
0.0157766
0.00977919
0.0174418
0.00974003
0.0191008
0.00969702
0.0207496
0.00965018
0.0223907
0.00959952
0.0240202
0.00954507
0.0256406
0.00948687
0.0272481
0.00942493
0.028845
0.00935928
0.0304277
0.00928996
0.0319983
0.00921699
0.0335534
0.00914041
0.035095
0.00906026
0.03662
0.00897656
0.0381299
0.00888936
0.0396219
0.00879869
0.0410977
0.0087046
0.0425542
0.00860713
0.0439932
0.00850633
0.0454118
0.00840223
0.0468116
0.00829488
0.0481897
0.00818433
0.049548
0.00807063
0.0508833
0.00795384
0.0521977
0.00783399
0.053488
0.00771116
0.0547563
0.00758539
0.0559994
0.00745673
0.0572196
0.00732525
0.0584144
0.00717969
0.0595875
0.0070126
0.0607334
0.00687357
0.0618544
0.00673188
0.0629471
0.00658759
0.0640142
0.00644077
0.0650522
0.00629148
0.0660637
0.00613979
0.0670454
0.00598576
0.0679999
0.00582948
0.0689239
0.005671
0.06982
0.0055104
0.070685
0.00534775
0.0715216
0.00518312
0.0723265
0.00501657
0.0731026
0.00484819
0.0738464
0.00467804
0.0745609
0.00450619
0.0752429
0.00433272
0.0758952
0.0041577
0.0765146
0.0039812
0.077104
0.00380329
0.0776603
0.00362405
0.0781864
0.00344354
0.0786793
0.00326184
0.0791417
0.00307903
0.0795708
0.00289516
0.0799694
0.00271032
0.0803346
0.00252457
0.0806691
0.00233798
0.0809704
0.00215063
0.081241
0.00196257
0.0814785
0.00177387
0.0816852
0.00158461
0.0818591
0.00139484
0.0820027
0.00120464
0.0821134
0.00101404
0.0821939
0.000823246
0.000630923
0.0822413
-0.0367012
0.00800186
0.0381737
-0.0352126
0.00804928
-0.0337086
0.00809776
-0.0321899
0.00814775
-0.0306579
0.00819915
-0.0291136
0.00825188
-0.0275581
0.00830589
-0.0259927
0.00836111
-0.0244183
0.00841744
-0.0228362
0.00847478
-0.021226
0.00825333
-0.019605
0.00825071
-0.0179765
0.00827963
-0.0163413
0.00830541
-0.0147
0.00832805
-0.0130536
0.00834756
-0.0114024
0.00836395
-0.00974772
0.00837723
-0.00808964
0.00838743
-0.00642963
0.00839461
-0.00476742
0.00839883
-0.00310491
0.00840023
-0.00144114
0.00839897