/*--------------------------------*- C++ -*----------------------------------*\
  =========                 |
  \\      /  F ield         | OpenFOAM: The Open Source CFD Toolbox
   \\    /   O peration     | Website:  https://openfoam.org
    \\  /    A nd           | Version:  6.0
     \\/     M anipulation  |
\*---------------------------------------------------------------------------*/
FoamFile
{
    version     2.0;
    format      ascii;
    class       volVectorField;
    location    "100";
    object      U;
}
// * * * * * * * * * * * * * * * * * * * * * * * * * * * * * * * * * * * * * //

dimensions      [0 1 -1 0 0 0 0];

internalField   nonuniform List<vector> 
9800
(
(23.9566 4.0591 -5.1579e-16)
(23.9827 4.03344 -3.32551e-16)
(24.0033 4.00456 9.1618e-16)
(24.0207 3.97331 3.90212e-16)
(24.0359 3.94098 -1.12897e-15)
(24.0498 3.9083 6.8841e-16)
(24.0626 3.87565 -2.82555e-16)
(24.0749 3.84328 -3.00377e-16)
(24.0866 3.81124 5.79885e-16)
(24.0979 3.77952 -3.90851e-16)
(24.1091 3.74836 1.85736e-16)
(24.1202 3.71756 2.48898e-17)
(24.1312 3.6872 -2.41612e-16)
(24.1421 3.65724 1.70826e-16)
(24.1529 3.6277 -6.5135e-17)
(24.1637 3.59858 -2.73291e-17)
(24.1743 3.56989 -4.6275e-17)
(24.1846 3.54169 1.10576e-16)
(24.1947 3.51406 -2.09885e-16)
(24.2041 3.48718 -4.98178e-17)
(24.2127 3.46139 3.2783e-16)
(24.2197 3.43751 9.65831e-17)
(24.2245 3.41696 -7.5066e-17)
(24.2272 3.39847 -5.73428e-17)
(24.2284 3.37748 -4.24445e-16)
(24.2283 3.35267 6.07039e-16)
(24.2274 3.3256 3.46449e-17)
(24.2259 3.29721 -8.67443e-16)
(24.2242 3.26797 -4.11414e-17)
(24.2223 3.23809 8.46467e-16)
(24.2204 3.20764 -2.43374e-16)
(24.2187 3.17689 -3.57515e-16)
(24.217 3.14571 3.84969e-16)
(24.2156 3.11413 3.0668e-16)
(24.2144 3.08216 4.62919e-16)
(24.2134 3.04981 -6.21014e-16)
(24.2126 3.01708 9.08797e-17)
(24.2121 2.98396 -2.93816e-16)
(24.2118 2.95044 -1.24543e-16)
(24.2117 2.9165 -3.17158e-16)
(24.2119 2.88211 3.88135e-16)
(24.2124 2.84728 2.93314e-16)
(24.213 2.81196 2.70155e-16)
(24.214 2.77613 3.43127e-16)
(24.2151 2.73977 -1.75772e-15)
(24.2165 2.70285 4.7677e-16)
(24.2181 2.66534 1.23592e-15)
(24.2199 2.6272 -6.91975e-16)
(24.222 2.5884 -4.85731e-16)
(24.2243 2.5489 6.01106e-16)
(24.2268 2.50866 -1.63628e-15)
(24.2296 2.46763 -1.10294e-16)
(24.2326 2.42576 1.34275e-15)
(24.2357 2.38301 -4.03052e-17)
(24.2392 2.33931 -7.40692e-17)
(24.2428 2.2946 -1.08163e-15)
(24.2466 2.24882 1.74434e-15)
(24.2507 2.20189 -1.00331e-15)
(24.255 2.15374 -1.27708e-16)
(24.2594 2.10428 7.07381e-16)
(24.2641 2.0534 5.92838e-16)
(24.2691 2.00101 -1.16474e-15)
(24.2742 1.94704 5.85391e-16)
(24.2795 1.89131 -7.35421e-16)
(24.285 1.83366 7.02662e-16)
(24.2906 1.77395 -5.3737e-16)
(24.2964 1.712 1.11694e-15)
(24.3024 1.64761 -1.14869e-15)
(24.3085 1.58054 8.65084e-16)
(24.3147 1.51054 -1.32425e-15)
(24.3209 1.4373 5.97211e-16)
(24.3272 1.36049 2.85274e-17)
(24.3333 1.27968 1.09819e-15)
(24.3394 1.19442 -1.37602e-15)
(24.3451 1.10414 2.73609e-16)
(24.3504 1.00821 1.08136e-16)
(24.355 0.905803 7.60554e-17)
(24.3585 0.795982 -1.57468e-16)
(24.3604 0.67754 -5.03371e-17)
(24.3598 0.54902 -3.44864e-16)
(24.3557 0.408546 2.00739e-16)
(24.3461 0.253701 -2.0776e-16)
(24.3283 0.0813336 4.30414e-16)
(24.2978 -0.112851 -7.06373e-17)
(24.2479 -0.334781 3.69497e-16)
(24.1679 -0.592926 -1.08705e-16)
(24.0405 -0.900025 -3.06829e-16)
(23.84 -1.27512 -2.00216e-16)
(23.5192 -1.75405 6.3569e-16)
(23.0145 -2.35195 5.65829e-18)
(22.2819 -3.2193 -3.83109e-16)
(21.4235 -3.97299 4.08227e-16)
(20.7041 -3.69429 -5.75855e-16)
(20.2966 -3.47204 8.17597e-16)
(19.9534 -3.18202 -1.1938e-16)
(19.5738 -2.87508 -1.49709e-16)
(19.1369 -2.51818 -4.41607e-16)
(18.6776 -2.09032 6.68273e-16)
(18.207 -1.66011 -1.8797e-16)
(17.7467 -0.796871 1.4773e-17)
(22.9009 4.27095 4.70633e-16)
(22.9077 4.2307 3.17825e-16)
(22.9142 4.18684 -2.83722e-16)
(22.9212 4.14147 1.98844e-16)
(22.9281 4.09469 -5.77018e-16)
(22.9347 4.04695 2.80098e-16)
(22.9409 3.99856 -5.37016e-17)
(22.9467 3.94978 6.57673e-16)
(22.9521 3.90076 -1.20364e-15)
(22.9569 3.85154 1.73171e-16)
(22.9613 3.80224 8.17606e-17)
(22.9656 3.75294 2.07632e-16)
(22.9696 3.70379 -3.12174e-17)
(22.9734 3.65478 -1.92649e-16)
(22.9769 3.60598 1.99878e-16)
(22.9802 3.55747 7.88683e-18)
(22.9832 3.5094 -1.03165e-16)
(22.9859 3.46195 1.87568e-16)
(22.9883 3.41543 -4.99737e-16)
(22.9902 3.37026 5.60362e-16)
(22.9917 3.32698 -2.22808e-16)
(22.9929 3.28657 -8.55038e-16)
(22.9944 3.25143 3.40567e-17)
(22.9988 3.22035 -1.0579e-16)
(23.0071 3.18625 1.22917e-15)
(23.0172 3.14712 -1.86806e-16)
(23.0278 3.10506 -8.72993e-16)
(23.0387 3.06103 -1.07187e-15)
(23.0496 3.01555 1.3404e-15)
(23.0605 2.96908 2.09173e-16)
(23.0715 2.92184 4.7202e-16)
(23.0825 2.87406 9.04008e-16)
(23.0935 2.82586 -9.33637e-16)
(23.1046 2.77735 -9.32624e-17)
(23.1158 2.72858 -8.90581e-16)
(23.1271 2.67958 9.72046e-16)
(23.1385 2.63035 4.20982e-16)
(23.1499 2.58089 -9.31191e-16)
(23.1615 2.5312 7.25196e-17)
(23.1732 2.48126 -3.76016e-16)
(23.185 2.43105 2.00625e-16)
(23.1969 2.38054 -2.19978e-15)
(23.209 2.32971 4.24233e-15)
(23.2212 2.27852 -2.64268e-15)
(23.2335 2.22695 -8.17552e-16)
(23.246 2.17495 8.24595e-16)
(23.2586 2.12248 -2.01641e-15)
(23.2714 2.06952 1.11474e-15)
(23.2843 2.01601 5.18173e-16)
(23.2974 1.96191 2.22997e-15)
(23.3106 1.90718 -3.30571e-15)
(23.324 1.85176 3.52563e-15)
(23.3375 1.7956 -1.55991e-17)
(23.3512 1.73865 -2.72023e-16)
(23.365 1.68083 -1.70344e-16)
(23.379 1.6221 -5.25547e-16)
(23.3931 1.56238 -1.65343e-15)
(23.4074 1.50159 8.07629e-16)
(23.4219 1.43966 6.89591e-16)
(23.4364 1.37649 7.43011e-17)
(23.4511 1.31202 -8.77867e-16)
(23.4658 1.24611 -3.93404e-16)
(23.4807 1.17862 1.39661e-15)
(23.4957 1.10946 -3.22441e-16)
(23.5107 1.03852 -1.88685e-15)
(23.5258 0.965635 2.09395e-15)
(23.5408 0.890646 -1.73509e-15)
(23.5557 0.81337 2.72354e-15)
(23.5705 0.733596 -2.00669e-15)
(23.5851 0.651105 -2.76405e-17)
(23.5995 0.565634 2.3855e-15)
(23.6134 0.47691 -1.00201e-15)
(23.6267 0.3846 -5.1576e-16)
(23.6393 0.288362 1.02602e-17)
(23.651 0.187775 -2.33621e-16)
(23.6614 0.0824026 5.29952e-16)
(23.6702 -0.0282795 1.48895e-16)
(23.6769 -0.144832 -4.38275e-16)
(23.681 -0.267895 7.15031e-16)
(23.6817 -0.398155 -3.00152e-16)
(23.6781 -0.536346 8.80199e-17)
(23.6692 -0.683203 -2.56425e-17)
(23.6536 -0.839423 -6.30378e-16)
(23.6295 -1.00545 -3.20823e-16)
(23.5949 -1.18141 2.97578e-16)
(23.5475 -1.36645 1.31932e-16)
(23.4845 -1.55835 1.91515e-16)
(23.4029 -1.75183 -4.64099e-16)
(23.2972 -1.93813 -7.79639e-17)
(23.1664 -2.09348 2.16973e-17)
(23.0111 -2.14863 -2.86993e-16)
(22.7341 -2.15936 8.39179e-16)
(22.4093 -1.97775 -7.09553e-16)
(22.0436 -1.74355 3.11702e-16)
(21.6915 -1.48521 4.12019e-17)
(21.3928 -1.20517 2.1265e-16)
(21.1576 -0.886485 1.63521e-17)
(20.98 -0.515979 -4.12349e-16)
(20.8715 -0.0911102 2.91445e-17)
(20.8199 0.394946 4.2236e-17)
(23.3056 4.19695 -1.16456e-15)
(23.3013 4.14831 5.21031e-16)
(23.2976 4.10336 -3.87092e-16)
(23.2952 4.06075 4.1998e-17)
(23.2933 4.01956 -1.60165e-16)
(23.2917 3.97927 7.60251e-16)
(23.2902 3.9395 -4.61084e-16)
(23.2884 3.89998 5.44333e-16)
(23.2863 3.86059 -7.03285e-18)
(23.2839 3.82125 -9.26959e-16)
(23.2809 3.78159 7.39024e-16)
(23.2776 3.7421 -2.53713e-16)
(23.2739 3.70242 2.5921e-17)
(23.2696 3.66258 6.65097e-17)
(23.2649 3.6226 -6.31724e-17)
(23.2598 3.58248 -1.01669e-17)
(23.2544 3.5422 -9.98887e-17)
(23.2488 3.50177 9.78071e-17)
(23.2432 3.46115 2.79803e-16)
(23.2379 3.42026 -1.00756e-16)
(23.2333 3.37878 -1.46577e-17)
(23.2302 3.33605 -4.89387e-16)
(23.2299 3.29213 -6.05647e-16)
(23.2357 3.24854 9.73672e-16)
(23.2477 3.2062 -2.00857e-16)
(23.2622 3.16567 8.4406e-16)
(23.2778 3.12666 -8.01677e-16)
(23.294 3.08831 1.06074e-15)
(23.3105 3.05019 -1.73863e-15)
(23.3271 3.01216 5.99626e-16)
(23.3436 2.97418 -2.65204e-16)
(23.3598 2.93594 6.70113e-17)
(23.3757 2.89778 8.24808e-16)
(23.3913 2.85954 2.52738e-16)
(23.4067 2.8212 6.91665e-16)
(23.4218 2.78277 -1.08198e-15)
(23.4365 2.74423 -3.74159e-16)
(23.4509 2.70556 1.3629e-15)
(23.465 2.66673 -6.8235e-16)
(23.4788 2.62773 8.13031e-16)
(23.4923 2.58853 -5.23548e-16)
(23.5056 2.5491 3.78075e-16)
(23.5186 2.50943 -1.30521e-15)
(23.5314 2.46946 -1.1704e-15)
(23.5439 2.42918 1.15736e-15)
(23.5561 2.38856 7.42869e-16)
(23.5682 2.34755 1.24468e-15)
(23.58 2.30613 -1.61018e-15)
(23.5917 2.26424 -2.45793e-16)
(23.6031 2.22187 1.14651e-15)
(23.6142 2.17896 -3.27336e-16)
(23.6252 2.13547 1.43735e-15)
(23.636 2.09135 -3.11402e-16)
(23.6465 2.04656 -9.91924e-16)
(23.6568 2.00104 3.15167e-16)
(23.6668 1.95474 -1.28506e-15)
(23.6766 1.9076 2.16604e-15)
(23.6861 1.85955 -8.46472e-16)
(23.6953 1.81054 -7.73223e-16)
(23.7042 1.76047 6.74869e-16)
(23.7127 1.7093 -8.33712e-17)
(23.7208 1.65692 -1.31869e-15)
(23.7285 1.60324 1.0078e-15)
(23.7356 1.5482 6.99353e-17)
(23.7421 1.49168 6.50942e-16)
(23.748 1.43358 -1.01457e-15)
(23.7532 1.37376 8.28936e-16)
(23.7575 1.31209 -6.53389e-16)
(23.7609 1.24843 -6.65681e-16)
(23.7631 1.18263 1.35428e-15)
(23.764 1.1145 -1.01065e-15)
(23.7633 1.04389 1.10294e-15)
(23.761 0.97059 4.68262e-16)
(23.7565 0.894405 -1.43986e-15)
(23.7496 0.815119 5.42068e-16)
(23.7399 0.732525 2.45674e-17)
(23.7267 0.6464 -4.74284e-16)
(23.7096 0.556545 3.09604e-16)
(23.6877 0.462756 4.37398e-16)
(23.6601 0.364895 -2.6396e-16)
(23.6257 0.262832 -1.15231e-16)
(23.5831 0.156591 1.89593e-16)
(23.5308 0.0462359 2.38877e-16)
(23.4665 -0.067882 -1.08725e-15)
(23.388 -0.18527 5.56145e-16)
(23.292 -0.304995 3.59167e-16)
(23.1752 -0.425752 -3.93955e-16)
(23.0333 -0.545615 -1.629e-16)
(22.8614 -0.661997 4.00532e-16)
(22.6558 -0.771138 -5.08665e-16)
(22.4147 -0.866079 4.44778e-17)
(22.1404 -0.941368 6.09198e-16)
(21.8561 -0.980395 -1.48693e-16)
(21.5934 -0.975679 -9.70839e-17)
(21.3714 -0.926115 -3.13693e-16)
(21.1914 -0.838825 3.59247e-16)
(21.0463 -0.722926 6.129e-17)
(20.9278 -0.585321 -2.76405e-16)
(20.8566 -0.432471 4.06692e-17)
(20.7963 -0.280812 -1.52199e-17)
(23.2593 4.1222 1.41488e-15)
(23.2769 4.08337 -9.05145e-16)
(23.2911 4.04556 -1.56668e-17)
(23.3032 4.00791 1.15169e-15)
(23.3137 3.97067 -1.10603e-15)
(23.3231 3.93386 -1.3969e-16)
(23.3316 3.89748 1.75746e-16)
(23.3392 3.86147 2.2798e-17)
(23.3461 3.82579 -3.93683e-16)
(23.3524 3.79041 5.5364e-16)
(23.3584 3.75534 -4.22442e-18)
(23.3639 3.72052 -2.53665e-18)
(23.369 3.68576 -3.36898e-17)
(23.3736 3.65107 5.58926e-17)
(23.3778 3.61635 3.3528e-18)
(23.3816 3.58152 1.31759e-17)
(23.3852 3.54645 1.39935e-17)
(23.3885 3.511 -1.27025e-17)
(23.3916 3.47495 1.29658e-16)
(23.3946 3.43806 -5.91683e-17)
(23.3976 3.40002 2.20463e-17)
(23.4006 3.3602 -8.81434e-16)
(23.4041 3.31792 8.96076e-16)
(23.4098 3.27443 1.73535e-16)
(23.4171 3.23243 -1.14371e-15)
(23.4243 3.19276 5.64443e-16)
(23.4311 3.15465 -4.64271e-16)
(23.4377 3.11749 1.50027e-15)
(23.444 3.08093 -8.73595e-16)
(23.4501 3.04473 3.94992e-16)
(23.4559 3.00872 -7.53679e-16)
(23.4615 2.97269 -3.02284e-16)
(23.4668 2.93661 7.5546e-16)
(23.472 2.90033 3.8098e-17)
(23.477 2.86378 -9.51598e-16)
(23.4817 2.82691 1.16587e-15)
(23.4862 2.78968 -2.36137e-16)
(23.4904 2.75206 -9.40179e-17)
(23.4945 2.71401 -4.61081e-16)
(23.4983 2.67551 2.61013e-16)
(23.5019 2.63653 2.62711e-16)
(23.5053 2.59705 3.30391e-16)
(23.5085 2.55705 1.10692e-15)
(23.5115 2.51649 -3.24774e-15)
(23.5143 2.47535 6.02715e-16)
(23.5168 2.4336 2.34184e-15)
(23.5192 2.39122 -3.02383e-15)
(23.5214 2.34817 -1.17533e-16)
(23.5233 2.30442 1.7559e-15)
(23.5251 2.25994 8.22655e-16)
(23.5265 2.21469 -2.13509e-15)
(23.5278 2.16863 1.52655e-16)
(23.5288 2.12173 2.07263e-15)
(23.5295 2.07393 -4.97385e-16)
(23.5298 2.0252 -8.52106e-17)
(23.5299 1.97548 -9.47995e-16)
(23.5296 1.92473 1.76944e-15)
(23.5289 1.87288 -1.64022e-15)
(23.5278 1.81988 1.08979e-15)
(23.5262 1.76566 -1.53229e-16)
(23.524 1.71016 -5.09692e-16)
(23.5213 1.65332 5.11887e-16)
(23.518 1.59512 2.74943e-17)
(23.5139 1.53544 1.6963e-16)
(23.509 1.47419 -1.64663e-15)
(23.5031 1.4113 7.32506e-16)
(23.4962 1.34666 -5.88884e-16)
(23.4882 1.28021 8.55935e-16)
(23.4788 1.21184 5.75823e-16)
(23.4679 1.14146 -1.3121e-15)
(23.4553 1.06898 -8.78393e-17)
(23.4409 0.994312 6.56251e-16)
(23.4243 0.917358 3.71251e-16)
(23.4052 0.838056 4.83479e-16)
(23.3834 0.756331 -8.28774e-16)
(23.3584 0.672158 5.73996e-16)
(23.33 0.585512 8.54297e-17)
(23.2974 0.496441 -6.66231e-16)
(23.2604 0.405017 1.13967e-15)
(23.2182 0.311422 -1.57546e-16)
(23.1703 0.215894 -3.67006e-16)
(23.1159 0.118854 -7.67647e-16)
(23.0544 0.0208389 -1.8237e-17)
(22.9852 -0.0773338 2.22626e-16)
(22.9075 -0.174601 8.37946e-16)
(22.8209 -0.269495 -1.13312e-15)
(22.7252 -0.360086 1.4069e-15)
(22.6205 -0.443874 -5.79178e-16)
(22.5077 -0.517621 4.08203e-16)
(22.3881 -0.577422 -6.39824e-16)
(22.2643 -0.61836 -6.49501e-17)
(22.1394 -0.636143 5.71329e-16)
(22.0169 -0.626773 -5.6421e-16)
(21.9 -0.590626 4.03946e-16)
(21.7912 -0.5316 2.3772e-16)
(21.6931 -0.455196 -2.09867e-16)
(21.6107 -0.365703 2.30753e-16)
(21.5447 -0.265871 -1.81621e-18)
(21.5094 -0.156897 -8.92761e-17)
(21.4718 -0.0543678 -1.59061e-18)
(23.0262 4.08281 -9.57392e-16)
(23.042 4.04697 1.1394e-15)
(23.0563 4.01095 -2.10564e-16)
(23.0698 3.97488 5.30593e-16)
(23.0824 3.93874 -7.97328e-16)
(23.0941 3.90254 1.0233e-15)
(23.105 3.86633 -2.76195e-16)
(23.1152 3.83013 2.05962e-16)
(23.1248 3.79391 -1.48635e-16)
(23.134 3.75771 -5.94415e-16)
(23.1429 3.72189 7.96152e-17)
(23.1515 3.68593 1.07531e-16)
(23.1599 3.65007 7.03382e-17)
(23.1679 3.61425 -1.57739e-16)
(23.1757 3.57844 9.27814e-17)
(23.1832 3.5426 -1.39744e-17)
(23.1905 3.50672 6.26142e-17)
(23.1974 3.47076 4.38641e-17)
(23.2039 3.43468 -1.0519e-16)
(23.2099 3.39848 -2.9161e-16)
(23.2152 3.36222 3.55533e-16)
(23.2195 3.32601 3.65739e-16)
(23.2232 3.28973 -9.78629e-16)
(23.2274 3.25337 1.39047e-15)
(23.2323 3.21702 -2.42209e-16)
(23.2365 3.18032 -8.11838e-16)
(23.24 3.14311 -1.81871e-16)
(23.2428 3.10552 1.27418e-15)
(23.2452 3.06767 -1.75014e-15)
(23.2472 3.02959 1.53123e-15)
(23.2491 2.99125 -1.47898e-15)
(23.2508 2.95288 2.33499e-15)
(23.2526 2.91416 -1.94932e-15)
(23.2543 2.87518 7.57663e-16)
(23.256 2.83593 -5.69829e-16)
(23.2578 2.79637 7.09955e-16)
(23.2596 2.75647 6.33391e-16)
(23.2613 2.71623 -2.04326e-15)
(23.2631 2.67563 9.28538e-16)
(23.2648 2.63464 -6.4151e-16)
(23.2665 2.59325 4.1525e-16)
(23.2682 2.55146 -1.26245e-15)
(23.2698 2.50923 1.88863e-15)
(23.2714 2.46655 -1.3725e-15)
(23.2729 2.42341 7.41511e-17)
(23.2744 2.37979 4.35639e-16)
(23.2757 2.33566 1.85105e-15)
(23.277 2.29101 -1.54636e-15)
(23.278 2.24582 -2.86144e-16)
(23.279 2.20006 1.16737e-15)
(23.2798 2.15371 -2.50184e-15)
(23.2803 2.10674 2.56202e-15)
(23.2807 2.05913 -2.62403e-16)
(23.2808 2.01085 1.92042e-16)
(23.2806 1.96187 -2.73756e-16)
(23.28 1.91216 -1.61101e-15)
(23.2792 1.8617 1.79453e-15)
(23.2779 1.81044 9.49937e-16)
(23.2762 1.75836 -2.88123e-15)
(23.274 1.70542 6.69941e-16)
(23.2712 1.65159 -1.50167e-15)
(23.2678 1.59685 1.13615e-15)
(23.2638 1.54121 -4.34082e-16)
(23.259 1.4846 7.96675e-16)
(23.2534 1.42697 -1.20767e-15)
(23.2468 1.3683 4.81762e-16)
(23.2392 1.30856 1.79442e-15)
(23.2303 1.24773 4.96846e-16)
(23.2202 1.18579 -1.55556e-15)
(23.2085 1.12274 1.28019e-15)
(23.1953 1.05857 -1.22283e-15)
(23.1803 0.993316 3.57962e-16)
(23.1634 0.926983 1.51228e-15)
(23.1443 0.859639 -1.23882e-15)
(23.1228 0.791341 -7.74611e-16)
(23.0986 0.72221 5.90045e-16)
(23.0715 0.65237 -8.10744e-16)
(23.0413 0.582023 8.48269e-17)
(23.0075 0.511392 7.49586e-16)
(22.9699 0.440791 -5.61651e-17)
(22.9282 0.37058 -2.44852e-16)
(22.8819 0.301226 2.42749e-16)
(22.8309 0.233271 -5.51634e-16)
(22.7748 0.167374 3.24792e-16)
(22.7134 0.104299 -8.50618e-16)
(22.6464 0.0449099 7.71782e-16)
(22.5738 -0.00981688 -3.37869e-16)
(22.4955 -0.0588674 3.31315e-16)
(22.4119 -0.101174 -2.9153e-16)
(22.3233 -0.13579 -4.34847e-16)
(22.2304 -0.161892 1.98992e-16)
(22.1346 -0.179069 5.3169e-16)
(22.0376 -0.187298 -1.06256e-16)
(21.9419 -0.187101 -4.83218e-17)
(21.8509 -0.179279 -2.3356e-16)
(21.7677 -0.164891 8.90528e-17)
(21.6957 -0.14525 4.14026e-16)
(21.6333 -0.122447 -2.92161e-16)
(21.5911 -0.0967759 5.59495e-17)
(21.534 -0.0846337 -4.56835e-18)
(22.9074 4.04642 -1.97191e-15)
(22.9173 4.01104 1.56606e-15)
(22.9264 3.97579 -1.56539e-15)
(22.935 3.94074 1.36059e-15)
(22.943 3.9057 -5.50922e-16)
(22.9505 3.87066 5.9187e-16)
(22.9575 3.83557 -2.36313e-16)
(22.9639 3.8004 2.20377e-16)
(22.9699 3.76504 -8.27593e-16)
(22.9754 3.72952 2.00564e-16)
(22.9805 3.69413 1.7641e-16)
(22.9852 3.65842 -5.94781e-17)
(22.9896 3.62264 -3.20189e-17)
(22.9936 3.5867 -1.06646e-17)
(22.9972 3.55061 1.43977e-16)
(23.0005 3.5144 -5.65765e-17)
(23.0035 3.47808 -1.16137e-16)
(23.0061 3.44171 1.93136e-16)
(23.0083 3.40534 -1.99578e-16)
(23.0101 3.36902 2.82411e-16)
(23.0114 3.33283 -8.14154e-17)
(23.0124 3.29698 -1.28036e-15)
(23.0139 3.26168 1.55287e-15)
(23.0174 3.22687 8.54803e-17)
(23.0231 3.1919 -1.27998e-15)
(23.0295 3.15623 9.578e-16)
(23.0357 3.11988 -6.49863e-16)
(23.0417 3.08299 1.47055e-15)
(23.0473 3.04564 -1.14057e-15)
(23.0527 3.0079 2.68457e-16)
(23.0579 2.96975 -9.92727e-16)
(23.063 2.93157 3.69744e-19)
(23.068 2.89302 -4.20716e-16)
(23.0728 2.85426 1.41731e-15)
(23.0775 2.81531 7.71644e-16)
(23.082 2.77615 -7.80408e-16)
(23.0864 2.73677 -2.30687e-17)
(23.0907 2.69718 -3.20692e-16)
(23.0948 2.65736 -4.64775e-16)
(23.0988 2.6173 1.40252e-15)
(23.1025 2.57698 -8.5779e-16)
(23.1061 2.53639 2.41681e-15)
(23.1094 2.49551 -4.67394e-15)
(23.1125 2.45431 -1.27159e-16)
(23.1154 2.41279 2.98218e-15)
(23.118 2.37092 1.06906e-15)
(23.1203 2.32868 -4.42254e-16)
(23.1223 2.28605 -1.27425e-15)
(23.1239 2.24301 -9.19087e-16)
(23.1253 2.19952 1.66297e-15)
(23.1262 2.15559 -1.01345e-15)
(23.1268 2.11116 -1.04348e-15)
(23.1269 2.06624 2.90576e-15)
(23.1266 2.02079 2.80337e-16)
(23.1258 1.97478 -1.30484e-15)
(23.1244 1.9282 -3.90493e-16)
(23.1225 1.88102 1.46612e-15)
(23.12 1.83322 -1.91527e-15)
(23.1168 1.78478 -4.80371e-16)
(23.1129 1.73566 3.18483e-16)
(23.1082 1.68586 8.17438e-16)
(23.1028 1.63536 -4.45263e-16)
(23.0964 1.5842 2.557e-16)
(23.0892 1.53234 -2.8063e-16)
(23.0809 1.47971 1.07217e-15)
(23.0714 1.42633 -1.09849e-15)
(23.0607 1.37219 1.18362e-15)
(23.0487 1.31729 -1.21634e-15)
(23.0352 1.26163 5.8727e-16)
(23.0202 1.20523 7.94177e-16)
(23.0035 1.14812 7.75284e-18)
(22.985 1.09035 -8.51675e-16)
(22.9646 1.03194 2.08688e-16)
(22.9421 0.972985 4.81747e-16)
(22.9174 0.913557 -1.41938e-15)
(22.8902 0.853776 1.60113e-15)
(22.8606 0.793764 -1.05823e-15)
(22.8281 0.733691 -4.63358e-16)
(22.7928 0.673744 1.95795e-15)
(22.7545 0.614155 -5.52464e-16)
(22.713 0.555186 6.30117e-16)
(22.6681 0.497144 -1.82617e-15)
(22.62 0.440379 7.06331e-16)
(22.5685 0.38528 8.56254e-16)
(22.5136 0.33229 -4.83327e-16)
(22.4555 0.281876 2.40998e-16)
(22.3945 0.234562 -1.74775e-16)
(22.331 0.190874 -4.34673e-16)
(22.2653 0.15138 3.44977e-16)
(22.1983 0.116605 -7.76645e-16)
(22.1309 0.0870799 8.07148e-16)
(22.064 0.0632144 2.55483e-16)
(21.9989 0.0453397 -7.31979e-16)
(21.9367 0.0335338 1.90638e-16)
(21.8785 0.0276007 -6.07779e-17)
(21.825 0.0269279 9.56489e-17)
(21.7775 0.0306398 -3.44888e-16)
(21.7333 0.037343 9.15896e-17)
(21.7019 0.0476183 1.45851e-16)
(21.6461 0.0484034 3.12658e-17)
(22.807 3.99151 -1.67805e-16)
(22.8185 3.95995 1.93393e-15)
(22.8285 3.92834 -1.09334e-15)
(22.8375 3.89666 4.28072e-16)
(22.8457 3.8648 -7.95951e-16)
(22.853 3.83279 1.05345e-15)
(22.8594 3.80059 4.16212e-17)
(22.8652 3.76819 -7.67785e-16)
(22.8702 3.73549 6.96097e-16)
(22.8745 3.7025 -5.082e-16)
(22.8781 3.66951 -3.68504e-16)
(22.8812 3.63615 3.1563e-16)
(22.8837 3.60256 -7.62228e-19)
(22.8857 3.56865 -1.4489e-16)
(22.8871 3.53442 2.2159e-16)
(22.888 3.49986 -1.37335e-17)
(22.8885 3.46497 -1.01138e-16)
(22.8885 3.42976 1.86634e-16)
(22.8882 3.39422 -3.46805e-16)
(22.8876 3.35838 4.33929e-16)
(22.8868 3.32221 1.62172e-16)
(22.8861 3.28578 -1.65101e-16)
(22.8864 3.24927 8.31367e-16)
(22.8895 3.21297 -1.3928e-15)
(22.8953 3.17688 2.04534e-16)
(22.9022 3.1408 1.03337e-15)
(22.9092 3.10467 -2.06002e-16)
(22.916 3.06842 7.30927e-16)
(22.9226 3.03203 -2.53178e-15)
(22.9288 2.99548 1.73851e-15)
(22.9347 2.95868 -9.53337e-18)
(22.9404 2.92195 1.80991e-16)
(22.9458 2.88496 -9.63515e-16)
(22.9508 2.84781 -7.66644e-16)
(22.9554 2.8105 1.06221e-15)
(22.9597 2.77301 -8.55405e-19)
(22.9637 2.73531 -7.13852e-16)
(22.9672 2.69739 8.94775e-16)
(22.9705 2.65924 -1.30521e-16)
(22.9733 2.62084 5.94421e-16)
(22.9758 2.58218 -1.01535e-15)
(22.9779 2.54323 7.29151e-16)
(22.9796 2.50398 -1.9157e-15)
(22.9808 2.4644 9.32766e-16)
(22.9817 2.42449 2.39557e-16)
(22.9821 2.38422 9.15944e-17)
(22.9821 2.34357 -1.93568e-15)
(22.9817 2.30253 1.72501e-15)
(22.9808 2.26108 1.65173e-15)
(22.9794 2.2192 -5.15232e-17)
(22.9775 2.17687 -2.04752e-15)
(22.9751 2.13408 1.25196e-15)
(22.9722 2.0908 -9.46699e-16)
(22.9687 2.04704 9.22983e-17)
(22.9647 2.00276 -4.98658e-16)
(22.96 1.95797 1.39036e-16)
(22.9547 1.91263 2.87164e-15)
(22.9487 1.86676 -3.26586e-15)
(22.942 1.82033 1.74449e-15)
(22.9345 1.77334 -1.90342e-15)
(22.9263 1.72578 2.74073e-16)
(22.9172 1.67768 7.36117e-16)
(22.9073 1.62909 1.32258e-15)
(22.8965 1.57998 -7.47851e-16)
(22.8847 1.53031 -1.82486e-15)
(22.8718 1.48011 1.27616e-15)
(22.8578 1.42939 5.32327e-16)
(22.8426 1.37818 1.31957e-15)
(22.8262 1.32651 1.38695e-16)
(22.8084 1.27442 -2.63438e-15)
(22.7893 1.22195 8.31303e-16)
(22.7686 1.16917 7.77927e-16)
(22.7465 1.11615 1.27644e-15)
(22.7227 1.06297 -2.69982e-16)
(22.6973 1.00974 -1.78414e-15)
(22.6701 0.956563 3.05584e-16)
(22.6411 0.903575 7.02877e-16)
(22.6102 0.850931 -8.25214e-16)
(22.5774 0.798796 8.47538e-16)
(22.5426 0.747362 -7.45858e-16)
(22.5059 0.69684 -4.43623e-17)
(22.4672 0.647455 4.32239e-16)
(22.4266 0.59946 -2.02105e-16)
(22.3842 0.55311 -6.37835e-16)
(22.3401 0.508686 2.40117e-16)
(22.2944 0.466453 -1.09738e-15)
(22.2472 0.426699 1.96455e-15)
(22.199 0.389662 -1.3505e-15)
(22.1499 0.355586 6.55044e-16)
(22.1002 0.324628 -7.17542e-17)
(22.0505 0.296918 -1.68908e-16)
(22.001 0.272451 -4.89785e-16)
(21.9522 0.251158 1.48274e-16)
(21.9046 0.232806 1.11281e-16)
(21.8587 0.217076 3.11908e-17)
(21.8147 0.203508 -4.0922e-17)
(21.7738 0.191644 -2.82184e-16)
(21.7336 0.18069 5.48872e-16)
(21.7032 0.171796 -3.19666e-17)
(21.6456 0.152824 1.20673e-17)
(22.6858 3.9297 1.35922e-15)
(22.6978 3.902 -1.42091e-15)
(22.7084 3.87389 3.66191e-16)
(22.7181 3.84559 1.20344e-15)
(22.7269 3.817 -1.64131e-15)
(22.7348 3.78815 3.26747e-16)
(22.7419 3.75901 2.34527e-16)
(22.7482 3.72955 -9.63465e-16)
(22.7536 3.69967 6.93106e-16)
(22.7582 3.66939 -1.68156e-16)
(22.7622 3.63909 2.30206e-16)
(22.7655 3.60828 2.90898e-18)
(22.7681 3.57714 -1.6035e-16)
(22.7701 3.54558 -3.86998e-17)
(22.7715 3.51357 3.07811e-16)
(22.7724 3.48109 -6.25705e-17)
(22.7727 3.44812 -1.16712e-16)
(22.7725 3.41467 1.79603e-16)
(22.7718 3.3807 3.03796e-16)
(22.7707 3.34624 -7.35436e-16)
(22.7695 3.31128 2.44188e-16)
(22.7682 3.27589 -9.54413e-16)
(22.7679 3.24018 1.41269e-15)
(22.77 3.20449 5.33985e-16)
(22.7746 3.16904 -1.0504e-15)
(22.78 3.13372 4.45956e-16)
(22.7855 3.09841 -8.74596e-16)
(22.7907 3.06304 1.8273e-15)
(22.7955 3.02759 -1.4357e-15)
(22.7999 2.99204 9.27746e-16)
(22.8039 2.9563 -9.80782e-16)
(22.8075 2.92069 -8.19738e-17)
(22.8108 2.88484 -2.85374e-16)
(22.8137 2.84884 1.20132e-15)
(22.8162 2.8127 -6.82221e-16)
(22.8183 2.77636 -8.85677e-16)
(22.82 2.73981 2.20804e-15)
(22.8212 2.70303 -1.5334e-15)
(22.8221 2.66602 9.9876e-17)
(22.8226 2.62874 -4.60139e-16)
(22.8227 2.59119 -2.85369e-16)
(22.8224 2.55335 -6.43934e-18)
(22.8217 2.5152 1.78366e-15)
(22.8205 2.47674 -3.44498e-15)
(22.819 2.43795 7.06292e-16)
(22.817 2.39883 2.77707e-15)
(22.8147 2.35936 -3.01862e-15)
(22.8118 2.31953 2.56623e-15)
(22.8086 2.27933 -3.91834e-16)
(22.8048 2.23875 8.01631e-16)
(22.8006 2.1978 -1.53754e-15)
(22.7959 2.15645 -9.70078e-16)
(22.7907 2.11471 2.33416e-15)
(22.785 2.07258 -6.61345e-16)
(22.7788 2.03004 -2.11505e-15)
(22.7719 1.9871 7.45901e-16)
(22.7645 1.94376 2.80149e-15)
(22.7565 1.90002 -1.97467e-15)
(22.7478 1.85588 1.10821e-15)
(22.7385 1.81135 -5.52537e-16)
(22.7285 1.76644 2.38552e-16)
(22.7177 1.72118 -2.12475e-15)
(22.7062 1.67566 3.5882e-17)
(22.694 1.62985 1.20583e-15)
(22.6809 1.58371 -1.58481e-15)
(22.6669 1.53728 -3.74607e-16)
(22.652 1.4906 2.89129e-15)
(22.6361 1.44368 -9.7496e-16)
(22.6192 1.39658 -1.31883e-15)
(22.6012 1.34934 1.59748e-15)
(22.5822 1.30201 -6.78801e-16)
(22.5619 1.25464 2.91742e-16)
(22.5405 1.20732 3.55131e-18)
(22.5179 1.1601 7.78809e-16)
(22.4941 1.11307 -1.67298e-15)
(22.4689 1.06632 1.51199e-15)
(22.4424 1.01995 -1.15209e-15)
(22.4146 0.974062 3.72186e-16)
(22.3855 0.928772 -1.29291e-16)
(22.355 0.884198 3.02403e-16)
(22.3233 0.840472 2.27075e-16)
(22.2902 0.797718 1.67172e-16)
(22.256 0.75608 -6.55079e-16)
(22.2205 0.715681 -5.30305e-16)
(22.1841 0.676666 8.49921e-16)
(22.1466 0.639142 -7.4331e-16)
(22.1084 0.603243 1.4223e-15)
(22.0696 0.569049 -1.08211e-15)
(22.0303 0.536659 6.27827e-16)
(21.9908 0.506107 -7.47722e-16)
(21.9514 0.47744 3.81076e-16)
(21.9123 0.450629 1.7166e-16)
(21.8737 0.42565 -4.79532e-16)
(21.836 0.402404 6.71837e-16)
(21.7993 0.380787 -3.43358e-16)
(21.7638 0.360623 5.47566e-16)
(21.7303 0.341756 -7.25595e-17)
(21.6962 0.323761 -1.33206e-16)
(21.6704 0.307904 -3.8691e-17)
(21.6161 0.283439 -7.1433e-17)
(22.5718 3.86402 -1.42491e-15)
(22.5818 3.84043 2.2084e-15)
(22.5906 3.81601 -7.80668e-16)
(22.5987 3.79123 3.12245e-16)
(22.606 3.76599 -1.08377e-15)
(22.6125 3.74032 -5.44317e-17)
(22.6182 3.71422 9.06799e-16)
(22.6232 3.68766 -3.64088e-16)
(22.6274 3.66056 5.51838e-16)
(22.6309 3.63294 -6.59205e-16)
(22.6336 3.60527 5.15688e-17)
(22.6358 3.57694 -3.60222e-17)
(22.6374 3.54819 5.12321e-17)
(22.6383 3.51892 -1.42014e-16)
(22.6386 3.4891 1.15553e-16)
(22.6384 3.45873 -3.81138e-18)
(22.6375 3.42778 7.61395e-17)
(22.6361 3.39626 3.3097e-17)
(22.6341 3.36416 -4.25272e-17)
(22.6318 3.33152 -1.62746e-17)
(22.6292 3.29837 1.61385e-16)
(22.6266 3.26481 9.54315e-17)
(22.625 3.23099 -3.00472e-16)
(22.6256 3.19717 -1.02028e-15)
(22.6288 3.1635 8.99507e-16)
(22.6328 3.1298 -2.30259e-16)
(22.637 3.09597 -8.33441e-17)
(22.6408 3.06199 1.584e-15)
(22.6442 3.02784 -2.35894e-15)
(22.6472 2.99354 1.73975e-15)
(22.6497 2.959 -1.20708e-15)
(22.6519 2.92463 -7.07414e-16)
(22.6538 2.88995 8.23139e-17)
(22.6552 2.85513 1.41431e-15)
(22.6562 2.82016 -7.12637e-16)
(22.6567 2.78501 1.20125e-15)
(22.6569 2.74965 -1.53407e-15)
(22.6566 2.71407 3.78281e-16)
(22.6559 2.67827 3.92211e-17)
(22.6549 2.64224 1.24831e-15)
(22.6534 2.60595 -1.90108e-15)
(22.6515 2.5694 -1.7483e-15)
(22.6493 2.53258 2.16639e-15)
(22.6466 2.49548 -1.96975e-15)
(22.6436 2.4581 1.01192e-15)
(22.6401 2.42043 1.82324e-16)
(22.6362 2.38246 2.04021e-15)
(22.6319 2.34419 -2.98058e-15)
(22.6272 2.30561 2.48196e-15)
(22.622 2.26673 3.76612e-16)
(22.6164 2.22753 -1.36621e-15)
(22.6102 2.18803 2.45653e-16)
(22.6037 2.14822 -9.8983e-16)
(22.5966 2.1081 2.66219e-15)
(22.589 2.06767 -9.88346e-16)
(22.5808 2.02695 -1.73022e-15)
(22.5722 1.98593 3.24533e-15)
(22.5629 1.94463 -2.69738e-15)
(22.5531 1.90305 1.35274e-15)
(22.5426 1.86121 -1.39092e-15)
(22.5316 1.8191 -1.64817e-15)
(22.5198 1.77678 4.04647e-15)
(22.5075 1.73435 -3.86835e-15)
(22.4945 1.69176 2.70737e-15)
(22.4808 1.64898 -2.65826e-15)
(22.4663 1.60605 5.96506e-16)
(22.4511 1.56299 2.10953e-15)
(22.435 1.51983 7.53793e-16)
(22.4181 1.47661 -3.008e-15)
(22.4004 1.43336 3.04798e-15)
(22.3817 1.39012 -4.23205e-16)
(22.3622 1.34695 -1.10623e-15)
(22.3418 1.30389 2.17292e-15)
(22.3204 1.261 -2.30439e-15)
(22.2982 1.21833 -2.48929e-16)
(22.275 1.17594 8.22194e-16)
(22.2509 1.1339 7.72823e-17)
(22.2259 1.09227 -1.01098e-15)
(22.2 1.05114 1.75483e-15)
(22.1733 1.01057 -1.08676e-15)
(22.1457 0.970643 -1.06307e-16)
(22.1174 0.931428 -9.39424e-16)
(22.0884 0.893012 7.98176e-16)
(22.0587 0.855455 -1.07123e-15)
(22.0285 0.818843 1.62029e-15)
(21.9978 0.783222 2.90731e-17)
(21.9667 0.748666 7.94725e-16)
(21.9354 0.715201 -2.16306e-15)
(21.9039 0.68288 1.02024e-15)
(21.8724 0.651701 -6.50133e-16)
(21.841 0.621684 2.01084e-16)
(21.8099 0.592792 3.36552e-16)
(21.7791 0.565002 1.45715e-16)
(21.7488 0.538242 -1.98259e-16)
(21.7191 0.512445 2.15074e-16)
(21.6899 0.487506 2.11933e-16)
(21.6621 0.463347 -4.01127e-16)
(21.6333 0.439696 6.33563e-17)
(21.6115 0.417752 -1.05855e-16)
(21.5636 0.387742 -2.20245e-17)
(22.4614 3.80651 -1.78223e-15)
(22.4693 3.78608 -5.63396e-16)
(22.4761 3.76473 1.68504e-15)
(22.4821 3.74297 -9.79854e-16)
(22.4875 3.72068 -1.92105e-16)
(22.492 3.69787 -3.65144e-16)
(22.4958 3.67454 2.2214e-16)
(22.4989 3.65069 1.35569e-15)
(22.5011 3.62622 -7.16337e-16)
(22.5026 3.60116 5.71593e-16)
(22.5035 3.57607 -5.17458e-16)
(22.5038 3.55022 -4.14481e-17)
(22.5034 3.52391 -4.41398e-17)
(22.5024 3.49702 -5.40714e-17)
(22.5007 3.46952 -1.93233e-16)
(22.4985 3.44139 1.38055e-16)
(22.4956 3.41262 2.70658e-17)
(22.4922 3.38319 -4.06965e-17)
(22.4882 3.3531 6.4074e-16)
(22.4838 3.32236 -1.10282e-15)
(22.4793 3.29102 7.82008e-16)
(22.4749 3.25916 -3.24276e-16)
(22.4715 3.22697 1.63528e-15)
(22.4706 3.19472 -7.82785e-16)
(22.4723 3.16258 3.19915e-16)
(22.4751 3.13042 -8.0309e-16)
(22.478 3.09816 7.30946e-16)
(22.4807 3.06577 -1.57333e-15)
(22.483 3.03324 1.94907e-15)
(22.4848 3.00055 -1.69233e-15)
(22.4862 2.96763 -6.32444e-17)
(22.4873 2.93492 -1.40352e-15)
(22.488 2.90188 1.13905e-15)
(22.4882 2.86868 -4.1476e-16)
(22.4879 2.83534 1.736e-15)
(22.4872 2.8018 4.99443e-16)
(22.486 2.76806 -1.1695e-15)
(22.4843 2.73409 -5.61047e-16)
(22.4823 2.69991 3.6397e-16)
(22.4798 2.66549 -3.91636e-17)
(22.477 2.63082 -9.12259e-16)
(22.4737 2.59591 1.00974e-15)
(22.47 2.56074 -2.95239e-15)
(22.466 2.52532 1.13065e-15)
(22.4615 2.48963 -3.41517e-16)
(22.4566 2.45368 2.30445e-15)
(22.4513 2.41746 -2.49097e-15)
(22.4456 2.38098 1.74032e-15)
(22.4395 2.34424 8.12961e-16)
(22.433 2.30723 -1.79562e-15)
(22.426 2.26996 2.89086e-16)
(22.4186 2.23244 -3.32319e-17)
(22.4107 2.19466 2.65061e-15)
(22.4024 2.15664 -2.8613e-15)
(22.3936 2.11838 1.94769e-15)
(22.3843 2.07989 -1.15837e-15)
(22.3745 2.04117 3.02955e-15)
(22.3642 2.00224 -4.0148e-15)
(22.3534 1.96311 3.07439e-15)
(22.3421 1.9238 -3.28258e-15)
(22.3302 1.8843 -5.27837e-16)