/*--------------------------------*- C++ -*----------------------------------*\
  =========                 |
  \\      /  F ield         | OpenFOAM: The Open Source CFD Toolbox
   \\    /   O peration     | Website:  https://openfoam.org
    \\  /    A nd           | Version:  6.0
     \\/     M anipulation  |
\*---------------------------------------------------------------------------*/
FoamFile
{
    version     2.0;
    format      ascii;
    class       volScalarField;
    location    "9";
    object      p;
}
// * * * * * * * * * * * * * * * * * * * * * * * * * * * * * * * * * * * * * //

dimensions      [0 2 -2 0 0 0 0];

internalField   nonuniform List<scalar> 
47000
(
0.0145064
0.0150374
0.0155406
0.0157854
0.0156367
0.0150147
0.0140548
0.0129224
0.0118688
0.0110358
0.0105096
0.0102462
0.0101602
0.0101277
0.010048
0.00984986
0.00950394
0.00901234
0.0084
0.00770239
0.00695744
0.00619854
0.00545308
0.00474022
0.0040735
0.00345783
0.00291006
0.00237926
0.00214433
0.00255724
0.014484
0.0150419
0.0155988
0.0159221
0.0158656
0.0153316
0.0144366
0.0133355
0.012284
0.0114406
0.0109165
0.0106889
0.010685
0.0107795
0.0108599
0.0108361
0.0106592
0.0103137
0.00981262
0.00918534
0.00846886
0.00769952
0.00691034
0.0061275
0.00537273
0.00465798
0.00401716
0.00341555
0.00318383
0.00345971
0.0144486
0.0150126
0.0155808
0.0159232
0.0158859
0.0153543
0.0144221
0.0132265
0.0120181
0.0109678
0.0102123
0.00976061
0.00956895
0.00953166
0.00954422
0.00951442
0.00938324
0.00912253
0.00873172
0.00822924
0.00764379
0.00700648
0.00634811
0.00569484
0.00507098
0.00449294
0.00400343
0.00359424
0.00355062
0.00393056
0.0143975
0.0149823
0.0155919
0.0160009
0.0160488
0.0156031
0.0147288
0.0135371
0.0122624
0.0110769
0.0101354
0.00947513
0.00908437
0.00888308
0.00878413
0.00870138
0.0085741
0.0083659
0.00806615
0.00768233
0.00723407
0.00674468
0.00623991
0.00574227
0.00527454
0.00485328
0.00452072
0.0042744
0.00435243
0.00482137
0.0143332
0.0149612
0.0156562
0.0161999
0.0164264
0.0161857
0.0155117
0.0144833
0.0133081
0.0121474
0.0111613
0.0104059
0.00989533
0.00957435
0.00937598
0.00922514
0.00906559
0.00885834
0.00858757
0.00825291
0.00786691
0.00744551
0.00700907
0.00657489
0.00616202
0.00578428
0.00547892
0.00523986
0.00527552
0.00563925
0.0142486
0.0149258
0.0157202
0.0164229
0.0168658
0.0168856
0.0164868
0.0157151
0.0147463
0.0137217
0.012797
0.0120367
0.0114743
0.0110746
0.0107909
0.0105607
0.0103363
0.0100801
0.0097754
0.00941705
0.00901342
0.00857468
0.00811717
0.00765387
0.00720113
0.0067713
0.00639913
0.00607885
0.00600277
0.00621113
0.0141475
0.0148636
0.0157415
0.0165834
0.0172237
0.0174915
0.0173676
0.0168683
0.0161373
0.0152926
0.0144789
0.0137623
0.0131882
0.0127376
0.0123808
0.0120683
0.0117622
0.0114288
0.0110532
0.0106282
0.0101605
0.00965669
0.00913113
0.0085946
0.00806309
0.00755017
0.00709149
0.00668521
0.00651099
0.00659824
0.0140192
0.0147557
0.0156841
0.0166204
0.0174058
0.017869
0.0179742
0.0177142
0.0172041
0.0165386
0.0158484
0.015196
0.0146339
0.0141537
0.0137404
0.0133554
0.0129709
0.0125575
0.0121042
0.0116033
0.0110617
0.0104844
0.0098854
0.00927506
0.00867076
0.00808848
0.00756578
0.00710393
0.00686782
0.00687647
0.0138656
0.0146056
0.0155495
0.0165311
0.0174027
0.0179981
0.0182719
0.0181999
0.017873
0.017365
0.0167915
0.0162088
0.015672
0.0151801
0.014729
0.0142892
0.0138419
0.0133623
0.0128436
0.0122789
0.0116762
0.0110398
0.0103849
0.00972181
0.00906994
0.00844731
0.00789239
0.00740688
0.00713934
0.00710054
0.0136779
0.0144061
0.0153345
0.0163181
0.0172228
0.0178916
0.0182753
0.0183387
0.0181534
0.017775
0.0173046
0.0167908
0.0162889
0.0158014
0.0153329
0.0148603
0.0143728
0.0138495
0.0132879
0.0126818
0.0120411
0.01137
0.0106847
0.00999591
0.00932459
0.00868967
0.00812925
0.00764303
0.00736374
0.00729707
0.0134629
0.0141697
0.0150609
0.0160152
0.0169132
0.01761
0.0180567
0.0182115
0.0181312
0.0178562
0.0174742
0.0170259
0.0165647
0.0160949
0.0156267
0.0151421
0.0146365
0.0140923
0.0135107
0.0128863
0.012231
0.0115485
0.0108564
0.0101652
0.00949677
0.00887
0.00832147
0.00784769
0.00756758
0.0074848
0.0132132
0.0138917
0.0147319
0.0156363
0.0165008
0.0171937
0.0176689
0.0178816
0.0178775
0.0176843
0.0173784
0.0169921
0.0165763
0.0161351
0.0156829
0.0152047
0.0147011
0.0141566
0.0135759
0.0129539
0.0123042
0.0116299
0.0109497
0.0102735
0.00962357
0.00901789
0.00849111
0.00803609
0.00776043
0.0076678
0.0129377
0.013587
0.0143705
0.0152152
0.0160319
0.016702
0.0171837
0.0174318
0.0174833
0.0173558
0.0171157
0.0167879
0.01642
0.016015
0.0155899
0.0151316
0.0146448
0.0141155
0.013551
0.0129464
0.0123164
0.0116638
0.0110077
0.0103571
0.00973453
0.0091564
0.00865535
0.00822079
0.00795147
0.00785255
0.0126297
0.0132492
0.013975
0.0147571
0.0155202
0.0161577
0.0166333
0.0169023
0.0169955
0.0169224
0.0167408
0.0164686
0.0161504
0.0157871
0.0153978
0.0149697
0.0145112
0.0140086
0.0134718
0.0128953
0.0122952
0.0116732
0.0110489
0.0104303
0.00983958
0.00929164
0.00881725
0.00840272
0.00813997
0.00803616
0.0123009
0.0128929
0.0135646
0.0142869
0.0149971
0.0155998
0.0160639
0.0163461
0.0164725
0.0164461
0.0163173
0.016098
0.0158296
0.0155109
0.015162
0.0147703
0.0143466
0.0138777
0.0133752
0.0128328
0.012268
0.0116809
0.011092
0.0105076
0.00994986
0.00943195
0.00898304
0.0085868
0.00833
0.00822222
0.0119436
0.012509
0.0131317
0.0137993
0.0144609
0.0150305
0.0154818
0.0157737
0.0159284
0.0159436
0.0158639
0.0156953
0.0154768
0.0152045
0.0148995
0.0145484
0.0141645
0.0137338
0.01327
0.0127657
0.0122394
0.0116898
0.0111378
0.0105883
0.0100634
0.00957446
0.0091494
0.00876967
0.00851802
0.00840627
0.0115693
0.0121114
0.0126919
0.0133122
0.0139317
0.0144729
0.0149134
0.0152143
0.0153949
0.0154487
0.0154149
0.0152951
0.0151253
0.0148996
0.0146393
0.0143306
0.013988
0.0135975
0.0131739
0.0127089
0.0122216
0.0117097
0.0111942
0.0106787
0.0101851
0.00972315
0.00931978
0.00895459
0.00870724
0.00859183
0.0111688
0.0116885
0.0122331
0.0128134
0.0133979
0.0139159
0.0143488
0.0146595
0.0148652
0.0149556
0.0149659
0.0148932
0.0147717
0.0145927
0.0143781
0.0141128
0.0138132
0.0134641
0.013082
0.0126569
0.0122092
0.0117348
0.0112555
0.0107729
0.0103094
0.00987278
0.00948944
0.00913734
0.00889363
0.0087743
0.0107539
0.0112543
0.0117698
0.0123174
0.0128742
0.013375
0.0138043
0.0141267
0.0143575
0.0144834
0.0145361
0.014509
0.0144344
0.0143012
0.0141318
0.0139098
0.0136529
0.013345
0.0130038
0.0126182
0.012209
0.0117711
0.0113264
0.0108753
0.0104399
0.0100268
0.00966174
0.0093213
0.00908066
0.0089577
0.0103136
0.0107949
0.0112869
0.0118084
0.0123439
0.0128329
0.0132623
0.0135985
0.0138549
0.014016
0.0141103
0.0141279
0.0140996
0.014012
0.013888
0.0137095
0.0134958
0.0132294
0.0129295
0.0125831
0.0122123
0.0118103
0.0113995
0.0109788
0.0105706
0.0101798
0.00983184
0.00950219
0.00926429
0.00913745
0.00985978
0.0103248
0.0107988
0.0113003
0.0118205
0.0123029
0.0127363
0.0130883
0.0133713
0.0135672
0.0137023
0.0137635
0.0137805
0.0137377
0.0136583
0.0135228
0.0133515
0.013126
0.0128664
0.0125585
0.012225
0.0118577
0.0114795
0.011088
0.0107055
0.0103356
0.0100036
0.00968386
0.00944838
0.00931806
0.00937999
0.00982876
0.0102888
0.0107753
0.0112852
0.0117652
0.0122058
0.0125758
0.0128863
0.0131173
0.0132929
0.0133975
0.0134597
0.0134617
0.0134272
0.0133349
0.0132067
0.0130223
0.0128034
0.0125339
0.0122377
0.0119048
0.011559
0.0111959
0.0108385
0.0104889
0.0101723
0.00986202
0.00962887
0.00949491
0.00888673
0.0093218
0.00977195
0.010248
0.0107521
0.0112337
0.0116845
0.0120744
0.0124132
0.0126795
0.0128955
0.013043
0.0131497
0.013196
0.0132059
0.0131565
0.0130707
0.0129271
0.0127482
0.0125166
0.0122569
0.0119577
0.0116432
0.0113078
0.0109746
0.0106443
0.0103423
0.0100409
0.00980999
0.00967288
0.0083664
0.00878736
0.00923056
0.00969968
0.0102015
0.0106878
0.0111514
0.0115629
0.0119312
0.0122333
0.0124899
0.0126805
0.0128322
0.0129233
0.0129783
0.0129725
0.01293
0.0128277
0.0126896
0.0124962
0.0122733
0.0120079
0.0117249
0.0114169
0.0111076
0.0107964
0.0105087
0.0102162
0.00998756
0.00984717
0.00783218
0.00824156
0.00868063
0.00914617
0.00964889
0.0101428
0.0106214
0.011056
0.0114549
0.0117932
0.0120905
0.0123242
0.0125207
0.0126566
0.0127566
0.0127943
0.0127949
0.0127339
0.0126362
0.0124807
0.0122943
0.0120622
0.01181
0.011529
0.011243
0.0109503
0.0106765
0.0103925
0.0101661
0.010023
0.00726947
0.00766664
0.0081035
0.008568
0.00907416
0.00957789
0.0100735
0.0105328
0.0109632
0.0113385
0.0116773
0.0119547
0.012197
0.0123784
0.0125245
0.0126068
0.0126517
0.0126329
0.0125767
0.0124599
0.0123106
0.0121123
0.0118913
0.0116373
0.0113747
0.0111005
0.0108407
0.0105652
0.0103412
0.0101953
0.00669237
0.00707976
0.00751637
0.00798226
0.00849409
0.00900979
0.0095241
0.0100095
0.0104724
0.0108854
0.011266
0.0115875
0.0118757
0.012103
0.0122954
0.0124225
0.0125119
0.0125355
0.0125207
0.0124426
0.0123302
0.0121655
0.0119754
0.0117481
0.0115086
0.0112525
0.0110063
0.0107392
0.0105176
0.0103696
0.00608536
0.00646205
0.00689965
0.00736873
0.00788814
0.00841751
0.00895215
0.00946488
0.00996147
0.0104132
0.0108367
0.0112033
0.0115387
0.011813
0.0120532
0.0122264
0.0123617
0.0124289
0.0124568
0.0124184
0.0123439
0.0122134
0.0120548
0.0118546
0.0116385
0.0114007
0.0111682
0.0109097
0.0106908
0.0105405
0.0054634
0.00583176
0.00627172
0.00674582
0.00727445
0.00781913
0.00837555
0.00891689
0.00944814
0.00993939
0.0104064
0.0108187
0.0112016
0.0115237
0.011812
0.0120319
0.0122134
0.0123246
0.0123954
0.0123969
0.0123603
0.012264
0.0121368
0.0119636
0.0117705
0.0115508
0.0113319
0.0110818
0.0108657
0.0107139
0.00481004
0.00516889
0.00561198
0.00609244
0.00663178
0.00719314
0.00777273
0.00834393
0.00891112
0.00944303
0.00995492
0.0104141
0.0108462
0.0112174
0.0115556
0.0118237
0.0120531
0.0122097
0.0123249
0.0123674
0.0123698
0.0123087
0.0122135
0.0120678
0.0118983
0.0116969
0.011492
0.0112505
0.0110375
0.010884
0.00414118
0.00449282
0.00494001
0.00542826
0.00597956
0.00655896
0.00716296
0.00776522
0.00836936
0.00894291
0.0095004
0.0100074
0.0104893
0.0109103
0.011299
0.011616
0.0118938
0.0120963
0.0122562
0.0123401
0.0123817
0.0123557
0.0122927
0.0121744
0.0120283
0.0118452
0.011654
0.0114212
0.0112114
0.0110568
0.00343939
0.0037824
0.00423415
0.00473119
0.00529571
0.0058943
0.00652403
0.00715859
0.00780106
0.00841754
0.0090222
0.0095784
0.0101119
0.0105845
0.0110255
0.0113931
0.0117212
0.0119712
0.0121774
0.012304
0.012386
0.0123962
0.0123662
0.012276
0.0121539
0.0119895
0.0118125
0.0115886
0.0113822
0.0112266
0.00272149
0.00305811
0.00351514
0.0040221
0.00460082
0.00521978
0.00587637
0.00654442
0.00722629
0.00788681
0.00853952
0.00914598
0.00973185
0.0102569
0.010751
0.01117
0.0115488
0.0118471
0.0120999
0.0122697
0.0123923
0.012439
0.0124421
0.01238
0.0122819
0.0121361
0.0119732
0.0117582
0.0115554
0.0113994
0.00196907
0.00229767
0.00276022
0.00327788
0.00387189
0.00451226
0.00519696
0.00589977
0.00662251
0.00732851
0.00803101
0.00868935
0.00932956
0.00990882
0.0104581
0.0109304
0.0113621
0.0117102
0.0120116
0.0122259
0.0123906
0.0124748
0.012512
0.0124788
0.0124053
0.0122787
0.0121303
0.0119246
0.0117257
0.0115691
0.00119989
0.00152267
0.00199129
0.00252056
0.00313065
0.00379349
0.00450736
0.00524614
0.00601086
0.00676355
0.00751685
0.00822822
0.00892365
0.00955824
0.0101635
0.0106899
0.0111751
0.0115738
0.0119242
0.0121835
0.0123907
0.0125127
0.0125842
0.01258
0.0125312
0.0124238
0.0122899
0.0120935
0.0118986
0.0117422
0.000394544
0.000709658
0.00118445
0.00172592
0.00235306
0.00303932
0.00378361
0.00455966
0.00536794
0.00616888
0.00697486
0.00774105
0.00849385
0.0091857
0.0098492
0.0104318
0.0109726
0.0114237
0.011825
0.012131
0.0123821
0.0125432
0.0126501
0.0126758
0.0126525
0.0125647
0.0124459
0.0122591
0.0120686
0.0119121
-0.000428281
-0.000118659
0.000362733
0.000917155
0.00156197
0.00227261
0.00304834
0.00386288
0.0047159
0.00556637
0.00642616
0.00724842
0.00805959
0.00880987
0.00953245
0.0101722
0.0107694
0.0112738
0.0117265
0.0120798
0.0123752
0.0125758
0.0127182
0.0127741
0.0127763
0.0127084
0.0126046
0.0124276
0.0122414
0.0120857
-0.00128898
-0.000986897
-0.000498924
6.88853e-05
0.000732267
0.00146818
0.00227659
0.00313095
0.00403036
0.00493206
0.00584768
0.00672794
0.00759978
0.00841059
0.00919472
0.00989373
0.0105496
0.0111093
0.0116155
0.0120177
0.0123591
0.0126005
0.0127798
0.0128667
0.0128953
0.0128478
0.0127597
0.0125927
0.0124113
0.0122561
-0.00216793
-0.0018712
-0.00137629
-0.000794485
-0.000112069
0.000649995
0.00149205
0.00238749
0.00333453
0.00428882
0.00526147
0.0062011
0.00713469
0.0080073
0.00885389
0.00961329
0.0103287
0.0109445
0.0115048
0.0119566
0.0123445
0.0126271
0.0128436
0.012962
0.0130171
0.0129901
0.0129177
0.0127609
0.0125844
0.0124303
-0.00308652
-0.00279739
-0.00229564
-0.00169954
-0.000997295
-0.000208245
0.000668706
0.0016066
0.00260299
0.00361166
0.00464351
0.00564456
0.00664239
0.00757902
0.00849071
0.00931274
0.0100901
0.0107641
0.0113808
0.0118839
0.0123201
0.0126454
0.0129005
0.0130512
0.0131338
0.0131281
0.013072
0.0129258
0.0127545
0.0126013
-0.00402415
-0.00374045
-0.00323154
-0.00262066
-0.00189828
-0.00108146
-0.000168666
0.000812946
0.00185998
0.00292448
0.0040168
0.00508073
0.00614395
0.00714599
0.00812376
0.00900963
0.00984984
0.010583
0.0112567
0.011812
0.012297
0.0126657
0.0129597
0.0131432
0.0132535
0.0132692
0.0132294
0.0130938
0.0129278
0.0127763
-0.00500326
-0.00472738
-0.0042115
-0.00358566
-0.00284245
-0.00199707
-0.00104721
-2.04669e-05
0.00107902
0.00220122
0.00335631
0.00448531
0.00561656
0.00668637
0.00773304
0.00868513
0.00959083
0.0103854
0.0111184
0.0117279
0.0122636
0.0126771
0.0130115
0.0132289
0.0133679
0.0134058
0.0133831
0.0132586
0.0130982
0.0129479
-0.00600223
-0.00573199
-0.00520884
-0.00456767
-0.00380349
-0.00292885
-0.00194101
-0.000867835
0.000285424
0.00146685
0.00268606
0.00388166
0.00508218
0.00622124
0.00733786
0.00835748
0.00932959
0.0101866
0.0109798
0.0116442
0.0122313
0.0126903
0.0130656
0.0133174
0.0134854
0.0135457
0.0135401
0.0134267
0.013272
0.0131238
-0.00704449
-0.00678247
-0.00625228
-0.00559572
-0.00481002
-0.00390541
-0.00287838
-0.00175733
-0.000548409
0.000694203
0.00197993
0.00324446
0.00451704
0.00572787
0.00691743
0.00800711
0.00904846
0.00997031
0.0108261
0.0115475
0.012188
0.0126942
0.013112
0.0133994
0.0135975
0.013681
0.0136932
0.0135914
0.0134428
0.0132961
-0.00810753
-0.00785153
-0.00731406
-0.00664182
-0.00583461
-0.00489938
-0.00383225
-0.00266201
-0.00139606
-9.06828e-05
0.00126296
0.00259804
0.00394401
0.00522816
0.00649181
0.00765295
0.00876454
0.00975242
0.0106717
0.0114511
0.0121457
0.0126998
0.0131607
0.0134842
0.0137127
0.0138197
0.0138499
0.0137597
0.0136172
0.0134728
-0.00921582
-0.00896862
-0.00842416
-0.0077363
-0.00690708
-0.00594056
-0.00483214
-0.00361122
-0.0022863
-0.000916117
0.000507971
0.00191605
0.00333834
0.0046985
0.00603938
0.00727467
0.00845952
0.0095159
0.0105013
0.0113408
0.0120918
0.0126957
0.0132012
0.0135622
0.0138223
0.0139537
0.0140025
0.0139245
0.0137884
0.0136458
-0.010346
-0.0101054
-0.00955382
-0.00885011
-0.00799891
-0.00700045
-0.0058498
-0.00457685
-0.00319155
-0.00175493
-0.000258942
0.00122381
0.00272382
0.00416163
0.00558099
0.00689193
0.00815112
0.00927729
0.0103297
0.0112305
0.0120386
0.0126931
0.013244
0.0136431
0.0139352
0.0140912
0.0141588
0.0140931
0.0139633
0.0138233
-0.0115235
-0.0112926
-0.0107342
-0.0100147
-0.00914114
-0.00811005
-0.00691595
-0.00558946
-0.00414178
-0.00263661
-0.00106611
0.00049389
0.00207474
0.00359304
0.00509418
0.00648364
0.00782035
0.00901896
0.0101413
0.0111056
0.0119731
0.0126801
0.0132783
0.0137168
0.0140422
0.0142238
0.014311
0.014258
0.014135
0.0139971
-0.0127242
-0.0125009
-0.0119358
-0.0112003
-0.0103042
-0.00923976
-0.0080012
-0.00661975
-0.00510826
-0.00353286
-0.00188635
-0.000247351
0.00141579
0.00301631
0.00460057
0.00607013
0.00748555
0.00875799
0.00995118
0.0109801
0.0119081
0.0126686
0.0133147
0.0137935
0.0141525
0.01436
0.014467
0.0144267
0.0143106
0.0141754
-0.0139747
-0.0137624
-0.013191
-0.0124396
-0.0115204
-0.0104218
-0.00913747
-0.00769953
-0.00612216
-0.00447439
-0.00274914
-0.00102846
0.000720246
0.00240599
0.00407687
0.00562957
0.00712707
0.00847615
0.00974319
0.0108393
0.0118301
0.0126461
0.0133421
0.0138626
0.0142567
0.0144911
0.0146187
0.0145917
0.0144827
0.0143498
-0.0152498
-0.015047
-0.0144694
-0.0137018
-0.0127591
-0.0116253
-0.0102942
-0.00879825
-0.00715356
-0.00543171
-0.0036262
-0.00182203
1.37731e-05
0.00178657
0.00354546
0.005183
0.00676386
0.00819106
0.00953305
0.0106976
0.0117523
0.0126249
0.0133717
0.0139346
0.0143643
0.014626
0.0147744
0.0147608
0.0146588
0.0145288
-0.0165777
-0.0163878
-0.0158044
-0.0150206
-0.0140536
-0.0128838
-0.0115044
-0.009949
-0.0082349
-0.00643676
-0.00454819
-0.00265772
-0.000731382
0.00113163
0.00298223
0.00470783
0.00637562
0.00788392
0.00930402
0.0105396
0.0116609
0.0125922
0.0133918
0.0139988
0.0144655
0.0147555
0.0149255
0.0149258
0.0148315
0.0147038
-0.0179314
-0.0177535
-0.0171647
-0.0163641
-0.0153723
-0.0141652
-0.0127365
-0.01112
-0.00933505
-0.00745891
-0.00548573
-0.00350709
-0.00148863
0.000466506
0.00241033
0.00422579
0.00598188
0.00757288
0.00907229
0.0103804
0.0115692
0.0125606
0.0134139
0.0140659
0.0145701
0.0148889
0.0150807
0.015095
0.0150082
0.0148837
-0.0193396
-0.0191794
-0.0185847
-0.017767
-0.0167492
-0.0155041
-0.0140245
-0.0123456
-0.0104877
-0.00853134
-0.00647065
-0.00440094
-0.00228674
-0.000236121
0.0018048
0.00371352
0.00556169
0.00723857
0.00882062
0.0102039
0.0114633
0.0125169
0.0134261
0.0141246
0.0146679
0.0150165
0.0152311
0.0152601
0.0151813
0.0150594
-0.0207746
-0.0206312
-0.0200313
-0.0191959
-0.0181515
-0.016867
-0.0153356
-0.0135927
-0.0116605
-0.00962224
-0.00747248
-0.00530975
-0.00309816
-0.000950058
0.00118957
0.00319348
0.0051352
0.00689968
0.00856571
0.0100258
0.0113568
0.012474
0.0134402
0.0141863
0.0147692
0.015148
0.0153855
0.0154294
0.0153587
0.0152403
-0.022266
-0.0221438
-0.0215395
-0.020686
-0.0196141
-0.0182896
-0.0167051
-0.0148969
-0.0128884
-0.010766
-0.00852424
-0.00626545
-0.00395268
-0.00170355
0.000538856
0.00264157
0.00468083
0.00653628
0.00828982
0.00982958
0.0112353
0.0124185
0.0134438
0.0142392
0.0148633
0.0152735
0.015535
0.0155944
0.0155325
0.0154171
-0.0237837
-0.0236816
-0.023074
-0.0222024
-0.0211026
-0.0197373
-0.0180988
-0.016224
-0.014138
-0.0119298
-0.00959437
-0.00723754
-0.00482185
-0.00246958
-0.000122656
0.00208091
0.00421932
0.00616762
0.00801015
0.00963132
0.0111131
0.0123637
0.0134493
0.014295
0.0149609
0.015403
0.0156887
0.0157638
0.0157107
0.0155994
-0.0253579
-0.0252814
-0.0246701
-0.0237808
-0.022653
-0.0212465
-0.0195532
-0.0176107
-0.0154453
-0.0131491
-0.010717
-0.00825899
-0.00573642
-0.00327727
-0.000821546
0.0014867
0.00372847
0.00577322
0.00770848
0.00941416
0.0109751
0.0122956
0.0134439
0.0143416
0.015051
0.0155261
0.0158371
0.0159287
0.0158853
0.0157778
-0.0269575
-0.026904
-0.0262912
-0.0253847
-0.0242291
-0.0227814
-0.0210328
-0.0190217
-0.0167757
-0.0143899
-0.0118597
-0.00929833
-0.00666705
-0.00409876
-0.00153236
0.000882783
0.00322968
0.00537292
0.00740257
0.00919463
0.0108362
0.0122282
0.0134402
0.014391
0.0151444
0.0156531
0.0159896
0.0160981
0.0160647
0.0159621
-0.0286133
-0.0285861
-0.0279728
-0.0270505
-0.025868
-0.0243795
-0.0225754
-0.0204949
-0.0181666
-0.0156891
-0.0130575
-0.0103895
-0.0076454
-0.00496403
-0.00228245
0.000243652
0.00270013
0.0049457
0.00707368
0.00895541
0.0106809
0.0121469
0.0134251
0.0144308
0.01523
0.0157734
0.0161366
0.0162628
0.0162403
0.0161426
-0.0302922
-0.0302883
-0.0296766
-0.0287404
-0.0275325
-0.0260038
-0.0241443
-0.0219937
-0.0195823
-0.0170115
-0.0142769
-0.0115003
-0.00864128
-0.00584443
-0.00304561
-0.000406148
0.00216186
0.00451201
0.00674019
0.0087136
0.0105246
0.0120662
0.0134118
0.0144735
0.015319
0.0158976
0.0162878
0.0164321
0.0164209
0.0163292
-0.032027
-0.0320483
-0.0314397
-0.030492
-0.0292606
-0.027693
-0.0257784
-0.0235573
-0.0210612
-0.018395
-0.0155543
-0.0126654
-0.00968723
-0.0067707
-0.0038499
-0.00109277
0.00159149
0.00405028
0.00638283
0.00845138
0.0103512
0.0119711
0.0133866
0.014506
0.0153996
0.0160147
0.0164332
0.0165966
0.0165977
0.0165125
-0.0337836
-0.033826
-0.0332233
-0.0322668
-0.0310143
-0.0294092
-0.02744
-0.0251482
-0.0225666
-0.0198036
-0.0168551
-0.0138517
-0.0107522
-0.00771341
-0.00466836
-0.00179093
0.00101175
0.00358167
0.00602062
0.00818647
0.0101769
0.0118766
0.0133631
0.0145414
0.0154837
0.0161358
0.0165828
0.0167657
0.0167796
0.0167024
-0.0355962
-0.0356613
-0.0350663
-0.034104
-0.0328329
-0.0311922
-0.0291691
-0.0268065
-0.024138
-0.021276
-0.0182164
-0.0150948
-0.0118695
-0.00870401
-0.00552972
-0.0025274
0.000398661
0.00308402
0.00563377
0.00790053
0.00998498
0.0117673
0.0133273
0.0145663
0.015559
0.0162494
0.0167262
0.0169297
0.0169575
0.0168889
-0.0374291
-0.0375135
-0.0369289
-0.0359643
-0.0346777
-0.0330033
-0.0309274
-0.0284939
-0.025738
-0.0227754
-0.019603
-0.0163609
-0.0130074
-0.0097123
-0.00640624
-0.00327617
-0.000224302
0.0025792
0.00524197
0.00761193
0.00979215
0.0116588
0.0132934
0.0145941
0.0156378
0.016367
0.0168738
0.0170984
0.0171406
0.0170823
-0.0393188
-0.039425
-0.0388525
-0.0378889
-0.0365895
-0.0348835
-0.0327557
-0.0302513
-0.0274066
-0.0243413
-0.0210527
-0.0176862
-0.0141997
-0.0107704
-0.0073273
-0.00406461
-0.000881738
0.00204445
0.00482483
0.00730173
0.00958128
0.0115349
0.0132466
0.0146109
0.0157073
0.0164767
0.0170148
0.0172615
0.0173192
0.0172718
-0.041229
-0.041354
-0.0407973
-0.0398378
-0.0385287
-0.0367933
-0.0346149
-0.0320398
-0.0291058
-0.0259363
-0.0225295
-0.0190359
-0.0154139
-0.0118473
-0.00826435
-0.00486591
-0.00154936
0.00150244
0.00440281
0.00698902
0.00936966
0.0114119
0.0132019
0.0146307
0.0157804
0.0165903
0.01716
0.0174292
0.017503
0.0174679
-0.0431976
-0.0433452
-0.042806
-0.0418538
-0.0405376
-0.0387749
-0.0365468
-0.033901
-0.0308763
-0.0276003
-0.0240719
-0.0204472
-0.0166847
-0.0129757
-0.00924736
-0.00570805
-0.00225241
0.000929739
0.00395487
0.00665422
0.00913952
0.0112731
0.0131439
0.014639
0.0158439
0.0166955
0.0172981
0.0175908
0.0176818
0.0176593
-0.0451869
-0.0453561
-0.0448378
-0.0438962
-0.0425759
-0.040788
-0.0385116
-0.0357954
-0.0326795
-0.0292953
-0.0256431
-0.0218844
-0.0179785
-0.0141238
-0.010247
-0.00656342
-0.00296579
0.000349836
0.00350223
0.00631716
0.00890889
0.0111354
0.013088
0.0146505
0.0159109
0.0168048
0.0174404
0.017757
0.0178655
0.0178569
-0.0472371
-0.0474327
-0.0469372
-0.0460089
-0.0446867
-0.0428756
-0.0405517
-0.037765
-0.0345564
-0.0310617
-0.0272819
-0.0233851
-0.0193305
-0.0153248
-0.0112938
-0.00746062
-0.0037154
-0.000261416
0.00302315
0.00595752
0.00865923
0.0109815
0.0130183
0.0146499
0.0159677
0.0169051
0.017575
0.0179164
0.0180434
0.0180487
-0.0493098
-0.0495314
-0.0490627
-0.0481504
-0.0468293
-0.0449969
-0.0426268
-0.0397699
-0.0364679
-0.0328607
-0.0289511
-0.0249129
-0.0207065
-0.0165463
-0.0123576
-0.0083712
-0.00447529
-0.000879657
0.00253967
0.00559594
0.00840935
0.0108288
0.012951
0.0146526
0.0160283
0.0170095
0.0177137
0.0180801
0.018226
0.0182463
-0.0514462
-0.0516993
-0.0512591
-0.0503653
-0.0490471
-0.0471954
-0.0447797
-0.0418522
-0.0384553
-0.0347331
-0.0306898
-0.0265058
-0.0221422
-0.0178219
-0.0134696
-0.00932438
-0.0052721
-0.00152985
0.00202927
0.00521131
0.0081399
0.0106593
0.0128693
0.0146427
0.016078
0.0171044
0.017844
0.0182364
0.0184018
0.018437
-0.0536063
-0.0538918
-0.0534839
-0.0526114
-0.0512988
-0.0494295
-0.0469696
-0.0439717
-0.040479
-0.0366397
-0.03246
-0.0281268
-0.0236026
-0.0191182
-0.0145987
-0.0102909
-0.00607902
-0.00218675
0.0015148
0.00482504
0.00787045
0.0104912
0.01279
0.014636
0.0161315
0.0172033
0.0179783
0.0183967
0.0185818
0.0186328
-0.0558333
-0.0561565
-0.0557824
-0.0549335
-0.0536282
-0.051743
-0.0492392
-0.0461705
-0.0425803
-0.0386212
-0.0343011
-0.029814
-0.0251236
-0.0204696
-0.0157768
-0.0113007
-0.00692347
-0.0028762
0.000972888
0.00441519
0.00758077
0.0103056
0.0126957
0.0146161
0.0161735
0.0172918
0.0181033
0.0185484
0.0187538
0.0188202
-0.0580862
-0.0584477
-0.0581116
-0.0572886
-0.0559934
-0.0540941
-0.0515477
-0.048408
-0.0447192
-0.0406379
-0.0361744
-0.0315299
-0.0266696
-0.021842
-0.016972
-0.0123237
-0.00777779
-0.00357208
0.000427224
0.00400398
0.00729124
0.0101215
0.0126038
0.0145994
0.0162188
0.0173838
0.0182315
0.0187034
0.018929
0.0190113
-0.0604087
-0.0608135
-0.0605166
-0.0597217
-0.0584381
-0.0565262
-0.0539374
-0.0507261
-0.0469369
-0.0427304
-0.0381195
-0.0333127
-0.0282771
-0.02327
-0.0182166
-0.0133905
-0.00867026
-0.0043012
-0.000146387
0.00356864
0.00698072
0.00991898
0.0124962
0.0145685
0.0162517
0.0174644
0.0183491
0.0188482
0.0190944
0.0191923
-0.0627586
-0.0632077
-0.0629533
-0.0621891
-0.0609199
-0.0589973
-0.0563672
-0.0530841
-0.0491931
-0.0448588
-0.0400972
-0.0351244
-0.0299096
-0.024719
-0.0194782
-0.0144703
-0.00957237
-0.00503657
-0.00072365
0.00313198
0.00667024
0.00971789
0.0123908
0.0145405
0.0162868
0.0175469
0.0184682
0.0189943
0.0192608
0.0193746
-0.0651809
-0.0656779
-0.0654668
-0.0647354
-0.0634823
-0.0615504
-0.0588791
-0.0555234
-0.0515286
-0.0470635
-0.042147
-0.0370035
-0.0316039
-0.026224
-0.0207896
-0.0155943
-0.0105132
-0.00580594
-0.00132956
0.00267041
0.00633775
0.00949724
0.0122686
0.014497
0.0163078
0.017616
0.0185744
0.0191278
0.0194147
0.0195438
-0.067632
-0.0681773
-0.0680132
-0.0673168
-0.0660828
-0.0641435
-0.061432
-0.0580032
-0.0539029
-0.0493042
-0.0442293
-0.0389113
-0.0333232
-0.0277497
-0.0221176
-0.0167309
-0.0114636
-0.00658165
-0.00193958
0.00220688
0.00600453
0.00927715
0.0121475
0.0144549
0.0163287
0.0176843
0.0186791
0.0192594
0.0195661
0.0197108
-0.0701582
-0.0707533
-0.0706362
-0.0699773
-0.0687642
-0.0668191
-0.0640672
-0.0605642
-0.0563566
-0.051621
-0.0463837
-0.0408863
-0.0351042
-0.0293316
-0.0234956
-0.017912
-0.0124534
-0.00739239
-0.00257936
0.00171709
0.00564778
0.00903588
0.0120079
0.0143955
0.0163329
0.0177359
0.0187674
0.0193747
0.0197014
0.0198607
-0.0727125
-0.0733583
-0.0732914
-0.072673
-0.071484
-0.0695351
-0.0667438
-0.0631659
-0.0588489
-0.0539735
-0.0485701
-0.0428895
-0.0369097
-0.030934
-0.02489
-0.0191057
-0.0134528
-0.00821013
-0.00322481
0.00122341
0.00528827
0.00879303
0.011867
0.0143347
0.0163337
0.0177833
0.0188506
0.0194847
0.0198308
0.0200051
-0.0753399
-0.0760383
-0.0760218
-0.0754468
-0.0742844
-0.0723332
-0.0695024
-0.0658483
-0.0614201
-0.0564016
-0.050828
-0.0449596
-0.0387767
-0.0325926
-0.0263345
-0.0203442
-0.0144926
-0.00906438
-0.00390209
0.000700945
0.00490269
0.00852632
0.011705
0.0142538
0.0163137
0.0178104
0.0189134
0.0195748
0.0199403
0.0201287
-0.0779926
-0.0787445
-0.0787831
-0.0782552
-0.077123
-0.0751718
-0.0723021
-0.068571
-0.0640292
-0.0588647
-0.053117
-0.0470569
-0.0406676
-0.0342712
-0.0277953
-0.0215955
-0.015543
-0.00992732
-0.00458829
0.000170885
0.0045104
0.00825423
0.0115375
0.0141673
0.0162874
0.0178309
0.0189692
0.0196582
0.0200431
0.0202466
-0.080716
-0.0815221
-0.0816169
-0.0811399
-0.0800411
-0.0780916
-0.0751829
-0.0713734
-0.0667163
-0.0614024
-0.0554765
-0.0492202
-0.0426195
-0.036006
-0.0293067
-0.0228928
-0.0166353
-0.010829
-0.00530977
-0.000392299
0.00408822
0.00795438
0.011345
0.0140571
0.0162387
0.0178306
0.019005
0.019723
0.0201278
0.0203465
-0.0834593
-0.084322
-0.0844786
-0.0840578
-0.0829967
-0.0810514
-0.0781044
-0.0742154
-0.0694402
-0.0639739
-0.0578658
-0.0514098
-0.0445946
-0.0377609
-0.0308355
-0.0242046
-0.0177404
-0.0117424
-0.00604445
-0.000967588
0.0036546
0.00764489
0.0111428
0.0139387
0.0161836
0.0178259
0.0190379
0.0197861
0.0202118
0.020447
-0.0862661
-0.0871877
-0.0874088
-0.0870493
-0.08603
-0.084091
-0.0811055
-0.0771354
-0.0722407
-0.0666187
-0.0603245
-0.0536643
-0.0466302
-0.0395722
-0.0324164
-0.0255648
-0.0188901
-0.0126978
-0.00682044
-0.0015807
0.00318567
0.00730402
0.0109112
0.0137946
0.016106
0.0178029
0.0190549
0.0198359
0.0202835
0.0205351
-0.0890869
-0.0900702
-0.0903642
-0.0900726
-0.0890999
-0.0871697
-0.0841463
-0.0800941
-0.0750766
-0.0692962
-0.0628122
-0.0559446
-0.0486889
-0.0414044
-0.0340173
-0.0269427
-0.0200563
-0.0136689
-0.00761302
-0.00220946
0.00270256
0.00695098
0.0106685
0.0136426
0.0160253
0.017781
0.0190764
0.0198923
0.020363
0.0206328
-0.0919653
-0.0930136
-0.0933841
-0.0931663
-0.0922453
-0.0903263
-0.0872649
-0.0831288
-0.0779873
-0.0720455
-0.0653683
-0.0582892
-0.0508085
-0.0432942
-0.0356737
-0.0283736
-0.0212711
-0.0146864
-0.00844881
-0.00287668
0.00218466
0.00656773
0.0103983
0.0134682
0.0159272
0.0177479
0.01909
0.019944
0.0204389
0.0207269
-0.0948522
-0.0959703
-0.0964271
-0.096291
-0.0954264
-0.0935212
-0.0904221
-0.0862009
-0.0809322
-0.0748266
-0.0679533
-0.0606603
-0.0529522
-0.045207
-0.0373535
-0.0298261
-0.0225063
-0.0157212
-0.00930003
-0.00355606
0.00165721
0.00617776
0.0101233
0.0132934
0.0158346
0.0177254
0.0191185
0.0200128
0.0205329
0.0208402
-0.0977938
-0.0989841
-0.0995311
-0.0994835
-0.0986809
-0.0967917
-0.0936551
-0.089347
-0.0839499
-0.0776781
-0.0706067
-0.0630965
-0.0551586
-0.0471799
-0.0390955
-0.0313371
-0.0237962
-0.0168039
-0.0101935
-0.00426919
0.0011011
0.00576491
0.00982818
0.0131039
0.0157332
0.0176992
0.019147
0.0200838
0.0206294
0.0209548
-0.100741
-0.102009
-0.102659
-0.102708
-0.101971
-0.100101
-0.0969262
-0.0925299
-0.0870012
-0.0805617
-0.073291
-0.065562
-0.057392
-0.0491789
-0.0408634
-0.0328721
-0.025107
-0.0179021
-0.011096
-0.00498614
0.000545973
0.00535588
0.00953962
0.0129245
0.0156466
0.0176916
0.0191972
0.0201774
0.0207486
0.0210918
-0.103742
-0.10509
-0.105847
-0.105999
-0.105333
-0.103483
-0.100271
-0.0957849
-0.0901241
-0.0835149
-0.0760456
-0.0680956
-0.0596917
-0.0512426
-0.0426947
-0.0344656
-0.0264706
-0.0190428
-0.0120326
-0.00572556
-2.60907e-05
0.00493649
0.00924264
0.0127415
0.0155587
0.0176854
0.0192505
0.0202746
0.0208704
0.0212288
-0.106748
-0.108184
-0.109061
-0.109326
-0.108734
-0.106905
-0.103655
-0.099078
-0.0932818
-0.0865023
-0.0788344
-0.0706619
-0.0620216
-0.0533327
-0.0445484
-0.0360764
-0.0278464
-0.0201881
-0.0129651
-0.00645489
-0.000582595
0.0045349
0.00896594
0.0125802
0.0154939
0.0177029
0.0193283
0.0203956