/*--------------------------------*- C++ -*----------------------------------*\
  =========                 |
  \\      /  F ield         | OpenFOAM: The Open Source CFD Toolbox
   \\    /   O peration     | Website:  https://openfoam.org
    \\  /    A nd           | Version:  6.0
     \\/     M anipulation  |
\*---------------------------------------------------------------------------*/
FoamFile
{
    version     2.0;
    format      ascii;
    class       volVectorField;
    location    "9";
    object      U;
}
// * * * * * * * * * * * * * * * * * * * * * * * * * * * * * * * * * * * * * //

dimensions      [0 1 -1 0 0 0 0];

internalField   nonuniform List<vector> 
47000
(
(1.00002 0.000119869 4.40885e-20)
(0.99999 0.000182 8.69147e-20)
(0.999941 0.000185559 -6.53875e-19)
(0.999876 0.000121967 -1.20906e-18)
(0.999804 1.20494e-06 9.05577e-19)
(0.999735 -0.000146307 -5.70702e-19)
(0.999676 -0.00028454 2.24955e-18)
(0.999625 -0.000387262 5.44553e-20)
(0.999577 -0.00044546 3.44892e-19)
(0.99952 -0.000472267 -2.85441e-18)
(0.999445 -0.000493422 1.92647e-18)
(0.999346 -0.000539209 7.11611e-19)
(0.999225 -0.00063353 1.16763e-18)
(0.999091 -0.000789247 1.56736e-18)
(0.998954 -0.00100666 -1.61303e-18)
(0.998827 -0.0012764 -8.8482e-19)
(0.998723 -0.00158346 -1.03489e-19)
(0.998648 -0.00191163 -1.20967e-18)
(0.998607 -0.0022466 -1.95351e-19)
(0.998601 -0.00257837 -3.58984e-19)
(0.998628 -0.00290179 -2.4995e-18)
(0.998685 -0.00321726 -9.67947e-19)
(0.998766 -0.00353079 -1.04836e-18)
(0.998868 -0.00385473 -1.56541e-19)
(0.998988 -0.0042105 6.47247e-19)
(0.999116 -0.00462818 -2.17415e-19)
(0.999292 -0.00519357 5.87682e-19)
(0.999281 -0.00592097 -3.56694e-19)
(1.00004 -0.0072639 5.40196e-20)
(0.994194 -0.0117484 -7.87138e-20)
(1.00002 0.000130085 -9.57943e-20)
(0.999956 -4.84916e-05 -3.01243e-19)
(0.999863 -0.000286708 -1.23653e-20)
(0.999758 -0.000556242 1.55682e-18)
(0.999663 -0.000808097 -7.67004e-19)
(0.99959 -0.000982904 1.98271e-18)
(0.999541 -0.0010423 -1.49046e-18)
(0.999501 -0.000984356 3.85518e-19)
(0.999444 -0.000847411 -2.20989e-18)
(0.999348 -0.000698795 -1.16778e-19)
(0.999198 -0.000611257 -4.08631e-19)
(0.998995 -0.000643828 6.72334e-19)
(0.998751 -0.000827791 -1.6012e-18)
(0.998491 -0.00116479 8.30266e-20)
(0.998241 -0.00163291 6.72504e-19)
(0.998025 -0.0021942 -2.20136e-19)
(0.997862 -0.00280802 1.36627e-18)
(0.997764 -0.00343555 -8.33729e-19)
(0.997733 -0.00404843 -2.17124e-18)
(0.997768 -0.00462655 2.77984e-18)
(0.997861 -0.00516247 1.06791e-18)
(0.998005 -0.00565655 2.79569e-19)
(0.998189 -0.0061197 7.35476e-19)
(0.998405 -0.00656899 6.95665e-19)
(0.998648 -0.00703287 -3.45114e-19)
(0.998894 -0.00754648 -3.22374e-20)
(0.999229 -0.00818516 -2.32876e-19)
(0.999279 -0.00898118 -5.40096e-19)
(0.99958 -0.0102392 4.55369e-19)
(0.998783 -0.0131787 1.60493e-19)
(0.999944 2.31785e-05 1.11548e-19)
(0.999881 -0.000390069 2.70181e-20)
(0.999802 -0.000811211 -3.96249e-20)
(0.999729 -0.00117873 -2.69739e-18)
(0.999687 -0.0014244 2.42822e-19)
(0.999682 -0.0014915 -1.73533e-18)
(0.999712 -0.00136594 1.48716e-18)
(0.999752 -0.00108144 -1.11932e-18)
(0.999775 -0.000715633 2.12521e-18)
(0.999754 -0.000367581 1.28183e-18)
(0.999672 -0.00012912 -5.22149e-19)
(0.999531 -6.54553e-05 -4.33121e-19)
(0.999342 -0.000202432 2.36924e-18)
(0.999132 -0.000530603 -7.62769e-19)
(0.998925 -0.00101407 5.73673e-19)
(0.998747 -0.00160227 3.73667e-19)
(0.998613 -0.00224412 -1.37993e-18)
(0.998536 -0.00289388 2.02957e-18)
(0.998519 -0.00351891 1.23541e-18)
(0.998559 -0.00409732 -2.39057e-19)
(0.99865 -0.00462131 2.09724e-18)
(0.998784 -0.00509208 1.91922e-18)
(0.998952 -0.0055217 1.42346e-18)
(0.999144 -0.00592867 3.52254e-19)
(0.999355 -0.00634165 -5.29252e-19)
(0.999558 -0.00680058 1.20262e-19)
(0.999821 -0.00735599 -7.56581e-19)
(0.999864 -0.00807033 6.51002e-19)
(0.999744 -0.00917643 -1.2893e-19)
(0.999304 -0.011662 -2.61478e-19)
(0.999818 -7.941e-05 -1.55333e-19)
(0.999751 -0.000618484 6.84692e-20)
(0.999677 -0.00111995 6.62989e-19)
(0.999619 -0.0015073 2.02965e-18)
(0.999599 -0.00171048 1.80809e-19)
(0.999625 -0.00168494 2.1411e-19)
(0.999696 -0.0014386 -1.6807e-18)
(0.99979 -0.00102728 -4.73357e-20)
(0.999881 -0.000546936 -1.09412e-18)
(0.999942 -0.000106734 -4.01252e-19)
(0.999953 0.000199306 5.72191e-19)
(0.999913 0.000308826 -3.27771e-19)
(0.999825 0.000202025 -9.45564e-19)
(0.999709 -0.000106094 5.9128e-19)
(0.999582 -0.000574926 3.47189e-20)
(0.999468 -0.00115145 1.54217e-18)
(0.999379 -0.00178349 -4.40924e-19)
(0.999326 -0.00242591 -8.26135e-19)
(0.999313 -0.00304736 -1.1341e-18)
(0.999341 -0.00362808 -3.15175e-18)
(0.999404 -0.0041627 -6.48565e-19)
(0.999497 -0.00465546 -1.75237e-18)
(0.999612 -0.00512201 -1.52032e-18)
(0.999742 -0.00558545 -1.15788e-18)
(0.999881 -0.00607927 1.5305e-18)
(1 -0.00665377 -8.89158e-19)
(1.00015 -0.00735702 4.11012e-19)
(1.00012 -0.00824649 5.94666e-19)
(0.999939 -0.00953359 -5.48291e-19)
(0.999106 -0.0125525 1.53667e-19)
(0.999668 -0.000145577 2.96542e-20)
(0.999586 -0.000722743 -8.31703e-20)
(0.99949 -0.00123729 -6.19684e-20)
(0.999403 -0.00161216 -3.32013e-20)
(0.999351 -0.00178479 -1.14217e-18)
(0.999345 -0.00172353 2.50094e-19)
(0.999392 -0.00145091 -6.1603e-19)
(0.999475 -0.001032 -8.31437e-19)
(0.999575 -0.00056591 1.70332e-18)
(0.999667 -0.00015846 -4.53957e-19)
(0.999732 0.00010371 1.65266e-18)
(0.999761 0.000166168 1.51404e-18)
(0.999753 1.573e-05 -1.28632e-18)
(0.99972 -0.00032911 -1.25786e-18)
(0.999672 -0.000827047 -2.00066e-18)
(0.999625 -0.00142664 -1.54769e-18)
(0.99959 -0.00207863 3.10409e-19)
(0.999575 -0.00274134 -6.76972e-19)
(0.999585 -0.003387 3.11177e-18)
(0.999621 -0.00399902 5.57926e-19)
(0.99968 -0.00457487 -2.3371e-18)
(0.999758 -0.0051211 -7.7773e-19)
(0.99985 -0.00565538 3.95624e-19)
(0.99995 -0.00620199 5.91265e-19)
(1.00005 -0.00679373 -1.10145e-18)
(1.00014 -0.00747881 8.08777e-19)
(1.00023 -0.00829453 2.20673e-19)
(1.00017 -0.0092541 -1.22283e-18)
(1.00004 -0.0105198 2.64211e-19)
(0.999457 -0.013434 6.15555e-20)
(0.999512 -0.000180478 -3.13783e-20)
(0.99941 -0.000745344 1.27092e-19)
(0.999277 -0.00123833 -1.09133e-18)
(0.99914 -0.00159025 -4.55666e-19)
(0.999026 -0.00175019 7.09589e-19)
(0.998953 -0.00169845 2.13559e-18)
(0.998935 -0.00146636 2.12028e-18)
(0.998965 -0.00112007 1.07584e-19)
(0.999031 -0.000752789 5.01256e-19)
(0.999114 -0.00045923 1.54557e-18)
(0.999196 -0.000313222 -1.03934e-18)
(0.999266 -0.000358149 -1.91778e-18)
(0.999317 -0.000599808 4.48429e-19)
(0.999353 -0.00101678 2.30596e-18)
(0.999378 -0.00156853 4.62542e-18)
(0.999403 -0.00220684 -3.62232e-20)
(0.999432 -0.00288677 7.67932e-19)
(0.999473 -0.00357117 2.71802e-18)
(0.999528 -0.00423618 -2.7307e-18)
(0.9996 -0.00486815 1.85862e-18)
(0.999685 -0.00546634 2.33866e-18)
(0.999783 -0.00603786 1.40558e-18)
(0.999888 -0.00659952 1.08832e-18)
(0.999998 -0.00717289 -5.22853e-20)
(1.00011 -0.00778495 -4.06008e-19)
(1.0002 -0.00847395 1.22933e-18)
(1.00028 -0.00926321 5.22475e-19)
(1.00022 -0.0101261 6.93359e-19)
(1.00014 -0.0111918 3.42654e-19)
(1.00001 -0.0137663 -2.83517e-19)
(0.999361 -0.000189866 4.65501e-20)
(0.999242 -0.000715151 2.23901e-19)
(0.999074 -0.00116951 5.70031e-19)
(0.998887 -0.00149597 5.68169e-19)
(0.99871 -0.00165648 1.86665e-18)
(0.998568 -0.00164129 -1.26415e-18)
(0.998479 -0.00148614 -1.70077e-18)
(0.998448 -0.00125305 1.07334e-18)
(0.998468 -0.00102423 -1.70941e-18)
(0.998528 -0.000879445 -6.52129e-19)
(0.998612 -0.000877401 -3.4099e-18)
(0.998708 -0.00104941 2.26805e-18)
(0.998806 -0.00139396 1.07861e-18)
(0.998902 -0.00188727 3.17175e-19)
(0.998995 -0.00249039 -2.8404e-18)
(0.99909 -0.00315906 5.0856e-19)
(0.999188 -0.00385322 -9.85005e-19)
(0.999292 -0.00454041 -3.73899e-18)
(0.999404 -0.00520064 -1.1047e-19)
(0.999525 -0.00582284 -3.37322e-18)
(0.999653 -0.00640744 -3.14523e-18)
(0.999787 -0.00696127 -1.26349e-18)
(0.999924 -0.00749942 -9.37367e-19)
(1.00006 -0.00804008 -1.05382e-18)
(1.00019 -0.00860473 -6.33822e-19)
(1.0003 -0.00922322 -2.98067e-18)
(1.00041 -0.00991181 1.45352e-19)
(1.00036 -0.0106245 1.00093e-18)
(1.00029 -0.0114842 1.30052e-19)
(1.00052 -0.013791 2.96113e-19)
(0.999226 -0.000179467 1.73313e-19)
(0.999091 -0.000653455 -4.41642e-19)
(0.998898 -0.00106432 -6.79248e-19)
(0.998675 -0.00136835 -4.48113e-19)
(0.998452 -0.00153953 -5.36997e-19)
(0.998256 -0.00157555 -7.1068e-19)
(0.998113 -0.00151307 1.29119e-18)
(0.998031 -0.00140683 -2.84894e-18)
(0.998014 -0.0013258 -1.09351e-18)
(0.998054 -0.00133369 2.21674e-18)
(0.998138 -0.00147411 3.09555e-18)
(0.998255 -0.00176693 -1.26246e-18)
(0.998392 -0.00220423 -3.59686e-18)
(0.99854 -0.0027607 -1.34962e-18)
(0.998694 -0.00339963 6.9968e-20)
(0.998852 -0.00408108 1.73142e-19)
(0.999013 -0.00477 4.48043e-19)
(0.999178 -0.00543868 -8.61518e-19)
(0.999345 -0.00607088 3.04246e-18)
(0.999515 -0.00665803 2.26838e-18)
(0.999687 -0.00720173 2.04872e-18)
(0.999859 -0.0077088 5.56786e-19)
(1.00003 -0.00819323 -1.22444e-18)
(1.00019 -0.00867117 -6.4376e-19)
(1.00034 -0.0091612 1.23613e-18)
(1.00047 -0.009689 2.04318e-18)
(1.00058 -0.0102702 -1.92371e-18)
(1.00053 -0.0108522 -1.58685e-18)
(1.00046 -0.0115631 2.54961e-19)
(1.00092 -0.0137036 -1.5778e-19)
(0.999109 -0.000154989 3.29044e-21)
(0.998961 -0.00057797 1.69874e-19)
(0.998756 -0.000950257 8.06202e-19)
(0.998514 -0.00123949 -1.7018e-20)
(0.998266 -0.00143006 -8.54032e-19)
(0.99804 -0.0015246 -1.10575e-19)
(0.997863 -0.00155814 -1.04315e-18)
(0.997752 -0.00157663 1.54866e-18)
(0.997712 -0.00163544 2.03078e-19)
(0.997742 -0.00178298 -2.32577e-18)
(0.997831 -0.00204919 -3.66199e-18)
(0.997968 -0.00244409 -1.90993e-18)
(0.998137 -0.00295475 3.12143e-18)
(0.998328 -0.00355529 2.59184e-18)
(0.998532 -0.00421175 -1.82838e-18)
(0.998743 -0.00488868 -4.02715e-18)
(0.998957 -0.00555604 5.61514e-19)
(0.999171 -0.0061907 3.14109e-18)
(0.999385 -0.00678011 -3.16452e-18)
(0.999596 -0.00731823 1.94199e-18)
(0.999803 -0.00780808 -1.77073e-18)
(1 -0.00825698 -3.22477e-19)
(1.0002 -0.00867875 9.4989e-19)
(1.00038 -0.0090889 1.41143e-18)
(1.00054 -0.00950519 -2.61582e-19)
(1.00067 -0.00995185 -1.38012e-18)
(1.00078 -0.0104464 -3.18016e-19)
(1.00073 -0.0109332 2.98854e-20)
(1.00065 -0.0115482 -3.15836e-20)
(1.00124 -0.0135923 -8.75352e-20)
(0.999006 -0.000122867 -3.87094e-20)
(0.998849 -0.00050288 1.00409e-19)
(0.998643 -0.00084789 -2.68215e-19)
(0.9984 -0.00113289 -1.26925e-19)
(0.998146 -0.0013507 -9.27571e-19)
(0.997911 -0.00150676 -2.70951e-19)
(0.997724 -0.00163285 1.45302e-19)
(0.997601 -0.00176577 -1.16112e-18)
(0.997555 -0.00194815 -6.21394e-19)
(0.997585 -0.00221486 4.02904e-19)
(0.997683 -0.00258433 8.59772e-19)
(0.997839 -0.00305871 1.91877e-18)
(0.998035 -0.00362158 1.39252e-19)
(0.998261 -0.00424741 -5.17985e-18)
(0.998503 -0.00490536 -1.08207e-18)
(0.998755 -0.00556451 5.45757e-19)
(0.999009 -0.00619957 2.45779e-18)
(0.999261 -0.00679182 -9.06978e-19)
(0.999508 -0.00733213 1.83827e-18)
(0.999749 -0.00781702 2.28642e-18)
(0.99998 -0.00825103 1.25144e-18)
(1.0002 -0.00864236 -7.03955e-19)
(1.00041 -0.00900519 -1.43673e-18)
(1.00059 -0.00935518 1.16238e-18)
(1.00076 -0.00971015 -1.03004e-18)
(1.00088 -0.0100938 2.57516e-18)
(1.00098 -0.0105255 -3.47618e-19)
(1.00092 -0.010947 1.92357e-19)
(1.00082 -0.0115015 -6.89772e-19)
(1.00149 -0.0134926 8.85588e-20)
(0.998913 -8.78997e-05 -1.65122e-19)
(0.998752 -0.000437222 -7.32061e-20)
(0.998554 -0.000769361 -3.29222e-20)
(0.998321 -0.00106168 5.79889e-19)
(0.998077 -0.00131357 1.49106e-18)
(0.99785 -0.00153163 1.86545e-18)
(0.997669 -0.00174346 1.68698e-18)
(0.997552 -0.00197714 2.16094e-20)
(0.997512 -0.0022641 2.15984e-18)
(0.99755 -0.00262785 -5.65635e-19)
(0.997661 -0.00307763 -4.10371e-20)
(0.997834 -0.00360974 2.99774e-18)
(0.998053 -0.0042057 3.38763e-18)
(0.998305 -0.00484106 7.65243e-19)
(0.998576 -0.00548838 2.17288e-18)
(0.998857 -0.00612107 3.79701e-19)
(0.999138 -0.00671831 -1.32862e-18)
(0.999416 -0.00726536 2.17816e-18)
(0.999685 -0.00775629 7.49646e-19)
(0.999944 -0.00818991 -4.86366e-18)
(1.00019 -0.00857227 7.70072e-19)
(1.00042 -0.00891249 1.05807e-18)
(1.00063 -0.00922531 1.34082e-19)
(1.00081 -0.00952669 -1.83357e-18)
(1.00097 -0.00983458 7.03906e-19)
(1.00108 -0.0101722 -2.20695e-18)
(1.00117 -0.0105599 1.13622e-18)
(1.0011 -0.0109364 -5.9196e-19)
(1.00098 -0.0114524 -2.21754e-19)
(1.00168 -0.0134159 1.18465e-20)
(0.998823 -5.41585e-05 1.15558e-19)
(0.998665 -0.000386462 -1.67084e-19)
(0.998479 -0.000720468 4.201e-19)
(0.998264 -0.0010312 -3.77133e-19)
(0.99804 -0.00132269 -1.41582e-18)
(0.997833 -0.00160158 -7.36973e-19)
(0.99767 -0.00189098 -3.34557e-18)
(0.997569 -0.00221111 1.80364e-18)
(0.997544 -0.00258396 -2.72498e-19)
(0.997597 -0.00302394 2.10188e-19)
(0.997723 -0.00353335 5.30199e-19)
(0.997912 -0.00410444 -4.02714e-18)
(0.998149 -0.00471786 -2.84692e-18)
(0.99842 -0.00535083 3.29003e-18)
(0.99871 -0.00597933 4.61166e-19)
(0.99901 -0.00658088 1.28234e-18)
(0.99931 -0.00713865 -2.54061e-18)
(0.999603 -0.00764146 -1.87234e-18)
(0.999885 -0.00808615 1.36915e-18)
(1.00015 -0.00847355 1.56953e-18)
(1.0004 -0.008811 -1.98909e-18)
(1.00063 -0.00910841 -1.04301e-18)
(1.00084 -0.00938093 1.43844e-18)
(1.00102 -0.0096447 6.16207e-19)
(1.00116 -0.00991756 8.64457e-19)
(1.00126 -0.010222 4.04577e-19)
(1.00133 -0.0105785 3.35072e-19)
(1.00125 -0.0109231 1.4025e-18)
(1.00113 -0.0114132 -4.18515e-19)
(1.00183 -0.0133637 -1.83755e-19)
(0.998734 -2.3744e-05 -3.47577e-20)
(0.99858 -0.000352225 5.3303e-19)
(0.99841 -0.000701597 3.69469e-19)
(0.998217 -0.00104024 -4.02327e-20)
(0.998019 -0.00137528 -8.5777e-20)
(0.997839 -0.00171271 1.03574e-18)
(0.997701 -0.00207123 1.36333e-18)
(0.997623 -0.00246427 -1.23019e-18)
(0.997618 -0.00290618 -1.42456e-18)
(0.997688 -0.00340436 -5.14914e-19)
(0.99783 -0.00395612 -2.28642e-19)
(0.998034 -0.00455116 2.59758e-18)
(0.998285 -0.0051702 -4.55294e-18)
(0.99857 -0.0057925 -7.16621e-19)
(0.998873 -0.00639736 -6.94707e-19)
(0.999185 -0.00696603 1.05085e-18)
(0.999494 -0.00748525 2.48021e-18)
(0.999796 -0.00794685 3.91425e-18)
(1.00008 -0.00835004 -4.77907e-18)
(1.00035 -0.00869731 3.0256e-19)
(1.0006 -0.00899697 2.32659e-18)
(1.00083 -0.0092595 1.61571e-18)
(1.00103 -0.00950026 2.95976e-20)
(1.0012 -0.00973528 5.19197e-19)
(1.00133 -0.00998204 1.63144e-18)
(1.00142 -0.010262 1.20606e-18)
(1.00148 -0.0105956 2.09723e-18)
(1.00139 -0.0109161 -1.23856e-19)
(1.00125 -0.0113876 6.84011e-19)
(1.00196 -0.013333 1.57239e-19)
(0.998638 1.81108e-06 -5.63172e-20)
(0.998494 -0.000334472 -3.02795e-19)
(0.99834 -0.000710166 -5.44233e-19)
(0.998171 -0.00108411 5.70293e-20)
(0.998 -0.00146499 9.38941e-19)
(0.997849 -0.00185784 3.6963e-19)
(0.99774 -0.00227726 -8.73188e-20)
(0.997688 -0.00273106 6.46135e-19)
(0.997705 -0.00322758 1.14347e-18)
(0.997795 -0.00376907 6.4734e-19)
(0.997952 -0.00434943 6.86802e-19)
(0.99817 -0.00495703 -3.42115e-20)
(0.998432 -0.00557329 1.38086e-18)
(0.998726 -0.00617968 6.94843e-19)
(0.999037 -0.00675867 1.47317e-18)
(0.999356 -0.00729482 -9.14536e-19)
(0.999671 -0.00777792 1.00487e-20)
(0.999976 -0.00820235 -1.78772e-18)
(1.00026 -0.00856924 -9.51019e-19)
(1.00054 -0.00888237 -5.03565e-20)
(1.00078 -0.00915073 6.85968e-19)
(1.001 -0.00938512 -1.51676e-18)
(1.0012 -0.00960087 -5.28989e-19)
(1.00136 -0.0098137 -7.3451e-19)
(1.00148 -0.0100405 -1.49787e-18)
(1.00155 -0.0103017 -5.75918e-19)
(1.0016 -0.0106174 -3.27338e-18)
(1.00151 -0.0109185 -1.3227e-18)
(1.00137 -0.0113753 -1.67852e-19)
(1.00206 -0.0133205 2.12673e-19)
(0.998533 2.24605e-05 -4.18608e-20)
(0.998402 -0.000331227 -2.48015e-19)
(0.998263 -0.00074133 -3.81505e-20)
(0.998118 -0.00115559 -6.73306e-19)
(0.997975 -0.00158299 6.2681e-20)
(0.997854 -0.00202751 -1.61361e-19)
(0.997773 -0.00250016 2.84998e-19)
(0.997748 -0.00300418 6.0611e-19)
(0.997788 -0.00354339 -1.02292e-18)
(0.997896 -0.00411637 5.17465e-19)
(0.998069 -0.0047149 1.01668e-18)
(0.998297 -0.00532687 -7.51227e-19)
(0.998569 -0.00593487 2.54701e-18)
(0.998869 -0.00652256 -2.34549e-19)
(0.999186 -0.00707534 -3.38244e-18)
(0.999508 -0.00758066 -2.0224e-18)
(0.999825 -0.00803087 -8.56145e-19)
(1.00013 -0.00842247 -9.22992e-19)
(1.00042 -0.0087581 2.49385e-18)
(1.00069 -0.00904247 -1.59484e-19)
(1.00093 -0.00928504 -2.66989e-18)
(1.00115 -0.00949667 2.17946e-18)
(1.00133 -0.00969249 2.06133e-18)
(1.00149 -0.00988777 7.73307e-19)
(1.0016 -0.0100987 -9.40157e-19)
(1.00167 -0.0103448 -6.06718e-20)
(1.0017 -0.0106455 2.66081e-18)
(1.00161 -0.01093 1.78151e-18)
(1.00147 -0.0113747 -1.50957e-19)
(1.00215 -0.0133222 -2.13358e-19)
(0.998417 3.82927e-05 5.45498e-20)
(0.998302 -0.000340298 4.28366e-19)
(0.998177 -0.000789796 -2.70928e-19)
(0.998053 -0.00124715 5.56863e-19)
(0.997936 -0.00172037 -2.10052e-19)
(0.997843 -0.00221241 -1.86048e-18)
(0.99779 -0.00273123 3.14672e-19)
(0.99779 -0.00327654 -1.80893e-18)
(0.997852 -0.00384881 -5.91881e-19)
(0.997978 -0.00444417 -1.06969e-18)
(0.998165 -0.00505323 -2.45094e-18)
(0.998404 -0.00566404 -5.85124e-19)
(0.998682 -0.00626056 4.83096e-19)
(0.998988 -0.00682858 -6.62099e-19)
(0.999308 -0.00735613 4.82331e-18)
(0.999633 -0.00783312 3.90193e-19)
(0.999951 -0.00825406 5.6689e-19)
(1.00026 -0.0086171 1.26843e-18)
(1.00055 -0.00892607 -3.857e-19)
(1.00081 -0.00918637 2.07217e-18)
(1.00105 -0.00940767 9.07798e-19)
(1.00127 -0.00960073 9.35699e-19)
(1.00145 -0.00978038 -2.11245e-18)
(1.00159 -0.00996136 3.74007e-19)
(1.0017 -0.0101591 2.57593e-19)
(1.00176 -0.0103923 -1.45505e-18)
(1.00179 -0.0106801 -6.74786e-19)
(1.00169 -0.01095 -3.69675e-19)
(1.00156 -0.011384 3.31275e-19)
(1.00223 -0.0133358 -1.83305e-20)
(0.998291 5.03593e-05 -7.15476e-20)
(0.998191 -0.000358534 -1.46967e-19)
(0.998079 -0.000849908 6.75804e-19)
(0.997973 -0.00135117 -7.99093e-19)
(0.99788 -0.00186833 -3.15629e-19)
(0.997812 -0.00240351 9.03452e-19)
(0.997785 -0.00296218 -1.07645e-18)
(0.997809 -0.00354133 1.58235e-18)
(0.997891 -0.00413909 2.07077e-18)
(0.998034 -0.00475006 1.87162e-19)
(0.998233 -0.00536438 1.67687e-18)
(0.998482 -0.00597062 -1.28154e-18)
(0.998767 -0.0065542 -1.85597e-18)
(0.999077 -0.00710292 -7.82235e-19)
(0.9994 -0.00760708 -6.71063e-19)
(0.999726 -0.0080587 2.41746e-18)
(1.00005 -0.00845403 -9.42657e-19)
(1.00035 -0.00879255 -2.36811e-18)
(1.00064 -0.00907898 5.17592e-19)
(1.00091 -0.00931918 -3.4138e-18)
(1.00115 -0.00952287 5.68767e-20)
(1.00136 -0.00970061 -3.04435e-18)
(1.00153 -0.00986688 2.45233e-18)
(1.00168 -0.0100358 -1.32054e-18)
(1.00178 -0.0102223 -4.37426e-19)
(1.00183 -0.0104441 6.71126e-19)
(1.00186 -0.0107203 -2.85971e-19)
(1.00177 -0.0109769 -1.12528e-18)
(1.00164 -0.0114014 1.20935e-19)
(1.0023 -0.0133588 4.29738e-20)
(0.998152 5.93825e-05 5.60684e-20)
(0.998069 -0.000383417 -1.79039e-19)
(0.997967 -0.000916829 -1.05655e-20)
(0.997878 -0.00146121 1.27376e-18)
(0.997805 -0.00201963 8.53947e-19)
(0.99776 -0.00259355 -1.03093e-19)
(0.997756 -0.00318644 2.48422e-18)
(0.997801 -0.00379331 -8.5793e-19)
(0.997902 -0.00441072 -1.71736e-18)
(0.99806 -0.00503242 -6.08798e-19)
(0.998271 -0.00564854 -9.86189e-19)
(0.998528 -0.00624839 -1.13577e-18)
(0.998819 -0.00681888 1.35697e-18)
(0.999133 -0.00734954 2.38344e-18)
(0.999459 -0.00783271 -4.64108e-19)
(0.999788 -0.00826211 3.14112e-19)
(1.00011 -0.00863541 -6.38227e-19)
(1.00042 -0.00895314 1.53546e-18)
(1.00071 -0.00922066 -1.32017e-18)
(1.00097 -0.00944413 1.69368e-18)
(1.00121 -0.00963321 -4.84743e-19)
(1.00142 -0.00979821 -1.88849e-19)
(1.0016 -0.00995319 -7.1226e-19)
(1.00174 -0.0101118 9.55031e-19)
(1.00184 -0.0102883 7.20709e-19)
(1.0019 -0.0104998 6.7439e-19)
(1.00193 -0.0107654 -3.34747e-19)
(1.00184 -0.0110099 6.65688e-19)
(1.00171 -0.0114258 2.301e-19)
(1.00237 -0.0133902 5.37159e-20)
(0.998003 6.6617e-05 -4.60485e-20)
(0.997934 -0.000412066 -1.24598e-19)
(0.997841 -0.000986148 -2.04511e-19)
(0.997766 -0.00157165 -6.75485e-19)
(0.997711 -0.0021681 -5.51567e-20)
(0.997686 -0.00277645 8.21963e-19)
(0.997702 -0.00339866 -1.74182e-18)
(0.997767 -0.00402834 4.74085e-19)
(0.997884 -0.00466101 1.15002e-18)
(0.998056 -0.00529009 1.04838e-18)
(0.998278 -0.00590599 9.44194e-19)
(0.998543 -0.00649888 -7.84363e-22)
(0.99884 -0.00705701 2.65828e-19)
(0.999159 -0.00757148 -2.28956e-18)
(0.999489 -0.00803633 2.50788e-18)
(0.99982 -0.0084467 -1.01927e-18)
(1.00014 -0.00880138 -9.83686e-20)
(1.00046 -0.00910169 -8.39119e-19)
(1.00075 -0.0093535 1.11751e-18)
(1.00102 -0.00956309 -1.3104e-18)
(1.00126 -0.00974003 -1.18148e-18)
(1.00147 -0.00989433 8.50052e-19)
(1.00165 -0.0100397 -2.34801e-18)
(1.00179 -0.0101893 -1.52597e-18)
(1.00189 -0.0103568 6.31877e-19)
(1.00195 -0.0105589 -1.2243e-18)
(1.00199 -0.0108148 -4.47565e-19)
(1.00191 -0.0110481 1.27239e-19)
(1.00178 -0.0114561 -3.06068e-20)
(1.00244 -0.0134287 -2.46526e-19)
(0.997844 7.27316e-05 1.71502e-20)
(0.997788 -0.000442584 2.64616e-19)
(0.997702 -0.00105464 -5.1251e-19)
(0.997639 -0.00167846 5.72871e-19)
(0.997599 -0.00230944 -1.87777e-19)
(0.997591 -0.00294818 -1.63183e-18)
(0.997625 -0.0035955 5.49521e-19)
(0.997706 -0.00424405 -3.6412e-19)
(0.997839 -0.00488876 -4.69292e-19)
(0.998023 -0.00552305 -4.56768e-19)
(0.998255 -0.00613777 4.72072e-19)
(0.998528 -0.00672395 2.05509e-18)
(0.998832 -0.00727107 -1.15538e-18)
(0.999156 -0.00777155 1.35736e-18)
(0.99949 -0.00822087 -2.42892e-18)
(0.999826 -0.0086153 -9.74947e-19)
(1.00015 -0.00895455 1.42383e-18)
(1.00047 -0.0092405 1.21516e-18)
(1.00077 -0.00947938 -7.29651e-19)
(1.00104 -0.00967756 3.24397e-18)
(1.00129 -0.00984443 3.17337e-18)
(1.0015 -0.00998971 -1.48856e-18)
(1.00168 -0.0101267 1.96665e-18)
(1.00183 -0.0102683 7.60926e-19)
(1.00194 -0.0104276 -1.41311e-18)
(1.002 -0.0106211 9.57223e-19)
(1.00204 -0.0108681 1.81924e-18)
(1.00197 -0.011091 3.63798e-19)
(1.00185 -0.011492 -2.18577e-19)
(1.0025 -0.0134739 1.73922e-19)
(0.997677 7.87297e-05 1.18967e-19)
(0.99763 -0.000472819 3.41155e-20)
(0.997551 -0.0011196 3.7306e-19)
(0.997497 -0.00177846 -5.24445e-19)
(0.99747 -0.00244039 3.17496e-19)
(0.997477 -0.00310579 -2.02433e-19)
(0.997526 -0.00377466 8.5311e-19)
(0.997622 -0.00443903 -3.02802e-19)
(0.997768 -0.00509355 -4.21545e-19)
(0.997964 -0.00573181 -5.5142e-19)
(0.998206 -0.00634519 -1.78499e-18)
(0.998487 -0.00692551 5.98692e-19)
(0.998797 -0.00746335 3.4458e-19)
(0.999127 -0.00795222 6.31126e-19)
(0.999467 -0.00838879 -2.63541e-19)
(0.999809 -0.00877024 9.39393e-19)
(1.00014 -0.00909696 -2.07468e-18)
(1.00046 -0.00937127 -2.24464e-18)
(1.00077 -0.00959968 3.34992e-20)
(1.00105 -0.00978854 -2.15224e-18)
(1.0013 -0.00994708 4.53376e-20)
(1.00152 -0.0100847 1.39423e-18)
(1.00171 -0.0102145 -9.62299e-19)
(1.00186 -0.0103489 8.94011e-20)
(1.00197 -0.0105008 6.26811e-19)
(1.00204 -0.0106863 -3.44569e-19)
(1.00209 -0.0109249 -1.92942e-18)
(1.00203 -0.0111383 -9.23401e-19)
(1.00192 -0.0115329 2.66343e-19)
(1.00256 -0.0135251 1.97629e-19)
(0.997501 8.49453e-05 -8.23255e-20)
(0.997462 -0.000501707 8.80921e-20)
(0.997388 -0.00117945 -1.32053e-19)
(0.997342 -0.00186983 3.17706e-19)
(0.997326 -0.00255927 -4.37106e-19)
(0.997346 -0.00324802 -2.49486e-19)
(0.997408 -0.0039355 -1.1562e-18)
(0.997517 -0.00461336 1.32269e-18)
(0.997675 -0.00527617 1.89554e-18)
(0.997882 -0.00591782 4.63937e-19)
(0.998133 -0.00653024 3.63958e-19)
(0.998422 -0.00710594 -2.33796e-19)
(0.99874 -0.00763642 2.75432e-19)
(0.999076 -0.00811607 -1.08375e-19)
(0.999423 -0.00854256 1.54703e-18)
(0.999771 -0.00891377 6.23644e-19)
(1.00011 -0.00923061 7.82159e-19)
(1.00044 -0.00949571 1.36009e-19)
(1.00075 -0.00971578 1.7799e-18)
(1.00104 -0.00989714 1.07837e-18)
(1.0013 -0.0100488 -1.57693e-18)
(1.00153 -0.01018 -1.12678e-18)
(1.00172 -0.0103035 7.82264e-19)
(1.00188 -0.0104314 1.699e-19)
(1.002 -0.0105764 1.37043e-19)
(1.00208 -0.0107545 -1.30447e-19)
(1.00213 -0.0109854 1.11077e-18)
(1.00208 -0.0111899 4.80217e-19)
(1.00198 -0.0115787 -1.23407e-18)
(1.00262 -0.0135826 -2.42954e-20)
(0.997318 9.20038e-05 3.52225e-20)
(0.997284 -0.000527911 2.51939e-20)
(0.997214 -0.00123296 2.80575e-19)
(0.997175 -0.00195135 -1.53504e-19)
(0.997169 -0.00266507 -6.04888e-19)
(0.997199 -0.00337426 9.69331e-20)
(0.997273 -0.00407793 -1.11702e-18)
(0.997394 -0.00476758 2.57032e-19)
(0.997563 -0.00543778 -1.38009e-18)
(0.997779 -0.00608277 -4.4034e-19)
(0.998039 -0.00669499 -2.99178e-19)
(0.998337 -0.00726753 4.84846e-19)
(0.998662 -0.00779266 -3.9214e-19)
(0.999007 -0.00826545 6.03928e-20)
(0.999361 -0.00868438 -4.04616e-19)
(0.999717 -0.00904784 -1.51432e-18)
(1.00007 -0.00935717 -1.36902e-19)
(1.0004 -0.00961521 1.08239e-18)
(1.00072 -0.0098288 -1.23531e-18)
(1.00102 -0.0100042 8.86091e-19)
(1.00129 -0.0101503 -2.14027e-18)
(1.00153 -0.010276 1.19537e-18)
(1.00173 -0.0103938 -1.65271e-18)
(1.0019 -0.0105159 5.50608e-19)
(1.00203 -0.0106545 -4.54014e-19)
(1.00211 -0.0108257 4.8101e-21)
(1.00218 -0.0110495 -6.67924e-19)
(1.00214 -0.0112457 -6.46578e-19)
(1.00205 -0.0116294 6.10331e-19)
(1.00269 -0.0136455 6.58529e-20)
(0.997129 9.98967e-05 -8.52587e-20)
(0.997098 -0.00055113 -3.29622e-19)
(0.997032 -0.00127974 -2.85304e-19)
(0.996998 -0.00202279 1.25116e-19)
(0.996999 -0.00275788 1.73471e-19)
(0.997039 -0.00348503 9.7303e-19)
(0.997123 -0.004203 1.68465e-18)
(0.997254 -0.00490321 -2.01043e-18)
(0.997433 -0.00558033 3.24537e-19)
(0.997659 -0.00622896 -2.20995e-19)
(0.997928 -0.00684196 2.16558e-18)
(0.998235 -0.0074129 -8.28806e-19)
(0.998568 -0.00793465 -2.52744e-19)
(0.998921 -0.00840281 1.55993e-19)
(0.999284 -0.00881649 -1.92164e-18)
(0.99965 -0.00917448 5.93228e-19)
(1.00001 -0.00947841 4.19213e-19)
(1.00036 -0.00973126 2.76331e-19)
(1.00069 -0.00993995 4.52464e-19)
(1.00099 -0.0101107 -5.1579e-19)
(1.00127 -0.0102522 5.93372e-19)
(1.00152 -0.0103733 -1.02579e-18)
(1.00174 -0.0104862 1.44251e-18)
(1.00192 -0.0106029 1.27617e-18)
(1.00205 -0.0107356 1.66563e-18)
(1.00215 -0.0109003 -9.43446e-20)
(1.00222 -0.0111174 2.44936e-19)
(1.0022 -0.011306 7.43438e-20)
(1.00212 -0.0116848 -2.34146e-19)
(1.00275 -0.0137144 -1.6101e-19)
(0.996935 0.000108946 7.11931e-20)
(0.996905 -0.000570649 1.97703e-19)
(0.996841 -0.00131953 -2.01635e-20)
(0.996812 -0.00208414 6.49932e-20)
(0.99682 -0.00283803 -2.24129e-20)
(0.996868 -0.00358107 -6.05037e-19)
(0.996961 -0.00431186 -6.33166e-20)
(0.997101 -0.00502183 7.75051e-19)
(0.997289 -0.00570576 1.01525e-18)
(0.997525 -0.00635857 1.9416e-18)
(0.997803 -0.00697349 6.19518e-19)
(0.998118 -0.00754443 6.92407e-19)
(0.99846 -0.00806471 -6.63248e-19)
(0.998822 -0.00853031 -1.09505e-18)
(0.999195 -0.00894085 2.84239e-18)
(0.999571 -0.00929539 1.40798e-18)
(0.999941 -0.00959577 -2.60695e-18)
(1.0003 -0.00984505 -1.44352e-18)
(1.00064 -0.0100502 -2.56246e-18)
(1.00096 -0.0102175 -1.10361e-18)
(1.00125 -0.0103553 1.22712e-18)
(1.00151 -0.0104724 1.99265e-18)
(1.00174 -0.0105809 -2.81151e-18)
(1.00193 -0.0106926 -5.20928e-19)
(1.00208 -0.0108198 -1.42562e-18)
(1.00218 -0.0109783 4.43235e-19)
(1.00227 -0.0111892 -8.85782e-19)
(1.00225 -0.0113705 -8.15414e-19)
(1.00218 -0.0117449 2.85458e-19)
(1.00282 -0.0137885 -1.03444e-19)
(0.996735 0.000118911 9.78892e-21)
(0.996704 -0.000586709 1.20613e-19)
(0.996643 -0.00135271 1.74243e-19)
(0.996619 -0.00213607 -3.19389e-19)
(0.996631 -0.00290657 2.02501e-19)
(0.996686 -0.00366382 3.10905e-19)
(0.996787 -0.00440634 -5.17405e-19)
(0.996936 -0.00512559 5.26907e-19)
(0.997133 -0.00581646 3.33365e-20)
(0.997377 -0.00647415 -2.07032e-18)
(0.997664 -0.00709216 -8.93194e-19)
(0.997988 -0.00766464 -1.03951e-18)
(0.99834 -0.00818524 1.65623e-19)
(0.998712 -0.00865017 8.34226e-19)
(0.999096 -0.00905946 -1.56607e-18)
(0.999483 -0.00941234 -7.12459e-19)
(0.999865 -0.00971079 2.3052e-18)
(1.00024 -0.00995791 2.36488e-18)
(1.00059 -0.0101608 3.68182e-19)
(1.00092 -0.0103254 1.83518e-18)
(1.00123 -0.0104603 -9.91774e-19)
(1.0015 -0.0105739 9.84678e-20)
(1.00174 -0.0106785 4.06533e-18)
(1.00194 -0.0107856 -1.42673e-18)
(1.0021 -0.0109075 -3.20006e-19)
(1.00222 -0.0110602 -5.73039e-19)
(1.00231 -0.0112651 -1.37107e-19)
(1.00231 -0.0114395 2.12402e-18)
(1.00225 -0.0118099 3.67239e-19)
(1.00288 -0.0138685 1.90324e-19)
(0.996532 0.000129941 -1.692e-20)
(0.996499 -0.000598998 -1.80913e-19)
(0.99644 -0.00137954 9.11277e-22)
(0.996418 -0.0021792 -9.74966e-20)
(0.996436 -0.00296444 -1.20272e-19)
(0.996497 -0.00373459 -3.84117e-19)
(0.996605 -0.00448805 -6.78966e-20)
(0.996762 -0.00521636 -7.31004e-19)
(0.996967 -0.00591449 -1.40328e-18)
(0.99722 -0.00657786 1.10995e-18)
(0.997515 -0.00720018 -2.27239e-18)
(0.997849 -0.00777568 3.15133e-19)
(0.998211 -0.00829826 2.65624e-19)
(0.998594 -0.00876424 6.4536e-19)
(0.998988 -0.00917397 -5.30352e-19)
(0.999388 -0.00952675 -2.20554e-19)
(0.999783 -0.00982467 2.54728e-19)
(1.00017 -0.0100708 -2.40604e-18)
(1.00053 -0.0102723 1.60763e-18)
(1.00088 -0.0104352 -2.04133e-19)
(1.0012 -0.0105678 6.64953e-19)
(1.00149 -0.0106784 1.70944e-18)
(1.00174 -0.0107793 -2.6544e-18)
(1.00195 -0.010882 1.20383e-19)
(1.00212 -0.0109988 4.58424e-19)
(1.00225 -0.011146 -5.2645e-19)
(1.00236 -0.0113453 2.20268e-18)
(1.00237 -0.0115131 2.1597e-20)
(1.00232 -0.0118797 -3.41214e-19)
(1.00295 -0.0139537 -1.0243e-19)
(0.996324 0.000141688 -3.36881e-20)
(0.996288 -0.000608074 3.66316e-21)
(0.996231 -0.00140073 8.99508e-20)
(0.996212 -0.00221458 -4.61358e-20)
(0.996234 -0.00301305 -1.50935e-20)
(0.9963 -0.00379508 -2.16965e-19)
(0.996415 -0.00455898 3.22676e-19)
(0.996578 -0.00529633 4.14822e-19)
(0.996792 -0.00600218 -4.54667e-19)
(0.997053 -0.00667207 3.62371e-19)
(0.997358 -0.00729985 3.00734e-18)
(0.997701 -0.00787976 7.19099e-19)
(0.998074 -0.00840583 -1.68689e-18)
(0.998468 -0.0088744 -5.21729e-19)
(0.998874 -0.00928604 1.09589e-18)
(0.999287 -0.00964009 3.73826e-19)
(0.999695 -0.00993868 1.18078e-18)
(1.00009 -0.0101849 1.61363e-18)
(1.00047 -0.0103859 1.27489e-18)
(1.00084 -0.0105476 -1.35092e-18)
(1.00117 -0.0106783 -1.67651e-18)
(1.00147 -0.0107863 -2.39784e-18)
(1.00173 -0.0108838 1.91978e-19)
(1.00196 -0.0109824 1.14907e-18)
(1.00215 -0.0110943 1.28961e-18)
(1.00229 -0.0112361 4.72348e-20)
(1.00241 -0.0114299 1.28048e-19)
(1.00244 -0.0115914 1.87419e-19)
(1.0024 -0.0119543 -7.72973e-20)
(1.00302 -0.0140446 5.41656e-20)
(0.996114 0.000154234 5.25247e-20)
(0.996073 -0.000613821 -5.12416e-20)
(0.996018 -0.00141674 -7.495e-21)
(0.996001 -0.00224302 2.44935e-19)