/*--------------------------------*- C++ -*----------------------------------*\
  =========                 |
  \\      /  F ield         | OpenFOAM: The Open Source CFD Toolbox
   \\    /   O peration     | Website:  https://openfoam.org
    \\  /    A nd           | Version:  6.0
     \\/     M anipulation  |
\*---------------------------------------------------------------------------*/
FoamFile
{
    version     2.0;
    format      ascii;
    class       volScalarField;
    location    "1.4";
    object      p;
}
// * * * * * * * * * * * * * * * * * * * * * * * * * * * * * * * * * * * * * //

dimensions      [0 2 -2 0 0 0 0];

internalField   nonuniform List<scalar> 
13500
(
0.099908
0.099952
0.099394
0.09909
0.098094
0.097801
0.097134
0.097696
0.099435
0.10345
0.12484
0.16989
0.099908
0.099952
0.099394
0.099091
0.098093
0.097802
0.097133
0.097696
0.099432
0.10351
0.12415
0.16485
0.099909
0.099953
0.099394
0.099092
0.098093
0.097802
0.097132
0.097694
0.099424
0.10355
0.12327
0.16038
0.099909
0.099954
0.099394
0.099093
0.098092
0.097802
0.097129
0.09769
0.09941
0.10357
0.12229
0.1569
0.09991
0.099956
0.099394
0.099095
0.098091
0.097802
0.097126
0.097685
0.099392
0.10357
0.12124
0.15397
0.099912
0.099958
0.099395
0.099097
0.098091
0.097802
0.097122
0.097679
0.099368
0.10356
0.12016
0.15137
0.099913
0.09996
0.099396
0.099099
0.09809
0.097802
0.097117
0.097671
0.09934
0.10354
0.11907
0.149
0.099915
0.099962
0.099397
0.099101
0.098089
0.097802
0.097112
0.097662
0.099308
0.10351
0.11799
0.14683
0.099918
0.099965
0.099398
0.099103
0.098089
0.097801
0.097106
0.097652
0.09927
0.10346
0.11693
0.14482
0.09992
0.099968
0.0994
0.099105
0.098088
0.0978
0.0971
0.09764
0.099228
0.1034
0.11589
0.14295
0.099923
0.099972
0.099402
0.099108
0.098087
0.097799
0.097093
0.097627
0.099182
0.10333
0.1149
0.14119
0.099926
0.099976
0.099404
0.099111
0.098087
0.097797
0.097085
0.097613
0.099131
0.10325
0.11394
0.13953
0.09993
0.09998
0.099406
0.099114
0.098086
0.097796
0.097077
0.097597
0.099075
0.10316
0.11302
0.13795
0.099934
0.099984
0.099409
0.099117
0.098086
0.097794
0.097068
0.09758
0.099015
0.10306
0.11214
0.13646
0.099938
0.099989
0.099412
0.09912
0.098085
0.097792
0.097058
0.097561
0.098951
0.10296
0.1113
0.13503
0.099943
0.099994
0.099415
0.099124
0.098085
0.09779
0.097048
0.097541
0.098882
0.10285
0.11049
0.13367
0.099948
0.099999
0.099419
0.099128
0.098084
0.097788
0.097037
0.09752
0.09881
0.10274
0.10971
0.13237
0.099954
0.1
0.099423
0.099131
0.098084
0.097785
0.097025
0.097497
0.098734
0.10262
0.10897
0.13112
0.099959
0.10001
0.099427
0.099136
0.098084
0.097782
0.097013
0.097473
0.098654
0.1025
0.10825
0.12991
0.099966
0.10002
0.099431
0.09914
0.098083
0.097779
0.097
0.097448
0.09857
0.10238
0.10755
0.12876
0.099972
0.10002
0.099436
0.099144
0.098083
0.097776
0.096987
0.097421
0.098483
0.10226
0.10687
0.12764
0.099979
0.10003
0.099441
0.099149
0.098083
0.097773
0.096973
0.097393
0.098393
0.10215
0.10621
0.12656
0.099986
0.10004
0.099446
0.099154
0.098083
0.097769
0.096958
0.097364
0.098301
0.10203
0.10557
0.12552
0.099994
0.10005
0.099452
0.099159
0.098082
0.097765
0.096943
0.097334
0.098205
0.10191
0.10494
0.12451
0.1
0.10005
0.099458
0.099164
0.098082
0.097761
0.096927
0.097303
0.098107
0.10179
0.10432
0.12352
0.10001
0.10006
0.099464
0.09917
0.098082
0.097757
0.09691
0.09727
0.098007
0.10167
0.10372
0.12257
0.10002
0.10007
0.099471
0.099176
0.098082
0.097753
0.096893
0.097237
0.097904
0.10155
0.10313
0.12164
0.10003
0.10008
0.099478
0.099182
0.098082
0.097748
0.096875
0.097202
0.0978
0.10143
0.10254
0.12073
0.10004
0.10009
0.099485
0.099188
0.098082
0.097743
0.096857
0.097166
0.097693
0.10131
0.10197
0.11985
0.10005
0.1001
0.099493
0.099194
0.098082
0.097738
0.096837
0.09713
0.097584
0.10119
0.1014
0.11899
0.10006
0.10011
0.0995
0.099201
0.098083
0.097733
0.096818
0.097092
0.097474
0.10107
0.10085
0.11814
0.10007
0.10012
0.099509
0.099208
0.098083
0.097728
0.096797
0.097054
0.097362
0.10095
0.1003
0.11732
0.10008
0.10013
0.099517
0.099215
0.098083
0.097722
0.096777
0.097014
0.097248
0.10082
0.099758
0.11651
0.10009
0.10015
0.099526
0.099222
0.098084
0.097717
0.096755
0.096974
0.097132
0.1007
0.099225
0.11572
0.10011
0.10016
0.099535
0.09923
0.098084
0.097711
0.096733
0.096933
0.097015
0.10057
0.098701
0.11495
0.10012
0.10017
0.099545
0.099238
0.098085
0.097705
0.09671
0.096892
0.096896
0.10045
0.098185
0.1142
0.10013
0.10018
0.099555
0.099246
0.098085
0.097699
0.096687
0.096849
0.096776
0.10032
0.097676
0.11345
0.10015
0.1002
0.099565
0.099254
0.098086
0.097692
0.096663
0.096806
0.096654
0.10019
0.097175
0.11273
0.10016
0.10021
0.099576
0.099263
0.098087
0.097686
0.096638
0.096762
0.09653
0.10006
0.096682
0.11201
0.10017
0.10023
0.099587
0.099272
0.098088
0.097679
0.096613
0.096718
0.096406
0.099924
0.096196
0.11131
0.10019
0.10024
0.099599
0.099281
0.098089
0.097672
0.096588
0.096673
0.096279
0.099789
0.095719
0.11063
0.1002
0.10026
0.099611
0.09929
0.09809
0.097665
0.096561
0.096627
0.096152
0.099652
0.095249
0.10995
0.10022
0.10027
0.099623
0.0993
0.098091
0.097658
0.096535
0.09658
0.096023
0.099515
0.094787
0.10929
0.10024
0.10029
0.099635
0.09931
0.098093
0.097651
0.096507
0.096534
0.095892
0.099375
0.094332
0.10864
0.10025
0.1003
0.099648
0.09932
0.098094
0.097643
0.096479
0.096486
0.095761
0.099234
0.093885
0.108
0.10027
0.10032
0.099662
0.099331
0.098096
0.097636
0.096451
0.096438
0.095628
0.099091
0.093445
0.10737
0.10029
0.10034
0.099676
0.099342
0.098097
0.097628
0.096422
0.09639
0.095494
0.098947
0.093013
0.10675
0.10031
0.10036
0.09969
0.099353
0.098099
0.09762
0.096392
0.09634
0.095359
0.098801
0.092589
0.10614
0.10033
0.10037
0.099705
0.099364
0.098101
0.097612
0.096362
0.096291
0.095223
0.098654
0.092171
0.10554
0.10035
0.10039
0.09972
0.099376
0.098104
0.097603
0.096331
0.096241
0.095086
0.098505
0.091761
0.10495
0.10037
0.10041
0.099736
0.099388
0.098106
0.097595
0.0963
0.096191
0.094948
0.098355
0.091358
0.10437
0.10039
0.10043
0.099752
0.0994
0.098109
0.097587
0.096268
0.09614
0.09481
0.098204
0.090962
0.1038
0.10041
0.10045
0.099768
0.099413
0.098111
0.097578
0.096236
0.096088
0.09467
0.098051
0.090573
0.10323
0.10043
0.10047
0.099785
0.099426
0.098114
0.097569
0.096204
0.096037
0.094529
0.097897
0.09019
0.10268
0.10045
0.1005
0.099802
0.099439
0.098117
0.097561
0.09617
0.095985
0.094388
0.097741
0.089815
0.10213
0.10047
0.10052
0.09982
0.099452
0.09812
0.097552
0.096137
0.095932
0.094246
0.097584
0.089446
0.10159
0.1005
0.10054
0.099839
0.099466
0.098124
0.097543
0.096103
0.095879
0.094104
0.097426
0.089083
0.10106
0.10052
0.10056
0.099858
0.09948
0.098128
0.097534
0.096068
0.095826
0.093961
0.097267
0.088727
0.10053
0.10055
0.10059
0.099877
0.099495
0.098132
0.097524
0.096033
0.095772
0.093817
0.097106
0.088377
0.10001
0.10057
0.10061
0.099897
0.09951
0.098136
0.097515
0.095997
0.095718
0.093673
0.096945
0.088034
0.099503
0.1006
0.10064
0.099917
0.099525
0.09814
0.097506
0.095961
0.095664
0.093528
0.096782
0.087696
0.098998
0.10062
0.10066
0.099938
0.09954
0.098144
0.097497
0.095925
0.095609
0.093384
0.096618
0.087364
0.0985
0.10065
0.10069
0.099959
0.099556
0.098149
0.097487
0.095888
0.095554
0.093238
0.096453
0.087038
0.098008
0.10068
0.10071
0.099981
0.099572
0.098154
0.097478
0.095851
0.095499
0.093093
0.096287
0.086718
0.097522
0.1007
0.10074
0.1
0.099589
0.09816
0.097468
0.095813
0.095443
0.092947
0.09612
0.086404
0.097042
0.10073
0.10077
0.10003
0.099606
0.098165
0.097459
0.095775
0.095387
0.092801
0.095952
0.086095
0.096568
0.10076
0.1008
0.10005
0.099623
0.098171
0.09745
0.095737
0.095331
0.092655
0.095783
0.085791
0.0961
0.10079
0.10082
0.10007
0.099641
0.098177
0.09744
0.095698
0.095274
0.092509
0.095613
0.085493
0.095637
0.10082
0.10085
0.1001
0.099659
0.098183
0.097431
0.095659
0.095217
0.092362
0.095443
0.0852
0.09518
0.10085
0.10088
0.10012
0.099677
0.09819
0.097421
0.09562
0.09516
0.092216
0.095271
0.084912
0.094728
0.10089
0.10091
0.10015
0.099696
0.098196
0.097412
0.09558
0.095102
0.092069
0.095098
0.084629
0.094282
0.10092
0.10095
0.10018
0.099715
0.098204
0.097403
0.09554
0.095044
0.091923
0.094925
0.084351
0.09384
0.10095
0.10098
0.1002
0.099735
0.098211
0.097394
0.095499
0.094986
0.091777
0.094751
0.084077
0.093403
0.10099
0.10101
0.10023
0.099755
0.098219
0.097385
0.095458
0.094927
0.09163
0.094576
0.083808
0.092972
0.10102
0.10104
0.10026
0.099776
0.098227
0.097376
0.095417
0.094868
0.091484
0.0944
0.083544
0.092545
0.10106
0.10108
0.10029
0.099797
0.098235
0.097367
0.095376
0.094809
0.091338
0.094224
0.083284
0.092122
0.10109
0.10111
0.10032
0.099818
0.098244
0.097358
0.095334
0.094749
0.091193
0.094047
0.083028
0.091704
0.10113
0.10115
0.10035
0.09984
0.098253
0.097349
0.095293
0.09469
0.091047
0.093869
0.082777
0.091291
0.10117
0.10118
0.10038
0.099862
0.098262
0.097341
0.095251
0.094629
0.090902
0.09369
0.08253
0.090882
0.10121
0.10122
0.10041
0.099885
0.098271
0.097332
0.095208
0.094569
0.090757
0.093511
0.082286
0.090477
0.10125
0.10126
0.10044
0.099909
0.098281
0.097324
0.095166
0.094508
0.090612
0.093331
0.082047
0.090077
0.10129
0.1013
0.10048
0.099932
0.098292
0.097316
0.095123
0.094447
0.090468
0.09315
0.081811
0.08968
0.10133
0.10133
0.10051
0.099957
0.098302
0.097308
0.09508
0.094386
0.090324
0.092969
0.08158
0.089288
0.10137
0.10137
0.10055
0.099982
0.098314
0.0973
0.095037
0.094324
0.09018
0.092788
0.081351
0.088899
0.10141
0.10141
0.10058
0.10001
0.098325
0.097293
0.094994
0.094262
0.090037
0.092605
0.081127
0.088514
0.10145
0.10146
0.10062
0.10003
0.098337
0.097285
0.094951
0.0942
0.089894
0.092423
0.080905
0.088133
0.1015
0.1015
0.10065
0.10006
0.098349
0.097278
0.094907
0.094138
0.089751
0.092239
0.080687
0.087755
0.10154
0.10154
0.10069
0.10009
0.098362
0.097271
0.094863
0.094075
0.089609
0.092055
0.080472
0.087382
0.10159
0.10158
0.10073
0.10011
0.098375
0.097265
0.09482
0.094012
0.089468
0.091871
0.080261
0.087011
0.10164
0.10163
0.10077
0.10014
0.098388
0.097258
0.094776
0.093948
0.089327
0.091686
0.080052
0.086644
0.10168
0.10167
0.10081
0.10017
0.098402
0.097252
0.094732
0.093885
0.089186
0.091501
0.079846
0.08628
0.10173
0.10172
0.10085
0.1002
0.098417
0.097246
0.094688
0.093821
0.089046
0.091315
0.079644
0.08592
0.10178
0.10177
0.10089
0.10023
0.098431
0.097241
0.094644
0.093757
0.088907
0.091128
0.079443
0.085562
0.10183
0.10182
0.10093
0.10026
0.098447
0.097236
0.094601
0.093692
0.088768
0.090941
0.079246
0.085208
0.10188
0.10186
0.10098
0.10029
0.098463
0.097231
0.094557
0.093628
0.08863
0.090754
0.079051
0.084857
0.10194
0.10191
0.10102
0.10033
0.098479
0.097226
0.094513
0.093563
0.088492
0.090566
0.078859
0.084508
0.10199
0.10197
0.10106
0.10036
0.098496
0.097222
0.094469
0.093497
0.088355
0.090378
0.078668
0.084163
0.10204
0.10202
0.10111
0.10039
0.098513
0.097218
0.094425
0.093432
0.088218
0.09019
0.078481
0.08382
0.1021
0.10207
0.10116
0.10043
0.098531
0.097214
0.094381
0.093366
0.088082
0.090001
0.078295
0.08348
0.10216
0.10212
0.10121
0.10046
0.09855
0.097211
0.094338
0.0933
0.087947
0.089811
0.078112
0.083142
0.10221
0.10218
0.10126
0.1005
0.098569
0.097208
0.094294
0.093234
0.087812
0.089621
0.07793
0.082807
0.10227
0.10224
0.10131
0.10054
0.098589
0.097206
0.094251
0.093167
0.087678
0.089431
0.077751
0.082475
0.10233
0.10229
0.10136
0.10058
0.098609
0.097204
0.094207
0.0931
0.087544
0.089241
0.077573
0.082145
0.10239
0.10235
0.10141
0.10061
0.09863
0.097202
0.094164
0.093033
0.087412
0.08905
0.077397
0.081817
0.10246
0.10241
0.10146
0.10065
0.098652
0.097201
0.094121
0.092966
0.087279
0.088858
0.077223
0.081491
0.10252
0.10247
0.10152
0.1007
0.098675
0.097201
0.094079
0.092899
0.087148
0.088666
0.07705
0.081168
0.10258
0.10253
0.10157
0.10074
0.098698
0.097201
0.094036
0.092831
0.087017
0.088474
0.076879
0.080846
0.10265
0.1026
0.10163
0.10078
0.098722
0.097201
0.093994
0.092763
0.086886
0.088282
0.076709
0.080527
0.10272
0.10266
0.10169
0.10082
0.098746
0.097202
0.093952
0.092695
0.086757
0.088089
0.076541
0.08021
0.10279
0.10273
0.10175
0.10087
0.098772
0.097204
0.09391
0.092626
0.086628
0.087895
0.076374
0.079894
0.10286
0.10279
0.10181
0.10091
0.098798
0.097206
0.093869
0.092558
0.0865
0.087702
0.076208
0.07958
0.10293
0.10286
0.10187
0.10096
0.098825
0.097209
0.093828
0.092489
0.086372
0.087508
0.076043
0.079268
0.103
0.10293
0.10193
0.10101
0.098853
0.097212
0.093787
0.09242
0.086245
0.087313
0.075879
0.078957
0.10307
0.103
0.10199
0.10106
0.098882
0.097216
0.093747
0.092351
0.086118
0.087118
0.075716
0.078648
0.10315
0.10308
0.10206
0.10111
0.098912
0.097221
0.093707
0.092281
0.085993
0.086923
0.075554
0.07834
0.10323
0.10315
0.10213
0.10116
0.098943
0.097226
0.093668
0.092212
0.085868
0.086728
0.075392
0.078034
0.10331
0.10323
0.1022
0.10121
0.098975
0.097232
0.093629
0.092142
0.085743
0.086532
0.075231
0.077729
0.10339
0.1033
0.10227
0.10127
0.099008
0.097239
0.093591
0.092072
0.085619
0.086335
0.075071
0.077425
0.10347
0.10338
0.10234
0.10133
0.099042
0.097247
0.093553
0.092002
0.085496
0.086138
0.074911
0.077122
0.10356
0.10346
0.10241
0.10138
0.099077
0.097256
0.093516
0.091932
0.085374
0.085941
0.074752
0.07682
0.10364
0.10355
0.10249
0.10144
0.099114
0.097265
0.093479
0.091861
0.085252
0.085743
0.074593
0.076519
0.10373
0.10363
0.10257
0.1015
0.099151
0.097275
0.093443
0.091791
0.085131
0.085545
0.074435
0.076219
0.10382
0.10372
0.10264
0.10156
0.09919
0.097287
0.093408
0.09172
0.08501
0.085347
0.074276
0.07592
0.10391
0.10381
0.10273
0.10163
0.099231
0.097299
0.093373
0.09165
0.08489
0.085148
0.074118
0.075621
0.10401
0.1039
0.10281
0.10169
0.099272
0.097312
0.093339
0.091579
0.084771
0.084948
0.073959
0.075323
0.1041
0.10399
0.10289
0.10176
0.099316
0.097327
0.093306
0.091509
0.084652
0.084749
0.073801
0.075025
0.1042
0.10409
0.10298
0.10183
0.09936
0.097343
0.093274
0.091438
0.084534
0.084548
0.073642
0.074728
0.1043
0.10418
0.10307
0.1019
0.099407
0.097359
0.093243
0.091367
0.084416
0.084348
0.073483
0.07443
0.1044
0.10428
0.10316
0.10197
0.099454
0.097377
0.093212
0.091297
0.084299
0.084146
0.073324
0.074133
0.10451
0.10439
0.10325
0.10205
0.099504
0.097397
0.093183
0.091226
0.084183
0.083945
0.073165
0.073836
0.10462
0.10449
0.10335
0.10213
0.099555
0.097417
0.093155
0.091156
0.084067
0.083742
0.073004
0.073539
0.10473
0.1046
0.10345
0.10221
0.099609
0.097439
0.093128
0.091085
0.083952
0.083539
0.072844
0.073242
0.10484
0.10471
0.10355
0.10229
0.099664
0.097463
0.093101
0.091015
0.083838
0.083336
0.072682
0.072945
0.10496
0.10482
0.10365
0.10237
0.099721
0.097488
0.093077
0.090945
0.083724
0.083132
0.07252
0.072647
0.10507
0.10494
0.10376
0.10246
0.099781
0.097515
0.093053
0.090875
0.083611
0.082928
0.072357
0.072349
0.1052
0.10505
0.10387
0.10255
0.099842
0.097543
0.093031
0.090805
0.083498
0.082723
0.072194
0.07205
0.10532
0.10518
0.10398
0.10264
0.099906
0.097573
0.09301
0.090736
0.083386
0.082517
0.072029
0.07175
0.10545
0.1053
0.1041
0.10274
0.099972
0.097605
0.09299
0.090667
0.083274
0.082311
0.071863
0.07145
0.10558
0.10543
0.10421
0.10284
0.10004
0.097639
0.092973
0.090598
0.083163
0.082105
0.071696
0.071149
0.10571
0.10556
0.10434
0.10294
0.10011
0.097676
0.092956
0.09053
0.083053
0.081897
0.071527
0.070846
0.10585
0.10569
0.10446
0.10304
0.10019
0.097714
0.092942
0.090462
0.082944
0.081689
0.071358
0.070543
0.10599
0.10583
0.10459
0.10315
0.10026
0.097754
0.092929
0.090395
0.082835
0.081481
0.071186
0.070238
0.10614
0.10598
0.10472
0.10326
0.10034
0.097797
0.092918
0.090328
0.082726
0.081271
0.071014
0.069932
0.10629
0.10612
0.10486
0.10337
0.10043
0.097842
0.092909
0.090262
0.082618
0.081062
0.070839
0.069624
0.10644
0.10627
0.105
0.10349
0.10051
0.09789
0.092902
0.090197
0.082511
0.080851
0.070663
0.069314
0.1066
0.10643
0.10514
0.10362
0.1006
0.09794
0.092898
0.090132
0.082405
0.08064
0.070485
0.069003
0.10676
0.10659
0.10529
0.10374
0.1007
0.097993
0.092895
0.090068
0.082299
0.080428
0.070305
0.068689
0.10693
0.10675
0.10545
0.10387
0.10079
0.09805
0.092895
0.090006
0.082194
0.080215
0.070124
0.068374
0.1071
0.10692
0.10561
0.10401
0.10089
0.098109
0.092897
0.089944
0.082089
0.080001
0.06994
0.068056
0.10728
0.1071
0.10577
0.10415
0.101
0.098171
0.092902
0.089883
0.081985
0.079787
0.069753
0.067736
0.10746
0.10728
0.10594
0.10429
0.10111
0.098237
0.09291
0.089823
0.081882
0.079572
0.069565
0.067413
0.10765
0.10746
0.10611
0.10444
0.10122
0.098306
0.09292
0.089764
0.08178
0.079356
0.069374
0.067087
0.10784
0.10765
0.10629
0.1046
0.10134
0.098379
0.092934
0.089707
0.081679
0.079139
0.069181
0.066759
0.10804
0.10785
0.10647
0.10476
0.10146
0.098456
0.09295
0.08965
0.081578
0.078922
0.068985
0.066427
0.10824
0.10805
0.10666
0.10492
0.10159
0.098537
0.09297
0.089596
0.081478
0.078703
0.068786
0.066093
0.10845
0.10826
0.10686
0.1051
0.10172
0.098622
0.092993
0.089543
0.081378
0.078484
0.068584
0.065754
0.10867
0.10848
0.10706
0.10527
0.10186
0.098711
0.09302
0.089491
0.08128
0.078264
0.068379
0.065412
0.10889
0.1087
0.10727
0.10546
0.10201
0.098805
0.09305
0.089441
0.081182
0.078043
0.068171
0.065066
0.10913
0.10893
0.10749
0.10565
0.10215
0.098903
0.093084
0.089393
0.081085
0.07782
0.06796
0.064717
0.10936
0.10916
0.10771
0.10584
0.10231
0.099006
0.093122
0.089347
0.080989
0.077597
0.067746
0.064363
0.10961
0.10941
0.10794
0.10605
0.10247
0.099115
0.093164
0.089303
0.080894
0.077373
0.067527
0.064004
0.10986
0.10966
0.10818
0.10626
0.10264
0.099229
0.093211
0.089261
0.0808
0.077147
0.067306
0.063641
0.11012
0.10992
0.10843
0.10648
0.10282
0.099348
0.093262
0.089221
0.080707
0.07692
0.06708
0.063273
0.11039
0.11019
0.10868
0.10671
0.103
0.099473
0.093317
0.089184
0.080614
0.076693
0.06685
0.0629
0.11066
0.11046
0.10895
0.10694
0.10319
0.099604
0.093377
0.089149
0.080523
0.076463
0.066617
0.062521
0.11095
0.11075
0.10922
0.10719
0.10339
0.099741
0.093442
0.089116
0.080432
0.076233
0.066378
0.062137
0.11124
0.11105
0.1095
0.10744
0.10359
0.099885
0.093513
0.089086
0.080342
0.076001
0.066136
0.061747
0.11155
0.11135
0.10979
0.1077
0.10381
0.10003
0.093588
0.089058
0.080253
0.075767
0.065888
0.06135
0.11186
0.11167
0.11009
0.10797
0.10403
0.10019
0.093669
0.089034
0.080165
0.075532
0.065636
0.060947
0.11218
0.11199
0.11041
0.10825
0.10426
0.10036
0.093756
0.089012
0.080077
0.075295
0.065379
0.060538
0.11252
0.11233
0.11073
0.10854
0.1045
0.10053
0.093848
0.088993
0.079991
0.075056
0.065116
0.060121
0.11286
0.11267
0.11106
0.10884
0.10475
0.10071
0.093946
0.088977
0.079905
0.074815
0.064847
0.059696
0.11322
0.11303
0.1114
0.10916
0.10501
0.10089
0.094051
0.088965
0.079819
0.074572
0.064573
0.059264
0.11358
0.1134
0.11176
0.10948
0.10528
0.10109
0.094162
0.088955
0.079735
0.074326
0.064292
0.058823
0.11396
0.11378
0.11213
0.10981
0.10556
0.10129
0.094279
0.088948
0.079651
0.074078
0.064005
0.058374
0.11435
0.11418
0.11251
0.11016
0.10585
0.1015
0.094403
0.088945
0.079567
0.073828
0.063711
0.057916
0.11476
0.11459
0.1129
0.11052
0.10615
0.10173
0.094534
0.088945
0.079483
0.073574
0.06341
0.057448
0.11517
0.11501
0.11331
0.11089
0.10647
0.10196
0.094671
0.088949
0.0794
0.073318
0.063101
0.05697
0.1156
0.11544
0.11373
0.11128
0.10679
0.1022
0.094816
0.088955
0.079317
0.073057
0.062784
0.056482
0.11604
0.11589
0.11416
0.11167
0.10713
0.10244
0.094968
0.088965
0.079233
0.072794
0.06246
0.055983
0.1165
0.11635
0.11461
0.11209
0.10748
0.1027
0.095127
0.088978
0.07915
0.072526
0.062126
0.055472
0.11697
0.11683
0.11508
0.11251
0.10784
0.10297
0.095294
0.088995
0.079065
0.072254
0.061783
0.05495
0.11746
0.11733
0.11556
0.11295
0.10822
0.10325
0.095469
0.089014
0.07898
0.071977
0.06143
0.054414
0.11796
0.11784
0.11606
0.11341
0.10861
0.10354
0.095651
0.089037
0.078894
0.071695
0.061067
0.053865
0.11848
0.11837
0.11657
0.11388
0.10902
0.10385
0.095841
0.089063
0.078807
0.071407
0.060694
0.053302
0.11901
0.11891
0.1171
0.11437
0.10944
0.10416
0.09604
0.089092
0.078718
0.071114
0.060309
0.052725
0.11957
0.11948
0.11765
0.11488
0.10987
0.10448
0.096246
0.089124
0.078627
0.070814
0.059911
0.052132
0.12014
0.12006
0.11822
0.1154
0.11033
0.10482
0.096461
0.089158
0.078534
0.070507
0.059501
0.051523
0.12073
0.12066
0.11881
0.11595
0.11079
0.10517
0.096684
0.089195
0.078438
0.070192
0.059078
0.050896
0.12134
0.12128
0.11942
0.11651
0.11128
0.10553
0.096915
0.089235
0.078339
0.069869
0.05864
0.050252
0.12196
0.12192
0.12005
0.11709
0.11178
0.10591
0.097156
0.089277
0.078237
0.069537
0.058187
0.049589
0.12262
0.12259
0.1207
0.1177
0.11231
0.1063
0.097405
0.089321
0.07813
0.069196
0.057718
0.048906
0.12329
0.12328
0.12138
0.11832
0.11285
0.1067
0.097663
0.089368
0.07802
0.068844
0.057232
0.048202
0.12398
0.12399
0.12208
0.11897
0.11341
0.10712
0.09793
0.089416
0.077904
0.068482
0.056729
0.047476
0.1247
0.12473
0.12281
0.11964
0.11399
0.10755
0.098207
0.089466
0.077783
0.068107
0.056206
0.046727
0.12545
0.1255
0.12356
0.12034
0.1146
0.108
0.098493
0.089517
0.077655
0.06772
0.055664
0.045954
0.12622
0.12629
0.12434
0.12107
0.11523
0.10847
0.098789
0.08957
0.077521
0.067319
0.055101
0.045155
0.12703
0.12711
0.12516
0.12182
0.11588
0.10895
0.099096
0.089624
0.07738
0.066904
0.054515
0.04433
0.12786
0.12797
0.12601
0.1226
0.11656
0.10946
0.099413
0.089679
0.07723
0.066473
0.053906
0.043476
0.12872
0.12886
0.12689
0.12342
0.11726
0.10998
0.099741
0.089734
0.077072
0.066026
0.053273
0.042593
0.12962
0.12979
0.1278
0.12427
0.118
0.11052
0.10008
0.089791
0.076905
0.065561
0.052613
0.041678
0.13056
0.13075
0.12876
0.12516
0.11877
0.11109
0.10043
0.089847
0.076727
0.065077
0.051925
0.04073
0.13153
0.13176
0.12976
0.12608
0.11957
0.11168
0.10079
0.089904
0.076538
0.064572
0.051209
0.039747
0.13255
0.13281
0.1308
0.12705
0.12041
0.11229
0.10117
0.089961
0.076337
0.064046
0.050461
0.038727
0.13361
0.13391
0.1319
0.12806
0.12128
0.11293
0.10156
0.090017
0.076123
0.063497
0.04968
0.037669
0.13472
0.13506
0.13304
0.12913
0.1222
0.1136
0.10196
0.090073
0.075894
0.062923
0.048865
0.03657
0.13588
0.13626
0.13424
0.13024
0.12315
0.1143
0.10238
0.090127
0.075649
0.062322
0.048013
0.035428
0.1371
0.13753
0.1355
0.13141
0.12416
0.11503
0.10281
0.090178
0.075387
0.061692
0.047121
0.03424
0.13837
0.13885
0.13683
0.13264
0.12521
0.11579
0.10326
0.090227
0.075106
0.061031
0.046187
0.033004
0.13971
0.14025
0.13822
0.13394
0.12632
0.11659
0.10372
0.090272
0.074803
0.060335
0.045208
0.031716
0.14111
0.14172
0.13969
0.1353
0.12748
0.11743
0.1042
0.090311
0.074476
0.059602
0.044181
0.030374
0.14259
0.14326
0.14124
0.13674
0.1287
0.1183
0.10469
0.090343
0.074121
0.058829
0.043102
0.028974
0.14414
0.14489
0.14287
0.13826
0.12999
0.11922
0.1052
0.090364
0.073735
0.05801
0.041966
0.027512
0.14578
0.14661
0.1446
0.13986
0.13134
0.12017
0.10572
0.090373
0.073314
0.057141
0.040769
0.025983
0.1475
0.14843
0.14642
0.14155
0.13276
0.12117
0.10625
0.090365
0.072853
0.056217
0.039505
0.024383
0.14931
0.15034
0.14834
0.14334
0.13425
0.12222
0.10679
0.090336
0.072345
0.05523
0.038168
0.022707
0.15121
0.15237
0.15038
0.14523
0.13582
0.1233
0.10733
0.090281
0.071784
0.054175
0.036751
0.020948
0.15322
0.15451
0.15254
0.14723
0.13747
0.12443
0.10788
0.090192
0.071162
0.053041
0.035246
0.019099
0.15533
0.15677
0.15482
0.14934
0.1392
0.1256
0.10842
0.090062
0.070469
0.051821
0.033644
0.017152
0.15756
0.15916
0.15723
0.15157
0.14102
0.12681
0.10895
0.089883
0.069694
0.050503
0.031936
0.015099
0.1599
0.16169
0.15979
0.15392
0.14292
0.12805
0.10946
0.089643
0.068827
0.049076
0.030109
0.012931
0.16237
0.16436
0.1625
0.15641
0.14491
0.12932
0.10994
0.089329
0.067853
0.047526
0.028152
0.010635
0.16497
0.16719
0.16537
0.15904
0.14699
0.13062
0.11039
0.088928
0.066757
0.04584
0.026052
0.0082023
0.16771
0.1702
0.16842
0.16182
0.14916
0.13193
0.11078
0.088423
0.065523
0.044
0.023795
0.0056187
0.1706
0.17338
0.17166
0.16476
0.15142
0.13325
0.1111
0.087793
0.06413
0.041991
0.021366
0.0028716
0.17365
0.17676
0.17511
0.16787
0.15377
0.13457
0.11133
0.087017
0.062556
0.039792
0.018748
-5.2724e-05
0.17688
0.18037
0.17879
0.17116
0.15621
0.13586
0.11145
0.086067
0.060777
0.037383
0.015923
-0.0031685
0.1803
0.18421
0.18273
0.17464
0.15873
0.13711
0.11143
0.084911
0.058764
0.034738
0.012872
-0.0064904
0.18392
0.18833
0.18695
0.17833
0.16132
0.13829
0.11122
0.083511
0.05648
0.031829
0.009574
-0.010033
0.18778
0.19275
0.19149
0.18224
0.16398
0.13937
0.11079
0.081819
0.053886
0.028625
0.0060041
-0.013813
0.19188
0.19751
0.19637
0.18638
0.16668
0.1403
0.11008
0.079779
0.050932
0.025085
0.0021347
-0.017847
0.19624
0.20265
0.20165
0.19075
0.16938
0.14101
0.10901
0.077322
0.04756
0.021166
-0.0020662
-0.022152
0.2009
0.20821
0.20734
0.19536
0.17204
0.14143
0.1075
0.074365
0.043702
0.016815
-0.006635
-0.026747
0.20585
0.21423
0.21348
0.20017
0.17458
0.14146
0.10543
0.070811
0.03928
0.011972
-0.011612
-0.031653
0.21112
0.22076
0.22009
0.20514
0.17687
0.14094
0.10268
0.066548
0.034207
0.0065767
-0.017037
-0.036887
0.21669
0.22782
0.22715
0.21018
0.17878
0.13971
0.099074
0.061452
0.028394
0.00056667
-0.022947
-0.042463
0.22256
0.23543
0.23461
0.21513
0.18008
0.13755
0.094438
0.055388
0.021752
-0.0061097
-0.029369
-0.04838
0.22871
0.24359
0.24237
0.21976
0.18047
0.13418
0.088563
0.048222
0.014206
-0.013485
-0.036303
-0.054621
0.23514
0.25222
0.2502
0.22371
0.17956
0.12927
0.081221
0.039825
0.0057028
-0.021561
-0.043719
-0.061136
0.24182
0.2612
0.2577
0.22643
0.17683
0.12244
0.072184
0.030094
-0.003774
-0.030299
-0.051545
-0.067839
0.24879
0.27023
0.2642
0.2271
0.1716
0.11326
0.061243
0.018972
-0.014188
-0.039609
-0.059661
-0.074608
0.25614
0.27875
0.26854
0.22453
0.16302
0.10128
0.048251
0.006484
-0.025432
-0.049346
-0.067909
-0.081292
0.26407
0.28576
0.2689
0.21706
0.15006
0.086075
0.033177
-0.0072258
-0.037306
-0.059309
-0.076096
-0.08773
0.27294
0.28959
0.26256
0.20245
0.13155
0.067342
0.01616
-0.021862
-0.049506
-0.069243
-0.084018
-0.093774
0.28331
0.28783
0.24587
0.17801
0.10632
0.044925
-0.0024914
-0.037001
-0.061646
-0.078857
-0.09148
-0.099313
0.29583
0.27764
0.21493
0.14112
0.073415
0.018867
-0.022376
-0.05219
-0.073345
-0.087885
-0.098325
-0.10429
0.31041
0.25546
0.1669
0.090505
0.032624
-0.010578
-0.043133
-0.067102
-0.084349
-0.096169
-0.10449
-0.10874
0.32664
0.2147
0.098258
0.025688
-0.016033
-0.043514
-0.064936
-0.081923
-0.094843
-0.1039
-0.11019
-0.11292
0.35381
0.15531
0.0083087
-0.052302
-0.072225
-0.080743
-0.089029
-0.097903
-0.10595
-0.11204
-0.11626
-0.11761
0.40349
0.09436
-0.088618
-0.1333
-0.12957
-0.11913
-0.11436
-0.11496
-0.11794
-0.12091
-0.12303
-0.123
0.1041
0.064701
0.05432
0.04791
0.043272
0.039621
0.036574
0.033929
0.031709
0.029648
0.028295
0.026115
0.12372
0.080225
0.067345
0.058885
0.052853
0.048172
0.044302
0.040949
0.03814
0.035491
0.033772
0.031059
0.11097
0.07502
0.06336
0.055074
0.049168
0.044617
0.040874
0.037635
0.034929
0.032326
0.030674
0.027866
0.10591
0.074679
0.06335
0.05498
0.048948
0.044291
0.040465
0.03715
0.034384
0.031687
0.02999
0.026943
0.1053
0.076874
0.065375
0.056778
0.050489
0.04561
0.041596
0.038109
0.035201
0.032343
0.030544
0.027254
0.10468
0.078706
0.067129
0.058389
0.051891
0.046821
0.04264
0.039002
0.035965
0.032966
0.031071
0.027594
0.10359
0.079999
0.068492
0.059695
0.053046
0.047822
0.043504
0.03974
0.036596
0.033483
0.031504
0.02789
0.10242
0.081059
0.069715
0.060917
0.054153
0.048798
0.044359
0.040484
0.037244
0.034037
0.031982
0.028277
0.10133
0.081977
0.070866
0.062114
0.055271
0.049804
0.045257
0.041284
0.03796
0.034676
0.032556
0.028803
0.10028
0.082745
0.071934
0.063276
0.056392
0.050838
0.046201
0.042144
0.038748
0.035406
0.033231
0.029473
0.099277
0.083364
0.072908
0.064389
0.057504
0.051891
0.047184
0.043061
0.039607
0.036226
0.034011
0.030288
0.098301
0.083848
0.073786
0.065444
0.058599
0.052957
0.048203
0.044032
0.040537
0.037134
0.034892
0.031244
0.09736
0.084215
0.074569
0.066437
0.059667
0.054025
0.049247
0.045048
0.041528
0.038124
0.035869
0.03233
0.096455
0.084479
0.075261
0.067362
0.060698
0.055085
0.050306
0.046099
0.042571
0.039183
0.036929
0.033529
0.095589
0.084657
0.075866
0.068217
0.061684
0.056125
0.051367
0.047171
0.043651
0.040296
0.038055
0.03482
0.094762
0.084763
0.076391
0.069
0.062619
0.057136
0.052419
0.048252
0.044754
0.041449
0.039229
0.036179
0.093976
0.084809
0.076843
0.069715
0.063499
0.05811
0.053451
0.049328
0.045867
0.042624
0.040434
0.037582
0.093229
0.084805
0.077228
0.070363
0.064323
0.059042
0.054455
0.05039
0.046975
0.043806
0.041652
0.039007
0.09252
0.084762
0.077554
0.070948
0.06509
0.059928
0.055424
0.051428
0.048069
0.044983
0.042868
0.04043
0.091849
0.084687
0.077828
0.071475
0.065802
0.060766
0.056353
0.052436
0.049138
0.046142
0.044068
0.041835
0.091214
0.084586
0.078055
0.071949
0.066459
0.061555
0.05724
0.053408
0.050176
0.047274
0.045241
0.043204
0.090612
0.084465
0.078242
0.072373
0.067066
0.062296
0.058083
0.054341
0.051178
0.048372
0.046379
0.044527
0.090042
0.084328
0.078393
0.072751
0.067624
0.06299
0.058881
0.055232
0.05214
0.04943
0.047474
0.045794
0.089501
0.084179
0.078514
0.073089
0.068136
0.063638
0.059635
0.05608
0.053058
0.050444
0.048524
0.046999
0.088988
0.08402
0.078606
0.073389
0.068606
0.064242
0.060344
0.056885
0.053933
0.051412
0.049525
0.048138
0.0885
0.083854
0.078675
0.073656
0.069037
0.064805
0.061012
0.057646
0.054764
0.052332
0.050475
0.04921
0.088036
0.083682
0.078723
0.073892
0.069431
0.065328
0.061637
0.058366
0.055551
0.053204
0.051374
0.050214
0.087593
0.083506
0.078753
0.0741
0.069791
0.065814
0.062224
0.059044
0.056295
0.054028
0.052223
0.051152
0.087171
0.083326
0.078766
0.074283
0.070119
0.066265
0.062773
0.059682
0.056997
0.054805
0.053023
0.052025
0.086767
0.083145
0.078766
0.074442
0.070419
0.066682
0.063286
0.060282
0.057658
0.055536
0.053775
0.052836
0.08638
0.082963
0.078752
0.074581
0.070691
0.067069
0.063766
0.060845
0.05828
0.056223
0.05448
0.053589
0.086009
0.08278
0.078727
0.074701
0.070938
0.067426
0.064213
0.061373
0.058864
0.056868
0.055142
0.054287
0.085653
0.082596
0.078693
0.074803
0.071162
0.067756
0.064629
0.061867
0.059413
0.057471
0.055761
0.054933
0.085311
0.082413
0.07865
0.074889
0.071364
0.06806
0.065017
0.062329
0.059927
0.058036
0.05634
0.055531
0.084981
0.082231
0.078598
0.074961
0.071547
0.06834
0.065377
0.06276
0.060408
0.058564