/*--------------------------------*- C++ -*----------------------------------*\
  =========                 |
  \\      /  F ield         | OpenFOAM: The Open Source CFD Toolbox
   \\    /   O peration     | Website:  https://openfoam.org
    \\  /    A nd           | Version:  6.0
     \\/     M anipulation  |
\*---------------------------------------------------------------------------*/
FoamFile
{
    version     2.0;
    format      ascii;
    class       volScalarField;
    location    "8";
    object      p;
}
// * * * * * * * * * * * * * * * * * * * * * * * * * * * * * * * * * * * * * //

dimensions      [0 2 -2 0 0 0 0];

internalField   nonuniform List<scalar> 
248000
(
0.026995
0.0270378
0.0270822
0.0271283
0.027176
0.0272253
0.0272761
0.0273286
0.0273824
0.0274378
0.0274946
0.027553
0.0276127
0.0276741
0.0277369
0.0278014
0.0278673
0.027935
0.0280044
0.0280755
0.0281485
0.0282234
0.0283003
0.0283792
0.0284602
0.0285435
0.0286289
0.0287168
0.0288071
0.0289
0.0289956
0.0290942
0.0291958
0.0293009
0.0294094
0.0295219
0.0296383
0.0297591
0.0298845
0.0300147
0.03015
0.0302906
0.0304368
0.0305888
0.0307469
0.0309113
0.0310822
0.03126
0.0314453
0.031639
0.0318419
0.0320542
0.0322763
0.0325085
0.0327508
0.0330033
0.0332657
0.033538
0.0338194
0.0341092
0.0344065
0.0347099
0.0350174
0.0353266
0.0356347
0.0359378
0.0362316
0.036511
0.036771
0.0370059
0.03721
0.037377
0.0374999
0.037572
0.0375872
0.0375407
0.0374295
0.0372532
0.0370144
0.0367202
0.0363823
0.0360179
0.0356503
0.0353086
0.0350275
0.0348457
0.0348045
0.0349451
0.0353047
0.035913
0.0367877
0.0379303
0.0393231
0.0409265
0.0426794
0.0445006
0.0462933
0.047953
0.0493718
0.0504549
0.0511164
0.0513048
0.0509817
0.0501553
0.0488401
0.0471037
0.0450049
0.042617
0.0400187
0.0372879
0.0344928
0.0316919
0.0289304
0.0262431
0.0236533
0.0211745
0.018842
0.0164983
0.0149948
0.0147225
0.0269524
0.0270093
0.0270656
0.027122
0.0271784
0.027235
0.0272918
0.0273491
0.0274067
0.027465
0.0275239
0.0275836
0.0276442
0.0277057
0.0277682
0.0278319
0.0278969
0.0279633
0.0280312
0.0281008
0.0281721
0.0282453
0.0283205
0.0283977
0.0284771
0.0285588
0.0286427
0.028729
0.0288177
0.0289091
0.0290031
0.0291001
0.0292002
0.0293037
0.0294109
0.0295219
0.0296371
0.0297567
0.029881
0.0300102
0.0301446
0.0302844
0.0304299
0.0305813
0.0307387
0.0309024
0.0310726
0.0312497
0.0314346
0.0316282
0.0318314
0.0320445
0.0322677
0.0325014
0.0327457
0.0330005
0.0332657
0.0335411
0.0338262
0.0341203
0.0344225
0.0347314
0.0350453
0.0353616
0.0356775
0.0359894
0.0362927
0.0365826
0.0368537
0.0371009
0.0373185
0.0374996
0.0376369
0.0377236
0.037753
0.03772
0.037621
0.0374548
0.0372235
0.0369334
0.0365953
0.0362262
0.035849
0.0354931
0.0351939
0.0349921
0.0349316
0.0350574
0.0354123
0.0360325
0.0369437
0.0381559
0.0396604
0.0414261
0.043399
0.0455028
0.0476421
0.0497101
0.0515918
0.0531815
0.0543774
0.0551108
0.0553221
0.0550012
0.0541412
0.0527977
0.0510154
0.0488573
0.0463976
0.0437132
0.0408727
0.0379369
0.0349539
0.0319624
0.0289884
0.0260475
0.0231983
0.0202157
0.0186301
0.0172724
0.026909
0.0269754
0.0270399
0.0271031
0.027165
0.027226
0.027286
0.0273456
0.0274047
0.0274637
0.0275226
0.0275818
0.0276413
0.0277014
0.0277622
0.027824
0.0278869
0.0279511
0.0280167
0.028084
0.0281531
0.0282242
0.0282974
0.0283728
0.0284506
0.0285308
0.0286136
0.028699
0.028787
0.028878
0.0289718
0.0290689
0.0291692
0.0292733
0.0293811
0.029493
0.0296093
0.0297302
0.0298559
0.0299866
0.0301227
0.0302642
0.0304113
0.0305643
0.0307232
0.0308882
0.0310594
0.0312372
0.0314226
0.0316168
0.0318206
0.0320343
0.0322582
0.0324922
0.0327365
0.0329909
0.0332554
0.0335295
0.0338129
0.0341048
0.0344041
0.0347094
0.0350188
0.0353298
0.0356393
0.0359432
0.036237
0.0365159
0.0367747
0.0370081
0.0372097
0.0373717
0.0374859
0.0375444
0.0375399
0.0374658
0.0373171
0.0370908
0.0367869
0.0364093
0.0359664
0.0354725
0.0349476
0.0344187
0.033919
0.0334875
0.0331677
0.0330051
0.0330447
0.0333267
0.0338831
0.0347318
0.0358743
0.0372907
0.038939
0.0407551
0.0426542
0.0445387
0.0462986
0.0478313
0.0490321
0.0498279
0.0501487
0.0499754
0.0492867
0.0481289
0.0465342
0.0445567
0.0422653
0.0397345
0.0370316
0.0342202
0.0313546
0.0284839
0.0256494
0.0228893
0.020311
0.0177402
0.0169258
0.0157297
0.0269729
0.0270336
0.0270928
0.0271511
0.0272084
0.0272651
0.0273212
0.027377
0.0274326
0.0274881
0.0275436
0.0275995
0.0276558
0.0277127
0.0277703
0.027829
0.0278887
0.0279498
0.0280123
0.0280766
0.0281428
0.028211
0.0282814
0.0283543
0.0284297
0.0285077
0.0285884
0.0286721
0.0287586
0.0288483
0.0289413
0.0290377
0.0291377
0.0292416
0.0293496
0.0294619
0.0295788
0.0297005
0.0298272
0.0299592
0.0300966
0.0302396
0.0303884
0.030543
0.0307037
0.0308704
0.0310432
0.0312225
0.0314093
0.0316052
0.0318108
0.0320267
0.0322529
0.0324895
0.0327364
0.0329937
0.0332612
0.0335387
0.0338257
0.0341215
0.0344251
0.034735
0.0350494
0.0353657
0.0356808
0.0359903
0.0362899
0.0365754
0.0368421
0.0370847
0.0372959
0.037467
0.0375889
0.0376532
0.0376516
0.0375766
0.0374216
0.0371817
0.0368544
0.0364411
0.0359471
0.035383
0.0347656
0.0341177
0.0334689
0.0328548
0.032316
0.0318965
0.031641
0.0315912
0.0317828
0.0322396
0.0329716
0.0339691
0.0352026
0.0366211
0.0381528
0.0397127
0.0412013
0.0425234
0.0435788
0.0442951
0.0445995
0.0444676
0.0438701
0.0428459
0.0414173
0.0396322
0.0375552
0.0352584
0.0328081
0.0302706
0.0277077
0.0251803
0.0227476
0.0204732
0.0185051
0.0167447
0.0168605
0.0167917
0.0270744
0.0271217
0.0271688
0.027216
0.0272633
0.0273111
0.0273592
0.0274078
0.0274568
0.0275067
0.0275571
0.0276085
0.0276608
0.0277142
0.0277687
0.0278246
0.0278818
0.0279406
0.028001
0.0280633
0.0281276
0.028194
0.0282627
0.0283339
0.0284077
0.0284842
0.0285635
0.0286458
0.0287311
0.0288198
0.0289118
0.0290074
0.0291068
0.0292102
0.0293179
0.02943
0.0295469
0.0296687
0.0297957
0.0299281
0.0300662
0.03021
0.0303598
0.0305157
0.030678
0.0308464
0.0310212
0.0312027
0.0313922
0.0315911
0.0318004
0.0320205
0.0322517
0.0324942
0.032748
0.0330132
0.0332898
0.0335777
0.0338769
0.0341866
0.0345059
0.0348337
0.0351682
0.0355074
0.0358478
0.0361856
0.0365166
0.0368375
0.0371448
0.0374334
0.0376954
0.0379214
0.0381022
0.038229
0.0382935
0.0382873
0.0382028
0.0380338
0.0377759
0.037428
0.0369927
0.0364771
0.0358944
0.035263
0.0346083
0.0339615
0.0333592
0.0328418
0.0324516
0.0322292
0.0322114
0.0324246
0.0328844
0.0335882
0.0345163
0.0356286
0.0368654
0.0381536
0.0394046
0.0405325
0.0414436
0.0420693
0.0423373
0.0422216
0.0416882
0.0407707
0.0394845
0.0378726
0.0359964
0.0339248
0.0317218
0.0294544
0.0271886
0.0249922
0.0229343
0.0210922
0.0196259
0.0184803
0.0191806
0.0199757
0.0271129
0.027148
0.0271839
0.027221
0.0272592
0.0272989
0.0273398
0.0273821
0.0274258
0.027471
0.0275176
0.0275657
0.0276153
0.0276666
0.0277195
0.0277742
0.0278306
0.0278889
0.0279492
0.0280115
0.0280759
0.0281427
0.0282118
0.0282834
0.0283577
0.0284347
0.0285146
0.0285974
0.0286832
0.0287724
0.0288648
0.028961
0.0290608
0.0291647
0.0292728
0.0293855
0.0295028
0.0296252
0.0297529
0.0298861
0.030025
0.0301699
0.0303211
0.0304786
0.0306428
0.0308136
0.0309912
0.0311761
0.0313696
0.031573
0.0317875
0.0320137
0.032252
0.0325028
0.0327664
0.0330429
0.0333326
0.0336359
0.0339525
0.0342823
0.0346246
0.0349784
0.0353426
0.0357153
0.0360935
0.0364735
0.036852
0.0372266
0.0375948
0.037952
0.0382902
0.0385999
0.038872
0.0390978
0.0392694
0.0393782
0.039416
0.0393757
0.0392517
0.0390409
0.0387437
0.0383644
0.0379124
0.0374026
0.0368555
0.0362981
0.0357619
0.0352831
0.0349001
0.0346507
0.0345704
0.0346858
0.0350151
0.0355603
0.0363083
0.0372274
0.0382678
0.0393663
0.0404447
0.0414257
0.0422232
0.042773
0.0430057
0.0428948
0.0424046
0.0415644
0.0403845
0.0389041
0.0371809
0.0352795
0.0332603
0.0311881
0.029129
0.0271519
0.0253272
0.0237351
0.0225259
0.0216623
0.0225672
0.0236703
0.0270491
0.027079
0.0271103
0.027143
0.0271773
0.0272133
0.0272509
0.0272903
0.0273313
0.0273743
0.027419
0.0274657
0.0275144
0.0275651
0.0276179
0.0276727
0.0277297
0.0277889
0.0278503
0.027914
0.0279801
0.0280486
0.0281197
0.0281933
0.0282697
0.0283488
0.0284308
0.0285158
0.0286039
0.0286951
0.0287897
0.0288879
0.0289898
0.0290957
0.0292057
0.0293202
0.0294393
0.0295635
0.029693
0.029828
0.0299689
0.0301159
0.0302693
0.0304294
0.0305965
0.0307706
0.030952
0.0311414
0.0313401
0.0315493
0.0317701
0.0320035
0.03225
0.0325102
0.0327846
0.0330736
0.0333777
0.0336973
0.0340328
0.0343841
0.0347507
0.0351323
0.0355279
0.0359362
0.0363547
0.0367801
0.0372095
0.0376416
0.038075
0.0385056
0.0389255
0.0393255
0.0396967
0.0400313
0.0403215
0.0405593
0.0407362
0.0408447
0.0408783
0.0408329
0.040707
0.0405025
0.0402261
0.039889
0.0395077
0.0391049
0.0387072
0.0383462
0.0380561
0.0378706
0.0378229
0.0379382
0.0382351
0.0387182
0.0393787
0.040191
0.0411127
0.0420893
0.0430509
0.0439284
0.0446424
0.0451339
0.0453363
0.0452243
0.044761
0.043973
0.0428663
0.0414763
0.0398568
0.0380675
0.0361639
0.0342072
0.0322607
0.030391
0.0286655
0.0271626
0.026015
0.025198
0.0260808
0.0271543
0.0269134
0.0269419
0.0269719
0.0270036
0.0270371
0.0270725
0.0271097
0.0271489
0.0271901
0.0272332
0.0272784
0.0273256
0.027375
0.0274266
0.0274803
0.0275364
0.0275948
0.0276555
0.0277186
0.0277842
0.0278524
0.0279231
0.0279966
0.0280728
0.0281518
0.0282337
0.0283186
0.0284065
0.0284974
0.0285917
0.0286892
0.0287904
0.0288952
0.029004
0.029117
0.0292343
0.0293563
0.0294834
0.0296157
0.0297537
0.0298975
0.0300476
0.0302043
0.0303678
0.0305388
0.0307171
0.0309032
0.0310979
0.0313026
0.0315181
0.0317458
0.0319867
0.0322416
0.0325111
0.032796
0.0330969
0.0334144
0.0337493
0.0341021
0.0344728
0.0348614
0.0352679
0.0356918
0.036132
0.0365866
0.0370527
0.0375281
0.038012
0.0385041
0.0390009
0.0394947
0.0399766
0.0404386
0.0408734
0.041274
0.0416327
0.0419413
0.0421923
0.0423789
0.042496
0.042541
0.0425141
0.0424196
0.042266
0.0420663
0.0418389
0.0416066
0.0413962
0.0412376
0.0411606
0.0411951
0.0413642
0.0416859
0.0421655
0.0427971
0.0435592
0.0444154
0.0453177
0.0462035
0.0470106
0.0476657
0.0481145
0.0482936
0.0481789
0.0477332
0.0469811
0.0459251
0.0445966
0.0430454
0.0413259
0.0394889
0.037591
0.035692
0.0338552
0.0321442
0.0306356
0.0294456
0.0285667
0.029342
0.0302607
0.0267362
0.0267675
0.0268003
0.0268346
0.0268704
0.0269079
0.0269469
0.0269878
0.0270304
0.0270749
0.0271213
0.0271698
0.0272203
0.0272731
0.0273281
0.0273855
0.0274453
0.0275075
0.0275722
0.0276395
0.0277095
0.0277822
0.0278577
0.0279361
0.0280175
0.0281018
0.0281893
0.0282798
0.0283736
0.0284708
0.0285714
0.0286756
0.0287836
0.0288957
0.0290119
0.0291326
0.029258
0.0293884
0.0295242
0.0296657
0.0298132
0.0299669
0.0301275
0.0302951
0.0304704
0.0306535
0.0308448
0.0310451
0.0312558
0.0314778
0.0317124
0.0319606
0.0322234
0.0325014
0.0327957
0.0331069
0.0334359
0.0337836
0.0341506
0.0345372
0.0349436
0.0353701
0.0358166
0.0362824
0.0367658
0.0372646
0.0377769
0.0383026
0.0388421
0.0393923
0.0399461
0.040495
0.0410316
0.0415495
0.0420425
0.0425035
0.0429246
0.0432985
0.0436185
0.043879
0.0440766
0.0442106
0.0442831
0.0443007
0.0442733
0.0442162
0.0441481
0.0440921
0.0440739
0.0441195
0.0442554
0.0445023
0.0448768
0.0453843
0.0460204
0.0467667
0.0475911
0.048451
0.0492897
0.050051
0.0506667
0.051087
0.0512513
0.0511372
0.0507071
0.0499844
0.0489683
0.0476864
0.0461845
0.044512
0.0427151
0.0408463
0.0389622
0.0371231
0.0353898
0.0338392
0.0325752
0.0316127
0.0322757
0.0330225
0.0265479
0.0265819
0.0266172
0.026654
0.0266923
0.0267322
0.0267738
0.0268171
0.0268621
0.0269089
0.0269575
0.0270081
0.0270607
0.0271153
0.0271721
0.0272312
0.0272926
0.0273563
0.0274226
0.0274915
0.0275631
0.0276374
0.0277146
0.0277948
0.0278781
0.0279644
0.0280539
0.0281467
0.0282428
0.0283424
0.0284455
0.0285524
0.0286631
0.0287781
0.0288972
0.029021
0.0291496
0.0292833
0.0294226
0.0295676
0.0297187
0.0298763
0.0300409
0.0302128
0.0303925
0.0305804
0.0307767
0.0309824
0.031199
0.0314271
0.031668
0.0319229
0.0321925
0.0324779
0.0327801
0.0330998
0.0334379
0.0337955
0.0341734
0.0345719
0.0349916
0.0354328
0.0358959
0.0363803
0.0368849
0.0374076
0.037947
0.0385036
0.0390781
0.0396682
0.0402669
0.0408662
0.0414598
0.0420418
0.0426068
0.0431484
0.0436594
0.0441326
0.0445616
0.0449406
0.045266
0.0455361
0.0457519
0.0459182
0.0460425
0.0461375
0.0462188
0.0463058
0.0464208
0.0465861
0.046825
0.0471559
0.0475936
0.0481433
0.048801
0.0495509
0.050364
0.0512021
0.0520133
0.0527464
0.0533381
0.0537421
0.0539007
0.0537928
0.0533812
0.052688
0.0517098
0.0504704
0.0490118
0.0473787
0.0456135
0.043765
0.0418876
0.0400393
0.0382798
0.0366884
0.03536
0.034335
0.0349138
0.0355134
0.0263445
0.0263837
0.0264239
0.0264655
0.0265081
0.0265521
0.0265974
0.0266441
0.0266921
0.0267419
0.0267931
0.0268462
0.0269011
0.026958
0.0270168
0.0270778
0.027141
0.0272066
0.0272745
0.027345
0.0274181
0.0274939
0.0275726
0.0276542
0.027739
0.0278268
0.0279179
0.0280122
0.02811
0.0282114
0.0283165
0.0284254
0.0285384
0.0286557
0.0287773
0.0289037
0.029035
0.0291717
0.029314
0.0294622
0.0296168
0.0297778
0.0299461
0.0301219
0.0303058
0.030498
0.0306989
0.0309096
0.0311313
0.0313648
0.0316112
0.0318717
0.0321472
0.0324386
0.032747
0.0330732
0.0334182
0.0337831
0.0341688
0.0345757
0.0350045
0.0354557
0.0359299
0.0364268
0.0369455
0.0374845
0.0380423
0.0386198
0.0392185
0.0398361
0.0404662
0.0411014
0.0417359
0.0423646
0.0429829
0.0435852
0.0441645
0.0447145
0.0452289
0.0457021
0.0461303
0.0465113
0.0468452
0.0471355
0.0473881
0.0476132
0.0478238
0.0480366
0.0482705
0.0485448
0.04888
0.0492919
0.0497937
0.05039
0.0510772
0.0518409
0.0526549
0.0534846
0.054282
0.0550005
0.0555804
0.0559793
0.0561413
0.0560473
0.0556603
0.0550017
0.0540657
0.052872
0.0514591
0.0498677
0.048137
0.0463132
0.0444487
0.0426007
0.0408286
0.0392159
0.0378507
0.0367985
0.037328
0.0378143
0.0261444
0.0261868
0.0262302
0.026275
0.026321
0.0263684
0.0264171
0.0264673
0.0265189
0.026572
0.0266266
0.0266828
0.0267407
0.0268003
0.0268618
0.0269252
0.0269907
0.0270582
0.0271281
0.0272003
0.027275
0.0273523
0.0274325
0.0275155
0.0276016
0.0276907
0.0277831
0.0278788
0.0279779
0.0280806
0.0281871
0.0282976
0.0284121
0.0285311
0.0286546
0.0287829
0.0289164
0.0290553
0.0292001
0.029351
0.0295084
0.0296724
0.0298438
0.030023
0.0302104
0.0304063
0.0306112
0.030826
0.031052
0.0312899
0.0315409
0.031806
0.0320861
0.0323822
0.0326954
0.0330265
0.0333763
0.0337462
0.0341372
0.0345496
0.0349841
0.0354416
0.0359226
0.0364271
0.0369545
0.0375033
0.0380726
0.0386633
0.0392773
0.0399128
0.0405635
0.0412226
0.0418851
0.0425465
0.0432028
0.0438492
0.0444793
0.0450871
0.045667
0.0462134
0.0467225
0.0471921
0.0476216
0.0480134
0.0483721
0.0487061
0.0490264
0.049347
0.0496842
0.0500547
0.0504761
0.0509624
0.0515249
0.0521677
0.0528871
0.0536702
0.0544926
0.0553226
0.0561163
0.0568299
0.0574083
0.0578109
0.0579852
0.0579123
0.0575571
0.0569396
0.056052
0.0549104
0.0535499
0.0520075
0.05032
0.0485311
0.0466926
0.0448611
0.0430967
0.0414875
0.0401161
0.0390704
0.0395807
0.0399843
0.025934
0.0259818
0.0260305
0.0260802
0.0261309
0.0261826
0.0262354
0.0262894
0.0263444
0.0264008
0.0264585
0.0265177
0.0265784
0.0266407
0.0267047
0.0267705
0.0268383
0.026908
0.0269799
0.027054
0.0271305
0.0272095
0.0272911
0.0273755
0.0274629
0.0275533
0.0276468
0.0277437
0.0278439
0.0279478
0.0280555
0.0281672
0.0282831
0.0284034
0.0285284
0.0286583
0.0287935
0.0289343
0.029081
0.029234
0.0293936
0.0295601
0.029734
0.0299158
0.0301062
0.0303051
0.0305131
0.0307311
0.0309604
0.0312018
0.0314564
0.031725
0.0320086
0.0323083
0.032625
0.0329594
0.0333126
0.0336859
0.0340801
0.0344958
0.0349336
0.0353945
0.0358792
0.0363879
0.0369199
0.0374741
0.0380497
0.0386479
0.0392708
0.039917
0.0405805
0.041255
0.0419359
0.0426194
0.0433022
0.0439802
0.0446474
0.0452985
0.0459282
0.0465312
0.0471041
0.0476442
0.0481507
0.0486254
0.0490717
0.0494965
0.0499092
0.0503215
0.0507477
0.0512019
0.0516997
0.0522529
0.0528715
0.0535587
0.054311
0.0551161
0.0559518
0.0567886
0.0575857
0.0583027
0.0588876
0.0593022
0.0594966
0.0594522
0.059136
0.0585671
0.0577355
0.0566537
0.0553537
0.0538693
0.0522352
0.0504935
0.0486954
0.0468976
0.0451614
0.0435791
0.0422281
0.0412158
0.0417284
0.0420729
0.0257257
0.025776
0.0258272
0.0258796
0.0259331
0.0259879
0.0260438
0.0261011
0.0261596
0.0262194
0.0262805
0.026343
0.026407
0.0264724
0.0265394
0.0266081
0.0266786
0.0267509
0.0268252
0.0269016
0.0269802
0.0270612
0.0271448
0.027231
0.02732
0.027412
0.027507
0.0276052
0.0277067
0.0278117
0.0279205
0.0280333
0.0281503
0.0282718
0.0283979
0.028529
0.0286654
0.0288076
0.0289558
0.0291104
0.0292717
0.02944
0.0296158
0.0297997
0.0299922
0.0301934
0.0304037
0.0306242
0.030856
0.0310999
0.031357
0.0316283
0.0319145
0.0322166
0.0325358
0.0328726
0.033228
0.0336032
0.0339994
0.0344168
0.0348563
0.0353188
0.0358052
0.0363155
0.0368495
0.0374061
0.0379847
0.0385867
0.0392143
0.0398664
0.0405374
0.0412212
0.041914
0.0426125
0.0433138
0.0440145
0.0447092
0.0453929
0.046061
0.0467084
0.0473318
0.0479288
0.0484981
0.0490412
0.0495605
0.0500618
0.0505529
0.051044
0.0515472
0.0520749
0.0526403
0.0532539
0.0539241
0.0546535
0.0554385
0.0562675
0.0571199
0.0579682
0.0587749
0.0595013
0.0600997
0.0605325
0.0607536
0.0607435
0.0604727
0.0599585
0.0591894
0.0581743
0.0569424
0.0555243
0.0539533
0.0522701
0.0505255
0.0487765
0.0470855
0.0455487
0.0442386
0.0432775
0.0438064
0.0441084
0.0254964
0.0255514
0.0256073
0.0256642
0.0257219
0.0257808
0.0258405
0.0259015
0.0259634
0.0260266
0.026091
0.0261567
0.0262238
0.0262924
0.0263625
0.0264343
0.0265077
0.0265829
0.02666
0.026739
0.0268202
0.0269036
0.0269894
0.0270777
0.0271687
0.0272624
0.0273591
0.0274588
0.0275617
0.0276681
0.0277782
0.0278922
0.0280103
0.0281329
0.0282602
0.0283924
0.0285299
0.0286732
0.0288227
0.0289785
0.0291412
0.0293108
0.0294881
0.0296735
0.0298676
0.0300704
0.0302824
0.0305046
0.030738
0.0309836
0.0312426
0.0315157
0.0318036
0.0321075
0.0324284
0.0327667
0.0331234
0.0334998
0.033897
0.0343153
0.0347553
0.0352183
0.0357051
0.0362159
0.0367503
0.0373076
0.0378871
0.0384905
0.0391202
0.0397754
0.0404506
0.0411402
0.0418409
0.0425497
0.0432644
0.043982
0.0446976
0.0454067
0.0461052
0.0467883
0.0474531
0.048097
0.0487188
0.0493194
0.0499007
0.0504675
0.0510264
0.051586
0.052157
0.0527499
0.0533761
0.0540447
0.054763
0.0555326
0.0563501
0.0572044
0.0580765
0.0589402
0.0597611
0.0605024
0.0611198
0.0615766
0.0618299
0.0618596
0.0616394
0.0611857
0.0604849
0.0595426
0.0583851
0.0570405
0.0555407
0.0539252
0.0522448
0.0505565
0.0489239
0.0474464
0.046191
0.0452921
0.0458448
0.0461152
0.0252675
0.0253241
0.0253816
0.0254405
0.0255005
0.0255619
0.0256246
0.0256885
0.0257538
0.0258203
0.0258881
0.0259572
0.0260278
0.0260997
0.0261731
0.026248
0.0263246
0.0264028
0.0264828
0.0265647
0.0266486
0.0267345
0.0268229
0.0269135
0.0270068
0.0271026
0.0272012
0.0273027
0.0274074
0.0275153
0.0276267
0.027742
0.0278613
0.0279851
0.0281133
0.0282465
0.0283851
0.0285293
0.0286798
0.0288367
0.0290003
0.029171
0.0293493
0.0295358
0.0297311
0.029935
0.0301482
0.0303714
0.0306059
0.0308526
0.0311127
0.0313869
0.0316761
0.0319811
0.0323031
0.0326424
0.0329999
0.033377
0.0337747
0.0341932
0.0346334
0.0350964
0.035583
0.0360935
0.0366276
0.0371847
0.0377643
0.0383679
0.0389985
0.0396553
0.040333
0.0410265
0.0417328
0.0424493
0.0431742
0.0439053
0.0446377
0.0453676
0.0460913
0.0468044
0.0475041
0.0481881
0.048855
0.0495054
0.0501408
0.0507651
0.0513839
0.0520047
0.0526365
0.0532884
0.0539704
0.0546902
0.0554538
0.0562626
0.0571128
0.0579939
0.0588881
0.0597708
0.0606099
0.0613705
0.0620116
0.0624968
0.0627868
0.0628599
0.0626947
0.0623052
0.0616765
0.0608114
0.059733
0.0584672
0.0570447
0.0555037
0.0538952
0.0522761
0.050711
0.0493014
0.0481093
0.0472775
0.0478579
0.0481037
0.0250197
0.0250806
0.0251424
0.0252053
0.0252691
0.0253341
0.0254
0.025467
0.0255352
0.0256046
0.0256751
0.0257471
0.0258203
0.025895
0.0259712
0.0260489
0.0261283
0.0262093
0.026292
0.0263766
0.0264631
0.0265516
0.0266424
0.0267354
0.0268309
0.0269289
0.0270295
0.027133
0.0272394
0.027349
0.0274621
0.0275789
0.0276997
0.0278247
0.0279543
0.0280886
0.0282283
0.0283736
0.028525
0.0286828
0.0288474
0.0290189
0.0291981
0.0293854
0.0295815
0.0297862
0.0300001
0.030224
0.0304591
0.0307063
0.0309671
0.031242
0.0315319
0.0318377
0.0321604
0.0325004
0.0328584
0.0332359
0.0336338
0.0340525
0.0344926
0.0349554
0.0354418
0.0359519
0.0364855
0.0370423
0.0376215
0.0382252
0.0388562
0.0395141
0.0401938
0.0408904
0.0416014
0.0423244
0.0430581
0.0438005
0.0445475
0.0452955
0.0460412
0.0467806
0.047511
0.0482304
0.0489374
0.0496324
0.0503163
0.0509923
0.0516654
0.0523418
0.0530293
0.0537359
0.0544699
0.0552381
0.0560455
0.0568927
0.0577762
0.0586856
0.0596044
0.0605092
0.0613702
0.0621541
0.0628228
0.0633406
0.0636708
0.0637911
0.063684
0.0633621
0.0628089
0.062024
0.0610282
0.0598449
0.0585039
0.0570423
0.0555109
0.0539668
0.052475
0.0511388
0.0500146
0.0492515
0.0498603
0.0500856
0.0247729
0.0248346
0.0248971
0.0249611
0.0250263
0.025093
0.025161
0.0252303
0.025301
0.025373
0.0254464
0.0255211
0.0255973
0.0256748
0.0257539
0.0258345
0.0259166
0.0260004
0.0260859
0.0261732
0.0262624
0.0263536
0.026447
0.0265426
0.0266406
0.0267409
0.0268439
0.0269495
0.0270579
0.0271694
0.0272843
0.0274027
0.0275249
0.0276513
0.0277821
0.0279176
0.0280583
0.0282046
0.0283569
0.0285156
0.028681
0.0288532
0.0290331
0.029221
0.0294177
0.029623
0.0298373
0.0300616
0.0302969
0.0305444
0.0308055
0.0310809
0.0313712
0.0316775
0.0320007
0.0323412
0.0326995
0.0330774
0.0334756
0.0338945
0.0343346
0.0347974
0.0352836
0.0357935
0.036327
0.0368835
0.0374628
0.0380667
0.0386983
0.0393574
0.0400392
0.040739
0.0414546
0.0421837
0.0429257
0.0436788
0.0444391
0.0452037
0.0459696
0.0467331
0.0474917
0.0482436
0.0489874
0.0497232
0.0504517
0.0511756
0.051899
0.0526272
0.0533671
0.0541252
0.0549089
0.0557239
0.0565741
0.05746
0.0583775
0.059317
0.0602628
0.0611925
0.0620789
0.0628894
0.0635893
0.0641424
0.064516
0.0646858
0.0646394
0.0643868
0.0639104
0.0632076
0.0622963
0.0611978
0.0599408
0.0585616
0.0571106
0.0556449
0.0542296
0.0529691
0.0519145
0.0512189
0.0518557
0.0520632
0.0244999
0.0245651
0.0246314
0.0246988
0.0247673
0.024837
0.0249077
0.0249797
0.0250529
0.0251274
0.0252032
0.0252804
0.025359
0.0254392
0.0255209
0.0256041
0.025689
0.0257756
0.0258639
0.0259539
0.0260458
0.0261397
0.0262357
0.0263338
0.0264342
0.0265369
0.0266421
0.0267498
0.0268603
0.0269738
0.0270905
0.0272106
0.0273346
0.0274625
0.0275947
0.0277315
0.0278734
0.0280207
0.0281741
0.0283337
0.0284999
0.0286728
0.0288532
0.0290417
0.0292389
0.0294446
0.0296592
0.0298836
0.030119
0.0303665
0.0306278
0.0309034
0.0311939
0.0315006
0.0318243
0.0321652
0.0325239
0.0329022
0.0333008
0.03372
0.0341604
0.0346235
0.03511
0.0356201
0.0361537
0.0367107
0.0372905
0.0378951
0.038528
0.039189
0.0398734
0.0405769
0.0412974
0.042033
0.0427832
0.0435468
0.0443203
0.0451009
0.0458862
0.0466725
0.0474578
0.0482404
0.0490187
0.049793
0.0505635
0.0513325
0.0521034
0.0528808
0.0536704
0.0544781
0.0553098
0.0561705
0.0570633
0.0579882
0.0589411
0.0599124
0.0608876
0.0618451
0.0627598
0.0636
0.0643341
0.0649257
0.0653452
0.065567
0.0655833
0.0654015
0.0650035
0.0643838
0.0635582
0.0625458
0.0613743
0.0600792
0.0587105
0.0573249
0.0559877
0.0548038
0.0538188
0.0531885
0.0538517
0.0540431
0.0242307
0.0242959
0.0243621
0.02443
0.0244992
0.0245701
0.0246425
0.0247164
0.0247917
0.0248685
0.0249468
0.0250265
0.0251078
0.0251905
0.0252748
0.0253606
0.0254481
0.0255371
0.025628
0.0257205
0.0258149
0.0259112
0.0260097
0.0261102
0.026213
0.026318
0.0264255
0.0265354
0.0266479
0.0267633
0.0268818
0.0270036
0.0271291
0.0272585
0.027392
0.02753
0.027673
0.0278214
0.0279757
0.0281361
0.028303
0.0284766
0.0286576
0.0288465
0.0290441
0.0292501
0.0294649
0.0296894
0.0299248
0.0301723
0.0304336
0.0307094
0.0310001
0.0313072
0.0316313
0.0319727
0.0323319
0.0327107
0.03311
0.0335298
0.0339708
0.0344345
0.0349218
0.0354326
0.0359672
0.0365251
0.0371061
0.0377123
0.0383472
0.0390109
0.0396987
0.0404066
0.0411327
0.0418754
0.0426343
0.0434088
0.0441954
0.044992
0.0457963
0.0466049
0.0474161
0.0482283
0.0490399
0.0498511
0.0506619
0.0514741
0.0522908
0.0531155
0.0539534
0.0548093
0.0556882
0.0565944
0.05753
0.0584946
0.0594842
0.0604893
0.0614962
0.0624842
0.0634301
0.0643028
0.0650738
0.0657062
0.0661739
0.0664494
0.0665298
0.0664195
0.0660998
0.0655634
0.0648236
0.0638977
0.0628124
0.061602
0.0603162
0.0590113
0.0577524
0.0566445
0.0557278
0.0551596
0.055848
0.0560243
0.0239422
0.0240108
0.0240805
0.0241515
0.0242236
0.024297
0.0243715
0.0244474
0.0245245
0.0246031
0.0246829
0.0247643
0.0248472
0.0249317
0.0250177
0.0251054
0.0251948
0.0252859
0.0253787
0.0254732
0.0255697
0.0256681
0.0257685
0.025871
0.0259758
0.0260828
0.0261921
0.0263039
0.0264182
0.0265354
0.0266557
0.0267792
0.0269063
0.0270372
0.0271723
0.0273115
0.0274558
0.0276053
0.0277606
0.027922
0.0280897
0.0282639
0.0284454
0.0286348
0.0288328
0.0290392
0.0292541
0.0294787
0.029714
0.0299615
0.0302228
0.0304987
0.0307898
0.0310972
0.0314219
0.0317638
0.0321238
0.0325033
0.0329034
0.0333243
0.0337663
0.0342311
0.0347196
0.0352319
0.0357678
0.0363275
0.0369106
0.0375192
0.038157
0.0388243
0.0395164
0.0402296
0.040962
0.0417124
0.0424807
0.0432666
0.0440669
0.0448796
0.045703
0.0465339
0.0473706
0.0482117
0.0490558
0.0499029
0.0507529
0.0516071
0.0524681
0.053339
0.0542241
0.0551274
0.056053
0.0570044
0.0579833
0.0589887
0.0600164
0.0610572
0.0620982
0.0631192
0.0640989
0.0650071
0.0658175
0.0664933
0.067011
0.0673424
0.0674881
0.0674499
0.0672089
0.0667558
0.0661019
0.0652624
0.0642633
0.0631377
0.061935
0.0607107
0.0595297
0.0584966
0.0576467
0.0571374
0.0578493
0.0580114
0.0236612
0.0237291
0.0237981
0.0238687
0.0239408
0.0240146
0.0240899
0.0241668
0.0242452
0.0243251
0.0244066
0.0244896
0.0245742
0.0246603
0.0247481
0.0248375
0.0249286
0.0250213
0.0251159
0.0252122
0.0253105
0.0254106
0.025513
0.0256173
0.025724
0.0258328
0.0259441
0.0260576
0.0261737
0.0262925
0.0264143
0.0265394
0.0266679
0.0268002
0.0269364
0.0270768
0.0272221
0.0273726
0.0275288
0.027691
0.0278595
0.0280343
0.0282163
0.0284062
0.0286045
0.0288112
0.0290263
0.0292509
0.0294863
0.0297338
0.0299953
0.0302714
0.0305628
0.0308707
0.0311961
0.0315388
0.0318995
0.0322801
0.0326815
0.0331036
0.033547
0.0340134
0.0345037
0.0350179
0.0355561
0.0361182
0.0367041
0.0373161
0.0379578
0.0386295
0.0393269
0.0400461
0.0407858
0.0415446
0.042323
0.0431209
0.0439353
0.0447647
0.0456075
0.0464606
0.0473228
0.0481926
0.0490687
0.0499512
0.0508396
0.051735
0.0526396
0.0535559
0.0544876
0.0554379
0.0564102
0.0574073
0.05843
0.0594774
0.0605448
0.0616234
0.0627007
0.0637574
0.0647734
0.0657195
0.0665714
0.0672928
0.0678622
0.0682511
0.068463
0.0684969
0.068334
0.0679637
0.067395
0.0666415
0.0657282
0.064687
0.0635669
0.0624226
0.0613184
0.0603585
0.0595731
0.0591195
0.0598536
0.0600022
0.0233552
0.023426
0.023498
0.0235711
0.0236454
0.0237211
0.023798
0.0238762
0.0239558
0.0240369
0.0241193
0.0242034
0.0242891
0.0243764
0.0244654
0.0245562
0.0246487
0.024743
0.0248391
0.0249369
0.0250368
0.0251385
0.0252424
0.0253483
0.0254565
0.0255668
0.0256796
0.0257945
0.0259121
0.0260324
0.0261557
0.0262821
0.0264121
0.0265456
0.0266831
0.0268247
0.0269711
0.0271226
0.0272798
0.0274428
0.0276119
0.0277873
0.0279699
0.0281602
0.0283589
0.0285659
0.0287813
0.029006
0.0292414
0.029489
0.0297508
0.0300272
0.0303191
0.0306276
0.0309539
0.0312975
0.0316594
0.0320412
0.0324441
0.0328678
0.0333131
0.0337815
0.0342741
0.0347909
0.0353318
0.0358972
0.0364868
0.0371028
0.0377493
0.0384264
0.0391299
0.039856
0.0406037
0.0413718
0.042161
0.0429716
0.0438008
0.0446473
0.0455098
0.0463855
0.0472732
0.0481717
0.0490796
0.049997
0.0509234
0.0518594
0.0528071
0.0537683
0.0547462
0.0557433
0.0567623
0.0578054
0.0588729
0.0599633
0.0610721
0.0621903
0.0633062
0.0644009
0.0654557
0.0664423
0.067338
0.0681072
0.0687301
0.0691782
0.0694571
0.0695638
0.0694789
0.0691909
0.0687069
0.0680389
0.0672108
0.0662536
0.0652154
0.0641503
0.0631219
0.0622335
0.0615107
0.0611098
0.0618648
0.0620006
0.0230597
0.0231292
0.0231998
0.0232719
0.0233455
0.0234209
0.0234978
0.0235764
0.0236566
0.0237383
0.0238218
0.0239068
0.0239935
0.0240818
0.0241719
0.0242638
0.0243574
0.0244528
0.02455
0.024649
0.0247501
0.0248531
0.0249583
0.0250655
0.0251751
0.0252868
0.0254008
0.0255171
0.025636
0.0257575
0.0258819
0.0260095
0.0261405
0.0262751
0.0264135
0.0265559
0.0267031
0.0268554
0.0270133
0.0271771
0.0273468
0.0275228
0.0277058
0.0278965
0.0280957
0.028303
0.0285187
0.0287436
0.0289792
0.0292271
0.0294892
0.0297661
0.0300586
0.030368
0.0306952
0.0310401
0.0314033
0.0317866
0.0321913
0.032617
0.0330645
0.0335354
0.0340308
0.0345506
0.0350949
0.0356642
0.0362581
0.0368792
0.0375311
0.0382145
0.0389248
0.0396587
0.0404152
0.0411933
0.041994
0.042818
0.0436627
0.0445268
0.0454096
0.0463081
0.0472215
0.0481487
0.0490884
0.0500406
0.0510047
0.0519811
0.0529715
0.0539774
0.0550013
0.0560453
0.0571113
0.0582011
0.0593142
0.0604491
0.0616008
0.0627607
0.0639173
0.0650525
0.0661484
0.0671778
0.0681193
0.0689381
0.069616
0.0701248
0.0704715
0.0706507
0.0706433
0.0704368
0.0700367
0.0694534
0.0687098
0.0678358
0.0668786
0.0658916
0.0649375
0.0641188
0.0634565
0.0631054
0.0638805
0.0640041
0.0227381
0.0228104
0.0228837
0.022958
0.0230335
0.0231102
0.023188
0.0232673
0.0233479
0.02343
0.0235137
0.023599
0.0236861
0.0237749
0.0238655
0.023958
0.0240524
0.0241486
0.0242467
0.0243466
0.0244487
0.0245527
0.0246588
0.0247671
0.0248776
0.0249902
0.0251053
0.0252225
0.0253424
0.0254649
0.0255903
0.0257189
0.025851
0.0259866
0.0261259
0.0262693
0.0264173
0.0265704
0.0267291
0.0268935
0.0270639
0.0272404
0.0274239
0.0276151
0.0278147
0.0280224
0.0282384
0.0284636
0.0286995
0.0289478
0.0292105
0.029488
0.0297813
0.0300917
0.0304202
0.0307664
0.0311311
0.0315163
0.031923
0.0323511
0.0328011
0.0332749
0.0337735
0.0342969
0.0348451
0.0354189
0.0360179
0.0366445
0.0373028
0.037993
0.038711
0.0394533
0.0402194
0.0410084
0.0418214
0.0426594
0.0435202
0.0444025
0.0453059
0.0462277
0.047167
0.0481231
0.0490946
0.0500815