/*--------------------------------*- C++ -*----------------------------------*\
  =========                 |
  \\      /  F ield         | OpenFOAM: The Open Source CFD Toolbox
   \\    /   O peration     | Website:  https://openfoam.org
    \\  /    A nd           | Version:  6.0
     \\/     M anipulation  |
\*---------------------------------------------------------------------------*/
FoamFile
{
    version     2.0;
    format      ascii;
    class       surfaceScalarField;
    location    "2";
    object      phi;
}
// * * * * * * * * * * * * * * * * * * * * * * * * * * * * * * * * * * * * * //

dimensions      [0 3 -1 0 0 0 0];

internalField   nonuniform List<scalar> 
30763
(
-5.39383e-05
4.48152e-05
5.54409e-05
-5.2216e-05
5.25389e-05
-5.01101e-05
6.15961e-05
-4.77061e-05
7.22174e-05
-4.48037e-05
8.46698e-05
-4.14627e-05
9.92742e-05
-3.74704e-05
0.000116405
-3.28274e-05
0.000136471
-2.73171e-05
0.000160023
-2.08658e-05
0.000187601
-1.32188e-05
0.00021994
-4.24658e-06
0.000257825
6.37015e-06
0.000302175
1.88893e-05
0.000354045
3.3673e-05
0.000414667
5.10965e-05
0.000485365
7.16377e-05
0.000567583
9.57916e-05
0.000662825
0.000124114
0.000772504
0.000157233
0.000897715
0.000195821
0.00103883
0.000240483
0.00119491
0.000291677
0.00136251
0.000349555
0.00153416
0.000413697
0.0016958
0.000482816
0.00182306
0.000554252
0.00187566
0.000622822
0.00178994
0.000679986
0.00146624
0.000725493
0.000709033
-5.29868e-05
4.33297e-05
5.44456e-05
-5.13139e-05
5.07956e-05
-4.92724e-05
5.95504e-05
-4.69341e-05
6.9817e-05
-4.4114e-05
8.18502e-05
-4.08588e-05
9.59643e-05
-3.69741e-05
0.000112523
-3.24471e-05
0.000131896
-2.70809e-05
0.000154655
-2.07875e-05
0.000181268
-1.33417e-05
0.000212484
-4.58851e-06
0.00024904
5.75213e-06
0.000291815
1.79562e-05
0.000341819
3.23457e-05
0.000400257
4.93056e-05
0.000468394
6.92848e-05
0.000547609
9.2759e-05
0.000639363
0.000120253
0.000745015
0.000152353
0.00086561
0.000189686
0.00100151
0.000232806
0.00115183
0.000282138
0.00131327
0.000337825
0.00147865
0.000399488
0.00163446
0.000465932
0.00175718
0.000534652
0.00180788
0.000600613
0.00172472
0.000655484
0.00141141
0.000699052
0.000682687
-5.14304e-05
4.18946e-05
5.28199e-05
-4.98017e-05
4.91121e-05
-4.78303e-05
5.75756e-05
-4.55621e-05
6.75005e-05
-4.28347e-05
7.91297e-05
-3.9686e-05
9.27705e-05
-3.59317e-05
0.000108776
-3.15572e-05
0.000127479
-2.63725e-05
0.00014947
-2.02906e-05
0.000175148
-1.30942e-05
0.000205277
-4.62959e-06
0.000240547
5.36783e-06
0.000281798
1.71686e-05
0.000329997
3.10775e-05
0.000386325
4.74691e-05
0.000451988
6.67735e-05
0.000528304
8.94463e-05
0.00061669
0.000115992
0.000718461
0.000146971
0.000834615
0.000182977
0.000965492
0.000224539
0.00111027
0.000272064
0.00126578
0.000325696
0.00142509
0.000385083
0.00157518
0.000449085
0.00169332
0.000515301
0.00174193
0.00057883
0.00166117
0.000631561
0.00135847
0.000671604
0.000657948
-4.96663e-05
4.05164e-05
5.10221e-05
-4.81052e-05
4.74943e-05
-4.62157e-05
5.56765e-05
-4.4041e-05
6.52712e-05
-4.14268e-05
7.65097e-05
-3.83991e-05
8.9693e-05
-3.47902e-05
0.000105164
-3.05744e-05
0.00012322
-2.55787e-05
0.00014447
-1.9712e-05
0.000169245
-1.27706e-05
0.000198324
-4.60297e-06
0.000232351
5.04419e-06
0.00027213
1.64327e-05
0.000318588
2.98532e-05
0.000372881
4.56687e-05
0.000436157
6.42899e-05
0.000509677
8.61598e-05
0.000594821
0.000111758
0.000692849
0.000141624
0.000804723
0.000176326
0.000930758
0.000216372
0.0010702
0.000262154
0.00121997
0.000313816
0.00137344
0.000371031
0.00151803
0.000432709
0.00163184
0.000496536
0.00167855
0.000557753
0.00160024
0.000608452
0.00130751
0.000645915
0.000634186
-4.79748e-05
3.91875e-05
4.925e-05
-4.64653e-05
4.59354e-05
-4.46422e-05
5.38477e-05
-4.25379e-05
6.31259e-05
-4.00132e-05
7.39896e-05
-3.7092e-05
8.67336e-05
-3.36134e-05
0.000101691
-2.95534e-05
0.000119123
-2.47428e-05
0.000139658
-1.90932e-05
0.000163562
-1.24072e-05
0.000191626
-4.53696e-06
0.000224454
4.76029e-06
0.000262813
1.57366e-05
0.00030759
2.86721e-05
0.000359922
4.39142e-05
0.000420898
6.18629e-05
0.000491726
8.29352e-05
0.00057374
0.000107602
0.000668168
0.000136377
0.000775919
0.000169808
0.000897294
0.000208385
0.00103159
0.000252488
0.00117585
0.000302261
0.00132365
0.000357396
0.00146289
0.000416849
0.0015724
0.000478383
0.00161711
0.000537382
0.00154111
0.000586181
0.00125838
0.000619632
0.000611274
-4.62365e-05
3.79123e-05
4.74969e-05
-4.47856e-05
4.44385e-05
-4.30387e-05
5.20904e-05
-4.10225e-05
6.10627e-05
-3.86051e-05
7.15643e-05
-3.5799e-05
8.38839e-05
-3.24583e-05
9.83455e-05
-2.85496e-05
0.000115176
-2.39196e-05
0.000135023
-1.84775e-05
0.000158088
-1.20381e-05
0.000185175
-4.45733e-06
0.000216847
4.49835e-06
0.000253838
1.50715e-05
0.000296997
2.75312e-05
0.000347439
4.22147e-05
0.0004062
5.94991e-05
0.000474432
7.97983e-05
0.00055344
0.000103556
0.000644394
0.00013127
0.000748173
0.000163469
0.000865056
0.000200624
0.000994392
0.000243108
0.00113331
0.000291062
0.00127565
0.000344198
0.00140974
0.000401516
0.00151516
0.00046085
0.00155805
0.00051773
0.00148437
0.000564711
0.00121102
0.000594988
0.000589172
-4.46714e-05
3.6679e-05
4.58567e-05
-4.32669e-05
4.29922e-05
-4.15743e-05
5.03942e-05
-3.96175e-05
5.90733e-05
-3.72762e-05
6.92279e-05
-3.45635e-05
8.11406e-05
-3.13393e-05
9.5126e-05
-2.75727e-05
0.000111379
-2.31138e-05
0.000130561
-1.78738e-05
0.000152818
-1.1674e-05
0.000178964
-4.37365e-06
0.000209522
4.25e-06
0.000245195
1.44313e-05
0.000286796
2.64301e-05
0.000335419
4.0567e-05
0.000392046
5.72129e-05
0.000457783
7.67565e-05
0.000533888
9.96328e-05
0.000621502
0.000126321
0.000721458
0.000157328
0.000834014
0.000193113
0.000958573
0.000234037
0.00109236
0.000280242
0.00122942
0.000331457
0.0013585
0.000386719
0.00145988
0.000443934
0.0015009
0.000498773
0.00142939
0.00054404
0.0011654
0.000570059
0.00056784
-4.30405e-05
3.54963e-05
4.42179e-05
-4.16919e-05
4.16038e-05
-4.00737e-05
4.8764e-05
-3.82026e-05
5.71592e-05
-3.59637e-05
6.69778e-05
-3.33599e-05
7.84967e-05
-3.02643e-05
9.20223e-05
-2.66374e-05
0.000107718
-2.23452e-05
0.000126262
-1.72965e-05
0.000147741
-1.13252e-05
0.000172982
-4.29459e-06
0.000202468
4.0097e-06
0.000236873
1.38131e-05
0.000276974
2.53652e-05
0.000323845
3.89768e-05
0.00037842
5.49998e-05
0.00044175
7.38182e-05
0.000515069
9.5843e-05
0.000599462
0.00012154
0.000695734
0.000151399
0.000804116
0.000185862
0.000924064
0.000225283
0.00105288
0.000269802
0.00118484
0.000319166
0.0013091
0.00037245
0.00140664
0.000427624
0.00144593
0.000480509
0.0013766
0.000524123
0.00112135
0.000546677
0.000547265
-4.16068e-05
3.43507e-05
4.27063e-05
-4.0301e-05
4.02604e-05
-3.87296e-05
4.71889e-05
-3.69099e-05
5.53123e-05
-3.47377e-05
6.48093e-05
-3.22171e-05
7.5951e-05
-2.92275e-05
8.90353e-05
-2.57308e-05
0.000104195
-2.15966e-05
0.000122124
-1.67354e-05
0.000142854
-1.09872e-05
0.000167222
-4.21776e-06
0.000195677
3.77702e-06
0.00022886
1.32151e-05
0.000267518
2.43367e-05
0.000312704
3.74392e-05
0.000365302
5.28684e-05
0.00042632
7.09813e-05
0.000496946
9.21878e-05
0.000578244
0.000116929
0.000670967
0.000145682
0.000775334
0.000178873
0.000890841
0.000216846
0.00101487
0.000259744
0.00114191
0.000307325
0.00126148
0.000358701
0.00135525
0.000411908
0.00139279
0.000462907
0.00132549
0.000504952
0.00107894
0.000523231
0.000527417
-4.00879e-05
3.3254e-05
4.11909e-05
-3.88313e-05
3.89731e-05
-3.73291e-05
4.56775e-05
-3.55895e-05
5.35377e-05
-3.35138e-05
6.27231e-05
-3.10958e-05
7.34999e-05
-2.82267e-05
8.61579e-05
-2.48611e-05
0.000100801
-2.08826e-05
0.000118138
-1.62003e-05
0.000138147
-1.06653e-05
0.000161676
-4.14767e-06
0.000189138
3.54999e-06
0.000221146
1.26364e-05
0.000258414
2.33432e-05
0.000301977
3.59595e-05
0.000352674
5.08083e-05
0.000411461
6.825e-05
0.000479505
8.86661e-05
0.000557816
0.000112489
0.000647119
0.000140177
0.000747612
0.000172143
0.000858829
0.000208723
0.000978239
0.000250057
0.00110051
0.000295919
0.00121558
0.000345456
0.00130576
0.000396768
0.00134166
0.000445956
0.00127638
0.000486483
0.00103796
0.000501194
0.000508281
-3.87678e-05
3.2191e-05
3.9795e-05
-3.75507e-05
3.77268e-05
-3.60904e-05
4.42165e-05
-3.43968e-05
5.1825e-05
-3.23817e-05
6.07125e-05
-3.004e-05
7.11399e-05
-2.72687e-05
8.3389e-05
-2.40243e-05
9.75349e-05
-2.01929e-05
0.000114303
-1.5685e-05
0.000133617
-1.03572e-05
0.000156337
-4.08147e-06
0.000182843
3.32879e-06
0.000213719
1.20767e-05
0.00024965
2.23854e-05
0.000291651
3.45292e-05
0.000340515
4.88283e-05
0.000397159
6.56175e-05
0.000462708
8.52744e-05
0.000538147
0.000108214
0.00062416
0.000134877
0.000720924
0.000165665
0.000828014
0.000200905
0.000942972
0.000240735
0.00106066
0.00028494
0.00117135
0.000332704
0.00125799
0.000382188
0.00129225
0.000429627
0.00122886
0.000468706
0.000998521
0.000479218
0.00048983
-3.73543e-05
3.11737e-05
3.83845e-05
-3.61855e-05
3.65325e-05
-3.47935e-05
4.28142e-05
-3.31784e-05
5.01783e-05
-3.12552e-05
5.87767e-05
-2.9011e-05
6.88655e-05
-2.63518e-05
8.07193e-05
-2.32287e-05
9.43863e-05
-1.95405e-05
0.000110606
-1.51972e-05
0.000129252
-1.00656e-05
0.000151195
-4.02254e-06
0.000176781
3.11308e-06
0.000206568
1.15357e-05
0.000241212
2.14605e-05
0.000281709
3.31535e-05
0.00032881
4.69169e-05
0.000383386
6.30847e-05
0.000446542
8.20113e-05
0.00051921
0.000104101
0.000602051
0.000129779
0.000695215
0.000159434
0.000798319
0.000193382
0.000908971
0.000231762
0.00102222
0.000274372
0.0011287
0.000320426
0.00121197
0.000368149
0.00124469
0.000413906
0.00118317
0.000451581
0.00096039
0.000458528
0.000472047
-3.61484e-05
3.01859e-05
3.70993e-05
-3.50174e-05
3.53745e-05
-3.3662e-05
4.1457e-05
-3.20874e-05
4.85875e-05
-3.02176e-05
5.69097e-05
-2.80417e-05
6.66746e-05
-2.54714e-05
7.81495e-05
-2.24592e-05
9.13563e-05
-1.89063e-05
0.000107048
-1.47241e-05
0.000125051
-9.78449e-06
0.000146245
-3.96553e-06
0.000170945
2.90396e-06
0.000199683
1.10133e-05
0.000233087
2.05689e-05
0.000272137
3.18254e-05
0.00031754
4.50817e-05
0.00037013
6.06445e-05
0.00043097
7.88714e-05
0.000500977
0.000100143
0.000580762
0.000124874
0.000670464
0.000153439
0.000769732
0.000186145
0.000876241
0.000223131
0.000985213
0.000264203
0.00108761
0.000308609
0.00116758
0.000354632
0.00119875
0.000398765
0.00113899
0.000435099
0.0009237
0.000438011
0.000454905
-3.48358e-05
2.92423e-05
3.57985e-05
-3.37467e-05
3.42669e-05
-3.24541e-05
4.01564e-05
-3.09522e-05
4.70605e-05
-2.91683e-05
5.51146e-05
-2.70838e-05
6.45657e-05
-2.46183e-05
7.56742e-05
-2.17199e-05
8.84372e-05
-1.83007e-05
0.00010362
-1.42727e-05
0.000121004
-9.51595e-06
0.000141478
-3.9137e-06
0.000165326
2.70108e-06
0.000193055
1.05087e-05
0.000225265
1.97091e-05
0.000262921
3.05502e-05
0.000306689
4.33091e-05
0.000357361
5.82994e-05
0.000415982
7.58503e-05
0.000483418
9.63368e-05
0.000560257
0.000120157
0.000646618
0.000147673
0.000742178
0.000179184
0.000844682
0.000214825
0.000949515
0.000254416
0.00104799
0.000297233
0.00112479
0.00034162
0.00115451
0.000384191
0.00109647
0.000419222
0.000888216
0.00041864
0.000438388
-3.37203e-05
2.8326e-05
3.46089e-05
-3.26662e-05
3.31928e-05
-3.14067e-05
3.88977e-05
-2.99416e-05
4.55854e-05
-2.82071e-05
5.33836e-05
-2.6186e-05
6.25347e-05
-2.38033e-05
7.32919e-05
-2.10085e-05
8.56283e-05
-1.77157e-05
0.000100322
-1.38373e-05
0.000117109
-9.25864e-06
0.000136888
-3.86373e-06
0.000159916
2.5043e-06
0.000186673
1.00222e-05
0.000217733
1.88818e-05
0.000254047
2.93183e-05
0.00029624
4.16083e-05
0.00034507
5.60404e-05
0.000401543
7.29426e-05
0.000466508
9.26747e-05
0.000540513
0.000115618
0.000623657
0.000142126
0.000715653
0.000172488
0.000814302
0.000206836
0.00091515
0.000245001
0.00100981
0.000286287
0.00108353
0.000329094
0.0011118
0.000370156
0.00105539
0.000403941
0.000854084
0.000399531
0.00042247
-3.24988e-05
2.74506e-05
3.33967e-05
-3.14858e-05
3.21651e-05
-3.02883e-05
3.7691e-05
-2.88939e-05
4.41684e-05
-2.72407e-05
5.17179e-05
-2.53063e-05
6.05778e-05
-2.30205e-05
7.09953e-05
-2.03311e-05
8.29203e-05
-1.71609e-05
9.71427e-05
-1.34244e-05
0.000113357
-9.01385e-06
0.000132468
-3.81894e-06
0.000154705
2.31383e-06
0.000180527
9.55291e-06
0.000210481
1.8084e-05
0.000245502
2.81352e-05
0.000286179
3.99666e-05
0.000333229
5.38684e-05
0.000387644
7.01464e-05
0.000450222
8.91525e-05
0.000521495
0.000111254
0.000601532
0.000136791
0.000690083
0.000166046
0.000785
0.000199149
0.000881995
0.00023594
0.000972985
0.000275751
0.00104375
0.000317038
0.00107065
0.000356649
0.00101583
0.000389224
0.000821065
0.000381443
0.000407136
-3.14772e-05
2.6599e-05
3.22985e-05
-3.04983e-05
3.1167e-05
-2.93294e-05
3.65215e-05
-2.79679e-05
4.27982e-05
-2.63582e-05
5.01104e-05
-2.44807e-05
5.8692e-05
-2.22703e-05
6.8784e-05
-1.96758e-05
8.03137e-05
-1.66217e-05
9.40828e-05
-1.30234e-05
0.000109744
-8.77768e-06
0.000128212
-3.77474e-06
0.000149689
2.12978e-06
0.00017461
9.10072e-06
0.000203497
1.73156e-05
0.000237273
2.69932e-05
0.000276489
3.8392e-05
0.000321832
5.17757e-05
0.000374252
6.74562e-05
0.000434539
8.57625e-05
0.000503177
0.000107054
0.000580228
0.000131658
0.000665464
0.000159849
0.000756795
0.000191754
0.000850079
0.000227223
0.000937515
0.000265613
0.0010054
0.000305433
0.00103093
0.000343643
0.00097762
0.000375059
0.000789312
0.000363712
0.000392367
-3.03413e-05
2.57871e-05
3.11793e-05
-2.93979e-05
3.0214e-05
-2.82858e-05
3.54024e-05
-2.69897e-05
4.14842e-05
-2.54561e-05
4.85658e-05
-2.36597e-05
5.68775e-05
-2.15401e-05
6.66546e-05
-1.90446e-05
7.78029e-05
-1.61052e-05
9.11352e-05
-1.264e-05
0.000106265
-8.55097e-06
0.000124114
-3.73432e-06
0.000144858
1.95212e-06
0.000168912
8.66441e-06
0.000196773
1.65754e-05
0.000229349
2.58981e-05
0.000267159
3.68704e-05
0.000310849
4.97656e-05
0.00036136
6.48678e-05
0.000419432
8.25025e-05
0.000485529
0.000103015
0.000559696
0.000126722
0.000641725
0.000153888
0.000729587
0.00018464
0.000819275
0.000218835
0.000903287
0.000255857
0.000968406
0.000294265
0.000992651
0.000331126
0.000940811
0.000361419
0.00075859
0.000346835
0.000378137
-2.93927e-05
2.49972e-05
3.01591e-05
-2.84811e-05
2.92883e-05
-2.73954e-05
3.4318e-05
-2.61295e-05
4.02138e-05
-2.46366e-05
4.70755e-05
-2.28935e-05
5.51293e-05
-2.08446e-05
6.46046e-05
-1.8438e-05
7.53863e-05
-1.56071e-05
8.82981e-05
-1.22703e-05
0.000102915
-8.33408e-06
0.000120168
-3.6948e-06
0.000140207
1.78011e-06
0.000163425
8.24459e-06
0.000190297
1.58637e-05
0.000221717
2.48399e-05
0.000258172
3.5412e-05
0.000300277
4.78289e-05
0.000348937
6.23762e-05
0.000404879
7.93657e-05
0.000468533
9.91282e-05
0.000539924
0.000121972
0.000618872
0.000148153
0.000703396
0.000177796
0.000789626
0.000210766
0.000870324
0.000246469
0.000932744
0.000283517
0.000955714
0.000319076
0.000905264
0.000348293
0.000729049
0.000330333
0.000364437
-2.83339e-05
2.4244e-05
2.91127e-05
-2.74582e-05
2.8404e-05
-2.64289e-05
3.32795e-05
-2.52273e-05
3.89943e-05
-2.38064e-05
4.56419e-05
-2.21405e-05
5.34452e-05
-2.01753e-05
6.26283e-05
-1.78601e-05
7.30563e-05
-1.51342e-05
8.55633e-05
-1.19194e-05
9.96877e-05
-8.12689e-06
0.000116367
-3.65925e-06
0.000135727
1.61444e-06
0.00015814
7.84001e-06
0.00018406
1.51782e-05
0.000214368
2.38245e-05
0.000249517
3.40034e-05
0.000290089
4.59673e-05
0.000336977
5.99803e-05
0.000390861
7.63485e-05
0.000452156
9.53897e-05
0.000520863
0.000117403
0.000596831
0.000142635
0.00067812
0.000171211
0.000761004
0.000203001
0.000838502
0.000237436
0.00089834
0.000273174
0.000920093
0.000307481
0.000871008
0.000335653
0.000700465
0.000314638
0.000351229
-2.74656e-05
2.35095e-05
2.8169e-05
-2.66214e-05
2.75434e-05
-2.56146e-05
3.22714e-05
-2.44399e-05
3.78136e-05
-2.30544e-05
4.42572e-05
-2.14362e-05
5.18213e-05
-1.9535e-05
6.07246e-05
-1.7301e-05
7.08128e-05
-1.46745e-05
8.29301e-05
-1.15781e-05
9.65797e-05
-7.92687e-06
0.000112706
-3.62333e-06
0.000131412
1.45484e-06
0.000153051
7.45104e-06
0.000178053
1.45181e-05
0.000207289
2.28446e-05
0.00024118
3.26539e-05
0.000280282
4.41732e-05
0.000325449
5.7675e-05
0.000377358
7.34439e-05
0.000436381
9.17923e-05
0.000502509
0.000113006
0.00057561
0.000137327
0.000653793
0.000164876
0.000733454
0.000195532
0.000807859
0.000228745
0.000865177
0.000263221
0.00088573
0.00029632
0.000837935
0.00032349
0.000672983
0.000299302
0.000338507
-2.64781e-05
2.28108e-05
2.72013e-05
-2.56652e-05
2.67231e-05
-2.47104e-05
3.13081e-05
-2.35952e-05
3.66822e-05
-2.22777e-05
4.29273e-05
-2.07315e-05
5.0259e-05
-1.89092e-05
5.88913e-05
-1.67608e-05
6.86515e-05
-1.42327e-05
8.03933e-05
-1.12505e-05
9.35857e-05
-7.73337e-06
0.00010918
-3.58967e-06
0.000127256
1.30197e-06
0.000148149
7.07639e-06
0.000172267
1.38834e-05
0.000200471
2.19059e-05
0.000233151
3.1349e-05
0.000270829
4.24508e-05
0.000314352
5.54569e-05
0.000364349
7.06505e-05
0.000421177
8.83321e-05
0.000484813
0.000108777
0.000555137
0.000132221
0.00063031
0.000158781
0.000706846
0.000188345
0.000778268
0.000220382
0.000833167
0.000253644
0.000852578
0.000285581
0.000806048
0.00031178
0.000646392
0.00028475
0.000326253
-2.5671e-05
2.21294e-05
2.6324e-05
-2.48866e-05
2.59247e-05
-2.39522e-05
3.03731e-05
-2.28611e-05
3.55873e-05
-2.15764e-05
4.16432e-05
-2.00748e-05
4.87532e-05
-1.83123e-05
5.7126e-05
-1.62402e-05
6.65709e-05
-1.38052e-05
7.7951e-05
-1.09332e-05
9.07028e-05
-7.54706e-06
0.000105784
-3.55515e-06
0.000123254
1.15504e-06
0.000143428
6.71724e-06
0.000166695
1.32738e-05
0.000193904
2.09993e-05
0.000225416
3.00998e-05
0.000261728
4.07908e-05
0.000303654
5.33216e-05
0.000351815
6.79626e-05
0.000406533
8.50013e-05
0.000467769
0.000104707
0.000535427
0.000127308
0.000607707
0.000152918
0.000681239
0.000181431
0.000749773
0.000212337
0.000802315
0.00024443
0.000820605
0.000275245
0.000775269
0.000300513
0.000620824
0.000270539
0.000314453
-2.47467e-05
2.14811e-05
2.54174e-05
-2.39938e-05
2.51635e-05
-2.31111e-05
2.94789e-05
-2.20783e-05
3.4537e-05
-2.08583e-05
4.04084e-05
-1.94248e-05
4.73026e-05
-1.77353e-05
5.54238e-05
-1.5742e-05
6.45644e-05
-1.33971e-05
7.55964e-05
-1.06298e-05
8.79244e-05
-7.36692e-06
0.000102512
-3.52249e-06
0.000119398
1.01524e-06
0.000138881
6.3722e-06
0.000161328
1.26879e-05
0.000187579
2.01303e-05
0.000217966
2.8893e-05
0.000252957
3.91961e-05
0.000293356
5.12685e-05
0.000339739
6.53772e-05
0.00039242
8.17978e-05
0.000451333
0.000100793
0.000516408
0.000122581
0.000585879
0.000147277
0.000656499
0.00017478
0.000722243
0.000204597
0.000772524
0.000235564
0.000789736
0.000265302
0.00074558
0.000289666
0.000596088
0.000257077
0.000303091
-2.40082e-05
2.08472e-05
2.46059e-05
-2.32825e-05
2.44209e-05
-2.2416e-05
2.86094e-05
-2.14035e-05
3.3519e-05
-2.02111e-05
3.9215e-05
-1.88168e-05
4.59035e-05
-1.71813e-05
5.37841e-05
-1.52575e-05
6.26325e-05
-1.29981e-05
7.33292e-05
-1.03326e-05
8.52489e-05
-7.19114e-06
9.93612e-05
-3.48755e-06
0.000115685
8.82027e-07
0.000134501
6.04215e-06
0.000156159
1.21247e-05
0.000181486
1.92924e-05
0.00021079
2.77384e-05
0.000244513
3.7659e-05
0.000283426
4.92932e-05
0.000328106
6.28878e-05
0.000378822
7.87151e-05
0.000435504
9.70255e-05
0.000498097
0.000118034
0.000564871
0.000141852
0.000632689
0.000168382
0.000695735
0.000197152
0.000743814
0.000227036
0.000759972
0.000255734
0.000716928
0.000279232
0.000572303
0.000243934
0.000292149
-2.31423e-05
2.0246e-05
2.37672e-05
-2.24433e-05
2.37149e-05
-2.16242e-05
2.778e-05
-2.06652e-05
3.25448e-05
-1.95342e-05
3.80696e-05
-1.82031e-05
4.45579e-05
-1.66367e-05
5.22052e-05
-1.47867e-05
6.07713e-05
-1.26121e-05
7.11451e-05
-1.00449e-05
8.26716e-05
-7.01889e-06
9.63263e-05
-3.45299e-06
0.000112108
7.56261e-07
0.000130283
5.72538e-06
0.00015118
1.15845e-05
0.000175617
1.84908e-05
0.000203877
2.66216e-05
0.000236373
3.61842e-05
0.000273869
4.73929e-05
0.000316896
6.04942e-05
0.000365714
7.57501e-05
0.000420237
9.3402e-05
0.000480419
0.00011366
0.000544577
0.000136631
0.000609672
0.000162227
0.000670114
0.00018999
0.000716073
0.000218832
0.00073122
0.00024653
0.000689278
0.000269188
0.000549294
0.000231505
0.000281615
-2.24542e-05
1.96579e-05
2.30132e-05
-2.17782e-05
2.3026e-05
-2.09734e-05
2.69736e-05
-2.00315e-05
3.16009e-05
-1.8926e-05
3.69632e-05
-1.76313e-05
4.32609e-05
-1.61156e-05
5.0685e-05
-1.43308e-05
5.89799e-05
-1.22367e-05
6.90426e-05
-9.76437e-06
8.01902e-05
-6.85133e-06
9.34037e-05
-3.41613e-06
0.000108664
6.36749e-07
0.000126221
5.42336e-06
0.000146385
1.10665e-05
0.000169965
1.77178e-05
0.000197219
2.55536e-05
0.000228537
3.47631e-05
0.000264654
4.55632e-05
0.000306095
5.81907e-05
0.000353088
7.28957e-05
0.000405532
8.99155e-05
0.000463401
0.000109452
0.000525045
0.000131611
0.000587523
0.000156308
0.000645443
0.000183102
0.000689339
0.000210941
0.000703503
0.000237675
0.000662596
0.000259528
0.000527164
0.000219374
0.000271472
-2.16412e-05
1.91004e-05
2.22259e-05
-2.09916e-05
2.23712e-05
-2.02337e-05
2.62041e-05
-1.93441e-05
3.06968e-05
-1.82967e-05
3.59002e-05
-1.70617e-05
4.20119e-05
-1.56098e-05
4.92195e-05
-1.3893e-05
5.72526e-05
-1.18766e-05
6.70158e-05
-9.49467e-06
7.77989e-05
-6.68785e-06
9.05881e-05
-3.37994e-06
0.000105346
5.24515e-07
0.000122308
5.1343e-06
0.000141766
1.0571e-05
0.000164521
1.69774e-05
0.000190806
2.4523e-05
0.000220986
3.33983e-05
0.000255786
4.38044e-05
0.000295687
5.59752e-05
0.000340915
7.01508e-05
0.000391343
8.65623e-05
0.000446967
0.000105404
0.000506164
0.000126782
0.000566102
0.000150615
0.000621583
0.000176477
0.000663496
0.000203351
0.000676707
0.000229157
0.000636838
0.000250231
0.000505763
0.000207928
0.000261708
-2.10136e-05
1.85531e-05
2.15273e-05
-2.03846e-05
2.17303e-05
-1.96376e-05
2.5454e-05
-1.87609e-05
2.98191e-05
-1.77345e-05
3.48717e-05
-1.65307e-05
4.08067e-05
-1.51245e-05
4.78073e-05
-1.34668e-05
5.55891e-05
-1.15243e-05
6.50641e-05
-9.22981e-06
7.5496e-05
-6.52766e-06
8.78763e-05
-3.34112e-06
0.000102151
4.19664e-07
0.000118539
4.86028e-06
0.000137318
1.00955e-05
0.000159277
1.62669e-05
0.000184631
2.35379e-05
0.000213715
3.20813e-05
0.000247227
4.21116e-05
0.000285658
5.38417e-05
0.000329184
6.75095e-05
0.000377678
8.33354e-05
0.000431145
0.000101511
0.000487995
0.000122138
0.000545489
0.00014514
0.000598609
0.000170106
0.000638593
0.000196052
0.000650882
0.000220965
0.000611982
0.000241289
0.000485174
0.00019675
0.000252308
-2.02485e-05
1.8036e-05
2.07957e-05
-1.96421e-05
2.11229e-05
-1.89384e-05
2.47402e-05
-1.811e-05
2.89804e-05
-1.7139e-05
3.38854e-05
-1.59909e-05
3.96479e-05
-1.4645e-05
4.64477e-05
-1.30512e-05
5.39866e-05
-1.11818e-05
6.31839e-05
-8.97189e-06
7.32776e-05
-6.36938e-06
8.52645e-05
-3.29967e-06
9.90735e-05
3.22365e-07
0.00011491
4.59929e-06
0.000133034
9.64434e-06
0.000154229
1.55857e-05
0.000178676
2.25821e-05
0.0002067
3.08202e-05
0.000238992
4.04831e-05
0.000275987
5.17907e-05
0.000317868
6.49696e-05
0.000364489
8.02322e-05
0.000415858
9.77662e-05
0.000470426
0.000117671
0.000525538
0.000139875
0.000576378
0.00016398
0.0006145
0.000189033
0.000625897
0.000213086
0.000587976
0.000232685
0.000465271
0.000186237
0.00024326
-1.96613e-05
1.75278e-05
2.0143e-05
-1.90717e-05
2.05278e-05
-1.83773e-05
2.40439e-05
-1.75593e-05
2.81658e-05
-1.66075e-05
3.29311e-05
-1.54884e-05
3.85297e-05
-1.41856e-05
4.51376e-05
-1.26468e-05
5.24434e-05
-1.0847e-05
6.13734e-05
-8.71785e-06
7.11418e-05
-6.21181e-06
8.27499e-05
-3.25581e-06
9.61105e-05
2.32948e-07
0.000111416
4.35399e-06
0.000128909
9.20526e-06
0.00014936
1.49286e-05
0.000172943
2.16727e-05
0.000199948
2.96016e-05
0.000231038
3.89164e-05
0.000266668
4.98179e-05
0.000306969
6.2525e-05
0.000351785
7.72472e-05
0.000401141
9.41647e-05
0.000453517
0.000113376
0.000506342
0.000134814
0.000554972
0.000158091
0.000591286
0.000182284
0.000601826
0.000205509
0.000564812
0.000224411
0.000446112
0.000175966
0.00023455
-1.89386e-05
1.70479e-05
1.94553e-05
-1.83703e-05
1.99638e-05
-1.7718e-05
2.33809e-05
-1.69464e-05
2.73867e-05
-1.60466e-05
3.2015e-05
-1.49793e-05
3.74536e-05
-1.37321e-05
4.38756e-05
-1.22518e-05
5.09569e-05
-1.05193e-05
5.963e-05
-8.46825e-06
6.90857e-05
-6.05571e-06
8.03295e-05
-3.20949e-06
9.32586e-05
1.49896e-07
0.000108053
4.11118e-06
0.000124936
8.79162e-06
0.000144679
1.42983e-05
0.000167418
2.07883e-05
0.000193436
2.84376e-05
0.000223397
3.74118e-05
0.000257685
4.79214e-05
0.000296455
6.01749e-05
0.000339519
7.43772e-05
0.000386919
9.07017e-05
0.000437154
0.000109247
0.000487753
0.000129947
0.000534242
0.000152428
0.000568813
0.000175795
0.000578513
0.000198224
0.000542432
0.000216452
0.000427603
0.000166341
0.000226167
-1.83968e-05
1.6576e-05
1.88594e-05
-1.78378e-05
1.94116e-05
-1.71886e-05
2.27352e-05
-1.6421e-05
2.66317e-05
-1.55361e-05
3.11313e-05
-1.44943e-05
3.64186e-05
-1.32872e-05
4.26634e-05
-1.18602e-05
4.95291e-05
-1.01936e-05
5.7955e-05
-8.22147e-06
6.71093e-05
-5.90061e-06
7.80022e-05
-3.16222e-06
9.05157e-05
6.86345e-08
0.000104817
3.88946e-06
0.000121117
8.38348e-06
0.000140166
1.36908e-05
0.000162104
1.99515e-05
0.000187179
2.73109e-05
0.000216015
3.59648e-05
0.000249036
4.60958e-05
0.000286327
5.79142e-05
0.000327707
7.16159e-05
0.000373225
8.7372e-05
0.000421409
0.000105277
0.000469866
0.000125269
0.000514282
0.000146986
0.000547161
0.000169558
0.00055606
0.000191219
0.000520837
0.000208798
0.000409779
0.000156925
0.000218097
-1.77156e-05
1.61367e-05
1.82385e-05
-1.71669e-05
1.88958e-05
-1.65528e-05
2.21288e-05
-1.58265e-05
2.59186e-05
-1.49944e-05
3.02914e-05
-1.40027e-05
3.54305e-05
-1.28523e-05
4.15024e-05
-1.14817e-05
4.81592e-05
-9.88071e-06
5.63462e-05
-7.98261e-06
6.52099e-05
-5.75005e-06
7.57643e-05
-3.11524e-06
8.78772e-05
-4.49982e-09
0.000101704
3.66427e-06
0.000117437
8.00209e-06
0.000135832
1.3111e-05
0.000156985
1.91329e-05
0.000181139
2.6236e-05
0.000208926
3.45732e-05
0.000240695
4.43412e-05
0.000276553
5.5741e-05
0.0003163
6.89616e-05
0.000359982
8.4171e-05
0.000406165
0.000101461
0.000452529
0.000120773
0.00049494
0.000141755
0.000526178
0.000163562
0.000534296
0.000184484
0.000499963
0.000201436
0.00039257
0.000148144
0.000210332
-1.72253e-05
1.56948e-05
1.7643e-05
-1.67094e-05
1.83783e-05
-1.6108e-05
2.15239e-05
-1.53918e-05
2.52123e-05
-1.4566e-05
2.94662e-05
-1.35916e-05
3.4466e-05
-1.24663e-05
4.03754e-05
-1.11369e-05
4.68341e-05
-9.58889e-06
5.47939e-05
-7.75887e-06
6.33798e-05
-5.60782e-06
7.36102e-05
-3.07119e-06
8.53384e-05
-7.84605e-08
9.87093e-05
3.46022e-06
0.0001139
7.62616e-06
0.00013165
1.25493e-05
0.000152059
1.8359e-05
0.000175335
2.5194e-05
0.000202075
3.32332e-05
0.00023266
4.26534e-05
0.000267141
5.36496e-05
0.000305312
6.64091e-05
0.000347234
8.10934e-05
0.000391494
9.77935e-05
0.000435849
0.000116453
0.000476315
0.000136728
0.000505967
0.0001578
0.000513343
0.000178009
0.000479822
0.000194358
0.000375983
0.000139545
0.000202858
-1.65883e-05
1.52874e-05
1.70825e-05
-1.60736e-05
1.79003e-05
-1.55008e-05
2.09623e-05
-1.4821e-05
2.45522e-05
-1.40463e-05
2.86893e-05
-1.31217e-05
3.35523e-05
-1.20538e-05
3.9302e-05
-1.07807e-05
4.55675e-05
-9.29707e-06
5.33061e-05
-7.53765e-06
6.16226e-05
-5.46946e-06
7.15392e-05
-3.02823e-06
8.28959e-05
-1.46672e-07
9.58267e-05
3.25266e-06
0.000110492
7.27483e-06
0.000127633
1.20121e-05
0.000147311
1.76021e-05
0.000169732
2.41989e-05
0.000195496
3.19456e-05
0.000224911
4.10307e-05
0.000258056
5.16395e-05
0.000294694
6.3956e-05
0.0003349
7.81356e-05
0.000377277
9.4269e-05
0.000419671
0.000112301
0.000458249
0.000131898
0.000486364
0.000152262
0.000493008
0.000171785
0.000460347
0.00018755
0.000359986
0.000131569
0.000195666
-1.61102e-05
1.48857e-05
1.65414e-05
-1.56193e-05
1.74302e-05
-1.50571e-05
2.04123e-05
-1.43904e-05
2.39088e-05
-1.36293e-05
2.79353e-05
-1.27286e-05
3.26683e-05
-1.1692e-05
3.82655e-05
-1.04619e-05
4.43457e-05
-9.03061e-06
5.18719e-05
-7.33467e-06
5.99295e-05
-5.34151e-06
6.95448e-05
-2.98998e-06
8.05445e-05
-2.16245e-07
9.30525e-05
3.06454e-06
0.000107215
6.92613e-06
0.000123756
1.14932e-05
0.000142744
1.68869e-05
0.000164347
2.32333e-05
0.000189132
3.07067e-05
0.000217447
3.94684e-05
0.000249302
4.97064e-05
0.000284468
6.15967e-05
0.000323023
7.52933e-05
0.000363596
9.08831e-05
0.000404103
0.000108314
0.000440854
0.000127258
0.000467486
0.000146941
0.000473441
0.000165802
0.000441556
0.000181006
0.000344556
0.000123736
0.000188744
-1.55665e-05
1.44978e-05
1.59625e-05
-1.51117e-05
1.69745e-05
-1.45811e-05
1.98776e-05
-1.39549e-05
2.32818e-05
-1.32248e-05
2.72002e-05
-1.23604e-05
3.18073e-05
-1.1356e-05
3.72586e-05
-1.01661e-05
4.31619e-05
-8.78026e-06
5.04857e-05
-7.14221e-06
5.8296e-05
-5.21957e-06
6.76225e-05
-2.9532e-06
7.82793e-05
-2.80098e-07
9.03806e-05
2.87218e-06
0.000104056
6.60164e-06
0.000120033
1.09974e-05
0.00013834
1.61854e-05
0.000159147
2.23134e-05
0.000183023
2.95153e-05
0.000210245
3.79673e-05
0.000240848
4.78488e-05
0.000274582
5.93301e-05
0.000311522
7.25626e-05
0.000350331
8.76299e-05
0.000388988
0.000104483
0.000423968
0.000122801
0.000449154
0.000141828
0.000454433
0.000160052
0.00042338
0.000174711
0.00032969
0.000116525
0.000182084
-1.50908e-05
1.41257e-05
1.5484e-05
-1.46399e-05
1.65391e-05
-1.41191e-05
1.93679e-05
-1.35043e-05
2.26852e-05
-1.27972e-05
2.65005e-05
-1.19627e-05
3.09865e-05
-1.09979e-05
3.62961e-05
-9.85528e-06
4.20274e-05
-8.52408e-06
4.91545e-05
-6.94878e-06
5.67252e-05
-5.09777e-06
6.5773e-05
-2.9159e-06
7.60992e-05
-3.42809e-07
8.78094e-05
2.6988e-06
0.000101018
6.28043e-06
0.000116438
1.05179e-05
0.000134103
1.55237e-05
0.000154148
2.14206e-05
0.000177112
2.83682e-05
0.000203305
3.65238e-05
0.000232705
4.60619e-05
0.000265058
5.71517e-05
0.000300449
6.99389e-05
0.000337562
8.45064e-05
0.000374445
0.000100805
0.000407709
0.00011852
0.000431504
0.000136917
0.000436153
0.000154525
0.000405844
0.000168661
0.000315333
0.000109427
0.000175674
-1.4572e-05
1.37677e-05
1.49491e-05
-1.41469e-05
1.61187e-05
-1.3654e-05
1.88746e-05
-1.30714e-05
2.21067e-05
-1.23953e-05
2.58221e-05
-1.15938e-05
3.01915e-05
-1.06643e-05
3.53656e-05
-9.5619e-06
4.09327e-05
-8.27845e-06
4.78718e-05
-6.76052e-06
5.52128e-05
-4.97853e-06
6.39926e-05
-2.87738e-06
7.40007e-05
-3.99521e-07
8.53337e-05
2.52307e-06
9.80905e-05
5.98245e-06
0.000112986
1.00588e-05
0.000130016
1.48758e-05
0.00014932
2.05697e-05
0.000171438
2.72667e-05
0.000196608
3.51366e-05
0.000224837
4.43454e-05
0.000255842
5.50596e-05
0.00028972
6.74193e-05
0.000325168
8.15067e-05
0.000360313
9.72729e-05
0.000391907
0.00011441