/*--------------------------------*- C++ -*----------------------------------*\
  =========                 |
  \\      /  F ield         | OpenFOAM: The Open Source CFD Toolbox
   \\    /   O peration     | Website:  https://openfoam.org
    \\  /    A nd           | Version:  6.0
     \\/     M anipulation  |
\*---------------------------------------------------------------------------*/
FoamFile
{
    version     2.0;
    format      ascii;
    class       volVectorField;
    location    "20";
    object      U;
}
// * * * * * * * * * * * * * * * * * * * * * * * * * * * * * * * * * * * * * //

dimensions      [0 1 -1 0 0 0 0];

internalField   nonuniform List<vector> 
4920
(
(0.996171 0.0880033 -6.66655e-20)
(0.996165 0.0880055 1.07716e-19)
(0.996158 0.0879972 -3.045e-19)
(0.99615 0.0879867 4.29548e-19)
(0.99614 0.0879705 1.42279e-19)
(0.996126 0.0879493 -1.79427e-19)
(0.996107 0.0879149 4.48028e-19)
(0.996077 0.0878635 -9.81789e-20)
(0.996026 0.0877805 2.27246e-19)
(0.995937 0.0876363 1.51348e-18)
(0.995778 0.0873715 -2.28588e-18)
(0.995493 0.086868 2.8775e-18)
(0.995014 0.085884 1.39556e-18)
(0.994412 0.0837061 6.15071e-19)
(0.989532 0.0772898 -6.40997e-18)
(0.996061 0.0895114 4.57022e-20)
(0.996053 0.0895104 -2.79854e-19)
(0.996035 0.089493 1.36712e-19)
(0.996009 0.0894674 6.20198e-20)
(0.995973 0.0894316 2.99813e-19)
(0.995923 0.0893788 1.0694e-19)
(0.995855 0.0892941 -8.84099e-19)
(0.99576 0.0891583 1.66798e-20)
(0.995619 0.0889446 2.82634e-19)
(0.995405 0.0885915 -2.84221e-18)
(0.995077 0.0879861 3.85771e-18)
(0.994568 0.0869179 -5.73627e-18)
(0.993782 0.0850301 5.18569e-19)
(0.993122 0.0811115 1.35446e-17)
(0.98754 0.0728404 1.97969e-17)
(0.995822 0.0910233 3.17262e-20)
(0.995813 0.0910118 -2.68048e-19)
(0.995788 0.0909764 8.86767e-20)
(0.995745 0.090924 2.16909e-19)
(0.995681 0.090855 -6.49846e-19)
(0.99559 0.090756 1.6541e-19)
(0.995466 0.0906097 2.49302e-19)
(0.995303 0.090381 -5.69606e-19)
(0.995089 0.0900356 7.7105e-19)
(0.994812 0.0894942 -8.38374e-19)
(0.994472 0.088638 1.97762e-18)
(0.994085 0.0872714 -2.72307e-18)
(0.993615 0.085208 -2.60546e-18)
(0.99394 0.0815075 -5.54624e-18)
(0.990649 0.0774671 -1.01735e-17)
(0.995425 0.0926345 1.04016e-20)
(0.995409 0.0926064 -8.76215e-20)
(0.995372 0.0925467 1.35997e-19)
(0.995311 0.0924627 -2.1753e-19)
(0.995219 0.0923525 8.19167e-20)
(0.995087 0.0921983 2.92071e-19)
(0.994905 0.0919785 7.07666e-19)
(0.994669 0.0916451 -2.67132e-19)
(0.994378 0.0911521 3.70902e-19)
(0.994032 0.0904012 2.18098e-18)
(0.993674 0.0892643 -3.86691e-18)
(0.99341 0.0875485 1.89769e-18)
(0.993265 0.0852051 4.08028e-18)
(0.994567 0.0815754 -1.44002e-17)
(0.99303 0.0792698 -1.67192e-18)
(0.994875 0.0943341 8.81091e-20)
(0.994846 0.0942908 -2.05097e-19)
(0.994791 0.0942072 -3.15203e-20)
(0.994705 0.0940898 -1.10957e-19)
(0.99458 0.0939357 -4.70534e-22)
(0.994402 0.0937245 3.61344e-19)
(0.994158 0.0934272 -1.73636e-19)
(0.993844 0.0929831 -1.11424e-18)
(0.993462 0.0923342 3.93481e-20)
(0.99302 0.0913546 -1.8761e-18)
(0.992591 0.0898927 -2.36827e-20)
(0.99236 0.0877313 3.09149e-18)
(0.992404 0.084867 -2.54123e-18)
(0.994421 0.0807941 3.74553e-18)
(0.994367 0.078379 -6.32094e-18)
(0.994145 0.0961175 3.62168e-20)
(0.994102 0.0960749 1.06571e-19)
(0.994026 0.0959718 -3.43379e-19)
(0.993914 0.0958191 2.74821e-19)
(0.993751 0.0956157 1.8833e-19)
(0.993524 0.0953406 -3.93483e-19)
(0.993216 0.0949594 3.00195e-19)
(0.992818 0.0943987 1.1418e-18)
(0.992334 0.093586 3.46238e-19)
(0.99178 0.0923643 7.96934e-19)
(0.991253 0.0905491 3.89081e-18)
(0.991025 0.0878921 -1.05611e-18)
(0.991246 0.0844148 -6.21499e-18)
(0.993924 0.07978 -4.90097e-18)
(0.995435 0.0774304 -2.1117e-18)
(0.993222 0.0979528 -6.1564e-21)
(0.993167 0.0979087 1.12759e-19)
(0.99307 0.0977977 -1.77437e-19)
(0.992929 0.0976202 -8.76716e-20)
(0.992727 0.0973744 4.29061e-19)
(0.992447 0.0970386 -2.41553e-19)
(0.992068 0.0965715 2.05726e-19)
(0.991581 0.0958885 -1.82694e-18)
(0.990989 0.0949033 1.34699e-18)
(0.990313 0.0934252 7.23509e-20)
(0.989678 0.0912284 -3.53202e-18)
(0.989447 0.0880333 -4.70329e-19)
(0.989886 0.0838889 5.13512e-18)
(0.993285 0.0787067 4.007e-17)
(0.996282 0.0766817 1.32394e-17)
(0.992078 0.0998898 -1.64573e-20)
(0.992013 0.0998508 7.04547e-20)
(0.991899 0.0997278 -1.70113e-19)
(0.991731 0.0995229 4.46528e-19)
(0.991491 0.0992316 9.3981e-20)
(0.991156 0.0988295 -2.71149e-19)
(0.990704 0.0982698 -7.03605e-20)
(0.990123 0.0974551 5.69689e-19)
(0.989414 0.0962849 -5.30026e-19)
(0.988604 0.0945331 2.41352e-19)
(0.987845 0.0919224 5.32764e-18)
(0.987594 0.0881317 1.7163e-19)
(0.988268 0.0832197 1.50679e-17)
(0.992438 0.0774132 -5.50203e-17)
(0.996832 0.07565 -1.13564e-17)
(0.990707 0.101913 4.40267e-20)
(0.99063 0.101871 -1.74978e-19)
(0.990498 0.101735 1.03954e-19)
(0.990303 0.101506 -9.4253e-20)
(0.990023 0.101172 -1.01303e-19)
(0.989633 0.100704 -1.18815e-19)
(0.989106 0.100049 5.96632e-19)
(0.988425 0.0990955 -4.35377e-19)
(0.987591 0.097729 8.11294e-19)
(0.986635 0.0956869 -2.62863e-18)
(0.985736 0.0926321 -5.27013e-19)
(0.985447 0.08819 -4.79222e-18)
(0.986366 0.0823974 -1.13017e-17)
(0.991363 0.0758363 2.46586e-18)
(0.997228 0.0743943 1.11007e-17)
(0.989117 0.104079 -3.89775e-20)
(0.989021 0.104021 2.91708e-20)
(0.988868 0.103855 -1.01757e-19)
(0.988643 0.103588 -7.76703e-20)
(0.988321 0.103203 4.77669e-20)
(0.987871 0.102664 -5.51363e-20)
(0.987262 0.101908 3.70622e-19)
(0.986474 0.100808 -3.95062e-19)
(0.985505 0.0992332 1.02706e-19)
(0.984392 0.0968828 -2.42926e-19)
(0.983345 0.0933535 -1.32745e-19)
(0.983017 0.0882177 3.71235e-20)
(0.984218 0.0814632 -1.87403e-18)
(0.990133 0.0740588 1.65994e-17)
(0.997696 0.0731801 -1.05874e-18)
(0.987311 0.106366 -3.53873e-22)
(0.987186 0.106292 -1.38591e-20)
(0.987003 0.10609 -2.47395e-19)
(0.986741 0.10578 4.05439e-19)
(0.986371 0.105336 2.94029e-19)
(0.985856 0.104717 -5.02327e-19)
(0.98516 0.103851 1.8349e-19)
(0.984255 0.102593 -3.14666e-19)
(0.983142 0.100793 -2.89812e-20)
(0.981861 0.0981121 3.25193e-18)
(0.980665 0.0940776 -2.5092e-18)
(0.980313 0.0882088 -2.52349e-18)
(0.981868 0.0804423 1.53169e-18)
(0.98883 0.0721589 -1.56413e-17)
(0.998317 0.0720861 1.66121e-18)
(0.985291 0.108803 5.20418e-21)
(0.985127 0.1087 1.79047e-19)
(0.984906 0.108448 -8.18297e-20)
(0.984598 0.108083 -2.18528e-19)
(0.984172 0.10757 1.35985e-19)
(0.983584 0.10686 1.79264e-20)
(0.98279 0.105877 -2.02963e-19)
(0.981757 0.104447 -4.37005e-19)
(0.980487 0.102405 -4.04291e-19)
(0.979029 0.0993653 -2.59709e-18)
(0.977678 0.0947783 -4.62901e-18)
(0.977318 0.0881266 1.1289e-17)
(0.979312 0.0792953 -4.48992e-18)
(0.987478 0.070124 4.13983e-17)
(0.999057 0.0709195 -1.25528e-17)
(0.983054 0.111345 2.84564e-20)
(0.982838 0.111227 2.95143e-20)
(0.982568 0.110928 1.20302e-19)
(0.982206 0.110509 1.04963e-19)
(0.981715 0.109921 -1.46464e-19)
(0.981045 0.109111 3.22649e-19)
(0.980143 0.107997 -2.74349e-19)
(0.978971 0.10638 -4.78714e-20)
(0.97753 0.104068 2.32239e-19)
(0.975873 0.100635 8.40631e-19)
(0.974355 0.0954418 3.8878e-18)
(0.973996 0.0879272 5.18652e-18)
(0.976513 0.0779447 1.71637e-17)
(0.986054 0.0678682 -3.46503e-17)
(0.999851 0.0695033 1.83118e-17)
(0.980598 0.114022 -6.01829e-20)
(0.980323 0.113866 -1.42428e-20)
(0.979997 0.113512 1.6413e-19)
(0.979571 0.113034 -5.25077e-20)
(0.979004 0.112372 1.01255e-19)
(0.978239 0.11146 6.15974e-20)
(0.977215 0.11021 -4.41705e-19)
(0.975885 0.108389 1.73479e-19)
(0.974249 0.10579 -4.47917e-19)
(0.972368 0.101921 2.00429e-18)
(0.970657 0.0960404 -9.4914e-19)
(0.970292 0.0875563 -8.69843e-18)
(0.973418 0.0762955 -2.27137e-17)
(0.984518 0.0652684 1.08695e-17)
(1.00066 0.0676432 -2.97989e-18)
(0.977893 0.116822 2.96909e-20)
(0.977553 0.116672 3.35111e-20)
(0.977162 0.11627 -2.60947e-19)
(0.976666 0.11573 5.22501e-19)
(0.976015 0.114975 -1.72211e-19)
(0.975146 0.113942 1.39906e-19)
(0.973986 0.112535 -1.25623e-19)
(0.972474 0.110496 -4.89939e-19)
(0.970617 0.107578 2.0216e-18)
(0.968479 0.103224 -2.12438e-18)
(0.966543 0.0965736 2.05703e-18)
(0.966165 0.0869781 -2.91557e-18)
(0.97 0.074277 1.36776e-17)
(0.982852 0.0622387 -1.14242e-17)
(1.00152 0.0653604 -6.46072e-18)
(0.974954 0.119765 1.69173e-20)
(0.974546 0.119563 1.29871e-19)
(0.974084 0.119106 -2.18854e-19)
(0.973504 0.118508 1.06936e-19)
(0.972752 0.117678 -1.68586e-19)
(0.971757 0.116533 2.27478e-20)
(0.970432 0.114978 8.76899e-19)
(0.96872 0.112708 -1.47958e-18)
(0.966611 0.109439 -4.31058e-20)
(0.964175 0.104545 2.42026e-18)
(0.961973 0.0970186 -6.58539e-18)
(0.96157 0.0861464 1.42402e-18)
(0.96623 0.0718132 -2.31839e-19)
(0.981056 0.058693 2.70153e-17)
(1.00244 0.062596 -7.05755e-18)
(0.97171 0.122924 8.86786e-21)
(0.97123 0.122742 -4.09131e-22)
(0.970692 0.122228 -7.04955e-20)
(0.970024 0.121551 2.68336e-19)
(0.969166 0.120608 -2.03825e-19)
(0.968033 0.119323 1.05724e-19)
(0.966539 0.117579 1.82222e-19)
(0.9646 0.11504 -5.38189e-19)
(0.962203 0.111391 6.04014e-19)
(0.959426 0.105899 -4.27064e-18)
(0.956914 0.0973847 4.92338e-18)
(0.956484 0.0850392 1.90903e-18)
(0.962118 0.0688641 -2.65205e-18)
(0.979165 0.0546126 -1.11919e-17)
(1.00349 0.0594394 1.73588e-17)
(0.968178 0.126249 7.18692e-20)
(0.967626 0.125988 -1.58261e-19)
(0.967009 0.125405 1.39803e-19)
(0.966247 0.12466 7.56979e-20)
(0.965273 0.123635 -2.57859e-19)
(0.963992 0.122221 2.09789e-19)
(0.962298 0.120302 -2.3613e-19)
(0.960106 0.117513 2.02832e-19)
(0.957377 0.113442 3.36559e-18)
(0.9542 0.107281 -2.11686e-18)
(0.951326 0.0976445 -1.18084e-18)
(0.950867 0.0835964 -1.33858e-18)
(0.957665 0.0653628 -8.8497e-19)
(0.977219 0.0499484 -1.45194e-17)
(1.00472 0.0558503 -9.32798e-18)
(0.964354 0.129819 7.63211e-21)
(0.96374 0.129539 5.63123e-20)
(0.963045 0.128879 -2.00042e-19)
(0.962185 0.128044 4.38428e-19)
(0.961082 0.126896 -1.56973e-19)
(0.95963 0.125346 2.5378e-19)
(0.957714 0.12323 1.55266e-19)
(0.955221 0.120139 6.22712e-19)
(0.952101 0.115622 -1.11089e-18)
(0.948459 0.108716 2.46647e-18)
(0.945175 0.0978095 7.42352e-18)
(0.944712 0.0817943 8.58833e-18)
(0.952916 0.0612816 -1.51645e-17)
(0.975289 0.044741 2.90779e-17)
(1.0062 0.0519939 -1.55104e-18)
(0.960266 0.133658 -5.95457e-20)
(0.959604 0.133243 5.48248e-20)
(0.958833 0.132499 -6.1326e-20)
(0.957862 0.13159 -1.26562e-19)
(0.956608 0.130355 2.66162e-19)
(0.954953 0.12866 -7.21314e-19)
(0.952763 0.12635 -3.95928e-19)
(0.949922 0.122978 1.96895e-19)
(0.946345 0.117944 9.82564e-20)
(0.942166 0.110184 1.27645e-18)
(0.938413 0.0978269 -1.24934e-17)
(0.937976 0.0795331 -4.41154e-18)
(0.947888 0.0565314 1.09774e-17)
(0.973435 0.0389428 -2.18449e-17)
(1.00796 0.0478148 -2.01872e-18)
(0.955769 0.137959 5.00082e-20)
(0.955071 0.137545 -1.82117e-20)
(0.954236 0.136688 -1.97668e-19)
(0.953165 0.135643 1.73685e-19)
(0.95176 0.134227 4.72175e-19)
(0.949889 0.132345 -2.22244e-19)
(0.947411 0.129775 -5.29425e-20)
(0.944168 0.126027 -1.04493e-18)
(0.940061 0.120436 -9.81985e-19)
(0.935267 0.111709 5.46528e-19)
(0.930991 0.0976995 1.02111e-17)
(0.93064 0.0767559 -7.44299e-19)
(0.942646 0.0510683 1.05391e-18)
(0.971729 0.0325815 9.87814e-18)
(1.01006 0.0434004 1.37854e-18)
(0.950858 0.142491 -5.61493e-21)
(0.950127 0.141938 3.61758e-20)
(0.949235 0.140997 -2.16307e-19)
(0.948067 0.139858 -1.4759e-19)
(0.946512 0.138321 -5.57775e-20)
(0.944419 0.136248 4.07537e-19)
(0.941613 0.133435 1.61503e-19)
(0.937922 0.129342 1.57041e-18)
(0.933205 0.123091 2.10811e-18)
(0.927702 0.113238 -8.51712e-19)
(0.922834 0.0973272 -7.49036e-19)
(0.922657 0.0733047 5.24951e-18)
(0.93722 0.0447703 6.50717e-18)
(0.970223 0.0255846 1.72048e-17)
(1.01249 0.0386589 5.13372e-19)
(0.945506 0.147382 9.06776e-21)
(0.94475 0.146813 2.69821e-20)
(0.943811 0.145768 2.89924e-20)
(0.942552 0.144503 -1.70955e-19)
(0.940845 0.142788 7.306e-20)
(0.938507 0.140527 6.52924e-19)
(0.935346 0.137424 -1.1478e-18)
(0.931136 0.13289 -7.77482e-19)
(0.925709 0.125937 -1.59034e-19)
(0.919394 0.114789 -1.06656e-18)
(0.913871 0.0966879 -2.91938e-18)
(0.914043 0.0691075 -4.07104e-18)
(0.931719 0.0376018 9.32203e-18)
(0.969018 0.0180361 -1.00368e-17)
(1.01533 0.0337287 2.46495e-19)
(0.939777 0.152466 -7.71388e-21)
(0.939005 0.151731 3.09757e-20)
(0.938012 0.150626 -1.06353e-20)
(0.936647 0.149305 3.9011e-20)
(0.934759 0.147502 -3.67562e-20)
(0.932142 0.14506 -4.81241e-19)
(0.928558 0.141702 5.58569e-19)
(0.923764 0.136755 -8.72524e-20)
(0.91751 0.128944 -4.38704e-18)
(0.910263 0.116275 4.44585e-19)
(0.904034 0.0956245 -7.96748e-18)
(0.904793 0.0639534 -1.20183e-17)
(0.926224 0.0294497 -3.00467e-17)
(0.968185 0.00990042 2.95381e-19)
(1.01858 0.0285586 -1.04109e-19)
(0.933558 0.15808 -1.08048e-20)
(0.932781 0.157362 -2.96019e-20)
(0.931743 0.156141 6.5384e-20)
(0.930268 0.154686 -3.16009e-19)
(0.928186 0.152697 3.1009e-19)
(0.925254 0.150058 -4.09259e-19)
(0.921208 0.146363 3.44851e-19)
(0.915736 0.140881 1.855e-18)
(0.908523 0.132153 -2.02704e-19)
(0.900235 0.117705 2.61826e-18)
(0.893277 0.0940954 -3.96368e-18)
(0.894966 0.0577462 1.35236e-17)
(0.920884 0.0202947 1.29159e-17)
(0.967828 0.00128514 -2.20464e-17)
(1.02231 0.023326 -2.02899e-19)
(0.926849 0.163908 -1.2281e-21)
(0.926063 0.163056 -1.3492e-20)
(0.924974 0.161795 -6.51489e-20)
(0.923382 0.16029 -1.7955e-19)
(0.921088 0.158203 3.47572e-19)
(0.917814 0.155357 9.6949e-20)
(0.913228 0.151363 8.51171e-19)
(0.906998 0.145364 -3.3808e-18)
(0.898683 0.135488 1.3339e-18)
(0.889241 0.118945 -7.26823e-18)
(0.881537 0.0918612 5.66776e-18)
(0.884615 0.0502404 -1.15279e-17)
(0.915815 0.0100334 3.28513e-17)
(0.968003 -0.00785808 2.58961e-17)
(1.02645 0.0179576 1.75427e-18)
(0.919574 0.170231 5.24889e-21)
(0.918789 0.169398 -3.7557e-20)
(0.917664 0.168034 -8.81761e-20)
(0.91596 0.166413 1.43413e-20)
(0.913443 0.164158 2.50713e-19)
(0.909782 0.161128 -3.64419e-20)
(0.904593 0.156769 -1.03585e-18)
(0.897487 0.150127 1.92077e-18)
(0.887916 0.138997 1.62214e-18)
(0.877214 0.119998 4.43341e-18)
(0.868797 0.0888536 -9.26484e-19)
(0.87391 0.0413834 1.83104e-17)
(0.911232 -0.00125872 -4.66425e-19)
(0.968837 -0.0173216 1.50456e-17)
(1.03109 0.0126619 -1.59605e-18)
(0.911924 0.176565 7.59301e-21)
(0.911139 0.175574 -9.14695e-20)
(0.909949 0.174259 -5.23048e-20)
(0.908086 0.172686 8.52054e-20)
(0.905284 0.170417 -3.97425e-19)
(0.901159 0.167233 -6.09219e-19)
(0.895254 0.162573 1.55291e-19)
(0.887169 0.15527 1.62413e-18)
(0.876168 0.142548 1.15686e-18)
(0.864102 0.120677 2.94935e-18)
(0.855062 0.0847581 4.89977e-18)
(0.863015 0.0309418 -1.64849e-18)
(0.907291 -0.0136139 -3.72093e-17)
(0.970378 -0.0270711 -1.06648e-17)
(1.03613 0.00743544 2.18727e-19)
(0.903759 0.183568 5.72385e-21)
(0.90298 0.182686 -1.34597e-19)
(0.90172 0.181314 -1.81535e-20)
(0.899676 0.179669 7.36644e-20)
(0.896548 0.177264 3.84159e-19)
(0.891896 0.173905 3.03962e-19)
(0.885204 0.168816 -3.12581e-19)
(0.875968 0.160691 -6.74205e-19)
(0.863395 0.146205 -1.17255e-18)
(0.849869 0.120974 -8.43263e-18)
(0.840359 0.079457 2.55156e-19)
(0.852172 0.0189043 -1.89199e-17)
(0.904212 -0.026888 1.74743e-17)
(0.972749 -0.0368229 9.10619e-18)
(1.04163 0.00256364 3.05401e-18)
(0.895021 0.190728 -8.52503e-21)
(0.894246 0.189828 -8.40584e-20)
(0.892912 0.188533 1.64113e-19)
(0.890679 0.186931 -7.99604e-20)
(0.887209 0.184487 2.90977e-19)
(0.881991 0.180941 -2.8795e-19)
(0.874404 0.175492 8.48756e-19)
(0.863888 0.166483 -1.32772e-18)
(0.849548 0.149772 5.48921e-19)
(0.834455 0.120627 -7.42685e-19)
(0.824718 0.0725185 4.50887e-18)
(0.841589 0.00501152 -2.83367e-17)
(0.902104 -0.0411211 -1.38148e-17)
(0.975924 -0.0465622 2.86266e-18)
(1.04744 -0.00195872 -1.46749e-18)
(0.885669 0.198428 -1.61528e-20)
(0.884919 0.197668 3.93706e-20)
(0.883532 0.196362 -1.6829e-19)
(0.881119 0.19472 -1.3899e-19)
(0.87729 0.192174 2.75948e-19)
(0.871456 0.18849 2.19052e-19)
(0.86288 0.18259 -1.5276e-18)
(0.850873 0.172551 1.47804e-18)
(0.834575 0.153357 -1.1999e-19)
(0.817813 0.119592 6.82056e-18)
(0.808255 0.0638392 -1.70083e-17)
(0.831577 -0.0106303 3.89177e-17)
(0.901204 -0.0560197 -2.08177e-17)
(0.98002 -0.0559344 -2.08483e-17)
(1.05364 -0.00592773 -6.74562e-19)
(0.875704 0.206063 -3.06342e-20)
(0.875014 0.20536 -9.4809e-21)
(0.873602 0.204194 5.08008e-20)
(0.871024 0.202675 2.49154e-19)
(0.866834 0.20018 -3.52681e-19)
(0.860334 0.196405 -8.58186e-19)
(0.850634 0.190188 1.18622e-18)
(0.836994 0.179043 -1.65985e-18)
(0.818432 0.156733 8.89232e-20)
(0.799929 0.117536 -5.95444e-18)
(0.79119 0.0529964 2.10202e-17)
(0.822448 -0.0281782 -1.14591e-17)
(0.901608 -0.0715201 -3.72201e-19)
(0.984963 -0.0647844 -2.92954e-18)
(1.06001 -0.00924475 -1.07617e-17)
(0.865246 0.213904 -3.40139e-20)
(0.864663 0.213356 -2.06597e-20)
(0.86325 0.21233 -1.49089e-20)
(0.86051 0.210943 3.65549e-21)
(0.855927 0.208553 1.64546e-19)
(0.848675 0.204843 2.54741e-19)
(0.837738 0.198259 -4.94636e-19)
(0.822075 0.185845 8.91537e-19)
(0.801072 0.160092 4.82925e-18)
(0.780811 0.114367 9.83893e-19)
(0.773735 0.0399549 -1.15208e-17)
(0.814525 -0.0473142 -1.02346e-17)
(0.903539 -0.0871325 1.87598e-17)
(0.990898 -0.0725972 7.00234e-18)
(1.06666 -0.011546 3.48676e-18)
(0.854351 0.221575 1.37132e-20)
(0.853915 0.221203 -4.99038e-20)
(0.852514 0.220518 8.2755e-20)
(0.849593 0.219446 -2.69055e-19)
(0.844545 0.217328 8.47183e-20)
(0.836403 0.213728 8.4845e-19)
(0.823924 0.206965 4.25553e-19)
(0.806108 0.193141 3.33905e-19)
(0.782326 0.162934 -1.69981e-18)
(0.760445 0.109587 4.81492e-18)
(0.756169 0.0241959 -1.48113e-17)
(0.808002 -0.0682977 5.88603e-17)
(0.906962 -0.102822 3.55452e-18)
(0.997605 -0.0792284 4.1858e-18)
(1.07328 -0.0127309 1.65372e-17)
(0.842721 0.229651 -7.74088e-21)
(0.842486 0.229578 1.72263e-20)
(0.841127 0.229169 -9.30552e-20)
(0.837997 0.228436 3.59754e-19)
(0.832381 0.226649 -1.8715e-19)
(0.823244 0.22333 -5.6896e-19)
(0.809065 0.216165 -3.81319e-20)
(0.788719 0.200584 7.20206e-20)
(0.762079 0.165419 -1.01227e-17)
(0.73889 0.103029 1.23671e-17)
(0.738635 0.00569725 1.44067e-17)
(0.803044 -0.090741 -2.92406e-17)
(0.912042 -0.118007 9.02442e-18)
(1.00522 -0.0842995 1.52646e-18)
(1.07999 -0.0127618 -9.50273e-18)
(0.830014 0.237668 -1.20138e-20)
(0.829995 0.238014 -3.44116e-20)
(0.828704 0.238139 6.32899e-20)
(0.825385 0.237918 -2.32282e-19)
(0.819285 0.2365 6.83714e-20)
(0.809011 0.233356 2.32136e-20)
(0.792931 0.225994 1.02277e-18)
(0.770093 0.208409 -2.7216e-18)
(0.740322 0.166857 1.0287e-17)
(0.716347 0.0942045 -9.05818e-18)
(0.721723 -0.0157457 1.28816e-17)
(0.799893 -0.114775 -1.88795e-17)
(0.918708 -0.132399 -3.98926e-20)
(1.01343 -0.0874617 -2.82974e-18)
(1.0864 -0.0114153 -2.73476e-18)
(0.816347 0.245946 -1.4838e-20)
(0.816556 0.246705 -1.69715e-20)
(0.815382 0.247322 1.07421e-19)
(0.81194 0.247537 -3.79944e-20)
(0.805258 0.24668 5.33846e-20)
(0.793767 0.244045 -4.01142e-19)
(0.775696 0.236093 -8.00971e-19)
(0.75003 0.216156 4.66353e-18)
(0.717078 0.167564 -4.50865e-18)
(0.692988 0.0830224 -1.09218e-17)
(0.70561 -0.0397648 -2.74473e-17)
(0.798709 -0.139466 3.71243e-17)
(0.927181 -0.144969 1.11065e-17)
(1.02245 -0.0881464 2.43693e-18)
(1.09272 -0.00853896 1.11467e-17)
(0.801896 0.253975 -1.58486e-20)
(0.802398 0.255172 4.56864e-20)
(0.801375 0.256421 -6.48921e-20)
(0.797784 0.257447 7.82817e-20)
(0.790411 0.25732 -5.29202e-20)
(0.777486 0.25506 2.84539e-19)
(0.757307 0.246773 -7.24041e-19)
(0.728816 0.224242 1.62974e-18)
(0.692312 0.166596 -7.60562e-18)
(0.669121 0.06893 -2.18647e-18)
(0.690623 -0.0669849 -2.42619e-17)
(0.799498 -0.165102 -7.32883e-18)
(0.937135 -0.155358 -6.02853e-18)
(1.03173 -0.0859936 7.19011e-18)
(1.09841 -0.00386291 -3.09321e-17)
(0.786702 0.262227 4.41956e-21)
(0.787564 0.263782 -1.68527e-20)
(0.786676 0.265733 4.28552e-21)
(0.782799 0.267662 -1.43015e-19)
(0.774559 0.268537 2.6529e-19)
(0.760234 0.266669 -3.5007e-19)
(0.737616 0.25734 7.29881e-19)
(0.706102 0.231994 -6.34771e-18)
(0.666213 0.164733 1.43149e-17)
(0.644786 0.0522046 1.14561e-18)
(0.676048 -0.0977067 3.39279e-17)
(0.801953 -0.191165 -4.37017e-18)
(0.948577 -0.162957 -9.72634e-18)
(1.04142 -0.0811333 -5.16877e-18)
(1.10372 0.00208509 3.67103e-17)
(0.770396 0.270868 4.81134e-21)
(0.771667 0.272916 -3.27894e-20)
(0.770902 0.27578 -4.15715e-20)
(0.766701 0.278759 3.0878e-19)
(0.757641 0.280221 -2.68507e-19)
(0.741486 0.278505 5.17701e-19)
(0.716583 0.268379 -1.18554e-18)
(0.682977 0.240437 1.05245e-18)
(0.639133 0.161072 3.63864e-18)
(0.620331 0.0323129 4.44595e-17)
(0.66239 -0.132264 -6.05804e-18)
(0.806255 -0.21716 3.2994e-17)
(0.961187 -0.166655 9.36682e-19)
(1.05089 -0.0728118 -1.05318e-17)
(1.10802 0.00983217 -1.6663e-17)
(0.752035 0.280604 9.3018e-21)
(0.753855 0.283129 -3.68531e-21)
(0.753401 0.286692 -9.08216e-21)
(0.749028 0.290357 1.75922e-20)
(0.739024 0.292603 2.20563e-19)
(0.721249 0.290701 4.19424e-19)
(0.694552 0.27871 2.43073e-19)
(0.658939 0.248223 2.55899e-18)
(0.611255 0.157557 -6.37446e-18)
(0.594208 0.00919935 -6.83296e-17)
(0.647305 -0.172901 5.79936e-17)
(0.811929 -0.241335 -8.14867e-17)
(0.974891 -0.165576 3.8932e-19)
(1.06028 -0.0613705 1.96324e-17)
(1.11172 0.018766 -1.35186e-17)
(0.730973 0.290748 -5.04428e-21)
(0.733515 0.293683 -2.7357e-20)
(0.733574 0.29804 2.76685e-20)
(0.729206 0.302571 -1.51878e-19)
(0.718336 0.305077 8.47483e-21)
(0.699138 0.302504 1.13481e-19)
(0.672083 0.289273 6.34982e-19)
(0.635266 0.25703 2.9844e-19)
(0.583526 0.15309 -3.14332e-18)
(0.566032 -0.0179891 8.5893e-18)
(0.631882 -0.219091 -7.94155e-17)
(0.819103 -0.26174 7.68945e-18)
(0.989238 -0.157679 7.96902e-18)
(1.06875 -0.045651 -2.00613e-17)
(1.11395 0.0293302 1.51539e-17)
(0.707384 0.301106 -5.03596e-21)
(0.710662 0.304246 4.09081e-20)
(0.711315 0.30947 -9.89995e-20)
(0.706884 0.314847 1.03167e-19)
(0.695558 0.317793 -2.78661e-19)
(0.677063 0.31396 -2.22672e-20)
(0.649195 0.298093 -2.71963e-19)
(0.61201 0.265139 -2.83164e-18)
(0.556791 0.152948 5.35693e-18)
(0.529694 -0.0510611 4.63373e-17)
(0.61006 -0.276097 1.2957e-16)
(0.823936 -0.277408 2.37656e-17)
(1.00303 -0.144162 -1.79441e-17)
(1.07625 -0.0273788 1.28741e-17)
(1.11537 0.0406145 -2.61809e-18)
(0.681375 0.312382 -9.06449e-21)
(0.685536 0.315324 -5.29365e-21)
(0.68689 0.321523 6.0692e-20)
(0.682954 0.327452 -2.93121e-20)
(0.672207 0.328977 -1.60534e-19)
(0.653036 0.323865 2.09512e-19)
(0.627958 0.308599 -1.46666e-18)
(0.592232 0.277247 1.82383e-18)
(0.530996 0.152231 -2.43432e-18)
(0.480427 -0.0921275 1.43576e-17)
(0.604326 -0.293734 3.25721e-17)
(0.842327 -0.271904 5.88803e-19)
(1.01921 -0.120485 3.01067e-17)
(1.0821 -0.00594699 1.41723e-17)
(1.11472 0.0521076 1.13847e-17)
(0.653099 0.325007 7.39117e-21)
(0.658406 0.32727 -4.08869e-21)
(0.660471 0.333708 -2.49302e-20)
(0.655918 0.338902 7.15177e-20)
(0.644693 0.33967 9.27729e-20)
(0.630432 0.334046 -1.68424e-19)
(0.609401 0.318589 5.10195e-19)
(0.574843 0.288358 -6.01871e-19)
(0.508479 0.162821 -7.43909e-18)
(0.352519 -0.197651 6.47014e-17)
(0.603468 -0.292081 -1.23993e-16)
(0.876827 -0.220226 1.13028e-18)
(1.04096 -0.0760723 -1.42448e-17)
(1.08872 0.0197253 -2.98558e-17)
(1.11423 0.0646562 -7.26542e-18)
(0.622277 0.340649 9.83982e-22)
(0.627347 0.341685 -3.00436e-21)
(0.627317 0.349011 -8.27806e-21)
(0.621398 0.352239 -2.08036e-20)
(0.612354 0.346103 -5.989e-20)
(0.606316 0.339156 3.49812e-20)
(0.598631 0.334875 4.23883e-19)
(0.564046 0.308486 2.95888e-20)
(0.488881 0.167525 7.5167e-18)
(0.363773 -0.256095 -8.51107e-17)
(0.632577 -0.284843 7.38957e-17)
(0.926771 -0.129167 2.83842e-18)
(1.06375 -0.0061848 -1.59745e-18)
(1.09439 0.0536891 1.4441e-17)
(1.11343 0.0783033 2.39704e-17)
(0.585274 0.36717 1.23353e-21)
(0.588348 0.368466 -6.75143e-21)
(0.586013 0.372462 6.37568e-20)
(0.575499 0.366404 -1.36728e-19)
(0.571771 0.346857 1.24395e-19)
(0.594473 0.341954 3.49519e-19)
(0.596938 0.350241 1.06992e-18)
(0.555203 0.320772 -1.34698e-18)
(0.451332 0.177952 9.95425e-18)
(0.409479 -0.224191 -2.97082e-17)
(0.699177 -0.159243 -3.7719e-17)
(0.972196 -0.0119489 -6.30047e-18)
(1.07728 0.0746714 -2.69453e-17)
(1.09474 0.0937582 -1.1199e-17)
(1.10929 0.0958158 -3.86251e-17)
(0.54314 0.411748 9.24862e-21)
(0.540814 0.409639 -7.56529e-21)
(0.527787 0.408976 -1.61652e-20)
(0.506642 0.383145 -2.30466e-19)
(0.511267 0.328824 -1.50847e-19)
(0.590868 0.337416 4.83777e-19)
(0.619697 0.378117 -3.20683e-19)
(0.554318 0.360997 1.06073e-18)
(0.416985 0.224278 -1.76842e-17)
(0.505809 -0.0297348 -5.42607e-18)
(0.841434 0.212195 1.06326e-17)
(1.05216 0.214195 -2.42702e-20)
(1.08835 0.169685 1.96282e-17)
(1.08733 0.130294 2.7196e-17)
(1.09868 0.106172 1.14702e-17)
(0.514755 0.481334 3.59145e-21)
(0.498065 0.485101 7.00198e-21)
(0.465509 0.478558 -1.1866e-19)
(0.422781 0.423645 5.32022e-19)
(0.47244 0.298071 9.26373e-20)
(0.640061 0.334393 1.44153e-18)
(0.645213 0.368817 6.4234e-19)
(0.553929 0.393256 2.96328e-19)
(0.262825 0.257898 1.64621e-17)
(0.578851 0.176361 -4.38957e-17)
(0.986293 0.669599 4.13995e-19)
(1.13395 0.506105 -7.80228e-18)
(1.09028 0.26771 1.37415e-17)
(1.07428 0.167738 -1.82124e-18)
(1.08435 0.123277 7.14531e-19)
(0.520502 0.565976 -1.24829e-20)
(0.464899 0.590382 3.1643e-20)
(0.400585 0.653403 2.02925e-19)
(0.277495 0.65886 -2.6846e-19)
(0.295752 0.379604 3.56305e-19)
(0.662505 0.376181 -3.07301e-19)
(0.792587 0.387296 3.64442e-18)
(0.664093 0.447687 -1.37977e-18)
(0.411432 0.698699 -3.14757e-17)
(0.611246 0.391343 1.01854e-16)
(1.15664 1.29773 -5.00342e-18)
(1.20644 0.836322 1.65289e-17)
(1.08956 0.371283 -1.08998e-18)
(1.06439 0.211866 -2.92026e-17)
(1.07598 0.143965 8.83516e-18)
(0.654481 0.763482 9.12577e-20)
(0.624248 0.9181 -4.06972e-20)
(0.390387 1.08816 -7.1737e-20)
(-0.228028 0.426277 -2.24178e-18)
(0.0496513 0.54696 1.40284e-18)
(0.81417 0.552478 -1.00429e-17)
(0.913101 0.406377 -3.71142e-18)
(0.668113 0.572187 -1.30115e-18)
(0.337601 1.21893 5.17865e-17)
(0.539359 0.446036 -4.56914e-17)
(1.35625 1.95807 5.54687e-18)
(1.20148 1.14005 -2.77767e-19)
(1.06793 0.490938 7.98435e-18)
(1.05748 0.289657 2.64197e-17)
(1.07279 0.203078 5.30227e-18)
(0.580236 0.628714 -2.04796e-19)
(0.424799 0.847509 6.35427e-20)
(0.345082 1.26642 1.46391e-19)
(0.433697 0.496122 4.31166e-18)
(0.0947556 0.70042 2.75994e-20)
(1.74429 1.3524 1.51758e-17)
(0.993153 0.689284 -1.51576e-17)
(0.587645 1.01752 -6.21589e-19)
(0.0539662 0.659615 -1.62893e-17)
(0.379332 0.0519907 3.6441e-18)
(1.50934 2.40713 4.83808e-17)
(1.09535 1.24373 -8.78067e-18)
(1.02242 0.559054 -2.17149e-18)
(1.03756 0.345414 -2.19765e-17)
(1.06062 0.249939 -1.83987e-17)
(0.070969 0.0776278 -3.71725e-19)
(-0.129619 0.341297 -4.07496e-19)
(0.0234526 0.836406 -3.84299e-20)
(-0.105273 0.389432 6.21113e-19)
(0.286998 0.811149 -1.09012e-17)
(2.34089 2.28357 -3.57457e-18)
(0.459668 1.05628 -2.25085e-17)
(0.278412 1.24212 -6.62103e-18)
(-0.0577907 0.0218838 -4.1927e-18)
(0.0694378 -0.631856 1.01694e-17)
(1.122 2.13887 4.30121e-17)
(0.910728 1.26431 -5.65607e-18)
(0.950808 0.618345 -2.52909e-17)
(0.988666 0.376603 -1.76759e-17)
(1.01857 0.318818 3.61416e-18)
(-0.1793 0.0616631 2.65143e-19)
(-0.256975 0.069196 -1.27388e-19)
(-0.169685 0.40513 -4.0051e-20)
(-0.116 0.283293 2.57246e-18)
(0.83129 0.876923 3.51214e-17)
(0.775215 2.431 -2.80746e-17)
(-0.308599 1.45067 1.0017e-17)
(-0.323954 0.939033 4.0943e-17)
(-0.47668 -0.894987 1.7712e-17)
(-0.673864 -1.62803 1.07971e-17)
(0.599325 1.39309 -6.51159e-17)
(0.659248 1.06003 2.86561e-18)
(0.822327 0.520198 4.31265e-17)
(0.903309 0.320824 3.59583e-17)
(0.939128 0.336513 -1.6126e-17)
(-0.278965 0.154691 1.28191e-19)
(-0.248765 0.143235 6.59926e-19)
(-0.192558 0.263464 8.55459e-19)
(0.401202 0.0972605 -3.53553e-18)
(2.20706 0.937667 -7.66258e-17)
(-0.103371 2.35557 9.24698e-17)
(-1.02892 1.68928 6.89617e-17)
(-1.14049 0.0658998 -6.7324e-17)
(-1.47765 -1.99181 -1.97494e-17)
(-1.66378 -2.57841 -2.76609e-17)
(0.0438025 0.167666 8.95403e-18)
(0.416274 0.757218 2.9332e-18)
(0.652108 0.375181 -3.96982e-17)
(0.799391 0.272343 -1.67368e-17)
(0.798116 0.264755 1.35927e-17)
(0.0716651 -0.263393 4.39157e-19)
(0.019409 0.125891 -1.29866e-18)
(1.06598 -0.194888 -8.28094e-19)
(0.923032 0.389829 7.69011e-18)
(0.376447 1.60187 4.35716e-17)
(-0.890401 1.99977 -6.87322e-17)
(-3.34904 0.98889 9.83282e-17)
(-4.23056 -3.141 9.69182e-17)
(-4.22091 -4.69399 -6.48276e-17)
(-2.70249 -3.78872 4.64514e-17)
(-0.394514 -0.699627 -1.4514e-18)
(0.270571 0.474649 1.75474e-17)
(0.498558 0.0901048 3.4031e-17)
(0.674454 0.0938405 1.39436e-17)
(0.607507 0.00626311 1.89315e-18)
(-0.358077 0.432091 -4.2837e-19)
(-0.567742 0.74011 5.38271e-19)
(-0.782378 0.807298 -1.86725e-18)
(-1.28098 0.875893 -1.08125e-17)
(-2.30899 0.676752 -1.65648e-17)
(-3.06105 -0.381257 2.75638e-17)
(-7.10131 -6.99155 -1.15399e-17)
(-4.49235 -6.74815 -1.09907e-17)
(-4.08112 -6.81764 4.58293e-17)
(-2.16988 -3.30194 -2.8425e-17)
(-0.850122 -1.59246 -3.79541e-18)
(0.0909372 0.0607148 -8.63285e-18)
(0.313499 -0.238456 -2.64262e-17)
(0.471878 -0.280411 2.5295e-18)
(0.417995 -0.306207 1.01718e-17)
(-0.616593 1.45623 1.90511e-19)
(-1.13908 1.5302 1.74158e-18)
(-1.82581 1.34915 3.7213e-18)
(-2.49314 0.933269 7.72715e-18)
(-3.08307 -0.282685 -8.63847e-18)
(-3.71915 -2.28638 -3.13618e-19)
(-4.92705 -6.01081 -2.02747e-17)
(-3.7604 -5.9087 -2.01332e-17)
(-4.01724 -6.51372 2.81895e-17)
(-2.10533 -3.14343 -4.71468e-18)
(-1.23393 -2.30724 -5.03608e-17)
(-0.410104 -1.03528 -1.07855e-17)
(-0.0646408 -1.07847 4.22629e-18)
(0.127583 -0.965346 -7.28037e-18)
(0.244794 -0.575147 1.14721e-17)
(-0.275969 2.0935 -1.05429e-19)
(-0.92897 2.0725 -1.09783e-18)
(-1.87044 1.77331 -5.29956e-18)
(-2.35354 1.01941 1.14348e-17)
(-2.5873 -0.620007 2.61548e-17)
(-2.89554 -2.6828 -6.10503e-17)
(-3.33939 -5.25005 -5.81778e-18)
(-2.88977 -6.13199 1.73692e-17)
(-3.85277 -6.53552 1.95787e-17)
(-1.65853 -2.06504 1.79187e-18)
(-1.49458 -2.59625 1.19599e-16)
(-0.86945 -1.9725 4.85601e-18)
(-0.513484 -2.11729 3.3398e-18)
(-0.153686 -1.46956 -6.59533e-19)
(0.1148 -0.591669 3.60398e-18)
(-0.142577 2.65893 7.70029e-20)
(-0.624395 2.47256 -5.7751e-19)
(-1.29141 2.1544 -2.51821e-18)
(-1.76724 1.35896 -1.26075e-17)
(-2.16057 0.0129551 6.8135e-18)
(-2.54445 -1.33082 1.1828e-16)
(-2.43999 -3.58973 -2.31177e-17)
(-1.72756 -3.3835 -7.75088e-17)
(-1.34657 -1.91031 -2.87178e-17)
(-0.830477 -1.61823 4.95832e-18)
(-0.908461 -1.67169 1.62644e-16)
(-0.543673 -1.36226 -1.33146e-18)
(-0.287849 -1.13326 -4.51753e-17)
(-0.0808379 -0.57437 -3.35521e-18)