/*--------------------------------*- C++ -*----------------------------------*\
  =========                 |
  \\      /  F ield         | OpenFOAM: The Open Source CFD Toolbox
   \\    /   O peration     | Website:  https://openfoam.org
    \\  /    A nd           | Version:  6.0
     \\/     M anipulation  |
\*---------------------------------------------------------------------------*/
FoamFile
{
    version     2.0;
    format      ascii;
    class       volScalarField;
    location    "2";
    object      p;
}
// * * * * * * * * * * * * * * * * * * * * * * * * * * * * * * * * * * * * * //

dimensions      [0 2 -2 0 0 0 0];

internalField   nonuniform List<scalar> 
34500
(
1.04739
1.04377
1.03671
1.0284
1.02074
1.01462
1.01034
1.00733
1.00535
1.00394
1.00299
1.0023
1.00181
1.00145
1.00124
1.04749
1.04426
1.03781
1.03004
1.02273
1.0167
1.01239
1.00926
1.00713
1.00555
1.00447
1.00364
1.00303
1.00258
1.00231
1.04762
1.04467
1.03867
1.03134
1.0243
1.01838
1.01406
1.01084
1.0086
1.0069
1.0057
1.00476
1.00405
1.00353
1.00323
1.0478
1.04506
1.03943
1.03246
1.02568
1.01988
1.01555
1.01226
1.00994
1.00813
1.00683
1.0058
1.00501
1.00443
1.00412
1.04801
1.04545
1.04012
1.03347
1.02693
1.02123
1.01691
1.01357
1.01117
1.00927
1.00788
1.00677
1.00592
1.00529
1.00496
1.04825
1.04584
1.04078
1.03442
1.02808
1.02249
1.01819
1.01481
1.01234
1.01037
1.0089
1.00772
1.00681
1.00614
1.00581
1.04853
1.04624
1.04142
1.03531
1.02918
1.0237
1.01942
1.01601
1.01347
1.01143
1.00989
1.00864
1.00768
1.00697
1.00663
1.04884
1.04667
1.04206
1.03619
1.03025
1.02487
1.02061
1.01718
1.01459
1.01248
1.01087
1.00957
1.00855
1.00781
1.00746
1.04918
1.04711
1.04271
1.03706
1.03129
1.02602
1.02178
1.01833
1.01569
1.01351
1.01184
1.01048
1.00942
1.00864
1.00828
1.04955
1.04759
1.04336
1.03792
1.03233
1.02715
1.02294
1.01948
1.01678
1.01455
1.01282
1.0114
1.01029
1.00948
1.0091
1.04996
1.04809
1.04404
1.03879
1.03336
1.02828
1.0241
1.02061
1.01787
1.01559
1.01379
1.01232
1.01117
1.01032
1.00992
1.05039
1.04861
1.04473
1.03967
1.03439
1.0294
1.02525
1.02176
1.01897
1.01664
1.01478
1.01325
1.01205
1.01117
1.01076
1.05085
1.04917
1.04545
1.04056
1.03543
1.03053
1.02641
1.0229
1.02007
1.01768
1.01577
1.01419
1.01294
1.01201
1.01158
1.05135
1.04975
1.04618
1.04147
1.03647
1.03166
1.02757
1.02406
1.02119
1.01874
1.01677
1.01513
1.01384
1.01287
1.01242
1.05187
1.05036
1.04694
1.04239
1.03753
1.0328
1.02874
1.02521
1.0223
1.01981
1.01777
1.01608
1.01474
1.01373
1.01326
1.05242
1.051
1.04772
1.04332
1.03859
1.03395
1.02992
1.02638
1.02343
1.02088
1.01879
1.01704
1.01565
1.0146
1.01411
1.05301
1.05166
1.04853
1.04428
1.03967
1.03511
1.0311
1.02756
1.02456
1.02196
1.01981
1.01801
1.01657
1.01547
1.01496
1.05362
1.05236
1.04936
1.04525
1.04076
1.03628
1.0323
1.02874
1.02571
1.02306
1.02085
1.01899
1.01749
1.01636
1.01582
1.05426
1.05308
1.05021
1.04624
1.04187
1.03746
1.0335
1.02994
1.02687
1.02416
1.02189
1.01997
1.01843
1.01725
1.01668
1.05493
1.05383
1.05108
1.04725
1.04299
1.03866
1.03472
1.03115
1.02804
1.02528
1.02295
1.02097
1.01937
1.01815
1.01756
1.05563
1.05461
1.05199
1.04828
1.04413
1.03987
1.03595
1.03237
1.02921
1.02641
1.02401
1.02198
1.02032
1.01905
1.01843
1.05636
1.05542
1.05291
1.04933
1.04528
1.04109
1.03719
1.0336
1.03041
1.02755
1.02509
1.023
1.02128
1.01996
1.01932
1.05711
1.05625
1.05386
1.0504
1.04645
1.04232
1.03845
1.03484
1.03161
1.0287
1.02617
1.02402
1.02225
1.02088
1.02021
1.0579
1.05711
1.05483
1.05149
1.04764
1.04357
1.03972
1.0361
1.03283
1.02986
1.02727
1.02506
1.02323
1.02181
1.02111
1.05871
1.058
1.05583
1.05261
1.04884
1.04484
1.041
1.03737
1.03406
1.03103
1.02838
1.0261
1.02422
1.02275
1.02202
1.05955
1.05892
1.05685
1.05374
1.05006
1.04612
1.0423
1.03866
1.0353
1.03222
1.02951
1.02716
1.02522
1.02369
1.02293
1.06043
1.05986
1.0579
1.05489
1.05131
1.04742
1.04362
1.03996
1.03656
1.03342
1.03064
1.02823
1.02622
1.02465
1.02385
1.06132
1.06083
1.05897
1.05607
1.05257
1.04873
1.04495
1.04127
1.03783
1.03464
1.03179
1.02931
1.02724
1.02561
1.02479
1.06225
1.06183
1.06007
1.05727
1.05385
1.05007
1.0463
1.0426
1.03912
1.03586
1.03294
1.03039
1.02826
1.02658
1.02572
1.0632
1.06286
1.06119
1.05849
1.05515
1.05142
1.04766
1.04395
1.04042
1.0371
1.03412
1.0315
1.0293
1.02756
1.02667
1.06419
1.06391
1.06234
1.05974
1.05648
1.05279
1.04904
1.04531
1.04173
1.03836
1.0353
1.03261
1.03034
1.02854
1.02762
1.0652
1.06499
1.06352
1.06101
1.05782
1.05418
1.05044
1.04669
1.04307
1.03963
1.0365
1.03373
1.0314
1.02954
1.02859
1.06624
1.0661
1.06472
1.0623
1.05919
1.05559
1.05186
1.04808
1.04441
1.04091
1.0377
1.03486
1.03246
1.03055
1.02956
1.0673
1.06723
1.06594
1.06362
1.06057
1.05702
1.0533
1.0495
1.04578
1.04221
1.03893
1.03601
1.03354
1.03156
1.03054
1.0684
1.0684
1.0672
1.06496
1.06198
1.05847
1.05475
1.05093
1.04716
1.04353
1.04017
1.03717
1.03462
1.03259
1.03152
1.06952
1.06959
1.06848
1.06633
1.06342
1.05995
1.05623
1.05238
1.04856
1.04486
1.04142
1.03834
1.03572
1.03362
1.03253
1.07067
1.07081
1.06979
1.06772
1.06488
1.06144
1.05773
1.05385
1.04998
1.0462
1.04268
1.03952
1.03683
1.03466
1.03353
1.07184
1.07206
1.07112
1.06914
1.06636
1.06296
1.05925
1.05534
1.05141
1.04757
1.04397
1.04072
1.03795
1.03572
1.03454
1.07305
1.07333
1.07248
1.07058
1.06787
1.0645
1.06079
1.05685
1.05287
1.04895
1.04526
1.04193
1.03907
1.03678
1.03556
1.07428
1.07464
1.07387
1.07205
1.0694
1.06607
1.06236
1.05839
1.05434
1.05034
1.04657
1.04315
1.04022
1.03785
1.0366
1.07555
1.07597
1.07529
1.07356
1.07096
1.06766
1.06394
1.05994
1.05583
1.05176
1.0479
1.04439
1.04137
1.03893
1.03764
1.07684
1.07733
1.07674
1.07508
1.07254
1.06927
1.06555
1.06151
1.05734
1.05319
1.04924
1.04564
1.04253
1.04002
1.03869
1.07816
1.07872
1.07822
1.07664
1.07416
1.07091
1.06719
1.06311
1.05888
1.05464
1.0506
1.0469
1.04371
1.04112
1.03975
1.0795
1.08014
1.07972
1.07822
1.07579
1.07258
1.06885
1.06473
1.06043
1.05611
1.05197
1.04818
1.0449
1.04224
1.04082
1.08088
1.08159
1.08126
1.07983
1.07746
1.07428
1.07053
1.06637
1.06201
1.0576
1.05336
1.04947
1.04609
1.04336
1.04189
1.08228
1.08307
1.08282
1.08147
1.07916
1.07599
1.07224
1.06804
1.0636
1.05911
1.05477
1.05078
1.04731
1.04449
1.04298
1.08372
1.08458
1.08442
1.08315
1.08089
1.07775
1.07398
1.06973
1.06522
1.06064
1.0562
1.0521
1.04853
1.04563
1.04408
1.08518
1.08612
1.08604
1.08485
1.08264
1.07952
1.07574
1.07145
1.06687
1.06218
1.05764
1.05344
1.04977
1.04679
1.04518
1.08667
1.08769
1.0877
1.08658
1.08443
1.08133
1.07754
1.07319
1.06853
1.06375
1.0591
1.05479
1.05102
1.04795
1.04629
1.08819
1.08929
1.08939
1.08835
1.08624
1.08316
1.07935
1.07496
1.07022
1.06534
1.06058
1.05616
1.05228
1.04913
1.04742
1.08974
1.09092
1.09111
1.09015
1.08809
1.08503
1.0812
1.07676
1.07194
1.06695
1.06208
1.05754
1.05356
1.05032
1.04855
1.09132
1.09258
1.09286
1.09197
1.08997
1.08693
1.08308
1.07858
1.07368
1.06859
1.0636
1.05894
1.05485
1.05152
1.0497
1.09293
1.09427
1.09465
1.09384
1.09189
1.08886
1.08499
1.08043
1.07544
1.07024
1.06513
1.06035
1.05615
1.05272
1.05084
1.09457
1.096
1.09646
1.09573
1.09383
1.09082
1.08693
1.08231
1.07723
1.07192
1.06669
1.06179
1.05747
1.05395
1.05201
1.09624
1.09776
1.09832
1.09766
1.09582
1.09282
1.0889
1.08422
1.07905
1.07362
1.06826
1.06323
1.0588
1.05518
1.05318
1.09794
1.09954
1.1002
1.09963
1.09783
1.09485
1.0909
1.08616
1.08089
1.07535
1.06986
1.0647
1.06014
1.05642
1.05436
1.09967
1.10137
1.10212
1.10163
1.09988
1.09691
1.09294
1.08813
1.08276
1.0771
1.07148
1.06618
1.0615
1.05767
1.05555
1.10143
1.10322
1.10407
1.10366
1.10197
1.09901
1.09501
1.09013
1.08466
1.07888
1.07312
1.06768
1.06288
1.05894
1.05675
1.10323
1.10511
1.10607
1.10574
1.10409
1.10114
1.09711
1.09216
1.08659
1.08067
1.07477
1.0692
1.06427
1.06022
1.05795
1.10505
1.10703
1.10809
1.10785
1.10625
1.10331
1.09925
1.09423
1.08855
1.0825
1.07646
1.07074
1.06567
1.06151
1.05918
1.10691
1.109
1.11016
1.11
1.10846
1.10552
1.10143
1.09632
1.09053
1.08435
1.07816
1.07229
1.06709
1.06282
1.0604
1.1088
1.11098
1.11225
1.11218
1.11069
1.10777
1.10363
1.09845
1.09255
1.08623
1.07989
1.07387
1.06852
1.06413
1.06164
1.11072
1.11301
1.1144
1.11441
1.11297
1.11006
1.10588
1.10062
1.0946
1.08813
1.08163
1.07546
1.06997
1.06546
1.06289
1.11267
1.11507
1.11657
1.11667
1.11528
1.11238
1.10817
1.10282
1.09668
1.09007
1.08341
1.07707
1.07144
1.0668
1.06415
1.11467
1.11718
1.11879
1.11898
1.11765
1.11475
1.11049
1.10506
1.09879
1.09203
1.0852
1.0787
1.07292
1.06815
1.06541
1.11668
1.11931
1.12103
1.12132
1.12004
1.11715
1.11285
1.10733
1.10093
1.09402
1.08702
1.08036
1.07441
1.06952
1.06669
1.11874
1.12148
1.12333
1.12371
1.12249
1.1196
1.11526
1.10964
1.10311
1.09604
1.08887
1.08203
1.07593
1.0709
1.06798
1.12082
1.12368
1.12566
1.12614
1.12497
1.12209
1.1177
1.11199
1.10533
1.09808
1.09074
1.08372
1.07746
1.07229
1.06928
1.12295
1.12593
1.12804
1.12862
1.1275
1.12463
1.12019
1.11438
1.10757
1.10016
1.09263
1.08543
1.079
1.07369
1.07059
1.1251
1.12821
1.13045
1.13113
1.13008
1.1272
1.12271
1.1168
1.10986
1.10227
1.09455
1.08717
1.08056
1.07511
1.07191
1.1273
1.13054
1.13291
1.13369
1.1327
1.12983
1.12529
1.11927
1.11218
1.10441
1.0965
1.08892
1.08214
1.07654
1.07324
1.12952
1.13289
1.1354
1.1363
1.13536
1.13249
1.1279
1.12178
1.11453
1.10659
1.09848
1.0907
1.08374
1.07799
1.07458
1.13178
1.1353
1.13795
1.13895
1.13808
1.13521
1.13057
1.12433
1.11692
1.10879
1.10048
1.0925
1.08535
1.07944
1.07593
1.13407
1.13773
1.14053
1.14165
1.14084
1.13797
1.13327
1.12692
1.11936
1.11103
1.10251
1.09432
1.08699
1.08092
1.07729
1.13641
1.14022
1.14317
1.1444
1.14365
1.14079
1.13603
1.12955
1.12183
1.1133
1.10456
1.09617
1.08864
1.0824
1.07866
1.13877
1.14273
1.14584
1.14719
1.14651
1.14365
1.13882
1.13223
1.12434
1.11561
1.10665
1.09803
1.09031
1.0839
1.08004
1.14119
1.1453
1.14857
1.15004
1.14942
1.14657
1.14168
1.13496
1.12689
1.11795
1.10877
1.09992
1.09199
1.08541
1.08143
1.14362
1.14789
1.15133
1.15293
1.15238
1.14953
1.14457
1.13773
1.12948
1.12032
1.11091
1.10184
1.0937
1.08694
1.08284
1.14611
1.15054
1.15415
1.15587
1.1554
1.15255
1.14753
1.14055
1.13211
1.12274
1.11309
1.10378
1.09542
1.08848
1.08425
1.14862
1.15322
1.15701
1.15887
1.15847
1.15562
1.15053
1.14341
1.13479
1.12519
1.11529
1.10574
1.09716
1.09003
1.08568
1.15118
1.15596
1.15992
1.16192
1.1616
1.15875
1.15358
1.14633
1.13751
1.12768
1.11753
1.10773
1.09892
1.0916
1.08711
1.15376
1.15873
1.16288
1.16501
1.16477
1.16192
1.15669
1.14929
1.14027
1.1302
1.1198
1.10974
1.1007
1.09319
1.08856
1.1564
1.16155
1.16589
1.16818
1.16801
1.16517
1.15985
1.15231
1.14308
1.13277
1.1221
1.11178
1.1025
1.09478
1.09002
1.15906
1.16441
1.16895
1.17138
1.1713
1.16846
1.16307
1.15537
1.14594
1.13537
1.12443
1.11385
1.10432
1.0964
1.09148
1.16178
1.16732
1.17207
1.17465
1.17465
1.17181
1.16634
1.15849
1.14884
1.13802
1.1268
1.11594
1.10616
1.09802
1.09296
1.16452
1.17026
1.17522
1.17797
1.17806
1.17522
1.16967
1.16166
1.15179
1.1407
1.1292
1.11806
1.10802
1.09967
1.09445
1.16731
1.17327
1.17845
1.18136
1.18154
1.1787
1.17307
1.16489
1.15479
1.14343
1.13163
1.1202
1.1099
1.10132
1.09595
1.17013
1.17631
1.18171
1.18479
1.18507
1.18223
1.17651
1.16817
1.15784
1.1462
1.1341
1.12237
1.11181
1.10299
1.09746
1.17301
1.17941
1.18504
1.1883
1.18867
1.18584
1.18003
1.17151
1.16094
1.14901
1.13661
1.12457
1.11373
1.10468
1.09898
1.17591
1.18254
1.18841
1.19186
1.19232
1.1895
1.1836
1.17491
1.16409
1.15187
1.13915
1.1268
1.11567
1.10638
1.10052
1.17887
1.18573
1.19186
1.19549
1.19605
1.19323
1.18724
1.17836
1.16729
1.15477
1.14173
1.12906
1.11763
1.1081
1.10206
1.18185
1.18896
1.19534
1.19916
1.19984
1.19703
1.19094
1.18188
1.17055
1.15771
1.14434
1.13134
1.11962
1.10983
1.10362
1.18489
1.19226
1.1989
1.20292
1.20371
1.2009
1.19471
1.18546
1.17386
1.16071
1.147
1.13366
1.12163
1.11158
1.10518
1.18795
1.19558
1.2025
1.20673
1.20763
1.20482
1.19854
1.18909
1.17722
1.16375
1.14968
1.136
1.12366
1.11334
1.10676
1.19108
1.19898
1.20617
1.21062
1.21163
1.20884
1.20245
1.19279
1.18065
1.16683
1.15241
1.13838
1.12571
1.11512
1.10834
1.19422
1.2024
1.20989
1.21456
1.21569
1.21291
1.20641
1.19656
1.18412
1.16997
1.15518
1.14078
1.12778
1.11692
1.10994
1.19743
1.2059
1.21369
1.21858
1.21984
1.21706
1.21046
1.20039
1.18766
1.17316
1.15799
1.14321
1.12987
1.11873
1.11155
1.20067
1.20943
1.21753
1.22266
1.22405
1.22128
1.21457
1.20428
1.19126
1.17639
1.16084
1.14568
1.13199
1.12055
1.11317
1.20396
1.21303
1.22145
1.22683
1.22835
1.22559
1.21877
1.20826
1.19492
1.17968
1.16373
1.14818
1.13413
1.12239
1.1148
1.20728
1.21667
1.22542
1.23105
1.23271
1.22996
1.22302
1.21229
1.19863
1.18301
1.16666
1.15071
1.13629
1.12425
1.11644
1.21066
1.22038
1.22947
1.23536
1.23716
1.23443
1.22737
1.2164
1.20241
1.1864
1.16963
1.15327
1.13848
1.12612
1.11809
1.21406
1.22412
1.23357
1.23973
1.24168
1.23896
1.23178
1.22057
1.20625
1.18984
1.17265
1.15586
1.14069
1.12801
1.11975
1.21753
1.22794
1.23776
1.24419
1.2463
1.24359
1.23629
1.22482
1.21016
1.19334
1.17571
1.15848
1.14292
1.12991
1.12142
1.22103
1.2318
1.24199
1.24871
1.25098
1.24828
1.24086
1.22914
1.21413
1.19689
1.17881
1.16114
1.14518
1.13183
1.1231
1.22458
1.23573
1.24631
1.25333
1.25576
1.25308
1.24552
1.23355
1.21817
1.2005
1.18196
1.16384
1.14746
1.13376
1.12479
1.22816
1.23969
1.25068
1.258
1.2606
1.25795
1.25026
1.23802
1.22228
1.20417
1.18515
1.16656
1.14976
1.13571
1.12649
1.23181
1.24374
1.25514
1.26278
1.26556
1.26292
1.2551
1.24258
1.22645
1.20789
1.18839
1.16932
1.15208
1.13768
1.1282
1.23548
1.24782
1.25965
1.26762
1.27058
1.26796
1.26
1.24721
1.23069
1.21167
1.19167
1.17211
1.15443
1.13966
1.12992
1.23922
1.25198
1.26426
1.27257
1.27571
1.27312
1.26501
1.25193
1.23501
1.21551
1.195
1.17494
1.15681
1.14166
1.13165
1.24298
1.25618
1.26891
1.27758
1.28092
1.27835
1.2701
1.25672
1.2394
1.2194
1.19837
1.1778
1.1592
1.14367
1.13339
1.24681
1.26046
1.27367
1.28269
1.28624
1.28369
1.27529
1.26161
1.24386
1.22337
1.2018
1.1807
1.16163
1.14569
1.13514
1.25065
1.26478
1.27847
1.28787
1.29163
1.28911
1.28056
1.26657
1.24839
1.22738
1.20527
1.18363
1.16407
1.14773
1.13689
1.25457
1.26918
1.28338
1.29317
1.29714
1.29464
1.28594
1.27163
1.253
1.23147
1.20879
1.1866
1.16654
1.14979
1.13866
1.25851
1.27362
1.28834
1.29853
1.30272
1.30026
1.2914
1.27677
1.25768
1.23561
1.21236
1.1896
1.16903
1.15186
1.14043
1.26252
1.27814
1.29341
1.30401
1.30843
1.306
1.29698
1.282
1.26245
1.23982
1.21598
1.19264
1.17155
1.15395
1.14221
1.26655
1.2827
1.29853
1.30955
1.31422
1.31182
1.30263
1.28732
1.26729
1.24409
1.21964
1.19572
1.17409
1.15605
1.144
1.27065
1.28736
1.30376
1.31522
1.32013
1.31777
1.30841
1.29274
1.27221
1.24843
1.22336
1.19883
1.17665
1.15816
1.1458
1.27477
1.29204
1.30904
1.32096
1.32613
1.32381
1.31427
1.29824
1.27721
1.25283
1.22712
1.20197
1.17924
1.16029
1.1476
1.27896
1.29682
1.31443
1.32682
1.33226
1.32997
1.32025
1.30385
1.28229
1.2573
1.23094
1.20516
1.18185
1.16243
1.14941
1.28317
1.30163
1.31988
1.33276
1.33847
1.33623
1.32632
1.30954
1.28745
1.26183
1.23481
1.20837
1.18449
1.16459
1.15123
1.28746
1.30654
1.32545
1.33883
1.34482
1.34262
1.33251
1.31534
1.2927
1.26644
1.23873
1.21163
1.18715
1.16676
1.15305
1.29176
1.31149
1.33107
1.34497
1.35125
1.3491
1.3388
1.32123
1.29803
1.27111
1.2427
1.21492
1.18983
1.16894
1.15488
1.29613
1.31653
1.33681
1.35124
1.35783
1.35572
1.34522
1.32723
1.30345
1.27585
1.24672
1.21825
1.19253
1.17113
1.15672
1.30052
1.32161
1.34261
1.35759
1.36449
1.36243
1.35173
1.33332
1.30895
1.28065
1.2508
1.22161
1.19526
1.17334
1.15856
1.30499
1.32678
1.34853
1.36409
1.3713
1.36929
1.35837
1.33953
1.31454
1.28553
1.25492
1.22501
1.19801
1.17556
1.16041
1.30947
1.33199
1.35451
1.37066
1.37821
1.37625
1.36511
1.34582
1.32021
1.29048
1.2591
1.22844
1.20078
1.17779
1.16225
1.31402
1.33731
1.36062
1.37737
1.38526
1.38336
1.37199
1.35224
1.32598
1.2955
1.26333
1.23192
1.20358
1.18003
1.16411
1.31859
1.34265
1.36679
1.38417
1.39241
1.39057
1.37897
1.35874
1.33183
1.30058
1.26761
1.23542
1.20639
1.18229
1.16596
1.32324
1.34811
1.37309
1.39112
1.39972
1.39793
1.38609
1.36537
1.33778
1.30575
1.27195
1.23897
1.20923
1.18455
1.16782
1.32789
1.35359
1.37945
1.39815
1.40712
1.4054
1.39331
1.3721
1.34381
1.31097
1.27633
1.24254
1.21209
1.18682
1.16968
1.33263
1.35919
1.38595
1.40533
1.41469
1.41303
1.40067
1.37895
1.34994
1.31628
1.28077
1.24615
1.21497
1.18911
1.17155
1.33736
1.36481
1.39251
1.4126
1.42236
1.42076
1.40814
1.38589
1.35616
1.32165
1.28526
1.2498
1.21787
1.1914
1.17341
1.34219
1.37055
1.3992
1.42003
1.43019
1.42866
1.41576
1.39296
1.36247
1.3271
1.28981
1.25348
1.22079
1.1937
1.17528
1.34701
1.37631
1.40596
1.42755
1.43813
1.43666
1.42349
1.40013
1.36887
1.33261
1.2944
1.25719
1.22372
1.19601
1.17714
1.35192
1.3822
1.41287
1.43523
1.44625
1.44484
1.43137
1.40743
1.37537
1.3382
1.29904
1.26094
1.22668
1.19833
1.17901
1.35683
1.38811
1.41984
1.44301
1.45447
1.45313
1.43936
1.41482
1.38196
1.34385
1.30373
1.26472
1.22965
1.20065
1.18087
1.36182
1.39414
1.42696
1.45096
1.46287
1.46159
1.4475
1.42236
1.38865
1.34959
1.30848
1.26853
1.23264
1.20299
1.18273
1.36681
1.4002
1.43414
1.45899
1.47137
1.47016
1.45576
1.42998
1.39542
1.35538
1.31327
1.27237
1.23565
1.20532
1.18458
1.37188
1.40638
1.44148
1.46721
1.48007
1.47892
1.46418
1.43775
1.4023
1.36125
1.31811
1.27624
1.23868
1.20766
1.18644
1.37695
1.41258
1.44889
1.47552
1.48887
1.48779
1.4727
1.44561
1.40925
1.36719
1.323
1.28014
1.24171
1.21001
1.18829
1.3821
1.41891
1.45645
1.48402
1.49787
1.49685
1.4814
1.4536
1.41632
1.3732
1.32794
1.28407
1.24476
1.21236
1.19013
1.38724
1.42527
1.46408
1.49261
1.50698
1.50602
1.4902
1.4617
1.42347
1.37927
1.33292
1.28802
1.24783
1.21471
1.19197
1.39247
1.43175
1.47188
1.50139
1.51629
1.51539
1.49917
1.46994
1.43072
1.38542
1.33795
1.292
1.2509
1.21707
1.1938
1.39768
1.43826
1.47974
1.51027
1.52571
1.52487
1.50826
1.47827
1.43805
1.39163
1.34301
1.29601
1.25398
1.21942
1.19563
1.40298
1.4449
1.48777
1.51935
1.53534
1.53455
1.51752
1.48674
1.44549
1.39791
1.34813
1.30004
1.25708
1.22178
1.19745
1.40826
1.45155
1.49587
1.52852
1.54508
1.54435
1.52689
1.49531
1.453
1.40425
1.35328
1.30408
1.26018
1.22414
1.19926
1.41363
1.45835
1.50414
1.5379
1.55504
1.55435
1.53643
1.50402
1.46062
1.41065
1.35847
1.30815
1.26328
1.22649
1.20107
1.41898
1.46516
1.51248
1.54738
1.56511
1.56446
1.54608
1.51282
1.46831
1.41711
1.36369
1.31223
1.26639
1.22885
1.20286
1.42441
1.47211
1.521
1.55707
1.5754
1.57479
1.55591
1.52176
1.4761
1.42364
1.36895
1.31633
1.26951
1.2312
1.20465
1.42981
1.47908
1.52959
1.56686
1.58581
1.58523
1.56586
1.5308
1.48397
1.43022
1.37424
1.32044
1.27262
1.23354
1.20643
1.43531
1.48618
1.53837
1.57687
1.59645
1.59588
1.57598
1.53997
1.49194
1.43686
1.37957
1.32457
1.27573
1.23589
1.20821
1.44076
1.4933
1.54721
1.58698
1.6072
1.60665
1.5862
1.54924
1.49997
1.44354
1.38491
1.3287
1.27885
1.23822
1.20997
1.44631
1.50057
1.55625
1.59731
1.61818
1.61763
1.59661
1.55864
1.5081
1.45028
1.39029
1.33284
1.28196
1.24055
1.21172
1.4518
1.50784
1.56535
1.60774
1.62928
1.62873
1.60712
1.56812
1.51628
1.45705
1.39568
1.33698
1.28506
1.24286
1.21345
1.45739
1.51526
1.57464
1.61841
1.64061
1.64004
1.61781
1.57774
1.52456
1.46388
1.40109
1.34113
1.28816
1.24517
1.21518
1.46293
1.52269
1.58401
1.62917
1.65206
1.65147
1.62861
1.58745
1.53289
1.47073
1.40651
1.34527
1.29124
1.24747
1.21689
1.46856
1.53027
1.59357
1.64017
1.66375
1.66311
1.63957
1.59727
1.5413
1.47763
1.41195
1.34942
1.29432
1.24975
1.21858
1.47412
1.53784
1.6032
1.65127
1.67555
1.67487
1.65064
1.60718
1.54976
1.48455
1.4174
1.35356
1.29739
1.25202
1.22026
1.47978
1.54557
1.61303
1.6626
1.6876
1.68684
1.66188
1.6172
1.55829
1.49151
1.42285
1.35769
1.30045
1.25428
1.22192
1.48536
1.5533
1.62293
1.67404
1.69976
1.69893
1.67321
1.62729
1.56686
1.49848
1.4283
1.36181
1.30349
1.25652
1.22357
1.49103
1.56118
1.63304
1.68572
1.71216
1.71122
1.68471
1.63748
1.57549
1.50548
1.43376
1.36593
1.30652
1.25874
1.22519
1.49662
1.56905
1.6432
1.6975
1.72468
1.72363
1.69629
1.64774
1.58415
1.51248
1.43921
1.37003
1.30953
1.26095
1.2268
1.5023
1.57708
1.65358
1.70953
1.73744
1.73624
1.70803
1.65809
1.59286
1.5195
1.44466
1.37411
1.31252
1.26314
1.22838
1.50789
1.58509
1.66402
1.72165
1.75031
1.74895
1.71984
1.66849
1.60159
1.52652
1.45009
1.37818
1.3155
1.2653
1.22995
1.51355
1.59326
1.67467
1.73402
1.76341
1.76186
1.7318
1.67897
1.61036
1.53354
1.45551
1.38224
1.31845
1.26745
1.23149
1.51912
1.60141
1.68538
1.74648
1.77663
1.77486
1.74382
1.68949
1.61913
1.54056
1.46092
1.38627
1.32138
1.26958
1.23301
1.52477
1.60971
1.69631
1.75919
1.79008
1.78806
1.75596
1.70007
1.62793
1.54758
1.46631
1.39028
1.32429
1.27168
1.2345
1.53031
1.61799
1.70728
1.772
1.80363
1.80133
1.76816
1.71068
1.63672
1.55458
1.47168
1.39427
1.32718
1.27376
1.23597
1.53591
1.62642
1.71848
1.78504
1.81741
1.81478
1.78047
1.72134
1.64553
1.56157
1.47703
1.39823
1.33004
1.27581
1.23741
1.5414
1.63482
1.72972
1.79818
1.83128
1.82829
1.79282
1.732
1.65433
1.56853
1.48235
1.40216
1.33287
1.27784
1.23883
1.54696
1.64338
1.74119
1.81155
1.84536
1.84197
1.80526
1.7427
1.66313
1.57548
1.48765
1.40606
1.33567
1.27984
1.24022
1.55238
1.6519
1.75269
1.82501
1.85952
1.8557
1.81771
1.75339
1.6719
1.58239
1.49291
1.40993
1.33844
1.28181
1.24159
1.55786
1.66057
1.76441
1.8387
1.87388
1.86956
1.83024
1.76411
1.68066
1.58928
1.49814
1.41377
1.34119
1.28376
1.24292
1.5632
1.66919
1.77617
1.85245
1.88831
1.88346
1.84277
1.7748
1.68938
1.59614
1.50333
1.41758
1.3439
1.28567
1.24423
1.56859
1.67796
1.78814
1.86643
1.90292
1.89747
1.85535
1.7855
1.69809
1.60295
1.50849
1.42134
1.34657
1.28755
1.2455
1.57383
1.68668
1.80014
1.88047
1.91757
1.9115
1.86791
1.79615
1.70675
1.60972
1.5136
1.42507
1.34921
1.2894
1.24675
1.5791
1.69554
1.81235
1.89471
1.93238
1.92562
1.8805
1.8068
1.71537
1.61645
1.51866
1.42876
1.35181
1.29122
1.24796
1.58422
1.70435
1.82458
1.909
1.94721
1.93972
1.89306
1.81739
1.72394
1.62312
1.52368
1.4324
1.35438
1.293
1.24914
1.58936
1.71329
1.83701
1.92347
1.96219
1.9539
1.90563
1.82796
1.73246
1.62974
1.52864
1.43599
1.3569
1.29474
1.25029
1.59432
1.72216
1.84943
1.93797
1.97716
1.96804
1.91813
1.83846
1.74092
1.63629
1.53355
1.43954
1.35938
1.29645
1.25141
1.59931
1.73117
1.86205
1.95263
1.99224
1.98223
1.93063
1.84891
1.74931
1.64279
1.5384
1.44303
1.36182
1.29812
1.25249
1.60411
1.7401
1.87465
1.9673
2.0073
1.99636
1.94305
1.85928
1.75763
1.64921
1.54319
1.44648
1.36422
1.29975
1.25353
1.60891
1.74914
1.88742
1.98211
2.02244
2.01051
1.95544
1.86959
1.76587
1.65556
1.54791
1.44986
1.36656
1.30134
1.25454
1.61352
1.7581
1.90017
1.99689
2.03753
2.02457
1.96773
1.8798
1.77402
1.66183
1.55257
1.45319
1.36886
1.30289
1.25551
1.61812
1.76717
1.91307
2.01179
2.05267
2.03862
1.97997
1.88993
1.78209
1.66801
1.55715
1.45645
1.37111
1.30439
1.25644
1.62251
1.77613
1.92592
2.02664
2.06774
2.05257
1.99209
1.89994
1.79005
1.6741
1.56165
1.45965
1.3733
1.30585
1.25733
1.62688
1.78519
1.9389
2.04157
2.08283
2.06647
2.00414
1.90985
1.79791
1.6801
1.56607
1.46278
1.37544
1.30726
1.25818
1.63102
1.79413
1.95183
2.05643
2.09783
2.08024
2.01605
1.91962
1.80565
1.68598
1.5704
1.46584
1.37752
1.30863
1.25899
1.63514
1.80315
1.96486
2.07134
2.11282
2.09395
2.02787
1.92927
1.81329
1.69176
1.57465
1.46882
1.37955
1.30994
1.25976
1.63902
1.81205
1.97781
2.08615
2.12768
2.10749
2.03951
1.93876
1.82077
1.69741
1.57879
1.47172
1.38151
1.3112
1.26048
1.64285
1.82101
1.99084
2.10098
2.14251
2.12094
2.05104
1.9481
1.82814
1.70295
1.58284
1.47454
1.38341
1.31241
1.26116
1.64644
1.82984
2.00377
2.11569
2.15719
2.13419
2.06238
1.95726
1.83534
1.70834
1.58678
1.47726
1.38525
1.31356
1.26179
1.64997
1.83871
2.01677
2.13039
2.1718
2.14732
2.07357
1.96625
1.84239
1.7136
1.59061
1.4799
1.38701
1.31466
1.26236
1.65325
1.84745
2.02966
2.14494
2.18622
2.16022
2.08454
1.97503
1.84927
1.7187
1.59432
1.48244
1.3887
1.31569
1.26289
1.65646
1.85622
2.04258
2.15945
2.20055
2.17297
2.09534
1.98362
1.85598
1.72366
1.5979
1.48489
1.39032
1.31666
1.26336
1.65942
1.86485
2.05538
2.17378
2.21466
2.18545
2.10589
1.99197
1.86248
1.72844
1.60135
1.48722
1.39185
1.31757
1.26378
1.66231
1.87351
2.0682
2.18805
2.22864
2.19775
2.11622
2.0001
1.8688
1.73305
1.60467
1.48944
1.39331
1.31841
1.26414
1.66495
1.88202
2.08088
2.20212
2.24236
2.20974
2.12628
2.00796
1.87489
1.73746
1.60784
1.49155
1.39467
1.31918
1.26444
1.66751
1.89057
2.09356
2.21608
2.25592
2.22151
2.13609
2.01558
1.88077
1.74169
1.61086
1.49354
1.39595
1.31987
1.26468
1.66983
1.89898
2.10609
2.22981
2.26918
2.23294
2.14558
2.0229
1.88639
1.74571
1.61372
1.4954
1.39713
1.32049
1.26485
1.67208
1.90741
2.11859
2.24341
2.28223
2.2441
2.15478
2.02995
1.89177
1.74952
1.61641
1.49713
1.39822
1.32103
1.26495
1.67411
1.91572
2.13093
2.25675
2.29494
2.25489
2.16363
2.03665
1.89687
1.75309
1.61892
1.49872
1.39919
1.32148
1.26498
1.67609
1.92407
2.14323
2.26991
2.30738
2.26536
2.17215
2.04306
1.9017
1.75645
1.62125
1.50017
1.40006
1.32185
1.26493
1.67787
1.9323
2.15534
2.28277
2.31945
2.27541
2.18026
2.0491
1.90621
1.75953
1.62337
1.50147
1.40082
1.32214
1.2648
1.67961
1.94057
2.16738
2.29542
2.33119
2.2851
2.18801
2.05479
1.91043
1.76238
1.62531
1.50261
1.40146
1.32233
1.26459
1.68119
1.94874
2.17921
2.30772
2.3425
2.29432
2.19531
2.06009
1.9143
1.76494
1.62702
1.50359
1.40198
1.32242
1.26429
1.68278
1.95697
2.19095
2.31976
2.35343
2.30311
2.20219
2.065
1.91784
1.76724
1.62852
1.50441
1.40237
1.32242
1.2639
1.68424
1.96511
2.20245
2.3314
2.36387
2.31139
2.20857
2.06948
1.92101
1.76923
1.62978
1.50504
1.40262
1.32231
1.26342
1.68575
1.97331
2.21381
2.34271
2.37386
2.31919
2.21449
2.07354
1.92381
1.77093
1.63081
1.5055
1.40274
1.3221
1.26284
1.68719
1.98145
2.2249
2.35357
2.3833
2.32641
2.21986
2.07711
1.92621
1.77229
1.63158
1.50576
1.40271
1.32179
1.26215
1.68873
1.98966
2.23581
2.36403
2.39222
2.33308
2.22471
2.08023
1.92821
1.77335
1.63211
1.50584
1.40254
1.32136
1.26136
1.69028
1.99781
2.2464
2.37396
2.4005
2.33912
2.22896
2.08283
1.92977
1.77404
1.63235
1.5057
1.40221
1.32082
1.26046
1.692
2.00603
2.25674
2.38342
2.40819
2.34454
2.23263
2.08493
1.93091
1.7744
1.63233
1.50537
1.40172
1.32016
1.25943
1.69379
2.01421
2.26671
2.39227
2.41518
2.34925
2.23565
2.08645
1.93156
1.77438
1.63201
1.5048
1.40106
1.31939
1.25829
1.69585
2.02247
2.27637
2.40055
2.42147
2.35328
2.23803
2.08744
1.93177
1.77399
1.63141
1.50402
1.40023
1.3185
1.25702
1.69808
2.03068
2.28557
2.40813
2.42698
2.35653
2.2397
2.08781
1.93145
1.77319
1.63049
1.503
1.39923
1.31748
1.25561
1.70068
2.03896
2.29438
2.41504
2.4317
2.35901
2.24068
2.0876
1.93065
1.77201
1.62926
1.50174
1.39804
1.31633
1.25408
1.70357
2.04719
2.30265
2.42115
2.43554
2.36063
2.24088
2.08672
1.92931
1.77039
1.62769
1.50023
1.39666
1.31503
1.25241
1.70695
2.05547
2.31043
2.42647
2.4385
2.36142
2.24033
2.08521
1.92743
1.76835
1.6258
1.49847
1.39508
1.31356
1.25063
1.71076
2.06369
2.31756
2.43086
2.44046
2.36125
2.23893
2.08299
1.92498
1.76585
1.62355
1.49644
1.39329
1.31191
1.24871
1.71521
2.07194
2.32408
2.43434
2.44144
2.36016
2.23672
2.08009
1.92196
1.76291
1.62095
1.49414
1.39129
1.31008
1.24666
1.72027
2.0801
2.32984
2.43677
2.44131
2.35804
2.2336
2.07642
1.91833
1.75948
1.61797
1.49155
1.38907
1.30806
1.24448
1.72615
2.08824
2.33485
2.43814
2.44007
2.35489
2.22959
2.07202
1.9141
1.75558
1.61462
1.48867
1.38662
1.30585
1.24215
1.73283
2.09625
2.33897
2.43832
2.43761
2.35062
2.22461
2.06682
1.90921
1.75117
1.61087
1.48549
1.38393
1.30344
1.23966
1.74055
2.10419
2.34218
2.43728
2.43391
2.34523
2.21866
2.06082
1.90368
1.74625
1.60673
1.482
1.381
1.30082
1.23703
1.74932
2.11194
2.34434
2.43489
2.42885
2.33861
2.21166
2.05396
1.89746
1.74078
1.60216
1.47819
1.37782
1.29798
1.23423
1.7594
2.11955
2.34542
2.43112
2.42241
2.33077
2.20362
2.04625
1.89056
1.73477
1.59717
1.47405
1.37437
1.29493
1.23127
1.77082
2.1269
2.34527
2.42582
2.41447
2.32159
2.19446
2.03762
1.88291
1.72819
1.59172
1.46957
1.37066
1.29164
1.22813
1.78385
2.13402
2.34386
2.41895
2.40499
2.31106
2.18416
2.02808
1.87454
1.72104
1.58583
1.46474
1.36667
1.28813
1.22482
1.79855
2.14078
2.34103
2.41035
2.39385
2.29909
2.17264
2.01756
1.86538
1.71326
1.57945
1.45953
1.36239
1.28436
1.22132
1.81524
2.1472
2.33671
2.39998
2.38099
2.28564
2.1599
2.00605
1.85543
1.70488
1.57259
1.45395
1.35782
1.28035
1.21764
1.83399
2.15316
2.33074
2.38766
2.36628
2.2706
2.14585
1.99349
1.84465
1.69583
1.56521
1.44797
1.35293
1.27607
1.21376
1.85515
2.15866
2.32306
2.37332
2.34964
2.25393
2.13045
1.97987
1.83301
1.68613
1.55731
1.44159
1.34773
1.27152
1.20968
1.87883
2.16357
2.31348
2.35678
2.33093
2.23553
2.11361
1.96512
1.82046
1.67571
1.54884
1.43478
1.34219
1.26669
1.2054
1.9054
2.16789
2.3019
2.33792
2.31006
2.21531
2.0953
1.9492
1.80698
1.66457
1.5398
1.42752
1.33631
1.26156
1.2009
1.93499
2.17149
2.28813
2.31656
2.28686
2.19317
2.07541
1.93203
1.79251
1.65266
1.53014
1.41978
1.33006
1.25612
1.19617
1.96798
2.17436
2.27204
2.29254
2.2612
2.16899
2.05388
1.91358
1.77702
1.63994
1.51984
1.41155
1.32344
1.25036
1.19122
2.00455
2.17641
2.2534
2.26563
2.23288
2.14265
2.03059
1.89375
1.76041
1.62637
1.50886
1.40279
1.31641
1.24426
1.18603
2.04509
2.17761
2.23205
2.23562
2.20174
2.114
2.00545
1.87247
1.74266
1.61189
1.49716
1.39347
1.30895
1.2378
1.18059
2.08976
2.17788
2.20769
2.20224
2.16754
2.08287
1.97831
1.84963
1.72365
1.59643
1.48468
1.38355
1.30104
1.23097
1.1749
2.13895
2.1772
2.18008
2.1652
2.13005
2.04907
1.94903
1.8251
1.70331
1.57992
1.47136
1.37297
1.29263
1.22375
1.16895
2.19283
2.17546
2.14886
2.12415
2.08899
2.01236
1.91743
1.79874
1.68151
1.56226
1.45713
1.36169
1.28361
1.21613
1.16274
2.25175
2.1726
2.11362
2.07871
2.04403
1.97251
1.88331
1.77039
1.65812
1.54336
1.44191
1.34963
1.27394
1.20808
1.15625
2.3159
2.16836
2.07384
2.02841
1.9948
1.92917
1.84641
1.73983
1.63296
1.52305
1.42558
1.33671
1.26356
1.19957
1.14947
2.38563
2.16238
2.02888
1.97271
1.94089
1.88202
1.80643
1.70679
1.60584
1.50118
1.40802
1.32284
1.2524
1.19055
1.14236
2.46128
2.15383
1.97781
1.91096
1.88175
1.83059
1.76298
1.67097
1.57649
1.47754
1.38907
1.30789
1.24038
1.18096
1.13491
2.54352
2.1411
1.91931
1.84227
1.81678
1.77435
1.71563
1.63198
1.54459
1.45187
1.36852
1.29172
1.22741
1.17076
1.12709
2.63352
2.12097
1.8514
1.76567
1.74539
1.7129