/*--------------------------------*- C++ -*----------------------------------*\
  =========                 |
  \\      /  F ield         | OpenFOAM: The Open Source CFD Toolbox
   \\    /   O peration     | Website:  https://openfoam.org
    \\  /    A nd           | Version:  6.0
     \\/     M anipulation  |
\*---------------------------------------------------------------------------*/
FoamFile
{
    version     2.0;
    format      ascii;
    class       surfaceScalarField;
    location    "2";
    object      phi;
}
// * * * * * * * * * * * * * * * * * * * * * * * * * * * * * * * * * * * * * //

dimensions      [0 3 -1 0 0 0 0];

internalField   nonuniform List<scalar> 
68636
(
3.71669e-05
0.00309847
6.22391e-08
7.49838e-05
0.00306208
0.000112374
0.00299137
0.000148646
0.0028877
0.000183309
0.00275301
0.000215939
0.00258912
0.000246236
0.00239743
0.000273825
0.00217982
0.000298428
0.00193817
0.000319731
0.00167517
0.000337516
0.0013932
0.000351563
0.00109532
0.000361729
0.000784149
0.000367818
0.000461836
0.000123245
0.000368337
3.68912e-05
0.0030615
6.19913e-08
7.43446e-05
0.00302464
0.000111287
0.00295444
0.000147078
0.00285199
0.000181271
0.00271898
0.000213464
0.0025571
0.000243367
0.00236778
0.000270603
0.00215283
0.000294901
0.00191418
0.000315938
0.00165439
0.000333506
0.00137593
0.00034738
0.00108174
0.00035742
0.000774473
0.00036336
0.000456375
0.000123409
0.000364108
3.65155e-05
0.00302492
6.20563e-08
7.35518e-05
0.00298761
0.000110051
0.00291794
0.000145398
0.00281665
0.000179164
0.00268525
0.000210957
0.0025253
0.000240493
0.00233828
0.000267394
0.0021259
0.000291397
0.00189019
0.000312178
0.00163355
0.000329533
0.00135854
0.000343238
0.00106795
0.00035315
0.000764468
0.000359027
0.000450333
0.000121875
0.000360001
3.61195e-05
0.00298872
6.23526e-08
7.27302e-05
0.00295099
0.000108792
0.00288185
0.000143706
0.00278175
0.00017706
0.00265194
0.000208466
0.00249394
0.000237642
0.0023092
0.000264218
0.00209943
0.000287931
0.00186662
0.00030846
0.00161315
0.000325606
0.00134155
0.000339144
0.00105458
0.00034893
0.000754899
0.000354739
0.000444817
0.000121295
0.000355874
3.57114e-05
0.00295294
6.29742e-08
7.18925e-05
0.00291481
0.000107521
0.00284622
0.000142013
0.00274725
0.000174966
0.00261899
0.000205994
0.00246287
0.00023482
0.00228037
0.000261075
0.00207311
0.000284503
0.00184316
0.000304785
0.00159279
0.000321724
0.00132455
0.000335098
0.0010411
0.000344762
0.000745118
0.000350503
0.00043888
0.000119451
0.000351749
3.52968e-05
0.00291756
6.40932e-08
7.10475e-05
0.00287905
0.000106248
0.00281099
0.000140327
0.00271316
0.000172886
0.00258643
0.000203544
0.00243222
0.000232026
0.00225193
0.000257968
0.00204722
0.000281114
0.0018201
0.000301153
0.00157282
0.000317889
0.00130791
0.000331101
0.00102801
0.000340644
0.000735727
0.000346317
0.000433411
0.00011852
0.000347645
3.48796e-05
0.00288262
5.67971e-08
7.02011e-05
0.00284373
0.000104979
0.0027762
0.000138651
0.00267947
0.000170824
0.00255427
0.000201119
0.00240188
0.000229262
0.00222378
0.000254895
0.00202153
0.000277765
0.00179719
0.000297564
0.00155294
0.000314099
0.00129131
0.000327153
0.00101485
0.000336577
0.000726185
0.000342185
0.000427606
0.000116552
0.000343568
3.44622e-05
0.00284809
5.4424e-08
6.93574e-05
0.00280882
0.000103718
0.00274181
0.000136989
0.00264618
0.000168782
0.00252246
0.00019872
0.00237194
0.000226529
0.00219599
0.000251858
0.00199623
0.000274455
0.00177465
0.000294018
0.00153343
0.000310355
0.00127505
0.000323251
0.00100205
0.00033256
0.000716995
0.000338101
0.000422223
0.000115442
0.000339527
3.40465e-05
0.00281398
5.31973e-08
6.8519e-05
0.00277434
0.000102467
0.00270787
0.000135343
0.0026133
0.000166761
0.00249105
0.000196347
0.00234231
0.000223827
0.0021685
0.000248856
0.00197115
0.000271184
0.00175229
0.000290514
0.00151403
0.000306655
0.00125885
0.000319397
0.000989213
0.000328592
0.00070769
0.000334069
0.000416557
0.00011344
0.000335522
3.36335e-05
0.00278028
5.27002e-08
6.76878e-05
0.00274027
0.000101229
0.0026743
0.000133714
0.00258079
0.000164762
0.00245999
0.000194001
0.00231307
0.000221157
0.00214135
0.000245889
0.00194644
0.000267952
0.00173027
0.000287052
0.00149497
0.000303
0.00124296
0.000315589
0.000976699
0.000324673
0.000698707
0.000330085
0.000411273
0.000112236
0.000331558
3.32242e-05
0.002747
5.2618e-08
6.68647e-05
0.00270663
0.000100003
0.00264116
0.000132103
0.00254869
0.000162786
0.00242932
0.000191682
0.00228414
0.000218517
0.00211451
0.000242958
0.00192195
0.000264758
0.00170845
0.000283631
0.00147603
0.000299388
0.00122715
0.000311827
0.000964177
0.000320801
0.00068963
0.00032615
0.00040574
0.000110231
0.000327634
3.2819e-05
0.00271411
5.28331e-08
6.60508e-05
0.00267338
9.87919e-05
0.0026084
0.000130511
0.00251694
0.000160833
0.00239899
0.00018939
0.00225557
0.000215908
0.002088
0.000240061
0.00189781
0.000261601
0.00168693
0.000280251
0.00145742
0.00029582
0.00121163
0.00030811
0.000951954
0.000316976
0.000680853
0.000322262
0.000400563
0.000108976
0.000323754
3.24182e-05
0.00268164
5.31443e-08
6.52463e-05
0.00264055
9.75948e-05
0.00257606
0.000128938
0.0024856
0.000158903
0.00236903
0.000187125
0.00222733
0.00021333
0.00206179
0.000237198
0.00187391
0.000258483
0.00166563
0.000276911
0.00143894
0.000292294
0.0011962
0.000304438
0.000939736
0.000313197
0.000671997
0.000318422
0.000395162
0.000106996
0.000319915
3.20221e-05
0.00264955
5.35917e-08
6.44515e-05
0.0026081
9.6412e-05
0.00254407
0.000127383
0.00245461
0.000156996
0.00233941
0.000184886
0.00219942
0.000210783
0.00203589
0.000234369
0.00185034
0.000255401
0.00164462
0.000273611
0.00142076
0.000288811
0.00118104
0.00030081
0.000927797
0.000309464
0.000663422
0.000314627
0.000390094
0.000105719
0.00031612
3.16308e-05
0.00261786
5.40144e-08
6.36665e-05
0.00257607
9.52439e-05
0.0025125
0.000125848
0.002424
0.000155111
0.00231016
0.000182674
0.00217184
0.000208266
0.0020103
0.000231573
0.001827
0.000252356
0.00162382
0.00027035
0.00140271
0.000285369
0.00116597
0.000297225
0.000915872
0.000305776
0.000654779
0.000310879
0.000384818
0.000103768
0.000312367
3.12444e-05
0.00258655
5.45309e-08
6.28915e-05
0.0025444
9.40902e-05
0.00248128
0.000124331
0.00239374
0.00015325
0.00228123
0.000180489
0.00214459
0.000205778
0.00198501
0.000228811
0.00180397
0.000249348
0.0016033
0.000267128
0.00138496
0.000281968
0.00115117
0.000293683
0.000904213
0.000302132
0.000646404
0.000307175
0.000379861
0.000102483
0.000308659
3.08628e-05
0.00255563
5.4957e-08
6.21262e-05
0.00251314
9.29509e-05
0.00245047
0.000122833
0.00236386
0.00015141
0.00225267
0.000178329
0.00211765
0.000203321
0.00196002
0.000226082
0.00178119
0.000246375
0.001583
0.000263945
0.00136735
0.000278608
0.00113647
0.000290184
0.000892575
0.000298532
0.00063797
0.000303516
0.00037471
0.000100574
0.000304992
3.04861e-05
0.00252507
5.5475e-08
6.13708e-05
0.00248224
9.18258e-05
0.00241999
0.000121353
0.00233431
0.000149593
0.00222441
0.000176196
0.00209104
0.000200892
0.00193532
0.000223385
0.0017587
0.000243437
0.00156296
0.0002608
0.00135001
0.000275288
0.00112201
0.000286727
0.000881188
0.000294976
0.000629789
0.0002999
0.000369862
9.92925e-05
0.000301369
3.01142e-05
0.00249491
5.5886e-08
6.06249e-05
0.00245173
9.07149e-05
0.00238991
0.000119891
0.00230514
0.000147798
0.00219652
0.000174088
0.00206474
0.000198493
0.00191092
0.00022072
0.00173646
0.000240535
0.00154313
0.000257692
0.00133281
0.000272008
0.00110766
0.000283311
0.000869828
0.000291462
0.000621556
0.000296328
0.000364832
9.74229e-05
0.000297788
2.9747e-05
0.00246509
5.64056e-08
5.98886e-05
0.00242157
8.96179e-05
0.00236016
0.000118448
0.00227629
0.000146025
0.00216893
0.000172005
0.00203874
0.000196122
0.00188679
0.000218087
0.00171449
0.000237668
0.00152357
0.000254621
0.00131588
0.000268768
0.00109354
0.000279936
0.000858708
0.00028799
0.000613566
0.000292799
0.000360092
9.61494e-05
0.00029425
2.93846e-05
0.00243565
5.6794e-08
5.91617e-05
0.0023918
8.85347e-05
0.0023308
0.000117022
0.00224781
0.000144273
0.00214169
0.000169947
0.00201306
0.00019378
0.00186296
0.000215486
0.00169277
0.000234834
0.00150421
0.000251587
0.00129909
0.000265566
0.00107953
0.000276601
0.000847619
0.00028456
0.00060553
0.000289312
0.000355181
9.43277e-05
0.000290752
2.90268e-05
0.00240655
5.73044e-08
5.84441e-05
0.00236236
8.74651e-05
0.00230175
0.000115614
0.00221964
0.000142542
0.00211475
0.000167914
0.00198767
0.000191465
0.00183941
0.000212915
0.00167133
0.000232035
0.0014851
0.000248589
0.00128256
0.000262402
0.00106575
0.000273307
0.00083676
0.000281171
0.000597725
0.000285866
0.000350548
9.30667e-05
0.000287296
2.86736e-05
0.00237783
5.76813e-08
5.77356e-05
0.00233331
8.64089e-05
0.00227309
0.000114223
0.00219183
0.000140833
0.00208816
0.000165905
0.0019626
0.000189179
0.00181614
0.000210376
0.00165011
0.000229269
0.0014662
0.000245628
0.00126617
0.000259276
0.00105206
0.000270052
0.000825933
0.000277822
0.00058988
0.000282463
0.000345752
9.12893e-05
0.000283881
2.83249e-05
0.00234943
5.81984e-08
5.70361e-05
0.00230457
8.53658e-05
0.00224474
0.000112849
0.00216432
0.000139144
0.00206185
0.000163921
0.0019378
0.000186919
0.00179313
0.000207866
0.00162917
0.000226535
0.00144754
0.000242701
0.00125002
0.000256188
0.0010386
0.000266836
0.000815329
0.000274514
0.000582257
0.000279099
0.000341226
9.00432e-05
0.000280507
2.79807e-05
0.0023214
5.85679e-08
5.63455e-05
0.00227622
8.43359e-05
0.00221676
0.000111492
0.00213718
0.000137476
0.00203588
0.00016196
0.00191332
0.000184687
0.00177041
0.000205387
0.00160846
0.000223835
0.00142908
0.00023981
0.00123402
0.000253137
0.00102524
0.000263658
0.00080476
0.000271246
0.000574599
0.000275776
0.000336543
8.8314e-05
0.000277173
2.76409e-05
0.00229368
5.90885e-08
5.56637e-05
0.00224817
8.33187e-05
0.00218908
0.000110152
0.00211032
0.000135828
0.00201019
0.000160023
0.0018891
0.000182482
0.00174794
0.000202937
0.001588
0.000221167
0.00141086
0.000236953
0.00121825
0.000250122
0.0010121
0.000260519
0.000794403
0.000268016
0.000567154
0.000272493
0.00033212
8.70841e-05
0.000273879
2.73054e-05
0.00226633
5.94626e-08
5.49904e-05
0.0022205
8.23142e-05
0.00216177
0.000108828
0.00208382
0.0001342
0.00198483
0.000158109
0.00186519
0.000180303
0.00172576
0.000200517
0.00156778
0.000218531
0.00139284
0.00023413
0.00120263
0.000247143
0.000999054
0.000257417
0.000784084
0.000264826
0.000559677
0.000269249
0.000327548
8.54027e-05
0.000270624
2.69741e-05
0.00223927
6.00016e-08
5.43257e-05
0.00219312
8.13222e-05
0.00213475
0.000107521
0.0020576
0.000132591
0.00195974
0.000156219
0.00184155
0.00017815
0.00170382
0.000198125
0.00154781
0.000215926
0.00137505
0.000231341
0.00118723
0.0002442
0.000986222
0.000254353
0.00077397
0.000261673
0.000552405
0.000266044
0.000323227
8.41983e-05
0.000267409
2.66471e-05
0.00221258
6.03845e-08
5.36692e-05
0.00216611
8.03425e-05
0.0021081
0.000106229
0.00203172
0.000131003
0.00193499
0.000154351
0.0018182
0.000176023
0.00168215
0.000195762
0.00152806
0.000213353
0.00135745
0.000228586
0.00117197
0.000241292
0.000973484
0.000251325
0.000763895
0.000258559
0.000545106
0.000262878
0.000318764
8.25627e-05
0.000264231
2.63241e-05
0.00218617
6.09365e-08
5.30211e-05
0.00213939
7.9375e-05
0.00208172
0.000104953
0.00200612
0.000129433
0.00191049
0.000152506
0.00179511
0.000173921
0.00166073
0.000193428
0.00150855
0.000210811
0.00134007
0.000225863
0.00115694
0.00023842
0.000960952
0.000248334
0.000754017
0.000255482
0.000538002
0.000259749
0.000314544
8.13939e-05
0.000261094
2.60053e-05
0.00216012
6.13335e-08
5.2381e-05
0.00211303
7.84194e-05
0.00205569
0.000103693
0.00198086
0.000127883
0.00188632
0.000150682
0.00177231
0.000171845
0.00163957
0.000191121
0.00148927
0.000208299
0.00132289
0.000223173
0.00114204
0.000235581
0.000948514
0.000245378
0.000744181
0.000252442
0.000530876
0.000256658
0.000310186
7.9768e-05
0.000257993
2.56904e-05
0.00213435
6.19094e-08
5.17489e-05
0.00208695
7.74757e-05
0.00202994
0.000102449
0.00195586
0.000126351
0.0018624
0.000148881
0.00174977
0.000169794
0.00161865
0.000188842
0.00147022
0.000205817
0.00130592
0.000220516
0.00112735
0.000232777
0.000936276
0.000242458
0.000734533
0.000249438
0.000523938
0.000253604
0.000306064
7.86423e-05
0.000254931
2.53795e-05
0.00210893
6.23223e-08
5.11247e-05
0.00206122
7.65436e-05
0.00200454
0.000101219
0.0019312
0.000124838
0.0018388
0.000147102
0.00172751
0.000167767
0.00159799
0.000186591
0.00145139
0.000203364
0.00128914
0.00021789
0.00111281
0.000230006
0.000924132
0.000239573
0.00072493
0.00024647
0.000516981
0.000250587
0.000301808
7.70418e-05
0.000251906
2.50725e-05
0.00208377
6.29168e-08
5.05083e-05
0.00203576
7.56229e-05
0.0019794
0.000100005
0.00190679
0.000123343
0.00181544
0.000145344
0.00170549
0.000165765
0.00157756
0.000184366
0.00143279
0.000200942
0.00127257
0.000215296
0.00109847
0.000227269
0.00091218
0.000236723
0.000715507
0.000243538
0.000510204
0.000247605
0.000297784
7.59709e-05
0.00024892
2.47693e-05
0.00205896
6.33486e-08
4.98995e-05
0.00201064
7.47137e-05
0.0019546
9.88052e-05
0.00188271
0.000121867
0.0017924
0.000143607
0.00168375
0.000163786
0.00155738
0.000182168
0.0014144
0.000198548
0.00125619
0.000212733
0.00108426
0.000224564
0.000900321
0.000233907
0.00070613
0.000240641
0.000503411
0.000244661
0.000293627
7.43677e-05
0.000245969
2.44698e-05
0.0020344
6.39709e-08
4.92983e-05
0.00198579
7.38156e-05
0.00193006
9.76202e-05
0.00185888
0.000120408
0.00176959
0.000141891
0.00166225
0.000161832
0.00153743
0.000179997
0.00139623
0.000196183
0.00124
0.0002102
0.00107026
0.000221892
0.00088865
0.000231124
0.000696928
0.000237779
0.00049679
0.00024175
0.000289696
7.33507e-05
0.000243058
2.41741e-05
0.00201019
6.44218e-08
4.87044e-05
0.00196127
7.29285e-05
0.00190585
9.64497e-05
0.00183538
0.000118967
0.00174709
0.000140196
0.00164103
0.000159901
0.00151773
0.000177851
0.00137828
0.000193846
0.001224
0.000207698
0.00105639
0.000219252
0.000877071
0.000228375
0.000687771
0.000234952
0.000490159
0.000238876
0.000285637
7.17528e-05
0.00024018
2.38821e-05
0.00198622
6.50638e-08
4.8118e-05
0.00193701
7.20524e-05
0.00188189
9.52934e-05
0.00181211
0.000117543
0.00172482
0.000138521
0.00162003
0.000157993
0.00149825
0.000175732
0.00136054
0.000191538
0.0012082
0.000205226
0.00104271
0.000216644
0.000865672
0.00022566
0.000678783
0.000232158
0.000483692
0.000236035
0.000281797
7.07686e-05
0.000237341
2.35937e-05
0.00196258
6.55351e-08
4.75388e-05
0.00191308
7.1187e-05
0.00185826
9.41513e-05
0.00178916
0.000116137
0.00170285
0.000136866
0.00159931
0.000156108
0.00147901
0.000173637
0.00134301
0.000189257
0.00119258
0.000202784
0.00102917
0.000214067
0.000854365
0.000222976
0.000669842
0.000229398
0.000477216
0.000233229
0.000277832
6.91913e-05
0.00023453
2.33088e-05
0.00193919
6.62042e-08
4.69667e-05
0.0018894
7.03321e-05
0.00183486
9.3023e-05
0.00176644
0.000114748
0.00168111
0.000135232
0.0015788
0.000154246
0.00145999
0.000171568
0.00132568
0.000187004
0.00117714
0.000200371
0.00101581
0.000211521
0.000843232
0.000220326
0.000661064
0.000226671
0.000470898
0.000230455
0.00027408
6.82319e-05
0.000231752
2.30275e-05
0.00191611
6.6695e-08
4.64016e-05
0.00186604
6.94878e-05
0.0018118
9.19084e-05
0.00174404
0.000113375
0.00165966
0.000133617
0.00155857
0.000152407
0.00144121
0.000169524
0.00130857
0.000184777
0.00116189
0.000197987
0.00100259
0.000209006
0.000832192
0.000217707
0.000652334
0.000223977
0.000464576
0.000227716
0.00027021
6.66984e-05
0.000229003
2.27496e-05
0.00189328
6.7383e-08
4.58435e-05
0.00184292
6.86537e-05
0.00178896
9.08074e-05
0.00172186
0.000112019
0.00163843
0.000132021
0.00153855
0.000150589
0.00142263
0.000167505
0.00129164
0.000182578
0.00114682
0.000195632
0.000989538
0.000206521
0.000821319
0.000215119
0.00064376
0.000221315
0.000458404
0.000225009
0.000266543
6.57608e-05
0.000226288
2.24751e-05
0.00187076
6.78939e-08
4.52923e-05
0.00182012
6.78299e-05
0.00176644
8.97198e-05
0.00169999
0.00011068
0.00161749
0.000130445
0.00151879
0.000148794
0.00140429
0.000165509
0.00127493
0.000180405
0.00113192
0.000193305
0.000976626
0.000204066
0.000810538
0.000212563
0.000635235
0.000218686
0.00045223
0.000222335
0.000262764
6.42774e-05
0.000223603
2.2204e-05
0.00184846
6.8607e-08
4.47478e-05
0.00179755
6.70161e-05
0.00174414
8.86454e-05
0.00167833
0.000109357
0.00159675
0.000128888
0.00149924
0.00014702
0.00138614
0.000163538
0.0012584
0.000178258
0.0011172
0.000191006
0.000963883
0.00020164
0.000799919
0.000210037
0.00062686
0.000216088
0.000446201
0.000219692
0.000259179
6.33546e-05
0.000220951
2.19363e-05
0.00182648
6.91357e-08
4.42099e-05
0.0017753
6.62123e-05
0.00172216
8.75841e-05
0.00165697
0.000108049
0.00157631
0.00012735
0.00147995
0.000145267
0.00136823
0.000161591
0.00124208
0.000176137
0.00110265
0.000188735
0.000951275
0.000199244
0.000789392
0.000207542
0.000618536
0.000213521
0.000440173
0.000217082
0.000255492
6.19232e-05
0.00021833
2.16718e-05
0.00180472
6.98627e-08
4.36787e-05
0.00175327
6.54182e-05
0.00170039
8.65356e-05
0.00163583
0.000106758
0.00155606
0.00012583
0.00146086
0.000143535
0.00135051
0.000159666
0.00122594
0.000174041
0.00108828
0.000186491
0.00093883
0.000196876
0.00077902
0.000205077
0.000610356
0.000210985
0.000434283
0.000214502
0.000251987
6.10095e-05
0.00021574
2.14105e-05
0.00178327
7.04073e-08
4.31539e-05
0.00173154
6.46338e-05
0.00167893
8.54998e-05
0.00161498
0.000105482
0.0015361
0.000124328
0.00144202
0.000141825
0.00133303
0.000157766
0.00121001
0.000171971
0.00107407
0.000184274
0.000926518
0.000194537
0.00076874
0.000202641
0.000602227
0.00020848
0.000428396
0.000211955
0.000248387
5.96291e-05
0.00021318
2.11524e-05
0.00176202
7.11534e-08
4.26356e-05
0.00171003
6.3859e-05
0.00165768
8.44767e-05
0.00159433
0.000104222
0.00151633
0.000122845
0.00142338
0.000140135
0.00131572
0.000155888
0.00119424
0.000169925
0.00106003
0.000182084
0.000914363
0.000192227
0.00075861
0.000200235
0.000594237
0.000206005
0.000422641
0.000209437
0.000244961
5.87219e-05
0.000210652
2.08975e-05
0.00174108
7.17118e-08
4.21235e-05
0.00168883
6.30936e-05
0.00163673
8.34659e-05
0.00157398
0.000102977
0.00149684
0.000121379
0.00140499
0.000138465
0.00129865
0.000154032
0.00117868
0.000167905
0.00104616
0.00017992
0.000902341
0.000189944
0.000748571
0.000197858
0.000586299
0.00020356
0.000416893
0.000206951
0.000241447
5.73913e-05
0.000208153
2.06457e-05
0.00172034
7.24677e-08
4.16177e-05
0.00166783
6.23375e-05
0.00161598
8.24674e-05
0.00155382
0.000101747
0.00147754
0.000119932
0.00138678
0.000136816
0.00128175
0.000152199
0.00116329
0.000165908
0.00103245
0.000177782
0.000890469
0.000187688
0.000738677
0.00019551
0.000578494
0.000201145
0.000411271
0.000204494
0.000238098
5.64894e-05
0.000205686
2.03969e-05
0.0016999
7.3039e-08
4.11181e-05
0.00164713
6.15906e-05
0.00159553
8.1481e-05
0.00153395
0.000100532
0.00145851
0.000118501
0.00136882
0.000135186
0.00126508
0.000150388
0.00114809
0.000163936
0.00101891
0.000175671
0.000878729
0.00018546
0.000728874
0.00019319
0.000570742
0.000198758
0.000405658
0.000202068
0.000234668
5.52066e-05
0.000203247
2.01512e-05
0.00167965
7.38102e-08
4.06245e-05
0.00162663
6.08528e-05
0.00157527
8.05065e-05
0.00151427
9.93314e-05
0.00143966
0.000117088
0.00135104
0.000133576
0.00124857
0.000148599
0.00113306
0.000161988
0.00100551
0.000173584
0.000867134
0.000183258
0.00071921
0.000190898
0.000563119
0.0001964
0.000400165
0.00019967
0.000231394
5.43101e-05
0.000200838
1.99085e-05
0.0016597
7.43926e-08
4.0137e-05
0.00160642
6.01239e-05
0.0015553
7.95439e-05
0.00149487
9.81456e-05
0.00142108
0.000115693
0.00133351
0.000131986
0.0012323
0.000146832
0.00111822
0.000160063
0.000992288
0.000171523
0.00085567
0.000181084
0.000709638
0.000188633
0.000555549
0.000194071
0.000394684
0.000197302
0.000228047
5.30733e-05
0.000198457
1.96687e-05
0.00163993
7.5168e-08
3.96553e-05
0.0015864
5.94039e-05
0.00153552
7.85929e-05
0.00147565
9.6974e-05
0.00140267
0.000114314
0.00131615
0.000130415
0.00121618
0.000145085
0.00110354
0.000158161
0.000979207
0.000169486
0.000844344
0.000178935
0.000700198
0.000186396
0.000548102
0.00019177
0.000389318
0.000194961
0.000224846
5.21824e-05
0.000196106
1.94318e-05
0.00162046
7.57589e-08
3.91795e-05
0.00156668
5.86926e-05
0.00151603
7.76535e-05
0.00145671
9.58167e-05
0.00138453
0.000112951
0.00129903
0.000128862
0.00120028
0.00014336
0.00108905
0.000156282
0.000966292
0.000167475
0.000833149
0.000176812
0.00069085
0.000184186
0.00054071
0.000189497
0.000383965
0.00019265
0.000221578
5.09893e-05
0.000193783
1.91978e-05
0.00160116
7.65439e-08
3.87095e-05
0.00154714
5.799e-05
0.00149672
7.67254e-05
0.00143794
9.46733e-05
0.00136656
0.000111605
0.00128207
0.000127329
0.00118454
0.000141656
0.00107471
0.000154426
0.000953516
0.000165487
0.000822087
0.000174715
0.000681629
0.000182003
0.000533435
0.000187251
0.000378723
0.000190367
0.000218448
5.0105e-05
0.000191488
1.89666e-05
0.00158215
7.71428e-08
3.82452e-05
0.00152788
5.72958e-05
0.00147769
7.58085e-05
0.00141945
9.35438e-05
0.00134884
0.000110276
0.00126536
0.000125814
0.00116902
0.000139972
0.00106056
0.000152592
0.000940904
0.000163524
0.000811154
0.000172644
0.0006725
0.000179846
0.000526216
0.000185033
0.000373496
0.000188111
0.00021526
4.89536e-05
0.00018922
1.87382e-05
0.00156331
7.79292e-08
3.77866e-05
0.00150881
5.66101e-05
0.00145884
7.49028e-05
0.00140112
9.24279e-05
0.00133129
0.000108962
0.0012488
0.000124317
0.00115365
0.000138309
0.00104655
0.000150781
0.000928426
0.000161584
0.000800349
0.000170597
0.000663494
0.000177715
0.00051911
0.000182841
0.000368373
0.000185882
0.0002122
4.80765e-05
0.000186981
1.85126e-05
0.00154475
7.85349e-08
3.73334e-05
0.00149001
5.59327e-05
0.00144026
7.4008e-05
0.00138307
9.13255e-05
0.001314
0.000107664
0.00123248
0.000122838
0.00113849
0.000136666
0.00103274
0.000148991
0.00091611
0.000159667
0.000789673
0.000168575
0.000654578
0.00017561
0.000512059
0.000180676
0.000363269
0.000183681
0.000209088
4.69647e-05
0.000184768
1.82897e-05
0.00152636
7.93288e-08
3.68858e-05
0.00147138
5.52635e-05
0.00142185
7.3124e-05
0.00136518
9.02365e-05
0.00129686
0.000106382
0.0012163
0.000121378
0.00112348
0.000135042
0.00101906
0.000147223
0.000903921
0.000157774
0.000779118
0.000166578
0.00064578
0.00017353
0.000505117
0.000178537
0.000358264
0.000181506
0.000206096
4.60955e-05
0.000182582
1.80695e-05
0.00150825
7.99409e-08
3.64435e-05
0.00145303
5.46023e-05
0.00140372
7.22508e-05
0.00134755
8.91607e-05
0.00127998
0.000105116
0.00120037
0.000119935
0.00110868
0.000133439
0.00100557
0.000145477
0.000891895
0.000155904
0.000768693
0.000164605
0.000637073
0.000171476
0.000498232
0.000176423
0.000353279
0.000179359
0.000203059
4.50215e-05
0.000180422
1.78519e-05
0.00149029
8.07321e-08
3.60067e-05
0.00143485
5.39492e-05
0.00138574
7.13881e-05
0.00133008
8.80978e-05
0.00126324
0.000103865
0.00118457
0.000118509
0.00109401
0.000131854
0.000992204
0.000143751
0.00087999
0.000154057
0.000758383
0.000162655
0.000628479
0.000169446
0.00049145
0.000174336
0.000348389
0.000177236
0.000200134
4.41609e-05
0.000178289
1.7637e-05
0.00147261
8.1348e-08
3.55751e-05
0.00141694
5.3304e-05
0.00136804
7.05358e-05
0.00131287
8.70478e-05
0.00124675
0.000102629
0.00116901
0.000117101
0.00107956
0.000130289
0.00097903
0.000142047
0.000868245
0.000152231
0.000748201
0.00016073
0.000619976
0.000167441
0.000484725
0.000172274
0.000343521
0.00017514
0.000197169
4.31226e-05
0.000176181
1.74247e-05
0.00145508
8.21424e-08
3.51487e-05
0.00139918
5.26666e-05
0.00135048
6.96939e-05
0.00129581
8.60105e-05
0.00123041
0.000101407
0.00115359
0.000115709
0.00106524
0.000128743
0.000965979
0.000140363
0.000856616
0.000150428
0.00073813
0.000158827
0.00061158
0.00016546
0.0004781
0.000170236
0.000338743
0.000173069
0.000194309
4.22714e-05
0.0001741
1.72149e-05
0.00143782
8.27626e-08
3.47275e-05
0.0013817
5.20369e-05
0.0013332
6.88621e-05
0.00127901
8.49859e-05
0.00121431
0.000100201
0.0011384
0.000114335
0.00105113
0.000127216
0.000953115
0.000138699
0.000845147
0.000148647
0.000728186
0.000156948
0.000603276
0.000163503
0.000471532
0.000168224
0.000333988
0.000171024
0.000191416
4.12672e-05
0.000172043
1.70077e-05
0.0014207
8.35527e-08
3.43113e-05
0.00136436
5.14148e-05
0.00131606
6.80404e-05
0.00126235
8.39735e-05
0.00119835
9.90093e-05
0.00112333
0.000112977
0.00103714
0.000125707
0.000940367
0.000137056
0.000833788
0.000146887
0.000718348
0.000155091
0.000595073
0.00016157
0.000465059
0.000166236
0.00032932
0.000169003
0.00018862
4.0426e-05
0.000170011
1.68029e-05
0.00140385
8.4176e-08
3.39002e-05
0.00134729
5.08003e-05
0.00129919
6.72287e-05
0.00124595
8.29735e-05
0.00118264
9.78321e-05
0.0011085
0.000111636
0.00102336
0.000124216
0.000927804
0.000135432
0.000822586
0.000145149
0.000708637
0.000153257
0.000586963
0.000159661
0.000458644
0.000164272
0.000324676
0.000167007
0.000185795
3.94541e-05
0.000168004
1.66007e-05
0.00138714
8.49683e-08
3.34941e-05
0.00133037
5.01931e-05
0.00128246
6.64267e-05
0.00122968
8.19855e-05
0.00116705
9.6669e-05
0.00109378
0.00011031
0.0010097
0.000122743
0.000915352
0.000133829
0.000811491
0.000143432
0.000699026
0.000151446
0.000578949
0.000157774
0.00045232
0.000162332
0.000320114
0.000165035
0.000183061
3.86235e-05
0.000166021
1.64008e-05
0.0013707
8.55953e-08
3.30928e-05
0.00131371
4.95934e-05
0.00126599
6.56345e-05
0.00121367
8.10095e-05
0.0011517
9.55201e-05
0.0010793
0.000109001
0.000996245
0.000121289
0.000903084
0.000132244
0.000800552
0.000141736
0.000689542
0.000149656
0.000571028
0.000155911
0.000446055
0.000160416
0.000315579
0.000163087
0.000180304
3.76826e-05
0.000164062
1.62034e-05
0.00135438
8.63798e-08
3.26964e-05
0.00129718
4.90008e-05
0.00124964
6.48518e-05
0.00119778
8.00453e-05
0.00113648
9.43851e-05
0.00106493
0.000107708
0.000982901
0.000119852
0.000890921
0.000130679
0.000789713
0.00014006
0.000680153
0.000147888
0.000563199
0.00015407
0.000439876
0.000158522
0.000311121
0.000161163
0.00017763
3.68629e-05
0.000162128
1.60083e-05
0.00133833
8.70072e-08
3.23048e-05
0.00128091
4.84154e-05
0.00123356
6.40787e-05
0.00118215
7.90929e-05
0.0011215
9.32638e-05
0.00105078
0.000106431
0.000969761
0.000118432
0.00087894
0.000129133
0.000779029
0.000138404
0.00067089
0.000146141
0.000555462
0.000152252
0.000433756
0.000156652
0.000306691
0.000159262
0.000174938
3.59514e-05
0.000160216
1.58156e-05
0.0013224
8.77901e-08
3.19179e-05
0.00126478
4.78371e-05
0.00121761
6.33148e-05
0.00116663
7.81519e-05
0.00110663
9.21561e-05
0.00103675
0.000105169
0.000956727
0.00011703
0.000867059
0.000127606
0.000768441
0.000136769
0.000661717
0.000144416
0.000547813
0.000150455
0.000427718
0.000154805
0.000302334
0.000157385
0.000172324
3.51433e-05
0.000158328
1.56252e-05
0.00130673
8.84193e-08
3.15356e-05
0.0012489
4.72658e-05
0.00120191
6.25602e-05
0.00115137
7.72223e-05
0.001092
9.10619e-05
0.00102294
0.000103922
0.000943895
0.000115644
0.000855358
0.000126097
0.000758007
0.000135154
0.00065267
0.000142712
0.000540256
0.000148681
0.000421741
0.00015298
0.000298008
0.00015553
0.000169697
3.42601e-05
0.000156463
1.5437e-05
0.00129118
8.91934e-08
3.1158e-05
0.00123314
4.67014e-05
0.00118633
6.18148e-05
0.00113622
7.6304e-05
0.00107748
8.99809e-05
0.00100923
0.00010269
0.000931164
0.000114276
0.000843753
0.000124607
0.000747663
0.000133558
0.000643709
0.000141028
0.000532783
0.000146928
0.000415841
0.000151178
0.000293751
0.000153698
0.00016714
3.34637e-05
0.000154621
1.52512e-05
0.00127588
8.98227e-08
3.07849e-05
0.00121764
4.61438e-05
0.001171
6.10783e-05
0.00112131
7.53969e-05
0.0010632
8.89131e-05
0.000995741
0.000101474
0.000918632
0.000112924
0.000832325
0.000123135
0.000737472
0.000131982
0.000634872
0.000139365
0.000525401
0.000145197
0.000410002
0.000149397
0.000289524
0.000151889
0.000164575
3.26076e-05
0.000152801
1.50675e-05
0.0012607
9.05947e-08
3.04163e-05
0.00120226
4.55929e-05
0.00115579
6.03508e-05
0.00110652
7.45007e-05
0.00104902
8.78582e-05
0.000982352
0.000100272
0.000906196
0.000111588
0.000820988
0.00012168
0.000727366
0.000130425
0.000626116
0.000137722
0.000518098
0.000143486
0.000404237
0.000147638
0.000285363
0.000150101
0.000162075
3.18234e-05
0.000151003
1.48861e-05
0.00124576
9.12251e-08
3.00521e-05
0.00118713
4.50487e-05
0.00114083
5.96321e-05
0.00109197
7.36154e-05
0.00103507
8.68162e-05
0.000969181
9.90847e-05
0.000893959
0.000110269
0.000809828
0.000120244
0.000717413
0.000128887
0.000617485
0.0001361
0.000510889
0.000141797
0.000398534
0.000145901
0.000281235
0.000148336
0.000159571
3.09934e-05
0.000149228
1.47069e-05
0.00123094
9.1985e-08
2.96923e-05
0.00117211
4.4511e-05
0.00112597
5.89221e-05
0.00107752
7.27408e-05
0.00102122
8.57868e-05
0.000956104
9.79119e-05
0.000881811
0.000108966
0.000798752
0.000118825
0.00070754
0.000127367
0.00060893
0.000134497
0.000503753
0.000140128
0.0003929
0.000144184
0.000277169
0.000146592
0.000157126
3.02217e-05
0.000147474
1.45298e-05
0.00121636
9.26127e-08
2.93369e-05
0.00115734
4.39799e-05
0.00111136
5.82207e-05
0.00106331
7.18769e-05
0.0010076
8.47699e-05
0.000943242
9.67534e-05
0.00086986
0.000107679
0.000787852
0.000117423
0.000697818
0.000125866
0.000600499
0.000132913
0.00049671
0.000138479
0.000387329
0.000142489
0.000273136
0.000144869
0.000154681
2.94166e-05
0.000145741
1.43548e-05
0.00120189
9.33668e-08
2.89857e-05
0.00114267
4.34551e-05
0.00109685
5.75277e-05
0.0010492
7.10233e-05
0.000994074
8.37653e-05
0.000930468
9.5609e-05
0.000857993
0.000106407
0.000777032
0.000116038
0.000688172
0.000124384
0.00059214
0.000131349
0.000489737
0.000136851
0.000381823
0.000140815
0.000269162
0.000143167
0.00015229
2.86576e-05
0.000144029
1.41819e-05
0.00118766
9.39935e-08
2.86388e-05
0.00112825
4.29368e-05
0.00108259
5.68432e-05
0.00103533
7.01802e-05
0.000980776
8.2773e-05
0.000917908
9.44786e-05
0.000846321
0.000105151
0.000766386
0.000114671
0.000678676
0.00012292
0.000583905
0.000129804
0.000482857
0.000135242
0.00037638
0.000139161
0.000265223
0.000141486
0.000149903
2.78768e-05
0.000142339
1.40111e-05
0.00117353
9.47348e-08
2.8296e-05
0.00111393
4.24246e-05
0.00106843
5.61669e-05
0.00102155
6.93473e-05
0.000967564
8.17928e-05
0.000905431
9.33618e-05
0.000834728
0.00010391
0.000755815