/*--------------------------------*- C++ -*----------------------------------*\
  =========                 |
  \\      /  F ield         | OpenFOAM: The Open Source CFD Toolbox
   \\    /   O peration     | Website:  https://openfoam.org
    \\  /    A nd           | Version:  6.0
     \\/     M anipulation  |
\*---------------------------------------------------------------------------*/
FoamFile
{
    version     2.0;
    format      ascii;
    class       volVectorField;
    location    "2";
    object      U;
}
// * * * * * * * * * * * * * * * * * * * * * * * * * * * * * * * * * * * * * //

dimensions      [0 1 -1 0 0 0 0];

internalField   nonuniform List<vector> 
34500
(
(0.999968 -0.000101138 -9.80094e-18)
(0.999734 -0.000434987 9.37684e-17)
(0.99938 -0.000770456 2.35306e-17)
(0.999056 -0.00104356 -1.37001e-17)
(0.998854 -0.0012328 1.34726e-16)
(0.998782 -0.00134264 3.09093e-16)
(0.998789 -0.00142701 1.55018e-17)
(0.998857 -0.00150601 -2.41454e-16)
(0.998939 -0.00161356 3.72132e-16)
(0.999045 -0.00174006 -2.17176e-17)
(0.999141 -0.00193528 -2.82213e-16)
(0.999246 -0.00221822 -4.64255e-16)
(0.99935 -0.00269573 2.1655e-16)
(0.999525 -0.00362356 4.46235e-16)
(0.995784 -0.00717501 -3.95821e-16)
(0.999878 -0.000397141 -3.10458e-17)
(0.999469 -0.00120821 -8.34529e-17)
(0.998897 -0.00179119 1.95621e-16)
(0.998418 -0.00211127 -1.07421e-16)
(0.998149 -0.00225209 -6.95211e-17)
(0.998071 -0.0023024 -6.07417e-16)
(0.998112 -0.00234879 1.00003e-16)
(0.99823 -0.00242329 1.61128e-16)
(0.998373 -0.00254997 -2.78049e-16)
(0.998538 -0.00272601 -4.55621e-16)
(0.998694 -0.00299614 -1.93334e-16)
(0.998856 -0.00340209 -3.9799e-16)
(0.999014 -0.00407349 -3.08216e-16)
(0.999252 -0.00530157 -5.90736e-16)
(0.99612 -0.00910081 7.13672e-16)
(0.999761 -0.000511633 -2.31421e-17)
(0.999328 -0.00150235 1.02305e-16)
(0.998726 -0.00217606 3.65247e-17)
(0.998226 -0.00251234 -4.69385e-17)
(0.997946 -0.00263414 -1.11455e-16)
(0.997865 -0.00266158 6.52199e-17)
(0.997914 -0.00268969 -5.79593e-17)
(0.998043 -0.00275901 -8.95131e-17)
(0.998205 -0.00288537 4.67707e-16)
(0.998386 -0.00307383 -2.58466e-16)
(0.998562 -0.00335857 3.58157e-16)
(0.998742 -0.00379081 5.19794e-16)
(0.998917 -0.0044914 -3.47997e-16)
(0.999157 -0.00572254 3.18e-16)
(0.996815 -0.00929024 -5.2569e-17)
(0.999625 -0.000581827 4.16413e-18)
(0.999182 -0.00168387 -1.69796e-16)
(0.998568 -0.00242073 -1.69537e-16)
(0.998062 -0.00277968 7.614e-17)
(0.99778 -0.00290285 -2.80115e-16)
(0.997701 -0.00292644 1.40039e-16)
(0.99776 -0.00294994 3.41074e-16)
(0.9979 -0.00301995 -2.50049e-16)
(0.998078 -0.00314828 -9.81569e-16)
(0.998274 -0.00334532 3.18324e-16)
(0.998467 -0.00363909 -4.89412e-17)
(0.998663 -0.00408642 2.70513e-16)
(0.998852 -0.0048017 4.36095e-16)
(0.999089 -0.00602686 -2.61893e-16)
(0.997316 -0.00946571 -2.02457e-16)
(0.999478 -0.000621762 5.06806e-17)
(0.99904 -0.00178797 9.69146e-17)
(0.998437 -0.00256599 -1.23908e-16)
(0.997939 -0.00294737 5.1815e-17)
(0.997664 -0.00308147 3.44429e-16)
(0.99759 -0.00311136 4.39876e-16)
(0.997657 -0.0031374 -8.83519e-16)
(0.997806 -0.00321109 3.40864e-16)
(0.997996 -0.00334163 9.36978e-16)
(0.998204 -0.00354441 -3.90906e-16)
(0.998411 -0.00384253 -1.14174e-16)
(0.998618 -0.00429718 -3.02137e-17)
(0.998818 -0.00501707 -2.70566e-16)
(0.999049 -0.00623018 6.00508e-16)
(0.997693 -0.00958147 -3.98833e-16)
(0.999325 -0.000641285 2.94447e-17)
(0.998903 -0.00184021 3.62851e-17)
(0.998322 -0.00264438 1.30619e-16)
(0.997843 -0.00304761 -1.49544e-16)
(0.99758 -0.00319883 -6.65273e-17)
(0.997513 -0.00324185 -4.14319e-16)
(0.997588 -0.00327597 3.26971e-16)
(0.997744 -0.00335586 -8.26612e-17)
(0.997944 -0.00348992 -3.75558e-16)
(0.998162 -0.00369706 7.53155e-16)
(0.998379 -0.00399785 1.43859e-16)
(0.998596 -0.00445621 4.02783e-17)
(0.998804 -0.00517736 4.25126e-16)
(0.999029 -0.00637981 -1.22071e-15)
(0.997996 -0.00967616 4.66537e-16)
(0.999169 -0.000647282 -5.12454e-17)
(0.998769 -0.00185813 5.77025e-17)
(0.998218 -0.00267829 1.00954e-16)
(0.997764 -0.00310241 2.82208e-16)
(0.997518 -0.00327435 7.80601e-17)
(0.997459 -0.00333483 3.52063e-16)
(0.997541 -0.00338051 -1.51003e-16)
(0.997704 -0.00346849 -6.4601e-16)
(0.997913 -0.00360695 -5.83716e-16)
(0.998138 -0.0038181 -8.00017e-16)
(0.998365 -0.00412079 -3.39624e-16)
(0.99859 -0.00458134 1.30844e-17)
(0.998804 -0.00530252 -3.13607e-16)
(0.999023 -0.0064967 1.04112e-15)
(0.99824 -0.00975737 -1.37792e-16)
(0.999014 -0.000644505 -3.34137e-17)
(0.998639 -0.00185386 -2.33872e-17)
(0.998123 -0.00268316 -4.68135e-17)
(0.997697 -0.00312718 -1.51476e-16)
(0.997468 -0.00332184 1.1163e-16)
(0.99742 -0.00340255 4.46565e-18)
(0.997509 -0.00346239 1.06938e-16)
(0.997678 -0.00356001 6.95737e-16)
(0.997894 -0.00370402 5.58921e-17)
(0.998127 -0.0039192 -3.14773e-16)
(0.998362 -0.00422387 4.35239e-16)
(0.998593 -0.00468616 -3.97371e-17)
(0.998813 -0.00540765 -7.81807e-18)
(0.999026 -0.00659656 1.8777e-16)
(0.99845 -0.00983801 -4.00182e-16)
(0.998861 -0.000636223 -2.90873e-18)
(0.998512 -0.00183557 -1.23901e-16)
(0.998032 -0.00266954 -2.81344e-17)
(0.997637 -0.00313233 1.95855e-16)
(0.997428 -0.00335064 -1.4791e-16)
(0.99739 -0.00345302 2.35673e-16)
(0.997487 -0.00352861 1.53682e-16)
(0.997662 -0.00363681 1.06763e-17)
(0.997885 -0.00378713 1.39968e-16)
(0.998125 -0.00400652 3.46202e-17)
(0.998366 -0.00431339 -4.12127e-16)
(0.998604 -0.00477728 2.55775e-16)
(0.998829 -0.00549943 -1.61357e-16)
(0.999038 -0.00668521 -8.27852e-16)
(0.998628 -0.00991646 5.03161e-16)
(0.998709 -0.00062467 9.5088e-17)
(0.998387 -0.00180901 7.5855e-17)
(0.997945 -0.00264468 -3.36027e-17)
(0.99758 -0.00312521 -1.68603e-16)
(0.997392 -0.00336733 -1.6976e-16)
(0.997366 -0.00349221 -6.4517e-16)
(0.997471 -0.00358463 4.54813e-16)
(0.997652 -0.00370425 9.93195e-18)
(0.997882 -0.00386167 7.80051e-16)
(0.998128 -0.00408555 7.87483e-16)
(0.998376 -0.00439502 -2.26915e-16)
(0.998619 -0.00486071 -6.70707e-17)
(0.998849 -0.00558417 3.9249e-16)
(0.999054 -0.00676896 6.91818e-16)
(0.998789 -0.00999903 -5.41861e-16)
(0.998561 -0.000611393 -2.77146e-17)
(0.998265 -0.00177792 5.18027e-17)
(0.997859 -0.0026135 2.22092e-17)
(0.997526 -0.00311072 -4.25227e-17)
(0.997359 -0.00337645 -1.44632e-16)
(0.997345 -0.00352399 -2.09588e-17)
(0.997458 -0.00363379 -4.81629e-16)
(0.997646 -0.00376529 -6.74384e-16)
(0.997882 -0.0039303 -8.41709e-16)
(0.998135 -0.00415891 -4.96906e-16)
(0.998389 -0.00447127 2.83191e-16)
(0.998637 -0.00493891 -3.32545e-16)
(0.998872 -0.00566412 -2.41656e-16)
(0.999075 -0.00684931 -9.04829e-16)
(0.99893 -0.0100831 3.06454e-16)
(0.998415 -0.000597393 -7.77882e-17)
(0.998145 -0.00174497 -1.15883e-16)
(0.997775 -0.00257934 -5.57728e-18)
(0.997473 -0.00309235 9.9406e-17)
(0.997326 -0.00338108 1.27764e-16)
(0.997326 -0.00355123 -1.65871e-16)
(0.997447 -0.0036787 -1.76711e-16)
(0.997642 -0.0038225 2.18786e-16)
(0.997885 -0.00399553 1.06406e-15)
(0.998144 -0.00422916 -1.00375e-16)
(0.998404 -0.00454471 -1.58438e-16)
(0.998658 -0.00501455 2.79271e-16)
(0.998897 -0.00574195 4.19375e-18)
(0.999098 -0.00692884 2.32649e-16)
(0.999062 -0.010172 5.02198e-17)
(0.998273 -0.00058339 1.12146e-16)
(0.998028 -0.00171177 7.36397e-17)
(0.997692 -0.00254441 -1.9075e-16)
(0.997419 -0.00307233 -7.68455e-17)
(0.997294 -0.00338344 5.53347e-18)
(0.997306 -0.00357576 3.13026e-16)
(0.997437 -0.00372097 4.25453e-16)
(0.997639 -0.00387714 3.13246e-16)
(0.997888 -0.00405849 -5.00629e-16)
(0.998154 -0.00429726 6.76634e-16)
(0.998421 -0.00461624 -2.15428e-16)
(0.99868 -0.00508836 1.69894e-16)
(0.998924 -0.00581823 7.91899e-16)
(0.999124 -0.00700769 -2.50847e-17)
(0.999182 -0.0102625 1.53819e-18)
(0.998134 -0.000569783 -6.51745e-18)
(0.997912 -0.00167956 -6.37252e-17)
(0.997608 -0.00251022 2.61411e-16)
(0.997365 -0.00305228 1.1133e-16)
(0.99726 -0.00338493 -4.20885e-17)
(0.997286 -0.00359899 3.56067e-16)
(0.997426 -0.00376184 -7.29458e-16)
(0.997636 -0.00393057 -4.60213e-16)
(0.997893 -0.00412045 -3.92359e-16)
(0.998165 -0.00436457 -5.70216e-16)
(0.998438 -0.00468717 3.3745e-16)
(0.998703 -0.00516176 -1.44498e-16)
(0.998953 -0.00589439 -1.06099e-15)
(0.999151 -0.00708731 4.78562e-16)
(0.999297 -0.0103574 1.0606e-16)
(0.997998 -0.000556909 -3.69551e-17)
(0.997797 -0.00164893 2.44074e-17)
(0.997525 -0.00247769 -3.18127e-17)
(0.99731 -0.00303321 -1.93774e-16)
(0.997225 -0.00338666 1.45506e-17)
(0.997266 -0.00362185 1.87961e-16)
(0.997415 -0.00380215 3.28788e-16)
(0.997633 -0.00398338 4.80719e-16)
(0.997897 -0.00418194 2.25094e-16)
(0.998177 -0.0044315 -2.05363e-16)
(0.998457 -0.00475785 3.18404e-17)
(0.998727 -0.00523497 2.26391e-16)
(0.998983 -0.00597052 -1.26844e-16)
(0.999181 -0.00716751 -5.63286e-16)
(0.999404 -0.0104543 1.86884e-17)
(0.997864 -0.000544876 -2.73513e-17)
(0.997685 -0.00162043 1.16866e-17)
(0.997442 -0.00244748 6.38372e-17)
(0.997253 -0.00301586 7.77055e-17)
(0.997189 -0.00338925 -1.10148e-16)
(0.997243 -0.003645 -7.18636e-16)
(0.997403 -0.0038425 -2.11976e-16)
(0.997629 -0.00403626 -3.53819e-16)
(0.997901 -0.00424356 -6.12726e-16)
(0.998188 -0.00449871 6.66485e-16)
(0.998475 -0.00482888 3.84978e-16)
(0.998752 -0.00530867 -4.15931e-16)
(0.999013 -0.0060473 1.0672e-15)
(0.999211 -0.00724893 2.14614e-16)
(0.999509 -0.0105551 7.2277e-17)
(0.997733 -0.000533852 1.70802e-17)
(0.997573 -0.00159421 -8.44769e-17)
(0.997358 -0.0024199 -3.51739e-16)
(0.997196 -0.00300061 8.23542e-17)
(0.997151 -0.00339326 3.4633e-16)
(0.99722 -0.00366891 3.05267e-17)
(0.99739 -0.00388331 6.53114e-17)
(0.997625 -0.00408944 -1.34526e-17)
(0.997905 -0.00430555 7.47832e-16)
(0.9982 -0.00456627 -1.94413e-16)
(0.998494 -0.00490036 -5.23284e-16)
(0.998778 -0.00538278 -1.11056e-16)
(0.999045 -0.00612458 -4.60617e-17)
(0.999243 -0.00733125 2.32123e-16)
(0.999608 -0.0106573 -3.89761e-16)
(0.997605 -0.0005238 2.27136e-17)
(0.997463 -0.00157049 6.17374e-17)
(0.997274 -0.0023952 2.31002e-16)
(0.997137 -0.0029878 -2.0585e-16)
(0.997111 -0.00339892 -2.12526e-16)
(0.997194 -0.00369389 1.13783e-16)
(0.997375 -0.00392487 2.17967e-16)
(0.99762 -0.00414332 4.30076e-16)
(0.997909 -0.00436825 -5.72261e-16)
(0.998212 -0.00463464 1.21578e-17)
(0.998513 -0.00497269 -1.69114e-16)
(0.998803 -0.00545784 1.65127e-17)
(0.999077 -0.00620291 -2.15527e-16)
(0.999275 -0.00741506 6.66911e-17)
(0.999707 -0.0107629 6.47424e-16)
(0.997478 -0.000514821 -2.91016e-18)
(0.997354 -0.00154922 1.06325e-16)
(0.99719 -0.00237345 -1.05067e-16)
(0.997076 -0.00297756 2.90003e-16)
(0.99707 -0.00340655 1.01598e-16)
(0.997167 -0.00372024 1.62422e-16)
(0.997359 -0.00396747 3.05067e-16)
(0.997614 -0.00419808 -6.79016e-16)
(0.997912 -0.00443182 1.54507e-16)
(0.998223 -0.00470386 -4.44853e-17)
(0.998533 -0.00504589 4.7636e-16)
(0.99883 -0.00553375 -2.85563e-16)
(0.99911 -0.00628216 -1.37663e-16)
(0.999309 -0.00750009 -4.73651e-17)
(0.999801 -0.01087 -1.41805e-16)
(0.997354 -0.000506804 -3.33066e-17)
(0.997246 -0.00153048 -2.5322e-17)
(0.997105 -0.0023547 3.34523e-16)
(0.997014 -0.00297002 -2.20846e-16)
(0.997026 -0.0034162 1.56013e-16)
(0.997138 -0.00374808 -2.88176e-16)
(0.997342 -0.00401124 -6.13211e-17)
(0.997607 -0.00425392 4.96553e-16)
(0.997914 -0.00449642 2.37534e-16)
(0.998234 -0.00477418 3.50437e-16)
(0.998552 -0.00512018 -5.97133e-16)
(0.998857 -0.00561081 6.63882e-16)
(0.999143 -0.00636262 -1.74361e-16)
(0.999344 -0.00758658 -1.64121e-16)
(0.999896 -0.0109803 -1.16188e-16)
(0.997232 -0.000499837 4.30791e-17)
(0.997138 -0.00151413 1.295e-17)
(0.99702 -0.00233888 -3.97286e-16)
(0.996951 -0.00296517 -1.63918e-17)
(0.996981 -0.00342805 -1.26427e-16)
(0.997108 -0.00377758 2.34896e-16)
(0.997323 -0.00405634 -1.01107e-16)
(0.997599 -0.0043109 -2.05318e-16)
(0.997916 -0.00456213 3.21442e-16)
(0.998245 -0.00484555 -7.26715e-17)
(0.998572 -0.00519553 7.60096e-16)
(0.998884 -0.00568886 -7.76836e-16)
(0.999177 -0.00644407 2.37049e-16)
(0.99938 -0.0076743 -7.88958e-17)
(0.999987 -0.0110914 -1.67161e-16)
(0.997111 -0.000493767 -5.77684e-18)
(0.997032 -0.0015002 -1.8139e-16)
(0.996934 -0.002326 1.54038e-16)
(0.996886 -0.00296304 5.8007e-17)
(0.996934 -0.00344207 -7.78411e-17)
(0.997075 -0.00380878 -7.80063e-17)
(0.997303 -0.00410284 1.74507e-16)
(0.99759 -0.00436919 3.55575e-16)
(0.997917 -0.00462909 -3.85086e-16)
(0.998256 -0.0049182 -8.0259e-17)
(0.998591 -0.00527214 -4.20742e-16)
(0.998911 -0.00576822 7.78308e-16)
(0.999212 -0.00652687 -8.53402e-17)
(0.999416 -0.00776357 -4.3914e-17)
(1.00008 -0.0112056 1.58223e-16)
(0.996991 -0.000488687 6.31451e-18)
(0.996926 -0.00148851 1.15923e-16)
(0.996847 -0.00231593 -5.57876e-18)
(0.99682 -0.00296361 1.29998e-16)
(0.996885 -0.0034584 -1.64956e-16)
(0.997042 -0.00384185 5.76919e-17)
(0.997282 -0.00415091 -5.66544e-17)
(0.99758 -0.00442888 -2.97132e-16)
(0.997917 -0.00469739 8.0312e-17)
(0.998266 -0.00499215 -3.11622e-16)
(0.998611 -0.00535002 9.53884e-17)
(0.998939 -0.0058488 -4.30142e-16)
(0.999248 -0.00661088 -5.4601e-17)
(0.999453 -0.00785424 8.67491e-17)
(1.00017 -0.0113207 -1.4758e-16)
(0.996873 -0.000484421 -3.14193e-17)
(0.99682 -0.00147908 -2.94614e-17)
(0.99676 -0.00230866 -8.85812e-18)
(0.996752 -0.00296687 -1.84834e-16)
(0.996835 -0.00347697 -8.00061e-18)
(0.997006 -0.00387677 1.25347e-16)
(0.997259 -0.00420056 2.28844e-17)
(0.997569 -0.00449004 3.04323e-16)
(0.997917 -0.00476709 -1.19764e-16)
(0.998276 -0.00506751 4.37453e-16)
(0.99863 -0.00542927 -5.52141e-17)
(0.998967 -0.00593078 -3.21483e-18)
(0.999284 -0.00669629 -1.57571e-16)
(0.999491 -0.0079464 -3.70518e-16)
(1.00026 -0.0114387 1.73302e-16)
(0.996756 -0.00048108 2.65118e-17)
(0.996714 -0.00147172 9.14379e-17)
(0.996673 -0.00230404 3.34965e-17)
(0.996683 -0.00297274 -3.48164e-17)
(0.996783 -0.00349787 3.52237e-16)
(0.996969 -0.00391364 -7.53814e-17)
(0.997235 -0.0042519 -3.23077e-16)
(0.997557 -0.00455272 -1.70571e-16)
(0.997916 -0.00483825 1.84975e-16)
(0.998286 -0.00514426 -4.75115e-16)
(0.99865 -0.00550987 -2.39639e-16)
(0.998996 -0.00601402 -7.50894e-17)
(0.99932 -0.00678292 3.01597e-16)
(0.99953 -0.00803987 -1.58406e-16)
(1.00035 -0.0115574 -1.37219e-16)
(0.99664 -0.00047847 -5.5284e-17)
(0.996609 -0.00146645 -5.7202e-17)
(0.996584 -0.00230204 -1.09341e-16)
(0.996613 -0.0029812 2.51708e-17)
(0.996729 -0.00352102 5.56119e-17)
(0.99693 -0.00395243 -9.37225e-17)
(0.997209 -0.00430494 -3.4063e-17)
(0.997544 -0.00461702 -3.34942e-17)
(0.997914 -0.00491094 3.57668e-17)
(0.998295 -0.00522255 1.12126e-16)
(0.99867 -0.00559197 5.16481e-16)
(0.999025 -0.00609877 1.95984e-16)
(0.999358 -0.00687106 -1.77129e-16)
(0.99957 -0.00813493 3.33051e-16)
(1.00045 -0.0116789 6.24007e-17)
(0.996525 -0.00047672 3.79611e-17)
(0.996504 -0.00146309 -1.24206e-16)
(0.996495 -0.00230253 1.3618e-16)
(0.996542 -0.0029922 -1.47475e-16)
(0.996674 -0.00354652 -1.1258e-16)
(0.99689 -0.00399329 -1.04562e-16)
(0.997182 -0.00435982 -4.32219e-17)
(0.997529 -0.004683 -1.22921e-16)
(0.997912 -0.00498527 -2.22817e-16)
(0.998305 -0.0053024 2.33332e-16)
(0.99869 -0.00567559 -2.97955e-16)
(0.999055 -0.00618496 -2.59094e-16)
(0.999396 -0.0069606 1.8026e-16)
(0.999611 -0.00823141 -1.86717e-16)
(1.00054 -0.011801 -8.97781e-17)
(0.99641 -0.000475626 1.16134e-17)
(0.996399 -0.00146167 -1.77869e-17)
(0.996405 -0.00230549 -4.26847e-17)
(0.996469 -0.00300572 3.91869e-17)
(0.996617 -0.00357427 -1.27889e-16)
(0.996848 -0.00403616 9.77156e-17)
(0.997154 -0.00441651 3.31089e-16)
(0.997514 -0.00475072 4.6253e-16)
(0.997909 -0.00506126 -1.21096e-16)
(0.998314 -0.0053839 -2.6082e-16)
(0.99871 -0.0057608 -1.33839e-16)
(0.999085 -0.00627273 2.06541e-16)
(0.999435 -0.0070517 -2.53328e-16)
(0.999653 -0.00832939 8.30226e-16)
(1.00064 -0.0119253 3.82572e-16)
(0.996295 -0.000475334 -4.68829e-17)
(0.996294 -0.00146201 7.6048e-17)
(0.996315 -0.00231079 1.13463e-16)
(0.996395 -0.00302168 1.21197e-16)
(0.996559 -0.00360436 -1.49837e-16)
(0.996805 -0.00408113 -2.95063e-17)
(0.997125 -0.00447511 7.62496e-17)
(0.997498 -0.00482022 1.98278e-17)
(0.997906 -0.00513896 3.64407e-16)
(0.998323 -0.00546705 2.2982e-16)
(0.99873 -0.00584758 4.08413e-16)
(0.999115 -0.00636198 5.45746e-17)
(0.999474 -0.00714416 9.23773e-17)
(0.999695 -0.00842877 -3.75983e-16)
(1.00073 -0.0120504 -3.66203e-16)
(0.996181 -0.000475633 1.99783e-17)
(0.996189 -0.00146414 5.16227e-17)
(0.996224 -0.00231841 -2.19849e-16)
(0.996319 -0.00304006 2.02342e-16)
(0.996499 -0.00363669 1.63462e-16)
(0.99676 -0.00412815 3.14321e-16)
(0.997094 -0.00453563 -6.03682e-17)
(0.997481 -0.00489157 -3.3692e-17)
(0.997902 -0.00521844 -1.17717e-16)
(0.998331 -0.00555194 6.85744e-17)
(0.99875 -0.00593608 -7.1851e-16)
(0.999146 -0.00645292 5.60243e-16)
(0.999515 -0.00723829 -5.26688e-17)
(0.999739 -0.00852975 -5.35555e-16)
(1.00083 -0.0121768 2.82251e-16)
(0.996068 -0.000476687 3.55921e-17)
(0.996084 -0.00146791 7.53635e-17)
(0.996131 -0.00232825 2.40194e-16)
(0.996242 -0.00306082 -3.40498e-16)
(0.996438 -0.00367137 2.70462e-17)
(0.996714 -0.00417736 -2.41947e-16)
(0.997062 -0.00459817 2.39281e-17)
(0.997464 -0.00496484 -4.63887e-16)
(0.997898 -0.0052998 3.12631e-16)
(0.99834 -0.00563866 -3.76814e-16)
(0.998771 -0.0060263 5.43285e-16)
(0.999178 -0.00654549 -6.22953e-16)
(0.999556 -0.00733397 -3.09101e-16)
(0.999784 -0.00863221 2.19644e-16)
(1.00093 -0.0123069 -2.25924e-16)
(0.995954 -0.000478274 -4.21167e-17)
(0.995978 -0.00147336 -3.58246e-17)
(0.996038 -0.00234029 -4.21758e-17)
(0.996164 -0.00308393 1.30565e-17)
(0.996375 -0.00370829 -1.99222e-17)
(0.996666 -0.00422869 -2.90354e-16)
(0.997029 -0.00466273 -2.70195e-16)
(0.997445 -0.00504008 1.83225e-16)
(0.997893 -0.00538304 8.78918e-17)
(0.998348 -0.00572723 5.7234e-16)
(0.998792 -0.00611833 -4.27255e-16)
(0.99921 -0.00663985 1.1041e-16)
(0.999598 -0.00743136 4.05996e-17)
(0.999829 -0.00873622 -8.85527e-17)
(1.00104 -0.012438 3.41875e-16)
(0.99584 -0.000480577 2.48096e-17)
(0.995872 -0.00148034 -4.24202e-17)
(0.995944 -0.00235442 1.75839e-17)
(0.996085 -0.00310935 1.74643e-16)
(0.996311 -0.00374754 8.53722e-17)
(0.996617 -0.00428224 4.41696e-16)
(0.996995 -0.00472939 8.84967e-17)
(0.997425 -0.00511733 -7.79535e-17)
(0.997887 -0.00546825 -2.71133e-16)
(0.998357 -0.00581769 -3.71438e-16)
(0.998813 -0.00621215 3.24426e-16)
(0.999243 -0.00673586 2.62058e-17)
(0.999641 -0.00753028 1.61154e-16)
(0.999876 -0.00884186 1.85426e-16)
(1.00114 -0.0125714 -7.86398e-17)
(0.995726 -0.000483367 -3.1039e-17)
(0.995765 -0.0014889 -1.11316e-16)
(0.995849 -0.00237067 -7.01117e-17)
(0.996004 -0.00313706 1.23914e-16)
(0.996245 -0.00378903 8.02165e-17)
(0.996567 -0.00433795 5.23671e-17)
(0.99696 -0.00479816 2.06649e-17)
(0.997405 -0.00519664 3.52883e-16)
(0.997881 -0.00555546 1.18115e-16)
(0.998365 -0.00591012 -2.48735e-16)
(0.998835 -0.00630789 -5.00966e-17)
(0.999276 -0.00683376 -2.57822e-16)
(0.999684 -0.00763102 -2.38286e-16)
(0.999924 -0.00894914 5.94561e-17)
(1.00126 -0.0127048 -1.25786e-16)
(0.995612 -0.000486843 2.51616e-17)
(0.995657 -0.0014989 1.35565e-16)
(0.995754 -0.00238891 -8.01384e-17)
(0.995922 -0.00316703 -5.71088e-17)
(0.996178 -0.00383287 8.08393e-17)
(0.996515 -0.00439596 -5.15014e-17)
(0.996923 -0.00486913 -8.36808e-17)
(0.997384 -0.00527809 -2.18095e-16)
(0.997875 -0.00564478 4.76332e-17)
(0.998373 -0.00600459 5.43728e-16)
(0.998856 -0.00640559 1.82446e-16)
(0.99931 -0.00693349 4.85462e-16)
(0.999729 -0.00773349 2.0556e-16)
(0.999973 -0.00905811 2.88459e-16)
(1.00137 -0.0128428 2.69588e-17)
(0.995497 -0.000490767 3.03246e-17)
(0.995549 -0.00151041 3.77817e-17)
(0.995656 -0.00240918 9.80638e-17)
(0.995839 -0.00319925 -1.74527e-16)
(0.99611 -0.00387896 -4.4604e-16)
(0.996462 -0.00445621 -7.54046e-17)
(0.996885 -0.00494231 -3.70788e-18)
(0.997362 -0.00536174 4.77887e-17)
(0.997868 -0.00573623 2.52436e-17)
(0.998381 -0.00610116 -3.41688e-16)
(0.998878 -0.00650531 2.03927e-16)
(0.999345 -0.00703518 -3.2937e-16)
(0.999775 -0.00783784 -1.07546e-16)
(1.00002 -0.00916877 -3.56458e-16)
(1.0015 -0.0129808 -2.05444e-17)
(0.995382 -0.000495352 -4.22531e-17)
(0.995441 -0.00152328 -7.23556e-17)
(0.995558 -0.00243137 -6.43056e-17)
(0.995754 -0.00323369 -3.3182e-17)
(0.99604 -0.0039274 6.63485e-17)
(0.996407 -0.00451878 -1.75848e-16)
(0.996847 -0.00501776 7.44932e-17)
(0.997339 -0.00544761 1.95592e-16)
(0.997861 -0.00582987 -2.58817e-16)
(0.998389 -0.00619984 1.12353e-16)
(0.998901 -0.00660703 1.24757e-16)
(0.99938 -0.00713875 9.55569e-17)
(0.999822 -0.0079439 6.75355e-16)
(1.00007 -0.00928117 3.54209e-17)
(1.00163 -0.0131227 -1.70868e-16)
(0.995266 -0.000500353 1.02189e-17)
(0.995331 -0.00153759 -4.11472e-18)
(0.995459 -0.00245552 -7.13116e-17)
(0.995668 -0.00327033 2.82117e-16)
(0.995968 -0.0039781 8.34458e-18)
(0.996351 -0.00458365 1.85056e-16)
(0.996807 -0.0050955 -1.02531e-16)
(0.997315 -0.00553576 -5.25133e-16)
(0.997854 -0.00592575 2.41963e-16)
(0.998397 -0.00630073 1.55993e-17)
(0.998924 -0.0067109 -5.82232e-16)
(0.999417 -0.0072444 3.91765e-18)
(0.999869 -0.00805196 -4.33409e-16)
(1.00013 -0.00939538 2.36066e-16)
(1.00176 -0.013266 6.06215e-17)
(0.99515 -0.000506002 1.43465e-17)
(0.995221 -0.00155322 -1.04937e-17)
(0.995359 -0.00248154 1.70611e-16)
(0.995581 -0.00330918 -1.11775e-16)
(0.995895 -0.00403117 -1.73329e-16)
(0.996294 -0.00465092 -4.20868e-16)
(0.996766 -0.00517564 -2.03135e-16)
(0.997291 -0.00562629 2.22314e-16)
(0.997846 -0.00602398 5.4115e-17)
(0.998406 -0.0064039 -2.90955e-16)
(0.998947 -0.00681694 1.87911e-16)
(0.999454 -0.00735208 -5.06224e-17)
(0.999918 -0.00816191 1.60811e-16)
(1.00018 -0.00951148 -4.2464e-17)
(1.00189 -0.0134116 -1.15388e-16)
(0.995033 -0.00051204 -3.5421e-17)
(0.995109 -0.00157023 3.01989e-17)
(0.995257 -0.00250948 -9.94166e-17)
(0.995492 -0.00335022 -6.04553e-17)
(0.995821 -0.00408655 2.69374e-16)
(0.996236 -0.00472057 6.51364e-16)
(0.996724 -0.00525817 4.27028e-16)
(0.997266 -0.00571923 1.6895e-16)
(0.997838 -0.00612458 3.11331e-17)
(0.998414 -0.00650941 3.54756e-17)
(0.998971 -0.00692524 1.28204e-16)
(0.999491 -0.00746194 -1.91924e-16)
(0.999968 -0.00827394 -2.61057e-17)
(1.00023 -0.00962949 1.42228e-16)
(1.00201 -0.0135594 3.02934e-16)
(0.994915 -0.000518714 1.07454e-17)
(0.994997 -0.00158852 -3.80911e-17)
(0.995154 -0.00253924 8.78302e-19)
(0.995402 -0.00339344 8.78555e-17)
(0.995745 -0.00414432 5.87926e-17)
(0.996176 -0.00479266 -3.77513e-16)
(0.996681 -0.00534317 -1.85007e-16)
(0.99724 -0.00581461 -3.25252e-16)
(0.997829 -0.00622761 -7.03259e-17)
(0.998422 -0.00661726 7.60149e-16)
(0.998995 -0.00703577 9.2087e-18)
(0.99953 -0.00757387 -1.40754e-16)
(1.00002 -0.00838786 -4.34686e-16)
(1.00029 -0.00974924 -2.02467e-17)
(1.00212 -0.0137078 -7.91175e-17)
(0.994796 -0.000525762 2.4237e-17)
(0.994883 -0.00160815 -3.24091e-18)
(0.99505 -0.00257087 3.11561e-17)
(0.99531 -0.00343884 -7.8956e-17)
(0.995668 -0.0042044 -2.30989e-17)
(0.996115 -0.00486718 1.54622e-16)
(0.996637 -0.00543065 -2.18104e-16)
(0.997213 -0.00591251 2.72894e-16)
(0.99782 -0.00633312 5.00666e-18)
(0.99843 -0.00672756 -4.05727e-16)
(0.99902 -0.00714868 -8.7099e-17)
(0.99957 -0.00768811 5.40362e-16)
(1.00007 -0.00850399 1.90446e-16)
(1.00035 -0.009871 -5.08735e-16)
(1.00224 -0.0138585 -4.00079e-17)
(0.994676 -0.000533441 -1.7654e-17)
(0.994768 -0.00162903 5.61396e-17)
(0.994944 -0.0026043 1.03605e-17)
(0.995217 -0.00348641 -1.69182e-16)
(0.995589 -0.00426692 1.95413e-17)
(0.996052 -0.00494425 -6.37673e-18)
(0.996592 -0.00552072 5.06854e-16)
(0.997186 -0.00601301 2.79506e-16)
(0.997811 -0.00644123 -6.93075e-16)
(0.998439 -0.00684039 -3.0528e-16)
(0.999045 -0.007264 1.81876e-16)
(0.99961 -0.00780458 2.69164e-18)
(1.00013 -0.0086222 4.57107e-16)
(1.00041 -0.00999471 4.68042e-16)
(1.00235 -0.0140092 1.34493e-16)
(0.994555 -0.000541479 -7.99524e-18)
(0.994652 -0.00165124 7.22612e-18)
(0.994837 -0.00263959 1.13194e-16)
(0.995122 -0.00353619 2.91401e-16)
(0.995509 -0.00433182 -3.47534e-17)
(0.995989 -0.00502383 -3.30426e-16)
(0.996545 -0.0056134 -3.79869e-16)
(0.997158 -0.00611616 -7.14557e-16)
(0.997801 -0.00655197 4.55809e-16)
(0.998448 -0.00695581 3.63174e-16)
(0.999071 -0.00738182 -1.63813e-16)
(0.999652 -0.00792345 -2.82969e-16)
(1.00018 -0.00874269 -4.49167e-16)
(1.00047 -0.0101206 -3.71584e-17)
(1.00246 -0.014163 -4.0286e-16)
(0.994433 -0.000550145 1.19226e-17)
(0.994535 -0.00167467 -3.54161e-17)
(0.994729 -0.00267665 -1.33143e-16)
(0.995026 -0.00358815 -2.30793e-16)
(0.995427 -0.00439917 -4.84665e-17)
(0.995923 -0.00510601 3.14834e-16)
(0.996498 -0.00570873 2.3555e-16)
(0.99713 -0.00622199 7.25653e-16)
(0.997792 -0.00666538 7.42756e-18)
(0.998457 -0.00707383 -1.55035e-16)
(0.999098 -0.0075021 1.24753e-17)
(0.999695 -0.00804462 -2.82631e-16)
(1.00024 -0.00886528 -3.83758e-16)
(1.00053 -0.0102483 -3.47513e-16)
(1.00257 -0.0143166 4.21415e-16)
(0.99431 -0.000559163 -4.07107e-17)
(0.994416 -0.0016994 9.00813e-17)
(0.994619 -0.00271556 -1.03725e-17)
(0.994928 -0.0036423 2.78354e-16)
(0.995344 -0.00446894 -1.08693e-16)
(0.995857 -0.00519078 -7.64328e-17)
(0.99645 -0.00580676 7.96058e-17)
(0.9971 -0.00633059 -4.58243e-16)
(0.997782 -0.00678155 -3.27897e-16)
(0.998466 -0.00719456 -1.1478e-17)
(0.999125 -0.00762501 1.00619e-16)
(0.999738 -0.00816832 1.55798e-16)
(1.0003 -0.00899027 4.01409e-16)
(1.00059 -0.0103783 4.12149e-16)
(1.00269 -0.0144738 -5.92483e-17)
(0.994185 -0.000568814 3.3728e-18)
(0.994296 -0.00172535 -2.97702e-17)
(0.994507 -0.00275625 -1.83431e-16)
(0.994828 -0.00369866 -2.87022e-16)
(0.995259 -0.00454123 1.0327e-16)
(0.995789 -0.00527825 1.462e-16)
(0.9964 -0.00590759 -3.59939e-16)
(0.997071 -0.00644203 -8.84124e-17)
(0.997772 -0.00690056 3.15319e-16)
(0.998475 -0.00731808 -1.25538e-16)
(0.999153 -0.00775057 1.35891e-16)
(0.999783 -0.00829449 1.39783e-16)
(1.00035 -0.00911754 6.19561e-17)
(1.00066 -0.0105104 -5.10833e-16)
(1.0028 -0.0146309 -1.19853e-16)
(0.994059 -0.000578811 2.83481e-17)
(0.994174 -0.00175261 -4.90375e-17)
(0.994394 -0.00279879 1.35424e-16)
(0.994727 -0.00375727 2.43114e-16)
(0.995173 -0.00461601 7.79093e-17)
(0.99572 -0.00536841 -2.82814e-16)
(0.99635 -0.00601125 1.81167e-16)
(0.99704 -0.00655637 1.46099e-16)
(0.997761 -0.00702247 2.75759e-16)
(0.998485 -0.00744445 1.78784e-16)
(0.999181 -0.0078789 -3.30909e-16)
(0.999829 -0.0084233 3.73276e-17)
(1.00042 -0.0092473 -5.41507e-17)
(1.00073 -0.0106449 -1.468e-17)
(1.00292 -0.0147919 4.71141e-17)
(0.993931 -0.000589446 3.45527e-17)
(0.994051 -0.00178108 5.5004e-18)
(0.994279 -0.0028431 1.9031e-16)
(0.994624 -0.00381809 -7.07156e-17)
(0.995085 -0.00469335 1.62629e-16)
(0.995649 -0.00546132 1.40606e-16)
(0.996299 -0.00611779 5.2426e-17)
(0.997009 -0.00667365 1.02376e-16)
(0.997751 -0.00714734 -1.28281e-16)
(0.998495 -0.0075737 -1.22237e-17)
(0.999211 -0.00800994 -9.52697e-17)
(0.999876 -0.00855463 -3.68896e-17)
(1.00048 -0.00937938 1.31036e-16)
(1.0008 -0.0107813 -1.63224e-18)
(1.00304 -0.0149529 -1.38402e-16)
(0.993802 -0.000600429 5.56371e-18)
(0.993926 -0.00181085 -9.6147e-17)
(0.994163 -0.00288928 -2.07867e-16)
(0.99452 -0.00388117 -1.30864e-16)
(0.994996 -0.00477323 -1.05813e-16)
(0.995577 -0.00555702 3.45274e-18)
(0.996246 -0.00622726 -5.70457e-17)
(0.996977 -0.00679395 -1.18917e-16)
(0.99774 -0.00727523 -5.86568e-17)
(0.998505 -0.00770593 -1.7531e-16)
(0.999241 -0.00814389 2.94425e-16)
(0.999924 -0.00868873 4.59299e-17)
(1.00054 -0.00951407 -2.80411e-16)
(1.00087 -0.0109203 2.70959e-16)
(1.00316 -0.0151182 4.82364e-17)
(0.993671 -0.000612062 -5.44463e-17)
(0.9938 -0.00184185 7.47953e-17)
(0.994044 -0.00293725 -7.8709e-18)
(0.994413 -0.00394653 -2.143e-17)
(0.994904 -0.00485576 -1.55e-16)
(0.995504 -0.00565559 1.98525e-16)
(0.996192 -0.00633976 -5.6934e-18)
(0.996945 -0.00691736 1.90454e-16)
(0.99773 -0.00740625 1.54591e-17)
(0.998516 -0.00784123 -4.83788e-18)
(0.999272 -0.00828076 -4.4098e-16)
(0.999974 -0.00882554 -1.08054e-16)
(1.00061 -0.00965127 3.18661e-16)
(1.00094 -0.0110615 -2.04475e-16)
(1.00328 -0.0152835 1.17266e-16)
(0.993538 -0.000624047 1.79905e-17)
(0.993671 -0.00187417 6.01312e-17)
(0.993924 -0.00298712 -6.25627e-17)
(0.994305 -0.00401421 -6.22552e-17)
(0.994812 -0.00494092 1.06643e-16)
(0.995429 -0.00575706 -1.79178e-16)
(0.996138 -0.00645534 -2.04656e-16)
(0.996911 -0.00704395 -9.63083e-18)
(0.997719 -0.00754046 -4.04819e-17)
(0.998526 -0.00797968 2.8347e-16)
(0.999304 -0.00842067 2.60919e-16)
(1.00003 -0.00896526 1.27884e-16)
(1.00068 -0.00979118 7.65398e-17)
(1.00102 -0.0112053 4.58278e-16)
(1.00341 -0.0154532 -2.31031e-16)
(0.993404 -0.000636687 -3.15184e-17)
(0.993541 -0.00190772 -8.00853e-17)
(0.993802 -0.0030388 3.05332e-16)
(0.994195 -0.00408421 2.50747e-16)
(0.994717 -0.00502878 -6.13371e-17)
(0.995353 -0.0058615 -9.34002e-17)
(0.996082 -0.00657404 9.15552e-18)
(0.996878 -0.00717375 -2.59617e-16)
(0.997708 -0.0076779 -3.08504e-16)
(0.998538 -0.0081213 8.9884e-17)
(0.999337 -0.00856357 2.34572e-16)
(1.00008 -0.00910776 -1.44529e-16)
(1.00074 -0.00993363 -1.9217e-16)
(1.0011 -0.0113513 -4.49879e-16)
(1.00354 -0.0156232 2.62709e-17)
(0.993267 -0.000649688 6.58198e-17)
(0.993409 -0.00194261 9.41477e-17)
(0.993678 -0.00309239 -2.80818e-16)
(0.994083 -0.00415656 -1.19292e-16)
(0.994621 -0.00511934 1.96733e-16)
(0.995275 -0.00596891 2.7994e-16)
(0.996026 -0.00669593 1.03038e-16)
(0.996844 -0.00730687 1.58728e-16)
(0.997696 -0.00781868 2.06842e-17)
(0.99855 -0.00826621 -3.28986e-16)
(0.999371 -0.00870967 -2.28854e-16)
(1.00013 -0.00925329 8.84631e-17)
(1.00082 -0.0100789 -3.1403e-16)
(1.00118 -0.0115001 5.42291e-16)
(1.00368 -0.0157976 1.53157e-16)
(0.993129 -0.000663365 -5.75174e-17)
(0.993275 -0.00197876 -7.32422e-17)
(0.993552 -0.00314784 3.6669e-17)
(0.993969 -0.00423129 -9.01355e-17)
(0.994523 -0.00521271 -2.15612e-16)
(0.995197 -0.00607943 -1.30456e-16)
(0.995968 -0.00682111 9.29355e-17)
(0.996809 -0.00744338 1.09534e-17)
(0.997685 -0.00796288 3.34538e-16)
(0.998562 -0.00841449 3.48909e-16)
(0.999405 -0.00885896 1.65581e-17)
(1.00019 -0.00940181 2.13229e-17)
(1.00089 -0.010227 6.82289e-16)
(1.00126 -0.0116512 3.66888e-17)
(1.00381 -0.0159724 4.81996e-17)
(0.992989 -0.000677411 1.27323e-17)
(0.993138 -0.00201627 2.54537e-17)
(0.993424 -0.00320526 1.95898e-17)
(0.993854 -0.00430847 1.19391e-16)
(0.994423 -0.00530889 -9.76056e-17)
(0.995116 -0.00619308 -2.50522e-16)
(0.995909 -0.00694964 -1.36037e-16)
(0.996774 -0.00758338 -2.36456e-17)
(0.997674 -0.0081106 -2.3644e-16)
(0.998575 -0.00856623 -2.71826e-16)