/*--------------------------------*- C++ -*----------------------------------*\
  =========                 |
  \\      /  F ield         | OpenFOAM: The Open Source CFD Toolbox
   \\    /   O peration     | Website:  https://openfoam.org
    \\  /    A nd           | Version:  6.0
     \\/     M anipulation  |
\*---------------------------------------------------------------------------*/
FoamFile
{
    version     2.0;
    format      ascii;
    class       volScalarField;
    location    "19";
    object      p;
}
// * * * * * * * * * * * * * * * * * * * * * * * * * * * * * * * * * * * * * //

dimensions      [0 2 -2 0 0 0 0];

internalField   nonuniform List<scalar> 
62000
(
0.0161505
0.0161753
0.016201
0.0162275
0.0162551
0.016284
0.0163145
0.0163465
0.0163807
0.016417
0.0164559
0.0164974
0.0165421
0.0165899
0.0166414
0.0166966
0.0167562
0.0168199
0.0168888
0.0169624
0.0170418
0.0171265
0.0172176
0.0173146
0.0174183
0.0175279
0.0176437
0.0177654
0.0178931
0.0180264
0.0181651
0.018308
0.0184546
0.0186029
0.0187508
0.018896
0.0190364
0.0191706
0.0192977
0.0194177
0.0195311
0.01964
0.0197463
0.0198523
0.0199576
0.0200576
0.020143
0.0201929
0.0201855
0.0200774
0.0198391
0.0194114
0.0187654
0.0178619
0.0167026
0.0153085
0.0138505
0.0120936
0.0110709
0.0119657
0.0161468
0.0161717
0.0161976
0.0162242
0.0162522
0.0162813
0.016312
0.0163443
0.0163786
0.0164151
0.0164542
0.0164958
0.0165407
0.0165886
0.0166404
0.0166957
0.0167555
0.0168193
0.0168881
0.0169616
0.0170407
0.0171252
0.017216
0.0173129
0.0174168
0.0175272
0.0176446
0.0177686
0.0178995
0.018037
0.0181811
0.0183315
0.0184876
0.0186481
0.0188107
0.0189731
0.0191343
0.0192935
0.0194509
0.019607
0.0197639
0.0199246
0.0200932
0.0202738
0.0204689
0.020677
0.0208924
0.0210977
0.0212739
0.0213788
0.0213814
0.0212135
0.0208325
0.02016
0.0191673
0.0178376
0.0163658
0.0144435
0.0136767
0.0136941
0.0161234
0.0161467
0.0161714
0.0161972
0.0162245
0.0162531
0.0162836
0.0163158
0.0163504
0.0163874
0.0164272
0.0164698
0.016516
0.0165656
0.0166192
0.0166767
0.0167387
0.016805
0.0168764
0.0169524
0.0170341
0.017121
0.0172142
0.0173134
0.0174193
0.0175315
0.01765
0.0177748
0.0179058
0.0180424
0.0181846
0.0183323
0.0184847
0.0186395
0.0187933
0.0189432
0.0190876
0.0192254
0.0193554
0.0194771
0.0195912
0.0196994
0.0198046
0.0199096
0.0200162
0.0201227
0.0202243
0.0203064
0.0203538
0.0203316
0.0202165
0.0199491
0.0194927
0.0187475
0.0176756
0.0162498
0.014691
0.0127769
0.0120534
0.0114485
0.0160997
0.0161213
0.0161449
0.0161701
0.0161972
0.016226
0.0162569
0.0162898
0.0163252
0.016363
0.0164039
0.0164476
0.0164951
0.0165461
0.0166014
0.0166607
0.0167248
0.0167933
0.0168671
0.0169457
0.01703
0.0171196
0.0172154
0.0173174
0.0174261
0.0175406
0.0176612
0.0177876
0.0179197
0.0180568
0.0181987
0.0183455
0.0184959
0.0186471
0.018795
0.0189363
0.019069
0.0191914
0.0193015
0.0193977
0.0194796
0.019548
0.0196046
0.0196513
0.0196892
0.0197166
0.0197295
0.0197165
0.0196671
0.0195558
0.0193712
0.0190698
0.0186287
0.0179396
0.0169578
0.0156406
0.0142037
0.0124659
0.0117933
0.0114199
0.0160753
0.0160959
0.0161189
0.0161437
0.0161708
0.0162
0.0162317
0.0162657
0.0163024
0.0163418
0.0163843
0.0164299
0.0164791
0.016532
0.0165891
0.0166502
0.0167163
0.0167868
0.0168627
0.0169435
0.0170302
0.0171223
0.0172206
0.0173252
0.0174367
0.0175542
0.0176777
0.017807
0.0179421
0.0180821
0.018227
0.0183765
0.0185294
0.0186826
0.0188318
0.018974
0.0191067
0.0192278
0.0193347
0.0194257
0.0194999
0.0195576
0.0195997
0.0196272
0.0196405
0.0196373
0.0196131
0.0195572
0.0194611
0.0193053
0.0190879
0.018782
0.0183828
0.0177882
0.0169513
0.0158118
0.0145587
0.0129837
0.0123357
0.0119514
0.016046
0.0160663
0.0160886
0.016113
0.0161398
0.0161689
0.0162008
0.0162354
0.0162732
0.016314
0.0163584
0.0164061
0.0164578
0.0165132
0.0165731
0.0166371
0.0167062
0.0167798
0.0168589
0.0169429
0.0170328
0.017128
0.0172294
0.0173371
0.0174517
0.0175725
0.0176995
0.0178327
0.017972
0.0181166
0.018266
0.0184201
0.0185775
0.0187351
0.0188891
0.019036
0.0191734
0.0192986
0.0194088
0.019502
0.0195771
0.0196337
0.0196719
0.0196914
0.0196911
0.0196667
0.0196113
0.0195111
0.0193549
0.0191226
0.0188164
0.0184215
0.0179543
0.0173326
0.0165249
0.015471
0.0143475
0.0129234
0.0123155
0.0117821
0.0160258
0.0160459
0.016068
0.0160918
0.0161179
0.0161463
0.0161776
0.0162119
0.0162497
0.0162909
0.016336
0.0163849
0.0164382
0.0164956
0.0165578
0.0166245
0.0166965
0.0167733
0.0168558
0.0169434
0.0170371
0.0171362
0.0172416
0.0173532
0.0174718
0.0175967
0.0177282
0.0178663
0.018011
0.0181615
0.0183175
0.0184783
0.0186429
0.0188086
0.0189711
0.0191275
0.0192748
0.0194101
0.0195309
0.0196355
0.0197227
0.019792
0.0198428
0.0198739
0.0198831
0.0198641
0.0198066
0.0196915
0.0195006
0.0192068
0.0188073
0.0182913
0.0176911
0.0169499
0.0160629
0.0149918
0.013922
0.0126361
0.0120696
0.0115127
0.0159935
0.0160147
0.0160379
0.0160629
0.0160901
0.0161195
0.0161517
0.0161867
0.0162253
0.0162672
0.0163134
0.0163635
0.0164184
0.0164778
0.0165425
0.016612
0.0166873
0.0167676
0.016854
0.0169459
0.017044
0.0171478
0.017258
0.0173745
0.0174981
0.0176283
0.0177655
0.0179098
0.0180615
0.0182199
0.0183845
0.0185552
0.0187309
0.0189086
0.019085
0.0192564
0.0194201
0.0195734
0.0197145
0.0198425
0.0199569
0.0200573
0.0201435
0.0202149
0.0202698
0.0203015
0.0202979
0.0202356
0.0200884
0.019818
0.019409
0.0188433
0.0181565
0.0173076
0.0163152
0.0151667
0.0140638
0.0128212
0.0121913
0.0115451
0.0159478
0.0159712
0.015997
0.0160248
0.0160549
0.0160872
0.0161222
0.0161599
0.016201
0.0162455
0.016294
0.0163465
0.0164037
0.0164656
0.0165328
0.0166051
0.0166834
0.0167671
0.0168572
0.0169533
0.017056
0.0171648
0.0172804
0.0174026
0.0175322
0.0176687
0.0178127
0.0179644
0.0181241
0.0182912
0.0184658
0.0186476
0.0188357
0.0190276
0.0192188
0.0194061
0.0195866
0.0197582
0.01992
0.0200722
0.020215
0.0203489
0.0204747
0.0205937
0.0207066
0.0208091
0.0208905
0.0209261
0.0208842
0.0207157
0.0203893
0.0198706
0.019185
0.0182922
0.0172177
0.015966
0.0147486
0.0134142
0.0125745
0.0116111
0.0158746
0.0159014
0.015931
0.015963
0.0159977
0.0160349
0.016075
0.0161178
0.016164
0.0162133
0.0162666
0.0163237
0.0163854
0.0164516
0.0165233
0.0165999
0.0166827
0.016771
0.0168658
0.0169667
0.0170746
0.0171889
0.0173105
0.017439
0.0175753
0.0177188
0.0178701
0.0180294
0.018197
0.0183724
0.0185557
0.018747
0.0189455
0.0191474
0.0193489
0.0195454
0.0197338
0.0199128
0.020082
0.0202419
0.0203932
0.0205366
0.020674
0.020809
0.0209459
0.0210851
0.0212202
0.0213299
0.0213825
0.0213228
0.0211061
0.0206803
0.0200533
0.0191722
0.0180552
0.0167105
0.0153525
0.0138626
0.0127542
0.0113706
0.0158085
0.0158381
0.0158708
0.0159064
0.0159451
0.0159867
0.0160315
0.0160794
0.0161307
0.0161854
0.016244
0.0163064
0.0163733
0.0164446
0.016521
0.0166025
0.0166899
0.016783
0.0168827
0.0169887
0.017102
0.017222
0.0173497
0.0174848
0.0176279
0.0177785
0.0179371
0.0181036
0.0182781
0.0184601
0.0186498
0.0188471
0.0190506
0.0192569
0.0194599
0.0196551
0.0198385
0.0200086
0.0201649
0.0203076
0.0204365
0.0205517
0.0206553
0.0207527
0.0208515
0.0209572
0.0210704
0.021177
0.0212508
0.0212377
0.0210871
0.0207344
0.0201708
0.019328
0.0182084
0.0168167
0.0153668
0.0137753
0.0124706
0.0107879
0.0157582
0.0157896
0.0158244
0.0158623
0.0159037
0.0159484
0.0159966
0.0160483
0.0161037
0.0161629
0.0162262
0.0162934
0.0163655
0.016442
0.0165239
0.0166108
0.0167039
0.0168026
0.016908
0.0170198
0.017139
0.0172652
0.0173992
0.0175409
0.0176908
0.0178483
0.0180138
0.0181868
0.0183673
0.0185544
0.0187481
0.0189484
0.0191534
0.0193581
0.0195567
0.0197428
0.0199117
0.0200613
0.0201903
0.0202973
0.0203803
0.0204373
0.0204694
0.0204821
0.0204851
0.0204884
0.0204997
0.0205143
0.0205162
0.0204594
0.0202964
0.0199592
0.0194302
0.0186288
0.0175431
0.0161716
0.0147276
0.0131632
0.0118101
0.0100637
0.0157544
0.0157854
0.0158198
0.0158573
0.0158985
0.0159432
0.015992
0.0160447
0.0161017
0.016163
0.0162289
0.0162994
0.0163749
0.0164554
0.0165414
0.0166329
0.0167308
0.0168346
0.0169454
0.0170628
0.0171878
0.0173201
0.0174604
0.0176086
0.0177652
0.0179295
0.0181016
0.018281
0.0184673
0.0186593
0.0188569
0.0190595
0.0192647
0.0194678
0.0196609
0.0198374
0.0199917
0.0201204
0.0202211
0.0202904
0.0203231
0.0203146
0.0202634
0.0201734
0.0200544
0.0199192
0.019781
0.0196444
0.0195056
0.0193311
0.0190836
0.0187013
0.0181668
0.0173964
0.0163681
0.0150767
0.0137326
0.0123212
0.0110551
0.00944825
0.0157781
0.0158072
0.0158397
0.0158755
0.0159151
0.0159587
0.0160065
0.0160589
0.016116
0.016178
0.0162453
0.0163177
0.016396
0.0164798
0.01657
0.016666
0.016769
0.0168784
0.016995
0.0171185
0.0172498
0.0173885
0.0175354
0.0176903
0.0178537
0.0180249
0.0182041
0.0183905
0.0185835
0.018782
0.0189853
0.0191928
0.0194021
0.0196069
0.0198006
0.019975
0.0201241
0.0202437
0.0203299
0.0203769
0.0203763
0.0203198
0.0202025
0.0200254
0.0197961
0.0195276
0.0192363
0.0189339
0.0186278
0.018299
0.0179242
0.0174541
0.0168805
0.0161237
0.0151584
0.0139776
0.0127856
0.0115932
0.010481
0.0091078
0.0158447
0.0158703
0.0158995
0.015932
0.0159685
0.0160092
0.0160545
0.0161048
0.0161603
0.0162213
0.0162883
0.0163612
0.0164405
0.0165262
0.0166189
0.0167183
0.0168252
0.0169392
0.017061
0.0171904
0.0173279
0.0174732
0.017627
0.017789
0.0179598
0.0181388
0.018326
0.0185209
0.0187229
0.0189307
0.0191438
0.0193611
0.0195801
0.0197956
0.0199996
0.0201849
0.0203449
0.020475
0.0205699
0.0206216
0.0206187
0.0205492
0.0204043
0.0201808
0.0198829
0.0195208
0.0191113
0.0186699
0.0182125
0.0177326
0.0172214
0.0166454
0.0160093
0.015244
0.0143258
0.0132478
0.0122037
0.011221
0.0102504
0.0090949
0.0159276
0.0159496
0.0159755
0.0160052
0.016039
0.0160773
0.0161205
0.0161688
0.0162227
0.0162826
0.0163489
0.0164218
0.016502
0.0165892
0.0166844
0.016787
0.0168982
0.0170171
0.0171447
0.0172804
0.0174248
0.0175774
0.0177388
0.0179087
0.0180879
0.0182758
0.0184727
0.0186782
0.0188921
0.019113
0.0193405
0.0195737
0.0198105
0.0200452
0.0202717
0.0204825
0.0206715
0.0208337
0.0209633
0.0210503
0.0210808
0.0210393
0.020913
0.0206945
0.0203827
0.0199838
0.0195115
0.018982
0.0184156
0.0178148
0.0171834
0.0165025
0.0157919
0.0149949
0.0140926
0.0130786
0.0121328
0.0112924
0.0103945
0.00936999
0.0160423
0.01606
0.016082
0.016108
0.0161386
0.016174
0.0162147
0.0162609
0.0163131
0.0163718
0.0164374
0.0165101
0.0165906
0.016679
0.0167759
0.0168812
0.0169957
0.0171191
0.0172519
0.0173937
0.0175451
0.0177053
0.017875
0.0180539
0.0182426
0.0184409
0.0186492
0.0188677
0.0190964
0.0193342
0.0195809
0.0198358
0.0200969
0.0203603
0.0206195
0.0208686
0.0211021
0.0213153
0.0215016
0.0216504
0.0217454
0.0217685
0.0217034
0.021538
0.0212662
0.0208882
0.0204129
0.0198535
0.0192311
0.0185529
0.0178311
0.0170588
0.0162685
0.0154168
0.0144905
0.0134843
0.0125628
0.0117694
0.0108519
0.00984709
0.016158
0.0161723
0.0161915
0.0162153
0.0162441
0.0162782
0.016318
0.0163638
0.016416
0.016475
0.0165414
0.0166154
0.0166978
0.0167886
0.0168886
0.0169977
0.0171169
0.0172455
0.0173845
0.0175332
0.0176923
0.0178609
0.0180398
0.0182286
0.018428
0.0186382
0.0188597
0.0190932
0.0193392
0.0195971
0.0198666
0.0201476
0.0204389
0.0207365
0.0210362
0.0213327
0.0216213
0.0218981
0.0221564
0.0223849
0.0225661
0.0226798
0.0227066
0.0226306
0.0224401
0.0221293
0.0217008
0.0211626
0.020533
0.0198199
0.0190398
0.0181935
0.0173242
0.0163991
0.0154106
0.0143546
0.0133814
0.0125402
0.011516
0.0104298
0.0163004
0.016312
0.0163289
0.0163509
0.0163783
0.0164114
0.0164506
0.0164963
0.0165489
0.0166088
0.0166764
0.0167521
0.0168366
0.01693
0.0170331
0.0171459
0.0172693
0.017403
0.0175479
0.0177035
0.0178704
0.0180478
0.0182365
0.018436
0.0186471
0.0188703
0.0191065
0.0193566
0.0196218
0.0199016
0.0201965
0.0205062
0.0208302
0.0211663
0.0215101
0.0218582
0.0222068
0.0225526
0.0228894
0.0232054
0.0234829
0.0236998
0.0238349
0.0238687
0.0237848
0.0235713
0.0232239
0.022744
0.0221449
0.0214319
0.0206216
0.0197189
0.0187732
0.0177605
0.0166781
0.015524
0.0144366
0.0134721
0.0122765
0.0110366
0.0164499
0.0164606
0.0164771
0.0164992
0.0165271
0.0165612
0.0166016
0.0166488
0.0167032
0.016765
0.0168351
0.0169134
0.0170011
0.017098
0.0172053
0.0173227
0.0174515
0.0175912
0.0177428
0.017906
0.0180813
0.0182681
0.0184671
0.018678
0.0189016
0.0191387
0.0193903
0.0196579
0.0199432
0.0202461
0.020567
0.0209064
0.0212644
0.0216386
0.0220272
0.0224268
0.022835
0.0232491
0.0236633
0.0240662
0.0244396
0.0247608
0.0250068
0.0251557
0.0251871
0.0250836
0.024834
0.0244329
0.023887
0.0231969
0.0223766
0.0214314
0.0204144
0.0193071
0.0181108
0.0168261
0.0155831
0.0144469
0.0130432
0.0116103
0.0166365
0.0166467
0.0166631
0.0166852
0.0167134
0.0167481
0.0167896
0.0168383
0.0168944
0.0169586
0.0170311
0.0171124
0.0172031
0.0173036
0.0174146
0.0175364
0.01767
0.0178153
0.0179732
0.0181436
0.0183272
0.0185233
0.0187328
0.0189552
0.0191917
0.019443
0.0197104
0.0199958
0.0203014
0.020627
0.0209739
0.0213421
0.0217324
0.022144
0.0225745
0.0230224
0.0234857
0.0239626
0.0244476
0.0249296
0.0253907
0.0258079
0.0261572
0.0264148
0.0265573
0.0265625
0.0264132
0.0260972
0.0256145
0.0249597
0.0241417
0.0231644
0.0220811
0.020877
0.0195571
0.0181254
0.0167072
0.0153777
0.0137548
0.012119
0.0168316
0.016843
0.0168607
0.0168845
0.0169148
0.0169518
0.016996
0.0170476
0.0171071
0.0171748
0.0172512
0.0173367
0.0174321
0.0175374
0.0176537
0.017781
0.0179207
0.0180725
0.0182375
0.0184156
0.0186077
0.0188133
0.0190332
0.0192672
0.0195164
0.0197818
0.0200648
0.0203678
0.0206929
0.0210406
0.0214117
0.0218072
0.0222279
0.0226727
0.0231415
0.0236324
0.0241441
0.0246755
0.0252215
0.0257714
0.0263076
0.0268072
0.0272456
0.027598
0.0278386
0.0279414
0.0278842
0.0276485
0.027228
0.0266108
0.0258005
0.0247972
0.0236537
0.0223566
0.0209134
0.0193323
0.0177373
0.0162136
0.0143794
0.0125513
0.0170673
0.0170804
0.0170998
0.0171253
0.0171574
0.0171964
0.0172428
0.017297
0.0173594
0.0174303
0.0175103
0.0175997
0.0176992
0.017809
0.01793
0.0180624
0.0182074
0.0183651
0.0185365
0.0187218
0.018922
0.0191366
0.0193667
0.0196119
0.0198735
0.0201527
0.0204508
0.0207706
0.0211142
0.0214823
0.0218761
0.0222962
0.0227437
0.023219
0.0237206
0.0242484
0.024801
0.0253777
0.0259737
0.0265787
0.0271756
0.0277417
0.0282524
0.0286821
0.0290035
0.0291878
0.0292087
0.0290425
0.0286769
0.0280944
0.0272921
0.0262666
0.0250674
0.0236824
0.0221221
0.0203989
0.0186377
0.0169331
0.0149072
0.0129103
0.0173195
0.0173358
0.0173585
0.0173873
0.0174228
0.0174652
0.0175151
0.0175727
0.0176386
0.0177131
0.017797
0.0178904
0.0179944
0.0181089
0.0182351
0.0183729
0.018524
0.018688
0.0188663
0.019059
0.0192673
0.0194908
0.0197307
0.0199868
0.0202603
0.0205527
0.0208651
0.0212006
0.0215613
0.0219481
0.0223622
0.0228045
0.0232763
0.023777
0.0243073
0.0248659
0.0254522
0.0260655
0.0267013
0.0273494
0.0279934
0.0286107
0.029177
0.0296664
0.0300505
0.0302986
0.0303811
0.03027
0.0299483
0.029393
0.0285958
0.027549
0.0262993
0.0248342
0.0231669
0.0213145
0.0194042
0.0175383
0.0153448
0.0132068
0.0176183
0.0176375
0.0176628
0.0176942
0.017732
0.0177768
0.017829
0.0178893
0.0179579
0.0180354
0.0181224
0.0182192
0.0183266
0.018445
0.0185752
0.0187175
0.0188733
0.0190427
0.0192268
0.0194261
0.0196417
0.0198734
0.0201224
0.0203888
0.0206736
0.0209783
0.0213041
0.021654
0.0220305
0.0224343
0.0228668
0.0233287
0.0238213
0.024345
0.0248992
0.0254837
0.0260974
0.0267399
0.0274066
0.0280876
0.0287668
0.0294221
0.0300293
0.0305627
0.0309932
0.0312887
0.031417
0.0313471
0.0310576
0.0305215
0.029725
0.0286568
0.027359
0.02582
0.0240561
0.0220889
0.0200486
0.018043
0.0157064
0.0134554
0.0179267
0.0179497
0.0179787
0.0180138
0.0180553
0.0181038
0.0181598
0.0182237
0.0182961
0.0183774
0.0184684
0.0185693
0.0186812
0.0188041
0.0189392
0.0190866
0.0192479
0.019423
0.0196133
0.0198191
0.0200418
0.0202813
0.0205389
0.0208147
0.02111
0.0214261
0.0217643
0.0221275
0.0225184
0.0229376
0.0233865
0.0238661
0.0243777
0.0249206
0.0254959
0.0261022
0.0267387
0.0274048
0.0280958
0.0288021
0.0295076
0.0301908
0.0308276
0.0313925
0.0318559
0.0321849
0.0323453
0.0323036
0.032035
0.0315096
0.0307081
0.0296173
0.0282742
0.0266678
0.0248173
0.0227488
0.0205958
0.0184694
0.0160104
0.0136703
0.0182759
0.0183025
0.0183348
0.0183728
0.0184172
0.0184684
0.018527
0.0185937
0.018669
0.0187534
0.0188474
0.0189517
0.0190669
0.0191935
0.0193322
0.0194837
0.0196492
0.019829
0.0200243
0.0202358
0.0204647
0.0207112
0.0209767
0.0212612
0.0215661
0.0218927
0.0222423
0.0226178
0.0230219
0.0234551
0.0239193
0.0244149
0.0249431
0.0255043
0.0260979
0.0267235
0.0273795
0.0280654
0.0287763
0.0295024
0.0302282
0.0309321
0.0315905
0.0321778
0.0326644
0.0330164
0.0331983
0.0331746
0.0329178
0.0323956
0.0315847
0.0304693
0.0290805
0.0274099
0.0254804
0.0233214
0.02107
0.0188383
0.0162739
0.0138645
0.018635
0.018666
0.0187027
0.0187451
0.0187936
0.0188488
0.0189112
0.0189813
0.0190599
0.0191474
0.0192447
0.0193521
0.0194708
0.0196009
0.0197436
0.0198992
0.0200693
0.0202539
0.0204545
0.0206715
0.0209066
0.0211596
0.0214325
0.0217251
0.0220388
0.0223752
0.0227353
0.0231222
0.0235384
0.0239848
0.0244631
0.0249736
0.025518
0.0260952
0.0267063
0.0273496
0.0280235
0.0287272
0.0294555
0.0301988
0.0309414
0.0316621
0.0323372
0.0329414
0.0334446
0.0338126
0.0340083
0.0339949
0.0337422
0.0332168
0.0323913
0.0312491
0.0298149
0.0280828
0.0260796
0.0238379
0.021498
0.0191712
0.0165126
0.0140474
0.0190338
0.0190685
0.0191083
0.0191536
0.0192047
0.0192624
0.0193271
0.0193996
0.0194804
0.0195703
0.0196697
0.0197795
0.0199004
0.0200331
0.0201783
0.0203369
0.0205101
0.0206984
0.020903
0.0211247
0.021365
0.021624
0.0219034
0.0222035
0.0225254
0.0228707
0.0232407
0.0236382
0.024066
0.0245248
0.0250166
0.0255415
0.0261008
0.0266947
0.0273223
0.0279828
0.028674
0.0293948
0.0301398
0.0308991
0.0316573
0.032393
0.0330828
0.033701
0.0342176
0.0345973
0.0348022
0.0347939
0.0345402
0.0340065
0.0331631
0.0319908
0.0305086
0.028715
0.0266406
0.0243207
0.0218985
0.0194832
0.0167383
0.0142273
0.019429
0.0194676
0.0195114
0.0195606
0.0196156
0.0196771
0.0197455
0.0198216
0.0199059
0.0199991
0.0201019
0.020215
0.0203394
0.0204754
0.0206243
0.0207865
0.0209638
0.0211562
0.0213652
0.0215916
0.021837
0.0221015
0.0223871
0.022694
0.0230235
0.0233772
0.0237563
0.024164
0.0246027
0.0250737
0.0255786
0.0261178
0.0266926
0.0273021
0.0279469
0.0286249
0.0293337
0.0300721
0.0308343
0.0316104
0.0323847
0.0331359
0.0338403
0.0344722
0.035001
0.0353907
0.0356022
0.0355958
0.0353372
0.0347914
0.0339257
0.0327209
0.0311891
0.0293336
0.0271887
0.0247921
0.02229
0.019788
0.0169599
0.0144076
0.0198542
0.0198962
0.019943
0.019995
0.0200526
0.0201165
0.0201874
0.0202659
0.0203527
0.0204484
0.0205538
0.0206694
0.0207963
0.020935
0.0210864
0.0212515
0.0214316
0.0216273
0.0218397
0.0220702
0.02232
0.0225897
0.022881
0.0231943
0.0235309
0.0238925
0.0242803
0.0246978
0.0251474
0.0256302
0.0261484
0.0267018
0.0272919
0.0279185
0.0285807
0.029277
0.0300044
0.0307616
0.0315423
0.0323366
0.0331288
0.033897
0.0346176
0.0352643
0.035806
0.0362058
0.0364233
0.0364174
0.0361519
0.0355907
0.0347002
0.033459
0.0318738
0.0299541
0.0277374
0.0252636
0.0226817
0.0200932
0.0171836
0.0145927
0.0202749
0.0203209
0.0203719
0.0204279
0.0204894
0.0205571
0.0206314
0.0207131
0.020803
0.0209014
0.0210096
0.0211278
0.0212576
0.0213991
0.0215537
0.021722
0.0219058
0.0221052
0.0223218
0.0225565
0.0228111
0.0230858
0.0233827
0.0237022
0.0240456
0.0244148
0.0248112
0.0252383
0.0256985
0.0261935
0.0267248
0.027293
0.0278994
0.0285428
0.0292238
0.0299395
0.0306871
0.0314648
0.0322663
0.0330812
0.0338937
0.0346817
0.0354209
0.0360848
0.0366411
0.0370523
0.0372763
0.0372707
0.0369965
0.0364181
0.0354992
0.0342192
0.0325781
0.030592
0.0283015
0.025748
0.0230837
0.0204058
0.017413
0.0147823
0.0207256
0.0207745
0.0208278
0.0208861
0.0209496
0.0210191
0.0210953
0.0211789
0.0212705
0.021371
0.0214809
0.0216012
0.0217326
0.0218762
0.0220327
0.0222033
0.0223895
0.0225918
0.0228115
0.02305
0.0233088
0.0235882
0.0238905
0.024216
0.0245661
0.0249428
0.0253476
0.0257841
0.0262553
0.0267623
0.0273074
0.0278907
0.0285135
0.0291756
0.0298759
0.0306125
0.031382
0.0321822
0.0330067
0.033845
0.0346806
0.0354913
0.0362522
0.036936
0.0375097
0.0379342
0.0381661
0.0381613
0.0378781
0.0372803
0.0363308
0.0350078
0.0333072
0.0312514
0.0288839
0.0262476
0.0234983
0.0207281
0.0176505
0.0149787
0.0211585
0.0212105
0.021267
0.0213285
0.0213954
0.0214684
0.0215479
0.0216348
0.0217297
0.0218334
0.0219465
0.02207
0.0222048
0.0223516
0.0225117
0.0226857
0.0228755
0.0230816
0.0233052
0.0235478
0.0238111
0.0240953
0.0244029
0.0247344
0.025091
0.0254751
0.0258882
0.0263344
0.0268165
0.027336
0.0278951
0.0284942
0.0291347
0.0298154
0.0305368
0.0312958
0.0320889
0.0329141
0.0337642
0.0346287
0.0354907
0.0363274
0.0371133
0.0378202
0.038414
0.0388543
0.0390958
0.0390927
0.0388004
0.038182
0.0371993
0.0358309
0.0340683
0.0319403
0.0294924
0.0267693
0.0239303
0.0210627
0.0178964
0.0151793
0.0216112
0.0216656
0.0217243
0.0217879
0.0218567
0.0219317
0.0220133
0.0221025
0.0221998
0.0223061
0.0224218
0.022548
0.0226854
0.0228349
0.0229974
0.0231741
0.0233667
0.0235757
0.0238026
0.024049
0.0243163
0.0246052
0.0249182
0.0252555
0.0256189
0.0260105
0.0264321
0.0268881
0.0273815
0.0279138
0.0284876
0.0291029
0.0297614
0.0304627
0.031206
0.031989
0.0328076
0.0336598
0.034538
0.0354313
0.0363227
0.0371884
0.0380025
0.0387356
0.0393524
0.0398111
0.0400643
0.0400641
0.039763
0.0391225
0.0381046
0.0366868
0.0348592
0.0326559
0.0301241
0.0273106
0.0243783
0.0214096
0.0181519
0.0153863
0.0220474
0.0221056
0.0221683
0.0222359
0.0223087
0.0223874
0.0224725
0.0225648
0.0226651
0.022774
0.0228925
0.0230211
0.0231615
0.0233137
0.0234795
0.0236594
0.0238556
0.0240684
0.0242993
0.0245499
0.024822
0.025116
0.0254346
0.0257782
0.0261486
0.026548
0.0269784
0.0274446
0.0279496
0.0284952
0.029084
0.0297165
0.0303945
0.0311164
0.0318834
0.0326917
0.0335377
0.034419
0.0353278
0.0362528
0.0371764
0.0380743
0.0389195
0.039682
0.0403246
0.0408041
0.0410709
0.041075
0.0407654
0.0401024
0.0390472
0.0375782
0.0356836
0.0334026
0.0307835
0.0278753
0.0248449
0.0217696
0.0184158
0.0155958
0.0225254
0.0225842
0.0226469
0.0227141
0.0227862
0.0228644
0.0229492
0.0230417
0.0231423
0.023252
0.0233713
0.0235013
0.0236428
0.0237969
0.0239643
0.0241466
0.0243452
0.0245611
0.0247956
0.0250504
0.0253272
0.0256265
0.0259511
0.0263014
0.0266792
0.0270869
0.0275266
0.0280035
0.0285207
0.0290802
0.029685
0.0303352
0.0310328
0.0317775
0.0325687
0.0334038
0.0342789
0.0351911
0.0361325
0.0370913
0.0380496
0.0389822
0.0398614
0.0406558
0.0413269
0.0418294
0.0421118
0.0421214
0.0418039
0.0411174
0.0400233
0.0385
0.0365359
0.0341746
0.0314651
0.0284591
0.0253273
0.0221421
0.0186892
0.0158107
0.0229148
0.0229775
0.023045
0.023118
0.0231964
0.023281
0.0233724
0.0234711
0.0235782
0.0236939
0.0238195
0.0239552
0.0241027
0.0242623
0.0244354
0.0246229
0.024827
0.0250481
0.0252878
0.025548
0.0258306
0.026136
0.0264673
0.0268249
0.0272107
0.0276273
0.0280768
0.028565
0.029095
0.0296691
0.0302903
0.0309591
0.0316778
0.032445
0.0332621
0.0341253
0.0350308
0.0359758
0.0369517
0.0379466
0.0389419
0.0399117
0.0408274
0.0416563
0.0423582
0.0428859
0.0431856
0.0432021
0.0428772
0.0421675
0.041033
0.0394544
0.0374195
0.0349757
0.032173
0.0290653
0.0258276
0.0225271
0.01897
0.0160264
0.0234003
0.0234624
0.0235283
0.0235989
0.0236747
0.0237568
0.0238459
0.023943
0.0240487
0.024164
0.0242894
0.024426
0.0245745
0.024736
0.0249113
0.0251017
0.0253091
0.0255343
0.0257786
0.0260441
0.0263326
0.0266446
0.0269832
0.0273488
0.0277433
0.0281693
0.0286294
0.0291294
0.029673
0.0302623
0.0309008
0.0315889
0.0323289
0.0331207
0.033964
0.0348564
0.0357936
0.0367726
0.0377844
0.0388169
0.039851
0.0408601
0.0418144
0.0426798
0.0434146
0.0439694
0.044288
0.0443124
0.0439809
0.0432475
0.0420716
0.0404355
0.0383278
0.0357994
0.032901
0.0296895
0.0263433
0.0229244
0.01926
0.0162468
0.0237802
0.0238451
0.0239154
0.0239916
0.0240737
0.0241624
0.0242582
0.0243617
0.0244739
0.0245952
0.0247268
0.0248691
0.0250238
0.0251911
0.0253726
0.0255691
0.0257828
0.0260143
0.0262653
0.0265375
0.0268332
0.0271527
0.0274993
0.0278736
0.0282775
0.0287138
0.029185
0.0296976
0.0302553
0.0308606
0.031517
0.0322252
0.0329879
0.0338039
0.0346749
0.0355973
0.0365672
0.0375813
0.0386305
0.0397022
0.0407771
0.0418274
0.0428222
0.0437263
0.0444959
0.0450795
0.0454184
0.0454521
0.0451148
0.0443582
0.0431406
0.0414466
0.0392652
0.0366504
0.0336539
0.0303352
0.0268764
0.0233337
0.0195567
0.0164671
0.0242688
0.0243314
0.0243983
0.0244704
0.0245484
0.0246333
0.0247258
0.024827
0.0249375
0.0250581
0.0251894
0.0253326
0.0254885
0.025658
0.0258421
0.0260421
0.02626
0.0264965
0.0267531
0.0270318
0.0273346
0.027662
0.0280172
0.0284007
0.0288147
0.0292618
0.0297448
0.0302706
0.0308432
0.0314651
0.0321402
0.0328691
0.0336545
0.0344964
0.0353952
0.0363484
0.0373516
0.0384017
0.0394893
0.0406014
0.0417183
0.0428113
0.0438484
0.0447928
0.0455988
0.0462126
0.0465731
0.046617
0.0462746
0.0454949
0.0442352
0.0424818
0.0402252
0.0375223
0.034426
0.0309985
0.0274249
0.0237555
0.0198628
0.0166917
0.024665
0.0247292
0.0247989
0.024875
0.0249575
0.0250473
0.0251449
0.0252511
0.0253667
0.0254923
0.025629
0.0257774
0.025939
0.0261142
0.0263045
0.0265107
0.0267352
0.0269784
0.0272421
0.0275282
0.0278389
0.0281746
0.0285389
0.0289321
0.0293565
0.029815
0.0303103
0.0308499
0.0314378
0.032077
0.0327712
0.0335214
0.0343306
0.0351978
0.0361254
0.0371099
0.0381472
0.0392343
0.0403613
0.0415152
0.0426757
0.043813
0.044894
0.0458803
0.0467243
0.0473699
0.0477533
0.0478084
0.047462
0.0466602
0.0453585
0.0435461
0.0412136
0.0384211
0.0352228
0.0316835
0.0279908
0.0241892
0.0201748
0.0169152
0.0251504
0.0252143
0.0252831
0.0253579
0.0254389
0.0255274
0.0256237
0.025729
0.0258438
0.0259692
0.0261058
0.0262548
0.0264172
0.026594
0.0267862
0.0269953
0.0272234
0.0274711
0.0277401
0.0280325
0.0283503
0.028694
0.0290672
0.0294702
0.0299052
0.0303753
0.0308833
0.031437
0.0320407
0.0326974
0.0334113
0.034183
0.0350157
0.0359099
0.0368663
0.0378827
0.0389547
0.0400794
0.0412466
0.0424432
0.0436483
0.0448312
0.0459574
0.046987
0.0478703
0.0485487
0.048956
0.0490232
0.0486734
0.0478499
0.0465065
0.044634
0.0422244
0.039341
0.0360393
0.0323868
0.0285729
0.0246359
0.0204964
0.0171426
0.0256146
0.0256784
0.0257473
0.0258228
0.0259046
0.0259941
0.0260916
0.0261982
0.0263145
0.0264416
0.0265804
0.0267317
0.0268972
0.0270772
0.0272735
0.0274868
0.0277199
0.0279729
0.0282478
0.0285466
0.0288716
0.0292231
0.029605
0.0300176
0.0304633
0.030945
0.0314657
0.0320338
0.0326534
0.033328
0.0340615
0.0348552
0.0357125
0.0366327
0.0376189
0.0386676
0.039775
0.040938
0.0421466
0.0433871
0.0446382
0.045868
0.0470409
0.0481153
0.0490392
0.0497517
0.050184
0.0502644
0.0499122
0.049068
0.0476837
0.0457518
0.0432647
0.0402889
0.0368815
0.0331125
0.0291727
0.0250944
0.0208234
0.0173681
0.0261163
0.0261796
0.0262479
0.0263227
0.0264041
0.0264935
0.0265912
0.0266984
0.0268157
0.026944
0.027084
0.0272369
0.0274038
0.0275856
0.0277837
0.0279994
0.0282353
0.0284919
0.0287712
0.0290752
0.0294064
0.0297651
0.0301552
0.0305771
0.0310332
0.0315265
0.03206
0.0326423
0.0332781
0.0339704
0.0347241
0.0355397
0.0364211
0.037369
0.0383846
0.0394662
0.0406094
0.0418115
0.043062
0.0443473
0.0456453
0.0469232
0.0481438
0.049264
0.0502297
0.0509773
0.0514352
0.0515293
0.0511754
0.0503112
0.0488862
0.0468941
0.0443283
0.0412587
0.0377445
0.0338575
0.0297896
0.0255666
0.0211601
0.0175976
0.0266241
0.0266879
0.0267565
0.0268317
0.0269132
0.0270025
0.0271001
0.0272073
0.0273248
0.0274537
0.0275949
0.0277494
0.0279187
0.0281034
0.028305
0.0285244
0.0287646
0.0290258
0.0293101
0.0296196
0.0299571
0.0303228
0.0307208
0.0311517
0.0316179
0.0321225
0.0326685
0.0332651
0.0339168
0.0346271
0.0354005
0.0362383
0.0371446
0.0381189
0.0391651
0.0402799
0.0414597
0.0427017
0.0439953
0.0453265
0.0466726
0.0479998
0.0492695
0.0504369
0.0514455
0.0522292
0.0527138
0.0528224
0.0524675
0.0515841
0.0501192
0.0480677
0.0454228
0.0422581
0.0386342
0.0346255
0.0304242
0.02605
0.0215013
0.0178244
0.0271727
0.0272369
0.027306
0.0273817
0.0274636
0.0275536
0.0276516
0.0277592
0.0278769
0.028006
0.0281472
0.0283019
0.0284711
0.0286562
0.0288583
0.0290789
0.0293206
0.0295843
0.0298718
0.0301855
0.030528
0.0308999
0.0313052
0.0317445
0.0322204
0.032736
0.0332943
0.0339047
0.0345722
0.0353001
0.0360934
0.0369531
0.0378836
0.038886
0.0399623
0.0411109
0.0423278
0.0436103
0.0449476
0.0463254
0.0477206
0.049098
0.0504177
0.0516331
0.0526856
0.0535062
0.0540179
0.0541413
0.0537858
0.0528836
0.051379
0.049267
0.0465419
0.0432806
0.0395458
0.0354136
0.0310762
0.0265471
0.0218519
0.018055
0.0277391
0.027803
0.0278719
0.0279476
0.0280297
0.0281197
0.028218
0.0283258
0.0284439
0.0285735
0.0287155
0.0288711
0.0290418
0.0292284
0.0294327
0.0296555
0.0299
0.0301666
0.0304576
0.0307752
0.0311225
0.0314999
0.0319119
0.032359
0.0328439
0.0333699
0.0339399
0.0345638
0.0352465
0.0359918
0.0368045
0.0376861
0.0386416
0.0396707
0.0407782
0.0419609
0.0432155
0.0445395
0.0459214
0.0473471
0.0487925
0.0502213
0.0515923
0.052857
0.0539544
0.0548128
0.0553523
0.055491
0.0551352
0.0542146
0.0526708
0.0504989
0.0476929
0.0443332
0.0404845
0.0362246
0.0317455
0.0270548
0.0222062
0.0182819
0.0283676
0.028431
0.0284991
0.0285737
0.0286547
0.0287437
0.0288409
0.0289479
0.029065
0.0291937
0.0293347
0.0294893
0.0296589
0.0298447
0.030048
0.0302704
0.0305149
0.0307822
0.0310745
0.0313944
0.031745
0.0321267
0.0325442
0.0329981
0.0334912
0.0340269
0.0346079
0.0352447
0.0359424
0.0367044
0.0375364
0.0384394
0.0394189
0.0404763
0.0416144
0.0428318
0.0441246
0.0454906
0.046918
0.0483921
0.0498886
0.0513697
0.0527928
0.0541077
0.0552507
0.0561475
0.056715
0.0568688
0.0565127
0.0555736
0.0539905
0.051757
0.0488685
0.045409
0.041445
0.0370554
0.0324317
0.0275757
0.0225692
0.0185122
0.0290276
0.0290914
0.0291594
0.0292337
0.0293139
0.0294017
0.0294974
0.0296026
0.029718
0.0298448
0.0299845
0.0301377
0.0303066
0.0304916
0.0306949
0.0309173
0.0311623
0.0314302
0.0317238
0.0320453
0.0323982
0.0327832
0.0332052
0.0336647
0.0341651
0.0347095
0.0353008