/*--------------------------------*- C++ -*----------------------------------*\
  =========                 |
  \\      /  F ield         | OpenFOAM: The Open Source CFD Toolbox
   \\    /   O peration     | Website:  https://openfoam.org
    \\  /    A nd           | Version:  6.0
     \\/     M anipulation  |
\*---------------------------------------------------------------------------*/
FoamFile
{
    version     2.0;
    format      ascii;
    class       surfaceScalarField;
    location    "19";
    object      phi;
}
// * * * * * * * * * * * * * * * * * * * * * * * * * * * * * * * * * * * * * //

dimensions      [0 3 -1 0 0 0 0];

internalField   nonuniform List<scalar> 
123526
(
-2.69761e-05
2.33259e-05
2.73741e-05
-2.6549e-05
2.52222e-05
-2.6087e-05
2.7273e-05
-2.55882e-05
2.94906e-05
-2.50488e-05
3.18889e-05
-2.44662e-05
3.44824e-05
-2.38361e-05
3.72871e-05
-2.31555e-05
4.03203e-05
-2.24185e-05
4.35997e-05
-2.16215e-05
4.71464e-05
-2.07595e-05
5.09828e-05
-1.98279e-05
5.51317e-05
-1.882e-05
5.96186e-05
-1.77284e-05
6.44686e-05
-1.6544e-05
6.97128e-05
-1.52638e-05
7.53873e-05
-1.38789e-05
8.15239e-05
-1.23751e-05
8.81531e-05
-1.07443e-05
9.53242e-05
-8.98126e-06
0.000103082
-7.06627e-06
0.000111462
-4.98874e-06
0.000120522
-2.7416e-06
0.000130323
-2.96616e-07
0.0001409
2.35057e-06
0.000152342
5.22166e-06
0.000164697
8.33805e-06
0.00017804
1.17128e-05
0.000192452
1.53779e-05
0.000207997
1.93447e-05
0.000224777
2.36496e-05
0.000242857
2.83092e-05
0.000262347
3.33586e-05
0.000283321
3.88255e-05
0.000305881
4.47368e-05
0.000330118
5.11361e-05
0.000356105
5.80465e-05
0.000383944
6.55083e-05
0.000413688
7.3562e-05
0.000445389
8.22381e-05
0.000479085
9.15745e-05
0.00051476
0.000101612
0.000552358
0.000112381
0.000591769
0.000123911
0.000632793
0.000136228
0.000675122
0.00014935
0.000718311
0.000163285
0.000761734
0.000178024
0.000804539
0.000193539
0.000845591
0.000209772
0.000883396
0.000226634
0.000916025
0.000243985
0.000941013
0.000261638
0.000955256
0.000279321
0.000954927
0.000296685
0.000935314
0.000313253
0.000890743
0.000328471
0.000814163
0.000341661
0.000697647
0.000351585
0.000529449
0.000293191
0.000347944
-2.65481e-05
2.2939e-05
2.69396e-05
-2.6128e-05
2.4804e-05
-2.56736e-05
2.68208e-05
-2.5183e-05
2.90017e-05
-2.46525e-05
3.13603e-05
-2.40796e-05
3.3911e-05
-2.34602e-05
3.66693e-05
-2.2791e-05
3.96524e-05
-2.20667e-05
4.28768e-05
-2.12833e-05
4.63642e-05
-2.04362e-05
5.0137e-05
-1.95208e-05
5.42172e-05
-1.85306e-05
5.86298e-05
-1.74581e-05
6.3397e-05
-1.62946e-05
6.85507e-05
-1.5037e-05
7.41307e-05
-1.36766e-05
8.01649e-05
-1.21994e-05
8.66769e-05
-1.05976e-05
9.37238e-05
-8.86574e-06
0.000101351
-6.98477e-06
0.000109582
-4.94391e-06
0.000118482
-2.73654e-06
0.000128117
-3.34457e-07
0.000138499
2.26627e-06
0.000149743
5.08731e-06
0.000161878
8.1491e-06
0.00017498
1.14647e-05
0.000189138
1.50652e-05
0.000204397
1.89618e-05
0.000220882
2.31898e-05
0.00023863
2.77659e-05
0.000257772
3.27241e-05
0.000278365
3.80915e-05
0.000300515
4.38948e-05
0.000324316
5.01763e-05
0.000349825
5.69585e-05
0.000377163
6.42811e-05
0.000406367
7.21835e-05
0.000437488
8.0696e-05
0.000470573
8.98561e-05
0.000505601
9.9704e-05
0.00054251
0.000110271
0.000581202
0.000121587
0.000621477
0.000133677
0.000663031
0.000146561
0.000705425
0.000160246
0.000748046
0.000174723
0.000790057
0.000189964
0.000830343
0.000205913
0.000867438
0.00022248
0.000899446
0.00023953
0.000923948
0.000256877
0.000937896
0.000274254
0.000937536
0.000291315
0.000918242
0.000307593
0.000874451
0.000322515
0.000799234
0.000335493
0.000684661
0.000343796
0.000521148
0.000293729
0.000343256
-2.61475e-05
2.25594e-05
2.65317e-05
-2.57351e-05
2.43934e-05
-2.5289e-05
2.63768e-05
-2.48072e-05
2.85216e-05
-2.42861e-05
3.08411e-05
-2.37232e-05
3.33495e-05
-2.31145e-05
3.60623e-05
-2.24568e-05
3.89961e-05
-2.17448e-05
4.21664e-05
-2.09748e-05
4.55953e-05
-2.01421e-05
4.93057e-05
-1.92422e-05
5.33184e-05
-1.82689e-05
5.76579e-05
-1.72147e-05
6.23437e-05
-1.60712e-05
6.74086e-05
-1.48353e-05
7.28957e-05
-1.34984e-05
7.88295e-05
-1.20468e-05
8.52263e-05
-1.0473e-05
9.21513e-05
-8.77145e-06
9.96508e-05
-6.92354e-06
0.000107736
-4.91866e-06
0.000116478
-2.75034e-06
0.00012595
-3.90851e-07
0.00013614
2.16356e-06
0.000147189
4.9342e-06
0.000159108
7.94101e-06
0.000171974
1.11969e-05
0.000185883
1.47321e-05
0.000200863
1.85579e-05
0.000217057
2.27086e-05
0.00023448
2.72006e-05
0.000253281
3.20673e-05
0.000273499
3.73353e-05
0.000295249
4.30307e-05
0.000318623
4.91952e-05
0.000343662
5.58513e-05
0.000370509
6.30378e-05
0.000399182
7.07938e-05
0.000429734
7.91494e-05
0.000462219
8.81417e-05
0.00049661
9.78108e-05
0.000532842
0.000108188
0.000570826
0.000119303
0.000610363
0.000131181
0.000651153
0.00014384
0.000692765
0.000157288
0.000734597
0.000171516
0.000775828
0.000186497
0.000815362
0.000202173
0.00085176
0.000218458
0.000883161
0.000235216
0.000907189
0.000252264
0.000920852
0.000269338
0.000920466
0.000286097
0.000901494
0.000302086
0.00085847
0.000316703
0.000784635
0.00032939
0.000671989
0.00033826
0.000512303
0.000292345
0.00033968
-2.57741e-05
2.2187e-05
2.6151e-05
-2.53694e-05
2.39906e-05
-2.49316e-05
2.5941e-05
-2.44586e-05
2.80503e-05
-2.3947e-05
3.03313e-05
-2.33941e-05
3.27981e-05
-2.27962e-05
3.54659e-05
-2.215e-05
3.83511e-05
-2.14504e-05
4.14681e-05
-2.06936e-05
4.48396e-05
-1.98752e-05
4.84885e-05
-1.89907e-05
5.24348e-05
-1.8034e-05
5.67025e-05
-1.69977e-05
6.13083e-05
-1.58738e-05
6.62859e-05
-1.4659e-05
7.16818e-05
-1.33451e-05
7.75169e-05
-1.19185e-05
8.38007e-05
-1.03719e-05
9.06061e-05
-8.70004e-06
9.79799e-05
-6.8845e-06
0.000105922
-4.91494e-06
0.00011451
-2.78504e-06
0.000123821
-4.67629e-07
0.000133824
2.04089e-06
0.000144682
4.76145e-06
0.000156388
7.71363e-06
0.000169023
1.09102e-05
0.000182688
1.43807e-05
0.000197394
1.81364e-05
0.000213302
2.2211e-05
0.000230407
2.66206e-05
0.000248872
3.1398e-05
0.000268723
3.65692e-05
0.000290079
4.216e-05
0.000313034
4.82118e-05
0.000337612
5.47465e-05
0.000363976
6.18027e-05
0.000392127
6.94191e-05
0.000422119
7.76253e-05
0.000454015
8.64581e-05
0.000487779
9.59571e-05
0.000523345
0.000106153
0.000560632
0.000117075
0.000599443
0.000128748
0.000639482
0.00014119
0.000680325
0.000154407
0.000721382
0.000168391
0.000761845
0.000183115
0.000800639
0.000198523
0.000836352
0.000214529
0.000867155
0.000230998
0.000890718
0.000247749
0.000904103
0.00026452
0.000903697
0.000280974
0.000885046
0.000296672
0.000842778
0.000310996
0.000770323
0.000323369
0.000659628
0.000332379
0.000503315
0.000290071
0.000334681
-2.54099e-05
2.18214e-05
2.57804e-05
-2.50125e-05
2.35952e-05
-2.45827e-05
2.55134e-05
-2.41183e-05
2.75877e-05
-2.36162e-05
2.9831e-05
-2.30735e-05
3.2257e-05
-2.24866e-05
3.48807e-05
-2.18521e-05
3.77181e-05
-2.11653e-05
4.07827e-05
-2.04221e-05
4.40977e-05
-1.96184e-05
4.76862e-05
-1.87496e-05
5.15671e-05
-1.781e-05
5.57641e-05
-1.6792e-05
6.02914e-05
-1.56879e-05
6.51832e-05
-1.44944e-05
7.04894e-05
-1.32036e-05
7.62275e-05
-1.18022e-05
8.24002e-05
-1.02828e-05
8.90881e-05
-8.64043e-06
9.63385e-05
-6.85701e-06
0.000104139
-4.92239e-06
0.000112576
-2.83043e-06
0.00012173
-5.54472e-07
0.000131549
1.90895e-06
0.00014222
4.58038e-06
0.000153718
7.47909e-06
0.000166125
1.06176e-05
0.00017955
1.40252e-05
0.000193987
1.77127e-05
0.000209616
2.17135e-05
0.000226407
2.60432e-05
0.000244543
3.07341e-05
0.000264034
3.5812e-05
0.000285003
4.13022e-05
0.000307545
4.72453e-05
0.000331671
5.36632e-05
0.000357559
6.05939e-05
0.000385198
6.80754e-05
0.000414639
7.6137e-05
0.000445955
8.4815e-05
0.000479102
9.41482e-05
0.000514013
0.000104167
0.000550614
0.000114899
0.000588712
0.000126369
0.000628013
0.000138596
0.0006681
0.000151584
0.000708395
0.000165326
0.000748104
0.000179795
0.000786172
0.000194937
0.000821211
0.000210666
0.000851428
0.000226849
0.000874537
0.000243304
0.000887654
0.000259774
0.000887234
0.000275927
0.000868906
0.000291332
0.000827383
0.000305381
0.000756292
0.000317439
0.000647585
0.000326314
0.000494463
0.000287015
0.0003294
-2.50452e-05
2.1462e-05
2.54092e-05
-2.46548e-05
2.32067e-05
-2.42327e-05
2.50933e-05
-2.37768e-05
2.71336e-05
-2.32839e-05
2.93399e-05
-2.27512e-05
3.17259e-05
-2.21753e-05
3.43063e-05
-2.15528e-05
3.7097e-05
-2.08789e-05
4.01101e-05
-2.01497e-05
4.33696e-05
-1.9361e-05
4.68987e-05
-1.85084e-05
5.07154e-05
-1.75861e-05
5.4843e-05
-1.65869e-05
5.9293e-05
-1.55029e-05
6.41004e-05
-1.43312e-05
6.93185e-05
-1.30638e-05
7.49614e-05
-1.16877e-05
8.1025e-05
-1.01957e-05
8.75974e-05
-8.58278e-06
9.47266e-05
-6.83136e-06
0.000102389
-4.93143e-06
0.000110677
-2.87701e-06
0.000119677
-6.41905e-07
0.000129315
1.77723e-06
0.000139802
4.40061e-06
0.000151096
7.24717e-06
0.00016328
1.03292e-05
0.000176469
1.36756e-05
0.000190642
1.72969e-05
0.000205995
2.12259e-05
0.000222479
2.54781e-05
0.000240292
3.00853e-05
0.000259428
3.50726e-05
0.000280017
4.04651e-05
0.000302154
4.63028e-05
0.000325834
5.2607e-05
0.000351257
5.94153e-05
0.000378391
6.6765e-05
0.000407291
7.46849e-05
0.000438036
8.32107e-05
0.000470578
9.23805e-05
0.000504845
0.000102224
0.000540773
0.000112768
0.00057817
0.000124038
0.000616745
0.000136051
0.00065609
0.000148813
0.000695636
0.000162315
0.000734604
0.000176533
0.000771957
0.000191411
0.000806335
0.000206867
0.000835976
0.000222766
0.000858639
0.00023893
0.000871497
0.000255104
0.000871068
0.00027096
0.000853061
0.000286078
0.000812276
0.000299866
0.000742519
0.000311635
0.000635834
0.000320392
0.000485732
0.000283326
0.000324115
-2.4683e-05
2.11086e-05
2.5041e-05
-2.42992e-05
2.28248e-05
-2.38843e-05
2.46806e-05
-2.34364e-05
2.66874e-05
-2.29522e-05
2.88576e-05
-2.24292e-05
3.12045e-05
-2.18639e-05
3.37425e-05
-2.12528e-05
3.64873e-05
-2.05915e-05
3.94501e-05
-1.98759e-05
4.26552e-05
-1.9102e-05
4.61261e-05
-1.82653e-05
4.98797e-05
-1.73603e-05
5.39393e-05
-1.63796e-05
5.83133e-05
-1.53159e-05
6.30379e-05
-1.41658e-05
6.81694e-05
-1.29218e-05
7.37186e-05
-1.15708e-05
7.9675e-05
-1.01061e-05
8.61339e-05
-8.52258e-06
9.3144e-05
-6.80296e-06
0.000100671
-4.93741e-06
0.000108813
-2.92009e-06
0.000117661
-7.25265e-07
0.000127121
1.65036e-06
0.000137428
4.22662e-06
0.00014852
7.02214e-06
0.000160485
1.0049e-05
0.000173443
1.33355e-05
0.000187357
1.68922e-05
0.000202439
2.07512e-05
0.00021862
2.49278e-05
0.000236116
2.94531e-05
0.000254904
3.4352e-05
0.00027512
3.9649e-05
0.000296859
4.53834e-05
0.000320102
5.15764e-05
0.000345065
5.82645e-05
0.000371705
6.54847e-05
0.000400072
7.32652e-05
0.000430257
8.16411e-05
0.000462204
9.06496e-05
0.000495838
0.00010032
0.000531104
0.000110679
0.000567812
0.000121751
0.000605674
0.000133553
0.000644289
0.000146091
0.000683099
0.000159358
0.000721338
0.000173327
0.000757989
0.000187945
0.000791717
0.00020313
0.000820793
0.000218749
0.000843021
0.000234625
0.000855627
0.000250507
0.000855192
0.000266072
0.000837507
0.000280909
0.000797448
0.000294448
0.000728994
0.000305964
0.000624329
0.000314596
0.000477117
0.000279374
0.000318569
-2.4331e-05
2.07611e-05
2.46828e-05
-2.39535e-05
2.24491e-05
-2.35455e-05
2.42746e-05
-2.3105e-05
2.62486e-05
-2.26289e-05
2.83833e-05
-2.21147e-05
3.06918e-05
-2.1559e-05
3.31883e-05
-2.09586e-05
3.58881e-05
-2.03088e-05
3.88016e-05
-1.96059e-05
4.19534e-05
-1.88459e-05
4.53672e-05
-1.80244e-05
4.90591e-05
-1.71359e-05
5.30518e-05
-1.61732e-05
5.73514e-05
-1.51288e-05
6.19947e-05
-1.39998e-05
6.70412e-05
-1.27785e-05
7.24985e-05
-1.14523e-05
7.83496e-05
-1.00142e-05
8.46971e-05
-8.4595e-06
9.15902e-05
-6.77111e-06
9.89837e-05
-4.93937e-06
0.000106982
-2.95855e-06
0.000115681
-8.03333e-07
0.000124967
1.52952e-06
0.000135096
4.05953e-06
0.000145991
6.80495e-06
0.000157741
9.77771e-06
0.000170471
1.30055e-05
0.00018413
1.64988e-05
0.000198947
2.02891e-05
0.000214831
2.43914e-05
0.000232015
2.88365e-05
0.00025046
3.36485e-05
0.000270309
3.88518e-05
0.000291657
4.44848e-05
0.00031447
5.05683e-05
0.000338983
5.71383e-05
0.000365136
6.4231e-05
0.000392981
7.18743e-05
0.000422616
8.01024e-05
0.000453977
8.89521e-05
0.00048699
9.8452e-05
0.000521606
0.000108629
0.000557637
0.000119506
0.000594799
0.0001311
0.000632698
0.000143418
0.000670784
0.000156451
0.000708308
0.000170174
0.00074427
0.000184535
0.000777359
0.000199451
0.000805881
0.000214792
0.000827683
0.000230381
0.000840044
0.000245974
0.000839607
0.000261254
0.000822239
0.000275814
0.0007829
0.00028911
0.000715714
0.000300406
0.000613051
0.000308877
0.000468673
0.000275471
0.000312816
-2.39889e-05
2.04198e-05
2.43351e-05
-2.36177e-05
2.208e-05
-2.32165e-05
2.38754e-05
-2.27831e-05
2.58171e-05
-2.23148e-05
2.79168e-05
-2.18089e-05
3.01876e-05
-2.12624e-05
3.26433e-05
-2.06719e-05
3.5299e-05
-2.0033e-05
3.81641e-05
-1.9342e-05
4.12636e-05
-1.85951e-05
4.46214e-05
-1.77877e-05
4.82528e-05
-1.69147e-05
5.218e-05
-1.5969e-05
5.64066e-05
-1.49433e-05
6.09702e-05
-1.38344e-05
6.59333e-05
-1.26351e-05
7.13004e-05
-1.13327e-05
7.70481e-05
-9.9207e-06
8.32862e-05
-8.39408e-06
9.00645e-05
-6.73627e-06
9.7327e-05
-4.93766e-06
0.000105184
-2.99264e-06
0.000113737
-8.76316e-07
0.000122851
1.41452e-06
0.000132806
3.89907e-06
0.000143508
6.59525e-06
0.000155046
9.51478e-06
0.000167553
1.26849e-05
0.000180961
1.61158e-05
0.000195517
1.98386e-05
0.000211109
2.3868e-05
0.000227986
2.82338e-05
0.000246095
3.29605e-05
0.000265584
3.80714e-05
0.000286548
4.36046e-05
0.000308938
4.95804e-05
0.000333009
5.60342e-05
0.000358684
6.30015e-05
0.000386015
7.05097e-05
0.000415109
7.85924e-05
0.000445896
8.72858e-05
0.000478298
9.6618e-05
0.000512275
0.000106615
0.000547641
0.000117301
0.000584114
0.00012869
0.000621309
0.00014079
0.000658685
0.000153593
0.000695505
0.000167073
0.00073079
0.000181179
0.000763254
0.000195827
0.000791234
0.00021089
0.00081262
0.000226195
0.000824742
0.000241502
0.000824304
0.0002565
0.000807248
0.000270788
0.000768618
0.000283845
0.000702667
0.000294941
0.000601961
0.000303259
0.000460365
0.000271572
0.000307169
-2.365e-05
2.00849e-05
2.39893e-05
-2.32857e-05
2.17176e-05
-2.28917e-05
2.34834e-05
-2.24659e-05
2.5393e-05
-2.20057e-05
2.74582e-05
-2.15084e-05
2.96917e-05
-2.0971e-05
3.21073e-05
-2.03903e-05
3.47196e-05
-1.9762e-05
3.75371e-05
-1.90826e-05
4.05852e-05
-1.83482e-05
4.38881e-05
-1.75547e-05
4.746e-05
-1.66967e-05
5.13229e-05
-1.57673e-05
5.5478e-05
-1.47595e-05
5.99634e-05
-1.36702e-05
6.48447e-05
-1.24921e-05
7.01234e-05
-1.1213e-05
7.57698e-05
-9.82622e-06
8.19006e-05
-8.32702e-06
8.85662e-05
-6.69906e-06
9.57001e-05
-4.93288e-06
0.000103419
-3.02297e-06
0.000111829
-9.44832e-07
0.000120774
1.30471e-06
0.000130558
3.74455e-06
0.000141069
6.39227e-06
0.000152399
9.25943e-06
0.000164686
1.23727e-05
0.000177848
1.57423e-05
0.000192148
1.93985e-05
0.000207453
2.3356e-05
0.00022403
2.76442e-05
0.000241808
3.22867e-05
0.000260943
3.73068e-05
0.000281529
4.27417e-05
0.000303504
4.86115e-05
0.00032714
5.49508e-05
0.000352346
6.17947e-05
0.000379172
6.917e-05
0.000407735
7.71097e-05
0.000437957
8.56494e-05
0.00046976
9.48166e-05
0.00050311
0.000104637
0.000537822
0.000115134
0.00057362
0.000126322
0.000610123
0.000138208
0.000646802
0.000150784
0.000682933
0.000164023
0.000717555
0.000177875
0.000749405
0.000192258
0.000776856
0.000207046
0.000797835
0.000222069
0.000809725
0.000237094
0.000809288
0.000251814
0.000792539
0.000265835
0.000754609
0.000278656
0.000689862
0.000289565
0.000591068
0.000297778
0.000452177
0.000267561
0.000301822
-2.33044e-05
1.97569e-05
2.36369e-05
-2.29475e-05
2.13626e-05
-2.25614e-05
2.30992e-05
-2.2144e-05
2.49773e-05
-2.16926e-05
2.70085e-05
-2.12046e-05
2.92053e-05
-2.06771e-05
3.15812e-05
-2.01068e-05
3.41508e-05
-1.94899e-05
3.69213e-05
-1.88224e-05
3.99189e-05
-1.8101e-05
4.31678e-05
-1.73213e-05
4.66814e-05
-1.64784e-05
5.04812e-05
-1.55654e-05
5.45659e-05
-1.45754e-05
5.89745e-05
-1.35054e-05
6.37756e-05
-1.23485e-05
6.89675e-05
-1.10922e-05
7.45144e-05
-9.73041e-06
8.05399e-05
-8.25823e-06
8.70949e-05
-6.65969e-06
9.41027e-05
-4.92545e-06
0.000101685
-3.0501e-06
0.000109954
-1.00954e-06
0.000118734
1.19936e-06
0.00012835
3.59518e-06
0.000138674
6.19521e-06
0.0001498
9.01079e-06
0.000161872
1.20682e-05
0.000174792
1.53773e-05
0.00018884
1.89681e-05
0.000203863
2.28549e-05
0.000220144
2.70664e-05
0.000237598
3.16263e-05
0.000256384
3.65569e-05
0.0002766
4.18952e-05
0.000298167
4.76606e-05
0.000321376
5.38875e-05
0.00034612
6.061e-05
0.000372451
6.78545e-05
0.000400492
7.56536e-05
0.000430159
8.40422e-05
0.000461372
9.30473e-05
0.000494106
0.000102694
0.000528176
0.000113005
0.00056331
0.000123995
0.000599134
0.00013567
0.000635127
0.000148021
0.000670582
0.000161023
0.000704553
0.000174625
0.000735804
0.000188745
0.000762736
0.000203261
0.000783317
0.000218007
0.00079498
0.000232753
0.000794544
0.000247203
0.000778094
0.000260964
0.000740851
0.000273553
0.000677279
0.00028428
0.000580343
0.00029243
0.000444032
0.000263245
0.000296748
-2.29487e-05
1.9436e-05
2.32735e-05
-2.25996e-05
2.10152e-05
-2.22219e-05
2.27232e-05
-2.18133e-05
2.45703e-05
-2.13714e-05
2.65681e-05
-2.08934e-05
2.87287e-05
-2.03765e-05
3.10655e-05
-1.98175e-05
3.3593e-05
-1.92125e-05
3.63174e-05
-1.85579e-05
3.92652e-05
-1.785e-05
4.2461e-05
-1.7085e-05
4.59171e-05
-1.62577e-05
4.96548e-05
-1.53616e-05
5.36704e-05
-1.43898e-05
5.80037e-05
-1.33394e-05
6.2726e-05
-1.22035e-05
6.78326e-05
-1.09702e-05
7.32819e-05
-9.63326e-06
7.9204e-05
-8.18792e-06
8.56505e-05
-6.6185e-06
9.25343e-05
-4.91582e-06
9.99837e-05
-3.07458e-06
0.000108114
-1.07108e-06
0.000116732
1.09776e-06
0.000126182
3.45022e-06
0.000136322
6.00327e-06
0.000147248
8.7681e-06
0.000159108
1.17705e-05
0.00017179
1.50202e-05
0.000185591
1.85467e-05
0.000200338
2.23638e-05
0.000216327
2.65002e-05
0.000233462
3.09786e-05
0.000251907
3.58214e-05
0.000271758
4.10645e-05
0.000292925
4.67274e-05
0.000315714
5.28436e-05
0.000340005
5.94467e-05
0.000365849
6.65627e-05
0.000393377
7.42236e-05
0.0004225
8.24635e-05
0.000453134
9.1309e-05
0.000485262
0.000100785
0.000518702
0.000110913
0.000553184
0.000121708
0.000588341
0.000133175
0.000623663
0.000145305
0.000658455
0.000158072
0.000691789
0.000171427
0.000722453
0.000185289
0.000748878
0.000199538
0.000769071
0.000214011
0.000780513
0.000228486
0.000780078
0.00024267
0.00076392
0.00025618
0.000727353
0.000268542
0.000664931
0.000279092
0.000569809
0.000287189
0.000435957
0.000258653
0.000291811
-2.25852e-05
1.9122e-05
2.2904e-05
-2.22435e-05
2.06755e-05
-2.18738e-05
2.23556e-05
-2.14742e-05
2.41725e-05
-2.10419e-05
2.61375e-05
-2.05743e-05
2.82627e-05
-2.00685e-05
3.05612e-05
-1.95214e-05
3.30473e-05
-1.89292e-05
3.57263e-05
-1.82879e-05
3.86252e-05
-1.75945e-05
4.17686e-05
-1.68446e-05
4.51683e-05
-1.60337e-05
4.88449e-05
-1.51549e-05
5.27926e-05
-1.42018e-05
5.70517e-05
-1.31714e-05
6.16965e-05
-1.20571e-05
6.67193e-05
-1.08468e-05
7.20726e-05
-9.53488e-06
7.78931e-05
-8.11634e-06
8.42328e-05
-6.57594e-06
9.09949e-05
-4.90458e-06
9.83132e-05
-3.0971e-06
0.000106308
-1.13018e-06
0.000114766
9.99169e-07
0.000124053
3.30892e-06
0.000134013
5.81576e-06
0.000144742
8.53066e-06
0.000156394
1.1479e-05
0.000168842
1.46703e-05
0.0001824
1.81335e-05
0.000196875
2.18824e-05
0.000212579
2.59447e-05
0.000229401
3.03432e-05
0.00024751
3.50996e-05
0.000267003
4.02493e-05
0.000287777
4.58113e-05
0.000310153
5.18187e-05
0.000333999
5.83044e-05
0.000359365
6.52939e-05
0.000386388
7.28187e-05
0.000414976
8.09122e-05
0.000445041
8.96005e-05
0.000476574
9.8908e-05
0.000509395
0.000108856
0.000543237
0.000119458
0.000577739
0.000130719
0.000612402
0.000142631
0.000646543
0.000155168
0.000679252
0.000168279
0.00070934
0.000181888
0.000735269
0.000195875
0.000755082
0.000210082
0.000766305
0.000224291
0.000765869
0.000238219
0.000749995
0.000251486
0.000714087
0.000263628
0.000652791
0.000274003
0.000559434
0.000282031
0.000427929
0.000253789
0.000286891
-2.22244e-05
1.88138e-05
2.25365e-05
-2.18896e-05
2.03424e-05
-2.15276e-05
2.19954e-05
-2.11364e-05
2.37829e-05
-2.07133e-05
2.57159e-05
-2.02557e-05
2.78065e-05
-1.97608e-05
3.00676e-05
-1.92253e-05
3.25131e-05
-1.86456e-05
3.51476e-05
-1.80178e-05
3.79985e-05
-1.73388e-05
4.10905e-05
-1.66043e-05
4.44346e-05
-1.58098e-05
4.80512e-05
-1.49486e-05
5.19321e-05
-1.40143e-05
5.61183e-05
-1.3004e-05
6.06869e-05
-1.19111e-05
6.56273e-05
-1.07239e-05
7.08863e-05
-9.43676e-06
7.66069e-05
-8.04484e-06
8.28417e-05
-6.53314e-06
8.94842e-05
-4.89273e-06
9.66736e-05
-3.11855e-06
0.000104534
-1.18769e-06
0.000112836
9.02778e-07
0.000121964
3.17054e-06
0.000131746
5.63194e-06
0.000142281
8.29781e-06
0.000153729
1.1193e-05
0.000165948
1.4327e-05
0.000179267
1.77281e-05
0.000193474
2.14098e-05
0.000208898
2.53997e-05
0.000225412
2.97195e-05
0.000243191
3.4391e-05
0.000262333
3.94488e-05
0.00028272
4.49117e-05
0.000304691
5.08119e-05
0.000328099
5.7182e-05
0.000352996
6.40469e-05
0.000379525
7.14376e-05
0.000407587
7.93867e-05
0.000437093
8.792e-05
0.000468043
9.70611e-05
0.000500256
0.000106831
0.000533469
0.000117243
0.00056733
0.000128302
0.000601346
0.000139998
0.000634849
0.000152307
0.000666947
0.00016518
0.000696471
0.000178539
0.000721914
0.000192269
0.000741354
0.000206217
0.000752363
0.000220169
0.000751925
0.000233847
0.000736326
0.00024688
0.000701065
0.000258812
0.000640872
0.000269016
0.000549244
0.000276945
0.00042002
0.000248829
0.000281931
-2.18764e-05
1.85107e-05
2.21837e-05
-2.15474e-05
2.00151e-05
-2.11919e-05
2.16418e-05
-2.08081e-05
2.34007e-05
-2.03934e-05
2.53027e-05
-1.9945e-05
2.73596e-05
-1.94602e-05
2.95841e-05
-1.89358e-05
3.199e-05
-1.8368e-05
3.4581e-05
-1.77532e-05
3.73847e-05
-1.7088e-05
4.04264e-05
-1.63684e-05
4.3716e-05
-1.55899e-05
4.72737e-05
-1.47458e-05
5.10889e-05
-1.383e-05
5.52035e-05
-1.28394e-05
5.96972e-05
-1.17677e-05
6.45566e-05
-1.06033e-05
6.97228e-05
-9.34064e-06
7.53452e-05
-7.97494e-06
8.14769e-05
-6.49151e-06
8.80017e-05
-4.88155e-06
9.50645e-05
-3.1401e-06
0.000102794
-1.24465e-06
0.000110941
8.07668e-07
0.000119912
3.03421e-06
0.000129521
5.45106e-06
0.000139865
8.06883e-06
0.000151112
1.0912e-05
0.000163106
1.39897e-05
0.00017619
1.73298e-05
0.000190135
2.09457e-05
0.000205283
2.48641e-05
0.000221494
2.91068e-05
0.000238949
3.36948e-05
0.000257746
3.86623e-05
0.000277754
4.40275e-05
0.000299327
4.98223e-05
0.000322306
5.60785e-05
0.00034674
6.28207e-05
0.000372783
7.0079e-05
0.000400329
7.78857e-05
0.000429287
8.62659e-05
0.000459663
9.52428e-05
0.00049128
0.000104836
0.000523876
0.000115061
0.000557106
0.000125919
0.000590487
0.000137403
0.000623364
0.000149488
0.000654861
0.000162126
0.000683833
0.000175241
0.000708798
0.000188721
0.00072787
0.000202417
0.000738666
0.000216118
0.000738223
0.000229555
0.00072289
0.000242361
0.000688259
0.000254091
0.000629142
0.000264129
0.000539201
0.000271934
0.00041221
0.000243817
0.000276937
-2.15513e-05
1.82117e-05
2.18536e-05
-2.12273e-05
1.96925e-05
-2.08774e-05
2.12935e-05
-2.04999e-05
2.30245e-05
-2.00921e-05
2.48962e-05
-1.96516e-05
2.69203e-05
-1.91755e-05
2.91092e-05
-1.86609e-05
3.14764e-05
-1.81037e-05
3.40248e-05
-1.75007e-05
3.67826e-05
-1.68484e-05
3.97749e-05
-1.61429e-05
4.30111e-05
-1.53793e-05
4.6511e-05
-1.45517e-05
5.02618e-05
-1.36534e-05
5.43061e-05
-1.26818e-05
5.87262e-05
-1.16304e-05
6.35061e-05
-1.04881e-05
6.85812e-05
-9.24901e-06
7.41071e-05
-7.90878e-06
8.01375e-05
-6.45283e-06
8.65467e-05
-4.87253e-06
9.3485e-05
-3.16302e-06
0.000101085
-1.30215e-06
0.000109081
7.12863e-07
0.000117898
2.8991e-06
0.000127335
5.27234e-06
0.000137493
7.84301e-06
0.000148542
1.06351e-05
0.000160314
1.36577e-05
0.000173168
1.6938e-05
0.000186855
2.04891e-05
0.000201732
2.43375e-05
0.000217647
2.85042e-05
0.000234784
3.30102e-05
0.000253241
3.78888e-05
0.000272876
4.3158e-05
0.000294059
4.88489e-05
0.000316616
5.49928e-05
0.000340597
6.16139e-05
0.000366163
6.87417e-05
0.000393203
7.64078e-05
0.000421623
8.46368e-05
0.000451436
9.34515e-05
0.000482467
0.000102872
0.000514458
0.00011291
0.000547069
0.000123571
0.000579829
0.000134846
0.000612092
0.000146711
0.000643
0.000159117
0.000671429
0.000171994
0.000695925
0.00018523
0.000714636
0.00019868
0.000725222
0.000212138
0.000724771
0.000225341
0.000709697
0.000237928
0.000675681
0.000249462
0.000617619
0.000259341
0.000529335
0.000267006
0.000404562
0.000238904
0.000271943
-2.12526e-05
1.79166e-05
2.1552e-05
-2.09324e-05
1.93742e-05
-2.05871e-05
2.095e-05
-2.02146e-05
2.26538e-05
-1.98128e-05
2.4496e-05
-1.9379e-05
2.6488e-05
-1.89106e-05
2.86421e-05
-1.84044e-05
3.09716e-05
-1.78569e-05
3.34784e-05
-1.72644e-05
3.61912e-05
-1.66237e-05
3.91353e-05
-1.59308e-05
4.23192e-05
-1.51813e-05
4.57625e-05
-1.43687e-05
4.94502e-05
-1.3487e-05
5.34254e-05
-1.25332e-05
5.77734e-05
-1.15013e-05
6.24751e-05
-1.03799e-05
6.74607e-05
-9.16365e-06
7.28917e-05
-7.84792e-06
7.88226e-05
-6.41855e-06
8.51183e-05
-4.86697e-06
9.19342e-05
-3.18845e-06
9.94076e-05
-1.36121e-06
0.000107254
6.17466e-07
0.00011592
2.76439e-06
0.000125189
5.09503e-06
0.000135163
7.61964e-06
0.000146018
1.03618e-05
0.000157573
1.33303e-05
0.0001702
1.6552e-05
0.000183634
2.00396e-05
0.000198245
2.3819e-05
0.000213868
2.79112e-05
0.000230693
3.23364e-05
0.000248816
3.71275e-05
0.000268086
4.2302e-05
0.000288885
4.78906e-05
0.000311028
5.39239e-05
0.000334565
6.04256e-05
0.000359663
6.74247e-05
0.000386205
7.49522e-05
0.000414096
8.30321e-05
0.000443356
9.16867e-05
0.000473813
0.000100935
0.000505209
0.000110791
0.000537214
0.000121258
0.000569362
0.000132327
0.000601022
0.000143975
0.000631352
0.000156156
0.000659246
0.000168799
0.00068328
0.000181798
0.000701634
0.000195008
0.000712009
0.00020823
0.000711548
0.000221205
0.000696721
0.00023358
0.000663304
0.000244925
0.000606272
0.000254649
0.000519605
0.00026217
0.000397034
0.000234066
0.000266993
-2.09815e-05
1.76249e-05
2.12767e-05
-2.06653e-05
1.90594e-05
-2.03242e-05
2.06104e-05
-1.99564e-05
2.22874e-05
-1.95597e-05
2.41006e-05
-1.91316e-05
2.60611e-05
-1.86695e-05
2.81812e-05
-1.81706e-05
3.04738e-05
-1.76312e-05
3.294e-05
-1.70479e-05
3.56087e-05
-1.64174e-05
3.85056e-05
-1.5736e-05
4.16384e-05
-1.49989e-05
4.50262e-05
-1.42002e-05
4.8652e-05
-1.33337e-05
5.25596e-05
-1.23966e-05
5.68368e-05
-1.13826e-05
6.1462e-05
-1.0281e-05
6.63597e-05
-9.08621e-06
7.16978e-05
-7.79382e-06
7.7531e-05
-6.38985e-06
8.37152e-05
-4.86589e-06
9.0411e-05
-3.21728e-06
9.77599e-05
-1.42261e-06
0.000105461
5.20776e-07
0.000113978
2.62943e-06
0.000123081
4.91854e-06
0.000132875
7.39817e-06
0.000143539
1.00914e-05
0.00015488
1.30069e-05
0.000167285
1.61711e-05
0.00018047
1.95963e-05
0.00019482
2.33082e-05
0.000210157
2.73269e-05
0.000226675
3.16727e-05
0.000244472
3.63776e-05
0.000263382
4.1459e-05
0.000283805
4.69468e-05
0.000305541
5.28711e-05
0.000328642
5.92551e-05
0.00035328
6.61274e-05
0.000379333
7.35182e-05
0.000406706
8.14513e-05
0.000435425
8.99483e-05
0.000465317
9.90284e-05
0.000496131
0.000108704
0.00052754
0.00011898
0.000559089
0.000129847
0.000590157
0.000141283
0.000619919
0.000153243
0.000647289
0.000165659
0.000670868
0.000178425
0.000688869
0.000191402
0.000699037
0.000204395
0.000698561
0.000217148
0.000683976
0.000229316
0.000651144
0.000240476
0.000595122
0.00025005
0.000510043
0.000257429
0.000389668
0.000229393
0.000262121
-2.0733e-05
1.73368e-05
2.10248e-05
-2.04205e-05
1.87486e-05
-2.00835e-05
2.0275e-05
-1.97201e-05
2.19255e-05
-1.93282e-05
2.371e-05
-1.89054e-05
2.56397e-05
-1.84493e-05
2.77263e-05
-1.79571e-05
2.99827e-05
-1.74251e-05
3.2409e-05
-1.685e-05
3.50347e-05
-1.62287e-05
3.78853e-05
-1.55574e-05
4.0968e-05
-1.48318e-05
4.43015e-05
-1.40456e-05
4.78667e-05
-1.31931e-05
5.1708e-05
-1.22713e-05
5.59159e-05
-1.12743e-05
6.0466e-05
-1.01913e-05
6.52775e-05
-9.01694e-06
7.05244e-05
-7.74677e-06
7.62616e-05
-6.36712e-06
8.23364e-05
-4.86969e-06
8.89144e-05
-3.24992e-06
9.61409e-05
-1.48677e-06
0.000103698
4.22389e-07
0.00011207
2.49383e-06
0.00012101
4.74246e-06
0.000130627
7.17815e-06
0.000141104
9.82357e-06
0.000152236
1.26872e-05
0.000164422
1.5795e-05
0.000177363
1.9159e-05
0.000191457
2.28042e-05
0.000206513
2.67509e-05
0.000222729
3.10185e-05
0.000240205
3.56387e-05
0.000258762
4.06283e-05
0.000278816
4.6017e-05
0.000300153
5.1834e-05
0.000322825
5.81022e-05
0.000347012
6.48496e-05
0.000372587
7.21061e-05
0.00039945
7.98946e-05
0.000427636
8.82368e-05
0.000456975
9.71512e-05
0.000487216
0.00010665
0.00051804
0.000116739
0.000549
0.000127408
0.000579487
0.000138637
0.000608689
0.000150381
0.000635543
0.000162575
0.000658673
0.000175115
0.000676325
0.000187865
0.000686283
0.000200634
0.00068579
0.000213171
0.000671438
0.000225137
0.000639175
0.000236115
0.00058414
0.000245541
0.00050061
0.000252788
0.00038241
0.00022481
0.000257351
-2.05019e-05
1.70526e-05
2.0789e-05
-2.01938e-05
1.84416e-05
-1.98611e-05
1.99436e-05
-1.95023e-05
2.15678e-05
-1.91151e-05
2.3324e-05
-1.86975e-05
2.52231e-05
-1.8247e-05
2.72767e-05
-1.77609e-05
2.94975e-05
-1.72356e-05
3.18847e-05
-1.66682e-05
3.4468e-05
-1.60554e-05
3.72733e-05
-1.53937e-05
4.03068e-05
-1.46785e-05
4.35871e-05
-1.39042e-05
4.70929e-05
-1.30647e-05
5.08693e-05
-1.21574e-05
5.50092e-05
-1.11762e-05
5.94856e-05
-1.01108e-05
6.42128e-05
-8.95568e-06
6.93701e-05
-7.70668e-06
7.50134e-05
-6.35027e-06
8.09808e-05
-4.87833e-06
8.74432e-05
-3.28636e-06
9.45498e-05
-1.5537e-06
0.000101966
3.22231e-07
0.000110194
2.35746e-06
0.000118976
4.56662e-06
0.000128418
6.9594e-06
0.000138712
9.55802e-06
0.000149638
1.23709e-05
0.00016161
1.54232e-05
0.000174311
1.87272e-05
0.000188153
2.23072e-05
0.000202933
2.61828e-05
0.000218854
3.03735e-05
0.000236015
3.49104e-05
0.000254226
3.98099e-05
0.000273917
4.51009e-05
0.000294863
5.08125e-05
0.000317115
5.69668e-05
0.000340859
6.35915e-05
0.000365963
7.07159e-05
0.000392327
7.83626e-05
0.000419991
8.65527e-05
0.000448786
9.53048e-05
0.000478466
0.000104631
0.000508716
0.000114536
0.000539097
0.000125012
0.000569013
0.000136038
0.000597666
0.000147572
0.000624011
0.000159549
0.000646699
0.000171869
0.000664007
0.000184398
0.000673758
0.000196948
0.000673245
0.000209273
0.00065912
0.000221041
0.000627415
0.000231841
0.000573349
0.000241119
0.000491341
0.000248243
0.000375298
0.000220377
0.00025269
-2.02802e-05
1.6773e-05
2.05637e-05
-1.99763e-05
1.81395e-05
-1.96482e-05
1.96172e-05