/*--------------------------------*- C++ -*----------------------------------*\
  =========                 |
  \\      /  F ield         | OpenFOAM: The Open Source CFD Toolbox
   \\    /   O peration     | Website:  https://openfoam.org
    \\  /    A nd           | Version:  6.0
     \\/     M anipulation  |
\*---------------------------------------------------------------------------*/
FoamFile
{
    version     2.0;
    format      ascii;
    class       volScalarField;
    location    "2.2";
    object      p;
}
// * * * * * * * * * * * * * * * * * * * * * * * * * * * * * * * * * * * * * //

dimensions      [0 2 -2 0 0 0 0];

internalField   nonuniform List<scalar> 
13500
(
0.09817
0.098193
0.097726
0.097234
0.096383
0.09581
0.09518
0.095726
0.097029
0.10127
0.12273
0.16606
0.09817
0.098193
0.097726
0.097234
0.096383
0.09581
0.09518
0.095726
0.097025
0.10133
0.12205
0.161
0.098171
0.098193
0.097727
0.097234
0.096383
0.09581
0.095178
0.095725
0.097016
0.10138
0.12117
0.15651
0.098171
0.098194
0.097727
0.097235
0.096383
0.09581
0.095175
0.095722
0.097
0.1014
0.12019
0.15302
0.098173
0.098196
0.097729
0.097236
0.096383
0.095809
0.095172
0.095718
0.09698
0.10141
0.11915
0.15007
0.098174
0.098197
0.09773
0.097237
0.096384
0.095809
0.095169
0.095713
0.096954
0.1014
0.11808
0.14745
0.098176
0.098199
0.097732
0.097238
0.096384
0.095808
0.095164
0.095706
0.096924
0.10139
0.11699
0.14507
0.098178
0.098202
0.097734
0.09724
0.096384
0.095807
0.095159
0.095698
0.096888
0.10136
0.11592
0.14289
0.098181
0.098204
0.097736
0.097242
0.096385
0.095806
0.095154
0.095689
0.096848
0.10131
0.11487
0.14087
0.098184
0.098207
0.097739
0.097244
0.096386
0.095804
0.095148
0.095679
0.096802
0.10125
0.11385
0.139
0.098187
0.09821
0.097742
0.097246
0.096386
0.095802
0.095141
0.095667
0.096752
0.10118
0.11286
0.13724
0.098191
0.098214
0.097745
0.097248
0.096387
0.095801
0.095134
0.095655
0.096696
0.1011
0.11192
0.13557
0.098195
0.098218
0.097749
0.097251
0.096388
0.095798
0.095126
0.09564
0.096635
0.10101
0.11102
0.134
0.0982
0.098223
0.097753
0.097253
0.096389
0.095796
0.095118
0.095625
0.096569
0.10091
0.11016
0.1325
0.098205
0.098227
0.097757
0.097256
0.09639
0.095794
0.095109
0.095608
0.096498
0.1008
0.10934
0.13108
0.098211
0.098232
0.097761
0.09726
0.096391
0.095791
0.095099
0.095589
0.096421
0.10069
0.10855
0.12971
0.098216
0.098238
0.097766
0.097263
0.096392
0.095788
0.095089
0.095569
0.096339
0.10057
0.1078
0.12841
0.098223
0.098244
0.097772
0.097267
0.096394
0.095785
0.095078
0.095548
0.096252
0.10045
0.10708
0.12715
0.098229
0.09825
0.097777
0.097271
0.096395
0.095782
0.095067
0.095525
0.09616
0.10033
0.10638
0.12595
0.098236
0.098257
0.097783
0.097275
0.096397
0.095778
0.095055
0.095501
0.096064
0.1002
0.10571
0.12478
0.098244
0.098264
0.097789
0.097279
0.096398
0.095774
0.095043
0.095475
0.095963
0.10007
0.10505
0.12365
0.098252
0.098271
0.097796
0.097284
0.0964
0.09577
0.09503
0.095447
0.095858
0.099949
0.10441
0.12256
0.09826
0.098279
0.097803
0.097288
0.096402
0.095766
0.095016
0.095419
0.095748
0.099824
0.10379
0.1215
0.098269
0.098287
0.09781
0.097293
0.096404
0.095762
0.095003
0.095388
0.095636
0.0997
0.10318
0.12047
0.098278
0.098296
0.097818
0.097299
0.096406
0.095757
0.094988
0.095356
0.09552
0.099578
0.10258
0.11947
0.098288
0.098305
0.097826
0.097304
0.096408
0.095752
0.094973
0.095323
0.095401
0.099457
0.102
0.11849
0.098298
0.098314
0.097835
0.09731
0.096411
0.095747
0.094957
0.095288
0.095279
0.099337
0.10141
0.11754
0.098308
0.098324
0.097843
0.097316
0.096413
0.095742
0.094941
0.095251
0.095156
0.099218
0.10084
0.11661
0.098319
0.098334
0.097853
0.097322
0.096416
0.095736
0.094925
0.095213
0.09503
0.099101
0.10028
0.1157
0.098331
0.098345
0.097862
0.097329
0.096418
0.095731
0.094908
0.095174
0.094902
0.098984
0.099717
0.11481
0.098343
0.098356
0.097872
0.097336
0.096421
0.095725
0.09489
0.095133
0.094773
0.098868
0.099164
0.11394
0.098355
0.098368
0.097883
0.097343
0.096424
0.095719
0.094872
0.095091
0.094643
0.098753
0.098616
0.11308
0.098368
0.09838
0.097893
0.09735
0.096427
0.095713
0.094853
0.095048
0.094512
0.098637
0.098074
0.11224
0.098382
0.098392
0.097904
0.097358
0.096431
0.095706
0.094834
0.095004
0.09438
0.098521
0.097538
0.11142
0.098395
0.098405
0.097916
0.097366
0.096434
0.095699
0.094815
0.094959
0.094248
0.098404
0.097008
0.11062
0.09841
0.098419
0.097928
0.097374
0.096438
0.095693
0.094794
0.094913
0.094115
0.098287
0.096484
0.10983
0.098425
0.098433
0.09794
0.097383
0.096441
0.095686
0.094774
0.094866
0.093982
0.098169
0.095965
0.10906
0.09844
0.098447
0.097953
0.097392
0.096445
0.095678
0.094752
0.094818
0.093848
0.098049
0.095453
0.1083
0.098456
0.098462
0.097966
0.097401
0.096449
0.095671
0.094731
0.094769
0.093714
0.097928
0.094947
0.10756
0.098472
0.098477
0.09798
0.09741
0.096454
0.095664
0.094708
0.09472
0.09358
0.097805
0.094447
0.10683
0.098489
0.098493
0.097994
0.09742
0.096458
0.095656
0.094685
0.09467
0.093446
0.097681
0.093954
0.10611
0.098507
0.098509
0.098008
0.09743
0.096462
0.095648
0.094662
0.09462
0.093311
0.097555
0.093467
0.10541
0.098524
0.098526
0.098023
0.09744
0.096467
0.09564
0.094638
0.09457
0.093177
0.097426
0.092988
0.10472
0.098543
0.098543
0.098039
0.097451
0.096472
0.095632
0.094614
0.094519
0.093042
0.097296
0.092515
0.10404
0.098562
0.098561
0.098055
0.097462
0.096477
0.095624
0.094589
0.094468
0.092907
0.097163
0.092049
0.10337
0.098581
0.098579
0.098071
0.097474
0.096482
0.095616
0.094563
0.094416
0.092771
0.097029
0.091591
0.10272
0.098601
0.098598
0.098088
0.097485
0.096488
0.095608
0.094537
0.094365
0.092636
0.096892
0.091139
0.10208
0.098622
0.098617
0.098105
0.097497
0.096493
0.0956
0.09451
0.094313
0.0925
0.096753
0.090695
0.10145
0.098643
0.098637
0.098122
0.09751
0.096499
0.095591
0.094483
0.094262
0.092363
0.096612
0.090258
0.10083
0.098665
0.098658
0.09814
0.097523
0.096505
0.095583
0.094456
0.09421
0.092226
0.096468
0.089828
0.10022
0.098687
0.098679
0.098159
0.097536
0.096511
0.095574
0.094428
0.094159
0.092089
0.096323
0.089405
0.099627
0.09871
0.0987
0.098178
0.097549
0.096517
0.095566
0.094399
0.094107
0.091951
0.096175
0.08899
0.099041
0.098733
0.098722
0.098198
0.097563
0.096524
0.095557
0.09437
0.094055
0.091813
0.096026
0.088581
0.098464
0.098758
0.098745
0.098218
0.097577
0.096531
0.095549
0.09434
0.094004
0.091675
0.095874
0.088179
0.097897
0.098782
0.098768
0.098238
0.097592
0.096538
0.09554
0.09431
0.093952
0.091536
0.09572
0.087785
0.097339
0.098807
0.098791
0.098259
0.097607
0.096545
0.095532
0.094279
0.093901
0.091396
0.095564
0.087397
0.096791
0.098833
0.098816
0.098281
0.097623
0.096552
0.095523
0.094248
0.09385
0.091256
0.095407
0.087016
0.096251
0.09886
0.098841
0.098303
0.097638
0.09656
0.095515
0.094216
0.093799
0.091115
0.095248
0.086642
0.09572
0.098887
0.098866
0.098325
0.097655
0.096567
0.095507
0.094184
0.093747
0.090974
0.095087
0.086274
0.095198
0.098914
0.098892
0.098348
0.097671
0.096575
0.095498
0.094151
0.093696
0.090833
0.094924
0.085913
0.094684
0.098942
0.098919
0.098372
0.097689
0.096583
0.09549
0.094118
0.093645
0.090691
0.09476
0.085558
0.094178
0.098971
0.098946
0.098396
0.097706
0.096592
0.095482
0.094084
0.093594
0.090549
0.094594
0.085209
0.093679
0.099001
0.098974
0.098421
0.097724
0.096601
0.095474
0.09405
0.093543
0.090406
0.094426
0.084867
0.093189
0.099031
0.099002
0.098446
0.097742
0.096609
0.095466
0.094015
0.093492
0.090263
0.094258
0.08453
0.092705
0.099062
0.099032
0.098472
0.097761
0.096618
0.095459
0.09398
0.093441
0.09012
0.094087
0.0842
0.092229
0.099093
0.099061
0.098498
0.097781
0.096628
0.095451
0.093945
0.093389
0.089977
0.093916
0.083875
0.09176
0.099125
0.099092
0.098525
0.0978
0.096637
0.095444
0.093909
0.093338
0.089834
0.093743
0.083556
0.091297
0.099158
0.099123
0.098552
0.097821
0.096647
0.095436
0.093872
0.093287
0.08969
0.093569
0.083243
0.090842
0.099192
0.099155
0.09858
0.097842
0.096657
0.095429
0.093836
0.093236
0.089546
0.093394
0.082935
0.090392
0.099226
0.099187
0.098609
0.097863
0.096668
0.095422
0.093799
0.093185
0.089403
0.093218
0.082632
0.089949
0.099261
0.09922
0.098638
0.097884
0.096678
0.095415
0.093761
0.093133
0.089259
0.093041
0.082335
0.089512
0.099296
0.099254
0.098668
0.097907
0.096689
0.095409
0.093723
0.093082
0.089115
0.092862
0.082042
0.089082
0.099332
0.099288
0.098698
0.097929
0.0967
0.095402
0.093685
0.09303
0.088972
0.092683
0.081755
0.088657
0.099369
0.099323
0.098729
0.097953
0.096712
0.095396
0.093646
0.092979
0.088828
0.092503
0.081473
0.088237
0.099407
0.099359
0.098761
0.097976
0.096723
0.09539
0.093607
0.092927
0.088685
0.092322
0.081195
0.087823
0.099445
0.099396
0.098793
0.098001
0.096736
0.095385
0.093568
0.092875
0.088542
0.09214
0.080922
0.087415
0.099485
0.099433
0.098826
0.098026
0.096748
0.095379
0.093528
0.092823
0.088399
0.091958
0.080654
0.087012
0.099524
0.099471
0.098859
0.098051
0.096761
0.095374
0.093488
0.092771
0.088256
0.091775
0.08039
0.086614
0.099565
0.09951
0.098893
0.098077
0.096773
0.095369
0.093448
0.092719
0.088114
0.091591
0.080131
0.086221
0.099606
0.09955
0.098928
0.098103
0.096787
0.095364
0.093408
0.092666
0.087972
0.091406
0.079875
0.085833
0.099649
0.09959
0.098964
0.09813
0.0968
0.09536
0.093367
0.092614
0.087831
0.091221
0.079624
0.08545
0.099692
0.099631
0.099
0.098158
0.096814
0.095355
0.093326
0.092561
0.08769
0.091035
0.079377
0.085072
0.099735
0.099673
0.099037
0.098186
0.096829
0.095351
0.093285
0.092508
0.087549
0.090849
0.079134
0.084698
0.09978
0.099716
0.099074
0.098215
0.096843
0.095348
0.093244
0.092455
0.087409
0.090662
0.078895
0.084328
0.099825
0.099759
0.099112
0.098244
0.096859
0.095345
0.093202
0.092402
0.08727
0.090474
0.078659
0.083963
0.099872
0.099803
0.099151
0.098274
0.096874
0.095342
0.09316
0.092348
0.087131
0.090287
0.078427
0.083602
0.099919
0.099848
0.099191
0.098305
0.09689
0.095339
0.093118
0.092294
0.086992
0.090098
0.078199
0.083246
0.099966
0.099894
0.099232
0.098336
0.096906
0.095337
0.093076
0.092241
0.086854
0.08991
0.077974
0.082893
0.10002
0.099941
0.099273
0.098368
0.096923
0.095335
0.093034
0.092186
0.086717
0.089721
0.077752
0.082544
0.10006
0.099989
0.099315
0.098401
0.09694
0.095333
0.092991
0.092132
0.086581
0.089532
0.077534
0.082199
0.10012
0.10004
0.099358
0.098434
0.096957
0.095332
0.092949
0.092078
0.086445
0.089342
0.077318
0.081858
0.10017
0.10009
0.099401
0.098468
0.096975
0.095332
0.092906
0.092023
0.08631
0.089152
0.077106
0.08152
0.10022
0.10014
0.099446
0.098503
0.096994
0.095331
0.092863
0.091968
0.086175
0.088962
0.076897
0.081186
0.10027
0.10019
0.099491
0.098538
0.097013
0.095332
0.09282
0.091913
0.086042
0.088771
0.076691
0.080855
0.10033
0.10024
0.099537
0.098574
0.097032
0.095332
0.092777
0.091857
0.085909
0.088581
0.076488
0.080527
0.10038
0.10029
0.099584
0.098611
0.097052
0.095333
0.092734
0.091801
0.085777
0.08839
0.076287
0.080203
0.10044
0.10035
0.099632
0.098648
0.097072
0.095335
0.092691
0.091745
0.085645
0.088199
0.076089
0.079882
0.1005
0.1004
0.099681
0.098687
0.097093
0.095337
0.092648
0.091689
0.085515
0.088007
0.075893
0.079563
0.10055
0.10046
0.099731
0.098726
0.097114
0.095339
0.092605
0.091633
0.085385
0.087816
0.0757
0.079248
0.10061
0.10052
0.099782
0.098766
0.097136
0.095342
0.092562
0.091576
0.085256
0.087624
0.075509
0.078936
0.10067
0.10058
0.099833
0.098806
0.097159
0.095346
0.092519
0.091519
0.085127
0.087432
0.075321
0.078626
0.10073
0.10064
0.099886
0.098848
0.097182
0.09535
0.092477
0.091461
0.085
0.08724
0.075135
0.078319
0.1008
0.1007
0.09994
0.09889
0.097206
0.095355
0.092434
0.091404
0.084873
0.087048
0.074951
0.078015
0.10086
0.10076
0.099994
0.098934
0.09723
0.09536
0.092391
0.091346
0.084748
0.086856
0.074769
0.077713
0.10093
0.10082
0.10005
0.098978
0.097255
0.095366
0.092349
0.091288
0.084623
0.086664
0.074589
0.077413
0.10099
0.10088
0.10011
0.099023
0.09728
0.095372
0.092306
0.091229
0.084499
0.086472
0.07441
0.077116
0.10106
0.10095
0.10017
0.099069
0.097307
0.09538
0.092264
0.091171
0.084375
0.086279
0.074234
0.076821
0.10113
0.10102
0.10022
0.099117
0.097333
0.095388
0.092222
0.091112
0.084253
0.086087
0.074059
0.076528
0.1012
0.10108
0.10028
0.099165
0.097361
0.095396
0.092181
0.091053
0.084131
0.085894
0.073886
0.076237
0.10127
0.10115
0.10035
0.099214
0.097389
0.095405
0.092139
0.090993
0.084011
0.085702
0.073715
0.075948
0.10134
0.10122
0.10041
0.099265
0.097418
0.095415
0.092098
0.090933
0.083891
0.085509
0.073545
0.075661
0.10142
0.1013
0.10047
0.099316
0.097448
0.095426
0.092058
0.090873
0.083772
0.085316
0.073377
0.075375
0.10149
0.10137
0.10054
0.099369
0.097479
0.095438
0.092017
0.090813
0.083654
0.085123
0.073209
0.075092
0.10157
0.10144
0.10061
0.099423
0.097511
0.09545
0.091977
0.090752
0.083536
0.08493
0.073043
0.07481
0.10165
0.10152
0.10067
0.099478
0.097543
0.095463
0.091938
0.090691
0.08342
0.084737
0.072879
0.074529
0.10172
0.1016
0.10074
0.099534
0.097576
0.095477
0.091899
0.09063
0.083304
0.084545
0.072715
0.07425
0.10181
0.10168
0.10081
0.099592
0.097611
0.095492
0.091861
0.090569
0.083189
0.084351
0.072552
0.073972
0.10189
0.10176
0.10089
0.099651
0.097646
0.095508
0.091823
0.090508
0.083075
0.084158
0.072391
0.073695
0.10197
0.10184
0.10096
0.099712
0.097682
0.095525
0.091785
0.090446
0.082962
0.083965
0.07223
0.07342
0.10206
0.10192
0.10104
0.099774
0.09772
0.095542
0.091749
0.090384
0.08285
0.083772
0.07207
0.073145
0.10215
0.10201
0.10112
0.099837
0.097758
0.095561
0.091713
0.090322
0.082738
0.083579
0.071911
0.072872
0.10224
0.1021
0.10119
0.099903
0.097798
0.095581
0.091677
0.09026
0.082627
0.083385
0.071752
0.072599
0.10233
0.10219
0.10128
0.09997
0.097839
0.095602
0.091643
0.090198
0.082517
0.083192
0.071594
0.072327
0.10242
0.10228
0.10136
0.10004
0.097881
0.095624
0.091609
0.090135
0.082408
0.082999
0.071437
0.072056
0.10252
0.10237
0.10144
0.10011
0.097925
0.095647
0.091576
0.090073
0.0823
0.082805
0.07128
0.071786
0.10262
0.10247
0.10153
0.10018
0.09797
0.095672
0.091544
0.09001
0.082193
0.082611
0.071123
0.071516
0.10272
0.10257
0.10162
0.10026
0.098016
0.095697
0.091513
0.089947
0.082086
0.082418
0.070967
0.071246
0.10282
0.10267
0.10171
0.10033
0.098064
0.095725
0.091483
0.089885
0.08198
0.082224
0.070811
0.070977
0.10293
0.10277
0.1018
0.10041
0.098114
0.095753
0.091454
0.089822
0.081875
0.08203
0.070655
0.070707
0.10303
0.10288
0.1019
0.10049
0.098165
0.095783
0.091426
0.08976
0.081771
0.081836
0.070499
0.070438
0.10314
0.10298
0.102
0.10057
0.098218
0.095814
0.0914
0.089697
0.081668
0.081642
0.070343
0.070169
0.10325
0.1031
0.1021
0.10066
0.098273
0.095847
0.091375
0.089635
0.081565
0.081447
0.070187
0.0699
0.10337
0.10321
0.1022
0.10075
0.098329
0.095882
0.091351
0.089572
0.081463
0.081253
0.070031
0.069631
0.10349
0.10332
0.10231
0.10084
0.098388
0.095918
0.091328
0.089511
0.081362
0.081059
0.069874
0.069362
0.10361
0.10344
0.10242
0.10093
0.098449
0.095957
0.091307
0.089449
0.081262
0.080864
0.069718
0.069092
0.10373
0.10357
0.10253
0.10102
0.098512
0.095997
0.091288
0.089387
0.081163
0.080669
0.069561
0.068821
0.10386
0.10369
0.10264
0.10112
0.098578
0.096038
0.09127
0.089326
0.081065
0.080474
0.069403
0.06855
0.10399
0.10382
0.10276
0.10122
0.098646
0.096082
0.091254
0.089266
0.080967
0.080279
0.069245
0.068279
0.10412
0.10395
0.10288
0.10133
0.098717
0.096129
0.091239
0.089205
0.080871
0.080084
0.069087
0.068006
0.10426
0.10409
0.10301
0.10144
0.09879
0.096177
0.091227
0.089146
0.080775
0.079888
0.068927
0.067733
0.1044
0.10423
0.10313
0.10155
0.098866
0.096228
0.091216
0.089087
0.08068
0.079693
0.068767
0.067458
0.10454
0.10437
0.10326
0.10166
0.098945
0.096281
0.091208
0.089028
0.080586
0.079497
0.068606
0.067182
0.10469
0.10452
0.1034
0.10178
0.099027
0.096336
0.091202
0.088971
0.080494
0.079301
0.068445
0.066906
0.10484
0.10467
0.10354
0.1019
0.099112
0.096395
0.091198
0.088914
0.080402
0.079105
0.068282
0.066627
0.105
0.10482
0.10368
0.10203
0.099201
0.096456
0.091197
0.088858
0.080311
0.078908
0.068118
0.066348
0.10516
0.10498
0.10383
0.10216
0.099294
0.09652
0.091198
0.088803
0.080221
0.078712
0.067953
0.066066
0.10533
0.10515
0.10398
0.10229
0.09939
0.096587
0.091202
0.088749
0.080132
0.078515
0.067787
0.065783
0.1055
0.10532
0.10414
0.10243
0.09949
0.096657
0.091209
0.088696
0.080044
0.078318
0.06762
0.065498
0.10567
0.10549
0.1043
0.10258
0.099594
0.09673
0.091218
0.088645
0.079958
0.078121
0.067451
0.065211
0.10585
0.10567
0.10447
0.10273
0.099702
0.096807
0.091231
0.088595
0.079872
0.077923
0.067281
0.064922
0.10604
0.10585
0.10464
0.10288
0.099815
0.096888
0.091247
0.088546
0.079788
0.077726
0.067109
0.06463
0.10623
0.10605
0.10482
0.10304
0.099932
0.096973
0.091266
0.088499
0.079704
0.077528
0.066935
0.064336
0.10642
0.10624
0.105
0.1032
0.10005
0.097061
0.091289
0.088453
0.079622
0.07733
0.06676
0.06404
0.10663
0.10644
0.10519
0.10338
0.10018
0.097154
0.091315
0.088409
0.079542
0.077131
0.066583
0.063741
0.10683
0.10665
0.10539
0.10355
0.10031
0.097251
0.091345
0.088367
0.079462
0.076933
0.066404
0.063439
0.10705
0.10687
0.10559
0.10373
0.10045
0.097352
0.091379
0.088327
0.079384
0.076734
0.066223
0.063134
0.10727
0.10709
0.1058
0.10392
0.1006
0.097459
0.091418
0.08829
0.079308
0.076535
0.06604
0.062825
0.1075
0.10732
0.10601
0.10412
0.10075
0.09757
0.09146
0.088254
0.079232
0.076335
0.065855
0.062514
0.10773
0.10756
0.10623
0.10432
0.1009
0.097686
0.091507
0.088221
0.079159
0.076135
0.065667
0.062198
0.10798
0.1078
0.10646
0.10453
0.10107
0.097808
0.091559
0.08819
0.079086
0.075935
0.065477
0.061879
0.10823
0.10805
0.1067
0.10475
0.10124
0.097935
0.091616
0.088162
0.079016
0.075735
0.065284
0.061557
0.10848
0.10831
0.10695
0.10498
0.10141
0.098068
0.091677
0.088136
0.078946
0.075534
0.065089
0.06123
0.10875
0.10858
0.1072
0.10521
0.1016
0.098206
0.091744
0.088114
0.078879
0.075333
0.064891
0.060898
0.10902
0.10886
0.10746
0.10545
0.10179
0.098351
0.091816
0.088094
0.078813
0.075131
0.06469
0.060562
0.10931
0.10915
0.10773
0.1057
0.10199
0.098503
0.091894
0.088077
0.078748
0.074928
0.064485
0.060222
0.1096
0.10944
0.10802
0.10596
0.10219
0.098661
0.091977
0.088064
0.078686
0.074726
0.064278
0.059876
0.1099
0.10975
0.10831
0.10623
0.10241
0.098826
0.092066
0.088054
0.078625
0.074522
0.064067
0.059526
0.11021
0.11006
0.10861
0.10651
0.10264
0.098998
0.092162
0.088047
0.078565
0.074318
0.063852
0.059169
0.11053
0.11039
0.10892
0.10679
0.10287
0.099178
0.092264
0.088044
0.078507
0.074113
0.063633
0.058807
0.11086
0.11072
0.10924
0.10709
0.10311
0.099365
0.092372
0.088044
0.078451
0.073907
0.063411
0.058439
0.1112
0.11107
0.10957
0.1074
0.10337
0.09956
0.092487
0.088048
0.078397
0.0737
0.063184
0.058065
0.11155
0.11143
0.10991
0.10772
0.10363
0.099763
0.092609
0.088056
0.078344
0.073492
0.062953
0.057683
0.11192
0.1118
0.11026
0.10805
0.1039
0.099974
0.092737
0.088068
0.078293
0.073282
0.062717
0.057295
0.11229
0.11218
0.11063
0.10839
0.10419
0.10019
0.092873
0.088084
0.078243
0.073072
0.062476
0.0569
0.11268
0.11257
0.11101
0.10875
0.10448
0.10042
0.093017
0.088104
0.078194
0.072859
0.062229
0.056497
0.11307
0.11298
0.1114
0.10911
0.10479
0.10066
0.093167
0.088127
0.078147
0.072645
0.061977
0.056085
0.11348
0.1134
0.1118
0.10949
0.1051
0.10091
0.093326
0.088155
0.078101
0.072429
0.061719
0.055665
0.11391
0.11383
0.11222
0.10988
0.10543
0.10116
0.093492
0.088187
0.078056
0.072211
0.061455
0.055236
0.11434
0.11428
0.11265
0.11029
0.10578
0.10143
0.093666
0.088223
0.078012
0.07199
0.061184
0.054798
0.11479
0.11474
0.1131
0.11071
0.10613
0.10171
0.093848
0.088263
0.077969
0.071766
0.060906
0.05435
0.11526
0.11521
0.11356
0.11114
0.1065
0.10199
0.094038
0.088307
0.077927
0.071539
0.060621
0.053891
0.11573
0.1157
0.11403
0.11158
0.10688
0.10229
0.094236
0.088355
0.077884
0.071309
0.060327
0.053421
0.11623
0.11621
0.11453
0.11205
0.10728
0.1026
0.094443
0.088406
0.077842
0.071075
0.060025
0.05294
0.11673
0.11673
0.11503
0.11252
0.10769
0.10292
0.094658
0.088462
0.0778
0.070836
0.059714
0.052446
0.11726
0.11727
0.11556
0.11302
0.10811
0.10325
0.094882
0.088521
0.077757
0.070593
0.059393
0.05194
0.1178
0.11782
0.1161
0.11353
0.10855
0.10359
0.095114
0.088584
0.077713
0.070345
0.059062
0.05142
0.11835
0.11839
0.11666
0.11405
0.109
0.10394
0.095355
0.088651
0.077668
0.070091
0.05872
0.050886
0.11892
0.11898
0.11724
0.11459
0.10947
0.1043
0.095604
0.08872
0.077622
0.069831
0.058367
0.050337
0.11952
0.11959
0.11783
0.11516
0.10996
0.10468
0.095863
0.088793
0.077574
0.069565
0.058001
0.049771
0.12012
0.12022
0.11845
0.11574
0.11047
0.10507
0.09613
0.088869
0.077524
0.06929
0.057623
0.04919
0.12075
0.12087
0.11909
0.11634
0.11099
0.10547
0.096407
0.088947
0.07747
0.069008
0.05723
0.04859
0.1214
0.12154
0.11975
0.11696
0.11153
0.10589
0.096693
0.089029
0.077414
0.068717
0.056823
0.047973
0.12207
0.12223
0.12043
0.1176
0.11209
0.10632
0.096988
0.089112
0.077354
0.068417
0.0564
0.047335
0.12276
0.12294
0.12113
0.11826
0.11267
0.10676
0.097293
0.089198
0.07729
0.068107
0.055961
0.046678
0.12348
0.12368
0.12187
0.11895
0.11327
0.10722
0.097608
0.089286
0.077221
0.067785
0.055504
0.045998
0.12422
0.12445
0.12262
0.11966
0.1139
0.1077
0.097932
0.089376
0.077147
0.067452
0.055028
0.045296
0.12498
0.12524
0.12341
0.1204
0.11454
0.10819
0.098267
0.089468
0.077067
0.067107
0.054533
0.044571
0.12577
0.12606
0.12423
0.12116
0.11522
0.1087
0.098613
0.089562
0.07698
0.066747
0.054018
0.043819
0.1266
0.12691
0.12507
0.12196
0.11592
0.10923
0.09897
0.089657
0.076887
0.066374
0.05348
0.043042
0.12745
0.12779
0.12596
0.12279
0.11664
0.10978
0.099339
0.089753
0.076786
0.065985
0.052919
0.042236
0.12833
0.12871
0.12687
0.12365
0.1174
0.11035
0.09972
0.089851
0.076677
0.06558
0.052334
0.041402
0.12926
0.12967
0.12783
0.12455
0.11819
0.11094
0.10011
0.089951
0.076559
0.065157
0.051724
0.040536
0.13021
0.13067
0.12883
0.12548
0.11901
0.11156
0.10052
0.090051
0.076432
0.064716
0.051086
0.039637
0.13121
0.13171
0.12987
0.12646
0.11987
0.1122
0.10094
0.090153
0.076294
0.064255
0.050419
0.038705
0.13226
0.1328
0.13096
0.12748
0.12076
0.11287
0.10138
0.090256
0.076145
0.063773
0.049722
0.037736
0.13335
0.13393
0.13211
0.12856
0.1217
0.11357
0.10183
0.090359
0.075984
0.063268
0.048992
0.036729
0.13449
0.13513
0.13331
0.12968
0.12269
0.11429
0.1023
0.090463
0.075809
0.062739
0.048229
0.035682
0.13568
0.13638
0.13457
0.13086
0.12372
0.11506
0.10278
0.090567
0.075619
0.062183
0.047429
0.034592
0.13693
0.13769
0.1359
0.13211
0.1248
0.11585
0.10328
0.09067
0.075413
0.061599
0.04659
0.033457
0.13825
0.13907
0.13729
0.13342
0.12594
0.11669
0.1038
0.090772
0.075188
0.060983
0.045709
0.032274
0.13963
0.14052
0.13876
0.1348
0.12714
0.11756
0.10434
0.090871
0.074941
0.060334
0.044783
0.031041
0.14107
0.14205
0.14032
0.13625
0.1284
0.11848
0.1049
0.090965
0.074671
0.059647
0.043809
0.029753
0.1426
0.14367
0.14195
0.13779
0.12972
0.11944
0.10547
0.091053
0.074373
0.058918
0.042782
0.028408
0.1442
0.14537
0.14368
0.13941
0.13112
0.12044
0.10606
0.091131
0.074043
0.058143
0.041698
0.027001
0.14588
0.14716
0.14551
0.14113
0.13258
0.12149
0.10666
0.091195
0.073677
0.057316
0.040551
0.025527
0.14764
0.14905
0.14744
0.14294
0.13412
0.12259
0.10727
0.091242
0.073267
0.05643
0.039334
0.02398
0.1495
0.15105
0.14948
0.14485
0.13574
0.12373
0.1079
0.091266
0.072808
0.055479
0.038042
0.022356
0.15145
0.15316
0.15164
0.14688
0.13744
0.12492
0.10852
0.091261
0.072291
0.054454
0.036666
0.020647
0.1535
0.15538
0.15391
0.14901
0.13923
0.12615
0.10915
0.091218
0.071706
0.053345
0.035196
0.018844
0.15565
0.15772
0.15632
0.15126
0.1411
0.12742
0.10977
0.09113
0.071045
0.052143
0.033623
0.016941
0.1579
0.16019
0.15887
0.15364
0.14305
0.12873
0.11037
0.090984
0.070294
0.050835
0.031937
0.014926
0.16027
0.1628
0.16156
0.15615
0.1451
0.13008
0.11095
0.090771
0.069441
0.04941
0.030125
0.012789
0.16274
0.16555
0.16441
0.1588
0.14723
0.13145
0.11149
0.090474
0.068471
0.047852
0.028175
0.010519
0.16533
0.16846
0.16742
0.1616
0.14946
0.13284
0.11199
0.090079
0.067368
0.046149
0.026073
0.0081042
0.16805
0.17153
0.17062
0.16455
0.15178
0.13424
0.11242
0.089568
0.066114
0.044282
0.023805
0.0055316
0.1709
0.17479
0.17402
0.16767
0.15419
0.13564
0.11277
0.088917
0.064687
0.042234
0.021356
0.0027885
0.17389
0.17824
0.17764
0.17097
0.15669
0.13703
0.11301
0.088103
0.063065
0.039986
0.01871
-0.00013796
0.17704
0.18191
0.18151
0.17446
0.15927
0.13838
0.11312
0.087094
0.061219
0.037514
0.015849
-0.003261
0.18035
0.18582
0.18565
0.17816
0.16195
0.13968
0.11306
0.085853
0.059116
0.034793
0.012752
-0.0065939
0.18383
0.19002
0.1901
0.18209
0.1647
0.14088
0.11279
0.084334
0.056716
0.031789
0.009398
-0.010151
0.1875
0.19451
0.19489
0.18626
0.1675
0.14195
0.11225
0.082483
0.053971
0.028467
0.0057589
-0.013947
0.19137
0.19935
0.20007
0.19068
0.17033
0.14283
0.11137
0.080231
0.050823
0.024779
0.0018033
-0.017998
0.19543
0.20456
0.20566
0.19534
0.17313
0.14343
0.11007
0.077496
0.047204
0.020674
-0.0025058
-0.022325
0.19968
0.21018
0.21169
0.20022
0.17584
0.14367
0.10824
0.074184
0.043037
0.016093
-0.0072093
-0.026948
0.20409
0.21621
0.21817
0.20529
0.17835
0.1434
0.10575
0.070185
0.038236
0.010971
-0.01235
-0.031886
0.20862
0.22268
0.22507
0.21043
0.1805
0.14245
0.10245
0.065378
0.032714
0.0052505
-0.017964
-0.037155
0.2132
0.22955
0.23234
0.21552
0.18209
0.14062
0.098152
0.059638
0.026389
-0.001119
-0.024078
-0.042759
0.21776
0.23678
0.23984
0.22031
0.18282
0.13764
0.092668
0.052836
0.01919
-0.0081651
-0.03069
-0.04868
0.22219
0.24423
0.24733
0.22444
0.18233
0.1332
0.085784
0.044854
0.011073
-0.015884
-0.037767
-0.054868
0.22637
0.25169
0.25436
0.22735
0.18009
0.12693
0.077282
0.035598
0.0020254
-0.024233
-0.045234
-0.061238
0.23021
0.25874
0.26018
0.2282
0.17544
0.11841
0.066961
0.025013
-0.007919
-0.033127
-0.052974
-0.06767
0.23368
0.26467
0.26351
0.22575
0.1675
0.10718
0.054672
0.013116
-0.018664
-0.042434
-0.060839
-0.074022
0.23684
0.26826
0.26234
0.21818
0.15517
0.092802
0.040363
3.3107e-05
-0.030031
-0.051974
-0.068657
-0.080146
0.23996
0.26762
0.25362
0.20302
0.13712
0.074857
0.024116
-0.013974
-0.041739
-0.061515
-0.076246
-0.085913
0.24366
0.26014
0.23331
0.17714
0.11186
0.053
0.0061306
-0.028538
-0.053435
-0.070787
-0.083427
-0.091227
0.24884
0.24294
0.19711
0.13739
0.077967
0.026951
-0.013378
-0.043304
-0.064777
-0.079539
-0.090056
-0.096041
0.25603
0.2128
0.14195
0.081886
0.034622
-0.0034738
-0.034312
-0.058081
-0.075575
-0.087636
-0.096077
-0.10039
0.26565
0.16364
0.064019
0.0093928
-0.018926
-0.038916
-0.057154
-0.073211
-0.086082
-0.095293
-0.1017
-0.10453
0.2882
0.097228
-0.035806
-0.078253
-0.082147
-0.080238
-0.08323
-0.089997
-0.097446
-0.10348
-0.10778
-0.10922
0.33544
0.031871
-0.14032
-0.16768
-0.14624
-0.12292
-0.11084
-0.1081
-0.10985
-0.11251
-0.1146
-0.11465
0.10352
0.064255
0.0542
0.048219
0.044095
0.040972
0.03846
0.036196
0.034258
0.03207
0.030446
0.027281
0.12296
0.079615
0.067117
0.059156
0.053729
0.049675
0.046451
0.043574
0.041148
0.03841
0.036464
0.032712
0.1102
0.074385
0.063071
0.055232
0.049873
0.045892
0.042753
0.039969
0.037664
0.035038
0.033278
0.029633
0.1051
0.074001
0.063011
0.055077
0.049582
0.045487
0.042268
0.039417
0.037086
0.034411
0.03268
0.028879
0.10445
0.07615
0.064996
0.056844
0.051104
0.046801
0.043417
0.04042
0.037984
0.035181
0.033394
0.02938
0.10379
0.077949
0.066719
0.058429
0.052489
0.048007
0.044476
0.041348
0.038816
0.035899
0.034053
0.029881
0.10267
0.079217
0.068057
0.059711
0.053623
0.048992
0.045336
0.042096
0.03948
0.036474
0.034574
0.030301
0.10148
0.080259
0.069259
0.060908
0.054703
0.049941
0.046168
0.042826
0.040131
0.03705
0.035098
0.030776
0.10037
0.081163
0.070392
0.06208
0.055787
0.050907
0.047026
0.043587
0.040816
0.037674
0.035671
0.031351
0.099314
0.081918
0.07144
0.063211
0.056865
0.051885
0.047905
0.044377
0.041534
0.038346
0.036297
0.032029
0.098293
0.082524
0.072391
0.064288
0.057924
0.052867
0.0488
0.045194
0.042285
0.039065
0.036977
0.032809
0.097304
0.082993
0.073243
0.065301
0.058955
0.053845
0.049707
0.046036
0.043069
0.039833
0.037714
0.033688
0.096347
0.083341
0.073996
0.066245
0.059948
0.054811
0.05062
0.046897
0.043881
0.040645
0.038504
0.034657
0.095426
0.083582
0.074652
0.067113
0.060895
0.055756
0.051529
0.047769
0.044716
0.041493
0.039339
0.035701
0.09454
0.083733
0.075216
0.067904
0.061788
0.056669
0.052426
0.048645
0.045566
0.042371
0.040211
0.036801
0.09369
0.083806
0.075693
0.068618
0.062623
0.057545
0.053302
0.049516
0.04642
0.043266
0.041106
0.037937
0.092877
0.083814
0.076091
0.069257
0.063397
0.058377
0.05415
0.050373
0.047272
0.044168
0.042014
0.039089
0.0921
0.083768
0.076418
0.069824
0.064109
0.059162
0.054965
0.051209
0.048112
0.045067
0.042923
0.040237
0.091358
0.083677
0.07668
0.070323
0.064759
0.059897
0.055742
0.052019
0.048934
0.045954
0.043822
0.041365
0.090651
0.08355
0.076885
0.07076
0.065351
0.060582
0.056478
0.052797
0.049731
0.046821
0.044701
0.042456
0.089975
0.083394
0.07704
0.071139
0.065887
0.061218
0.057172
0.053541
0.050499
0.047661
0.045554
0.0435
0.089331
0.083214
0.077151
0.071466
0.066369
0.061804
0.057823
0.054248
0.051235
0.048468
0.046375
0.044488
0.088716
0.083015
0.077223
0.071746
0.066802
0.062344
0.058432
0.054917
0.051937
0.049239
0.047159
0.045415
0.088128
0.082801
0.077262
0.071983
0.067189
0.06284
0.058999
0.055548
0.052602
0.049972
0.047904
0.046277
0.087566
0.082576
0.077271
0.072182
0.067534
0.063293
0.059526
0.05614
0.053231
0.050664
0.048608
0.047073
0.087027
0.082341
0.077256
0.072346
0.06784
0.063706
0.060014
0.056694
0.053823
0.051315
0.04927
0.047806
0.08651
0.0821
0.077219
0.072479
0.06811
0.064082
0.060465
0.057212
0.054379
0.051926
0.049892
0.048476
0.086014
0.081853
0.077163
0.072585
0.068347
0.064424
0.060882
0.057693
0.0549
0.052497
0.050473
0.049087
0.085537
0.081603
0.07709
0.072666
0.068554
0.064733
0.061265
0.058141
0.055388
0.053029
0.051014
0.049644
0.085077
0.081351
0.077004
0.072725
0.068734
0.065011
0.061618
0.058556
0.055843
0.053523
0.051519
0.05015
0.084634
0.081097
0.076905
0.072764
0.06889
0.065262
0.061941
0.058941
0.056266
0.053982
0.051988
0.050609
0.084206
0.080843
0.076796
0.072785
0.069022
0.065487
0.062237
0.059296
0.05666
0.054407
0.052423
0.051027
0.083793
0.080588
0.076678