/*--------------------------------*- C++ -*----------------------------------*\
  =========                 |
  \\      /  F ield         | OpenFOAM: The Open Source CFD Toolbox
   \\    /   O peration     | Website:  https://openfoam.org
    \\  /    A nd           | Version:  6.0
     \\/     M anipulation  |
\*---------------------------------------------------------------------------*/
FoamFile
{
    version     2.0;
    format      ascii;
    class       volScalarField;
    location    "2.29";
    object      p;
}
// * * * * * * * * * * * * * * * * * * * * * * * * * * * * * * * * * * * * * //

dimensions      [0 2 -2 0 0 0 0];

internalField   nonuniform List<scalar> 
13500
(
0.097994
0.097998
0.097552
0.097047
0.096185
0.095637
0.094937
0.095566
0.096748
0.10102
0.12253
0.1657
0.097994
0.097998
0.097552
0.097048
0.096185
0.095637
0.094937
0.095566
0.096744
0.10108
0.12185
0.16063
0.097995
0.097999
0.097553
0.097048
0.096185
0.095637
0.094935
0.095565
0.096735
0.10113
0.12097
0.15615
0.097995
0.098
0.097553
0.097049
0.096185
0.095637
0.094932
0.095562
0.09672
0.10115
0.11999
0.15265
0.097997
0.098002
0.097554
0.09705
0.096185
0.095636
0.094929
0.095558
0.096699
0.10116
0.11896
0.1497
0.097998
0.098003
0.097556
0.097052
0.096185
0.095636
0.094925
0.095553
0.096673
0.10115
0.11788
0.14707
0.098
0.098006
0.097557
0.097053
0.096185
0.095635
0.094921
0.095547
0.096643
0.10114
0.1168
0.14469
0.098002
0.098008
0.097559
0.097055
0.096186
0.095634
0.094916
0.095539
0.096607
0.1011
0.11573
0.1425
0.098005
0.098011
0.097561
0.097057
0.096186
0.095633
0.09491
0.09553
0.096567
0.10106
0.11467
0.14049
0.098008
0.098014
0.097564
0.097059
0.096187
0.095632
0.094904
0.09552
0.096521
0.101
0.11366
0.13861
0.098011
0.098018
0.097567
0.097061
0.096187
0.09563
0.094897
0.095509
0.09647
0.10093
0.11267
0.13684
0.098015
0.098022
0.09757
0.097064
0.096188
0.095628
0.09489
0.095497
0.096414
0.10085
0.11173
0.13518
0.098019
0.098026
0.097573
0.097067
0.096189
0.095626
0.094882
0.095483
0.096353
0.10076
0.11084
0.1336
0.098024
0.098031
0.097577
0.09707
0.09619
0.095624
0.094874
0.095467
0.096287
0.10066
0.10998
0.1321
0.098029
0.098036
0.097581
0.097073
0.096191
0.095622
0.094865
0.095451
0.096215
0.10055
0.10916
0.13067
0.098034
0.098041
0.097586
0.097076
0.096192
0.095619
0.094855
0.095433
0.096138
0.10044
0.10838
0.12931
0.09804
0.098047
0.097591
0.09708
0.096193
0.095617
0.094845
0.095413
0.096055
0.10032
0.10762
0.128
0.098046
0.098053
0.097596
0.097084
0.096195
0.095614
0.094834
0.095392
0.095968
0.1002
0.1069
0.12674
0.098053
0.098059
0.097601
0.097088
0.096196
0.09561
0.094823
0.09537
0.095875
0.10007
0.10621
0.12553
0.09806
0.098066
0.097607
0.097092
0.096198
0.095607
0.094811
0.095346
0.095778
0.099947
0.10554
0.12437
0.098068
0.098074
0.097614
0.097096
0.0962
0.095603
0.094798
0.095321
0.095676
0.099821
0.10489
0.12324
0.098076
0.098081
0.09762
0.097101
0.096202
0.0956
0.094786
0.095294
0.09557
0.099695
0.10425
0.12215
0.098084
0.098089
0.097627
0.097106
0.096203
0.095595
0.094772
0.095266
0.09546
0.099571
0.10363
0.12109
0.098093
0.098098
0.097635
0.097111
0.096206
0.095591
0.094758
0.095236
0.095346
0.099447
0.10303
0.12005
0.098102
0.098107
0.097642
0.097117
0.096208
0.095587
0.094744
0.095204
0.095229
0.099324
0.10243
0.11905
0.098112
0.098116
0.09765
0.097123
0.09621
0.095582
0.094729
0.095171
0.095108
0.099203
0.10184
0.11807
0.098122
0.098126
0.097659
0.097129
0.096213
0.095577
0.094713
0.095137
0.094985
0.099084
0.10127
0.11712
0.098133
0.098136
0.097668
0.097135
0.096215
0.095572
0.094697
0.0951
0.09486
0.098965
0.10069
0.11619
0.098144
0.098146
0.097677
0.097141
0.096218
0.095567
0.09468
0.095063
0.094733
0.098848
0.10013
0.11527
0.098155
0.098157
0.097687
0.097148
0.096221
0.095561
0.094663
0.095024
0.094603
0.098732
0.099573
0.11438
0.098167
0.098169
0.097697
0.097155
0.096224
0.095555
0.094646
0.094984
0.094473
0.098616
0.099022
0.11351
0.09818
0.098181
0.097707
0.097163
0.096227
0.095549
0.094628
0.094942
0.094341
0.098501
0.098476
0.11265
0.098193
0.098193
0.097718
0.09717
0.096231
0.095543
0.094609
0.094899
0.094208
0.098386
0.097935
0.11181
0.098206
0.098206
0.097729
0.097178
0.096234
0.095537
0.09459
0.094855
0.094075
0.098271
0.0974
0.11099
0.09822
0.098219
0.097741
0.097186
0.096238
0.09553
0.09457
0.094809
0.093941
0.098155
0.09687
0.11019
0.098235
0.098233
0.097753
0.097195
0.096242
0.095524
0.09455
0.094763
0.093806
0.098038
0.096346
0.1094
0.09825
0.098247
0.097766
0.097203
0.096246
0.095517
0.094529
0.094716
0.093671
0.097921
0.095828
0.10862
0.098265
0.098261
0.097779
0.097212
0.09625
0.09551
0.094508
0.094668
0.093536
0.097802
0.095316
0.10786
0.098281
0.098277
0.097792
0.097222
0.096254
0.095503
0.094486
0.094619
0.093401
0.097682
0.09481
0.10711
0.098298
0.098292
0.097806
0.097231
0.096259
0.095495
0.094464
0.09457
0.093266
0.09756
0.09431
0.10638
0.098315
0.098308
0.09782
0.097241
0.096263
0.095488
0.094441
0.09452
0.09313
0.097437
0.093816
0.10566
0.098332
0.098325
0.097835
0.097252
0.096268
0.09548
0.094418
0.094469
0.092995
0.097311
0.093329
0.10496
0.098351
0.098342
0.09785
0.097262
0.096273
0.095472
0.094394
0.094418
0.09286
0.097184
0.092849
0.10427
0.098369
0.098359
0.097866
0.097273
0.096278
0.095464
0.09437
0.094367
0.092724
0.097054
0.092375
0.10359
0.098388
0.098377
0.097882
0.097285
0.096284
0.095456
0.094345
0.094316
0.092588
0.096923
0.091909
0.10292
0.098408
0.098396
0.097898
0.097296
0.096289
0.095448
0.09432
0.094264
0.092453
0.096789
0.091449
0.10227
0.098428
0.098415
0.097915
0.097308
0.096295
0.09544
0.094294
0.094212
0.092317
0.096653
0.090997
0.10162
0.098449
0.098435
0.097932
0.09732
0.096301
0.095432
0.094267
0.09416
0.092181
0.096514
0.090551
0.10099
0.098471
0.098455
0.09795
0.097333
0.096307
0.095423
0.09424
0.094109
0.092044
0.096374
0.090113
0.10037
0.098492
0.098476
0.097969
0.097346
0.096314
0.095415
0.094213
0.094057
0.091907
0.096231
0.089682
0.099763
0.098515
0.098497
0.097988
0.097359
0.09632
0.095406
0.094185
0.094005
0.09177
0.096086
0.089258
0.099165
0.098538
0.098519
0.098007
0.097373
0.096327
0.095398
0.094156
0.093954
0.091633
0.095939
0.088841
0.098577
0.098562
0.098541
0.098027
0.097387
0.096334
0.095389
0.094127
0.093902
0.091495
0.09579
0.088431
0.097999
0.098586
0.098564
0.098047
0.097402
0.096342
0.095381
0.094098
0.093851
0.091357
0.095638
0.088029
0.097432
0.098611
0.098587
0.098068
0.097417
0.096349
0.095372
0.094068
0.093799
0.091218
0.095485
0.087633
0.096873
0.098636
0.098611
0.098089
0.097432
0.096357
0.095364
0.094038
0.093748
0.091079
0.09533
0.087244
0.096325
0.098662
0.098636
0.098111
0.097448
0.096365
0.095356
0.094007
0.093697
0.09094
0.095172
0.086861
0.095785
0.098689
0.098661
0.098134
0.097464
0.096373
0.095347
0.093975
0.093646
0.0908
0.095013
0.086486
0.095254
0.098716
0.098687
0.098157
0.09748
0.096381
0.095339
0.093943
0.093595
0.090659
0.094852
0.086117
0.094732
0.098744
0.098713
0.09818
0.097497
0.096389
0.095331
0.093911
0.093545
0.090519
0.09469
0.085754
0.094218
0.098773
0.09874
0.098204
0.097515
0.096398
0.095322
0.093878
0.093494
0.090377
0.094525
0.085398
0.093712
0.098802
0.098768
0.098229
0.097532
0.096407
0.095314
0.093844
0.093444
0.090236
0.094359
0.085048
0.093214
0.098832
0.098796
0.098254
0.097551
0.096417
0.095306
0.093811
0.093393
0.090094
0.094192
0.084704
0.092723
0.098862
0.098825
0.098279
0.097569
0.096426
0.095299
0.093776
0.093343
0.089952
0.094023
0.084367
0.09224
0.098893
0.098855
0.098305
0.097588
0.096436
0.095291
0.093742
0.093292
0.08981
0.093852
0.084035
0.091765
0.098925
0.098885
0.098332
0.097608
0.096446
0.095284
0.093707
0.093242
0.089667
0.09368
0.083709
0.091296
0.098958
0.098916
0.098359
0.097628
0.096456
0.095276
0.093671
0.093192
0.089525
0.093507
0.083389
0.090835
0.098991
0.098947
0.098387
0.097649
0.096466
0.095269
0.093635
0.093141
0.089382
0.093333
0.083074
0.09038
0.099024
0.098979
0.098416
0.09767
0.096477
0.095262
0.093599
0.093091
0.089239
0.093158
0.082765
0.089932
0.099059
0.099012
0.098445
0.097691
0.096488
0.095255
0.093562
0.093041
0.089096
0.092981
0.082461
0.08949
0.099094
0.099045
0.098474
0.097713
0.096499
0.095249
0.093525
0.09299
0.088953
0.092803
0.082162
0.089054
0.09913
0.09908
0.098505
0.097736
0.096511
0.095242
0.093487
0.09294
0.08881
0.092625
0.081869
0.088625
0.099167
0.099114
0.098535
0.097759
0.096523
0.095236
0.093449
0.092889
0.088667
0.092445
0.08158
0.088201
0.099204
0.09915
0.098567
0.097782
0.096535
0.09523
0.093411
0.092839
0.088524
0.092264
0.081297
0.087783
0.099242
0.099186
0.098599
0.097806
0.096547
0.095224
0.093373
0.092788
0.088382
0.092083
0.081018
0.087371
0.099281
0.099223
0.098632
0.097831
0.09656
0.095219
0.093334
0.092737
0.08824
0.091901
0.080743
0.086964
0.09932
0.099261
0.098665
0.097856
0.096573
0.095214
0.093295
0.092686
0.088098
0.091718
0.080474
0.086562
0.09936
0.099299
0.098699
0.097882
0.096586
0.095209
0.093255
0.092635
0.087956
0.091534
0.080209
0.086166
0.099401
0.099339
0.098733
0.097908
0.0966
0.095204
0.093216
0.092583
0.087815
0.09135
0.079948
0.085775
0.099443
0.099378
0.098769
0.097935
0.096614
0.0952
0.093176
0.092532
0.087674
0.091165
0.079691
0.085388
0.099486
0.099419
0.098805
0.097963
0.096628
0.095195
0.093135
0.09248
0.087533
0.090979
0.079439
0.085007
0.099529
0.099461
0.098841
0.097991
0.096643
0.095192
0.093095
0.092429
0.087393
0.090793
0.07919
0.08463
0.099573
0.099503
0.098879
0.098019
0.096657
0.095188
0.093054
0.092377
0.087253
0.090606
0.078946
0.084258
0.099618
0.099546
0.098917
0.098048
0.096673
0.095185
0.093013
0.092324
0.087114
0.090419
0.078705
0.083891
0.099664
0.09959
0.098955
0.098078
0.096688
0.095182
0.092972
0.092272
0.086976
0.090231
0.078469
0.083527
0.09971
0.099635
0.098995
0.098109
0.096705
0.09518
0.092931
0.092219
0.086838
0.090043
0.078235
0.083169
0.099758
0.09968
0.099035
0.09814
0.096721
0.095178
0.092889
0.092166
0.0867
0.089855
0.078006
0.082814
0.099806
0.099727
0.099076
0.098171
0.096738
0.095176
0.092848
0.092113
0.086563
0.089666
0.077779
0.082463
0.099855
0.099774
0.099118
0.098204
0.096755
0.095175
0.092806
0.09206
0.086427
0.089477
0.077557
0.082116
0.099905
0.099822
0.09916
0.098237
0.096773
0.095174
0.092764
0.092006
0.086292
0.089287
0.077337
0.081773
0.099956
0.099871
0.099203
0.098271
0.096791
0.095173
0.092722
0.091953
0.086157
0.089098
0.077121
0.081434
0.10001
0.099921
0.099247
0.098305
0.096809
0.095173
0.09268
0.091899
0.086023
0.088908
0.076907
0.081098
0.10006
0.099972
0.099292
0.09834
0.096828
0.095173
0.092638
0.091844
0.08589
0.088717
0.076697
0.080766
0.10011
0.10002
0.099338
0.098376
0.096848
0.095174
0.092596
0.09179
0.085757
0.088527
0.07649
0.080437
0.10017
0.10008
0.099385
0.098413
0.096867
0.095175
0.092553
0.091735
0.085625
0.088336
0.076285
0.080112
0.10022
0.10013
0.099432
0.09845
0.096888
0.095177
0.092511
0.09168
0.085494
0.088145
0.076083
0.07979
0.10028
0.10018
0.09948
0.098488
0.096909
0.095179
0.092469
0.091624
0.085364
0.087954
0.075884
0.079471
0.10034
0.10024
0.09953
0.098527
0.09693
0.095182
0.092426
0.091569
0.085235
0.087763
0.075687
0.079155
0.1004
0.1003
0.09958
0.098566
0.096952
0.095185
0.092384
0.091513
0.085106
0.087572
0.075493
0.078842
0.10046
0.10035
0.099631
0.098607
0.096974
0.095189
0.092342
0.091456
0.084978
0.08738
0.075301
0.078532
0.10052
0.10041
0.099683
0.098648
0.096997
0.095193
0.0923
0.0914
0.084851
0.087189
0.075112
0.078224
0.10058
0.10047
0.099736
0.09869
0.097021
0.095198
0.092257
0.091343
0.084725
0.086997
0.074925
0.077919
0.10064
0.10053
0.09979
0.098733
0.097045
0.095203
0.092215
0.091286
0.0846
0.086805
0.074739
0.077617
0.10071
0.1006
0.099845
0.098777
0.09707
0.095209
0.092173
0.091228
0.084475
0.086613
0.074556
0.077318
0.10077
0.10066
0.099901
0.098822
0.097095
0.095216
0.092132
0.09117
0.084352
0.086422
0.074375
0.07702
0.10084
0.10072
0.099958
0.098868
0.097121
0.095223
0.09209
0.091112
0.084229
0.08623
0.074196
0.076725
0.1009
0.10079
0.10002
0.098915
0.097148
0.095231
0.092049
0.091054
0.084107
0.086038
0.074019
0.076433
0.10097
0.10086
0.10008
0.098962
0.097175
0.095239
0.092007
0.090995
0.083986
0.085846
0.073843
0.076142
0.10104
0.10093
0.10014
0.099011
0.097203
0.095249
0.091967
0.090936
0.083866
0.085654
0.07367
0.075853
0.10112
0.10099
0.1002
0.099061
0.097232
0.095259
0.091926
0.090877
0.083747
0.085461
0.073497
0.075567
0.10119
0.10107
0.10026
0.099112
0.097262
0.095269
0.091886
0.090818
0.083629
0.085269
0.073327
0.075282
0.10126
0.10114
0.10033
0.099164
0.097292
0.095281
0.091845
0.090758
0.083511
0.085077
0.073157
0.074999
0.10134
0.10121
0.10039
0.099217
0.097323
0.095293
0.091806
0.090698
0.083395
0.084885
0.072989
0.074717
0.10141
0.10129
0.10046
0.099272
0.097355
0.095306
0.091767
0.090637
0.083279
0.084693
0.072823
0.074438
0.10149
0.10136
0.10053
0.099327
0.097388
0.09532
0.091728
0.090577
0.083164
0.084501
0.072657
0.07416
0.10157
0.10144
0.1006
0.099384
0.097422
0.095335
0.091689
0.090516
0.08305
0.084308
0.072493
0.073883
0.10165
0.10152
0.10067
0.099442
0.097457
0.09535
0.091652
0.090455
0.082936
0.084116
0.07233
0.073607
0.10174
0.1016
0.10074
0.099502
0.097493
0.095367
0.091614
0.090393
0.082824
0.083924
0.072168
0.073333
0.10182
0.10169
0.10082
0.099563
0.097529
0.095385
0.091578
0.090332
0.082713
0.083732
0.072006
0.07306
0.10191
0.10177
0.10089
0.099626
0.097567
0.095403
0.091542
0.09027
0.082602
0.083539
0.071846
0.072788
0.102
0.10186
0.10097
0.09969
0.097606
0.095423
0.091506
0.090208
0.082492
0.083347
0.071686
0.072517
0.10209
0.10194
0.10105
0.099756
0.097646
0.095443
0.091472
0.090146
0.082383
0.083155
0.071527
0.072246
0.10218
0.10204
0.10113
0.099823
0.097688
0.095465
0.091438
0.090084
0.082275
0.082962
0.071369
0.071977
0.10227
0.10213
0.10121
0.099892
0.09773
0.095488
0.091405
0.090021
0.082167
0.08277
0.071211
0.071708
0.10237
0.10222
0.1013
0.099963
0.097774
0.095512
0.091372
0.089959
0.082061
0.082577
0.071054
0.07144
0.10247
0.10232
0.10139
0.10004
0.09782
0.095537
0.091341
0.089896
0.081955
0.082385
0.070897
0.071173
0.10257
0.10242
0.10148
0.10011
0.097867
0.095564
0.091311
0.089833
0.08185
0.082192
0.07074
0.070905
0.10267
0.10252
0.10157
0.10019
0.097915
0.095592
0.091282
0.089771
0.081746
0.081999
0.070584
0.070639
0.10278
0.10262
0.10166
0.10027
0.097965
0.095621
0.091253
0.089708
0.081642
0.081806
0.070428
0.070372
0.10288
0.10273
0.10176
0.10035
0.098016
0.095651
0.091226
0.089646
0.08154
0.081614
0.070272
0.070105
0.10299
0.10283
0.10186
0.10043
0.09807
0.095684
0.0912
0.089583
0.081438
0.081421
0.070116
0.069839
0.1031
0.10295
0.10196
0.10052
0.098125
0.095718
0.091176
0.089521
0.081337
0.081228
0.06996
0.069572
0.10322
0.10306
0.10206
0.1006
0.098182
0.095753
0.091153
0.089459
0.081237
0.081035
0.069804
0.069306
0.10334
0.10317
0.10217
0.10069
0.098241
0.09579
0.091131
0.089397
0.081138
0.080841
0.069648
0.069039
0.10346
0.10329
0.10227
0.10079
0.098303
0.095829
0.091111
0.089335
0.08104
0.080648
0.069491
0.068771
0.10358
0.10342
0.10239
0.10088
0.098366
0.09587
0.091092
0.089273
0.080942
0.080455
0.069334
0.068503
0.10371
0.10354
0.1025
0.10098
0.098432
0.095913
0.091075
0.089212
0.080846
0.080261
0.069177
0.068235
0.10384
0.10367
0.10262
0.10108
0.0985
0.095957
0.09106
0.089152
0.08075
0.080067
0.06902
0.067966
0.10397
0.1038
0.10274
0.10119
0.098571
0.096004
0.091046
0.089092
0.080655
0.079874
0.068861
0.067696
0.10411
0.10394
0.10286
0.1013
0.098645
0.096054
0.091035
0.089032
0.080561
0.07968
0.068703
0.067425
0.10425
0.10408
0.10299
0.10141
0.098721
0.096105
0.091025
0.088973
0.080468
0.079486
0.068543
0.067153
0.10439
0.10422
0.10312
0.10152
0.0988
0.096159
0.091018
0.088915
0.080376
0.079291
0.068383
0.066881
0.10454
0.10437
0.10326
0.10164
0.098883
0.096215
0.091013
0.088857
0.080285
0.079097
0.068222
0.066606
0.10469
0.10452
0.1034
0.10177
0.098968
0.096275
0.09101
0.0888
0.080195
0.078903
0.06806
0.066331
0.10485
0.10468
0.10354
0.10189
0.099058
0.096337
0.09101
0.088745
0.080106
0.078708
0.067897
0.066054
0.10501
0.10484
0.10369
0.10202
0.09915
0.096402
0.091012
0.08869
0.080018
0.078513
0.067733
0.065775
0.10518
0.105
0.10384
0.10216
0.099247
0.09647
0.091017
0.088636
0.079931
0.078318
0.067567
0.065495
0.10535
0.10517
0.104
0.1023
0.099347
0.096541
0.091025
0.088583
0.079845
0.078123
0.067401
0.065213
0.10552
0.10535
0.10416
0.10244
0.099451
0.096615
0.091035
0.088532
0.07976
0.077927
0.067233
0.064929
0.1057
0.10553
0.10433
0.10259
0.09956
0.096693
0.091049
0.088482
0.079676
0.077732
0.067064
0.064643
0.10589
0.10571
0.1045
0.10275
0.099673
0.096775
0.091066
0.088434
0.079594
0.077536
0.066894
0.064354
0.10608
0.1059
0.10468
0.10291
0.099791
0.09686
0.091087
0.088387
0.079513
0.07734
0.066721
0.064063
0.10627
0.1061
0.10486
0.10307
0.099914
0.09695
0.091111
0.088342
0.079433
0.077144
0.066548
0.06377
0.10648
0.1063
0.10505
0.10324
0.10004
0.097044
0.091139
0.088298
0.079354
0.076948
0.066372
0.063474
0.10669
0.10651
0.10525
0.10342
0.10017
0.097142
0.09117
0.088257
0.079276
0.076751
0.066195
0.063175
0.1069
0.10673
0.10545
0.1036
0.10031
0.097244
0.091206
0.088218
0.0792
0.076555
0.066015
0.062873
0.10712
0.10695
0.10566
0.10379
0.10046
0.097352
0.091246
0.08818
0.079126
0.076358
0.065834
0.062568
0.10735
0.10718
0.10588
0.10399
0.10061
0.097464
0.09129
0.088145
0.079053
0.076161
0.065651
0.06226
0.10759
0.10742
0.1061
0.10419
0.10077
0.097581
0.091339
0.088113
0.078981
0.075963
0.065465
0.061948
0.10783
0.10766
0.10633
0.10441
0.10093
0.097704
0.091392
0.088083
0.078911
0.075765
0.065277
0.061632
0.10808
0.10792
0.10657
0.10462
0.1011
0.097833
0.091451
0.088056
0.078843
0.075567
0.065086
0.061313
0.10834
0.10818
0.10681
0.10485
0.10128
0.097967
0.091514
0.088031
0.078776
0.075369
0.064893
0.06099
0.1086
0.10845
0.10707
0.10508
0.10146
0.098107
0.091583
0.08801
0.078711
0.07517
0.064697
0.060662
0.10888
0.10872
0.10733
0.10533
0.10165
0.098253
0.091657
0.087991
0.078647
0.074971
0.064499
0.06033
0.10916
0.10901
0.1076
0.10558
0.10185
0.098406
0.091737
0.087976
0.078585
0.074772
0.064297
0.059993
0.10945
0.10931
0.10788
0.10584
0.10206
0.098566
0.091822
0.087963
0.078525
0.074572
0.064092
0.059652
0.10976
0.10961
0.10817
0.10611
0.10228
0.098732
0.091914
0.087955
0.078467
0.074371
0.063884
0.059305
0.11007
0.10993
0.10848
0.10639
0.10251
0.098906
0.092012
0.087949
0.07841
0.07417
0.063672
0.058953
0.11039
0.11025
0.10879
0.10668
0.10274
0.099087
0.092116
0.087948
0.078355
0.073968
0.063456
0.058595
0.11072
0.11059
0.10911
0.10698
0.10298
0.099276
0.092227
0.08795
0.078302
0.073765
0.063237
0.058231
0.11106
0.11094
0.10944
0.10729
0.10324
0.099473
0.092344
0.087956
0.078251
0.073561
0.063013
0.057861
0.11141
0.1113
0.10978
0.10761
0.1035
0.099678
0.092469
0.087966
0.078201
0.073357
0.062785
0.057484
0.11178
0.11167
0.11014
0.10794
0.10378
0.099891
0.0926
0.08798
0.078153
0.073151
0.062553
0.057101
0.11215
0.11205
0.11051
0.10828
0.10406
0.10011
0.092739
0.087997
0.078106
0.072944
0.062316
0.05671
0.11254
0.11245
0.11089
0.10864
0.10436
0.10034
0.092885
0.088019
0.078061
0.072735
0.062073
0.056312
0.11294
0.11285
0.11128
0.10901
0.10467
0.10058
0.093039
0.088045
0.078017
0.072524
0.061825
0.055905
0.11335
0.11327
0.11168
0.10939
0.10499
0.10083
0.0932
0.088076
0.077975
0.072312
0.061571
0.05549
0.11377
0.11371
0.1121
0.10978
0.10532
0.10109
0.09337
0.08811
0.077934
0.072098
0.061311
0.055067
0.11421
0.11415
0.11253
0.11019
0.10566
0.10136
0.093547
0.088149
0.077894
0.071881
0.061045
0.054634
0.11466
0.11462
0.11298
0.11061
0.10602
0.10164
0.093732
0.088191
0.077855
0.071661
0.060771
0.054191
0.11512
0.11509
0.11344
0.11104
0.10639
0.10193
0.093926
0.088238
0.077816
0.071439
0.06049
0.053738
0.1156
0.11558
0.11392
0.11149
0.10677
0.10223
0.094128
0.088289
0.077778
0.071213
0.060201
0.053274
0.11609
0.11609
0.11441
0.11195
0.10717
0.10254
0.094338
0.088344
0.07774
0.070984
0.059904
0.052798
0.1166
0.11661
0.11492
0.11243
0.10758
0.10286
0.094557
0.088403
0.077702
0.07075
0.059598
0.05231
0.11712
0.11715
0.11545
0.11293
0.10801
0.10319
0.094784
0.088466
0.077663
0.070511
0.059282
0.05181
0.11766
0.1177
0.11599
0.11344
0.10845
0.10353
0.09502
0.088532
0.077624
0.070268
0.058957
0.051296
0.11822
0.11828
0.11655
0.11397
0.10891
0.10389
0.095265
0.088602
0.077584
0.070019
0.05862
0.050768
0.11879
0.11887
0.11713
0.11451
0.10938
0.10425
0.095519
0.088675
0.077543
0.069764
0.058273
0.050226
0.11938
0.11948
0.11772
0.11507
0.10987
0.10463
0.095781
0.088751
0.077499
0.069503
0.057913
0.049667
0.11999
0.1201
0.11834
0.11566
0.11038
0.10503
0.096053
0.088831
0.077454
0.069234
0.05754
0.049092
0.12062
0.12075
0.11898
0.11626
0.1109
0.10543
0.096333
0.088913
0.077406
0.068957
0.057153
0.0485
0.12127
0.12142
0.11964
0.11688
0.11145
0.10585
0.096623
0.088998
0.077354
0.068671
0.056752
0.047889
0.12194
0.12211
0.12032
0.11752
0.11201
0.10628
0.096923
0.089086
0.077299
0.068376
0.056335
0.047259
0.12263
0.12283
0.12103
0.11819
0.11259
0.10673
0.097232
0.089175
0.07724
0.068071
0.055902
0.046609
0.12334
0.12357
0.12176
0.11887
0.11319
0.10719
0.09755
0.089267
0.077177
0.067756
0.055452
0.045937
0.12408
0.12433
0.12252
0.11959
0.11382
0.10767
0.097879
0.089361
0.077108
0.067428
0.054983
0.045242
0.12484
0.12512
0.12331
0.12033
0.11447
0.10817
0.098218
0.089457
0.077033
0.067088
0.054495
0.044524
0.12564
0.12594
0.12412
0.12109
0.11514
0.10868
0.098568
0.089555
0.076952
0.066735
0.053986
0.043781
0.12645
0.12679
0.12497
0.12189
0.11585
0.10921
0.098929
0.089654
0.076865
0.066368
0.053456
0.043012
0.12731
0.12767
0.12585
0.12272
0.11657
0.10976
0.099302
0.089755
0.07677
0.065985
0.052902
0.042214
0.12819
0.12859
0.12677
0.12358
0.11733
0.11033
0.099687
0.089857
0.076666
0.065586
0.052325
0.041388
0.12911
0.12955
0.12772
0.12448
0.11812
0.11092
0.10009
0.089961
0.076555
0.06517
0.051722
0.040531
0.13006
0.13054
0.12872
0.12541
0.11895
0.11154
0.1005
0.090065
0.076433
0.064735
0.051091
0.039641
0.13106
0.13158
0.12977
0.12639
0.11981
0.11219
0.10092
0.090172
0.076302
0.064281
0.050433
0.038718
0.1321
0.13267
0.13086
0.12742
0.12071
0.11286
0.10136
0.090279
0.076159
0.063805
0.049744
0.037758
0.13319
0.1338
0.132
0.12849
0.12165
0.11356
0.10182
0.090387
0.076004
0.063307
0.049023
0.036761
0.13433
0.13499
0.1332
0.12962
0.12263
0.11429
0.10229
0.090496
0.075836
0.062785
0.048268
0.035723
0.13552
0.13624
0.13446
0.1308
0.12367
0.11505
0.10278
0.090605
0.075653
0.062237
0.047477
0.034643
0.13676
0.13755
0.13579
0.13204
0.12475
0.11585
0.10329
0.090714
0.075454
0.061661
0.046647
0.033519
0.13807
0.13893
0.13718
0.13335
0.1259
0.11669
0.10381
0.090821
0.075236
0.061054
0.045776
0.032347
0.13945
0.14038
0.13865
0.13473
0.12709
0.11757
0.10436
0.090926
0.074998
0.060412
0.04486
0.031124
0.14089
0.14191
0.1402
0.13619
0.12836
0.11849
0.10492
0.091026
0.074736
0.059734
0.043896
0.029848
0.14241
0.14352
0.14184
0.13773
0.12968
0.11946
0.1055
0.09112
0.074446
0.059014
0.04288
0.028514
0.144
0.14521
0.14357
0.13935
0.13108
0.12046
0.10609
0.091205
0.074126
0.058249
0.041807
0.027119
0.14568
0.147
0.14539
0.14107
0.13255
0.12152
0.1067
0.091277
0.073768
0.057431
0.040671
0.025658
0.14744
0.14889
0.14732
0.14288
0.1341
0.12262
0.10732
0.091332
0.073368
0.056556
0.039467
0.024124
0.14929
0.15088
0.14936
0.1448
0.13572
0.12377
0.10795
0.091364
0.072919
0.055615
0.038187
0.022513
0.15124
0.15299
0.15152
0.14682
0.13743
0.12496
0.10859
0.091368
0.072412
0.054601
0.036823
0.020818
0.15328
0.1552
0.1538
0.14896
0.13922
0.1262
0.10922
0.091334
0.071839
0.053504
0.035366
0.01903
0.15542
0.15754
0.1562
0.15122
0.14109
0.12748
0.10985
0.091255
0.071188
0.052313
0.033807
0.017141
0.15766
0.16001
0.15875
0.1536
0.14305
0.1288
0.11046
0.09112
0.070449
0.051018
0.032134
0.015141
0.16001
0.16261
0.16143
0.15611
0.14511
0.13015
0.11105
0.090916
0.069608
0.049605
0.030337
0.01302
0.16247
0.16535
0.16428
0.15876
0.14725
0.13153
0.1116
0.090631
0.06865
0.04806
0.028401
0.010766
0.16504
0.16825
0.16729
0.16156
0.14948
0.13293
0.11211
0.090247
0.06756
0.04637
0.026314
0.0083668
0.16774
0.1713
0.17048
0.16451
0.1518
0.13434
0.11255
0.089748
0.066319
0.044517
0.024061
0.0058106
0.17056
0.17454
0.17388
0.16763
0.15422
0.13575
0.11291
0.08911
0.064907
0.042484
0.021628
0.0030844
0.17353
0.17797
0.17749
0.17093
0.15672
0.13714
0.11317
0.08831
0.0633
0.040251
0.018998
0.00017516
0.17664
0.18162
0.18135
0.17442
0.15932
0.13851
0.11329
0.087316
0.06147
0.037796
0.016154
-0.00293
0.17991
0.18552
0.18548
0.17813
0.162
0.13981
0.11324
0.086091
0.059384
0.035092
0.013076
-0.0062444
0.18335
0.18968
0.18992
0.18206
0.16476
0.14103
0.11299
0.08459
0.057003
0.032107
0.0097407
-0.0097817
0.18697
0.19414
0.1947
0.18623
0.16757
0.14211
0.11247
0.082758
0.054279
0.028805
0.0061225
-0.013557
0.19077
0.19894
0.19987
0.19065
0.17042
0.14301
0.11161
0.080527
0.051153
0.02514
0.0021892
-0.017587
0.19476
0.20411
0.20544
0.19532
0.17324
0.14364
0.11034
0.077815
0.047558
0.021059
-0.0020959
-0.02189
0.19892
0.20967
0.21146
0.20021
0.17597
0.14389
0.10853
0.074528
0.043416
0.016503
-0.0067742
-0.026487
0.20323
0.21565
0.21792
0.20528
0.1785
0.14365
0.10607
0.070557
0.038643
0.011408
-0.011888
-0.031399
0.20763
0.22205
0.2248
0.21044
0.18068
0.14274
0.1028
0.06578
0.033149
0.0057148
-0.017476
-0.036641
0.21207
0.22883
0.23205
0.21554
0.1823
0.14094
0.098537
0.060072
0.026855
-0.00062627
-0.023561
-0.042218
0.21643
0.23595
0.23953
0.22035
0.18307
0.13801
0.093095
0.053306
0.019689
-0.0076426
-0.030145
-0.04811
0.22062
0.24326
0.24697
0.2245
0.18262
0.13362
0.086258
0.045365
0.011608
-0.01533
-0.037194
-0.054271
0.2245
0.25054
0.25395
0.22744
0.18044
0.12741
0.077812
0.036156
0.0026005
-0.023645
-0.044631
-0.060614
0.22798
0.25736
0.25969
0.22831
0.17586
0.11896
0.067556
0.025624
-0.0072997
-0.032502
-0.05234
-0.067019
0.23098
0.26297
0.2629
0.22587
0.16799
0.10781
0.05534
0.013786
-0.017998
-0.04177
-0.060173
-0.073344
0.23356
0.26616
0.26154
0.21829
0.15573
0.093522
0.041109
0.00076575
-0.029316
-0.051272
-0.067959
-0.079442
0.236
0.26498
0.25254
0.20305
0.13772
0.075659
0.024941
-0.01318
-0.040979
-0.060776
-0.075518
-0.085185
0.2389
0.25682
0.23179
0.17699
0.11244
0.053855
0.0070208
-0.027691
-0.052634
-0.070018
-0.082674
-0.09048
0.24321
0.23878
0.19494
0.13687
0.078413
0.02779
-0.012458
-0.042419
-0.063946
-0.078747
-0.089285
-0.09528
0.24951
0.20767
0.1389
0.080758
0.034738
-0.00277
-0.033426
-0.057192
-0.074729
-0.086829
-0.095292
-0.099616
0.25835
0.15748
0.059828
0.007315
-0.019422
-0.038532
-0.056404
-0.072367
-0.085244
-0.094482
-0.10091
-0.10375
0.28034
0.090193
-0.041222
-0.081521
-0.083511
-0.080362
-0.08273
-0.089256
-0.096642
-0.10268
-0.10699
-0.10844
0.3273
0.024272
-0.14669
-0.17199
-0.14844
-0.12358
-0.11062
-0.10749
-0.1091
-0.11172
-0.11382
-0.11388
0.10337
0.064084
0.054021
0.048038
0.043919
0.040812
0.038322
0.036097
0.034199
0.032081
0.030499
0.027455
0.12278
0.079414
0.066907
0.058943
0.053521
0.049484
0.046285
0.043454
0.041074
0.03842
0.036518
0.03292
0.11003
0.074202
0.062881
0.055039
0.049684
0.045718
0.042601
0.039858
0.037592
0.035045
0.03332
0.029827
0.10494
0.073822
0.062825
0.054889
0.049396
0.045316
0.042117
0.039307
0.037012
0.034417
0.032717
0.029075
0.10428
0.075966
0.064806
0.056651
0.050914
0.046627
0.043263
0.040308
0.037908
0.035187
0.033431
0.029586
0.10362
0.077761
0.066526
0.058233
0.052296
0.047829
0.044318
0.041233
0.038737
0.035906
0.03409
0.030095
0.10249
0.079025
0.067861
0.059513
0.053427
0.048812
0.045176
0.04198
0.0394
0.036481
0.034611
0.030522
0.1013
0.080065
0.069061
0.060708
0.054506
0.049759
0.046007
0.042708
0.040049
0.037058
0.035135
0.031001
0.10019
0.080965
0.070191
0.061878
0.055589
0.050724
0.046863
0.043467
0.040732
0.037681
0.035706
0.031577
0.099126
0.081718
0.071237
0.063008
0.056666
0.051702
0.04774
0.044256
0.041448
0.038351
0.03633
0.032252
0.098101
0.082321
0.072187
0.064084
0.057724
0.052682
0.048634
0.045072
0.042196
0.039067
0.037006
0.033027
0.097108
0.082788
0.073037
0.065097
0.058754
0.05366
0.049539
0.045911
0.042976
0.039829
0.037737
0.033896
0.096148
0.083133
0.073789
0.066039
0.059747
0.054625
0.05045
0.046769
0.043784
0.040634
0.038519
0.034852
0.095224
0.083372
0.074443
0.066907
0.060693
0.055568
0.051357
0.047638
0.044614
0.041475
0.039344
0.035878
0.094334
0.083521
0.075005
0.067697
0.061585
0.05648
0.052252
0.04851
0.045457
0.042342
0.040203
0.036957
0.093482
0.083591
0.075481
0.06841
0.062419
0.057354
0.053125
0.049376
0.046305
0.043226
0.041085
0.03807
0.092665
0.083596
0.075877
0.069046
0.063191
0.058184
0.05397
0.050227
0.047149
0.044116
0.041978
0.039195
0.091885
0.083548
0.076201
0.069611
0.0639
0.058966
0.054781
0.051057
0.04798
0.045001
0.04287
0.040315
0.09114
0.083454
0.07646
0.070108
0.064549
0.059698
0.055553
0.05186
0.048792
0.045873
0.043752
0.041411
0.090429
0.083325
0.076663
0.070542
0.065137
0.060379
0.056284
0.05263
0.04958
0.046723
0.044613
0.04247
0.089751
0.083165
0.076814
0.070918
0.065669
0.06101
0.056973
0.053366
0.050337
0.047546
0.045447
0.043481
0.089104
0.082982
0.076922
0.071241
0.066148
0.061592
0.057618
0.054064
0.051062
0.048336
0.046248
0.044436
0.088485
0.08278
0.07699
0.071517
0.066576
0.062126
0.05822
0.054723
0.051751
0.049089
0.047012
0.045328
0.087894
0.082562
0.077025
0.07175
0.066958
0.062615
0.05878
0.055344
0.052405
0.049803
0.047736
0.046156
0.087328
0.082333
0.077031
0.071944
0.067298
0.063062
0.059299
0.055925
0.053021
0.050477
0.04842
0.04692
0.086786
0.082094
0.077011
0.072103
0.067598
0.063468
0.059779
0.056469
0.053601
0.05111
0.049062
0.047619
0.086265
0.081849
0.076969
0.072231
0.067862
0.063837
0.060222
0.056975
0.054144
0.051702
0.049664
0.048257
0.085765
0.081598
0.076908
0.072331
0.068093
0.064171
0.06063
0.057446
0.054653
0.052254
0.050225
0.048837
0.085284
0.081343
0.076831
0.072406
0.068294
0.064472
0.061005
0.057882
0.055128
0.052768
0.050748
0.049364
0.084821
0.081086
0.076739
0.072459
0.068467
0.064743
0.061348
0.058286
0.05557
0.053244
0.051234
0.049841
0.084374
0.080828
0.076635
0.072492
0.068616
0.064986
0.061663
0.058659
0.055981
0.053686
0.051685
0.050273
0.083942
0.080568
0.076521
0.072507
0.068742
0.065203
0.061949
0.059002
0.056362
0.054094
0.052102
0.050664
0.083525
0.080309