/*--------------------------------*- C++ -*----------------------------------*\
  =========                 |
  \\      /  F ield         | OpenFOAM: The Open Source CFD Toolbox
   \\    /   O peration     | Website:  https://openfoam.org
    \\  /    A nd           | Version:  6.0
     \\/     M anipulation  |
\*---------------------------------------------------------------------------*/
FoamFile
{
    version     2.0;
    format      ascii;
    class       surfaceScalarField;
    location    "2.29";
    object      phi;
}
// * * * * * * * * * * * * * * * * * * * * * * * * * * * * * * * * * * * * * //

dimensions      [0 3 -1 0 0 0 0];

internalField   nonuniform List<scalar> 
26699
(
2.0051e-05
0.005201
4.7124e-10
4.0126e-05
0.0051116
5.9639e-05
0.0049351
7.8186e-05
0.0046741
9.5416e-05
0.0043332
0.00011102
0.0039182
0.00012472
0.0034362
0.00013626
0.0028953
0.00014546
0.002305
0.00015182
0.0016755
0.00015717
0.0010154
0.00046493
3.4445e-05
2.0051e-05
0.0051809
1.4489e-09
4.0127e-05
0.0050916
5.9641e-05
0.0049155
7.8189e-05
0.0046556
9.5419e-05
0.004316
0.00011102
0.0039026
0.00012471
0.0034225
0.00013624
0.0028838
0.00014545
0.0022958
0.00015106
0.0016699
0.00015891
0.0010076
0.00055872
6.5118e-05
2.0051e-05
0.0051609
2.5003e-09
4.0128e-05
0.0050715
5.9644e-05
0.004896
7.8192e-05
0.004637
9.5422e-05
0.0042988
0.00011102
0.003887
0.00012471
0.0034088
0.00013622
0.0028723
0.00014546
0.0022865
0.0001503
0.001665
0.00016018
0.00099769
0.00062856
9.0334e-05
2.0052e-05
0.0051408
3.5617e-09
4.013e-05
0.0050514
5.9646e-05
0.0048765
7.8195e-05
0.0046185
9.5425e-05
0.0042815
0.00011102
0.0038714
0.0001247
0.0033951
0.00013619
0.0028608
0.0001455
0.0022772
0.00014956
0.001661
0.0001609
0.00098634
0.00067887
0.00011059
2.0052e-05
0.0051208
4.6243e-09
4.0131e-05
0.0050313
5.9648e-05
0.004857
7.8198e-05
0.0045999
9.5428e-05
0.0042643
0.00011103
0.0038558
0.0001247
0.0033814
0.00013617
0.0028493
0.00014557
0.0022678
0.00014886
0.0016577
0.00016111
0.00097409
0.00071331
0.00012668
2.0052e-05
0.0051007
5.6881e-09
4.0132e-05
0.0050112
5.9651e-05
0.0048375
7.8201e-05
0.0045814
9.5431e-05
0.0042471
0.00011103
0.0038402
0.0001247
0.0033678
0.00013614
0.0028379
0.00014566
0.0022583
0.00014824
0.0016551
0.00016087
0.00096146
0.00073492
0.00013926
2.0052e-05
0.0050807
6.7531e-09
4.0134e-05
0.0049912
5.9653e-05
0.004818
7.8204e-05
0.0045628
9.5434e-05
0.0042298
0.00011103
0.0038246
0.0001247
0.0033541
0.0001361
0.0028265
0.00014577
0.0022486
0.0001477
0.0016532
0.00016026
0.0009489
0.00074626
0.00014892
2.0052e-05
0.0050606
7.8194e-09
4.0135e-05
0.0049711
5.9655e-05
0.0047984
7.8207e-05
0.0045443
9.5438e-05
0.0042126
0.00011103
0.003809
0.0001247
0.0033404
0.00013606
0.0028151
0.00014589
0.0022388
0.00014726
0.0016518
0.00015939
0.00093677
0.00074952
0.00015613
2.0052e-05
0.0050405
8.8871e-09
4.0136e-05
0.004951
5.9658e-05
0.0047789
7.821e-05
0.0045257
9.5441e-05
0.0041954
0.00011103
0.0037934
0.0001247
0.0033268
0.00013602
0.0028038
0.00014602
0.0022288
0.00014693
0.0016509
0.00015834
0.00092536
0.00074651
0.00016135
2.0053e-05
0.0050205
9.9563e-09
4.0138e-05
0.0049309
5.966e-05
0.0047594
7.8214e-05
0.0045072
9.5444e-05
0.0041782
0.00011103
0.0037778
0.0001247
0.0033131
0.00013598
0.0027925
0.00014615
0.0022186
0.0001467
0.0016503
0.00015718
0.00091489
0.00073875
0.00016494
2.0053e-05
0.0050004
1.1027e-08
4.0139e-05
0.0049108
5.9663e-05
0.0047399
7.8217e-05
0.0044886
9.5448e-05
0.0041609
0.00011104
0.0037623
0.00012471
0.0032994
0.00013593
0.0027813
0.00014628
0.0022083
0.00014658
0.00165
0.00015598
0.00090549
0.00072748
0.00016725
2.0053e-05
0.0049803
1.2099e-08
4.014e-05
0.0048907
5.9665e-05
0.0047203
7.822e-05
0.0044701
9.5451e-05
0.0041437
0.00011104
0.0037467
0.00012471
0.0032857
0.00013587
0.0027702
0.00014641
0.0021977
0.00014657
0.0016499
0.0001548
0.00089725
0.00071374
0.00016854
2.0053e-05
0.0049603
1.3173e-08
4.0142e-05
0.0048707
5.9667e-05
0.0047008
7.8223e-05
0.0044515
9.5454e-05
0.0041265
0.00011104
0.0037311
0.00012472
0.0032721
0.00013582
0.0027591
0.00014654
0.002187
0.00014665
0.0016498
0.00015368
0.00089022
0.00069835
0.00016906
2.0053e-05
0.0049402
1.4249e-08
4.0143e-05
0.0048506
5.967e-05
0.0046813
7.8226e-05
0.0044329
9.5458e-05
0.0041092
0.00011104
0.0037155
0.00012473
0.0032584
0.00013576
0.002748
0.00014665
0.0021761
0.00014681
0.0016496
0.00015265
0.00088438
0.000682
0.000169
2.0053e-05
0.0049201
1.5326e-08
4.0144e-05
0.0048305
5.9672e-05
0.0046618
7.8229e-05
0.0044144
9.5461e-05
0.004092
0.00011104
0.0036999
0.00012474
0.0032447
0.0001357
0.0027371
0.00014675
0.0021651
0.00014705
0.0016493
0.00015173
0.00087969
0.00066521
0.00016852
2.0053e-05
0.0049001
1.6405e-08
4.0146e-05
0.0048104
5.9674e-05
0.0046422
7.8232e-05
0.0043958
9.5465e-05
0.0040748
0.00011104
0.0036843
0.00012475
0.003231
0.00013564
0.0027262
0.00014683
0.0021539
0.00014735
0.0016488
0.00015094
0.0008761
0.00064839
0.00016776
2.0054e-05
0.00488
1.7486e-08
4.0147e-05
0.0047903
5.9677e-05
0.0046227
7.8236e-05
0.0043773
9.5469e-05
0.0040575
0.00011105
0.0036688
0.00012476
0.0032172
0.00013558
0.0027154
0.0001469
0.0021426
0.0001477
0.001648
0.00015029
0.00087351
0.00063187
0.00016681
2.0054e-05
0.0048599
1.857e-08
4.0148e-05
0.0047702
5.9679e-05
0.0046032
7.8239e-05
0.0043587
9.5472e-05
0.0040403
0.00011105
0.0036532
0.00012478
0.0032035
0.00013552
0.0027046
0.00014694
0.0021311
0.00014809
0.0016468
0.00014977
0.00087183
0.00061587
0.00016577
2.0054e-05
0.0048399
1.9655e-08
4.015e-05
0.0047501
5.9682e-05
0.0045836
7.8242e-05
0.0043401
9.5476e-05
0.0040231
0.00011105
0.0036376
0.00012479
0.0031898
0.00013546
0.002694
0.00014697
0.0021196
0.00014851
0.0016453
0.00014939
0.00087095
0.00060057
0.00016469
2.0054e-05
0.0048198
2.0742e-08
4.0151e-05
0.00473
5.9684e-05
0.0045641
7.8245e-05
0.0043216
9.548e-05
0.0040058
0.00011105
0.003622
0.00012481
0.003176
0.0001354
0.0026834
0.00014699
0.002108
0.00014895
0.0016434
0.00014913
0.00087077
0.00058607
0.00016363
2.0054e-05
0.0047997
2.1831e-08
4.0152e-05
0.0047099
5.9687e-05
0.0045446
7.8249e-05
0.004303
9.5484e-05
0.0039886
0.00011105
0.0036065
0.00012483
0.0031622
0.00013534
0.0026729
0.00014698
0.0020964
0.00014939
0.0016409
0.000149
0.00087116
0.00057245
0.00016262
2.0054e-05
0.0047796
2.2922e-08
4.0154e-05
0.0046898
5.9689e-05
0.004525
7.8252e-05
0.0042845
9.5488e-05
0.0039714
0.00011105
0.0035909
0.00012485
0.0031484
0.00013529
0.0026624
0.00014695
0.0020847
0.00014984
0.001638
0.00014897
0.00087203
0.00055973
0.00016169
2.0054e-05
0.0047596
2.4016e-08
4.0155e-05
0.0046697
5.9691e-05
0.0045055
7.8255e-05
0.0042659
9.5492e-05
0.0039541
0.00011105
0.0035754
0.00012487
0.0031346
0.00013524
0.0026521
0.00014691
0.0020731
0.00015028
0.0016347
0.00014904
0.00087326
0.00054793
0.00016085
2.0054e-05
0.0047395
2.5112e-08
4.0157e-05
0.0046496
5.9694e-05
0.004486
7.8259e-05
0.0042473
9.5496e-05
0.0039369
0.00011105
0.0035598
0.00012489
0.0031208
0.00013519
0.0026418
0.00014684
0.0020614
0.0001507
0.0016308
0.0001492
0.00087477
0.000537
0.00016012
2.0055e-05
0.0047194
2.621e-08
4.0158e-05
0.0046295
5.9696e-05
0.0044664
7.8262e-05
0.0042288
9.55e-05
0.0039196
0.00011105
0.0035442
0.00012491
0.0031069
0.00013515
0.0026315
0.00014677
0.0020498
0.00015111
0.0016265
0.00014943
0.00087644
0.00052694
0.0001595
2.0055e-05
0.0046993
2.7311e-08
4.0159e-05
0.0046094
5.9699e-05
0.0044469
7.8265e-05
0.0042102
9.5504e-05
0.0039024
0.00011105
0.0035287
0.00012493
0.0030931
0.00013512
0.0026213
0.00014668
0.0020382
0.00015148
0.0016217
0.00014971
0.00087821
0.00051767
0.00015898
2.0055e-05
0.0046792
2.8413e-08
4.0161e-05
0.0045893
5.9701e-05
0.0044274
7.8269e-05
0.0041916
9.5509e-05
0.0038852
0.00011105
0.0035131
0.00012496
0.0030792
0.00013509
0.0026112
0.00014657
0.0020268
0.00015183
0.0016164
0.00015005
0.00088
0.00050916
0.00015856
2.0055e-05
0.0046591
2.9519e-08
4.0162e-05
0.0045692
5.9704e-05
0.0044078
7.8272e-05
0.0041731
9.5513e-05
0.0038679
0.00011105
0.0034976
0.00012498
0.0030652
0.00013507
0.0026011
0.00014646
0.0020154
0.00015215
0.0016107
0.00015041
0.00088174
0.00050134
0.00015823
2.0055e-05
0.0046391
3.0627e-08
4.0163e-05
0.0045491
5.9706e-05
0.0043883
7.8276e-05
0.0041545
9.5518e-05
0.0038507
0.00011105
0.0034821
0.00012501
0.0030513
0.00013506
0.002591
0.00014634
0.0020041
0.00015244
0.0016046
0.0001508
0.00088337
0.00049416
0.00015799
2.0055e-05
0.004619
3.1737e-08
4.0165e-05
0.004529
5.9709e-05
0.0043687
7.8279e-05
0.0041359
9.5523e-05
0.0038334
0.00011105
0.0034665
0.00012503
0.0030373
0.00013505
0.002581
0.00014621
0.0019929
0.00015269
0.0015981
0.00015121
0.00088485
0.00048754
0.00015783
2.0055e-05
0.0045989
3.285e-08
4.0166e-05
0.0045088
5.9711e-05
0.0043492
7.8283e-05
0.0041174
9.5528e-05
0.0038162
0.00011105
0.003451
0.00012505
0.0030233
0.00013505
0.002571
0.00014607
0.0019819
0.00015291
0.0015913
0.00015162
0.00088614
0.00048143
0.00015773
2.0056e-05
0.0045788
3.3966e-08
4.0167e-05
0.0044887
5.9714e-05
0.0043296
7.8286e-05
0.0040988
9.5532e-05
0.003799
0.00011105
0.0034355
0.00012508
0.0030093
0.00013506
0.002561
0.00014594
0.001971
0.00015309
0.0015841
0.00015203
0.0008872
0.00047577
0.00015769
2.0056e-05
0.0045587
3.5084e-08
4.0169e-05
0.0044686
5.9716e-05
0.0043101
7.829e-05
0.0040802
9.5538e-05
0.0037817
0.00011105
0.00342
0.0001251
0.0029952
0.00013508
0.0025511
0.0001458
0.0019603
0.00015325
0.0015767
0.00015244
0.00088801
0.00047051
0.0001577
2.0056e-05
0.0045386
3.6205e-08
4.017e-05
0.0044485
5.9719e-05
0.0042905
7.8293e-05
0.0040616
9.5543e-05
0.0037645
0.00011105
0.0034045
0.00012512
0.0029812
0.0001351
0.0025411
0.00014566
0.0019498
0.00015337
0.001569
0.00015283
0.00088854
0.00046559
0.00015775
2.0056e-05
0.0045185
3.7329e-08
4.0172e-05
0.0044284
5.9721e-05
0.004271
7.8297e-05
0.0040431
9.5548e-05
0.0037472
0.00011105
0.003389
0.00012514
0.0029671
0.00013513
0.0025311
0.00014552
0.0019394
0.00015346
0.0015611
0.0001532
0.0008888
0.00046097
0.00015783
2.0056e-05
0.0044984
3.8457e-08
4.0173e-05
0.0044083
5.9724e-05
0.0042514
7.83e-05
0.0040245
9.5553e-05
0.0037299
0.00011105
0.0033735
0.00012516
0.002953
0.00013516
0.0025211
0.00014539
0.0019291
0.00015352
0.0015529
0.00015356
0.00088876
0.0004566
0.00015793
2.0056e-05
0.0044783
3.9587e-08
4.0174e-05
0.0043882
5.9726e-05
0.0042319
7.8304e-05
0.0040059
9.5559e-05
0.0037127
0.00011105
0.003358
0.00012518
0.0029388
0.0001352
0.0025111
0.00014526
0.0019191
0.00015356
0.0015446
0.00015389
0.00088843
0.00045245
0.00015805
2.0056e-05
0.0044582
4.072e-08
4.0176e-05
0.004368
5.9729e-05
0.0042123
7.8308e-05
0.0039873
9.5565e-05
0.0036954
0.00011105
0.0033425
0.0001252
0.0029247
0.00013525
0.002501
0.00014514
0.0019092
0.00015358
0.0015362
0.0001542
0.0008878
0.00044847
0.00015818
2.0056e-05
0.0044381
4.1856e-08
4.0177e-05
0.0043479
5.9731e-05
0.0041928
7.8311e-05
0.0039687
9.557e-05
0.0036782
0.00011105
0.003327
0.00012521
0.0029105
0.0001353
0.0024909
0.00014503
0.0018995
0.00015358
0.0015276
0.00015449
0.00088689
0.00044465
0.00015831
2.0057e-05
0.004418
4.2996e-08
4.0179e-05
0.0043278
5.9734e-05
0.0041732
7.8315e-05
0.0039502
9.5576e-05
0.0036609
0.00011105
0.0033115
0.00012523
0.0028964
0.00013536
0.0024808
0.00014492
0.0018899
0.00015356
0.001519
0.00015475
0.00088569
0.00044095
0.00015846
2.0057e-05
0.0043979
4.4139e-08
4.018e-05
0.0043077
5.9737e-05
0.0041537
7.8319e-05
0.0039316
9.5582e-05
0.0036437
0.00011105
0.0032961
0.00012524
0.0028822
0.00013542
0.0024706
0.00014483
0.0018805
0.00015353
0.0015103
0.00015499
0.00088423
0.00043734
0.0001586
2.0057e-05
0.0043778
4.5285e-08
4.0182e-05
0.0042875
5.9739e-05
0.0041341
7.8322e-05
0.003913
9.5588e-05
0.0036264
0.00011105
0.0032806
0.00012525
0.002868
0.00013548
0.0024604
0.00014474
0.0018712
0.00015348
0.0015016
0.00015521
0.0008825
0.00043382
0.00015874
2.0057e-05
0.0043577
4.6435e-08
4.0183e-05
0.0042674
5.9742e-05
0.0041146
7.8326e-05
0.0038944
9.5595e-05
0.0036091
0.00011105
0.0032652
0.00012526
0.0028538
0.00013555
0.0024501
0.00014466
0.0018621
0.00015343
0.0014928
0.00015541
0.00088053
0.00043035
0.00015887
2.0057e-05
0.0043376
4.7588e-08
4.0184e-05
0.0042473
5.9745e-05
0.004095
7.833e-05
0.0038758
9.5601e-05
0.0035918
0.00011105
0.0032497
0.00012527
0.0028395
0.00013562
0.0024397
0.0001446
0.0018531
0.00015337
0.001484
0.00015558
0.00087832
0.00042693
0.000159
2.0057e-05
0.0043175
4.8745e-08
4.0186e-05
0.0042272
5.9747e-05
0.0040754
7.8334e-05
0.0038572
9.5608e-05
0.0035746
0.00011105
0.0032343
0.00012528
0.0028253
0.00013569
0.0024293
0.00014454
0.0018443
0.00015331
0.0014753
0.00015574
0.00087589
0.00042355
0.00015912
2.0057e-05
0.0042974
4.9905e-08
4.0187e-05
0.004207
5.975e-05
0.0040559
7.8338e-05
0.0038387
9.5614e-05
0.0035573
0.00011105
0.0032188
0.00012528
0.0028111
0.00013576
0.0024188
0.0001445
0.0018356
0.00015324
0.0014665
0.00015588
0.00087325
0.00042019
0.00015924
2.0058e-05
0.0042773
5.107e-08
4.0189e-05
0.0041869
5.9753e-05
0.0040363
7.8342e-05
0.0038201
9.5621e-05
0.00354
0.00011106
0.0032034
0.00012529
0.0027969
0.00013583
0.0024083
0.00014446
0.0018269
0.00015318
0.0014578
0.00015601
0.00087043
0.00041685
0.00015935
2.0058e-05
0.0042572
5.2238e-08
4.019e-05
0.0041668
5.9755e-05
0.0040167
7.8345e-05
0.0038015
9.5628e-05
0.0035227
0.00011106
0.003188
0.00012529
0.0027826
0.0001359
0.0023977
0.00014443
0.0018184
0.00015311
0.0014491
0.00015612
0.00086742
0.00041352
0.00015945
2.0058e-05
0.0042371
5.341e-08
4.0192e-05
0.0041466
5.9758e-05
0.0039972
7.8349e-05
0.0037829
9.5635e-05
0.0035054
0.00011106
0.0031725
0.00012529
0.0027684
0.00013597
0.002387
0.00014441
0.00181
0.00015305
0.0014405
0.00015622
0.00086426
0.00041019
0.00015954
2.0058e-05
0.004217
5.4586e-08
4.0193e-05
0.0041265
5.9761e-05
0.0039776
7.8353e-05
0.0037643
9.5642e-05
0.0034882
0.00011106
0.0031571
0.00012529
0.0027542
0.00013604
0.0023762
0.0001444
0.0018016
0.00015299
0.0014319
0.00015631
0.00086094
0.00040687
0.00015963
2.0058e-05
0.0041969
5.5767e-08
4.0195e-05
0.0041064
5.9764e-05
0.003958
7.8357e-05
0.0037457
9.5649e-05
0.0034709
0.00011107
0.0031417
0.00012529
0.0027399
0.00013611
0.0023654
0.0001444
0.0017933
0.00015294
0.0014233
0.00015639
0.00085749
0.00040355
0.00015971
2.0058e-05
0.0041767
5.6951e-08
4.0196e-05
0.0040862
5.9767e-05
0.0039385
7.8361e-05
0.0037271
9.5656e-05
0.0034536
0.00011107
0.0031263
0.00012529
0.0027257
0.00013618
0.0023545
0.00014441
0.0017851
0.00015289
0.0014149
0.00015647
0.00085392
0.00040023
0.00015979
2.0058e-05
0.0041566
5.814e-08
4.0198e-05
0.0040661
5.977e-05
0.0039189
7.8365e-05
0.0037085
9.5663e-05
0.0034363
0.00011108
0.0031109
0.00012529
0.0027115
0.00013625
0.0023436
0.00014442
0.0017769
0.00015285
0.0014064
0.00015654
0.00085023
0.0003969
0.00015986
2.0059e-05
0.0041365
5.9334e-08
4.0199e-05
0.0040459
5.9773e-05
0.0038993
7.8369e-05
0.0036899
9.5671e-05
0.003419
0.00011108
0.0030954
0.00012528
0.0026973
0.00013631
0.0023326
0.00014444
0.0017688
0.00015281
0.0013981
0.0001566
0.00084644
0.00039358
0.00015993
2.0059e-05
0.0041164
6.0532e-08
4.0201e-05
0.0040258
5.9775e-05
0.0038797
7.8373e-05
0.0036713
9.5679e-05
0.0034017
0.00011109
0.00308
0.00012528
0.0026831
0.00013637
0.0023215
0.00014447
0.0017607
0.00015278
0.0013898
0.00015666
0.00084256
0.00039025
0.00015999
2.0059e-05
0.0040963
6.1734e-08
4.0203e-05
0.0040057
5.9778e-05
0.0038602
7.8378e-05
0.0036527
9.5686e-05
0.0033844
0.00011109
0.0030646
0.00012528
0.0026689
0.00013643
0.0023103
0.0001445
0.0017526
0.00015275
0.0013815
0.00015672
0.00083859
0.00038692
0.00016005
2.0059e-05
0.0040761
6.2942e-08
4.0204e-05
0.0039855
5.9781e-05
0.0038406
7.8382e-05
0.0036341
9.5694e-05
0.003367
0.0001111
0.0030492
0.00012527
0.0026548
0.00013649
0.0022991
0.00014453
0.0017446
0.00015273
0.0013733
0.00015677
0.00083455
0.0003836
0.0001601
2.0059e-05
0.004056
6.4154e-08
4.0206e-05
0.0039654
5.9784e-05
0.003821
7.8386e-05
0.0036155
9.5702e-05
0.0033497
0.0001111
0.0030338
0.00012527
0.0026406
0.00013654
0.0022878
0.00014457
0.0017365
0.00015272
0.0013651
0.00015683
0.00083044
0.00038027
0.00016015
2.0059e-05
0.0040359
6.5372e-08
4.0207e-05
0.0039452
5.9787e-05
0.0038014
7.839e-05
0.0035969
9.571e-05
0.0033324
0.00011111
0.0030184
0.00012527
0.0026264
0.00013659
0.0022765
0.00014461
0.0017285
0.00015271
0.001357
0.00015688
0.00082627
0.00037695
0.0001602
2.006e-05
0.0040158
6.6594e-08
4.0209e-05
0.0039251
5.9791e-05
0.0037819
7.8394e-05
0.0035783
9.5718e-05
0.0033151
0.00011112
0.003003
0.00012526
0.0026123
0.00013664
0.0022651
0.00014466
0.0017205
0.00015271
0.001349
0.00015693
0.00082205
0.00037364
0.00016025
2.006e-05
0.0039956
6.7822e-08
4.0211e-05
0.0039049
5.9794e-05
0.0037623
7.8398e-05
0.0035597
9.5727e-05
0.0032978
0.00011113
0.0029876
0.00012526
0.0025982
0.00013669
0.0022537
0.0001447
0.0017125
0.00015272
0.001341
0.00015699
0.00081778
0.00037033
0.0001603
2.006e-05
0.0039755
6.9055e-08
4.0212e-05
0.0038848
5.9797e-05
0.0037427
7.8403e-05
0.0035411
9.5735e-05
0.0032804
0.00011113
0.0029722
0.00012525
0.002584
0.00013674
0.0022422
0.00014475
0.0017045
0.00015272
0.001333
0.00015704
0.00081347
0.00036702
0.00016034
2.006e-05
0.0039554
7.0294e-08
4.0214e-05
0.0038646
5.98e-05
0.0037231
7.8407e-05
0.0035225
9.5744e-05
0.0032631
0.00011114
0.0029568
0.00012525
0.0025699
0.00013678
0.0022307
0.0001448
0.0016965
0.00015274
0.0013251
0.00015709
0.00080912
0.00036373
0.00016038
2.006e-05
0.0039352
7.1538e-08
4.0215e-05
0.0038445
5.9803e-05
0.0037035
7.8411e-05
0.0035039
9.5752e-05
0.0032457
0.00011115
0.0029414
0.00012524
0.0025559
0.00013682
0.0022191
0.00014485
0.0016884
0.00015275
0.0013172
0.00015714
0.00080473
0.00036045
0.00016042
2.0061e-05
0.0039151
7.2789e-08
4.0217e-05
0.0038243
5.9807e-05
0.0036839
7.8415e-05
0.0034853
9.5761e-05
0.0032284
0.00011116
0.002926
0.00012524
0.0025418
0.00013686
0.0022074
0.00014491
0.0016804
0.00015277
0.0013093
0.00015719
0.00080031
0.00035718
0.00016046
2.0061e-05
0.003895
7.4045e-08
4.0219e-05
0.0038041
5.981e-05
0.0036643
7.842e-05
0.0034667
9.577e-05
0.0032111
0.00011117
0.0029106
0.00012524
0.0025277
0.0001369
0.0021958
0.00014496
0.0016723
0.0001528
0.0013015
0.00015724
0.00079586
0.00035392
0.0001605
2.0061e-05
0.0038748
7.5307e-08
4.0221e-05
0.003784
5.9813e-05
0.0036447
7.8424e-05
0.0034481
9.5779e-05
0.0031937
0.00011118
0.0028952
0.00012523
0.0025137
0.00013694
0.0021841
0.00014501
0.0016643
0.00015282
0.0012937
0.0001573
0.00079139
0.00035067
0.00016054
2.0061e-05
0.0038547
7.6576e-08
4.0222e-05
0.0037638
5.9817e-05
0.0036251
7.8428e-05
0.0034294
9.5788e-05
0.0031763
0.00011119
0.0028798
0.00012523
0.0024996
0.00013697
0.0021723
0.00014507
0.0016562
0.00015285
0.0012859
0.00015735
0.00078689
0.00034745
0.00016058
2.0061e-05
0.0038346
7.7851e-08
4.0224e-05
0.0037437
5.982e-05
0.0036055
7.8432e-05
0.0034108
9.5798e-05
0.003159
0.0001112
0.0028644
0.00012523
0.0024856
0.00013701
0.0021605
0.00014512
0.001648
0.00015288
0.0012781
0.0001574
0.00078238
0.00034423
0.00016061
2.0062e-05
0.0038144
7.9132e-08
4.0226e-05
0.0037235
5.9824e-05
0.0035859
7.8437e-05
0.0033922
9.5807e-05
0.0031416
0.00011121
0.002849
0.00012522
0.0024716
0.00013704
0.0021487
0.00014518
0.0016399
0.00015292
0.0012704
0.00015745
0.00077784
0.00034103
0.00016065
2.0062e-05
0.0037943
8.042e-08
4.0227e-05
0.0037033
5.9827e-05
0.0035663
7.8441e-05
0.0033736
9.5817e-05
0.0031242
0.00011122
0.0028336
0.00012522
0.0024576
0.00013707
0.0021369
0.00014523
0.0016317
0.00015295
0.0012626
0.00015751
0.00077329
0.00033785
0.00016069
2.0062e-05
0.0037741
8.1715e-08
4.0229e-05
0.0036832
5.9831e-05
0.0035467
7.8446e-05
0.003355
9.5826e-05
0.0031068
0.00011124
0.0028182
0.00012522
0.0024436
0.0001371
0.002125
0.00014529
0.0016236
0.00015299
0.0012549
0.00015756
0.00076872
0.00033469
0.00016072
2.0062e-05
0.003754
8.3017e-08
4.0231e-05
0.003663
5.9835e-05
0.0035271
7.845e-05
0.0033364
9.5836e-05
0.0030895
0.00011125
0.0028028
0.00012522
0.0024296
0.00013713
0.0021131
0.00014534
0.0016153
0.00015303
0.0012473
0.00015761
0.00076414
0.00033155
0.00016075
2.0063e-05
0.0037338
8.4327e-08
4.0233e-05
0.0036428
5.9838e-05
0.0035075
7.8454e-05
0.0033178
9.5846e-05
0.0030721
0.00011126
0.0027874
0.00012522
0.0024157
0.00013716
0.0021012
0.00014539
0.0016071
0.00015307
0.0012396
0.00015766
0.00075954
0.00032842
0.00016079
2.0063e-05
0.0037137
8.5643e-08
4.0235e-05
0.0036227
5.9842e-05
0.0034879
7.8459e-05
0.0032991
9.5855e-05
0.0030547
0.00011128
0.0027719
0.00012522
0.0024017
0.00013718
0.0020892
0.00014545
0.0015989
0.00015311
0.0012319
0.00015771
0.00075494
0.00032531
0.00016082
2.0063e-05
0.0036935
8.6967e-08
4.0236e-05
0.0036025
5.9846e-05
0.0034683
7.8463e-05
0.0032805
9.5865e-05
0.0030373
0.00011129
0.0027565
0.00012522
0.0023878
0.00013721
0.0020772
0.0001455
0.0015906
0.00015315
0.0012243
0.00015776
0.00075032
0.00032222
0.00016085
2.0063e-05
0.0036734
8.8299e-08
4.0238e-05
0.0035823
5.985e-05
0.0034487
7.8467e-05
0.0032619
9.5875e-05
0.0030199
0.0001113
0.0027411
0.00012522
0.0023739
0.00013724
0.0020652
0.00014555
0.0015822
0.00015319
0.0012166
0.00015781
0.00074569
0.00031915
0.00016089
2.0064e-05
0.0036532
8.9638e-08
4.024e-05
0.0035621
5.9854e-05
0.0034291
7.8472e-05
0.0032433
9.5885e-05
0.0030024
0.00011132
0.0027257
0.00012522
0.00236
0.00013726
0.0020531
0.00014561
0.0015739
0.00015323
0.001209
0.00015786
0.00074106
0.00031609
0.00016092
2.0064e-05
0.0036331
9.0986e-08
4.0242e-05
0.003542
5.9858e-05
0.0034095
7.8476e-05
0.0032247
9.5895e-05
0.002985
0.00011133
0.0027102
0.00012522
0.0023461
0.00013729
0.0020411
0.00014566
0.0015655
0.00015327
0.0012014
0.00015791
0.00073641
0.00031306
0.00016095
2.0064e-05
0.0036129
9.2341e-08
4.0244e-05
0.0035218
5.9862e-05
0.0033899
7.8481e-05
0.003206
9.5905e-05
0.0029676
0.00011135
0.0026948
0.00012522
0.0023322
0.00013731
0.002029
0.00014571
0.0015571
0.00015331
0.0011938
0.00015796
0.00073176
0.00031004
0.00016098
2.0064e-05
0.0035928
9.3705e-08
4.0246e-05
0.0035016
5.9867e-05
0.0033702
7.8485e-05
0.0031874
9.5915e-05
0.0029502
0.00011137
0.0026793
0.00012523
0.0023184
0.00013734
0.0020169
0.00014576
0.0015487
0.00015335
0.0011862
0.00015801
0.0007271
0.00030705
0.00016101
2.0065e-05
0.0035726
9.5078e-08
4.0248e-05
0.0034814
5.9871e-05
0.0033506
7.849e-05
0.0031688
9.5926e-05
0.0029327
0.00011138
0.0026639
0.00012523
0.0023045
0.00013736
0.0020047
0.00014581
0.0015403
0.00015339
0.0011786
0.00015806
0.00072244
0.00030407
0.00016104
2.0065e-05
0.0035525
9.6459e-08
4.025e-05
0.0034612
5.9875e-05
0.003331
7.8495e-05
0.0031502
9.5936e-05
0.0029153
0.0001114
0.0026484
0.00012523
0.0022907
0.00013739
0.0019926
0.00014586
0.0015318
0.00015344
0.0011711
0.00015811
0.00071776
0.00030111
0.00016107
2.0065e-05
0.0035323
9.785e-08
4.0252e-05
0.003441
5.988e-05
0.0033114
7.8499e-05
0.0031316
9.5946e-05
0.0028979
0.00011142
0.0026329
0.00012524
0.0022769
0.00013741
0.0019804
0.00014591
0.0015233
0.00015348
0.0011635
0.00015815
0.00071309
0.00029816
0.0001611
2.0066e-05
0.0035121
9.9249e-08
4.0253e-05
0.0034209
5.9884e-05
0.0032917
7.8504e-05
0.003113
9.5955e-05
0.0028804
0.00011144
0.0026174
0.00012525
0.0022631
0.00013743
0.0019682
0.00014596
0.0015148
0.00015352
0.0011559
0.0001582
0.00070841
0.00029524
0.00016113
2.0066e-05
0.003492
1.0066e-07
4.0255e-05
0.0034007
5.9889e-05
0.0032721
7.8509e-05
0.0030943
9.5965e-05
0.0028629
0.00011145
0.002602
0.00012525
0.0022493
0.00013746
0.001956
0.00014601
0.0015062
0.00015356
0.0011484
0.00015825
0.00070372
0.00029233
0.00016115
2.0066e-05
0.0034718
1.0208e-07
4.0257e-05
0.0033805
5.9893e-05
0.0032525
7.8514e-05
0.0030757
9.5975e-05
0.0028455
0.00011147
0.0025865
0.00012526
0.0022355
0.00013748
0.0019438
0.00014606
0.0014976
0.0001536
0.0011409
0.00015829
0.00069903
0.00028944
0.00016118
2.0067e-05
0.0034516
1.035e-07
4.0259e-05
0.0033603
5.9898e-05
0.0032328
7.8519e-05
0.0030571
9.5985e-05
0.002828
0.00011149
0.002571
0.00012527
0.0022217
0.0001375
0.0019316
0.00014611
0.001489
0.00015364
0.0011333
0.00015834
0.00069434
0.00028657
0.00016121
2.0067e-05
0.0034314
1.0494e-07
4.0262e-05
0.0033401
5.9903e-05
0.0032132
7.8524e-05
0.0030385
9.5995e-05
0.0028105
0.00011151
0.0025554
0.00012528
0.0022079
0.00013753
0.0019193
0.00014616
0.0014804
0.00015369
0.0011258
0.00015838
0.00068964
0.00028372
0.00016124
2.0068e-05
0.0034113
1.0639e-07
4.0264e-05
0.0033199
5.9908e-05
0.0031935
7.8529e-05
0.0030198
9.6004e-05
0.0027931
0.00011153
0.0025399
0.00012529
0.0021942
0.00013755
0.001907
0.00014621
0.0014717
0.00015373
0.0011183
0.00015843
0.00068494
0.00028088
0.00016126
2.0068e-05
0.0033911
1.0785e-07
4.0266e-05
0.0032997
5.9913e-05
0.0031739
7.8535e-05
0.0030012
9.6014e-05
0.0027756
0.00011155
0.0025244
0.0001253
0.0021804
0.00013757
0.0018948
0.00014626
0.001463
0.00015377
0.0011108
0.00015847
0.00068024
0.00027806
0.00016129
2.0068e-05
0.0033709
1.0932e-07
4.0268e-05
0.0032795
5.9918e-05
0.0031542
7.854e-05
0.0029826
9.6023e-05
0.0027581
0.00011157
0.0025088
0.00012531
0.0021667
0.0001376
0.0018825
0.00014631
0.0014543
0.00015381
0.0011033
0.00015851
0.00067554
0.00027525
0.00016132
2.0069e-05
0.0033507
1.108e-07
4.027e-05
0.0032593
5.9923e-05
0.0031346
7.8546e-05
0.002964
9.6033e-05
0.0027406
0.00011159
0.0024933
0.00012532
0.002153
0.00013762
0.0018702
0.00014635
0.0014456
0.00015385
0.0010958
0.00015856
0.00067083
0.00027247
0.00016134
2.0069e-05
0.0033306
1.1229e-07
4.0272e-05
0.0032391
5.9928e-05
0.0031149
7.8552e-05
0.0029454
9.6042e-05
0.0027231
0.00011161
0.0024777
0.00012534
0.0021393
0.00013764
0.0018579
0.0001464
0.0014368
0.00015389
0.0010883
0.0001586
0.00066612
0.0002697
0.00016137
2.007e-05
0.0033104
1.138e-07
4.0274e-05
0.0032189
5.9933e-05
0.0030953
7.8558e-05
0.0029267
9.6051e-05
0.0027056
0.00011164
0.0024621
0.00012535
0.0021255
0.00013767
0.0018456
0.00014645
0.001428
0.00015393
0.0010808
0.00015864
0.00066142
0.00026694
0.0001614
2.007e-05
0.0032902
1.1531e-07
4.0276e-05
0.0031987
5.9939e-05
0.0030756
7.8564e-05
0.0029081
9.6061e-05
0.0026881
0.00011166
0.0024465
0.00012536
0.0021118
0.00013769
0.0018332
0.0001465
0.0014192
0.00015397
0.0010733
0.00015868
0.00065671
0.0002642
0.00016142
2.0071e-05
0.00327
1.1684e-07
4.0278e-05
0.0031785
5.9944e-05
0.0030559
7.857e-05
0.0028895
9.607e-05
0.0026706
0.00011168
0.0024309
0.00012538
0.0020981
0.00013771
0.0018209
0.00014654
0.0014104
0.00015401
0.0010659
0.00015872
0.00065199
0.00026148
0.00016145
2.0071e-05
0.0032498
1.1838e-07
4.0281e-05
0.0031583
5.995e-05
0.0030363
7.8576e-05
0.0028709
9.6079e-05
0.0026531
0.0001117
0.0024153
0.0001254
0.0020844
0.00013774
0.0018086
0.00014659
0.0014016
0.00015405
0.0010584
0.00015877
0.00064728
0.00025877
0.00016147
2.0072e-05
0.0032296
1.1993e-07
4.0283e-05
0.003138
5.9955e-05
0.0030166
7.8583e-05
0.0028522
9.6088e-05
0.0026356
0.00011172
0.0023996
0.00012541
0.0020708
0.00013776
0.0017962
0.00014664
0.0013927
0.00015409
0.0010509
0.00015881
0.00064257
0.00025607
0.0001615
2.0072e-05
0.0032094
1.2149e-07
4.0285e-05
0.0031178
5.9961e-05
0.0029969
7.859e-05
0.0028336
9.6097e-05
0.0026181
0.00011175
0.002384
0.00012543
0.0020571
0.00013779
0.0017839
0.00014668
0.0013838
0.00015413
0.0010435
0.00015885
0.00063786
0.00025339
0.00016153
2.0073e-05
0.0031892
1.2307e-07
4.0288e-05
0.0030976
5.9966e-05
0.0029772
7.8597e-05
0.002815
9.6106e-05
0.0026006
0.00011177
0.0023683
0.00012545
0.0020434
0.00013781
0.0017715
0.00014673
0.0013749
0.00015417
0.001036
0.00015889
0.00063314
0.00025073
0.00016155
2.0073e-05
0.003169
1.2466e-07
4.029e-05
0.0030774
5.9972e-05
0.0029576
7.8604e-05
0.0027963
9.6115e-05
0.0025831
0.00011179
0.0023526
0.00012547
0.0020297
0.00013784
0.0017591
0.00014677
0.0013659
0.00015421
0.0010286
0.00015893
0.00062843
0.00024808
0.00016158
2.0074e-05
0.0031488
1.2626e-07
4.0292e-05
0.0030572
5.9978e-05
0.0029379
7.8612e-05
0.0027777
9.6124e-05
0.0025656
0.00011182
0.0023369
0.00012549
0.002016
0.00013786
0.0017468
0.00014682
0.001357
0.00015425
0.0010212
0.00015897
0.00062372
0.00024544
0.0001616
2.0074e-05
0.0031286
1.2788e-07
4.0295e-05
0.003037
5.9984e-05
0.0029182
7.862e-05
0.0027591
9.6133e-05
0.0025481
0.00011184
0.0023212
0.00012551
0.0020024
0.00013788
0.0017344
0.00014686
0.001348
0.00015429
0.0010137
0.00015901
0.000619
0.00024282
0.00016163
2.0075e-05
0.0031084
1.2951e-07
4.0297e-05
0.0030167
5.999e-05
0.0028985
7.8628e-05
0.0027404
9.6143e-05
0.0025306
0.00011186
0.0023055
0.00012553
0.0019887
0.00013791
0.001722
0.00014691
0.001339
0.00015433
0.0010063
0.00015905
0.00061429
0.00024021
0.00016165
2.0075e-05
0.0030882
1.3116e-07
4.03e-05
0.0029965
5.9996e-05
0.0028788
7.8636e-05
0.0027218
9.6152e-05
0.0025131
0.00011189
0.0022898
0.00012555
0.001975
0.00013793
0.0017096
0.00014695
0.00133
0.00015437
0.00099887
0.00015909
0.00060958
0.00023762
0.00016168
2.0076e-05
0.003068
1.3282e-07
4.0302e-05
0.0029763
6.0002e-05
0.0028591
7.8645e-05
0.0027031
9.6162e-05
0.0024955
0.00011191
0.002274
0.00012558
0.0019614
0.00013796
0.0016973
0.00014699
0.0013209
0.00015441
0.00099145
0.00015913
0.00060486
0.00023504
0.00016171
2.0077e-05
0.0030478
1.3449e-07
4.0305e-05
0.0029561
6.0008e-05
0.0028394
7.8653e-05
0.0026845
9.6171e-05
0.002478
0.00011193
0.0022583
0.0001256
0.0019477
0.00013798
0.0016849
0.00014704
0.0013119
0.00015445
0.00098403
0.00015917
0.00060015
0.00023247
0.00016173
2.0077e-05
0.0030276
1.3619e-07
4.0307e-05
0.0029358
6.0014e-05
0.0028197
7.8662e-05
0.0026658
9.6181e-05
0.0024605
0.00011196
0.0022425
0.00012562
0.001934
0.00013801
0.0016725
0.00014708
0.0013028
0.00015449
0.00097662
0.0001592
0.00059544
0.00022991
0.00016176
2.0078e-05
0.0030074
1.3789e-07
4.031e-05
0.0029156
6.002e-05
0.0028
7.8672e-05
0.0026472
9.6191e-05
0.002443
0.00011198
0.0022267
0.00012565
0.0019204
0.00013803
0.0016601
0.00014712
0.0012937
0.00015453
0.00096921
0.00015924
0.00059073
0.00022737
0.00016179
2.0079e-05
0.0029872
1.3961e-07
4.0313e-05
0.0028954
6.0026e-05
0.0027803
7.8681e-05
0.0026285
9.6201e-05
0.0024255
0.00011201
0.0022109
0.00012567
0.0019067
0.00013806
0.0016477
0.00014717
0.0012846
0.00015457
0.0009618
0.00015928
0.00058602
0.00022484
0.00016181
2.0079e-05
0.0029669
1.4135e-07
4.0316e-05
0.0028751
6.0033e-05
0.0027606
7.8691e-05
0.0026099
9.6211e-05
0.0024079
0.00011203
0.0021951
0.0001257
0.001893
0.00013808
0.0016353