/*--------------------------------*- C++ -*----------------------------------*\
  =========                 |
  \\      /  F ield         | OpenFOAM: The Open Source CFD Toolbox
   \\    /   O peration     | Website:  https://openfoam.org
    \\  /    A nd           | Version:  6.0
     \\/     M anipulation  |
\*---------------------------------------------------------------------------*/
FoamFile
{
    version     2.0;
    format      ascii;
    class       surfaceScalarField;
    location    "1";
    object      phi;
}
// * * * * * * * * * * * * * * * * * * * * * * * * * * * * * * * * * * * * * //

dimensions      [0 3 -1 0 0 0 0];

internalField   nonuniform List<scalar> 
9714
(
-0.000111367
8.23111e-05
0.000117522
-0.000102858
0.0001144
-9.1039e-05
0.000159003
-7.45482e-05
0.00022101
-5.14099e-05
0.000307144
-1.89434e-05
0.000426736
2.68449e-05
0.000592583
9.11748e-05
0.000821969
0.000181223
0.00113693
0.000306157
0.00156259
0.000476324
0.00211835
0.000700673
0.00278951
0.000978255
0.00344903
0.00127523
0.0036632
0.00225031
0.00146493
-0.000102965
7.67016e-05
0.000108554
-9.51109e-05
0.000106585
-8.42059e-05
0.000148101
-6.89564e-05
0.000205786
-4.75954e-05
0.000285812
-1.76075e-05
0.00039676
2.45865e-05
0.000550384
8.38977e-05
0.000762699
0.00016693
0.00105402
0.000282139
0.00144747
0.000439267
0.00196128
0.000646795
0.00258186
0.000903985
0.00319165
0.00117899
0.00338804
0.00207615
0.00135452
-9.51632e-05
7.15368e-05
0.000100467
-8.79154e-05
9.93935e-05
-7.78045e-05
0.00013807
-6.3763e-05
0.000191778
-4.40618e-05
0.000266173
-1.64272e-05
0.000369144
2.24745e-05
0.000511488
7.71872e-05
0.000708036
0.000153786
0.000977508
0.00026014
0.00134127
0.000405276
0.00181615
0.000597218
0.00238969
0.000835413
0.00295307
0.00109007
0.00313284
0.00191332
0.00125257
-8.83123e-05
6.6743e-05
9.30489e-05
-8.16484e-05
9.27176e-05
-7.2298e-05
0.000128763
-5.93024e-05
0.00017879
-4.10604e-05
0.000247987
-1.5501e-05
0.000343605
2.04387e-05
0.000475551
7.09617e-05
0.000657555
0.000141712
0.000906874
0.000239916
0.00124314
0.000374033
0.00168209
0.000551565
0.00221208
0.000772113
0.0027325
0.00100792
0.00289717
0.00176433
0.00115841
-8.18464e-05
6.23273e-05
8.63653e-05
-7.5649e-05
8.65702e-05
-6.70376e-05
0.00012019
-5.50444e-05
0.000166821
-3.82319e-05
0.000231213
-1.46433e-05
0.000320033
1.85472e-05
0.000442365
6.52236e-05
0.000610924
0.000130566
0.000841596
0.000221332
0.00115252
0.000345298
0.00155812
0.000509513
0.00204764
0.000713689
0.00252794
0.000932031
0.00267825
0.00162447
0.00107138
-7.61395e-05
5.82264e-05
8.01477e-05
-7.04553e-05
8.086e-05
-6.24533e-05
0.000112231
-5.13491e-05
0.000155719
-3.57598e-05
0.000215673
-1.39322e-05
0.000298215
1.676e-05
0.00041167
5.99008e-05
0.000567809
0.000120323
0.000781272
0.000204203
0.00106868
0.000318831
0.00144353
0.000470751
0.00189567
0.000659764
0.00233896
0.000861934
0.00247634
0.00149686
0.000990961
-7.06812e-05
5.44494e-05
7.45482e-05
-6.5369e-05
7.56016e-05
-5.80338e-05
0.000104898
-4.7779e-05
0.00014548
-3.34189e-05
0.000201324
-1.3258e-05
0.000278055
1.51126e-05
0.000383293
5.50081e-05
0.000527943
0.000110855
0.000725468
0.000188445
0.000991212
0.000294459
0.0013375
0.000435022
0.00175488
0.000610001
0.00216358
0.000797191
0.00228851
0.00137686
0.000916618
-6.58958e-05
5.09349e-05
6.92819e-05
-6.10262e-05
7.07073e-05
-5.42002e-05
9.80766e-05
-4.46885e-05
0.000135967
-3.13551e-05
0.000188014
-1.26762e-05
0.000259378
1.35792e-05
0.000357028
5.04782e-05
0.000491058
0.000102159
0.000673867
0.000173903
0.000919483
0.000271985
0.00123944
0.000402069
0.00162476
0.000564075
0.00200167
0.000737406
0.00211551
0.00126755
0.000847918
-6.12159e-05
4.77073e-05
6.45566e-05
-5.66552e-05
6.62142e-05
-5.038e-05
9.18097e-05
-4.16049e-05
0.000127216
-2.93263e-05
0.000175746
-1.2083e-05
0.000242133
1.21881e-05
0.000332749
4.63248e-05
0.000456941
9.41118e-05
0.000626099
0.000160523
0.000853172
0.00025128
0.00114864
0.000371689
0.00150411
0.000521697
0.00185127
0.000682192
0.00195435
0.00116454
0.000784406
-5.71933e-05
4.46945e-05
6.00569e-05
-5.30182e-05
6.20178e-05
-4.71747e-05
8.59616e-05
-3.90226e-05
0.000119061
-2.76033e-05
0.00016434
-1.16061e-05
0.000226133
1.08764e-05
0.00031025
4.24694e-05
0.000425348
8.67263e-05
0.000581906
0.000148165
0.000791726
0.000232178
0.00106463
0.000343666
0.00139263
0.00048259
0.0017125
0.000631216
0.00180612
0.0010709
0.000725718
-5.31686e-05
4.19329e-05
5.60362e-05
-4.92632e-05
5.81727e-05
-4.38926e-05
8.05968e-05
-3.63876e-05
0.000111566
-2.58771e-05
0.000153829
-1.11081e-05
0.000211353
9.68845e-06
0.00028944
3.89397e-05
0.000396105
7.98872e-05
0.000540963
0.000136796
0.000734897
0.000214583
0.000986798
0.00031783
0.00128916
0.00044651
0.00158344
0.00058414
0.00166776
0.000982687
0.000671475
-4.97702e-05
3.93478e-05
5.21682e-05
-4.62079e-05
5.45705e-05
-4.12108e-05
7.55754e-05
-3.42295e-05
0.000104564
-2.44404e-05
0.000144036
-1.07148e-05
0.000197619
8.57108e-06
0.000270134
3.56655e-05
0.000369004
7.36164e-05
0.000503061
0.000126296
0.000682194
0.000198348
0.000914746
0.000293997
0.00119354
0.000413219
0.00146442
0.000540689
0.00154069
0.000902506
0.000621362
-4.63357e-05
3.69794e-05
4.87186e-05
-4.30169e-05
5.12711e-05
-3.84133e-05
7.09699e-05
-3.19858e-05
9.81274e-05
-2.29632e-05
0.000135008
-1.02789e-05
0.000184926
7.57262e-06
0.000252265
3.26773e-05
0.000343901
6.78111e-05
0.000467915
0.000116644
0.000633421
0.000183397
0.000847935
0.000272031
0.0011047
0.000382511
0.0013536
0.000500562
0.00142195
0.000826936
0.000575046
-4.34352e-05
3.47587e-05
4.54181e-05
-4.04085e-05
4.81749e-05
-3.61089e-05
6.66531e-05
-3.01238e-05
9.21078e-05
-2.17088e-05
0.000126591
-9.91815e-06
0.000173123
6.64557e-06
0.000235678
2.99074e-05
0.000320616
6.24971e-05
0.000435364
0.000107733
0.00058817
0.000169606
0.000786064
0.000251773
0.0010226
0.000354184
0.00125143
0.000463528
0.00131294
0.000758405
0.000532264
-4.04655e-05
3.27261e-05
4.25081e-05
-3.76163e-05
4.53419e-05
-3.36615e-05
6.26967e-05
-2.81508e-05
8.65771e-05
-2.0403e-05
0.000118833
-9.50944e-06
0.000162215
5.81504e-06
0.000220318
2.7395e-05
0.000299053
5.75883e-05
0.000405177
9.95437e-05
0.000546261
0.000156914
0.00072865
0.000233108
0.000946232
0.000328058
0.00115615
0.000429329
0.00121081
0.000693802
0.000492729
-3.7919e-05
3.08274e-05
3.96846e-05
-3.5324e-05
4.26944e-05
-3.16066e-05
5.90054e-05
-2.6489e-05
8.14244e-05
-1.92721e-05
0.00011162
-9.178e-06
0.000152085
5.07162e-06
0.000206078
2.50714e-05
0.000279042
5.30883e-05
0.000377187
9.19889e-05
0.000507361
0.000145209
0.000675441
0.0002159
0.000875622
0.000303959
0.00106831
0.000397775
0.0011172
0.000635468
0.000456219
-3.54271e-05
2.90779e-05
3.71755e-05
-3.29579e-05
4.02536e-05
-2.96064e-05
5.55935e-05
-2.48609e-05
7.66541e-05
-1.82174e-05
0.00010493
-8.82244e-06
0.000142687
4.37122e-06
0.000192843
2.295e-05
0.000260474
4.89428e-05
0.000351204
8.50466e-05
0.000471264
0.000134442
0.000625988
0.000200051
0.000809846
0.000281737
0.000986269
0.000368639
0.00102943
0.00058056
0.000422485
-3.32658e-05
2.74411e-05
3.47369e-05
-3.10011e-05
3.79689e-05
-2.78555e-05
5.24045e-05
-2.34323e-05
7.2202e-05
-1.72275e-05
9.86982e-05
-8.52673e-06
0.000133938
3.76588e-06
0.00018056
2.10048e-05
0.000243221
4.51339e-05
0.000327065
7.86489e-05
0.000437729
0.000124521
0.000580124
0.000185446
0.000749014
0.000261246
0.000910665
0.000341758
0.000949017
0.000531214
0.00039133
-3.11063e-05
2.5939e-05
3.25719e-05
-2.89964e-05
3.58722e-05
-2.60865e-05
4.94735e-05
-2.19949e-05
6.8102e-05
-1.62595e-05
9.29451e-05
-8.1565e-06
0.00012585
3.21339e-06
0.000169154
1.92263e-05
0.000227205
4.16375e-05
0.000304647
7.27786e-05
0.000406572
0.000115404
0.000537431
0.000172001
0.000692227
0.000242353
0.000839923
0.000316939
0.000873502
0.000484603
0.000362543
-2.92344e-05
2.45342e-05
3.04861e-05
-2.73028e-05
3.39103e-05
-2.45562e-05
4.67352e-05
-2.07499e-05
6.42754e-05
-1.53847e-05
8.75848e-05
-7.88232e-06
0.000118312
2.721e-06
0.000158558
1.75957e-05
0.000212306
3.84246e-05
0.000283788
6.73749e-05
0.000377595
0.000107008
0.000497806
0.000159619
0.000639717
0.000224933
0.000774778
0.000294039
0.000804409
0.000443092
0.000335955
-2.74137e-05
2.32342e-05
2.86439e-05
-2.55704e-05
3.20932e-05
-2.30884e-05
4.41919e-05
-1.95465e-05
6.07179e-05
-1.45863e-05
8.25953e-05
-7.57945e-06
0.000111304
2.25629e-06
0.000148683
1.61001e-05
0.000198445
3.54827e-05
0.00026439
6.2424e-05
0.000350628
9.93019e-05
0.000460846
0.000148226
0.000590604
0.000208869
0.000713723
0.000272891
0.000739479
0.000403825
0.000311379
-2.57718e-05
2.20223e-05
2.68367e-05
-2.40752e-05
3.03987e-05
-2.17323e-05
4.18241e-05
-1.84345e-05
5.74066e-05
-1.3807e-05
7.79536e-05
-7.31289e-06
0.000104776
1.86296e-06
0.000139505
1.47408e-05
0.000185537
3.27841e-05
0.000246312
5.78714e-05
0.000325515
9.22144e-05
0.000426528
0.00013774
0.000545211
0.000194057
0.000657579
0.00025337
0.000680189
0.00036912
0.000288669
-2.41921e-05
2.09013e-05
2.52228e-05
-2.25964e-05
2.88305e-05
-2.0439e-05
3.96287e-05
-1.73727e-05
5.4334e-05
-1.3077e-05
7.36423e-05
-7.01469e-06
9.87124e-05
1.50045e-06
0.00013095
1.35019e-05
0.000173518
3.03206e-05
0.000229476
5.37109e-05
0.000302098
8.5718e-05
0.000394442
0.000128094
0.00050262
0.00018039
0.000604842
0.000235332
0.00062446
0.000336056
0.000267664
-2.27587e-05
1.98566e-05
2.36669e-05
-2.12904e-05
2.73685e-05
-1.92488e-05
3.75851e-05
-1.63965e-05
5.1473e-05
-1.23849e-05
6.96276e-05
-6.76067e-06
9.30574e-05
1.19508e-06
0.000122988
1.23769e-05
0.000162301
2.80643e-05
0.000213751
4.98923e-05
0.00028026
7.97476e-05
0.000364623
0.00011922
0.000463311
0.000167784
0.000556459
0.000218665
0.000573632
0.00030714
0.000248241
-2.14084e-05
1.88835e-05
2.2282e-05
-2.00093e-05
2.60053e-05
-1.81512e-05
3.56748e-05
-1.54883e-05
4.87994e-05
-1.17553e-05
6.58781e-05
-6.49186e-06
8.77844e-05
9.11101e-07
0.000115546
1.1355e-05
0.000151836
2.60149e-05
0.00019908
4.64104e-05
0.000259838
7.42839e-05
0.000336663
0.000111057
0.00042633
0.000156141
0.000510931
0.000203248
0.000525828
0.000279376
0.000230264
-2.01585e-05
1.79779e-05
2.09471e-05
-1.88569e-05
2.47372e-05
-1.70978e-05
3.39015e-05
-1.46126e-05
4.63168e-05
-1.1132e-05
6.23927e-05
-6.23929e-06
8.28712e-05
6.83496e-07
0.000108616
1.04349e-05
0.000142053
2.41405e-05
0.000185341
4.32219e-05
0.00024076
6.92699e-05
0.000310679
0.000103546
0.000392258
0.000145388
0.000469291
0.000188983
0.000482321
0.000255406
0.000213627
-1.8952e-05
1.71454e-05
1.97528e-05
-1.77254e-05
2.35701e-05
-1.61049e-05
3.2263e-05
-1.3795e-05
4.40166e-05
-1.05543e-05
5.91539e-05
-5.97808e-06
7.82964e-05
4.73118e-07
0.000102132
9.60158e-06
0.000132904
2.24464e-05
0.000172483
4.03257e-05
0.000222861
6.46873e-05
0.000286211
9.6631e-05
0.000360081
0.000135439
0.000430002
0.00017577
0.000441413
0.000232101
0.000198214
-1.7934e-05
1.63538e-05
1.8552e-05
-1.68197e-05
2.24602e-05
-1.52619e-05
3.07128e-05
-1.30922e-05
4.18466e-05
-1.00385e-05
5.61091e-05
-5.7578e-06
7.4e-05
2.99704e-07
9.60599e-05
8.85114e-06
0.000124307
2.0905e-05
0.0001604
3.76788e-05
0.000206095
6.04861e-05
0.000263481
9.02622e-05
0.000330526
0.000126235
0.000394235
0.000163522
0.000404218
0.000212341
0.000183939
-1.69084e-05
1.56158e-05
1.75264e-05
-1.5834e-05
2.1424e-05
-1.44286e-05
2.92588e-05
-1.23969e-05
3.98114e-05
-9.54239e-06
5.3252e-05
-5.52275e-06
6.99689e-05
1.43763e-07
9.03427e-05
8.18605e-06
0.000116234
1.95224e-05
0.000149037
3.52863e-05
0.000190305
5.66492e-05
0.000242004
8.43887e-05
0.000302531
0.000117698
0.000360416
0.000152157
0.00036925
0.000192848
0.000170699
-1.59247e-05
1.49336e-05
1.65142e-05
-1.49328e-05
2.04655e-05
-1.35953e-05
2.79151e-05
-1.17128e-05
3.792e-05
-9.0482e-06
5.05828e-05
-5.29478e-06
6.61836e-05
4.06468e-08
8.49745e-05
7.59789e-06
0.000108611
1.82782e-05
0.000138326
3.31093e-05
0.000175493
5.31314e-05
0.000222081
7.89675e-05
0.000276936
0.00010978
0.000329821
0.000141602
0.000337503
0.000176681
0.000158424
-1.50523e-05
1.42838e-05
1.55755e-05
-1.41086e-05
1.95516e-05
-1.28889e-05
2.6632e-05
-1.11127e-05
3.61223e-05
-8.60119e-06
4.80574e-05
-5.05621e-06
6.26134e-05
-4.15776e-08
7.98995e-05
7.09757e-06
0.000101433
1.71779e-05
0.000128206
3.11517e-05
0.000161492
4.99159e-05
0.00020317
7.39522e-05
0.000252613
0.000102413
0.000300799
0.000131793
0.000307726
0.000160413
0.000147026
-1.42115e-05
1.3676e-05
1.46892e-05
-1.3335e-05
1.86964e-05
-1.21742e-05
2.5433e-05
-1.05083e-05
3.44384e-05
-8.14671e-06
4.56859e-05
-4.81118e-06
5.92509e-05
-6.66523e-08
7.51236e-05
6.66608e-06
9.46122e-05
1.62036e-05
0.00011865
2.93738e-05
0.000148336
4.69637e-05
0.000185698
6.93061e-05
0.000230515
9.5562e-05
0.00027476
0.000122664
0.000280656
0.000147278
0.000136448
-1.34144e-05
1.31071e-05
1.38827e-05
-1.25819e-05
1.78954e-05
-1.14959e-05
2.43075e-05
-9.92629e-06
3.28575e-05
-7.70103e-06
4.34563e-05
-4.54206e-06
5.60882e-05
-7.96855e-08
7.05897e-05
6.32668e-06
8.8204e-05
1.53526e-05
0.000109568
2.77822e-05
0.000135877
4.42553e-05
0.00016907
6.49887e-05
0.000209471
8.91658e-05
0.000249972
0.000114166
0.000255335
0.000133701
0.000126615
-1.26704e-05
1.25677e-05
1.31027e-05
-1.18956e-05
1.71362e-05
-1.08495e-05
2.3245e-05
-9.37275e-06
3.13649e-05
-7.25681e-06
4.13563e-05
-4.29139e-06
5.30925e-05
-2.40691e-08
6.63305e-05
6.03227e-06
8.20614e-05
1.4615e-05
0.000101004
2.63374e-05
0.000124176
4.17563e-05
0.000153797
6.09687e-05
0.000190509
8.31999e-05
0.000227956
0.000106243
0.000232273
0.000123095
0.000117481
-1.19412e-05
1.2063e-05
1.23827e-05
-1.12007e-05
1.64247e-05
-1.02277e-05
2.22441e-05
-8.81963e-06
2.99582e-05
-6.83868e-06
3.93661e-05
-4.00338e-06
5.026e-05
2.26497e-08
6.22452e-05
5.82933e-06
7.62864e-05
1.39781e-05
9.28182e-05
2.50431e-05
0.000113068
3.94469e-05
0.000139227
5.72124e-05
0.000172423
7.76127e-05
0.000206882
9.88582e-05
0.00021084
0.000111756
0.000108984
-1.1271e-05
1.1578e-05
1.16844e-05
-1.05763e-05
1.57411e-05
-9.63365e-06
2.12861e-05
-8.30327e-06
2.86114e-05
-6.41952e-06
3.74632e-05
-3.73451e-06
4.75453e-05
1.38118e-07
5.83705e-05
5.66238e-06
7.06979e-05
1.34341e-05
8.50846e-05
2.38628e-05
0.000102657
3.7299e-05
0.000125954
5.36939e-05
0.000156264
7.23888e-05
0.000188385
9.19635e-05
0.000191195
0.000103216
0.000101085
-1.06201e-05
1.11197e-05
1.10364e-05
-9.9572e-06
1.50933e-05
-9.05675e-06
2.03739e-05
-7.80183e-06
2.73228e-05
-6.00215e-06
3.56439e-05
-3.43362e-06
4.49412e-05
2.58536e-07
5.46261e-05
5.57796e-06
6.54194e-05
1.29714e-05
7.76559e-05
2.27977e-05
9.27766e-05
3.52926e-05
0.000113283
5.03876e-05
0.000140832
6.74846e-05
0.000170537
8.55302e-05
0.000173078
9.36679e-05
9.37342e-05
-1.00249e-05
1.06751e-05
1.0412e-05
-9.39407e-06
1.44653e-05
-8.52562e-06
1.94929e-05
-7.30542e-06
2.60839e-05
-5.59249e-06
3.38862e-05
-3.12404e-06
4.2438e-05
4.42841e-07
5.10456e-05
5.52597e-06
6.02757e-05
1.25836e-05
7.06447e-05
2.1814e-05
8.3558e-05
3.34057e-05
0.000101866
4.72727e-05
0.000127179
6.28918e-05
0.000155083
7.95179e-05
0.000156347
8.67606e-05
8.68997e-05
-9.44481e-06
1.02482e-05
9.82775e-06
-8.83816e-06
1.38612e-05
-7.99988e-06
1.86436e-05
-6.83196e-06
2.48862e-05
-5.16694e-06
3.2198e-05
-2.7897e-06
4.00142e-05
6.38931e-07
4.75718e-05
5.54589e-06
5.54052e-05
1.22564e-05
6.38931e-05
2.09108e-05
7.48326e-05
3.16208e-05
9.09755e-05
4.43313e-05
0.000114141
5.8574e-05
0.000140014
7.39048e-05
0.000141104
7.86589e-05
8.05379e-05
-8.89575e-06
9.83309e-06
9.26917e-06
-8.30732e-06
1.3275e-05
-7.49286e-06
1.78219e-05
-6.35051e-06
2.37299e-05
-4.75053e-06
3.05552e-05
-2.4395e-06
3.76748e-05
8.86091e-07
4.42213e-05
5.59089e-06
5.06387e-05
1.19822e-05
5.75468e-05
2.00587e-05
6.67516e-05
2.99228e-05
8.12822e-05
4.15472e-05
0.00010269
5.45276e-05
0.000127142
6.86565e-05
0.000126862
7.30058e-05
7.4624e-05
-8.35151e-06
9.4374e-06
8.74657e-06
-7.78197e-06
1.27134e-05
-6.99223e-06
1.70296e-05
-5.89051e-06
2.26067e-05
-4.3196e-06
2.89658e-05
-2.07674e-06
3.53859e-05
1.14549e-06
4.09592e-05
5.69124e-06
4.61233e-05
1.17449e-05
5.14431e-05
1.92556e-05
5.91521e-05
2.82976e-05
7.20537e-05
3.89095e-05
9.17487e-05
5.07226e-05
0.000114403
6.37559e-05
0.000114067
6.60003e-05
6.91208e-05
-7.86009e-06
9.04484e-06
8.23169e-06
-7.30431e-06
1.21573e-05
-6.52824e-06
1.62481e-05
-5.43718e-06
2.15038e-05
-3.90366e-06
2.73983e-05
-1.69923e-06
3.31561e-05
1.44253e-06
3.77862e-05
5.80501e-06
4.16984e-05
1.15361e-05
4.57528e-05
1.84774e-05
5.21899e-05
2.67363e-05
6.39536e-05
3.6406e-05
8.2206e-05
4.71577e-05
0.000103673
5.91737e-05
0.000101965
6.12652e-05
6.40072e-05
-7.39022e-06
8.65659e-06
7.74895e-06
-6.84395e-06
1.16069e-05
-6.07767e-06
1.54744e-05
-5.00129e-06
2.04114e-05
-3.47765e-06
2.58564e-05
-1.31422e-06
3.09481e-05
1.7493e-06
3.46896e-05
5.95393e-06
3.75126e-05
1.13396e-05
4.03111e-05
1.77224e-05
4.57053e-05
2.52296e-05
5.62668e-05
3.40307e-05
7.31001e-05
4.38082e-05
9.29008e-05
5.48964e-05
9.12607e-05
5.51612e-05
5.92517e-05
-6.9412e-06
8.26948e-06
7.2906e-06
-6.4017e-06
1.1058e-05
-5.63985e-06
1.47039e-05
-4.56662e-06
1.93245e-05
-3.0596e-06
2.43204e-05
-9.12897e-07
2.87871e-05
2.07956e-06
3.16598e-05
6.1025e-06
3.34307e-05
1.11474e-05
3.53001e-05
1.69735e-05
3.98399e-05
2.37739e-05
4.96047e-05
3.17746e-05
6.51764e-05
4.0673e-05
8.39073e-05
5.0899e-05
8.10163e-05
5.10707e-05
5.48353e-05
-6.50958e-06
7.88277e-06
6.85694e-06
-5.97221e-06
1.0509e-05
-5.21257e-06
1.39329e-05
-4.13987e-06
1.82403e-05
-2.62791e-06
2.28005e-05
-5.10191e-07
2.66319e-05
2.41438e-06
2.87146e-05
6.2631e-06
2.95912e-05
1.09452e-05
3.05594e-05
1.62309e-05
3.44431e-05
2.2364e-05
4.32925e-05
2.96348e-05
5.76152e-05
3.77319e-05
7.47323e-05
4.71699e-05
7.20941e-05
4.56378e-05
5.07316e-05
-6.10028e-06
7.49244e-06
6.45136e-06
-5.55946e-06
9.95619e-06
-4.79043e-06
1.31605e-05
-3.71151e-06
1.7153e-05
-2.20472e-06
2.12754e-05
-9.46465e-08
2.45182e-05
2.75602e-06
2.58275e-05
6.40709e-06
2.58839e-05
1.0727e-05
2.62652e-05
1.54844e-05
2.96314e-05
2.10005e-05
3.78866e-05
2.76047e-05
5.10403e-05
3.49831e-05
6.71103e-05
4.36881e-05
6.34779e-05
4.19656e-05
4.69234e-05
-5.70301e-06
7.09951e-06
6.06448e-06
-5.15077e-06
9.39961e-06
-4.38025e-06
1.23786e-05
-3.29044e-06
1.60579e-05
-1.77228e-06
1.9751e-05
3.15017e-07
2.23957e-05
3.09142e-06
2.30333e-05
6.54048e-06
2.24326e-05
1.04825e-05
2.22678e-05
1.47366e-05
2.52662e-05
1.96813e-05
3.27792e-05
2.56827e-05
4.47831e-05
3.24097e-05
5.92616e-05
4.0443e-05
5.6065e-05
3.7104e-05
4.33881e-05
-5.32225e-06
6.69843e-06
5.69563e-06
-4.76633e-06
8.83054e-06
-3.97562e-06
1.15855e-05
-2.87325e-06
1.49445e-05
-1.3494e-06
1.82092e-05
7.299e-07
2.03086e-05
3.41784e-06
2.03047e-05
6.64199e-06
1.91577e-05
1.02092e-05
1.87168e-05
1.39835e-05
2.14257e-05
1.84089e-05
2.84336e-05
2.38638e-05
3.9318e-05
3.00087e-05
5.27265e-05
3.74171e-05
4.88624e-05
3.37214e-05
4.01101e-05
-4.96407e-06
6.28703e-06
5.34553e-06
-4.38817e-06
8.24903e-06
-3.58637e-06
1.07722e-05
-2.46219e-06
1.3814e-05
-9.22467e-07
1.66585e-05
1.13324e-06
1.82177e-05
3.72601e-06
1.7699e-05
6.71358e-06
1.61559e-05
9.90188e-06
1.54779e-05
1.32301e-05
1.79902e-05
1.71833e-05
2.43264e-05
2.21467e-05
3.4123e-05
2.77659e-05
4.59553e-05
3.46002e-05
4.27218e-05
2.93169e-05
3.70699e-05
-4.61847e-06
5.86347e-06
5.01546e-06
-4.0292e-06
7.65023e-06
-3.20135e-06
9.94124e-06
-2.0564e-06
1.26581e-05
-5.04606e-07
1.5091e-05
1.5326e-06
1.61723e-05
4.00852e-06
1.51826e-05
6.74163e-06
1.33872e-05
9.56181e-06
1.26629e-05
1.24766e-05
1.50023e-05
1.60074e-05
2.08416e-05
2.05273e-05
2.95613e-05
2.5677e-05
4.02869e-05
3.19778e-05
3.6734e-05
2.61517e-05
3.42533e-05
-4.28922e-06
5.42582e-06
4.70251e-06
-3.67777e-06
7.03306e-06
-2.82904e-06
9.08416e-06
-1.65547e-06
1.14798e-05
-8.84414e-08
1.35125e-05
1.91185e-06
1.41396e-05
4.25993e-06
1.28399e-05
6.72646e-06
1.08796e-05
9.18895e-06
1.01617e-05
1.17289e-05
1.23665e-05
1.48818e-05
1.75615e-05
1.90039e-05
2.52454e-05
2.37302e-05
3.44963e-05
2.954e-05
3.15961e-05
2.22838e-05
3.16436e-05
-3.97353e-06
4.97142e-06
4.40646e-06
-3.34096e-06
6.39293e-06
-2.46144e-06
8.20118e-06
-1.26094e-06
1.02705e-05
3.16206e-07
1.1923e-05
2.27698e-06
1.21782e-05
4.46847e-06
1.06045e-05
6.66376e-06
8.65998e-06
8.78756e-06
8.0316e-06
1.09899e-05
1.00897e-05
1.3809e-05
1.47542e-05
1.75729e-05
2.14194e-05
2.19198e-05
2.95305e-05
2.72745e-05
2.66423e-05
1.93052e-05
2.92276e-05
-3.67259e-06
4.49688e-06
4.1262e-06
-3.01292e-06
5.72634e-06
-2.10313e-06
7.28591e-06
-8.70946e-07
9.03581e-06
7.13767e-07
1.03297e-05
2.61024e-06
1.02506e-05
4.63525e-06
8.61033e-06
6.55362e-06
6.6662e-06
8.36154e-06
6.19562e-06
1.02654e-05
8.09974e-06
1.27894e-05
1.21239e-05
1.6232e-05
1.78104e-05
2.02361e-05
2.45374e-05
2.51718e-05
2.23495e-05
1.58678e-05
2.69912e-05
-3.38405e-06
3.99969e-06
3.86231e-06
-2.69342e-06
5.03117e-06
-1.74782e-06
6.3385e-06
-4.87577e-07
7.76954e-06
1.09414e-06
8.73783e-06
2.91931e-06
8.43194e-06
4.74673e-06
6.7471e-06
6.39936e-06
4.9861e-06
7.91678e-06
4.66453e-06
9.55879e-06
6.38758e-06
1.18243e-05
9.83946e-06
1.49774e-05
1.45823e-05
1.86728e-05
2.01734e-05
2.32212e-05
1.82489e-05
1.30896e-05
2.49223e-05
-3.10369e-06
3.47872e-06
3.61565e-06
-2.37984e-06
4.30292e-06
-1.39828e-06
5.35344e-06
-1.10087e-07
6.48033e-06
1.46027e-06
7.15887e-06
3.18682e-06
6.67804e-06
4.80911e-06
5.1217e-06
6.20265e-06
3.55256e-06
7.45917e-06
3.39137e-06
8.87479e-06
4.89157e-06
1.09137e-05
7.72074e-06
1.38062e-05
1.15524e-05
1.72219e-05
1.58566e-05
2.14137e-05
1.46536e-05
1.00445e-05
2.30088e-05
-2.83608e-06
2.92433e-06
3.37875e-06
-2.07126e-06
3.53473e-06
-1.04919e-06
4.33019e-06
2.58619e-07
5.16438e-06
1.80213e-06
5.60363e-06
3.41604e-06
5.05388e-06
4.81842e-06
3.71796e-06
5.96895e-06
2.35493e-06
6.9948e-06
2.35413e-06
8.21662e-06
3.60958e-06
1.00575e-05
5.83852e-06
1.27148e-05
8.81108e-06
1.58768e-05
1.20449e-05
1.97398e-05
1.12287e-05
7.51491e-06
2.12398e-05
-2.57173e-06
2.33098e-06
3.15754e-06
-1.76027e-06
2.71992e-06
-7.01804e-07
3.26486e-06
6.18175e-07
3.84178e-06
2.11836e-06
4.0906e-06
3.60098e-06
3.55447e-06
4.77572e-06
2.43087e-06
5.70453e-06
1.50468e-06
6.5298e-06
1.52641e-06
7.58726e-06
2.48581e-06
9.25499e-06
4.129e-06
1.16998e-05
6.27076e-06
1.46306e-05
8.48028e-06
1.81912e-05
8.08227e-06
5.08441e-06
1.96048e-05
-2.30466e-06
1.68223e-06
2.9448e-06
-1.44064e-06
1.84935e-06
-3.48963e-07
2.17074e-06
9.63198e-07
2.52133e-06
2.40303e-06
2.63922e-06
3.73361e-06
2.18976e-06
4.69323e-06
1.3852e-06
5.41308e-06
8.33467e-07
6.06977e-06
8.74596e-07
6.98928e-06
1.50662e-06
8.50529e-06
2.57938e-06
1.07577e-05
3.93375e-06
1.34768e-05
5.21443e-06
1.67588e-05
5.15408e-06
2.8747e-06
1.80918e-05
-2.01337e-06
9.41577e-07
2.74414e-06
-1.09226e-06
9.23947e-07
8.89085e-09
1.06377e-06
1.2944e-06
1.22848e-06
2.65735e-06
1.26317e-06
3.82685e-06
9.87944e-07
4.58387e-06
5.46831e-07
5.11801e-06
3.43183e-07
5.63537e-06
3.62565e-07
6.43831e-06
6.4506e-07
7.81687e-06
1.16721e-06
9.88777e-06
1.77852e-06
1.24029e-05
2.15498e-06
1.5413e-05
2.4952e-06
7.87935e-07
1.66402e-05
-1.61699e-06
2.55122e-06
-6.95291e-07
3.66761e-07
1.59356e-06
2.85444e-06
3.83891e-06
4.38669e-06
4.72994e-06
5.09216e-06
5.73712e-06
6.90419e-06
8.68225e-06
1.08374e-05
1.33324e-05
1.41202e-05
0.00146578
5.47612e-05
0.00146793
5.35032e-05
0.00147109
5.25704e-05
0.00147503
5.18739e-05
0.00147961
5.13475e-05
0.00148473
5.09411e-05
0.00149034
5.06091e-05
0.00149643
5.03171e-05
0.00150301
5.00246e-05
4.97093e-05
0.00151013
0.00135559
5.36668e-05
0.00135779
5.1282e-05
0.00136088
4.94682e-05
0.00136466
4.80711e-05
0.00136902
4.69712e-05
0.00137387
4.60753e-05
0.00137916
4.53002e-05
0.00138488
4.45799e-05
0.00139105
4.38403e-05
4.30389e-05
0.00139772
0.00125374
5.2486e-05
0.00125594
4.90713e-05
0.00125894
4.64593e-05
0.00126257
4.44298e-05
0.00126672
4.28142e-05
0.0012713
4.14794e-05
0.00127629
4.03067e-05
0.00128166
3.92013e-05
0.00128743
3.8057e-05
3.68132e-05
0.00129366
0.00115963
5.12596e-05
0.0011618
4.68945e-05
0.0011647
4.35525e-05
0.00116817
4.09506e-05
0.00117211
3.88717e-05
0.00117643
3.71449e-05
0.00118112
3.56178e-05
0.00118615
3.41683e-05
0.00119154
3.26598e-05
3.10152e-05
0.00119734
0.00107265
4.99852e-05
0.00107478
4.47491e-05
0.00107759
4.0744e-05
0.0010809
3.76264e-05
0.00108463
3.51353e-05
0.00108871
3.30619e-05
0.0010931
3.12226e-05
0.0010978
2.94686e-05
0.00110282
2.76342e-05
2.56262e-05
0.00110821
0.000992262
4.86703e-05
0.000994365
4.26347e-05
0.000997072
3.80281e-05
0.00100024
3.44516e-05
0.00100376
3.15973e-05
0.00100759
2.92239e-05
0.0010117
2.71133e-05
0.00101607
2.5094e-05
0.00102074
2.29689e-05
2.06327e-05
0.00102573
0.000917969
4.72969e-05
0.000920044
4.05369e-05
0.000922665
3.53949e-05
0.000925685
3.14172e-05
0.00092902
2.82534e-05
0.000932606
2.56267e-05
0.00093643
2.32891e-05
0.000940484
2.10421e-05
0.000944796
1.86648e-05
1.6034e-05
0.0009494
0.000849315
4.58776e-05
0.000851371
3.84519e-05
0.000853913
3.28427e-05
0.000856795
2.85174e-05
0.000859942
2.51028e-05
0.000863294
2.22688e-05
0.000866838
1.97505e-05
0.000870576
1.73151e-05
0.000874535
1.47181e-05
1.1818e-05
0.00087875
0.000785861
4.43673e-05
0.000787928
3.63798e-05
0.000790387
3.03538e-05
0.000793154
2.57591e-05
0.000796107
2.2131e-05
0.000799235
1.91499e-05
0.000802498
1.64842e-05
0.000805921
1.38997e-05
0.000809522
1.11112e-05
7.9794e-06
0.000813362
0.00072726
4.28354e-05
0.000729307
3.43111e-05
0.000731721
2.79496e-05
0.000734346
2.3116e-05
0.000737135
1.93461e-05
0.000740022
1.62473e-05
0.000743016
1.34851e-05
0.000746117
1.07836e-05
0.000749376
7.84632e-06
4.49581e-06
0.000752841
0.000673095
4.11892e-05
0.000675162
3.2229e-05
0.000677512
2.55881e-05
0.000680024
2.05949e-05
0.000682632
1.6728e-05
0.000685297
1.35723e-05
0.000688017
1.07544e-05
0.000690811
7.97909e-06
0.000693714
4.91391e-06
1.40283e-06
0.000696817
0.000623065
3.94853e-05
0.000625145
3.01386e-05
0.00062744
2.32881e-05
0.000629836
1.81907e-05
0.000632272
1.42877e-05
0.000634715
1.11208e-05
0.000637168
8.29104e-06
0.000639651
5.47625e-06
0.00064223
2.33689e-06
-1.3492e-06
0.00064495
0.00057684
3.76582e-05
0.000578944
2.80215e-05
0.000581184
2.10324e-05
0.000583467
1.59024e-05
0.000585731
1.20178e-05
0.000587957
8.89388e-06
0.000590149
6.09716e-06
0.000592341
3.28537e-06
0.000594574
7.80086e-08
-3.68089e-06
0.00059694
0.000534149
3.57868e-05
0.000536267
2.59143e-05
0.000538454
1.88474e-05
0.00054062
1.3738e-05
0.000542716
9.92091e-06
0.00054473
6.88147e-06
0.000546669
4.15216e-06
0.000548569
1.37436e-06
0.000550499
-1.84184e-06
-5.71201e-06
0.000552482
0.000494708
3.37954e-05
0.000496838
2.37787e-05
0.000498969
1.67146e-05
0.000501017
1.16895e-05
0.000502949
7.99678e-06
0.000504755
5.08688e-06
0.000506454
2.4713e-06
0.000508083
-2.33973e-07
0.000509674
-3.43577e-06
-7.29579e-06
0.000511324
0.000458277
3.1784e-05
0.00046041
2.16725e-05
0.000462477
1.46692e-05
0.000464405
9.76809e-06
0.000466175
6.23968e-06
0.000467784
3.48477e-06
0.000469253
1.00949e-06
0.000470616
-1.59895e-06
0.00047191
-4.70898e-06
-8.64903e-06
0.00047321
0.000424612
2.96501e-05
0.000426742
1.95514e-05
0.000428733
1.2681e-05
0.000430544
7.97537e-06
0.000432152
4.65281e-06
0.000433576
2.09829e-06
0.00043483
-1.97122e-07
0.000435943
-2.65132e-06
0.000436927
-5.64725e-06
-9.53735e-06
0.000437928
0.000393509
2.75339e-05
0.000395619
1.74965e-05
0.000397527
1.07981e-05
0.000399213
6.31239e-06
0.000400666
3.21574e-06
0.000401918
8.72185e-07
0.00040298
-1.24033e-06
0.000403851
-3.4995e-06
0.00040457
-6.33358e-06
-1.02738e-05
0.000405257
0.000364757
2.53047e-05
0.000366831
1.54245e-05
0.000368648
8.99528e-06
0.000370209
4.78576e-06
0.000371512
1.95818e-06
0.000372604
-1.48756e-07
0.000373491
-2.02976e-06
0.000374146
-4.03189e-06
0.000374604
-6.67646e-06
-1.05207e-05
0.000375025
0.000338178
2.31407e-05
0.000340204
1.34562e-05
0.000341916
7.31237e-06
0.00034335
3.37919e-06
0.000344508
8.2323e-07
0.000345458
-1.06004e-06
0.000346178
-2.71287e-06
0.000346643
-4.45191e-06
0.000346886
-6.87447e-06
-1.07084e-05
0.000347024
0.000313591
2.08605e-05
0.000315555
1.14946e-05
0.000317151
5.71953e-06
0.000318462
2.13151e-06
0.000319479
-1.43557e-07
0.000320307
-1.77781e-06
0.00032088
-3.15345e-06
0.000321185
-4.57716e-06
0.000321218
-6.74171e-06
-1.03952e-05
0.000321117
0.000290848
1.87283e-05
0.000292734
9.67507e-06
0.000294208
4.25727e-06
0.00029539
9.77492e-07
0.000296277
-1.02481e-06
0.000297005
-2.46412e-06
0.000297451
-3.58119e-06
0.000297619
-4.70691e-06
0.000297477
-6.58999e-06
-1.01257e-05
0.000297135
0.000269789
1.647e-05
0.000271586
7.88453e-06
0.000272933
2.91063e-06
0.000273991
8.49869e-09
0.000274753
-1.73903e-06
0.00027539
-2.96357e-06
0.000275734
-3.7729e-06
0.000275798
-4.54131e-06
0.000275498
-6.08536e-06
-9.32589e-06
0.000274953
0.000250296
1.44597e-05
0.000251987
6.25568e-06
0.000253204
1.69084e-06
0.000254136
-9.09276e-07
0.000254785
-2.3983e-06
0.000255334
-3.48693e-06
0.0002556
-4.04684e-06
0.000255591
-4.52335e-06
0.00025517
-5.69849e-06
-8.69244e-06
0.00025442
0.000232224
1.23176e-05
0.000233808
4.69556e-06
0.000234894
5.92427e-07
0.000235709
-1.61294e-06
0.000236248
-2.90836e-06
0.00023672
-3.8055e-06
0.000236927
-4.11221e-06
0.000236876
-4.22363e-06
0.000236353
-4.97279e-06
-7.51839e-06
0.000235432
0.00021548
1.05279e-05
0.000216943
3.28846e-06
0.000217904
-3.95358e-07
0.000218598
-2.31604e-06
0.000219046
-3.38772e-06
0.00021945
-4.21119e-06
0.000219618
-4.33473e-06
0.000219539
-4.19437e-06
0.00021895
-4.49686e-06
-6.60722e-06
0.00021786
0.000199937
8.61046e-06
0.000201285
1.98461e-06
0.000202124
-1.22802e-06
0.000202712
-2.78533e-06
0.000203073
-3.72101e-06
0.000203419
-4.4071e-06
0.000203558
-4.32793e-06
0.000203476
-3.84699e-06
0.000202843
-3.64039e-06
-5.11876e-06
0.000201614
0.000185518
7.11102e-06
0.000186747
7.84476e-07
0.000187474
-1.9978e-06
0.000187957
-3.2953e-06
0.000188246
-4.04303e-06
0.000188542
-4.7192e-06
0.000188663
-4.52316e-06
0.000188592
-3.86172e-06
0.000187944
-3.15041e-06
-3.97675e-06
0.000186584
0.000172117
5.47578e-06
0.000173243
-2.82751e-07
0.000173864
-2.59242e-06
0.000174256
-3.55688e-06
0.000174479
-4.23365e-06
0.000174731
-4.81177e-06
0.000174837
-4.46642e-06
0.000174794
-3.52287e-06
0.000174154
-2.25445e-06
-2.22846e-06
0.000172689
0.000159674
4.30844e-06
0.000160699
-1.32312e-06
0.000161223
-3.17798e-06
0.000161529
-3.9027e-06
0.000161701
-4.42847e-06
0.000161915
-5.04212e-06
0.000162009
-4.64169e-06
0.000162003