/*--------------------------------*- C++ -*----------------------------------*\
  =========                 |
  \\      /  F ield         | OpenFOAM: The Open Source CFD Toolbox
   \\    /   O peration     | Website:  https://openfoam.org
    \\  /    A nd           | Version:  6.0
     \\/     M anipulation  |
\*---------------------------------------------------------------------------*/
FoamFile
{
    version     2.0;
    format      ascii;
    class       volScalarField;
    location    "17";
    object      p;
}
// * * * * * * * * * * * * * * * * * * * * * * * * * * * * * * * * * * * * * //

dimensions      [0 2 -2 0 0 0 0];

internalField   nonuniform List<scalar> 
15500
(
0.0141298
0.0141701
0.0142202
0.0142792
0.0143503
0.0144336
0.0145321
0.014647
0.014781
0.0149361
0.0151148
0.0153195
0.0155509
0.0158081
0.0160885
0.0163891
0.0167066
0.0170344
0.0173725
0.0177102
0.0180387
0.0183362
0.0185799
0.0187082
0.0186203
0.0181002
0.0169936
0.01495
0.0127704
0.0117708
0.0142454
0.0142804
0.0143246
0.0143774
0.0144424
0.0145197
0.0146124
0.0147217
0.0148502
0.015
0.0151737
0.015374
0.0156025
0.0158588
0.0161409
0.0164474
0.0167758
0.0171282
0.0175038
0.0179008
0.0183159
0.0187421
0.0191726
0.0195679
0.0198483
0.0197884
0.0192055
0.0175689
0.0159387
0.0141724
0.0144068
0.0144398
0.014481
0.0145299
0.0145901
0.0146619
0.014749
0.0148525
0.0149758
0.0151208
0.0152906
0.0154872
0.0157122
0.0159647
0.0162426
0.0165421
0.0168617
0.0171976
0.0175474
0.0179043
0.0182575
0.0185963
0.0189027
0.0191375
0.0192304
0.0189721
0.0182113
0.0164247
0.0146334
0.0121969
0.0146174
0.0146492
0.0146889
0.0147355
0.0147927
0.0148608
0.0149433
0.0150419
0.0151598
0.0152995
0.0154641
0.0156558
0.0158761
0.0161238
0.016396
0.0166894
0.017
0.0173248
0.017654
0.0179794
0.0182859
0.0185575
0.0187682
0.0188827
0.0188479
0.0184889
0.0176835
0.015933
0.0140932
0.0118649
0.0148613
0.0148933
0.0149336
0.0149808
0.0150383
0.0151056
0.0151864
0.0152815
0.0153951
0.0155293
0.0156881
0.0158741
0.0160888
0.0163308
0.0165973
0.0168845
0.0171909
0.0175077
0.0178316
0.0181473
0.0184417
0.0186897
0.0188646
0.0189288
0.0188516
0.0184872
0.0177391
0.0161138
0.0143873
0.0122253
0.0151279
0.0151555
0.0151934
0.0152394
0.0152972
0.0153656
0.0154481
0.0155448
0.0156591
0.0157928
0.0159497
0.0161323
0.0163429
0.0165796
0.0168396
0.0171202
0.0174168
0.0177288
0.0180433
0.0183485
0.0186236
0.0188347
0.0189476
0.0189153
0.0187163
0.0182272
0.0173852
0.015727
0.0140517
0.0117474
0.0154475
0.0154705
0.0155039
0.0155462
0.0156013
0.0156674
0.0157487
0.0158441
0.0159577
0.0160901
0.0162454
0.0164255
0.0166325
0.0168647
0.0171194
0.0173926
0.0176845
0.0179875
0.0182952
0.018592
0.0188493
0.0190286
0.0190794
0.0189435
0.0185868
0.0178996
0.0168448
0.0150153
0.0132544
0.0109713
0.0158262
0.0158405
0.0158658
0.0158998
0.0159479
0.0160082
0.0160853
0.0161779
0.0162896
0.0164206
0.0165742
0.0167518
0.0169558
0.0171846
0.0174356
0.0177069
0.0179966
0.0183031
0.0186141
0.0189169
0.0191812
0.0193647
0.0194075
0.0192378
0.0187993
0.0179765
0.0167305
0.0146904
0.0127008
0.0104958
0.0162714
0.0162827
0.0163028
0.0163299
0.0163695
0.0164201
0.0164873
0.0165698
0.0166727
0.0167956
0.0169427
0.0171149
0.0173144
0.0175399
0.0177898
0.0180618
0.0183584
0.0186704
0.0189978
0.0193227
0.0196241
0.0198572
0.0199659
0.0198628
0.0194736
0.0186519
0.0173245
0.0151023
0.0127841
0.0104479
0.0167463
0.0167542
0.0167701
0.0167908
0.0168234
0.0168659
0.0169247
0.0169987
0.0170933
0.0172082
0.0173482
0.0175138
0.0177084
0.0179308
0.0181793
0.0184537
0.0187522
0.0190763
0.0194148
0.0197612
0.0200972
0.0203845
0.020574
0.0205727
0.0202921
0.0195498
0.0182118
0.0158282
0.0131195
0.0103302
0.0172295
0.0172426
0.0172617
0.0172834
0.0173142
0.0173518
0.0174036
0.0174682
0.0175532
0.0176581
0.0177892
0.0179472
0.0181355
0.0183535
0.018599
0.0188699
0.0191693
0.0194882
0.0198249
0.0201718
0.0205128
0.0208216
0.0210526
0.0211214
0.0209272
0.0202665
0.0189333
0.016407
0.0133196
0.00991352
0.0177078
0.0177216
0.0177421
0.0177645
0.0177959
0.0178335
0.0178844
0.017947
0.0180285
0.018129
0.0182547
0.0184067
0.0185896
0.0188021
0.0190407
0.019304
0.0195896
0.0198938
0.0202031
0.0205136
0.0208096
0.0210705
0.0212576
0.0212981
0.0210921
0.0204327
0.0190584
0.0163889
0.0129735
0.00895888
0.0181821
0.0182026
0.0182295
0.0182577
0.0182937
0.0183334
0.0183849
0.0184456
0.0185242
0.0186199
0.0187407
0.0188875
0.0190646
0.0192703
0.0194997
0.019748
0.0200143
0.0202801
0.0205417
0.0207811
0.0209881
0.0211372
0.0212015
0.0211142
0.020794
0.0200426
0.0185761
0.0157724
0.0121199
0.0076544
0.018668
0.0186849
0.0187106
0.0187387
0.0187766
0.0188195
0.0188748
0.0189393
0.0190206
0.0191178
0.0192382
0.0193826
0.019556
0.0197555
0.0199732
0.0202035
0.0204361
0.020661
0.0208526
0.0209973
0.0210763
0.0210616
0.0209315
0.0206282
0.0200944
0.0191576
0.0175387
0.0145989
0.01078
0.00602809
0.0191603
0.0191793
0.0192078
0.0192393
0.0192808
0.0193264
0.0193844
0.0194503
0.0195329
0.0196304
0.0197508
0.0198939
0.0200641
0.0202575
0.0204631
0.0206705
0.0208722
0.0210413
0.0211584
0.0211987
0.0211341
0.0209374
0.0205814
0.0200233
0.019224
0.0180537
0.0162492
0.0131831
0.00925709
0.00437271
0.0196851
0.0196959
0.019719
0.0197466
0.0197873
0.0198346
0.0198962
0.0199672
0.020055
0.020157
0.0202804
0.0204242
0.0205929
0.020781
0.0209739
0.0211605
0.0213253
0.0214464
0.0214867
0.02142
0.0212102
0.0208243
0.0202315
0.0193992
0.018307
0.0168703
0.0148514
0.0116481
0.00762775
0.00267614
0.0202439
0.0202543
0.0202776
0.0203058
0.020347
0.0203943
0.0204563
0.020527
0.0206153
0.0207175
0.0208413
0.0209846
0.0211513
0.0213343
0.0215162
0.0216817
0.0218177
0.0218853
0.0218585
0.0216926
0.0213534
0.0207947
0.0199876
0.018898
0.0175288
0.0158296
0.0135955
0.0102494
0.0061383
0.0011492
0.0208579
0.0208587
0.0208748
0.020897
0.0209351
0.0209816
0.0210449
0.0211183
0.02121
0.0213151
0.0214409
0.0215845
0.0217501
0.021929
0.0221004
0.0222489
0.0223522
0.0223826
0.0222907
0.0220384
0.0215816
0.0208675
0.0198643
0.0185369
0.0169054
0.0149481
0.0124893
0.00897467
0.00474024
-0.000327151
0.0215178
0.0215187
0.0215351
0.0215577
0.0215959
0.0216413
0.0217037
0.0217756
0.0218665
0.0219709
0.0220963
0.022239
0.0224022
0.0225766
0.022739
0.0228698
0.0229515
0.02294
0.0227956
0.0224711
0.0219143
0.0210729
0.0199036
0.0183757
0.0165139
0.0143253
0.0116472
0.00795258
0.0035698
-0.00161003
0.022245
0.0222389
0.0222504
0.0222686
0.0223047
0.0223499
0.0224138
0.0224884
0.0225821
0.022689
0.0228157
0.022958
0.0231192
0.023289
0.0234422
0.0235596
0.0236165
0.0235768
0.0233839
0.0229929
0.022347
0.0213894
0.0200699
0.0183586
0.0162826
0.0138703
0.0109635
0.00705916
0.00248472
-0.00287922
0.0230466
0.0230432
0.023057
0.0230772
0.0231142
0.0231587
0.0232215
0.0232937
0.0233856
0.0234901
0.0236149
0.0237549
0.0239125
0.0240769
0.0242221
0.0243256
0.024366
0.0242909
0.024058
0.0236062
0.0228842
0.0218238
0.0203761
0.0185022
0.0162375
0.0136173
0.0104887
0.00636128
0.00157709
-0.0040092
0.0239292
0.0239217
0.0239332
0.023951
0.0239878
0.0240332
0.0240981
0.024173
0.0242671
0.0243731
0.0244981
0.0246364
0.0247911
0.0249505
0.0250873
0.0251794
0.0251963
0.0250987
0.0248204
0.0243099
0.0235089
0.0223449
0.0207669
0.0187301
0.016276
0.0134431
0.0100785
0.00569969
0.000674354
-0.00519597
0.0248927
0.0248901
0.024906
0.0249279
0.0249677
0.0250145
0.0250801
0.0251541
0.0252476
0.0253522
0.0254758
0.0256119
0.0257627
0.0259167
0.0260457
0.0261236
0.0261249
0.0259931
0.0256732
0.0251046
0.0242233
0.0229598
0.0212523
0.0190595
0.0164197
0.0133809
0.00977895
0.00514459
-0.000128303
-0.0063004
0.0259379
0.0259353
0.0259529
0.0259762
0.026019
0.0260696
0.02614
0.0262189
0.0263167
0.0264243
0.0265492
0.0266843
0.0268324
0.0269813
0.0271014
0.0271674
0.0271461
0.0269885
0.0266208
0.0259855
0.0250146
0.0236361
0.0217832
0.0194169
0.0165749
0.0133132
0.00945376
0.00454093
-0.000999771
-0.00751448
0.0270891
0.0270927
0.0271159
0.0271444
0.0271915
0.0272446
0.027317
0.0273963
0.0274947
0.0276018
0.0277261
0.0278598
0.0280046
0.0281481
0.0282606
0.0283129
0.0282744
0.0280779
0.0276629
0.0269541
0.0258894
0.0243864
0.0223822
0.0198317
0.0167824
0.0132911
0.00917333
0.00398032
-0.00182149
-0.00867928
0.028321
0.0283268
0.028354
0.0283861
0.0284384
0.0284975
0.0285765
0.0286624
0.0287665
0.028878
0.0290049
0.0291391
0.0292823
0.0294219
0.0295265
0.029567
0.0295021
0.0292758
0.0288012
0.0280106
0.0268345
0.0251866
0.0230051
0.0202437
0.016961
0.0132154
0.00881616
0.00332135
-0.00275394
-0.00998116
0.0296593
0.0296716
0.0297053
0.0297437
0.0298022
0.0298661
0.02995
0.0300394
0.0301473
0.0302617
0.0303911
0.0305266
0.0306689
0.0308053
0.0309034
0.0309293
0.030844
0.0305731
0.0300374
0.029159
0.02786
0.0260578
0.0236828
0.0206979
0.0171659
0.0131585
0.008472
0.00267996
-0.00365984
-0.0112448
0.0310708
0.0310891
0.0311307
0.0311763
0.0312437
0.0313166
0.0314104
0.0315094
0.0316264
0.0317484
0.0318839
0.032023
0.0321669
0.0323016
0.0323934
0.0324058
0.0322925
0.0319821
0.0313762
0.0303963
0.0289576
0.0269753
0.024378
0.0211383
0.0173271
0.0130306
0.00803029
0.00192083
-0.00469468
-0.0126556
0.0326176
0.0326413
0.0326885
0.0327399
0.0328134
0.0328918
0.0329918
0.0330962
0.0332196
0.0333473
0.0334886
0.0336326
0.0337787
0.0339132
0.0339992
0.0339973
0.0338598
0.0334926
0.0328175
0.0317271
0.0301406
0.0279626
0.0251298
0.0216158
0.0175119
0.0129129
0.00759705
0.00117271
-0.00570638
-0.014028
0.0342236
0.0342551
0.0343123
0.0343734
0.0344583
0.0345484
0.0346613
0.0347783
0.034914
0.0350529
0.0352039
0.0353555
0.035507
0.0356427
0.0357249
0.0357121
0.0355368
0.0351295
0.0343647
0.0331532
0.0313971
0.028998
0.025898
0.0220775
0.0176507
0.0127201
0.00706251
0.000300523
-0.00685254
-0.0155488
0.0359629
0.0359997
0.0360634
0.0361318
0.0362256
0.0363246
0.036448
0.0365753
0.0367227
0.0368728
0.0370349
0.0371962
0.0373549
0.0374956
0.0375794
0.0375532
0.0373569
0.0368789
0.036026
0.0346815
0.0327406
0.0301085
0.0267222
0.0225806
0.0178127
0.0125419
0.00653769
-0.000555902
-0.00797416
-0.0170265
0.0377465
0.0377959
0.037875
0.0379587
0.0380698
0.0381864
0.0383285
0.0384739
0.0386394
0.0388055
0.038983
0.0391576
0.0393284
0.039479
0.0395694
0.0395369
0.0393013
0.0387671
0.0378027
0.0363062
0.0341607
0.0312666
0.0275621
0.0230668
0.0179278
0.0122895
0.0059099
-0.00153774
-0.00923261
-0.0186517
0.0396904
0.0397472
0.0398364
0.0399316
0.0400566
0.0401867
0.0403444
0.040504
0.0406853
0.0408661
0.0410584
0.0412478
0.0414314
0.0415967
0.0416922
0.0416543
0.0413876
0.0407649
0.0396912
0.038031
0.0356718
0.0324976
0.0284606
0.0235922
0.0180702
0.0120525
0.00529794
-0.00250115
-0.0104625
-0.0202293
0.0417114
0.0417892
0.0419026
0.0420186
0.0421647
0.0423131
0.042489
0.0426652
0.0428631
0.0430589
0.0432664
0.0434699
0.0436678
0.0438439
0.0439509
0.0439002
0.0435831
0.0428916
0.0416858
0.0398526
0.0372564
0.0337733
0.0293693
0.0240958
0.0181628
0.0117382
0.00458148
-0.00359394
-0.011832
-0.0219516
0.0439744
0.0440544
0.0441689
0.0442879
0.0444385
0.0445936
0.0447792
0.0449664
0.0451781
0.0453885
0.0456111
0.0458294
0.0460395
0.0462274
0.0463327
0.0462668
0.045908
0.0451181
0.0437905
0.0417779
0.0389282
0.035121
0.030329
0.0246376
0.0182783
0.011442
0.00388102
-0.00466498
-0.0131726
-0.0236222
0.0462582
0.0463527
0.0464863
0.0466233
0.0467952
0.0469709
0.0471789
0.0473875
0.0476207
0.0478507
0.0480919
0.0483256
0.0485484
0.0487417
0.0488484
0.0487573
0.0483414
0.0474758
0.0460084
0.0437981
0.0406696
0.036503
0.0312886
0.025148
0.0183354
0.0110635
0.00306865
-0.00587099
-0.0146565
-0.0254358
0.0487768
0.0488814
0.0490244
0.0491695
0.0493492
0.0495319
0.0497493
0.0499681
0.0502153
0.0504604
0.0507177
0.0509663
0.0511986
0.0513976
0.0514924
0.051379
0.0509145
0.049943
0.0483433
0.0459186
0.042494
0.0379439
0.0322913
0.0256846
0.0184121
0.0106975
0.00227357
-0.00705744
-0.0161119
-0.0271952
0.0514103
0.0515235
0.0516762
0.0518319
0.0520233
0.0522198
0.0524519
0.052687
0.0529514
0.053214
0.0534885
0.0537517
0.0539947
0.0541942
0.0542852
0.0541403
0.0536106
0.052557
0.0507912
0.0481292
0.0443729
0.0394026
0.0332762
0.0261737
0.0184185
0.0102363
0.00135799
-0.00838832
-0.0177165
-0.0290933
0.054229
0.0543431
0.0544981
0.0546565
0.0548542
0.0550581
0.055302
0.0555502
0.0558313
0.056112
0.056405
0.0566852
0.0569389
0.0571436
0.0572205
0.0570482
0.0564629
0.055286
0.0533534
0.0504327
0.0463161
0.0409056
0.0342835
0.0266775
0.0184314
0.00978448
0.000454855
-0.00970171
-0.0192976
-0.0309351
0.0571177
0.0572426
0.0574101
0.0575804
0.0577916
0.0580102
0.0582712
0.0585386
0.0588411
0.0591442
0.05946
0.0597605
0.0600302
0.0602396
0.0603135
0.0601049
0.0594461
0.0581611
0.0560221
0.0528067
0.0482923
0.0424004
0.0352483
0.0271134
0.0183554
0.00922424
-0.000583474
-0.0111705
-0.0210342
-0.0329127
0.0601165
0.0602478
0.0604269
0.0606107
0.0608399
0.0610768
0.0613602
0.0616502
0.0619787
0.0623084
0.0626511
0.0629771
0.0632657
0.0634872
0.0635486
0.0633112
0.0625816
0.0611403
0.0587912
0.0552504
0.0503127
0.0439109
0.0362155
0.0275411
0.0182756
0.0086632
-0.00161173
-0.0126288
-0.0227527
-0.0348333
0.063208
0.0633492
0.0635419
0.0637414
0.06399
0.0642501
0.0645602
0.0648798
0.0652398
0.0656017
0.0659764
0.0663316
0.0666444
0.0668769
0.0669383
0.0666587
0.0658352
0.0642554
0.0616432
0.0577417
0.0523352
0.0453822
0.0371103
0.0278744
0.0180879
0.00797406
-0.00278931
-0.0142564
-0.0246357
-0.0368824
0.0664967
0.0666387
0.0668364
0.0670429
0.0673044
0.0675798
0.0679114
0.0682549
0.0686441
0.0690375
0.0694444
0.0698308
0.070168
0.0704162
0.0704647
0.0701471
0.0692319
0.0674562
0.0645747
0.060282
0.0543701
0.0468432
0.0379757
0.0281806
0.0178778
0.00727841
-0.00396405
-0.0158801
-0.0265097
-0.0388732
0.0699081
0.0700581
0.0702664
0.0704841
0.0707603
0.0710536
0.0714078
0.0717778
0.0721972
0.0726225
0.0730624
0.0734792
0.0738414
0.0740999
0.0741439
0.0737707
0.0727382
0.0707776
0.0675709
0.062839
0.0563744
0.0482278
0.0387337
0.028365
0.0175341
0.00643685
-0.00530775
-0.0176878
-0.0285548
-0.0409861
0.0735056
0.0736578
0.0738727
0.0740982
0.0743876
0.0746958
0.0750708
0.0754642
0.0759122
0.0763688
0.0768404
0.0772872
0.0776708
0.0779397
0.0779612
0.0775359
0.0763773
0.0741663
0.070626
0.0654133
0.0583624
0.0495636
0.0394351
0.0284938
0.0171554
0.0055771
-0.0066526
-0.0195026
-0.0306006
-0.0430389
0.0772218
0.0773841
0.0776119
0.0778511
0.0781576
0.0784868
0.078887
0.0793093
0.0797894
0.0802793
0.080784
0.0812598
0.0816641
0.0819346
0.0819389
0.0814334
0.0801144
0.0776647
0.073717
0.0679733
0.060278
0.0507809
0.0399907
0.0284677
0.0166198
0.00454533
-0.00818458
-0.0215182
-0.0328266
-0.0452002
0.0811404
0.0813066
0.0815426
0.0817912
0.0821125
0.0824582
0.0828812
0.0833289
0.0838398
0.0843628
0.0849
0.0854049
0.0858262
0.0860966
0.08606
0.0854702
0.0839779
0.0812115
0.0768408
0.0705211
0.0621333
0.0519136
0.0404502
0.0283635
0.0160288
0.00348968
-0.00972659
-0.0235518
-0.0350661
-0.0472972
0.0851653
0.0853448
0.0855979
0.0858643
0.0862075
0.0865781
0.0870307
0.0875112
0.0880577
0.0886171
0.0891891
0.0897226
0.0901596
0.0904198
0.0903432
0.0896353
0.0879323
0.0848495
0.0799738
0.0730098
0.063868
0.0528767
0.0407183
0.0280717
0.0152494
0.00223968
-0.0114801
-0.0258053
-0.0374913
-0.0494893
0.0893846
0.0895686
0.0898327
0.0901126
0.0904761
0.0908698
0.091352
0.091865
0.0924488
0.0930466
0.0936542
0.0942166
0.0946653
0.0949113
0.0947673
0.0939376
0.0919988
0.0885098
0.0831066
0.0754373
0.0654967
0.0537019
0.0408552
0.027668
0.0144015
0.000954892
-0.0132499
-0.0280939
-0.0399426
-0.0516107
0.0937353
0.0939311
0.0942117
0.0945104
0.0948981
0.0953209
0.0958379
0.0963897
0.0970151
0.0976543
0.0982992
0.0988892
0.0993462
0.0995649
0.0993528
0.098359
0.0961374
0.0922385
0.0862025
0.0777542
0.0669424
0.0542976
0.0407512
0.0270349
0.0133376
-0.000554807
-0.0152547
-0.0306233
-0.0425876
-0.053804
0.0983246
0.0985226
0.0988121
0.0991224
0.0995293
0.0999749
0.100523
0.101109
0.101774
0.102454
0.103134
0.103749
0.104207
0.104391
0.104078
0.102909
0.100372
0.095957
0.0892524
0.0799587
0.0682165
0.0547049
0.040467
0.0262645
0.0121844
-0.00210343
-0.0172881
-0.0332061
-0.0452726
-0.0559175
0.103063
0.103273
0.10358
0.10391
0.104342
0.104817
0.1054
0.106025
0.106732
0.107453
0.108167
0.108803
0.109255
0.109386
0.108965
0.107569
0.104662
0.0997082
0.092219
0.0819854
0.0692379
0.0548162
0.039885
0.0252258
0.0107766
-0.00390244
-0.0195864
-0.0360541
-0.0481514
-0.0580804
0.108057
0.108268
0.108584
0.108927
0.10938
0.10988
0.110497
0.111159
0.111907
0.112667
0.113413
0.114064
0.114499
0.114566
0.113996
0.112354
0.109024
0.103411
0.0950874
0.083829
0.070025
0.0546737
0.0390838
0.0240156
0.00926946
-0.00574961
-0.021925
-0.0389801
-0.0510819
-0.0601514
0.113251
0.113472
0.113803
0.114163
0.11464
0.115169
0.115821
0.116523
0.117313
0.118111
0.118885
0.119544
0.119952
0.119929
0.119195
0.117243
0.113419
0.107109
0.0978112
0.0854262
0.0704831
0.0541653
0.0379314
0.0224912
0.00747725
-0.00788232
-0.0245592
-0.0421962
-0.0542072
-0.0622371
0.118774
0.118991
0.119327
0.119693
0.120186
0.120735
0.121415
0.122148
0.122973
0.123805
0.1246
0.125261
0.125625
0.125497
0.124553
0.122247
0.117866
0.110723
0.100378
0.0867764
0.0706313
0.0533514
0.0365128
0.0207763
0.0055717
-0.0100648
-0.0272544
-0.0455166
-0.0573938
-0.0642146
0.124561
0.124783
0.125127
0.125504
0.126011
0.126579
0.127283
0.128045
0.128901
0.12976
0.130574
0.131226
0.131541
0.131289
0.13009
0.127371
0.122336
0.114292
0.102746
0.0878052
0.0703762
0.0521068
0.0346881
0.0187124
0.00334291
-0.0125611
-0.0302837
-0.049156
-0.0607648
-0.0661728
0.130734
0.130942
0.131276
0.131646
0.132152
0.132725
0.133443
0.134226
0.135109
0.135997
0.136825
0.137469
0.137731
0.137313
0.135833
0.132624
0.12685
0.117741
0.1049
0.0885117
0.069752
0.0504994
0.0325712
0.0164364
0.00100332
-0.0151132
-0.0333965
-0.0529313
-0.0642003
-0.0680037
0.137293
0.137472
0.137772
0.138114
0.1386
0.139168
0.139895
0.1407
0.141612
0.142531
0.143378
0.144014
0.1442
0.14361
0.141781
0.138009
0.131376
0.121111
0.106793
0.088829
0.0686556
0.048402
0.0300077
0.0137729
-0.00168258
-0.0180149
-0.0368854
-0.0570509
-0.0678063
-0.0697711
0.144143
0.144274
0.144535
0.144854
0.145332
0.145907
0.146655
0.14749
0.148439
0.149394
0.150257
0.150877
0.150976
0.150168
0.147944
0.143527
0.135926
0.124321
0.108412
0.0887655
0.0671272
0.0459104
0.027125
0.0109002
-0.0044757
-0.0209717
-0.0404917
-0.0613358
-0.0714717
-0.0713887
0.150933
0.151099
0.151408
0.151771
0.1523
0.152924
0.153727
0.154616
0.155617
0.156614
0.157495
0.158085
0.158072
0.157012
0.154328
0.149169
0.140467
0.127406
0.109717
0.088248
0.0650672
0.0428855
0.0237595
0.00762323
-0.00764385
-0.0243079
-0.0445226
-0.0659896
-0.075275
-0.0729005
0.158286
0.15843
0.158734
0.159107
0.159664
0.160328
0.161184
0.162131
0.163191
0.164233
0.165127
0.165674
0.16552
0.164153
0.160943
0.154947
0.145015
0.130301
0.1107
0.0872867
0.0625385
0.0394342
0.0200773
0.00414505
-0.0108956
-0.0277067
-0.0487086
-0.0708352
-0.0791191
-0.0742372
0.165775
0.165975
0.166345
0.166779
0.167401
0.16813
0.169057
0.170075
0.171202
0.172293
0.173197
0.173683
0.173352
0.171637
0.167818
0.16087
0.149555
0.133047
0.111319
0.0858173
0.0594304
0.0354127
0.0158995
0.000248171
-0.0145318
-0.0315259
-0.0533724
-0.0760605
-0.0830588
-0.0754169
0.174094
0.174261
0.17461
0.175041
0.175681
0.176449
0.177432
0.178518
0.179711
0.180852
0.181757
0.182165
0.181628
0.179494
0.174991
0.166976
0.154122
0.135591
0.111565
0.08386
0.0558127
0.0309632
0.0114105
-0.00380884
-0.0182262
-0.0354159
-0.0582401
-0.0814924
-0.0870052
-0.0763935
0.182567
0.182801
0.183225
0.183723
0.184435
0.185275
0.186337
0.187504
0.188772
0.189964
0.190868
0.19118
0.190392
0.187801
0.182507
0.173283
0.158702
0.137954
0.111402
0.0813399
0.0515703
0.0259244
0.00641866
-0.00826804
-0.022319
-0.039769
-0.0636408
-0.087303
-0.0909809
-0.0771652
0.191915
0.192134
0.192559
0.193075
0.193825
0.19472
0.195855
0.1971
0.198445
0.199691
0.200587
0.200787
0.199727
0.196587
0.190417
0.179837
0.163324
0.14009
0.110811
0.0782717
0.0468009
0.0204536
0.00115798
-0.0128352
-0.02643
-0.0442185
-0.0692945
-0.0933183
-0.0949106
-0.0777045
0.201508
0.201822
0.202346
0.20295
0.203791
0.204775
0.206004
0.207346
0.208779
0.210085
0.210975
0.21105
0.209664
0.205941
0.198759
0.186641
0.167957
0.141998
0.109747
0.0745814
0.0413695
0.0143792
-0.0045795
-0.0177829
-0.0309415
-0.0491901
-0.0755352
-0.0996826
-0.0987896
-0.077988
0.212189
0.212478
0.212995
0.213617
0.214501
0.215552
0.216869
0.218309
0.219838
0.22121
0.222091
0.222026
0.220297
0.215874
0.207577
0.193735
0.172627
0.14364
0.108182
0.070298
0.0353859
0.00790505
-0.0105306
-0.0227518
-0.0354431
-0.0542957
-0.0820784
-0.106222
-0.102551
-0.0780115
0.223117
0.223514
0.22415
0.224881
0.225879
0.227046
0.228484
0.230048
0.231688
0.233135
0.234013
0.233792
0.231655
0.226495
0.216899
0.201103
0.177288
0.144989
0.106076
0.0653336
0.0287013
0.000840907
-0.0169156
-0.0280479
-0.0403675
-0.0599937
-0.0892487
-0.113053
-0.106158
-0.0777362
0.235287
0.235679
0.23633
0.237103
0.23817
0.23943
0.240981
0.242667
0.24442
0.245954
0.246822
0.246437
0.243885
0.237808
0.226779
0.208797
0.181969
0.146012
0.103397
0.0597172
0.0214704
-0.00658121
-0.0234087
-0.0332713
-0.0452635
-0.0658882
-0.0967549
-0.119996
-0.109558
-0.077178
0.247947
0.248468
0.249255
0.250152
0.251346
0.252733
0.254421
0.256245
0.258137
0.259762
0.260645
0.260117
0.256995
0.249949
0.237242
0.216787
0.186601
0.146666
0.100098
0.0533518
0.0135176
-0.0145613
-0.0302457
-0.0387724
-0.050618
-0.0724623
-0.104907
-0.127127
-0.112689
-0.076283
0.262103
0.262612
0.263406
0.264342
0.26561
0.267102
0.268924
0.270904
0.272943
0.274693
0.275625
0.274816
0.271137
0.262894
0.248335
0.225136
0.191227
0.146933
0.0961374
0.0462987
0.00502533
-0.0228025
-0.0370632
-0.0440942
-0.0559664
-0.0793073
-0.113403
-0.134265
-0.115512
-0.0750898
0.276733
0.277394
0.278352
0.279439
0.28087
0.282531
0.284541
0.286717
0.288944
0.290844
0.291732
0.290723
0.2863
0.276758
0.260101
0.233795
0.195756
0.146743
0.0914649
0.0384332
-0.00420336
-0.0315196
-0.0441165
-0.0496419
-0.0618526
-0.086924
-0.122522
-0.141452
-0.117942
-0.0735362
0.292951
0.293639
0.294654
0.295835
0.297401
0.29923
0.301439
0.303828
0.306253
0.308281
0.30921
0.307828
0.302635
0.29162
0.272612
0.242849
0.200241
0.146069
0.0860474
0.0298292
-0.0139182
-0.0403715
-0.0509818
-0.0549375
-0.0677965
-0.0948954
-0.131945
-0.148497
-0.119958
-0.0716809
0.309829
0.310724
0.311972
0.313382
0.315191
0.317269
0.319736
0.322379
0.325032
0.327219
0.328068
0.326385
0.320267
0.307583
0.285891
0.252221
0.204554
0.144841
0.0798144
0.0203305
-0.024344
-0.0495793
-0.0579467
-0.0604563
-0.0743982
-0.103721
-0.141916
-0.155402
-0.121463
-0.0694558
0.328669
0.329664
0.331041
0.332616
0.334623
0.336928
0.339645
0.342546
0.345428
0.347751
0.348609
0.346435
0.339321
0.324744
0.300042
0.262022
0.208771
0.143027
0.0727255
0.0100755
-0.0351776
-0.0587277
-0.0645653
-0.0657019
-0.0811817
-0.112965
-0.152094
-0.161979
-0.122458
-0.0669387
0.349048
0.350222
0.351777
0.353533
0.355751
0.358301
0.36129
0.364473
0.367613
0.3701
0.370837
0.36826
0.359949
0.343218
0.315084
0.272153
0.212732
0.140536
0.0646765
-0.0011385
-0.0466564
-0.0680525
-0.0711761
-0.0712325
-0.0887916
-0.12311
-0.16267
-0.1682
-0.122838
-0.0640599
0.37121
0.372522
0.37424
0.376204
0.378664
0.381497
0.3848
0.388309
0.391733
0.394388
0.395114
0.391906
0.382314
0.363147
0.331162
0.282748
0.21651
0.137279
0.0556632
-0.0131206
-0.0583791
-0.0770966
-0.0773143
-0.0765689
-0.0967462
-0.133694
-0.173281
-0.173881
-0.122635
-0.0609153
0.394918
0.396475
0.398448
0.400683
0.403451
0.406638
0.410326
0.414226
0.418007
0.420881
0.421471
0.417741
0.406605
0.384649
0.348257
0.293652
0.219885
0.133193
0.0455327
-0.026116
-0.0705942
-0.0861164
-0.0833948
-0.0823533
-0.105714
-0.145156
-0.184069
-0.178968
-0.121749
-0.0574369
0.42054
0.422337
0.424588
0.427156
0.430302
0.433916
0.438067
0.442443
0.446634
0.449764
0.450343
0.445819
0.433025
0.407911
0.366551
0.305004
0.222922
0.128116
0.0343141
-0.0398023
-0.0828184
-0.0946146
-0.0889848
-0.0881258
-0.115205
-0.156992
-0.194646
-0.183296
-0.120241
-0.0537367
0.44805
0.450198
0.452826
0.455802
0.459409
0.463544
0.468256
0.473191
0.477903
0.481354
0.481807
0.476616
0.461785
0.433015
0.38595
0.316578
0.22536
0.122026
0.0217923
-0.0544629
-0.0952946
-0.102903
-0.0946007
-0.0946046
-0.125878
-0.16958
-0.205101
-0.186805
-0.118029
-0.0497533
0.477896
0.480412
0.483454
0.48691
0.491056
0.495797
0.501152
0.506772
0.512076
0.515943
0.516451
0.510199
0.493143
0.460198
0.40667
0.328525
0.227224
0.114625
0.00812672
-0.0696389
-0.107444
-0.110508
-0.0998554
-0.101356
-0.137202
-0.182369
-0.215033
-0.189359
-0.11521
-0.0456151
0.510138
0.513142
0.516703
0.520723
0.525504
0.530944
0.537096
0.543498
0.549587
0.554052
0.554329
0.547084
0.527274
0.489465
0.428535
0.340527
0.228237
0.106025
-0.00694986
-0.0856224
-0.119528
-0.117835
-0.105381
-0.109131
-0.149792
-0.195656
-0.224493
-0.190909
-0.111726
-0.0412697
0.545164
0.548711
0.55286
0.557539
0.563063
0.569354
0.576409
0.583792
0.590854
0.595704
0.595942
0.587267
0.564397
0.521099
0.451759
0.352745
0.228337
0.0958039
-0.0231175
-0.101752
-0.130939
-0.124485
-0.110857
-0.117502
-0.163055
-0.208835
-0.233079
-0.191366
-0.107715
-0.0368596
0.583053
0.587262
0.592123
0.597577
0.603986
0.611266
0.619415
0.627933
0.635848
0.641449
0.641351
0.631176
0.604736
0.555016
0.476086
0.364758
0.227327
0.0842465
-0.0406667
-0.118331
-0.141996
-0.131006
-0.117011
-0.127208
-0.177517
-0.222128
-0.240824
-0.190714
-0.103146
-0.032347
0.624169
0.629138
0.63479
0.641144
0.648554
0.65698
0.666359
0.676101
0.685296
0.691358
0.691079
0.679157
0.648652
0.591563
0.501763
0.37663
0.225024
0.0707423
-0.059012
-0.13454
-0.152141
-0.137141
-0.123564
-0.137799
-0.192494
-0.234886
-0.247346
-0.188925
-0.0981895
-0.0278905
0.668302
0.674184
0.680818
0.688281
0.696936
0.706752
0.717634
0.728891
0.73922
0.74623
0.745593
0.731658
0.696279
0.630641
0.528305
0.38799
0.221287
0.0559311
-0.0784406
-0.1507
-0.161851
-0.14359
-0.131279
-0.149928
-0.208401
-0.247262
-0.252691
-0.186035
-0.0928499
-0.0234676
0.71542
0.722481
0.730381
0.739234
0.749407
0.760895
0.773529
0.786502
0.798527
0.806188
0.805312
0.789023
0.748128
0.672654
0.556018
0.398707
0.215772
0.0391481
-0.0980542
-0.165907
-0.170756
-0.150239
-0.139858
-0.163084
-0.224451
-0.258592
-0.256531
-0.182087
-0.0873244
-0.0192496
0.765893
0.774342
0.783754
0.79427
0.806276
0.819756
0.834505
0.849549
0.863157
0.872031
0.870717
0.851605
0.804239
0.71731
0.584338
0.408454
0.208632
0.0213792
-0.118076
-0.180622
-0.179562
-0.157888
-0.149993
-0.177794
-0.240936
-0.269001
-0.258949
-0.177183
-0.0816439
-0.0152359
0.820039
0.830136
0.841316
0.853772
0.867912
0.883728
0.900898
0.918295
0.934074
0.94385
0.94215
0.919865
0.865023
0.765026
0.613335
0.416962
0.199279
0.00199018
-0.137323
-0.194067
-0.188201
-0.16648
-0.161274
-0.193471
-0.256975
-0.27786
-0.259702
-0.171443
-0.0760166
-0.0116128
0.877977
0.889972
0.903216
0.917951
0.934601
0.953138
0.973195
0.993331
1.01126
1.02256
1.02012
0.993957
0.930318
0.815085
0.642421
0.423926
0.188267
-0.0175176
-0.15603
-0.207003
-0.197658
-0.17672
-0.174219
-0.210483
-0.27278
-0.285311
-0.258952
-0.165038
-0.0704935
-0.00839755
0.939825
0.954054
0.969698
0.987066
1.00661
1.02836
1.05169
1.07502
1.09582
1.10812
1.10497
1.07437
1.00074
0.867985
0.671507
0.428679
0.175071
-0.037577
-0.172898
-0.219192
-0.208089
-0.188312
-0.188222
-0.228203
-0.287453
-0.290835
-0.256569
-0.158154
-0.0652789
-0.0057803
1.0056
1.02238
1.04081
1.06124
1.08423
1.10965
1.13694
1.16408
1.18747
1.20137
1.19689
1.16108
1.07599
0.923074
0.699804
0.43119
0.160808
-0.0561679
-0.188504
-0.232091
-0.220329
-0.201433
-0.203541
-0.246908
-0.301242
-0.294683
-0.252811
-0.151026
-0.0604238
-0.00379339
1.07528
1.09505
1.11671
1.14071
1.16761
1.19736
1.2292
1.26011
1.28684
1.30185
1.29603
1.25427
1.15653
0.980526
0.727023
0.430408
0.145378
-0.0735986
-0.202536
-0.24598
-0.233805
-0.215266
-0.219447
-0.265995
-0.313343
-0.296535
-0.247697
-0.143896
-0.056102
-0.00262946
1.14854
1.17174
1.19714
1.22525
1.25669
1.29138
1.32794
1.3636
1.39356
1.41013
1.40266
1.35397
1.24171
1.03897
0.751754
0.426237
0.130782
-0.0887867
-0.216599
-0.261566
-0.248093
-0.229716
-0.236346
-0.28577
-0.324063
-0.296779
-0.241611
-0.137049
-0.0523573
-0.00233677
1.22531
1.25244
1.28203
1.31478
1.35134
1.39152
1.43398
1.47439
1.50822
1.52638
1.51709
1.46094
1.33221
1.09814
0.772739
0.419035
0.117174
-0.1037
-0.229979
-0.277966
-0.262131
-0.244359
-0.254101
-0.305946
-0.332628
-0.295263
-0.234698
-0.130743
-0.0493249
-0.00310725
1.30505
1.33661
1.37106
1.4092
1.45177
1.49839
1.54697
1.59329
1.63115
1.65079
1.6392
1.57433
1.42649
1.15628
0.790616
0.409476
0.104732
-0.116776
-0.242418
-0.295508
-0.275831
-0.259913
-0.273612
-0.326855
-0.339296
-0.292465
-0.22742
-0.125291
-0.0470252
-0.00499314
1.3876
1.42418
1.4641
1.50836
1.5577
1.6116
1.6677
1.72001
1.76231
1.7832
1.76891
1.69449
1.52497
1.21617
0.809566
0.396066
0.0902644
-0.126145
-0.253249
-0.314557
-0.288492
-0.276286
-0.294406
-0.347585
-0.343209
-0.28843
-0.220034
-0.120946
-0.0455264
-0.00815557
1.47196
1.5142
1.56037
1.61163
1.66883
1.73109
1.79522
1.8549
1.90165
1.92344
1.90609
1.82089
1.62674
1.27849
0.827113
0.380846
0.0788929
-0.129107
-0.264385
-0.336344
-0.298972
-0.293184
-0.315887
-0.367255
-0.344648
-0.283846
-0.213093
-0.118017
-0.0448127
-0.0126072
1.55735
1.60588
1.65904
1.7182
1.78418
1.85596
1.92978
1.99706
2.04893
2.07132
2.05103
1.95447
1.73505
1.34208
0.839901
0.364735
0.0764838
-0.12823
-0.277525
-0.360471
-0.306039
-0.308966
-0.336402
-0.38435
-0.34327
-0.279191
-0.206973
-0.116724
-0.0449432
-0.0183867
1.64232
1.69776
1.75869
1.82668
1.90272
1.98528
2.0696
2.14635
2.20363
2.2263
2.20218
2.09592
1.85135
1.40442
0.852965
0.348992
0.0857341
-0.125393
-0.293665
-0.385007
-0.311407
-0.322567
-0.355061
-0.398196
-0.340301
-0.275609
-0.202349
-0.11736
-0.046028
-0.0253528
1.72552
1.78834
1.85766
1.93538
2.02244
2.11712
2.2138
2.30063
2.36441
2.38684
2.35877
2.24711
1.97677
1.47326
0.868949
0.338618
0.103879
-0.120584
-0.310581
-0.406469