/*--------------------------------*- C++ -*----------------------------------*\
  =========                 |
  \\      /  F ield         | OpenFOAM: The Open Source CFD Toolbox
   \\    /   O peration     | Website:  https://openfoam.org
    \\  /    A nd           | Version:  6.0
     \\/     M anipulation  |
\*---------------------------------------------------------------------------*/
FoamFile
{
    version     2.0;
    format      ascii;
    class       surfaceScalarField;
    location    "17";
    object      phi;
}
// * * * * * * * * * * * * * * * * * * * * * * * * * * * * * * * * * * * * * //

dimensions      [0 3 -1 0 0 0 0];

internalField   nonuniform List<scalar> 
30763
(
-5.28846e-05
4.48184e-05
5.44209e-05
-5.10808e-05
5.25429e-05
-4.89755e-05
6.16005e-05
-4.64981e-05
7.2222e-05
-4.36004e-05
8.46741e-05
-4.0191e-05
9.9278e-05
-3.6204e-05
0.000116407
-3.14971e-05
0.000136472
-2.59834e-05
0.00016002
-1.94709e-05
0.000187595
-1.18097e-05
0.000219929
-2.77795e-06
0.000257807
7.86967e-06
0.000302154
2.04372e-05
0.000354029
3.52422e-05
0.000414664
5.26706e-05
0.000485397
7.31687e-05
0.000567686
9.72265e-05
0.000663065
0.000125398
0.000773009
0.000158278
0.000898706
0.000196503
0.0010407
0.000240648
0.00119827
0.000291209
0.00136834
0.000348421
0.00154381
0.000412032
0.00171095
0.000480864
0.00184547
0.000552286
0.00190688
0.000621177
0.00183172
0.000678688
0.00152344
0.000837439
0.00069898
-5.137e-05
4.33415e-05
5.28517e-05
-4.96354e-05
5.0811e-05
-4.76075e-05
5.95696e-05
-4.52227e-05
6.98404e-05
-4.24321e-05
8.18781e-05
-3.91479e-05
9.59968e-05
-3.53065e-05
0.00011256
-3.07704e-05
0.000131937
-2.54554e-05
0.0001547
-1.9178e-05
0.000181317
-1.17909e-05
0.000212538
-3.08445e-06
0.000249099
7.18126e-06
0.000291886
1.92956e-05
0.000341913
3.35675e-05
0.00040039
5.03683e-05
0.000468594
7.01254e-05
0.00054792
9.33179e-05
0.000639864
0.000120474
0.000745843
0.000152173
0.000866996
0.000189029
0.00100383
0.000231604
0.00115568
0.000280376
0.00131955
0.000335577
0.00148858
0.000396962
0.00164953
0.000463391
0.00177897
0.000532298
0.00183789
0.000598741
0.0017651
0.000652387
0.00146946
0.000814055
0.000674938
-4.98904e-05
4.19193e-05
5.13195e-05
-4.82205e-05
4.91433e-05
-4.62663e-05
5.7614e-05
-4.39703e-05
6.75473e-05
-4.1282e-05
7.91858e-05
-3.81193e-05
9.28371e-05
-3.44191e-05
0.000108854
-3.00503e-05
0.00012757
-2.49305e-05
0.000149576
-1.88835e-05
0.00017527
-1.17666e-05
0.000205417
-3.37803e-06
0.000240709
6.51326e-06
0.000281992
1.81862e-05
0.000330238
3.19401e-05
0.000386635
4.81301e-05
0.0004524
6.71739e-05
0.000528871
8.95296e-05
0.000617498
0.00011571
0.000719651
0.000146279
0.000836418
0.000181827
0.000968274
0.000222903
0.0011146
0.000269969
0.00127248
0.000323249
0.0014353
0.0003825
0.0015903
0.00044662
0.00171488
0.000513078
0.00177151
0.000577152
0.00170114
0.000629508
0.00141728
0.000790739
0.000653332
-4.84389e-05
4.05476e-05
4.98142e-05
-4.68319e-05
4.75352e-05
-4.49481e-05
5.57287e-05
-4.2737e-05
6.53368e-05
-4.01459e-05
7.65909e-05
-3.70997e-05
8.97921e-05
-3.35341e-05
0.000105284
-2.93253e-05
0.000123362
-2.43923e-05
0.000144638
-1.85662e-05
0.000169443
-1.17086e-05
0.000198556
-3.62599e-06
0.000232625
5.90592e-06
0.000272457
1.71561e-05
0.000318986
3.04125e-05
0.000373377
4.602e-05
0.000436789
6.43789e-05
0.000510504
8.59361e-05
0.000595934
0.000111184
0.000694393
0.000140668
0.000806926
0.00017496
0.000933969
0.000214592
0.00107495
0.00026001
0.00122703
0.000311431
0.00138384
0.000368613
0.00153305
0.000430489
0.00165291
0.000494578
0.00170729
0.000556346
0.00163917
0.000607206
0.00136604
0.000765857
0.000631253
-4.70205e-05
3.92253e-05
4.83509e-05
-4.54709e-05
4.59851e-05
-4.36536e-05
5.39115e-05
-4.15228e-05
6.32065e-05
-3.90243e-05
7.40903e-05
-3.60891e-05
8.6858e-05
-3.2652e-05
0.000101843
-2.85969e-05
0.000119307
-2.38426e-05
0.00013988
-1.82288e-05
0.000163828
-1.16204e-05
0.000191944
-3.83076e-06
0.000224833
5.35637e-06
0.000263268
1.62006e-05
0.00030814
2.89805e-05
0.000360595
4.40272e-05
0.000421738
6.17322e-05
0.000492796
8.25184e-05
0.000575136
0.000106869
0.000670035
0.000135306
0.00077848
0.000168386
0.000900883
0.000206618
0.00103671
0.000250437
0.00118321
0.000300051
0.00133424
0.000355221
0.0014779
0.000414916
0.00159326
0.000476719
0.00164558
0.000536224
0.00157981
0.000585366
0.00131711
0.00074213
0.000609719
-4.56551e-05
3.79486e-05
4.69366e-05
-4.41626e-05
4.44886e-05
-4.2408e-05
5.21573e-05
-4.03536e-05
6.11502e-05
-3.79421e-05
7.1677e-05
-3.51116e-05
8.40268e-05
-3.17955e-05
9.8524e-05
-2.78852e-05
0.000115397
-2.33e-05
0.000135292
-1.78876e-05
0.000158414
-1.1516e-05
0.00018557
-4.00712e-06
0.000217322
4.84959e-06
0.000254408
1.53043e-05
0.000297683
2.7625e-05
0.000348272
4.21349e-05
0.000407227
5.92037e-05
0.000475719
7.92511e-05
0.000555085
0.000102734
0.000646544
0.00013016
0.000751045
0.000162066
0.000868969
0.000198944
0.000999816
0.000241215
0.00114092
0.000289076
0.00128633
0.000342296
0.00142462
0.000399876
0.00153558
0.000459476
0.00158585
0.000516795
0.00152228
0.000564285
0.00126923
0.000716565
0.000588984
-4.43347e-05
3.67175e-05
4.55745e-05
-4.28944e-05
4.30454e-05
-4.12004e-05
5.04655e-05
-3.92187e-05
5.91671e-05
-3.68908e-05
6.93496e-05
-3.4161e-05
8.12963e-05
-3.09609e-05
9.5323e-05
-2.71902e-05
0.000111625
-2.27674e-05
0.000130867
-1.75487e-05
0.000153194
-1.14045e-05
0.000179423
-4.1642e-06
0.000210079
4.37503e-06
0.000245866
1.44551e-05
0.000287601
2.63355e-05
0.00033639
4.0324e-05
0.000393234
5.67857e-05
0.000459255
7.61162e-05
0.000535746
9.87617e-05
0.00062389
0.000125212
0.000724588
0.000155983
0.000838192
0.000191554
0.000964244
0.000232325
0.00110015
0.000278491
0.00124018
0.000329823
0.00137332
0.000385358
0.00148011
0.000442834
0.00152848
0.000498067
0.00146721
0.000543953
0.00122361
0.000692614
0.000568567
-4.30519e-05
3.55296e-05
4.42463e-05
-4.1666e-05
4.16526e-05
-4.00313e-05
4.88325e-05
-3.81216e-05
5.72528e-05
-3.58751e-05
6.71029e-05
-3.32424e-05
7.86607e-05
-3.01544e-05
9.22336e-05
-2.6517e-05
0.000107985
-2.22498e-05
0.000126598
-1.72159e-05
0.000148157
-1.12893e-05
0.000173494
-4.30738e-06
0.000203095
3.92716e-06
0.000237629
1.36473e-05
0.000277879
2.51019e-05
0.000324933
3.85918e-05
0.000379741
5.44632e-05
0.000443376
7.31058e-05
0.000517101
9.49444e-05
0.000602046
0.000120453
0.000699075
0.000150129
0.000808506
0.000184435
0.000929925
0.000223758
0.0010608
0.000268283
0.00119561
0.000317787
0.00132375
0.000371341
0.00142646
0.000426767
0.00147292
0.000480009
0.00141376
0.000524277
0.00117894
0.000667788
0.000548199
-4.17997e-05
3.43856e-05
4.29546e-05
-4.04629e-05
4.03109e-05
-3.88855e-05
4.72594e-05
-3.70441e-05
5.54085e-05
-3.48765e-05
6.49381e-05
-3.23385e-05
7.61208e-05
-2.93595e-05
8.92559e-05
-2.5853e-05
0.000104477
-2.17373e-05
0.000122482
-1.6884e-05
0.000143301
-1.1169e-05
0.000167778
-4.43635e-06
0.00019636
3.50389e-06
0.000229687
1.28761e-05
0.000268504
2.39214e-05
0.000313885
3.69271e-05
0.000366731
5.22351e-05
0.000428069
7.02097e-05
0.000499118
9.12705e-05
0.000580981
0.000115868
0.000674471
0.000144487
0.000779885
0.00017757
0.000896842
0.000215491
0.00102289
0.000258428
0.00115269
0.000306162
0.00127605
0.000357796
0.00137489
0.000411243
0.00141958
0.000462573
0.00136261
0.000505222
0.00113659
0.000645586
0.000528141
-4.05702e-05
3.32829e-05
4.16836e-05
-3.92852e-05
3.90177e-05
-3.77646e-05
4.57428e-05
-3.59921e-05
5.36302e-05
-3.39026e-05
6.28505e-05
-3.14571e-05
7.36714e-05
-2.85848e-05
8.63841e-05
-2.52043e-05
0.000101093
-2.12353e-05
0.000118513
-1.65557e-05
0.000138619
-1.10445e-05
0.000162265
-4.55334e-06
0.000189865
3.10265e-06
0.000222028
1.21393e-05
0.000259466
2.2788e-05
0.000303233
3.53305e-05
0.000354187
5.00868e-05
0.000413306
6.74221e-05
0.000481783
8.77294e-05
0.000560671
0.000111448
0.000650746
0.000139045
0.000752282
0.000170945
0.000864928
0.00020751
0.000986299
0.000248908
0.00111126
0.000294929
0.00122997
0.000344704
0.00132502
0.000396238
0.00136792
0.000445729
0.00131289
0.000486814
0.0010951
0.000622716
0.00050873
-3.93751e-05
3.22211e-05
4.045e-05
-3.81362e-05
3.77725e-05
-3.66695e-05
4.42826e-05
-3.49612e-05
5.1918e-05
-3.2946e-05
6.08405e-05
-3.05898e-05
7.13126e-05
-2.78205e-05
8.36182e-05
-2.45637e-05
9.78339e-05
-2.07379e-05
0.000114688
-1.62285e-05
0.000134106
-1.09161e-05
0.000156952
-4.65863e-06
0.000183605
2.72169e-06
0.000214645
1.14333e-05
0.000250752
2.17004e-05
0.000292964
3.37901e-05
0.000342093
4.80206e-05
0.000399075
6.47329e-05
0.000465066
8.43124e-05
0.000541086
0.000107182
0.000627874
0.000133789
0.000725674
0.000164545
0.000834174
0.000199797
0.000951057
0.000239707
0.00107137
0.00028407
0.00118564
0.00033205
0.00127711
0.000381734
0.00131836
0.000429455
0.00126536
0.000469067
0.00105582
0.000602321
0.000490197
-3.82058e-05
3.11974e-05
3.92439e-05
-3.70152e-05
3.65722e-05
-3.56019e-05
4.28751e-05
-3.39584e-05
5.02674e-05
-3.20172e-05
5.89028e-05
-2.97484e-05
6.90387e-05
-2.70801e-05
8.09518e-05
-2.3942e-05
9.46918e-05
-2.02548e-05
0.000111002
-1.59086e-05
0.000129756
-1.07876e-05
0.000151831
-4.75662e-06
0.000177571
2.35759e-06
0.000207529
1.07556e-05
0.000242352
2.06517e-05
0.000283065
3.23079e-05
0.000330435
4.60241e-05
0.000385354
6.21379e-05
0.000448953
8.10142e-05
0.000522208
0.000103062
0.000605824
0.000128712
0.000700017
0.000158363
0.000804514
0.000192345
0.000917052
0.000230816
0.00103286
0.000273578
0.00114282
0.000319825
0.00123078
0.000367724
0.00127032
0.000413746
0.00121912
0.000451982
0.00101717
0.00058078
0.000472536
-3.70881e-05
3.02109e-05
3.80924e-05
-3.59389e-05
3.54159e-05
-3.45747e-05
4.15195e-05
-3.29902e-05
4.86782e-05
-3.11176e-05
5.70372e-05
-2.89317e-05
6.68496e-05
-2.63595e-05
7.83846e-05
-2.3337e-05
9.16661e-05
-1.97836e-05
0.000107451
-1.55968e-05
0.000125566
-1.06622e-05
0.000146896
-4.84984e-06
0.000171756
2.00688e-06
0.00020067
1.0101e-05
0.000234256
1.96403e-05
0.000273522
3.08741e-05
0.000319196
4.40997e-05
0.000372131
5.96306e-05
0.000433418
7.78285e-05
0.00050401
9.9081e-05
0.000584568
0.000123807
0.000675292
0.000152387
0.000775938
0.000185143
0.000884308
0.000222224
0.000995803
0.000263443
0.00110165
0.000308019
0.00118628
0.000354199
0.00122427
0.000398589
0.00117493
0.000435535
0.00098056
0.000561427
0.000455677
-3.60145e-05
2.92586e-05
3.69849e-05
-3.49091e-05
3.42999e-05
-3.35929e-05
4.02114e-05
-3.20671e-05
4.71449e-05
-3.02618e-05
5.52376e-05
-2.81557e-05
6.47381e-05
-2.56761e-05
7.5909e-05
-2.2763e-05
8.87488e-05
-1.93376e-05
0.000104028
-1.53022e-05
0.000121527
-1.05455e-05
0.00014214
-4.944e-06
0.000166151
1.66489e-06
0.000194059
9.46675e-06
0.000226452
1.86605e-05
0.000264325
2.94912e-05
0.000308365
4.22357e-05
0.000359381
5.72097e-05
0.000418447
7.47503e-05
0.000486469
9.5236e-05
0.000564079
0.000119069
0.000651457
0.000146616
0.00074838
0.000178189
0.000852718
0.000213929
0.000960025
0.00025366
0.00106186
0.000296629
0.00114322
0.000341155
0.00117961
0.00038398
0.00113188
0.000419702
0.000944421
0.000540632
0.000439476
-3.50029e-05
2.83399e-05
3.59427e-05
-3.39349e-05
3.32234e-05
-3.2663e-05
3.895e-05
-3.11905e-05
4.56667e-05
-2.94471e-05
5.35032e-05
-2.74165e-05
6.27034e-05
-2.50241e-05
7.35234e-05
-2.22167e-05
8.59376e-05
-1.89141e-05
0.000100729
-1.50253e-05
0.000117634
-1.04404e-05
0.000137555
-5.04108e-06
0.000160748
1.32893e-06
0.000187686
8.84897e-06
0.000218931
1.77118e-05
0.00025546
2.8149e-05
0.000297923
4.04367e-05
0.000347096
5.48686e-05
0.000404014
7.17756e-05
0.00046956
9.15217e-05
0.000544333
0.000114492
0.000628486
0.000141044
0.000721835
0.000171473
0.000822301
0.000205923
0.000925602
0.000244221
0.00102361
0.000285646
0.00110188
0.000328581
0.00113681
0.000369903
0.00109077
0.000404449
0.000910245
0.000522035
0.00042386
-3.40408e-05
2.74516e-05
3.4949e-05
-3.30129e-05
3.21829e-05
-3.17842e-05
3.7731e-05
-3.03647e-05
4.42385e-05
-2.8682e-05
5.18278e-05
-2.67234e-05
6.07385e-05
-2.44152e-05
7.12205e-05
-2.17071e-05
8.32248e-05
-1.85214e-05
9.75468e-05
-1.47711e-05
0.00011388
-1.03497e-05
0.000133135
-5.14448e-06
0.00015554
9.9664e-07
0.000181543
8.2464e-06
0.00021168
1.67889e-05
0.000246914
2.68511e-05
0.000287859
3.86933e-05
0.00033525
5.26061e-05
0.000390105
6.89028e-05
0.000453264
8.79354e-05
0.0005253
0.000110075
0.000606343
0.000135667
0.000696236
0.000164996
0.000792952
0.000198203
0.000892364
0.000235122
0.00098663
0.000275063
0.00106185
0.000316471
0.00109526
0.00035635
0.00105067
0.000389754
0.000876407
0.000502009
0.00040874
-3.31355e-05
2.65946e-05
3.40179e-05
-3.21411e-05
3.1179e-05
-3.0953e-05
3.6555e-05
-2.95822e-05
4.28608e-05
-2.79561e-05
5.0212e-05
-2.60664e-05
5.88437e-05
-2.38377e-05
6.89998e-05
-2.12261e-05
8.06088e-05
-1.81525e-05
9.44782e-05
-1.45362e-05
0.000110259
-1.02726e-05
0.000128873
-5.2534e-06
0.000150518
6.67626e-07
0.00017562
7.65683e-06
0.000204689
1.58926e-05
0.000238675
2.55909e-05
0.000278156
3.70096e-05
0.000323835
5.04186e-05
0.000376695
6.61285e-05
0.000437557
8.44726e-05
0.000506955
0.000105813
0.000585005
0.000130479
0.000671576
0.000158751
0.000764696
0.00019076
0.000860382
0.000226354
0.000951085
0.000264868
0.00102342
0.00030481
0.00105546
0.000343301
0.0010124
0.000375592
0.000844495
0.000484364
0.000394112
-3.22785e-05
2.57656e-05
3.31295e-05
-3.13213e-05
3.02081e-05
-3.01722e-05
3.54177e-05
-2.88495e-05
4.15288e-05
-2.7278e-05
4.865e-05
-2.54534e-05
5.70125e-05
-2.33008e-05
6.68543e-05
-2.07795e-05
7.80825e-05
-1.78123e-05
9.15158e-05
-1.43227e-05
0.000106766
-1.02089e-05
0.000124761
-5.36814e-06
0.000145674
3.41906e-07
0.000169908
7.08144e-06
0.000197948
1.50211e-05
0.000230731
2.43732e-05
0.000268803
3.53779e-05
0.000312827
4.83072e-05
0.000363771
6.34502e-05
0.000422416
8.11332e-05
0.000489271
0.000101704
0.000564433
0.00012548
0.000647792
0.000152733
0.000737429
0.000183591
0.000829492
0.000217911
0.000916715
0.000255055
0.000986193
0.000293587
0.0010168
0.000330741
0.000975012
0.000361948
0.000812856
0.000465288
0.00037994
-3.14613e-05
2.49661e-05
3.22887e-05
-3.05358e-05
2.92714e-05
-2.94248e-05
3.43203e-05
-2.81477e-05
4.02434e-05
-2.66287e-05
4.71427e-05
-2.48677e-05
5.52455e-05
-2.27881e-05
6.47841e-05
-2.03552e-05
7.56449e-05
-1.74908e-05
8.86574e-05
-1.41242e-05
0.000103395
-1.01551e-05
0.000120794
-5.48544e-06
0.000141002
2.14677e-08
0.0001644
6.52059e-06
0.000191447
1.41772e-05
0.000223072
2.31921e-05
0.000259784
3.38047e-05
0.000302218
4.62682e-05
0.000351309
6.08664e-05
0.000407819
7.79134e-05
0.000472225
9.77426e-05
0.000544606
0.000120664
0.000624879
0.000146936
0.000711171
0.000176688
0.000799769
0.000209782
0.000883671
0.000245609
0.000950453
0.000282784
0.000979765
0.00031865
0.000939372
0.000348798
0.000783111
0.000448746
0.000366244
-3.06795e-05
2.4193e-05
3.14761e-05
-2.9789e-05
2.83655e-05
-2.87143e-05
3.32592e-05
-2.74817e-05
3.90005e-05
-2.60133e-05
4.56856e-05
-2.43127e-05
5.35376e-05
-2.23035e-05
6.27837e-05
-1.99543e-05
7.32901e-05
-1.71883e-05
8.58972e-05
-1.39387e-05
0.000100141
-1.0108e-05
0.000116966
-5.60311e-06
0.000136494
-2.91136e-07
0.000159086
5.97727e-06
0.000185178
1.336e-05
0.000215686
2.20537e-05
0.000251089
3.22843e-05
0.000291986
4.43023e-05
0.000339297
5.83768e-05
0.000393748
7.48114e-05
0.000455792
9.39283e-05
0.000525487
0.000116027
0.000602776
0.000141357
0.000685825
0.000170044
0.000771054
0.000201959
0.000851704
0.000236519
0.000915818
0.00027239
0.000943762
0.000307014
0.000904522
0.000336129
0.000753546
0.000430777
0.000352987
-2.99173e-05
2.34484e-05
3.06944e-05
-2.90564e-05
2.74928e-05
-2.80185e-05
3.22364e-05
-2.68295e-05
3.78023e-05
-2.54113e-05
4.42805e-05
-2.3771e-05
5.18904e-05
-2.18309e-05
6.0854e-05
-1.95645e-05
7.10184e-05
-1.68944e-05
8.32341e-05
-1.37591e-05
9.70014e-05
-1.0063e-05
0.000113272
-5.71674e-06
0.000132145
-5.92802e-07
0.00015396
5.45271e-06
0.000179131
1.25727e-05
0.000208563
2.09545e-05
0.000242703
3.08219e-05
0.000282123
4.24081e-05
0.000327713
5.59794e-05
0.00038018
7.18238e-05
0.000439948
9.02559e-05
0.000507058
0.000111562
0.000581477
0.000135986
0.000661417
0.000163649
0.00074342
0.000194431
0.000820973
0.000227771
0.000882567
0.000262385
0.000909293
0.000295808
0.000871337
0.000323919
0.000725844
0.000415457
0.0003402
-2.91852e-05
2.27287e-05
2.99307e-05
-2.83575e-05
2.66492e-05
-2.73535e-05
3.12479e-05
-2.6206e-05
3.66443e-05
-2.4835e-05
4.29227e-05
-2.3251e-05
5.02989e-05
-2.13766e-05
5.899e-05
-1.91884e-05
6.88246e-05
-1.66102e-05
8.06629e-05
-1.35842e-05
9.39711e-05
-1.00171e-05
0.000109708
-5.82405e-06
0.000127949
-8.81225e-07
0.000149016
4.94996e-06
0.000173299
1.18158e-05
0.000201694
1.99002e-05
0.000234617
2.94126e-05
0.00027261
4.05872e-05
0.000316546
5.36725e-05
0.000367099
6.89505e-05
0.000424671
8.67232e-05
0.000489286
0.000107267
0.000560927
0.00013082
0.000637853
0.000157498
0.000716713
0.000187188
0.000791239
0.000219354
0.000850327
0.000252756
0.000875768
0.00028502
0.000838839
0.000312157
0.000698258
0.000398632
0.000327851
-2.84574e-05
2.20361e-05
2.91844e-05
-2.76586e-05
2.58371e-05
-2.669e-05
3.02958e-05
-2.55846e-05
3.55285e-05
-2.42616e-05
4.1614e-05
-2.27349e-05
4.87645e-05
-2.09257e-05
5.71923e-05
-1.88153e-05
6.67085e-05
-1.63271e-05
7.81824e-05
-1.3408e-05
9.10475e-05
-9.96629e-06
0.000106269
-5.92118e-06
0.000123902
-1.15353e-06
0.000144247
4.47047e-06
0.000167674
1.10925e-05
0.000195069
1.8887e-05
0.000226819
2.80622e-05
0.000263438
3.8837e-05
0.000305775
5.14549e-05
0.000354484
6.61874e-05
0.00040994
8.33245e-05
0.000472152
0.000103136
0.000541125
0.000125848
0.000615156
0.000151579
0.000691012
0.000180218
0.000762651
0.000211252
0.000819382
0.000243486
0.000843683
0.000274629
0.000807937
0.000300821
0.000672497
0.000384477
0.000315963
-2.77535e-05
2.13669e-05
2.84494e-05
-2.69858e-05
2.50523e-05
-2.60492e-05
2.9376e-05
-2.49825e-05
3.44507e-05
-2.37039e-05
4.03501e-05
-2.22302e-05
4.72829e-05
-2.04831e-05
5.54568e-05
-1.84467e-05
6.46661e-05
-1.60453e-05
7.57886e-05
-1.32289e-05
8.82267e-05
-9.90831e-06
0.000102952
-6.00645e-06
0.000119997
-1.40783e-06
0.000139647
4.01653e-06
0.000162249
1.04021e-05
0.00018868
1.79195e-05
0.000219299
2.67661e-05
0.000254592
3.71577e-05
0.000295391
4.93259e-05
0.000342321
6.35327e-05
0.000395736
8.00586e-05
0.000455625
9.91639e-05
0.000522016
0.000121068
0.000593237
0.000145885
0.000666171
0.000173512
0.00073498
0.000203456
0.000789373
0.000234561
0.000812453
0.000264622
0.000777646
0.000289901
0.000646751
0.000368743
0.000304492
-2.70424e-05
2.07238e-05
2.77236e-05
-2.63019e-05
2.42979e-05
-2.53995e-05
2.84911e-05
-2.43735e-05
3.34134e-05
-2.31415e-05
3.91331e-05
-2.17229e-05
4.58557e-05
-2.00383e-05
5.37844e-05
-1.80757e-05
6.26972e-05
-1.57594e-05
7.34806e-05
-1.30437e-05
8.55064e-05
-9.84101e-06
9.97523e-05
-6.07773e-06
0.000116232
-1.64269e-06
0.00013521
3.58836e-06
0.000157017
9.74651e-06
0.000182518
1.69947e-05
0.000212047
2.55276e-05
0.000246064
3.55479e-05
0.000285375
4.7283e-05
0.000330592
6.09824e-05
0.000382038
7.69196e-05
0.000439692
9.53439e-05
0.000503599
0.00011647
0.000572128
0.000140406
0.000642263
0.000167057
0.00070838
0.000195949
0.000760571
0.000225967
0.000782583
0.00025498
0.000748884
0.000279376
0.000622791
0.000355688
0.000293459
-2.63603e-05
2.01021e-05
2.70094e-05
-2.5649e-05
2.35689e-05
-2.47763e-05
2.76365e-05
-2.37863e-05
3.24118e-05
-2.25953e-05
3.79584e-05
-2.12263e-05
4.44784e-05
-1.95998e-05
5.21707e-05
-1.77069e-05
6.07978e-05
-1.5472e-05
7.12542e-05
-1.2853e-05
8.28827e-05
-9.76389e-06
9.66665e-05
-6.13473e-06
0.0001126
-1.85772e-06
0.000130931
3.18701e-06
0.000151972
9.12491e-06
0.000176576
1.61155e-05
0.000205054
2.43425e-05
0.000237837
3.40073e-05
0.000275719
4.53239e-05
0.000319281
5.85354e-05
0.000368828
7.39048e-05
0.000424323
9.16731e-05
0.000485826
0.000112048
0.000551742
0.000135136
0.00061915
0.000160846
0.000682632
0.000188722
0.000732629
0.000217691
0.000753498
0.000245692
0.000720642
0.000269237
0.000598778
0.00034095
0.000282812
-2.56664e-05
1.95049e-05
2.63011e-05
-2.49817e-05
2.28681e-05
-2.41416e-05
2.68144e-05
-2.31905e-05
3.14478e-05
-2.20438e-05
3.68272e-05
-2.07267e-05
4.31514e-05
-1.91588e-05
5.06156e-05
-1.7335e-05
5.8967e-05
-1.51799e-05
6.91077e-05
-1.2655e-05
8.03529e-05
-9.67622e-06
9.36911e-05
-6.17669e-06
0.000109098
-2.05254e-06
0.000126805
2.81201e-06
0.000147107
8.53813e-06
0.000170847
1.52783e-05
0.000198311
2.32132e-05
0.000229906
3.25333e-05
0.000266406
4.34463e-05
0.000308373
5.61871e-05
0.00035609
7.10082e-05
0.000409505
8.81443e-05
0.000468698
0.000107795
0.000532106
0.000130064
0.000596908
0.000154866
0.00065788
0.000181764
0.00070582
0.000209718
0.000725695
0.000236741
0.000693871
0.000259463
0.00057651
0.000328887
0.000272575
-2.50035e-05
1.89274e-05
2.56068e-05
-2.43454e-05
2.21907e-05
-2.35326e-05
2.60202e-05
-2.26145e-05
3.0517e-05
-2.15056e-05
3.57355e-05
-2.02349e-05
4.18714e-05
-1.87213e-05
4.91158e-05
-1.6963e-05
5.72015e-05
-1.48845e-05
6.7038e-05
-1.24504e-05
7.79137e-05
-9.57815e-06
9.08222e-05
-6.20407e-06
0.000105721
-2.22742e-06
0.000122827
2.46308e-06
0.000142415
7.98466e-06
0.000165322
1.44842e-05
0.000191808
2.21358e-05
0.000222256
3.11239e-05
0.000257428
4.16482e-05
0.000297856
5.39349e-05
0.000343807
6.82279e-05
0.000395212
8.47538e-05
0.000452169
0.000103705
0.000513142
0.000125185
0.000575406
0.000149111
0.000633915
0.000175064
0.00067981
0.00020204
0.000698598
0.000228119
0.000667553
0.000250047
0.000554095
0.000315069
0.000262695
-2.43227e-05
1.83732e-05
2.49164e-05
-2.36896e-05
2.15404e-05
-2.2908e-05
2.52571e-05
-2.20272e-05
2.9622e-05
-2.09609e-05
3.4685e-05
-1.97395e-05
4.0639e-05
-1.82818e-05
4.76711e-05
-1.65886e-05
5.55004e-05
-1.45852e-05
6.50433e-05
-1.22393e-05
7.55625e-05
-9.47044e-06
8.80564e-05
-6.21721e-06
0.000102465
-2.38369e-06
0.000118991
2.13946e-06
0.000137891
7.4631e-06
0.000159994
1.37301e-05
0.000185536
2.11113e-05
0.000214882
2.97772e-05
0.000248767
3.99264e-05
0.000287714
5.17742e-05
0.000331961
6.55578e-05
0.000381432
8.14943e-05
0.000436239
9.97716e-05
0.000494879
0.000120489
0.000554715
0.00014357
0.000610882
0.000168612
0.000654857
0.000194643
0.000672717
0.000219809
0.000642648
0.000240971
0.000533391
0.000303923
0.000253197
-2.36835e-05
1.78367e-05
2.42454e-05
-2.3075e-05
2.09112e-05
-2.23183e-05
2.45195e-05
-2.14677e-05
2.87575e-05
-2.04359e-05
3.36711e-05
-1.92572e-05
3.945e-05
-1.78497e-05
4.62778e-05
-1.62173e-05
5.38601e-05
-1.42851e-05
6.312e-05
-1.20238e-05
7.32955e-05
-9.35411e-06
8.53896e-05
-6.2183e-06
9.93258e-05
-2.52179e-06
0.000115292
1.83882e-06
0.000133529
6.97102e-06
0.000154855
1.30193e-05
0.00017949
2.01337e-05
0.000207767
2.84921e-05
0.000240418
3.82777e-05
0.000277933
4.97031e-05
0.000320538
6.29949e-05
0.000368141
7.83631e-05
0.000420866
9.59898e-05
0.000477241
0.000115972
0.000534709
0.000138237
0.000588583
0.0001624
0.000630638
0.000187519
0.000647481
0.000211804
0.000618113
0.000232227
0.000512479
0.000290941
0.000244028
-2.3026e-05
1.73218e-05
2.3578e-05
-2.2442e-05
2.03069e-05
-2.1715e-05
2.38103e-05
-2.08998e-05
2.79256e-05
-1.9908e-05
3.26947e-05
-1.87751e-05
3.83045e-05
-1.74193e-05
4.49348e-05
-1.58471e-05
5.22788e-05
-1.39842e-05
6.12656e-05
-1.18047e-05
7.11098e-05
-9.23101e-06
8.28183e-05
-6.20745e-06
9.62987e-05
-2.64409e-06
0.000111724
1.55899e-06
0.000129321
6.51295e-06
0.000149901
1.23424e-05
0.000173657
1.92072e-05
0.00020091
2.72644e-05
0.000232364
3.66995e-05
0.0002685
4.7717e-05
0.000309522
6.05336e-05
0.000355326
7.53535e-05
0.000406053
9.23515e-05
0.000460256
0.000111624
0.000515462
0.000133103
0.000567151
0.000156416
0.000607412
0.000180656
0.000623395
0.00020409
0.000594941
0.000223801
0.000493243
0.000280623
0.000235216
-2.24134e-05
1.68227e-05
2.29331e-05
-2.1852e-05
1.97215e-05
-2.11482e-05
2.31241e-05
-2.03604e-05
2.71215e-05
-1.94002e-05
3.17516e-05
-1.83066e-05
3.71986e-05
-1.69966e-05
4.36389e-05
-1.54808e-05
5.07533e-05
-1.36835e-05
5.94769e-05
-1.15828e-05
6.90016e-05
-9.10138e-06
8.03384e-05
-6.18648e-06
9.33795e-05
-2.75136e-06
0.000108285
1.30356e-06
0.000125266
6.07954e-06
0.000145124
1.1706e-05
0.000168036
1.83235e-05
0.000194296
2.6092e-05
0.000224599
3.51894e-05
0.000259405
4.5813e-05
0.000298901
5.81718e-05
0.000342967
7.24622e-05
0.000391759
8.88538e-05
0.000443851
0.000107441
0.000496853
0.000128161
0.000546395
0.000150657
0.000584865
0.000174048
0.000599881
0.000196661
0.000572075
0.000215683
0.000473714
0.000268419
0.000226709
-2.17837e-05
1.63436e-05
2.22927e-05
-2.12464e-05
1.91591e-05
-2.05708e-05
2.24639e-05
-1.98161e-05
2.63469e-05
-1.88922e-05
3.08425e-05
-1.78405e-05
3.6132e-05
-1.65774e-05
4.23887e-05
-1.51168e-05
4.92815e-05
-1.33831e-05
5.77513e-05
-1.13578e-05
6.6968e-05
-8.96538e-06
7.79466e-05
-6.15444e-06
9.05642e-05
-2.84288e-06
0.000104968
1.06707e-06
0.000121354
5.67552e-06
0.000140518
1.1101e-05
0.000162614
1.74831e-05
0.000187919
2.49727e-05
0.00021711
3.37444e-05
0.000250634
4.39873e-05
0.000288658
5.5904e-05
0.000331053
6.96827e-05
0.000377985
8.54893e-05
0.000428056
0.000103416
0.00047895
0.000123404
0.000526453
0.00014511
0.000563246
0.000167683
0.000577459
0.000189504
0.000550525
0.000207862
0.000455836
0.000258866
0.000218535
-2.12031e-05
1.58788e-05
2.16811e-05
-2.06851e-05
1.86138e-05
-2.00268e-05
2.18247e-05
-1.9295e-05
2.55981e-05
-1.83975e-05
2.99646e-05
-1.73812e-05
3.51028e-05
-1.61601e-05
4.11829e-05
-1.47521e-05
4.78624e-05
-1.30799e-05
5.60875e-05
-1.11282e-05
6.50074e-05
-8.82184e-06
7.56404e-05
-6.11232e-06
8.78494e-05
-2.91955e-06
0.000101769
8.5079e-07
0.000117583
5.29485e-06
0.000136076
1.05287e-05
0.000157386
1.6682e-05
0.000181768
2.39037e-05
0.000209889
3.23611e-05
0.000242177
4.22376e-05
0.000278782
5.37274e-05
0.000319564
6.70128e-05
0.000364695
8.22546e-05
0.000412803
9.95437e-05
0.000461636
0.000118827
0.000507138
0.000139772
0.000542246
0.000161557
0.000555552
0.000182612
0.0005292
0.00020033
0.00043761
0.000247372
0.000210643
-2.05957e-05
1.54349e-05
2.1081e-05
-2.00924e-05
1.80929e-05
-1.94567e-05
2.12133e-05
-1.87537e-05
2.48806e-05
-1.78919e-05
2.91221e-05
-1.69162e-05
3.41139e-05
-1.57419e-05
4.00229e-05
-1.43873e-05
4.64962e-05
-1.27765e-05
5.44846e-05
-1.08962e-05
6.31178e-05
-8.67347e-06
7.34172e-05
-6.06121e-06
8.52321e-05
-2.98342e-06
9.86852e-05
6.51619e-07
0.000113946
4.93842e-06
0.000131793
9.98505e-06
0.000152344
1.59193e-05
0.000175838
2.28827e-05
0.000202926
3.1037e-05
0.000234022
4.05598e-05
0.00026926
5.16371e-05
0.000308487
6.44463e-05
0.00035189
7.91427e-05
0.000398117
9.58177e-05
0.000444984
0.000114421
0.000488581
0.000134633
0.000522119
0.000155656
0.000534684
0.000175975
0.000509153
0.000193074
0.000421002
0.000238516
0.000203065
-2.0042e-05
1.50027e-05
2.04911e-05
-1.95607e-05
1.75858e-05
-1.89448e-05
2.06188e-05
-1.82643e-05
2.41839e-05
-1.74266e-05
2.83054e-05
-1.64819e-05
3.31564e-05
-1.53445e-05
3.89012e-05
-1.40361e-05
4.51764e-05
-1.24805e-05
5.29374e-05
-1.06667e-05
6.12947e-05
-8.52294e-06
7.12728e-05
-6.00415e-06
8.27078e-05
-3.03639e-06
9.5711e-05
4.69064e-07
0.000110438
4.60241e-06
0.000127662
9.47025e-06
0.000147482
1.51926e-05
0.000170119
2.19067e-05
0.000196212
2.97695e-05
0.00022616
3.8951e-05
0.00026008
4.9631e-05
0.000297807
6.19806e-05
0.000339537
7.61513e-05
0.000383933
9.2234e-05
0.000428881
0.000110182
0.000470599
0.000129689
0.000502561
0.000149979
0.000514261
0.000169586
0.000489272
0.000186088
0.000403976
0.000227689
0.000195747
-1.94736e-05
1.45882e-05
1.99175e-05
-1.90079e-05
1.70993e-05
-1.84125e-05
2.00478e-05
-1.77573e-05
2.35144e-05
-1.69502e-05
2.75197e-05
-1.6041e-05
3.22348e-05
-1.49449e-05
3.78209e-05
-1.36844e-05
4.39047e-05
-1.21847e-05
5.1446e-05
-1.04363e-05
5.95371e-05
-8.36959e-06
6.92052e-05
-5.94078e-06
8.02737e-05
-3.07946e-06
9.28427e-05
3.00373e-07
0.000107056
4.28735e-06
0.000123679
8.98141e-06
0.000142793
1.45e-05
0.000164605
2.09746e-05
0.000189739
2.8556e-05
0.000218578
3.74079e-05
0.000251228
4.77044e-05
0.000287512
5.96101e-05
0.000327634
7.32741e-05
0.000370279
8.87859e-05
0.000413391
0.000106104
0.000453325
0.000124929
0.000483822
0.000144513
0.00049483
0.000163434
0.00047063
0.00017936
0.000388547
0.000219468
0.000188722
-1.89394e-05
1.41876e-05
1.93705e-05
-1.84869e-05
1.66295e-05
-1.79083e-05
1.9497e-05
-1.72727e-05
2.28687e-05
-1.6491e-05
2.67625e-05
-1.56128e-05
3.13467e-05
-1.45548e-05
3.67798e-05
-1.33396e-05
4.2679e-05
-1.18936e-05
5.00083e-05
-1.02081e-05
5.78425e-05
-8.21537e-06
6.72113e-05
-5.87346e-06
7.7926e-05
-3.11411e-06
9.00764e-05
1.45543e-07
0.000103794
3.98994e-06
0.000119837
8.51811e-06
0.000138271
1.38402e-05
0.000159286
2.00835e-05
0.000183495
2.73937e-05
0.000211268
3.59284e-05
0.000242694
4.58548e-05
0.000277586
5.73329e-05
0.000316152
7.05083e-05
0.000357093
8.54702e-05
0.000398407
0.000102181
0.000436585
0.000120353
0.000465594
0.000139256
0.000475788
0.000157515
0.000452079
0.000172882
0.000372656
0.000209254
0.000181937
-1.84015e-05
1.38013e-05
1.88176e-05
-1.79686e-05
1.6176e-05
-1.74118e-05
1.89649e-05
-1.68015e-05
2.22448e-05
-1.6048e-05
2.60307e-05
-1.52016e-05
3.04884e-05
-1.418e-05
3.57739e-05
-1.30073e-05
4.14953e-05
-1.16114e-05
4.86203e-05
-9.98502e-06
5.62071e-05
-8.06256e-06
6.52875e-05
-5.80305e-06
7.56612e-05
-3.14158e-06
8.74076e-05
1.90075e-09
0.000100647
3.71099e-06
0.000116131
8.07804e-06
0.000133909
1.32111e-05
0.000154157
1.92323e-05
0.000177475
2.62807e-05
0.000204219
3.45093e-05
0.000234466
4.40783e-05
0.000268018
5.5144e-05
0.00030509
6.78482e-05
0.000344397
8.22812e-05
0.000383995
9.84081e-05
0.000420504
0.000115949
0.000448139
0.000134197
0.000457701
0.000151817
0.00043474
0.000166646
0.000358332
0.000201622
0.000175428
-1.78977e-05
1.34279e-05
1.83e-05
-1.74784e-05
1.57381e-05
-1.69374e-05
1.84514e-05
-1.63466e-05
2.1643e-05
-1.56166e-05
2.53249e-05
-1.47993e-05
2.96608e-05
-1.38126e-05
3.48037e-05
-1.26813e-05
4.03534e-05
-1.13342e-05
4.72811e-05
-9.76507e-06
5.4629e-05
-7.91022e-06
6.34311e-05
-5.73031e-06
7.34758e-05
-3.1627e-06
8.48327e-05
-1.2988e-07
9.76113e-05
3.44734e-06
0.000112556
7.6608e-06
0.000129702
1.26121e-05
0.000149209
1.8418e-05
0.000171668
2.5215e-05
0.000197423
3.31482e-05
0.000226534
4.23732e-05
0.000258794
5.30412e-05
0.00029442
6.52916e-05
0.000332136
7.92157e-05
0.000370054
9.47811e-05
0.000404908
0.000111717
0.000431146