/*--------------------------------*- C++ -*----------------------------------*\
  =========                 |
  \\      /  F ield         | OpenFOAM: The Open Source CFD Toolbox
   \\    /   O peration     | Website:  https://openfoam.org
    \\  /    A nd           | Version:  6.0
     \\/     M anipulation  |
\*---------------------------------------------------------------------------*/
FoamFile
{
    version     2.0;
    format      ascii;
    class       volVectorField;
    location    "17";
    object      U;
}
// * * * * * * * * * * * * * * * * * * * * * * * * * * * * * * * * * * * * * //

dimensions      [0 1 -1 0 0 0 0];

internalField   nonuniform List<vector> 
15500
(
(0.996151 0.087448 -1.18671e-20)
(0.996151 0.0874434 1.37176e-21)
(0.996152 0.0874411 2.81384e-20)
(0.996153 0.0874366 7.33704e-20)
(0.996155 0.0874319 -1.37762e-19)
(0.996156 0.0874257 -2.60432e-20)
(0.996158 0.087419 1.96073e-19)
(0.99616 0.0874112 1.49685e-20)
(0.996161 0.0874026 6.48072e-21)
(0.996163 0.0873926 -1.56176e-19)
(0.996164 0.0873813 4.21038e-19)
(0.996165 0.0873673 -3.0988e-19)
(0.996164 0.0873515 -2.33376e-20)
(0.996162 0.0873337 -2.98292e-19)
(0.996158 0.0873124 1.87583e-19)
(0.996151 0.0872886 -2.90845e-19)
(0.996139 0.087262 6.93203e-19)
(0.996117 0.0872335 -9.20944e-19)
(0.996084 0.0872017 3.84667e-19)
(0.996032 0.0871623 -1.30747e-18)
(0.995955 0.087109 1.52326e-18)
(0.995842 0.0870301 4.10916e-19)
(0.99568 0.0869027 -2.58764e-19)
(0.995457 0.0866859 -3.46614e-18)
(0.995168 0.0863103 6.35694e-18)
(0.994824 0.0856839 3.0824e-18)
(0.99448 0.0846616 -2.92774e-18)
(0.994239 0.0831239 -3.39617e-18)
(0.994316 0.080402 -5.34577e-18)
(0.986542 0.0722708 7.00777e-18)
(0.996089 0.0881551 -1.41632e-20)
(0.996082 0.088154 4.68128e-20)
(0.996077 0.0881567 -1.37939e-20)
(0.996073 0.0881544 4.99315e-20)
(0.99607 0.0881516 -1.66051e-19)
(0.996067 0.0881443 -1.26299e-19)
(0.996065 0.0881357 3.44455e-20)
(0.996063 0.0881229 -1.8266e-19)
(0.996061 0.0881086 3.31204e-19)
(0.996059 0.0880899 -1.14993e-19)
(0.996055 0.0880693 1.04579e-19)
(0.99605 0.0880432 2.01516e-19)
(0.996044 0.0880152 -9.16026e-20)
(0.996034 0.087985 5.29408e-20)
(0.996019 0.0879504 -6.9234e-20)
(0.995997 0.0879098 -2.0429e-19)
(0.995964 0.0878636 5.05713e-19)
(0.995913 0.087811 -7.26208e-20)
(0.995838 0.0877479 9.50929e-19)
(0.995728 0.0876637 1.78659e-18)
(0.995572 0.0875407 -1.47056e-18)
(0.995348 0.0873491 8.54872e-19)
(0.995037 0.0870389 -1.40904e-18)
(0.994622 0.0865287 -4.35215e-19)
(0.994103 0.085693 -4.44676e-18)
(0.99352 0.0843952 -2.34691e-19)
(0.992996 0.0824098 2.88824e-19)
(0.99262 0.0796959 1.31936e-18)
(0.993097 0.075266 1.2924e-17)
(0.985118 0.0649173 1.89055e-19)
(0.996045 0.0888546 3.87969e-20)
(0.996032 0.0888527 -3.72177e-20)
(0.996019 0.0888551 -2.28062e-20)
(0.996007 0.0888544 -6.96363e-20)
(0.995996 0.0888533 1.38995e-19)
(0.995985 0.0888477 -1.9815e-19)
(0.995975 0.088841 1.22231e-19)
(0.995965 0.0888291 9.34609e-20)
(0.995955 0.0888155 -5.41535e-20)
(0.995944 0.0887955 -1.81588e-19)
(0.995932 0.0887731 6.90686e-20)
(0.995918 0.088743 2.54995e-19)
(0.995903 0.0887109 -1.28119e-19)
(0.995884 0.0886766 1.41417e-19)
(0.995859 0.0886358 -3.05003e-19)
(0.995825 0.0885858 4.50656e-19)
(0.995781 0.0885257 -7.39693e-19)
(0.995718 0.088454 5.93053e-19)
(0.995634 0.0883655 -1.15687e-18)
(0.995519 0.0882454 8.41814e-19)
(0.995366 0.088073 8.37967e-19)
(0.995158 0.087815 -1.01396e-18)
(0.994885 0.0874189 2.40967e-18)
(0.994533 0.0868059 -2.78537e-19)
(0.994115 0.0858551 -2.96567e-18)
(0.99367 0.0844675 -4.00941e-18)
(0.993348 0.0824527 -6.63179e-18)
(0.993058 0.0799322 2.44091e-18)
(0.993975 0.0763333 -8.57606e-18)
(0.988816 0.0701782 -9.02569e-18)
(0.995991 0.0895142 -1.40714e-20)
(0.995974 0.0895119 6.0085e-20)
(0.995956 0.0895144 -2.69508e-20)
(0.995937 0.0895151 -2.08228e-20)
(0.995919 0.0895166 -5.12335e-20)
(0.9959 0.0895136 -1.67257e-19)
(0.995881 0.0895099 1.27406e-19)
(0.995862 0.0895001 1.12289e-19)
(0.995843 0.0894882 -5.6466e-20)
(0.995822 0.089468 8.58088e-20)
(0.995799 0.089444 -4.12556e-20)
(0.995775 0.0894103 2.99674e-20)
(0.995749 0.0893731 -2.74821e-20)
(0.99572 0.089331 1.61425e-21)
(0.995684 0.0892791 -4.07465e-19)
(0.995637 0.0892122 8.46657e-19)
(0.995578 0.0891289 -7.64796e-19)
(0.995505 0.0890263 2.68776e-19)
(0.995411 0.0888973 1.18067e-18)
(0.995294 0.0887273 -1.12332e-18)
(0.995146 0.0884931 -4.67815e-19)
(0.994958 0.0881605 1.42077e-18)
(0.994725 0.0876772 -1.01329e-18)
(0.994439 0.0869702 -8.51344e-19)
(0.994115 0.085918 8.77607e-18)
(0.993782 0.0844435 3.67747e-18)
(0.993615 0.08237 3.98102e-18)
(0.99335 0.0798624 -2.64643e-18)
(0.994484 0.0766624 3.22452e-18)
(0.990925 0.0715143 3.47867e-18)
(0.99591 0.0901943 -1.01248e-20)
(0.995896 0.0901848 -3.86239e-20)
(0.995876 0.0901799 3.55725e-20)
(0.995854 0.0901737 1.65722e-19)
(0.99583 0.090169 -1.79789e-19)
(0.995804 0.0901613 -2.25441e-20)
(0.995777 0.0901542 1.05205e-19)
(0.995749 0.0901425 -2.54594e-19)
(0.995719 0.0901293 -1.8721e-19)
(0.995688 0.0901073 5.27157e-19)
(0.995653 0.0900809 -2.97474e-19)
(0.995616 0.0900421 3.91934e-19)
(0.995578 0.0899972 -2.22615e-19)
(0.995536 0.0899433 2.67015e-19)
(0.995486 0.0898749 -5.17022e-20)
(0.995424 0.089786 -4.96078e-20)
(0.99535 0.0896724 1.61297e-19)
(0.99526 0.089531 -4.06531e-19)
(0.99515 0.0893544 -1.12597e-18)
(0.99502 0.089126 4.32293e-19)
(0.994862 0.0888213 -7.29923e-19)
(0.994674 0.0884047 -5.97066e-19)
(0.994452 0.0878227 -1.31234e-19)
(0.994195 0.0870069 6.81621e-18)
(0.993914 0.0858277 -2.68589e-18)
(0.993631 0.0842126 -6.68023e-18)
(0.993546 0.08198 -3.89411e-18)
(0.993272 0.0792691 1.33258e-18)
(0.994415 0.0759171 -1.51943e-17)
(0.992287 0.07064 -2.57657e-18)
(0.995787 0.0908871 2.12108e-20)
(0.995777 0.0908775 2.56019e-21)
(0.99576 0.0908707 -5.51363e-20)
(0.995739 0.0908592 -2.05275e-20)
(0.995713 0.0908476 -6.72291e-21)
(0.995683 0.0908317 3.45496e-19)
(0.99565 0.0908157 -1.75795e-19)
(0.995614 0.090795 -9.88262e-21)
(0.995575 0.0907729 -6.62415e-21)
(0.995532 0.0907423 -2.92864e-20)
(0.995486 0.090707 -1.65296e-19)
(0.995435 0.0906584 1.33426e-19)
(0.995382 0.0906018 6.26655e-19)
(0.995326 0.0905316 5.10335e-20)
(0.99526 0.0904433 -1.18413e-19)
(0.995183 0.0903282 -4.40544e-19)
(0.995092 0.0901831 5.03446e-19)
(0.994985 0.0900019 -2.88329e-19)
(0.99486 0.0897749 6.34815e-19)
(0.994713 0.0894868 -9.3589e-20)
(0.994547 0.0891109 1.2712e-18)
(0.994361 0.0886112 -2.53863e-19)
(0.994161 0.0879384 -1.34222e-18)
(0.993948 0.0870333 -7.04877e-18)
(0.99374 0.0857721 -2.96749e-18)
(0.993542 0.0840927 6.30753e-18)
(0.993577 0.0818285 9.48032e-19)
(0.993348 0.0790924 6.07174e-18)
(0.994403 0.0757379 1.86942e-17)
(0.993755 0.0710048 6.48107e-18)
(0.995606 0.0916193 -1.53367e-21)
(0.995601 0.0916053 -3.22455e-20)
(0.995589 0.0915934 -1.07705e-20)
(0.995571 0.0915749 3.00055e-20)
(0.995547 0.0915531 -5.87558e-20)
(0.995518 0.0915259 -5.78798e-20)
(0.995482 0.0914972 1.02371e-19)
(0.995442 0.0914635 2.19697e-19)
(0.995396 0.0914286 -2.07549e-19)
(0.995345 0.0913851 2.50125e-19)
(0.995288 0.0913369 -5.079e-19)
(0.995225 0.0912741 1.30622e-19)
(0.995158 0.0912015 -2.36817e-19)
(0.995085 0.0911119 4.23674e-19)
(0.995003 0.0909997 -1.31929e-19)
(0.994909 0.0908569 -8.47509e-20)
(0.994799 0.0906777 2.87996e-19)
(0.994674 0.0904542 -5.81554e-19)
(0.99453 0.0901765 5.08977e-19)
(0.994366 0.0898255 1.59532e-19)
(0.99419 0.0893744 -1.15244e-18)
(0.994008 0.0887873 -4.86955e-19)
(0.993834 0.0880205 1.24869e-18)
(0.993677 0.0870304 1.9281e-18)
(0.993566 0.085712 2.04323e-18)
(0.993494 0.0840256 -5.80459e-19)
(0.993694 0.0818409 3.69652e-18)
(0.993575 0.0792539 -5.10291e-18)
(0.994519 0.0761322 -1.20117e-17)
(0.994854 0.0718649 -1.48289e-18)
(0.99537 0.0923187 -8.12104e-21)
(0.995366 0.0923103 2.87938e-20)
(0.995356 0.0923045 3.64595e-20)
(0.995341 0.0922889 -3.43495e-20)
(0.99532 0.0922666 -9.15418e-20)
(0.995293 0.0922344 2.73349e-22)
(0.995259 0.0921971 2.5509e-19)
(0.995218 0.0921515 -3.69607e-19)
(0.99517 0.0921021 2.3015e-19)
(0.995114 0.0920424 3.44187e-19)
(0.995051 0.0919769 -5.10732e-19)
(0.994978 0.0918962 -7.7914e-20)
(0.994898 0.0918045 -8.5136e-20)
(0.99481 0.0916926 1.08736e-19)
(0.99471 0.0915549 -4.79632e-19)
(0.994595 0.0913819 5.00275e-19)
(0.994463 0.0911678 1.09064e-19)
(0.994313 0.0909007 -4.32448e-19)
(0.994142 0.0905674 7.24445e-20)
(0.993951 0.0901483 1.72027e-19)
(0.993748 0.0896119 8.05895e-19)
(0.993548 0.0889213 -8.94519e-19)
(0.993372 0.0880352 1.24123e-18)
(0.99324 0.0869241 3.4001e-18)
(0.993193 0.0855018 -8.27605e-19)
(0.993224 0.0837548 -6.69941e-18)
(0.993576 0.0815945 -3.48267e-18)
(0.993604 0.079103 1.99696e-18)
(0.994484 0.0761799 1.18657e-18)
(0.995133 0.0717441 3.54196e-18)
(0.995099 0.0930105 1.62561e-20)
(0.995089 0.0930002 -1.00896e-20)
(0.995077 0.0929938 4.34523e-20)
(0.995061 0.0929789 7.38879e-21)
(0.995042 0.0929557 8.01392e-20)
(0.995016 0.0929216 -2.07437e-19)
(0.994984 0.0928801 1.60902e-19)
(0.994944 0.0928279 5.26681e-20)
(0.994896 0.0927694 -2.10007e-19)
(0.994838 0.092698 2.47914e-20)
(0.994771 0.0926186 4.36483e-19)
(0.994691 0.0925217 -3.95289e-19)
(0.9946 0.0924113 2.85097e-19)
(0.994496 0.0922783 -1.70063e-19)
(0.994376 0.0921157 -5.03749e-20)
(0.994237 0.0919142 2.76321e-19)
(0.994078 0.0916642 4.54226e-19)
(0.993896 0.0913525 5.56388e-19)
(0.993687 0.0909642 -3.59234e-19)
(0.993454 0.0904736 -8.4814e-19)
(0.993203 0.0898454 -1.08703e-18)
(0.992954 0.0890374 -9.91406e-19)
(0.992734 0.0880045 -5.75161e-19)
(0.992572 0.0867245 1.9061e-18)
(0.992526 0.0851223 1.00682e-18)
(0.9926 0.0832038 1.40719e-18)
(0.993056 0.0809218 1.68315e-18)
(0.993249 0.0783497 -3.47979e-18)
(0.99416 0.0754508 3.43825e-18)
(0.994867 0.0706046 -1.53811e-18)
(0.994819 0.0936383 -2.91555e-20)
(0.994798 0.0936326 6.16496e-20)
(0.994777 0.0936337 -2.29681e-20)
(0.994755 0.0936268 -7.92693e-21)
(0.994732 0.0936117 6.1428e-20)
(0.994704 0.0935832 -1.59752e-19)
(0.994671 0.0935448 1.67221e-19)
(0.994631 0.0934921 1.41319e-19)
(0.994582 0.0934293 -2.07802e-19)
(0.994522 0.0933502 8.49994e-20)
(0.99445 0.0932599 3.00155e-19)
(0.994364 0.0931499 -5.1155e-19)
(0.994262 0.0930238 -1.1375e-19)
(0.994142 0.0928721 1.18284e-19)
(0.994001 0.0926881 7.12662e-20)
(0.993837 0.0924594 4.87218e-20)
(0.993646 0.0921773 -2.97055e-19)
(0.993427 0.0918246 -5.9137e-19)
(0.993177 0.0913823 5.29483e-19)
(0.992891 0.0908235 1.0218e-19)
(0.99258 0.0901056 2.15389e-18)
(0.992262 0.0891786 -4.57719e-19)
(0.99197 0.0879908 -5.88243e-19)
(0.991739 0.0865172 -4.34457e-18)
(0.991645 0.0846877 -4.49679e-19)
(0.991712 0.0825145 6.2244e-19)
(0.992229 0.0799946 -3.14103e-18)
(0.992598 0.0772019 6.02493e-18)
(0.993653 0.0741969 7.36675e-18)
(0.994549 0.0691919 -4.24543e-18)
(0.994546 0.0942808 -2.03774e-20)
(0.994511 0.0942692 1.35107e-20)
(0.994479 0.0942642 9.36993e-20)
(0.994447 0.0942553 -1.27114e-19)
(0.994414 0.0942403 1.63243e-19)
(0.99438 0.0942144 -3.11529e-20)
(0.99434 0.0941799 -7.85488e-20)
(0.994295 0.0941309 -2.44349e-19)
(0.994241 0.0940705 1.33493e-19)
(0.994176 0.093991 1.06653e-19)
(0.994098 0.0938973 -1.79712e-21)
(0.994004 0.09378 7.18748e-20)
(0.993889 0.0936428 -4.47488e-19)
(0.993751 0.0934774 2.4331e-19)
(0.993588 0.0932752 1.20213e-19)
(0.993397 0.0930245 -2.52801e-20)
(0.993175 0.0927133 5.23467e-19)
(0.99292 0.0923229 -4.02652e-20)
(0.992626 0.0918347 -6.21415e-19)
(0.992291 0.0912158 -4.4501e-19)
(0.991921 0.0904197 -3.07598e-19)
(0.991534 0.0893883 4.36574e-19)
(0.991169 0.0880612 -5.62829e-20)
(0.990861 0.0864059 -9.91865e-19)
(0.990707 0.0843523 -4.35412e-18)
(0.99075 0.0819093 -8.02331e-19)
(0.99131 0.0791175 8.13717e-18)
(0.991859 0.0760665 -5.61667e-18)
(0.993139 0.072932 4.41997e-18)
(0.994564 0.0681859 -4.43796e-18)
(0.994282 0.0948912 1.2704e-20)
(0.994237 0.0948786 -3.23419e-20)
(0.994193 0.0948769 -1.60481e-20)
(0.994149 0.0948719 1.42655e-19)
(0.994103 0.0948631 -4.94115e-20)
(0.994057 0.0948434 -2.06564e-19)
(0.994006 0.0948153 1.45783e-19)
(0.993951 0.0947715 -3.12465e-19)
(0.993887 0.0947147 6.6002e-20)
(0.993812 0.0946365 7.66324e-20)
(0.993723 0.094541 1.03379e-19)
(0.993616 0.0944195 -3.85108e-19)
(0.993487 0.0942748 7.60865e-19)
(0.99333 0.0940983 -2.11482e-19)
(0.993144 0.0938817 -8.76616e-19)
(0.992926 0.093611 6.04044e-19)
(0.992673 0.0932755 -1.35757e-19)
(0.992384 0.0928531 -4.91438e-19)
(0.992054 0.0923233 -3.60441e-19)
(0.991678 0.0916546 1.98341e-19)
(0.991262 0.0907952 -1.57366e-19)
(0.990823 0.089682 -1.14942e-19)
(0.990401 0.0882452 2.8798e-18)
(0.990036 0.0864463 2.76302e-18)
(0.989836 0.084209 -6.03714e-20)
(0.989869 0.0815369 -2.12663e-18)
(0.990472 0.0785054 -2.08661e-18)
(0.991201 0.0752359 1.93814e-18)
(0.992746 0.0720094 -2.68906e-18)
(0.994955 0.0677896 3.576e-18)
(0.994008 0.0955899 -1.16156e-20)
(0.993962 0.0955649 -7.77994e-21)
(0.99391 0.0955494 1.84073e-20)
(0.993856 0.0955335 -4.4761e-20)
(0.993799 0.0955166 2.33245e-20)
(0.993739 0.0954929 8.45645e-20)
(0.993675 0.0954641 6.11513e-20)
(0.993605 0.0954224 -1.01217e-19)
(0.993526 0.0953689 2.24342e-19)
(0.993436 0.0952935 -3.11394e-19)
(0.993332 0.0951993 2.82225e-19)
(0.993208 0.0950763 -4.19046e-19)
(0.993061 0.094926 3.06067e-19)
(0.992883 0.094741 -4.79275e-19)
(0.992672 0.0945113 6.24264e-19)
(0.992427 0.0942238 2.39637e-19)
(0.992146 0.0938641 -1.02296e-18)
(0.991829 0.0934115 1.0321e-18)
(0.991469 0.0928474 -3.17541e-19)
(0.991064 0.0921372 -1.09719e-18)
(0.990616 0.0912291 1.6539e-19)
(0.990146 0.0900562 5.98261e-19)
(0.989692 0.0885424 -1.01652e-18)
(0.9893 0.0866438 -2.0155e-18)
(0.989083 0.0842775 3.85258e-18)
(0.989132 0.0814387 3.97944e-18)
(0.989789 0.0782291 -2.95451e-18)
(0.99069 0.0748089 3.55137e-18)
(0.992501 0.0715428 -1.58391e-18)
(0.995645 0.0679284 2.28901e-18)
(0.993702 0.0963077 -7.76593e-21)
(0.993663 0.096277 7.76151e-21)
(0.993612 0.0962605 -2.16156e-21)
(0.993555 0.0962416 1.24297e-20)
(0.99349 0.0962227 -8.19538e-20)
(0.993418 0.0961963 5.33633e-20)
(0.99334 0.0961653 -1.39817e-19)
(0.993255 0.0961216 2.60746e-19)
(0.993159 0.0960659 -2.19368e-19)
(0.993051 0.0959886 5.7261e-20)
(0.992927 0.0958914 2.91028e-19)
(0.992782 0.0957646 2.88783e-20)
(0.992614 0.0956077 -3.20967e-20)
(0.992412 0.0954129 -3.41315e-19)
(0.992176 0.09517 1.19702e-19)
(0.991905 0.094863 -3.75686e-19)
(0.991598 0.0944805 7.60801e-19)
(0.991254 0.0939994 3.454e-19)
(0.990872 0.0934007 -2.01097e-19)
(0.990445 0.0926539 7.95133e-19)
(0.98998 0.0917058 1.28785e-18)
(0.989496 0.090488 -1.48174e-18)
(0.989032 0.088922 -3.20656e-18)
(0.988637 0.086958 5.57236e-19)
(0.988431 0.0845097 -1.09543e-18)
(0.988521 0.0815586 -9.06661e-19)
(0.989247 0.0782275 3.57327e-18)
(0.990309 0.0747095 -1.9882e-18)
(0.992373 0.0714323 -5.98558e-19)
(0.996427 0.068325 1.1829e-18)
(0.993334 0.0971608 9.21759e-21)
(0.993314 0.0971137 1.94378e-20)
(0.993274 0.0970793 -8.72455e-22)
(0.993221 0.0970428 1.89466e-20)
(0.993155 0.0970074 -1.31426e-19)
(0.993077 0.0969672 1.02642e-19)
(0.992989 0.0969251 1.77287e-19)
(0.992889 0.0968732 -2.05281e-19)
(0.992777 0.0968117 -3.19257e-20)
(0.992649 0.0967295 -1.02136e-19)
(0.992504 0.0966274 4.0331e-19)
(0.992337 0.0964942 -1.42522e-19)
(0.992145 0.0963277 -1.74953e-19)
(0.991918 0.0961213 -6.73714e-20)
(0.991655 0.0958615 3.05685e-19)
(0.991357 0.0955341 1.11408e-19)
(0.991025 0.0951251 -2.19785e-19)
(0.990658 0.0946124 -1.3556e-20)
(0.990256 0.0939807 -2.95261e-19)
(0.989813 0.0931975 -5.07268e-19)
(0.989338 0.0922125 -1.06776e-18)
(0.988848 0.0909563 1.76428e-18)
(0.988388 0.0893501 1.55785e-18)
(0.988005 0.0873395 4.39485e-20)
(0.987829 0.084836 2.05782e-18)
(0.987977 0.0818057 -9.81894e-19)
(0.988784 0.0783864 -2.03268e-18)
(0.990001 0.0747983 -1.52077e-18)
(0.992302 0.0715125 -6.34041e-18)
(0.997187 0.068766 -2.03125e-18)
(0.992889 0.0980457 -3.37932e-21)
(0.992895 0.0979918 1.00254e-20)
(0.992873 0.0979563 1.51546e-22)
(0.992832 0.0979144 -1.03797e-19)
(0.992772 0.0978723 -5.23252e-22)
(0.992694 0.0978225 1.13307e-19)
(0.992601 0.0977693 -1.41302e-19)
(0.992491 0.0977053 2.12746e-19)
(0.992365 0.0976311 8.85259e-20)
(0.99222 0.0975366 4.1193e-21)
(0.992054 0.0974216 -3.39055e-19)
(0.991864 0.0972759 1.75871e-19)
(0.991648 0.0970946 4.68069e-19)
(0.991395 0.0968715 -3.71029e-19)
(0.991105 0.0965912 2.56733e-19)
(0.990782 0.0962379 -2.6217e-19)
(0.990423 0.0958002 1.85751e-19)
(0.990035 0.0952537 -1.71542e-19)
(0.989612 0.0945828 7.15081e-19)
(0.989155 0.0937601 2.85146e-19)
(0.988669 0.0927342 1.17671e-18)
(0.988177 0.0914377 -8.36113e-19)
(0.987723 0.0897898 -2.15718e-18)
(0.987359 0.0877352 6.40434e-19)
(0.987217 0.0851802 -3.2229e-18)
(0.987434 0.0820799 3.44118e-18)
(0.988329 0.0785769 -2.19215e-18)
(0.989701 0.0749194 4.79135e-18)
(0.992235 0.0715976 1.86848e-18)
(0.997796 0.0690394 -1.23626e-19)
(0.992349 0.0990866 6.90632e-21)
(0.992387 0.0990126 4.08494e-21)
(0.992389 0.0989561 -5.16752e-20)
(0.992367 0.098893 1.39618e-20)
(0.992319 0.098829 1.08924e-20)
(0.992249 0.0987589 4.91537e-21)
(0.992157 0.0986868 -2.55385e-20)
(0.992043 0.0986055 2.33162e-19)
(0.991907 0.098515 -3.46177e-19)
(0.991748 0.0984048 2.88472e-19)
(0.991565 0.0982738 -2.63045e-20)
(0.991356 0.0981115 -1.82192e-19)
(0.991117 0.0979101 2.21586e-19)
(0.990839 0.0976666 -3.5939e-19)
(0.990522 0.0973609 1.21038e-19)
(0.990171 0.0969789 -2.44395e-19)
(0.989788 0.096506 5.67972e-19)
(0.989375 0.0959199 5.05165e-19)
(0.988932 0.0952075 7.16736e-19)
(0.988458 0.0943391 -3.38583e-19)
(0.987958 0.0932657 -1.24623e-18)
(0.987459 0.0919202 -2.83049e-19)
(0.987007 0.0902205 7.96858e-19)
(0.986658 0.0881104 1.6945e-18)
(0.986549 0.0854912 1.32779e-18)
(0.986838 0.0823086 -6.63425e-18)
(0.98783 0.0787067 1.4654e-18)
(0.989363 0.0749625 -5.18063e-18)
(0.992134 0.0715725 2.79585e-18)
(0.998261 0.0690834 4.40224e-19)
(0.991707 0.100152 2.67138e-21)
(0.991778 0.10007 -2.87868e-20)
(0.991809 0.10001 -1.8408e-20)
(0.99181 0.0999383 5.09922e-20)
(0.991781 0.0998636 -9.3587e-20)
(0.991724 0.0997784 6.08661e-20)
(0.991639 0.0996883 -1.17852e-19)
(0.991527 0.0995868 -5.28745e-20)
(0.991388 0.099474 2.80541e-20)
(0.991222 0.0993415 1.03853e-19)
(0.991026 0.0991874 -2.20601e-21)
(0.9908 0.0990027 1.12648e-19)
(0.990541 0.0987756 8.43976e-20)
(0.99024 0.0985062 4.14402e-19)
(0.989897 0.0981714 -7.49415e-20)
(0.98952 0.0977541 1.55073e-19)
(0.989111 0.0972434 -8.47366e-19)
(0.988673 0.096614 -3.08585e-19)
(0.988207 0.0958515 -8.98763e-19)
(0.98771 0.0949303 3.73851e-19)
(0.987193 0.0938001 9.81414e-19)
(0.986679 0.0923923 1.93422e-19)
(0.986221 0.0906252 4.21932e-19)
(0.985878 0.0884388 1.93075e-19)
(0.985798 0.0857321 1.71054e-18)
(0.986156 0.0824403 3.26235e-18)
(0.987254 0.0787126 -2.15383e-18)
(0.988957 0.0748511 -3.2155e-19)
(0.991987 0.0713591 5.28908e-20)
(0.998556 0.0688371 3.35986e-20)
(0.990968 0.101349 2.7018e-21)
(0.991072 0.101244 -3.43305e-20)
(0.991132 0.101161 6.04785e-20)
(0.991159 0.101067 -8.93335e-20)
(0.991152 0.100967 1.17479e-19)
(0.991112 0.100859 1.01839e-19)
(0.991039 0.100746 -1.16643e-19)
(0.990935 0.100621 5.80666e-20)
(0.990798 0.100486 -2.41015e-19)
(0.990628 0.10033 6.73285e-20)
(0.990425 0.100152 -5.01596e-20)
(0.990187 0.0999421 -3.67402e-19)
(0.989914 0.0996858 8.24377e-20)
(0.989591 0.0993873 4.74283e-19)
(0.989223 0.0990185 -1.21323e-19)
(0.988822 0.098564 9.03281e-20)
(0.988387 0.0980097 -3.08437e-19)
(0.987923 0.0973309 5.71853e-19)
(0.98743 0.0965157 -2.32513e-19)
(0.986907 0.095534 -1.2654e-18)
(0.986365 0.0943371 -1.63673e-19)
(0.985829 0.0928536 2.36393e-19)
(0.985356 0.0910008 -3.37364e-19)
(0.985009 0.0887144 -1.82941e-18)
(0.98495 0.0858915 -2.49052e-18)
(0.985377 0.0824584 -1.02205e-18)
(0.986589 0.0785735 1.66489e-18)
(0.988478 0.0745651 2.02307e-18)
(0.99179 0.0709478 -1.80239e-18)
(0.998743 0.0683579 1.35692e-19)
(0.990143 0.102528 1.34632e-20)
(0.990275 0.102416 -3.56219e-21)
(0.990362 0.10233 5.25306e-20)
(0.990414 0.102228 -1.33346e-20)
(0.990429 0.102118 -7.16756e-20)
(0.990408 0.101993 5.77244e-20)
(0.990351 0.101861 7.66678e-20)
(0.990258 0.101714 -1.44701e-19)
(0.990128 0.101553 2.99238e-19)
(0.98996 0.10137 1.20358e-19)
(0.989755 0.101163 -2.04558e-19)
(0.989511 0.100924 -3.18284e-20)
(0.989227 0.100635 -4.58334e-20)
(0.988886 0.100303 -9.65157e-20)
(0.988496 0.0998976 3.95921e-19)
(0.98807 0.0994016 -6.43127e-20)
(0.987609 0.098802 1.32971e-19)
(0.987119 0.0980713 -6.57762e-19)
(0.986597 0.0971951 1.06784e-18)
(0.986044 0.0961464 2.25209e-19)
(0.985471 0.0948724 -8.24628e-19)
(0.984906 0.0933003 -1.17455e-18)
(0.984409 0.0913429 8.24372e-19)
(0.984052 0.0889336 -2.77793e-18)
(0.984009 0.0859643 3.3445e-18)
(0.984504 0.0823587 1.52843e-18)
(0.985839 0.0782834 1.66415e-18)
(0.987931 0.0741024 -4.23465e-19)
(0.991556 0.0703387 1.20233e-18)
(0.998798 0.0676596 5.10937e-19)
(0.989241 0.10381 -3.66058e-21)
(0.989395 0.103674 -4.25765e-20)
(0.989505 0.103564 1.77947e-20)
(0.98958 0.103438 1.09687e-19)
(0.989616 0.103304 -1.412e-19)
(0.989615 0.103157 6.41229e-21)
(0.989575 0.103001 -4.23775e-22)
(0.989495 0.102832 2.9984e-20)
(0.989375 0.102646 -2.6213e-20)
(0.989214 0.102438 -3.55916e-20)
(0.989011 0.102203 9.65624e-20)
(0.988765 0.101934 2.77891e-19)
(0.988475 0.101611 -2.58437e-19)
(0.988119 0.101244 3.46341e-20)
(0.98771 0.100801 -2.1882e-19)
(0.98726 0.100263 -8.71528e-20)
(0.986775 0.0996138 -6.51861e-21)
(0.986256 0.0988266 6.51146e-19)
(0.985704 0.097888 -7.30816e-19)
(0.985119 0.0967661 1.82795e-18)
(0.984511 0.0954073 1.26766e-18)
(0.983913 0.0937351 -4.50487e-19)
(0.983385 0.0916571 -4.60624e-19)
(0.983013 0.0891038 4.08384e-18)
(0.982981 0.0859613 -2.73701e-18)
(0.983546 0.0821548 -1.26371e-18)
(0.985015 0.0778621 -9.14242e-19)
(0.987328 0.0734897 2.85945e-19)
(0.991293 0.0695734 -6.99888e-19)
(0.998805 0.0668295 -1.058e-18)
(0.988272 0.105044 -4.69297e-21)
(0.988442 0.104903 -3.88182e-20)
(0.98857 0.104789 -6.17196e-22)
(0.988664 0.104655 6.10902e-20)
(0.98872 0.104509 -3.55498e-20)
(0.988737 0.104346 1.33308e-19)
(0.988713 0.104171 -2.04588e-19)
(0.988648 0.103978 6.72581e-20)
(0.988541 0.103766 1.77427e-19)
(0.988388 0.10353 -3.82457e-19)
(0.988191 0.103264 1.65377e-20)
(0.987947 0.102964 -7.58874e-20)
(0.987654 0.102607 1.4125e-19)
(0.987288 0.102203 -1.60209e-20)
(0.98686 0.10172 1.94777e-19)
(0.98639 0.101138 -6.25236e-19)
(0.98588 0.100439 8.52208e-20)
(0.985333 0.099594 -3.70633e-19)
(0.984751 0.0985868 2.12766e-19)
(0.984131 0.0973871 5.83885e-20)
(0.983487 0.0959369 -9.89096e-19)
(0.982851 0.094154 -8.61005e-19)
(0.982291 0.0919426 1.56198e-18)
(0.981899 0.0892268 -2.27067e-18)
(0.981878 0.0858898 4.84408e-19)
(0.982517 0.0818571 7.80756e-19)
(0.984131 0.0773261 3.8756e-19)
(0.986681 0.0727456 -1.33714e-18)
(0.991014 0.068677 3.98991e-20)
(0.998747 0.065882 9.39446e-19)
(0.987249 0.106341 7.85313e-21)
(0.987429 0.106178 -5.15455e-21)
(0.98757 0.106041 -3.65226e-20)
(0.987678 0.105885 4.72287e-20)
(0.98775 0.105716 -8.25895e-20)
(0.987784 0.105531 1.43027e-19)
(0.987775 0.105334 -1.61857e-19)
(0.987724 0.105119 9.63061e-20)
(0.987629 0.104885 -1.88718e-19)
(0.987487 0.104624 3.91922e-19)
(0.987297 0.104331 -1.88609e-19)
(0.987058 0.104 1.86355e-19)
(0.986765 0.103608 -7.5664e-19)
(0.98639 0.103168 4.21502e-19)
(0.985948 0.102646 -4.38931e-21)
(0.985457 0.10202 2.18429e-19)
(0.984923 0.101268 -2.75775e-19)
(0.984349 0.100363 2.97614e-19)
(0.983735 0.0992875 8.53078e-20)
(0.98308 0.0980062 -8.93179e-19)
(0.982398 0.0964599 1.36703e-18)
(0.981723 0.0945595 4.20527e-19)
(0.981129 0.0922046 -2.39445e-18)
(0.980717 0.089312 7.72443e-19)
(0.98071 0.0857632 4.5636e-19)
(0.981427 0.0814851 -1.58714e-18)
(0.983199 0.0767012 -5.40851e-19)
(0.986001 0.0719043 3.76285e-18)
(0.990725 0.0676929 2.30179e-19)
(0.998703 0.064891 2.3276e-20)
(0.986185 0.107558 -3.92075e-21)
(0.986369 0.107393 1.20857e-20)
(0.986517 0.107255 -1.60683e-20)
(0.986635 0.107092 -1.61625e-21)
(0.986719 0.106913 1.78462e-20)
(0.986765 0.106713 6.07881e-21)
(0.986769 0.106499 2.00471e-20)
(0.986731 0.106263 -1.48071e-19)
(0.986647 0.106004 3.1217e-19)
(0.986515 0.105717 -9.86157e-20)
(0.986334 0.105395 3.09646e-20)
(0.9861 0.105034 1.38361e-21)
(0.985809 0.104608 -1.39169e-19)
(0.985428 0.10413 -2.74507e-20)
(0.984972 0.103568 6.9e-19)
(0.984461 0.102897 7.80227e-20)
(0.983903 0.102095 4.6671e-19)
(0.983303 0.101129 2.08428e-19)
(0.982658 0.099981 -9.72372e-19)
(0.981968 0.0986161 6.16504e-19)
(0.981248 0.0969693 -5.15888e-19)
(0.980534 0.0949466 1.79431e-18)
(0.979906 0.0924397 2.3225e-18)
(0.979475 0.0893607 1.56998e-18)
(0.979485 0.0855856 2.03818e-18)
(0.980287 0.0810485 1.19682e-18)
(0.982228 0.0759988 -5.42202e-19)
(0.985298 0.0709823 -7.08253e-19)
(0.990434 0.0666335 2.55542e-19)
(0.99863 0.0638507 -1.47434e-18)
(0.985087 0.10882 -9.57611e-22)
(0.985271 0.108632 2.38042e-20)
(0.985421 0.108472 -8.27477e-20)
(0.985544 0.108289 1.80063e-20)
(0.985635 0.108089 -6.23884e-20)
(0.985689 0.107871 1.2187e-19)
(0.985703 0.107637 -3.40167e-20)
(0.985674 0.107383 6.4841e-20)
(0.985601 0.107103 -5.31576e-20)
(0.985477 0.106793 -1.76738e-19)
(0.985304 0.106446 2.78748e-19)
(0.985076 0.106055 -2.853e-19)
(0.984787 0.105596 5.16033e-19)
(0.984402 0.10508 -2.50544e-19)
(0.983933 0.10448 -2.16387e-19)
(0.983402 0.103766 -7.5594e-19)
(0.982821 0.10291 -5.70995e-19)
(0.982194 0.101882 3.58971e-19)
(0.981518 0.100663 2.45781e-19)
(0.980796 0.0992127 -5.39213e-19)
(0.980036 0.0974637 -4.54826e-19)
(0.979285 0.0953157 -1.94967e-19)
(0.978623 0.0926516 -1.30534e-18)
(0.978176 0.0893788 -1.04552e-18)
(0.978206 0.0853669 -2.87456e-18)
(0.979102 0.0805606 2.74923e-19)
(0.981223 0.0752382 -1.71654e-19)
(0.984577 0.0700034 -3.44594e-18)
(0.990139 0.0655304 -6.6172e-19)
(0.998592 0.0628145 -2.68889e-18)
(0.983956 0.110001 7.6491e-21)
(0.984135 0.109816 8.49975e-21)
(0.984284 0.109653 -2.25246e-20)
(0.984409 0.109462 1.4288e-19)
(0.984503 0.109252 -2.20022e-19)
(0.984563 0.109018 1.35658e-19)
(0.984584 0.108766 7.8349e-20)
(0.984562 0.108491 -2.29069e-19)
(0.984496 0.108187 2.25598e-19)
(0.98438 0.107853 -3.88224e-19)
(0.984213 0.107478 4.81143e-19)
(0.98399 0.107058 1.90879e-20)
(0.983703 0.106566 -4.31889e-19)
(0.983314 0.106013 1.0001e-19)
(0.982832 0.105374 4.95362e-20)
(0.982281 0.104615 1.01978e-19)
(0.981678 0.103708 4.81506e-19)
(0.981024 0.102618 -6.75676e-19)
(0.98032 0.101324 1.01844e-18)
(0.979562 0.0997883 8.47236e-21)
(0.978766 0.0979361 8.02063e-19)
(0.977977 0.0956598 -2.10889e-18)
(0.977283 0.0928358 1.03896e-19)
(0.976822 0.0893629 -1.57248e-19)
(0.976878 0.0851075 3.29364e-19)
(0.977874 0.0800225 1.41961e-18)
(0.980188 0.0744232 -1.07753e-19)
(0.98384 0.0689692 1.45855e-18)
(0.989846 0.0643848 9.20281e-19)
(0.998532 0.0617543 1.56479e-18)
(0.982796 0.111208 2.61371e-21)
(0.982968 0.111002 -7.64536e-21)
(0.983113 0.11082 -7.32341e-20)
(0.983236 0.110611 9.98371e-20)
(0.983331 0.110381 -2.47574e-20)
(0.983393 0.110129 -7.53547e-21)
(0.983416 0.109859 -5.13937e-20)
(0.983399 0.109564 8.02739e-20)
(0.983338 0.109241 -1.57055e-19)
(0.983227 0.108884 -6.24848e-20)
(0.983065 0.108485 1.30092e-19)
(0.982846 0.108037 -2.39309e-19)
(0.982559 0.107512 -1.36982e-19)
(0.982165 0.106922 1.36023e-19)
(0.98167 0.106244 -2.01813e-19)
(0.981101 0.105441 -1.6548e-19)
(0.980474 0.10448 7.96826e-19)
(0.979794 0.103327 -2.79089e-19)
(0.97906 0.101962 9.27349e-20)
(0.978268 0.10034 -3.91043e-19)
(0.977437 0.0983851 -4.33621e-20)
(0.97661 0.0959801 1.71577e-18)
(0.975885 0.0929943 2.52163e-19)
(0.975411 0.0893168 -2.6772e-19)
(0.975499 0.0848124 8.76595e-19)
(0.976602 0.0794417 -1.14577e-18)
(0.979123 0.0735641 8.41474e-19)
(0.983086 0.0678948 -1.57645e-18)
(0.98955 0.0632148 -7.80188e-19)
(0.998511 0.0607123 5.38437e-18)
(0.981609 0.112332 3.97257e-21)
(0.981772 0.112131 -1.28199e-20)
(0.98191 0.111948 5.49193e-20)
(0.982029 0.11173 7.73763e-21)
(0.982121 0.111489 -1.1848e-19)
(0.982182 0.111221 2.85884e-20)
(0.982207 0.110933 2.63437e-20)
(0.982191 0.110618 3.73347e-20)
(0.982132 0.110272 1.89836e-20)
(0.982024 0.109892 -2.16361e-20)
(0.981864 0.109466 -2.10565e-19)
(0.981646 0.108989 4.3094e-21)
(0.981358 0.108431 3.11542e-19)
(0.980959 0.107804 5.79486e-20)
(0.980451 0.107085 3.11918e-19)
(0.979861 0.106237 2.22851e-19)
(0.97921 0.105223 -3.367e-19)
(0.978507 0.104009 7.40848e-20)
(0.977742 0.10257 -1.02496e-18)
(0.976916 0.100862 -7.68904e-19)
(0.976048 0.0988038 -1.02402e-18)
(0.975184 0.0962704 -2.54112e-18)
(0.974428 0.0931206 -3.64003e-19)
(0.973944 0.0892363 1.551e-18)
(0.974067 0.0844764 -2.08516e-18)
(0.975287 0.0788151 -4.59341e-20)
(0.978027 0.0726546 -5.44258e-20)
(0.982318 0.0667753 1.13349e-18)
(0.989255 0.0620076 6.76646e-19)
(0.998464 0.0596499 -9.31017e-19)
(0.980397 0.113479 -8.57291e-21)
(0.98055 0.113255 -4.04366e-21)
(0.98068 0.113053 5.26604e-20)
(0.980791 0.112819 -1.93122e-20)
(0.980879 0.112559 -1.60166e-20)
(0.980936 0.112275 4.28435e-20)
(0.980958 0.11197 -2.73943e-20)
(0.980941 0.111637 9.88264e-20)
(0.980881 0.111271 -1.3286e-19)
(0.980772 0.110868 -1.3207e-19)
(0.980612 0.110417 -1.6191e-20)
(0.980392 0.109912 1.89442e-19)
(0.9801 0.109321 -1.15368e-19)
(0.979694 0.108654 3.32587e-19)
(0.979172 0.107894 -4.45428e-19)
(0.978561 0.107001 -2.15993e-19)
(0.977891 0.105931 5.53528e-19)
(0.977162 0.104654 -1.32268e-19)
(0.976366 0.103147 3.3941e-19)
(0.975506 0.101355 3.91009e-19)
(0.974598 0.0991931 3.29166e-19)
(0.973698 0.0965321 2.34164e-18)
(0.97291 0.0932172 5.20745e-19)
(0.972418 0.0891234 -3.69875e-19)
(0.972579 0.0841021 9.44178e-19)
(0.973926 0.0781457 -3.18732e-19)
(0.976898 0.0717005 1.14463e-18)
(0.981533 0.0656183 3.42111e-19)
(0.988957 0.0607774 -1.20938e-18)
(0.998458 0.0586023 -3.60637e-18)
(0.979149 0.114568 -2.87671e-20)
(0.979292 0.11435 3.00996e-20)
(0.979413 0.114145 -3.86337e-20)
(0.979517 0.1139 1.36518e-20)
(0.979599 0.113626 -7.62677e-21)
(0.979651 0.113323 -1.05722e-19)
(0.979668 0.112998 1.02865e-21)
(0.979648 0.112642 3.57874e-19)
(0.979584 0.112251 -1.10703e-19)
(0.979472 0.111822 1.28922e-19)
(0.979308 0.111343 -2.75637e-19)
(0.979084 0.110807 4.85638e-19)
(0.978786 0.110181 1.48816e-19)
(0.978372 0.109473 1.5965e-19)
(0.977834 0.10867 -2.38891e-19)
(0.977205 0.107723 5.25265e-19)
(0.976512 0.1066 -6.58526e-19)
(0.975756 0.105266 -5.24139e-19)
(0.974931 0.103687 7.78424e-19)
(0.974034 0.101812 7.16329e-19)