/*--------------------------------*- C++ -*----------------------------------*\
  =========                 |
  \\      /  F ield         | OpenFOAM: The Open Source CFD Toolbox
   \\    /   O peration     | Website:  https://openfoam.org
    \\  /    A nd           | Version:  6.0
     \\/     M anipulation  |
\*---------------------------------------------------------------------------*/
FoamFile
{
    version     2.0;
    format      ascii;
    class       volScalarField;
    location    "8";
    object      p;
}
// * * * * * * * * * * * * * * * * * * * * * * * * * * * * * * * * * * * * * //

dimensions      [0 2 -2 0 0 0 0];

internalField   nonuniform List<scalar> 
62000
(
0.0297541
0.0301772
0.0306026
0.0310292
0.0314602
0.031894
0.0323343
0.0327797
0.033234
0.0336958
0.0341695
0.0346539
0.0351537
0.0356679
0.0362016
0.0367544
0.0373316
0.037933
0.0385642
0.0392251
0.0399208
0.0406512
0.0414205
0.0422279
0.0430759
0.0439626
0.0448879
0.0458477
0.0468382
0.0478516
0.0488787
0.049906
0.0509199
0.0519026
0.0528289
0.0536636
0.0543634
0.0548755
0.0551387
0.0550875
0.0546597
0.0538079
0.0525171
0.0508275
0.0488592
0.0468309
0.0450596
0.0439226
0.0437715
0.0448103
0.0469416
0.0497408
0.0524377
0.0541921
0.0542908
0.0523671
0.0485973
0.0432516
0.0387195
0.0354993
0.0299043
0.0303832
0.0308547
0.0313187
0.0317792
0.0322348
0.0326894
0.0331425
0.0335981
0.034056
0.034521
0.0349932
0.0354777
0.035975
0.0364907
0.0370254
0.0375848
0.0381698
0.0387855
0.0394327
0.0401159
0.0408354
0.0415945
0.0423929
0.0432322
0.0441108
0.0450279
0.0459799
0.0469626
0.047969
0.0489899
0.0500135
0.0510283
0.0520193
0.0529623
0.0538248
0.0545648
0.0551303
0.0554603
0.0554888
0.055151
0.0543944
0.0531959
0.051585
0.0496705
0.0476636
0.0458862
0.0447412
0.0446372
0.0458646
0.0484303
0.0520013
0.0558303
0.0590205
0.0606927
0.0602401
0.0576295
0.0528668
0.0496384
0.0445694
0.0303501
0.0307434
0.0311443
0.0315498
0.0319636
0.032383
0.0328105
0.0332442
0.0336868
0.0341368
0.0345979
0.0350691
0.0355547
0.0360545
0.0365735
0.0371122
0.0376762
0.0382662
0.0388876
0.0395411
0.0402314
0.0409589
0.041727
0.0425355
0.0433856
0.0442761
0.0452058
0.0461711
0.0471671
0.0481865
0.0492196
0.0502549
0.0512826
0.0522883
0.0532491
0.0541323
0.0548949
0.0554825
0.0558304
0.0558668
0.0555176
0.0547162
0.053419
0.0516277
0.0494164
0.0469585
0.0445419
0.0425518
0.0414109
0.0414681
0.0428403
0.0453406
0.0483715
0.0511562
0.0528578
0.0528432
0.0510426
0.0473782
0.046112
0.0404294
0.0310827
0.0313527
0.0316469
0.0319598
0.0322952
0.0326501
0.0330264
0.0334214
0.0338367
0.0342696
0.0347222
0.0351924
0.0356826
0.0361915
0.0367225
0.0372754
0.0378542
0.0384595
0.0390956
0.0397634
0.0404671
0.0412072
0.0419874
0.0428074
0.0436691
0.0445713
0.0455133
0.0464918
0.047502
0.0485364
0.0495851
0.0506373
0.0516851
0.052717
0.0537112
0.0546386
0.0554567
0.0561109
0.0565358
0.0566565
0.0563929
0.0556668
0.0544152
0.0526115
0.0502915
0.0475819
0.0447211
0.0420537
0.0399882
0.0389003
0.0389925
0.0402198
0.0421565
0.0442032
0.0456517
0.045933
0.045009
0.0428138
0.0435664
0.0396633
0.031648
0.0318551
0.032093
0.0323557
0.0326473
0.032965
0.033311
0.0336825
0.0340814
0.0345046
0.0349543
0.0354275
0.0359262
0.0364481
0.0369958
0.0375677
0.0381671
0.0387933
0.0394498
0.0401366
0.0408576
0.0416129
0.0424059
0.043237
0.0441079
0.0450185
0.0459685
0.0469556
0.0479757
0.0490222
0.0500858
0.051158
0.052234
0.0533045
0.0543544
0.0553597
0.0562824
0.0570721
0.0576674
0.0579967
0.0579801
0.0575353
0.0565884
0.0550921
0.0530499
0.0505449
0.0477629
0.0449959
0.0426141
0.0409859
0.0403566
0.0407779
0.0419726
0.0434982
0.0447841
0.0453462
0.0451806
0.0442531
0.0465073
0.0449324
0.0321104
0.0323067
0.0325323
0.0327827
0.0330618
0.0333677
0.0337029
0.0340654
0.0344573
0.0348764
0.0353246
0.0357996
0.0363035
0.036834
0.0373931
0.0379793
0.0385952
0.0392393
0.0399145
0.0406201
0.0413591
0.0421311
0.0429391
0.0437831
0.0446652
0.0455855
0.0465445
0.0475408
0.0485717
0.0496318
0.0507135
0.0518114
0.0529236
0.0540464
0.0551697
0.0562784
0.0573409
0.0583141
0.0591438
0.059766
0.0601064
0.0600847
0.0596232
0.0586625
0.0571822
0.0552283
0.0529374
0.0505446
0.048369
0.0467453
0.0459243
0.0460112
0.0468303
0.0480654
0.0492681
0.0500319
0.0503589
0.0502479
0.0533842
0.0534115
0.0326054
0.0328164
0.0330531
0.0333118
0.0335965
0.0339054
0.0342414
0.034603
0.0349929
0.0354092
0.0358548
0.0363279
0.0368312
0.0373627
0.037925
0.0385167
0.0391404
0.0397944
0.0404813
0.0412
0.041953
0.0427392
0.0435613
0.044419
0.0453142
0.046247
0.0472186
0.0482283
0.0492745
0.0503533
0.0514593
0.05259
0.0537475
0.0549309
0.0561391
0.0573635
0.0585805
0.059755
0.0608418
0.0617858
0.0625212
0.0629732
0.0630655
0.0627324
0.0619373
0.0606968
0.0591045
0.0573422
0.0556728
0.054385
0.053712
0.053778
0.054477
0.05558
0.0567346
0.0575967
0.058157
0.0584528
0.0619998
0.0627631
0.0332379
0.0334701
0.0337243
0.0339975
0.0342935
0.034611
0.0349527
0.0353177
0.0357085
0.036124
0.036567
0.0370364
0.037535
0.0380618
0.0386197
0.0392079
0.0398293
0.040483
0.0411713
0.0418937
0.0426522
0.043446
0.0442773
0.0451456
0.0460525
0.0469986
0.0479847
0.0490112
0.0500772
0.05118
0.0523161
0.0534861
0.0546939
0.0559445
0.0572412
0.0585831
0.0599535
0.061325
0.062661
0.0639157
0.065032
0.0659426
0.0665751
0.0668624
0.0667576
0.0662554
0.0654147
0.0643699
0.0633318
0.0625385
0.0621936
0.0624197
0.063148
0.0642136
0.0653382
0.0662285
0.0668489
0.0672936
0.0709864
0.071913
0.0339359
0.0341944
0.0344728
0.0347681
0.0350835
0.0354178
0.0357735
0.0361493
0.0365483
0.036969
0.0374146
0.0378842
0.0383812
0.0389046
0.0394581
0.0400412
0.0406574
0.0413062
0.0419907
0.0427105
0.0434683
0.0442634
0.0450982
0.0459725
0.0468879
0.0478452
0.0488456
0.0498898
0.0509778
0.0521076
0.0532776
0.0544902
0.0557523
0.0570703
0.0584549
0.0599094
0.0614231
0.0629753
0.0645371
0.0660708
0.0675281
0.0688489
0.0699664
0.0708148
0.0713414
0.0715257
0.0713992
0.0710572
0.0706638
0.0704095
0.0704644
0.070937
0.0717824
0.0728742
0.0739898
0.0748765
0.0754743
0.0759498
0.0796752
0.0804877
0.0347544
0.0350365
0.0353365
0.0356518
0.0359853
0.0363359
0.036706
0.0370943
0.0375034
0.0379322
0.0383833
0.0388561
0.0393537
0.0398758
0.0404258
0.0410039
0.041614
0.0422563
0.0429341
0.043648
0.0444011
0.0451932
0.0460274
0.0469037
0.0478242
0.0487901
0.049803
0.0508642
0.0519742
0.0531318
0.0543368
0.0555931
0.0569084
0.0582935
0.0597611
0.0613199
0.062963
0.0646751
0.0664335
0.0682077
0.0699567
0.0716279
0.0731603
0.074491
0.0755651
0.0763519
0.0768625
0.0771606
0.0773719
0.0776434
0.0781126
0.0788687
0.079875
0.081035
0.0821689
0.0830605
0.0836226
0.0841104
0.0878532
0.0884638
0.0356198
0.0359255
0.0362477
0.0365839
0.036937
0.0373056
0.0376919
0.0380948
0.0385166
0.0389562
0.0394164
0.0398963
0.0403992
0.0409247
0.0414762
0.0420543
0.0426628
0.0433022
0.0439762
0.0446861
0.0454352
0.0462242
0.0470567
0.0479335
0.0488573
0.0498298
0.0508535
0.0519302
0.0530611
0.0542457
0.0554849
0.0567837
0.0581511
0.0595985
0.0611438
0.0627973
0.0645554
0.066407
0.0683341
0.0703121
0.0723066
0.0742711
0.0761506
0.0778861
0.0794225
0.0807228
0.081783
0.0826424
0.0833945
0.0841497
0.0850163
0.0860621
0.087257
0.0885207
0.0897067
0.0906294
0.0911828
0.0917146
0.0955007
0.0959191
0.0365572
0.0368819
0.0372218
0.0375748
0.0379437
0.0383273
0.038728
0.0391447
0.0395794
0.040031
0.0405019
0.0409915
0.0415023
0.0420344
0.0425907
0.043172
0.0437821
0.0444219
0.0450952
0.0458037
0.0465512
0.0473388
0.0481709
0.0490486
0.0499756
0.0509544
0.0519881
0.0530793
0.0542299
0.05544
0.0567119
0.0580512
0.0594667
0.0609733
0.0625895
0.0643288
0.0661891
0.0681621
0.0702339
0.0723844
0.0745846
0.0767938
0.0789622
0.0810354
0.0829597
0.0846941
0.0862243
0.0875704
0.0888008
0.0899944
0.0912345
0.0925682
0.0939646
0.0953594
0.0966322
0.0976275
0.098218
0.0988479
0.102721
0.102996
0.0374609
0.037807
0.0381682
0.0385421
0.0389315
0.039335
0.0397547
0.0401893
0.0406411
0.0411086
0.0415945
0.0420978
0.0426216
0.043165
0.0437317
0.0443218
0.0449395
0.0455853
0.0462634
0.0469755
0.0477258
0.0485159
0.0493506
0.0502318
0.0511637
0.0521498
0.0531938
0.0542993
0.0554689
0.0567036
0.0580063
0.0593837
0.0608452
0.0624053
0.0640874
0.0659046
0.0678565
0.0699371
0.0721351
0.0744343
0.07681
0.0792264
0.0816389
0.0839971
0.0862495
0.0883533
0.0902868
0.0920553
0.0937067
0.0952945
0.0968811
0.0984939
0.100105
0.101657
0.10305
0.104156
0.104832
0.105613
0.109609
0.109797
0.0384205
0.0387839
0.0391618
0.0395522
0.0399577
0.040377
0.0408123
0.0412624
0.0417292
0.0422116
0.0427117
0.0432286
0.043765
0.0443205
0.0448981
0.0454984
0.0461251
0.0467793
0.0474648
0.0481836
0.0489402
0.0497361
0.0505769
0.0514647
0.0524042
0.0533997
0.0544556
0.0555764
0.0567653
0.058024
0.0593566
0.0607703
0.062274
0.0638856
0.0656283
0.0675176
0.0695533
0.071731
0.0740416
0.076472
0.0790011
0.0815974
0.0842207
0.086825
0.0893611
0.0917859
0.0940722
0.096214
0.0982434
0.100192
0.102106
0.103994
0.105825
0.107555
0.109099
0.110354
0.11116
0.112137
0.11629
0.11644
0.0393687
0.0397499
0.0401453
0.0405528
0.0409748
0.0414104
0.0418613
0.0423266
0.0428083
0.0433052
0.0438197
0.0443508
0.0449013
0.0454706
0.0460618
0.0466754
0.0473151
0.0479815
0.0486786
0.0494085
0.0501756
0.0509816
0.0518324
0.0527304
0.0536809
0.0546886
0.0557587
0.0568963
0.0581055
0.0593887
0.0607509
0.0621997
0.063745
0.0654041
0.0672048
0.0691619
0.0712761
0.0735442
0.0759587
0.0785091
0.0811775
0.0839357
0.0867478
0.0895713
0.09236
0.0950706
0.0976723
0.10015
0.102523
0.104805
0.107028
0.109185
0.111248
0.113174
0.114896
0.116328
0.117299
0.118504
0.12283
0.12298
0.0403555
0.0407501
0.0411579
0.0415775
0.0420115
0.042459
0.042922
0.0433998
0.0438942
0.0444043
0.0449318
0.0454764
0.04604
0.0466229
0.0472273
0.0478542
0.048507
0.0491866
0.0498967
0.0506396
0.0514196
0.0522387
0.0531026
0.0540142
0.0549789
0.056002
0.0570891
0.0582459
0.0594772
0.060786
0.0621783
0.0636622
0.0652473
0.0669542
0.0688103
0.0708329
0.0730224
0.0753769
0.0778901
0.0805536
0.0833523
0.0862612
0.0892478
0.0922733
0.0952939
0.0982672
0.101159
0.103948
0.106643
0.109241
0.111765
0.114192
0.116491
0.118629
0.120549
0.122185
0.123348
0.124804
0.129315
0.129492
0.0412698
0.0416813
0.0421064
0.0425433
0.0429946
0.0434592
0.043939
0.0444332
0.0449438
0.0454695
0.0460129
0.046573
0.0471526
0.0477511
0.0483716
0.0490144
0.0496834
0.0503791
0.0511053
0.0518642
0.0526603
0.0534954
0.0543757
0.055304
0.0562861
0.0573277
0.0584345
0.0596132
0.0608688
0.0622051
0.0636287
0.0651484
0.0667748
0.0685276
0.0704393
0.0725264
0.0747901
0.0772294
0.0798392
0.0826131
0.0855383
0.0885924
0.091746
0.0949636
0.0982037
0.101425
0.104591
0.107673
0.110672
0.113573
0.11639
0.119085
0.12163
0.123994
0.126129
0.127984
0.129358
0.131075
0.135773
0.135993
0.0422208
0.0426453
0.0430831
0.0435326
0.0439963
0.0444735
0.0449661
0.0454734
0.0459971
0.0465364
0.0470932
0.0476671
0.0482603
0.0488729
0.0495074
0.0501648
0.0508485
0.0515596
0.0523016
0.0530772
0.0538904
0.0547435
0.0556423
0.05659
0.0575922
0.0586551
0.0597847
0.0609881
0.0622706
0.0636366
0.0650935
0.0666506
0.0683183
0.0701197
0.0720869
0.0742389
0.076577
0.0791012
0.0818074
0.084691
0.0877414
0.0909385
0.0942558
0.0976605
0.101114
0.104574
0.108005
0.111371
0.114666
0.117865
0.120974
0.123941
0.126737
0.129338
0.131702
0.133791
0.135388
0.137372
0.142255
0.142532
0.0431325
0.0435714
0.0440233
0.0444868
0.0449642
0.0454549
0.0459606
0.0464808
0.0470175
0.0475698
0.0481399
0.0487275
0.049335
0.0499623
0.0506124
0.0512859
0.0519866
0.0527151
0.0534752
0.0542695
0.0551021
0.0559751
0.0568948
0.0578642
0.0588892
0.0599761
0.0611313
0.062362
0.0636741
0.0650725
0.0665649
0.0681615
0.0698737
0.0717235
0.0737485
0.0759669
0.0783809
0.0809915
0.0837959
0.086791
0.0899682
0.0933094
0.0967905
0.100381
0.104045
0.107741
0.11143
0.115074
0.118658
0.12215
0.125548
0.128788
0.131846
0.134694
0.137297
0.139627
0.141454
0.143703
0.148766
0.149103
0.0440636
0.0445124
0.0449735
0.0454459
0.0459322
0.046432
0.0469473
0.0474779
0.0480254
0.0485893
0.0491714
0.0497717
0.0503921
0.0510334
0.0516975
0.0523862
0.0531026
0.0538479
0.0546257
0.0554389
0.0562914
0.0571856
0.0581277
0.0591208
0.0601707
0.0612841
0.0624674
0.0637282
0.0650726
0.066506
0.0680369
0.0696755
0.0714333
0.073336
0.0754203
0.0777072
0.0801995
0.082899
0.0858039
0.088913
0.0922193
0.0957068
0.0993537
0.103132
0.107007
0.110938
0.114885
0.118804
0.122677
0.126461
0.130153
0.133673
0.136996
0.140099
0.142951
0.145531
0.147592
0.150103
0.155339
0.155742
0.0448919
0.0453552
0.0458314
0.0463192
0.0468211
0.0473366
0.0478674
0.0484131
0.0489757
0.0495546
0.0501519
0.0507674
0.051404
0.0520613
0.0527426
0.0534486
0.0541834
0.0549476
0.0557453
0.0565791
0.0574534
0.0583703
0.0593365
0.0603549
0.0614318
0.0625738
0.0637876
0.065081
0.0664605
0.0679318
0.0695036
0.0711871
0.0729949
0.0749513
0.0770985
0.0794568
0.0820302
0.0848219
0.0878311
0.091058
0.0944976
0.0981355
0.101952
0.105921
0.110009
0.114176
0.118381
0.122575
0.126735
0.130811
0.134796
0.138599
0.142196
0.145564
0.148671
0.151501
0.153798
0.156563
0.161964
0.162432
0.0457416
0.0462158
0.0467026
0.0472011
0.0477137
0.0482401
0.0487822
0.0493399
0.0499148
0.0505065
0.0511168
0.051746
0.0523961
0.0530679
0.0537638
0.0544856
0.0552368
0.0560188
0.0568353
0.0576895
0.0585857
0.0595261
0.0605174
0.0615627
0.0626682
0.0638409
0.0650874
0.066416
0.0678332
0.0693451
0.0709611
0.0726925
0.0745519
0.0765674
0.0787798
0.0812128
0.0838708
0.0867581
0.0898751
0.0932236
0.0968004
0.100593
0.104583
0.108746
0.113051
0.117458
0.121924
0.126394
0.130844
0.135216
0.139501
0.143593
0.147469
0.151108
0.154477
0.157564
0.160096
0.16311
0.168668
0.169204
0.0465319
0.0470188
0.0475182
0.0480294
0.0485545
0.0490935
0.049648
0.050218
0.0508054
0.0514097
0.0520333
0.0526761
0.0533409
0.054028
0.0547405
0.0554795
0.0562494
0.057051
0.0578882
0.0587644
0.059684
0.0606493
0.0616673
0.062741
0.0638768
0.0650821
0.0663635
0.0677296
0.069187
0.0707424
0.0724052
0.0741876
0.0761034
0.0781791
0.0804611
0.0829722
0.0857183
0.0887052
0.0919344
0.0954093
0.0991284
0.10308
0.107249
0.111612
0.116138
0.120788
0.125517
0.130267
0.135008
0.139677
0.144261
0.148647
0.152812
0.15673
0.160366
0.163708
0.166474
0.169727
0.175433
0.176035
0.0473298
0.047825
0.048332
0.0488507
0.0493834
0.0499306
0.0504937
0.0510734
0.0516711
0.052287
0.0529224
0.0535782
0.0542564
0.0549581
0.0556855
0.056441
0.0572281
0.0580486
0.0589059
0.0598042
0.0607474
0.0617383
0.0627839
0.0638873
0.0650551
0.0662948
0.067613
0.0690188
0.070519
0.0721204
0.0738332
0.0756696
0.0776436
0.0797852
0.0821394
0.0847321
0.0875702
0.0906605
0.0940058
0.0976113
0.101477
0.105593
0.109945
0.114513
0.119266
0.124164
0.12916
0.134194
0.139232
0.144201
0.149094
0.153781
0.15824
0.162444
0.166351
0.169953
0.172951
0.176437
0.182285
0.182954
0.0480046
0.0485133
0.0490349
0.0495685
0.0501166
0.0506791
0.0512577
0.0518526
0.0524657
0.0530967
0.0537479
0.0544195
0.0551146
0.0558333
0.0565792
0.0573534
0.0581608
0.0590022
0.0598821
0.060804
0.0617726
0.0627905
0.0638651
0.0649997
0.066201
0.0674767
0.0688338
0.0702814
0.0718266
0.0734768
0.075242
0.0771355
0.0791724
0.0813809
0.0838117
0.0864896
0.0894232
0.0926211
0.0960871
0.0998281
0.103846
0.108132
0.112673
0.117451
0.122436
0.127587
0.132855
0.138178
0.143514
0.148788
0.153987
0.158982
0.163745
0.168242
0.172425
0.176285
0.179511
0.183221
0.189202
0.189935
0.0486892
0.049208
0.0497392
0.0502829
0.0508411
0.0514143
0.0520041
0.052611
0.0532365
0.0538808
0.0545456
0.0552316
0.0559412
0.0566757
0.0574376
0.0582294
0.0590553
0.059917
0.0608185
0.0617642
0.0627585
0.0638042
0.0649091
0.0660762
0.0673125
0.0686261
0.0700239
0.0715154
0.073108
0.0748091
0.0766298
0.0785831
0.0806844
0.0829655
0.085475
0.0882416
0.0912745
0.0945837
0.0981743
0.102055
0.106229
0.11069
0.115426
0.12042
0.125641
0.131051
0.136597
0.142214
0.147855
0.153441
0.158955
0.164265
0.169338
0.174134
0.178599
0.18272
0.186173
0.190101
0.196207
0.197008
0.0492947
0.0498255
0.0503692
0.0509253
0.0514961
0.0520821
0.0526847
0.0533045
0.0539433
0.0546012
0.0552805
0.0559816
0.0567077
0.0574593
0.05824
0.0590516
0.059899
0.0607832
0.0617091
0.0626805
0.0637025
0.0647778
0.0659144
0.0671156
0.0683886
0.0697417
0.071182
0.0727194
0.0743613
0.076116
0.077994
0.0800098
0.0821799
0.0845339
0.0871265
0.0899849
0.0931205
0.0965451
0.100265
0.10429
0.108626
0.113268
0.118204
0.12342
0.128885
0.13456
0.140389
0.146305
0.152255
0.158157
0.163984
0.169618
0.175012
0.180114
0.184863
0.189243
0.19292
0.197055
0.203279
0.204143
0.0498913
0.0504298
0.0509805
0.0515439
0.0521224
0.0527169
0.0533289
0.0539595
0.0546101
0.0552813
0.0559744
0.0566909
0.0574327
0.0582018
0.0590005
0.0598318
0.0606999
0.0616069
0.0625569
0.0635547
0.0646051
0.0657109
0.0668806
0.0681173
0.0694284
0.0708226
0.0723072
0.0738923
0.0755856
0.0773954
0.0793335
0.081414
0.0836537
0.0860858
0.0887631
0.0917166
0.0949583
0.0985018
0.102354
0.106528
0.111031
0.115858
0.121001
0.126444
0.132159
0.138104
0.144224
0.150447
0.156713
0.162938
0.169089
0.175053
0.180774
0.186191
0.191229
0.195869
0.199767
0.204106
0.210441
0.211372
0.0503414
0.0508935
0.0514595
0.052039
0.0526344
0.053246
0.0538757
0.0545238
0.0551926
0.0558817
0.0565938
0.0573293
0.0580917
0.0588814
0.0597025
0.0605564
0.0614492
0.0623814
0.0633585
0.0643846
0.0654654
0.0666033
0.0678075
0.0690811
0.0704318
0.0718685
0.0733988
0.0750332
0.0767794
0.0786466
0.0806459
0.0827933
0.0851064
0.0876164
0.0903821
0.0934334
0.0967845
0.100451
0.104441
0.108768
0.113443
0.118461
0.123816
0.129494
0.135465
0.141688
0.148104
0.154642
0.161228
0.167783
0.174257
0.180562
0.186621
0.192357
0.197686
0.202585
0.2067
0.21123
0.217668
0.218662
0.0507974
0.0513598
0.0519361
0.0525265
0.0531334
0.0537574
0.0544003
0.0550629
0.0557468
0.0564523
0.0571812
0.0579346
0.0587153
0.0595247
0.0603659
0.0612418
0.0621574
0.0631145
0.0641179
0.0651727
0.0662843
0.0674553
0.0686951
0.0700068
0.0713984
0.0728792
0.0744566
0.0761417
0.0779425
0.0798681
0.081931
0.0841466
0.0865333
0.0891258
0.091981
0.0951329
0.0985965
0.102389
0.10652
0.111005
0.115857
0.121072
0.126644
0.132562
0.138797
0.145305
0.152025
0.158884
0.165801
0.172696
0.179504
0.186155
0.192558
0.19862
0.204246
0.209405
0.213733
0.21845
0.224985
0.226046
0.0511727
0.0517477
0.0523373
0.0529415
0.0535626
0.0542014
0.0548595
0.0555375
0.0562376
0.0569597
0.0577065
0.0584786
0.0592796
0.0601101
0.0609743
0.0618742
0.0628158
0.0638
0.0648325
0.0659178
0.067062
0.0682675
0.0695442
0.0708954
0.0723291
0.073855
0.0754808
0.0772178
0.0790742
0.0810599
0.0831868
0.0854724
0.0879359
0.0906099
0.093558
0.0968129
0.100392
0.104314
0.108591
0.113239
0.118272
0.12369
0.129487
0.135652
0.142157
0.148958
0.15599
0.163179
0.170433
0.177674
0.184819
0.191829
0.198584
0.204977
0.210899
0.216315
0.220851
0.225744
0.232366
0.23349
0.0515518
0.0521346
0.0527316
0.0533438
0.0539736
0.0546223
0.0552915
0.0559824
0.0566966
0.0574348
0.0581984
0.058989
0.0598092
0.0606607
0.0615465
0.06247
0.0634363
0.0644473
0.0655081
0.0666242
0.0678013
0.069042
0.0703565
0.0717481
0.0732249
0.0747971
0.0764723
0.0782621
0.0801752
0.0822215
0.0844143
0.0867707
0.0893106
0.0920706
0.0951122
0.0984727
0.10217
0.106226
0.110651
0.115466
0.120686
0.126311
0.132339
0.138758
0.14554
0.152641
0.159994
0.167523
0.175124
0.182724
0.190218
0.197592
0.204705
0.211434
0.217655
0.223328
0.228069
0.233133
0.239837
0.241026
0.0517881
0.0523855
0.0529991
0.0536289
0.0542775
0.0549453
0.0556344
0.0563452
0.0570802
0.0578388
0.0586243
0.0594367
0.0602806
0.0611559
0.0620675
0.0630171
0.0640118
0.0650518
0.0661436
0.0672921
0.0685037
0.0697807
0.0711342
0.072567
0.0740878
0.0757071
0.0774324
0.0792759
0.0812462
0.0833542
0.085613
0.0880415
0.0906608
0.0935055
0.0966437
0.100112
0.10393
0.108122
0.1127
0.117687
0.123099
0.128938
0.135203
0.141883
0.148951
0.156361
0.164043
0.17192
0.179878
0.187845
0.195694
0.203443
0.21092
0.217987
0.224507
0.230433
0.235371
0.240593
0.24737
0.24862
0.0520546
0.0526626
0.053287
0.0539284
0.0545891
0.0552702
0.0559735
0.0566999
0.0574514
0.058228
0.059032
0.0598644
0.0607287
0.0616261
0.0625605
0.0635348
0.0645554
0.0656236
0.0667454
0.0679263
0.0691725
0.0704866
0.0718797
0.0733547
0.0749202
0.0765872
0.0783633
0.0802609
0.0822892
0.0844591
0.0867853
0.0892864
0.0919848
0.0949182
0.0981533
0.101731
0.105673
0.110004
0.114738
0.1199
0.125509
0.131567
0.138075
0.145023
0.152384
0.160112
0.168133
0.176368
0.184695
0.193043
0.201262
0.209388
0.217235
0.224643
0.231464
0.23764
0.242772
0.248148
0.25499
0.256304
0.0522462
0.0528666
0.0535043
0.0541595
0.0548348
0.0555311
0.0562503
0.0569933
0.0577624
0.0585576
0.0593817
0.0602354
0.061123
0.0620448
0.0630058
0.0640079
0.0650586
0.066158
0.0673129
0.0685284
0.0698113
0.0711637
0.0725974
0.0741152
0.0757259
0.0774409
0.0792678
0.0812198
0.083306
0.0855387
0.087932
0.0905069
0.0932868
0.096307
0.0996418
0.103331
0.107398
0.111872
0.116766
0.122108
0.127918
0.134203
0.140961
0.148185
0.155848
0.163902
0.172271
0.180874
0.18958
0.198317
0.206915
0.215431
0.22365
0.2314
0.238518
0.24494
0.250257
0.255772
0.262671
0.264044
0.0524202
0.0530484
0.0536943
0.0543594
0.0550462
0.0557562
0.0564909
0.0572518
0.0580403
0.058857
0.0597036
0.0605816
0.0614938
0.0624422
0.0634301
0.0644609
0.065541
0.0666718
0.0678593
0.0691094
0.0704287
0.0718194
0.0732935
0.0748539
0.0765095
0.078272
0.0801495
0.0821554
0.0842995
0.0865943
0.0890555
0.091704
0.094564
0.0976755
0.10111
0.104912
0.109107
0.113725
0.118783
0.124308
0.130326
0.136841
0.143856
0.151364
0.159337
0.167726
0.176454
0.185435
0.194533
0.203673
0.212665
0.221572
0.230169
0.238262
0.245678
0.252342
0.257839
0.263488
0.270436
0.271872
0.0524046
0.0530571
0.0537328
0.05443
0.0551505
0.0558933
0.0566609
0.0574527
0.0582721
0.0591177
0.059994
0.0609
0.0618421
0.0628191
0.0638376
0.0648985
0.0660107
0.0671734
0.0683944
0.0696787
0.0710339
0.0724618
0.0739752
0.0755767
0.0772757
0.0790845
0.081011
0.0830699
0.0852707
0.0876274
0.0901554
0.0928779
0.0958207
0.099021
0.102558
0.106475
0.110801
0.115566
0.12079
0.126504
0.132735
0.139488
0.146768
0.154567
0.162859
0.171593
0.18069
0.19006
0.19956
0.209113
0.218507
0.227817
0.236793
0.245228
0.252937
0.259836
0.265502
0.271271
0.27826
0.279751
0.0528491
0.0534965
0.0541617
0.054847
0.0555551
0.0562886
0.0570486
0.0578374
0.0586562
0.0595058
0.0603878
0.061304
0.0622576
0.06325
0.0642853
0.0653663
0.0665005
0.0676882
0.0689361
0.0702501
0.071637
0.0730987
0.0746483
0.0762882
0.0780281
0.0798808
0.0818544
0.0839642
0.0862206
0.0886376
0.0912327
0.0940286
0.0970526
0.100346
0.103986
0.10802
0.112477
0.117393
0.122788
0.128694
0.135142
0.14214
0.149691
0.157791
0.16641
0.175499
0.184975
0.194745
0.204659
0.214637
0.224447
0.234163
0.243522
0.252301
0.260301
0.267432
0.273262
0.279144
0.286165
0.287714
0.0529095
0.0535804
0.0542751
0.0549923
0.0557343
0.0565002
0.0572924
0.0581104
0.0589578
0.0598331
0.0607411
0.0616808
0.0626589
0.0636744
0.0647342
0.065839
0.0669985
0.0682114
0.0694859
0.0708272
0.0722431
0.0737352
0.0753173
0.0769919
0.0787691
0.0806624
0.0826801
0.0848385
0.0871482
0.0896247
0.0922851
0.0951546
0.0982621
0.101646
0.105392
0.109544
0.114137
0.119207
0.124776
0.13088
0.137553
0.144802
0.152633
0.161041
0.169999
0.179453
0.189318
0.199498
0.209837
0.220249
0.230484
0.240615
0.250359
0.25948
0.267766
0.275119
0.2811
0.287082
0.294125
0.295724
0.0535131
0.0541791
0.0548618
0.0555643
0.0562898
0.0570409
0.0578194
0.0586275
0.0594668
0.0603381
0.0612433
0.0621842
0.0631646
0.0641859
0.0652525
0.0663676
0.0675389
0.0687669
0.0700583
0.0714195
0.0728575
0.0743742
0.0759836
0.0776883
0.0794985
0.0814285
0.0834872
0.0856911
0.0880522
0.0905859
0.0933112
0.0962532
0.099442
0.102922
0.106773
0.111046
0.115776
0.121004
0.126751
0.133059
0.139961
0.147469
0.155587
0.164313
0.173618
0.183447
0.193713
0.204314
0.215089
0.225947
0.236618
0.247167
0.257301
0.266765
0.275335
0.282905
0.289032
0.295106
0.302164
0.303816
0.0536974
0.0543923
0.0551097
0.0558479
0.0566097
0.0573938
0.0582034
0.0590378
0.0599012
0.0607923
0.061716
0.062672
0.0636674
0.0647018
0.0657822
0.0669102
0.0680955
0.0693374
0.070644
0.0720214
0.0734773
0.0750139
0.0766456
0.0783755
0.0802142
0.0821768
0.0842725
0.0865191
0.0889284
0.0915178
0.0943058
0.0973199
0.100593
0.104165
0.108125
0.112522
0.117394
0.122783
0.128714
0.135231
0.142371
0.150146
0.158561
0.167615
0.177278
0.187492
0.198169
0.209202
0.220422
0.231736
0.24285
0.253826
0.264351
0.274156
0.283004
0.290781
0.29704
0.303192
0.310254
0.311952
0.0544821
0.0551734
0.055878
0.0565983
0.0573387
0.0581018
0.05889
0.0597061
0.0605521
0.0614293
0.06234
0.0632868
0.0642736
0.0653026
0.0663784
0.0675051
0.0686905
0.0699357
0.0712474
0.0726331
0.0740998
0.0756501
0.0772986
0.0790487
0.0809113
0.0829024
0.0850314
0.0873173
0.0897726
0.0924151
0.0952654
0.0983507
0.101705
0.105376
0.109446
0.113969
0.118985
0.12454
0.13066
0.137393
0.144777
0.152826
0.161547
0.170938
0.180968
0.19158
0.202678
0.214154
0.225831
0.237609
0.249177
0.260583
0.271504
0.281652
0.290776
0.298753
0.305138
0.311361
0.318421
0.320168
0.0548508
0.0555603
0.0562856
0.0570266
0.0577883
0.0585704
0.0593772
0.0602087
0.0610697
0.0619588
0.0628814
0.063837
0.064833
0.0658691
0.0669523
0.0680849
0.0692766
0.0705275
0.0718454
0.073238
0.074713
0.0762734
0.0779348
0.0797009
0.0815832
0.083599
0.0857579
0.0880801
0.0905788
0.0932733
0.0961837
0.0993404
0.10278
0.106545
0.110729
0.115382
0.120546
0.126273
0.132588
0.139544
0.147181
0.155514
0.164551
0.17429
0.1847
0.195719
0.207251
0.21918
0.231323
0.243574
0.255601
0.267445
0.278765
0.289253
0.298645
0.306812
0.31331
0.31959
0.326637
0.328427
0.0553696
0.0560945
0.0568339
0.0575872
0.0583598
0.0591516
0.0599666
0.0608054
0.0616716
0.0625648
0.0634888
0.0644453
0.0654396
0.0664737
0.0675531
0.0686826
0.0698709
0.0711197
0.0724365
0.0738302
0.0753082
0.0768743
0.0785445
0.080323
0.0822216
0.0842587
0.0864448
0.0888008
0.0913411
0.0940853
0.0970561
0.100283
0.103805
0.107672
0.11197
0.116755
0.122073
0.127976
0.134493
0.141678
0.149576
0.158202
0.167564
0.177661
0.188461
0.1999
0.211876
0.224269
0.236888
0.249622
0.262116
0.274402
0.286125
0.296956
0.306614
0.314965
0.321568
0.327899
0.33493
0.336768
0.0558737
0.0566105
0.0573604
0.0581233
0.0589034
0.0597011
0.0605202
0.0613615
0.0622295
0.0631235
0.0640485
0.0650049
0.0659999
0.0670339
0.0681138
0.0692429
0.0704312
0.0716796
0.0729963
0.0743906
0.0758704
0.0774401
0.0791164
0.0809045
0.0828166
0.0848726
0.0870833
0.0894712
0.092051
0.0948446
0.097874
0.101172
0.104781
0.108746
0.113163
0.118085
0.123561
0.129646
0.136372
0.143796
0.151964
0.160894
0.170593
0.18106
0.192263
0.204133
0.216565
0.229433
0.242537
0.25576
0.268729
0.281464
0.293592
0.304761
0.314678
0.3232
0.329896
0.336265
0.343271
0.345152
0.0564728
0.0572145
0.0579676
0.0587321
0.0595128
0.0603107
0.0611289
0.0619689
0.0628339
0.0637243
0.064643
0.065593
0.066579
0.0676041
0.0686735
0.069793
0.0709716
0.072212
0.0735217
0.0749113
0.0763886
0.0779585
0.0796383
0.0814335
0.083357
0.0854299
0.0876635
0.0900817
0.0927005
0.0955422
0.0986315
0.102001
0.105695
0.109766
0.114303
0.119365
0.125004
0.131278
0.138221
0.14589
0.154338
0.16358
0.173626
0.184475
0.196091
0.208405
0.221305
0.234659
0.248257
0.261979
0.275429
0.288618
0.301155
0.312666
0.322838
0.331526
0.338307
0.344709
0.351689
0.353618
0.0569903
0.0577349
0.0584893
0.0592542
0.0600337
0.0608289
0.0616434
0.0624788
0.0633392
0.0642243
0.0651388
0.0660836
0.0670657
0.0680863
0.069152
0.0702671
0.0714416
0.0726774
0.0739828
0.075369
0.0768439
0.0784134
0.0800955
0.0818966
0.0838302
0.0859189
0.0881747
0.0906229
0.0932802
0.0961711
0.09932
0.102763
0.106548
0.110721
0.115385
0.120592
0.1264
0.13287
0.140036
0.147961
0.1567
0.166267
0.176672
0.187915
0.199958
0.212728
0.226108
0.239958
0.25406
0.268286
0.282224
0.295874
0.308823
0.320671
0.33109
0.339931
0.346785
0.353207
0.360155
0.362129
0.0575435
0.0582882
0.0590407
0.0598017
0.0605762
0.0613656
0.0621732
0.0630012
0.0638526
0.0647283
0.0656309
0.0665641
0.0675323
0.0685396
0.0695905
0.0706924
0.0718537
0.0730784
0.0743739
0.0757527
0.0772226
0.07879
0.0804733
0.0822797
0.0842232
0.0863276
0.0886057
0.0910843
0.0937813
0.0967219
0.0999334
0.103452
0.107326
0.111612
0.116402
0.121759
0.127742
0.134415
0.141813
0.150003
0.15904
0.168942
0.179718
0.191367
0.20385
0.217089
0.23096
0.245319
0.259932
0.27467
0.289103
0.303219
0.316584
0.328772
0.339434
0.348422
0.355342
0.361781
0.368698
0.370722
0.0579516
0.0586971
0.0594483
0.0602067
0.0609766
0.0617595
0.0625594
0.0633784
0.0642207
0.0650867
0.0659807
0.0669046
0.067865
0.0688641
0.0699081
0.0710026
0.0721573
0.0733753
0.0746648
0.0760387
0.0775051
0.0790714
0.0807567
0.082569
0.0845229
0.086644
0.0889455
0.0914558
0.0941937
0.0971867
0.100462
0.104059
0.10803
0.112426
0.117351
0.122864
0.129027
0.135911
0.14355
0.152014
0.161363
0.171612
0.182772
0.194841
0.207777
0.221499
0.235875
0.250752
0.265887
0.28114
0.296076
0.310667
0.324448
0.336971
0.347866
0.356988
0.363963
0.370408
0.377288
0.379361
0.0583197
0.0590637
0.0598115
0.0605644
0.0613277
0.0621033
0.0628948
0.0637051
0.064537
0.0653921
0.0662729
0.0671839
0.0681293
0.069114
0.0701423
0.0712228
0.0723638
0.0735705
0.07485
0.0762169
0.0776789
0.0792441
0.080932
0.0827513
0.0847171
0.0868565
0.0891832
0.0917274
0.0945089
0.0975563
0.1009
0.104578
0.108647
0.113164
0.118226
0.123899
0.130251
0.137352
0.145241
0.153988
0.163658
0.174266
0.185822
0.198322
0.211726
0.225942
0.240838
0.256243
0.27191
0.287684
0.30313
0.3182
0.332404
0.345261
0.356387
0.365636
0.372661
0.37911
0.385955
0.388085
0.058471
0.0592153
0.059962
0.060713
0.0614727
0.0622432
0.0630284
0.0638313
0.0646558
0.0655029
0.0663766
0.0672796
0.0682184
0.069196
0.0702185
0.0712925
0.072428
0.0736292
0.0749041
0.0762676
0.0777282
0.0792946
0.0809873
0.0828155
0.0847953
0.0869552
0.0893097
0.0918905
0.0947184
0.0978243
0.101238
0.105003
0.109178
0.113814
0.119021
0.124862
0.131409
0.138737
0.146884
0.155926
0.165929
0.176909
0.188874
0.201822
0.215707
0.230433
0.245861
0.261806
0.278015
0.29431
0.310277
0.325834
0.34046
0.353645