/*--------------------------------*- C++ -*----------------------------------*\
  =========                 |
  \\      /  F ield         | OpenFOAM: The Open Source CFD Toolbox
   \\    /   O peration     | Website:  https://openfoam.org
    \\  /    A nd           | Version:  6.0
     \\/     M anipulation  |
\*---------------------------------------------------------------------------*/
FoamFile
{
    version     2.0;
    format      ascii;
    class       surfaceScalarField;
    location    "8";
    object      phi;
}
// * * * * * * * * * * * * * * * * * * * * * * * * * * * * * * * * * * * * * //

dimensions      [0 3 -1 0 0 0 0];

internalField   nonuniform List<scalar> 
123526
(
-5.47811e-05
2.30619e-05
5.51476e-05
-5.43781e-05
2.49383e-05
-5.39311e-05
2.69676e-05
-5.34522e-05
2.91625e-05
-5.29228e-05
3.15365e-05
-5.23551e-05
3.41044e-05
-5.17299e-05
3.68823e-05
-5.10582e-05
3.98876e-05
-5.03204e-05
4.31381e-05
-4.95263e-05
4.66551e-05
-4.86588e-05
5.04612e-05
-4.77249e-05
5.45797e-05
-4.67085e-05
5.90365e-05
-4.56114e-05
6.38569e-05
-4.44179e-05
6.90728e-05
-4.31321e-05
7.47209e-05
-4.174e-05
8.08337e-05
-4.02327e-05
8.74424e-05
-3.85985e-05
9.45976e-05
-3.6836e-05
0.000102346
-3.49229e-05
0.000110723
-3.28506e-05
0.000119789
-3.06119e-05
0.000129608
-2.81771e-05
0.000140217
-2.55445e-05
0.000151709
-2.26894e-05
0.000164135
-1.95933e-05
0.000177574
-1.62402e-05
0.000192115
-1.25997e-05
0.000207824
-8.65747e-06
0.000224816
-4.37802e-06
0.00024316
2.55697e-07
0.000262979
5.27873e-06
0.000284358
1.07219e-05
0.000307407
1.66201e-05
0.000332238
2.30258e-05
0.000358936
2.99672e-05
0.000387628
3.74932e-05
0.000418389
4.56531e-05
0.000451297
5.44852e-05
0.000486424
6.40348e-05
0.000523791
7.43486e-05
0.000563385
8.5457e-05
0.000605157
9.73825e-05
0.000648978
0.000110138
0.000694632
0.000123721
0.000741786
0.000138124
0.000789948
0.000153325
0.000838403
0.00016931
0.000886126
0.000186064
0.000931671
0.000203553
0.000973043
0.000221736
0.00100757
0.000240469
0.00103184
0.00025957
0.00104156
0.000278699
0.00103158
0.0002974
0.000995755
0.000315095
0.000926544
0.000330973
0.000815001
0.000344362
0.000640763
0.000388008
0.000339052
-5.35118e-05
2.26837e-05
5.38768e-05
-5.31178e-05
2.4532e-05
-5.26857e-05
2.65309e-05
-5.22267e-05
2.86926e-05
-5.17238e-05
3.10306e-05
-5.11881e-05
3.3559e-05
-5.06018e-05
3.62937e-05
-4.99737e-05
3.92517e-05
-4.92859e-05
4.24497e-05
-4.85453e-05
4.5909e-05
-4.77364e-05
4.96526e-05
-4.68631e-05
5.37028e-05
-4.5911e-05
5.8085e-05
-4.48787e-05
6.28218e-05
-4.37515e-05
6.79458e-05
-4.25313e-05
7.34976e-05
-4.12047e-05
7.9506e-05
-3.97612e-05
8.5995e-05
-3.81894e-05
9.30234e-05
-3.6487e-05
0.000100639
-3.46318e-05
0.000108864
-3.26149e-05
0.000117767
-3.04289e-05
0.000127418
-2.8045e-05
0.000137828
-2.54603e-05
0.00014912
-2.26516e-05
0.000161322
-1.9599e-05
0.000174517
-1.62881e-05
0.000188799
-1.26872e-05
0.000204218
-8.78361e-06
0.000220908
-4.53966e-06
0.000238912
6.1096e-08
0.000258374
5.0531e-06
0.000279358
1.0467e-05
0.000301984
1.63326e-05
0.000326361
2.26993e-05
0.000352558
2.95916e-05
0.000380725
3.7053e-05
0.000410915
4.51268e-05
0.000443211
5.38435e-05
0.000477694
6.32405e-05
0.000514379
7.33554e-05
0.000553255
8.42117e-05
0.000594284
9.5828e-05
0.000637343
0.000108218
0.000682223
0.00012139
0.000728595
0.00013535
0.000775972
0.000150104
0.000823637
0.000165663
0.000870564
0.000182037
0.000915308
0.000199206
0.000955887
0.000217134
0.000989676
0.000235664
0.00101331
0.000254595
0.00102262
0.000273561
0.00101258
0.000292096
0.000977205
0.000309563
0.000909062
0.00032547
0.000799078
0.00033548
0.000630763
0.000392944
0.000330555
-5.2285e-05
2.23066e-05
5.26494e-05
-5.18911e-05
2.41265e-05
-5.14596e-05
2.6095e-05
-5.10015e-05
2.82243e-05
-5.05014e-05
3.05275e-05
-4.99701e-05
3.30187e-05
-4.93916e-05
3.57131e-05
-4.87748e-05
3.86273e-05
-4.81029e-05
4.17768e-05
-4.73829e-05
4.51831e-05
-4.66002e-05
4.88693e-05
-4.57582e-05
5.28564e-05
-4.48429e-05
5.71692e-05
-4.38522e-05
6.18274e-05
-4.27718e-05
6.68644e-05
-4.1602e-05
7.23242e-05
-4.03299e-05
7.8232e-05
-3.89435e-05
8.46045e-05
-3.74317e-05
9.15089e-05
-3.57908e-05
9.89932e-05
-3.39988e-05
0.000107069
-3.20461e-05
0.00011581
-2.99251e-05
0.000125293
-2.76068e-05
0.000135506
-2.5088e-05
0.000146596
-2.23461e-05
0.000158576
-1.93607e-05
0.000171527
-1.61182e-05
0.000185552
-1.25867e-05
0.000200682
-8.75389e-06
0.00021707
-4.58222e-06
0.000234737
-5.56677e-08
0.000253843
4.85986e-06
0.000274437
1.01896e-05
0.000296645
1.59624e-05
0.000320578
2.22233e-05
0.000346287
2.89937e-05
0.000373944
3.63137e-05
0.000403585
4.42226e-05
0.000435291
5.27478e-05
0.000469157
6.19232e-05
0.000505193
7.17847e-05
0.000543383
8.23563e-05
0.000583702
9.36605e-05
0.00062603
0.00010572
0.000670156
0.000118554
0.000715756
0.000132187
0.000762337
0.000146641
0.000809184
0.000161941
0.000855267
0.000178105
0.000899153
0.000195108
0.000938884
0.0002129
0.000971885
0.000231304
0.000994879
0.000250099
0.00100382
0.000268901
0.000993761
0.000287244
0.000958859
0.000304429
0.000891863
0.00032017
0.000783341
0.000330789
0.000620138
0.000392816
0.000330931
-5.17481e-05
2.19325e-05
5.21136e-05
-5.13522e-05
2.37213e-05
-5.09166e-05
2.56566e-05
-5.04514e-05
2.77507e-05
-4.9942e-05
3.00165e-05
-4.93987e-05
3.24679e-05
-4.88069e-05
3.51201e-05
-4.81749e-05
3.79893e-05
-4.7488e-05
4.10899e-05
-4.67524e-05
4.44436e-05
-4.5956e-05
4.80736e-05
-4.51017e-05
5.19998e-05
-4.41781e-05
5.62464e-05
-4.31822e-05
6.083e-05
-4.21021e-05
6.57845e-05
-4.09373e-05
7.11574e-05
-3.96763e-05
7.697e-05
-3.83065e-05
8.32318e-05
-3.68177e-05
9.00179e-05
-3.52053e-05
9.7377e-05
-3.34479e-05
0.000105308
-3.1535e-05
0.000113893
-2.94591e-05
0.000123213
-2.71911e-05
0.000133234
-2.47275e-05
0.000144129
-2.20456e-05
0.00015589
-1.91252e-05
0.000168602
-1.59527e-05
0.000182375
-1.24965e-05
0.000197221
-8.74463e-06
0.000213314
-4.65988e-06
0.000230648
-2.26417e-07
0.000249406
4.58644e-06
0.000269616
9.80482e-06
0.000291418
1.54535e-05
0.00031492
2.15768e-05
0.000340154
2.81942e-05
0.000367317
3.53442e-05
0.000396425
4.3065e-05
0.00042756
5.13832e-05
0.000460828
6.03332e-05
0.000496231
6.99524e-05
0.000533751
8.02682e-05
0.000573372
9.13089e-05
0.000614974
0.000103105
0.000658343
0.000115685
0.000703155
0.000129084
0.000748919
0.000143332
0.000794916
0.000158458
0.000840125
0.000174475
0.000883126
0.000191351
0.000921997
0.000209018
0.000954218
0.000227285
0.000976583
0.000245914
0.000985152
0.000264517
0.000975113
0.000282627
0.00094072
0.000299516
0.00087495
0.000314907
0.000767929
0.000326751
0.000608299
0.000389103
0.000330478
-5.16083e-05
2.15603e-05
5.19671e-05
-5.1215e-05
2.33166e-05
-5.07802e-05
2.5217e-05
-5.03131e-05
2.72737e-05
-4.97994e-05
2.94995e-05
-4.92487e-05
3.19083e-05
-4.86462e-05
3.45153e-05
-4.80009e-05
3.73366e-05
-4.72976e-05
4.03854e-05
-4.65439e-05
4.36842e-05
-4.57274e-05
4.72562e-05
-4.48524e-05
5.11205e-05
-4.39072e-05
5.53006e-05
-4.28912e-05
5.98104e-05
-4.17922e-05
6.46844e-05
-4.06114e-05
6.99733e-05
-3.93378e-05
7.56946e-05
-3.796e-05
8.18505e-05
-3.64685e-05
8.85238e-05
-3.4859e-05
9.57638e-05
-3.31111e-05
0.000103557
-3.12144e-05
0.000111993
-2.91617e-05
0.000121157
-2.69239e-05
0.000130992
-2.44978e-05
0.000141699
-2.18604e-05
0.000153249
-1.89919e-05
0.000165729
-1.58787e-05
0.000179258
-1.24895e-05
0.000193827
-8.81238e-06
0.000209633
-4.8111e-06
0.000226644
-4.71033e-07
0.000245062
4.2397e-06
0.000264901
9.34305e-06
0.000286306
1.48662e-05
0.000309388
2.08509e-05
0.00033416
2.73167e-05
0.000360842
3.43014e-05
0.000389431
4.1843e-05
0.000420009
4.99689e-05
0.000452694
5.87148e-05
0.000487477
6.81202e-05
0.000524338
7.82163e-05
0.00056327
8.9036e-05
0.000604149
0.000100615
0.00064676
0.00011299
0.000690778
0.000126199
0.00073571
0.000140275
0.000780841
0.000155247
0.000825155
0.000171122
0.000867255
0.000187857
0.000905257
0.000205371
0.000936699
0.000223462
0.000958469
0.000241886
0.000966725
0.000260252
0.000956736
0.000278096
0.000922875
0.000294697
0.000858342
0.000309653
0.000752981
0.000321897
0.000596056
0.000383707
0.000327312
-5.14846e-05
2.11947e-05
5.18415e-05
-5.10958e-05
2.29191e-05
-5.06667e-05
2.47849e-05
-5.0205e-05
2.68041e-05
-4.96969e-05
2.89894e-05
-4.91504e-05
3.13548e-05
-4.85517e-05
3.39151e-05
-4.79074e-05
3.66867e-05
-4.7204e-05
3.96819e-05
-4.6447e-05
4.29235e-05
-4.56255e-05
4.64353e-05
-4.47424e-05
5.02354e-05
-4.37883e-05
5.43473e-05
-4.27609e-05
5.8782e-05
-4.16507e-05
6.35746e-05
-4.04581e-05
6.87792e-05
-3.91741e-05
7.44098e-05
-3.77875e-05
8.04615e-05
-3.62901e-05
8.70245e-05
-3.4678e-05
9.41487e-05
-3.29323e-05
0.000101809
-3.10427e-05
0.0001101
-2.9003e-05
0.000119114
-2.67847e-05
0.000128771
-2.43849e-05
0.000139295
-2.17812e-05
0.000150641
-1.89541e-05
0.000162898
-1.58901e-05
0.00017619
-1.25587e-05
0.000190491
-8.94823e-06
0.000206019
-5.0231e-06
0.000222716
-7.68827e-07
0.000240804
3.84364e-06
0.000260281
8.84027e-06
0.000281302
1.42446e-05
0.000303975
2.00997e-05
0.000328297
2.64247e-05
0.000354509
3.32576e-05
0.00038259
4.06366e-05
0.000412622
4.859e-05
0.000444732
5.71549e-05
0.000478903
6.63731e-05
0.00051511
7.62785e-05
0.000553353
8.69076e-05
0.000593508
9.83e-05
0.000635354
0.000110495
0.000678567
0.000123534
0.000722656
0.000137449
0.000766908
0.000152266
0.000810323
0.000167984
0.000851526
0.000184553
0.000888675
0.000201881
0.000919369
0.000219761
0.000940564
0.000237942
0.000948513
0.000256039
0.000938603
0.000273594
0.0009053
0.00028991
0.000842011
0.000304426
0.000738452
0.000316393
0.000584104
0.000377841
0.000322286
-5.12147e-05
2.08369e-05
5.15615e-05
-5.08356e-05
2.25305e-05
-5.04174e-05
2.43629e-05
-4.99673e-05
2.63457e-05
-4.94719e-05
2.84914e-05
-4.89383e-05
3.08138e-05
-4.83528e-05
3.33279e-05
-4.77218e-05
3.60496e-05
-4.70312e-05
3.89905e-05
-4.62864e-05
4.21738e-05
-4.54759e-05
4.5624e-05
-4.46025e-05
4.93584e-05
-4.3656e-05
5.34002e-05
-4.2635e-05
5.77579e-05
-4.15293e-05
6.24677e-05
-4.03399e-05
6.75868e-05
-3.9058e-05
7.31261e-05
-3.76732e-05
7.90736e-05
-3.61781e-05
8.55271e-05
-3.45696e-05
9.2537e-05
-3.28297e-05
0.000100066
-3.0949e-05
0.000108216
-2.89222e-05
0.000117084
-2.67215e-05
0.000126567
-2.43449e-05
0.000136915
-2.17706e-05
0.000148064
-1.89797e-05
0.000160104
-1.59594e-05
0.000173165
-1.26796e-05
0.000187208
-9.12924e-06
0.000202465
-5.27369e-06
0.000218857
-1.09974e-06
0.000236626
3.42423e-06
0.000255753
8.32035e-06
0.000276398
1.36157e-05
0.000298672
1.93518e-05
0.000322554
2.55483e-05
0.000348305
3.22436e-05
0.000375888
3.94763e-05
0.000405382
4.72757e-05
0.000436926
5.56801e-05
0.000470493
6.47329e-05
0.000506052
7.44701e-05
0.000543613
8.49306e-05
0.000583045
9.61561e-05
0.000624129
0.000108187
0.000666537
0.000121065
0.000709781
0.00013482
0.000753156
0.000149473
0.000795674
0.000165018
0.000835988
0.000181396
0.000872294
0.000198508
0.000902256
0.000216145
0.000922915
0.000234054
0.000930607
0.000251858
0.000920798
0.000269103
0.000888064
0.000285129
0.000825987
0.000299237
0.000724359
0.00031067
0.00057268
0.000372026
0.000316511
-5.07816e-05
2.049e-05
5.11226e-05
-5.04122e-05
2.21544e-05
-5.0006e-05
2.39548e-05
-4.95693e-05
2.59027e-05
-4.90896e-05
2.80105e-05
-4.85729e-05
3.02915e-05
-4.80065e-05
3.27606e-05
-4.73949e-05
3.54335e-05
-4.67255e-05
3.8321e-05
-4.60011e-05
4.14467e-05
-4.5212e-05
4.48355e-05
-4.43587e-05
4.85039e-05
-4.34328e-05
5.2475e-05
-4.24304e-05
5.6755e-05
-4.13432e-05
6.13808e-05
-4.01705e-05
6.64132e-05
-3.8905e-05
7.18598e-05
-3.75353e-05
7.77021e-05
-3.60554e-05
8.40454e-05
-3.44617e-05
9.09406e-05
-3.27374e-05
9.83391e-05
-3.08736e-05
0.000106349
-2.88656e-05
0.000115073
-2.6687e-05
0.000124385
-2.4336e-05
0.000134561
-2.17919e-05
0.000145516
-1.90366e-05
0.000157345
-1.6058e-05
0.000170183
-1.28269e-05
0.000183973
-9.33282e-06
0.000198967
-5.54199e-06
0.000215064
-1.44107e-06
0.000232523
2.99864e-06
0.000251307
7.80438e-06
0.000271587
1.29995e-05
0.00029347
1.86272e-05
0.000316919
2.47074e-05
0.000342219
3.12785e-05
0.00036931
3.83797e-05
0.000398274
4.60412e-05
0.000429258
5.4302e-05
0.000462225
6.32068e-05
0.00049714
7.27928e-05
0.000534018
8.31001e-05
0.000572728
9.41711e-05
0.000613047
0.000106047
0.000654649
0.000118766
0.000697049
0.000132357
0.000739551
0.000146835
0.000781184
0.000162187
0.000820627
0.000178352
0.000856121
0.000195222
0.000885387
0.000212591
0.000905529
0.000230204
0.000912969
0.000247697
0.000903281
0.000264618
0.000871132
0.000280345
0.000810256
0.000294083
0.000710618
0.000304979
0.000561808
0.000366414
0.000310631
-5.02304e-05
2.01506e-05
5.05575e-05
-4.98723e-05
2.17868e-05
-4.94784e-05
2.35565e-05
-4.9055e-05
2.5471e-05
-4.85899e-05
2.75423e-05
-4.80894e-05
2.97836e-05
-4.75403e-05
3.22095e-05
-4.69484e-05
3.48355e-05
-4.62997e-05
3.76712e-05
-4.55985e-05
4.07408e-05
-4.48332e-05
4.40693e-05
-4.40058e-05
4.76727e-05
-4.31053e-05
5.15739e-05
-4.21298e-05
5.57764e-05
-4.10686e-05
6.03186e-05
-3.99224e-05
6.52642e-05
-3.86822e-05
7.0618e-05
-3.73379e-05
7.63551e-05
-3.58826e-05
8.2588e-05
-3.43135e-05
8.93686e-05
-3.26139e-05
9.66371e-05
-3.07755e-05
0.000104508
-2.87939e-05
0.000113088
-2.66436e-05
0.000122232
-2.43233e-05
0.000132238
-2.18131e-05
0.000143003
-1.90959e-05
0.000154624
-1.61598e-05
0.000167244
-1.2977e-05
0.000180786
-9.53722e-06
0.000195524
-5.808e-06
0.000211332
-1.77712e-06
0.000228489
2.58698e-06
0.00024694
7.30715e-06
0.000266859
1.24109e-05
0.00028836
1.79395e-05
0.000311385
2.39137e-05
0.000336238
3.0372e-05
0.000362846
3.73541e-05
0.000391287
4.48903e-05
0.000421717
5.30206e-05
0.000454091
6.17899e-05
0.000488368
7.12362e-05
0.00052457
8.13998e-05
0.000562564
9.23231e-05
0.000602125
0.000104046
0.000642928
0.000116604
0.000684494
0.000130024
0.000726136
0.000144315
0.000766898
0.000159458
0.000805489
0.000175389
0.000840191
0.000191998
0.00086878
0.000209079
0.000888443
0.000226382
0.000895672
0.000243551
0.000886119
0.00026014
0.000854556
0.000275558
0.000794846
0.000288959
0.000697234
0.000299409
0.00055137
0.000360955
0.000304892
-4.95916e-05
1.98205e-05
4.99153e-05
-4.92409e-05
2.14295e-05
-4.88564e-05
2.31698e-05
-4.84437e-05
2.50522e-05
-4.79914e-05
2.70886e-05
-4.75052e-05
2.9292e-05
-4.69732e-05
3.16764e-05
-4.63993e-05
3.42574e-05
-4.57715e-05
3.70434e-05
-4.50921e-05
4.00589e-05
-4.43513e-05
4.33292e-05
-4.3549e-05
4.68695e-05
-4.26766e-05
5.07022e-05
-4.17292e-05
5.48288e-05
-4.06984e-05
5.92882e-05
-3.95826e-05
6.41478e-05
-3.83742e-05
6.94091e-05
-3.70616e-05
7.5041e-05
-3.56388e-05
8.11635e-05
-3.41018e-05
8.78294e-05
-3.24349e-05
9.49679e-05
-3.06295e-05
0.0001027
-2.86815e-05
0.000111138
-2.6566e-05
0.000120114
-2.42821e-05
0.000129951
-2.18105e-05
0.000140529
-1.91347e-05
0.000151945
-1.62437e-05
0.000164349
-1.31101e-05
0.000177649
-9.72484e-06
0.000192136
-6.05573e-06
0.00020766
-2.09042e-06
0.000224521
2.1993e-06
0.000242645
6.84155e-06
0.000262213
1.18597e-05
0.000283336
1.72967e-05
0.000305942
2.31731e-05
0.000330357
2.95274e-05
0.000356487
3.63994e-05
0.00038441
4.38197e-05
0.000414291
5.18283e-05
0.000446077
6.04703e-05
0.00047972
6.97838e-05
0.000515249
7.98087e-05
0.000552531
9.05863e-05
0.000591337
0.000102155
0.000631349
0.000114548
0.00067209
0.000127787
0.000712884
0.000141879
0.000752796
0.0001568
0.000790561
0.000172482
0.000824502
0.000188814
0.000852451
0.000205595
0.00087165
0.000222577
0.000878672
0.000239415
0.000869264
0.00025567
0.000838298
0.000270775
0.000779743
0.000283864
0.00068415
0.000293968
0.000541296
0.000355628
0.000299344
-4.89027e-05
1.94963e-05
4.92174e-05
-4.85598e-05
2.10789e-05
-4.81838e-05
2.27906e-05
-4.77802e-05
2.4642e-05
-4.73386e-05
2.66446e-05
-4.68638e-05
2.88114e-05
-4.6345e-05
3.1156e-05
-4.57862e-05
3.36936e-05
-4.51755e-05
3.64319e-05
-4.45158e-05
3.93952e-05
-4.37967e-05
4.26093e-05
-4.30188e-05
4.60884e-05
-4.21722e-05
4.98548e-05
-4.12535e-05
5.39074e-05
-4.02525e-05
5.8286e-05
-3.91684e-05
6.30612e-05
-3.79926e-05
6.82316e-05
-3.6714e-05
7.37599e-05
-3.53259e-05
7.97734e-05
-3.38247e-05
8.63256e-05
-3.21944e-05
9.33352e-05
-3.04263e-05
0.000100929
-2.85167e-05
0.000109225
-2.64408e-05
0.000118035
-2.41978e-05
0.000127705
-2.17689e-05
0.000138097
-1.91382e-05
0.000149311
-1.62949e-05
0.000161503
-1.32127e-05
0.000174564
-9.88228e-06
0.000188803
-6.27297e-06
0.000204049
-2.37322e-06
0.000220619
1.84798e-06
0.000238421
6.41364e-06
0.000257641
1.13514e-05
0.000278393
1.6702e-05
0.000300587
2.24862e-05
0.000324568
2.87426e-05
0.000350226
3.55104e-05
0.000377638
4.28207e-05
0.000406977
5.07131e-05
0.000438182
5.92324e-05
0.000471199
6.84161e-05
0.000506065
7.83037e-05
0.000542644
8.8935e-05
0.000580708
0.000100346
0.000619941
0.000112568
0.000659872
0.000125619
0.000699838
0.000139501
0.000738919
0.000154188
0.00077588
0.00016961
0.000809082
0.000185655
0.000836409
0.000202128
0.000855177
0.000218784
0.000862023
0.00023529
0.000852769
0.000251211
0.000822391
0.000266003
0.000764962
0.000278801
0.000671368
0.000288638
0.000531472
0.000350327
0.00029396
-4.81767e-05
1.91799e-05
4.84895e-05
-4.78392e-05
2.07369e-05
-4.74706e-05
2.24207e-05
-4.70749e-05
2.42419e-05
-4.66429e-05
2.62119e-05
-4.61788e-05
2.83432e-05
-4.56729e-05
3.06493e-05
-4.51275e-05
3.31451e-05
-4.45329e-05
3.58372e-05
-4.38897e-05
3.87503e-05
-4.31903e-05
4.19103e-05
-4.24327e-05
4.53305e-05
-4.16101e-05
4.90327e-05
-4.07161e-05
5.30136e-05
-3.97434e-05
5.73135e-05
-3.86888e-05
6.20063e-05
-3.75455e-05
6.70875e-05
-3.63007e-05
7.25139e-05
-3.49486e-05
7.84198e-05
-3.34846e-05
8.48596e-05
-3.18931e-05
9.17414e-05
-3.01651e-05
9.91989e-05
-2.82967e-05
0.000107354
-2.62634e-05
0.000116
-2.40645e-05
0.000125503
-2.16815e-05
0.000135712
-1.90986e-05
0.000146726
-1.63055e-05
0.000158707
-1.32761e-05
0.000171532
-1.00022e-05
0.000185526
-6.45288e-06
0.000200498
-2.61641e-06
0.000216781
1.53464e-06
0.000234265
6.02841e-06
0.000253144
1.08879e-05
0.000273529
1.61553e-05
0.000295315
2.18511e-05
0.000318868
2.80131e-05
0.00034406
3.46806e-05
0.000370967
4.1884e-05
0.00039977
4.96628e-05
0.000430398
5.8061e-05
0.000462795
6.71156e-05
0.000497004
7.68648e-05
0.000532887
8.7347e-05
0.000570218
9.85961e-05
0.000608681
0.000110641
0.000647817
0.000123495
0.000686971
0.000137159
0.000725245
0.000151603
0.000761429
0.000166758
0.000793922
0.000182512
0.00082066
0.000198672
0.000839006
0.000215002
0.000845678
0.000231176
0.000836581
0.000246769
0.000806798
0.000261252
0.000750486
0.000273775
0.000658854
0.0002834
0.00052188
0.000345077
0.000288704
-4.74357e-05
1.88677e-05
4.77365e-05
-4.71063e-05
2.03993e-05
-4.67454e-05
2.20557e-05
-4.6358e-05
2.38473e-05
-4.59344e-05
2.57854e-05
-4.54796e-05
2.7882e-05
-4.49829e-05
3.01506e-05
-4.4449e-05
3.26059e-05
-4.38662e-05
3.52533e-05
-4.3238e-05
3.81177e-05
-4.2554e-05
4.12253e-05
-4.18155e-05
4.45885e-05
-4.10123e-05
4.82288e-05
-4.01418e-05
5.21402e-05
-3.91935e-05
5.63641e-05
-3.81667e-05
6.09769e-05
-3.70523e-05
6.59716e-05
-3.58396e-05
7.12988e-05
-3.45213e-05
7.70997e-05
-3.30934e-05
8.34293e-05
-3.15399e-05
9.01859e-05
-2.9852e-05
9.75087e-05
-2.80254e-05
0.000105526
-2.6036e-05
0.000114008
-2.38827e-05
0.000123348
-2.15472e-05
0.000133374
-1.90139e-05
0.00014419
-1.62725e-05
0.000155963
-1.32977e-05
0.000168554
-1.00808e-05
0.000182307
-6.59207e-06
0.000197007
-2.82036e-06
0.000213006
1.26454e-06
0.000230179
5.6851e-06
0.000248718
1.04687e-05
0.000268741
1.56546e-05
0.000290125
2.12636e-05
0.000313256
2.73331e-05
0.000337987
3.39016e-05
0.000364396
4.09993e-05
0.00039267
4.86651e-05
0.000422731
5.6942e-05
0.000454518
6.58663e-05
0.000488081
7.54748e-05
0.00052328
8.58043e-05
0.000559891
9.68867e-05
0.000597602
0.000108748
0.00063596
0.0001214
0.000674324
0.00013484
0.000711811
0.000149035
0.000747239
0.000163919
0.000779042
0.000179377
0.000805205
0.000195226
0.000823158
0.000211231
0.000829678
0.00022708
0.000820744
0.000242351
0.000791539
0.000256531
0.000736318
0.000268793
0.000646605
0.00027824
0.000512444
0.000339786
0.000283543
-4.66788e-05
1.85626e-05
4.69789e-05
-4.6354e-05
2.00694e-05
-4.59992e-05
2.16991e-05
-4.56184e-05
2.34618e-05
-4.52027e-05
2.53685e-05
-4.47564e-05
2.74314e-05
-4.42702e-05
2.96635e-05
-4.37468e-05
3.20792e-05
-4.31767e-05
3.46831e-05
-4.25611e-05
3.75004e-05
-4.18924e-05
4.05572e-05
-4.11694e-05
4.38652e-05
-4.03853e-05
4.74454e-05
-3.95344e-05
5.12895e-05
-3.86093e-05
5.54394e-05
-3.76071e-05
5.99745e-05
-3.65207e-05
6.48848e-05
-3.53378e-05
7.01149e-05
-3.40523e-05
7.58128e-05
-3.26593e-05
8.20345e-05
-3.11431e-05
8.86678e-05
-2.94947e-05
9.58582e-05
-2.77097e-05
0.000103738
-2.57642e-05
0.00011206
-2.36567e-05
0.000121238
-2.13692e-05
0.000131084
-1.88862e-05
0.000141704
-1.61975e-05
0.000153272
-1.32778e-05
0.000165632
-1.01189e-05
0.000179146
-6.69107e-06
0.000193578
-2.98256e-06
0.000209297
1.0331e-06
0.000226159
5.38346e-06
0.000244366
1.00909e-05
0.00026403
1.51961e-05
0.000285017
2.0719e-05
0.00030773
2.66964e-05
0.000332007
3.31662e-05
0.000357923
4.01581e-05
0.000385675
4.77101e-05
0.000415176
5.58644e-05
0.000446359
6.46561e-05
0.000479283
7.41209e-05
0.000513809
8.42939e-05
0.00054971
9.52051e-05
0.000586681
0.000106878
0.000624276
0.000119323
0.000661867
0.000132534
0.00069859
0.000146477
0.000733287
0.000161087
0.000764428
0.000176251
0.000790043
0.00019179
0.00080761
0.000207476
0.000813977
0.000223004
0.000805205
0.000237962
0.000776582
0.000251848
0.000722439
0.000263861
0.000634601
0.000273151
0.000503188
0.000334532
0.00027846
-4.59216e-05
1.82618e-05
4.62138e-05
-4.56028e-05
1.97442e-05
-4.52543e-05
2.13476e-05
-4.48799e-05
2.30819e-05
-4.44714e-05
2.49579e-05
-4.40324e-05
2.69876e-05
-4.35543e-05
2.91838e-05
-4.30401e-05
3.15609e-05
-4.24801e-05
3.41223e-05
-4.18766e-05
3.68933e-05
-4.1221e-05
3.99006e-05
-4.05136e-05
4.31548e-05
-3.97456e-05
4.66765e-05
-3.89138e-05
5.04552e-05
-3.80089e-05
5.45333e-05
-3.70297e-05
5.8993e-05
-3.59678e-05
6.38214e-05
-3.48124e-05
6.89573e-05
-3.35564e-05
7.45552e-05
-3.21956e-05
8.06715e-05
-3.07143e-05
8.71845e-05
-2.91034e-05
9.42452e-05
-2.73584e-05
0.000101991
-2.54555e-05
0.000110156
-2.33931e-05
0.000119173
-2.11532e-05
0.000128842
-1.87203e-05
0.000139269
-1.60841e-05
0.000150634
-1.32199e-05
0.000162765
-1.01188e-05
0.000176043
-6.75215e-06
0.00019021
-3.10855e-06
0.000205651
8.41276e-07
0.000222209
5.11889e-06
0.000240083
9.75098e-06
0.000259395
1.47753e-05
0.00027999
2.02118e-05
0.000302291
2.60967e-05
0.00032612
3.2467e-05
0.000351551
3.9352e-05
0.000378789
4.67888e-05
0.000407739
5.48185e-05
0.00043833
6.34752e-05
0.000470628
7.27933e-05
0.000504493
8.28064e-05
0.0005397
9.35425e-05
0.000575949
0.000105024
0.0006128
0.000117257
0.000649639
0.000130237
0.000685617
0.000143927
0.000719602
0.000158264
0.000750096
0.000173136
0.000775175
0.000188368
0.000792377
0.000203741
0.000798609
0.000218956
0.000790001
0.00023361
0.000761939
0.000247211
0.00070885
0.000258988
0.000622834
0.00026813
0.000494055
0.000329225
0.000273444
-4.51606e-05
1.7968e-05
4.54526e-05
-4.4846e-05
1.94266e-05
-4.45033e-05
2.10041e-05
-4.4135e-05
2.27105e-05
-4.3734e-05
2.45564e-05
-4.33029e-05
2.65535e-05
-4.28343e-05
2.87147e-05
-4.23294e-05
3.10537e-05
-4.17806e-05
3.35735e-05
-4.11877e-05
3.62995e-05
-4.0545e-05
3.92584e-05
-3.98501e-05
4.24601e-05
-3.90979e-05
4.59248e-05
-3.82818e-05
4.96397e-05
-3.73961e-05
5.36477e-05
-3.64368e-05
5.80339e-05
-3.53983e-05
6.27823e-05
-3.42679e-05
6.7826e-05
-3.30401e-05
7.3326e-05
-3.17096e-05
7.93394e-05
-3.02614e-05
8.57345e-05
-2.86862e-05
9.26681e-05
-2.69795e-05
0.000100282
-2.51177e-05
0.000108292
-2.30991e-05
0.000117152
-2.09057e-05
0.000126647
-1.8522e-05
0.000136883
-1.59379e-05
0.000148047
-1.31285e-05
0.000159954
-1.00854e-05
0.000172998
-6.77964e-06
0.000186903
-3.19925e-06
0.00020207
6.81327e-07
0.000218324
4.88872e-06
0.000235875
9.44439e-06
0.000254836
1.43875e-05
0.000275045
1.97371e-05
0.00029694
2.55287e-05
0.000320327
3.17986e-05
0.000345279
3.85753e-05
0.000372009
4.58951e-05
0.000400416
5.37981e-05
0.000430423
6.23173e-05
0.000462104
7.14858e-05
0.000495318
8.13359e-05
0.000529842
9.1894e-05
0.000565381
0.000103181
0.000601504
0.000115201
0.000637607
0.000127948
0.000672861
0.000141385
0.000706155
0.00015545
0.000736028
0.000170034
0.000760593
0.000184966
0.000777434
0.000200031
0.000783527
0.000214942
0.000775079
0.000229301
0.00074758
0.000242628
0.00069553
0.000254177
0.000611294
0.000263179
0.000485085
0.000323968
0.000268494
-4.44086e-05
1.76776e-05
4.46887e-05
-4.41015e-05
1.91125e-05
-4.37656e-05
2.06645e-05
-4.34046e-05
2.23433e-05
-4.30104e-05
2.41595e-05
-4.25868e-05
2.61246e-05
-4.21251e-05
2.82512e-05
-4.16288e-05
3.0553e-05
-4.10882e-05
3.30319e-05
-4.0506e-05
3.57136e-05
-3.98737e-05
3.86251e-05
-3.91921e-05
4.17754e-05
-3.84525e-05
4.51845e-05
-3.76526e-05
4.88372e-05
-3.67829e-05
5.2777e-05
-3.5843e-05
5.70917e-05
-3.48244e-05
6.17625e-05
-3.37171e-05
6.67167e-05
-3.25141e-05
7.21216e-05
-3.12115e-05
7.80348e-05
-2.97936e-05
8.43149e-05
-2.82517e-05
9.11244e-05
-2.65811e-05
9.86098e-05
-2.47585e-05
0.000106467
-2.27819e-05
0.000115174
-2.06334e-05
0.000124497
-1.82978e-05
0.000134546
-1.57646e-05
0.000145512
-1.30094e-05
0.000157197
-1.00233e-05
0.00017001
-6.77814e-06
0.000183657
-3.26233e-06
0.000198553
5.52537e-07
0.000214509
4.68694e-06
0.000231737
9.16671e-06
0.000250355
1.40279e-05
0.000270181
1.92898e-05
0.000291676
2.49871e-05
0.000314628
3.11553e-05
0.00033911
3.78223e-05
0.000365342
4.50234e-05
0.000393215
5.27978e-05
0.00042265
6.11774e-05
0.000453727
7.01942e-05
0.000486304
7.98791e-05
0.000520161
9.02572e-05
0.000555007
0.000101347
0.00059042
0.000113154
0.000625806
0.000125668
0.000660353
0.000138854
0.000692974
0.00015265
0.000722236
0.00016695
0.000746296
0.000181588
0.000762796
0.000196353
0.000768763
0.000210967
0.000760475
0.000225042
0.000733514
0.000238103
0.00068248
0.000249434
0.000599968
0.0002583
0.000476225
0.000318658
0.000263607
-4.36571e-05
1.73939e-05
4.39374e-05
-4.33539e-05
1.88057e-05
-4.30234e-05
2.03327e-05
-4.26681e-05
2.19846e-05
-4.22809e-05
2.37716e-05
-4.18648e-05
2.57052e-05
-4.14121e-05
2.77978e-05
-4.09245e-05
3.0063e-05
-4.03944e-05
3.25018e-05
-3.9822e-05
3.51401e-05
-3.92014e-05
3.80052e-05
-3.85311e-05
4.11052e-05
-3.78057e-05
4.44598e-05
-3.70194e-05
4.80516e-05
-3.61665e-05
5.19246e-05
-3.52438e-05
5.61692e-05
-3.42455e-05
6.07639e-05
-3.31598e-05
6.56304e-05
-3.19812e-05
7.0942e-05
-3.07049e-05
7.6757e-05
-2.93162e-05
8.29246e-05
-2.7806e-05
8.96125e-05
-2.61697e-05
9.69717e-05
-2.43845e-05
0.000104681
-2.24481e-05
0.000113236
-2.0343e-05
0.00012239
-1.80538e-05
0.000132255
-1.55703e-05
0.000143027
-1.2868e-05
0.000154492
-9.93837e-06
0.000167079
-6.7529e-06
0.000180471
-3.2996e-06
0.000195099
4.4632e-07
0.00021076
4.51045e-06
0.000227672
8.91323e-06
0.00024595
1.36922e-05
0.000265401
1.88658e-05
0.000286501
2.44679e-05
0.000309025
3.05335e-05
0.000333043
3.70895e-05
0.000358784
4.41706e-05
0.000386132
5.18148e-05
0.000415003
6.00532e-05
0.000445484
6.89166e-05
0.000477435
7.84347e-05
0.000510636
8.86315e-05
0.000544802
9.95248e-05
0.000579517
0.000111117
0.000614202
0.0001234
0.000648061
0.000136337
0.000680028
0.000149868
0.000708702
0.000163889
0.000732277
0.000178239
0.000748435
0.000192713
0.000754272
0.000207038
0.000746138
0.000220836
0.000719716
0.000233641
0.00066968
0.000244763
0.000588855
0.000253495
0.000467524
0.00031342
0.00025879
-4.29174e-05
1.71141e-05
4.31901e-05
-4.262e-05
1.85031e-05
-4.22953e-05
2.00055e-05
-4.19459e-05
2.16308e-05
-4.15652e-05
2.33891e-05
-4.11556e-05
2.52918e-05
-4.071e-05
2.7351e-05
-4.02305e-05
2.95802e-05
-3.97089e-05
3.19794e-05
-3.91467e-05
3.4575e-05
-3.85368e-05
3.73943e-05
-3.78791e-05
4.04449e-05
-3.71661e-05
4.3746e-05
-3.63948e-05
4.72779e-05
-3.5557e-05
5.10856e-05
-3.46516e-05
5.52617e-05
-3.36713e-05
5.97822e-05
-3.2606e-05
6.45632e-05
-3.14495e-05
6.9784e-05
-3.01976e-05
7.55034e-05
-2.88357e-05
8.1561e-05
-2.73552e-05
8.81302e-05
-2.57512e-05
9.5366e-05
-2.40014e-05
0.000102929
-2.21034e-05
0.000111336
-2.004e-05
0.000120325
-1.77957e-05
0.000130009
-1.53602e-05
0.00014059
-1.27098e-05
0.00015184
-9.83505e-06
0.000164203
-6.70867e-06
0.000177343
-3.31884e-06
0.000191708
3.62058e-07
0.00020708
4.35335e-06
0.000223678
8.67995e-06
0.000241622
1.33764e-05
0.000260703
1.8461e-05
0.000281416
2.39674e-05
0.000303518
2.99293e-05
0.000327081
3.63735e-05
0.000352341
4.33335e-05
0.000379173
5.08465e-05
0.000407492
5.89426e-05
0.000437391
6.76518e-05
0.00046873
7.70025e-05
0.00050129
8.70177e-05
0.000534792
9.77142e-05
0.000568828
0.000109093
0.000602829
0.000121148
0.000636015
0.000133838
0.000667342
0.000147109
0.000695436
0.000160857
0.000718531
0.000174925
0.000734365
0.000189115
0.000740083
0.00020316
0.000732101
0.000216689
0.000706195
0.000229247
0.000657132
0.000240166
0.000577939
0.000248766
0.000458929
0.000308135
0.000254042
-4.21827e-05
1.68409e-05
4.24556e-05
-4.1889e-05
1.82076e-05
-4.15697e-05
1.9686e-05
-4.12261e-05
2.12852e-05
-4.08525e-05
2.30154e-05
-4.04503e-05
2.48876e-05
-4.00137e-05
2.6914e-05
-3.95426e-05
2.91077e-05
-3.90313e-05
3.14681e-05
-3.84784e-05
3.40218e-05
-3.78799e-05
3.67962e-05
-3.72326e-05
3.97982e-05
-3.6533e-05
4.30466e-05
-3.5774e-05
4.65199e-05
-3.49517e-05
5.02633e-05
-3.40618e-05
5.43722e-05
-3.30998e-05
5.88197e-05
-3.20538e-05
6.35166e-05
-3.09192e-05
6.86481e-05
-2.96908e-05
7.42736e-05
-2.83549e-05
8.02236e-05
-2.69027e-05
8.66763e-05
-2.53297e-05
9.37913e-05
-2.36138e-05
0.000101211
-2.17526e-05
0.000109473
-1.97292e-05
0.0001183
-1.75281e-05
0.000127806
-1.51395e-05
0.0001382
-1.25392e-05
0.000149239
-9.71871e-06
0.000161382
-6.65008e-06
0.000174274
-3.3213e-06
0.00018838
2.91598e-07
0.000203464
4.2132e-06
0.000219756
8.46289e-06
0.000237371
1.30768e-05
0.000256089
1.80725e-05
0.000276419
2.34827e-05
0.000298107
2.93407e-05
0.000321222
3.56725e-05
0.000346008
4.25109e-05
0.000372333
4.98921e-05
0.000400108
5.78455e-05
0.000429434
6.64e-05
0.000460171
7.55833e-05
0.000492101
8.54172e-05
0.00052495
9.5918e-05
0.00055832
0.000107086
0.000591651
0.000118913
0.000624179
0.000131361
0.000654884
0.000144377
0.000682419
0.000157857
0.000705052
0.000171651
0.000720558
0.000185563
0.00072615
0.000199335
0.000718316
0.000212605
0.000692923
0.000224924
0.000644817