/*--------------------------------*- C++ -*----------------------------------*\
  =========                 |
  \\      /  F ield         | OpenFOAM: The Open Source CFD Toolbox
   \\    /   O peration     | Website:  https://openfoam.org
    \\  /    A nd           | Version:  6.0
     \\/     M anipulation  |
\*---------------------------------------------------------------------------*/
FoamFile
{
    version     2.0;
    format      ascii;
    class       volVectorField;
    location    "8";
    object      U;
}
// * * * * * * * * * * * * * * * * * * * * * * * * * * * * * * * * * * * * * //

dimensions      [0 1 -1 0 0 0 0];

internalField   nonuniform List<vector> 
62000
(
(0.984656 0.17576 -5.33833e-21)
(0.984634 0.175744 4.47475e-21)
(0.984611 0.175698 4.7682e-21)
(0.984587 0.17566 -2.14236e-20)
(0.984563 0.175623 -2.53864e-20)
(0.98454 0.175587 8.84405e-20)
(0.984518 0.175552 -9.97274e-20)
(0.9845 0.175516 5.9041e-20)
(0.984485 0.17548 -2.86574e-20)
(0.984474 0.175442 -1.50676e-19)
(0.984467 0.175404 -2.20201e-20)
(0.984463 0.175363 2.18519e-19)
(0.984463 0.175322 4.66018e-20)
(0.984467 0.175279 -1.64966e-19)
(0.984473 0.175236 2.64533e-19)
(0.984481 0.175192 -1.42433e-19)
(0.984491 0.175148 1.53699e-19)
(0.984503 0.175103 -1.82363e-19)
(0.984515 0.17506 9.3529e-20)
(0.984528 0.175016 -2.95033e-19)
(0.984541 0.174973 3.92689e-19)
(0.984554 0.174929 1.22385e-19)
(0.984567 0.174886 1.81812e-19)
(0.98458 0.174842 -8.19818e-19)
(0.984594 0.174797 3.06257e-19)
(0.984607 0.174751 -1.97045e-19)
(0.984619 0.174704 -5.52003e-21)
(0.984632 0.174655 -1.68669e-19)
(0.984644 0.174603 5.23678e-19)
(0.984655 0.174549 -3.01443e-19)
(0.984666 0.174491 7.37389e-19)
(0.984674 0.17443 -1.55056e-18)
(0.984679 0.174364 1.45862e-19)
(0.984679 0.174287 -5.17867e-19)
(0.984675 0.174196 -1.66736e-19)
(0.984666 0.174087 -5.16677e-19)
(0.984652 0.173957 -1.51462e-19)
(0.984634 0.173802 -1.50061e-19)
(0.98461 0.173622 4.90229e-19)
(0.984581 0.173417 2.21046e-18)
(0.984547 0.173192 -5.16852e-19)
(0.984505 0.172955 -2.91265e-18)
(0.984455 0.17272 -4.43326e-18)
(0.984392 0.172505 2.30248e-18)
(0.98431 0.172333 6.4842e-19)
(0.984196 0.172223 -2.95985e-18)
(0.984032 0.172182 6.5799e-19)
(0.983794 0.172194 -1.14671e-18)
(0.983452 0.172201 -5.30964e-18)
(0.982979 0.172097 -1.27672e-18)
(0.982361 0.171735 -6.88493e-19)
(0.981604 0.170944 -9.79738e-18)
(0.980752 0.169568 1.38443e-18)
(0.979886 0.167494 1.30383e-17)
(0.979131 0.164664 3.60393e-18)
(0.978628 0.161066 1.25871e-17)
(0.978528 0.156575 -1.44088e-18)
(0.978837 0.151038 -2.2367e-18)
(0.980478 0.141056 4.91474e-18)
(0.960632 0.122602 7.75157e-19)
(0.984975 0.174132 -1.45979e-21)
(0.985024 0.1743 1.43055e-20)
(0.985055 0.174389 6.28939e-21)
(0.985067 0.174489 -2.65102e-20)
(0.985061 0.174598 1.13024e-20)
(0.985039 0.174712 -8.06357e-20)
(0.985003 0.174832 7.46962e-20)
(0.984957 0.174955 4.49388e-20)
(0.984902 0.175081 -8.54241e-20)
(0.984842 0.175207 3.26462e-21)
(0.984779 0.175332 8.69954e-20)
(0.984716 0.175453 8.95772e-22)
(0.984655 0.17557 2.70591e-20)
(0.984598 0.175679 -2.30616e-19)
(0.984544 0.175781 4.74693e-19)
(0.984496 0.175872 -4.2699e-19)
(0.984452 0.175952 2.05671e-19)
(0.984414 0.17602 -4.36196e-20)
(0.984382 0.176074 -1.24121e-19)
(0.984354 0.176114 3.53824e-19)
(0.98433 0.176138 -5.69091e-19)
(0.984311 0.176146 3.38064e-19)
(0.984296 0.176137 -4.44491e-19)
(0.984284 0.176109 2.6734e-19)
(0.984277 0.176062 2.57414e-19)
(0.984273 0.175994 -1.73116e-19)
(0.984273 0.175905 -3.25226e-21)
(0.984277 0.175793 1.99486e-19)
(0.984286 0.175657 1.73589e-19)
(0.984298 0.175496 -3.70706e-19)
(0.984315 0.17531 7.66554e-19)
(0.984335 0.175094 1.62403e-19)
(0.984357 0.174834 5.05714e-19)
(0.984382 0.174528 3.68754e-20)
(0.984409 0.174187 1.3989e-19)
(0.984438 0.173817 -1.5709e-19)
(0.984469 0.173423 -4.73958e-19)
(0.984503 0.173013 -2.39405e-19)
(0.984539 0.172601 -1.2951e-18)
(0.984575 0.17221 -1.45259e-18)
(0.984608 0.171868 1.12785e-18)
(0.984631 0.171612 6.48909e-19)
(0.984632 0.171483 4.65986e-18)
(0.984597 0.171521 2.54358e-19)
(0.9845 0.171752 -6.53992e-18)
(0.984309 0.172175 2.47052e-18)
(0.983982 0.172741 1.97514e-18)
(0.98347 0.173331 2.20445e-18)
(0.982729 0.173745 6.02097e-19)
(0.981733 0.173715 1.54082e-19)
(0.980488 0.172934 4.06791e-18)
(0.979052 0.171125 1.20289e-17)
(0.977555 0.168097 -8.89733e-18)
(0.976181 0.16382 -2.27936e-17)
(0.975152 0.158385 -5.80749e-18)
(0.974695 0.151978 -4.35796e-18)
(0.975052 0.144593 -9.77909e-18)
(0.975724 0.136327 -4.83975e-18)
(0.981195 0.122645 7.67708e-18)
(0.955897 0.105573 2.68284e-18)
(0.985197 0.172825 -7.2216e-21)
(0.985357 0.173037 -1.13587e-21)
(0.985495 0.173186 1.06736e-21)
(0.985614 0.173328 5.37715e-21)
(0.985706 0.173482 1.58027e-20)
(0.985769 0.173642 -1.51579e-20)
(0.985803 0.173808 8.38034e-20)
(0.985808 0.173982 -3.98732e-20)
(0.985784 0.174163 -2.19623e-20)
(0.985735 0.17435 -1.41187e-19)
(0.985664 0.174543 1.20549e-19)
(0.985575 0.174739 9.18782e-21)
(0.985471 0.174936 -2.91678e-20)
(0.985357 0.175132 7.92438e-20)
(0.985237 0.175324 -1.38544e-19)
(0.985114 0.175509 1.74221e-22)
(0.98499 0.175685 -6.76963e-20)
(0.984869 0.175848 -3.98508e-22)
(0.984752 0.175996 1.62189e-19)
(0.98464 0.176125 -2.54305e-19)
(0.984535 0.176234 1.61302e-19)
(0.984438 0.176319 6.52346e-19)
(0.984348 0.176379 -8.00328e-20)
(0.984266 0.176411 -9.49249e-19)
(0.984192 0.176413 4.97454e-19)
(0.984126 0.176383 -2.82175e-19)
(0.98407 0.176319 4.68178e-19)
(0.984022 0.17622 -2.87832e-19)
(0.983984 0.176085 -5.9266e-19)
(0.983955 0.175912 6.51915e-19)
(0.983937 0.1757 -4.7027e-19)
(0.983927 0.175444 6.44491e-19)
(0.983933 0.175117 -1.80279e-18)
(0.983955 0.174736 1.58845e-18)
(0.983992 0.174322 -8.39918e-19)
(0.984044 0.173889 3.42061e-19)
(0.984109 0.173452 2.6196e-19)
(0.98419 0.173028 -1.02982e-20)
(0.984287 0.172642 -5.94275e-20)
(0.9844 0.172327 1.53912e-18)
(0.984525 0.172128 -5.7756e-19)
(0.984656 0.172093 8.75026e-19)
(0.984781 0.172273 -3.01631e-18)
(0.984884 0.172709 -1.41593e-18)
(0.984941 0.173423 1.41069e-18)
(0.984919 0.174393 -4.74076e-18)
(0.98478 0.175534 6.09385e-19)
(0.984483 0.17668 -3.6621e-18)
(0.983992 0.177581 5.04837e-18)
(0.983289 0.177926 1.35141e-18)
(0.982385 0.177386 5.11417e-19)
(0.981337 0.175694 -4.87379e-19)
(0.980267 0.172711 3.32146e-18)
(0.979333 0.168496 1.88957e-18)
(0.978717 0.163253 -7.24495e-18)
(0.978597 0.157294 -5.01584e-18)
(0.979211 0.150766 -2.69441e-18)
(0.97942 0.14392 -1.08459e-17)
(0.986334 0.133482 -8.59861e-19)
(0.970017 0.128055 1.06163e-18)
(0.984965 0.174406 -7.32302e-21)
(0.985128 0.174517 2.27038e-20)
(0.98529 0.174619 -3.40018e-21)
(0.985454 0.174694 -2.41346e-20)
(0.985609 0.174777 3.7059e-20)
(0.985749 0.174859 6.55544e-20)
(0.985867 0.174944 -8.58756e-20)
(0.985957 0.175032 9.59581e-21)
(0.986016 0.175125 3.13718e-20)
(0.986043 0.175225 6.68509e-20)
(0.986035 0.175332 -1.24014e-19)
(0.985996 0.175447 -3.95955e-20)
(0.985925 0.175568 -4.54734e-20)
(0.985828 0.175696 2.08012e-19)
(0.985709 0.175828 -1.41394e-19)
(0.98557 0.175964 3.39068e-19)
(0.985418 0.1761 -4.17456e-19)
(0.985256 0.176234 -6.44529e-20)
(0.985089 0.176362 4.60636e-19)
(0.984921 0.176481 -1.62395e-19)
(0.984754 0.176586 -6.11167e-20)
(0.984591 0.176675 -6.72275e-20)
(0.984434 0.176744 -6.29177e-19)
(0.984285 0.176788 3.63111e-19)
(0.984145 0.176805 -1.74115e-19)
(0.984015 0.176791 2.79837e-19)
(0.983897 0.176744 1.35278e-19)
(0.98379 0.176662 6.85588e-19)
(0.983696 0.176543 -4.36389e-19)
(0.983615 0.176385 -5.86627e-19)
(0.983547 0.17619 9.50529e-19)
(0.983491 0.175948 -7.93555e-19)
(0.983463 0.175627 1.47768e-18)
(0.983466 0.175261 -8.89146e-19)
(0.983495 0.17487 3.70741e-19)
(0.983544 0.174478 6.2844e-19)
(0.983614 0.1741 -2.68841e-19)
(0.983706 0.173758 3.17153e-19)
(0.983822 0.173478 -1.73879e-19)
(0.983963 0.173296 4.79086e-19)
(0.98413 0.17326 -1.32462e-18)
(0.984318 0.173417 3.51149e-19)
(0.984523 0.173818 7.15252e-19)
(0.984734 0.1745 1.75386e-18)
(0.984938 0.175477 2.03072e-18)
(0.985115 0.176717 3.00738e-19)
(0.985241 0.178126 2.92744e-18)
(0.985289 0.179533 2.97417e-18)
(0.985234 0.180685 3.30914e-18)
(0.985058 0.181283 -2.3184e-18)
(0.984763 0.18102 -3.18962e-18)
(0.984369 0.179662 2.00187e-18)
(0.983955 0.177106 2.73844e-18)
(0.983616 0.173445 8.72725e-18)
(0.983465 0.168919 6.30192e-18)
(0.983599 0.163851 9.05554e-18)
(0.984241 0.158436 1.78384e-17)
(0.983801 0.152715 -4.76152e-19)
(0.990162 0.14462 -9.98305e-18)
(0.982005 0.143883 -6.94928e-18)
(0.984394 0.177506 1.42785e-20)
(0.984473 0.17753 -4.74222e-21)
(0.984571 0.177563 8.27426e-21)
(0.984692 0.177563 -1.16204e-20)
(0.984829 0.177564 2.68359e-20)
(0.984974 0.177559 -1.31658e-20)
(0.985119 0.177547 7.56098e-21)
(0.985257 0.177532 -1.11207e-19)
(0.98538 0.177515 9.41322e-20)
(0.985481 0.177497 -1.93193e-19)
(0.985555 0.177481 2.14687e-19)
(0.985599 0.177469 -2.62788e-20)
(0.985609 0.177461 -5.98983e-20)
(0.985586 0.17746 -2.84201e-20)
(0.985531 0.177467 -6.83406e-21)
(0.985446 0.177481 -2.95761e-19)
(0.985333 0.177501 9.25037e-21)
(0.985198 0.177527 3.30136e-19)
(0.985045 0.177557 -1.10756e-19)
(0.984878 0.177587 -1.20311e-19)
(0.984701 0.177614 2.01932e-19)
(0.984519 0.177636 -1.04701e-19)
(0.984337 0.177647 4.44907e-19)
(0.984156 0.177645 2.54303e-19)
(0.98398 0.177624 2.01353e-19)
(0.983811 0.177581 -6.15761e-19)
(0.983652 0.177512 -8.89853e-20)
(0.983504 0.177415 -5.10193e-19)
(0.983369 0.177288 9.49266e-20)
(0.983247 0.177129 -1.80519e-19)
(0.983137 0.17694 -7.40002e-20)
(0.983039 0.176709 5.94204e-19)
(0.982979 0.176406 -1.49179e-18)
(0.982963 0.176071 -7.15278e-20)
(0.982976 0.17572 -7.47434e-19)
(0.983009 0.175381 -3.60518e-19)
(0.983061 0.175068 7.89842e-20)
(0.983134 0.174799 -1.1477e-18)
(0.983228 0.1746 1.73442e-18)
(0.983347 0.174504 3.26409e-19)
(0.983491 0.174552 1.85016e-18)
(0.983662 0.174788 -1.33362e-18)
(0.983859 0.175254 -8.98119e-19)
(0.984081 0.175978 -2.19998e-19)
(0.984324 0.176968 1.56774e-18)
(0.984584 0.178185 2.0623e-18)
(0.984851 0.179537 7.02339e-19)
(0.985115 0.180859 1.0072e-18)
(0.985362 0.181916 -7.89267e-19)
(0.985578 0.182437 6.23085e-18)
(0.985755 0.182148 1.59201e-18)
(0.985889 0.180848 -1.42946e-18)
(0.986012 0.178458 8.36841e-19)
(0.986165 0.175071 6.12676e-18)
(0.986398 0.170915 -4.07506e-19)
(0.986745 0.166264 -7.10979e-18)
(0.987399 0.161296 -1.74466e-17)
(0.986598 0.155664 1.64872e-17)
(0.991723 0.148041 -1.09355e-17)
(0.987133 0.146415 8.65447e-18)
(0.983701 0.180587 -5.45748e-21)
(0.983681 0.180579 2.22723e-20)
(0.983687 0.180576 -3.71278e-20)
(0.983725 0.180542 2.8058e-20)
(0.983792 0.180505 1.86671e-20)
(0.983883 0.180457 -1.98048e-20)
(0.983995 0.180399 1.74894e-21)
(0.984121 0.180329 -1.55075e-20)
(0.984253 0.18025 -5.34588e-20)
(0.984384 0.180162 1.03689e-19)
(0.984506 0.180067 -1.64457e-19)
(0.984612 0.179967 1.45793e-19)
(0.984695 0.179864 1.32632e-19)
(0.984751 0.17976 -2.07185e-19)
(0.984777 0.179658 -7.02877e-20)
(0.984772 0.17956 2.65241e-19)
(0.984734 0.179466 -3.28084e-19)
(0.984667 0.179379 4.63475e-19)
(0.984572 0.179297 -8.69094e-20)
(0.984452 0.179219 5.4929e-20)
(0.984313 0.179145 -8.3585e-20)
(0.984157 0.179072 -1.08886e-19)
(0.983991 0.178996 -2.09197e-19)
(0.983817 0.178916 3.70993e-19)
(0.983641 0.178825 -2.58002e-19)
(0.983465 0.178723 -2.61089e-19)
(0.983293 0.178603 5.45041e-19)
(0.983128 0.178464 -5.39983e-19)
(0.982973 0.178304 8.69663e-19)
(0.982828 0.178123 -4.72274e-19)
(0.982692 0.177922 3.6974e-19)
(0.982566 0.177687 -6.44824e-19)
(0.982484 0.177393 6.93811e-19)
(0.982453 0.177079 -6.04569e-20)
(0.982449 0.176758 -3.426e-20)
(0.982461 0.176457 -1.95542e-20)
(0.982485 0.176187 -3.85366e-19)
(0.982521 0.175961 1.02544e-18)
(0.982569 0.175799 -7.68785e-19)
(0.982633 0.175728 -4.46357e-18)
(0.982715 0.175783 -1.85753e-18)
(0.982817 0.175997 1.23555e-18)
(0.982943 0.176401 -1.4951e-18)
(0.9831 0.177016 -1.406e-18)
(0.983292 0.177839 -1.26324e-19)
(0.983527 0.178828 3.46991e-18)
(0.983811 0.179894 -4.76042e-18)
(0.984148 0.180884 -4.4638e-18)
(0.98454 0.181588 -2.45962e-18)
(0.984981 0.181771 -4.47117e-18)
(0.985461 0.181196 3.41898e-18)
(0.985958 0.179693 -1.0096e-18)
(0.986475 0.177204 -9.8568e-18)
(0.987009 0.173811 2.6169e-18)
(0.987566 0.169712 2.94283e-18)
(0.988128 0.165117 -6.86033e-18)
(0.988854 0.160181 4.02715e-18)
(0.988015 0.154198 5.71265e-18)
(0.992031 0.146219 1.78394e-17)
(0.987717 0.142736 5.25743e-19)
(0.983082 0.183059 6.49383e-21)
(0.982982 0.183057 -2.96014e-20)
(0.982903 0.183051 1.44809e-20)
(0.982853 0.18302 2.76696e-20)
(0.982834 0.182985 -6.02463e-20)
(0.982845 0.182938 5.11014e-20)
(0.982886 0.182878 -3.47765e-20)
(0.982954 0.182805 2.98641e-20)
(0.983045 0.182717 4.89798e-20)
(0.983153 0.182614 -1.19126e-19)
(0.98327 0.182497 1.75415e-19)
(0.983391 0.182366 7.73618e-20)
(0.983506 0.182224 -3.0737e-19)
(0.983609 0.182072 -6.07003e-20)
(0.983694 0.181913 1.69142e-19)
(0.983755 0.181748 1.1273e-19)
(0.983789 0.181582 -1.38032e-19)
(0.983795 0.181414 1.2458e-19)
(0.983771 0.181248 1.9924e-19)
(0.983718 0.181083 -9.43055e-20)
(0.983639 0.18092 -5.54006e-20)
(0.983536 0.180759 2.10095e-19)
(0.983414 0.180598 4.43679e-19)
(0.983276 0.180436 -3.16962e-19)
(0.983127 0.180269 -3.65389e-19)
(0.982971 0.180097 4.15269e-19)
(0.982811 0.179915 -3.24008e-19)
(0.982653 0.179721 -1.37946e-19)
(0.982498 0.179514 1.15173e-18)
(0.982348 0.179295 -5.16558e-19)
(0.982203 0.179068 -4.09172e-19)
(0.982066 0.178815 5.38743e-19)
(0.981971 0.178519 3.7971e-19)
(0.981931 0.178211 -3.45322e-19)
(0.981915 0.177906 -2.30846e-19)
(0.981906 0.177624 7.36718e-19)
(0.981899 0.177371 1.4776e-19)
(0.981894 0.177156 2.49593e-19)
(0.98189 0.176992 -1.32389e-18)
(0.98189 0.176899 -1.33889e-18)
(0.981896 0.176901 2.44238e-18)
(0.981912 0.177024 1.93526e-18)
(0.981947 0.177287 3.13622e-18)
(0.982009 0.1777 -2.98653e-18)
(0.982113 0.178252 -3.2804e-18)
(0.982276 0.178901 -1.88799e-18)
(0.982516 0.179562 4.63698e-18)
(0.982852 0.180098 4.55619e-18)
(0.983298 0.180326 -4.77684e-18)
(0.983858 0.180046 -7.48496e-18)
(0.984524 0.179061 -6.15913e-19)
(0.985268 0.177235 1.65639e-18)
(0.986071 0.174522 -1.54261e-19)
(0.986902 0.170998 -3.8792e-18)
(0.987731 0.166828 4.11126e-18)
(0.98851 0.162164 2.12903e-18)
(0.989349 0.157157 3.23035e-18)
(0.988668 0.15085 -1.73367e-17)
(0.991956 0.14244 -8.62355e-19)
(0.986665 0.137945 1.11898e-18)
(0.982628 0.184923 -1.11018e-20)
(0.982469 0.184935 -9.06205e-21)
(0.982325 0.184941 1.22125e-20)
(0.982201 0.184926 4.43568e-20)
(0.982101 0.184909 -9.68409e-20)
(0.982029 0.184883 1.12375e-19)
(0.981987 0.184844 -4.67737e-21)
(0.981976 0.184793 -6.84019e-21)
(0.981996 0.184726 -4.19936e-20)
(0.982043 0.184642 1.04696e-19)
(0.982115 0.184541 -1.63263e-19)
(0.982204 0.184422 6.22996e-20)
(0.982306 0.184285 -2.25571e-21)
(0.982412 0.18413 1.02349e-19)
(0.982515 0.18396 5.06918e-20)
(0.982609 0.183777 -2.69041e-19)
(0.982688 0.183582 2.37726e-19)
(0.982746 0.183378 9.69153e-20)
(0.98278 0.183167 -2.80394e-19)
(0.982789 0.18295 1.39719e-19)
(0.982771 0.18273 6.75249e-20)
(0.982728 0.182507 -4.25822e-20)
(0.98266 0.182281 6.06089e-20)
(0.982572 0.182054 -3.13275e-20)
(0.982465 0.181821 -4.04184e-19)
(0.982346 0.181585 2.71756e-19)
(0.982216 0.181343 -4.23491e-19)
(0.98208 0.181092 7.98701e-19)
(0.981942 0.180835 -1.46711e-19)
(0.981804 0.180573 -9.21462e-20)
(0.981665 0.180311 -2.41616e-20)
(0.98153 0.18003 9.14945e-19)
(0.981433 0.179719 -3.71442e-19)
(0.981392 0.179404 -2.35e-19)
(0.981369 0.179097 5.86198e-19)
(0.981344 0.178813 5.05197e-19)
(0.981311 0.178553 -8.44814e-19)
(0.98127 0.178319 1.51827e-19)
(0.981219 0.17812 1.61399e-18)
(0.981161 0.177967 -2.01619e-19)
(0.981099 0.177877 1.07283e-18)
(0.981039 0.177865 -1.50558e-18)
(0.980989 0.177941 2.33013e-18)
(0.980965 0.178107 4.83426e-18)
(0.980985 0.178345 1.20819e-18)
(0.981074 0.178612 -1.92533e-18)
(0.981259 0.178831 -5.71958e-18)
(0.98157 0.178882 1.43583e-18)
(0.982031 0.17861 1.4792e-18)
(0.982655 0.177848 2.52598e-18)
(0.98344 0.176437 1.47476e-19)
(0.984354 0.17427 -6.71628e-18)
(0.985366 0.171317 6.07424e-18)
(0.986424 0.167645 -4.33052e-18)
(0.987477 0.163395 9.70873e-18)
(0.988458 0.158671 2.20111e-18)
(0.989415 0.153636 1.12238e-17)
(0.988971 0.147189 1.56501e-17)
(0.99188 0.138538 3.31946e-18)
(0.985572 0.133915 5.18828e-18)
(0.982331 0.186314 -5.48147e-21)
(0.982134 0.186343 4.73486e-21)
(0.981945 0.186363 2.42908e-20)
(0.981766 0.186365 3.91872e-20)
(0.981604 0.186367 -1.1645e-19)
(0.981461 0.186363 6.78298e-20)
(0.981342 0.186349 -1.23977e-19)
(0.981252 0.186326 1.9624e-19)
(0.981193 0.186289 -9.3047e-20)
(0.981165 0.186237 1.67899e-20)
(0.981167 0.186168 1.87584e-19)
(0.981197 0.18608 -4.31841e-19)
(0.98125 0.185971 2.98424e-19)
(0.981322 0.185843 4.38475e-20)
(0.981406 0.185693 7.23867e-20)
(0.981496 0.185524 -3.00386e-19)
(0.981583 0.185337 1.50094e-19)
(0.981664 0.185132 -1.90125e-19)
(0.98173 0.184912 3.83484e-19)
(0.981779 0.184679 -4.87651e-20)
(0.981808 0.184434 -5.03012e-19)
(0.981813 0.184179 2.00977e-19)
(0.981796 0.183916 -1.15084e-20)
(0.981757 0.183646 -7.80512e-19)
(0.981697 0.183367 5.83447e-19)
(0.98162 0.183083 4.50316e-19)
(0.981528 0.182791 3.1746e-19)
(0.981425 0.182492 -4.08091e-19)
(0.981314 0.182189 -4.61417e-19)
(0.981198 0.181884 2.16699e-19)
(0.981077 0.181583 3.35032e-19)
(0.980957 0.181269 -4.15667e-19)
(0.980867 0.180934 -6.34577e-19)
(0.98083 0.180598 1.28274e-18)
(0.980806 0.180274 1.36366e-19)
(0.980771 0.179969 -1.92979e-18)
(0.98072 0.179679 1.51548e-19)
(0.980652 0.179403 1.30394e-18)
(0.980566 0.179142 1.33362e-19)
(0.980465 0.178903 1.71314e-18)
(0.980353 0.178694 -2.42189e-18)
(0.980236 0.178523 -1.84604e-19)
(0.980126 0.178392 -1.52593e-18)
(0.980039 0.178295 7.04526e-19)
(0.979998 0.178212 2.52004e-18)
(0.980033 0.178101 7.9369e-18)
(0.980178 0.177893 9.12877e-19)
(0.980468 0.177485 -4.84631e-18)
(0.980936 0.176745 3.91395e-18)
(0.981602 0.175542 1.34064e-17)
(0.982467 0.173746 -1.09458e-17)
(0.9835 0.171279 1.3415e-17)
(0.984663 0.168123 -8.36767e-18)
(0.985894 0.164339 -5.24929e-18)
(0.987123 0.160049 -2.00874e-17)
(0.988277 0.155322 -1.20377e-18)
(0.989337 0.150337 -7.01034e-18)
(0.98913 0.143935 -8.37586e-18)
(0.991899 0.135256 7.51006e-18)
(0.984948 0.131043 1.75838e-18)
(0.982148 0.187379 7.7794e-21)
(0.981931 0.187416 2.81818e-21)
(0.981714 0.187443 -2.88618e-20)
(0.981502 0.187456 2.78218e-20)
(0.981295 0.187472 -1.24864e-20)
(0.9811 0.187485 2.27972e-20)
(0.980922 0.187492 8.14137e-21)
(0.980765 0.187492 -1.17265e-19)
(0.980634 0.187483 5.10165e-20)
(0.980531 0.187462 -3.61645e-20)
(0.980458 0.187426 2.14491e-20)
(0.980417 0.187373 8.66809e-20)
(0.980405 0.187301 -1.64582e-20)
(0.98042 0.187209 5.51346e-20)
(0.980457 0.187094 -2.35946e-19)
(0.980512 0.186957 9.10253e-20)
(0.980578 0.186797 4.03364e-20)
(0.980649 0.186616 -1.15332e-19)
(0.980719 0.186412 2.3071e-19)
(0.980782 0.186189 7.82758e-20)
(0.980834 0.185947 -7.93211e-21)
(0.98087 0.185688 -8.80027e-20)
(0.980888 0.185412 3.55404e-19)
(0.980887 0.185124 -9.94324e-19)
(0.980868 0.184821 5.22405e-19)
(0.98083 0.184507 2.2798e-19)
(0.980776 0.184182 -3.85238e-19)
(0.980708 0.183847 6.96268e-19)
(0.980629 0.183506 -3.36752e-19)
(0.980541 0.183163 -1.82887e-19)
(0.980444 0.182826 -3.63252e-19)
(0.980346 0.182476 -1.55758e-19)
(0.98027 0.182111 4.17852e-19)
(0.980241 0.181745 -1.27228e-18)
(0.980222 0.18139 2.38051e-18)
(0.980183 0.181048 -1.58841e-19)
(0.980122 0.180711 1.23256e-18)
(0.980037 0.180374 -3.13919e-18)
(0.979929 0.180034 -9.96505e-19)
(0.979802 0.179691 2.28544e-20)
(0.979659 0.179348 -7.85852e-19)
(0.979509 0.179008 -1.47381e-19)
(0.979364 0.178666 -2.82737e-18)
(0.979242 0.178312 1.03767e-18)
(0.97917 0.177925 1.39374e-18)
(0.979178 0.177464 -7.50399e-18)
(0.979305 0.176868 9.77063e-18)
(0.979589 0.176053 1.44617e-18)
(0.98007 0.174908 6.47659e-19)
(0.98077 0.173329 -9.61449e-18)
(0.981694 0.171216 3.2758e-18)
(0.982814 0.168512 -7.22453e-18)
(0.984087 0.165211 1.52803e-17)
(0.985445 0.161368 2.99812e-18)
(0.986808 0.157091 -1.46796e-17)
(0.9881 0.152422 5.67853e-18)
(0.989235 0.147556 -1.6927e-17)
(0.98923 0.141329 -3.96718e-18)
(0.991994 0.132776 -2.74113e-17)
(0.984801 0.129223 -6.35344e-18)
(0.98203 0.188211 -1.76053e-21)
(0.981805 0.188256 -7.00984e-21)
(0.981576 0.188288 -6.24875e-21)
(0.981344 0.188308 6.02436e-20)
(0.981112 0.188332 -3.35777e-20)
(0.980884 0.188355 -4.13222e-20)
(0.980664 0.188376 -1.6049e-20)
(0.980457 0.188393 -6.61911e-20)
(0.980269 0.188403 4.06482e-20)
(0.980103 0.188406 5.3789e-21)
(0.979962 0.188398 1.5854e-21)
(0.979851 0.188376 1.86176e-19)
(0.97977 0.188338 -1.33338e-19)
(0.979719 0.188281 -1.70015e-20)
(0.979696 0.188203 1.58608e-19)
(0.979697 0.188103 -8.81276e-20)
(0.97972 0.187979 -3.51515e-20)
(0.979758 0.187831 5.62304e-20)
(0.979807 0.187658 1.87002e-19)
(0.979859 0.18746 1.06795e-19)
(0.979911 0.187238 4.27285e-20)
(0.979956 0.186992 -2.68678e-19)
(0.979991 0.186724 1.40675e-19)
(0.980013 0.186437 2.74349e-19)
(0.98002 0.186128 -5.74121e-19)
(0.980012 0.185803 1.89917e-19)
(0.979989 0.18546 -7.58506e-19)
(0.979953 0.185102 6.27316e-19)
(0.979904 0.184735 5.65487e-19)
(0.979844 0.184362 -8.75902e-19)
(0.979774 0.183993 -4.33322e-19)
(0.979701 0.183609 5.82735e-19)
(0.979643 0.18321 1.98026e-19)
(0.979626 0.182808 -5.47358e-19)
(0.979614 0.182413 -6.95208e-19)
(0.979576 0.182024 -8.26771e-19)
(0.97951 0.181628 5.01953e-19)
(0.979418 0.181217 1.21568e-18)
(0.9793 0.180785 4.24068e-19)
(0.979161 0.180329 -3.95772e-19)
(0.979005 0.179847 4.39174e-18)
(0.978842 0.179338 -4.62815e-19)
(0.978685 0.178793 4.67032e-18)
(0.978555 0.178198 -8.53797e-18)
(0.978476 0.177534 1.42035e-18)
(0.978483 0.176762 2.18831e-19)
(0.978614 0.175831 -3.50615e-19)
(0.978911 0.174669 -7.09467e-18)
(0.979414 0.173189 -1.14053e-17)
(0.980147 0.171307 1.04686e-17)
(0.981118 0.168948 1.40703e-17)
(0.982302 0.166073 7.73772e-18)
(0.983655 0.162684 -1.50895e-17)
(0.985104 0.158833 8.46371e-18)
(0.986564 0.154614 2.13759e-17)
(0.987962 0.150051 9.52422e-18)
(0.989143 0.145347 1.65174e-17)
(0.989296 0.139368 8.6355e-18)
(0.992116 0.131032 2.65855e-17)
(0.984964 0.128221 -1.94255e-17)
(0.981938 0.188886 2.31837e-21)
(0.981711 0.188933 -7.01816e-21)
(0.981478 0.188967 2.54411e-20)
(0.981239 0.18899 6.92976e-21)
(0.980994 0.189019 -3.5755e-20)
(0.980747 0.189048 -4.21558e-20)
(0.980502 0.189076 1.00482e-19)
(0.980263 0.189103 -1.11356e-19)
(0.980034 0.189127 -2.84473e-20)
(0.97982 0.189145 7.01681e-20)
(0.979626 0.189157 6.65495e-20)
(0.979455 0.189157 2.06353e-19)
(0.979311 0.189145 -1.1512e-19)
(0.979196 0.189117 -2.0351e-19)
(0.97911 0.189071 4.51582e-20)
(0.979051 0.189005 -1.72052e-19)
(0.97902 0.188916 1.29431e-19)
(0.979011 0.188803 -2.2449e-19)
(0.97902 0.188664 3.44308e-20)
(0.979043 0.188498 -7.7916e-20)
(0.979075 0.188305 -5.13376e-20)
(0.979109 0.188084 -2.15658e-19)
(0.979142 0.187836 1.58419e-20)
(0.97917 0.187564 4.71806e-19)
(0.97919 0.187263 -1.65525e-19)
(0.979199 0.186939 5.04401e-20)
(0.979196 0.186593 1.5311e-19)
(0.979183 0.186224 -2.09202e-19)
(0.979158 0.185841 -4.63496e-20)
(0.979123 0.185447 3.07229e-19)
(0.979078 0.185052 3.42973e-19)
(0.979029 0.184637 -2.58309e-19)
(0.978989 0.184205 -8.45658e-19)
(0.978983 0.183764 -1.21222e-18)
(0.978981 0.183323 1.82781e-18)
(0.978946 0.18288 4.97636e-19)
(0.978882 0.182417 3.11123e-19)
(0.978788 0.181925 1.62253e-18)
(0.978669 0.181398 -1.48045e-18)
(0.978529 0.180826 9.31944e-19)
(0.978374 0.180206 4.59643e-20)
(0.978214 0.179534 5.26924e-20)
(0.978063 0.1788 -1.71968e-18)
(0.977943 0.177988 4.00169e-18)
(0.977878 0.177078 -5.40889e-18)
(0.977904 0.176037 3.3234e-18)
(0.978057 0.174823 -9.41868e-18)
(0.97838 0.173376 2.46082e-18)
(0.978913 0.171626 6.07354e-18)
(0.97968 0.169509 -1.07282e-17)
(0.980692 0.166969 -2.40494e-18)
(0.981925 0.16398 -3.83207e-19)
(0.983334 0.160553 -3.03184e-18)
(0.984847 0.156733 -9.23508e-18)
(0.986374 0.152605 5.69764e-19)
(0.987849 0.148175 9.55423e-18)
(0.989052 0.143655 -1.00953e-17)
(0.989322 0.137953 -2.85765e-18)
(0.992219 0.129872 -3.51714e-18)
(0.985269 0.127788 1.4661e-17)
(0.981855 0.189437 4.39097e-21)
(0.981629 0.18949 -3.71427e-21)
(0.981395 0.189525 3.50669e-21)
(0.981154 0.18955 2.27338e-20)
(0.980905 0.18958 3.37187e-20)
(0.980649 0.189612 -1.31772e-19)
(0.98039 0.189644 9.6469e-20)
(0.980131 0.189676 2.08161e-20)
(0.979876 0.189707 -5.81363e-21)
(0.97963 0.189735 -4.53723e-20)
(0.979395 0.189758 1.42449e-19)
(0.979178 0.189774 -4.55849e-20)
(0.978983 0.189781 -6.50774e-20)
(0.978812 0.189775 -1.99796e-19)
(0.978668 0.189754 4.04235e-19)
(0.978551 0.189715 -8.30417e-20)
(0.978463 0.189656 -7.09084e-20)
(0.978401 0.189574 -2.17714e-19)
(0.978362 0.189467 2.42458e-19)
(0.978343 0.189332 1.37674e-19)
(0.978341 0.18917 -6.2655e-20)
(0.978349 0.188978 1.11972e-19)
(0.978365 0.188755 -4.78654e-19)
(0.978383 0.188504 3.09885e-20)
(0.978399 0.18822 2.70566e-19)
(0.978412 0.187908 -5.18147e-20)
(0.978418 0.187567 -8.67697e-19)
(0.978417 0.187197 7.2221e-20)
(0.978408 0.186807 7.91174e-19)
(0.97839 0.1864 -2.16783e-19)
(0.978365 0.185984 -4.23173e-19)
(0.978337 0.185543 2.5501e-19)
(0.978313 0.185079 7.54517e-19)
(0.978316 0.184598 1.78192e-18)
(0.978323 0.184109 -2.69383e-19)
(0.978293 0.183609 3.88796e-19)
(0.978232 0.183077 -2.77628e-18)
(0.978142 0.182503 -7.98906e-19)
(0.978027 0.181879 5.16703e-19)
(0.977893 0.181194 -2.16952e-18)
(0.977748 0.180443 -4.6491e-19)
(0.977602 0.17962 1.02853e-18)
(0.97747 0.178714 8.83465e-19)
(0.977372 0.177708 2.44855e-18)
(0.977336 0.176586 8.16396e-18)
(0.977392 0.175318 -6.59386e-18)
(0.977579 0.173868 1.072e-17)
(0.977937 0.172191 8.18307e-18)
(0.978505 0.170229 -6.81397e-20)
(0.979308 0.167934 1.1047e-17)
(0.980356 0.165265 -1.51034e-17)
(0.981626 0.162209 -1.85056e-17)
(0.983075 0.15878 1.47306e-17)
(0.984631 0.155018 1.3027e-17)
(0.986203 0.150999 -5.71044e-18)
(0.987733 0.146716 -3.25557e-17)
(0.988939 0.142383 7.80823e-18)
(0.989299 0.136959 -8.54033e-18)
(0.992274 0.129136 -1.33512e-17)
(0.985584 0.127726 1.22073e-17)
(0.981779 0.189906 -4.81042e-21)
(0.981554 0.189957 5.29039e-21)
(0.981321 0.18999 3.68629e-20)
(0.98108 0.190015 -4.84634e-20)
(0.980829 0.190045 8.98602e-20)
(0.98057 0.190077 -1.33344e-19)
(0.980304 0.19011 3.79204e-20)
(0.980035 0.190144 -2.07882e-21)
(0.979764 0.190178 8.76701e-20)
(0.979495 0.190211 -4.64276e-20)
(0.979233 0.190241 1.42474e-20)
(0.978982 0.190267 1.49167e-20)
(0.978747 0.190285 -2.31797e-19)
(0.978531 0.190294 6.87413e-20)
(0.978337 0.19029 1.64112e-19)
(0.978167 0.190272 5.64134e-21)
(0.978025 0.190236 -2.82353e-19)
(0.977909 0.19018 1.15323e-19)
(0.977819 0.1901 5.51607e-19)
(0.977753 0.189994 -3.60922e-19)
(0.977708 0.189861 -2.79954e-19)
(0.97768 0.189697 2.38709e-19)
(0.977666 0.189501 1.57135e-19)
(0.977661 0.189274 1.77198e-19)
(0.977662 0.18901 -3.42252e-19)
(0.977665 0.188714 -7.55553e-19)
(0.977668 0.188384 5.68949e-19)
(0.977669 0.18802 8.32299e-19)
(0.977665 0.187629 2.41849e-19)
(0.977657 0.187214 -4.63102e-19)
(0.977645 0.186784 2.186e-19)
(0.977632 0.18632 3.79184e-19)
(0.977618 0.185828 -6.41341e-19)
(0.977628 0.185308 -8.79856e-20)
(0.977641 0.184772 -1.14844e-18)
(0.977615 0.184215 -3.12564e-19)
(0.977558 0.183614 -3.14913e-19)
(0.977474 0.18296 8.01847e-19)
(0.977367 0.182243 -1.12567e-18)
(0.977244 0.181451 3.28483e-19)
(0.977114 0.180578 5.59654e-19)
(0.976988 0.179618 1.54193e-19)
(0.976881 0.178558 -3.60148e-18)
(0.976814 0.177384 -5.12221e-18)
(0.976811 0.17608 -4.55334e-18)
(0.976906 0.174621 9.25879e-18)
(0.977133 0.172979 3.60766e-19)
(0.977531 0.171118 -3.84875e-18)
(0.978137 0.168991 2.09685e-18)
(0.978974 0.166564 -1.32362e-17)
(0.980052 0.163808 6.52114e-18)
(0.981352 0.160718 1.84857e-17)
(0.982829 0.157311 -1.07797e-18)
(0.984414 0.153623 -1.71153e-17)
(0.986016 0.149719 8.27213e-18)
(0.987585 0.145584 8.01362e-18)
(0.988785 0.141429 1.02919e-17)
(0.989213 0.136268 2.40222e-17)
(0.992261 0.128685 2.423e-17)
(0.985837 0.127878 -2.79103e-17)
(0.981702 0.190308 -4.1377e-21)
(0.981478 0.190361 6.01847e-21)
(0.981247 0.190394 1.30839e-21)
(0.981007 0.190418 2.37017e-20)
(0.980757 0.190447 -3.61179e-20)
(0.980497 0.190478 -7.57092e-20)
(0.980228 0.19051 2.66077e-20)
(0.979953 0.190544 -3.75142e-20)
(0.979673 0.190578 8.07162e-20)
(0.979391 0.190613 -1.67003e-20)
(0.97911 0.190646 -5.56688e-20)
(0.978834 0.190676 4.58709e-20)
(0.978569 0.190701 7.62407e-20)
(0.978317 0.190718 2.14085e-19)
(0.978082 0.190726 -3.90553e-19)
(0.977868 0.190721 2.01639e-19)
(0.977677 0.190702 3.1544e-20)
(0.977512 0.190664 -2.03149e-19)
(0.977371 0.190605 -1.2916e-19)
(0.977256 0.190521 4.2574e-19)
(0.977165 0.190412 -4.50916e-19)
(0.977095 0.190272 1.34959e-19)
(0.977044 0.190099 -3.72276e-19)
(0.977008 0.189895 6.25678e-19)
(0.976983 0.189652 -1.28124e-19)
(0.976966 0.189373 -3.65306e-19)
(0.976955 0.189057 2.93865e-19)
(0.976947 0.188701 5.59787e-19)
(0.97694 0.188313 -5.3279e-19)
(0.976932 0.187895 3.29855e-19)
(0.976923 0.187453 -1.14107e-18)
(0.976918 0.186971 -1.30336e-19)
(0.976909 0.186453 5.00687e-19)
(0.976922 0.185897 -2.95264e-19)
(0.976938 0.185315 -6.07179e-19)
(0.976914 0.184704 -1.43841e-18)
(0.976861 0.184038 1.81758e-18)
(0.976782 0.183308 -7.34151e-19)
(0.976684 0.182505 5.53425e-19)
(0.976574 0.181614 1.16772e-18)
(0.976461 0.18063 9.51001e-19)
(0.976357 0.179547 -5.99992e-19)
(0.976278 0.178353 2.11995e-18)
(0.976243 0.177034 4.04879e-18)
(0.976279 0.175575 -4.10788e-19)
(0.976414 0.173958 -5.63337e-18)
(0.976683 0.17216 -7.71099e-18)
(0.977121 0.170151 -6.10762e-19)
(0.977764 0.167898 6.11853e-18)
(0.978634 0.165375 -1.26114e-18)
(0.979739 0.162562 1.16985e-17)
(0.981062 0.159461 -1.83368e-17)
(0.982559 0.156091 -1.00359e-17)
(0.984163 0.152482 -4.37417e-18)
(0.985785 0.148692 -9.1754e-18)
(0.987384 0.144697 5.96505e-18)
(0.988574 0.140707 -7.87755e-18)
(0.989062 0.135785 -3.19914e-17)
(0.992178 0.128416 -3.81105e-17)
(0.985985 0.128148 1.50534e-17)
(0.981612 0.190669 -6.33118e-21)
(0.981389 0.190722 5.10594e-21)
(0.981159 0.190753 4.11991e-21)
(0.98092 0.190776 -2.99075e-20)
(0.980671 0.190804 3.10293e-20)
(0.980412 0.190834 -1.56068e-20)
(0.980143 0.190864 5.14112e-20)
(0.979865 0.190896 -7.73253e-20)
(0.979581 0.19093 4.08442e-21)
(0.979291 0.190964 5.83295e-21)