/*--------------------------------*- C++ -*----------------------------------*\
  =========                 |
  \\      /  F ield         | OpenFOAM: The Open Source CFD Toolbox
   \\    /   O peration     | Website:  https://openfoam.org
    \\  /    A nd           | Version:  6.0
     \\/     M anipulation  |
\*---------------------------------------------------------------------------*/
FoamFile
{
    version     2.0;
    format      ascii;
    class       surfaceScalarField;
    location    "9";
    object      phi;
}
// * * * * * * * * * * * * * * * * * * * * * * * * * * * * * * * * * * * * * //

dimensions      [0 3 -1 0 0 0 0];

internalField   nonuniform List<scalar> 
123526
(
4.03103e-07
2.34131e-05
-9.32875e-09
8.29541e-07
2.53138e-05
1.29177e-06
2.73688e-05
1.79051e-06
2.95905e-05
2.33102e-06
3.19925e-05
2.91427e-06
3.45893e-05
3.5462e-06
3.73967e-05
4.22839e-06
4.04317e-05
4.96829e-06
4.37119e-05
5.76779e-06
4.72581e-05
6.63344e-06
5.10924e-05
7.56822e-06
5.52371e-05
8.58007e-06
5.97173e-05
9.67533e-06
6.45575e-05
1.08638e-05
6.9788e-05
1.21476e-05
7.54442e-05
1.35366e-05
8.15567e-05
1.50439e-05
8.81554e-05
1.66781e-05
9.52877e-05
1.84442e-05
0.000102997
2.03616e-05
0.000111317
2.24408e-05
0.000120303
2.46891e-05
0.000130013
2.71336e-05
0.00014048
2.9779e-05
0.000151789
3.26466e-05
0.000163985
3.57566e-05
0.000177135
3.91227e-05
0.000191316
4.27748e-05
0.000206585
4.67256e-05
0.000223035
5.1009e-05
0.000240724
5.56421e-05
0.000259747
6.0658e-05
0.00028017
6.60834e-05
0.000302075
7.19456e-05
0.000325537
7.82856e-05
0.000350611
8.51268e-05
0.000377372
9.25068e-05
0.000405847
0.000100462
0.000436056
0.00010902
0.000468001
0.000118215
0.000501625
0.000128076
0.000536828
0.000138628
0.000573447
0.000149887
0.000611227
0.000161865
0.000649795
0.000174565
0.000688635
0.000187978
0.000727041
0.000202083
0.000764065
0.000216837
0.000798457
0.000232174
0.0008286
0.000247989
0.00085243
0.000264128
0.000867368
0.000280376
0.000870226
0.000296439
0.000857145
0.000311936
0.000823479
0.000326372
0.000763721
0.000339151
0.000671327
0.000349579
0.000539088
0.000356428
0.000358105
0.000111774
0.000353964
3.55276e-07
2.3027e-05
2.91009e-08
7.71346e-07
2.48964e-05
1.22234e-06
2.69175e-05
1.7091e-06
2.91026e-05
2.23672e-06
3.14649e-05
2.80628e-06
3.40187e-05
3.42357e-06
3.67796e-05
4.09028e-06
3.97642e-05
4.81365e-06
4.29889e-05
5.59572e-06
4.64754e-05
6.44282e-06
5.02458e-05
7.35804e-06
5.43215e-05
8.34909e-06
5.87269e-05
9.42232e-06
6.34839e-05
1.05873e-05
6.86237e-05
1.18463e-05
7.41849e-05
1.32089e-05
8.01947e-05
1.4688e-05
8.66759e-05
1.62922e-05
9.36839e-05
1.80264e-05
0.000101262
1.99099e-05
0.000109433
2.19528e-05
0.00011826
2.41625e-05
0.000127803
2.65658e-05
0.000138077
2.91672e-05
0.000149188
3.19878e-05
0.000161164
3.50476e-05
0.000174075
3.836e-05
0.000188003
4.19545e-05
0.00020299
4.58434e-05
0.000219146
5.00602e-05
0.000236507
5.46217e-05
0.000255186
5.95597e-05
0.000275231
6.49007e-05
0.000296733
7.06706e-05
0.000319767
7.6909e-05
0.000344372
8.36383e-05
0.000370641
9.08945e-05
0.000398589
9.87123e-05
0.000428237
0.000107118
0.000459593
0.000116142
0.000492598
0.000125816
0.000527151
0.00013616
0.000563099
0.000147192
0.000600188
0.000158927
0.000638053
0.000171371
0.000676183
0.000184518
0.000713883
0.000198352
0.000750218
0.000212836
0.000783958
0.000227904
0.000813512
0.000243456
0.000836857
0.000259334
0.000851463
0.000275325
0.000854209
0.000291134
0.000841309
0.000306383
0.000808205
0.000320587
0.00074949
0.00033314
0.000658746
0.000343394
0.000528801
0.000350046
0.000351408
0.000111271
0.000350451
3.43205e-07
2.26471e-05
3.50308e-08
7.52648e-07
2.44857e-05
1.19644e-06
2.64734e-05
1.6754e-06
2.86224e-05
2.19453e-06
3.09457e-05
2.7549e-06
3.34573e-05
3.36216e-06
3.61724e-05
4.01802e-06
3.91075e-05
4.72957e-06
4.22778e-05
5.49882e-06
4.57056e-05
6.33203e-06
4.94131e-05
7.23225e-06
5.34208e-05
8.20709e-06
5.77527e-05
9.2628e-06
6.24278e-05
1.04088e-05
6.74783e-05
1.16474e-05
7.2946e-05
1.2988e-05
7.88546e-05
1.44434e-05
8.52202e-05
1.6022e-05
9.21058e-05
1.77286e-05
9.95554e-05
1.95823e-05
0.00010758
2.15929e-05
0.000116249
2.37678e-05
0.000125628
2.61333e-05
0.000135711
2.86937e-05
0.000146628
3.147e-05
0.000158388
3.44813e-05
0.000171064
3.77411e-05
0.000184743
4.1278e-05
0.000199453
4.5104e-05
0.00021532
4.92516e-05
0.000232359
5.37371e-05
0.0002507
5.85914e-05
0.000270377
6.384e-05
0.000291485
6.95078e-05
0.000314099
7.56329e-05
0.000338247
8.22366e-05
0.000364037
8.93535e-05
0.000391471
9.70176e-05
0.000420572
0.000105254
0.000451355
0.000114094
0.000483757
0.000123568
0.000517675
0.000133699
0.000552966
0.000144507
0.000589378
0.000156008
0.000626549
0.000168212
0.000663976
0.000181118
0.000700974
0.00019471
0.000736622
0.000208954
0.000769711
0.000223781
0.000798681
0.000239092
0.000821545
0.000254724
0.000835827
0.000270466
0.000838465
0.000286022
0.000825748
0.00030102
0.000793207
0.000314984
0.000735522
0.000327305
0.000646424
0.000337312
0.000518792
0.000344061
0.000344659
0.000109617
0.000345749
3.46348e-07
2.22732e-05
2.61838e-08
7.49393e-07
2.40815e-05
1.18616e-06
2.60365e-05
1.65754e-06
2.815e-05
2.16836e-06
3.04349e-05
2.71974e-06
3.2905e-05
3.31719e-06
3.55751e-05
3.96244e-06
3.84615e-05
4.66237e-06
4.15782e-05
5.41905e-06
4.49483e-05
6.23854e-06
4.85942e-05
7.1239e-06
5.25351e-05
8.08252e-06
5.67947e-05
9.12064e-06
6.13894e-05
1.02474e-05
6.63521e-05
1.14652e-05
7.17279e-05
1.27831e-05
7.75371e-05
1.42138e-05
8.37892e-05
1.57655e-05
9.05544e-05
1.7443e-05
9.78776e-05
1.92649e-05
0.000105759
2.12411e-05
0.000114272
2.33785e-05
0.000123491
2.57031e-05
0.000133387
2.82191e-05
0.000144112
3.09469e-05
0.00015566
3.39055e-05
0.000168105
3.71077e-05
0.000181541
4.05817e-05
0.000195979
4.43391e-05
0.000211563
4.84116e-05
0.000228287
5.2815e-05
0.000246297
5.75794e-05
0.000265613
6.27297e-05
0.000286334
6.82901e-05
0.000308538
7.42977e-05
0.000332239
8.0773e-05
0.000357561
8.775e-05
0.000384494
9.5262e-05
0.000413059
0.000103335
0.000443281
0.000111999
0.000475092
0.000121286
0.000508387
0.00013122
0.00054303
0.000141824
0.000578773
0.000153114
0.000615256
0.000165103
0.000651984
0.000177791
0.000688282
0.000191162
0.000723245
0.000205182
0.000755685
0.00021978
0.000784072
0.000234855
0.000806461
0.000250244
0.000820422
0.000265735
0.00082296
0.000281035
0.000810432
0.000295778
0.000778448
0.000309497
0.000721784
0.000321593
0.000634306
0.00033136
0.000508997
0.000337885
0.000338097
0.000107829
0.000339593
3.50515e-07
2.19057e-05
1.50387e-08
7.46424e-07
2.36842e-05
1.1756e-06
2.5607e-05
1.63875e-06
2.76857e-05
2.14076e-06
2.99329e-05
2.68259e-06
3.23621e-05
3.26973e-06
3.49881e-05
3.90375e-06
3.78266e-05
4.59153e-06
4.08908e-05
5.33495e-06
4.42043e-05
6.14007e-06
4.77895e-05
7.00978e-06
5.16649e-05
7.95143e-06
5.58536e-05
8.97104e-06
6.03695e-05
1.00777e-05
6.52461e-05
1.12736e-05
7.05318e-05
1.25677e-05
7.62435e-05
1.39725e-05
8.23841e-05
1.5496e-05
8.90313e-05
1.71429e-05
9.62304e-05
1.89315e-05
0.00010397
2.08713e-05
0.000112332
2.29693e-05
0.000121393
2.52509e-05
0.000131105
2.77202e-05
0.000141643
3.03973e-05
0.000152983
3.33006e-05
0.000165202
3.64429e-05
0.000178399
3.98516e-05
0.00019257
4.35382e-05
0.000207876
4.75335e-05
0.000224292
5.18533e-05
0.000241977
5.65268e-05
0.000260939
6.15786e-05
0.000281283
6.70323e-05
0.000303084
7.29244e-05
0.000326347
7.92751e-05
0.00035121
8.61179e-05
0.00037765
9.34859e-05
0.000405691
0.000101405
0.000435362
0.000109906
0.00046659
0.00011902
0.000499272
0.000128774
0.000533276
0.000139189
0.000568357
0.000150285
0.000604159
0.000162073
0.000640195
0.000174555
0.0006758
0.000187714
0.000710085
0.000201514
0.000741886
0.000215886
0.000769701
0.000230723
0.000791626
0.000245865
0.00080528
0.000261101
0.000807727
0.000276142
0.00079539
0.000290628
0.000763965
0.0003041
0.000708313
0.000315974
0.000622434
0.000325531
0.000499441
0.000331808
0.000331825
0.000106422
0.000333257
3.53173e-07
2.15448e-05
6.38409e-09
7.42099e-07
2.32942e-05
1.16357e-06
2.51854e-05
1.6184e-06
2.72298e-05
2.1113e-06
2.944e-05
2.6433e-06
3.18292e-05
3.21972e-06
3.44119e-05
3.84221e-06
3.72034e-05
4.51741e-06
4.0216e-05
5.24729e-06
4.34739e-05
6.03766e-06
4.69997e-05
6.89149e-06
5.08108e-05
7.81583e-06
5.49299e-05
8.81675e-06
5.93683e-05
9.90297e-06
6.41604e-05
1.10768e-05
6.93577e-05
1.2347e-05
7.49738e-05
1.37257e-05
8.10051e-05
1.52208e-05
8.75366e-05
1.6837e-05
9.46139e-05
1.85921e-05
0.000102215
2.04956e-05
0.000110429
2.25541e-05
0.000119335
2.47928e-05
0.000128866
2.72155e-05
0.00013922
2.9842e-05
0.000150356
3.26904e-05
0.000162354
3.57731e-05
0.000175316
3.91171e-05
0.000189226
4.27337e-05
0.00020426
4.66532e-05
0.000220372
5.08908e-05
0.00023774
5.54757e-05
0.000256354
6.04316e-05
0.000276327
6.57821e-05
0.000297734
7.1563e-05
0.000320565
7.77944e-05
0.000344979
8.45095e-05
0.000370935
9.17411e-05
0.000398459
9.9515e-05
0.000427587
0.000107862
0.000458243
0.000116815
0.000490319
0.000126398
0.000523692
0.000136635
0.000558119
0.000147546
0.000593248
0.000159141
0.000628598
0.000171422
0.000663517
0.000184371
0.000697132
0.000197952
0.000728301
0.000212093
0.000755553
0.00022669
0.000777023
0.00024158
0.000790378
0.000256556
0.000792739
0.000271336
0.000780599
0.000285564
0.000749726
0.000298787
0.000695074
0.00031044
0.000610762
0.000319807
0.00049005
0.000325911
0.00032569
0.000105073
0.000327192
3.53685e-07
2.11906e-05
-1.15676e-09
7.35333e-07
2.29113e-05
1.14899e-06
2.47714e-05
1.59543e-06
2.67823e-05
2.07923e-06
2.89562e-05
2.60146e-06
3.13061e-05
3.16728e-06
3.38462e-05
3.77831e-06
3.65917e-05
4.44105e-06
3.95536e-05
5.15745e-06
4.2757e-05
5.9332e-06
4.62244e-05
6.77121e-06
4.99723e-05
7.67844e-06
5.40232e-05
8.66078e-06
5.83857e-05
9.72687e-06
6.30949e-05
1.08789e-05
6.82054e-05
1.21255e-05
7.37276e-05
1.34786e-05
7.96517e-05
1.49459e-05
8.60697e-05
1.6532e-05
9.30276e-05
1.82543e-05
0.000100493
2.01222e-05
0.000108561
2.21423e-05
0.000117315
2.4339e-05
0.00012667
2.67164e-05
0.000136843
2.92936e-05
0.000147779
3.20885e-05
0.000159559
3.51134e-05
0.000172291
3.83947e-05
0.000185945
4.19435e-05
0.000200711
4.57896e-05
0.000216526
4.9948e-05
0.000233582
5.44474e-05
0.000251855
5.93112e-05
0.000271463
6.45626e-05
0.000292482
7.02372e-05
0.000314891
7.63548e-05
0.000338861
8.29482e-05
0.000364341
9.005e-05
0.000391357
9.7686e-05
0.000419951
0.000105887
0.000450041
0.000114685
0.00048152
0.000124106
0.000514271
0.000134172
0.000548052
0.000144902
0.000582517
0.000156309
0.000617192
0.000168391
0.000651435
0.000181131
0.000684392
0.00019449
0.000714943
0.000208398
0.000741646
0.00022275
0.000762675
0.000237384
0.000775744
0.000252099
0.000778028
0.000266614
0.000766086
0.000280582
0.000735763
0.000293557
0.0006821
0.000304988
0.000599334
0.000314171
0.00048087
0.000320148
0.000319722
0.000103888
0.000321379
3.51471e-07
2.08432e-05
-4.87318e-09
7.26208e-07
2.25357e-05
1.13221e-06
2.43654e-05
1.57041e-06
2.63433e-05
2.04519e-06
2.84815e-05
2.55771e-06
3.07928e-05
3.11295e-06
3.32911e-05
3.71265e-06
3.59914e-05
4.36304e-06
3.89036e-05
5.06622e-06
4.20534e-05
5.8276e-06
4.54635e-05
6.65021e-06
4.91495e-05
7.54066e-06
5.31334e-05
8.50498e-06
5.74212e-05
9.55139e-06
6.2049e-05
1.06823e-05
6.70743e-05
1.19059e-05
7.25044e-05
1.32341e-05
7.83233e-05
1.46744e-05
8.46297e-05
1.62313e-05
9.14705e-05
1.79219e-05
9.88031e-05
1.97554e-05
0.000106727
2.17383e-05
0.000115332
2.38945e-05
0.000124513
2.6228e-05
0.000134509
2.87578e-05
0.000145249
3.15012e-05
0.000156815
3.44704e-05
0.000169322
3.76914e-05
0.000182724
4.1175e-05
0.000197227
4.49506e-05
0.000212751
4.90331e-05
0.000229499
5.34505e-05
0.000247438
5.82261e-05
0.000266688
6.33828e-05
0.000287326
6.89556e-05
0.000309318
7.49643e-05
0.000332852
8.14414e-05
0.000357864
8.84192e-05
0.000384379
9.59232e-05
0.000412447
0.000103984
0.00044198
0.000112634
0.00047287
0.000121897
0.000505008
0.000131796
0.000538152
0.000142351
0.000571961
0.00015357
0.000605971
0.000165454
0.00063955
0.000177984
0.00067186
0.000191121
0.000701804
0.000204792
0.000727969
0.000218895
0.000748567
0.000233272
0.000761357
0.000247722
0.00076357
0.000261972
0.000751826
0.000275679
0.000722045
0.000288407
0.000669359
0.000299615
0.000588109
0.000308614
0.00047185
0.00031448
0.000313827
0.000102579
0.00031573
3.43539e-07
2.05019e-05
-4.25372e-09
7.11227e-07
2.21667e-05
1.10982e-06
2.39664e-05
1.54002e-06
2.5912e-05
2.00628e-06
2.80152e-05
2.50958e-06
3.02886e-05
3.05493e-06
3.27459e-05
3.64386e-06
3.54017e-05
4.28265e-06
3.82651e-05
4.97316e-06
4.13623e-05
5.72089e-06
4.47162e-05
6.52864e-06
4.83413e-05
7.40311e-06
5.22594e-05
8.35e-06
5.6474e-05
9.37759e-06
6.10219e-05
1.04881e-05
6.59636e-05
1.16897e-05
7.13032e-05
1.29939e-05
7.70188e-05
1.44082e-05
8.32158e-05
1.59371e-05
8.99414e-05
1.75972e-05
9.71432e-05
1.93976e-05
0.000104926
2.13447e-05
0.000113385
2.3462e-05
0.000122396
2.57535e-05
0.000132218
2.82376e-05
0.000142765
3.09316e-05
0.000154121
3.38474e-05
0.000166407
3.70105e-05
0.000179561
4.04316e-05
0.000193806
4.41397e-05
0.000209043
4.81494e-05
0.00022549
5.24883e-05
0.000243099
5.71793e-05
0.000261997
6.22451e-05
0.00028226
6.77203e-05
0.000303843
7.36245e-05
0.000326948
7.99897e-05
0.000351499
8.6848e-05
0.00037752
9.42246e-05
0.00040507
0.00010215
0.000434055
0.000110655
0.000464365
0.000119764
0.000495898
0.0001295
0.000528416
0.00013988
0.000561581
0.000150914
0.000594937
0.0001626
0.000627864
0.000174919
0.000659542
0.00018783
0.000688893
0.000201264
0.000714537
0.000215117
0.000734718
0.000229234
0.00074724
0.000243419
0.000749389
0.000257404
0.000737845
0.000270853
0.000708602
0.000283335
0.00065688
0.000294321
0.000577127
0.000303135
0.000463042
0.000308893
0.000308082
0.000101333
0.000310188
3.3305e-07
2.01669e-05
1.15075e-09
6.94519e-07
2.18044e-05
1.08614e-06
2.35747e-05
1.50883e-06
2.54885e-05
1.96679e-06
2.75573e-05
2.46118e-06
2.97935e-05
2.99675e-06
3.22105e-05
3.57522e-06
3.48227e-05
4.20258e-06
3.76381e-05
4.88088e-06
4.06837e-05
5.61528e-06
4.39823e-05
6.40879e-06
4.75476e-05
7.2677e-06
5.1401e-05
8.19789e-06
5.55437e-05
9.20724e-06
6.00131e-05
1.02981e-05
6.48726e-05
1.14784e-05
7.01234e-05
1.27596e-05
7.57374e-05
1.41489e-05
8.18268e-05
1.56507e-05
8.84395e-05
1.72814e-05
9.55127e-05
1.905e-05
0.000103157
2.09627e-05
0.000111473
2.30427e-05
0.000120316
2.52937e-05
0.000129967
2.7734e-05
0.000140325
3.03805e-05
0.000151475
3.3245e-05
0.000163542
3.63525e-05
0.000176454
3.97136e-05
0.000190445
4.33568e-05
0.0002054
4.72964e-05
0.00022155
5.15598e-05
0.000238836
5.61694e-05
0.000257387
6.11477e-05
0.000277282
6.65287e-05
0.000298462
7.23318e-05
0.000321145
7.85887e-05
0.000345241
8.5331e-05
0.000370778
9.25835e-05
0.000397817
0.000100376
0.000426262
0.000108739
0.000456001
0.000117697
0.00048694
0.000127271
0.000518842
0.000137478
0.000551373
0.000148327
0.000584087
0.000159815
0.000616376
0.000171922
0.000647433
0.000184608
0.000676205
0.000197803
0.000701337
0.000211405
0.000721111
0.000225263
0.000733373
0.000239184
0.000735461
0.000252906
0.000724116
0.000266098
0.000695401
0.000278337
0.000644629
0.000289105
0.000566344
0.000297736
0.000454391
0.000303384
0.000302409
9.99388e-05
0.000304725
3.20509e-07
1.98375e-05
7.42899e-09
6.7566e-07
2.14482e-05
1.0605e-06
2.31897e-05
1.47593e-06
2.50722e-05
1.92601e-06
2.71072e-05
2.41193e-06
2.93068e-05
2.9383e-06
3.16842e-05
3.50681e-06
3.42535e-05
4.12331e-06
3.70219e-05
4.78983e-06
4.00167e-05
5.51146e-06
4.3261e-05
6.29112e-06
4.67676e-05
7.13509e-06
5.05575e-05
8.04904e-06
5.46295e-05
9.04082e-06
5.90217e-05
1.01127e-05
6.38005e-05
1.12725e-05
6.89639e-05
1.25314e-05
7.44782e-05
1.38966e-05
8.0462e-05
1.53723e-05
8.69635e-05
1.69747e-05
9.39105e-05
1.87127e-05
0.000101419
2.05922e-05
0.000109594
2.26361e-05
0.000118272
2.48481e-05
0.000127755
2.72461e-05
0.000137927
2.98469e-05
0.000148874
3.26618e-05
0.000160727
3.57157e-05
0.0001734
3.90189e-05
0.000187142
4.25993e-05
0.000201819
4.64713e-05
0.000217678
5.06616e-05
0.000234646
5.51924e-05
0.000252856
6.00858e-05
0.000272388
6.53753e-05
0.000293172
7.10801e-05
0.00031544
7.72314e-05
0.00033909
8.38602e-05
0.000364149
9.09911e-05
0.000390686
9.86531e-05
0.0004186
0.000106876
0.000447778
0.000115684
0.000478132
0.000125098
0.000509428
0.000135132
0.000541339
0.000145796
0.000573423
0.000157086
0.000605087
0.000168981
0.000635538
0.000181441
0.000663746
0.000194398
0.000688382
0.000207751
0.000707762
0.000221351
0.000719774
0.00023501
0.000721805
0.000248471
0.000710658
0.00026141
0.000682467
0.000273411
0.000632631
0.000283965
0.000555797
0.000292417
0.000445946
0.000297954
0.000296888
9.86133e-05
0.000299332
3.08681e-07
1.9514e-05
1.4657e-08
6.58026e-07
2.10984e-05
1.03631e-06
2.28115e-05
1.44468e-06
2.46634e-05
1.88694e-06
2.66651e-05
2.36447e-06
2.88288e-05
2.88161e-06
3.11673e-05
3.4403e-06
3.36945e-05
4.04604e-06
3.64165e-05
4.70109e-06
3.93614e-05
5.4102e-06
4.25524e-05
6.17651e-06
4.60012e-05
7.00587e-06
4.97286e-05
7.90418e-06
5.37311e-05
8.87886e-06
5.80475e-05
9.93236e-06
6.2747e-05
1.10722e-05
6.78245e-05
1.23096e-05
7.32407e-05
1.36512e-05
7.91206e-05
1.51017e-05
8.55129e-05
1.66766e-05
9.23357e-05
1.83849e-05
9.9711e-05
2.02322e-05
0.000107746
2.22411e-05
0.000116263
2.44153e-05
0.000125581
2.67724e-05
0.00013557
2.93288e-05
0.000146318
3.20956e-05
0.00015796
3.50974e-05
0.000170398
3.83443e-05
0.000183895
4.18638e-05
0.0001983
4.567e-05
0.000213872
4.97891e-05
0.000230527
5.42431e-05
0.000248403
5.90537e-05
0.000267578
6.42537e-05
0.000287972
6.98623e-05
0.000309831
7.591e-05
0.000333042
8.24272e-05
0.000357631
8.94382e-05
0.000383675
9.69714e-05
0.000411067
0.000105056
0.000439693
0.000113715
0.000469472
0.000122969
0.000500175
0.000132831
0.000531475
0.000143311
0.000562943
0.000154402
0.000593994
0.000166086
0.000623853
0.000178322
0.000651508
0.000191041
0.000675659
0.000204146
0.000694653
0.000217491
0.000706421
0.000230892
0.000708398
0.000244097
0.000697447
0.000256788
0.000669769
0.000268556
0.000620852
0.0002789
0.000545438
0.000287179
0.000437649
0.000292605
0.000291439
9.71641e-05
0.000294007
2.96005e-07
1.91957e-05
2.06027e-08
6.39062e-07
2.07542e-05
1.0108e-06
2.24394e-05
1.4121e-06
2.42611e-05
1.8469e-06
2.62302e-05
2.31634e-06
2.83586e-05
2.82487e-06
3.06588e-05
3.37412e-06
3.31446e-05
3.96973e-06
3.58211e-05
4.61367e-06
3.8717e-05
5.31085e-06
4.18555e-05
6.06411e-06
4.52476e-05
6.87948e-06
4.89137e-05
7.7625e-06
5.28479e-05
8.72068e-06
5.70897e-05
9.75627e-06
6.17112e-05
1.08768e-05
6.67043e-05
1.20932e-05
7.20241e-05
1.34121e-05
7.78019e-05
1.4838e-05
8.40869e-05
1.63862e-05
9.07877e-05
1.80654e-05
9.80316e-05
1.98814e-05
0.000105931
2.18563e-05
0.000114288
2.39936e-05
0.000123444
2.63107e-05
0.000133253
2.88237e-05
0.000143805
3.15437e-05
0.00015524
3.44946e-05
0.000167447
3.76865e-05
0.000180704
4.11464e-05
0.00019484
4.48882e-05
0.000210131
4.89376e-05
0.000226477
5.33163e-05
0.000244024
5.80456e-05
0.000262848
6.31578e-05
0.00028286
6.86716e-05
0.000304317
7.46172e-05
0.000327096
8.10243e-05
0.000351224
8.79167e-05
0.000376782
9.53221e-05
0.000403661
0.000103269
0.000431745
0.00011178
0.000460961
0.000120874
0.000491081
0.000130566
0.000521784
0.000140861
0.000552648
0.000151756
0.0005831
0.00016323
0.00061238
0.000175242
0.000639497
0.000187727
0.000663175
0.000200588
0.000681795
0.000213681
0.000693328
0.000226828
0.000695256
0.000239781
0.000684498
0.000252229
0.000657328
0.000263769
0.000609317
0.00027391
0.000535305
0.000282021
0.000429547
0.000287339
0.000286141
9.58043e-05
0.000288753
2.85093e-07
1.88829e-05
2.73257e-08
6.22651e-07
2.04162e-05
9.88139e-07
2.2074e-05
1.38272e-06
2.3866e-05
1.81006e-06
2.58031e-05
2.27149e-06
2.78967e-05
2.77121e-06
3.01593e-05
3.31109e-06
3.26043e-05
3.89644e-06
3.52361e-05
4.52946e-06
3.80838e-05
5.21471e-06
4.11707e-05
5.95525e-06
4.4507e-05
6.75671e-06
4.81127e-05
7.62483e-06
5.19797e-05
8.56671e-06
5.61483e-05
9.5848e-06
6.0693e-05
1.06863e-05
6.56032e-05
1.18821e-05
7.08282e-05
1.31786e-05
7.65057e-05
1.45804e-05
8.26851e-05
1.61023e-05
8.92659e-05
1.77532e-05
9.63807e-05
1.95384e-05
0.000104145
2.14798e-05
0.000112347
2.3581e-05
0.000121343
2.58589e-05
0.000130975
2.83294e-05
0.000141335
3.10034e-05
0.000152566
3.39043e-05
0.000164546
3.70422e-05
0.000177566
4.04436e-05
0.000191439
4.4122e-05
0.000206453
4.81029e-05
0.000222497
5.24075e-05
0.000239719
5.70567e-05
0.000258199
6.20822e-05
0.000277834
6.75025e-05
0.000298897
7.3347e-05
0.000321252
7.96451e-05
0.000344926
8.64198e-05
0.000370007
9.36986e-05
0.000396382
0.000101509
0.000423934
0.000109873
0.000452597
0.000118809
0.000482145
0.00012833
0.000512262
0.000138443
0.000542535
0.000149142
0.0005724
0.000160407
0.000601114
0.000172199
0.000627703
0.000184452
0.000650919
0.000197072
0.000669173
0.000209918
0.000680474
0.000222816
0.000682353
0.000235523
0.000671786
0.000247732
0.000645111
0.000259051
0.000597988
0.000268995
0.000525349
0.000276944
0.00042158
0.000282156
0.000280909
9.43454e-05
0.000283573
2.74498e-07
1.85752e-05
3.21661e-08
6.06304e-07
2.00836e-05
9.65643e-07
2.17145e-05
1.35363e-06
2.34774e-05
1.77381e-06
2.53829e-05
2.22758e-06
2.74424e-05
2.71896e-06
2.9668e-05
3.2498e-06
3.20731e-05
3.82529e-06
3.46609e-05
4.44759e-06
3.74612e-05
5.12122e-06
4.04973e-05
5.84915e-06
4.37788e-05
6.63702e-06
4.73252e-05
7.49035e-06
5.11262e-05
8.41623e-06
5.52228e-05
9.41703e-06
5.96921e-05
1.04998e-05
6.45207e-05
1.16754e-05
6.96525e-05
1.29499e-05
7.52313e-05
1.43279e-05
8.1307e-05
1.58241e-05
8.77699e-05
1.7447e-05
9.47578e-05
1.9202e-05
0.000102391
2.11105e-05
0.000110438
2.3176e-05
0.000119277
2.54153e-05
0.000128735
2.78439e-05
0.000138906
3.04725e-05
0.000149938
3.33243e-05
0.000161695
3.64089e-05
0.000174481
3.97525e-05
0.000188095
4.33684e-05
0.000202837
4.72817e-05
0.000218583
5.15129e-05
0.000235488
5.60829e-05
0.000253629
6.10227e-05
0.000272894
6.63503e-05
0.000293569
7.20948e-05
0.000315507
7.82847e-05
0.000338736
8.49428e-05
0.000363349
9.20957e-05
0.000389229
9.97707e-05
0.000416259
0.000107988
0.000444379
0.000116767
0.000473367
0.000126119
0.00050291
0.00013605
0.000532603
0.000146556
0.000561895
0.000157615
0.000590055
0.000169189
0.000616131
0.000181214
0.000638895
0.000193597
0.000656793
0.000206201
0.00066787
0.000218855
0.000669703
0.000231321
0.000659325
0.000243299
0.00063314
0.000254402
0.000586891
0.000264154
0.000515605
0.000271948
0.000413797
0.000277057
0.000275823
9.29881e-05
0.000278471
2.66129e-07
1.82729e-05
3.65597e-08
5.92651e-07
1.9757e-05
9.45952e-07
2.13614e-05
1.32745e-06
2.30957e-05
1.7404e-06
2.49702e-05
2.18641e-06
2.69961e-05
2.66924e-06
2.91854e-05
3.19099e-06
3.15511e-05
3.75651e-06
3.40957e-05
4.36821e-06
3.68494e-05
5.03025e-06
3.98357e-05
5.74583e-06
4.30632e-05
6.52016e-06
4.65512e-05
7.35902e-06
5.02874e-05
8.26905e-06
5.43131e-05
9.25284e-06
5.87083e-05
1.03171e-05
6.34567e-05
1.14726e-05
6.8497e-05
1.27255e-05
7.39787e-05
1.408e-05
7.99524e-05
1.55507e-05
8.62993e-05
1.71459e-05
9.31625e-05
1.8871e-05
0.000100666
2.0747e-05
0.000108562
2.27773e-05
0.000117247
2.49785e-05
0.000126534
2.73656e-05
0.000136519
2.99495e-05
0.000147354
3.27525e-05
0.000158892
3.57845e-05
0.000171449
3.9071e-05
0.000184809
4.2625e-05
0.000199283
4.64712e-05
0.000214737
5.063e-05
0.000231329
5.51215e-05
0.000249138
5.99764e-05
0.00026804
6.52122e-05
0.000288333
7.08574e-05
0.000309862
7.69401e-05
0.000332653
8.34824e-05
0.000356807
9.05104e-05
0.000382201
9.80506e-05
0.000408719
0.000106123
0.000436306
0.000114746
0.000464744
0.00012393
0.000493725
0.000133683
0.000522851
0.000143997
0.00055158
0.000154853
0.000579198
0.000166213
0.000604769
0.000178013
0.000627092
0.000190164
0.00064464
0.000202531
0.000655496
0.000214946
0.000657284
0.000227177
0.000647089
0.000238929
0.000621382
0.000249822
0.000575989
0.000259388
0.000506027
0.000267032
0.000406136
0.000272042
0.000270794
9.1545e-05
0.000273448
2.57502e-07
1.79754e-05
3.8661e-08
5.78077e-07
1.94355e-05
9.25239e-07
2.1014e-05
1.3001e-06
2.27201e-05
1.70608e-06
2.45641e-05
2.14452e-06
2.65571e-05
2.61931e-06
2.87107e-05
3.13224e-06
3.10377e-05
3.6883e-06
3.35398e-05
4.28959e-06
3.62477e-05
4.94045e-06
3.91851e-05
5.6438e-06
4.23596e-05
6.40502e-06
4.57903e-05
7.22952e-06
4.94627e-05
8.12407e-06
5.34189e-05
9.09103e-06
5.77412e-05
1.01372e-05
6.24108e-05
1.1273e-05
6.73611e-05
1.25044e-05
7.27476e-05
1.38357e-05
7.86209e-05
1.52812e-05
8.4854e-05
1.68491e-05
9.15946e-05
1.85447e-05
9.89701e-05
2.03885e-05
0.000106718
2.2384e-05
0.000115252
2.45474e-05
0.000124371
2.68936e-05
0.000134173
2.9433e-05
0.000144815
3.21878e-05
0.000156137
3.51676e-05
0.00016847
3.83975e-05
0.000181579
4.18903e-05
0.00019579
4.56701e-05
0.000210958
4.97569e-05
0.000227243
5.41707e-05
0.000244724
5.89413e-05
0.000263269
6.40861e-05
0.000283188
6.96329e-05
0.000304315
7.56092e-05
0.000326677
8.20367e-05
0.000350379
8.89408e-05
0.000375297
9.63475e-05
0.000401312
0.000104276
0.000428378
0.000112744
0.000456276
0.000121763
0.000484706
0.000131339
0.000513276
0.000141464
0.000541455
0.00015212
0.000568543
0.000163269
0.000593622
0.00017485
0.000615513
0.000186773
0.00063272
0.000198908
0.000643362
0.00021109
0.000645106
0.000223092
0.000635093
0.000234623
0.000609857
0.000245312
0.000565306
0.000254697
0.000496651
0.000262197
0.000398649
0.000267112
0.000265904
9.02052e-05
0.000268509
2.50525e-07
1.76833e-05
4.17236e-08
5.65911e-07
1.912e-05
9.0717e-07
2.06729e-05
1.27569e-06
2.23514e-05
1.6746e-06
2.41654e-05
2.10547e-06
2.61259e-05
2.57192e-06
2.82445e-05
3.07599e-06
3.05335e-05
3.62232e-06
3.29938e-05
4.21329e-06
3.56567e-05
4.85286e-06
3.85459e-05
5.54418e-06
4.16683e-05
6.29222e-06
4.50427e-05
7.1026e-06
4.86524e-05
7.98169e-06
5.25402e-05
8.93205e-06
5.67909e-05
9.96013e-06
6.1383e-05
1.10763e-05
6.62449e-05
1.22865e-05
7.15376e-05
1.35949e-05
7.73125e-05
1.50154e-05
8.34336e-05
1.65562e-05
9.00537e-05
1.82225e-05
9.7304e-05
2.00345e-05
0.000104906
2.19954e-05
0.000113291
2.41214e-05
0.000122245
2.64269e-05
0.000131867
2.89223e-05
0.000142319
3.16294e-05
0.00015343
3.45575e-05
0.000165542
3.77312e-05
0.000178406
4.11632e-05
0.000192358
4.48772e-05
0.000207244
4.88928e-05
0.000223227
5.32294e-05
0.000240387
5.79165e-05
0.000258582
6.29711e-05
0.000278134
6.84203e-05
0.000298866
7.42912e-05
0.000320806
8.06049e-05
0.000344066
8.73863e-05
0.000368515
9.46608e-05
0.000394038
0.000102448
0.000420591
0.000110763
0.000447961
0.000119618
0.00047585
0.000129019
0.000503875
0.000138958
0.000531515
0.000149418
0.000558083
0.00016036
0.000582678
0.000171725
0.000604146
0.000183425
0.000621018
0.000195334
0.000631447
0.000207288
0.000633147
0.000219066
0.000623311
0.000230382
0.000598536
0.000240872
0.000554809
0.000250082
0.00048743
0.000257442
0.000391275
0.000262266
0.000261064
8.87873e-05
0.000263652
2.43229e-07
1.73961e-05
4.34428e-08
5.53145e-07
1.88096e-05
8.88582e-07
2.03374e-05
1.25086e-06
2.19887e-05
1.643e-06
2.37733e-05
2.06662e-06
2.5702e-05
2.52516e-06
2.77861e-05
3.02064e-06
3.00377e-05
3.55762e-06
3.2457e-05
4.13839e-06
3.50757e-05
4.7669e-06
3.79176e-05
5.4462e-06
4.09889e-05
6.18127e-06
4.43079e-05
6.97754e-06
4.7856e-05
7.84136e-06
5.16766e-05
8.77519e-06
5.58569e-05
9.78543e-06
6.0373e-05
1.08822e-05
6.5148e-05
1.20713e-05
7.03487e-05
1.3357e-05
7.60267e-05
1.47528e-05
8.20379e-05
1.62669e-05
8.85397e-05
1.79041e-05
9.56669e-05
1.96845e-05
0.000103126
2.16112e-05
0.000111364
2.37001e-05
0.000120156
2.59653e-05
0.000129602
2.84171e-05
0.000139868
3.10769e-05
0.00015077
3.39537e-05
0.000162665
3.70718e-05
0.000175288
4.04436e-05
0.000188987
4.40923e-05
0.000203595
4.80372e-05
0.000219282
5.22974e-05
0.000236127
5.69018e-05
0.000253978
6.18669e-05
0.000273169
6.72195e-05
0.000293513
7.29859e-05
0.000315039
7.9187e-05
0.000337864
8.58471e-05
0.000361855
9.29909e-05
0.000386894
0.000100637
0.000412945
0.000108801
0.000439797
0.000117496
0.000467156
0.000126724
0.000494647
0.000136481
0.000521759
0.000146747
0.000547817
0.000157486
0.00057194
0.00016864
0.000592994
0.000180123
0.000609538
0.000191809
0.000619761
0.000203541
0.000621419
0.000215101
0.000611758
0.000226208
0.000587436
0.000236503
0.000544521
0.000245543
0.000478399
0.000252767
0.000384064
0.000257503
0.000256355
8.74698e-05
0.00025888
2.3759e-07
1.71141e-05
4.524e-08
5.42461e-07
1.85049e-05
8.72149e-07
2.00081e-05
1.22825e-06
2.16327e-05
1.61351e-06
2.33884e-05
2.02974e-06
2.52857e-05
2.48012e-06
2.73359e-05
2.96694e-06
2.95509e-05
3.4944e-06
3.19298e-05
4.06505e-06
3.45051e-05
4.68248e-06
3.73005e-05
5.34998e-06
4.03215e-05
6.0721e-06
4.35861e-05
6.85451e-06
4.70737e-05
7.70315e-06
5.08283e-05
8.62067e-06
5.49395e-05
9.61315e-06
5.93808e-05
1.06908e-05
6.40704e-05
1.1859e-05
6.91807e-05
1.31221e-05
7.47636e-05
1.44934e-05
8.06667e-05
1.59808e-05
8.70522e-05
1.75893e-05
9.40585e-05
1.93384e-05
0.000101377
2.12313e-05
0.000109471
2.32833e-05
0.000118104
2.55087e-05
0.000127377
2.79173e-05
0.000137459
3.05301e-05
0.000148157
3.33561e-05
0.000159839
3.64191e-05
0.000172225
3.97312e-05
0.000185675
4.33153e-05
0.000200011
4.71903e-05
0.000215408
5.13748e-05
0.000231943
5.58972e-05
0.000249455
6.07738e-05
0.000268292
6.60308e-05
0.000288256
7.1694e-05
0.000309376
7.77837e-05
0.000331775
8.43238e-05
0.000355315
9.13385e-05
0.000379879
9.8846e-05
0.000405437
0.000106862
0.000431781
0.000115397
0.000458621
0.000124456
0.000485588
0.000134033
0.000512182
0.00014411
0.00053774
0.00015465
0.000561399
0.000165597
0.000582046
0.000176866
0.000598267
0.000188336
0.000608286
0.000199851
0.000609901
0.000211197
0.000600409
0.000222099
0.000576529
0.000232206
0.000534407
0.00024108
0.000469515
0.000248173
0.000376958
0.000252825
0.000251688
8.6078e-05
0.00025419
2.313e-07
1.68368e-05
4.52096e-08
5.30459e-07
1.82052e-05
8.54276e-07
1.96842e-05
1.20403e-06
2.12825e-05
1.58262e-06
2.30098e-05
1.99161e-06
2.48764e-05
2.43431e-06
2.68933e-05
2.91269e-06
2.90722e-05
3.43109e-06
3.14116e-05
3.99178e-06
3.39442e-05
4.59851e-06
3.66939e-05
5.25428e-06
3.96655e-05
5.96385e-06
4.28767e-05
6.73249e-06
4.63049e-05
7.56628e-06
4.99947e-05
8.46765e-06
5.4038e-05
9.44273e-06
5.84059e-05
1.05014e-05
6.30117e-05
1.1649e-05
6.80332e-05
1.28898e-05
7.35227e-05
1.4237e-05
7.93197e-05
1.56981e-05
8.55911e-05
1.72781e-05