/*--------------------------------*- C++ -*----------------------------------*\
  =========                 |
  \\      /  F ield         | OpenFOAM: The Open Source CFD Toolbox
   \\    /   O peration     | Website:  https://openfoam.org
    \\  /    A nd           | Version:  6.0
     \\/     M anipulation  |
\*---------------------------------------------------------------------------*/
FoamFile
{
    version     2.0;
    format      ascii;
    class       volVectorField;
    location    "9";
    object      U;
}
// * * * * * * * * * * * * * * * * * * * * * * * * * * * * * * * * * * * * * //

dimensions      [0 1 -1 0 0 0 0];

internalField   nonuniform List<vector> 
62000
(
(1 4.47229e-05 -5.03572e-21)
(1 5.9234e-05 3.98587e-21)
(1 6.83747e-05 3.89366e-21)
(1 7.68915e-05 -1.62488e-20)
(1 8.48703e-05 -1.77142e-20)
(1 9.25634e-05 5.83704e-20)
(1 9.99665e-05 -6.13529e-20)
(1 0.000107145 3.41166e-20)
(1.00001 0.000114054 -1.53435e-20)
(1.00001 0.000120816 -7.53842e-20)
(1.00001 0.000127635 -9.43903e-21)
(1.00001 0.000134495 9.76364e-20)
(1.00001 0.000141541 1.92947e-20)
(1.00001 0.000148833 -6.52721e-20)
(1.00001 0.000156588 9.87695e-20)
(1.00001 0.000164806 -5.07367e-20)
(1.00001 0.000173647 5.13886e-20)
(1.00001 0.000183018 -5.86334e-20)
(1 0.000193051 2.83454e-20)
(1 0.000203574 -8.56421e-20)
(1 0.000214688 1.09461e-19)
(1 0.000226158 3.21282e-20)
(0.999998 0.000238096 4.59113e-20)
(0.999995 0.000250173 -2.02618e-19)
(0.999992 0.000262454 7.33023e-20)
(0.999987 0.000274545 -4.51841e-20)
(0.999982 0.00028631 -9.03592e-22)
(0.999976 0.000297303 -3.64868e-20)
(0.999968 0.000307118 1.1115e-19)
(0.999959 0.000315092 -6.27337e-20)
(0.999948 0.000320436 1.50322e-19)
(0.999936 0.000322308 -3.09966e-19)
(0.999922 0.000319815 2.82156e-20)
(0.999905 0.000312122 -1.06865e-19)
(0.999886 0.000298422 -3.4322e-20)
(0.999864 0.000277243 -1.12669e-19)
(0.99984 0.000247241 -3.26266e-20)
(0.999812 0.000207417 -3.6439e-20)
(0.999782 0.00015756 1.11639e-19)
(0.99975 9.83821e-05 5.26802e-19)
(0.999714 3.15602e-05 -1.2898e-19)
(0.999674 -4.03216e-05 -7.31544e-19)
(0.999629 -0.000114119 -1.16471e-18)
(0.999577 -0.000186978 6.29004e-19)
(0.999514 -0.000257773 1.97231e-19)
(0.999435 -0.00032906 -8.94597e-19)
(0.999334 -0.000409282 1.8046e-19)
(0.999206 -0.000513931 -3.86329e-19)
(0.999046 -0.000665701 -1.8205e-18)
(0.998857 -0.000890525 -4.68353e-19)
(0.998646 -0.00121326 -2.40041e-19)
(0.998433 -0.00164828 -3.12941e-18)
(0.998243 -0.0021965 5.56309e-19)
(0.998106 -0.00284403 3.52338e-18)
(0.998051 -0.00356938 8.38023e-19)
(0.998099 -0.0043577 2.83532e-18)
(0.998264 -0.0052516 -2.42645e-19)
(0.998513 -0.00626733 -3.08939e-19)
(0.999337 -0.00803313 7.60773e-19)
(0.990721 -0.0169545 1.12842e-19)
(1.00007 0.000176032 -1.3509e-21)
(1.00007 0.000210865 1.23046e-20)
(1.00007 0.000233588 4.86321e-21)
(1.00007 0.000255257 -1.98181e-20)
(1.00007 0.000275649 7.84634e-21)
(1.00007 0.00029524 -5.17449e-20)
(1.00007 0.000313877 4.52352e-20)
(1.00006 0.000331592 2.51113e-20)
(1.00006 0.000348168 -4.49857e-20)
(1.00006 0.000363735 1.82712e-21)
(1.00006 0.000378546 4.03028e-20)
(1.00006 0.000392491 1.57935e-22)
(1.00005 0.000405744 1.08735e-20)
(1.00005 0.000418326 -8.95717e-20)
(1.00005 0.000430481 1.74437e-19)
(1.00004 0.000442139 -1.495e-19)
(1.00004 0.000453419 6.83233e-20)
(1.00003 0.000464017 -1.39292e-20)
(1.00003 0.000473935 -3.74435e-20)
(1.00002 0.000482697 1.01531e-19)
(1.00001 0.000490231 -1.56967e-19)
(1.00001 0.000495884 8.96191e-20)
(0.999999 0.000499622 -1.12782e-19)
(0.99999 0.000500615 6.58546e-20)
(0.99998 0.000498775 6.09711e-20)
(0.999968 0.000493216 -3.96341e-20)
(0.999956 0.000483625 -7.24954e-22)
(0.999942 0.000469113 4.31047e-20)
(0.999926 0.00044913 3.64934e-20)
(0.999909 0.000422681 -7.72001e-20)
(0.99989 0.000388981 1.55526e-19)
(0.999869 0.000346987 3.32694e-20)
(0.999847 0.000296339 1.00246e-19)
(0.999823 0.000236917 9.93738e-21)
(0.999797 0.000169275 2.96673e-20)
(0.999768 9.41409e-05 -3.16397e-20)
(0.999737 1.2114e-05 -1.04493e-19)
(0.999705 -7.5355e-05 -5.03431e-20)
(0.999671 -0.000165024 -2.95091e-19)
(0.999636 -0.00025188 -3.49229e-19)
(0.999597 -0.000329771 2.70164e-19)
(0.999552 -0.000392472 1.76512e-19)
(0.999496 -0.000435491 1.21274e-18)
(0.999422 -0.000458775 5.94154e-20)
(0.999319 -0.000469906 -1.84222e-18)
(0.999176 -0.000487675 7.44538e-19)
(0.998982 -0.000544145 6.61223e-19)
(0.998729 -0.000684013 7.21235e-19)
(0.998414 -0.000959711 2.53221e-19)
(0.99805 -0.0014204 6.8907e-20)
(0.997663 -0.00210019 1.37324e-18)
(0.997297 -0.00300438 3.85108e-18)
(0.997004 -0.00410194 -2.65711e-18)
(0.996838 -0.00533583 -6.24764e-18)
(0.996842 -0.00663828 -1.45699e-18)
(0.997038 -0.00795912 -1.01707e-18)
(0.997463 -0.00933684 -2.01353e-18)
(0.997878 -0.010701 -9.1045e-19)
(0.999269 -0.0130286 1.25654e-18)
(0.996257 -0.0200877 4.78341e-19)
(1.00012 0.000202039 -6.55114e-21)
(1.00012 0.000241343 -8.8549e-22)
(1.00012 0.000266389 9.15783e-22)
(1.00011 0.000288753 3.98318e-21)
(1.00011 0.0003087 1.07637e-20)
(1.00011 0.000327001 -9.72149e-21)
(1.0001 0.000343519 4.9611e-20)
(1.0001 0.00035835 -2.25585e-20)
(1.00009 0.000371213 -1.16238e-20)
(1.00009 0.000382262 -6.87279e-20)
(1.00008 0.00039173 5.56428e-20)
(1.00007 0.000399492 3.93634e-21)
(1.00007 0.00040566 -1.18684e-20)
(1.00006 0.00041023 3.04578e-20)
(1.00005 0.000413399 -5.04505e-20)
(1.00004 0.000415046 2.66428e-22)
(1.00004 0.00041519 -2.19744e-20)
(1.00003 0.000413444 2.3443e-22)
(1.00002 0.000409698 4.84299e-20)
(1.00001 0.00040339 -7.22463e-20)
(1 0.000394319 4.40735e-20)
(0.99999 0.000381743 1.69579e-19)
(0.99998 0.000365573 -2.13109e-20)
(0.99997 0.000344886 -2.29222e-19)
(0.99996 0.00031966 1.16274e-19)
(0.999949 0.000289004 -6.30845e-20)
(0.999938 0.000252825 1.0189e-19)
(0.999927 0.000210461 -6.1082e-20)
(0.999916 0.000161775 -1.22704e-19)
(0.999905 0.00010637 1.30396e-19)
(0.999895 4.4247e-05 -9.27759e-20)
(0.999885 -2.45183e-05 1.26281e-19)
(0.999877 -9.93919e-05 -3.52749e-19)
(0.999871 -0.000179072 3.18722e-19)
(0.999867 -0.000260674 -1.71604e-19)
(0.999865 -0.000340619 7.20173e-20)
(0.999866 -0.000415271 5.38399e-20)
(0.99987 -0.000480544 -1.97459e-21)
(0.999878 -0.0005305 -9.50752e-21)
(0.999892 -0.000557532 3.4537e-19)
(0.999909 -0.000553511 -1.41627e-19)
(0.999928 -0.000511485 2.24555e-19)
(0.999941 -0.000428251 -7.64034e-19)
(0.999941 -0.000307711 -3.7223e-19)
(0.999919 -0.000164311 4.4604e-19)
(0.99986 -2.66013e-05 -1.29945e-18)
(0.999753 6.178e-05 2.04579e-19)
(0.999586 4.44551e-05 -1.1385e-18)
(0.99936 -0.000140364 1.64272e-18)
(0.999082 -0.000545982 4.58057e-19)
(0.998777 -0.0012041 1.34543e-19)
(0.998485 -0.00211114 -1.9298e-19)
(0.998253 -0.00322122 9.54472e-19)
(0.99813 -0.00445831 5.98791e-19)
(0.998154 -0.00573725 -1.72917e-18)
(0.998341 -0.00699055 -1.13569e-18)
(0.99875 -0.00823663 -4.67647e-19)
(0.998989 -0.00937119 -1.89273e-18)
(0.999958 -0.0111941 -1.80725e-19)
(0.999783 -0.0161528 2.10585e-19)
(1.00011 0.000181043 -6.49552e-21)
(1.00011 0.000223945 1.88386e-20)
(1.0001 0.000251834 -2.72628e-21)
(1.0001 0.000275155 -1.74695e-20)
(1.0001 0.000294601 2.50112e-20)
(1.00009 0.000311493 4.1041e-20)
(1.00008 0.000325811 -5.09378e-20)
(1.00008 0.000337649 5.27434e-21)
(1.00007 0.000346727 1.60994e-20)
(1.00006 0.000353242 3.2053e-20)
(1.00005 0.000357478 -5.67379e-20)
(1.00004 0.000359385 -1.67937e-20)
(1.00003 0.000359138 -1.80695e-20)
(1.00002 0.0003568 7.93055e-20)
(1.00001 0.000352584 -5.11147e-20)
(0.999998 0.000346459 1.1559e-19)
(0.999986 0.000338443 -1.35722e-19)
(0.999974 0.000328152 -1.94049e-20)
(0.999962 0.00031548 1.35333e-19)
(0.999949 0.000299836 -4.59489e-20)
(0.999937 0.00028102 -1.64098e-20)
(0.999924 0.00025828 -1.72856e-20)
(0.999911 0.000231577 -1.54777e-19)
(0.999898 0.000199992 8.71251e-20)
(0.999886 0.000163646 -3.94921e-20)
(0.999873 0.000121701 6.24874e-20)
(0.999861 7.4302e-05 2.88764e-20)
(0.999849 2.09706e-05 1.43405e-19)
(0.999838 -3.81018e-05 -8.89429e-20)
(0.999828 -0.000102956 -1.17131e-19)
(0.99982 -0.00017305 1.84822e-19)
(0.999813 -0.000247626 -1.51459e-19)
(0.99981 -0.000325497 2.83825e-19)
(0.99981 -0.000404765 -1.74185e-19)
(0.999814 -0.000481648 7.29023e-20)
(0.999822 -0.000551008 1.27681e-19)
(0.999835 -0.000608173 -5.73285e-20)
(0.999854 -0.000648176 6.88188e-20)
(0.999882 -0.000664395 -3.564e-20)
(0.999921 -0.000648901 1.06186e-19)
(0.999969 -0.000593658 -3.02597e-19)
(1.00003 -0.000492387 8.45161e-20)
(1.00009 -0.000343383 1.71717e-19)
(1.00015 -0.000152739 4.36269e-19)
(1.00021 6.25365e-05 5.30102e-19)
(1.00024 0.000271298 1.04322e-19)
(1.00025 0.000427918 8.09948e-19)
(1.00021 0.000475245 8.65062e-19)
(1.00013 0.00035219 9.59043e-19)
(1 7.83826e-06 -7.00201e-19)
(0.99985 -0.000586458 -9.9605e-19)
(0.999692 -0.00142476 5.82519e-19)
(0.999565 -0.00246049 7.63437e-19)
(0.999504 -0.00361905 2.32292e-18)
(0.999538 -0.00482098 1.53338e-18)
(0.999673 -0.00601049 1.99234e-18)
(0.999985 -0.00721356 3.54111e-18)
(1.00003 -0.00838811 -8.31516e-20)
(1.00043 -0.0102159 -1.56644e-18)
(0.999947 -0.0161366 -1.33051e-18)
(1.00005 0.000155771 1.24203e-20)
(1.00004 0.000207302 -3.92599e-21)
(1.00004 0.00024125 6.24137e-21)
(1.00004 0.000268463 -8.35023e-21)
(1.00003 0.000290087 1.77712e-20)
(1.00003 0.000308108 -8.33513e-21)
(1.00002 0.000322686 4.28296e-21)
(1.00001 0.000334029 -6.0555e-20)
(1 0.000341971 4.83368e-20)
(0.999994 0.000346785 -9.22691e-20)
(0.999984 0.00034891 9.70512e-20)
(0.999973 0.000348338 -1.1207e-20)
(0.999961 0.000345352 -2.37996e-20)
(0.999948 0.000340058 -1.05385e-20)
(0.999935 0.000332827 -2.21398e-21)
(0.999921 0.000323624 -9.87792e-20)
(0.999906 0.000312567 4.07267e-21)
(0.99989 0.000299276 1.00812e-19)
(0.999874 0.000283742 -3.18712e-20)
(0.999858 0.000265372 -3.28458e-20)
(0.999841 0.000244023 5.37556e-20)
(0.999823 0.000218973 -2.62852e-20)
(0.999805 0.000190211 1.07766e-19)
(0.999786 0.000156858 5.85578e-20)
(0.999767 0.000119082 4.44908e-20)
(0.999747 7.60445e-05 -1.34347e-19)
(0.999727 2.79654e-05 -1.87364e-20)
(0.999706 -2.56382e-05 -1.04307e-19)
(0.999686 -8.45445e-05 1.91744e-20)
(0.999665 -0.000148864 -3.54741e-20)
(0.999644 -0.000218052 -1.38934e-20)
(0.999625 -0.000291068 1.13392e-19)
(0.999607 -0.000366947 -2.84358e-19)
(0.999591 -0.000443785 -1.34453e-20)
(0.999578 -0.000517889 -1.49087e-19)
(0.999567 -0.000584494 -7.32981e-20)
(0.99956 -0.000639489 1.6473e-20)
(0.999558 -0.000678675 -2.46686e-19)
(0.999565 -0.000696304 3.83267e-19)
(0.999582 -0.000685718 7.82329e-20)
(0.999612 -0.000640295 4.27839e-19)
(0.999656 -0.0005552 -3.21223e-19)
(0.999713 -0.000430276 -2.22267e-19)
(0.99978 -0.000272691 -4.44176e-20)
(0.999854 -9.9548e-05 3.99804e-19)
(0.999929 5.92977e-05 5.38923e-19)
(0.999997 0.000161236 2.00431e-19)
(1.00005 0.000153909 2.90596e-19)
(1.00008 -1.77793e-05 -2.40107e-19)
(1.00008 -0.000398571 1.87715e-18)
(1.00007 -0.00101242 4.77574e-19)
(1.00005 -0.00185224 -4.33884e-19)
(1.00005 -0.00287449 2.26178e-19)
(1.00009 -0.00401269 1.6153e-18)
(1.00018 -0.00520064 -1.07781e-19)
(1.00033 -0.00640463 -1.55896e-18)
(1.00061 -0.00766424 -3.46595e-18)
(1.00059 -0.00900112 2.89219e-18)
(1.00071 -0.011022 -1.69375e-18)
(0.999779 -0.0176715 1.64236e-18)
(0.999953 0.000137272 -4.64813e-21)
(0.999953 0.000196825 1.77513e-20)
(0.999951 0.000236916 -2.77168e-20)
(0.999948 0.000268824 1.96263e-20)
(0.999943 0.000293867 1.20938e-20)
(0.999938 0.000314655 -1.21734e-20)
(0.999931 0.000331508 9.75273e-22)
(0.999924 0.000344559 -8.29292e-21)
(0.999915 0.000353686 -2.66789e-20)
(0.999906 0.000359181 4.88519e-20)
(0.999895 0.000361567 -7.25377e-20)
(0.999884 0.000360925 6.08464e-20)
(0.999872 0.00035766 5.15698e-20)
(0.999858 0.000351967 -7.66286e-20)
(0.999844 0.000344282 -2.41766e-20)
(0.999828 0.000334703 8.75073e-20)
(0.999811 0.000323393 -1.02501e-19)
(0.999794 0.000310037 1.37382e-19)
(0.999775 0.000294677 -2.52034e-20)
(0.999754 0.000276727 1.41746e-20)
(0.999733 0.000256079 -2.19699e-20)
(0.99971 0.000232051 -2.70404e-20)
(0.999686 0.000204633 -4.98825e-20)
(0.999661 0.000172981 8.45012e-20)
(0.999634 0.000137279 -5.6956e-20)
(0.999605 9.66379e-05 -5.55629e-20)
(0.999574 5.12762e-05 1.12859e-19)
(0.999542 5.76353e-07 -1.07812e-19)
(0.999508 -5.53528e-05 1.71951e-19)
(0.999472 -0.000116954 -9.07598e-20)
(0.999434 -0.000183932 7.09649e-20)
(0.999395 -0.000255525 -1.20235e-19)
(0.999354 -0.000330913 1.32249e-19)
(0.999313 -0.000408772 -1.04603e-20)
(0.99927 -0.00048636 -6.27942e-21)
(0.999227 -0.000559672 -3.26261e-21)
(0.999185 -0.000626337 -8.0166e-20)
(0.999145 -0.000683835 2.22189e-19)
(0.99911 -0.000728097 -1.69561e-19)
(0.999084 -0.00075453 -1.0201e-18)
(0.999069 -0.000758607 -4.35991e-19)
(0.999068 -0.000737336 2.94509e-19)
(0.999085 -0.00069214 -3.76794e-19)
(0.99912 -0.000630789 -3.55165e-19)
(0.999174 -0.000569349 -3.47144e-20)
(0.999245 -0.000534575 9.32785e-19)
(0.99933 -0.000563636 -1.31615e-18)
(0.999426 -0.000701301 -1.27169e-18)
(0.999527 -0.00099375 -7.30713e-19)
(0.999631 -0.00147694 -1.3351e-18)
(0.999737 -0.00216823 9.91267e-19)
(0.999854 -0.00305803 -3.0558e-19)
(0.999988 -0.00410533 -2.76104e-18)
(1.00015 -0.00525138 6.53889e-19)
(1.00034 -0.00644172 7.26408e-19)
(1.00056 -0.00766087 -1.49579e-18)
(1.00088 -0.00895284 8.41312e-19)
(1.0009 -0.0103618 9.308e-19)
(1.00099 -0.0124208 2.73791e-18)
(1.00021 -0.0190206 5.02416e-21)
(0.999846 0.000128497 5.36767e-21)
(0.999849 0.000195937 -2.29028e-20)
(0.999848 0.000242575 1.05695e-20)
(0.999844 0.000279321 1.87299e-20)
(0.99984 0.00030802 -3.81548e-20)
(0.999835 0.000331843 3.03765e-20)
(0.999829 0.000351245 -1.92665e-20)
(0.999823 0.000366452 1.55702e-20)
(0.999815 0.000377399 2.36871e-20)
(0.999806 0.00038444 -5.44492e-20)
(0.999796 0.000388166 7.51972e-20)
(0.999785 0.000388693 3.06082e-20)
(0.999773 0.000386435 -1.16864e-19)
(0.99976 0.000381641 -2.10186e-20)
(0.999746 0.000374841 5.7574e-20)
(0.99973 0.000366126 3.58315e-20)
(0.999712 0.000355704 -4.19373e-20)
(0.999693 0.000343293 3.58713e-20)
(0.999673 0.000329017 5.38141e-20)
(0.99965 0.000312303 -2.52997e-20)
(0.999626 0.000293084 -1.41619e-20)
(0.9996 0.000270747 4.97323e-20)
(0.999571 0.000245246 1.00868e-19)
(0.999541 0.000215785 -7.0844e-20)
(0.999507 0.000182538 -7.81329e-20)
(0.999472 0.000144539 8.56986e-20)
(0.999433 0.000101963 -6.50742e-20)
(0.999391 5.4025e-05 -2.76817e-20)
(0.999345 6.51565e-07 2.20567e-19)
(0.999296 -5.90034e-05 -9.63035e-20)
(0.999243 -0.000125066 -7.70261e-20)
(0.999186 -0.000197002 1.00257e-19)
(0.999126 -0.000274649 7.08905e-20)
(0.999061 -0.000357149 -6.27751e-20)
(0.998993 -0.000442633 -4.45958e-20)
(0.99892 -0.000528579 1.48781e-19)
(0.998845 -0.000614357 3.47162e-20)
(0.998769 -0.000699532 5.10781e-20)
(0.998695 -0.000781994 -2.89562e-19)
(0.998626 -0.000859378 -2.99532e-19)
(0.998566 -0.000929402 5.69875e-19)
(0.99852 -0.000990906 4.6825e-19)
(0.998492 -0.00104669 7.81378e-19)
(0.998487 -0.00110477 -7.51111e-19)
(0.99851 -0.0011796 -8.4579e-19)
(0.998562 -0.00129405 -5.12085e-19)
(0.998648 -0.00147887 1.27547e-18)
(0.998765 -0.00177021 1.26525e-18)
(0.998914 -0.00220428 -1.35771e-18)
(0.999091 -0.00280727 -2.08413e-18)
(0.999295 -0.00358898 -2.35304e-19)
(0.999527 -0.00453634 4.34376e-19)
(0.999786 -0.00560956 -9.47179e-21)
(1.00007 -0.0067555 -1.0221e-18)
(1.00038 -0.0079278 9.43311e-19)
(1.00069 -0.00912254 4.835e-19)
(1.00109 -0.0103806 6.8124e-19)
(1.00118 -0.0117393 -2.79956e-18)
(1.00132 -0.013666 -1.61236e-19)
(1.00106 -0.0198867 6.62591e-20)
(0.999741 0.000132393 -8.81164e-21)
(0.999745 0.000205737 -6.66952e-21)
(0.999743 0.000257511 8.56467e-21)
(0.99974 0.000298274 2.87714e-20)
(0.999736 0.000330259 -5.88233e-20)
(0.999731 0.000357133 6.39298e-20)
(0.999726 0.000379423 -2.72308e-21)
(0.999719 0.000397214 -3.58919e-21)
(0.999712 0.000410399 -1.97036e-20)
(0.999704 0.000419324 4.56103e-20)
(0.999694 0.000424588 -6.72727e-20)
(0.999684 0.000426379 2.43202e-20)
(0.999672 0.000425185 -7.58131e-22)
(0.99966 0.00042132 3.51556e-20)
(0.999646 0.000415334 1.61107e-20)
(0.99963 0.000407433 -8.24692e-20)
(0.999613 0.000397819 6.91683e-20)
(0.999593 0.000386266 2.63939e-20)
(0.999572 0.00037292 -7.38309e-20)
(0.999549 0.00035718 3.50859e-20)
(0.999524 0.000338983 1.60585e-20)
(0.999496 0.000317752 -1.02834e-20)
(0.999466 0.000293395 1.29191e-20)
(0.999432 0.000265126 -7.20552e-21)
(0.999396 0.000233136 -8.18666e-20)
(0.999356 0.000196349 5.35775e-20)
(0.999312 0.000154911 -8.14136e-20)
(0.999264 0.000107866 1.47479e-19)
(0.999212 5.49539e-05 -2.82512e-20)
(0.999155 -5.04105e-06 -1.61289e-20)
(0.999093 -7.26755e-05 -4.08341e-21)
(0.999025 -0.000147903 1.61745e-19)
(0.998952 -0.000230787 -6.35966e-20)
(0.998873 -0.000321147 -3.66385e-20)
(0.998787 -0.000418244 1.08473e-19)
(0.998695 -0.000520483 9.63277e-20)
(0.998598 -0.000629088 -1.65457e-19)
(0.998499 -0.000745645 3.07521e-20)
(0.998398 -0.000869871 3.46653e-19)
(0.9983 -0.00100141 -2.53724e-20)
(0.99821 -0.00114001 2.33237e-19)
(0.998132 -0.00128607 -3.52254e-19)
(0.998072 -0.00144334 5.39453e-19)
(0.998038 -0.00161975 1.19547e-18)
(0.998037 -0.00182783 3.40726e-19)
(0.998075 -0.00208635 -4.88005e-19)
(0.998158 -0.00241961 -1.49316e-18)
(0.998291 -0.00285526 3.24362e-19)
(0.998474 -0.0034198 4.23319e-19)
(0.998708 -0.00413001 8.25279e-19)
(0.998988 -0.00498837 -3.87932e-20)
(0.999314 -0.00597816 -1.72787e-18)
(0.999678 -0.00706008 1.48537e-18)
(1.00007 -0.00818503 -9.92375e-19)
(1.00048 -0.00931177 1.97922e-18)
(1.00089 -0.0104434 4.47616e-19)
(1.00136 -0.0116159 1.92565e-18)
(1.00152 -0.0128502 2.33676e-18)
(1.00171 -0.0145654 3.56069e-19)
(1.00202 -0.0203585 5.67818e-19)
(0.999633 0.000150923 -4.12569e-21)
(0.999636 0.000235292 3.35013e-21)
(0.999633 0.000291855 1.59613e-20)
(0.99963 0.000335784 2.39348e-20)
(0.999626 0.00037001 -6.71042e-20)
(0.999622 0.000398614 3.66275e-20)
(0.999616 0.000422184 -6.22784e-20)
(0.99961 0.000440933 9.26668e-20)
(0.999604 0.000454796 -4.13771e-20)
(0.999596 0.000464181 6.95958e-21)
(0.999588 0.000469769 7.26438e-20)
(0.999578 0.000471739 -1.58056e-19)
(0.999568 0.000470581 1.03253e-19)
(0.999556 0.000466604 1.40299e-20)
(0.999542 0.000460484 2.15795e-20)
(0.999528 0.000452327 -8.72968e-20)
(0.999511 0.000442385 4.14524e-20)
(0.999493 0.000430386 -4.9666e-20)
(0.999473 0.000416579 9.47727e-20)
(0.99945 0.000400288 -1.17734e-20)
(0.999425 0.000381469 -1.13361e-19)
(0.999398 0.000359574 4.44699e-20)
(0.999367 0.000334441 -2.30882e-21)
(0.999334 0.000305264 -1.56126e-19)
(0.999297 0.00027224 1.12967e-19)
(0.999256 0.000234154 8.3916e-20)
(0.999211 0.000191114 5.62422e-20)
(0.999161 0.000142012 -7.31364e-20)
(0.999106 8.64111e-05 -8.18314e-20)
(0.999047 2.27897e-05 3.83929e-20)
(0.998981 -4.98645e-05 5.3554e-20)
(0.99891 -0.000131689 -6.96977e-20)
(0.998832 -0.000223465 -1.05081e-19)
(0.998747 -0.000325283 2.17403e-19)
(0.998654 -0.000437054 2.85854e-20)
(0.998554 -0.000558501 -3.53011e-19)
(0.998449 -0.000692017 3.49332e-20)
(0.998339 -0.000840998 2.48347e-19)
(0.998228 -0.00100671 1.70317e-20)
(0.998118 -0.00119038 3.58056e-19)
(0.998014 -0.00139342 -5.25293e-19)
(0.997922 -0.00161734 -3.05459e-20)
(0.997848 -0.00186643 -3.64697e-19)
(0.997802 -0.00214817 1.1898e-19)
(0.997791 -0.0024731 6.18866e-19)
(0.997825 -0.00285603 1.89138e-18)
(0.997913 -0.00331528 2.92156e-19)
(0.99806 -0.00387078 -1.24666e-18)
(0.998273 -0.00454043 9.44724e-19)
(0.998551 -0.00533265 3.34532e-18)
(0.998891 -0.0062436 -2.68184e-18)
(0.999289 -0.00725346 3.17688e-18)
(0.999735 -0.00832326 -1.92618e-18)
(1.00021 -0.0094071 -1.01234e-18)
(1.00071 -0.0104674 -4.00888e-18)
(1.00119 -0.011512 -2.00685e-19)
(1.00171 -0.012574 -1.15898e-18)
(1.00191 -0.0136583 -1.14563e-18)
(1.00213 -0.0151524 7.06052e-19)
(1.00294 -0.0205606 9.71402e-21)
(0.999518 0.000181928 5.48843e-21)
(0.999516 0.000271709 1.81301e-21)
(0.999513 0.000330242 -1.78067e-20)
(0.99951 0.000375285 1.60761e-20)
(0.999507 0.000410391 -6.74664e-21)
(0.999503 0.000439873 1.14533e-20)
(0.999498 0.000464351 3.72003e-21)
(0.999493 0.000483807 -5.15914e-20)
(0.999487 0.000498114 2.13487e-20)
(0.999481 0.000507617 -1.37672e-20)
(0.999474 0.000512985 8.03183e-21)
(0.999466 0.000514437 2.96827e-20)
(0.999456 0.00051252 -5.23936e-21)
(0.999446 0.000507584 1.66153e-20)
(0.999434 0.000500286 -6.74432e-20)
(0.999421 0.000490841 2.51026e-20)
(0.999406 0.000479439 1.08772e-20)
(0.999389 0.000465839 -2.76749e-20)
(0.99937 0.000450276 5.33955e-20)
(0.999349 0.000432005 1.70429e-20)
(0.999326 0.000410923 -1.70727e-21)
(0.9993 0.000386503 -1.66934e-20)
(0.999271 0.000358489 6.83742e-20)
(0.999239 0.000326027 -1.84288e-19)
(0.999203 0.000289351 9.23972e-20)
(0.999163 0.000247087 3.81675e-20)
(0.99912 0.000199334 -6.58186e-20)
(0.999071 0.000144854 1.14648e-19)
(0.999018 8.3055e-05 -5.49012e-20)
(0.99896 1.22133e-05 -2.92651e-20)
(0.998896 -6.90615e-05 -6.00178e-20)
(0.998826 -0.000161301 -2.21497e-20)
(0.998749 -0.000265392 6.57027e-20)
(0.998666 -0.000381901 -2.04537e-19)
(0.998575 -0.000511541 3.89595e-19)
(0.998477 -0.000654498 -2.27471e-20)
(0.998373 -0.000814264 2.20257e-19)
(0.998266 -0.00099563 -5.63749e-19)
(0.998156 -0.00120101 -1.91325e-19)
(0.998049 -0.00143276 -1.41186e-20)
(0.997947 -0.00169351 -1.34494e-19)
(0.997856 -0.0019855 -1.43213e-20)
(0.997785 -0.00231311 -5.54288e-19)
(0.997741 -0.00268315 1.46883e-19)
(0.997735 -0.00310419 2.78404e-19)
(0.997777 -0.0035874 -1.73183e-18)
(0.997876 -0.00414588 2.19456e-18)
(0.998043 -0.00479293 3.33317e-19)
(0.998283 -0.00553916 4.9467e-20)
(0.998597 -0.00638614 -2.24027e-18)
(0.998983 -0.00732497 8.32734e-19)
(0.999436 -0.00833356 -1.68531e-18)
(0.999942 -0.00937367 3.08521e-18)
(1.00048 -0.0104023 7.32233e-19)
(1.00103 -0.0113851 -2.32328e-18)
(1.00157 -0.0123335 8.72101e-19)
(1.00213 -0.0132805 -2.26928e-18)
(1.00235 -0.0142183 -4.1902e-19)
(1.00255 -0.0155151 -2.73668e-18)
(1.00374 -0.0206079 -8.42898e-19)
(0.999398 0.000219732 -1.14408e-21)
(0.99939 0.000314945 -4.25862e-21)
(0.999387 0.000374712 -3.50326e-21)
(0.999384 0.000419554 3.20241e-20)
(0.999381 0.000454131 -1.68365e-20)
(0.999377 0.00048295 -1.91284e-20)
(0.999374 0.00050663 -6.82292e-21)
(0.999369 0.000525238 -2.66068e-20)
(0.999364 0.000538607 1.58653e-20)
(0.999359 0.000547097 2.22424e-21)
(0.999353 0.000551357 7.43095e-22)
(0.999345 0.000551578 5.84585e-20)
(0.999337 0.000548178 -3.97099e-20)
(0.999328 0.000541511 -4.72579e-21)
(0.999318 0.00053227 4.17924e-20)
(0.999306 0.00052057 -2.20985e-20)
(0.999293 0.000506553 -8.00162e-21)
(0.999277 0.000489953 1.29494e-20)
(0.99926 0.000471058 3.96276e-20)
(0.999241 0.00044905 2.11054e-20)
(0.99922 0.000423789 7.54233e-21)
(0.999196 0.000394794 -5.02078e-20)
(0.999169 0.00036169 2.43511e-20)
(0.999139 0.000323572 4.7392e-20)
(0.999106 0.000280702 -9.4983e-20)
(0.999069 0.000231536 3.0088e-20)
(0.999028 0.000176152 -1.17339e-19)
(0.998983 0.000113212 9.36998e-20)
(0.998934 4.19883e-05 8.20445e-20)
(0.99888 -3.93805e-05 -1.27674e-19)
(0.99882 -0.000132643 -5.71454e-20)
(0.998756 -0.00023834 7.93905e-20)
(0.998685 -0.000358033 2.64177e-20)
(0.998608 -0.000492284 -8.05337e-20)
(0.998524 -0.000642052 -9.68709e-20)
(0.998435 -0.000808426 -1.21699e-19)
(0.99834 -0.000995254 7.58017e-20)
(0.998243 -0.0012084 1.94491e-19)
(0.998145 -0.00145107 6.97168e-20)
(0.998049 -0.00172635 -7.99237e-20)
(0.99796 -0.00203765 7.88253e-19)
(0.997884 -0.00238761 -6.07077e-20)
(0.997826 -0.00278035 9.05051e-19)
(0.997797 -0.00322186 -1.66714e-18)
(0.997806 -0.00371883 2.18476e-19)
(0.997865 -0.00427924 6.63888e-20)
(0.997984 -0.00491173 -1.98022e-19)
(0.998173 -0.00562414 -1.38405e-18)
(0.998439 -0.0064212 -2.33658e-18)
(0.998784 -0.00729905 2.08516e-18)
(0.999207 -0.00824507 2.73715e-18)
(0.9997 -0.00923582 1.39377e-18)
(1.00025 -0.0102342 -2.90121e-18)
(1.00083 -0.0112002 1.49256e-18)
(1.00143 -0.0121024 3.66106e-18)
(1.00199 -0.0129555 1.21222e-18)
(1.00257 -0.0137948 2.21121e-18)
(1.00279 -0.0146018 9.25033e-19)
(1.00296 -0.0157333 2.29918e-18)
(1.00442 -0.0205753 -1.80203e-18)
(0.999274 0.000259944 1.37214e-21)
(0.999261 0.000355621 -3.9072e-21)
(0.999257 0.000414921 1.31531e-20)
(0.999254 0.00045857 3.24194e-21)
(0.999251 0.000491995 -1.62225e-20)
(0.999247 0.000519922 -1.76769e-20)
(0.999243 0.000542922 3.97051e-20)
(0.999239 0.00056078 -4.11465e-20)
(0.999234 0.000573182 -9.59579e-21)
(0.999229 0.00058038 2.29469e-20)
(0.999223 0.000582964 2.01835e-20)
(0.999216 0.000581136 5.83651e-20)
(0.999209 0.00057535 -3.16779e-20)
(0.9992 0.000565968 -5.1604e-20)
(0.999191 0.000553643 1.08298e-20)
(0.99918 0.000538594 -3.86263e-20)
(0.999168 0.000520852 2.77955e-20)
(0.999154 0.000500176 -4.47273e-20)
(0.999139 0.000476823 7.13015e-21)
(0.999121 0.000449878 -1.32158e-20)
(0.999102 0.000419102 -7.9874e-21)
(0.99908 0.000384038 -3.5568e-20)
(0.999055 0.000344185 3.14544e-21)
(0.999028 0.000298561 7.27294e-20)
(0.998998 0.000247486 -2.32343e-20)
(0.998965 0.000189233 7.45652e-21)
(0.998928 0.000123887 2.06364e-20)
(0.998887 5.00214e-05 -2.86563e-20)
(0.998843 -3.32028e-05 -5.00429e-21)
(0.998794 -0.000127699 3.93121e-20)
(0.998741 -0.000235483 4.49011e-20)
(0.998683 -0.000357374 -3.55153e-20)
(0.998621 -0.000494872 -1.05534e-19)
(0.998553 -0.000648851 -1.45764e-19)
(0.99848 -0.000820758 2.42303e-19)
(0.998402 -0.00101166 6.22487e-20)
(0.998321 -0.00122585 3.67488e-20)
(0.998239 -0.00146988 2.1077e-19)
(0.998157 -0.00174738 -2.19414e-19)
(0.99808 -0.00206184 1.35538e-19)
(0.99801 -0.00241711 -2.06292e-20)
(0.997954 -0.00281593 3.60375e-20)
(0.997919 -0.00326194 -3.26853e-19)
(0.997912 -0.00376024 7.31789e-19)
(0.997944 -0.00431576 -9.60264e-19)
(0.998026 -0.00493378 5.81908e-19)
(0.998169 -0.00561921 -1.75269e-18)
(0.998382 -0.00637549 5.87933e-19)
(0.998674 -0.00720276 1.21182e-18)
(0.999048 -0.00809302 -2.02724e-18)
(0.9995 -0.00903105 -6.45749e-19)
(1.00002 -0.00999292 -2.50226e-19)
(1.00061 -0.0109432 -4.006e-19)
(1.00122 -0.0118447 -1.41253e-18)
(1.00184 -0.0126688 1.22738e-19)
(1.00243 -0.0134336 9.27617e-19)
(1.00301 -0.0141775 -1.05058e-18)
(1.00322 -0.0148727 -2.68969e-19)
(1.00334 -0.0158692 -3.88546e-19)
(1.00498 -0.0205181 1.2463e-18)
(0.999132 0.000300094 2.32246e-21)
(0.999115 0.000402113 -1.85753e-21)
(0.999111 0.000462071 1.60249e-21)
(0.999108 0.000504693 9.75796e-21)
(0.999105 0.000536533 1.34407e-20)
(0.999102 0.000562553 -4.97335e-20)
(0.999098 0.000583287 3.41108e-20)
(0.999094 0.000598681 6.71008e-21)
(0.99909 0.000608393 -1.94587e-21)
(0.999084 0.000612703 -1.31353e-20)
(0.999079 0.000612255 3.83399e-20)
(0.999072 0.000607178 -1.21019e-20)
(0.999065 0.000597853 -1.58763e-20)
(0.999057 0.000584583 -4.46635e-20)
(0.999049 0.000568163 8.60397e-20)
(0.999039 0.000548614 -1.73829e-20)
(0.999027 0.000525979 -1.41363e-20)
(0.999015 0.000499905 -3.89379e-20)
(0.999001 0.000470769 4.15755e-20)
(0.998985 0.000437504 2.21363e-20)
(0.998967 0.000399836 -9.1009e-21)
(0.998948 0.00035732 1.68296e-20)
(0.998926 0.000309331 -6.81042e-20)
(0.998901 0.000254781 4.38718e-21)
(0.998874 0.000194039 3.64673e-20)
(0.998844 0.000125172 -7.13577e-21)
(0.998811 4.82573e-05 -1.04942e-19)
(0.998775 -3.8206e-05 9.67561e-21)
(0.998736 -0.000135151 9.17135e-20)
(0.998693 -0.000244527 -2.19677e-20)
(0.998646 -0.000368598 -4.75448e-20)
(0.998597 -0.000508049 2.25219e-20)
(0.998543 -0.000665007 8.16668e-20)
(0.998485 -0.000840151 1.99146e-19)
(0.998424 -0.00103488 -3.4059e-20)
(0.998359 -0.00125084 3.55792e-20)
(0.998293 -0.00149214 -3.33963e-19)
(0.998228 -0.00176577 -1.16319e-19)
(0.998165 -0.00207562 7.11775e-20)
(0.998109 -0.00242524 -2.89889e-19)
(0.998062 -0.00281873 -8.27417e-20)
(0.99803 -0.00325866 1.55973e-19)
(0.998019 -0.00374811 9.35404e-20)
(0.998039 -0.00429122 3.42414e-19)
(0.998097 -0.00489139 1.25911e-18)
(0.998206 -0.00555156 -1.03655e-18)
(0.998375 -0.00627367 1.67828e-18)
(0.998615 -0.00705762 1.34425e-18)
(0.998933 -0.00790004 1.49869e-20)
(0.999332 -0.00878989 1.7296e-18)
(0.99981 -0.00971025 -2.43084e-18)
(1.00036 -0.0106373 -2.84144e-18)
(1.00097 -0.0115374 2.15482e-18)
(1.0016 -0.0123765 1.7777e-18)
(1.00224 -0.0131286 -6.57186e-19)
(1.00284 -0.0138143 -3.77467e-18)
(1.00342 -0.0144758 8.44293e-19)
(1.00361 -0.0150766 -6.29352e-19)
(1.00369 -0.015962 -9.00048e-19)
(1.00543 -0.0204591 7.50355e-19)
(0.998964 0.000339927 -2.23018e-21)
(0.998947 0.000440737 2.31667e-21)
(0.998944 0.000498814 1.49029e-20)
(0.998941 0.000539014 -1.84343e-20)
(0.998939 0.00056862 3.16931e-20)
(0.998936 0.000592675 -4.41366e-20)
(0.998933 0.000611684 1.18399e-20)
(0.998929 0.000625262 -5.51567e-22)
(0.998925 0.000632922 2.36094e-20)
(0.998921 0.000634793 -1.17846e-20)
(0.998916 0.000631484 3.18632e-21)
(0.99891 0.000623118 3.2676e-21)
(0.998903 0.000610129 -4.83137e-20)
(0.998896 0.000592821 1.40512e-20)
(0.998888 0.000571957 3.06935e-20)
(0.998879 0.000547669 7.69131e-22)
(0.998869 0.000519876 -4.68106e-20)
(0.998857 0.000488237 1.78596e-20)
(0.998844 0.0004531 8.17769e-20)
(0.99883 0.00041328 -5.14472e-20)
(0.998814 0.000368383 -3.6934e-20)
(0.998796 0.000317989 3.11312e-20)
(0.998776 0.000261333 1.79029e-20)
(0.998754 0.000197219 2.03045e-20)
(0.998729 0.000126098 -3.82873e-20)
(0.998703 4.5831e-05 -8.05891e-20)
(0.998673 -4.34825e-05 6.1006e-20)
(0.998641 -0.00014341 8.63943e-20)
(0.998607 -0.000254971 1.95638e-20)
(0.998569 -0.000380081 -3.96249e-20)
(0.99853 -0.000521179 2.00948e-20)
(0.998487 -0.000679157 2.75674e-20)
(0.998442 -0.000855948 -5.78593e-20)
(0.998394 -0.00105246 -1.55747e-20)
(0.998345 -0.00127041 -1.0956e-19)
(0.998293 -0.00151108 -3.9309e-20)
(0.998242 -0.0017787 -2.15479e-20)
(0.998193 -0.00208043 8.95291e-20)
(0.99815 -0.00242014 -1.14041e-19)
(0.998114 -0.00280134 4.43662e-20)
(0.99809 -0.00322814 5.43489e-20)
(0.998083 -0.00370285 1.15229e-20)
(0.998099 -0.00422789 -4.74214e-19)
(0.998145 -0.0048065 -6.74413e-19)
(0.998232 -0.00544071 -6.69709e-19)
(0.998368 -0.00613155 1.27363e-18)
(0.998564 -0.00687852 -9.91161e-20)
(0.998831 -0.00767881 -5.83703e-19)
(0.999174 -0.00852634 2.91485e-19)
(0.999597 -0.00940786 -1.88759e-18)
(1.0001 -0.0103055 9.40791e-19)
(1.00067 -0.0111958 2.51232e-18)
(1.0013 -0.0120472 -2.64966e-19)
(1.00195 -0.0128284 -2.05376e-18)
(1.0026 -0.013516 9.72497e-19)
(1.00321 -0.0141327 8.6101e-19)
(1.00379 -0.0147241 8.50439e-19)
(1.00396 -0.015245 1.61317e-18)