/*--------------------------------*- C++ -*----------------------------------*\
  =========                 |
  \\      /  F ield         | OpenFOAM: The Open Source CFD Toolbox
   \\    /   O peration     | Website:  https://openfoam.org
    \\  /    A nd           | Version:  6.0
     \\/     M anipulation  |
\*---------------------------------------------------------------------------*/
FoamFile
{
    version     2.0;
    format      ascii;
    class       volVectorField;
    location    "7";
    object      U;
}
// * * * * * * * * * * * * * * * * * * * * * * * * * * * * * * * * * * * * * //

dimensions      [0 1 -1 0 0 0 0];

internalField   nonuniform List<vector> 
62000
(
(1.00001 3.56592e-05 -1.59536e-20)
(1.00001 3.39736e-05 1.25867e-20)
(1.00001 3.22748e-05 1.22714e-20)
(1.00001 3.04222e-05 -5.11413e-20)
(1.00001 2.83431e-05 -5.56078e-20)
(1.00001 2.60529e-05 1.83261e-19)
(1.00001 2.34298e-05 -1.92279e-19)
(1.00001 2.04535e-05 1.0683e-19)
(1 1.70297e-05 -4.78671e-20)
(1 1.31143e-05 -2.34402e-19)
(1 8.59946e-06 -2.85207e-20)
(0.999999 3.43584e-06 3.02773e-19)
(0.999997 -2.47669e-06 5.93051e-20)
(0.999994 -9.18942e-06 -2.00644e-19)
(0.999992 -1.68807e-05 3.0216e-19)
(0.999989 -2.55728e-05 -1.55048e-19)
(0.999986 -3.54941e-05 1.55084e-19)
(0.999983 -4.66673e-05 -1.77088e-19)
(0.999979 -5.93761e-05 8.45248e-20)
(0.999975 -7.36421e-05 -2.53e-19)
(0.999971 -8.97407e-05 3.21708e-19)
(0.999966 -0.000107712 9.14272e-20)
(0.999961 -0.000127808 1.28186e-19)
(0.999956 -0.000150036 -5.74241e-19)
(0.999949 -0.00017459 2.05996e-19)
(0.999942 -0.000201435 -1.21919e-19)
(0.999935 -0.00023058 2.53653e-22)
(0.999926 -0.000261913 -9.16619e-20)
(0.999917 -0.000295201 2.86717e-19)
(0.999906 -0.000330113 -1.52968e-19)
(0.999894 -0.000366053 3.60132e-19)
(0.999881 -0.000402668 -7.26829e-19)
(0.999867 -0.000439043 7.16119e-20)
(0.99985 -0.000474515 -2.23672e-19)
(0.999832 -0.000507423 -6.69696e-20)
(0.999811 -0.000535325 -2.19977e-19)
(0.999786 -0.00055627 -5.10665e-20)
(0.999757 -0.000568586 -5.24896e-20)
(0.999723 -0.000570889 2.01024e-19)
(0.999681 -0.000562418 8.76016e-19)
(0.999629 -0.000543686 -2.06106e-19)
(0.999563 -0.000517412 -1.13854e-18)
(0.999481 -0.000489559 -1.77306e-18)
(0.999377 -0.000470206 9.47006e-19)
(0.999247 -0.000473894 3.01309e-19)
(0.999087 -0.00051941 -1.35286e-18)
(0.998897 -0.000627796 2.56196e-19)
(0.998679 -0.000819476 -5.90364e-19)
(0.998443 -0.00110952 -2.75616e-18)
(0.998203 -0.00150304 -6.94566e-19)
(0.997983 -0.00199263 -3.48731e-19)
(0.997807 -0.00255768 -4.27663e-18)
(0.997702 -0.00316665 7.74602e-19)
(0.997688 -0.00378638 4.28368e-18)
(0.997774 -0.00439508 9.54221e-19)
(0.997957 -0.00499689 3.09131e-18)
(0.998232 -0.00564535 -2.39794e-19)
(0.998521 -0.00646166 -2.83276e-19)
(0.999583 -0.00834601 7.34187e-19)
(0.993288 -0.0122846 8.57921e-20)
(0.999906 -0.000122508 -4.28056e-21)
(0.999906 -0.000149371 3.8845e-20)
(0.999906 -0.000170077 1.5311e-20)
(0.999906 -0.000189963 -6.24717e-20)
(0.999906 -0.000209501 2.47008e-20)
(0.999906 -0.00022895 -1.62618e-19)
(0.999906 -0.000248591 1.42148e-19)
(0.999905 -0.000268423 7.865e-20)
(0.999904 -0.000288683 -1.40782e-19)
(0.999903 -0.000309422 5.86455e-21)
(0.999902 -0.000330994 1.2556e-19)
(0.9999 -0.0003534 2.67788e-22)
(0.999898 -0.000376958 3.34365e-20)
(0.999896 -0.000401671 -2.76344e-19)
(0.999893 -0.000427897 5.35901e-19)
(0.999891 -0.000455586 -4.58055e-19)
(0.999888 -0.000485076 2.08085e-19)
(0.999885 -0.000516235 -4.25891e-20)
(0.999881 -0.00054936 -1.12268e-19)
(0.999878 -0.000584296 3.01789e-19)
(0.999874 -0.000621229 -4.6367e-19)
(0.999871 -0.000659946 2.62533e-19)
(0.999867 -0.000700533 -3.2501e-19)
(0.999864 -0.000742592 1.89944e-19)
(0.99986 -0.000785937 1.70287e-19)
(0.999856 -0.000829943 -1.10311e-19)
(0.999852 -0.000873826 1.02168e-21)
(0.999848 -0.000916595 1.1881e-19)
(0.999844 -0.000956766 9.67075e-20)
(0.99984 -0.000992619 -1.88898e-19)
(0.999835 -0.00102183 3.79279e-19)
(0.999829 -0.00104257 7.22191e-20)
(0.999821 -0.00105337 2.2387e-19)
(0.999811 -0.0010527 1.2029e-20)
(0.999799 -0.00103659 5.61381e-20)
(0.999783 -0.000999998 -7.09902e-20)
(0.999759 -0.000939331 -2.02067e-19)
(0.999725 -0.000853581 -1.04036e-19)
(0.999676 -0.000744336 -5.23162e-19)
(0.999609 -0.000616312 -5.78268e-19)
(0.999516 -0.0004786 4.39411e-19)
(0.999392 -0.000346218 2.7515e-19)
(0.999228 -0.00024127 1.85714e-18)
(0.999016 -0.000193079 9.25419e-20)
(0.998753 -0.000236729 -2.80141e-18)
(0.998435 -0.000410079 1.13651e-18)
(0.998068 -0.000747839 1.00023e-18)
(0.997666 -0.00127456 1.13064e-18)
(0.997252 -0.00199687 3.15758e-19)
(0.99686 -0.00289672 7.34472e-20)
(0.996533 -0.00393231 2.0134e-18)
(0.996314 -0.00504096 5.34422e-18)
(0.996243 -0.00615007 -3.46778e-18)
(0.996351 -0.00718697 -7.89565e-18)
(0.996645 -0.00810161 -1.75869e-18)
(0.997119 -0.00887569 -1.03271e-18)
(0.997762 -0.00954494 -2.22223e-18)
(0.998348 -0.0102305 -9.40058e-19)
(1.00051 -0.0117812 1.37748e-18)
(0.997262 -0.0127589 4.6492e-19)
(0.999768 -0.000240291 -2.09231e-20)
(0.999769 -0.000279287 -2.80689e-21)
(0.99977 -0.000307753 2.92758e-21)
(0.999772 -0.000333077 1.26807e-20)
(0.999774 -0.000357107 3.41666e-20)
(0.999775 -0.000380208 -3.08702e-20)
(0.999777 -0.000402604 1.57148e-19)
(0.999779 -0.00042442 -7.16097e-20)
(0.999781 -0.000445857 -3.67833e-20)
(0.999783 -0.000467074 -2.16603e-19)
(0.999785 -0.000488382 1.75318e-19)
(0.999786 -0.000509859 1.23814e-20)
(0.999788 -0.000531711 -3.70569e-20)
(0.999789 -0.000553969 9.48776e-20)
(0.99979 -0.000576888 -1.56814e-19)
(0.999792 -0.000600359 1.07407e-21)
(0.999793 -0.000624575 -6.72014e-20)
(0.999794 -0.000649248 1.48409e-21)
(0.999796 -0.000674509 1.47225e-19)
(0.999797 -0.000700046 -2.17792e-19)
(0.9998 -0.000725803 1.32567e-19)
(0.999803 -0.000751369 4.99833e-19)
(0.999807 -0.00077661 -6.71588e-20)
(0.999812 -0.000800826 -6.63416e-19)
(0.999818 -0.000823609 3.34634e-19)
(0.999825 -0.000843987 -1.75284e-19)
(0.999835 -0.000860834 2.81164e-19)
(0.999846 -0.000872788 -1.69812e-19)
(0.99986 -0.000877952 -3.23345e-19)
(0.999876 -0.000874059 3.35573e-19)
(0.999894 -0.000858321 -2.3169e-19)
(0.999914 -0.000828715 3.02102e-19)
(0.999936 -0.000784336 -8.13944e-19)
(0.999959 -0.000724272 7.05158e-19)
(0.999985 -0.000644658 -3.66667e-19)
(1.00001 -0.000540147 1.52634e-19)
(1.00004 -0.000407768 1.13173e-19)
(1.00005 -0.000248132 7.61062e-21)
(1.00006 -6.56366e-05 -2.15965e-21)
(1.00006 0.000131305 5.92191e-19)
(1.00003 0.000329083 -2.26828e-19)
(0.999975 0.000507385 3.54315e-19)
(0.999885 0.000638467 -1.17039e-18)
(0.999752 0.000687769 -5.63349e-19)
(0.99957 0.000616351 7.03303e-19)
(0.999338 0.000385177 -1.98143e-18)
(0.999059 -3.79354e-05 3.22759e-19)
(0.998746 -0.000670427 -1.80691e-18)
(0.998421 -0.00150761 2.61446e-18)
(0.998112 -0.00251643 7.16894e-19)
(0.997858 -0.00363894 2.47136e-19)
(0.997701 -0.00479734 -2.22155e-19)
(0.997677 -0.00590699 1.35692e-18)
(0.997815 -0.00688475 5.58059e-19)
(0.998125 -0.00766983 -2.31269e-18)
(0.998602 -0.00822992 -1.30812e-18)
(0.99924 -0.00856794 -6.56055e-19)
(0.999732 -0.00880659 -2.20053e-18)
(1.00161 -0.00961916 -9.65286e-20)
(1.00132 -0.00835486 2.69434e-19)
(0.999674 -0.000296235 -2.10129e-20)
(0.999675 -0.000338556 6.08429e-20)
(0.999677 -0.000368605 -8.82565e-21)
(0.99968 -0.000393597 -5.63191e-20)
(0.999683 -0.000416796 8.0558e-20)
(0.999686 -0.000438503 1.31938e-19)
(0.99969 -0.000458854 -1.63808e-19)
(0.999694 -0.000477935 1.69182e-20)
(0.999699 -0.000495873 5.1492e-20)
(0.999703 -0.000512846 1.023e-19)
(0.999708 -0.000529108 -1.81214e-19)
(0.999713 -0.000544816 -5.33647e-20)
(0.999718 -0.000560145 -5.71137e-20)
(0.999723 -0.000575161 2.51199e-19)
(0.999728 -0.000590025 -1.61307e-19)
(0.999733 -0.000604694 3.6237e-19)
(0.999738 -0.000619235 -4.2484e-19)
(0.999744 -0.000633308 -5.94901e-20)
(0.99975 -0.000646911 4.18266e-19)
(0.999757 -0.000659691 -1.4203e-19)
(0.999764 -0.000671396 -5.07233e-20)
(0.999773 -0.000681562 -5.21758e-20)
(0.999783 -0.000689983 -4.58581e-19)
(0.999795 -0.000695791 2.60963e-19)
(0.999809 -0.000698637 -1.11698e-19)
(0.999826 -0.000697415 1.79822e-19)
(0.999846 -0.000691024 8.1772e-20)
(0.999869 -0.000678108 3.8851e-19)
(0.999897 -0.000656799 -2.41774e-19)
(0.999929 -0.00062491 -3.03313e-19)
(0.999966 -0.000579632 4.63906e-19)
(1.00001 -0.000519221 -3.74462e-19)
(1.00006 -0.000443992 6.69254e-19)
(1.00011 -0.000353777 -3.87628e-19)
(1.00017 -0.000245237 1.71938e-19)
(1.00024 -0.000113597 2.75819e-19)
(1.00031 4.35048e-05 -1.11452e-19)
(1.00039 0.000224437 1.14768e-19)
(1.00046 0.000423526 -6.95776e-20)
(1.00053 0.000631181 1.69084e-19)
(1.0006 0.000832972 -4.89919e-19)
(1.00065 0.00100823 1.32531e-19)
(1.00067 0.00112957 2.6462e-19)
(1.00067 0.00116389 6.20679e-19)
(1.00063 0.00107496 8.3136e-19)
(1.00056 0.000827888 2.5094e-19)
(1.00044 0.000395904 1.18958e-18)
(1.00029 -0.000232258 1.32187e-18)
(1.00011 -0.00104572 1.40159e-18)
(0.999934 -0.00200621 -1.05879e-18)
(0.999783 -0.00305222 -1.57349e-18)
(0.999691 -0.00410512 8.47453e-19)
(0.999689 -0.00508157 1.0456e-18)
(0.999803 -0.00590154 3.2187e-18)
(1.00005 -0.00650571 2.00954e-18)
(1.00041 -0.00686518 2.40456e-18)
(1.0009 -0.00697577 4.11974e-18)
(1.00119 -0.0070201 -1.09728e-19)
(1.00244 -0.00762671 -1.91258e-18)
(1.00242 -0.00645105 -1.54984e-18)
(0.999622 -0.000317938 4.09274e-20)
(0.999624 -0.00036402 -1.29374e-20)
(0.999626 -0.000395548 2.04899e-20)
(0.999629 -0.00042039 -2.74353e-20)
(0.999633 -0.000443011 5.82989e-20)
(0.999638 -0.000463689 -2.74e-20)
(0.999643 -0.000482431 1.39746e-20)
(0.999649 -0.000499489 -1.97955e-19)
(0.999655 -0.000514927 1.57932e-19)
(0.999661 -0.000529029 -3.00557e-19)
(0.999668 -0.000542031 3.16117e-19)
(0.999675 -0.000554187 -3.66186e-20)
(0.999682 -0.000565615 -7.71344e-20)
(0.999689 -0.000576429 -3.36292e-20)
(0.999697 -0.000586827 -6.87293e-21)
(0.999704 -0.000596756 -3.16155e-19)
(0.999712 -0.000606307 1.50075e-20)
(0.99972 -0.000615056 3.21143e-19)
(0.999729 -0.000623086 -1.00361e-19)
(0.999739 -0.000630012 -1.01722e-19)
(0.999749 -0.000635562 1.67597e-19)
(0.999761 -0.000639271 -7.98892e-20)
(0.999775 -0.000641021 3.28195e-19)
(0.99979 -0.000639819 1.72937e-19)
(0.999808 -0.000635549 1.26461e-19)
(0.999829 -0.000627066 -3.95861e-19)
(0.999854 -0.000613444 -5.44794e-20)
(0.999883 -0.000593496 -2.92705e-19)
(0.999916 -0.000565559 5.4938e-20)
(0.999956 -0.000527715 -9.0177e-20)
(1 -0.000477241 -3.60842e-20)
(1.00005 -0.000413036 2.72748e-19)
(1.00011 -0.000336042 -6.82326e-19)
(1.00018 -0.000247213 -3.49288e-20)
(1.00026 -0.000143925 -3.24922e-19)
(1.00035 -2.15498e-05 -1.54608e-19)
(1.00045 0.000121535 2.09284e-20)
(1.00056 0.000283213 -4.61656e-19)
(1.00068 0.000457379 6.71448e-19)
(1.0008 0.000634367 1.31166e-19)
(1.00093 0.000800466 6.8249e-19)
(1.00105 0.000936534 -4.73373e-19)
(1.00116 0.00101759 -3.12028e-19)
(1.00126 0.00101403 -9.46995e-20)
(1.00134 0.000894153 5.68892e-19)
(1.00139 0.00062836 8.03307e-19)
(1.00141 0.000195344 1.91774e-19)
(1.0014 -0.000411288 3.1805e-19)
(1.00136 -0.00117724 -5.38524e-19)
(1.00131 -0.00206315 2.67507e-18)
(1.00126 -0.00300896 6.49793e-19)
(1.00124 -0.00394047 -7.09984e-19)
(1.00126 -0.00478081 5.60968e-20)
(1.00136 -0.00545884 2.09665e-18)
(1.00155 -0.00592314 -3.16013e-20)
(1.00182 -0.0061573 -1.91767e-18)
(1.00216 -0.00616311 -3.89633e-18)
(1.00228 -0.00618547 3.36038e-18)
(1.00306 -0.00685702 -2.2116e-18)
(1.00233 -0.00615712 2.0576e-18)
(0.999596 -0.000320231 -1.56641e-20)
(0.999597 -0.000368935 5.97678e-20)
(0.999599 -0.000401299 -9.324e-20)
(0.999602 -0.000426203 6.59884e-20)
(0.999606 -0.000448839 4.06315e-20)
(0.999611 -0.000469466 -4.08943e-20)
(0.999617 -0.000488031 3.24359e-21)
(0.999623 -0.000504743 -2.7794e-20)
(0.99963 -0.000519634 -8.91001e-20)
(0.999637 -0.00053297 1.63203e-19)
(0.999644 -0.000545049 -2.4176e-19)
(0.999652 -0.000556189 2.02587e-19)
(0.99966 -0.000566621 1.70907e-19)
(0.999668 -0.000576479 -2.54221e-19)
(0.999676 -0.000586023 -7.95034e-20)
(0.999684 -0.000595315 2.87934e-19)
(0.999693 -0.000604473 -3.35946e-19)
(0.999703 -0.000613062 4.47931e-19)
(0.999712 -0.000621233 -8.32814e-20)
(0.999723 -0.000628652 4.44282e-20)
(0.999734 -0.000635007 -7.19573e-20)
(0.999747 -0.000639927 -8.71256e-20)
(0.999761 -0.00064343 -1.55078e-19)
(0.999777 -0.000644453 2.61392e-19)
(0.999796 -0.00064322 -1.75812e-19)
(0.999817 -0.000638618 -1.65612e-19)
(0.999842 -0.000629974 3.33694e-19)
(0.999871 -0.000616392 -3.11539e-19)
(0.999904 -0.000596423 4.80396e-19)
(0.999944 -0.000568648 -2.54449e-19)
(0.99999 -0.000530408 1.82449e-19)
(1.00004 -0.000481141 -3.09034e-19)
(1.0001 -0.000422667 3.14711e-19)
(1.00017 -0.000356734 -3.62367e-20)
(1.00026 -0.000281283 -1.82788e-20)
(1.00035 -0.000192147 -1.29635e-20)
(1.00046 -8.82232e-05 -1.7155e-19)
(1.00058 2.81358e-05 4.10781e-19)
(1.00071 0.000150754 -2.98584e-19)
(1.00086 0.000270325 -1.69468e-18)
(1.00101 0.000374495 -6.84213e-19)
(1.00118 0.000446401 4.34965e-19)
(1.00134 0.000464197 -5.30518e-19)
(1.00151 0.000402545 -4.81444e-19)
(1.00166 0.000234865 -4.18409e-20)
(1.0018 -6.28509e-05 1.19984e-18)
(1.00193 -0.000506554 -1.68745e-18)
(1.00203 -0.00109842 -1.65025e-18)
(1.0021 -0.00182195 -1.03066e-18)
(1.00216 -0.00263831 -1.78417e-18)
(1.0022 -0.00349091 1.18824e-18)
(1.00225 -0.00431182 -4.29678e-19)
(1.00232 -0.00503234 -3.53198e-18)
(1.00243 -0.00559192 6.99191e-19)
(1.00259 -0.0059484 8.92297e-19)
(1.00279 -0.00609845 -1.66322e-18)
(1.00303 -0.00604966 9.47565e-19)
(1.00305 -0.0060808 1.11706e-18)
(1.00357 -0.00684197 3.58678e-18)
(1.00216 -0.00634346 1.31737e-19)
(0.999579 -0.000310033 1.86502e-20)
(0.999576 -0.000360471 -7.94651e-20)
(0.999577 -0.00039366 3.66715e-20)
(0.999579 -0.000418886 6.48856e-20)
(0.999583 -0.00044202 -1.3205e-19)
(0.999587 -0.000463223 1.05101e-19)
(0.999592 -0.000482369 -6.66263e-20)
(0.999598 -0.000499807 5.37588e-20)
(0.999604 -0.000515539 8.17687e-20)
(0.999611 -0.000529878 -1.87596e-19)
(0.999618 -0.00054314 2.58831e-19)
(0.999625 -0.000555741 1.04787e-19)
(0.999633 -0.000567866 -4.01336e-19)
(0.999641 -0.000579713 -7.19969e-20)
(0.999649 -0.000591605 1.96838e-19)
(0.999657 -0.000603669 1.21778e-19)
(0.999666 -0.00061606 -1.42798e-19)
(0.999675 -0.000628325 1.20532e-19)
(0.999685 -0.000640793 1.80351e-19)
(0.999695 -0.000653208 -8.56188e-20)
(0.999706 -0.000665282 -4.75143e-20)
(0.999718 -0.000676788 1.63513e-19)
(0.999732 -0.000687928 3.25782e-19)
(0.999747 -0.00069758 -2.32164e-19)
(0.999764 -0.000706368 -2.48298e-19)
(0.999783 -0.000713232 2.67147e-19)
(0.999806 -0.000717777 -2.02198e-19)
(0.999832 -0.000719443 -7.82207e-20)
(0.999863 -0.000717029 6.44979e-19)
(0.999898 -0.000709624 -2.78737e-19)
(0.99994 -0.000694678 -2.0252e-19)
(0.999988 -0.000672335 2.65184e-19)
(1.00004 -0.000644648 1.78036e-19)
(1.00011 -0.000614342 -1.63101e-19)
(1.00019 -0.00058007 -1.05584e-19)
(1.00028 -0.000537673 3.21901e-19)
(1.00038 -0.000486726 5.11094e-20)
(1.0005 -0.000429549 1.0981e-19)
(1.00064 -0.000372107 -5.37881e-19)
(1.00079 -0.000323106 -5.39949e-19)
(1.00095 -0.000293236 9.32613e-19)
(1.00113 -0.000296766 7.08335e-19)
(1.00132 -0.00035217 1.10124e-18)
(1.00153 -0.000480363 -1.05677e-18)
(1.00173 -0.000702767 -1.13818e-18)
(1.00194 -0.00103798 -6.46584e-19)
(1.00213 -0.00149701 1.59627e-18)
(1.00232 -0.00207841 1.57146e-18)
(1.00248 -0.00276427 -1.67708e-18)
(1.00263 -0.00351712 -2.53645e-18)
(1.00275 -0.00428451 -3.27136e-19)
(1.00287 -0.00500514 5.10583e-19)
(1.003 -0.0056184 4.66012e-21)
(1.00313 -0.00607361 -1.19833e-18)
(1.00329 -0.00633694 1.05914e-18)
(1.00347 -0.00641474 5.22166e-19)
(1.00365 -0.00631637 7.11123e-19)
(1.00361 -0.00632795 -3.41493e-18)
(1.00401 -0.00711917 -1.72131e-19)
(1.00214 -0.00662726 2.76968e-19)
(0.999543 -0.0002918 -3.17952e-20)
(0.999534 -0.000339317 -2.40134e-20)
(0.999535 -0.000372216 3.08637e-20)
(0.999537 -0.000397713 1.03603e-19)
(0.99954 -0.000421941 -2.11688e-19)
(0.999544 -0.000444847 2.29964e-19)
(0.999548 -0.000466258 -9.80842e-21)
(0.999554 -0.000486364 -1.29558e-20)
(0.999559 -0.000505109 -7.07278e-20)
(0.999566 -0.000522658 1.6383e-19)
(0.999572 -0.00053936 -2.41223e-19)
(0.999579 -0.000555673 8.69896e-20)
(0.999586 -0.000571872 -2.77406e-21)
(0.999594 -0.000588184 1.25109e-19)
(0.999601 -0.000604951 5.70796e-20)
(0.999609 -0.000622523 -2.93503e-19)
(0.999618 -0.000641024 2.4574e-19)
(0.999626 -0.000660089 9.30378e-20)
(0.999635 -0.000680129 -2.58919e-19)
(0.999645 -0.000701065 1.23379e-19)
(0.999655 -0.000722539 5.51147e-20)
(0.999666 -0.000744553 -3.5702e-20)
(0.999678 -0.000767475 4.3064e-20)
(0.999692 -0.000790146 -2.44557e-20)
(0.999707 -0.000813624 -2.76429e-19)
(0.999724 -0.000836911 1.76221e-19)
(0.999744 -0.000859888 -2.61519e-19)
(0.999767 -0.000882357 4.74474e-19)
(0.999794 -0.000903287 -8.7088e-20)
(0.999825 -0.000922364 -5.21131e-20)
(0.999862 -0.000937082 -1.4348e-20)
(0.999905 -0.000948032 4.47031e-19)
(0.999955 -0.000957778 -1.84712e-19)
(1.00001 -0.000969528 -1.18061e-19)
(1.00008 -0.000982348 2.69835e-19)
(1.00017 -0.000992414 2.25978e-19)
(1.00026 -0.000999639 -3.75953e-19)
(1.00038 -0.00100613 6.90248e-20)
(1.00051 -0.00101747 6.66056e-19)
(1.00066 -0.00104159 -1.05685e-19)
(1.00082 -0.00108742 4.32472e-19)
(1.00101 -0.0011666 -5.67792e-19)
(1.00122 -0.00129431 8.81544e-19)
(1.00144 -0.00148725 1.72694e-18)
(1.00168 -0.00176206 4.02096e-19)
(1.00192 -0.00213244 -6.67019e-19)
(1.00217 -0.00260507 -1.95011e-18)
(1.00242 -0.00317559 4.68981e-19)
(1.00266 -0.00382522 5.12959e-19)
(1.00288 -0.00451823 9.43139e-19)
(1.00308 -0.00520647 -9.50483e-21)
(1.00326 -0.00583481 -2.10837e-18)
(1.00344 -0.0063499 1.78365e-18)
(1.00362 -0.00670937 -1.16634e-18)
(1.00379 -0.00688589 2.35085e-18)
(1.00397 -0.00689193 5.00112e-19)
(1.00411 -0.00673537 2.30886e-18)
(1.00404 -0.00669388 3.07865e-18)
(1.0044 -0.00745925 6.81804e-19)
(1.00227 -0.00688098 1.29165e-18)
(0.999475 -0.000270729 -1.56627e-20)
(0.999463 -0.000320482 1.2718e-20)
(0.999463 -0.000354196 6.04516e-20)
(0.999465 -0.000381023 9.06195e-20)
(0.999468 -0.000407051 -2.5393e-19)
(0.999471 -0.000432134 1.38599e-19)
(0.999476 -0.000455987 -2.35449e-19)
(0.999481 -0.000478982 3.50287e-19)
(0.999486 -0.000500991 -1.56238e-19)
(0.999492 -0.000522166 2.62823e-20)
(0.999498 -0.000542917 2.74307e-19)
(0.999505 -0.00056376 -5.97006e-19)
(0.999512 -0.000584975 3.89479e-19)
(0.999518 -0.000606793 5.22823e-20)
(0.999525 -0.000629705 8.14404e-20)
(0.999533 -0.000654095 -3.28483e-19)
(0.99954 -0.000680185 1.55394e-19)
(0.999548 -0.000707541 -1.85527e-19)
(0.999556 -0.000736851 3.53893e-19)
(0.999565 -0.000768106 -4.66653e-20)
(0.999574 -0.000800979 -4.20284e-19)
(0.999584 -0.000835648 1.60913e-19)
(0.999595 -0.000872684 -9.32547e-21)
(0.999607 -0.000910825 -5.58305e-19)
(0.999621 -0.000951583 4.08044e-19)
(0.999636 -0.000993972 2.9773e-19)
(0.999654 -0.00103812 1.97024e-19)
(0.999675 -0.00108416 -2.46848e-19)
(0.999698 -0.00113122 -2.62343e-19)
(0.999726 -0.00117946 1.19249e-19)
(0.999759 -0.00122644 1.76867e-19)
(0.999797 -0.00127331 -2.07251e-19)
(0.999843 -0.0013225 -3.03408e-19)
(0.999897 -0.00137782 6.20463e-19)
(0.999961 -0.00143886 5.9572e-20)
(1.00004 -0.00150159 -8.90897e-19)
(1.00013 -0.0015664 6.87698e-20)
(1.00024 -0.00163498 5.79923e-19)
(1.00036 -0.00171236 6.53243e-20)
(1.0005 -0.00180565 7.18676e-19)
(1.00067 -0.00192203 -9.54786e-19)
(1.00086 -0.00207064 -6.8646e-20)
(1.00107 -0.00226363 -5.65703e-19)
(1.00131 -0.0025139 2.77329e-19)
(1.00157 -0.00283383 8.91425e-19)
(1.00185 -0.00323291 2.78674e-18)
(1.00214 -0.00371421 2.98472e-19)
(1.00243 -0.00427105 -1.64104e-18)
(1.00273 -0.00488427 1.29285e-18)
(1.00301 -0.00552007 4.36901e-18)
(1.00327 -0.00613433 -3.46716e-18)
(1.00352 -0.00667742 4.06428e-18)
(1.00375 -0.00710216 -2.39602e-18)
(1.00396 -0.00737278 -1.35602e-18)
(1.00416 -0.00746688 -4.86032e-18)
(1.00435 -0.00740021 -2.57953e-19)
(1.00448 -0.0071775 -1.42753e-18)
(1.0044 -0.00706091 -1.64878e-18)
(1.00474 -0.00776739 1.56774e-18)
(1.00248 -0.00705901 4.76028e-19)
(0.999376 -0.000251543 2.21246e-20)
(0.999363 -0.000303028 7.31542e-21)
(0.999363 -0.000337403 -7.16927e-20)
(0.999365 -0.000365649 6.46917e-20)
(0.999368 -0.000393688 -2.7167e-20)
(0.999371 -0.000421338 4.60531e-20)
(0.999375 -0.000448283 1.49961e-20)
(0.999379 -0.000474818 -2.07662e-19)
(0.999383 -0.000500756 8.58709e-20)
(0.999388 -0.000526105 -5.5649e-20)
(0.999393 -0.000551388 3.23048e-20)
(0.999399 -0.00057717 1.19526e-19)
(0.999405 -0.000603898 -2.16765e-20)
(0.99941 -0.000631792 6.68777e-20)
(0.999416 -0.00066145 -2.71609e-19)
(0.999423 -0.000693442 1.00756e-19)
(0.999429 -0.000728016 4.21139e-20)
(0.999436 -0.000764715 -1.11984e-19)
(0.999443 -0.000804398 2.13874e-19)
(0.999451 -0.000847155 6.74083e-20)
(0.99946 -0.000892583 -7.84646e-21)
(0.999469 -0.000941058 -7.04987e-20)
(0.999479 -0.000993325 2.68936e-19)
(0.99949 -0.00104798 -7.1814e-19)
(0.999503 -0.00110702 3.65772e-19)
(0.999517 -0.00116942 1.50865e-19)
(0.999534 -0.00123555 -2.4242e-19)
(0.999553 -0.00130585 4.19562e-19)
(0.999575 -0.00137948 -1.99851e-19)
(0.999601 -0.00145717 -1.01053e-19)
(0.999632 -0.00153641 -1.87677e-19)
(0.999668 -0.00161865 -7.66018e-20)
(0.99971 -0.00170653 2.06938e-19)
(0.999762 -0.00180403 -6.09563e-19)
(0.999823 -0.00191085 1.13892e-18)
(0.999896 -0.00202319 -8.25362e-20)
(0.999984 -0.00214155 5.5735e-19)
(1.00009 -0.00226713 -1.4166e-18)
(1.00021 -0.00240435 -4.25117e-19)
(1.00035 -0.00255948 2.80043e-20)
(1.00052 -0.00273804 -3.29934e-19)
(1.00071 -0.0029469 -5.40351e-20)
(1.00093 -0.00319553 -1.11024e-18)
(1.00118 -0.00349349 4.28374e-19)
(1.00145 -0.00384954 5.20658e-19)
(1.00175 -0.00426959 -2.64593e-18)
(1.00207 -0.00475381 3.4021e-18)
(1.00241 -0.00529374 4.86502e-19)
(1.00274 -0.00587022 2.15068e-19)
(1.00308 -0.00645133 -3.11189e-18)
(1.00339 -0.00699672 1.02838e-18)
(1.00369 -0.00746149 -2.17088e-18)
(1.00397 -0.00780358 4.27144e-18)
(1.00422 -0.00799231 8.05824e-19)
(1.00446 -0.00800882 -3.48749e-18)
(1.00466 -0.00787035 1.24365e-18)
(1.00478 -0.00757802 -3.50184e-18)
(1.0047 -0.00737631 -8.07509e-19)
(1.00504 -0.00800945 -5.70692e-18)
(1.00274 -0.00715412 -1.56271e-18)
(0.999241 -0.000234895 -4.98739e-21)
(0.999233 -0.000289128 -1.84889e-20)
(0.999234 -0.000324341 -1.52311e-20)
(0.999235 -0.000353728 1.3907e-19)
(0.999237 -0.000383543 -7.30866e-20)
(0.999239 -0.000413448 -8.32456e-20)
(0.999241 -0.000443096 -2.96299e-20)
(0.999244 -0.000472938 -1.157e-19)
(0.999247 -0.000502735 6.88606e-20)
(0.999251 -0.000532436 9.469e-21)
(0.999254 -0.000562604 3.28742e-21)
(0.999258 -0.0005939 2.55187e-19)
(0.999263 -0.000626712 -1.73124e-19)
(0.999267 -0.000661295 -2.0355e-20)
(0.999272 -0.000698325 1.82221e-19)
(0.999277 -0.000738464 -9.66923e-20)
(0.999283 -0.000781959 -3.59332e-20)
(0.999289 -0.000828292 5.53965e-20)
(0.999295 -0.000878563 1.72539e-19)
(0.999302 -0.000932955 9.11106e-20)
(0.99931 -0.000991016 3.16273e-20)
(0.999319 -0.00105332 -2.16912e-19)
(0.999328 -0.00112079 1.06534e-19)
(0.999339 -0.00119183 1.96513e-19)
(0.999352 -0.00126892 -4.01093e-19)
(0.999366 -0.00135096 1.24745e-19)
(0.999382 -0.00143852 -4.8352e-19)
(0.999401 -0.00153228 3.84791e-19)
(0.999423 -0.00163145 3.27335e-19)
(0.999449 -0.00173718 -4.94089e-19)
(0.999479 -0.00184688 -2.34989e-19)
(0.999515 -0.00196249 3.01409e-19)
(0.999557 -0.00208625 1.00224e-19)
(0.999608 -0.00222245 -2.62366e-19)
(0.999669 -0.00237111 -3.35047e-19)
(0.999742 -0.0025281 -3.92229e-19)
(0.999829 -0.00269423 2.43426e-19)
(0.999932 -0.00287012 5.67158e-19)
(1.00005 -0.00305951 2.01625e-19)
(1.0002 -0.00326791 -1.60478e-19)
(1.00037 -0.00349927 1.85682e-18)
(1.00056 -0.00375848 -2.20163e-19)
(1.00079 -0.00405268 1.85008e-18)
(1.00105 -0.00438859 -3.28419e-18)
(1.00134 -0.0047719 5.69414e-19)
(1.00166 -0.00520562 7.80362e-20)
(1.002 -0.00568758 -8.23198e-20)
(1.00237 -0.00620803 -2.4463e-18)
(1.00274 -0.00674802 -3.80856e-18)
(1.00311 -0.00727751 3.38221e-18)
(1.00347 -0.00775948 4.37242e-18)
(1.00382 -0.00815312 2.27922e-18)
(1.00414 -0.00842046 -4.209e-18)
(1.00444 -0.00853473 2.18139e-18)
(1.0047 -0.00847961 5.09563e-18)
(1.00492 -0.00827268 2.12529e-18)
(1.00505 -0.00791157 3.41494e-18)
(1.00497 -0.00762351 1.74317e-18)
(1.0053 -0.00818075 5.61936e-18)
(1.00301 -0.00717645 -4.99343e-18)
(0.999062 -0.000219526 6.54323e-21)
(0.999062 -0.000271666 -1.85293e-20)
(0.999065 -0.000305992 6.26495e-20)
(0.999066 -0.000335737 1.55004e-20)
(0.999066 -0.000367145 -7.71448e-20)
(0.999068 -0.00039961 -8.42376e-20)
(0.999069 -0.000432785 1.89155e-19)
(0.999071 -0.000466915 -1.96059e-19)
(0.999073 -0.000501652 -4.57249e-20)
(0.999076 -0.000536671 1.09574e-19)
(0.999078 -0.000572545 9.66613e-20)
(0.999081 -0.000609988 2.80429e-19)
(0.999084 -0.00064944 -1.51085e-19)
(0.999088 -0.00069118 -2.48015e-19)
(0.999092 -0.00073585 5.24562e-20)
(0.999096 -0.000784406 -1.85838e-19)
(0.999101 -0.000836968 1.34891e-19)
(0.999106 -0.000893074 -2.17466e-19)
(0.999112 -0.000953921 3.47883e-20)
(0.999119 -0.00101987 -6.57817e-20)
(0.999126 -0.00109029 -3.96426e-20)
(0.999135 -0.00116602 -1.68831e-19)
(0.999144 -0.00124809 1.65619e-20)
(0.999155 -0.00133473 3.47143e-19)
(0.999168 -0.0014289 -1.15924e-19)
(0.999182 -0.00152941 3.54766e-20)
(0.999199 -0.00163697 1.0044e-19)
(0.999219 -0.00175254 -1.27035e-19)
(0.999242 -0.00187526 -2.68066e-20)
(0.999269 -0.00200672 1.71858e-19)
(0.999301 -0.0021442 1.84867e-19)
(0.999338 -0.00228984 -1.33418e-19)
(0.999382 -0.00244592 -4.25762e-19)
(0.999435 -0.00261669 -6.01457e-19)
(0.999498 -0.00280208 8.9947e-19)
(0.999574 -0.00299812 2.47392e-19)
(0.999663 -0.00320565 1.60031e-19)
(0.999768 -0.00342468 7.70738e-19)
(0.999893 -0.00365835 -6.77747e-19)
(1.00004 -0.00391142 4.24323e-19)
(1.00021 -0.00418647 3.15568e-20)
(1.00042 -0.00448665 6.31446e-21)
(1.00065 -0.00481715 -6.84824e-19)
(1.00092 -0.00518228 1.57481e-18)
(1.00122 -0.00558521 -2.07349e-18)
(1.00156 -0.00602657 1.22748e-18)
(1.00193 -0.00650236 -3.3758e-18)
(1.00232 -0.0070019 8.33684e-19)
(1.00272 -0.00750663 2.03382e-18)
(1.00313 -0.00798823 -3.47165e-18)
(1.00353 -0.00841268 -7.36165e-19)
(1.00392 -0.00874258 -1.04435e-19)
(1.00428 -0.00894329 -8.39038e-19)
(1.00461 -0.00899093 -2.38386e-18)
(1.00491 -0.00887093 1.48121e-19)
(1.00515 -0.00860066 2.17591e-18)
(1.00529 -0.00817456 -2.14704e-18)
(1.00521 -0.007804 -5.84882e-19)
(1.00555 -0.00828914 -7.12473e-19)
(1.00329 -0.00714234 3.81143e-18)
(0.998841 -0.000203374 1.23883e-20)
(0.998852 -0.000258994 -9.88567e-21)
(0.998858 -0.000294089 8.57575e-21)
(0.998859 -0.000325349 5.2003e-20)
(0.998859 -0.000358843 7.1617e-20)
(0.99886 -0.000393915 -2.64744e-19)
(0.998861 -0.000430136 1.81706e-19)
(0.998862 -0.000467937 3.59703e-20)
(0.998864 -0.000506865 -1.03361e-20)
(0.998866 -0.000546463 -7.05532e-20)
(0.998868 -0.000587379 2.06021e-19)
(0.99887 -0.000630358 -6.40206e-20)
(0.998873 -0.000675846 -8.46766e-20)
(0.998876 -0.00072406 -2.41991e-19)
(0.998879 -0.000775807 4.63962e-19)
(0.998882 -0.000832059 -9.26216e-20)
(0.998887 -0.000892987 -7.43167e-20)
(0.998891 -0.000957973 -2.12208e-19)
(0.998897 -0.00102852 2.26052e-19)
(0.998903 -0.00110504 1.20541e-19)
(0.99891 -0.00118681 -5.43933e-20)
(0.998919 -0.00127486 8.82823e-20)
(0.998929 -0.00137039 -3.67133e-19)
(0.99894 -0.00147134 2.54121e-20)
(0.998953 -0.00158117 1.91479e-19)
(0.998969 -0.00169851 -3.49149e-20)
(0.998987 -0.00182424 -5.57716e-19)
(0.999008 -0.00195949 5.04183e-20)
(0.999033 -0.00210334 4.73229e-19)
(0.999062 -0.00225774 -1.25076e-19)
(0.999096 -0.00241981 -2.33565e-19)
(0.999136 -0.00259211 1.36904e-19)
(0.999184 -0.00277637 3.86312e-19)
(0.99924 -0.00297704 8.93652e-19)
(0.999308 -0.00319425 -1.34604e-19)
(0.999387 -0.0034236 1.87084e-19)
(0.999481 -0.00366626 -1.34838e-18)
(0.999592 -0.0039216 -3.69262e-19)
(0.999723 -0.00419217 2.36764e-19)
(0.999877 -0.00448206 -9.85479e-19)
(1.00006 -0.00479265 -1.95005e-19)
(1.00027 -0.00512561 4.45278e-19)
(1.00051 -0.00548449 3.94943e-19)
(1.00079 -0.0058716 1.01088e-18)
(1.00111 -0.00628805 3.20188e-18)
(1.00146 -0.00673253 -2.49139e-18)
(1.00185 -0.00719964 3.93546e-18)
(1.00226 -0.00767803 2.88638e-18)
(1.0027 -0.00814961 -2.1452e-20)
(1.00314 -0.00858768 3.62126e-18)
(1.00357 -0.00896078 -4.7197e-18)
(1.004 -0.00923437 -5.48217e-18)
(1.0044 -0.00937645 4.11019e-18)
(1.00476 -0.00936528 3.38837e-18)
(1.00509 -0.00918749 -1.39576e-18)
(1.00536 -0.0088599 -7.31719e-18)
(1.00551 -0.00837407 1.64448e-18)
(1.00543 -0.00792729 -1.80461e-18)
(1.00577 -0.00834695 -2.90534e-18)
(1.00356 -0.00706633 3.28072e-18)
(0.998592 -0.000187874 -1.35586e-20)
(0.998616 -0.000246127 1.40347e-20)
(0.998624 -0.000282311 9.04801e-20)
(0.998625 -0.000315254 -1.11809e-19)
(0.998625 -0.000350922 1.92504e-19)
(0.998625 -0.000388733 -2.68034e-19)
(0.998626 -0.000428257 7.19443e-20)
(0.998626 -0.000469859 -3.28895e-21)
(0.998627 -0.000512972 1.44168e-19)
(0.998628 -0.000556914 -7.24006e-20)
(0.998629 -0.000602433 2.04289e-20)
(0.99863 -0.000650331 1.98845e-20)
(0.998632 -0.000701211 -2.97717e-19)
(0.998634 -0.000755241 8.54968e-20)
(0.998636 -0.00081333 1.89006e-19)
(0.998639 -0.000876636 5.40437e-21)
(0.998642 -0.000945316 -2.90392e-19)
(0.998646 -0.00101862 1.14588e-19)
(0.998651 -0.00109827 5.11432e-19)
(0.998657 -0.00118469 -3.23103e-19)
(0.998665 -0.00127703 -2.36275e-19)
(0.998673 -0.00137645 1.93263e-19)
(0.998683 -0.00148431 1.20283e-19)
(0.998696 -0.00159823 1.28668e-19)
(0.99871 -0.00172219 -2.43146e-19)
(0.998727 -0.00185461 -5.08119e-19)
(0.998746 -0.00199649 3.74714e-19)
(0.998769 -0.00214919 5.17168e-19)
(0.998797 -0.00231159 1.39748e-19)
(0.998829 -0.00248609 -2.72392e-19)
(0.998866 -0.00266958 1.20962e-19)
(0.99891 -0.00286479 2.01912e-19)
(0.998962 -0.0030734 -3.37212e-19)
(0.999023 -0.00329973 -5.00829e-20)
(0.999096 -0.00354373 -5.82697e-19)
(0.999182 -0.00380114 -1.49043e-19)
(0.999282 -0.00407319 -1.50391e-19)
(0.9994 -0.00435864 3.86247e-19)
(0.999539 -0.00465954 -5.44737e-19)
(0.999701 -0.00497945 1.48226e-19)
(0.999891 -0.00531863 2.59984e-19)
(1.00011 -0.00567753 6.93202e-20)
(1.00037 -0.00605836 -1.52228e-18)
(1.00066 -0.0064618 -2.10309e-18)
(1.00099 -0.00688722 -1.78558e-18)
(1.00136 -0.00733178 3.57107e-18)
(1.00176 -0.00778898 1.68813e-19)
(1.0022 -0.008247 -1.37837e-18)