/*--------------------------------*- C++ -*----------------------------------*\
  =========                 |
  \\      /  F ield         | OpenFOAM: The Open Source CFD Toolbox
   \\    /   O peration     | Website:  https://openfoam.org
    \\  /    A nd           | Version:  6.0
     \\/     M anipulation  |
\*---------------------------------------------------------------------------*/
FoamFile
{
    version     2.0;
    format      ascii;
    class       volScalarField;
    location    "13";
    object      p;
}
// * * * * * * * * * * * * * * * * * * * * * * * * * * * * * * * * * * * * * //

dimensions      [0 2 -2 0 0 0 0];

internalField   nonuniform List<scalar> 
248000
(
0.026927
0.0269757
0.0270251
0.0270756
0.0271268
0.0271791
0.0272323
0.0272867
0.027342
0.0273986
0.0274562
0.0275152
0.0275754
0.027637
0.0276999
0.0277643
0.0278302
0.0278977
0.0279668
0.0280378
0.0281104
0.0281849
0.0282613
0.0283398
0.0284202
0.0285029
0.0285876
0.0286748
0.0287642
0.0288561
0.0289504
0.0290473
0.0291467
0.029249
0.0293538
0.0294615
0.0295717
0.0296849
0.0298007
0.0299194
0.0300406
0.0301646
0.0302909
0.0304199
0.0305509
0.0306843
0.0308193
0.0309563
0.0310948
0.0312355
0.0313777
0.0315216
0.0316659
0.0318108
0.031955
0.0320982
0.032239
0.0323769
0.0325105
0.0326389
0.0327604
0.0328739
0.0329776
0.0330702
0.0331496
0.0332144
0.0332625
0.0332932
0.033305
0.0332962
0.0332652
0.0332111
0.0331339
0.0330339
0.0329123
0.0327709
0.0326123
0.0324397
0.0322574
0.0320697
0.0318816
0.0316975
0.0315211
0.0313547
0.0311981
0.0310486
0.0308998
0.0307423
0.0305633
0.0303485
0.0300835
0.0297561
0.0293608
0.028898
0.0283832
0.0278375
0.0273022
0.0268139
0.0264283
0.0261744
0.0260955
0.0261822
0.0264401
0.0268049
0.0272415
0.0276394
0.0279363
0.0280574
0.0279408
0.0275447
0.0268554
0.0258785
0.0246427
0.0231871
0.0215705
0.0198175
0.0180921
0.0161147
0.0149514
0.0162326
0.02694
0.0269935
0.0270472
0.0271012
0.0271554
0.0272101
0.0272654
0.0273213
0.0273779
0.0274354
0.0274937
0.0275531
0.0276135
0.0276751
0.0277379
0.0278022
0.0278677
0.0279348
0.0280035
0.0280738
0.0281458
0.0282197
0.0282953
0.0283731
0.0284527
0.0285346
0.0286185
0.0287048
0.0287932
0.0288842
0.0289775
0.0290735
0.029172
0.0292732
0.029377
0.0294836
0.0295929
0.0297051
0.0298199
0.0299377
0.0300581
0.0301813
0.0303069
0.0304352
0.0305656
0.0306985
0.030833
0.0309696
0.0311081
0.031249
0.0313919
0.0315367
0.0316826
0.0318293
0.0319758
0.0321217
0.0322659
0.0324077
0.0325459
0.0326794
0.032807
0.0329273
0.0330388
0.0331401
0.0332294
0.033305
0.0333654
0.0334093
0.0334354
0.0334421
0.033428
0.0333923
0.0333349
0.0332563
0.0331577
0.0330409
0.0329087
0.0327644
0.0326123
0.0324572
0.0323043
0.0321584
0.0320236
0.0319026
0.0317957
0.0317002
0.0316098
0.0315147
0.0314013
0.0312535
0.0310548
0.03079
0.0304501
0.0300325
0.0295496
0.0290211
0.0284888
0.0279926
0.027595
0.0273337
0.0272652
0.0273908
0.0277306
0.0282258
0.0288493
0.0294821
0.0300569
0.0304831
0.0306781
0.0305767
0.0301422
0.0293585
0.0282371
0.0268026
0.0251091
0.0231639
0.0211766
0.0187934
0.0177999
0.0179559
0.0269459
0.0269982
0.0270509
0.0271042
0.0271579
0.0272123
0.0272674
0.0273233
0.0273799
0.0274375
0.027496
0.0275556
0.0276163
0.0276783
0.0277416
0.0278063
0.0278724
0.0279401
0.0280093
0.0280803
0.028153
0.0282275
0.0283039
0.0283823
0.0284627
0.0285453
0.0286299
0.0287169
0.028806
0.0288978
0.0289918
0.0290885
0.0291877
0.0292897
0.0293943
0.0295018
0.0296119
0.029725
0.0298407
0.0299594
0.0300807
0.0302049
0.0303315
0.0304608
0.0305924
0.0307263
0.0308619
0.0309996
0.031139
0.0312809
0.031425
0.0315711
0.0317183
0.0318663
0.0320143
0.0321616
0.0323073
0.0324506
0.0325904
0.0327255
0.0328547
0.0329767
0.03309
0.0331931
0.0332842
0.0333617
0.0334237
0.0334689
0.0334958
0.0335028
0.0334883
0.0334515
0.0333923
0.033311
0.0332087
0.0330869
0.0329483
0.0327961
0.0326346
0.0324687
0.0323037
0.0321445
0.0319958
0.0318604
0.0317392
0.0316298
0.031526
0.0314174
0.0312894
0.0311237
0.0309007
0.0306004
0.0302077
0.0297129
0.0291202
0.0284417
0.0277124
0.0269677
0.0262697
0.0256595
0.0252028
0.024914
0.0248314
0.0249145
0.0251576
0.0254578
0.0257632
0.0259916
0.0260627
0.0259097
0.0254905
0.024782
0.0237896
0.0225318
0.0210652
0.0193967
0.0177623
0.0159143
0.0156267
0.0156047
0.026967
0.0270143
0.027063
0.027113
0.0271642
0.0272168
0.0272706
0.0273257
0.027382
0.0274396
0.0274985
0.0275588
0.0276204
0.0276834
0.0277478
0.0278138
0.0278812
0.0279503
0.028021
0.0280935
0.0281676
0.0282437
0.0283215
0.0284014
0.0284831
0.0285669
0.0286527
0.0287409
0.0288311
0.0289238
0.0290187
0.0291163
0.0292163
0.0293191
0.0294245
0.0295328
0.0296438
0.0297578
0.0298745
0.0299943
0.0301167
0.030242
0.03037
0.0305007
0.0306337
0.0307692
0.0309066
0.0310461
0.0311875
0.0313314
0.0314776
0.0316258
0.0317753
0.0319258
0.0320764
0.0322266
0.0323755
0.0325222
0.0326656
0.0328047
0.0329383
0.0330652
0.0331838
0.0332927
0.0333903
0.0334747
0.0335441
0.0335969
0.0336316
0.0336463
0.0336397
0.0336109
0.0335601
0.0334876
0.0333943
0.0332818
0.0331526
0.0330103
0.0328594
0.0327053
0.0325538
0.0324109
0.0322822
0.0321719
0.0320824
0.0320128
0.0319584
0.0319099
0.0318533
0.03177
0.0316381
0.0314342
0.0311376
0.0307306
0.0302079
0.0295708
0.028843
0.0280497
0.0272451
0.0264667
0.0257813
0.0252097
0.024803
0.0245362
0.0244246
0.0243841
0.0243848
0.0243598
0.0242394
0.0239632
0.0234922
0.0228038
0.0219017
0.020802
0.0195629
0.0181924
0.0169344
0.0156226
0.0158468
0.0163732
0.0269456
0.0269931
0.0270422
0.0270929
0.0271449
0.0271985
0.0272534
0.0273099
0.0273677
0.027427
0.0274877
0.02755
0.0276137
0.027679
0.0277457
0.0278141
0.027884
0.0279557
0.028029
0.0281041
0.0281809
0.0282596
0.0283401
0.0284225
0.0285068
0.028593
0.0286811
0.0287714
0.0288635
0.028958
0.0290547
0.0291538
0.0292552
0.0293595
0.0294661
0.0295758
0.029688
0.0298033
0.0299214
0.0300425
0.0301664
0.0302933
0.0304228
0.0305553
0.0306902
0.0308278
0.0309675
0.0311094
0.0312535
0.0314003
0.0315492
0.0317004
0.0318531
0.0320069
0.0321612
0.0323154
0.0324685
0.0326198
0.0327683
0.032913
0.0330527
0.0331861
0.0333121
0.0334289
0.0335352
0.0336291
0.0337086
0.033772
0.0338173
0.0338425
0.0338466
0.033829
0.0337901
0.0337302
0.03365
0.033551
0.0334361
0.0333088
0.0331744
0.0330387
0.0329087
0.0327915
0.0326945
0.032624
0.0325848
0.0325788
0.0326046
0.0326558
0.0327213
0.0327845
0.0328244
0.0328169
0.0327381
0.0325649
0.0322838
0.0318855
0.0313814
0.0307835
0.0301333
0.0294577
0.0288167
0.0282283
0.0277465
0.027353
0.0270754
0.0268441
0.026646
0.0264277
0.0261295
0.0256993
0.0251033
0.0243213
0.0233563
0.0222212
0.0209722
0.0196127
0.018382
0.0171352
0.0173632
0.01779
0.0268952
0.0269467
0.0269995
0.0270536
0.0271088
0.0271653
0.027223
0.0272821
0.0273425
0.0274042
0.0274673
0.0275319
0.0275979
0.0276655
0.0277346
0.0278054
0.0278778
0.0279521
0.028028
0.0281059
0.0281856
0.0282673
0.0283508
0.0284364
0.0285238
0.0286132
0.0287045
0.0287978
0.0288931
0.0289905
0.02909
0.0291919
0.029296
0.0294028
0.0295121
0.0296242
0.029739
0.0298568
0.0299774
0.0301011
0.0302276
0.0303571
0.0304893
0.0306245
0.0307622
0.0309027
0.0310454
0.0311905
0.0313379
0.031488
0.0316402
0.0317946
0.0319505
0.0321076
0.0322652
0.0324226
0.0325791
0.0327338
0.0328857
0.0330338
0.033177
0.033314
0.0334435
0.0335639
0.0336737
0.033771
0.0338536
0.0339194
0.0339657
0.0339906
0.0339929
0.0339726
0.0339297
0.0338644
0.0337767
0.0336682
0.0335413
0.0333997
0.0332487
0.0330948
0.0329452
0.0328086
0.0326936
0.0326088
0.0325617
0.0325576
0.0325989
0.0326837
0.0328051
0.032951
0.0331038
0.0332418
0.0333414
0.0333779
0.0333327
0.0331893
0.0329483
0.0326098
0.0322016
0.0317378
0.0312667
0.0307984
0.0303821
0.0299994
0.0296819
0.029368
0.0290561
0.028702
0.0282538
0.0276667
0.0269128
0.0259759
0.0248597
0.0235768
0.022183
0.0206819
0.019315
0.0179586
0.0180378
0.0181023
0.0268757
0.0269298
0.0269849
0.0270412
0.0270983
0.0271566
0.027216
0.0272765
0.0273382
0.0274012
0.0274655
0.0275312
0.0275982
0.0276669
0.027737
0.027809
0.0278826
0.0279582
0.0280356
0.0281151
0.0281966
0.0282803
0.028366
0.0284539
0.0285439
0.028636
0.0287301
0.0288265
0.0289248
0.0290254
0.0291281
0.0292333
0.0293408
0.0294511
0.0295638
0.0296795
0.0297978
0.0299193
0.0300436
0.0301711
0.0303013
0.0304347
0.0305707
0.0307097
0.0308512
0.0309954
0.0311418
0.0312907
0.0314417
0.0315953
0.031751
0.0319086
0.0320675
0.0322275
0.0323876
0.0325474
0.0327058
0.0328621
0.0330152
0.033164
0.0333074
0.0334441
0.0335727
0.0336913
0.0337983
0.0338917
0.0339692
0.0340276
0.0340642
0.0340765
0.0340635
0.0340248
0.0339603
0.0338692
0.0337511
0.0336065
0.0334375
0.0332473
0.0330407
0.0328239
0.0326045
0.0323913
0.0321939
0.0320224
0.0318867
0.0317949
0.0317532
0.0317643
0.0318263
0.0319326
0.0320708
0.032224
0.0323719
0.0324914
0.0325632
0.0325672
0.0324976
0.0323457
0.0321282
0.0318476
0.0315406
0.0312074
0.0308898
0.0305653
0.0302652
0.0299312
0.0295687
0.0291391
0.0285965
0.0279028
0.0270367
0.0259876
0.0247635
0.0233813
0.0219033
0.0203419
0.0189537
0.0176625
0.017779
0.0178281
0.0269234
0.0269748
0.0270275
0.0270815
0.0271368
0.0271935
0.0272515
0.0273109
0.0273717
0.027434
0.0274977
0.027563
0.0276298
0.0276984
0.0277685
0.0278406
0.0279144
0.0279903
0.0280682
0.0281484
0.0282307
0.0283154
0.0284023
0.0284917
0.0285832
0.0286772
0.0287734
0.028872
0.0289727
0.029076
0.0291816
0.0292898
0.0294004
0.029514
0.0296303
0.0297496
0.0298718
0.0299973
0.0301256
0.0302573
0.0303918
0.0305295
0.0306699
0.0308133
0.0309591
0.0311075
0.0312581
0.0314109
0.0315659
0.0317233
0.0318825
0.0320436
0.0322057
0.0323686
0.0325314
0.0326935
0.0328538
0.0330117
0.0331658
0.0333152
0.0334586
0.0335947
0.0337218
0.0338379
0.0339413
0.0340297
0.0341004
0.0341501
0.0341753
0.0341733
0.0341429
0.0340835
0.033994
0.033873
0.0337188
0.0335312
0.0333111
0.0330611
0.0327848
0.0324879
0.032177
0.0318607
0.0315488
0.0312518
0.0309809
0.0307464
0.0305575
0.0304206
0.0303387
0.0303104
0.0303294
0.0303845
0.0304606
0.0305388
0.030602
0.0306303
0.0306154
0.0305437
0.0304246
0.0302523
0.0300535
0.0298206
0.0295871
0.0293261
0.029066
0.0287497
0.0283864
0.027942
0.0273746
0.026653
0.0257622
0.0246986
0.0234768
0.0221215
0.0207055
0.0192548
0.0180426
0.0170508
0.0174199
0.0178173
0.0270214
0.0270674
0.0271152
0.0271648
0.0272161
0.0272692
0.027324
0.0273807
0.0274391
0.0274993
0.0275613
0.0276253
0.027691
0.0277587
0.0278283
0.0279
0.0279738
0.0280498
0.028128
0.0282086
0.0282915
0.028377
0.0284648
0.0285553
0.0286481
0.0287436
0.0288414
0.0289418
0.0290445
0.02915
0.0292579
0.0293688
0.0294822
0.0295988
0.0297182
0.029841
0.0299667
0.0300959
0.0302282
0.030364
0.0305027
0.0306448
0.0307896
0.0309374
0.0310876
0.0312404
0.0313953
0.0315523
0.0317114
0.0318728
0.0320361
0.0322012
0.0323672
0.0325341
0.0327008
0.0328667
0.0330307
0.0331922
0.0333499
0.0335028
0.0336496
0.0337888
0.0339187
0.0340373
0.0341425
0.0342319
0.0343027
0.0343513
0.0343741
0.0343679
0.0343314
0.0342635
0.0341624
0.0340255
0.0338502
0.0336352
0.0333804
0.0330872
0.0327579
0.0323969
0.0320098
0.031604
0.0311886
0.0307738
0.0303711
0.0299918
0.0296469
0.0293455
0.0290943
0.0288965
0.0287513
0.028653
0.0285925
0.0285558
0.0285302
0.0284982
0.0284521
0.0283768
0.0282779
0.0281442
0.0279963
0.0278196
0.0276423
0.0274325
0.0272165
0.0269369
0.0266054
0.0261908
0.0256548
0.0249723
0.024134
0.0231428
0.0220198
0.0207978
0.0195589
0.0183406
0.0174228
0.0168366
0.017534
0.0183789
0.0271386
0.0271784
0.0272206
0.027265
0.0273117
0.0273608
0.0274122
0.0274659
0.0275217
0.02758
0.0276404
0.0277032
0.0277681
0.0278354
0.0279049
0.0279769
0.0280511
0.0281278
0.0282069
0.0282886
0.0283727
0.0284596
0.028549
0.0286411
0.0287357
0.028833
0.0289328
0.0290353
0.0291403
0.0292481
0.0293585
0.0294719
0.029588
0.0297075
0.0298299
0.0299558
0.0300848
0.0302175
0.0303534
0.030493
0.0306357
0.0307818
0.0309308
0.0310829
0.0312376
0.0313948
0.0315541
0.0317156
0.0318791
0.0320451
0.0322131
0.032383
0.0325543
0.0327267
0.0328992
0.0330713
0.033242
0.0334105
0.0335758
0.0337369
0.0338924
0.034041
0.0341808
0.0343099
0.0344259
0.0345266
0.034609
0.0346696
0.0347045
0.0347108
0.0346867
0.0346308
0.0345405
0.0344122
0.0342425
0.0340289
0.0337706
0.0334674
0.0331206
0.0327328
0.0323083
0.0318529
0.0313746
0.0308824
0.0303871
0.0299002
0.0294331
0.0289966
0.0285997
0.028249
0.0279479
0.0276955
0.0274881
0.0273169
0.0271738
0.0270452
0.0269254
0.0268003
0.0266739
0.026533
0.0263938
0.0262382
0.0260895
0.0259135
0.0257336
0.0254925
0.0252035
0.0248382
0.0243606
0.0237507
0.0230034
0.022127
0.0211466
0.0201009
0.0190771
0.0181184
0.0174983
0.0172821
0.0182519
0.0194476
0.0272526
0.0272879
0.027326
0.0273668
0.0274102
0.0274564
0.0275052
0.0275567
0.0276108
0.0276676
0.027727
0.0277891
0.0278538
0.0279212
0.0279911
0.0280639
0.0281392
0.0282172
0.0282979
0.0283814
0.0284676
0.0285566
0.0286483
0.0287428
0.02884
0.0289399
0.0290424
0.0291476
0.0292554
0.029366
0.0294793
0.0295957
0.0297149
0.0298375
0.0299631
0.0300923
0.0302247
0.0303608
0.0305004
0.0306436
0.0307902
0.0309403
0.0310935
0.0312499
0.031409
0.0315708
0.0317347
0.031901
0.0320695
0.0322407
0.0324142
0.0325903
0.0327682
0.0329478
0.0331283
0.0333092
0.0334895
0.0336687
0.0338457
0.0340198
0.0341895
0.0343538
0.0345108
0.0346584
0.0347946
0.0349169
0.0350227
0.0351084
0.0351706
0.035206
0.0352131
0.03519
0.0351334
0.0350391
0.0349028
0.0347213
0.0344927
0.034216
0.0338909
0.0335188
0.0331021
0.0326452
0.0321543
0.0316369
0.0311026
0.0305622
0.0300264
0.0295067
0.0290131
0.0285541
0.0281364
0.0277623
0.0274327
0.027143
0.0268896
0.0266628
0.0264598
0.0262685
0.0260931
0.0259198
0.025763
0.0256021
0.0254584
0.025295
0.0251348
0.02492
0.0246656
0.0243448
0.023924
0.0233867
0.0227302
0.021966
0.0211209
0.0202361
0.0193997
0.0186546
0.0182592
0.0183006
0.0194291
0.020811
0.0273641
0.0273961
0.0274313
0.0274695
0.0275105
0.0275547
0.0276019
0.0276521
0.0277052
0.0277614
0.0278205
0.0278826
0.0279477
0.0280158
0.0280867
0.0281607
0.0282375
0.0283174
0.0284002
0.028486
0.0285746
0.0286663
0.0287608
0.0288583
0.0289586
0.0290617
0.0291674
0.029276
0.0293872
0.0295012
0.029618
0.0297379
0.0298606
0.0299867
0.0301158
0.0302485
0.0303846
0.0305244
0.0306677
0.0308148
0.0309654
0.0311196
0.031277
0.0314379
0.0316016
0.0317682
0.0319372
0.0321087
0.0322828
0.03246
0.03264
0.0328231
0.0330089
0.0331974
0.0333877
0.0335794
0.0337718
0.0339645
0.0341566
0.0343473
0.0345356
0.0347203
0.0348999
0.0350724
0.0352357
0.0353877
0.0355256
0.0356467
0.0357473
0.0358248
0.0358773
0.0359028
0.0358975
0.0358567
0.0357756
0.0356504
0.0354785
0.035258
0.0349873
0.0346666
0.0342968
0.0338805
0.0334222
0.0329278
0.0324052
0.0318639
0.0313136
0.0307652
0.0302287
0.0297138
0.0292286
0.0287779
0.0283655
0.0279905
0.0276525
0.0273459
0.0270698
0.0268156
0.0265871
0.0263729
0.026184
0.0260022
0.0258439
0.0256752
0.0255146
0.0253068
0.0250676
0.0247719
0.0243874
0.0239003
0.0233087
0.0226256
0.0218773
0.021105
0.0203941
0.0197846
0.0195152
0.0196902
0.0208662
0.0222897
0.0274782
0.0275092
0.0275435
0.0275809
0.0276213
0.0276648
0.0277114
0.0277611
0.027814
0.0278701
0.0279292
0.0279917
0.0280572
0.028126
0.0281979
0.0282731
0.0283515
0.0284331
0.0285178
0.0286058
0.0286969
0.0287912
0.0288886
0.0289891
0.0290924
0.0291989
0.029308
0.0294201
0.0295349
0.0296526
0.0297731
0.0298968
0.0300233
0.0301533
0.0302864
0.030423
0.030563
0.0307068
0.0308541
0.0310054
0.0311602
0.0313188
0.0314807
0.0316463
0.0318149
0.0319867
0.0321612
0.0323386
0.0325189
0.0327027
0.0328899
0.033081
0.0332757
0.033474
0.0336753
0.0338792
0.0340853
0.0342932
0.0345022
0.0347118
0.0349209
0.0351288
0.035334
0.0355347
0.035729
0.0359149
0.0360901
0.0362519
0.0363973
0.0365236
0.0366294
0.0367123
0.0367683
0.0367923
0.0367792
0.0367249
0.0366263
0.0364808
0.0362859
0.0360405
0.0357443
0.0353983
0.0350055
0.0345699
0.0340978
0.0335969
0.0330756
0.0325438
0.0320109
0.0314864
0.030979
0.030495
0.0300399
0.0296153
0.0292234
0.0288613
0.0285305
0.0282247
0.0279487
0.0276922
0.0274661
0.0272521
0.027066
0.0268742
0.0266943
0.0264724
0.0262253
0.0259295
0.0255535
0.0250852
0.0245228
0.0238793
0.0231793
0.0224626
0.0218106
0.0212592
0.0210284
0.021238
0.022382
0.0237473
0.027606
0.0276369
0.027671
0.0277083
0.0277487
0.0277923
0.027839
0.027889
0.0279422
0.0279988
0.0280585
0.0281216
0.0281879
0.0282577
0.0283307
0.0284071
0.0284869
0.0285701
0.0286566
0.0287465
0.0288398
0.0289365
0.0290363
0.0291395
0.0292458
0.0293553
0.0294676
0.0295831
0.0297013
0.0298226
0.0299468
0.0300742
0.0302046
0.0303385
0.0304755
0.0306162
0.0307603
0.0309082
0.0310598
0.0312154
0.0313746
0.0315377
0.0317044
0.031875
0.0320488
0.0322262
0.0324066
0.0325902
0.0327772
0.0329681
0.0331631
0.0333627
0.0335667
0.0337754
0.0339882
0.034205
0.0344252
0.0346488
0.0348754
0.0351043
0.0353349
0.0355664
0.0357977
0.0360273
0.0362532
0.036474
0.0366873
0.0368911
0.0370825
0.0372593
0.0374199
0.0375623
0.0376822
0.0377742
0.0378333
0.0378551
0.0378362
0.0377734
0.0376638
0.0375051
0.0372961
0.0370364
0.0367275
0.036372
0.0359743
0.0355406
0.0350777
0.0345939
0.0340979
0.0335983
0.0331038
0.0326211
0.0321566
0.0317136
0.0312954
0.0309021
0.0305358
0.0301933
0.0298786
0.0295851
0.0293205
0.0290708
0.0288473
0.028622
0.028407
0.0281535
0.027878
0.0275588
0.0271651
0.0266858
0.0261186
0.0254764
0.0247812
0.0240712
0.0234235
0.0228713
0.0226178
0.0227999
0.0238681
0.0251239
0.0277529
0.0277851
0.0278206
0.0278591
0.0279006
0.0279452
0.0279928
0.0280437
0.0280977
0.0281549
0.0282154
0.0282793
0.0283464
0.028417
0.028491
0.0285685
0.0286494
0.0287339
0.0288217
0.0289133
0.0290082
0.0291067
0.0292086
0.029314
0.0294226
0.0295346
0.0296497
0.029768
0.0298892
0.0300137
0.0301412
0.0302721
0.0304061
0.0305437
0.0306845
0.0308291
0.0309772
0.0311293
0.0312851
0.0314451
0.0316089
0.0317767
0.0319483
0.0321239
0.0323032
0.0324863
0.0326728
0.0328629
0.0330568
0.0332552
0.0334582
0.0336664
0.03388
0.0340991
0.0343234
0.0345527
0.0347868
0.0350258
0.0352692
0.0355167
0.0357677
0.0360218
0.036278
0.0365348
0.0367908
0.0370444
0.037294
0.0375373
0.0377722
0.0379967
0.0382094
0.0384082
0.0385889
0.0387459
0.0388744
0.03897
0.0390291
0.0390482
0.0390238
0.0389531
0.038834
0.038665
0.0384465
0.0381796
0.0378671
0.0375138
0.0371248
0.0367072
0.0362682
0.0358154
0.035357
0.0348994
0.0344493
0.0340108
0.0335882
0.0331827
0.0327976
0.0324312
0.0320879
0.0317625
0.0314623
0.0311748
0.03091
0.0306423
0.0303824
0.0300844
0.0297654
0.029405
0.0289733
0.0284601
0.0278625
0.0271928
0.0264708
0.0257335
0.0250545
0.0244654
0.0241564
0.0242815
0.025259
0.0263863
0.0279266
0.0279604
0.0279973
0.0280371
0.0280799
0.0281258
0.0281747
0.0282268
0.0282819
0.0283404
0.028402
0.028467
0.0285352
0.0286068
0.0286818
0.0287604
0.0288424
0.028928
0.029017
0.0291098
0.029206
0.029306
0.0294094
0.0295165
0.029627
0.0297409
0.0298581
0.0299787
0.0301024
0.0302295
0.0303598
0.0304936
0.0306307
0.0307716
0.0309158
0.031064
0.0312157
0.0313717
0.0315316
0.0316957
0.0318639
0.0320363
0.0322127
0.0323934
0.0325781
0.0327669
0.0329595
0.0331562
0.033357
0.0335628
0.0337736
0.0339904
0.0342132
0.0344423
0.0346775
0.0349188
0.0351658
0.035419
0.035678
0.0359425
0.036212
0.0364864
0.0367649
0.0370461
0.0373289
0.0376119
0.0378935
0.0381721
0.0384456
0.0387125
0.0389713
0.0392202
0.0394551
0.0396704
0.0398612
0.0400234
0.0401534
0.0402475
0.040302
0.0403135
0.0402792
0.0401971
0.0400663
0.039887
0.0396606
0.0393905
0.0390804
0.0387359
0.038363
0.0379681
0.0375585
0.0371402
0.0367195
0.0363009
0.0358887
0.0354855
0.0350941
0.0347152
0.0343519
0.0340019
0.0336695
0.033347
0.0330394
0.032728
0.0324174
0.0320683
0.0316974
0.0312855
0.0308037
0.0302426
0.0295987
0.0288844
0.0281174
0.0273344
0.0266062
0.0259645
0.025589
0.0256513
0.0265415
0.0275442
0.028127
0.0281633
0.0282025
0.0282446
0.0282895
0.0283372
0.0283878
0.0284415
0.0284981
0.0285579
0.0286207
0.0286868
0.0287561
0.0288287
0.0289047
0.0289842
0.0290671
0.0291536
0.0292436
0.0293373
0.0294346
0.0295356
0.0296402
0.0297485
0.0298603
0.0299757
0.0300945
0.0302168
0.0303423
0.0304715
0.0306039
0.0307401
0.0308798
0.0310234
0.0311706
0.0313218
0.0314769
0.0316364
0.0317999
0.031968
0.0321402
0.032317
0.032498
0.0326835
0.0328734
0.0330678
0.0332663
0.0334692
0.0336768
0.0338896
0.0341081
0.0343329
0.0345643
0.0348028
0.0350481
0.0353001
0.0355589
0.0358247
0.0360974
0.0363768
0.0366625
0.0369545
0.0372522
0.0375544
0.0378599
0.0381679
0.0384769
0.0387853
0.0390915
0.0393941
0.039692
0.0399833
0.040264
0.0405288
0.0407728
0.0409923
0.0411834
0.0413426
0.0414662
0.0415502
0.0415915
0.0415876
0.0415367
0.0414382
0.0412925
0.0411016
0.0408681
0.0405963
0.0402909
0.0399571
0.0396013
0.0392287
0.0388451
0.0384549
0.0380623
0.0376702
0.0372816
0.036898
0.0365221
0.0361527
0.0357933
0.0354378
0.0350898
0.0347335
0.0343721
0.0339697
0.0335436
0.0330758
0.0325386
0.0319234
0.0312264
0.0304602
0.0296414
0.0288066
0.0280249
0.0273292
0.0268913
0.0268983
0.0277136
0.0286043
0.0283552
0.0283937
0.028435
0.0284791
0.0285258
0.0285755
0.028628
0.0286835
0.0287418
0.0288032
0.0288676
0.0289353
0.0290059
0.02908
0.0291572
0.0292379
0.0293218
0.0294094
0.0295004
0.0295952
0.0296934
0.0297954
0.029901
0.0300103
0.0301232
0.0302397
0.0303597
0.0304834
0.0306103
0.030741
0.0308752
0.0310133
0.031155
0.0313008
0.0314503
0.0316041
0.031762
0.0319244
0.0320911
0.0322626
0.0324385
0.0326191
0.0328043
0.0329943
0.0331889
0.0333885
0.0335924
0.0338012
0.034015
0.0342345
0.03446
0.0346923
0.0349316
0.0351785
0.0354328
0.0356944
0.0359634
0.0362403
0.0365249
0.036817
0.0371163
0.037423
0.0377367
0.0380563
0.0383807
0.0387092
0.0390405
0.0393734
0.0397062
0.040038
0.0403677
0.0406935
0.0410117
0.0413169
0.0416047
0.0418713
0.0421132
0.0423268
0.0425083
0.0426538
0.0427597
0.0428231
0.0428417
0.0428144
0.0427404
0.042621
0.0424577
0.0422534
0.042012
0.0417375
0.0414353
0.0411098
0.040766
0.0404082
0.0400398
0.0396648
0.0392845
0.0389025
0.0385192
0.0381366
0.0377542
0.0373712
0.0369854
0.0365887
0.0361776
0.0357244
0.0352447
0.034722
0.0341296
0.0334605
0.0327103
0.0318925
0.0310227
0.0301385
0.0293078
0.0285654
0.0280761
0.0280415
0.0287971
0.0295935
0.0286081
0.0286494
0.0286933
0.0287399
0.0287891
0.028841
0.0288955
0.028953
0.0290131
0.0290763
0.0291424
0.0292115
0.0292836
0.029359
0.0294376
0.0295195
0.0296047
0.0296934
0.0297855
0.0298812
0.0299804
0.0300834
0.0301899
0.0303002
0.0304139
0.0305315
0.0306524
0.0307771
0.0309052
0.0310372
0.0311727
0.0313122
0.0314555
0.0316031
0.0317546
0.0319105
0.0320706
0.0322356
0.032405
0.0325795
0.0327585
0.0329426
0.0331314
0.0333255
0.0335243
0.0337285
0.0339374
0.0341515
0.0343709
0.0345964
0.0348281
0.0350671
0.0353135
0.0355678
0.03583
0.0361
0.0363778
0.0366641
0.0369587
0.0372614
0.0375721
0.037891
0.0382177
0.0385514
0.038891
0.039236
0.0395853
0.0399375
0.0402916
0.0406466
0.0410015
0.0413547
0.0417027
0.0420402
0.0423629
0.0426675
0.0429504
0.0432082
0.0434373
0.0436334
0.043793
0.0439129
0.0439904
0.0440239
0.0440119
0.0439549
0.0438536
0.0437099
0.0435266
0.0433069
0.043055
0.0427748
0.0424703
0.0421457
0.0418034
0.0414477
0.0410793
0.0407023
0.040316
0.0399238
0.0395234
0.0391161
0.0386974
0.0382629
0.0378069
0.0373065
0.0367767
0.0362026
0.0355588
0.0348393
0.03404
0.033175
0.0322599
0.0313332
0.0304623
0.0296839
0.029157
0.0290951
0.0298053
0.0305227
0.0288873
0.0289306
0.0289767
0.0290253
0.0290765
0.0291305
0.0291871
0.0292466
0.0293087
0.0293738
0.0294417
0.0295127
0.0295865
0.0296636
0.0297436
0.029827
0.0299136
0.0300036
0.0300969
0.0301938
0.0302941
0.0303981
0.0305056
0.0306168
0.0307315
0.03085
0.0309719
0.0310975
0.0312266
0.0313595
0.0314961
0.0316368
0.0317813
0.0319303
0.0320833
0.0322409
0.0324029
0.0325698
0.0327415
0.0329184
0.0331001
0.0332871
0.033479
0.0336764
0.033879
0.0340872
0.0343004
0.0345191
0.0347434
0.0349741
0.0352114
0.0354562
0.0357088
0.0359696
0.0362386
0.0365157
0.0368011
0.0370953
0.0373983
0.0377098
0.0380298
0.0383587
0.038696
0.0390409
0.0393927
0.0397509
0.0401142
0.0404819
0.0408527
0.0412258
0.0416005
0.0419752
0.0423465
0.0427093
0.0430596
0.0433943
0.0437098
0.0440031
0.0442705
0.0445077
0.0447114
0.0448779
0.0450044
0.045089
0.0451295
0.0451259
0.0450782
0.0449875
0.0448558
0.0446851
0.0444792
0.0442409
0.0439737
0.0436811
0.0433651
0.0430297
0.0426751
0.0423057
0.0419196
0.0415216
0.041107
0.0406801
0.0402328
0.0397659
0.0392694
0.0387274
0.0381533
0.0375334
0.0368438
0.0360798
0.0352375
0.0343321
0.0333792
0.0324187
0.0315174
0.0307143
0.0301629
0.0300862
0.0307624
0.0314154
0.0291898
0.0292359
0.0292845
0.0293356
0.0293892
0.0294453
0.029504
0.0295654
0.0296295
0.0296964
0.029766
0.0298386
0.029914
0.0299926
0.0300741
0.0301589
0.0302468
0.0303381
0.0304326
0.0305307
0.0306321
0.0307371
0.0308456
0.0309578
0.0310734
0.0311927
0.0313154
0.0314419
0.0315718
0.0317056
0.0318431
0.0319848
0.0321304
0.0322805
0.0324348
0.0325938
0.0327572
0.0329259
0.0330994
0.0332783
0.0334622
0.0336516
0.0338462
0.0340464
0.0342521
0.0344637
0.0346806
0.0349032
0.0351317
0.0353669
0.0356089
0.0358588
0.0361166
0.036383
0.0366578
0.036941
0.0372327
0.0375336
0.0378436
0.0381625
0.0384902
0.0388272
0.0391731
0.0395272
0.0398888
0.0402574
0.0406321
0.0410118
0.0413958
0.0417832
0.0421733
0.0425648
0.0429544
0.0433372
0.0437093
0.0440678
0.0444094
0.0447311
0.0450294
0.0453001
0.0455397
0.0457447
0.045912
0.0460393
0.0461242
0.0461662
0.0461646
0.0461198
0.0460333
0.0459062
0.0457415
0.0455413
0.0453085
0.045046
0.0447552
0.04444
0.0440998
0.0437392
0.0433554
0.0429539
0.0425285
0.0420852
0.0416137
0.0411178
0.0405863
0.0400077
0.0393943
0.0387341
0.0380046
0.0372021
0.0363233
0.0353845
0.0344013
0.0334154
0.032493
0.031675
0.0311097
0.0310276
0.0316782
0.0322766
0.0295149
0.0295629
0.0296135
0.0296666
0.0297221
0.0297802
0.0298409
0.0299043
0.0299703
0.0300391
0.0301106
0.030185
0.0302622
0.0303425
0.0304256
0.030512
0.0306014
0.0306941
0.03079
0.0308894
0.030992
0.0310982
0.0312078
0.031321
0.0314376
0.0315579
0.0316816
0.0318089
0.0319397
0.0320744
0.0322127
0.0323552
0.0325018
0.0326528
0.0328081
0.0329681
0.0331328
0.0333027
0.0334777
0.0336582
0.0338439
0.0340352
0.0342319
0.0344345
0.0346428
0.0348571
0.035077
0.0353029
0.0355349
0.0357738
0.0360199
0.0362739
0.0365362
0.0368073
0.0370871
0.0373755
0.0376726
0.0379791
0.0382951
0.0386201
0.0389543
0.039298
0.0396512
0.0400129
0.0403824
0.0407596
0.0411434
0.041533
0.0419275
0.0423263
0.0427288
0.0431337
0.043538
0.0439368
0.0443264
0.0447041
0.0450667
0.0454114
0.0457349
0.046033
0.0463023
0.0465393
0.0467406
0.046904
0.0470266
0.0471075
0.0471457
0.0471409
0.0470939
0.0470054
0.0468775
0.0467118
0.0465104
0.0462759
0.0460091
0.0457135
0.0453879
0.045037
0.0446571
0.0442543
0.0438209
0.0433646
0.0428726
0.0423524
0.0417901
0.0411803
0.0405334
0.0398385
0.0390748
0.0382398
0.0373306
0.0363647
0.0353581
0.0343539
0.033418
0.0325926
0.0320212
0.0319403
0.0325706
0.0331228
0.0298601
0.0299106
0.0299634
0.0300187
0.0300762
0.0301364
0.030199
0.0302642
0.0303319
0.0304024
0.0304756
0.0305516
0.0306304
0.0307122
0.0307969
0.0308847
0.0309756
0.0310697
0.0311669
0.0312676
0.0313715
0.0314789
0.0315896
0.0317039
0.0318216
0.0319428
0.0320674
0.0321957
0.0323273
0.0324628
0.032602
0.0327453
0.0328927
0.0330446
0.0332008
0.0333618
0.0335275
0.0336985
0.0338747
0.0340566
0.0342437
0.0344366
0.034635
0.0348395
0.0350498
0.0352664
0.0354887
0.0357172
0.0359521
0.0361941
0.0364435
0.0367011
0.0369671
0.0372422
0.0375262
0.037819
0.0381208
0.0384322
0.0387532
0.0390836
0.0394233
0.0397729
0.0401322
0.0405003
0.0408767
0.0412611
0.0416528
0.0420505
0.0424539
0.0428622
0.043275
0.043691
0.0441074
0.0445194
0.0449235
0.0453172
0.0456973
0.0460612
0.0464058
0.046727
0.0470215
0.0472856
0.0475161
0.0477104
0.0478656
0.0479804
0.0480533
0.0480837
0.0480718
0.0480176
0.0479228
0.0477884
0.0476159
0.0474072
0.0471629
0.0468859
0.0465746
0.0462336
0.0458585
0.0454557
0.0450163
0.044549
0.0440398
0.0434979
0.0429093
0.042272
0.0415954
0.0408702
0.0400769
0.0392141
0.0382794
0.0372915
0.0362667
0.0352496
0.0343056
0.0334781
0.0329059
0.0328296
0.0334426
0.0339532
0.0302265
0.0302785
0.030333
0.0303899
0.0304492
0.030511
0.0305752
0.0306422
0.0307116
0.0307838
0.0308586
0.0309363
0.0310167
0.0311001
0.0311863
0.0312756
0.0313679
0.0314635
0.0315621
0.0316641
0.0317693
0.0318779
0.0319899
0.0321053
0.032224
0.0323464
0.0324719
0.0326011
0.0327336
0.03287
0.03301
0.0331541
0.0333023
0.033455
0.0336119
0.0337737
0.0339402
0.0341122
0.0342893
0.0344722
0.0346604
0.0348545
0.0350543
0.0352602
0.0354721
0.0356905
0.0359148
0.0361454
0.0363826
0.0366271
0.0368792
0.0371397
0.0374088
0.0376873
0.037975
0.0382716
0.0385774
0.0388931
0.0392186
0.0395538
0.0398984
0.0402532
0.040618
0.0409919
0.0413743
0.0417653
0.0421638
0.0425689
0.0429799
0.0433966
0.0438183
0.0442441
0.044671
0.0450946
0.0455112
0.0459186
0.0463139
0.0466945
0.0470574
0.0473986
0.0477149
0.0480027
0.0482587
0.0484802
0.0486642
0.0488089
0.0489127
0.0489745
0.0489941
0.048971
0.0489064
0.0488005
0.0486546
0.0484701
0.048247
0.0479878
0.0476906
0.0473597
0.0469902
0.0465884
0.0461448
0.0456687
0.0451448
0.0445844
0.0439725
0.0433116
0.0426095
0.0418579
0.0410389
0.0401522
0.0391959
0.0381898
0.0371508
0.0361246
0.0351762
0.0343498
0.0337794
0.0337092
0.0343063
0.0347792
0.0306108
0.030665
0.0307214
0.0307803
0.0308413
0.0309048
0.0309706
0.0310391
0.03111
0.0311836
0.0312598
0.0313389
0.0314206
0.0315054
0.0315929
0.0316836
0.0317772
0.0318741
0.031974
0.0320772
0.0321836
0.0322935
0.0324065
0.0325231
0.0326428
0.0327661
0.0328927
0.0330228
0.0331561
0.0332933
0.0334341
0.0335791
0.033728
0.0338814
0.0340391
0.0342016
0.0343689
0.0345416
0.0347195
0.0349033
0.0350925
0.0352876
0.0354884
0.0356955
0.0359087
0.0361285
0.0363543
0.0365865
0.0368255
0.037072
0.0373263
0.0375893
0.0378611
0.0381425
0.0384333
0.0387334
0.0390428
0.0393623
0.0396919
0.0400314
0.0403806
0.0407401
0.04111
0.0414893
0.0418776
0.0422746
0.0426796
0.0430914
0.0435097
0.0439342
0.0443642
0.0447988
0.0452355
0.0456695
0.0460976
0.0465175
0.0469264
0.0473221
0.0477015
0.0480608
0.0483969
0.0487061
0.0489852