/*--------------------------------*- C++ -*----------------------------------*\
  =========                 |
  \\      /  F ield         | OpenFOAM: The Open Source CFD Toolbox
   \\    /   O peration     | Website:  https://openfoam.org
    \\  /    A nd           | Version:  6.0
     \\/     M anipulation  |
\*---------------------------------------------------------------------------*/
FoamFile
{
    version     2.0;
    format      ascii;
    class       volScalarField;
    location    "400";
    object      nuTilda;
}
// * * * * * * * * * * * * * * * * * * * * * * * * * * * * * * * * * * * * * //

dimensions      [0 2 -1 0 0 0 0];

internalField   nonuniform List<scalar> 
9800
(
0.140001
0.139979
0.139968
0.139967
0.139979
0.139994
0.139999
0.140003
0.140007
0.14001
0.140013
0.140015
0.140017
0.14002
0.140023
0.140027
0.140031
0.140034
0.140033
0.140032
0.140032
0.140028
0.140014
0.140013
0.140028
0.140032
0.140032
0.140033
0.140034
0.140032
0.140028
0.140024
0.140021
0.140018
0.140016
0.140013
0.140011
0.140008
0.140004
0.14
0.139995
0.139979
0.139967
0.139974
0.139984
0.139992
0.139999
0.140006
0.140012
0.140019
0.140027
0.140037
0.140048
0.140061
0.140077
0.140097
0.140121
0.140151
0.140188
0.140236
0.140298
0.140379
0.14049
0.140646
0.140879
0.141203
0.142056
0.143032
0.14383
0.144851
0.14511
0.145355
0.145584
0.145985
0.146544
0.147189
0.147817
0.148355
0.148761
0.149021
0.149141
0.149139
0.149038
0.148861
0.14863
0.148366
0.148083
0.147792
0.1475
0.147206
0.146953
0.146782
0.146687
0.146659
0.146688
0.14677
0.146902
0.14703
0.151295
0.217042
0.140115
0.140088
0.140068
0.140065
0.140067
0.140069
0.140066
0.140063
0.140061
0.140059
0.140059
0.140059
0.14006
0.14006
0.140056
0.140048
0.140032
0.140016
0.140042
0.140056
0.140064
0.140061
0.140035
0.140033
0.140061
0.140065
0.140058
0.140045
0.140017
0.140031
0.140047
0.140056
0.140059
0.140059
0.140058
0.140059
0.140059
0.140061
0.140062
0.140064
0.140065
0.14006
0.140053
0.140055
0.140066
0.140082
0.140102
0.140123
0.140146
0.140169
0.140195
0.140224
0.140255
0.140291
0.140332
0.140379
0.140433
0.140496
0.14057
0.140656
0.140759
0.140881
0.14103
0.141212
0.141439
0.141706
0.142126
0.142576
0.142881
0.143073
0.143114
0.143145
0.143207
0.143322
0.14348
0.143659
0.143835
0.143995
0.144132
0.144245
0.144333
0.144397
0.144439
0.144446
0.144496
0.144574
0.144677
0.1448
0.14494
0.145089
0.145241
0.145392
0.145538
0.145673
0.145798
0.145911
0.146011
0.146102
0.146156
0.147642
0.140164
0.140142
0.140126
0.14012
0.140114
0.140108
0.140102
0.140094
0.140087
0.14008
0.140073
0.14006
0.140039
0.140015
0.140008
0.140007
0.140017
0.140025
0.140058
0.140082
0.140096
0.140091
0.140057
0.140053
0.140089
0.140096
0.140083
0.14006
0.140025
0.140005
0.14
0.140008
0.140025
0.140048
0.140065
0.140075
0.140082
0.140088
0.140093
0.140096
0.140099
0.1401
0.1401
0.1401
0.140103
0.140113
0.140127
0.140146
0.140167
0.140191
0.140216
0.140244
0.140273
0.140305
0.140339
0.140376
0.140416
0.14046
0.140509
0.140561
0.140619
0.140682
0.140734
0.140815
0.140916
0.141035
0.141179
0.141343
0.141511
0.141682
0.141861
0.142052
0.142258
0.142477
0.142709
0.14295
0.143199
0.143453
0.143703
0.143947
0.144181
0.144401
0.144603
0.144783
0.144942
0.145078
0.145191
0.145282
0.145352
0.145401
0.145432
0.145448
0.145451
0.145444
0.14543
0.145413
0.145396
0.145383
0.145364
0.145391
0.140181
0.140161
0.14014
0.140123
0.140103
0.14008
0.140054
0.140036
0.14003
0.140025
0.140018
0.14001
0.140006
0.140003
0.140003
0.140011
0.140031
0.140056
0.140091
0.140118
0.140131
0.140119
0.140079
0.140071
0.140113
0.140127
0.140115
0.140089
0.140053
0.14002
0.139998
0.13999
0.13998
0.139988
0.140003
0.140015
0.140023
0.14003
0.140043
0.140062
0.140079
0.140092
0.140101
0.140107
0.140112
0.140119
0.140128
0.140141
0.140157
0.140177
0.140199
0.140223
0.140249
0.140277
0.140307
0.140339
0.140373
0.140408
0.140446
0.140485
0.140527
0.140571
0.140613
0.140656
0.140703
0.140753
0.140803
0.140855
0.140918
0.140991
0.141072
0.141154
0.141232
0.141305
0.141375
0.141442
0.141508
0.141575
0.14164
0.141702
0.141758
0.14181
0.141858
0.141904
0.141945
0.141983
0.14202
0.142054
0.142088
0.142121
0.142153
0.142186
0.142219
0.142254
0.14229
0.142328
0.142368
0.14241
0.14246
0.142528
0.140189
0.140165
0.140138
0.140111
0.140083
0.140055
0.140029
0.140009
0.13999
0.139965
0.139945
0.139941
0.139946
0.139962
0.139992
0.140021
0.140052
0.140088
0.140124
0.140152
0.140162
0.140142
0.140097
0.140084
0.14013
0.140152
0.140145
0.140117
0.140079
0.140037
0.139995
0.139952
0.139925
0.139919
0.139926
0.13995
0.139979
0.14
0.140018
0.140038
0.14006
0.140081
0.140098
0.140113
0.140125
0.140135
0.140145
0.140157
0.14017
0.140185
0.140204
0.140224
0.140247
0.140272
0.140299
0.140328
0.140358
0.140389
0.140422
0.140456
0.140491
0.140527
0.140564
0.1406
0.140636
0.140671
0.140704
0.140735
0.140766
0.1408
0.140836
0.140873
0.14091
0.140945
0.140981
0.141016
0.141052
0.141089
0.141127
0.141167
0.141206
0.141246
0.141285
0.141325
0.141366
0.141406
0.141446
0.141485
0.141525
0.141564
0.141605
0.141648
0.141692
0.141738
0.141786
0.141835
0.141887
0.141938
0.141994
0.142083
0.14017
0.140144
0.140113
0.14008
0.140045
0.140007
0.139967
0.139925
0.139892
0.139868
0.139854
0.139858
0.139879
0.139923
0.139987
0.140034
0.140077
0.140119
0.140157
0.140183
0.140186
0.140159
0.140109
0.140091
0.140142
0.140172
0.14017
0.140145
0.140106
0.140057
0.14
0.139919
0.139865
0.13984
0.139837
0.139853
0.139881
0.139923
0.139965
0.140002
0.140034
0.140061
0.140084
0.140104
0.14012
0.140135
0.140149
0.140161
0.140174
0.140188
0.140203
0.140219
0.140237
0.140257
0.140279
0.140303
0.140328
0.140354
0.140381
0.14041
0.14044
0.14047
0.140501
0.140532
0.140564
0.140595
0.140626
0.140657
0.140686
0.140716
0.140745
0.140775
0.140805
0.140835
0.140864
0.140894
0.140925
0.140955
0.140987
0.141019
0.141052
0.141086
0.141121
0.141156
0.141193
0.14123
0.141268
0.141307
0.141348
0.14139
0.141434
0.141478
0.141524
0.141572
0.141621
0.141671
0.141723
0.141774
0.141828
0.141914
0.140064
0.140041
0.139987
0.139945
0.139909
0.139871
0.139832
0.139797
0.139773
0.139766
0.139781
0.139826
0.139879
0.139941
0.140008
0.140064
0.140114
0.140158
0.140194
0.140212
0.140206
0.140169
0.14011
0.140077
0.140145
0.140186
0.140194
0.140175
0.140138
0.140088
0.140025
0.139944
0.139867
0.139795
0.139757
0.139749
0.139763
0.139794
0.139835
0.139875
0.139911
0.139944
0.139985
0.140029
0.140066
0.140095
0.140119
0.140138
0.140155
0.14017
0.140185
0.140201
0.140217
0.140234
0.140252
0.140271
0.140291
0.140313
0.140336
0.14036
0.140385
0.140411
0.140437
0.140464
0.140492
0.140519
0.140548
0.140576
0.140604
0.140632
0.14066
0.140688
0.140716
0.140743
0.140771
0.140798
0.140825
0.140851
0.140878
0.140906
0.140933
0.140961
0.14099
0.14102
0.14105
0.141081
0.141113
0.141146
0.141181
0.141217
0.141254
0.141292
0.141332
0.141373
0.141415
0.141458
0.141501
0.141545
0.141589
0.141665
0.139874
0.13984
0.139798
0.139763
0.139732
0.139703
0.139679
0.139666
0.139674
0.139712
0.139778
0.139843
0.139912
0.139982
0.140048
0.140107
0.140158
0.1402
0.140228
0.140237
0.140218
0.140167
0.140092
0.14004
0.14013
0.140189
0.140211
0.140202
0.140171
0.140123
0.140061
0.139985
0.1399
0.139812
0.139731
0.139673
0.139652
0.139658
0.139681
0.139711
0.139745
0.13978
0.13982
0.139862
0.139906
0.139957
0.14001
0.140055
0.140092
0.140122
0.140147
0.140168
0.140187
0.140204
0.140222
0.140239
0.140256
0.140274
0.140292
0.140311
0.140331
0.140351
0.140372
0.140394
0.140415
0.140438
0.14046
0.140483
0.140506
0.14053
0.140553
0.140577
0.140601
0.140624
0.140648
0.140672
0.140695
0.140719
0.140743
0.140767
0.140791
0.140815
0.14084
0.140866
0.140892
0.140919
0.140947
0.140975
0.141005
0.141036
0.141068
0.1411
0.141134
0.141169
0.141204
0.141239
0.141276
0.141311
0.141347
0.141408
0.139637
0.139606
0.13958
0.139558
0.139541
0.139534
0.139543
0.139578
0.139645
0.139725
0.139811
0.139887
0.139962
0.140033
0.140097
0.140154
0.140201
0.140236
0.140254
0.140249
0.140214
0.140146
0.140045
0.139995
0.140098
0.140173
0.140212
0.140217
0.140197
0.140156
0.140099
0.140027
0.139942
0.139848
0.139747
0.139647
0.13957
0.139534
0.139526
0.139535
0.139554
0.13958
0.139611
0.139646
0.139686
0.139731
0.139779
0.139826
0.139873
0.139925
0.139978
0.140026
0.140068
0.140104
0.140135
0.140161
0.140185
0.140206
0.140226
0.140245
0.140263
0.140281
0.140298
0.140316
0.140333
0.14035
0.140367
0.140384
0.140401
0.140418
0.140436
0.140453
0.140471
0.140489
0.140507
0.140526
0.140545
0.140564
0.140584
0.140604
0.140625
0.140646
0.140668
0.140691
0.140714
0.140738
0.140763
0.140789
0.140815
0.140842
0.14087
0.140898
0.140927
0.140956
0.140985
0.141014
0.141044
0.141072
0.1411
0.141147
0.139418
0.139377
0.139373
0.139381
0.139406
0.139455
0.139524
0.139604
0.139695
0.139787
0.139876
0.139954
0.140027
0.140094
0.140153
0.140203
0.140241
0.140263
0.140266
0.140242
0.140186
0.140093
0.139963
0.13993
0.140042
0.140135
0.140191
0.140214
0.140207
0.140178
0.14013
0.140065
0.139986
0.139893
0.139787
0.139671
0.139555
0.139458
0.139396
0.139366
0.139357
0.139361
0.139375
0.139394
0.139419
0.13945
0.139484
0.139521
0.13956
0.139603
0.139647
0.13969
0.139732
0.139772
0.139816
0.139862
0.139907
0.139949
0.139987
0.140021
0.140051
0.140078
0.140103
0.140126
0.140147
0.140167
0.140187
0.140206
0.140224
0.140242
0.140259
0.140277
0.140294
0.140311
0.140328
0.140345
0.140363
0.14038
0.140398
0.140417
0.140436
0.140455
0.140475
0.140496
0.140517
0.140538
0.14056
0.140583
0.140606
0.140629
0.140652
0.140675
0.140698
0.140721
0.140743
0.140765
0.140786
0.140805
0.140825
0.140855
0.139201
0.139179
0.13922
0.139286
0.139376
0.139478
0.13958
0.139681
0.139777
0.139868
0.139952
0.140026
0.140092
0.14015
0.140199
0.140237
0.14026
0.140265
0.140247
0.1402
0.140119
0.14
0.139855
0.139835
0.139953
0.140068
0.140145
0.140187
0.140198
0.140184
0.14015
0.140096
0.140027
0.139942
0.139842
0.139727
0.139601
0.139472
0.139352
0.139257
0.139196
0.139159
0.139141
0.139135
0.139137
0.139146
0.139159
0.139177
0.139198
0.139221
0.139247
0.139274
0.139302
0.13933
0.139359
0.139389
0.139419
0.139448
0.139476
0.139503
0.139528
0.139554
0.13958
0.139608
0.139638
0.139669
0.139699
0.139729
0.139759
0.139788
0.139817
0.139846
0.139875
0.139904
0.139934
0.139963
0.139993
0.140023
0.140053
0.140082
0.140111
0.140139
0.140167
0.140193
0.140219
0.140245
0.140269
0.140292
0.140315
0.140337
0.140357
0.140376
0.140395
0.140412
0.140427
0.140442
0.140455
0.140466
0.140477
0.140493
0.139211
0.139243
0.139319
0.139413
0.139515
0.139618
0.139717
0.13981
0.139896
0.139975
0.140047
0.140109
0.140162
0.140206
0.14024
0.140259
0.140262
0.140245
0.140202
0.140129
0.140023
0.13988
0.139719
0.139683
0.139762
0.139916
0.140029
0.1401
0.140136
0.140144
0.140129
0.140093
0.140039
0.139968
0.13988
0.139775
0.139653
0.139513
0.139361
0.139215
0.139095
0.139005
0.13894
0.138894
0.138862
0.138841
0.138828
0.138821
0.138818
0.13882
0.138825
0.138832
0.13884
0.138851
0.138863
0.138875
0.138888
0.138901
0.138914
0.138927
0.138939
0.138951
0.138963
0.138975
0.138988
0.139001
0.139015
0.139029
0.139045
0.139061
0.13908
0.139104
0.139133
0.139167
0.139204
0.139243
0.139284
0.139327
0.139371
0.139416
0.13946
0.139503
0.139545
0.139585
0.139623
0.139658
0.13969
0.139719
0.139745
0.139768
0.139787
0.139804
0.139818
0.139828
0.139836
0.139842
0.139845
0.139845
0.139844
0.139841
0.139188
0.139217
0.139317
0.139438
0.13956
0.139671
0.13977
0.139857
0.139934
0.140003
0.140066
0.140115
0.140153
0.14018
0.140193
0.14019
0.140167
0.140121
0.140047
0.13994
0.1398
0.139632
0.139498
0.139468
0.139544
0.13972
0.139874
0.139983
0.140051
0.140087
0.140097
0.140082
0.140048
0.139998
0.139931
0.139848
0.139749
0.139633
0.1395
0.139357
0.139211
0.139069
0.138943
0.138838
0.138752
0.138683
0.138626
0.138581
0.138543
0.138513
0.138487
0.138466
0.138449
0.138434
0.138422
0.138412
0.138405
0.138398
0.138392
0.138386
0.138381
0.138376
0.138371
0.138368
0.138365
0.138362
0.13836
0.138358
0.138357
0.138356
0.138355
0.138356
0.138358
0.138361
0.138365
0.13837
0.138377
0.138386
0.138399
0.13842
0.138449
0.138483
0.13852
0.138558
0.138596
0.138632
0.138666
0.138698
0.138726
0.138752
0.138774
0.138793
0.138808
0.13882
0.138829
0.138835
0.138838
0.138839
0.138838
0.138829
0.139529
0.139585
0.139667
0.139756
0.139842
0.139921
0.13999
0.140051
0.140104
0.140148
0.140184
0.140206
0.140216
0.14021
0.140188
0.140148
0.140086
0.139999
0.139887
0.139747
0.139581
0.139398
0.139223
0.139152
0.139168
0.139255
0.139372
0.139508
0.139633
0.13973
0.139796
0.139826
0.139826
0.1398
0.139751
0.139679
0.139587
0.139478
0.139359
0.139237
0.139112
0.138987
0.138866
0.138751
0.138643
0.138544
0.138453
0.138369
0.138293
0.138224
0.138162
0.138105
0.138055
0.138009
0.137968
0.137932
0.137899
0.137869
0.137842
0.137816
0.137791
0.137767
0.137745
0.137724
0.137705
0.137687
0.137669
0.137651
0.137634
0.137617
0.137601
0.137584
0.137568
0.137552
0.137536
0.13752
0.137503
0.137485
0.137468
0.137451
0.137435
0.137419
0.137405
0.137394
0.137387
0.137384
0.137384
0.137386
0.137388
0.13739
0.137391
0.137392
0.13739
0.137386
0.137381
0.137374
0.137365
0.137353
0.13734
0.137296
0.139284
0.13927
0.13931
0.139362
0.139413
0.139457
0.139494
0.139523
0.139544
0.139555
0.139557
0.139546
0.139521
0.139481
0.139427
0.139356
0.13927
0.13917
0.139059
0.138941
0.138825
0.138725
0.138661
0.138661
0.138731
0.138878
0.139061
0.139235
0.139392
0.139525
0.139634
0.139711
0.139761
0.139784
0.139784
0.139762
0.139721
0.139664
0.139593
0.139512
0.139422
0.139324
0.139219
0.139108
0.138992
0.138873
0.138751
0.138627
0.1385
0.138373
0.138247
0.138122
0.138001
0.137886
0.137778
0.137679
0.137587
0.137504
0.137428
0.137358
0.137294
0.137235
0.13718
0.137128
0.13708
0.137035
0.136991
0.136949
0.136908
0.136869
0.13683
0.136791
0.136752
0.136714
0.136675
0.136636
0.136598
0.13656
0.136521
0.136482
0.136443
0.136403
0.136362
0.13632
0.136277
0.136234
0.136191
0.136147
0.136102
0.136058
0.136015
0.135978
0.135946
0.135921
0.135902
0.135887
0.135875
0.135865
0.135855
0.135803
0.139444
0.139444
0.139457
0.139475
0.139492
0.139504
0.139509
0.139507
0.139496
0.139476
0.139446
0.139403
0.139346
0.139274
0.13919
0.139094
0.138988
0.138874
0.138755
0.138634
0.138514
0.138399
0.138287
0.13818
0.138091
0.138085
0.138135
0.138213
0.138302
0.138393
0.13848
0.138557
0.138618
0.138663
0.138691
0.138704
0.138701
0.138683
0.138651
0.138606
0.13855
0.138483
0.138406
0.13832
0.138225
0.138124
0.138016
0.137904
0.137787
0.137667
0.137545
0.137421
0.137298
0.137175
0.137054
0.136937
0.136824
0.136716
0.136615
0.13652
0.136431
0.136347
0.136269
0.136196
0.136127
0.136061
0.135999
0.135939
0.135881
0.135825
0.135771
0.135718
0.135665
0.135613
0.135561
0.135509
0.135458
0.135405
0.135353
0.135299
0.135246
0.135192
0.135136
0.13508
0.135022
0.134963
0.134903
0.134842
0.13478
0.134716
0.134651
0.134584
0.134517
0.134447
0.134375
0.134301
0.134225
0.134147
0.134068
0.133993
0.138488
0.138585
0.138662
0.138678
0.138663
0.138637
0.138608
0.138579
0.138546
0.138497
0.138427
0.138364
0.138301
0.138236
0.138172
0.138109
0.13805
0.137997
0.13795
0.13791
0.137878
0.137853
0.137837
0.137832
0.137839
0.137864
0.137907
0.137961
0.138022
0.138087
0.138152
0.138212
0.138266
0.138312
0.138349
0.138377
0.138394
0.1384
0.138396
0.138381
0.138357
0.138323
0.13828
0.138229
0.13817
0.138104
0.138032
0.137955
0.137872
0.137784
0.137693
0.137597
0.137499
0.137397
0.137293
0.137187
0.137079
0.136969
0.136859
0.136749
0.13664
0.136533
0.136425
0.136314
0.136199
0.136077
0.135949
0.135816
0.135678
0.135539
0.135401
0.135266
0.135134
0.135006
0.134881
0.134759
0.13464
0.134524
0.13441
0.134297
0.134188
0.13408
0.133973
0.133867
0.133761
0.133656
0.133552
0.133447
0.133342
0.133237
0.133133
0.133029
0.132926
0.132823
0.132717
0.13261
0.132502
0.132392
0.132283
0.132179
0.138592
0.138579
0.13855
0.138509
0.138463
0.138413
0.138364
0.138314
0.138266
0.138217
0.138168
0.138122
0.138076
0.138031
0.137986
0.137942
0.1379
0.137861
0.137824
0.13779
0.137758
0.137728
0.137699
0.137672
0.137646
0.13762
0.137593
0.137566
0.137539
0.137509
0.137479
0.137454
0.137436
0.137422
0.137411
0.137399
0.137385
0.137367
0.137346
0.137322
0.137295
0.137263
0.137226
0.137185
0.137139
0.137089
0.137035
0.136979
0.136919
0.136854
0.136785
0.136713
0.136638
0.136559
0.136477
0.136393
0.136306
0.136217
0.136126
0.136032
0.135935
0.135837
0.135739
0.135643
0.135548
0.13545
0.135351
0.135251
0.135152
0.135053
0.134952
0.134852
0.134755
0.134657
0.134559
0.134462
0.134366
0.134273
0.134181
0.13409
0.134001
0.133912
0.133822
0.133733
0.133642
0.13355
0.133458
0.133364
0.133269
0.133172
0.133074
0.132974
0.132872
0.132767
0.132659
0.132544
0.132414
0.132266
0.132094
0.13192
0.140383
0.140643
0.140842
0.140982
0.141075
0.141133
0.141162
0.141168
0.141151
0.141112
0.141078
0.141039
0.140998
0.140956
0.140914
0.140873
0.140834
0.140796
0.140761
0.140728
0.140696
0.140665
0.140635
0.140606
0.140576
0.140545
0.140513
0.140479
0.140441
0.140398
0.140351
0.140327
0.140295
0.140262
0.140229
0.140197
0.140164
0.140129
0.140094
0.140057
0.140017
0.139975
0.139932
0.139887
0.13984
0.139789
0.139735
0.139679
0.13962
0.139558
0.139491
0.139421
0.139347
0.139269
0.139188
0.139104
0.139017
0.138927
0.138837
0.138745
0.138649
0.138554
0.13847
0.138372
0.138272
0.138166
0.138056
0.137943
0.137824
0.1377
0.13757
0.137432
0.137284
0.137125
0.136957
0.136774
0.136579
0.136364
0.136128
0.135873
0.135603
0.135322
0.135031
0.134736
0.13444
0.134145
0.133852
0.13356
0.133269
0.132978
0.132687
0.132396
0.132102
0.131806
0.131508
0.131208
0.130909
0.130617
0.130349
0.13015
0.129682
0.128571
0.128113
0.127984
0.128009
0.128062
0.127984
0.127747
0.127369
0.126927
0.127073
0.126402
0.125702
0.125075
0.124497
0.123952
0.12343
0.12292
0.122419
0.121924
0.121433
0.120947
0.120469
0.120002
0.11955
0.119116
0.118704
0.118317
0.117954
0.117624
0.117439
0.117866
0.117556
0.117238
0.116906
0.116557
0.116195
0.11582
0.115437
0.115048
0.114655
0.11426
0.113865
0.11347
0.113075
0.112682
0.11229
0.111898
0.111508
0.111118
0.110729
0.11034
0.109952
0.109563
0.109175
0.108789
0.108406
0.108026
0.107649
0.107275
0.106902
0.106718
0.106905
0.10665
0.106374
0.106086
0.105788
0.10548
0.105163
0.104838
0.104505
0.104164
0.103817
0.103462
0.1031
0.102732
0.102358
0.101977
0.10159
0.101198
0.1008
0.100397
0.0999887
0.0995766
0.0991607
0.0987411
0.098318
0.0978917
0.0974628
0.0970325
0.0966023
0.0961746
0.0957529
0.0953429
0.0949534
0.0945985
0.094301
0.0940972
0.0940462
0.0942484
0.335463
0.352473
0.36844
0.383403
0.397486
0.410791
0.423401
0.435385
0.446803
0.457704
0.468133
0.478127
0.487719
0.496937
0.505808
0.514353
0.522611
0.53056
0.538236
0.545663
0.552856
0.559827
0.566588
0.57315
0.579523
0.585717
0.591741
0.597603
0.603312
0.608875
0.6143
0.619594
0.624687
0.629569
0.634505
0.639341
0.64408
0.648728
0.653291
0.657777
0.66219
0.666537
0.670825
0.67506
0.679249
0.683398
0.687516
0.691406
0.69519
0.699283
0.703377
0.707476
0.711588
0.71572
0.71988
0.724076
0.728315
0.732604
0.736953
0.740935
0.74503
0.749728
0.754513
0.759383
0.764342
0.769396
0.774547
0.778608
0.784707
0.790114
0.149505
0.149989
0.150536
0.15113
0.151771
0.152461
0.153199
0.153987
0.154823
0.155708
0.156638
0.157613
0.15863
0.159688
0.160786
0.161925
0.163109
0.164325
0.165579
0.166872
0.168206
0.169578
0.170989
0.17244
0.173929
0.175456
0.17702
0.17862
0.180255
0.181924
0.183627
0.185361
0.187098
0.18883
0.190664
0.192533
0.194433
0.196361
0.198318
0.200302
0.202314
0.204353
0.206418
0.20851
0.21063
0.212777
0.214953
0.217063
0.219173
0.221489
0.223846
0.226239
0.22867
0.231143
0.233664
0.236238
0.238876
0.241586
0.244384
0.247044
0.249887
0.253208
0.256697
0.260371
0.264262
0.268409
0.272854
0.276941
0.28278
0.288489
0.145425
0.145433
0.145435
0.14543
0.145418
0.145404
0.145387
0.145371
0.145356
0.145343
0.145331
0.145321
0.145312
0.145304
0.145296
0.145289
0.145283
0.145276
0.145269
0.145263
0.145257
0.14525
0.145243
0.145234
0.145223
0.14521
0.145195
0.145177
0.145158
0.145138
0.145117
0.145094
0.145067
0.145035
0.145009
0.144984
0.144959
0.144935
0.144912
0.14489
0.144869
0.144849
0.144831
0.144814
0.144799
0.144786
0.144774
0.14475
0.14472
0.144717
0.144719
0.144726
0.144738
0.144754
0.144777
0.144805
0.14484
0.144883
0.144934
0.144948
0.144979
0.145085
0.145216
0.145373
0.145562
0.145793
0.146078
0.146268
0.146849
0.147448
0.142439
0.142415
0.142395
0.142377
0.142359
0.14234
0.142319
0.142298
0.142276
0.142254
0.142232
0.14221
0.14219
0.142169
0.142149
0.142129
0.142109
0.142088
0.142068
0.142047
0.142026
0.142005
0.141984
0.141963
0.141941
0.14192
0.141899
0.141878
0.141857
0.141836
0.141814
0.141793
0.14177
0.141748
0.141726
0.141704
0.141682
0.14166
0.141638
0.141616
0.141593
0.14157
0.141547
0.141524
0.1415
0.141475
0.14145
0.141424
0.141395
0.141367
0.141338
0.141308
0.141277
0.141244
0.14121
0.141175
0.141138
0.1411
0.141059
0.141014
0.140966
0.140919
0.140872
0.140825
0.140779
0.140733
0.140689
0.140638
0.140606
0.140581
0.142019
0.141992
0.141964
0.141936
0.141911
0.141886
0.141861
0.141836
0.141811
0.141786
0.141763
0.141739
0.141715
0.141691
0.141667
0.141643
0.141619
0.141596
0.141574
0.141552
0.141532
0.141512
0.141494
0.141476
0.141458
0.141441
0.141424
0.141407
0.14139
0.141373
0.141356
0.141339
0.141322
0.141305
0.141288
0.141271
0.141253
0.141235
0.141218
0.1412
0.141182
0.141164
0.141145
0.141127
0.141109
0.141091
0.141074
0.141056
0.141039
0.141021
0.141003
0.140985
0.140968
0.14095
0.140933
0.140916
0.140899
0.140882
0.140866
0.14085
0.140834
0.140818
0.140802
0.140787
0.140773
0.14076
0.140749
0.140741
0.140736
0.140735
0.141864
0.141839
0.141811
0.141784
0.141757
0.141733
0.141708
0.141684
0.14166
0.141636
0.141612
0.141589
0.141567
0.141544
0.14152
0.141496
0.141472
0.141448
0.141424
0.141402
0.141379
0.141358
0.141338
0.141318
0.141299
0.141282
0.141265
0.141248
0.141231
0.141214
0.141197
0.14118
0.141164
0.141147
0.14113
0.141113
0.141095
0.141078
0.14106
0.141042
0.141024
0.141006
0.140988
0.14097
0.140952
0.140934
0.140916
0.140899
0.140882
0.140864
0.140847
0.14083
0.140812
0.140795
0.140778
0.140762
0.140745
0.14073
0.140715
0.140701
0.140687
0.140672
0.140658
0.140645
0.140633
0.140622
0.140614
0.140608
0.140605
0.140607
0.141622
0.1416
0.141574
0.141549
0.141524
0.141502
0.14148
0.141458
0.141436
0.141414
0.141392
0.14137
0.141349
0.141328
0.141307
0.141285
0.141264
0.141242
0.141222
0.141201
0.14118
0.14116
0.141139
0.141119
0.141099
0.141079
0.14106
0.141042
0.141025
0.141009
0.140994
0.140979
0.140964
0.140949
0.140934
0.140918
0.140902
0.140886
0.140869
0.140852
0.140835
0.140817
0.140799
0.140781
0.140762
0.140744
0.140726
0.140709
0.140691
0.140672
0.140653
0.140635
0.140616
0.140597
0.140578
0.14056
0.140542
0.140525
0.140508
0.140492
0.140476
0.14046
0.140445
0.14043
0.140417
0.140405
0.140395
0.140388
0.140384
0.140385
0.141367
0.141346
0.141323
0.1413
0.141278
0.141258
0.141239
0.141221
0.141201
0.141182
0.141162
0.141143
0.141123
0.141104
0.141086
0.141069
0.141052
0.141035
0.141018
0.141001
0.140983
0.140964
0.140945
0.140925
0.140904
0.140884
0.140862
0.140841
0.140819
0.140798
0.140776
0.140754
0.140733
0.140712
0.140692
0.140673
0.140654
0.140636
0.140618
0.1406
0.140583
0.140566
0.140549
0.140532
0.140516
0.1405
0.140484
0.140468
0.140452
0.140436
0.14042
0.140403
0.140386
0.14037
0.140353
0.140336
0.140319
0.140302
0.140286
0.14027
0.140252
0.140235
0.140217
0.1402
0.140184
0.14017
0.140159
0.14015
0.140144
0.140144
0.141107
0.141087
0.141065
0.141044
0.141025
0.141008
0.140991
0.140975
0.140959
0.140942
0.140925
0.140909
0.140893
0.140877
0.140862
0.140848
0.140833
0.140819
0.140805
0.14079
0.140775
0.14076
0.140743
0.140727
0.14071
0.140693
0.140675
0.140657
0.140639
0.14062
0.140602
0.140583
0.140565
0.140546
0.140527
0.140507
0.140488
0.140469
0.140451
0.140432
0.140415
0.140398
0.140381
0.140365
0.14035
0.140335
0.14032
0.140306
0.140292
0.140278
0.140264
0.14025
0.140236
0.140223
0.14021
0.140196
0.140182
0.140167
0.140151
0.140134
0.140116
0.140098
0.140079
0.14006
0.140041
0.140023
0.140006
0.139991
0.139981
0.139978
0.140808
0.140787
0.140765
0.140745
0.140727
0.140713
0.140699
0.140685
0.14067
0.140655
0.14064
0.140626
0.140611
0.140597
0.140584
0.14057
0.140557
0.140544
0.140531
0.140517
0.140503
0.140489
0.140475
0.140459
0.140444
0.140428
0.140412
0.140396
0.14038
0.140363
0.140347
0.140331
0.140314
0.140298
0.140281
0.140265
0.140249
0.140232
0.140216
0.140199
0.140183
0.140167
0.140151
0.140134
0.140118
0.140102
0.140087
0.140071
0.140055
0.140038
0.140022
0.140005
0.139988
0.13997
0.139953
0.139934
0.139916
0.139897
0.139879
0.139861
0.139841
0.13982
0.139799
0.139777
0.139755
0.139734
0.139715
0.139696
0.139682
0.139678
0.140431
0.140407
0.140383
0.140362
0.140343
0.140329
0.140314
0.1403
0.140285
0.140269
0.140254
0.140238
0.140222
0.140207
0.140192
0.140177
0.140162
0.140147
0.140133
0.140118
0.140102
0.140087
0.14007
0.140054
0.140037
0.14002
0.140002
0.139985
0.139967
0.139949
0.139931
0.139914
0.139896
0.139878
0.139861
0.139843
0.139825
0.139807
0.13979
0.139772
0.139754
0.139736
0.139719
0.139701
0.139683
0.139666
0.139649
0.139632
0.139615
0.139598
0.13958
0.139562
0.139544
0.139525
0.139507
0.139488
0.139468
0.139449
0.139431
0.139413
0.139393
0.139373
0.139351
0.13933
0.139308
0.139288
0.139269
0.13925
0.139235
0.139229
0.13976
0.139731
0.139704
0.13968
0.139662
0.139646
0.139631
0.139615
0.139599
0.139582
0.139565
0.139548
0.139531
0.139514
0.139498
0.139482
0.139466
0.13945
0.139434
0.139418
0.139402
0.139386
0.13937
0.139353
0.139336
0.139318
0.139301
0.139283
0.139266
0.139248
0.13923
0.139213
0.139196
0.139179
0.139162
0.139145
0.139128
0.139111
0.139095
0.139078
0.139062
0.139046
0.139029
0.139013
0.138997
0.138982
0.138967
0.138952
0.138937
0.138921
0.138906
0.138891
0.138875
0.13886
0.138844
0.138828
0.138812
0.138796
0.138781
0.138765
0.138749
0.138732
0.138715
0.138697
0.138678
0.13866
0.138644
0.138626
0.13861
0.1386
0.138745
0.138718
0.138693
0.138672
0.138656
0.138643
0.138629
0.138615
0.138601
0.138586
0.13857
0.138555
0.138541
0.138527
0.138513
0.1385
0.138488
0.138476
0.138463
0.138451
0.138439
0.138426
0.138414
0.138401
0.138388
0.138374
0.138361
0.138347
0.138334
0.13832
0.138307
0.138294
0.138281
0.138268
0.138255
0.138243
0.138231
0.138219
0.138207
0.138196
0.138185
0.138174
0.138163
0.138152
0.138142
0.138132
0.138122
0.138112
0.138102
0.138092
0.138082
0.138072
0.138062
0.138052
0.138041
0.138031
0.13802
0.138009
0.137998
0.137987
0.137975
0.137963
0.13795
0.137937
0.137923
0.137908
0.137895
0.137878
0.137863
0.137854
0.137234
0.137222
0.137212
0.137204
0.137198
0.137194
0.137189
0.137182
0.137174
0.137166
0.137157
0.13715
0.137143
0.137136
0.137131
0.137126
0.137121
0.137117
0.137113
0.137108
0.137103
0.137098
0.137092
0.137086
0.137079
0.137072
0.137065
0.137058
0.13705
0.137043
0.137035
0.137028
0.137021
0.137013
0.137006
0.136999
0.136993
0.136987
0.136981
0.136977
0.136973
0.136969
0.136966
0.136963
0.136959
0.136956
0.136953
0.136948
0.136944
0.13694
0.136937
0.136934
0.136931
0.136929
0.136926
0.136923
0.136918
0.136914
0.136908
0.136901
0.136894
0.136887
0.13688
0.136873
0.136864
0.136855
0.136845
0.136831
0.136818
0.136808
0.13575
0.135745
0.135743
0.135741
0.135738
0.135736
0.135732
0.135728
0.135721
0.135713
0.135703
0.135693
0.135683
0.135675
0.135667
0.13566
0.135654
0.135648
0.135642
0.135635
0.135629
0.135622
0.135615
0.135608
0.1356
0.135593
0.135586
0.135579
0.135573
0.135566
0.13556
0.135553
0.135547
0.13554
0.135534
0.135528
0.135523
0.135517
0.135513
0.135508
0.135504
0.135501
0.135497
0.135494
0.135492
0.135489
0.135486
0.135483
0.135478
0.135475
0.135473
0.135471
0.13547
0.135469
0.13547
0.135471
0.135471
0.135471
0.13547
0.135466
0.135462
0.13546
0.13546
0.135461
0.135461
0.13546
0.135457
0.135448
0.135444
0.135437
0.133927
0.133923
0.13392
0.133918
0.133916
0.133915
0.133912
0.13391
0.133908
0.133905
0.133902
0.133899
0.133896
0.133893
0.13389
0.133887
0.133884
0.133881
0.133878
0.133874
0.133871
0.133867
0.133864
0.13386
0.133857
0.133853
0.13385
0.133847
0.133844
0.133841
0.133838
0.133835
0.133831
0.133827
0.133823
0.133819
0.133815
0.133812
0.133809
0.133807
0.133805
0.133803
0.133802
0.133801
0.1338
0.133799
0.133798
0.133795
0.13379
0.133788
0.133786
0.133784
0.133784
0.133784
0.133785
0.133786
0.133788
0.133789
0.13379
0.133787
0.133783
0.133783
0.133784
0.133787
0.133791
0.133794
0.133795
0.133786
0.133785
0.133777
0.132106
0.13209
0.132076
0.132062
0.132048
0.132034
0.132021
0.132007
0.131993
0.131978
0.131964
0.13195
0.131936
0.131923
0.131909
0.131896
0.131883
0.13187
0.131856
0.131843
0.13183
0.131817
0.131804
0.131791
0.131779
0.131767
0.131755
0.131744
0.131733
0.131722
0.131712
0.131701
0.13169
0.131677
0.131665
0.131652
0.131641
0.131629
0.131619
0.131609
0.131599
0.13159
0.131582
0.131574
0.131567
0.131559
0.131552
0.131541
0.131529
0.131518
0.131509
0.131501
0.131494
0.131488
0.131483
0.131479
0.131476
0.131473
0.131469
0.13146
0.13145
0.131443
0.13144
0.131438
0.131438
0.131438
0.131436
0.131419
0.131411
0.131395
0.13176
0.13169
0.131622
0.131555
0.131488
0.131422
0.131355
0.13129
0.131224
0.131158
0.131092
0.131027
0.130961
0.130895
0.130829
0.130763
0.130696
0.130629
0.130562
0.130495
0.130428
0.13036
0.130293
0.130226
0.130159
0.130093
0.130027
0.129961
0.129896
0.129832
0.129769
0.129706
0.129643
0.129576
0.12951
0.129444
0.12938
0.129316
0.129253
0.129191
0.129131
0.129071
0.129013
0.128957
0.128902
0.128848
0.128796
0.128741
0.12868
0.12862
0.128562
0.128507
0.128454
0.128403
0.128355
0.128309
0.128266
0.128225
0.128186
0.128137
0.128082
0.128032
0.127988
0.127949
0.127915
0.127885
0.127858
0.127803
0.12777
0.127737
0.129089
0.128894
0.128754
0.128619
0.128481
0.128342
0.128201
0.128057
0.127913
0.127766
0.127618
0.127469
0.127319
0.127167
0.127015
0.126862
0.12671
0.126556
0.126401
0.126246
0.126089
0.125933
0.125777
0.125621
0.125465
0.125308
0.125151
0.124994
0.124839
0.124686
0.124534
0.124384
0.124229
0.124063
0.123902
0.123743
0.123584
0.123427