/*--------------------------------*- C++ -*----------------------------------*\
  =========                 |
  \\      /  F ield         | OpenFOAM: The Open Source CFD Toolbox
   \\    /   O peration     | Website:  https://openfoam.org
    \\  /    A nd           | Version:  6.0
     \\/     M anipulation  |
\*---------------------------------------------------------------------------*/
FoamFile
{
    version     2.0;
    format      ascii;
    class       volScalarField;
    location    "5";
    object      p;
}
// * * * * * * * * * * * * * * * * * * * * * * * * * * * * * * * * * * * * * //

dimensions      [0 2 -2 0 0 0 0];

internalField   nonuniform List<scalar> 
62000
(
0.0246539
0.0246422
0.0246289
0.0246135
0.0245961
0.0245763
0.0245539
0.0245286
0.0245003
0.0244686
0.0244332
0.024394
0.0243506
0.0243028
0.0242503
0.024193
0.0241307
0.0240635
0.023991
0.0239139
0.0238321
0.0237465
0.0236574
0.0235666
0.0234752
0.0233859
0.0233011
0.0232251
0.0231623
0.0231192
0.0231031
0.0231234
0.023191
0.0233177
0.0235164
0.0238002
0.0241829
0.0246767
0.0252892
0.0260187
0.0268501
0.0277492
0.0286586
0.0294947
0.0301489
0.0304953
0.0304056
0.0297695
0.0285214
0.0266559
0.0242472
0.021427
0.018378
0.0152835
0.0123104
0.00958054
0.00716815
0.00509214
0.0033177
0.00234526
0.0247132
0.0247005
0.024685
0.0246669
0.0246462
0.0246227
0.0245963
0.0245668
0.0245341
0.0244981
0.0244584
0.0244151
0.0243677
0.0243162
0.0242602
0.0241998
0.0241345
0.0240646
0.0239897
0.0239102
0.0238262
0.0237385
0.0236476
0.0235549
0.0234618
0.0233707
0.0232842
0.0232064
0.023142
0.0230974
0.0230807
0.0231019
0.0231725
0.0233049
0.0235116
0.0238078
0.0242105
0.0247358
0.025396
0.026195
0.0271245
0.0281582
0.0292466
0.0303126
0.0312509
0.0319331
0.0322202
0.0319818
0.0311225
0.0295997
0.0274502
0.0247715
0.0217258
0.0184846
0.01522
0.0120671
0.00912229
0.00642529
0.00404978
0.00217077
0.0247476
0.0247339
0.024717
0.024697
0.0246739
0.0246475
0.0246178
0.0245845
0.0245475
0.0245067
0.0244618
0.0244127
0.0243591
0.0243008
0.0242375
0.024169
0.0240949
0.0240153
0.0239296
0.0238381
0.0237405
0.0236374
0.0235289
0.023416
0.0232996
0.0231814
0.0230635
0.0229491
0.0228421
0.022748
0.0226741
0.0226297
0.0226256
0.0226719
0.0227801
0.0229642
0.0232421
0.0236314
0.0241467
0.0247958
0.0255762
0.0264698
0.0274373
0.0284134
0.0293048
0.0299935
0.0303462
0.0302316
0.0295445
0.0282243
0.0262838
0.0237933
0.0208946
0.0177381
0.0144893
0.0112823
0.00822994
0.00540277
0.00294641
0.000861173
0.0247442
0.0247299
0.0247119
0.0246907
0.0246661
0.0246379
0.0246059
0.0245699
0.0245297
0.0244852
0.024436
0.0243819
0.0243226
0.0242578
0.0241871
0.0241102
0.0240266
0.023936
0.0238379
0.0237322
0.0236184
0.0234967
0.0233667
0.0232289
0.0230837
0.022932
0.0227751
0.0226152
0.022455
0.022299
0.022153
0.0220254
0.0219249
0.0218603
0.0218402
0.0218774
0.0219891
0.0221931
0.0225051
0.0229355
0.0234865
0.0241474
0.0248891
0.0256587
0.0263776
0.0269419
0.0272307
0.0271199
0.0265042
0.0253142
0.0235471
0.021252
0.0185515
0.0155748
0.0124763
0.00938724
0.00643305
0.00372044
0.00141147
-0.000487075
0.0247146
0.0246995
0.0246806
0.0246582
0.0246322
0.0246024
0.0245685
0.0245302
0.0244874
0.0244398
0.024387
0.0243288
0.0242648
0.0241947
0.0241178
0.0240339
0.0239423
0.0238426
0.023734
0.0236162
0.0234885
0.0233507
0.0232021
0.0230428
0.0228725
0.0226917
0.0225008
0.0223012
0.0220946
0.0218843
0.0216748
0.0214732
0.0212869
0.0211222
0.0209861
0.0208895
0.0208481
0.0208792
0.0209985
0.0212179
0.0215427
0.0219677
0.0224722
0.0230145
0.0235291
0.0239268
0.0241
0.0239352
0.0233315
0.0222168
0.0205786
0.0184499
0.0159371
0.0131513
0.0102344
0.00731488
0.00452611
0.00200646
-0.000103443
-0.0017643
0.0246675
0.0246515
0.0246315
0.0246078
0.0245804
0.0245489
0.0245131
0.0244728
0.0244276
0.0243774
0.0243217
0.0242602
0.0241926
0.0241183
0.0240368
0.0239476
0.0238498
0.0237431
0.0236265
0.0234995
0.0233611
0.0232109
0.023048
0.0228721
0.0226825
0.0224791
0.0222618
0.0220313
0.0217885
0.0215355
0.021276
0.0210156
0.0207603
0.0205149
0.0202843
0.0200778
0.0199094
0.0197951
0.0197501
0.0197866
0.0199116
0.0201239
0.020409
0.0207344
0.021046
0.0212676
0.021305
0.0210556
0.0204258
0.0193443
0.0177928
0.0157929
0.0134375
0.0108225
0.00807767
0.00532839
0.00271131
0.000388871
-0.00153917
-0.00300182
0.0246026
0.024586
0.0245653
0.0245409
0.0245127
0.0244803
0.0244435
0.024402
0.0243555
0.0243037
0.0242462
0.0241826
0.0241125
0.0240354
0.0239506
0.0238576
0.0237554
0.0236437
0.0235212
0.0233874
0.0232411
0.0230818
0.0229082
0.0227199
0.0225158
0.0222956
0.0220585
0.0218048
0.0215347
0.0212494
0.0209517
0.0206461
0.0203374
0.0200289
0.0197239
0.01943
0.0191596
0.0189271
0.0187466
0.0186299
0.0185849
0.0186128
0.018704
0.0188329
0.0189548
0.019005
0.0189015
0.0185526
0.0178727
0.0167935
0.0152938
0.0133868
0.0111548
0.00868137
0.00608432
0.00348549
0.00102157
-0.00112818
-0.00291003
-0.0042224
0.0245331
0.0245157
0.0244943
0.0244693
0.0244405
0.0244075
0.02437
0.0243278
0.0242804
0.0242276
0.0241689
0.0241039
0.024032
0.0239529
0.0238657
0.0237699
0.0236645
0.0235489
0.0234221
0.0232832
0.023131
0.0229648
0.0227833
0.0225857
0.0223708
0.0221379
0.021886
0.0216148
0.021324
0.0210142
0.0206874
0.0203471
0.0199969
0.019639
0.0192754
0.0189121
0.0185599
0.0182315
0.0179398
0.0176956
0.0175071
0.0173768
0.0172986
0.0172522
0.017201
0.0170896
0.016847
0.0163918
0.0156466
0.0145473
0.0130716
0.0112269
0.00908719
0.0067255
0.00424898
0.00177565
-0.00056058
-0.00256847
-0.00423853
-0.00544131
0.0244688
0.0244507
0.0244286
0.024403
0.0243736
0.0243399
0.0243017
0.0242586
0.0242103
0.0241563
0.0240963
0.0240299
0.0239564
0.0238755
0.0237863
0.0236882
0.0235803
0.0234617
0.0233315
0.0231886
0.0230318
0.0228603
0.0226726
0.0224678
0.0222445
0.0220016
0.0217381
0.0214532
0.0211462
0.0208172
0.0204673
0.0200994
0.0197161
0.0193187
0.0189078
0.0184881
0.018069
0.0176614
0.0172768
0.0169252
0.0166141
0.016347
0.0161201
0.0159174
0.0157084
0.0154462
0.015069
0.0145051
0.013685
0.0125494
0.0110762
0.00926877
0.00719458
0.00491833
0.00253726
0.000165092
-0.00206811
-0.00396301
-0.00554873
-0.00667317
0.0244161
0.0243972
0.0243741
0.0243475
0.0243168
0.024282
0.0242425
0.0241981
0.0241484
0.0240931
0.0240317
0.0239638
0.0238888
0.0238062
0.0237153
0.0236153
0.0235051
0.0233841
0.023251
0.0231049
0.0229443
0.0227684
0.0225754
0.0223645
0.0221341
0.0218829
0.0216096
0.0213132
0.0209926
0.0206474
0.0202782
0.019887
0.0194759
0.0190451
0.0185943
0.0181271
0.0176511
0.017176
0.0167118
0.0162672
0.0158492
0.0154617
0.0151024
0.0147586
0.014405
0.0140016
0.013495
0.012822
0.0119208
0.0107371
0.0092501
0.00746037
0.00543029
0.00321768
0.000911065
-0.00138004
-0.00353064
-0.00533544
-0.00685642
-0.00792512
0.024364
0.0243446
0.0243212
0.0242942
0.0242632
0.024228
0.0241882
0.0241435
0.0240933
0.0240374
0.0239753
0.0239066
0.0238306
0.0237469
0.0236546
0.023553
0.023441
0.0233179
0.0231822
0.0230331
0.022869
0.022689
0.0224912
0.0222747
0.0220377
0.0217788
0.0214966
0.0211895
0.0208565
0.0204966
0.02011
0.019698
0.0192619
0.0188013
0.018315
0.0178055
0.0172792
0.0167442
0.0162091
0.0156816
0.0151678
0.0146718
0.0141922
0.0137191
0.0132313
0.0126947
0.0120634
0.0112819
0.0102955
0.00905523
0.00754193
0.00575441
0.00375151
0.00158518
-0.000663776
-0.00289025
-0.00497432
-0.00670663
-0.00817618
-0.00920531
0.0243192
0.0242994
0.0242757
0.0242487
0.0242177
0.0241826
0.0241429
0.0240983
0.0240482
0.0239922
0.0239299
0.0238609
0.0237843
0.0236998
0.0236064
0.0235034
0.0233896
0.0232643
0.0231262
0.022974
0.0228064
0.0226222
0.0224196
0.0221974
0.0219538
0.0216873
0.0213962
0.0210787
0.0207335
0.0203593
0.0199558
0.0195238
0.0190641
0.0185753
0.0180557
0.0175068
0.0169338
0.0163435
0.0157432
0.0151394
0.0145375
0.0139413
0.0133503
0.0127566
0.0121426
0.0114794
0.0107273
0.00983812
0.008764
0.00746079
0.00591171
0.00411465
0.00212563
-8.13543e-06
-0.00221252
-0.00438653
-0.00641584
-0.00808799
-0.00951448
-0.0105153
0.0242902
0.0242703
0.0242466
0.0242195
0.0241885
0.0241534
0.0241137
0.0240689
0.0240185
0.0239621
0.0238992
0.0238294
0.023752
0.0236663
0.0235716
0.0234671
0.0233515
0.023224
0.0230832
0.022928
0.0227566
0.0225681
0.0223604
0.0221323
0.0218819
0.0216074
0.021307
0.0209788
0.020621
0.0202322
0.0198115
0.0193594
0.0188759
0.0183594
0.0178071
0.01722
0.0166021
0.0159589
0.0152966
0.0146206
0.0139354
0.0132447
0.0125485
0.0118406
0.0111063
0.0103212
0.00945151
0.00845541
0.00729149
0.0059205
0.00432826
0.00251222
0.000526689
-0.00158519
-0.00375521
-0.0058864
-0.00786972
-0.00949068
-0.0108793
-0.0118597
0.0242849
0.0242645
0.0242401
0.0242122
0.0241803
0.0241443
0.0241035
0.0240577
0.0240061
0.0239487
0.0238846
0.0238136
0.0237348
0.0236478
0.0235515
0.0234453
0.0233276
0.0231977
0.0230541
0.0228956
0.0227203
0.0225273
0.0223142
0.0220798
0.021822
0.0215389
0.0212285
0.0208888
0.0205177
0.0201134
0.0196748
0.0192017
0.0186939
0.018149
0.0175639
0.0169385
0.0162761
0.0155809
0.0148582
0.0141122
0.0133468
0.0125652
0.0117681
0.0109504
0.0101002
0.00919697
0.00821211
0.00710977
0.00585455
0.00441206
0.00277082
0.000928521
-0.00106188
-0.0031605
-0.00530408
-0.00739931
-0.00934272
-0.0109183
-0.0122717
-0.0132374
0.0242851
0.0242647
0.0242403
0.0242125
0.0241807
0.0241448
0.024104
0.0240581
0.0240064
0.0239486
0.023884
0.0238124
0.0237327
0.0236446
0.0235471
0.0234392
0.0233195
0.0231871
0.0230406
0.0228785
0.022699
0.0225009
0.0222819
0.0220406
0.0217747
0.0214823
0.0211612
0.020809
0.0204235
0.0200026
0.0195449
0.0190497
0.0185163
0.017942
0.0173229
0.0166586
0.0159511
0.0152039
0.0144211
0.0136062
0.012762
0.0118918
0.0109963
0.0100718
0.00910863
0.00808973
0.00699133
0.00578301
0.00443512
0.00291793
0.00122291
-0.000651817
-0.00265377
-0.0047459
-0.00686942
-0.00893436
-0.0108424
-0.0123768
-0.0136966
-0.0146517
0.0242985
0.0242779
0.0242536
0.024226
0.0241946
0.024159
0.0241188
0.0240734
0.024022
0.0239645
0.0239
0.0238281
0.023748
0.0236591
0.0235603
0.0234508
0.023329
0.023194
0.0230442
0.0228782
0.0226941
0.0224905
0.0222649
0.022016
0.0217414
0.0214388
0.0211058
0.02074
0.020339
0.0199003
0.019422
0.0189033
0.0183429
0.0177376
0.0170833
0.0163788
0.0156252
0.0148251
0.0139819
0.0130979
0.0121756
0.0112178
0.0102256
0.00919629
0.00812217
0.00698941
0.00577861
0.00446443
0.00302268
0.0014282
-0.000324634
-0.00223672
-0.00425598
-0.00634748
-0.00845605
-0.0104947
-0.0123706
-0.0138661
-0.0151527
-0.0160999
0.0243338
0.0243134
0.0242893
0.024262
0.0242309
0.0241958
0.0241558
0.0241105
0.0240592
0.0240015
0.0239366
0.0238641
0.0237831
0.0236931
0.0235928
0.0234815
0.0233573
0.0232195
0.0230663
0.022896
0.0227068
0.0224973
0.0222647
0.0220075
0.0217233
0.0214096
0.0210638
0.0206833
0.0202655
0.0198075
0.0193072
0.0187634
0.0181743
0.0175364
0.0168451
0.0160987
0.0152975
0.0144433
0.0135386
0.012585
0.0115844
0.0105392
0.00945093
0.00831766
0.00713365
0.00588794
0.0045652
0.00314486
0.00160793
-6.63264e-05
-0.0018805
-0.00383452
-0.00587587
-0.00797155
-0.0100696
-0.0120856
-0.0139316
-0.0153903
-0.0166435
-0.0175851
0.0244042
0.0243835
0.0243587
0.0243306
0.0242986
0.0242623
0.0242213
0.0241749
0.0241225
0.0240635
0.0239974
0.0239236
0.0238411
0.0237494
0.0236472
0.0235336
0.0234068
0.0232658
0.0231087
0.022934
0.0227394
0.0225233
0.0222831
0.022017
0.0217223
0.0213966
0.0210369
0.0206405
0.0202045
0.0197257
0.0192019
0.0186312
0.0180117
0.0173393
0.0166092
0.0158191
0.0149686
0.0140586
0.0130911
0.0120668
0.0109871
0.00985429
0.00866996
0.00743318
0.00613985
0.00478171
0.0033472
0.00182026
0.000186914
-0.00156927
-0.003448
-0.00544781
-0.00751569
-0.00962008
-0.0117112
-0.0137073
-0.0155251
-0.0169476
-0.0181668
-0.019104
0.0244878
0.0244671
0.0244425
0.0244146
0.0243828
0.0243469
0.024306
0.0242597
0.0242071
0.0241478
0.024081
0.0240064
0.0239229
0.0238298
0.0237259
0.0236101
0.0234806
0.0233361
0.0231749
0.0229951
0.0227945
0.0225713
0.0223227
0.0220468
0.0217408
0.0214019
0.0210272
0.0206136
0.020158
0.0196569
0.0191078
0.0185086
0.0178566
0.0171479
0.0163769
0.0155411
0.0146394
0.0136718
0.0126397
0.0115432
0.0103832
0.00916185
0.00788093
0.00654032
0.00513751
0.00366674
0.00212004
0.000485647
-0.00124558
-0.00308596
-0.00503229
-0.00708171
-0.00917999
-0.0112969
-0.0133846
-0.0153633
-0.0171542
-0.0185412
-0.0197256
-0.0206596
0.024596
0.0245752
0.0245507
0.024523
0.0244917
0.0244563
0.0244159
0.0243702
0.0243179
0.0242589
0.0241921
0.0241171
0.0240327
0.0239383
0.0238326
0.0237144
0.0235817
0.0234334
0.0232675
0.0230821
0.0228748
0.0226438
0.0223859
0.0220993
0.0217809
0.0214278
0.0210368
0.0206047
0.0201279
0.019603
0.019027
0.0183972
0.017711
0.0169638
0.0161499
0.0152663
0.0143112
0.013284
0.0121854
0.0110151
0.00977337
0.00846232
0.00708397
0.00563894
0.00412623
0.00254242
0.000882941
-0.000859842
-0.0026904
-0.00461707
-0.00663393
-0.00873633
-0.0108689
-0.0130022
-0.0150896
-0.0170527
-0.0188175
-0.0201688
-0.0213172
-0.0222484
0.0247376
0.024717
0.0246929
0.0246657
0.0246349
0.0246
0.02456
0.0245144
0.0244622
0.0244027
0.0243353
0.0242593
0.0241737
0.0240775
0.0239696
0.0238486
0.0237124
0.0235598
0.0233888
0.0231972
0.0229825
0.0227429
0.022475
0.0221768
0.021845
0.0214766
0.021068
0.0206159
0.0201166
0.0195661
0.0189613
0.0182993
0.0175767
0.0167891
0.0159301
0.0149965
0.0139858
0.0128968
0.0117296
0.0104835
0.00915821
0.00775588
0.00627872
0.00472812
0.00310447
0.00140659
-0.000366805
-0.00221936
-0.00415103
-0.0061663
-0.0082566
-0.0104156
-0.012586
-0.0147391
-0.016829
-0.0187786
-0.0205182
-0.0218336
-0.0229448
-0.0238734
0.0249315
0.0249106
0.0248856
0.0248574
0.0248253
0.024789
0.0247476
0.0247005
0.0246466
0.0245854
0.0245161
0.0244381
0.02435
0.0242512
0.0241402
0.0240158
0.0238754
0.023718
0.0235413
0.023343
0.0231203
0.0228714
0.0225926
0.0222818
0.0219356
0.0215506
0.0211232
0.0206496
0.0201261
0.0195484
0.0189131
0.0182167
0.0174559
0.0166255
0.0157192
0.0147333
0.0136648
0.0125117
0.0112738
0.00994983
0.00853916
0.00704385
0.00546642
0.00380893
0.00207317
0.000260055
-0.00162848
-0.00359227
-0.00562684
-0.00773297
-0.00989965
-0.0121184
-0.0143305
-0.016507
-0.0186023
-0.0205396
-0.0222541
-0.0235328
-0.0246051
-0.0255309
0.0251499
0.0251291
0.0251043
0.0250763
0.0250444
0.0250082
0.0249667
0.0249193
0.0248649
0.0248028
0.0247323
0.0246526
0.0245626
0.0244614
0.0243474
0.0242193
0.0240745
0.0239119
0.0237288
0.023523
0.0232916
0.0230325
0.0227417
0.0224173
0.0220554
0.0216524
0.0212047
0.0207082
0.0201588
0.0195521
0.0188843
0.0181516
0.0173503
0.0164752
0.0155193
0.0144789
0.0133502
0.0121307
0.0108198
0.00941564
0.00791738
0.00632703
0.00464735
0.00288117
0.0010315
-0.00089854
-0.00290408
-0.00498098
-0.00712071
-0.00932017
-0.0115663
-0.0138483
-0.0161055
-0.0183089
-0.0204121
-0.0223388
-0.0240285
-0.0252698
-0.0263014
-0.0272239
0.0254075
0.0253866
0.0253618
0.0253338
0.0253021
0.0252662
0.0252249
0.0251777
0.0251231
0.0250606
0.0249892
0.0249083
0.0248163
0.0247125
0.0245953
0.0244631
0.0243133
0.0241446
0.0239545
0.0237404
0.0234992
0.0232288
0.022925
0.0225857
0.0222067
0.0217845
0.021315
0.0207939
0.0202169
0.0195794
0.0188771
0.0181062
0.0172624
0.0163401
0.0153325
0.0142351
0.0130439
0.0117556
0.0103694
0.00888281
0.00729475
0.00560721
0.0038233
0.00194647
-1.89195e-05
-0.00206779
-0.00419216
-0.00638426
-0.00863136
-0.0109268
-0.0132552
-0.0156039
-0.0179101
-0.0201439
-0.0222576
-0.0241747
-0.0258392
-0.0270417
-0.0280302
-0.0289487
0.0257116
0.0256908
0.0256663
0.0256387
0.0256074
0.0255717
0.0255305
0.025483
0.0254278
0.0253642
0.0252913
0.0252084
0.0251139
0.025007
0.0248859
0.0247491
0.0245938
0.0244185
0.0242205
0.0239973
0.0237454
0.0234628
0.0231448
0.0227893
0.022392
0.021949
0.0214561
0.0209087
0.0203025
0.0196322
0.0188936
0.0180824
0.0171939
0.0162225
0.0151607
0.0140042
0.012748
0.0113886
0.00992454
0.00835304
0.00667264
0.00488541
0.00299474
0.00100483
-0.00107877
-0.00324884
-0.00549462
-0.00780437
-0.0101617
-0.0125558
-0.0149698
-0.0173884
-0.0197474
-0.0220153
-0.0241418
-0.0260504
-0.0276896
-0.0288519
-0.0297951
-0.0307084
0.0260864
0.0260651
0.0260394
0.0260103
0.0259771
0.0259393
0.0258959
0.0258459
0.025788
0.0257216
0.0256455
0.025559
0.0254606
0.0253494
0.0252233
0.0250809
0.024919
0.0247362
0.0245295
0.0242962
0.0240327
0.0237367
0.0234034
0.0230304
0.0226134
0.0221482
0.0216302
0.0210549
0.0204175
0.0197127
0.0189358
0.0180822
0.0171471
0.0161243
0.0150063
0.0137883
0.0124648
0.0110318
0.00948734
0.00782838
0.00605305
0.00416357
0.00216354
5.80507e-05
-0.00214634
-0.0044401
-0.0068099
-0.00923994
-0.0117105
-0.0142061
-0.0167089
-0.0192005
-0.0216165
-0.0239221
-0.0260637
-0.0279644
-0.0295774
-0.0306974
-0.0315924
-0.032499
0.0264979
0.0264766
0.0264509
0.0264217
0.0263884
0.0263502
0.0263061
0.0262551
0.0261957
0.0261272
0.0260485
0.025959
0.0258569
0.0257412
0.02561
0.0254615
0.0252924
0.0251013
0.0248849
0.0246404
0.0243641
0.0240533
0.0237033
0.0233114
0.0228731
0.0223839
0.0218393
0.0212342
0.0205639
0.0198226
0.0190056
0.0181078
0.017124
0.0160479
0.0148714
0.0135896
0.0121964
0.0106872
0.00905972
0.00731041
0.00543725
0.00344244
0.00133009
-0.000894171
-0.0032224
-0.00564309
-0.00814007
-0.0106937
-0.0132808
-0.0158813
-0.018476
-0.021044
-0.0235211
-0.0258678
-0.0280266
-0.02992
-0.0315061
-0.0325816
-0.0334256
-0.0343239
0.0269637
0.0269422
0.0269162
0.0268868
0.0268531
0.0268146
0.0267699
0.0267181
0.0266574
0.0265872
0.0265061
0.0264135
0.0263073
0.0261868
0.0260497
0.0258942
0.0257169
0.0255163
0.025289
0.025032
0.0247414
0.0244145
0.0240462
0.0236339
0.0231727
0.022658
0.022085
0.0214485
0.0207434
0.0199639
0.0191049
0.018161
0.0171266
0.0159951
0.0147581
0.0134102
0.0119449
0.0103568
0.0086435
0.00680096
0.00482698
0.00272379
0.000495986
-0.0018502
-0.00430547
-0.00685635
-0.00948377
-0.0121645
-0.0148715
-0.0175804
-0.0202705
-0.0229183
-0.0254603
-0.0278514
-0.0300292
-0.0319154
-0.0334732
-0.0345015
-0.035291
-0.0361789
0.0274886
0.0274672
0.0274413
0.0274118
0.027378
0.027339
0.0272934
0.0272402
0.0271776
0.0271047
0.0270202
0.0269235
0.0268124
0.0266861
0.0265422
0.0263789
0.0261925
0.0259815
0.0257422
0.0254716
0.0251655
0.0248212
0.0244333
0.0239991
0.0235135
0.0229717
0.0223687
0.021699
0.0209575
0.020138
0.0192352
0.0182434
0.0171566
0.015968
0.0146683
0.0132521
0.0117121
0.0100423
0.0082401
0.00630117
0.00422294
0.00200794
-0.000339002
-0.00281076
-0.00539694
-0.00808178
-0.0108437
-0.0136554
-0.0164866
-0.0193077
-0.0220969
-0.0248281
-0.0274386
-0.0298772
-0.0320754
-0.0339545
-0.0354825
-0.0364608
-0.0371921
-0.0380673
0.0280971
0.0280751
0.0280474
0.0280157
0.0279789
0.0279367
0.0278875
0.0278303
0.027763
0.0276852
0.0275952
0.0274925
0.0273747
0.027241
0.0270889
0.0269165
0.0267198
0.0264972
0.0262449
0.0259596
0.0256369
0.0252741
0.0248654
0.0244079
0.0238965
0.0233261
0.0226915
0.0219871
0.0212075
0.0203463
0.019398
0.0183566
0.0172158
0.0159679
0.0146037
0.0131167
0.0114993
0.009745
0.00785082
0.00581223
0.00362644
0.00129608
-0.00117355
-0.00377467
-0.00649553
-0.00931831
-0.0122187
-0.0151655
-0.0181249
-0.0210626
-0.0239548
-0.0267727
-0.0294554
-0.031944
-0.0341638
-0.0360351
-0.0375313
-0.038456
-0.0391253
-0.0399852
0.0287459
0.0287237
0.0286956
0.0286632
0.0286255
0.0285819
0.0285308
0.0284711
0.0284006
0.0283188
0.028224
0.0281157
0.0279914
0.0278503
0.0276898
0.0275077
0.0273
0.0270649
0.0267986
0.0264975
0.026157
0.0257744
0.0253434
0.0248613
0.0243226
0.023722
0.0230543
0.0223135
0.0214942
0.0205897
0.0195943
0.0185017
0.0173049
0.0159962
0.0145651
0.013005
0.0113076
0.00946562
0.00747626
0.00533453
0.00303751
0.000587893
-0.00200851
-0.00474325
-0.00760318
-0.0105684
-0.0136118
-0.0166986
-0.019791
-0.02285
-0.0258494
-0.0287577
-0.0315157
-0.0340562
-0.0362985
-0.0381614
-0.0396234
-0.040491
-0.0410939
-0.0419358
0.0294493
0.0294266
0.0293979
0.0293647
0.029326
0.0292812
0.0292284
0.0291666
0.0290933
0.0290079
0.0289086
0.0287948
0.0286639
0.0285151
0.0283454
0.0281531
0.0279334
0.0276849
0.0274034
0.0270854
0.0267258
0.026322
0.0258675
0.0253593
0.0247919
0.0241597
0.0234574
0.0226787
0.0218182
0.0208689
0.0198248
0.0186792
0.0174249
0.0160531
0.0145532
0.0129175
0.0111371
0.00920469
0.00711695
0.00486881
0.00245693
-0.000115696
-0.00284297
-0.00571549
-0.00871895
-0.0118311
-0.0150223
-0.0182536
-0.0214841
-0.0246691
-0.0277804
-0.0307827
-0.0336187
-0.0362128
-0.0384776
-0.0403311
-0.0417561
-0.0425624
-0.0430944
-0.0439153
0.0302124
0.0301896
0.0301604
0.0301265
0.0300868
0.0300404
0.0299856
0.0299209
0.0298439
0.029754
0.0296492
0.0295289
0.0293905
0.0292331
0.0290537
0.0288503
0.028618
0.0283553
0.0280579
0.0277219
0.0273423
0.0269163
0.026437
0.0259015
0.0253041
0.024639
0.0239007
0.0230828
0.0221796
0.021184
0.0200897
0.0188894
0.0175755
0.0161391
0.0145678
0.0128541
0.0109881
0.00896225
0.00677299
0.00441488
0.0018843
-0.000815578
-0.00367817
-0.00669326
-0.00984515
-0.0131093
-0.0164535
-0.0198348
-0.0232087
-0.0265254
-0.0297533
-0.0328535
-0.0357698
-0.0384185
-0.0407059
-0.0425483
-0.0439333
-0.0446739
-0.0451303
-0.045927
0.0310557
0.0310319
0.0310005
0.0309635
0.03092
0.0308694
0.0308096
0.0307394
0.0306563
0.0305596
0.0304473
0.0303189
0.0301714
0.0300041
0.0298137
0.0295982
0.0293523
0.0290746
0.0287604
0.0284056
0.0280052
0.0275559
0.0270509
0.026487
0.0258584
0.0251592
0.0243836
0.0235252
0.022578
0.0215347
0.0203887
0.0191321
0.017757
0.0162533
0.0146088
0.0128146
0.0108606
0.00873854
0.00644476
0.00397332
0.00132032
-0.00151095
-0.00451326
-0.00767565
-0.0109808
-0.0144022
-0.0179045
-0.0214412
-0.0249637
-0.0284177
-0.0317672
-0.0349693
-0.037968
-0.0406719
-0.0429812
-0.0448107
-0.0461521
-0.0468222
-0.0471979
-0.0479671
0.0319336
0.0319093
0.0318771
0.031839
0.031794
0.0317413
0.0316788
0.0316052
0.0315176
0.0314155
0.0312967
0.0311607
0.0310045
0.0308273
0.0306257
0.0303975
0.0301372
0.0298434
0.0295112
0.0291364
0.0287137
0.02824
0.0277079
0.0271145
0.0264536
0.0257191
0.0249053
0.0240053
0.0230131
0.0219208
0.0207215
0.0194071
0.0179688
0.0163966
0.0146764
0.0127995
0.010755
0.0085339
0.00613238
0.00354395
0.000764383
-0.00220281
-0.00534982
-0.00866472
-0.0121287
-0.0157129
-0.0193791
-0.023077
-0.0267541
-0.0303513
-0.0338276
-0.0371356
-0.0402183
-0.0429778
-0.0453083
-0.0471225
-0.0484163
-0.0490109
-0.0493008
-0.050039
0.0328697
0.0328454
0.032813
0.0327746
0.0327285
0.0326741
0.0326087
0.0325312
0.0324385
0.0323301
0.0322036
0.0320588
0.0318922
0.0317035
0.0314888
0.0312462
0.0309699
0.0306584
0.0303067
0.0299106
0.0294646
0.0289654
0.0284053
0.0277816
0.0270878
0.0263175
0.0254648
0.0245226
0.0234844
0.0223423
0.0210887
0.0197151
0.0182125
0.0165692
0.0147716
0.0128096
0.0106721
0.00834919
0.00583675
0.00312773
0.00021751
-0.00289014
-0.00618674
-0.00965937
-0.0132876
-0.0170402
-0.0208761
-0.0247408
-0.0285783
-0.0323244
-0.0359327
-0.0393506
-0.0425191
-0.0453341
-0.0476847
-0.0494809
-0.050723
-0.0512366
-0.0514354
-0.0521393
0.033908
0.0338814
0.0338428
0.0337961
0.0337403
0.0336754
0.0335991
0.0335108
0.033407
0.0332876
0.0331499
0.0329938
0.0328155
0.0326143
0.0323863
0.0321291
0.0318368
0.0315079
0.031137
0.03072
0.0302509
0.0297265
0.029139
0.0284853
0.0277588
0.0269529
0.0260614
0.0250768
0.0239925
0.0227999
0.0214913
0.0200576
0.0184888
0.0167736
0.014896
0.0128467
0.0106133
0.00818551
0.00555854
0.00272481
-0.000320711
-0.00357393
-0.00702565
-0.0106618
-0.0144604
-0.0183876
-0.0223993
-0.0264372
-0.0304412
-0.034342
-0.0380878
-0.0416194
-0.0448752
-0.0477458
-0.0501152
-0.0518904
-0.053076
-0.053503
-0.0536054
-0.0542715
0.0348336
0.0348089
0.0347733
0.0347299
0.0346778
0.0346159
0.0345421
0.0344549
0.0343512
0.0342303
0.0340897
0.033929
0.0337446
0.0335356
0.0332982
0.0330299
0.0327246
0.0323808
0.0319931
0.0315572
0.0310669
0.0305191
0.0299056
0.0292233
0.0284653
0.0276249
0.0266954
0.025669
0.0245388
0.0232958
0.0219317
0.0204368
0.0188011
0.0170113
0.0150521
0.0129128
0.0105807
0.00804464
0.00529941
0.00233677
-0.00084874
-0.00425267
-0.00786503
-0.0116706
-0.0156455
-0.0197534
-0.0239471
-0.0281642
-0.0323406
-0.0364018
-0.0402901
-0.0439393
-0.0472844
-0.0502107
-0.0525973
-0.0543481
-0.0554722
-0.0558068
-0.0558074
-0.0564322
0.0358189
0.0357922
0.0357544
0.0357085
0.0356533
0.0355885
0.0355112
0.0354206
0.0353129
0.0351877
0.0350422
0.0348762
0.0346857
0.0344697
0.0342241
0.0339465
0.0336301
0.0332737
0.0328715
0.0324191
0.0319101
0.0313413
0.030704
0.0299952
0.0292077
0.0283344
0.0273683
0.0263011
0.0251256
0.0238323
0.0224124
0.0208558
0.0191513
0.0172861
0.0152426
0.0130106
0.0105766
0.00792845
0.00506061
0.00196417
-0.00136673
-0.00492724
-0.00870646
-0.0126879
-0.0168458
-0.0211412
-0.0255236
-0.0299263
-0.0342813
-0.0385088
-0.0425446
-0.0463152
-0.0497512
-0.0527335
-0.0551356
-0.0568582
-0.0579155
-0.0581515
-0.0580448
-0.0586253
0.03672
0.036694
0.0366582
0.0366154
0.0365644
0.0365039
0.0364313
0.0363448
0.0362409
0.0361184
0.0359749
0.0358096
0.0356188
0.0354011
0.0351526
0.0348703
0.0345476
0.0341827
0.0337702
0.0333049
0.0327807
0.032194
0.0315359
0.0308032
0.0299885
0.0290842
0.028083
0.0269762
0.0257562
0.0244127
0.0229368
0.0213176
0.0195437
0.0176005
0.0154708
0.0131432
0.0106036
0.00783939
0.00484442
0.00160917
-0.00187259
-0.00559556
-0.00954788
-0.0137117
-0.0180592
-0.0225488
-0.0271264
-0.0317212
-0.0362608
-0.0406601
-0.0448482
-0.0487439
-0.052273
-0.0553114
-0.0577273
-0.0594178
-0.0604027
-0.060534
-0.0603147
-0.0608474
0.0377547
0.0377241
0.0376826
0.0376336
0.0375757
0.0375085
0.0374291
0.0373364
0.0372263
0.0370984
0.0369497
0.0367797
0.0365842
0.036362
0.0361087
0.035821
0.035492
0.0351197
0.0346983
0.0342222
0.0336849
0.0330827
0.0324062
0.0316519
0.030812
0.0298785
0.0288437
0.0276984
0.0264344
0.0250411
0.0235089
0.0218264
0.0199812
0.017959
0.0157401
0.0133135
0.0106646
0.00777969
0.00465241
0.00127261
-0.00236628
-0.00625841
-0.0103908
-0.0147443
-0.0192888
-0.0239799
-0.0287598
-0.0335535
-0.0382839
-0.0428605
-0.0472059
-0.0512304
-0.0548546
-0.0579495
-0.0603769
-0.062031
-0.0629374
-0.0629577
-0.0626204
-0.0631022
0.0386694
0.0386381
0.0385974
0.038551
0.0384975
0.0384358
0.0383631
0.0382771
0.0381741
0.0380526
0.0379101
0.0377453
0.0375541
0.0373349
0.0370833
0.0367958
0.0364651
0.0360892
0.0356622
0.0351781
0.0346303
0.0340148
0.0333219
0.0325478
0.0316844
0.030723
0.0296557
0.0284726
0.0271651
0.0257219
0.0241329
0.0223861
0.0204687
0.0183642
0.0160537
0.0135249
0.0107625
0.00775213
0.00448724
0.000957088
-0.00284522
-0.0069132
-0.0112327
-0.015783
-0.0205319
-0.0254316
-0.030421
-0.0354201
-0.0403474
-0.0451069
-0.0496142
-0.0537712
-0.057493
-0.0606447
-0.0630816
-0.0646947
-0.0655168
-0.0654197
-0.0649589
-0.0653863
0.0397003
0.039666
0.0396256
0.039581
0.0395301
0.0394714
0.0394015
0.0393181
0.0392167
0.0390963
0.0389538
0.0387884
0.0385958
0.0383745
0.0381202
0.0378292
0.0374941
0.0371127
0.0366789
0.0361864
0.0356283
0.0350001
0.0342915
0.0334986
0.0326126
0.0316242
0.030525
0.0293045
0.0279535
0.0264602
0.0248137
0.0230014
0.0210091
0.0188212
0.0164156
0.0137807
0.0109002
0.00775915
0.00435064
0.000663526
-0.00330932
-0.00756067
-0.0120751
-0.0168302
-0.0217914
-0.0269077
-0.0321141
-0.0373258
-0.0424563
-0.0474044
-0.0520783
-0.0563714
-0.060193
-0.063402
-0.0658459
-0.0674131
-0.0681443
-0.0679233
-0.0673335
-0.0677033
0.0408609
0.0408212
0.0407736
0.0407213
0.0406628
0.040597
0.0405207
0.0404315
0.0403253
0.0402006
0.0400547
0.0398864
0.0396914
0.0394679
0.0392114
0.0389179
0.0385796
0.0381939
0.0377546
0.0372549
0.0366873
0.0360473
0.0353238
0.0345125
0.0336043
0.0325893
0.0314584
0.0302004
0.0288056
0.0272614
0.0255563
0.0236768
0.0216085
0.0193331
0.0168296
0.0140843
0.0110809
0.00780367
0.00424548
0.000394832
-0.00375561
-0.00819777
-0.0129149
-0.0178826
-0.0230641
-0.0284049
-0.0338358
-0.039267
-0.0446071
-0.0497492
-0.0545943
-0.0590274
-0.0629516
-0.066218
-0.0686665
-0.0701829
-0.070817
-0.0704658
-0.0697416
-0.0700499
0.0420981
0.0420552
0.0420034
0.0419465
0.041883
0.0418121
0.0417305
0.0416362
0.0415247
0.0413949
0.041244
0.0410709
0.0408712
0.0406433
0.0403823
0.0400841
0.0397408
0.0393494
0.0389036
0.0383958
0.0378185
0.0371664
0.036428
0.0355985
0.0346682
0.0336264
0.0324635
0.0311675
0.0297281
0.0281319
0.0263667
0.0244181
0.0222703
0.0199056
0.0172995
0.0144394
0.0113078
0.00788815
0.0041735
0.000151911
-0.00418405
-0.00882533
-0.0137537
-0.0189429
-0.0243533
-0.029927
-0.0355905
-0.0412488
-0.0468049
-0.0521467
-0.0571678
-0.0617447
-0.0657739
-0.0690979
-0.0715481
-0.073008
-0.0735384
-0.0730504
-0.0721864
-0.0724297
0.0433371
0.0432936
0.0432416
0.0431848
0.0431219
0.0430517
0.042971
0.0428775
0.0427667
0.0426373
0.0424866
0.0423135
0.0421137
0.0418851
0.0416232
0.0413234
0.0409776
0.0405826
0.0401317
0.0396171
0.0390307
0.0383669
0.0376137
0.0367658
0.0358131
0.0347441
0.0335485
0.0322137
0.0307284
0.0290786
0.027251
0.0252306
0.023001
0.0205416
0.0178293
0.0148492
0.0115838
0.00801561
0.00413773
-6.20872e-05
-0.00459132
-0.00943987
-0.0145879
-0.020007
-0.025655
-0.0314702
-0.0373743
-0.0432671
-0.0490457
-0.0545929
-0.0597949
-0.0645197
-0.0686566
-0.0720383
-0.0744872
-0.0758854
-0.0763057
-0.0756747
-0.0746652
-0.0748392
0.0446373
0.0445942
0.0445433
0.0444882
0.0444276
0.0443604
0.044283
0.044193
0.0440857
0.0439595
0.0438116
0.0436409
0.0434428
0.0432152
0.0429535
0.042653
0.0423052
0.041907
0.0414513
0.04093
0.0403347
0.0396592
0.0388911
0.0380246
0.0370489
0.0359518
0.0347224
0.0333471
0.0318141
0.0301083
0.0282156
0.0261202
0.0238038
0.0212472
0.018423
0.0153176
0.0119121
0.00818851
0.00413984
-0.000246341
-0.00497749
-0.0100424
-0.0154193
-0.0210779
-0.0269728
-0.0330386
-0.039192
-0.0453272
-0.0513348
-0.0570932
-0.0624808
-0.0673575
-0.0716048
-0.0750441
-0.0774883
-0.078819
-0.0791223
-0.0783417
-0.0771814
-0.0772823
0.0460049
0.0459625
0.0459132
0.0458606
0.0458034
0.0457401
0.0456673
0.0455821
0.0454799
0.0453586
0.0452158
0.0450498
0.0448563
0.0446326
0.0443743
0.044076
0.0437291
0.0433298
0.0428714
0.0423446
0.0417411
0.0410543
0.0402711
0.0393852
0.0383856
0.0372591
0.0359941
0.0345761
0.0329928
0.0312279
0.0292667
0.0270921
0.0246859
0.0220254
0.0190847
0.015848
0.012296
0.00840996