/*--------------------------------*- C++ -*----------------------------------*\
  =========                 |
  \\      /  F ield         | OpenFOAM: The Open Source CFD Toolbox
   \\    /   O peration     | Website:  https://openfoam.org
    \\  /    A nd           | Version:  6.0
     \\/     M anipulation  |
\*---------------------------------------------------------------------------*/
FoamFile
{
    version     2.0;
    format      ascii;
    class       volScalarField;
    location    "11";
    object      p;
}
// * * * * * * * * * * * * * * * * * * * * * * * * * * * * * * * * * * * * * //

dimensions      [0 2 -2 0 0 0 0];

internalField   nonuniform List<scalar> 
47000
(
0.000943829
0.00117429
0.00188695
0.00299142
0.00431039
0.00561133
0.00668079
0.00738571
0.00770157
0.00770885
0.00753247
0.0073054
0.00711012
0.00698291
0.00690599
0.00684514
0.00675135
0.00659246
0.00634571
0.0060116
0.00559722
0.00512163
0.00460313
0.00406255
0.00351593
0.00297311
0.00245795
0.00192367
0.00170206
0.0022434
0.000910144
0.00112082
0.00180657
0.00289069
0.00420942
0.00553929
0.00666344
0.00743682
0.0078164
0.00786982
0.00771705
0.00749932
0.00731229
0.00720799
0.00717738
0.00718968
0.00718894
0.00713327
0.00698563
0.00673596
0.00638065
0.00593383
0.00541016
0.00483173
0.00421691
0.00357834
0.00295353
0.00232413
0.00204765
0.00229388
0.0008437
0.00101134
0.00162833
0.00263205
0.00387448
0.00514541
0.00622935
0.0069728
0.00731332
0.00730106
0.00704358
0.00668463
0.00633146
0.00605705
0.00587198
0.0057633
0.00568324
0.00559307
0.00545086
0.00524042
0.00494832
0.00458092
0.00414496
0.00365814
0.0031359
0.00259163
0.00206737
0.00157921
0.00140415
0.00163649
0.00074839
0.000875494
0.00143385
0.00237631
0.0035728
0.00482938
0.00593482
0.0067281
0.00712487
0.00715112
0.0068924
0.00648414
0.00603629
0.00563715
0.00531601
0.00508044
0.00489653
0.00473527
0.0045563
0.00434246
0.00407403
0.00375161
0.00337435
0.00295508
0.00250425
0.00203407
0.00158538
0.0011827
0.00102929
0.00124198
0.000627864
0.00071952
0.00123302
0.00213679
0.00332003
0.00460747
0.00579628
0.00672096
0.00727681
0.00746238
0.00733465
0.00700992
0.00658978
0.0061672
0.0057832
0.00546188
0.00518349
0.0049311
0.00467054
0.00438805
0.00406253
0.00369236
0.00327236
0.00281221
0.00231862
0.00180259
0.00130317
0.000845661
0.000576258
0.000604637
0.00048105
0.000528114
0.000980984
0.00182356
0.00296536
0.00425359
0.0054995
0.00654022
0.00725656
0.00762286
0.00766641
0.00747935
0.00714693
0.00675808
0.00635769
0.00598102
0.00561969
0.00526876
0.00490185
0.00451173
0.0040793
0.00360455
0.00308138
0.00252002
0.00192676
0.001315
0.000725599
0.000190115
-0.000192718
-0.000312224
0.000310631
0.000294781
0.000652415
0.00138255
0.00241599
0.00362557
0.00484289
0.00591562
0.00671889
0.00720984
0.00739016
0.00732791
0.00708872
0.00675194
0.00636031
0.00595478
0.00553464
0.00510479
0.00464644
0.00415963
0.0036293
0.00305924
0.0024453
0.00180086
0.00113467
0.000464816
-0.000164716
-0.000716051
-0.00113514
-0.00130128
0.000118012
1.96813e-05
0.000248817
0.000816926
0.00167562
0.00272529
0.00382185
0.00483054
0.00562873
0.00616479
0.00642079
0.00644412
0.00628069
0.00599778
0.00563178
0.00522503
0.00478058
0.00431051
0.00380185
0.00326149
0.00267845
0.00206119
0.00140819
0.000736899
5.85937e-05
-0.000604679
-0.00120869
-0.00171447
-0.00210963
-0.00226664
-9.25132e-05
-0.000284833
-0.000202639
0.000174967
0.000818578
0.00165528
0.00256687
0.00343988
0.00416012
0.00467398
0.00495038
0.00502042
0.00491224
0.00468061
0.00435336
0.00397115
0.00353763
0.0030692
0.0025567
0.00201225
0.00142815
0.000816715
0.000178614
-0.000465748
-0.00110395
-0.00171259
-0.00225066
-0.00268306
-0.00303171
-0.0031593
-0.000320867
-0.000609506
-0.00067632
-0.000494013
-7.65025e-05
0.000527585
0.00122449
0.00192342
0.00252172
0.00296913
0.00322649
0.00331321
0.00324242
0.00305724
0.0027762
0.00243644
0.00203989
0.00160498
0.00112423
0.000613376
6.6466e-05
-0.000501449
-0.00108893
-0.00167392
-0.00224478
-0.00277874
-0.00324026
-0.00359964
-0.00390332
-0.00400577
-0.000562156
-0.000941042
-0.00114536
-0.00114373
-0.000938681
-0.000558701
-7.59082e-05
0.000440226
0.000899941
0.00125917
0.00147485
0.00155853
0.0015113
0.00136628
0.00113296
0.000844156
0.000498681
0.000115295
-0.000313438
-0.00076977
-0.00125916
-0.00176519
-0.0022867
-0.00280135
-0.00329929
-0.00375961
-0.00415236
-0.00445283
-0.00472276
-0.00480607
-0.000815298
-0.0012745
-0.00159749
-0.00175112
-0.00173111
-0.00155004
-0.00126252
-0.000918815
-0.00059651
-0.000331692
-0.000168813
-0.000100887
-0.000136185
-0.000249647
-0.000440018
-0.000678788
-0.000971006
-0.00129855
-0.00167001
-0.00206664
-0.00249456
-0.00293673
-0.00339322
-0.00384193
-0.00427538
-0.00467454
-0.00501445
-0.00527371
-0.0055225
-0.00559808
-0.00107549
-0.00160222
-0.00202194
-0.00230089
-0.00243203
-0.00241655
-0.00229542
-0.00210297
-0.00190572
-0.00173161
-0.00162458
-0.0015799
-0.00161277
-0.00170431
-0.00186031
-0.00205614
-0.0023008
-0.00257733
-0.00289608
-0.00323805
-0.00361053
-0.00399651
-0.00439757
-0.00479216
-0.00517504
-0.0055288
-0.00583232
-0.00606616
-0.00630447
-0.0063772
-0.00134361
-0.00192499
-0.00242072
-0.00279646
-0.00304606
-0.00316289
-0.00317825
-0.00311323
-0.00302534
-0.00293436
-0.00288293
-0.0028667
-0.00290595
-0.0029862
-0.00311911
-0.00328318
-0.0034912
-0.00372737
-0.00400414
-0.00430249
-0.00463126
-0.00497357
-0.00533268
-0.00568748
-0.00603476
-0.00635816
-0.00663955
-0.00686028
-0.00709583
-0.00717352
-0.00161595
-0.00223951
-0.00279313
-0.00324083
-0.00357978
-0.00379887
-0.00392263
-0.00396196
-0.00396689
-0.00394988
-0.00395165
-0.00396711
-0.00402003
-0.00409887
-0.00421999
-0.00436424
-0.00454773
-0.00475572
-0.00500274
-0.00526986
-0.00556748
-0.00587893
-0.00620904
-0.00653702
-0.00686133
-0.00716634
-0.00743608
-0.00765216
-0.00789014
-0.00797383
-0.00189376
-0.00254972
-0.00314728
-0.00364785
-0.00405367
-0.00435124
-0.00456107
-0.00468581
-0.00476995
-0.00481906
-0.00487202
-0.00492205
-0.00499538
-0.00508213
-0.00520243
-0.00533864
-0.00550979
-0.00570184
-0.00593136
-0.00617936
-0.00645782
-0.00675012
-0.00706264
-0.00737462
-0.00768605
-0.00798162
-0.0082472
-0.00846421
-0.00870777
-0.0088023
-0.00217384
-0.0028541
-0.00348524
-0.00402469
-0.00448035
-0.00483829
-0.00511651
-0.00531153
-0.00546338
-0.00557181
-0.00567368
-0.00576012
-0.00585894
-0.00596103
-0.00608942
-0.00622729
-0.00639615
-0.00658238
-0.00680437
-0.00704298
-0.00731166
-0.00759378
-0.00789708
-0.00820079
-0.00850619
-0.0087982
-0.00906419
-0.00928538
-0.00953641
-0.00964064
-0.00245835
-0.00315743
-0.00381553
-0.00438511
-0.00487988
-0.0052862
-0.00562115
-0.00587608
-0.00608801
-0.0062512
-0.00640092
-0.00652572
-0.00665456
-0.00677833
-0.00692235
-0.00707007
-0.0072451
-0.0074339
-0.00765658
-0.00789365
-0.00816001
-0.00843882
-0.00873924
-0.00904026
-0.00934448
-0.00963686
-0.00990625
-0.0101335
-0.010393
-0.0105105
-0.00274455
-0.00345835
-0.00413929
-0.00473389
-0.00526086
-0.00570775
-0.00609122
-0.00639874
-0.0066649
-0.00687931
-0.00707564
-0.00723987
-0.00740165
-0.00755139
-0.00771625
-0.00787947
-0.00806646
-0.00826356
-0.00849242
-0.00873315
-0.00900194
-0.0092818
-0.00958313
-0.00988478
-0.0101905
-0.0104854
-0.0107596
-0.0109939
-0.0112624
-0.0113911
-0.00303442
-0.00376124
-0.00446334
-0.0050812
-0.00563765
-0.00612138
-0.00654942
-0.00690562
-0.00722309
-0.00748698
-0.00772982
-0.00793478
-0.00813212
-0.00831134
-0.00850117
-0.00868427
-0.00888771
-0.00909744
-0.00933663
-0.0095848
-0.00985954
-0.0101435
-0.0104484
-0.0107529
-0.011062
-0.0113608
-0.0116409
-0.0118828
-0.0121606
-0.0123036
-0.00332531
-0.00406427
-0.00478701
-0.00542814
-0.00601312
-0.00653204
-0.00700225
-0.00740474
-0.00777132
-0.00808332
-0.00837215
-0.00861831
-0.00885248
-0.00906307
-0.00928013
-0.00948554
-0.00970783
-0.00993249
-0.0101841
-0.0104417
-0.010724
-0.0110135
-0.0113232
-0.0116316
-0.0119447
-0.0122479
-0.0125341
-0.0127838
-0.0130712
-0.0132263
-0.00361935
-0.00437105
-0.00511525
-0.00578136
-0.00639626
-0.00695096
-0.00746352
-0.00791194
-0.00832739
-0.00868738
-0.00902262
-0.00931082
-0.00958316
-0.00982675
-0.0100729
-0.0103025
-0.0105456
-0.0107869
-0.0110526
-0.0113209
-0.0116121
-0.0119082
-0.0122237
-0.0125366
-0.0128544
-0.0131626
-0.0134553
-0.0137129
-0.0140101
-0.0141803
-0.00391409
-0.00467922
-0.00544596
-0.00613925
-0.00678573
-0.00737737
-0.00793261
-0.00842698
-0.00889091
-0.00929862
-0.00968008
-0.0100104
-0.0103212
-0.0105983
-0.0108741
-0.0111285
-0.0113928
-0.0116512
-0.0119313
-0.0122107
-0.0125109
-0.0128137
-0.013135
-0.0134526
-0.0137752
-0.0140883
-0.0143875
-0.0146533
-0.0149606
-0.0151434
-0.00421145
-0.00499167
-0.0057827
-0.00650605
-0.00718704
-0.00781786
-0.00841767
-0.00895917
-0.00947256
-0.00992861
-0.010357
-0.0107301
-0.0110801
-0.0113914
-0.0116976
-0.0119774
-0.0122636
-0.0125396
-0.0128346
-0.0131254
-0.0134351
-0.013745
-0.0140724
-0.0143949
-0.0147226
-0.015041
-0.0153471
-0.0156213
-0.0159389
-0.0161374
-0.00450903
-0.0053057
-0.00612256
-0.00687865
-0.00759652
-0.00826857
-0.00891421
-0.00950376
-0.010067
-0.0105716
-0.0110468
-0.0114626
-0.0118517
-0.012197
-0.0125335
-0.0128385
-0.0131463
-0.0134396
-0.0137492
-0.0140511
-0.0143699
-0.0146866
-0.0150199
-0.0153473
-0.01568
-0.0160038
-0.0163169
-0.0165996
-0.0169278
-0.0171396
-0.00480865
-0.00562361
-0.00646819
-0.00725994
-0.00801785
-0.00873371
-0.00942752
-0.0100668
-0.0106812
-0.0112353
-0.0117583
-0.0122174
-0.0126461
-0.0130259
-0.013393
-0.0137235
-0.0140531
-0.0143639
-0.0146883
-0.0150014
-0.0153296
-0.0156532
-0.0159929
-0.0163253
-0.0166635
-0.016993
-0.0173135
-0.0176052
-0.0179443
-0.0181724
-0.00510798
-0.00594255
-0.00681638
-0.00764626
-0.00844645
-0.00920816
-0.00995152
-0.0106416
-0.0113079
-0.0119119
-0.0124827
-0.0129851
-0.0134533
-0.0138673
-0.0142647
-0.0146201
-0.0149712
-0.015299
-0.0156376
-0.0159616
-0.0162987
-0.0166291
-0.0169748
-0.0173124
-0.0176561
-0.0179915
-0.0183196
-0.0186205
-0.0189709
-0.0192128
-0.00540854
-0.00626438
-0.00716923
-0.00803977
-0.00888514
-0.00969512
-0.0104904
-0.011233
-0.0119527
-0.0126077
-0.0132273
-0.0137736
-0.0142819
-0.0147306
-0.0151587
-0.0155395
-0.0159122
-0.0162571
-0.0166104
-0.0169454
-0.0172918
-0.0176293
-0.0179815
-0.0183247
-0.0186743
-0.0190161
-0.0193523
-0.0196629
-0.0200249
-0.0202837
-0.00570805
-0.00658626
-0.00752351
-0.00843678
-0.00932922
-0.0101893
-0.0110376
-0.011834
-0.0126076
-0.0133142
-0.0139828
-0.0145732
-0.0151215
-0.0156047
-0.0160631
-0.0164689
-0.0168628
-0.0172246
-0.017592
-0.0179378
-0.0182933
-0.0186378
-0.0189965
-0.0193452
-0.019701
-0.0200495
-0.020394
-0.0207147
-0.0210886
-0.0213616
-0.00600773
-0.00690967
-0.00788095
-0.00883908
-0.00978115
-0.0106934
-0.011597
-0.0124488
-0.0132781
-0.0140375
-0.0147562
-0.0153916
-0.0159807
-0.0164989
-0.0169883
-0.0174195
-0.0178352
-0.0182141
-0.0185961
-0.0189531
-0.0193181
-0.01967
-0.0200358
-0.0203907
-0.0207533
-0.0211089
-0.0214625
-0.0217937
-0.0221799
-0.0224702
-0.00630537
-0.00723192
-0.00823848
-0.00924318
-0.0102364
-0.0112025
-0.0121624
-0.0130707
-0.0139564
-0.0147691
-0.0155383
-0.0162189
-0.0168489
-0.0174021
-0.0179224
-0.0183788
-0.0188159
-0.0192117
-0.0196081
-0.0199761
-0.0203505
-0.0207099
-0.0210827
-0.0214441
-0.0218136
-0.0221768
-0.0225397
-0.0228817
-0.0232806
-0.0235855
-0.00660185
-0.00755411
-0.00859749
-0.00965058
-0.0106974
-0.0117191
-0.0127376
-0.0137039
-0.0146477
-0.0155152
-0.0163362
-0.0170631
-0.0177349
-0.018324
-0.0188759
-0.0193581
-0.0198173
-0.0202306
-0.020642
-0.0210215
-0.021406
-0.0217734
-0.0221541
-0.0225224
-0.0228997
-0.023271
-0.0236438
-0.0239973
-0.0244091
-0.0247318
-0.00689511
-0.00787381
-0.00895517
-0.0100581
-0.0111598
-0.0122387
-0.0133165
-0.0143422
-0.0153447
-0.0162677
-0.0171411
-0.0179146
-0.0186285
-0.0192535
-0.019837
-0.020345
-0.0208262
-0.0212568
-0.0216831
-0.0220741
-0.0224687
-0.0228442
-0.0232328
-0.0236084
-0.0239937
-0.0243735
-0.0247566
-0.0251217
-0.0255468
-0.0258846
-0.00718568
-0.00819172
-0.00931257
-0.0104671
-0.0116257
-0.0127637
-0.0139031
-0.0149897
-0.0160529
-0.0170329
-0.01796
-0.0187814
-0.0195386
-0.0202006
-0.0208166
-0.0213512
-0.0218552
-0.0223039
-0.0227458
-0.0231489
-0.0235543
-0.0239387
-0.0243361
-0.0247197
-0.0251136
-0.0255027
-0.0258966
-0.026274
-0.0267127
-0.0270687
-0.00747168
-0.0085057
-0.0096672
-0.0108746
-0.0120915
-0.0132899
-0.0144918
-0.0156405
-0.0167652
-0.0178031
-0.0187847
-0.0196545
-0.0204552
-0.0211544
-0.0218032
-0.0223644
-0.0228911
-0.0233578
-0.0238153
-0.0242307
-0.0246469
-0.0250403
-0.0254466
-0.0258385
-0.0262414
-0.02664
-0.0270452
-0.0274351
-0.0278878
-0.0282592
-0.00775329
-0.00881609
-0.0100197
-0.0112817
-0.012559
-0.0138197
-0.0150863
-0.0162989
-0.0174871
-0.0185845
-0.0196222
-0.0205418
-0.0213876
-0.0221251
-0.0228077
-0.0233965
-0.0239469
-0.0244325
-0.0249064
-0.0253348
-0.0257628
-0.0261659
-0.026582
-0.0269829
-0.0273956
-0.0278044
-0.0282215
-0.0286246
-0.0290915
-0.0294816
-0.00802888
-0.00912105
-0.010368
-0.0116858
-0.0130248
-0.0143491
-0.0156815
-0.0169593
-0.0182119
-0.01937
-0.0204645
-0.0214346
-0.0223258
-0.0231021
-0.0238187
-0.0244352
-0.0250094
-0.0255137
-0.0260042
-0.0264456
-0.0268854
-0.0272984
-0.0277245
-0.0281347
-0.0285576
-0.028977
-0.0294063
-0.0298228
-0.0303044
-0.0307103
-0.00829827
-0.00942052
-0.0107124
-0.0120876
-0.0134905
-0.0148804
-0.0162808
-0.0176258
-0.018945
-0.0201655
-0.0213188
-0.022341
-0.0232792
-0.0240954
-0.0248474
-0.0254926
-0.0260916
-0.0266157
-0.0271236
-0.0275789
-0.0280315
-0.0284553
-0.0288923
-0.0293127
-0.0297465
-0.0301771
-0.0306194
-0.0310498
-0.0315463
-0.0319714
-0.00856008
-0.00971303
-0.011051
-0.0124851
-0.013953
-0.0154101
-0.0168797
-0.0182933
-0.0196802
-0.0209642
-0.0221771
-0.0232523
-0.024238
-0.0250947
-0.0258822
-0.0265563
-0.0271803
-0.0277242
-0.0282496
-0.0287189
-0.0291843
-0.0296192
-0.0300673
-0.0304981
-0.0309431
-0.0313854
-0.0318409
-0.0322856
-0.0327974
-0.0332388
-0.00881377
-0.00999807
-0.0113837
-0.0128783
-0.0144137
-0.01594
-0.0174812
-0.0189655
-0.0204225
-0.0217722
-0.0230468
-0.0241765
-0.0252115
-0.02611
-0.0269345
-0.0276388
-0.0282888
-0.0288536
-0.0293975
-0.0298817
-0.0303609
-0.0308077
-0.0312679
-0.0317099
-0.0321671
-0.0326218
-0.0330912
-0.0335507
-0.0340781
-0.0345392
-0.00905827
-0.0102746
-0.0117091
-0.0132659
-0.0148698
-0.0164669
-0.0180811
-0.0196377
-0.0211661
-0.0225827
-0.02392
-0.0251053
-0.0261901
-0.027131
-0.0279928
-0.0287274
-0.0294036
-0.0299893
-0.0305519
-0.0310511
-0.0315442
-0.0320031
-0.0324756
-0.0329293
-0.0333989
-0.0338663
-0.03435
-0.0348246
-0.0353681
-0.035846
-0.00929261
-0.0105415
-0.0120267
-0.0136472
-0.0153224
-0.0169925
-0.0186822
-0.0203135
-0.0219158
-0.0234016
-0.0248038
-0.0260465
-0.0271831
-0.0281679
-0.0290685
-0.0298347
-0.0305383
-0.0311461
-0.0317283
-0.0322435
-0.0327517
-0.0332236
-0.0337094
-0.0341756
-0.0346585
-0.0351393
-0.035638
-0.0361283
-0.0366882
-0.0371863
-0.00951608
-0.0107983
-0.0123355
-0.0140215
-0.015769
-0.0175139
-0.0192806
-0.0209884
-0.022666
-0.0242225
-0.0256909
-0.026992
-0.028181
-0.0292103
-0.0301501
-0.0309481
-0.0316793
-0.0323091
-0.0329111
-0.0334424
-0.0339657
-0.0344509
-0.0349503
-0.0354293
-0.0359258
-0.0364206
-0.0369345
-0.0374409
-0.0380175
-0.0385331
-0.0097273
-0.0110436
-0.0126343
-0.0143876
-0.0162103
-0.0180322
-0.0198788
-0.0216656
-0.0234214
-0.025051
-0.0265878
-0.0279495
-0.0291929
-0.0302684
-0.031249
-0.0320802
-0.0328402
-0.0334933
-0.0341162
-0.0346647
-0.0352042
-0.0357036
-0.0362177
-0.0367104
-0.0372215
-0.0377308
-0.0382608
-0.0387838
-0.0393776
-0.039914
-0.0099259
-0.011277
-0.0129229
-0.0147453
-0.0166443
-0.0185452
-0.0204732
-0.022341
-0.0241766
-0.025881
-0.0274876
-0.0289109
-0.0302096
-0.0313318
-0.0323535
-0.0332182
-0.0340072
-0.0346836
-0.0353276
-0.0358933
-0.0364492
-0.0369631
-0.0374921
-0.0379989
-0.0385248
-0.0390492
-0.0395955
-0.0401355
-0.0407469
-0.0413013
-0.01011
-0.0114965
-0.0131994
-0.0150928
-0.0170711
-0.0190534
-0.021066
-0.0230175
-0.0249359
-0.0267178
-0.0283968
-0.0298839
-0.0312399
-0.0324106
-0.0334752
-0.0343748
-0.0351943
-0.0358952
-0.0365614
-0.0371454
-0.0377189
-0.0382484
-0.0387933
-0.0393153
-0.039857
-0.0403972
-0.0409606
-0.0415181
-0.0421474
-0.0427235
-0.0102796
-0.0117025
-0.0134639
-0.0154303
-0.0174893
-0.019555
-0.0216539
-0.0236913
-0.0256944
-0.0275555
-0.0293083
-0.0308605
-0.0322747
-0.0334946
-0.0346025
-0.0355372
-0.0363872
-0.0371128
-0.0378012
-0.0384038
-0.0389949
-0.0395402
-0.0401015
-0.0406389
-0.0411968
-0.0417533
-0.0423341
-0.0429095
-0.0435573
-0.0441521
-0.0104322
-0.0118921
-0.0137139
-0.0157555
-0.0178982
-0.0200501
-0.0222387
-0.024365
-0.026456
-0.0283992
-0.0302285
-0.0318481
-0.0333227
-0.0345937
-0.0357467
-0.0367181
-0.0376002
-0.0383516
-0.0390637
-0.0396858
-0.0402958
-0.0408581
-0.0414369
-0.0419908
-0.0425659
-0.0431393
-0.0437384
-0.0443323
-0.0449989
-0.045616
-0.0105683
-0.012066
-0.0139501
-0.0160689
-0.0182969
-0.0205372
-0.0228174
-0.025035
-0.0272161
-0.0292433
-0.0311508
-0.032839
-0.034375
-0.0356977
-0.0368963
-0.0379046
-0.0388189
-0.0395962
-0.0403319
-0.0409738
-0.0416029
-0.0421825
-0.042779
-0.0433498
-0.0439425
-0.0445334
-0.0451511
-0.0457639
-0.0464499
-0.0470864
-0.0106844
-0.0122206
-0.0141689
-0.0163674
-0.0186841
-0.0210158
-0.0233913
-0.0257036
-0.0279781
-0.0300923
-0.0320809
-0.0338403
-0.0354401
-0.0368165
-0.0380625
-0.0391093
-0.0400574
-0.0408621
-0.0416228
-0.0422855
-0.042935
-0.0435331
-0.0441487
-0.0447375
-0.0453488
-0.045958
-0.046595
-0.0472273
-0.047933
-0.0485928
-0.0107813
-0.012357
-0.0143714
-0.0166519
-0.0190591
-0.0214849
-0.0239579
-0.0263675
-0.0287378
-0.0309413
-0.0330125
-0.0348445
-0.036509
-0.0379399
-0.0392337
-0.0403194
-0.0413013
-0.0421334
-0.0429191
-0.0436029
-0.044273
-0.0448898
-0.0455249
-0.0461321
-0.0467626
-0.0473905
-0.0480473
-0.0486994
-0.0494255
-0.0501055
-0.0108549
-0.0124704
-0.0145531
-0.0169184
-0.0194201
-0.0219433
-0.024518
-0.0270286
-0.0294983
-0.0317942
-0.0339512
-0.0358584
-0.0375902
-0.0390777
-0.0404213
-0.0415474
-0.042565
-0.0434258
-0.044238
-0.0449442
-0.0456362
-0.0462731
-0.0469289
-0.0475558
-0.0482064
-0.0488539
-0.0495313
-0.0502039
-0.0509506
-0.0516547
-0.0109065
-0.0125626
-0.0147154
-0.0171683
-0.0197667
-0.0223905
-0.0250695
-0.027684
-0.0302556
-0.0326463
-0.0348909
-0.0368747
-0.0386748
-0.0402196
-0.0416135
-0.0427804
-0.0438337
-0.0447233
-0.0455619
-0.0462906
-0.0470049
-0.0476622
-0.0483393
-0.0489862
-0.0496575
-0.0503251
-0.0510234
-0.0517169
-0.0524848
-0.0532101
-0.0109309
-0.0126272
-0.014853
-0.0173967
-0.0200964
-0.0228247
-0.0256126
-0.0283349
-0.0310124
-0.0335012
-0.0358367
-0.0378999
-0.039771
-0.0413753
-0.0428216
-0.044031
-0.0451218
-0.0460417
-0.0469084
-0.0476609
-0.0483989
-0.0490781
-0.0497777
-0.050446
-0.051139
-0.0518277
-0.0525477
-0.0532626
-0.0540522
-0.0548025
-0.0109305
-0.0126668
-0.0149676
-0.0176054
-0.0204093
-0.0232459
-0.0261457
-0.028979
-0.0317651
-0.0343545
-0.0367826
-0.0389269
-0.04087
-0.0425346
-0.0440337
-0.0452859
-0.0464143
-0.0473647
-0.0482594
-0.049036
-0.0497979
-0.0504994
-0.0512222
-0.0519124
-0.0526277
-0.0533379
-0.05408
-0.0548167
-0.0556285
-0.0564008
-0.0108995
-0.012675
-0.0150536
-0.0177892
-0.0207025
-0.0236518
-0.0266684
-0.029617
-0.0325158
-0.0352093
-0.0377336
-0.0399617
-0.0419797
-0.0437069
-0.0452612
-0.0465581
-0.047726
-0.0487084
-0.0496327
-0.0504348
-0.0512224
-0.0519477
-0.0526951
-0.0534085
-0.0541472
-0.0548798
-0.0556449
-0.0564039
-0.0572382
-0.0580366
-0.0108411
-0.0126558
-0.0151136
-0.0179506
-0.0209766
-0.0240427
-0.0271796
-0.030247
-0.0332613
-0.0360614
-0.0386838
-0.0409975
-0.0430915
-0.0448821
-0.0464919
-0.0478339
-0.0490414
-0.0500559
-0.05101
-0.0518379
-0.0526515
-0.0534012
-0.0541738
-0.0549109
-0.0556737
-0.0564291
-0.0572176
-0.0579992
-0.0588565
-0.0596779
-0.0107496
-0.0126024
-0.0151421
-0.0180842
-0.0212284
-0.0244163
-0.0276786
-0.0308691
-0.0340032
-0.0369136
-0.0396377
-0.04204
-0.0442129
-0.0460695
-0.0477374
-0.0491263
-0.0503755
-0.0514239
-0.0524094
-0.0532647
-0.0541061
-0.0548817
-0.0556811
-0.0564435
-0.0572315
-0.0580107
-0.0588232
-0.0596281
-0.0605087
-0.0613569
-0.0106292
-0.0125198
-0.0151428
-0.0181937
-0.0214596
-0.0247734
-0.0281647
-0.0314818
-0.0347386
-0.0377619
-0.0405897
-0.0430822
-0.0453354
-0.0472588
-0.0489852
-0.0504216
-0.0517126
-0.052795
-0.0538122
-0.0546952
-0.055565
-0.0563671
-0.0571941
-0.0579822
-0.058796
-0.0595995
-0.0604364
-0.0612647
-0.062169
-0.063041
-0.0104741
-0.0124019
-0.0151106
-0.0182738
-0.0216667
-0.0251113
-0.0286366
-0.0320849
-0.0354685
-0.0386086
-0.0415438
-0.0441298
-0.0464663
-0.0484593
-0.0502468
-0.0517328
-0.0530679
-0.0541862
-0.055237
-0.0561495
-0.0570494
-0.0578799
-0.058736
-0.0595514
-0.0603923
-0.061221
-0.062083
-0.0629353
-0.0638635
-0.0647633
-0.0102898
-0.0122554
-0.0150507
-0.0183292
-0.0218521
-0.0254315
-0.0290943
-0.032677
-0.0361904
-0.0394498
-0.0424945
-0.0451758
-0.047597
-0.0496605
-0.0515097
-0.0530458
-0.0544252
-0.0555797
-0.0566644
-0.0576071
-0.0585378
-0.0593973
-0.0602833
-0.0611267
-0.0619952
-0.0628495
-0.063737
-0.0646134
-0.0655658
-0.0664903
-0.0100705
-0.0120743
-0.0149583
-0.018355
-0.0220126
-0.025731
-0.0295361
-0.0332575
-0.0369049
-0.0402873
-0.0434456
-0.0462255
-0.0487347
-0.0508717
-0.0527855
-0.054374
-0.0558002
-0.056993
-0.0581137
-0.0590884
-0.060052
-0.0609424
-0.0618601
-0.0627329
-0.0636304
-0.0645113
-0.0654249
-0.0663259
-0.0673027
-0.0682549
-0.00982235
-0.0118663
-0.0148398
-0.0183567
-0.0221512
-0.0260119
-0.0299622
-0.0338255
-0.0376095
-0.0411176
-0.0443914
-0.0472719
-0.0498705
-0.052082
-0.0540612
-0.0557028
-0.0571762
-0.0584079
-0.0595652
-0.0605725
-0.0615698
-0.0624919
-0.0634421
-0.0643452
-0.0652721
-0.06618
-0.0671201
-0.0680457
-0.0690469
-0.0700234
-0.0095392
-0.0116249
-0.01469
-0.0183293
-0.0222643
-0.0262709
-0.0303706
-0.0343796
-0.0383044
-0.0419419
-0.0453354
-0.0483201
-0.0510118
-0.053301
-0.0553487
-0.057046
-0.0585693
-0.0598422
-0.0610384
-0.0620806
-0.0631137
-0.0640696
-0.0650541
-0.0659889
-0.0669467
-0.0678825
-0.0688497
-0.0698006
-0.0708261
-0.0718296
-0.00922813
-0.0113585
-0.0145159
-0.0182789
-0.0223556
-0.0265104
-0.0307619
-0.0349193
-0.0389873
-0.0427568
-0.046272
-0.0493629
-0.0521492
-0.0545175
-0.0566345
-0.0583885
-0.0599625
-0.0612773
-0.0625132
-0.0635912
-0.0646611
-0.0656517
-0.0666714
-0.0676387
-0.0686279
-0.069592
-0.0705865
-0.0715627
-0.0726126
-0.0736402
-0.00888239
-0.0110597
-0.0143119
-0.0181997
-0.0224208
-0.0267265
-0.0311334
-0.0354426
-0.0396578
-0.0435631
-0.0472044
-0.0504055
-0.0532904
-0.0557412
-0.057931
-0.0597446
-0.0613721
-0.0627316
-0.0640099
-0.0651261
-0.0662352
-0.0672624
-0.0683193
-0.0693206
-0.0703426
-0.0713359
-0.0723585
-0.0733605
-0.0744352
-0.0754902
-0.00850947
-0.010737
-0.0140847
-0.0180982
-0.0224638
-0.026922
-0.031486
-0.0359494
-0.0403139
-0.0443574
-0.0481269
-0.0514402
-0.0544254
-0.0569604
-0.0592243
-0.0610986
-0.0627807
-0.064186
-0.0655078
-0.0666633
-0.0678126
-0.0688776
-0.0699725
-0.0710087
-0.072064
-0.0730868
-0.0741375
-0.0751654
-0.076265
-0.0773452
-0.00810164
-0.0103818
-0.0138274
-0.0179673
-0.0224796
-0.0270923
-0.0318163
-0.036437
-0.0409547
-0.0451403
-0.0490427
-0.0524724
-0.0555622
-0.0581851
-0.0605268
-0.0624653
-0.0642054
-0.0656595
-0.0670277
-0.0682252
-0.0694172
-0.0705221
-0.0716569
-0.0727296
-0.0738196
-0.0748729
-0.0759525
-0.0770068
-0.0781319
-0.0792406
-0.00766694
-0.0100026
-0.0135469
-0.0178135
-0.022472
-0.0272402
-0.0321255
-0.0369054
-0.0415782
-0.0459082
-0.0499456
-0.053494
-0.0566905
-0.0594033
-0.0618244
-0.0638286
-0.065628
-0.0671323
-0.0685485
-0.0697893
-0.0710252
-0.072171
-0.0733469
-0.0744569
-0.0755821
-0.0766661
-0.0777747
-0.0788554
-0.0800062
-0.0811411
-0.00719643
-0.00958911
-0.0132344
-0.0176285
-0.0224352
-0.0273604
-0.0324096
-0.0373515
-0.0421834
-0.0466617
-0.0508391
-0.0545107
-0.0578186
-0.0606254
-0.0631302
-0.0652037
-0.0670662
-0.0686243
-0.0700917
-0.0713787
-0.0726611
-0.0738501
-0.0750688
-0.0762178
-0.0773796
-0.0784954
-0.0796336
-0.0807413
-0.0819184
-0.0830831
-0.00669817
-0.00914998
-0.0128967
-0.0174187
-0.0223729
-0.0274558
-0.0326697
-0.0377753
-0.0427679
-0.047397
-0.0517165
-0.0555139
-0.0589354
-0.0618386
-0.0644291
-0.0665739
-0.0685013
-0.0701149
-0.0716354
-0.0729702
-0.0743003
-0.0755337
-0.0767964
-0.0779852
-0.0791842
-0.0803319
-0.0814997
-0.0826345
-0.0838382
-0.0850304
-0.00616159
-0.00867316
-0.0125235
-0.0171742
-0.0222782
-0.0275203
-0.0329014
-0.0381734
-0.0433309
-0.0481148
-0.0525819
-0.0565098
-0.06005
-0.0630543
-0.065735
-0.0679554
-0.0699518
-0.0716248
-0.0732019
-0.0745877
-0.0759682
-0.0772481
-0.0785568
-0.0797871
-0.0810245
-0.0822052
-0.0834033
-0.0845658
-0.0857967
-0.08702
-0.00559522
-0.00816759
-0.0121217
-0.0169018
-0.0221549
-0.027557
-0.0331059
-0.0385459
-0.0438697
-0.0488111
-0.0534278
-0.0574891
-0.0611507
-0.0642588
-0.0670322
-0.0693306
-0.0713981
-0.0731328
-0.0747688
-0.0762072
-0.0776394
-0.078967
-0.080323
-0.0815956
-0.0828723
-0.0840862
-0.0853144
-0.0865044
-0.087763
-0.089015
-0.00498693
-0.00761961
-0.0116799
-0.0165905
-0.0219954
-0.027559
-0.0332783
-0.0388889
-0.0443837
-0.0494867
-0.0542589
-0.0584587
-0.0622472
-0.0654642
-0.0683354
-0.0707164
-0.0728596
-0.0746602
-0.0763589
-0.0778533
-0.0793398
-0.0807175
-0.0821225
-0.0834393
-0.0847565
-0.0860047
-0.0872637
-0.0884819
-0.0897686
-0.0910529
-0.00434554
-0.00703882
-0.0112052
-0.0162474
-0.0218036
-0.0275297
-0.0334201
-0.039203
-0.0448701
-0.0501373
-0.0550672
-0.0594087
-0.063327
-0.0666561
-0.069628
-0.0720943
-0.0743158
-0.0761848
-0.077949
-0.0795014
-0.0810435
-0.0824723
-0.0839279
-0.08529
-0.0866484
-0.0879311
-0.0892208
-0.0904671
-0.0917821
-0.0930962
-0.00365714
-0.00641035
-0.0106851
-0.0158605
-0.0215713
-0.0274617
-0.0335259
-0.0394838
-0.0453283
-0.0507645
-0.0558585
-0.060347
-0.064401
-0.0678476
-0.0709258
-0.0734826
-0.0757871
-0.0777291
-0.0795627
-0.0811765
-0.0827768
-0.0842591
-0.0857672
-0.0871763
-0.0885774
-0.0898957
-0.0912166
-0.0924915
-0.0938352
-0.0951824
-0.00293154
-0.00574444
-0.0101276
-0.0154377
-0.021303
-0.0273588
-0.0335976
-0.0397325
-0.0457556
-0.0513634
-0.0566237
-0.0612626
-0.0654555
-0.0690233
-0.0722111
-0.0748615
-0.0772518
-0.0792697
-0.081176
-0.0828535
-0.0845132
-0.0860501
-0.0876125
-0.0890697
-0.0905144
-0.0918686
-0.0932208
-0.0945242
-0.0958965
-0.0972737
-0.00215318
-0.00502504
-0.00951948
-0.014966
-0.0209898
-0.0272133
-0.0336296
-0.0399444
-0.046152
-0.0519363
-0.0573697
-0.0621648
-0.0665027
-0.0701975
-0.073501
-0.0762504
-0.0787315
-0.0808299
-0.082813
-0.0845579
-0.0862793
-0.0878732
-0.0894918
-0.0909992
-0.0924891
-0.0938802
-0.0952642
-0.0965964
-0.0979974
-0.0994069
-0.00133279
-0.00426352
-0.00886944
-0.0144545
-0.0206368
-0.0270294
-0.0336244
-0.0401212
-0.0465143
-0.0524781
-0.0580868
-0.0630413
-0.0675277
-0.0713534
-0.0747765
-0.0776284
-0.0802031
-0.0823852
-0.0844489
-0.0862636
-0.0880481
-0.0897001
-0.0913769
-0.0929358
-0.0944719
-0.0959003
-0.0973162
-0.0986772
-0.100106
-0.101545
-0.000452803
-0.00344285
-0.00816345
-0.0138895
-0.0202348
-0.0267991
-0.033576
-0.0402581
-0.0468434
-0.052992
-0.0587833
-0.0639032
-0.0685442
-0.0725071
-0.0760562
-0.0790162
-0.0816894
-0.0839599
-0.0861084
-0.0879968
-0.0898466
-0.091559
-0.0932959
-0.0949081
-0.0964924
-0.0979589
-0.0994074
-0.100798
-0.102255
-0.103723
0.000474007
-0.00257552
-0.00741172
-0.0132811
-0.0197898
-0.0265275
-0.0334876
-0.0403573
-0.0471357
-0.0534722
-0.0594482
-0.0647369
-0.0695359
-0.07364
-0.0773195
-0.0803914
-0.083166
-0.0855278
-0.0877653
-0.0897299
-0.0916468
-0.0934209
-0.0952198
-0.0968867
-0.0985199
-0.100025
-0.101507
-0.102926
-0.10441
-0.105905
0.00146445
-0.00164433
-0.00659979
-0.0126152
-0.0192922
-0.0262062
-0.0333531
-0.0404142
-0.0473933
-0.0539232
-0.0600917
-0.0655552
-0.0705183
-0.0747699
-0.0785867
-0.0817766
-0.084657
-0.0871148
-0.0894453
-0.09149
-0.093476
-0.0953139
-0.0971765
-0.0988998
-0.100584
-0.10213
-0.103644
-0.105094
-0.106605
-0.108127
0.00250417
-0.000663805
-0.00573925
-0.0119033
-0.0187491
-0.0258412
-0.0331764
-0.0404315
-0.0476119
-0.0543385
-0.0607014
-0.0663429
-0.0714733
-0.0758765
-0.0798354
-0.0831473
-0.0861364
-0.0886927
-0.0911201
-0.0932476
-0.0953049
-0.0972082
-0.0991359
-0.100917
-0.102652
-0.104239
-0.105788
-0.107268
-0.108806
-0.110352
0.00360995
0.000383004
-0.00481549
-0.011131
-0.0181505
-0.025424
-0.0329515
-0.0404047
-0.047795
-0.0547241
-0.0612896
-0.0671152
-0.0724187
-0.0769796
-0.0810881
-0.084528
-0.08763
-0.0902889
-0.0928168
-0.0950302
-0.097161
-0.0991314
-0.101125
-0.102965
-0.104751
-0.106382
-0.107967
-0.109479
-0.111045
-0.112617
0.00476577
0.00148007
-0.00384209
-0.0103112
-0.0175047
-0.0249613
-0.0326828
-0.0403369
-0.0479376
-0.0550725
-0.0618424
-0.0678551
-0.0733342
-0.0780567
-0.0823193
-0.0858912
-0.0891091
-0.0918727
-0.0945038
-0.0968059
-0.0990125
-0.101052
-0.103113
-0.105011
-0.106849
-0.108524
-0.110147
-0.111695
-0.11329
-0.114886
0.00598612
0.00264356
-0.00280454
-0.00942945
-0.0168018
-0.0244447
-0.0323644
-0.0402239
-0.0480445
-0.0553914
-0.0623744
-0.06858
-0.0742405
-0.07913
-0.0835546
-0.0872646
-0.090602
-0.0934735
-0.09621
-0.0986038
-0.100887
-0.102999
-0.105126
-0.107084
-0.108974
-0.110697
-0.112361
-0.113947
-0.115574
-0.117201
0.00725387
0.00385525
-0.00171809
-0.00850018
-0.0160508
-0.0238817
-0.0320014
-0.0400696
-0.0481101
-0.0556721
-0.0628694
-0.0692708
-0.0751145
-0.0801743
-0.0847639
-0.0886157
-0.0920758
-0.095057
-0.0978994
-0.100388
-0.102751
-0.104936
-0.10713
-0.109149
-0.111091
-0.112866
-0.114575
-0.116203
-0.117866
-0.119524
0.00858238
0.00513092
-0.000568154
-0.00750865
-0.0152421
-0.0232641
-0.031588
-0.0398696
-0.0481407
-0.055924
-0.0633447
-0.0699476
-0.0759803
-0.0812151
-0.0859776
-0.0899762
-0.0935622
-0.0966551
-0.0996023
-0.102187
-0.104631
-0.106893
-0.109154
-0.111235
-0.11323
-0.115061
-0.11682
-0.118497
-0.1202
-0.121897
0.00995395
0.00645146
0.000628218
-0.00647077
-0.0143857