/*--------------------------------*- C++ -*----------------------------------*\
  =========                 |
  \\      /  F ield         | OpenFOAM: The Open Source CFD Toolbox
   \\    /   O peration     | Website:  https://openfoam.org
    \\  /    A nd           | Version:  6.0
     \\/     M anipulation  |
\*---------------------------------------------------------------------------*/
FoamFile
{
    version     2.0;
    format      ascii;
    class       surfaceScalarField;
    location    "11";
    object      phi;
}
// * * * * * * * * * * * * * * * * * * * * * * * * * * * * * * * * * * * * * //

dimensions      [0 3 -1 0 0 0 0];

internalField   nonuniform List<scalar> 
93586
(
2.34469e-05
0.00154672
-1.00904e-07
4.70775e-05
0.00154217
7.08279e-05
0.00153354
9.45509e-05
0.00152082
0.000118134
0.00150396
0.000141506
0.00148294
0.000164585
0.00145777
0.000187293
0.00142854
0.000209535
0.00139534
0.000231224
0.00135833
0.000252273
0.00131765
0.000272618
0.0012734
0.000292198
0.0012257
0.000310965
0.00117464
0.000328871
0.00112032
0.000345875
0.00106284
0.000361929
0.00100235
0.000376993
0.00093902
0.000391021
0.000873036
0.000403973
0.000804597
0.00041581
0.000733922
0.000426499
0.000661217
0.000436006
0.000586701
0.000444305
0.000510577
0.000451371
0.000433047
0.000457187
0.000354309
0.000461721
0.000274509
0.000465154
0.000193638
0.000466708
0.000112488
2.88732e-05
0.000461316
2.2986e-05
0.00152381
-7.99602e-08
4.619e-05
0.00151897
6.95453e-05
0.00151019
9.29118e-05
0.00149746
0.000116173
0.00148071
0.000139244
0.00145989
0.000162026
0.00143501
0.000184429
0.00140616
0.000206348
0.00137344
0.000227703
0.001337
0.000248409
0.00129695
0.000268416
0.00125341
0.000287668
0.00120646
0.000306127
0.00115619
0.000323746
0.0011027
0.000340487
0.0010461
0.000356301
0.000986539
0.000371147
0.000924175
0.000384974
0.000859204
0.000397746
0.000791821
0.000409419
0.00072224
0.000419961
0.000650666
0.000429338
0.000577311
0.000437524
0.000502376
0.000444494
0.00042606
0.000450234
0.000348548
0.000454705
0.000270014
0.00045787
0.000190446
0.000459409
0.000110919
2.96471e-05
0.000458591
2.2572e-05
0.00150128
-3.87098e-08
4.54161e-05
0.00149613
6.84309e-05
0.00148717
9.14746e-05
0.00147442
0.000114421
0.00145776
0.000137175
0.00143714
0.000159626
0.00141255
0.000181682
0.0013841
0.000203244
0.00135187
0.000224239
0.00131601
0.000244593
0.0012766
0.000264263
0.00123374
0.0002832
0.00118752
0.000301368
0.00113803
0.000318719
0.00108535
0.000335214
0.00102961
0.0003508
0.000970951
0.000365436
0.000909541
0.000379069
0.00084557
0.000391662
0.000779231
0.00040317
0.000710732
0.000413563
0.000640276
0.000422805
0.000568072
0.000430874
0.000494313
0.000437739
0.0004192
0.000443387
0.000342909
0.000447785
0.000265625
0.000450833
0.00018741
0.000452414
0.000109352
3.00639e-05
0.000452026
2.2213e-05
0.00147907
-6.01714e-09
4.47346e-05
0.00147361
6.74302e-05
0.00146448
9.01531e-05
0.00145171
0.000112771
0.00143515
0.000135182
0.00141474
0.000157276
0.00139047
0.000178966
0.00136243
0.00020016
0.00133069
0.000220794
0.00129539
0.000240804
0.00125659
0.000260152
0.0012144
0.000278789
0.00116889
0.000296681
0.00112014
0.000313775
0.00106826
0.000330032
0.00101336
0.000345397
0.000955587
0.000359825
0.000895114
0.000373266
0.000832126
0.000385679
0.000766815
0.000397023
0.000699383
0.000407264
0.000630028
0.000416369
0.000558956
0.000424314
0.000486358
0.000431071
0.000412429
0.000436618
0.000337347
0.000440926
0.000261298
0.000443922
0.000184393
0.000445493
0.000107756
3.03795e-05
0.00044514
2.18829e-05
0.00145718
1.23823e-08
4.4091e-05
0.0014514
6.64676e-05
0.0014421
8.88616e-05
0.00142932
0.000111138
0.00141287
0.000133194
0.00139269
0.000154923
0.00136874
0.000176245
0.00134111
0.000197077
0.00130985
0.000217364
0.0012751
0.000237045
0.00123691
0.000256086
0.00119536
0.000274438
0.00115054
0.000292063
0.00110252
0.00030891
0.00105141
0.000324935
0.000997332
0.000340082
0.000940438
0.000354306
0.000880892
0.000367555
0.000818877
0.00037979
0.000754583
0.000390967
0.000688208
0.000401057
0.000619944
0.000410024
0.000549994
0.000417846
0.000478544
0.000424494
0.00040579
0.000429943
0.000331909
0.000434164
0.00025709
0.000437102
0.000181471
0.000438725
0.000106152
3.04557e-05
0.000438682
2.15642e-05
0.0014356
1.9839e-08
4.34563e-05
0.00142952
6.55079e-05
0.00142005
8.75656e-05
0.00140727
0.000109494
0.00139095
0.000131193
0.001371
0.000152561
0.00134737
0.000173524
0.00132016
0.000194008
0.00128938
0.000213963
0.00125515
0.000233332
0.00121755
0.000252081
0.00117662
0.000270159
0.00113246
0.000287529
0.00108515
0.000304135
0.00103481
0.000319933
0.000981539
0.000334864
0.000925507
0.000348885
0.000866872
0.000361943
0.000805817
0.000374
0.000742524
0.000385012
0.00067719
0.000394951
0.00061
0.000403781
0.000541155
0.000411481
0.000470836
0.000418021
0.000399238
0.000423379
0.000326539
0.00042752
0.000252931
0.000430402
0.000178572
0.000432053
0.00010448
3.0182e-05
0.000432293
2.12498e-05
0.00141431
3.02305e-08
4.28215e-05
0.00140794
6.45428e-05
0.00139833
8.62602e-05
0.00138555
0.00010784
0.00136936
0.000129185
0.00134965
0.000150201
0.00132635
0.000170819
0.00129954
0.000190971
0.00126922
0.00021061
0.00123551
0.000229682
0.00119847
0.000248151
0.00115815
0.000265967
0.00111464
0.000283088
0.00106803
0.000299458
0.00101843
0.000315031
0.000965966
0.000329749
0.000910787
0.000343569
0.000853055
0.000356435
0.00079295
0.000368314
0.00073065
0.000379161
0.000666345
0.000388949
0.000600219
0.000397643
0.000532467
0.000405221
0.000463268
0.000411654
0.000392815
0.00041692
0.000321287
0.000420988
0.000248878
0.000423817
0.000175762
0.000425461
0.000102856
2.98189e-05
0.00042586
2.09373e-05
0.00139335
3.19965e-08
4.21847e-05
0.0013867
6.35729e-05
0.00137694
8.49494e-05
0.00136418
0.000106184
0.00134814
0.000127182
0.00132867
0.000147857
0.00130569
0.000168144
0.00127926
0.000187979
0.00124939
0.000207317
0.00121618
0.000226105
0.00117968
0.000244306
0.00113996
0.000261866
0.00109708
0.000278744
0.00105116
0.000294881
0.0010023
0.000310231
0.00095062
0.000324737
0.000896281
0.000338354
0.00083944
0.000351029
0.000780271
0.00036273
0.000718948
0.000373411
0.000655658
0.000383048
0.000590579
0.000391604
0.000523903
0.000399059
0.000455805
0.000405385
0.000386477
0.00041056
0.0003161
0.000414555
0.000244868
0.000417336
0.000172965
0.000418953
0.000101219
2.93342e-05
0.000419406
2.06258e-05
0.00137269
2.22839e-08
4.15468e-05
0.00136577
6.26015e-05
0.00135588
8.36396e-05
0.00134314
0.000104534
0.00132724
0.000125196
0.001308
0.000145541
0.00128533
0.000165511
0.00125929
0.000185042
0.00122985
0.000204092
0.00119713
0.000222605
0.00116116
0.000240545
0.00112201
0.000257855
0.00107977
0.000274494
0.00103452
0.000290399
0.000986385
0.000305527
0.000935491
0.000319819
0.000881987
0.000333234
0.000826028
0.000345718
0.000767786
0.000357239
0.000707432
0.000367754
0.000645146
0.000377239
0.000581102
0.000385657
0.000515491
0.00039299
0.000448484
0.000399208
0.00038027
0.000404293
0.000311031
0.000408215
0.000240961
0.000410949
0.000170251
0.000412532
9.96585e-05
2.89158e-05
0.000412988
2.03151e-05
0.00135237
7.5062e-09
4.091e-05
0.00134518
6.16334e-05
0.00133516
8.23378e-05
0.00132245
0.0001029
0.00130668
0.000123235
0.00128768
0.000143263
0.00126531
0.000162927
0.00123964
0.000182165
0.00121062
0.000200937
0.00117837
0.000219183
0.00114292
0.000236867
0.00110434
0.000253931
0.00106271
0.000270331
0.00101813
0.000286006
0.000970712
0.000300912
0.00092059
0.00031499
0.000867908
0.000328201
0.000812819
0.000340493
0.000755491
0.000351835
0.00069609
0.000362184
0.000634791
0.000371516
0.000571767
0.000379796
0.000507202
0.000387007
0.000441267
0.000393118
0.000374147
0.000398113
0.000306026
0.000401965
0.000237095
0.000404653
0.000167549
0.000406199
9.80937e-05
2.8456e-05
0.000406629
2.0006e-05
0.00133237
-5.75712e-09
4.02772e-05
0.00132491
6.06737e-05
0.00131476
8.10509e-05
0.00130206
0.00010129
0.00128643
0.000121308
0.00126766
0.000141028
0.00124558
0.000160396
0.00122027
0.000179352
0.00119165
0.000197851
0.00115987
0.000215836
0.00112493
0.000233268
0.0010869
0.000250087
0.00104588
0.000266249
0.00100196
0.000281693
0.000955262
0.000296376
0.000905906
0.000310241
0.00085404
0.000323249
0.000799814
0.000335348
0.000743391
0.00034651
0.000684933
0.000356693
0.000624612
0.000365873
0.000562595
0.000374017
0.000499065
0.000381106
0.00043419
0.000387112
0.000368153
0.000392018
0.000301136
0.0003958
0.00023333
0.000398442
0.000164929
0.000399952
9.66064e-05
2.80931e-05
0.000400353
1.96992e-05
0.00131269
-1.66532e-08
3.96513e-05
0.00130496
5.97268e-05
0.00129469
7.97842e-05
0.00128202
9.97079e-05
0.00126652
0.000119419
0.00124796
0.000138841
0.00122617
0.000157922
0.0012012
0.000176601
0.00117298
0.000194833
0.00114164
0.00021256
0.0011072
0.000229741
0.00106973
0.000246316
0.00102931
0.00026224
0.000986044
0.000277454
0.000940049
0.000291914
0.00089145
0.000305565
0.000840389
0.00031837
0.000787013
0.000330277
0.00073148
0.000341261
0.00067395
0.000351278
0.00061459
0.000360308
0.000553563
0.000368315
0.00049105
0.000375284
0.000427215
0.000381186
0.000362241
0.000386006
0.000296307
0.00038972
0.000229602
0.000392315
0.000162321
0.000393792
9.51124e-05
2.76941e-05
0.000394162
1.93959e-05
0.00129331
-2.73214e-08
3.90346e-05
0.00128531
5.8796e-05
0.00127492
7.85416e-05
0.00126226
9.81586e-05
0.00124689
0.00011757
0.00122854
0.000136702
0.00120703
0.000155502
0.00118239
0.000173909
0.00115456
0.000191878
0.00112367
0.000209349
0.00108972
0.00022628
0.00105279
0.000242611
0.00101297
0.000258299
0.000970355
0.000273281
0.00092506
0.000287519
0.000877212
0.000300957
0.000826948
0.000313559
0.000774413
0.000325276
0.000719762
0.000336081
0.00066315
0.000345934
0.00060474
0.000354815
0.000544691
0.000362689
0.000483183
0.000369539
0.000420377
0.000375339
0.000356453
0.000380075
0.000291589
0.000383722
0.000225971
0.000386272
0.000159794
0.000387717
9.36914e-05
2.73851e-05
0.000388065
1.90966e-05
0.00127426
-3.40763e-08
3.84287e-05
0.00126599
5.78834e-05
0.00125547
7.73249e-05
0.00124283
9.66431e-05
0.00122758
0.000115763
0.00120943
0.000134611
0.00118818
0.000153135
0.00116388
0.000171274
0.00113643
0.000188982
0.00110597
0.000206198
0.00107251
0.000222881
0.00103612
0.000238968
0.000996886
0.000254418
0.000954911
0.00026917
0.000910309
0.000283187
0.0008632
0.000296412
0.000813723
0.000308812
0.000762016
0.00032034
0.000708232
0.000330969
0.000652521
0.000340661
0.000595043
0.000349394
0.000535956
0.000357136
0.000475434
0.000363871
0.000413637
0.000369571
0.000350743
0.000374224
0.000286928
0.000377807
0.000222375
0.000380312
0.000157277
0.000381728
9.2259e-05
2.70297e-05
0.000382056
1.88021e-05
0.00125548
-3.50808e-08
3.78345e-05
0.00124695
5.69899e-05
0.00123631
7.61347e-05
0.00122368
9.5161e-05
0.00120854
0.000113995
0.00119059
0.000132564
0.0011696
0.000150817
0.00114562
0.000168691
0.00111855
0.00018614
0.00108852
0.000203102
0.00105554
0.000219535
0.00101968
0.00023538
0.000981033
0.000250593
0.000939695
0.000265116
0.000895779
0.000278912
0.000849404
0.000291926
0.000800705
0.000304127
0.000749818
0.000315467
0.000696891
0.000325923
0.00064207
0.000335455
0.000585515
0.000344044
0.000527377
0.000351655
0.000467829
0.000358277
0.000407029
0.00036388
0.000345152
0.000368453
0.000282373
0.000371974
0.000218872
0.000374435
0.00015484
0.000375824
9.08945e-05
2.67533e-05
0.000376141
1.85124e-05
0.00123701
-3.15415e-08
3.72523e-05
0.00122822
5.61155e-05
0.00121745
7.49704e-05
0.00120484
9.3711e-05
0.00118981
0.000112265
0.00117205
0.00013056
0.00115132
0.000148544
0.00112765
0.000166154
0.00110094
0.000183345
0.00107133
0.000200054
0.00103883
0.000216241
0.0010035
0.000231843
0.000965433
0.000246821
0.000924724
0.000261115
0.000881485
0.000274692
0.000835833
0.000287497
0.000787899
0.000299501
0.000737817
0.000310657
0.000685732
0.000320942
0.000631787
0.000330316
0.000576136
0.000338763
0.000518929
0.000346248
0.000460337
0.000352758
0.000400515
0.000358266
0.000339635
0.000362762
0.000277871
0.000366222
0.000215399
0.000368641
0.00015241
0.000370006
8.95142e-05
2.64218e-05
0.000370312
1.82279e-05
0.0012188
-2.61454e-08
3.66821e-05
0.00120975
5.52596e-05
0.00119886
7.38306e-05
0.00118626
9.2291e-05
0.00117134
0.000110569
0.00115377
0.000128593
0.00113328
0.000146311
0.00110993
0.00016366
0.00108358
0.000180595
0.00105439
0.000197052
0.00102236
0.000212992
0.000987557
0.000228353
0.000950063
0.000243097
0.000909977
0.000257165
0.000867409
0.000270525
0.000822472
0.000283124
0.000775297
0.000294934
0.000726011
0.000305907
0.000674757
0.000316023
0.000621676
0.000325244
0.000566919
0.000333551
0.000510632
0.000340912
0.000452984
0.000347314
0.000394126
0.00035273
0.000334231
0.00035715
0.000273469
0.000360552
0.000212015
0.000362931
0.000150056
0.000364273
8.81975e-05
2.61616e-05
0.000364574
1.79484e-05
0.00120087
-1.90596e-08
3.61232e-05
0.00119158
5.44209e-05
0.00118057
7.27135e-05
0.00116797
9.08984e-05
0.00115316
0.000108904
0.00113577
0.000126661
0.00111553
0.000144115
0.00109248
0.000161205
0.0010665
0.000177885
0.00103772
0.000194091
0.00100616
0.000209786
0.00097187
0.000224907
0.000934943
0.000239419
0.000895472
0.000253264
0.000853564
0.00026641
0.000809332
0.000278805
0.000762901
0.000290423
0.000714397
0.000301218
0.00066396
0.000311169
0.000611727
0.000320238
0.000557846
0.000328409
0.00050246
0.000335648
0.000445737
0.000341945
0.000387827
0.000347271
0.000328897
0.000351618
0.000269117
0.000354963
0.000208658
0.000357304
0.000147706
0.000358625
8.68617e-05
2.58411e-05
0.000358921
1.7674e-05
0.0011832
-1.06532e-08
3.55751e-05
0.00117367
5.35982e-05
0.00116254
7.16172e-05
0.00114995
8.95307e-05
0.00113524
0.000107268
0.00111803
0.000124759
0.00109803
0.000141952
0.00107528
0.000158785
0.00104965
0.000175211
0.00102129
0.000191169
0.000990189
0.00020662
0.000956413
0.000221504
0.000920049
0.000235787
0.000881186
0.00024941
0.000839933
0.000262345
0.000796397
0.00027454
0.000750701
0.00028597
0.00070297
0.000296588
0.00065334
0.000306378
0.000601943
0.000315299
0.000548928
0.000323337
0.000494433
0.000330457
0.000438624
0.000336651
0.000381648
0.000341889
0.000323671
0.000346165
0.00026486
0.000349456
0.000205385
0.000351759
0.000145428
0.000353061
8.55862e-05
2.55874e-05
0.000353357
1.74043e-05
0.0011658
-2.28046e-09
3.50368e-05
0.00115605
5.27901e-05
0.00114479
7.05397e-05
0.00113221
8.81854e-05
0.0011176
0.000105658
0.00110057
0.000122886
0.00108081
0.00013982
0.00105836
0.000156397
0.00103308
0.000172572
0.00100512
0.000188283
0.000974481
0.000203493
0.000941212
0.000218143
0.000905401
0.000232199
0.000867138
0.000245604
0.000826527
0.000258331
0.000783676
0.000270329
0.000738703
0.000281574
0.00069173
0.00029202
0.00064289
0.000301651
0.000592315
0.000310426
0.000540148
0.000318334
0.000486526
0.000325339
0.000431612
0.000331432
0.000375552
0.000336585
0.000318509
0.000340792
0.000260648
0.000344031
0.000202135
0.000346298
0.000143151
0.000347581
8.42893e-05
2.52709e-05
0.000347875
1.71393e-05
0.00114865
4.7735e-09
3.45077e-05
0.00113867
5.19953e-05
0.00112729
6.94792e-05
0.00111471
8.68606e-05
0.0011002
0.00010407
0.00108335
0.000121039
0.00106383
0.000137716
0.00104168
0.000154039
0.00101674
0.000169965
0.000989191
0.000185432
0.000959001
0.000200403
0.000926234
0.000214822
0.000890972
0.000228654
0.000853302
0.000241844
0.000813328
0.000254367
0.000771153
0.000266171
0.000726894
0.000277235
0.00068067
0.000287512
0.000632611
0.000296987
0.000582846
0.000305621
0.000531517
0.000313401
0.000478756
0.000320292
0.000424728
0.000326288
0.000369572
0.000331358
0.000313451
0.000335498
0.000256528
0.000338686
0.000198966
0.000340919
0.000140944
0.000342185
8.30502e-05
2.50185e-05
0.00034248
1.68784e-05
0.00113177
1.05563e-08
3.3987e-05
0.00112157
5.12127e-05
0.00111008
6.84343e-05
0.0010975
8.55543e-05
0.00108309
0.000102504
0.00106641
0.000119216
0.00104712
0.000135639
0.00102526
0.000151711
0.00100068
0.00016739
0.000973522
0.000182615
0.000943779
0.000197351
0.000911506
0.000211541
0.000876784
0.000225152
0.000839698
0.000238132
0.000800349
0.000250453
0.000758837
0.000262067
0.000715279
0.000272953
0.000669789
0.000283065
0.000622496
0.000292388
0.000573526
0.000300883
0.000523017
0.000308538
0.000471102
0.000315319
0.00041794
0.000321219
0.000363671
0.000326208
0.000308453
0.000330284
0.000252449
0.000333422
0.000195817
0.000335622
0.000138736
0.000336871
8.17881e-05
2.47024e-05
0.000337165
1.66218e-05
0.00111512
1.52136e-08
3.3474e-05
0.0011047
5.04411e-05
0.0010931
6.74037e-05
0.00108053
8.42653e-05
0.00106622
0.000100958
0.00104971
0.000117415
0.00103065
0.000133586
0.00100909
0.00014941
0.000984839
0.000164845
0.000958079
0.000179831
0.000928779
0.000194335
0.000896995
0.000208299
0.000862808
0.000221695
0.000826299
0.000234466
0.000787568
0.000246591
0.000746712
0.000258018
0.000703846
0.00026873
0.000659081
0.000278679
0.000612544
0.000287853
0.000564359
0.000296212
0.000514661
0.000303745
0.00046358
0.000310418
0.000411274
0.000316225
0.00035788
0.000321136
0.000303555
0.000325147
0.000248458
0.000328237
0.000192746
0.000330405
0.000136595
0.000331638
8.0582e-05
2.44492e-05
0.000331935
1.63687e-05
0.00109874
1.87007e-08
3.29682e-05
0.00108811
4.96799e-05
0.00107639
6.63865e-05
0.00106383
8.29924e-05
0.00104962
9.94314e-05
0.00103328
0.000115636
0.00101445
0.000131558
0.000993176
0.000147136
0.000969265
0.00016233
0.000942894
0.000177081
0.000914031
0.000191356
0.000882729
0.000205099
0.000849067
0.000218281
0.000813125
0.000230848
0.000775
0.000242779
0.000734788
0.000254024
0.0006926
0.000264564
0.000648546
0.000274355
0.000602751
0.000283383
0.000555334
0.000291608
0.000506431
0.000299023
0.000456167
0.00030559
0.0004047
0.000311305
0.000352164
0.000316139
0.000298713
0.000320089
0.000244505
0.000323132
0.000189693
0.000325269
0.000134451
0.000326487
7.93519e-05
2.41322e-05
0.000326783
1.61195e-05
0.00108258
2.09672e-08
3.24691e-05
0.00107175
4.89285e-05
0.00105992
6.53819e-05
0.00104737
8.17351e-05
0.00103325
9.79227e-05
0.00101709
0.000113878
0.000998483
0.000129554
0.000977491
0.00014489
0.000953915
0.000159846
0.000927929
0.000174365
0.000899497
0.000188414
0.000868672
0.000201939
0.00083553
0.000214911
0.000800149
0.000227278
0.000762623
0.000239019
0.000723046
0.000250085
0.000681528
0.000260457
0.000638177
0.000270092
0.000593113
0.000278977
0.000546456
0.000287072
0.000498337
0.00029437
0.000448881
0.000300834
0.000398243
0.00030646
0.000346554
0.000311218
0.000293967
0.000315108
0.000240636
0.000318105
0.000186714
0.000320212
0.000132371
0.000321415
7.81765e-05
2.38772e-05
0.000321714
1.58734e-05
0.00106669
2.24636e-08
3.19765e-05
0.00105565
4.81864e-05
0.00104372
6.43895e-05
0.00103118
8.04928e-05
0.00101716
9.6432e-05
0.00100116
0.000112141
0.000982782
0.000127574
0.000962071
0.00014267
0.000938823
0.000157392
0.000913217
0.000171682
0.00088521
0.000185509
0.000854854
0.00019882
0.000822221
0.000211586
0.00078739
0.000223757
0.000750452
0.000235311
0.000711499
0.000246201
0.000670638
0.000256409
0.000627975
0.000265891
0.000583628
0.000274636
0.000537715
0.000282603
0.000490365
0.000289787
0.000441701
0.000296149
0.000391874
0.000301688
0.000341015
0.000306373
0.000289274
0.000310204
0.000236803
0.000313157
0.000183752
0.000315234
0.000130288
0.000316422
7.69764e-05
2.35589e-05
0.000316721
1.56308e-05
0.00105103
2.34461e-08
3.14899e-05
0.00103978
4.74533e-05
0.00102774
6.3409e-05
0.00101521
7.92654e-05
0.00100129
9.4959e-05
0.000985456
0.000110425
0.0009673
0.000125617
0.000946869
0.000140478
0.000923947
0.000154969
0.000898716
0.000169034
0.00087113
0.000182643
0.000841237
0.000195742
0.000809109
0.000208307
0.000774821
0.000220284
0.000738464
0.000231655
0.000700126
0.000242372
0.000659914
0.000252419
0.000617931
0.000261751
0.000574293
0.000270359
0.000529115
0.000278201
0.000482524
0.000285272
0.000434641
0.000291536
0.000385617
0.000296989
0.000335578
0.000301602
0.000284673
0.000305375
0.000233052
0.000308284
0.000180862
0.000310333
0.000128267
0.000311507
7.583e-05
2.33022e-05
0.000311808
1.53912e-05
0.00103562
2.41038e-08
3.10094e-05
0.00102417
4.67291e-05
0.00101203
6.24404e-05
0.000999509
7.80527e-05
0.000985683
9.35039e-05
0.000970017
0.00010873
0.000952082
0.000123685
0.000931925
0.000138313
0.000909324
0.000152577
0.000884462
0.00016642
0.000857289
0.000179814
0.000827851
0.000192706
0.000796218
0.000205072
0.000762464
0.00021686
0.000726676
0.000228052
0.000688942
0.000238599
0.000649366
0.000248488
0.000608048
0.000257673
0.000565104
0.000266146
0.000520647
0.000273866
0.0004748
0.000280827
0.000427683
0.000286993
0.000379445
0.000292363
0.000330209
0.000296906
0.000280123
0.000300622
0.000229334
0.000303488
0.000177986
0.000305508
0.000126242
0.000306669
7.46587e-05
2.29829e-05
0.000306969
1.51549e-05
0.00102043
2.44988e-08
3.05349e-05
0.00100877
4.60138e-05
0.000996534
6.14835e-05
0.000984025
7.68548e-05
0.000970295
9.20666e-05
0.000954794
0.000107056
0.000937077
0.000121778
0.000917192
0.000136177
0.000894909
0.000150216
0.000870412
0.000163841
0.000843648
0.000177024
0.000814659
0.000189713
0.000783516
0.000201883
0.000750288
0.000213485
0.000715062
0.0002245
0.000677925
0.000234882
0.000638977
0.000244616
0.000598317
0.000253656
0.00055606
0.000261997
0.000512313
0.000269596
0.000467202
0.00027645
0.000420842
0.000282521
0.00037338
0.000287808
0.000324938
0.000292282
0.000275662
0.000295942
0.000225695
0.000298767
0.00017518
0.000300759
0.000124278
0.000301906
7.35402e-05
2.27248e-05
0.000302209
1.49215e-05
0.00100549
2.48179e-08
3.00662e-05
0.000993637
4.53073e-05
0.000981303
6.05384e-05
0.000968806
7.56719e-05
0.000955171
9.06475e-05
0.000939831
0.000105403
0.000922329
0.000119895
0.000902713
0.000134068
0.000880741
0.000147887
0.000856604
0.000161298
0.00083024
0.000174273
0.000801693
0.000186761
0.000771029
0.000198741
0.000738318
0.000210159
0.000703643
0.000221001
0.000667091
0.000231219
0.000628758
0.000240801
0.000588743
0.000249701
0.000547157
0.000257911
0.000504108
0.000265393
0.000459717
0.00027214
0.000414098
0.000278117
0.000367397
0.000283324
0.000319733
0.00028773
0.000271249
0.000291336
0.000222088
0.00029412
0.000172388
0.000296085
0.000122308
0.000297218
7.23967e-05
2.24051e-05
0.00029752
1.46913e-05
0.000990755
2.51112e-08
2.96035e-05
0.000978707
4.46097e-05
0.000966279
5.96053e-05
0.000953795
7.4504e-05
0.000940255
8.92467e-05
0.000925076
0.000103772
0.000907787
0.000118037
0.000888436
0.000131988
0.000866773
0.00014559
0.00084299
0.000158789
0.000817023
0.000171561
0.000788912
0.000183853
0.000758722
0.000195643
0.000726521
0.000206882
0.000692392
0.000217555
0.000656416
0.000227612
0.000618692
0.000237045
0.000579314
0.000245805
0.000538392
0.000253888
0.000496032
0.000261253
0.000452353
0.000267897
0.000407466
0.000273783
0.000361517
0.00027891
0.000314623
0.000283249
0.000266923
0.000286802
0.000218557
0.000289545
0.000169664
0.000291484
0.000120399
0.000292603
7.13053e-05
2.21464e-05
0.000292907
1.44639e-05
0.000976274
2.54023e-08
2.91467e-05
0.000964034
4.3921e-05
0.000951515
5.86843e-05
0.000939044
7.33514e-05
0.000925597
8.78644e-05
0.000910576
0.000102163
0.000893497
0.000116205
0.000874406
0.000129937
0.000853047
0.000143326
0.000829612
0.000156317
0.000804034
0.000168888
0.00077635
0.000180986
0.000746625
0.000192592
0.000714925
0.000203655
0.000681329
0.00021416
0.000645919
0.00022406
0.00060879
0.000233346
0.000570036
0.000241969
0.000529765
0.000249928
0.000488079
0.000257179
0.000445098
0.00026372
0.000400929
0.000269515
0.000355716
0.000274565
0.000309575
0.000278839
0.000262642
0.000282339
0.000215056
0.000285043
0.000166952
0.000286955
0.000118483
0.000288061
7.01889e-05
2.18267e-05
0.000288364
1.42399e-05
0.000961992
2.56827e-08
2.86958e-05
0.000949559
4.32414e-05
0.00093695
5.77754e-05
0.000924494
7.22141e-05
0.000911141
8.65009e-05
0.000896276
0.000100576
0.000879404
0.000114398
0.000860571
0.000127914
0.000839512
0.000141093
0.000816421
0.000153881
0.000791227
0.000166254
0.000763967
0.000178163
0.000734701
0.000189587
0.000703495
0.000200475
0.000670427
0.000210817
0.000635576
0.000220562
0.000599036
0.000229703
0.000560898
0.000238193
0.00052127
0.000246028
0.000480251
0.000253167
0.000437959
0.000259609
0.0003945
0.000265315
0.000350016
0.000270288
0.000304619
0.000274498
0.000258445
0.000277947
0.00021163
0.000280611
0.000164307
0.000282497
0.000116626
0.00028359
6.91242e-05
2.1568e-05
0.000283895
1.40187e-05
0.000947956
2.59555e-08
2.82511e-05
0.000935337
4.25709e-05
0.000922641
5.68789e-05
0.000910199
7.10925e-05
0.000896936
8.51563e-05
0.000882226
9.90108e-05
0.000865558
0.000112617
0.000846978
0.000125921
0.000826213
0.000138893
0.00080346
0.00015148
0.000778643
0.00016366
0.000751797
0.000175381
0.000722981
0.000186627
0.000692259
0.000197345
0.000659708
0.000207525
0.000625404
0.000217119
0.000589441
0.000226118
0.000551908
0.000234476
0.000512908
0.00024219
0.000472543
0.000249219
0.000430926
0.000255562
0.000388162
0.000261181
0.000344391
0.000266079
0.000299723
0.000270225
0.000254292
0.000273623
0.000208232
0.000276249
0.000161672
0.000278109
0.000114762
0.00027919
6.80343e-05
2.12492e-05
0.000279493
1.38008e-05
0.000934111
2.62201e-08
2.78124e-05
0.000921305
4.19096e-05
0.000908524
5.59948e-05
0.000896097
6.99866e-05
0.000882925
8.38306e-05
0.000868367
9.74683e-05
0.000851901
0.000110861
0.000833572
0.000123957
0.000813097
0.000136726
0.000790678
0.000149115
0.000766234
0.000161104
0.000739797
0.000172642
0.000711426
0.000183712
0.000681183
0.000194262
0.000649142
0.000204284
0.00061538
0.000213728
0.000579987
0.000222588
0.000543051
0.000230816
0.000504674
0.000238411
0.000464955
0.000245332
0.000424006
0.000251578
0.000381929
0.000257111
0.000338863
0.000261935
0.000294916
0.000266019
0.000250221
0.000269368
0.000204907
0.000271956
0.000159103
0.000273791
0.000112957
0.000274858
6.69956e-05
2.09912e-05
0.000275163
1.35858e-05
0.000920508
2.64366e-08
2.73798e-05
0.000907521
4.12576e-05
0.000894657
5.51231e-05
0.000882244
6.88964e-05
0.000869162
8.25241e-05
0.000854754
9.59483e-05
0.000838485
0.000109132
0.000820401
0.000122022
0.000800212
0.000134591
0.00077812
0.000146786
0.000754041
0.000158587
0.000728006
0.000169944
0.000700071
0.000180841
0.000670296
0.000191227
0.000638756
0.000201093
0.000605524
0.00021039
0.000570688
0.000219113
0.000534337
0.000227214
0.00049657
0.000234692
0.000457483
0.000241507
0.000417188
0.000247657
0.000375784
0.000253106
0.000333409
0.000257857
0.000290168
0.00026188
0.000246192
0.00026518
0.000201609
0.00026773
0.000156544
0.000269541
0.000111144
0.000270595
6.59318e-05
2.06737e-05
0.000270898
1.33741e-05
0.000907089
2.66211e-08
2.69534e-05
0.00089392
4.06149e-05
0.000880975
5.4264e-05
0.000868577
6.7822e-05
0.000855584
8.12366e-05
0.000841324
9.44506e-05
0.000825252
0.000107428
0.00080741
0.000120116
0.000787503
0.000132488
0.000765735
0.000144492
0.000742016
0.000156109
0.000716377
0.000167288
0.000688873
0.000178016
0.000659562
0.000188239
0.000628516
0.000197952
0.000595808
0.000207105
0.000561526
0.000215693
0.000525752
0.000223668
0.000488588
0.000231032
0.000450127
0.000237741
0.000410478
0.000243798
0.00036974
0.000249164
0.000328048
0.000253844
0.000285506
0.000257806
0.000242241
0.000261057
0.000198381
0.000263571
0.000154049
0.000265357
0.000109388
0.000266399
6.49187e-05
2.04169e-05
0.000266702
1.31653e-05
0.000893905
2.67288e-08
2.65331e-05
0.000880563
3.99815e-05
0.000867537
5.34175e-05
0.000855154
6.67635e-05
0.000842247
7.99683e-05
0.000828133
9.29754e-05
0.000812253
0.000105749
0.000794649
0.000118239
0.000775019
0.000130418
0.000753567
0.000142234
0.000730203
0.000153669
0.000704952
0.000164674
0.00067787
0.000175234
0.000649012
0.000185298
0.000618451
0.00019486
0.000586256
0.000203871
0.000552513
0.000212326
0.000517306
0.000220178
0.000480732
0.000227429
0.000442884
0.000234035
0.000403868
0.00024
0.000363781
0.000245284
0.000322758
0.000249894
0.0002809
0.000253797
0.000238332
0.000257
0.000195179
0.000259478
0.000151563
0.00026124
0.000107625
0.000262269
6.38805e-05
2.01014e-05
0.00026257
1.29599e-05
0.0008809
2.67981e-08
2.6119e-05
0.000867381
3.93575e-05
0.000854277
5.25835e-05
0.000841909
6.57207e-05
0.000829089
7.8719e-05
0.000815119
9.15225e-05
0.000799428
0.000104097
0.00078206
0.000116391
0.000762703
0.000128379
0.000741565
0.00014001
0.00071855
0.000151267
0.000693683
0.0001621
0.000667018
0.000172495
0.000638609
0.000182403
0.000608527
0.000191817
0.000576839
0.000200688
0.000543632
0.000209012
0.000508984
0.000216743
0.000472994
0.000223883
0.000435752
0.000230388
0.000397362
0.000236262
0.00035792
0.000241466
0.000317559
0.000246006
0.000276377
0.000249851
0.000234499
0.000253007
0.000192047
0.00025545
0.00014914
0.000257187
0.000105918
0.000258204
6.28926e-05
1.98462e-05
0.000258506
1.27573e-05
0.000868124
2.67707e-08
2.57111e-05
0.000854438
3.87428e-05
0.000841257
5.17621e-05
0.000828903
6.46937e-05
0.000816167
7.74887e-05
0.000802338
9.00918e-05
0.000786833
0.000102469
0.000769696
0.000114571
0.000750607
0.000126372
0.000729776
0.000137821
0.000707103
0.000148902
0.000682612
0.000159566
0.000656355
0.0001698
0.000628386
0.000179554
0.000598772
0.000188821
0.000567582
0.000197555
0.000534897
0.000205751
0.000500798
0.000213363
0.000465379
0.000220393
0.000428729
0.000226798
0.000390953
0.000232583
0.000352142
0.000237707
0.000312429
0.00024218
0.000271909
0.000245967
0.000230705
0.000249078
0.000188938
0.000251485
0.000146725
0.000253199
0.000104202
0.000254203
6.18795e-05
1.95329e-05
0.000254503
1.25581e-05
0.000855519
2.67086e-08
2.53094e-05
0.000841663
3.81374e-05
0.000828406
5.0953e-05
0.000816067
6.36824e-05
0.000803416
7.62772e-05
0.000789726
8.86831e-05
0.000774406
0.000100867
0.000757496
0.000112779
0.000738672
0.000124396
0.000718144
0.000135666
0.000695809
0.000146574
0.000671691
0.000157072
0.000645838
0.000167147
0.000618303
0.000176749
0.000589153
0.000185873
0.000558454
0.000194471
0.000526287
0.000202541
0.00049273
0.000210035
0.000457877
0.000216958
0.000421815
0.000223265
0.000384645
0.000228962
0.000346459
0.000234009
0.000307386
0.000238414
0.000267522
0.000242145