/*--------------------------------*- C++ -*----------------------------------*\
  =========                 |
  \\      /  F ield         | OpenFOAM: The Open Source CFD Toolbox
   \\    /   O peration     | Website:  https://openfoam.org
    \\  /    A nd           | Version:  6.0
     \\/     M anipulation  |
\*---------------------------------------------------------------------------*/
FoamFile
{
    version     2.0;
    format      ascii;
    class       volVectorField;
    location    "11";
    object      U;
}
// * * * * * * * * * * * * * * * * * * * * * * * * * * * * * * * * * * * * * //

dimensions      [0 1 -1 0 0 0 0];

internalField   nonuniform List<vector> 
47000
(
(1 -3.47291e-05 2.65915e-21)
(1 5.23672e-05 6.62446e-21)
(1 0.000146222 -8.09691e-20)
(0.999992 0.00022787 -2.31276e-19)
(0.999962 0.000274644 2.46146e-19)
(0.999916 0.000268737 -2.10388e-19)
(0.999857 0.000207069 1.05992e-18)
(0.999793 0.000101975 2.15577e-20)
(0.999733 -2.32769e-05 2.17146e-19)
(0.99968 -0.000145391 -1.98618e-18)
(0.999631 -0.00024985 1.37522e-18)
(0.999581 -0.000336054 5.07116e-19)
(0.999523 -0.000415097 8.15145e-19)
(0.999451 -0.000504646 1.07251e-18)
(0.999368 -0.000621127 -1.09036e-18)
(0.999275 -0.000776907 -6.09074e-19)
(0.999182 -0.000975794 -6.95104e-20)
(0.999097 -0.00121579 -8.63371e-19)
(0.999029 -0.0014886 -1.73192e-19)
(0.998984 -0.0017857 -2.50232e-19)
(0.998967 -0.00209737 -1.96392e-18)
(0.998978 -0.00241781 -7.85812e-19)
(0.999018 -0.00274358 -8.47639e-19)
(0.999086 -0.00307816 -1.19228e-19)
(0.99918 -0.00343235 5.40839e-19)
(0.999294 -0.0038207 -1.86626e-19)
(0.999458 -0.0043107 4.68806e-19)
(0.999448 -0.00495756 -2.74327e-19)
(1.0006 -0.00578639 5.05268e-20)
(0.991404 -0.00965338 -6.17015e-20)
(1.00005 0.000111978 -6.14409e-21)
(1.00005 0.00038172 -2.18986e-20)
(1.00002 0.000588242 1.24698e-21)
(0.999954 0.000683846 2.74921e-19)
(0.999863 0.000638791 -1.98444e-19)
(0.999756 0.000461137 7.16289e-19)
(0.99965 0.0001959 -6.78296e-19)
(0.99956 -9.37894e-05 1.81401e-19)
(0.999493 -0.000344975 -1.4003e-18)
(0.999442 -0.000522097 -6.22884e-20)
(0.999391 -0.0006225 -2.98773e-19)
(0.999323 -0.000676557 4.6559e-19)
(0.999223 -0.000731456 -1.08234e-18)
(0.999088 -0.000836023 3.94196e-20)
(0.998924 -0.00102544 4.73969e-19)
(0.998745 -0.00131735 -1.26793e-19)
(0.998572 -0.00170949 8.82826e-19)
(0.998422 -0.00218632 -4.87399e-19)
(0.998313 -0.00272312 -1.51765e-18)
(0.998253 -0.00329541 1.98703e-18)
(0.99825 -0.00388056 8.6647e-19)
(0.998303 -0.00446329 2.31436e-19)
(0.998411 -0.00503474 6.27688e-19)
(0.998567 -0.00559573 5.24559e-19)
(0.998773 -0.00615813 -2.77492e-19)
(0.999 -0.00673299 -2.48688e-20)
(0.999319 -0.00738766 -2.06411e-19)
(0.999442 -0.00820726 -2.6903e-19)
(0.999893 -0.00887734 2.45698e-19)
(0.997189 -0.0111171 9.91282e-20)
(1.00015 0.000242487 6.35959e-21)
(1.00013 0.000545991 2.92915e-21)
(1.00008 0.000732366 -5.23941e-21)
(0.999999 0.000751937 -4.45136e-19)
(0.999896 0.000590101 7.08571e-20)
(0.999791 0.000288007 -5.82798e-19)
(0.999706 -7.22555e-05 6.23973e-19)
(0.999656 -0.000400324 -6.35828e-19)
(0.999643 -0.00062121 1.28951e-18)
(0.999655 -0.00070698 8.69614e-19)
(0.999668 -0.000673821 -3.6572e-19)
(0.999661 -0.000576944 -3.02241e-19)
(0.999617 -0.000485376 1.58334e-18)
(0.99953 -0.000463819 -4.96464e-19)
(0.999408 -0.000555258 3.67869e-19)
(0.999265 -0.00077834 2.41756e-19)
(0.999121 -0.00112733 -8.78871e-19)
(0.998995 -0.00158056 1.31931e-18)
(0.998903 -0.00210676 8.19175e-19)
(0.998856 -0.00267503 -2.78462e-19)
(0.998859 -0.00325759 1.32284e-18)
(0.998914 -0.00383461 1.16833e-18)
(0.999018 -0.00439357 8.95414e-19)
(0.999167 -0.00493142 1.35424e-19)
(0.999359 -0.0054546 -2.73253e-19)
(0.999561 -0.00597241 5.87414e-20)
(0.999827 -0.00652268 -3.47536e-19)
(0.999972 -0.00719389 3.70085e-19)
(1.00001 -0.007539 -1.16407e-19)
(0.9983 -0.00858601 -1.04988e-19)
(1.00023 0.000304428 -7.97115e-21)
(1.00021 0.000548366 4.43856e-21)
(1.00014 0.000653524 5.72394e-20)
(1.00004 0.00058012 3.12725e-19)
(0.99992 0.000329008 4.8691e-20)
(0.999797 -4.00128e-05 9.0019e-20)
(0.999699 -0.00043097 -6.75403e-19)
(0.999642 -0.000748888 -3.44114e-20)
(0.999628 -0.0009227 -6.59356e-19)
(0.999648 -0.000935755 -2.54037e-19)
(0.999682 -0.000816722 3.76851e-19)
(0.999707 -0.000632393 -2.24518e-19)
(0.999708 -0.000459427 -6.25945e-19)
(0.999676 -0.000366844 3.78308e-19)
(0.999614 -0.000399089 1.93492e-20)
(0.999531 -0.000574516 9.04456e-19)
(0.999444 -0.00088672 -2.49946e-19)
(0.999366 -0.0013131 -4.65583e-19)
(0.999311 -0.00182203 -6.31611e-19)
(0.999289 -0.00238215 -1.8014e-18)
(0.999305 -0.00296588 -4.50803e-19)
(0.999362 -0.00355352 -1.07204e-18)
(0.999457 -0.004133 -8.68221e-19)
(0.999587 -0.00470192 -6.32125e-19)
(0.999753 -0.00526604 7.21955e-19)
(0.99992 -0.00584008 -3.38521e-19)
(1.00012 -0.00645404 2.13289e-19)
(1.00023 -0.00718228 1.24443e-19)
(1.00021 -0.00752032 -1.24021e-19)
(0.998849 -0.00855863 5.15409e-20)
(1.0003 0.000320452 1.98833e-21)
(1.00026 0.00048398 -3.51985e-21)
(1.00017 0.000507497 -1.19155e-20)
(1.00004 0.000362119 -9.16443e-21)
(0.999873 5.74565e-05 -2.08371e-19)
(0.999696 -0.000341831 8.77299e-20)
(0.999536 -0.000741803 -2.01947e-19)
(0.99941 -0.00105534 -3.84525e-19)
(0.999329 -0.00122152 8.54119e-19)
(0.99929 -0.00123322 -2.46137e-19)
(0.99928 -0.00112428 9.97304e-19)
(0.999283 -0.000962409 9.84251e-19)
(0.999284 -0.000821378 -8.31847e-19)
(0.999276 -0.000765723 -7.92543e-19)
(0.999256 -0.000835601 -1.20096e-18)
(0.999229 -0.0010461 -9.07115e-19)
(0.999203 -0.00138951 1.77475e-19)
(0.999189 -0.00184305 -3.48199e-19)
(0.999196 -0.0023762 1.65842e-18)
(0.999231 -0.00295873 3.53914e-19)
(0.999297 -0.0035644 -1.17019e-18)
(0.999397 -0.00417403 -3.6454e-19)
(0.99953 -0.00477536 2.02436e-19)
(0.999692 -0.00536457 2.47108e-19)
(0.999883 -0.00594282 -4.32314e-19)
(1.00007 -0.00651936 2.79096e-19)
(1.00028 -0.0071106 7.1204e-20)
(1.00041 -0.00775195 -1.93708e-19)
(1.00039 -0.00790249 5.25377e-20)
(0.999867 -0.00832511 2.24628e-22)
(1.00035 0.000313913 -1.44839e-22)
(1.0003 0.000410559 4.53641e-21)
(1.00019 0.000377108 -6.48927e-20)
(1.00003 0.000193688 -5.5458e-20)
(0.999819 -0.000127077 1.48566e-19)
(0.999587 -0.000524229 5.1201e-19)
(0.999358 -0.00091443 7.15341e-19)
(0.999153 -0.00122421 7.19858e-20)
(0.998988 -0.00140476 6.49804e-20)
(0.998869 -0.00145612 8.67821e-19)
(0.998792 -0.00141214 -7.59996e-19)
(0.998751 -0.00133466 -1.18965e-18)
(0.998733 -0.00128797 3.25977e-19)
(0.998733 -0.00132647 1.3637e-18)
(0.998745 -0.00148195 2.64718e-18)
(0.99877 -0.00176369 -1.02165e-20)
(0.998811 -0.00216131 3.96683e-19)
(0.998872 -0.00265141 1.38059e-18)
(0.998959 -0.00320448 -1.38073e-18)
(0.999072 -0.00379154 8.85787e-19)
(0.999215 -0.0043875 1.06644e-18)
(0.999388 -0.00497332 5.55902e-19)
(0.99959 -0.00553558 3.58684e-19)
(0.999815 -0.00606762 -5.94549e-20)
(1.00006 -0.00656489 -5.14295e-20)
(1.00031 -0.00702809 1.39076e-19)
(1.00055 -0.00746258 3.68119e-20)
(1.00073 -0.00788208 4.75011e-20)
(1.00067 -0.00775489 -3.09188e-20)
(1.00077 -0.00762125 2.31856e-20)
(1.00038 0.000296254 2.05636e-21)
(1.00033 0.000347606 1.56823e-21)
(1.00022 0.000285619 3.07815e-20)
(1.00004 9.72414e-05 3.98644e-20)
(0.999823 -0.000205582 2.40114e-19)
(0.999566 -0.000570227 -3.11472e-19)
(0.999298 -0.000927991 -4.63533e-19)
(0.999041 -0.00122123 3.3572e-19)
(0.998817 -0.00141336 -8.83899e-19)
(0.998637 -0.00150966 -3.11373e-19)
(0.998509 -0.001541 -1.70982e-18)
(0.99843 -0.00156001 1.14716e-18)
(0.998397 -0.00161845 5.68213e-19)
(0.998404 -0.0017582 3.56007e-20)
(0.998445 -0.00200096 -1.54039e-18)
(0.998519 -0.00234929 2.34072e-19)
(0.998622 -0.0027897 -4.37478e-19)
(0.998755 -0.00329816 -1.59807e-18)
(0.998917 -0.00384637 2.93921e-21)
(0.999108 -0.00440705 -1.17911e-18)
(0.999326 -0.00495695 -1.01215e-18)
(0.999569 -0.00547811 -4.14061e-19)
(0.999835 -0.0059574 -3.04248e-19)
(1.00012 -0.00638769 -1.8869e-19)
(1.00041 -0.00676306 4.22362e-20)
(1.00069 -0.00708184 -1.59593e-19)
(1.00096 -0.00734936 -7.65511e-20)
(1.00116 -0.0075799 -1.83798e-19)
(1.00104 -0.00728147 -7.37153e-20)
(1.00139 -0.00690938 -5.1366e-20)
(1.0004 0.000273294 1.12835e-21)
(1.00035 0.000299144 -1.16784e-21)
(1.00026 0.000232471 5.01305e-22)
(1.0001 6.42637e-05 -2.77106e-20)
(0.999902 -0.000196324 -1.07832e-19)
(0.999654 -0.000507044 -1.07109e-19)
(0.999387 -0.000814963 2.81821e-19)
(0.999118 -0.00107811 -7.55131e-19)
(0.998872 -0.00127115 -4.17585e-19)
(0.998665 -0.00140291 7.27276e-19)
(0.998511 -0.00149989 1.25445e-18)
(0.998415 -0.00160445 -6.16447e-19)
(0.998378 -0.00175538 -1.39949e-18)
(0.998396 -0.00198198 -6.56187e-19)
(0.998463 -0.00229611 3.49556e-20)
(0.998576 -0.00269406 1.67322e-20)
(0.998729 -0.00315967 2.26513e-19)
(0.998918 -0.0036689 1.12478e-20)
(0.999137 -0.00419524 8.13981e-19)
(0.999384 -0.00471403 8.24393e-19)
(0.999655 -0.00520487 6.30412e-19)
(0.999944 -0.00565251 1.38011e-19)
(1.00025 -0.00604624 -9.53921e-20)
(1.00056 -0.00638131 8.83282e-20)
(1.00087 -0.00665459 1.07843e-19)
(1.00115 -0.006867 -7.88276e-20)
(1.00141 -0.00702914 3.41232e-19)
(1.0016 -0.00716044 3.47352e-19)
(1.00142 -0.00680766 -1.53753e-19)
(1.00178 -0.00639382 4.77022e-20)
(1.00041 0.000249243 -1.79874e-21)
(1.00038 0.000264357 -9.26009e-22)
(1.00032 0.000209301 -1.88955e-21)
(1.0002 7.58136e-05 -1.44538e-21)
(1.00003 -0.000130881 -7.18467e-20)
(0.999825 -0.000379167 1.25184e-20)
(0.999588 -0.00063106 -1.61761e-19)
(0.99934 -0.000858582 3.75056e-19)
(0.999104 -0.00104586 3.52532e-20)
(0.9989 -0.00120376 -7.1753e-19)
(0.998746 -0.00135388 -1.04301e-18)
(0.998651 -0.00152859 -4.88386e-19)
(0.99862 -0.0017547 1.12296e-18)
(0.998651 -0.00205028 6.42972e-19)
(0.99874 -0.00241868 -4.35128e-19)
(0.998882 -0.00285109 -9.60367e-19)
(0.999067 -0.00332964 1.61549e-19)
(0.999291 -0.003831 9.37021e-19)
(0.999545 -0.00433111 -7.61295e-19)
(0.999823 -0.00480855 2.78858e-19)
(1.00012 -0.00524655 -9.84566e-20)
(1.00043 -0.00563346 4.93351e-21)
(1.00074 -0.00596207 8.49433e-20)
(1.00105 -0.00623119 3.43641e-20)
(1.00135 -0.00644151 7.71189e-20)
(1.00161 -0.00659695 3.01921e-19)
(1.00183 -0.00671202 2.54627e-19)
(1.002 -0.0068066 4.81857e-20)
(1.00178 -0.00645409 -7.44338e-20)
(1.00206 -0.0060668 4.86671e-20)
(1.00042 0.000226958 -9.32634e-22)
(1.00042 0.000240023 -4.09796e-21)
(1.00038 0.000204614 1.22575e-20)
(1.00031 0.000110141 7.88637e-21)
(1.00019 -4.26444e-05 1.69618e-20)
(1.00003 -0.000231885 2.82706e-20)
(0.999845 -0.000432553 2.37293e-20)
(0.999637 -0.000628137 -4.13879e-20)
(0.999432 -0.000810047 -8.52272e-20)
(0.999252 -0.000989789 7.56406e-20)
(0.999115 -0.00118402 3.25162e-19)
(0.999034 -0.00141602 4.85565e-19)
(0.999016 -0.00170236 -1.10546e-20)
(0.999062 -0.00205174 -9.85265e-19)
(0.999168 -0.00246078 7.23402e-20)
(0.999327 -0.00291699 4.00015e-19)
(0.999531 -0.00340172 1.9601e-19)
(0.999772 -0.00389304 8.93974e-21)
(1.00004 -0.00436966 9.91257e-20)
(1.00033 -0.0048136 -1.38297e-19)
(1.00063 -0.00521182 1.32018e-19)
(1.00094 -0.00555625 1.30529e-19)
(1.00124 -0.00584305 2.21834e-19)
(1.00153 -0.00607407 -2.40869e-19)
(1.0018 -0.00625279 3.65668e-19)
(1.00203 -0.00638428 -8.65694e-19)
(1.00221 -0.00648389 3.21374e-19)
(1.00235 -0.00656783 -4.59036e-20)
(1.00209 -0.00622646 3.18005e-19)
(1.00225 -0.00587609 -3.97506e-20)
(1.00044 0.000207711 6.51515e-21)
(1.00045 0.000222024 5.10298e-21)
(1.00045 0.000206996 7.81597e-21)
(1.00041 0.000147816 -4.81956e-20)
(1.00035 4.05147e-05 -8.53892e-20)
(1.00024 -0.000101306 -6.69977e-20)
(1.00011 -0.000263034 -5.70374e-20)
(0.999948 -0.00043682 1.23479e-19)
(0.999785 -0.000619125 5.33049e-20)
(0.999639 -0.000820925 -2.11022e-20)
(0.999529 -0.00105408 1.0235e-19)
(0.999471 -0.00133401 1.31236e-19)
(0.99947 -0.00166891 9.20214e-20)
(0.999531 -0.00206014 3.41141e-19)
(0.999649 -0.00249934 3.63009e-19)
(0.999818 -0.00297168 2.43017e-19)
(1.00003 -0.00345856 -2.43774e-19)
(1.00027 -0.00393983 4.4938e-20)
(1.00054 -0.00439702 -2.04901e-19)
(1.00083 -0.00481542 2.0028e-19)
(1.00112 -0.00518528 -8.09675e-20)
(1.00141 -0.00550154 -9.58199e-20)
(1.00169 -0.00576291 1.13712e-19)
(1.00195 -0.0059731 5.06549e-19)
(1.00219 -0.00613684 -1.14705e-19)
(1.00238 -0.00625846 8.79371e-19)
(1.00252 -0.00635213 -4.39855e-19)
(1.00263 -0.00642914 3.93873e-19)
(1.00235 -0.00609084 1.41983e-19)
(1.00242 -0.00576315 -4.64403e-21)
(1.00046 0.000191748 -7.33336e-21)
(1.00048 0.000206372 1.85947e-20)
(1.0005 0.00020702 -4.65541e-20)
(1.00051 0.000174121 3.26672e-20)
(1.00049 9.89716e-05 1.38843e-19)
(1.00043 -1.13376e-05 2.69323e-20)
(1.00034 -0.000149965 2.4101e-19)
(1.00023 -0.00031503 -4.98923e-20)
(1.00011 -0.000506031 -1.01146e-19)
(1 -0.000732471 2.05873e-20)
(0.999927 -0.00100175 6.78132e-20)
(0.999893 -0.0013227 -7.99694e-20)
(0.999913 -0.00169693 -2.14894e-19)
(0.999988 -0.00212032 2.89562e-20)
(1.00012 -0.00258112 5.60434e-20)
(1.00029 -0.00306327 4.85297e-20)
(1.0005 -0.00354887 1.9508e-19)
(1.00075 -0.00401971 1.62142e-19)
(1.00101 -0.00446 -4.40216e-19)
(1.00128 -0.00485787 -1.48279e-19)
(1.00155 -0.00520626 4.56307e-19)
(1.00182 -0.00550235 3.19699e-19)
(1.00208 -0.00574647 -3.80116e-19)
(1.00231 -0.00594312 -1.474e-19)
(1.00252 -0.00609702 -3.43699e-19)
(1.00267 -0.0062108 -1.64097e-19)
(1.00278 -0.0062968 -1.43522e-19)
(1.00286 -0.00636196 -9.0291e-19)
(1.00257 -0.00601488 3.323e-19)
(1.00256 -0.00569353 1.4134e-19)
(1.00049 0.000178564 1.64654e-21)
(1.00051 0.000189862 -6.47703e-20)
(1.00055 0.000198062 -6.66165e-20)
(1.00058 0.000179749 6.22338e-21)
(1.0006 0.000121604 3.8999e-20)
(1.00058 2.5941e-05 -1.91506e-19)
(1.00054 -0.000105712 -1.10886e-19)
(1.00047 -0.000275098 1.58632e-19)
(1.00039 -0.000483087 1.2301e-19)
(1.00032 -0.000737077 8.76523e-20)
(1.00027 -0.00104043 6.02748e-20)
(1.00027 -0.00139662 -2.60609e-19)
(1.00031 -0.00180226 5.41481e-19)
(1.00039 -0.00224937 2.34302e-20)
(1.00053 -0.00272415 1.6752e-19)
(1.00071 -0.00321019 -1.59945e-19)
(1.00092 -0.0036907 -3.53214e-19)
(1.00116 -0.00414946 -8.03011e-19)
(1.00141 -0.00457311 8.88054e-19)
(1.00166 -0.00495214 -5.44811e-20)
(1.00192 -0.00528159 -6.36618e-19)
(1.00217 -0.00556017 -5.2797e-19)
(1.0024 -0.00578906 -2.57401e-20)
(1.0026 -0.00597283 -2.10508e-19)
(1.00278 -0.00611551 -9.36436e-19)
(1.00291 -0.00621773 -7.57663e-19)
(1.00298 -0.00629015 -1.45948e-18)
(1.00305 -0.00633653 4.82403e-20)
(1.00275 -0.0059699 -5.09676e-19)
(1.00269 -0.00563816 -1.19746e-19)
(1.00052 0.000167437 6.22454e-21)
(1.00054 0.000170254 3.95559e-20)
(1.00059 0.000176172 8.36334e-20)
(1.00064 0.000160033 -1.41716e-20)
(1.00068 0.000104127 -1.72917e-19)
(1.00069 7.5278e-06 -1.50791e-19)
(1.00068 -0.000131443 4.4366e-20)
(1.00065 -0.000316266 -9.23701e-20)
(1.00061 -0.000547934 -2.08866e-19)
(1.00057 -0.000831388 -8.25234e-20)
(1.00056 -0.00116648 -1.0843e-19)
(1.00057 -0.0015524 -1.1359e-19)
(1.00063 -0.00198222 -2.7907e-20)
(1.00074 -0.00244541 -1.64343e-19)
(1.00088 -0.00292714 -2.36414e-19)
(1.00106 -0.00341134 1.80686e-19)
(1.00127 -0.0038826 -8.7185e-20)
(1.0015 -0.00432664 2.88946e-19)
(1.00174 -0.00473226 3.90594e-19)
(1.00198 -0.00509188 2.1976e-20)
(1.00222 -0.00540213 -3.35188e-19)
(1.00245 -0.00566273 6.60568e-19)
(1.00266 -0.00587519 2.5771e-19)
(1.00284 -0.00604374 4.3633e-19)
(1.00299 -0.00617151 8.52086e-19)
(1.00309 -0.00625728 3.37359e-19)
(1.00315 -0.0063105 2.45923e-18)
(1.0032 -0.00633283 1.09126e-18)
(1.0029 -0.00593967 1.5761e-19)
(1.00281 -0.00558761 -1.95012e-19)
(1.00054 0.000157361 6.41354e-21)
(1.00056 0.000146226 4.49007e-20)
(1.00062 0.000139758 7.75141e-21)
(1.00068 0.000114133 1.57576e-19)
(1.00073 4.75244e-05 -2.65445e-20)
(1.00077 -6.29765e-05 -3.99294e-20)
(1.00078 -0.000220565 -5.08732e-20)
(1.00078 -0.000429053 -1.56634e-19)
(1.00077 -0.000688715 2.45892e-19)
(1.00076 -0.00100194 -1.39307e-19)
(1.00077 -0.00136564 -3.00358e-19)
(1.00081 -0.00177573 9.57582e-20)
(1.00089 -0.00222289 -5.89969e-19)
(1.00101 -0.0026951 2.98314e-20)
(1.00116 -0.00317732 1.07044e-18)
(1.00135 -0.00365429 6.85863e-19)
(1.00155 -0.00411211 2.3098e-19)
(1.00177 -0.0045384 2.24685e-19)
(1.002 -0.00492378 -8.78337e-19)
(1.00223 -0.00526232 8.10321e-20)
(1.00246 -0.0055518 1.20386e-18)
(1.00267 -0.00579259 -1.09749e-18)
(1.00286 -0.00598626 -1.20396e-18)
(1.00303 -0.00613652 -4.56733e-19)
(1.00316 -0.00624558 6.75906e-19)
(1.00325 -0.00631069 1.18298e-20)
(1.00329 -0.00634052 -2.16734e-18)
(1.00333 -0.00633538 -1.58737e-18)
(1.00303 -0.00591138 1.59841e-19)
(1.00292 -0.00553054 2.00786e-19)
(1.00056 0.000147519 -7.77505e-21)
(1.00057 0.000117133 -8.7788e-20)
(1.00064 8.89786e-05 7.03142e-20)
(1.0007 4.37937e-05 -1.40276e-19)
(1.00076 -4.39452e-05 5.02414e-20)
(1.00081 -0.000178188 5.04711e-19)
(1.00084 -0.000362379 -8.97409e-20)
(1.00086 -0.000599701 5.60218e-19)
(1.00087 -0.00088923 2.25291e-19)
(1.00089 -0.00123092 3.26341e-19)
(1.00093 -0.00161931 7.37839e-19)
(1.001 -0.00204795 1.38934e-19)
(1.00109 -0.00250606 -2.18532e-19)
(1.00122 -0.00298097 2.19428e-19)
(1.00138 -0.003458 -1.58097e-18)
(1.00157 -0.00392302 -9.95986e-21)
(1.00177 -0.00436372 -2.46042e-19)
(1.00199 -0.00476947 -6.22159e-19)
(1.00222 -0.00513251 1.39871e-19)
(1.00243 -0.00544822 -1.04003e-18)
(1.00265 -0.0057153 -4.26355e-19)
(1.00284 -0.0059345 -6.52812e-19)
(1.00302 -0.00610731 1.29775e-18)
(1.00317 -0.00623689 -2.73972e-19)
(1.0033 -0.00632465 -1.36773e-19)
(1.00337 -0.00636661 1.22777e-18)
(1.0034 -0.00637102 5.65005e-19)
(1.00343 -0.00633734 3.02588e-19)
(1.00314 -0.00588117 -3.31508e-19)
(1.00302 -0.005469 2.3884e-20)
(1.00058 0.00013715 1.45724e-20)
(1.00058 8.29213e-05 3.02373e-20)
(1.00064 2.53024e-05 -1.87114e-19)
(1.0007 -4.74407e-05 2.53065e-19)
(1.00077 -0.000163973 1.05847e-19)
(1.00082 -0.000328633 -3.12594e-19)
(1.00087 -0.000544241 3.88732e-19)
(1.00091 -0.000812764 -5.2036e-19)
(1.00094 -0.00113188 -7.20896e-19)
(1.00099 -0.00149938 -4.07752e-20)
(1.00105 -0.001908 -5.93823e-19)
(1.00113 -0.00234969 4.91043e-19)
(1.00124 -0.00281294 6.90759e-19)
(1.00138 -0.00328507 3.59127e-19)
(1.00155 -0.00375218 2.48705e-19)
(1.00174 -0.00420143 -1.00359e-18)
(1.00195 -0.00462211 3.9288e-19)
(1.00216 -0.00500517 1.09639e-18)
(1.00238 -0.00534429 -3.05924e-19)
(1.00259 -0.00563594 1.90373e-18)
(1.00279 -0.00587948 -1.79042e-20)
(1.00298 -0.00607594 1.94158e-18)
(1.00315 -0.00622661 -1.78555e-18)
(1.00329 -0.00633414 1.02605e-18)
(1.0034 -0.00639924 4.22048e-19)
(1.00346 -0.00641696 -5.5959e-19)
(1.00349 -0.00639535 2.81457e-19)
(1.00352 -0.00633323 1.16523e-18)
(1.00323 -0.0058447 -1.46236e-19)
(1.00312 -0.00539823 -4.48931e-20)
(1.00058 0.000125924 -1.08902e-20)
(1.00058 4.40032e-05 4.9416e-20)
(1.00063 -4.90359e-05 -1.20689e-20)
(1.00069 -0.000155192 -4.35494e-19)
(1.00076 -0.000305562 -3.18905e-19)
(1.00082 -0.000504498 9.09075e-21)
(1.00087 -0.000753647 -9.86194e-19)
(1.00093 -0.00105347 3.52275e-19)
(1.00098 -0.00140029 7.13151e-19)
(1.00104 -0.00179004 2.76988e-19)
(1.00112 -0.00221424 4.37414e-19)
(1.00122 -0.00266384 5.7426e-19)
(1.00135 -0.00312722 -6.25513e-19)
(1.0015 -0.00359211 -1.1083e-18)
(1.00168 -0.00404565 2.33803e-19)
(1.00187 -0.00447639 -1.93447e-19)
(1.00208 -0.00487514 3.27427e-19)
(1.00229 -0.00523432 -8.64844e-19)
(1.0025 -0.0055488 7.62352e-19)
(1.00271 -0.00581597 -9.76426e-19)
(1.0029 -0.00603571 3.3322e-19)
(1.00308 -0.00620919 2.31534e-19)
(1.00324 -0.0063375 4.3159e-19)
(1.00338 -0.0064228 -7.67075e-19)
(1.00348 -0.00646522 -6.02686e-19)
(1.00354 -0.00645903 -6.64826e-19)
(1.00356 -0.00641219 3.78018e-19)
(1.00359 -0.00632304 -7.13694e-19)
(1.00331 -0.00580353 -2.96741e-19)
(1.00321 -0.00532412 -6.50626e-20)
(1.00057 0.000113595 1.3499e-20)
(1.00056 1.1194e-06 4.63571e-20)
(1.00061 -0.000131352 6.14631e-20)
(1.00067 -0.000274683 2.46808e-19)
(1.00073 -0.000461598 -2.39215e-21)
(1.0008 -0.000696296 -4.04537e-19)
(1.00086 -0.000978972 7.37069e-19)
(1.00092 -0.00130852 -1.9751e-19)
(1.00099 -0.00168005 -5.00663e-19)
(1.00107 -0.00208805 -4.98516e-19)
(1.00117 -0.00252327 -4.34714e-19)
(1.00128 -0.00297622 1.06913e-19)
(1.00142 -0.00343559 -2.0086e-19)
(1.00158 -0.00388981 1.2127e-18)
(1.00177 -0.00432722 -1.41797e-18)
(1.00196 -0.00473776 5.67289e-19)
(1.00217 -0.00511365 5.74348e-20)
(1.00238 -0.00544863 4.76404e-19)
(1.00259 -0.00573859 -7.36454e-19)
(1.0028 -0.00598166 9.86755e-19)
(1.00299 -0.00617811 9.35689e-19)
(1.00316 -0.00632918 -5.93634e-19)
(1.00332 -0.0064357 1.97179e-18)
(1.00345 -0.00649942 1.43159e-18)
(1.00355 -0.00651992 -6.17465e-19)
(1.0036 -0.00649083 1.28468e-18)
(1.00362 -0.00642005 5.58027e-19)
(1.00365 -0.00630544 -1.48995e-19)
(1.00337 -0.00575628 4.71537e-21)
(1.00329 -0.00524333 3.14584e-19)
(1.00055 0.000100323 -2.70715e-21)
(1.00054 -4.48122e-05 -8.69215e-20)
(1.00058 -0.000218891 2.06732e-19)
(1.00064 -0.000401338 -2.58993e-19)
(1.0007 -0.000625606 6.58758e-20)
(1.00076 -0.000895733 7.38829e-19)
(1.00083 -0.00121039 -2.72648e-19)
(1.0009 -0.00156698 1.97868e-19)
(1.00098 -0.00195966 2.61677e-19)
(1.00108 -0.00238182 2.23877e-19)
(1.00119 -0.00282392 -2.72254e-19)
(1.00132 -0.00327638 -1.10939e-18)
(1.00147 -0.00372854 6.10601e-19)
(1.00164 -0.00416972 -7.53999e-19)
(1.00183 -0.00458949 1.43407e-18)
(1.00203 -0.00497914 6.74763e-19)
(1.00224 -0.0053322 -9.85236e-19)
(1.00245 -0.00564352 -8.95331e-19)
(1.00266 -0.00590986 5.02924e-19)
(1.00286 -0.00612996 -2.44903e-18)
(1.00305 -0.00630435 -2.56919e-18)
(1.00322 -0.00643429 1.37974e-18)
(1.00337 -0.00652034 -1.79114e-18)
(1.0035 -0.00656383 -6.6258e-19)
(1.00359 -0.00656389 1.50358e-18)
(1.00365 -0.00651355 -1.05963e-18)
(1.00367 -0.00642072 -2.1409e-18)
(1.0037 -0.00628281 -4.69537e-19)
(1.00344 -0.00570608 2.63657e-19)
(1.00337 -0.00516239 -2.26568e-19)
(1.00051 8.6255e-05 -4.05769e-20)
(1.00051 -9.27911e-05 -1.38466e-20)
(1.00054 -0.000308975 -1.57655e-19)
(1.00059 -0.000530909 2.38596e-19)
(1.00065 -0.000791828 -1.8798e-19)
(1.00072 -0.00109571 1.18599e-19)
(1.00079 -0.00143976 -5.09532e-19)
(1.00087 -0.00182008 1.98778e-19)
(1.00096 -0.00223014 2.91137e-19)
(1.00107 -0.00266261 3.38544e-19)
(1.00119 -0.00310798 1.11991e-18)
(1.00133 -0.0035569 -4.00761e-19)
(1.00149 -0.00399954 -2.61042e-19)
(1.00167 -0.00442622 -4.31672e-19)
(1.00186 -0.00482774 2.20261e-19)
(1.00207 -0.00519664 -6.04032e-19)
(1.00228 -0.00552761 1.48295e-18)
(1.00249 -0.00581645 1.67145e-18)
(1.0027 -0.00606065 -3.7314e-20)
(1.0029 -0.0062594 1.78014e-18)
(1.00308 -0.00641342 -1.70695e-19)
(1.00325 -0.0065239 -1.1897e-18)
(1.00341 -0.00659113 9.169e-19)
(1.00353 -0.00661604 -3.1944e-20)
(1.00363 -0.00659731 -6.48289e-19)
(1.00369 -0.00652744 3.96517e-19)
(1.00371 -0.00641432 2.41488e-18)
(1.00374 -0.0062549 1.21433e-18)
(1.00349 -0.00565212 -3.89019e-19)
(1.00345 -0.00507769 -2.85518e-19)
(1.00046 7.18399e-05 3.06133e-20)
(1.00046 -0.000141762 -4.28751e-20)
(1.00049 -0.00039922 6.85248e-20)
(1.00054 -0.000659811 -1.77713e-19)
(1.0006 -0.000955608 2.15987e-19)
(1.00066 -0.00129069 1.79882e-19)
(1.00074 -0.00166099 6.70307e-19)
(1.00083 -0.0020615 -8.39149e-19)
(1.00093 -0.00248529 -1.22594e-18)
(1.00105 -0.00292462 -2.90878e-19)
(1.00118 -0.00337029 -1.74607e-19)
(1.00133 -0.00381339 1.34086e-19)
(1.0015 -0.00424507 -2.60154e-19)
(1.00168 -0.00465664 4.1633e-20)
(1.00188 -0.00504008 -1.16512e-18)
(1.00209 -0.00538906 -4.68713e-19)
(1.0023 -0.00569928 -6.17577e-19)
(1.00251 -0.00596736 -5.67069e-20)
(1.00272 -0.00619133 -1.61001e-18)
(1.00292 -0.00637074 -9.50657e-19)
(1.00311 -0.00650641 1.42244e-18)
(1.00328 -0.00659943 1.22761e-18)
(1.00343 -0.00664977 -8.55629e-19)
(1.00355 -0.00665799 -1.35823e-19)
(1.00365 -0.00662236 -1.35479e-19)
(1.00371 -0.0065349 1.7678e-19)
(1.00374 -0.00640347 -1.43358e-18)
(1.00378 -0.00622458 -6.50266e-19)
(1.00354 -0.00559774 1.7923e-18)
(1.00351 -0.00499566 2.41708e-20)
(1.0004 5.73547e-05 -1.55906e-20)
(1.00041 -0.000190737 -2.10389e-20)
(1.00043 -0.000487564 -1.58896e-19)
(1.00047 -0.000785035 8.17104e-20)
(1.00053 -0.00111319 3.78274e-19)
(1.0006 -0.0014764 -1.98041e-20)
(1.00068 -0.00186952 7.95805e-19)
(1.00078 -0.0022867 -2.43951e-19)
(1.00089 -0.00272087 9.65953e-19)
(1.00101 -0.00316413 3.46553e-19)
(1.00115 -0.00360778 2.98411e-19)
(1.00131 -0.00404351 -4.06883e-19)
(1.00149 -0.00446349 2.39852e-19)
(1.00168 -0.00485999 -7.95076e-20)
(1.00188 -0.00522608 2.76708e-19)
(1.00209 -0.00555645 1.32678e-18)
(1.0023 -0.00584765 9.93494e-20)
(1.00252 -0.00609694 -9.74036e-19)
(1.00273 -0.00630281 1.07385e-18)
(1.00293 -0.00646502 -9.1932e-19)
(1.00311 -0.00658446 2.24206e-18)
(1.00328 -0.00666203 -1.18609e-18)
(1.00344 -0.00669741 1.88042e-18)
(1.00357 -0.00669076 -6.21679e-19)
(1.00367 -0.00663995 6.04144e-19)
(1.00373 -0.00653655 1.18836e-20)
(1.00377 -0.00638839 9.43832e-19)
(1.00381 -0.00619153 9.63948e-19)
(1.00358 -0.00554184 -8.94533e-19)
(1.00359 -0.004912 -1.1419e-19)
(1.00033 4.32763e-05 4.47831e-20)
(1.00034 -0.000238799 1.88741e-19)
(1.00036 -0.000572367 1.74788e-19)
(1.0004 -0.000904328 -9.27728e-20)
(1.00046 -0.0012619 -1.07637e-19)
(1.00053 -0.00164993 -7.04073e-19)
(1.00062 -0.00206247 -1.25731e-18)
(1.00072 -0.00249305 1.56141e-18)
(1.00083 -0.00293467 -2.46437e-19)
(1.00097 -0.00337948 2.387e-19)
(1.00112 -0.00381943 -1.79418e-18)
(1.00128 -0.00424688 6.75122e-19)
(1.00146 -0.00465501 1.68189e-19)
(1.00166 -0.00503703 -1.69925e-19)
(1.00187 -0.00538697 1.75589e-18)
(1.00208 -0.00570039 -4.69934e-19)
(1.00229 -0.00597456 -4.12766e-19)
(1.00251 -0.00620724 -3.28677e-19)
(1.00272 -0.00639725 -5.15129e-19)
(1.00292 -0.00654452 4.72558e-19)
(1.00311 -0.00664987 -5.27556e-19)
(1.00328 -0.00671406 1.2556e-18)
(1.00344 -0.00673639 -1.71349e-18)
(1.00357 -0.00671669 -1.6323e-18)
(1.00368 -0.00665246 -2.20038e-18)
(1.00375 -0.00653481 1.52188e-19)
(1.00379 -0.00637158 -3.25977e-19)
(1.00384 -0.00615842 -6.74131e-20)
(1.00363 -0.00548751 3.84347e-19)
(1.00365 -0.00483283 2.53786e-19)
(1.00025 2.98011e-05 -3.87671e-20)
(1.00027 -0.000285209 -1.20565e-19)
(1.00028 -0.000652364 2.31474e-20)
(1.00032 -0.00101599 -7.02274e-20)
(1.00038 -0.00139982 2.89324e-20)
(1.00045 -0.00180936 4.83602e-19)
(1.00054 -0.00223807 -4.69041e-22)
(1.00065 -0.0026791 -5.99863e-19)
(1.00077 -0.0031257 -9.45766e-19)
(1.00091 -0.0035702 -1.75037e-18)
(1.00107 -0.00400532 -6.86589e-19)
(1.00124 -0.00442409 -6.63343e-19)
(1.00143 -0.00482071 6.18313e-19)
(1.00163 -0.00518918 1.06684e-18)
(1.00184 -0.00552444 -2.81845e-18)
(1.00205 -0.00582273 -1.41599e-18)
(1.00227 -0.00608193 2.74415e-18)
(1.00249 -0.0063002 1.51694e-18)
(1.0027 -0.00647656 2.8105e-18)
(1.0029 -0.00661101 1.22833e-18)
(1.00309 -0.00670431 -1.37962e-18)
(1.00327 -0.00675698 -2.36665e-18)
(1.00343 -0.006768 3.6285e-18)
(1.00356 -0.00673683 6.34307e-19)
(1.00368 -0.00666061 1.97738e-18)
(1.00376 -0.00653005 -6.40869e-19)
(1.0038 -0.00635295 1.4071e-18)
(1.00387 -0.00612456 1.37316e-18)
(1.00367 -0.00543323 -4.62839e-19)
(1.00372 -0.00475322 1.77629e-19)
(1.00016 1.72791e-05 -7.39081e-21)
(1.00018 -0.000329321 -9.68014e-20)
(1.0002 -0.000726694 -1.33216e-19)
(1.00023 -0.00111899 2.5624e-19)
(1.00029 -0.00152593 -1.71286e-19)
(1.00037 -0.00195378 -2.86905e-19)
(1.00046 -0.00239571 4.55194e-19)
(1.00057 -0.00284463 -4.92065e-19)
(1.0007 -0.00329421 -1.46947e-19)
(1.00085 -0.00373707 2.04481e-18)
(1.00101 -0.00416671 7.84588e-19)
(1.00119 -0.00457685 1.05447e-18)
(1.00138 -0.00496263 -1.50208e-19)
(1.00158 -0.00531879 -8.61803e-19)
(1.00179 -0.005641 1.59308e-18)
(1.00201 -0.00592611 7.5058e-19)
(1.00223 -0.00617246 -2.48283e-18)
(1.00245 -0.00637848 -2.73188e-18)
(1.00267 -0.00654333 -3.06434e-19)
(1.00287 -0.00666704 -2.25257e-18)
(1.00307 -0.0067502 1.28051e-18)
(1.00325 -0.00679315 -1.40793e-19)
(1.00341 -0.00679449 -5.44565e-18)
(1.00356 -0.00675336 2.01623e-18)
(1.00368 -0.00666656 5.20822e-19)
(1.00376 -0.00652441 8.78869e-19)
(1.00382 -0.00633472 3.07512e-19)
(1.00389 -0.0060924 -3.4966e-18)
(1.00371 -0.00538193 -6.44575e-19)
(1.00378 -0.00467927 -3.35141e-19)
(1.00006 5.72983e-06 1.25725e-20)
(1.00009 -0.000370714 1.44148e-19)
(1.0001 -0.000794821 -1.63048e-21)
(1.00014 -0.00121271 9.83553e-20)
(1.0002 -0.00163969 1.22541e-19)
(1.00028 -0.00208291 3.89969e-19)
(1.00038 -0.00253541 7.42777e-20)
(1.00049 -0.00299007 8.04087e-19)
(1.00063 -0.00344106 1.46049e-18)
(1.00078 -0.00388135 -1.17472e-18)
(1.00094 -0.00430524 2.56595e-18)
(1.00113 -0.00470711 -3.22754e-19)
(1.00132 -0.00508297 -2.97947e-19)
(1.00153 -0.00542817 -8.03214e-19)
(1.00174 -0.00573902 6.34191e-19)
(1.00196 -0.00601286 2.71505e-19)
(1.00219 -0.00624837 -3.35535e-19)
(1.00241 -0.00644417 2.88583e-18)
(1.00263 -0.00659948 -1.95927e-18)
(1.00284 -0.00671429 1.39135e-19)
(1.00304 -0.00678903 -8.15707e-19)
(1.00322 -0.00682379 -2.43113e-18)
(1.00339 -0.00681683 3.72936e-18)
(1.00354 -0.00676695 -1.1315e-19)
(1.00367 -0.00667065 -6.51283e-19)
(1.00376 -0.00651787 8.77213e-19)
(1.00383 -0.00631642 -3.62741e-18)
(1.00392 -0.00606087 -8.71084e-20)
(1.00375 -0.00533171 6.00668e-19)
(1.00385 -0.00460551 1.85737e-19)
(0.99996 -4.66273e-06 3.36238e-20)
(0.99999 -0.000409054 -2.53532e-21)
(0.999999 -0.000856521 -9.90628e-20)
(1.00004 -0.00129703 6.7817e-20)
(1.0001 -0.0017412 2.91983e-20)
(1.00018 -0.00219712 2.8161e-19)
(1.00028 -0.00265794 -3.87525e-19)
(1.0004 -0.00311658 -4.35028e-19)
(1.00054 -0.00356781 5.974e-19)
(1.0007 -0.00400497 -4.90458e-19)
(1.00087 -0.00442316 -3.66631e-18)
(1.00105 -0.00481737 -8.95936e-19)
(1.00125 -0.00518437 2.16308e-18)
(1.00146 -0.00552006 5.7206e-19)
(1.00168 -0.00582126 -1.3779e-18)
(1.0019 -0.0060857 -4.8115e-19)
(1.00213 -0.0063123 -1.60908e-18)
(1.00236 -0.0064998 -2.12861e-18)
(1.00258 -0.0066474 -1.76302e-18)
(1.00279 -0.00675501 1.76663e-18)
(1.003 -0.0068229 2.45948e-18)
(1.00319 -0.0068509 3.37799e-18)
(1.00337 -0.00683691 -2.29071e-19)
(1.00352 -0.00677943 -1.75254e-18)
(1.00366 -0.00667468 -2.08051e-18)
(1.00377 -0.00651225 -2.6794e-20)
(1.00384 -0.00629999 -2.60051e-19)
(1.00394 -0.00603219 -3.9513e-19)
(1.00379 -0.00528531 1.47774e-19)
(1.00391 -0.00453802 -1.04078e-19)
(0.999851 -1.40473e-05 -5.12189e-20)
(0.999882 -0.000444241 6.4916e-20)
(0.999891 -0.000911808 -3.9928e-21)
(0.99993 -0.00137206 -3.07236e-19)
(0.999994 -0.00183082 -2.47723e-19)
(1.00008 -0.00229709 -6.94643e-19)
(1.00019 -0.00276428 1.02034e-18)
(1.00031 -0.00322549 -1.0321e-18)