/*--------------------------------*- C++ -*----------------------------------*\
  =========                 |
  \\      /  F ield         | OpenFOAM: The Open Source CFD Toolbox
   \\    /   O peration     | Website:  https://openfoam.org
    \\  /    A nd           | Version:  6.0
     \\/     M anipulation  |
\*---------------------------------------------------------------------------*/
FoamFile
{
    version     2.0;
    format      ascii;
    class       surfaceScalarField;
    location    "18";
    object      phi;
}
// * * * * * * * * * * * * * * * * * * * * * * * * * * * * * * * * * * * * * //

dimensions      [0 3 -1 0 0 0 0];

internalField   nonuniform List<scalar> 
123526
(
8.17481e-05
2.26082e-05
-8.13614e-05
8.21665e-05
2.44353e-05
8.26135e-05
2.64093e-05
8.3101e-05
2.8542e-05
8.3622e-05
3.08457e-05
8.41901e-05
3.3334e-05
8.47988e-05
3.60212e-05
8.54617e-05
3.89229e-05
8.61745e-05
4.20553e-05
8.69499e-05
4.54379e-05
8.77843e-05
4.90902e-05
8.86901e-05
5.30325e-05
8.96664e-05
5.72871e-05
9.07278e-05
6.18759e-05
9.18758e-05
6.68258e-05
9.31208e-05
7.21676e-05
9.44649e-05
7.79279e-05
9.5927e-05
8.41327e-05
9.75087e-05
9.08222e-05
9.92219e-05
9.80324e-05
0.000101078
0.000105792
0.000103092
0.000114146
0.000105266
0.00012314
0.000107629
0.000132802
0.000110181
0.000143196
0.000112946
0.000154355
0.000115937
0.000166329
0.00011917
0.000179173
0.000122666
0.000192924
0.00012644
0.000207642
0.000130518
0.000223361
0.000134912
0.000240133
0.000139651
0.00025799
0.000144752
0.000276962
0.000150239
0.000297071
0.000156138
0.000318315
0.000162468
0.000340689
0.000169253
0.000364147
0.000176513
0.000388621
0.000184266
0.000413998
0.000192528
0.000440112
0.000201311
0.000466732
0.000210621
0.000493544
0.000220455
0.000520131
0.0002308
0.00054595
0.000241629
0.000570303
0.000252901
0.0005923
0.000264544
0.000610824
0.000276471
0.000624475
0.000288547
0.000631528
0.00030061
0.000629847
0.000312435
0.000616854
0.000323754
0.000589406
0.000334208
0.000543856
0.000343365
0.000475911
0.000350637
0.000380729
0.000355817
0.000252444
0.00035752
8.59747e-05
0.00036286
-0.000114487
-0.00034167
0.000395371
8.03792e-05
2.22327e-05
-8.00002e-05
8.0789e-05
2.40292e-05
8.12283e-05
2.59703e-05
8.17065e-05
2.80675e-05
8.22189e-05
3.03328e-05
8.27771e-05
3.27793e-05
8.33762e-05
3.54212e-05
8.40282e-05
3.82737e-05
8.473e-05
4.13518e-05
8.54935e-05
4.46762e-05
8.63155e-05
4.82663e-05
8.72076e-05
5.21413e-05
8.81695e-05
5.63231e-05
8.92147e-05
6.08311e-05
9.03459e-05
6.56929e-05
9.15718e-05
7.09422e-05
9.28962e-05
7.66024e-05
9.4336e-05
8.26937e-05
9.58945e-05
8.92629e-05
9.75816e-05
9.63461e-05
9.94098e-05
0.000103963
0.000101393
0.000112164
0.000103534
0.000120998
0.000105859
0.000130477
0.000108372
0.000140682
0.000111092
0.000151634
0.000114035
0.000163385
0.000117214
0.000175992
0.000120652
0.000189484
0.000124363
0.000203929
0.00012837
0.000219351
0.00013269
0.00023581
0.000137346
0.000253329
0.000142361
0.000271945
0.000147754
0.000291675
0.000153552
0.000312515
0.000159772
0.000334465
0.000166438
0.000357477
0.000173571
0.000381483
0.000181188
0.000406375
0.000189305
0.000431988
0.000197933
0.000458095
0.000207077
0.000484389
0.000216735
0.000510461
0.000226894
0.000535778
0.000237527
0.000559655
0.000248591
0.00058122
0.000260017
0.000599378
0.000271718
0.000612756
0.000283562
0.00061966
0.00029539
0.000617998
0.000306979
0.000605242
0.000318071
0.000578324
0.000328306
0.000533657
0.000337264
0.000467051
0.000344365
0.000373784
0.000349184
0.000247861
0.000352446
8.30106e-05
0.000351972
-0.000113672
-0.000329816
0.000340343
7.91817e-05
2.18624e-05
-7.88079e-05
7.95855e-05
2.36291e-05
8.00179e-05
2.55382e-05
8.0488e-05
2.76009e-05
8.09916e-05
2.98289e-05
8.1539e-05
3.22351e-05
8.21266e-05
3.48331e-05
8.2765e-05
3.76377e-05
8.34524e-05
4.0663e-05
8.41994e-05
4.39308e-05
8.50039e-05
4.74603e-05
8.58765e-05
5.12697e-05
8.68177e-05
5.53803e-05
8.78403e-05
5.98092e-05
8.89474e-05
6.45846e-05
9.01473e-05
6.9743e-05
9.14443e-05
7.53047e-05
9.2855e-05
8.12842e-05
9.4383e-05
8.77347e-05
9.60379e-05
9.46926e-05
9.78326e-05
0.000102168
9.97797e-05
0.000110218
0.000101884
0.000118894
0.000104169
0.000128193
0.000106639
0.000138212
0.000109313
0.000148961
0.000112207
0.000160492
0.000115332
0.000172866
0.000118713
0.000186103
0.000122361
0.000200281
0.0001263
0.000215411
0.000130546
0.000231563
0.000135123
0.000248752
0.000140051
0.000267016
0.000145352
0.000286375
0.000151049
0.000306819
0.000157161
0.000328354
0.00016371
0.000350928
0.000170716
0.000374475
0.000178198
0.000398892
0.000186169
0.000424014
0.000194641
0.00044962
0.000203618
0.000475408
0.000213097
0.000500977
0.000223065
0.000525804
0.000233495
0.000549218
0.000244345
0.000570364
0.000255546
0.000588167
0.000267014
0.000601283
0.000278616
0.000608048
0.0002902
0.000606414
0.000301545
0.0005939
0.0003124
0.000567497
0.000322409
0.000523685
0.000331163
0.00045836
0.000338127
0.000366884
0.000342877
0.000243201
0.000345483
8.0568e-05
0.000346014
-0.000113988
-0.000331638
0.000348041
7.80385e-05
2.14982e-05
-7.76722e-05
7.84346e-05
2.3236e-05
7.88591e-05
2.5114e-05
7.93201e-05
2.7143e-05
7.98143e-05
2.93345e-05
8.03515e-05
3.1701e-05
8.09283e-05
3.42558e-05
8.15553e-05
3.70134e-05
8.22304e-05
3.99866e-05
8.29642e-05
4.31985e-05
8.37546e-05
4.66683e-05
8.46119e-05
5.0413e-05
8.55367e-05
5.44538e-05
8.65409e-05
5.88052e-05
8.76279e-05
6.34963e-05
8.88054e-05
6.8566e-05
9.00779e-05
7.40315e-05
9.14611e-05
7.9902e-05
9.29595e-05
8.62364e-05
9.45821e-05
9.30714e-05
9.63423e-05
0.000100409
9.82522e-05
0.00010831
0.000100317
0.000116829
0.000102561
0.000125951
0.000104986
0.000135787
0.000107613
0.000146335
0.000110455
0.000157651
0.000113527
0.000169796
0.000116849
0.000182782
0.000120433
0.000196697
0.000124304
0.000211541
0.000128476
0.000227392
0.000132973
0.000244256
0.000137814
0.000262176
0.000143022
0.00028117
0.000148618
0.000301226
0.000154621
0.000322354
0.000161052
0.000344499
0.000167932
0.000367598
0.000175277
0.000391549
0.000183103
0.000416191
0.000191418
0.000441307
0.000200228
0.000466601
0.000209528
0.000491678
0.000219306
0.000516028
0.000229534
0.000538991
0.000240171
0.00055973
0.00025115
0.000577189
0.000262387
0.000590049
0.000273755
0.00059668
0.000285103
0.000595072
0.000296215
0.000582798
0.000306848
0.000556913
0.000316655
0.000513962
0.00032524
0.000449922
0.000332114
0.000360227
0.000336858
0.000238784
0.000339731
7.8143e-05
0.000339675
-0.000113394
-0.000326805
0.000335237
7.68807e-05
2.11439e-05
-7.6522e-05
7.72671e-05
2.2854e-05
7.76797e-05
2.47018e-05
7.81289e-05
2.66978e-05
7.86101e-05
2.88532e-05
7.91345e-05
3.118e-05
7.96982e-05
3.36916e-05
8.03124e-05
3.64019e-05
8.09749e-05
3.93229e-05
8.16967e-05
4.24787e-05
8.24753e-05
4.58884e-05
8.33214e-05
4.95682e-05
8.42348e-05
5.35391e-05
8.52276e-05
5.78134e-05
8.63023e-05
6.24208e-05
8.74663e-05
6.74031e-05
8.87232e-05
7.27744e-05
9.00882e-05
7.85382e-05
9.15653e-05
8.47597e-05
9.31631e-05
9.14752e-05
9.48947e-05
9.86779e-05
9.67723e-05
0.000106434
9.88016e-05
0.000114801
0.000101005
0.000123749
0.000103388
0.000133406
0.000105968
0.000143757
0.00010876
0.00015486
0.000111777
0.00016678
0.000115041
0.00017952
0.000118562
0.000193177
0.000122365
0.00020774
0.000126463
0.000223294
0.00013088
0.00023984
0.000135636
0.000257422
0.00014075
0.000276059
0.000146246
0.000295734
0.000152141
0.000316463
0.000158456
0.000338188
0.000165211
0.000360846
0.000172421
0.000384341
0.000180102
0.000408513
0.000188263
0.000433148
0.000196907
0.000457957
0.000206031
0.000482554
0.000215621
0.000506437
0.000225652
0.000528959
0.000236081
0.000549299
0.000246843
0.000566422
0.000257858
0.000579033
0.000269
0.000585533
0.000280123
0.000583952
0.000291015
0.000571909
0.000301439
0.000546512
0.000311058
0.000504372
0.000319484
0.000441545
0.000326261
0.000353493
0.00033097
0.000234128
0.000333683
7.55306e-05
0.000333455
-0.000113034
-0.000323814
0.000330604
7.56789e-05
2.08014e-05
-7.53346e-05
7.60517e-05
2.24844e-05
7.64512e-05
2.43022e-05
7.68872e-05
2.62652e-05
7.73555e-05
2.83842e-05
7.78676e-05
3.06712e-05
7.84192e-05
3.31392e-05
7.90217e-05
3.5802e-05
7.96726e-05
3.86706e-05
8.03827e-05
4.177e-05
8.11501e-05
4.51193e-05
8.19851e-05
4.87337e-05
8.28887e-05
5.26339e-05
8.38718e-05
5.68302e-05
8.4938e-05
6.13534e-05
8.60932e-05
6.62481e-05
8.73417e-05
7.15255e-05
8.86968e-05
7.7184e-05
9.01622e-05
8.32945e-05
9.17453e-05
8.98936e-05
9.34584e-05
9.69656e-05
9.53129e-05
0.000104581
9.73142e-05
0.000112801
9.94847e-05
0.00012158
0.000101829
0.000131062
0.000104366
0.000141222
0.000107111
0.000152117
0.000110075
0.000163817
0.000113281
0.000176316
0.00011674
0.00018972
0.000120475
0.000204007
0.0001245
0.00021927
0.000128838
0.000235504
0.000133508
0.000252754
0.00013853
0.00027104
0.000143927
0.000290341
0.000149714
0.000310679
0.000155914
0.000331992
0.000162545
0.00035422
0.000169622
0.000377269
0.00017716
0.00040098
0.000185167
0.000425146
0.000193648
0.000449482
0.000202598
0.00047361
0.000212005
0.000497037
0.000221841
0.00051913
0.000232067
0.000539081
0.000242619
0.000555876
0.000253418
0.000568245
0.00026434
0.000574618
0.000275245
0.000573064
0.000285921
0.000561251
0.000296141
0.000536347
0.000305575
0.000495029
0.000313842
0.000433428
0.000320503
0.000347054
0.000325148
0.000229816
0.000327847
7.32968e-05
0.000327309
-0.000111931
-0.000320063
0.000323992
7.44585e-05
2.04693e-05
-7.41231e-05
7.48222e-05
2.21246e-05
7.52128e-05
2.39118e-05
7.56402e-05
2.58413e-05
7.61002e-05
2.79238e-05
7.66035e-05
3.0171e-05
7.71463e-05
3.25957e-05
7.77393e-05
3.52115e-05
7.83802e-05
3.80285e-05
7.90795e-05
4.10726e-05
7.9835e-05
4.43625e-05
8.06575e-05
4.79125e-05
8.15473e-05
5.17427e-05
8.25171e-05
5.58614e-05
8.35694e-05
6.03002e-05
8.47121e-05
6.51065e-05
8.59481e-05
7.02891e-05
8.72919e-05
7.58415e-05
8.87458e-05
8.18408e-05
9.03171e-05
8.83239e-05
9.20165e-05
9.52667e-05
9.38546e-05
0.000102744
9.58354e-05
0.000110821
9.79803e-05
0.000119437
0.000100294
0.00012875
0.000102794
0.000138724
0.000105495
0.000149417
0.000108411
0.000160903
0.000111562
0.000173167
0.00011496
0.000186323
0.000118629
0.00020034
0.000122582
0.000215319
0.000126841
0.000231246
0.000131427
0.000248172
0.000136357
0.000266114
0.000141654
0.000285048
0.000147335
0.000305002
0.00015342
0.000325911
0.000159928
0.000347717
0.000166872
0.000370327
0.000174268
0.000393587
0.000182124
0.000417292
0.000190444
0.000441165
0.000199223
0.000464832
0.000208448
0.000487812
0.000218094
0.000509482
0.000228122
0.000529052
0.000238469
0.000545525
0.000249058
0.000557655
0.000259768
0.0005639
0.000270461
0.000562371
0.000280929
0.000550775
0.000290952
0.000526334
0.000300208
0.000485785
0.000308323
0.000425334
0.000314874
0.000340514
0.000319469
0.000225223
0.000322126
7.06569e-05
0.000321388
-0.000111164
-0.000316381
0.000317767
7.3292e-05
2.01405e-05
-7.2963e-05
7.36523e-05
2.17667e-05
7.40412e-05
2.35224e-05
7.44668e-05
2.54183e-05
7.49252e-05
2.74647e-05
7.5426e-05
2.96729e-05
7.59655e-05
3.20556e-05
7.65535e-05
3.46259e-05
7.71877e-05
3.7393e-05
7.78775e-05
4.03841e-05
7.86212e-05
4.36174e-05
7.94281e-05
4.71058e-05
8.03003e-05
5.08691e-05
8.12487e-05
5.49128e-05
8.22783e-05
5.92695e-05
8.33962e-05
6.39888e-05
8.46076e-05
6.90772e-05
8.59266e-05
7.45233e-05
8.73571e-05
8.04105e-05
8.89062e-05
8.67762e-05
9.05845e-05
9.3589e-05
9.24017e-05
0.000100929
9.43608e-05
0.000108863
9.64816e-05
0.000117317
9.87674e-05
0.000126465
0.000101235
0.000136258
0.000103898
0.000146755
0.000106769
0.000158033
0.00010987
0.000170068
0.000113211
0.000182983
0.000116816
0.000196736
0.000120699
0.000211437
0.000124882
0.000227065
0.000129383
0.000243672
0.000134223
0.000261277
0.000139422
0.000279852
0.000144997
0.00029943
0.000150969
0.000319943
0.000157354
0.000341336
0.000164168
0.000363518
0.000171424
0.000386336
0.000179131
0.000409591
0.000187291
0.00043301
0.000195902
0.000456228
0.000204951
0.000478771
0.000214412
0.000500029
0.000224247
0.000519227
0.000234396
0.000535385
0.000244782
0.000547282
0.000255289
0.000553405
0.000265779
0.000551899
0.00027605
0.000540523
0.000285885
0.000516551
0.000294974
0.000476784
0.000302951
0.000417499
0.000309405
0.000334275
0.000313953
0.000220996
0.000316531
6.85281e-05
0.00031566
-0.000109741
-0.000311844
0.000311556
7.22588e-05
1.98093e-05
-7.19234e-05
7.26241e-05
2.14057e-05
7.30168e-05
2.31302e-05
7.3446e-05
2.49931e-05
7.39061e-05
2.70044e-05
7.44072e-05
2.91751e-05
7.49446e-05
3.15174e-05
7.55289e-05
3.40442e-05
7.61567e-05
3.67639e-05
7.68382e-05
3.97046e-05
7.75699e-05
4.28843e-05
7.83623e-05
4.63149e-05
7.92144e-05
5.00154e-05
8.01397e-05
5.39888e-05
8.11401e-05
5.82678e-05
8.22256e-05
6.29046e-05
8.33999e-05
6.79022e-05
8.46799e-05
7.32447e-05
8.60693e-05
7.90209e-05
8.75779e-05
8.52691e-05
8.92167e-05
9.19505e-05
9.09966e-05
9.91505e-05
9.29202e-05
0.00010694
9.50067e-05
0.000115232
9.72582e-05
0.000124215
9.96896e-05
0.000133828
0.000102314
0.000144133
0.000105142
0.000155206
0.000108194
0.000167017
0.000111481
0.000179698
0.000115026
0.000193194
0.000118842
0.000207623
0.00012295
0.000222958
0.000127371
0.000239254
0.000132121
0.000256529
0.000137225
0.000274753
0.000142696
0.000293962
0.000148556
0.000314088
0.000154822
0.000335074
0.000161507
0.000356836
0.000168626
0.000379221
0.000176186
0.000402033
0.000184192
0.000425007
0.000192639
0.000447782
0.000201515
0.000469894
0.000210797
0.000490746
0.000220446
0.000509576
0.000230404
0.000525422
0.000240596
0.000537086
0.000250908
0.000543084
0.000261206
0.000541597
0.000271288
0.000530424
0.000280946
0.000506888
0.000289877
0.000467847
0.000297725
0.000409647
0.000304088
0.000327892
0.000308582
0.000216456
0.000311037
6.60054e-05
0.000310077
-0.000108856
-0.000307363
0.000305572
7.13849e-05
1.94724e-05
-7.10474e-05
7.1754e-05
2.10393e-05
7.21503e-05
2.27335e-05
7.25815e-05
2.45647e-05
7.30427e-05
2.65424e-05
7.35435e-05
2.86773e-05
7.40789e-05
3.09812e-05
7.4659e-05
3.34664e-05
7.52808e-05
3.61406e-05
7.59537e-05
3.9033e-05
7.66748e-05
4.21615e-05
7.74529e-05
4.55371e-05
7.82882e-05
4.91782e-05
7.91913e-05
5.30855e-05
8.01656e-05
5.7292e-05
8.12186e-05
6.18517e-05
8.23553e-05
6.67647e-05
8.35913e-05
7.20095e-05
8.49319e-05
7.76801e-05
8.63877e-05
8.38147e-05
8.79715e-05
9.03671e-05
8.9696e-05
9.74276e-05
9.15655e-05
0.000105071
9.36001e-05
0.000113199
9.58019e-05
0.000122014
9.81851e-05
0.000131446
0.000100761
0.000141557
0.000103541
0.000152428
0.000106541
0.000164019
0.000109773
0.000176467
0.000113257
0.000189711
0.000117006
0.000203874
0.000121043
0.000218923
0.000125384
0.000234914
0.000130049
0.000251867
0.000135058
0.000269746
0.000140429
0.000288595
0.00014618
0.00030834
0.000152328
0.00032893
0.000158889
0.00035028
0.000165873
0.000372241
0.000173291
0.000394621
0.000181146
0.000417159
0.000189434
0.000439501
0.000198143
0.000461193
0.000207251
0.000481648
0.00021672
0.000500117
0.000226494
0.000515659
0.000236499
0.000527096
0.000246623
0.000532974
0.000256735
0.000531507
0.000266636
0.000520538
0.000276123
0.000497446
0.000284902
0.000459147
0.000292626
0.00040205
0.000298899
0.000321814
0.000303335
0.000212311
0.000305633
6.41114e-05
0.000304616
-0.000107333
-0.000302218
0.000299879
7.06542e-05
1.91327e-05
-7.03121e-05
7.10252e-05
2.06719e-05
7.14212e-05
2.23375e-05
7.18504e-05
2.41385e-05
7.23082e-05
2.60841e-05
7.28035e-05
2.81847e-05
7.33324e-05
3.04515e-05
7.39043e-05
3.28968e-05
7.45168e-05
3.55269e-05
7.51792e-05
3.83724e-05
7.58884e-05
4.1451e-05
7.66538e-05
4.47732e-05
7.74738e-05
4.83568e-05
7.836e-05
5.22007e-05
7.9313e-05
5.6338e-05
8.03412e-05
6.08249e-05
8.14467e-05
6.56585e-05
8.26457e-05
7.08121e-05
8.39416e-05
7.63841e-05
8.53458e-05
8.2412e-05
8.68714e-05
8.88418e-05
8.85328e-05
9.57678e-05
9.03364e-05
0.000103268
9.23042e-05
0.000111233
9.44402e-05
0.000119879
9.67596e-05
0.000129128
9.92739e-05
0.000139044
0.000101993
0.000149711
0.000104932
0.00016108
0.000108102
0.000173299
0.000111522
0.000186294
0.000115203
0.000200194
0.000119166
0.000214961
0.000123428
0.000230654
0.000128008
0.00024729
0.000132926
0.000264832
0.000138197
0.000283327
0.000143842
0.000302699
0.000149876
0.000322899
0.000156314
0.000343845
0.000163168
0.000365389
0.000170448
0.000387343
0.000178155
0.000409452
0.000186289
0.000431368
0.000194836
0.000452645
0.000203775
0.000472706
0.000213071
0.000490819
0.000222665
0.000506057
0.000232489
0.000517267
0.00024243
0.00052302
0.000252362
0.000521566
0.000262087
0.000510786
0.000271408
0.000488107
0.000280037
0.000450495
0.000287637
0.000394425
0.00029382
0.000315584
0.000298191
0.000207855
0.000300333
6.18319e-05
0.000299279
-0.000106435
-0.000297489
0.000294462
7.00137e-05
1.87945e-05
-6.96768e-05
7.03795e-05
2.03079e-05
7.07696e-05
2.19466e-05
7.11913e-05
2.37188e-05
7.16409e-05
2.56336e-05
7.21272e-05
2.77008e-05
7.26463e-05
2.99316e-05
7.32074e-05
3.23377e-05
7.38084e-05
3.49247e-05
7.4458e-05
3.77239e-05
7.51541e-05
4.07533e-05
7.59051e-05
4.40224e-05
7.67111e-05
4.75491e-05
7.75815e-05
5.13301e-05
7.85183e-05
5.53996e-05
7.95275e-05
5.98159e-05
8.06119e-05
6.45733e-05
8.17846e-05
6.96402e-05
8.30486e-05
7.51198e-05
8.44133e-05
8.10487e-05
8.5891e-05
8.73644e-05
8.74959e-05
9.41644e-05
8.92355e-05
0.000101529
9.11336e-05
0.000109336
9.31965e-05
0.000117817
9.54414e-05
0.000126884
9.78816e-05
0.000136605
0.000100527
0.000147067
0.000103395
0.000158214
0.000106494
0.000170202
0.000109841
0.000182948
0.000113448
0.000196588
0.000117334
0.000211077
0.000121515
0.000226474
0.000126008
0.000242799
0.000130834
0.000260009
0.000136007
0.000278156
0.000141547
0.000297163
0.000147469
0.000316981
0.000153787
0.000337531
0.000160514
0.000358666
0.000167659
0.000380205
0.000175224
0.000401893
0.000183207
0.000423392
0.000191597
0.000444263
0.000200372
0.000463941
0.000209498
0.000481705
0.000218918
0.000496648
0.000228565
0.000507637
0.000238328
0.000513272
0.000248082
0.000511833
0.000257634
0.000501248
0.000266791
0.00047899
0.000275273
0.000442085
0.000282748
0.000387065
0.000288838
0.000309672
0.000293141
0.000203821
0.000295141
6.02026e-05
0.000294071
-0.000104896
-0.000292315
0.000289282
6.9414e-05
1.8464e-05
-6.908e-05
6.97725e-05
1.99536e-05
7.01527e-05
2.15667e-05
7.05639e-05
2.33113e-05
7.10012e-05
2.51959e-05
7.14747e-05
2.72305e-05
7.19798e-05
2.94258e-05
7.2527e-05
3.17932e-05
7.3113e-05
3.43374e-05
7.37482e-05
3.70908e-05
7.44289e-05
4.00712e-05
7.51656e-05
4.32874e-05
7.59561e-05
4.67571e-05
7.68124e-05
5.04753e-05
7.77339e-05
5.4477e-05
7.87286e-05
5.88227e-05
7.97965e-05
6.35045e-05
8.09518e-05
6.84865e-05
8.21946e-05
7.38766e-05
8.35337e-05
7.97113e-05
8.49784e-05
8.59197e-05
8.6542e-05
9.26024e-05
8.82307e-05
9.98411e-05
9.00685e-05
0.0001075
9.20631e-05
0.000115823
9.42337e-05
0.000124715
9.65958e-05
0.000134244
9.91618e-05
0.000144502
0.000101949
0.000155428
0.000104967
0.000167184
0.000108234
0.000179682
0.000111761
0.000193062
0.000115563
0.000207274
0.000119659
0.00022238
0.000124063
0.000238396
0.000128795
0.000255279
0.00013387
0.000273085
0.000139305
0.000291732
0.000145115
0.000311173
0.000151316
0.000331333
0.000157918
0.000352067
0.00016493
0.000373194
0.000172355
0.000394469
0.000180191
0.000415556
0.000188428
0.000436025
0.000197043
0.000455322
0.000206003
0.000472741
0.000215254
0.000487389
0.000224727
0.000498157
0.000234315
0.000503668
0.000243896
0.00050224
0.000253277
0.000491832
0.000262272
0.000469966
0.000270607
0.000433716
0.000277958
0.000379672
0.000283953
0.00030361
0.00028818
0.00019948
0.00029007
5.81173e-05
0.000288995
-0.000104045
-0.000287746
0.000284283
6.88074e-05
1.81433e-05
-6.8487e-05
6.91531e-05
1.96103e-05
6.95204e-05
2.11987e-05
6.99182e-05
2.29162e-05
7.03419e-05
2.47712e-05
7.08017e-05
2.67735e-05
7.1293e-05
2.89336e-05
7.1826e-05
3.12625e-05
7.23977e-05
3.37642e-05
7.30178e-05
3.6472e-05
7.36835e-05
3.94035e-05
7.44044e-05
4.25668e-05
7.518e-05
4.59794e-05
7.60205e-05
4.96346e-05
7.69277e-05
5.35681e-05
7.79076e-05
5.78429e-05
7.89622e-05
6.24489e-05
8.01035e-05
6.73459e-05
8.13324e-05
7.26474e-05
8.26553e-05
7.83897e-05
8.40805e-05
8.44947e-05
8.56183e-05
9.10661e-05
8.72731e-05
9.81867e-05
8.90672e-05
0.000105707
9.10076e-05
0.000113883
9.31145e-05
0.000122609
9.54047e-05
0.000131954
9.78928e-05
0.000142015
0.000100598
0.000152723
0.000103533
0.000164251
0.000106714
0.000176502
0.000110153
0.000189623
0.000113869
0.00020356
0.000117874
0.000218375
0.000122186
0.000234087
0.000126821
0.000250646
0.000131795
0.000268113
0.000137124
0.000286405
0.000142824
0.000305477
0.000148907
0.000325254
0.000155385
0.000345593
0.000162267
0.000366318
0.000169555
0.000387187
0.000177248
0.00040787
0.000185334
0.000427947
0.000193792
0.000446873
0.00020259
0.000463954
0.000211674
0.000478317
0.000220977
0.000488871
0.000230393
0.000494267
0.000239804
0.000492852
0.000249016
0.000482628
0.000257851
0.000461164
0.000266041
0.000425587
0.000273267
0.000372546
0.000279163
0.000297871
0.000283311
0.000195569
0.000285117
5.66368e-05
0.000284045
-0.00010255
-0.00028277
0.000279426
6.81709e-05
1.78347e-05
-6.78605e-05
6.85046e-05
1.928e-05
6.8859e-05
2.08441e-05
6.92434e-05
2.25348e-05
6.96534e-05
2.43606e-05
7.00987e-05
2.63308e-05
7.05755e-05
2.84559e-05
7.10936e-05
3.07466e-05
7.16505e-05
3.3206e-05
7.22559e-05
3.58686e-05
7.29066e-05
3.87515e-05
7.36129e-05
4.18623e-05
7.43728e-05
4.5218e-05
7.51988e-05
4.88102e-05
7.60903e-05
5.26753e-05
7.70559e-05
5.68788e-05
7.80957e-05
6.14083e-05
7.92236e-05
6.62196e-05
8.04391e-05
7.14314e-05
8.17495e-05
7.70808e-05
8.31612e-05
8.3083e-05
8.46833e-05
8.95455e-05
8.63177e-05
9.65526e-05
8.8084e-05
0.000103942
8.99873e-05
0.000111981
9.20466e-05
0.000120551
9.42786e-05
0.000129723
9.6699e-05
0.000139595
9.93293e-05
0.000150094
0.000102182
0.000161399
0.000105278
0.000173407
0.00010863
0.000186273
0.000112254
0.000199936
0.000116167
0.000214464
0.000120382
0.000229872
0.000124919
0.000246111
0.000129791
0.000263244
0.000135014
0.000281185
0.000140601
0.000299892
0.000146567
0.00031929
0.000152923
0.000339239
0.000159676
0.000359566
0.000166828
0.000380034
0.000174379
0.000400319
0.000182318
0.000420007
0.000190622
0.000438564
0.000199261
0.00045531
0.000208181
0.000469388
0.000217317
0.000479726
0.000226564
0.000485002
0.000235806
0.000483594
0.000244853
0.000473539
0.00025353
0.000452449
0.000261576
0.000417498
0.000268676
0.000365389
0.000274472
0.000291992
0.000278538
0.000191366
0.000280285
5.46498e-05
0.000279212
-0.000101753
-0.000278422
0.000274677
6.74883e-05
1.7537e-05
-6.71928e-05
6.78091e-05
1.89608e-05
6.81513e-05
2.05008e-05
6.85231e-05
2.21649e-05
6.89208e-05
2.39616e-05
6.93538e-05
2.59002e-05
6.98182e-05
2.79905e-05
7.03235e-05
3.02433e-05
7.08674e-05
3.26607e-05
7.14588e-05
3.52782e-05
7.20955e-05
3.8113e-05
7.27865e-05
4.11715e-05
7.35319e-05
4.44707e-05
7.43416e-05
4.80003e-05
7.5218e-05
5.17974e-05
7.61672e-05
5.59296e-05
7.7192e-05
6.03825e-05
7.83046e-05
6.51078e-05
7.95062e-05
7.02293e-05
8.08035e-05
7.57848e-05
8.22031e-05
8.16834e-05
8.37133e-05
8.80367e-05
8.53345e-05
9.49317e-05
8.70838e-05
0.000102194
8.89639e-05
0.000110101
9.09914e-05
0.000118524
9.31812e-05
0.000127534
9.55489e-05
0.000137228
9.8116e-05
0.000147528
0.000100897
0.000158619
0.000103914
0.000170391
0.00010718
0.000183006
0.000110716
0.000196402
0.000114535
0.000210644
0.000118655
0.000225753
0.000123092
0.000241675
0.000127861
0.000258477
0.000132976
0.000276073
0.000138452
0.000294419
0.000144301
0.000313444
0.000150534
0.000333009
0.000157159
0.000352947
0.000164178
0.00037302
0.000171589
0.000392914
0.000179381
0.000412222
0.000187534
0.00043042
0.000196016
0.00044684
0.000204775
0.00046064
0.000213746
0.000470772
0.000222826
0.000475935
0.000231902
0.000474539
0.000240786
0.000464661
0.000249307
0.000443955
0.00025721
0.00040965
0.000264185
0.000358503
0.000269878
0.000286443
0.000273863
0.000187596
0.000275562
5.3247e-05
0.000274486
-0.000100285
-0.000273621
0.00027002
6.67622e-05
1.72504e-05
-6.64727e-05
6.70742e-05
1.86528e-05
6.74063e-05
2.01688e-05
6.77682e-05
2.18065e-05
6.81548e-05
2.35744e-05
6.85765e-05
2.54815e-05
6.90285e-05
2.75375e-05
6.95216e-05
2.97528e-05
7.00522e-05
3.21287e-05
7.06308e-05
3.47017e-05
7.12535e-05
3.74888e-05
7.19311e-05
4.04957e-05
7.2661e-05
4.3739e-05
7.34563e-05
4.72066e-05
7.43159e-05
5.09362e-05
7.52494e-05
5.49976e-05
7.62568e-05
5.9374e-05
7.73528e-05
6.40133e-05
7.85374e-05
6.90441e-05
7.98191e-05
7.45047e-05
8.1204e-05
8.02983e-05
8.2701e-05
8.65411e-05
8.431e-05
9.33229e-05
8.60466e-05
0.000100458
8.79114e-05
0.000108236
8.99183e-05
0.000116518
9.20798e-05
0.000125373
9.44095e-05
0.000134899
9.69282e-05
0.00014501
9.96503e-05
0.000155898
0.000102599
0.000167443
0.000105789
0.000179817
0.00010924
0.000192949
0.000112971
0.000206914
0.000116997
0.000221728
0.000121336
0.000237337
0.000126002
0.000253813
0.00013101
0.000271067
0.000136374
0.000289056
0.000142107
0.000307713
0.000148219
0.000326899
0.000154717
0.000346449
0.000161603
0.000366134
0.000168876
0.00038564
0.000176524
0.000404571
0.000184527
0.000422411
0.000192855
0.000438506
0.000201454
0.00045203
0.000210263
0.000461953
0.000219179
0.000466999
0.000228091
0.000465609
0.000236813
0.000455891
0.000245181
0.000435543
0.000252942
0.000401839
0.000259792
0.000351587
0.000265382
0.000280759
0.000269286
0.000183539
0.000270944
5.13132e-05
0.000269859
-9.95167e-05
-0.00026943
0.000265439
6.59914e-05
1.69718e-05
-6.57141e-05
6.62938e-05
1.83527e-05
6.66168e-05
1.98448e-05
6.69694e-05
2.14564e-05
6.73468e-05
2.31958e-05
6.77591e-05
2.50718e-05
6.82016e-05
2.70939e-05
6.86844e-05
2.92721e-05
6.92043e-05
3.16071e-05
6.9771e-05
3.41361e-05
7.03815e-05
3.68762e-05
7.10452e-05
3.98321e-05
7.17616e-05
4.30203e-05
7.25412e-05
4.64267e-05
7.33856e-05
5.00898e-05
7.4302e-05
5.40813e-05
7.52926e-05
5.83821e-05
7.63705e-05
6.29361e-05
7.75372e-05
6.78767e-05
7.88007e-05
7.32425e-05
8.01682e-05
7.89306e-05
8.1649e-05
8.50617e-05
8.32433e-05
9.17288e-05
8.49664e-05
9.87363e-05
8.68179e-05
0.000106385
8.88096e-05
0.000114527
9.09515e-05
0.000123231
9.32548e-05
0.000132597
9.57379e-05
0.000142527
9.84148e-05
0.000153222
0.000101307
0.000164552
0.000104432
0.000176693
0.000107809
0.000189573
0.000111457
0.000203265
0.000115395
0.000217791
0.000119639
0.000233094
0.000124206
0.000249249
0.000129109
0.000266165
0.000134364
0.000283804
0.000139982
0.000302098
0.000145974
0.00032091
0.000152346
0.000340082
0.000159102
0.000359384
0.000166237
0.000378511
0.000173743
0.000397072
0.000181599
0.000414564
0.000189773
0.000430342
0.000198216
0.000443597
0.000206863
0.000453319
0.000215617
0.000458257
0.000224368
0.000456877
0.00023293
0.000447328
0.000241146
0.000427349
0.000248766
0.000394263
0.000255493
0.000344937
0.00026098
0.000275398
0.000264805
0.000179903
0.00026642
4.9958e-05
0.00026532
-9.80631e-05
-0.000264741
0.000260935
6.51868e-05
1.67008e-05
-6.4915e-05
6.54825e-05
1.80603e-05
6.57981e-05
1.95286e-05
6.61429e-05
2.11144e-05
6.65121e-05
2.28257e-05
6.69153e-05
2.4671e-05
6.73484e-05
2.66597e-05
6.78211e-05
2.88015e-05
6.83305e-05
3.10962e-05
6.88863e-05
3.35821e-05
6.9485e-05
3.6276e-05
7.01368e-05
3.9182e-05
7.08395e-05
4.23159e-05
7.16054e-05
4.56623e-05
7.2434e-05
4.92598e-05
7.33345e-05
5.31823e-05
7.43071e-05
5.74084e-05
7.53666e-05
6.18781e-05
7.65134e-05
6.67292e-05
7.77568e-05
7.20006e-05
7.91039e-05
7.75833e-05
8.05648e-05
8.36022e-05
8.21404e-05
9.01532e-05
8.38465e-05
9.70313e-05
8.56824e-05
0.00010455
8.76591e-05
0.000112551
8.97847e-05
0.000121106
9.2068e-05
0.000130314
9.45251e-05
0.000140071
9.71674e-05
0.00015058
0.000100016
0.000161704
0.000103087
0.000173622
0.0001064
0.000186258
0.000109976
0.00019969
0.000113832
0.000213935
0.000117989
0.000228939
0.000122461
0.000244779
0.000127264
0.000261364
0.000132412
0.000278657
0.000137919
0.000296593
0.000143793
0.000315037
0.000150041
0.000333833
0.000156668
0.000352756
0.000163668
0.000371507
0.000171034
0.000389703
0.000178743
0.000406848
0.000186767
0.000422311
0.000195054
0.000435298
0.000203543
0.000444817
0.000212137
0.000449641
0.000220728
0.000448266
0.000229133
0.00043887
0.000237199
0.000419234
0.000244681
0.000386725
0.000251285
0.00033826
0.000256669
0.000269909
0.000260416
0.000175991
0.000261986
4.80812e-05
0.000260865
-9.72966e-05
-0.000260645
0.000256501
6.43515e-05
1.64352e-05
-6.40891e-05
6.46401e-05
1.77732e-05
6.49491e-05
1.92181e-05
6.5287e-05
2.07783e-05
6.56492e-05
2.24619e-05
6.60453e-05
2.42771e-05
6.64708e-05
2.6233e-05
6.69351e-05
2.83389e-05
6.74356e-05
3.05941e-05
6.7981e-05
3.30376e-05
6.8569e-05
3.56861e-05
6.92081e-05
3.85429e-05
6.98984e-05
4.16236e-05
7.06495e-05
4.49109e-05
7.14635e-05
4.8444e-05
7.2347e-05
5.22988e-05
7.33026e-05
5.64516e-05
7.43431e-05
6.08383e-05
7.54703e-05
6.56014e-05
7.66925e-05
7.07796e-05
7.80177e-05
7.62579e-05
7.94562e-05
8.21651e-05
8.10097e-05
8.85998e-05
8.26946e-05
9.53475e-05
8.4511e-05
0.000102733
8.64696e-05
0.000110594
8.85777e-05
0.000118998
9.08427e-05
0.00012805
9.32781e-05
0.000137636
9.58936e-05
0.000147965
9.87075e-05
0.00015889
0.000101735
0.000170595
0.000104995
0.000182998
0.000108508
0.000196176
0.000112292
0.000210151
0.000116369
0.000224863
0.000120752
0.000240396
0.00012546
0.000256657
0.000130507
0.000273612
0.000135905
0.000291197
0.000141665
0.00030928
0.000147793
0.000327708
0.000154293
0.000346261
0.000161161
0.000364644
0.000168389
0.000382481
0.000175955
0.000399288
0.00018383
0.000414444
0.000191963
0.000427171
0.000200296
0.000436496
0.000208732
0.000441214
0.000217165
0.000439847
0.000225415
0.000430615
0.000233332
0.000411334
0.000240677
0.00037942
0.00024716
0.000331846
0.000252443
0.00026474
0.000256112
0.000172495
0.00025763
4.68004e-05
0.000256484
-9.58269e-05
-0.000256021
0.000252139
6.34971e-05
1.61755e-05
-6.32356e-05
6.3782e-05
1.74922e-05
6.40858e-05
1.89139e-05
6.44184e-05
2.04491e-05
6.4774e-05
2.21054e-05
6.5163e-05
2.3891e-05
6.55801e-05
2.58147e-05
6.60361e-05
2.78854e-05
6.65266e-05
3.01018e-05
6.70625e-05
3.25038e-05
6.76391e-05
3.51078e-05
6.82673e-05
3.79163e-05
6.89441e-05
4.09448e-05
6.96824e-05
4.41742e-05
7.04806e-05
4.76441e-05
7.13487e-05
5.14323e-05
7.22861e-05
5.55128e-05
7.3308e-05
5.98179e-05
7.44143e-05