/*--------------------------------*- C++ -*----------------------------------*\
  =========                 |
  \\      /  F ield         | OpenFOAM: The Open Source CFD Toolbox
   \\    /   O peration     | Website:  https://openfoam.org
    \\  /    A nd           | Version:  6.0
     \\/     M anipulation  |
\*---------------------------------------------------------------------------*/
FoamFile
{
    version     2.0;
    format      ascii;
    class       volScalarField;
    location    "12";
    object      p;
}
// * * * * * * * * * * * * * * * * * * * * * * * * * * * * * * * * * * * * * //

dimensions      [0 2 -2 0 0 0 0];

internalField   nonuniform List<scalar> 
62000
(
0.0209993
0.0207933
0.0205769
0.0203551
0.020125
0.019891
0.019649
0.019403
0.0191485
0.0188884
0.0186172
0.0183377
0.0180444
0.0177402
0.01742
0.0170861
0.0167335
0.0163639
0.0159722
0.0155599
0.0151216
0.0146591
0.014167
0.0136474
0.0130949
0.0125119
0.0118937
0.0112428
0.0105555
0.0098344
0.00907637
0.00828447
0.00745741
0.00660251
0.00572237
0.00481792
0.0038892
0.00293856
0.00196923
0.000984371
-1.30401e-05
-0.0010192
-0.00202891
-0.00303551
-0.00402937
-0.0050014
-0.00594044
-0.00683676
-0.00768804
-0.00847741
-0.00921342
-0.00984379
-0.0103829
-0.0107066
-0.0107504
-0.0103759
-0.00957262
-0.00783299
-0.00632512
-0.0121504
0.0213225
0.0211271
0.0209178
0.0206963
0.0204594
0.0202116
0.0199503
0.0196822
0.0194061
0.0191278
0.0188428
0.0185534
0.0182535
0.0179447
0.0176213
0.0172852
0.0169309
0.0165602
0.0161678
0.0157552
0.015317
0.0148546
0.0143628
0.013843
0.0132904
0.0127063
0.0120869
0.0114328
0.0107419
0.0100142
0.00924865
0.0084453
0.00760584
0.00673453
0.00583413
0.00490458
0.00394578
0.00295946
0.00194784
0.000912783
-0.000144097
-0.00122001
-0.00231062
-0.00340959
-0.00450708
-0.0055929
-0.00665368
-0.00767725
-0.00865886
-0.00957884
-0.0104475
-0.0112036
-0.0118685
-0.012281
-0.0123457
-0.0118458
-0.0107295
-0.00841368
-0.00615973
-0.007451
0.0217308
0.0215649
0.0213818
0.0211808
0.020959
0.0207188
0.020455
0.0201739
0.0198771
0.0195746
0.0192658
0.0189553
0.0186371
0.0183123
0.0179742
0.0176238
0.0172554
0.0168707
0.0164641
0.0160374
0.0155851
0.0151087
0.0146031
0.0140694
0.0135032
0.0129051
0.0122717
0.0116031
0.0108973
0.0101537
0.00937159
0.00855082
0.00769366
0.00680428
0.00588501
0.00493549
0.00395649
0.00295059
0.00192045
0.000868157
-0.000204182
-0.00129277
-0.00239144
-0.00349125
-0.00457843
-0.00563689
-0.00664549
-0.00758238
-0.00843257
-0.00916835
-0.00979729
-0.0102627
-0.0105992
-0.0106701
-0.0104305
-0.00971298
-0.00855888
-0.00658232
-0.00500914
-0.00727665
0.0222736
0.0221237
0.0219536
0.0217645
0.021556
0.0213297
0.0210761
0.0207973
0.0204936
0.0201775
0.0198526
0.0195273
0.0191975
0.0188644
0.01852
0.0181644
0.0177906
0.0173999
0.0169865
0.0165521
0.0160914
0.0156063
0.0150914
0.0145483
0.0139725
0.0133648
0.0127216
0.0120432
0.0113274
0.0105734
0.00978076
0.00894922
0.00808124
0.00718115
0.00625005
0.00528737
0.00429391
0.0032723
0.00222479
0.00115248
5.61664e-05
-0.00106163
-0.00219603
-0.00333916
-0.00447773
-0.00559451
-0.00666485
-0.00766112
-0.00855887
-0.00932169
-0.00994855
-0.0103794
-0.0106535
-0.0106452
-0.0103362
-0.00959167
-0.0085015
-0.00671218
-0.00532064
-0.00698316
0.0228558
0.0227178
0.022556
0.0223736
0.0221744
0.0219609
0.021721
0.0214508
0.021147
0.0208216
0.0204818
0.0201399
0.0197957
0.0194518
0.0191006
0.0187409
0.0183647
0.0179721
0.0175567
0.01712
0.0166563
0.0161675
0.0156484
0.0151006
0.0145196
0.0139064
0.0132576
0.0125732
0.0118515
0.0110915
0.0102926
0.00945489
0.00858108
0.00767475
0.00673729
0.00576709
0.00476483
0.00373279
0.0026723
0.00158279
0.000462643
-0.000688679
-0.00187004
-0.00307809
-0.00430434
-0.00553562
-0.0067496
-0.00791766
-0.00900985
-0.00997992
-0.0108129
-0.0114317
-0.0118535
-0.0119299
-0.0116288
-0.0107899
-0.00948325
-0.00730866
-0.00519127
-0.00547449
0.0235082
0.0233904
0.0232451
0.0230753
0.0228887
0.0226909
0.0224683
0.0222126
0.021915
0.0215848
0.02123
0.0208664
0.0204977
0.0201296
0.0197562
0.0193767
0.0189826
0.0185735
0.0181426
0.0176909
0.0172125
0.0167091
0.0161755
0.0156132
0.0150175
0.0143895
0.0137255
0.013026
0.0122889
0.0115136
0.0106997
0.00984718
0.00895895
0.00803956
0.0070897
0.0061084
0.00509666
0.00405702
0.00299095
0.00189739
0.000773466
-0.000383269
-0.00157457
-0.00280122
-0.00405995
-0.00534311
-0.006633
-0.00790389
-0.0091234
-0.0102394
-0.0112227
-0.0119774
-0.0124945
-0.0125915
-0.0122013
-0.0111331
-0.00944724
-0.00677355
-0.00400155
-0.00331225
0.0242656
0.0241777
0.0240585
0.0239096
0.0237419
0.0235648
0.0233658
0.0231335
0.0228539
0.0225322
0.0221747
0.0217983
0.0214096
0.0210169
0.0206168
0.0202095
0.0197872
0.0193494
0.0188894
0.018408
0.0178998
0.0173665
0.0168028
0.0162103
0.0155846
0.0149262
0.0142318
0.0135016
0.0127337
0.0119278
0.0110833
0.0102007
0.0092835
0.00833611
0.00736075
0.00635706
0.0053276
0.00427626
0.00320615
0.00211758
0.0010085
-0.000123098
-0.00127927
-0.00246258
-0.00367296
-0.00490709
-0.00615223
-0.00738697
-0.00858097
-0.00968073
-0.0106509
-0.0113839
-0.0118517
-0.0118483
-0.0112927
-0.00998919
-0.0080309
-0.00514181
-0.00218556
-0.00100975
0.0251542
0.025098
0.0250078
0.0248835
0.0247378
0.0245836
0.024411
0.0242077
0.0239562
0.0236573
0.0233145
0.0229438
0.0225522
0.0221503
0.0217356
0.0213099
0.0208658
0.0204031
0.0199155
0.019404
0.0188634
0.018296
0.017697
0.0170681
0.0164052
0.0157091
0.0149762
0.014207
0.0133996
0.0125538
0.0116693
0.0107467
0.00978959
0.00880373
0.00779162
0.00675467
0.00569741
0.00462574
0.00354536
0.00245933
0.00136801
0.000271886
-0.00082895
-0.00193615
-0.00305026
-0.00417021
-0.00528691
-0.00638426
-0.00743605
-0.00839402
-0.00922331
-0.00981789
-0.0101455
-0.00999691
-0.00929049
-0.00785426
-0.00583291
-0.00303304
-0.000187574
0.00119611
0.0261418
0.0261131
0.0260489
0.0259479
0.025823
0.0256895
0.0255408
0.0253655
0.0251446
0.0248758
0.02456
0.024211
0.023836
0.0234451
0.0230372
0.0226141
0.0221686
0.0217004
0.021203
0.0206776
0.0201192
0.0195304
0.0189068
0.0182508
0.0175586
0.0168314
0.0160658
0.0152625
0.0144197
0.0135373
0.0126151
0.011654
0.0106578
0.0096322
0.00858107
0.00750686
0.00641625
0.00531721
0.00421826
0.00312556
0.00204251
0.000973021
-7.93522e-05
-0.00111373
-0.00212936
-0.00312552
-0.00409554
-0.00502784
-0.00590213
-0.00667764
-0.00732684
-0.00775221
-0.00792679
-0.00764936
-0.00685488
-0.00540134
-0.00347527
-0.000916042
0.00175717
0.00324768
0.0272141
0.0272041
0.0271595
0.0270777
0.0269703
0.0268534
0.0267234
0.0265704
0.0263754
0.0261347
0.0258473
0.0255258
0.0251762
0.024809
0.0244226
0.0240192
0.0235911
0.0231378
0.022652
0.0221346
0.0215802
0.0209914
0.0203641
0.0197007
0.0189981
0.0182574
0.017476
0.0166544
0.0157911
0.0148863
0.0139396
0.0129522
0.0119273
0.0108714
0.0097884
0.00868174
0.00755969
0.00643184
0.00530904
0.00420022
0.00311164
0.0020506
0.00102443
3.73844e-05
-0.000907351
-0.00180793
-0.00265847
-0.00345104
-0.0041702
-0.00478448
-0.00527432
-0.00555599
-0.00561294
-0.00525888
-0.00444159
-0.0030465
-0.00127908
0.00103366
0.00359786
0.0051891
0.0283414
0.0283411
0.0283088
0.028241
0.0281466
0.028042
0.0279253
0.0277884
0.0276128
0.0273943
0.0271313
0.0268354
0.0265125
0.0261723
0.0258138
0.0254387
0.0250394
0.0246145
0.0241563
0.0236646
0.0231334
0.022565
0.021955
0.0213056
0.0206138
0.0198809
0.0191043
0.0182848
0.0174209
0.0165127
0.0155601
0.0145638
0.0135273
0.0124563
0.011355
0.0102271
0.00908178
0.00792975
0.00678338
0.00565363
0.00454891
0.00347929
0.00245542
0.00148477
0.00057333
-0.000275166
-0.00105452
-0.00175873
-0.0023764
-0.00288314
-0.00326785
-0.00345888
-0.00344936
-0.00306544
-0.0022683
-0.000959103
0.000656624
0.00278817
0.00533761
0.00705892
0.0295286
0.02953
0.029503
0.0294439
0.0293584
0.0292621
0.0291543
0.0290278
0.028865
0.0286618
0.0284159
0.0281392
0.027837
0.0275198
0.0271863
0.0268386
0.0264689
0.0260757
0.0256504
0.0251924
0.0246949
0.0241593
0.0235807
0.022961
0.0222967
0.0215891
0.0208353
0.0200362
0.0191901
0.018297
0.0173566
0.0163696
0.0153386
0.0142693
0.0131652
0.01203
0.0108732
0.00970557
0.0085404
0.00738978
0.00626346
0.00517342
0.00413288
0.00315214
0.00223995
0.00140234
0.000646901
-2.11383e-05
-0.000591981
-0.00104722
-0.00138057
-0.0015317
-0.00150026
-0.00112383
-0.000366193
0.000862628
0.00236934
0.00440528
0.00702439
0.00891262
0.0307758
0.030774
0.0307471
0.0306914
0.0306101
0.0305177
0.030414
0.0302929
0.0301371
0.0299426
0.0297073
0.0294429
0.0291551
0.0288542
0.0285398
0.028214
0.0278693
0.0275042
0.02711
0.0266854
0.0262231
0.0257239
0.0251822
0.0245995
0.0239717
0.0232997
0.0225803
0.0218139
0.0209986
0.0201343
0.0192201
0.0182565
0.0172455
0.016192
0.015099
0.0139696
0.0128129
0.0116396
0.010463
0.00929556
0.00814764
0.00703223
0.00596427
0.00495616
0.00401898
0.00316107
0.00239179
0.001717
0.00114602
0.000694496
0.000365579
0.000212698
0.000233424
0.000584613
0.00130127
0.00247201
0.00391937
0.00593284
0.00868025
0.0107653
0.0320909
0.0320823
0.0320525
0.0319974
0.0319175
0.0318263
0.0317236
0.031604
0.0314505
0.0312593
0.0310284
0.0307696
0.0304889
0.0301971
0.0298939
0.0295822
0.0292547
0.0289103
0.0285402
0.0281431
0.0277113
0.0272453
0.0267388
0.0261929
0.025603
0.0249693
0.0242884
0.0235602
0.0227822
0.0219539
0.0210741
0.0201427
0.0191609
0.018133
0.0170612
0.0159476
0.0148007
0.0136306
0.0124499
0.0112711
0.0101044
0.00896324
0.0078635
0.00681908
0.005843
0.00494576
0.00413889
0.00342948
0.00282829
0.00234929
0.00199611
0.00181689
0.00180995
0.00212811
0.00281231
0.00395143
0.00538438
0.00743131
0.0103437
0.0126472
0.0334638
0.0334469
0.033412
0.033355
0.0332741
0.033182
0.0330784
0.0329581
0.0328045
0.0326136
0.0323838
0.0321269
0.0318491
0.0315613
0.031264
0.0309602
0.0306432
0.0303121
0.0299586
0.0295814
0.0291727
0.0287329
0.0282556
0.0277413
0.0271852
0.026587
0.0259429
0.0252521
0.0245119
0.0237211
0.0228781
0.021982
0.0210336
0.020036
0.0189908
0.0178989
0.0167681
0.0156075
0.014429
0.0132443
0.0120634
0.0108994
0.00976869
0.00868598
0.00766571
0.00672022
0.00586315
0.00510341
0.00445364
0.00392845
0.00353289
0.00331331
0.00327094
0.00355884
0.00422286
0.00535454
0.00680612
0.00892172
0.0120168
0.0145504
0.0348972
0.0348708
0.0348296
0.0347694
0.0346868
0.034593
0.0344878
0.0343659
0.0342107
0.0340184
0.0337873
0.0335295
0.0332511
0.0329638
0.0326677
0.0323667
0.0320543
0.0317301
0.031386
0.0310211
0.0306277
0.0302063
0.0297503
0.0292602
0.0287309
0.028162
0.027549
0.026891
0.0261847
0.0254285
0.02462
0.0237581
0.0228425
0.0218758
0.0208584
0.0197905
0.0186786
0.0175309
0.0163584
0.0151719
0.0139807
0.0127975
0.0116385
0.0105192
0.00945487
0.00845953
0.0075489
0.00673376
0.00602962
0.00545191
0.00500937
0.00474691
0.00467103
0.00493421
0.00559117
0.00673489
0.00822908
0.0104362
0.0137219
0.0164913
0.0363965
0.036361
0.0363127
0.0362478
0.0361613
0.0360638
0.0359549
0.0358296
0.0356711
0.0354757
0.0352418
0.0349813
0.0347008
0.0344116
0.0341145
0.0338131
0.0335017
0.0331798
0.0328398
0.032481
0.0320962
0.0316859
0.0312437
0.0307701
0.03026
0.0297127
0.0291238
0.0284917
0.027813
0.0270856
0.0263068
0.0254746
0.0245883
0.0236497
0.0226582
0.0216132
0.0205201
0.0193861
0.0182212
0.0170353
0.0158369
0.0146382
0.013455
0.0123028
0.0111979
0.0101553
0.00919256
0.00832255
0.00756336
0.00693256
0.00644244
0.0061384
0.00603256
0.00627932
0.00694024
0.0081103
0.00966135
0.0119711
0.0154473
0.0184527
0.0379598
0.0379158
0.0378613
0.0377922
0.0377023
0.0376011
0.0374885
0.0373589
0.037196
0.0369959
0.0367572
0.0364921
0.0362072
0.0359141
0.0356135
0.0353094
0.0349958
0.0346728
0.0343329
0.0339758
0.0335944
0.0331894
0.0327546
0.0322907
0.0317927
0.0312598
0.0306874
0.0300741
0.0294159
0.0287105
0.0279548
0.0271464
0.026284
0.0253686
0.0243989
0.0233736
0.022297
0.0211753
0.0200175
0.0188327
0.0176286
0.0164166
0.0152123
0.0140311
0.0128897
0.0118043
0.0107942
0.00987387
0.00906452
0.00838536
0.00785347
0.0075141
0.0073861
0.00762435
0.008299
0.00950578
0.0111236
0.0135431
0.017208
0.020447
0.0395823
0.0395307
0.03947
0.0393966
0.0393028
0.0391979
0.039081
0.0389471
0.0387793
0.0385742
0.0383304
0.0380602
0.0377705
0.0374728
0.0371679
0.0368597
0.0365426
0.0362165
0.0358743
0.0355157
0.0351339
0.0347299
0.0342977
0.0338381
0.0333462
0.0328213
0.032259
0.0316574
0.0310129
0.0303226
0.0295833
0.0287922
0.0279475
0.0270497
0.0260966
0.0250864
0.0240225
0.0229102
0.0217577
0.0205732
0.0193637
0.01814
0.0169171
0.0157104
0.0145369
0.0134136
0.0123611
0.0113957
0.0105411
0.00981877
0.0092498
0.00888054
0.00873569
0.00897238
0.00966737
0.0109176
0.0126069
0.0151381
0.0189871
0.0224547
0.0412642
0.041205
0.0411388
0.0410616
0.0409649
0.0408569
0.0407369
0.040599
0.0404268
0.0402166
0.0399672
0.0396914
0.0393959
0.0390926
0.0387823
0.0384691
0.038147
0.0378164
0.03747
0.0371078
0.036723
0.0363169
0.0358835
0.0354241
0.0349336
0.0344117
0.0338538
0.0332583
0.0326213
0.0319399
0.0312107
0.0304306
0.0295975
0.0287113
0.0277694
0.0267693
0.0257136
0.024607
0.0234568
0.0222705
0.0210545
0.019819
0.0185786
0.0173486
0.0161462
0.0149892
0.0138994
0.0128945
0.012001
0.0112419
0.0106432
0.0102509
0.0100968
0.0103381
0.0110594
0.0123581
0.0141228
0.016768
0.0207976
0.0244888
0.0430155
0.04295
0.0428781
0.0427962
0.0426952
0.0425829
0.0424584
0.0423157
0.0421381
0.0419221
0.0416668
0.0413848
0.0410834
0.0407741
0.0404581
0.0401391
0.0398115
0.0394754
0.0391237
0.0387562
0.0383666
0.0379561
0.037519
0.0370566
0.0365641
0.0360412
0.0354835
0.0348892
0.0342547
0.0335768
0.0328522
0.0320776
0.0312504
0.0303703
0.0294341
0.028439
0.0273869
0.0262818
0.0251304
0.0239398
0.0227157
0.0214678
0.0202105
0.0189588
0.0177301
0.0165426
0.0154193
0.0143794
0.0134514
0.0126604
0.0120359
0.0116249
0.0114649
0.0117147
0.0124654
0.0138155
0.0156567
0.0184157
0.0226215
0.0265298
0.0448334
0.0447624
0.0446863
0.0446011
0.0444969
0.044381
0.0442521
0.0441043
0.0439207
0.0436981
0.0434355
0.0431462
0.0428374
0.0425211
0.0421981
0.0418725
0.0415382
0.0411956
0.0408373
0.0404635
0.0400676
0.0396511
0.0392084
0.0387407
0.0382436
0.0377167
0.0371558
0.0365591
0.035923
0.0352443
0.0345198
0.0337457
0.0329196
0.0320405
0.0311052
0.0301103
0.0290573
0.0279496
0.0267934
0.0255953
0.0243606
0.0230988
0.0218236
0.0205503
0.0192964
0.0180804
0.0169267
0.0158553
0.0148973
0.0140789
0.013434
0.0130093
0.0128488
0.0131112
0.0138949
0.0152989
0.0172188
0.0200926
0.0244718
0.0285914
0.0467142
0.0466386
0.0465584
0.0464697
0.0463621
0.0462425
0.0461093
0.0459563
0.0457667
0.0455373
0.0452676
0.0449708
0.0446547
0.044331
0.044001
0.0436682
0.0433269
0.0429772
0.0426118
0.0422308
0.0418276
0.0414039
0.0409541
0.0404795
0.0399757
0.0394426
0.0388759
0.0382739
0.037633
0.03695
0.0362216
0.0354442
0.0346149
0.0337327
0.0327939
0.031795
0.0307369
0.0296226
0.0284581
0.0272495
0.0260018
0.0247242
0.0234304
0.0221354
0.0208567
0.0196137
0.018431
0.0173306
0.0163447
0.0155017
0.014838
0.0144019
0.0142417
0.0145181
0.0153357
0.0167946
0.0187932
0.0217817
0.0263307
0.0306552
0.0486586
0.0485783
0.0484943
0.0484028
0.0482925
0.04817
0.0480333
0.0478758
0.0476806
0.0474445
0.0471672
0.0468626
0.0465383
0.0462067
0.0458686
0.0455281
0.0451789
0.0448213
0.044448
0.0440588
0.0436475
0.0432155
0.0427573
0.0422744
0.0417625
0.0412213
0.0406467
0.0400372
0.0393888
0.0386988
0.0379636
0.0371795
0.0363436
0.0354546
0.0345086
0.0335018
0.032435
0.0313106
0.0301343
0.0289119
0.0276484
0.0263526
0.0250382
0.0237201
0.0224162
0.021146
0.0199354
0.018807
0.0177956
0.01693
0.016251
0.0158058
0.0156497
0.0159428
0.0167965
0.0183117
0.0203908
0.0234951
0.0282115
0.0327356
0.0506756
0.0505912
0.0505031
0.0504077
0.0502934
0.0501666
0.0500251
0.0498621
0.0496605
0.049417
0.0491319
0.048819
0.0484866
0.0481466
0.0478004
0.0474516
0.0470942
0.0467281
0.046346
0.045948
0.0455275
0.0450862
0.0446186
0.0441262
0.0436047
0.043054
0.04247
0.0418509
0.0411932
0.0404938
0.0397492
0.0389557
0.0381103
0.0372115
0.0362552
0.0352373
0.0341584
0.0330206
0.0318294
0.0305905
0.0293086
0.0279926
0.0266559
0.0253137
0.0239837
0.0226862
0.0214474
0.0202918
0.0192549
0.0183678
0.0176725
0.0172192
0.0170661
0.0173752
0.0182647
0.0198365
0.0219959
0.025216
0.030097
0.0348148
0.0527659
0.0526781
0.052587
0.0524886
0.0523711
0.0522402
0.0520936
0.0519244
0.0517152
0.0514632
0.0511687
0.0508462
0.0505038
0.0501543
0.0497984
0.0494402
0.0490732
0.0486977
0.0483059
0.0478981
0.0474675
0.047016
0.0465379
0.0460349
0.0455027
0.0449412
0.0443462
0.0437161
0.0430472
0.0423365
0.0415805
0.0407755
0.0399181
0.0390069
0.0380375
0.0370058
0.0359119
0.0347579
0.0335488
0.0322906
0.0309874
0.0296485
0.0282869
0.0269186
0.0255606
0.0242347
0.0229668
0.0217837
0.0207216
0.0198134
0.0191038
0.0186429
0.0184951
0.0188225
0.0197492
0.0213786
0.0236198
0.0269569
0.0320004
0.0369065
0.0549227
0.0548318
0.0547375
0.0546359
0.0545146
0.0543794
0.0542275
0.0540517
0.0538347
0.0535738
0.0532698
0.0529372
0.0525848
0.0522253
0.0518596
0.0514915
0.0511147
0.050729
0.0503269
0.0499085
0.049467
0.0490043
0.0485148
0.0480002
0.0474562
0.0468826
0.0462755
0.0456329
0.0449514
0.0442278
0.0434586
0.0426401
0.0417688
0.040843
0.0398583
0.0388102
0.0376989
0.0365259
0.0352965
0.0340162
0.0326896
0.0313254
0.0299374
0.028541
0.0271539
0.025798
0.0245001
0.0232887
0.0222003
0.0212707
0.020544
0.0200759
0.0199314
0.0202751
0.0212379
0.0229245
0.0252473
0.0287016
0.0339054
0.0389946
0.0571501
0.0570554
0.0569577
0.0568527
0.0567279
0.0565884
0.0564314
0.0562492
0.0560243
0.0557541
0.0554396
0.0550963
0.0547328
0.0543622
0.0539855
0.0536066
0.0532187
0.052822
0.0524087
0.0519787
0.0515254
0.0510507
0.0505488
0.0500215
0.0494647
0.048878
0.0482574
0.0476013
0.0469057
0.0461678
0.0453839
0.0445503
0.0436632
0.042721
0.0417189
0.0406524
0.0395214
0.0383272
0.0370749
0.03577
0.0344172
0.0330251
0.0316079
0.0301808
0.0287622
0.0273743
0.0260446
0.0248033
0.0236878
0.0227361
0.0219935
0.0215173
0.021378
0.0217399
0.0227398
0.0244844
0.0268899
0.0304626
0.0358246
0.0410936
0.0594501
0.0593519
0.05925
0.0591405
0.0590104
0.0588653
0.0587016
0.0585118
0.058278
0.0579979
0.0576727
0.0573182
0.0569434
0.0565616
0.0561736
0.0557833
0.055384
0.0549756
0.0545503
0.0541079
0.053642
0.0531542
0.052639
0.0520981
0.0515274
0.0509265
0.0502915
0.0496205
0.0489098
0.0481563
0.0473563
0.0465061
0.0456018
0.0446416
0.0436203
0.0425335
0.0413807
0.0401631
0.0388856
0.037554
0.0361727
0.0347508
0.0333022
0.0318428
0.0303905
0.028969
0.0276055
0.0263329
0.0251883
0.0242133
0.0234512
0.0229671
0.0228303
0.0232079
0.024243
0.0260449
0.0285328
0.0322238
0.0377425
0.0431892
0.0618278
0.0617263
0.0616208
0.061507
0.0613719
0.0612204
0.0610492
0.0608503
0.0606059
0.0603141
0.0599762
0.0596087
0.0592207
0.0588259
0.0584251
0.0580222
0.0576101
0.057189
0.0567506
0.0562951
0.0558155
0.0553138
0.0547844
0.054229
0.0536434
0.0530274
0.0523769
0.0516901
0.0509631
0.0501928
0.0493756
0.0485075
0.0475847
0.0466049
0.045563
0.0444541
0.0432777
0.0420346
0.0407298
0.0393691
0.0379569
0.0365024
0.0350198
0.0335251
0.0320366
0.0305787
0.0291792
0.027873
0.0266977
0.0256981
0.0249172
0.0244233
0.0242906
0.0246854
0.0257567
0.0276163
0.0301875
0.0339973
0.039671
0.0452935
0.0642696
0.0641646
0.064055
0.0639364
0.0637955
0.0636373
0.0634579
0.0632495
0.0629941
0.06269
0.0623391
0.0619583
0.0615569
0.061149
0.0607351
0.0603192
0.0598941
0.0594597
0.0590078
0.0585383
0.0580444
0.0575282
0.0569837
0.0564129
0.0558117
0.0551796
0.0545128
0.0538092
0.053065
0.0522769
0.0514413
0.0505543
0.0496117
0.0486111
0.0475471
0.0464144
0.0452127
0.0439421
0.0426081
0.0412162
0.0397713
0.0382821
0.0367635
0.0352314
0.0337048
0.0322082
0.0307706
0.0294287
0.0282203
0.027194
0.0263905
0.0258869
0.0257554
0.0261644
0.0272695
0.0291855
0.0318395
0.0357682
0.041596
0.0473927
0.0667792
0.0666695
0.066555
0.0664311
0.0662841
0.066119
0.0659314
0.0657134
0.0654466
0.0651298
0.064765
0.0643699
0.0639541
0.063532
0.0631039
0.0626742
0.0622351
0.0617868
0.0613205
0.0608365
0.0603275
0.0597959
0.0592357
0.0586488
0.0580311
0.0573823
0.0566982
0.0559769
0.0552146
0.0544079
0.0535531
0.0526462
0.0516827
0.0506601
0.0495726
0.0484149
0.047186
0.0458865
0.0445211
0.0430961
0.0416159
0.0400898
0.0385324
0.0369603
0.0353923
0.0338545
0.0323758
0.0309957
0.0297519
0.0286976
0.0278715
0.0273557
0.0272266
0.027651
0.0287903
0.0307628
0.0335002
0.037548
0.0435282
0.0494972
0.0693579
0.0692433
0.0691227
0.0689917
0.0688367
0.0686629
0.0684655
0.0682365
0.0679574
0.0676272
0.0672483
0.0668387
0.0664083
0.0659717
0.0655294
0.0650854
0.0646319
0.0641688
0.0636876
0.0631882
0.0626635
0.0621158
0.061539
0.0609353
0.0603005
0.0596341
0.0589321
0.0581925
0.0574113
0.0565852
0.0557104
0.0547827
0.0537975
0.0527519
0.0516397
0.0504554
0.049198
0.0478676
0.0464693
0.0450095
0.0434922
0.0419272
0.0403292
0.038715
0.0371036
0.0355221
0.0340002
0.0325792
0.0312975
0.0302123
0.0293599
0.0288318
0.0287018
0.0291378
0.0303085
0.0323357
0.0351557
0.0393227
0.0454544
0.0515947
0.0720067
0.0718874
0.0717614
0.0716241
0.0714614
0.0712784
0.0710703
0.070829
0.0705359
0.0701904
0.0697952
0.0693692
0.0689224
0.0684698
0.0680115
0.0675521
0.0670829
0.0666044
0.0661073
0.0655919
0.0650507
0.0644863
0.0638924
0.0632712
0.0626185
0.061934
0.0612135
0.0604549
0.0596543
0.0588084
0.0579129
0.0569638
0.0559561
0.0548863
0.0537485
0.0525363
0.051249
0.0498864
0.0484537
0.0469571
0.045401
0.0437947
0.0421536
0.0404943
0.0388367
0.0372085
0.0356403
0.0341756
0.0328535
0.0317355
0.0308564
0.030313
0.0301823
0.0306307
0.0318326
0.0339141
0.0368166
0.0411026
0.0473836
0.0536935
0.0747201
0.0745951
0.0744626
0.0743177
0.0741461
0.0739531
0.0737336
0.0734792
0.0731714
0.07281
0.072398
0.0719551
0.0714913
0.0710221
0.0705475
0.0700719
0.0695866
0.0690918
0.0685782
0.068046
0.0674877
0.0669058
0.0662942
0.0656549
0.064984
0.0642808
0.0635414
0.0627635
0.0619431
0.0610767
0.0601603
0.0591892
0.0581581
0.0570638
0.055899
0.0546579
0.0533396
0.0519434
0.0504749
0.0489401
0.0473435
0.0456944
0.0440083
0.0423021
0.040596
0.0389187
0.0373018
0.0357905
0.0344252
0.0332711
0.0323618
0.0318018
0.0316668
0.0321232
0.0333529
0.0354863
0.03847
0.0428748
0.0493042
0.0557831
0.077522
0.0773892
0.077248
0.077093
0.0769101
0.0767047
0.0764713
0.0762018
0.0758769
0.0754971
0.0750657
0.0746031
0.0741196
0.0736316
0.0731384
0.072645
0.0721419
0.0716297
0.0710985
0.0705488
0.0699726
0.0693728
0.0687429
0.0680853
0.0673957
0.0666735
0.0659149
0.0651174
0.064277
0.0633901
0.0624521
0.0614587
0.060404
0.059284
0.0580918
0.0568211
0.0554707
0.0540401
0.0525345
0.0509602
0.0493213
0.0476272
0.0458937
0.0441378
0.0423804
0.0406508
0.0389821
0.0374211
0.0360098
0.0348174
0.0338765
0.0332965
0.0331562
0.0336207
0.0348774
0.0370617
0.0401259
0.0446487
0.0512238
0.0578701
0.0804453
0.0803056
0.0801511
0.0799783
0.0797735
0.0795444
0.0792859
0.0789916
0.078642
0.0782384
0.077784
0.0772999
0.076796
0.0762885
0.0757766
0.0752649
0.0747438
0.0742137
0.0736647
0.073097
0.0725028
0.0718849
0.0712367
0.0705605
0.0698522
0.0691111
0.0683333
0.0675161
0.0666557
0.065748
0.0647887
0.0637727
0.0626938
0.0615482
0.0603278
0.0590267
0.0576436
0.0561776
0.0546338
0.0530187
0.0513361
0.0495955
0.0478128
0.0460053
0.0441943
0.04241
0.0406868
0.0390732
0.0376128
0.0363782
0.0354022
0.0348002
0.0346501
0.0351174
0.0363971
0.0386293
0.0417722
0.0464126
0.0531322
0.059945
0.0831816
0.0830402
0.08289
0.0827233
0.0825256
0.0823008
0.0820445
0.0817478
0.0813928
0.0809802
0.0805148
0.0800177
0.0794999
0.0789777
0.0784507
0.0779233
0.0773861
0.0768395
0.0762735
0.0756885
0.0750767
0.0744408
0.0737744
0.0730799
0.072353
0.0715931
0.0707962
0.0699596
0.0690792
0.0681511
0.0671703
0.0661318
0.0650288
0.0638567
0.0626081
0.0612761
0.0598598
0.0583577
0.0567749
0.0551177
0.0533898
0.0516006
0.0497664
0.0479045
0.0460369
0.0441948
0.0424138
0.0407442
0.0392315
0.037952
0.0369386
0.0363104
0.0361486
0.0366181
0.0379195
0.0401977
0.0434177
0.0481744
0.0550354
0.0620126
0.0862423
0.0860883
0.0859177
0.0857268
0.0855013
0.0852486
0.0849633
0.0846386
0.0842556
0.0838164
0.0833257
0.0828053
0.0822656
0.081723
0.0811766
0.0806306
0.0800752
0.0795106
0.0789268
0.0783239
0.0776943
0.0770405
0.0763562
0.0756434
0.0748983
0.0741198
0.0733041
0.0724483
0.0715482
0.0705998
0.0695978
0.0685368
0.0674094
0.0662115
0.0649341
0.063571
0.0621208
0.0605819
0.0589591
0.0572587
0.0554841
0.0536447
0.051757
0.0498387
0.0479123
0.0460098
0.0441682
0.0424395
0.0408712
0.0395428
0.038488
0.0378306
0.037652
0.0381178
0.0394361
0.0417567
0.0450515
0.0499238
0.0569245
0.0640645
0.0890824
0.0889246
0.0887563
0.0885699
0.0883504
0.0881017
0.0878187
0.0874919
0.0871035
0.0866549
0.0861522
0.0856175
0.0850629
0.0845043
0.083942
0.0833795
0.0828076
0.0822259
0.0816249
0.0810046
0.0803573
0.0796857
0.0789834
0.0782525
0.0774892
0.0766922
0.0758579
0.0749832
0.0740636
0.0730952
0.0720721
0.0709888
0.0698378
0.0686132
0.0673074
0.0659128
0.0644285
0.0628522
0.0611885
0.0594436
0.0576207
0.055729
0.0537855
0.0518081
0.0498197
0.0478534
0.0459478
0.0441563
0.0425288
0.0411481
0.0400486
0.0393577
0.0391596
0.0396203
0.0409535
0.043314
0.0466814
0.0516675
0.0588044
0.0661055
0.0922854
0.0921137
0.0919231
0.0917098
0.0914595
0.0911799
0.0908651
0.0905079
0.0900891
0.0896115
0.0890809
0.0885199
0.0879404
0.0873585
0.0867739
0.0861902
0.0855977
0.084996
0.0843755
0.0837359
0.0830699
0.0823795
0.0816588
0.0809094
0.0801277
0.0793123
0.0784594
0.0775657
0.076627
0.0756385
0.0745947
0.0734894
0.0723142
0.0710641
0.0697294
0.0683032
0.0667843
0.0651698
0.0634642
0.0616736
0.0598008
0.0578553
0.055854
0.0538152
0.0517625
0.0497298
0.047757
0.0458996
0.0442092
0.042772
0.0416236
0.0408953
0.040672
0.0411213
0.042464
0.0448601
0.0482974
0.0533964
0.0606675
0.068129
0.0952031
0.0950299
0.0948455
0.0946414
0.0944023
0.0941314
0.0938234
0.0934677
0.0930467
0.0925617
0.0920208
0.0914463
0.0908519
0.0902535
0.0896521
0.0890505
0.08844
0.0878194
0.0871801
0.0865212
0.0858359
0.0851262
0.0843862
0.0836178
0.0828171
0.0819828
0.0811109
0.0801982
0.07924
0.0782317
0.0771671
0.0760398
0.0748412
0.0735646
0.0722013
0.0707434
0.0691894
0.0675362
0.0657879
0.0639503
0.062026
0.0600244
0.0579628
0.0558598
0.0537395
0.0516369
0.0495934
0.0476659
0.0459088
0.0444109
0.0432096
0.042439
0.0421874
0.0426233
0.043973
0.0464016
0.0499059
0.0551155
0.0625173
0.0701388
0.098473
0.0982859
0.0980839
0.0978612
0.0976026
0.0973128
0.0969851
0.0966092
0.096166
0.0956573
0.0950912
0.0944908
0.0938703
0.093246
0.0926191
0.0919925
0.0913575
0.0907132
0.0900508
0.0893694
0.0886622
0.0879312
0.0871704
0.0863815
0.0855609
0.0847068
0.0838153
0.082883
0.081905
0.0808765
0.0797909
0.0786415
0.0774188
0.0761168
0.0747243
0.0732343
0.0716448
0.0699521
0.0681598
0.0662739
0.0642966
0.0622372
0.0601133
0.0579438
0.0557535
0.0535782
0.0514607
0.0494598
0.0476319
0.046069
0.0448102
0.0439932
0.0437071
0.0441228
0.0454736
0.0479299
0.0514982
0.0568172
0.0643476
0.0721283
0.101757
0.101563
0.101353
0.10112
0.10085
0.100546
0.100203
0.0998092
0.0993455
0.0988141
0.0982238
0.0975981
0.0969522
0.0963025
0.095651
0.095
0.0943411
0.0936729
0.0929871
0.0922822
0.0915521
0.0907983
0.0900154
0.0892047
0.0883627
0.0874876
0.0865755
0.0856227
0.0846241
0.0835748
0.0824677
0.0812958
0.0800495
0.0787205
0.0772993
0.0757767
0.0741512
0.0724182
0.0705812
0.0686457
0.0666137
0.0644943
0.0623057
0.0600669
0.0578032
0.0555515
0.0533562
0.0512775
0.0493745
0.0477417
0.0464209
0.0455523
0.0452282
0.0456213
0.0469701
0.0494504
0.0530797
0.0585054
0.0661612
0.0741008
0.105081
0.104885
0.104671
0.104434
0.104157
0.103845
0.103491
0.103084
0.102604
0.102053
0.10144
0.10079
0.100119
0.0994426
0.0987641
0.098086
0.0974004
0.0967056
0.095994
0.0952636
0.0945087
0.0937306
0.0929239
0.0920899
0.0912253
0.090328
0.0893941
0.0884196
0.0873995
0.0863284
0.0851992
0.0840044
0.0827331
0.0813781
0.0799269
0.0783714
0.0767091
0.0749349
0.0730518
0.0710654
0.0689772
0.0667962
0.0645407
0.0622303
0.0598908
0.0575598
0.0552834
0.0531234
0.051141
0.0494339
0.0480464
0.0471215
0.046753
0.0471162
0.0484565
0.0509557
0.0546428
0.0601738
0.0679529
0.076051
0.108393
0.108192
0.107976
0.107736
0.107457
0.107141
0.106782
0.106366
0.105875
0.10531
0.104681
0.104013
0.103322
0.102625
0.101925
0.101225
0.100518
0.0997997
0.0990645
0.09831
0.0975308
0.0967282
0.0958973
0.0950391
0.0941508
0.09323
0.0922731
0.0912758
0.0902331
0.0891394
0.087987
0.0867683
0.0854721
0.084089
0.0826079
0.0810186
0.0793188
0.0775025
0.0755724
0.0735338
0.0713877
0.0691431
0.0668184
0.0644336
0.0620149
0.0596011
0.0572394
0.0549936
0.052927
0.0511402
0.0496808
0.0486943
0.0482774
0.0486077
0.0499359
0.0524501
0.0561915
0.0618253
0.0697245
0.0779818
0.111762
0.111555
0.111333
0.111088
0.110805
0.110486
0.110123
0.109702
0.109203
0.108627
0.107985
0.107301
0.106592
0.105876
0.105155
0.104433
0.103702
0.102961
0.102202
0.101423
0.100619
0.0997915
0.0989358
0.0980529
0.0971402
0.0961951
0.0952142
0.0941931
0.0931266
0.092009
0.0908326
0.0895889
0.088266
0.0868553
0.0853427
0.0837188
0.0819805
0.080121
0.0781426
0.0760504
0.073845
0.071535
0.0691393
0.0666778
0.0641776
0.0616779
0.0592279
0.0568923
0.0547374
0.0528661
0.05133
0.0502768
0.0498047
0.0500945
0.0514036
0.0539271
0.0577196
0.0634545
0.0714721
0.0798889
0.115144
0.11493
0.114703
0.114453
0.114165
0.113842
0.113475
0.113048
0.112543
0.111959
0.111307
0.110611
0.109891
0.10916
0.108426
0.107688
0.106939
0.106178
0.105399
0.104598
0.103771
0.10292
0.102039
0.101132
0.100194
0.099224
0.0982182
0.0971724
0.096081
0.0949386
0.0937368
0.0924671
0.0911173
0.0896765
0.088132
0.0864724
0.0846944
0.0827907
0.0807629
0.0786159
0.0763495
0.0739724
0.0715033
0.0689625
0.0663775
0.0637883
0.0612456
0.0588157
0.0565673
0.0546058
0.0529874
0.0518618
0.0513301
0.0515757
0.0528617
0.0553903
0.0592305
0.0650638
0.0731973
0.0817744
0.118625
0.118404
0.118169
0.117912
0.117618
0.117288
0.116914
0.11648
0.115966
0.115371
0.114707
0.113998
0.113263
0.112517
0.111765
0.111009
0.110242
0.109461
0.10866
0.107837
0.106987
0.106112
0.105208
0.104275
0.103312
0.102317
0.101286
0.100214
0.0990972
0.0979288
0.0967006
0.0954038
0.094025