/*--------------------------------*- C++ -*----------------------------------*\
  =========                 |
  \\      /  F ield         | OpenFOAM: The Open Source CFD Toolbox
   \\    /   O peration     | Website:  https://openfoam.org
    \\  /    A nd           | Version:  6.0
     \\/     M anipulation  |
\*---------------------------------------------------------------------------*/
FoamFile
{
    version     2.0;
    format      ascii;
    class       surfaceScalarField;
    location    "12";
    object      phi;
}
// * * * * * * * * * * * * * * * * * * * * * * * * * * * * * * * * * * * * * //

dimensions      [0 3 -1 0 0 0 0];

internalField   nonuniform List<scalar> 
123526
(
5.52111e-05
2.30506e-05
-5.4824e-05
5.56375e-05
2.49162e-05
5.6091e-05
2.69324e-05
5.65878e-05
2.91112e-05
5.71172e-05
3.14655e-05
5.76963e-05
3.40092e-05
5.83153e-05
3.67573e-05
5.8991e-05
3.97259e-05
5.97155e-05
4.29316e-05
6.05061e-05
4.63947e-05
6.13543e-05
5.01356e-05
6.22778e-05
5.41754e-05
6.32702e-05
5.85376e-05
6.4352e-05
6.32451e-05
6.55192e-05
6.8326e-05
6.67877e-05
7.38131e-05
6.81545e-05
7.97342e-05
6.96441e-05
8.61169e-05
7.12538e-05
9.30041e-05
7.29995e-05
0.000100434
7.48896e-05
0.000108438
7.6943e-05
0.000117065
7.91595e-05
0.000126364
8.15704e-05
0.000136366
8.4175e-05
0.000147141
8.69985e-05
0.000158727
9.00541e-05
0.000171181
9.33595e-05
0.000184564
9.69368e-05
0.000198921
0.000100802
0.000214323
0.00010498
0.000230812
0.000109489
0.000248456
0.000114355
0.000267296
0.0001196
0.000287382
0.000125248
0.000308753
0.000131333
0.000331428
0.000137872
0.000355425
0.000144895
0.000380725
0.000152428
0.000407286
0.000160494
0.000435035
0.000169113
0.000463841
0.000178306
0.000493512
0.000188084
0.000523784
0.000198453
0.000554287
0.000209408
0.000584527
0.000220935
0.000613855
0.000233002
0.000641429
0.000245557
0.000666166
0.000258524
0.000686701
0.000271796
0.000701318
0.000285219
0.000707903
0.000298599
0.000703849
0.000311666
0.000686034
0.00032409
0.000650666
0.00033544
0.000593294
0.000345201
0.000508593
0.000352737
0.000390766
0.000356515
0.000231917
0.000361212
1.72851e-05
-0.000208466
0.000380515
5.41492e-05
2.26676e-05
-5.37684e-05
5.45677e-05
2.45019e-05
5.50134e-05
2.64842e-05
5.55019e-05
2.86264e-05
5.60235e-05
3.09411e-05
5.65945e-05
3.34418e-05
5.72058e-05
3.61432e-05
5.78735e-05
3.90612e-05
5.85901e-05
4.22114e-05
5.93723e-05
4.56149e-05
6.02117e-05
4.92922e-05
6.11256e-05
5.32633e-05
6.21077e-05
5.75511e-05
6.31779e-05
6.21761e-05
6.43323e-05
6.71673e-05
6.55863e-05
7.25601e-05
6.69372e-05
7.83795e-05
6.84084e-05
8.46467e-05
6.99978e-05
9.14115e-05
7.172e-05
9.87129e-05
7.35843e-05
0.000106571
7.56078e-05
0.000115042
7.77917e-05
0.000124178
8.01651e-05
0.000133992
8.2729e-05
0.000144575
8.5506e-05
0.000155949
8.85113e-05
0.000168174
9.176e-05
0.000181313
9.52763e-05
0.000195402
9.90735e-05
0.000210524
0.000103179
0.000226705
0.000107609
0.000244024
0.000112388
0.000262513
0.000117541
0.000282225
0.00012309
0.0003032
0.000129068
0.000325447
0.000135493
0.000348997
0.000142394
0.000373822
0.000149795
0.000399883
0.000157719
0.00042711
0.000166185
0.000455372
0.000175214
0.000484482
0.000184817
0.000514181
0.000194998
0.000544106
0.000205754
0.000573772
0.000217071
0.000602541
0.000228918
0.000629586
0.000241246
0.000653844
0.000253979
0.000673975
0.000267012
0.000688295
0.000280195
0.000694728
0.000293335
0.000690721
0.000306163
0.000673204
0.000318351
0.000638467
0.000329475
0.00058214
0.000339001
0.000499024
0.00034631
0.000383381
0.000350947
0.000227164
0.000353818
1.42026e-05
-0.00020427
0.000349494
5.32852e-05
2.2292e-05
-5.2912e-05
5.36948e-05
2.40962e-05
5.41307e-05
2.60459e-05
5.4608e-05
2.81526e-05
5.51176e-05
3.04286e-05
5.56753e-05
3.28873e-05
5.62725e-05
3.55432e-05
5.69248e-05
3.84117e-05
5.76253e-05
4.15074e-05
5.83898e-05
4.48524e-05
5.92107e-05
4.84672e-05
6.01046e-05
5.23706e-05
6.10659e-05
5.65854e-05
6.21136e-05
6.11291e-05
6.32447e-05
6.60318e-05
6.44737e-05
7.13318e-05
6.57986e-05
7.70507e-05
6.72422e-05
8.32039e-05
6.88025e-05
8.98479e-05
7.0494e-05
9.70222e-05
7.23255e-05
0.000104737
7.43141e-05
0.000113054
7.64608e-05
0.000122029
7.87939e-05
0.000131659
8.13148e-05
0.000142052
8.40451e-05
0.000153218
8.70002e-05
0.000165217
9.01944e-05
0.000178118
9.36518e-05
0.000191943
9.73852e-05
0.000206789
0.000101422
0.000222667
0.000105777
0.000239667
0.000110476
0.000257811
0.000115541
0.000277156
0.000120996
0.00029774
0.000126872
0.000319568
0.000133187
0.000342679
0.000139968
0.000367038
0.00014724
0.000392608
0.000155023
0.000419324
0.000163338
0.000447054
0.000172204
0.000475615
0.000181631
0.000504752
0.000191625
0.000534111
0.000202184
0.000563213
0.000213293
0.000591432
0.000224922
0.000617955
0.000237025
0.000641741
0.000249525
0.000661472
0.000262319
0.000675498
0.000275257
0.000681783
0.000288149
0.000677822
0.000300727
0.00066061
0.000312668
0.00062651
0.000323555
0.000571227
0.000332863
0.000489692
0.000340001
0.000376212
0.000344295
0.00022284
0.000347064
1.13912e-05
-0.000207503
0.00035023
5.24859e-05
2.19256e-05
-5.21208e-05
5.28864e-05
2.37e-05
5.33133e-05
2.5617e-05
5.37811e-05
2.76885e-05
5.42813e-05
2.99262e-05
5.48288e-05
3.23433e-05
5.54155e-05
3.49541e-05
5.60566e-05
3.77737e-05
5.67453e-05
4.08156e-05
5.74972e-05
4.41029e-05
5.83048e-05
4.76561e-05
5.91843e-05
5.14931e-05
6.01298e-05
5.5636e-05
6.11604e-05
6.01e-05
6.22725e-05
6.49158e-05
6.34807e-05
7.01248e-05
6.47827e-05
7.57453e-05
6.6201e-05
8.17867e-05
6.77338e-05
8.83123e-05
6.93952e-05
9.53617e-05
7.11942e-05
0.000102936
7.31473e-05
0.000111101
7.52558e-05
0.000119919
7.75476e-05
0.000129367
8.00238e-05
0.000139574
8.27059e-05
0.000150535
8.56088e-05
0.000162312
8.87468e-05
0.000174978
9.21433e-05
0.000188545
9.58108e-05
0.00020312
9.97761e-05
0.0002187
0.000104054
0.000235387
0.000108669
0.000253192
0.000113644
0.000272177
0.000119002
0.000292379
0.000124771
0.000313795
0.000130972
0.000336475
0.000137629
0.000360378
0.000144767
0.000385467
0.000152407
0.000411681
0.000160568
0.00043889
0.000169269
0.00046691
0.00017852
0.000495496
0.000188329
0.000524298
0.000198692
0.000552845
0.000209596
0.000580523
0.000221012
0.000606534
0.000232893
0.000629856
0.000245165
0.000649195
0.000257724
0.000662935
0.000270422
0.000669078
0.000283071
0.000665171
0.000295406
0.000648259
0.000307109
0.000614782
0.000317776
0.00056052
0.000326903
0.000480512
0.000333924
0.000369108
0.000338329
0.000218311
0.000340487
9.00462e-06
-0.000208091
0.000340924
5.16677e-05
2.15664e-05
-5.13106e-05
5.2061e-05
2.33105e-05
5.24808e-05
2.5195e-05
5.29411e-05
2.72314e-05
5.34333e-05
2.94314e-05
5.39721e-05
3.18075e-05
5.45499e-05
3.43738e-05
5.51809e-05
3.71451e-05
5.58595e-05
4.01339e-05
5.65999e-05
4.33643e-05
5.73961e-05
4.68565e-05
5.82627e-05
5.06275e-05
5.91955e-05
5.46993e-05
6.02116e-05
5.90846e-05
6.13088e-05
6.38148e-05
6.25002e-05
6.89342e-05
6.37842e-05
7.44581e-05
6.5182e-05
8.03898e-05
6.66923e-05
8.67994e-05
6.83284e-05
9.37265e-05
7.00992e-05
0.000101163
7.20209e-05
0.00010918
7.40947e-05
0.000117843
7.6348e-05
0.000127114
7.87821e-05
0.000137138
8.14178e-05
0.000147899
8.42702e-05
0.000159458
8.73529e-05
0.000171894
9.06892e-05
0.000185207
9.42913e-05
0.000199516
9.81855e-05
0.000214805
0.000102386
0.000231185
0.000106918
0.000248658
0.000111802
0.000267288
0.000117061
0.000287116
0.000122725
0.000308129
0.00012881
0.000330387
0.000135344
0.000353841
0.00014235
0.000378458
0.000149847
0.000404181
0.000157856
0.000430877
0.000166395
0.000458368
0.000175475
0.000486413
0.000185103
0.000514667
0.000195276
0.000542669
0.000205982
0.000569815
0.000217191
0.000595321
0.000228858
0.000618185
0.000240909
0.000637139
0.000253241
0.000650598
0.000265707
0.000656603
0.000278122
0.000652749
0.000290225
0.00063614
0.000301705
0.000603288
0.000312167
0.000550039
0.000321131
0.000471532
0.000328055
0.000362165
0.000332488
0.000213867
0.000334328
7.15497e-06
-0.000207379
0.000333579
5.09154e-05
2.12102e-05
-5.05604e-05
5.13055e-05
2.29242e-05
5.17218e-05
2.4777e-05
5.21769e-05
2.67797e-05
5.2663e-05
2.89432e-05
5.31938e-05
3.12799e-05
5.37622e-05
3.38033e-05
5.43822e-05
3.6528e-05
5.50482e-05
3.94653e-05
5.57743e-05
4.26403e-05
5.65547e-05
4.60731e-05
5.74042e-05
4.97798e-05
5.83184e-05
5.37817e-05
5.93151e-05
5.80894e-05
6.03914e-05
6.27351e-05
6.1561e-05
6.7766e-05
6.28219e-05
7.31942e-05
6.41953e-05
7.90177e-05
6.56794e-05
8.53128e-05
6.72875e-05
9.21194e-05
6.90282e-05
9.94202e-05
7.09171e-05
0.000107292
7.29555e-05
0.000115803
7.51699e-05
0.0001249
7.75617e-05
0.000134745
8.01514e-05
0.000145309
8.29535e-05
0.000156655
8.59816e-05
0.000168865
8.92585e-05
0.000181929
9.2796e-05
0.000195977
9.662e-05
0.00021098
0.000100745
0.000227058
0.000105194
0.000244205
0.00010999
0.000262489
0.000115153
0.000281949
0.000120712
0.000302567
0.000126686
0.00032441
0.0001331
0.000347425
0.000139977
0.000371578
0.000147336
0.000396818
0.000155198
0.000423012
0.000163581
0.000449981
0.000172496
0.000477494
0.000181949
0.000505209
0.000191939
0.000532674
0.000202453
0.000559295
0.000213462
0.000584305
0.00022492
0.00060672
0.000236755
0.000625297
0.000248864
0.000638482
0.000261103
0.000644354
0.000273289
0.000640557
0.000285167
0.000624245
0.000296431
0.000591998
0.000306696
0.000539736
0.0003155
0.00046268
0.000322322
0.000355272
0.000326752
0.00020933
0.000328305
5.40064e-06
-0.000205793
0.000326585
5.02912e-05
2.08546e-05
-4.9937e-05
5.06794e-05
2.25396e-05
5.10925e-05
2.4362e-05
5.1543e-05
2.63323e-05
5.20232e-05
2.84609e-05
5.25464e-05
3.07597e-05
5.31057e-05
3.32419e-05
5.37144e-05
3.59217e-05
5.43674e-05
3.88096e-05
5.50779e-05
4.19315e-05
5.58407e-05
4.53073e-05
5.66697e-05
4.8952e-05
5.75615e-05
5.28864e-05
5.85331e-05
5.71188e-05
5.95828e-05
6.1682e-05
6.07235e-05
6.66261e-05
6.19543e-05
7.19604e-05
6.32956e-05
7.76774e-05
6.47465e-05
8.38595e-05
6.63196e-05
9.05473e-05
6.80237e-05
9.77142e-05
6.98739e-05
0.000105442
7.18716e-05
0.000113804
7.40427e-05
0.000122729
7.63884e-05
0.000132398
7.89288e-05
0.000142768
8.16782e-05
0.000153904
8.46497e-05
0.000165892
8.78657e-05
0.000178712
9.13378e-05
0.000192504
9.50914e-05
0.000207225
9.91403e-05
0.000223008
0.000103508
0.000239835
0.000108216
0.000257778
0.000113285
0.000276877
0.000118743
0.000297106
0.000124608
0.000318543
0.000130904
0.000341126
0.000137656
0.000364824
0.000144882
0.00038959
0.000152602
0.000415289
0.000160834
0.000441747
0.000169588
0.000468737
0.000178872
0.000495923
0.000188683
0.000522861
0.000199009
0.000548967
0.000209821
0.00057349
0.000221074
0.000595465
0.000232695
0.000613672
0.000244584
0.00062659
0.000256598
0.000632333
0.000268557
0.000628595
0.000280212
0.000612581
0.000291263
0.000580938
0.000301335
0.000529652
0.000309981
0.000454027
0.000316701
0.000348548
0.000321103
0.000204937
0.000322437
4.0933e-06
-0.000203542
0.000320182
4.97842e-05
2.05018e-05
-4.9432e-05
5.01681e-05
2.21592e-05
5.05763e-05
2.39525e-05
5.10203e-05
2.58915e-05
5.14934e-05
2.79862e-05
5.2008e-05
3.02481e-05
5.25579e-05
3.26903e-05
5.31556e-05
3.53267e-05
5.37962e-05
3.81668e-05
5.44925e-05
4.12374e-05
5.52389e-05
4.45583e-05
5.60492e-05
4.81435e-05
5.69195e-05
5.20131e-05
5.78667e-05
5.6173e-05
5.8889e-05
6.06567e-05
5.99996e-05
6.55168e-05
6.11976e-05
7.07597e-05
6.25035e-05
7.63726e-05
6.39168e-05
8.2444e-05
6.54501e-05
8.9015e-05
6.71124e-05
9.60501e-05
6.89187e-05
0.000103637
7.08705e-05
0.00011185
7.29933e-05
0.000120606
7.52884e-05
0.000130101
7.77755e-05
0.00014028
8.04685e-05
0.00015121
8.33803e-05
0.00016298
8.65329e-05
0.000175558
8.99375e-05
0.000189098
9.36191e-05
0.000203543
9.75914e-05
0.000219034
0.000101877
0.000235546
0.000106497
0.000253155
0.000111472
0.000271899
0.00011683
0.000291747
0.000122587
0.000312784
0.000128769
0.000334943
0.000135398
0.000358193
0.000142494
0.000382492
0.000150075
0.000407705
0.000158159
0.00043366
0.000166757
0.000460135
0.000175875
0.000486801
0.000185511
0.00051322
0.000195651
0.000538821
0.000206269
0.000562866
0.000217318
0.000584409
0.000228727
0.000602255
0.000240396
0.000614913
0.000252186
0.000620534
0.00026392
0.000616855
0.000275353
0.000601133
0.000286193
0.000570074
0.000296075
0.000519738
0.000304568
0.000445493
0.000311184
0.000341872
0.00031553
0.000200501
0.000316721
2.73188e-06
-0.000201141
0.000314209
4.9346e-05
2.01548e-05
-4.90005e-05
4.97224e-05
2.17859e-05
5.01223e-05
2.35508e-05
5.05574e-05
2.54591e-05
5.10213e-05
2.75203e-05
5.15259e-05
2.9746e-05
5.20655e-05
3.21488e-05
5.26519e-05
3.47424e-05
5.32809e-05
3.75354e-05
5.39641e-05
4.05557e-05
5.46967e-05
4.38231e-05
5.54909e-05
4.73503e-05
5.63437e-05
5.11574e-05
5.72701e-05
5.52474e-05
5.82694e-05
5.96546e-05
5.93532e-05
6.44338e-05
6.05218e-05
6.95886e-05
6.17947e-05
7.51006e-05
6.3172e-05
8.10647e-05
6.46661e-05
8.75218e-05
6.62865e-05
9.44281e-05
6.80478e-05
0.000101876
6.99523e-05
0.000109944
7.20248e-05
0.000118534
7.42672e-05
0.000127858
7.66986e-05
0.000137848
7.93329e-05
0.000148574
8.2183e-05
0.000160129
8.52701e-05
0.00017247
8.86057e-05
0.000185762
9.22139e-05
0.000199934
9.61083e-05
0.000215138
0.000100311
0.000231341
0.000104843
0.00024862
0.000109725
0.000267015
0.000114983
0.000286487
0.000120634
0.000307131
0.000126702
0.000328872
0.000133211
0.000351683
0.000140177
0.000375523
0.000147622
0.000400259
0.00015556
0.00042572
0.000164004
0.00045169
0.000172958
0.000477845
0.000182421
0.000503756
0.000192378
0.000528862
0.000202803
0.000552439
0.00021365
0.000573561
0.000224848
0.000591055
0.000236299
0.00060346
0.000247866
0.000608962
0.000259377
0.000605345
0.00027059
0.000589914
0.000281223
0.000559437
0.000290919
0.000510037
0.00029926
0.000437153
0.000305771
0.000335368
0.000310037
0.00019626
0.00031115
1.67105e-06
-0.000198504
0.000308532
4.89246e-05
1.98167e-05
-4.85875e-05
4.92914e-05
2.14222e-05
4.96818e-05
2.31591e-05
5.01068e-05
2.50368e-05
5.05607e-05
2.70649e-05
5.10546e-05
2.92546e-05
5.15835e-05
3.16183e-05
5.21587e-05
3.41695e-05
5.27761e-05
3.6916e-05
5.34472e-05
3.98865e-05
5.41671e-05
4.31009e-05
5.49479e-05
4.65711e-05
5.5786e-05
5.03167e-05
5.66962e-05
5.43386e-05
5.76769e-05
5.86713e-05
5.87396e-05
6.33722e-05
5.98841e-05
6.84418e-05
6.11294e-05
7.38564e-05
6.24758e-05
7.97164e-05
6.39353e-05
8.60631e-05
6.55177e-05
9.28442e-05
6.72374e-05
0.000100157
6.9097e-05
0.000108084
7.11211e-05
0.00011651
7.33119e-05
0.000125666
7.56883e-05
0.000135472
7.82644e-05
0.000145997
8.10527e-05
0.00015734
8.40744e-05
0.000169448
8.73407e-05
0.000182494
9.08754e-05
0.000196399
9.46921e-05
0.000211321
9.88122e-05
0.000227218
0.000103256
0.000244174
0.000108045
0.000262224
0.000113203
0.000281327
0.000118749
0.000301584
0.000124705
0.000322915
0.000131094
0.000345293
0.000137933
0.000368682
0.000145242
0.000392948
0.000153037
0.000417922
0.000161328
0.000443395
0.00017012
0.000469049
0.000179411
0.00049446
0.000189188
0.00051908
0.000199421
0.000542199
0.000210067
0.000562908
0.000221056
0.000580059
0.000232291
0.000592218
0.000243637
0.000597606
0.000254927
0.00059405
0.000265925
0.000578902
0.000276355
0.000548987
0.000285868
0.000500497
0.000294059
0.000428927
0.000300459
0.000328919
0.000304631
0.000192015
0.000305708
4.50558e-07
-0.000195941
0.000303054
4.84838e-05
1.94879e-05
-4.81561e-05
4.88408e-05
2.10681e-05
4.92214e-05
2.27771e-05
4.96362e-05
2.46244e-05
5.00799e-05
2.66196e-05
5.05633e-05
2.87735e-05
5.10815e-05
3.10985e-05
5.16454e-05
3.36076e-05
5.22515e-05
3.63078e-05
5.29106e-05
3.92289e-05
5.36186e-05
4.23905e-05
5.43867e-05
4.58041e-05
5.5212e-05
4.94888e-05
5.61081e-05
5.34433e-05
5.7074e-05
5.77028e-05
5.81197e-05
6.23272e-05
5.92454e-05
6.73139e-05
6.04689e-05
7.26338e-05
6.17906e-05
7.83929e-05
6.32218e-05
8.46327e-05
6.47722e-05
9.12923e-05
6.6456e-05
9.84734e-05
6.8276e-05
0.000106262
7.02564e-05
0.00011453
7.23997e-05
0.000123522
7.47247e-05
0.000133146
7.72454e-05
0.000143476
7.99745e-05
0.00015461
8.29327e-05
0.000166489
8.61315e-05
0.000179295
8.95942e-05
0.000192935
9.33341e-05
0.00020758
9.73732e-05
0.000223178
0.000101731
0.000239813
0.000106427
0.000257525
0.000111487
0.000276265
0.000116929
0.000296141
0.000122774
0.000317068
0.000129044
0.000339021
0.000135758
0.000361967
0.000142933
0.000385771
0.000150585
0.000410268
0.000158725
0.000435255
0.000167357
0.000460416
0.000176477
0.000485338
0.000186074
0.000509483
0.000196118
0.000532154
0.000206565
0.00055246
0.000217346
0.000569276
0.000228368
0.000581196
0.000239497
0.000586475
0.00025057
0.00058298
0.000261356
0.000568114
0.000271586
0.000538756
0.000280919
0.000491162
0.000288961
0.000420891
0.000295248
0.000322646
0.000299324
0.000187974
0.000300383
-5.40502e-07
-0.000193237
0.000297714
4.80044e-05
1.91679e-05
-4.76851e-05
4.83523e-05
2.07228e-05
4.87242e-05
2.24041e-05
4.91296e-05
2.42214e-05
4.9564e-05
2.61839e-05
5.00374e-05
2.83025e-05
5.05454e-05
3.05892e-05
5.10985e-05
3.30567e-05
5.16934e-05
3.57111e-05
5.2341e-05
3.85831e-05
5.3037e-05
4.16925e-05
5.3793e-05
4.50497e-05
5.46056e-05
4.86737e-05
5.54889e-05
5.25613e-05
5.64411e-05
5.67482e-05
5.74724e-05
6.12969e-05
5.85823e-05
6.62019e-05
5.9788e-05
7.1429e-05
6.10895e-05
7.70897e-05
6.24977e-05
8.32253e-05
6.40219e-05
8.97667e-05
6.56758e-05
9.68201e-05
6.74621e-05
0.000104475
6.94046e-05
0.000112587
7.15059e-05
0.000121419
7.37846e-05
0.000130867
7.62546e-05
0.000141005
7.89286e-05
0.000151935
8.18272e-05
0.000163589
8.49617e-05
0.00017616
8.83554e-05
0.000189541
9.20216e-05
0.000203913
9.59813e-05
0.000219216
0.000100255
0.000235538
0.000104861
0.000252917
0.000109825
0.0002713
0.000115164
0.000290801
0.000120899
0.000311332
0.000127053
0.000332866
0.000133642
0.000355376
0.000140685
0.000378726
0.000148197
0.000402754
0.000156187
0.000427262
0.000164659
0.00045194
0.000173612
0.000476382
0.000183029
0.00050006
0.000192886
0.000522292
0.000203136
0.000542203
0.000213713
0.000558692
0.000224524
0.000570378
0.00023544
0.00057555
0.000246299
0.000572116
0.000256879
0.000557523
0.000266913
0.000528704
0.000276071
0.000481979
0.000283965
0.000412966
0.000290137
0.000316431
0.000294116
0.000183932
0.00029516
-1.71007e-06
-0.00019064
0.000292482
4.74822e-05
1.88553e-05
-4.71707e-05
4.78224e-05
2.03851e-05
4.81861e-05
2.2039e-05
4.85831e-05
2.38265e-05
4.90086e-05
2.57568e-05
4.94725e-05
2.78405e-05
4.99708e-05
3.00893e-05
5.05134e-05
3.25157e-05
5.10977e-05
3.51249e-05
5.17336e-05
3.79484e-05
5.24179e-05
4.1006e-05
5.31611e-05
4.43073e-05
5.39614e-05
4.78711e-05
5.48312e-05
5.16921e-05
5.57703e-05
5.58069e-05
5.67874e-05
6.02804e-05
5.78828e-05
6.51045e-05
5.90725e-05
7.024e-05
6.03568e-05
7.58038e-05
6.17455e-05
8.18373e-05
6.32477e-05
8.82631e-05
6.48764e-05
9.51919e-05
6.66342e-05
0.000102716
6.85442e-05
0.000110678
7.0609e-05
0.000119354
7.28467e-05
0.000128629
7.52713e-05
0.000138579
7.78952e-05
0.000149311
8.07389e-05
0.000160745
8.38136e-05
0.000173084
8.71423e-05
0.000186212
9.07381e-05
0.000200316
9.46225e-05
0.00021533
9.88141e-05
0.000231344
0.000103333
0.000248397
0.000108204
0.000266428
0.000113442
0.000285562
0.000119071
0.000305702
0.00012511
0.000326826
0.000131577
0.000348908
0.00013849
0.000371813
0.000145862
0.000395381
0.000153704
0.000419419
0.00016202
0.000443623
0.000170805
0.000467596
0.000180047
0.000490818
0.000189718
0.00051262
0.000199775
0.000532147
0.00021015
0.000548316
0.000220754
0.000559775
0.00023146
0.000564843
0.000242111
0.00056147
0.000252487
0.000547147
0.000262331
0.000518861
0.000271317
0.000472995
0.000279065
0.000405226
0.000285123
0.000310391
0.00028901
0.000180085
0.000290031
-2.65509e-06
-0.000187906
0.000287342
4.69194e-05
1.85492e-05
-4.66142e-05
4.72527e-05
2.00541e-05
4.76096e-05
2.16809e-05
4.79989e-05
2.34392e-05
4.84166e-05
2.53379e-05
4.88718e-05
2.73873e-05
4.9361e-05
2.95989e-05
4.98937e-05
3.19849e-05
5.04674e-05
3.45495e-05
5.10921e-05
3.73253e-05
5.17645e-05
4.03318e-05
5.24951e-05
4.35779e-05
5.32822e-05
4.7082e-05
5.41384e-05
5.08369e-05
5.50632e-05
5.48801e-05
5.60659e-05
5.92787e-05
5.71462e-05
6.40223e-05
5.83202e-05
6.90669e-05
5.95877e-05
7.45348e-05
6.09583e-05
8.04674e-05
6.24407e-05
8.67795e-05
6.4047e-05
9.3586e-05
6.57798e-05
0.000100982
6.76612e-05
0.000108796
6.96939e-05
0.00011732
7.18955e-05
0.000126427
7.42794e-05
0.000136194
7.68581e-05
0.000146731
7.96515e-05
0.000157951
8.2671e-05
0.000170064
8.5939e-05
0.000182944
8.9469e-05
0.000196785
9.32813e-05
0.000211516
9.73955e-05
0.000227228
0.00010183
0.00024396
0.000106611
0.000261647
0.000111752
0.000280419
0.000117276
0.000300177
0.000123203
0.000320897
0.000129551
0.000342559
0.000136335
0.000365026
0.000143571
0.000388143
0.000151268
0.00041172
0.000159428
0.000435459
0.00016805
0.00045897
0.000177118
0.000481745
0.000186607
0.000503126
0.000196472
0.000522275
0.00020665
0.000538131
0.000217051
0.000549366
0.000227552
0.000554334
0.000237999
0.000551019
0.000248177
0.000536958
0.000257834
0.000509187
0.000266652
0.000464155
0.000274257
0.000397594
0.000280201
0.00030441
0.000283999
0.000176233
0.000284989
-3.75779e-06
-0.00018528
0.000282289
4.63231e-05
1.82487e-05
-4.60235e-05
4.66503e-05
1.97291e-05
4.70007e-05
2.13293e-05
4.73829e-05
2.30589e-05
4.77929e-05
2.49265e-05
4.82398e-05
2.69422e-05
4.87202e-05
2.91172e-05
4.92432e-05
3.14634e-05
4.98067e-05
3.39843e-05
5.04201e-05
3.67131e-05
5.10807e-05
3.96693e-05
5.17984e-05
4.2861e-05
5.25721e-05
4.63062e-05
5.34139e-05
4.99958e-05
5.4324e-05
5.39679e-05
5.53111e-05
5.82922e-05
5.63757e-05
6.29559e-05
5.75331e-05
6.79102e-05
5.87836e-05
7.32828e-05
6.0136e-05
7.91156e-05
6.1599e-05
8.53154e-05
6.31842e-05
9.20013e-05
6.48937e-05
9.92715e-05
6.67491e-05
0.000106941
6.87526e-05
0.000115316
7.09213e-05
0.000124258
7.32684e-05
0.000133847
7.58058e-05
0.000144193
7.85531e-05
0.000155203
8.15216e-05
0.000167095
8.47332e-05
0.000179732
8.8201e-05
0.000193317
9.19458e-05
0.00020777
9.59859e-05
0.000223186
0.000100341
0.000239604
0.000105034
0.000256953
0.000110081
0.000275371
0.000115504
0.000294753
0.000121323
0.000315078
0.000127553
0.000336327
0.000134212
0.000358366
0.000141314
0.00038104
0.000148868
0.000404166
0.000156876
0.00042745
0.000165336
0.00045051
0.000174234
0.000472847
0.000183544
0.000493817
0.000193222
0.000512598
0.000203206
0.000528147
0.000213409
0.000539166
0.000223709
0.000544035
0.000233957
0.000540778
0.000243942
0.000526974
0.000253417
0.000499714
0.00026207
0.000455504
0.000269535
0.000390139
0.000275368
0.000298597
0.00027908
0.000172563
0.000280031
-4.62825e-06
-0.00018252
0.00027732
4.56994e-05
1.79535e-05
-4.5405e-05
4.60207e-05
1.94097e-05
4.63652e-05
2.09839e-05
4.67406e-05
2.26854e-05
4.71436e-05
2.45225e-05
4.75824e-05
2.65051e-05
4.80543e-05
2.86442e-05
4.8568e-05
3.09515e-05
4.91215e-05
3.34294e-05
4.97239e-05
3.61121e-05
5.03727e-05
3.90189e-05
5.10779e-05
4.2157e-05
5.18379e-05
4.55443e-05
5.26652e-05
4.91695e-05
5.35598e-05
5.30714e-05
5.45307e-05
5.73222e-05
5.55784e-05
6.19065e-05
5.67181e-05
6.67712e-05
5.79503e-05
7.20493e-05
5.92837e-05
7.77828e-05
6.07266e-05
8.38713e-05
6.22903e-05
9.0438e-05
6.39769e-05
9.7584e-05
6.5807e-05
0.000105111
6.77828e-05
0.000113339
6.99206e-05
0.00012212
7.22332e-05
0.000131533
7.47322e-05
0.000141694
7.74367e-05
0.000152498
8.03574e-05
0.000164174
8.35161e-05
0.000176573
8.69257e-05
0.000189907
9.0606e-05
0.000204088
9.4576e-05
0.000219214
9.88541e-05
0.000235324
0.000103464
0.000252343
0.00010842
0.000270414
0.000113745
0.000289427
0.000119458
0.000309364
0.000125575
0.000330209
0.000132112
0.000351828
0.000139083
0.000374067
0.000146497
0.00039675
0.000154356
0.000419588
0.000162658
0.000442204
0.000171389
0.000464111
0.000180523
0.000484678
0.000190019
0.000503096
0.000199813
0.000518346
0.000209822
0.00052915
0.000219926
0.000533922
0.00022998
0.00053072
0.000239777
0.000517167
0.000249075
0.0004904
0.000257568
0.000446989
0.000264895
0.000382785
0.000270619
0.000292838
0.000274248
0.000168882
0.000275153
-5.63926e-06
-0.000179875
0.000272435
4.50559e-05
1.76632e-05
-4.47666e-05
4.53718e-05
1.90957e-05
4.57102e-05
2.06444e-05
4.60789e-05
2.23182e-05
4.64747e-05
2.41254e-05
4.69057e-05
2.60755e-05
4.73692e-05
2.81794e-05
4.78734e-05
3.04484e-05
4.84172e-05
3.28842e-05
4.90086e-05
3.55216e-05
4.96459e-05
3.83799e-05
5.03381e-05
4.14655e-05
5.10849e-05
4.47957e-05
5.18972e-05
4.83576e-05
5.27764e-05
5.21905e-05
5.37304e-05
5.63687e-05
5.47607e-05
6.08747e-05
5.58817e-05
6.56507e-05
5.70946e-05
7.08351e-05
5.84077e-05
7.64703e-05
5.98296e-05
8.24484e-05
6.13709e-05
8.88971e-05
6.30339e-05
9.59202e-05
6.48385e-05
0.000103307
6.67867e-05
0.00011139
6.88943e-05
0.000120013
7.11737e-05
0.000129253
7.36358e-05
0.000139231
7.62994e-05
0.000149833
7.91749e-05
0.000161298
8.22833e-05
0.000173464
8.56373e-05
0.000186552
8.92568e-05
0.000200467
9.31595e-05
0.000215309
9.73641e-05
0.000231118
0.000101893
0.000247813
0.000106763
0.000265544
0.000111993
0.000284197
0.000117603
0.000303753
0.000123609
0.000324202
0.000130027
0.000345409
0.000136871
0.000367223
0.000144148
0.000389472
0.000151862
0.000411873
0.00016001
0.000434057
0.000168577
0.000455544
0.00017754
0.000475716
0.000186857
0.000493781
0.000196466
0.000508738
0.000206286
0.000519334
0.0002162
0.00052401
0.000226064
0.000520863
0.000235678
0.000507556
0.000244803
0.000481277
0.00025314
0.000438656
0.000260334
0.000375602
0.000265951
0.000287242
0.000269499
0.000165376
0.000270354
-6.4124e-06
-0.000177096
0.000267632
4.43975e-05
1.73778e-05
-4.41131e-05
4.47077e-05
1.8787e-05
4.50405e-05
2.03107e-05
4.54027e-05
2.19574e-05
4.57917e-05
2.37353e-05
4.6215e-05
2.56537e-05
4.66704e-05
2.77231e-05
4.71656e-05
2.99545e-05
4.76996e-05
3.23489e-05
4.82805e-05
3.49419e-05
4.89063e-05
3.77526e-05
4.95862e-05
4.07866e-05
5.03193e-05
4.4061e-05
5.11171e-05
4.75607e-05
5.19804e-05
5.13256e-05
5.29174e-05
5.54325e-05
5.39295e-05
5.98611e-05
5.50312e-05
6.45496e-05
5.62237e-05
6.96414e-05
5.75154e-05
7.51791e-05
5.89149e-05
8.10479e-05
6.04326e-05
8.73797e-05
6.20709e-05
9.42811e-05
6.38491e-05
0.000101528
6.57692e-05
0.000109469
6.78464e-05
0.000117935
7.00927e-05
0.000127006
7.25186e-05
0.000136805
7.51424e-05
0.000147209
7.7974e-05
0.000158466
8.1034e-05
0.000170404
8.43347e-05
0.000183251
8.78951e-05
0.000196905
9.17335e-05
0.00021147
9.58672e-05
0.000226983
0.000100319
0.00024336
0.000105104
0.000260758
0.000110242
0.000279058
0.000115753
0.000298242
0.000121652
0.000318303
0.000127954
0.000339105
0.000134673
0.000360502
0.000141817
0.000382326
0.00014939
0.000404299
0.000157386
0.000426057
0.000165795
0.000447132
0.00017459
0.000466916
0.000183733
0.000484634
0.000193162
0.000499302
0.000202798
0.000509692
0.000212526
0.000514275
0.000222207
0.000511179
0.000231642
0.000498111
0.000240599
0.000472305
0.000248784
0.00043045
0.000255846
0.000368514
0.000261359
0.000281696
0.000264829
0.000161858
0.000265631
-7.31544e-06
-0.00017445
0.000262913
4.37299e-05
1.70973e-05
-4.34504e-05
4.40349e-05
1.84837e-05
4.43617e-05
1.99828e-05
4.47175e-05
2.1603e-05
4.50995e-05
2.33521e-05
4.55152e-05
2.52393e-05
4.59625e-05
2.72748e-05
4.64487e-05
2.94694e-05
4.69732e-05
3.18232e-05
4.75433e-05
3.43726e-05
4.8158e-05
3.71366e-05
4.88253e-05
4.012e-05
4.95452e-05
4.33395e-05
5.03283e-05
4.67781e-05
5.1176e-05
5.04764e-05
5.20958e-05
5.45131e-05
5.30898e-05
5.88658e-05
5.41718e-05
6.34681e-05
5.53435e-05
6.84685e-05
5.6613e-05
7.39101e-05
5.79892e-05
7.96708e-05
5.94823e-05
8.58869e-05
6.10947e-05
9.26679e-05
6.28455e-05
9.97778e-05
6.47364e-05
0.000107578
6.67825e-05
0.000115889
6.89952e-05
0.000124793
7.13848e-05
0.000134415
7.3969e-05
0.000144625
7.67574e-05
0.000155677
7.97699e-05
0.000167391
8.30183e-05
0.000180002
8.6522e-05
0.000193401
9.02974e-05
0.000207693
9.43625e-05
0.000222917
9.87391e-05
0.000238983
0.000103442
0.000256054
0.000108492
0.000274008
0.000113906
0.000292827
0.0001197
0.000312508
0.00012589
0.000332915
0.000132488
0.000353904
0.000139502
0.000375312
0.000146936
0.000396865
0.000154786
0.000418207
0.000163039
0.000438879
0.000171672
0.000458285
0.000180644
0.000475663
0.000189899
0.00049005
0.000199356
0.000500239
0.000208903
0.00050473
0.000218405
0.000501685
0.000227667
0.000488852
0.00023646
0.000463513
0.000244496
0.000422417
0.000251431
0.00036159
0.000256841
0.000276306
0.000260235
0.000158506
0.000260986
-7.98521e-06
-0.000171678
0.000258275
4.30565e-05
1.68216e-05
-4.27818e-05
4.33558e-05
1.81857e-05
4.36771e-05
1.96607e-05
4.40264e-05
2.12549e-05
4.44019e-05
2.29758e-05
4.48101e-05
2.48324e-05
4.52494e-05
2.68346e-05
4.57269e-05
2.89931e-05
4.62419e-05
3.13072e-05
4.68019e-05
3.38138e-05
4.74053e-05
3.6532e-05
4.80606e-05
3.94657e-05
4.87673e-05
4.26313e-05
4.95361e-05
4.60101e-05
5.03681e-05
4.9643e-05
5.12711e-05
5.36108e-05
5.22468e-05
5.78888e-05
5.33091e-05
6.24064e-05
5.44596e-05
6.73169e-05
5.57065e-05
7.26636e-05
5.70587e-05
7.83177e-05
5.85262e-05
8.44196e-05
6.01118e-05
9.10816e-05
6.1834e-05
9.80557e-05
6.36948e-05
0.000105716
6.57087e-05
0.000113875
6.7887e-05
0.000122614
7.02398e-05
0.000132062
7.27841e-05
0.00014208
7.55292e-05
0.000152931
7.84945e-05
0.000164425
8.16918e-05
0.000176804
8.51389e-05
0.000189952
8.88532e-05
0.000203977
9.28513e-05
0.000218918
9.71546e-05
0.000234679
0.000101778
0.000251431
0.000106741
0.000269045
0.000112061
0.000287507
0.000117753
0.000306815
0.000123833
0.000326834
0.000130313
0.000347423
0.000137201
0.000368422
0.0001445
0.000389563
0.000152207
0.000410498
0.000160309
0.000430774
0.000168783
0.000449807
0.000177591
0.000466851
0.000186675
0.00048096
0.000195957
0.000490951
0.000205329
0.000495351
0.000214657
0.000492354
0.00022375
0.000479749
0.000232384
0.000454863
0.000240276
0.000414505
0.000247085
0.000354755
0.000252395
0.000270963
0.000255714
0.000155139
0.000256415
-8.78445e-06
-0.000169058
0.000253719
4.23813e-05
1.65507e-05
-4.21116e-05
4.26755e-05
1.78929e-05
4.29908e-05
1.93442e-05
4.33339e-05
2.09128e-05
4.37026e-05
2.2606e-05
4.41033e-05
2.44325e-05
4.45347e-05
2.64022e-05
4.50033e-05
2.85252e-05
4.55092e-05
3.08002e-05
4.60587e-05
3.32648e-05
4.66513e-05
3.59381e-05
4.72944e-05
3.88231e-05
4.79885e-05
4.19359e-05
4.8743e-05
4.52559e-05
4.95599e-05
4.88247e-05
5.04461e-05
5.2725e-05
5.1404e-05
5.69298e-05
5.24465e-05
6.13642e-05
5.3576e-05
6.61864e-05