/*--------------------------------*- C++ -*----------------------------------*\
  =========                 |
  \\      /  F ield         | OpenFOAM: The Open Source CFD Toolbox
   \\    /   O peration     | Website:  https://openfoam.org
    \\  /    A nd           | Version:  6.0
     \\/     M anipulation  |
\*---------------------------------------------------------------------------*/
FoamFile
{
    version     2.0;
    format      ascii;
    class       surfaceScalarField;
    location    "3.77";
    object      phi;
}
// * * * * * * * * * * * * * * * * * * * * * * * * * * * * * * * * * * * * * //

dimensions      [0 3 -1 0 0 0 0];

internalField   nonuniform List<scalar> 
26699
(
2.0051e-05
0.005201
5.9942e-10
4.0126e-05
0.0051116
5.9639e-05
0.0049351
7.8187e-05
0.0046741
9.5415e-05
0.0043332
0.00011102
0.0039182
0.00012472
0.0034362
0.00013626
0.0028953
0.00014546
0.002305
0.00015181
0.0016755
0.00015717
0.0010154
0.00046503
3.4351e-05
2.0051e-05
0.0051809
1.8171e-09
4.0127e-05
0.0050916
5.964e-05
0.0049155
7.8191e-05
0.0046556
9.5417e-05
0.004316
0.00011102
0.0039026
0.00012471
0.0034225
0.00013625
0.0028838
0.00014545
0.0022958
0.00015105
0.0016699
0.0001589
0.0010076
0.00055905
6.4881e-05
2.0051e-05
0.0051609
3.1316e-09
4.0128e-05
0.0050715
5.9643e-05
0.004896
7.8193e-05
0.004637
9.542e-05
0.0042988
0.00011103
0.003887
0.00012471
0.0034088
0.00013623
0.0028723
0.00014547
0.0022865
0.00015029
0.0016651
0.00016016
0.00099768
0.00062922
8.9992e-05
2.0051e-05
0.0051408
4.4664e-09
4.013e-05
0.0050514
5.9645e-05
0.0048765
7.8196e-05
0.0046185
9.5423e-05
0.0042815
0.00011103
0.0038714
0.0001247
0.0033951
0.0001362
0.0028608
0.00014551
0.0022772
0.00014955
0.001661
0.00016089
0.00098633
0.00067993
0.00011018
2.0051e-05
0.0051208
5.8041e-09
4.0131e-05
0.0050313
5.9647e-05
0.004857
7.8199e-05
0.0045999
9.5426e-05
0.0042643
0.00011103
0.0038558
0.0001247
0.0033815
0.00013618
0.0028493
0.00014558
0.0022678
0.00014885
0.0016578
0.0001611
0.00097408
0.00071482
0.00012621
2.0051e-05
0.0051007
7.1449e-09
4.0132e-05
0.0050112
5.9649e-05
0.0048375
7.8203e-05
0.0045814
9.543e-05
0.0042471
0.00011103
0.0038402
0.0001247
0.0033678
0.00013615
0.0028378
0.00014567
0.0022583
0.00014822
0.0016552
0.00016086
0.00096145
0.00073691
0.00013877
2.0051e-05
0.0050807
8.4887e-09
4.0133e-05
0.0049912
5.9652e-05
0.004818
7.8206e-05
0.0045628
9.5433e-05
0.0042299
0.00011103
0.0038246
0.0001247
0.0033541
0.00013612
0.0028264
0.00014578
0.0022486
0.00014768
0.0016533
0.00016025
0.00094888
0.00074875
0.00014841
2.005e-05
0.0050606
9.8355e-09
4.0134e-05
0.0049711
5.9654e-05
0.0047984
7.8209e-05
0.0045442
9.5436e-05
0.0042126
0.00011104
0.003809
0.0001247
0.0033405
0.00013608
0.002815
0.00014591
0.0022388
0.00014724
0.001652
0.00015938
0.00093675
0.00075251
0.00015562
2.005e-05
0.0050405
1.1186e-08
4.0135e-05
0.004951
5.9656e-05
0.0047789
7.8212e-05
0.0045257
9.5439e-05
0.0041954
0.00011104
0.0037934
0.0001247
0.0033268
0.00013604
0.0028037
0.00014604
0.0022288
0.00014691
0.0016511
0.00015832
0.00092534
0.00075
0.00016083
2.005e-05
0.0050205
1.2539e-08
4.0137e-05
0.0049309
5.9659e-05
0.0047594
7.8215e-05
0.0045071
9.5443e-05
0.0041782
0.00011104
0.0037778
0.0001247
0.0033132
0.00013599
0.0027924
0.00014618
0.0022186
0.00014669
0.0016506
0.00015716
0.00091487
0.00074273
0.00016442
2.005e-05
0.0050004
1.3895e-08
4.0138e-05
0.0049108
5.9661e-05
0.0047399
7.8218e-05
0.0044886
9.5446e-05
0.004161
0.00011104
0.0037622
0.0001247
0.0032995
0.00013595
0.0027812
0.00014632
0.0022082
0.00014657
0.0016504
0.00015595
0.00090549
0.00073196
0.00016673
2.005e-05
0.0049803
1.5255e-08
4.0139e-05
0.0048907
5.9663e-05
0.0047204
7.8221e-05
0.00447
9.545e-05
0.0041437
0.00011105
0.0037466
0.00012471
0.0032858
0.00013589
0.00277
0.00014646
0.0021977
0.00014656
0.0016503
0.00015476
0.00089729
0.0007187
0.00016801
2.005e-05
0.0049603
1.6618e-08
4.014e-05
0.0048706
5.9666e-05
0.0047008
7.8224e-05
0.0044515
9.5453e-05
0.0041265
0.00011105
0.003731
0.00012472
0.0032722
0.00013584
0.0027589
0.00014659
0.0021869
0.00014664
0.0016502
0.00015362
0.00089031
0.00070381
0.00016852
2.005e-05
0.0049402
1.7984e-08
4.0141e-05
0.0048505
5.9668e-05
0.0046813
7.8227e-05
0.0044329
9.5457e-05
0.0041093
0.00011105
0.0037154
0.00012472
0.0032585
0.00013578
0.0027478
0.00014671
0.002176
0.00014682
0.0016501
0.00015258
0.00088455
0.00068794
0.00016844
2.005e-05
0.0049201
1.9354e-08
4.0142e-05
0.0048305
5.967e-05
0.0046618
7.823e-05
0.0044143
9.546e-05
0.004092
0.00011105
0.0036998
0.00012473
0.0032448
0.00013571
0.0027368
0.00014682
0.0021649
0.00014707
0.0016499
0.00015164
0.00087998
0.00067165
0.00016793
2.005e-05
0.0049001
2.0728e-08
4.0144e-05
0.0048104
5.9673e-05
0.0046422
7.8233e-05
0.0043958
9.5464e-05
0.0040748
0.00011105
0.0036842
0.00012474
0.0032311
0.00013565
0.0027259
0.00014692
0.0021536
0.00014738
0.0016494
0.00015083
0.00087653
0.00065535
0.00016714
2.005e-05
0.00488
2.2105e-08
4.0145e-05
0.0047903
5.9675e-05
0.0046227
7.8237e-05
0.0043772
9.5468e-05
0.0040576
0.00011106
0.0036686
0.00012476
0.0032174
0.00013558
0.0027151
0.000147
0.0021422
0.00014776
0.0016486
0.00015016
0.00087413
0.00063935
0.00016615
2.005e-05
0.0048599
2.3485e-08
4.0146e-05
0.0047702
5.9678e-05
0.0046032
7.824e-05
0.0043587
9.5471e-05
0.0040403
0.00011106
0.003653
0.00012477
0.0032037
0.00013551
0.0027044
0.00014706
0.0021306
0.00014817
0.0016475
0.00014963
0.00087268
0.00062391
0.00016507
2.005e-05
0.0048399
2.487e-08
4.0147e-05
0.0047501
5.968e-05
0.0045837
7.8243e-05
0.0043401
9.5475e-05
0.0040231
0.00011106
0.0036375
0.00012479
0.00319
0.00013544
0.0026937
0.0001471
0.002119
0.00014862
0.001646
0.00014923
0.00087207
0.00060918
0.00016396
2.005e-05
0.0048198
2.6258e-08
4.0148e-05
0.00473
5.9682e-05
0.0045641
7.8246e-05
0.0043215
9.5479e-05
0.0040059
0.00011106
0.0036219
0.00012481
0.0031762
0.00013537
0.0026831
0.00014712
0.0021072
0.00014909
0.001644
0.00014897
0.00087219
0.00059528
0.00016286
2.005e-05
0.0047997
2.765e-08
4.0149e-05
0.0047099
5.9685e-05
0.0045446
7.8249e-05
0.004303
9.5483e-05
0.0039886
0.00011106
0.0036063
0.00012483
0.0031625
0.00013531
0.0026727
0.00014712
0.0020954
0.00014958
0.0016416
0.00014883
0.00087293
0.00058229
0.00016182
2.0049e-05
0.0047796
2.9046e-08
4.015e-05
0.0046898
5.9687e-05
0.004525
7.8253e-05
0.0042844
9.5487e-05
0.0039714
0.00011106
0.0035907
0.00012485
0.0031487
0.00013524
0.0026623
0.00014711
0.0020835
0.00015006
0.0016386
0.00014881
0.00087419
0.00057023
0.00016087
2.0049e-05
0.0047595
3.0445e-08
4.0152e-05
0.0046697
5.969e-05
0.0045055
7.8256e-05
0.0042658
9.5492e-05
0.0039542
0.00011106
0.0035751
0.00012488
0.0031348
0.00013518
0.002652
0.00014707
0.0020716
0.00015055
0.0016351
0.00014889
0.00087585
0.00055911
0.00016002
2.0049e-05
0.0047395
3.1849e-08
4.0153e-05
0.0046496
5.9692e-05
0.004486
7.8259e-05
0.0042473
9.5496e-05
0.0039369
0.00011106
0.0035596
0.00012491
0.003121
0.00013511
0.0026418
0.00014701
0.0020597
0.00015102
0.0016311
0.00014907
0.0008778
0.0005489
0.00015928
2.0049e-05
0.0047194
3.3257e-08
4.0154e-05
0.0046295
5.9694e-05
0.0044664
7.8263e-05
0.0042287
9.55e-05
0.0039197
0.00011106
0.003544
0.00012493
0.0031071
0.00013506
0.0026317
0.00014694
0.0020479
0.00015148
0.0016266
0.00014932
0.00087996
0.00053957
0.00015865
2.0049e-05
0.0046993
3.4669e-08
4.0155e-05
0.0046094
5.9697e-05
0.0044469
7.8266e-05
0.0042101
9.5505e-05
0.0039025
0.00011106
0.0035285
0.00012496
0.0030932
0.000135
0.0026216
0.00014685
0.002036
0.00015192
0.0016215
0.00014964
0.00088223
0.00053106
0.00015815
2.0049e-05
0.0046792
3.6085e-08
4.0156e-05
0.0045893
5.9699e-05
0.0044273
7.8269e-05
0.0041916
9.551e-05
0.0038852
0.00011106
0.0035129
0.000125
0.0030793
0.00013495
0.0026117
0.00014674
0.0020242
0.00015232
0.001616
0.00015002
0.00088454
0.00052332
0.00015776
2.0049e-05
0.0046591
3.7505e-08
4.0157e-05
0.0045691
5.9702e-05
0.0044078
7.8272e-05
0.004173
9.5515e-05
0.003868
0.00011106
0.0034974
0.00012503
0.0030653
0.00013491
0.0026018
0.00014662
0.0020125
0.0001527
0.0016099
0.00015044
0.0008868
0.00051629
0.00015748
2.0049e-05
0.004639
3.893e-08
4.0159e-05
0.004549
5.9704e-05
0.0043883
7.8276e-05
0.0041544
9.552e-05
0.0038507
0.00011106
0.0034818
0.00012506
0.0030513
0.00013487
0.002592
0.00014649
0.0020009
0.00015305
0.0016033
0.0001509
0.00088895
0.00050989
0.00015729
2.0049e-05
0.0046189
4.036e-08
4.016e-05
0.0045289
5.9707e-05
0.0043687
7.8279e-05
0.0041358
9.5525e-05
0.0038335
0.00011106
0.0034663
0.0001251
0.0030373
0.00013484
0.0025822
0.00014634
0.0019894
0.00015336
0.0015963
0.00015137
0.00089094
0.00050406
0.0001572
2.0049e-05
0.0045989
4.1793e-08
4.0161e-05
0.0045088
5.9709e-05
0.0043492
7.8283e-05
0.0041173
9.553e-05
0.0038162
0.00011106
0.0034508
0.00012514
0.0030232
0.00013481
0.0025726
0.00014618
0.001978
0.00015363
0.0015888
0.00015186
0.00089271
0.00049873
0.00015719
2.0049e-05
0.0045788
4.3232e-08
4.0162e-05
0.0044887
5.9712e-05
0.0043296
7.8286e-05
0.0040987
9.5536e-05
0.003799
0.00011105
0.0034352
0.00012517
0.0030091
0.0001348
0.0025629
0.00014602
0.0019668
0.00015387
0.001581
0.00015235
0.00089424
0.00049384
0.00015724
2.0048e-05
0.0045587
4.4675e-08
4.0163e-05
0.0044686
5.9714e-05
0.0043101
7.8289e-05
0.0040801
9.5541e-05
0.0037817
0.00011105
0.0034197
0.00012521
0.0029949
0.00013479
0.0025534
0.00014584
0.0019557
0.00015407
0.0015727
0.00015284
0.00089547
0.00048933
0.00015735
2.0048e-05
0.0045386
4.6123e-08
4.0164e-05
0.0044485
5.9717e-05
0.0042905
7.8293e-05
0.0040616
9.5547e-05
0.0037645
0.00011104
0.0034042
0.00012525
0.0029807
0.00013478
0.0025438
0.00014567
0.0019449
0.00015424
0.0015642
0.00015332
0.00089639
0.00048513
0.00015751
2.0048e-05
0.0045185
4.7575e-08
4.0166e-05
0.0044284
5.9719e-05
0.0042709
7.8296e-05
0.004043
9.5554e-05
0.0037472
0.00011104
0.0033888
0.00012529
0.0029665
0.00013479
0.0025343
0.00014549
0.0019342
0.00015436
0.0015553
0.00015378
0.00089697
0.0004812
0.00015771
2.0048e-05
0.0044984
4.9033e-08
4.0167e-05
0.0044082
5.9722e-05
0.0042514
7.83e-05
0.0040244
9.556e-05
0.00373
0.00011103
0.0033733
0.00012532
0.0029522
0.0001348
0.0025248
0.0001453
0.0019237
0.00015446
0.0015461
0.00015423
0.0008972
0.00047749
0.00015794
2.0048e-05
0.0044783
5.0496e-08
4.0168e-05
0.0043881
5.9725e-05
0.0042318
7.8303e-05
0.0040058
9.5567e-05
0.0037127
0.00011103
0.0033578
0.00012536
0.0029379
0.00013483
0.0025154
0.00014512
0.0019134
0.00015452
0.0015368
0.00015465
0.00089707
0.00047395
0.00015819
2.0048e-05
0.0044582
5.1964e-08
4.0169e-05
0.004368
5.9727e-05
0.0042123
7.8306e-05
0.0039872
9.5573e-05
0.0036954
0.00011102
0.0033424
0.0001254
0.0029235
0.00013486
0.0025059
0.00014494
0.0019033
0.00015455
0.0015272
0.00015504
0.00089658
0.00047054
0.00015845
2.0048e-05
0.0044381
5.3437e-08
4.017e-05
0.0043479
5.973e-05
0.0041927
7.831e-05
0.0039687
9.5581e-05
0.0036782
0.00011102
0.0033269
0.00012544
0.0029091
0.0001349
0.0024965
0.00014477
0.0018934
0.00015454
0.0015174
0.0001554
0.00089573
0.00046722
0.00015871
2.0048e-05
0.004418
5.4915e-08
4.0171e-05
0.0043277
5.9732e-05
0.0041732
7.8313e-05
0.0039501
9.5588e-05
0.0036609
0.00011101
0.0033115
0.00012547
0.0028946
0.00013494
0.002487
0.0001446
0.0018838
0.00015452
0.0015075
0.00015573
0.00089451
0.00046398
0.00015898
2.0048e-05
0.0043979
5.6399e-08
4.0173e-05
0.0043076
5.9735e-05
0.0041536
7.8317e-05
0.0039315
9.5596e-05
0.0036436
0.000111
0.0032961
0.00012551
0.0028801
0.000135
0.0024775
0.00014443
0.0018743
0.00015446
0.0014974
0.00015603
0.00089294
0.00046077
0.00015924
2.0048e-05
0.0043778
5.7888e-08
4.0174e-05
0.0042875
5.9738e-05
0.004134
7.832e-05
0.0039129
9.5604e-05
0.0036263
0.00011099
0.0032807
0.00012554
0.0028655
0.00013506
0.002468
0.00014427
0.0018651
0.00015438
0.0014873
0.00015629
0.00089104
0.00045758
0.00015949
2.0047e-05
0.0043577
5.9383e-08
4.0175e-05
0.0042674
5.974e-05
0.0041145
7.8324e-05
0.0038943
9.5612e-05
0.003609
0.00011098
0.0032653
0.00012557
0.0028509
0.00013513
0.0024584
0.00014413
0.0018561
0.00015429
0.0014772
0.00015653
0.0008888
0.00045438
0.00015972
2.0047e-05
0.0043376
6.0883e-08
4.0176e-05
0.0042472
5.9743e-05
0.0040949
7.8327e-05
0.0038757
9.562e-05
0.0035917
0.00011098
0.00325
0.0001256
0.0028363
0.00013521
0.0024488
0.00014399
0.0018473
0.00015417
0.001467
0.00015673
0.00088624
0.00045116
0.00015994
2.0047e-05
0.0043174
6.2389e-08
4.0178e-05
0.0042271
5.9746e-05
0.0040753
7.8331e-05
0.0038572
9.5629e-05
0.0035745
0.00011097
0.0032347
0.00012563
0.0028217
0.00013529
0.0024392
0.00014386
0.0018388
0.00015404
0.0014568
0.0001569
0.00088339
0.00044791
0.00016015
2.0047e-05
0.0042973
6.3902e-08
4.0179e-05
0.004207
5.9749e-05
0.0040558
7.8334e-05
0.0038386
9.5638e-05
0.0035571
0.00011096
0.0032193
0.00012566
0.002807
0.00013538
0.0024294
0.00014375
0.0018304
0.0001539
0.0014466
0.00015704
0.00088026
0.00044462
0.00016033
2.0047e-05
0.0042772
6.542e-08
4.018e-05
0.0041868
5.9752e-05
0.0040362
7.8337e-05
0.00382
9.5648e-05
0.0035398
0.00011095
0.003204
0.00012568
0.0027922
0.00013548
0.0024197
0.00014364
0.0018222
0.00015375
0.0014365
0.00015715
0.00087687
0.00044127
0.00016049
2.0047e-05
0.0042571
6.6944e-08
4.0181e-05
0.0041667
5.9754e-05
0.0040166
7.8341e-05
0.0038014
9.5658e-05
0.0035225
0.00011094
0.0031887
0.0001257
0.0027775
0.00013558
0.0024098
0.00014356
0.0018143
0.0001536
0.0014265
0.00015723
0.00087323
0.00043787
0.00016063
2.0047e-05
0.004237
6.8475e-08
4.0183e-05
0.0041466
5.9757e-05
0.003997
7.8344e-05
0.0037828
9.5668e-05
0.0035052
0.00011093
0.0031735
0.00012572
0.0027627
0.00013569
0.0023998
0.00014348
0.0018065
0.00015343
0.0014165
0.00015729
0.00086937
0.00043441
0.00016076
2.0047e-05
0.0042169
7.0012e-08
4.0184e-05
0.0041264
5.976e-05
0.0039775
7.8348e-05
0.0037642
9.5678e-05
0.0034879
0.00011092
0.0031582
0.00012574
0.0027478
0.0001358
0.0023898
0.00014342
0.0017988
0.00015327
0.0014067
0.00015733
0.00086531
0.00043088
0.00016086
2.0047e-05
0.0041968
7.1556e-08
4.0185e-05
0.0041063
5.9763e-05
0.0039579
7.8351e-05
0.0037456
9.5689e-05
0.0034705
0.00011091
0.003143
0.00012575
0.002733
0.00013591
0.0023796
0.00014338
0.0017914
0.0001531
0.0013969
0.00015735
0.00086106
0.00042729
0.00016094
2.0047e-05
0.0041766
7.3106e-08
4.0186e-05
0.0040862
5.9766e-05
0.0039383
7.8354e-05
0.0037271
9.57e-05
0.0034532
0.0001109
0.0031278
0.00012576
0.0027181
0.00013603
0.0023693
0.00014334
0.0017841
0.00015294
0.0013874
0.00015735
0.00085665
0.00042365
0.000161
2.0046e-05
0.0041565
7.4663e-08
4.0188e-05
0.004066
5.9769e-05
0.0039187
7.8358e-05
0.0037085
9.5712e-05
0.0034358
0.0001109
0.0031126
0.00012577
0.0027033
0.00013615
0.002359
0.00014333
0.0017769
0.00015278
0.0013779
0.00015734
0.0008521
0.00041994
0.00016105
2.0046e-05
0.0041364
7.6227e-08
4.0189e-05
0.0040459
5.9772e-05
0.0038991
7.8361e-05
0.0036899
9.5724e-05
0.0034185
0.00011089
0.0030975
0.00012577
0.0026884
0.00013627
0.0023485
0.00014333
0.0017698
0.00015263
0.0013686
0.00015731
0.00084742
0.00041617
0.00016107
2.0046e-05
0.0041163
7.7797e-08
4.019e-05
0.0040257
5.9775e-05
0.0038796
7.8364e-05
0.0036713
9.5736e-05
0.0034011
0.00011088
0.0030823
0.00012578
0.0026735
0.00013639
0.0023378
0.00014334
0.0017629
0.00015249
0.0013594
0.00015727
0.00084264
0.00041235
0.00016109
2.0046e-05
0.0040961
7.9375e-08
4.0192e-05
0.0040056
5.9778e-05
0.00386
7.8368e-05
0.0036527
9.5748e-05
0.0033837
0.00011087
0.0030672
0.00012577
0.0026586
0.00013652
0.0023271
0.00014337
0.001756
0.00015235
0.0013505
0.00015722
0.00083777
0.00040848
0.00016109
2.0046e-05
0.004076
8.096e-08
4.0193e-05
0.0039854
5.9781e-05
0.0038404
7.8371e-05
0.0036341
9.5761e-05
0.0033663
0.00011087
0.0030521
0.00012577
0.0026437
0.00013664
0.0023162
0.00014341
0.0017493
0.00015222
0.0013416
0.00015717
0.00083282
0.00040457
0.00016108
2.0046e-05
0.0040559
8.2553e-08
4.0194e-05
0.0039653
5.9784e-05
0.0038208
7.8374e-05
0.0036155
9.5774e-05
0.0033489
0.00011086
0.003037
0.00012576
0.0026288
0.00013676
0.0023052
0.00014346
0.0017426
0.00015211
0.001333
0.00015711
0.00082781
0.00040063
0.00016106
2.0046e-05
0.0040358
8.4153e-08
4.0196e-05
0.0039451
5.9787e-05
0.0038012
7.8377e-05
0.0035969
9.5787e-05
0.0033315
0.00011086
0.0030219
0.00012575
0.0026139
0.00013688
0.0022941
0.00014352
0.0017359
0.000152
0.0013245
0.00015705
0.00082276
0.00039665
0.00016103
2.0046e-05
0.0040156
8.5761e-08
4.0197e-05
0.003925
5.9791e-05
0.0037816
7.838e-05
0.0035783
9.58e-05
0.0033141
0.00011085
0.0030069
0.00012573
0.002599
0.000137
0.0022828
0.0001436
0.0017293
0.00015191
0.0013162
0.00015699
0.00081768
0.00039264
0.000161
2.0046e-05
0.0039955
8.7376e-08
4.0198e-05
0.0039048
5.9794e-05
0.003762
7.8384e-05
0.0035597
9.5814e-05
0.0032967
0.00011085
0.0029918
0.00012572
0.0025842
0.00013711
0.0022714
0.00014369
0.0017227
0.00015184
0.0013081
0.00015693
0.00081259
0.00038861
0.00016096
2.0046e-05
0.0039754
8.9e-08
4.02e-05
0.0038847
5.9797e-05
0.0037424
7.8387e-05
0.0035412
9.5828e-05
0.0032792
0.00011085
0.0029768
0.00012569
0.0025693
0.00013722
0.0022599
0.00014379
0.0017162
0.00015177
0.0013001
0.00015688
0.00080748
0.00038457
0.00016092
2.0046e-05
0.0039552
9.0631e-08
4.0201e-05
0.0038645
5.98e-05
0.0037228
7.839e-05
0.0035226
9.5842e-05
0.0032618
0.00011085
0.0029618
0.00012567
0.0025545
0.00013733
0.0022482
0.00014389
0.0017096
0.00015172
0.0012922
0.00015682
0.00080238
0.00038052
0.00016087
2.0045e-05
0.0039351
9.2271e-08
4.0203e-05
0.0038444
5.9804e-05
0.0037032
7.8393e-05
0.003504
9.5857e-05
0.0032443
0.00011085
0.0029468
0.00012565
0.0025397
0.00013743
0.0022365
0.00014401
0.001703
0.00015168
0.0012846
0.00015678
0.00079729
0.00037647
0.00016083
2.0045e-05
0.0039149
9.392e-08
4.0204e-05
0.0038242
5.9807e-05
0.0036836
7.8396e-05
0.0034854
9.5871e-05
0.0032268
0.00011085
0.0029318
0.00012562
0.0025249
0.00013753
0.0022245
0.00014413
0.0016964
0.00015166
0.001277
0.00015673
0.00079221
0.00037242
0.00016078
2.0045e-05
0.0038948
9.5576e-08
4.0205e-05
0.003804
5.9811e-05
0.003664
7.8399e-05
0.0034668
9.5886e-05
0.0032093
0.00011086
0.0029169
0.00012559
0.0025102
0.00013763
0.0022125
0.00014426
0.0016898
0.00015165
0.0012696
0.0001567
0.00078717
0.00036838
0.00016074
2.0045e-05
0.0038747
9.7242e-08
4.0207e-05
0.0037839
5.9814e-05
0.0036444
7.8402e-05
0.0034482
9.59e-05
0.0031918
0.00011086
0.0029019
0.00012555
0.0024955
0.00013771
0.0022003
0.0001444
0.0016831
0.00015166
0.0012624
0.00015667
0.00078215
0.00036435
0.0001607
2.0045e-05
0.0038545
9.8917e-08
4.0208e-05
0.0037637
5.9818e-05
0.0036248
7.8405e-05
0.0034296
9.5915e-05
0.0031743
0.00011087
0.0028869
0.00012552
0.0024809
0.0001378
0.0021881
0.00014454
0.0016764
0.00015167
0.0012553
0.00015665
0.00077717
0.00036034
0.00016066
2.0045e-05
0.0038344
1.006e-07
4.021e-05
0.0037436
5.9821e-05
0.0036052
7.8408e-05
0.003411
9.593e-05
0.0031568
0.00011088
0.002872
0.00012548
0.0024663
0.00013787
0.0021757
0.00014468
0.0016696
0.0001517
0.0012482
0.00015664
0.00077224
0.00035635
0.00016062
2.0045e-05
0.0038142
1.0229e-07
4.0211e-05
0.0037234
5.9825e-05
0.0035856
7.8411e-05
0.0033925
9.5945e-05
0.0031393
0.00011089
0.002857
0.00012545
0.0024517
0.00013794
0.0021632
0.00014482
0.0016627
0.00015174
0.0012413
0.00015663
0.00076734
0.00035239
0.00016059
2.0045e-05
0.0037941
1.04e-07
4.0213e-05
0.0037032
5.9829e-05
0.0035659
7.8414e-05
0.0033739
9.5959e-05
0.0031217
0.0001109
0.0028421
0.00012541
0.0024372
0.000138
0.0021506
0.00014497
0.0016557
0.00015179
0.0012345
0.00015664
0.00076249
0.00034846
0.00016057
2.0045e-05
0.0037739
1.0571e-07
4.0214e-05
0.0036831
5.9832e-05
0.0035463
7.8417e-05
0.0033553
9.5974e-05
0.0031042
0.00011091
0.0028272
0.00012537
0.0024227
0.00013806
0.0021379
0.00014511
0.0016487
0.00015185
0.0012278
0.00015665
0.00075769
0.00034456
0.00016055
2.0045e-05
0.0037538
1.0743e-07
4.0216e-05
0.0036629
5.9836e-05
0.0035267
7.842e-05
0.0033367
9.5989e-05
0.0030866
0.00011093
0.0028122
0.00012533
0.0024084
0.00013811
0.0021251
0.00014526
0.0016415
0.00015192
0.0012211
0.00015667
0.00075294
0.0003407
0.00016053
2.0045e-05
0.0037336
1.0916e-07
4.0217e-05
0.0036427
5.984e-05
0.0035071
7.8423e-05
0.0033181
9.6003e-05
0.003069
0.00011095
0.0027973
0.00012529
0.002394
0.00013815
0.0021122
0.00014541
0.0016343
0.00015199
0.0012145
0.0001567
0.00074823
0.00033688
0.00016052
2.0045e-05
0.0037135
1.109e-07
4.0219e-05
0.0036225
5.9844e-05
0.0034875
7.8426e-05
0.0032995
9.6017e-05
0.0030514
0.00011096
0.0027823
0.00012525
0.0023797
0.00013819
0.0020993
0.00014555
0.0016269
0.00015208
0.001208
0.00015673
0.00074357
0.00033311
0.00016051
2.0045e-05
0.0036933
1.1266e-07
4.0221e-05
0.0036024
5.9848e-05
0.0034678
7.8429e-05
0.003281
9.6031e-05
0.0030338
0.00011099
0.0027674
0.00012521
0.0023655
0.00013822
0.0020863
0.00014569
0.0016194
0.00015217
0.0012015
0.00015678
0.00073896
0.00032937
0.00016051
2.0044e-05
0.0036731
1.1442e-07
4.0222e-05
0.0035822
5.9852e-05
0.0034482
7.8432e-05
0.0032624
9.6045e-05
0.0030162
0.00011101
0.0027524
0.00012517
0.0023513
0.00013824
0.0020732
0.00014582
0.0016119
0.00015226
0.0011951
0.00015683
0.0007344
0.00032569
0.00016051
2.0044e-05
0.003653
1.1619e-07
4.0224e-05
0.003562
5.9856e-05
0.0034286
7.8435e-05
0.0032438
9.6059e-05
0.0029986
0.00011103
0.0027374
0.00012513
0.0023373
0.00013826
0.0020601
0.00014596
0.0016042
0.00015236
0.0011887
0.00015688
0.00072987
0.00032205
0.00016052
2.0044e-05
0.0036328
1.1798e-07
4.0225e-05
0.0035418
5.986e-05
0.0034089
7.8438e-05
0.0032252
9.6072e-05
0.002981
0.00011106
0.0027225
0.00012509
0.0023232
0.00013827
0.0020469
0.00014609
0.0015964
0.00015246
0.0011823
0.00015695
0.00072539
0.00031846
0.00016054
2.0044e-05
0.0036127
1.1977e-07
4.0227e-05
0.0035216
5.9864e-05
0.0033893
7.8441e-05
0.0032066
9.6085e-05
0.0029633
0.00011108
0.0027075
0.00012505
0.0023092
0.00013828
0.0020337
0.00014621
0.0015884
0.00015257
0.0011759
0.00015701
0.00072095
0.00031492
0.00016055
2.0044e-05
0.0035925
1.2158e-07
4.0229e-05
0.0035015
5.9868e-05
0.0033697
7.8444e-05
0.0031881
9.6098e-05
0.0029457
0.00011111
0.0026924
0.00012502
0.0022953
0.00013828
0.0020204
0.00014633
0.0015804
0.00015268
0.0011696
0.00015708
0.00071654
0.00031143
0.00016058
2.0044e-05
0.0035723
1.234e-07
4.023e-05
0.0034813
5.9873e-05
0.00335
7.8448e-05
0.0031695
9.611e-05
0.002928
0.00011114
0.0026774
0.00012499
0.0022815
0.00013828
0.0020071
0.00014644
0.0015722
0.00015279
0.0011632
0.00015716
0.00071217
0.00030798
0.0001606
2.0044e-05
0.0035522
1.2523e-07
4.0232e-05
0.0034611
5.9877e-05
0.0033304
7.8451e-05
0.0031509
9.6122e-05
0.0029103
0.00011118
0.0026624
0.00012495
0.0022677
0.00013827
0.0019938
0.00014655
0.0015639
0.0001529
0.0011569
0.00015724
0.00070782
0.00030459
0.00016063
2.0044e-05
0.003532
1.2708e-07
4.0234e-05
0.0034409
5.9881e-05
0.0033107
7.8454e-05
0.0031323
9.6133e-05
0.0028926
0.00011121
0.0026473
0.00012493
0.002254
0.00013826
0.0019805
0.00014665
0.0015555
0.000153
0.0011505
0.00015732
0.00070351
0.00030125
0.00016066
2.0044e-05
0.0035118
1.2893e-07
4.0236e-05
0.0034207
5.9886e-05
0.0032911
7.8458e-05
0.0031138
9.6144e-05
0.002875
0.00011125
0.0026322
0.0001249
0.0022404
0.00013824
0.0019671
0.00014674
0.001547
0.00015311
0.0011442
0.0001574
0.00069922
0.00029795
0.0001607
2.0044e-05
0.0034916
1.308e-07
4.0238e-05
0.0034005
5.989e-05
0.0032714
7.8462e-05
0.0030952
9.6155e-05
0.0028573
0.00011128
0.002617
0.00012487
0.0022268
0.00013822
0.0019538
0.00014683
0.0015384
0.00015322
0.0011378
0.00015749
0.00069495
0.00029471
0.00016074
2.0044e-05
0.0034715
1.3268e-07
4.0239e-05
0.0033803
5.9895e-05
0.0032518
7.8466e-05
0.0030766
9.6165e-05
0.0028396
0.00011132
0.0026019
0.00012485
0.0022132
0.00013819
0.0019404
0.00014691
0.0015297
0.00015333
0.0011314
0.00015758
0.00069069
0.00029151
0.00016078
2.0044e-05
0.0034513
1.3458e-07
4.0241e-05
0.0033601
5.9899e-05
0.0032321
7.8469e-05
0.0030581
9.6174e-05
0.0028219
0.00011136
0.0025867
0.00012483
0.0021998
0.00013817
0.0019271
0.00014699
0.0015209
0.00015343
0.0011249
0.00015767
0.00068646
0.00028835
0.00016082
2.0044e-05
0.0034311
1.3649e-07
4.0243e-05
0.0033399
5.9904e-05
0.0032125
7.8474e-05
0.0030395
9.6183e-05
0.0028042
0.0001114
0.0025715
0.00012482
0.0021863
0.00013814
0.0019138
0.00014706
0.001512
0.00015353
0.0011185
0.00015775
0.00068223
0.00028524
0.00016086
2.0044e-05
0.0034109
1.3841e-07
4.0245e-05
0.0033197
5.9908e-05
0.0031928
7.8478e-05
0.0030209
9.6192e-05
0.0027864
0.00011143
0.0025563
0.00012481
0.002173
0.00013811
0.0019005
0.00014713
0.0015029
0.00015363
0.001112
0.00015784
0.00067802
0.00028218
0.00016091
2.0044e-05
0.0033907
1.4034e-07
4.0247e-05
0.0032995
5.9913e-05
0.0031731
7.8482e-05
0.0030024
9.62e-05
0.0027687
0.00011148
0.002541
0.0001248
0.0021596
0.00013808
0.0018872
0.00014718
0.0014938
0.00015372
0.0011054
0.00015793
0.00067381
0.00027915
0.00016096
2.0044e-05
0.0033706
1.4229e-07
4.0249e-05
0.0032793
5.9918e-05
0.0031535
7.8487e-05
0.0029838
9.6208e-05
0.002751
0.00011152
0.0025257
0.00012479
0.0021464
0.00013805
0.0018739
0.00014724
0.0014846
0.00015381
0.0010988
0.00015802
0.0006696
0.00027617
0.00016101
2.0044e-05
0.0033504
1.4426e-07
4.0251e-05
0.0032591
5.9923e-05
0.0031338
7.8492e-05
0.0029652
9.6215e-05
0.0027333
0.00011156
0.0025103
0.00012479
0.0021331
0.00013801
0.0018607
0.00014728
0.0014754
0.0001539
0.0010922
0.00015811
0.00066539
0.00027322
0.00016105
2.0044e-05
0.0033302
1.4624e-07
4.0253e-05
0.0032389
5.9928e-05
0.0031141
7.8496e-05
0.0029466
9.6221e-05
0.0027156
0.0001116
0.002495
0.00012479
0.0021199
0.00013798
0.0018475
0.00014733
0.001466
0.00015399
0.0010856
0.00015819
0.00066118
0.00027031
0.0001611
2.0044e-05
0.00331
1.4823e-07
4.0255e-05
0.0032187
5.9932e-05
0.0030944
7.8502e-05
0.0029281
9.6228e-05
0.0026978
0.00011164
0.0024795
0.00012479
0.0021068
0.00013794
0.0018344
0.00014737
0.0014566
0.00015407
0.0010789
0.00015828
0.00065697
0.00026744
0.00016115
2.0044e-05
0.0032898
1.5024e-07
4.0257e-05
0.0031985
5.9937e-05
0.0030747
7.8507e-05
0.0029095
9.6233e-05
0.0026801
0.00011168
0.0024641
0.0001248
0.0020937
0.00013791
0.0018213
0.0001474
0.0014471
0.00015414
0.0010721
0.00015836
0.00065275
0.0002646
0.0001612
2.0044e-05
0.0032696
1.5227e-07
4.0259e-05
0.0031782
5.9942e-05
0.0030551
7.8512e-05
0.0028909
9.6239e-05
0.0026624
0.00011173
0.0024486
0.00012481
0.0020806
0.00013788
0.0018082
0.00014743
0.0014376
0.00015422
0.0010653
0.00015845
0.00064853
0.00026179
0.00016125
2.0044e-05
0.0032494
1.5431e-07
4.0261e-05
0.003158
5.9947e-05
0.0030354
7.8518e-05
0.0028724
9.6243e-05
0.0026447
0.00011177
0.0024331
0.00012482
0.0020676
0.00013785
0.0017951
0.00014746
0.001428
0.00015429
0.0010585
0.00015853
0.00064429
0.00025901
0.0001613
2.0044e-05
0.0032292
1.5637e-07
4.0263e-05
0.0031378
5.9953e-05
0.0030157
7.8524e-05
0.0028538
9.6248e-05
0.0026269
0.00011181
0.0024175
0.00012483
0.0020545
0.00013782
0.0017822
0.00014748
0.0014183
0.00015435
0.0010516
0.0001586
0.00064004
0.00025626
0.00016135
2.0044e-05
0.003209
1.5845e-07
4.0265e-05
0.0031176
5.9958e-05
0.002996
7.853e-05
0.0028352
9.6252e-05
0.0026092
0.00011185
0.0024019
0.00012485
0.0020415
0.00013779
0.0017692
0.0001475
0.0014086
0.00015442
0.0010447
0.00015868
0.00063578
0.00025354
0.0001614
2.0044e-05
0.0031888
1.6054e-07
4.0267e-05
0.0030974
5.9963e-05
0.0029763
7.8537e-05
0.0028166
9.6256e-05
0.0025915
0.00011189
0.0023863
0.00012487
0.0020285
0.00013776
0.0017563
0.00014752
0.0013988
0.00015448
0.0010377
0.00015876
0.0006315
0.00025084
0.00016145
2.0044e-05
0.0031686
1.6265e-07
4.027e-05
0.0030771
5.9968e-05
0.0029566
7.8543e-05
0.0027981
9.6259e-05
0.0025738
0.00011193
0.0023706
0.00012489
0.0020156
0.00013774
0.0017435
0.00014753
0.001389
0.00015453
0.0010307
0.00015883
0.00062721
0.00024817
0.0001615
2.0044e-05
0.0031484
1.6478e-07
4.0272e-05
0.0030569
5.9973e-05
0.0029369
7.855e-05
0.0027795
9.6262e-05
0.0025561
0.00011197
0.0023549
0.00012492
0.0020026
0.00013772
0.0017307
0.00014754
0.0013792
0.00015459
0.0010237
0.0001589
0.0006229
0.00024552
0.00016155
2.0044e-05
0.0031282
1.6693e-07
4.0274e-05
0.0030367
5.9979e-05
0.0029172
7.8558e-05
0.0027609
9.6265e-05
0.0025384
0.00011201
0.0023392
0.00012495
0.0019897
0.0001377
0.0017179
0.00014755
0.0013694
0.00015464
0.0010166
0.00015897
0.00061857
0.00024289
0.0001616
2.0044e-05
0.003108
1.691e-07
4.0276e-05
0.0030165
5.9984e-05
0.0028975
7.8565e-05
0.0027423
9.6267e-05
0.0025207
0.00011205
0.0023234
0.00012498
0.0019768
0.00013768
0.0017052
0.00014756
0.0013595
0.00015469
0.0010095
0.00015904
0.00061422
0.00024027
0.00016165
2.0044e-05
0.0030877
1.7128e-07
4.0279e-05
0.0029962
5.999e-05
0.0028778
7.8573e-05
0.0027238
9.627e-05
0.002503
0.00011209
0.0023075
0.00012501
0.0019639
0.00013766
0.0016926
0.00014757
0.0013496
0.00015473
0.0010023
0.0001591
0.00060985
0.00023768
0.00016169
2.0044e-05
0.0030675
1.7349e-07
4.0281e-05
0.002976
5.9995e-05
0.0028581
7.858e-05
0.0027052
9.6272e-05
0.0024853
0.00011213
0.0022917
0.00012505
0.0019509
0.00013765
0.00168
0.00014758
0.0013396
0.00015478
0.00099512
0.00015916
0.00060546
0.0002351
0.00016174
2.0044e-05
0.0030473
1.7571e-07
4.0283e-05
0.0029557
6e-05
0.0028383
7.8588e-05
0.0026866
9.6274e-05
0.0024676
0.00011216
0.0022758
0.00012508
0.001938
0.00013764
0.0016674
0.00014759
0.0013297
0.00015482
0.00098789
0.00015923
0.00060106
0.00023254
0.00016179
2.0044e-05
0.0030271
1.7796e-07
4.0286e-05
0.0029355
6.0006e-05
0.0028186
7.8597e-05
0.002668
9.6276e-05
0.0024499
0.0001122
0.0022599
0.00012512
0.0019251
0.00013763
0.0016549
0.00014759
0.0013197
0.00015486
0.00098062
0.00015929
0.00059663
0.00023
0.00016183
2.0044e-05
0.0030069
1.8022e-07
4.0288e-05
0.0029153
6.0012e-05
0.0027989
7.8605e-05
0.0026494
9.6278e-05
0.0024322
0.00011223
0.0022439
0.00012516
0.0019122
0.00013763
0.0016424
0.0001476
0.0013098
0.0001549
0.00097333
0.00015935
0.00059218
0.00022746
0.00016188
2.0044e-05
0.0029866
1.8251e-07
4.0291e-05
0.002895
6.0017e-05
0.0027792
7.8614e-05
0.0026308
9.628e-05
0.0024146
0.00011227
0.0022279
0.0001252
0.0018992
0.00013763
0.00163
0.0001476
0.0012998
0.00015493
0.000966
0.0001594
0.00058771
0.00022494
0.00016192
2.0044e-05
0.0029664
1.8482e-07
4.0293e-05
0.0028748
6.0023e-05
0.0027594
7.8623e-05
0.0026122
9.6281e-05
0.0023969
0.0001123
0.0022119
0.00012524
0.0018863
0.00013763
0.0016176
0.00014761
0.0012898
0.00015497
0.00095864