/*--------------------------------*- C++ -*----------------------------------*\
  =========                 |
  \\      /  F ield         | OpenFOAM: The Open Source CFD Toolbox
   \\    /   O peration     | Website:  https://openfoam.org
    \\  /    A nd           | Version:  6.0
     \\/     M anipulation  |
\*---------------------------------------------------------------------------*/
FoamFile
{
    version     2.0;
    format      ascii;
    class       volScalarField;
    location    "3";
    object      p;
}
// * * * * * * * * * * * * * * * * * * * * * * * * * * * * * * * * * * * * * //

dimensions      [0 2 -2 0 0 0 0];

internalField   nonuniform List<scalar> 
62000
(
0.0311823
0.031254
0.0313253
0.0313948
0.0314613
0.0315251
0.0315861
0.0316446
0.0317005
0.0317544
0.031806
0.0318563
0.0319047
0.0319528
0.0319997
0.0320472
0.0320946
0.0321439
0.0321941
0.0322475
0.0323029
0.0323624
0.0324248
0.0324916
0.0325607
0.0326327
0.0327039
0.0327726
0.0328324
0.0328777
0.0328976
0.0328815
0.0328125
0.0326739
0.0324433
0.0320928
0.03159
0.0308997
0.0299862
0.0288158
0.0273604
0.025602
0.0235376
0.0211834
0.0185787
0.0157859
0.0128879
0.00998352
0.00717339
0.004559
0.00221437
0.000208881
-0.00144749
-0.00271655
-0.00362172
-0.00416267
-0.00436936
-0.00423627
-0.00378696
-0.00352026
0.0309692
0.0310433
0.0311189
0.0311942
0.0312665
0.0313352
0.0314001
0.0314618
0.0315203
0.0315765
0.0316302
0.0316826
0.0317334
0.0317842
0.0318345
0.0318863
0.031939
0.0319949
0.0320533
0.0321165
0.0321838
0.0322575
0.0323366
0.0324228
0.0325148
0.0326131
0.0327151
0.032819
0.03292
0.0330122
0.0330869
0.033133
0.0331362
0.0330796
0.0329414
0.0326944
0.0323058
0.0317392
0.0309567
0.0299208
0.0285975
0.026961
0.0249983
0.0227137
0.0201338
0.0173079
0.0143081
0.0112252
0.00815726
0.00520918
0.00246367
7.99947e-06
-0.0021347
-0.00389344
-0.00526387
-0.00620432
-0.00670072
-0.00667973
-0.00610947
-0.00528114
0.0304845
0.0305355
0.0305922
0.0306532
0.0307142
0.0307731
0.0308293
0.030883
0.0309341
0.0309832
0.0310302
0.0310761
0.0311205
0.031165
0.0312089
0.0312543
0.0313003
0.0313492
0.0314002
0.0314558
0.0315151
0.0315804
0.0316509
0.0317283
0.0318116
0.0319013
0.0319953
0.0320921
0.0321875
0.0322762
0.0323506
0.0324005
0.0324131
0.032372
0.032258
0.0320444
0.0316999
0.0311895
0.0304755
0.0295198
0.0282865
0.0267462
0.0248802
0.0226853
0.020179
0.0174006
0.0144126
0.0112975
0.00814853
0.00506966
0.0021483
-0.000519575
-0.0028979
-0.00489619
-0.00649374
-0.00762394
-0.00824706
-0.00826015
-0.00762603
-0.00670589
0.0298239
0.0298429
0.0298728
0.0299124
0.029955
0.0299976
0.0300387
0.0300784
0.0301164
0.0301532
0.0301885
0.0302231
0.0302565
0.03029
0.0303229
0.0303569
0.0303911
0.0304276
0.0304655
0.030507
0.0305512
0.0306004
0.0306534
0.0307122
0.0307754
0.0308438
0.0309154
0.030989
0.0310609
0.0311261
0.0311783
0.0312079
0.0312032
0.0311505
0.0310303
0.0308188
0.0304863
0.0299996
0.0293229
0.0284187
0.0272514
0.0257898
0.024012
0.02191
0.0194942
0.0167959
0.0138688
0.0107874
0.00763919
0.00452473
0.00153306
-0.0012351
-0.00373733
-0.00587002
-0.00759733
-0.00883958
-0.00954288
-0.00959451
-0.00896981
-0.00805142
0.0289784
0.0289685
0.0289747
0.0289947
0.0290203
0.0290474
0.029074
0.0290999
0.0291246
0.0291485
0.0291713
0.0291935
0.029215
0.0292364
0.0292574
0.0292789
0.0293004
0.0293235
0.029347
0.0293731
0.0294006
0.0294315
0.0294647
0.0295019
0.0295416
0.0295848
0.0296295
0.0296745
0.0297164
0.029751
0.0297723
0.029772
0.0297399
0.0296621
0.0295226
0.0292981
0.0289612
0.0284814
0.0278247
0.0269552
0.0258382
0.0244422
0.0227433
0.0207302
0.0184079
0.0158011
0.0129558
0.00993877
0.00683139
0.00372964
0.000722645
-0.00208789
-0.00465244
-0.00685947
-0.00866545
-0.00998222
-0.0107484
-0.0108477
-0.0102656
-0.00936851
0.0280119
0.0279793
0.0279653
0.0279671
0.0279762
0.0279876
0.0279993
0.0280107
0.0280213
0.0280314
0.0280405
0.0280492
0.028057
0.0280649
0.0280718
0.0280792
0.028086
0.0280938
0.0281015
0.0281108
0.0281204
0.0281322
0.0281449
0.0281598
0.0281756
0.0281929
0.0282097
0.0282251
0.0282358
0.0282378
0.0282261
0.0281927
0.0281283
0.0280218
0.0278565
0.0276121
0.027263
0.0267809
0.0261339
0.0252884
0.0242109
0.0228704
0.0212422
0.0193126
0.0170825
0.0145711
0.0118175
0.0088814
0.00583802
0.00277781
-0.000211339
-0.0030284
-0.00562144
-0.00787355
-0.00973159
-0.0111045
-0.0119258
-0.0120777
-0.0115499
-0.0106781
0.0269166
0.0268675
0.0268381
0.0268257
0.0268214
0.0268199
0.0268189
0.0268177
0.0268156
0.0268128
0.0268091
0.0268049
0.0267998
0.0267944
0.0267881
0.0267818
0.0267747
0.0267679
0.0267602
0.0267531
0.0267455
0.0267386
0.0267313
0.0267247
0.0267173
0.0267096
0.0266996
0.0266864
0.0266669
0.0266375
0.0265933
0.0265274
0.0264317
0.0262945
0.0261025
0.0258359
0.0254714
0.0249829
0.0243408
0.0235133
0.0224687
0.0211767
0.0196125
0.0177605
0.0156186
0.013201
0.0105412
0.00769188
0.00472242
0.00171742
-0.00123712
-0.00404274
-0.00664357
-0.00891968
-0.010814
-0.0122327
-0.0131059
-0.0133127
-0.0128426
-0.0119927
0.0257439
0.0256813
0.0256385
0.0256129
0.0255955
0.0255813
0.0255677
0.025554
0.0255394
0.0255242
0.0255078
0.0254908
0.0254725
0.0254539
0.0254337
0.0254133
0.0253914
0.0253695
0.0253461
0.0253227
0.0252978
0.0252729
0.0252463
0.0252193
0.02519
0.025159
0.0251241
0.0250845
0.0250371
0.0249785
0.0249044
0.0248082
0.0246822
0.0245173
0.0242994
0.0240112
0.023631
0.0231348
0.0224951
0.021682
0.0206657
0.0194169
0.0179109
0.016131
0.0140727
0.0117461
0.00917938
0.0064191
0.0035289
0.000587292
-0.00232218
-0.00510436
-0.00770265
-0.00999558
-0.0119188
-0.0133788
-0.0143023
-0.014564
-0.0141506
-0.0133183
0.0244558
0.0243839
0.024332
0.0242975
0.0242714
0.0242484
0.0242259
0.0242029
0.0241788
0.0241536
0.024127
0.0240993
0.0240702
0.0240399
0.0240081
0.0239752
0.0239408
0.0239053
0.0238678
0.0238293
0.0237887
0.0237468
0.0237025
0.0236564
0.023607
0.0235546
0.0234971
0.0234335
0.0233609
0.0232762
0.0231749
0.0230516
0.0228994
0.0227083
0.0224674
0.0221596
0.0217651
0.0212618
0.0206242
0.0198242
0.0188337
0.0176247
0.0161726
0.01446
0.0124804
0.0102403
0.00776339
0.00509037
0.00227946
-0.000596878
-0.00345765
-0.0062122
-0.00880105
-0.0111027
-0.0130501
-0.0145488
-0.0155222
-0.0158387
-0.0154804
-0.0146609
0.0231209
0.0230405
0.0229796
0.0229356
0.0228997
0.0228667
0.022834
0.0228007
0.0227662
0.0227304
0.0226929
0.022654
0.0226132
0.0225711
0.0225268
0.0224813
0.0224335
0.0223845
0.0223329
0.0222799
0.0222243
0.0221667
0.0221059
0.0220426
0.021975
0.0219033
0.0218255
0.0217406
0.0216458
0.0215379
0.0214133
0.0212661
0.0210902
0.0208775
0.0206163
0.0202917
0.0198851
0.0193763
0.0187412
0.0179537
0.0169874
0.0158154
0.0144135
0.0127641
0.0108588
0.0087014
0.0063111
0.00372347
0.000991616
-0.00181804
-0.00462739
-0.0073503
-0.0099275
-0.0122375
-0.0142076
-0.0157444
-0.0167672
-0.0171376
-0.0168317
-0.0160217
0.0216816
0.0215953
0.0215285
0.0214786
0.0214364
0.0213967
0.021357
0.0213162
0.0212738
0.0212295
0.0211833
0.0211353
0.0210852
0.0210333
0.0209792
0.0209231
0.0208647
0.0208043
0.0207409
0.0206753
0.0206064
0.0205349
0.0204595
0.0203807
0.0202969
0.0202081
0.0201125
0.0200089
0.0198947
0.019767
0.0196219
0.0194546
0.0192593
0.0190274
0.0187497
0.0184114
0.0179954
0.0174831
0.0168521
0.0160779
0.0151354
0.013999
0.012645
0.0110554
0.00922047
0.00714137
0.00483361
0.0023278
-0.000327763
-0.00307253
-0.00583109
-0.00852272
-0.0110859
-0.0134004
-0.015392
-0.0169666
-0.0180394
-0.0184634
-0.0182088
-0.0174054
0.0201862
0.0200939
0.0200206
0.0199639
0.0199146
0.0198677
0.0198205
0.0197721
0.0197219
0.01967
0.0196155
0.0195592
0.0195001
0.0194392
0.0193752
0.0193092
0.0192401
0.0191689
0.0190942
0.0190171
0.0189361
0.0188521
0.0187637
0.0186713
0.0185733
0.0184697
0.0183587
0.0182391
0.0181084
0.0179637
0.0178018
0.0176175
0.0174056
0.0171591
0.0168679
0.0165192
0.0160968
0.0155834
0.0149581
0.0141978
0.013279
0.012177
0.0108688
0.00933624
0.00756852
0.00556441
0.00333602
0.000909475
-0.00167141
-0.00435185
-0.00705935
-0.00971836
-0.0122679
-0.0145887
-0.0166022
-0.0182151
-0.0193379
-0.0198148
-0.0196097
-0.0188114
0.0185728
0.0184772
0.0184011
0.0183417
0.0182897
0.0182398
0.0181895
0.0181375
0.0180833
0.0180267
0.0179675
0.0179055
0.0178409
0.0177734
0.017703
0.0176295
0.0175529
0.0174733
0.0173898
0.0173031
0.0172122
0.0171174
0.0170178
0.0169138
0.0168035
0.0166873
0.0165632
0.0164302
0.0162856
0.0161272
0.0159511
0.0157534
0.015529
0.0152703
0.0149694
0.0146135
0.0141876
0.0136759
0.0130585
0.0123136
0.0114192
0.0103516
0.00908811
0.0076106
0.00590728
0.00397484
0.00182233
-0.000528415
-0.00303781
-0.0056566
-0.00831483
-0.010943
-0.013478
-0.0158028
-0.0178381
-0.0194899
-0.0206639
-0.0211941
-0.0210384
-0.0202442
0.0169295
0.0168295
0.0167486
0.0166839
0.0166263
0.0165705
0.0165141
0.016456
0.0163956
0.0163328
0.016267
0.0161985
0.0161266
0.0160521
0.0159739
0.0158928
0.0158079
0.0157202
0.0156281
0.0155327
0.0154329
0.015329
0.01522
0.0151062
0.0149858
0.0148592
0.0147243
0.0145803
0.0144248
0.0142551
0.0140685
0.0138601
0.0136259
0.0133593
0.0130517
0.0126919
0.0122656
0.0117581
0.0111506
0.0104226
0.00955326
0.00851986
0.00730017
0.00587615
0.00423516
0.00237203
0.000292905
-0.00198422
-0.00442372
-0.00698174
-0.00959108
-0.0121878
-0.0147096
-0.0170409
-0.0190988
-0.0207904
-0.0220159
-0.022599
-0.0224922
-0.0217015
0.0151788
0.0150764
0.0149933
0.0149266
0.0148667
0.0148085
0.0147492
0.0146877
0.0146235
0.0145565
0.0144863
0.0144131
0.0143367
0.014257
0.0141739
0.0140873
0.0139971
0.0139033
0.0138051
0.013703
0.0135963
0.013485
0.0133684
0.0132467
0.0131183
0.0129833
0.01284
0.0126875
0.0125235
0.0123456
0.0121506
0.0119352
0.0116947
0.0114226
0.0111119
0.0107513
0.0103275
0.00982697
0.00923192
0.00852286
0.00768005
0.00668157
0.00550563
0.00413419
0.00255385
0.000757747
-0.00125055
-0.0034569
-0.00582939
-0.00832927
-0.0108916
-0.0134589
-0.0159669
-0.0183029
-0.020384
-0.0221164
-0.0233949
-0.0240322
-0.0239754
-0.0231861
0.0133795
0.0132734
0.0131863
0.0131155
0.0130514
0.0129887
0.0129249
0.0128592
0.0127905
0.0127193
0.0126446
0.012567
0.0124855
0.0124012
0.0123125
0.0122207
0.0121246
0.0120253
0.0119212
0.0118135
0.0117008
0.0115837
0.0114611
0.0113333
0.0111987
0.0110575
0.010908
0.0107493
0.0105793
0.0103955
0.0101958
0.00997558
0.00973155
0.00945778
0.00914674
0.00878849
0.00837026
0.00787941
0.00729906
0.00661065
0.00579554
0.00483255
0.00370032
0.00238085
0.000860071
-0.000870403
-0.00280955
-0.00494664
-0.00725329
-0.00969567
-0.0122114
-0.0147488
-0.0172446
-0.0195879
-0.0216932
-0.0234674
-0.0247996
-0.0254913
-0.025485
-0.0246958
0.0114528
0.0113456
0.0112584
0.0111878
0.0111242
0.011062
0.0109985
0.0109325
0.0108635
0.0107912
0.0107156
0.0106362
0.0105533
0.0104665
0.010376
0.0102813
0.0101827
0.01008
0.00997262
0.00986087
0.00974433
0.00962287
0.00949597
0.00936378
0.00922478
0.00907931
0.00892567
0.00876311
0.00858947
0.0084028
0.00820018
0.00797871
0.00773436
0.00746113
0.00715318
0.00680022
0.00639047
0.00591218
0.00534921
0.00468382
0.00389833
0.00297218
0.00188432
0.000616772
-0.000845163
-0.00251133
-0.00438299
-0.00645297
-0.00869615
-0.0110833
-0.0135541
-0.0160636
-0.0185465
-0.0208955
-0.0230258
-0.0248433
-0.0262311
-0.026979
-0.0270253
-0.0262361
0.00950316
0.00939309
0.00930261
0.00922851
0.00916117
0.00909507
0.00902769
0.00895792
0.0088852
0.0088095
0.00873017
0.00864747
0.00856068
0.00847059
0.00837603
0.00827795
0.00817538
0.00806943
0.00795847
0.0078437
0.00772408
0.00759981
0.00747018
0.0073354
0.00719395
0.0070462
0.00689059
0.00672633
0.00655162
0.00636411
0.00616202
0.0059413
0.00569925
0.00543033
0.00512807
0.0047835
0.00438514
0.00392209
0.00337885
0.00273847
0.00198415
0.00109594
5.30666e-05
-0.00116241
-0.00256577
-0.00416819
-0.00597326
-0.00797694
-0.0101573
-0.0124894
-0.0149154
-0.0173962
-0.0198682
-0.0222254
-0.0243819
-0.0262438
-0.0276881
-0.0284931
-0.0285931
-0.0278047
0.00743759
0.00732653
0.00723568
0.00716151
0.0070941
0.00702785
0.00695992
0.00688927
0.00681538
0.00673821
0.00665745
0.00657306
0.00648506
0.00639329
0.00629774
0.00619815
0.0060947
0.0059873
0.00587528
0.00575903
0.00563822
0.0055126
0.00538188
0.00524617
0.00510401
0.0049559
0.00480028
0.00463658
0.00446281
0.00427733
0.00407753
0.00386101
0.00362421
0.00336168
0.00306839
0.00273504
0.00235096
0.00190605
0.00138534
0.000772561
5.16816e-05
-0.000796784
-0.0017934
-0.00295615
-0.00430083
-0.00584001
-0.00757936
-0.0095182
-0.0116374
-0.0139164
-0.0162989
-0.0187529
-0.021213
-0.023577
-0.0257605
-0.0276684
-0.0291718
-0.0300363
-0.0301929
-0.0294065
0.00532405
0.00521018
0.00511639
0.00503944
0.00496912
0.00490004
0.00482934
0.0047563
0.00468006
0.00460105
0.00451819
0.00443223
0.00434201
0.00424883
0.00415105
0.00405011
0.00394471
0.00383631
0.00372299
0.00360623
0.00348495
0.00335935
0.00322889
0.00309382
0.00295266
0.00280598
0.00265234
0.00249115
0.00232082
0.00213925
0.00194505
0.00173448
0.00150555
0.00125296
0.000971165
0.000652032
0.000285111
-0.000138987
-0.000634707
-0.00121773
-0.00190332
-0.00271053
-0.00365975
-0.00476897
-0.00605453
-0.0075303
-0.00920407
-0.0110782
-0.0131363
-0.0153619
-0.0177005
-0.0201268
-0.022577
-0.0249502
-0.027162
-0.0291174
-0.0306809
-0.0316063
-0.0318212
-0.0310382
0.00307138
0.00295768
0.00286528
0.00279035
0.00272262
0.0026561
0.00258804
0.00251711
0.00244307
0.00236553
0.00228453
0.0021996
0.0021112
0.00201874
0.00192268
0.00182234
0.00171849
0.00161067
0.00149861
0.00138253
0.0012625
0.00113806
0.0010093
0.000876266
0.000737649
0.00059413
0.000444285
0.00028775
0.000122716
-5.21716e-05
-0.00023922
-0.000440379
-0.000658738
-0.000899373
-0.0011665
-0.00146867
-0.00181558
-0.00221595
-0.0026838
-0.00323431
-0.00388208
-0.00464585
-0.0055459
-0.00660031
-0.00782596
-0.00923807
-0.0108464
-0.0126566
-0.0146546
-0.0168282
-0.0191242
-0.0215244
-0.023963
-0.0263441
-0.0285851
-0.03059
-0.0322166
-0.033206
-0.0334829
-0.032705
0.000798654
0.000682684
0.000587775
0.000510366
0.000439971
0.000370806
0.000300161
0.000227027
0.000150899
7.18646e-05
-1.07783e-05
-9.66966e-05
-0.00018658
-0.000279524
-0.000376714
-0.000477086
-0.00058139
-0.000688471
-0.000799896
-0.000914346
-0.00103246
-0.00115432
-0.00128
-0.00140937
-0.00154371
-0.0016823
-0.00182638
-0.00197638
-0.00213368
-0.00230015
-0.00247676
-0.00266698
-0.00287217
-0.00309744
-0.00334747
-0.00362974
-0.00395383
-0.00432778
-0.00476525
-0.00528092
-0.00588875
-0.00660718
-0.00745643
-0.00845467
-0.00961928
-0.010967
-0.0125093
-0.014255
-0.0161922
-0.0183132
-0.0205658
-0.0229385
-0.025368
-0.0277592
-0.0300309
-0.0320867
-0.0337779
-0.0348331
-0.0351743
-0.034403
-0.00159945
-0.00171556
-0.00180968
-0.00188582
-0.00195477
-0.0020225
-0.00209201
-0.00216428
-0.00223973
-0.00231829
-0.00240022
-0.00248558
-0.00257416
-0.00266617
-0.00276137
-0.00286019
-0.0029619
-0.00306679
-0.00317524
-0.00328685
-0.00340141
-0.00351949
-0.00364068
-0.00376496
-0.00389351
-0.00402544
-0.00416203
-0.00430342
-0.00445124
-0.00460656
-0.00477139
-0.00494723
-0.00513676
-0.00534471
-0.00557459
-0.00583429
-0.00613275
-0.00647735
-0.00688149
-0.00735941
-0.00792455
-0.00859508
-0.00939136
-0.0103315
-0.0114338
-0.0127159
-0.014192
-0.0158729
-0.0177501
-0.0198189
-0.0220298
-0.0243762
-0.026794
-0.0291941
-0.0314976
-0.0336067
-0.0353658
-0.0364903
-0.0369001
-0.0361379
-0.0040483
-0.00416676
-0.00426322
-0.00434132
-0.00441226
-0.00448175
-0.00455285
-0.00462615
-0.00470245
-0.00478112
-0.00486334
-0.00494817
-0.0050368
-0.00512767
-0.0052225
-0.00531961
-0.00542012
-0.00552236
-0.00562827
-0.00573609
-0.00584652
-0.00595954
-0.00607503
-0.00619276
-0.00631398
-0.00643766
-0.00656493
-0.006696
-0.00683201
-0.00697462
-0.00712442
-0.00728462
-0.00745591
-0.00764331
-0.00785069
-0.00808496
-0.00835499
-0.00866755
-0.00903571
-0.00947338
-0.00999339
-0.0106138
-0.0113549
-0.0122351
-0.0132732
-0.0144886
-0.0158967
-0.0175121
-0.0193275
-0.0213437
-0.0235111
-0.02583
-0.0282385
-0.0306498
-0.0329866
-0.0351505
-0.0369794
-0.0381754
-0.0386565
-0.0379051
-0.00664899
-0.00676646
-0.00686035
-0.00693509
-0.00700185
-0.00706713
-0.0071338
-0.0072032
-0.00727535
-0.00735061
-0.00742878
-0.00751044
-0.00759476
-0.00768249
-0.00777277
-0.00786648
-0.00796219
-0.00806052
-0.0081614
-0.00826456
-0.00836925
-0.00847633
-0.00858483
-0.00869483
-0.00880733
-0.00892119
-0.00903754
-0.00915629
-0.00927892
-0.00940616
-0.0095398
-0.0096809
-0.00983174
-0.00999668
-0.0101786
-0.0103849
-0.0106237
-0.0109012
-0.0112303
-0.0116247
-0.0120965
-0.0126639
-0.0133473
-0.0141651
-0.0151372
-0.0162838
-0.0176234
-0.0191718
-0.0209261
-0.0228888
-0.0250159
-0.0273066
-0.0297028
-0.0321241
-0.0344957
-0.0367173
-0.0386195
-0.0398914
-0.0404486
-0.0397108
-0.00927191
-0.00939127
-0.00948719
-0.00956375
-0.00963243
-0.00969949
-0.00976776
-0.0098382
-0.00991114
-0.00998636
-0.0100645
-0.0101452
-0.010229
-0.0103148
-0.0104037
-0.0104945
-0.0105875
-0.0106816
-0.010778
-0.0108754
-0.0109736
-0.0110732
-0.0111734
-0.0112741
-0.0113762
-0.0114787
-0.0115823
-0.011687
-0.011794
-0.0119045
-0.0120187
-0.0121398
-0.0122675
-0.012407
-0.0125612
-0.0127366
-0.0129413
-0.0131811
-0.0134684
-0.0138166
-0.0142376
-0.0147493
-0.0153723
-0.0161253
-0.0170291
-0.018105
-0.0193739
-0.0208535
-0.0225449
-0.0244531
-0.0265372
-0.0287992
-0.0311856
-0.0336191
-0.036027
-0.038308
-0.0402856
-0.0416359
-0.0422721
-0.0415497
-0.0120318
-0.0121507
-0.012245
-0.0123192
-0.0123853
-0.0124496
-0.0125153
-0.0125834
-0.0126541
-0.0127272
-0.0128027
-0.0128808
-0.012961
-0.0130435
-0.0131276
-0.0132141
-0.0133013
-0.0133898
-0.0134796
-0.0135701
-0.0136604
-0.0137516
-0.0138421
-0.0139322
-0.0140227
-0.0141121
-0.0142014
-0.0142903
-0.0143801
-0.0144713
-0.0145653
-0.0146627
-0.0147656
-0.0148776
-0.0150013
-0.0151432
-0.015311
-0.0155098
-0.0157521
-0.016051
-0.0164179
-0.0168707
-0.0174303
-0.0181157
-0.0189486
-0.0199516
-0.0211482
-0.0225571
-0.0241854
-0.0260376
-0.0280823
-0.0303134
-0.0326867
-0.0351317
-0.0375777
-0.0399211
-0.0419783
-0.0434117
-0.0441323
-0.0434284
-0.0148491
-0.01497
-0.0150662
-0.0151417
-0.0152089
-0.015274
-0.0153403
-0.0154081
-0.0154782
-0.0155496
-0.0156237
-0.0156991
-0.0157772
-0.015856
-0.0159371
-0.0160188
-0.0161017
-0.016184
-0.0162675
-0.0163501
-0.016432
-0.0165134
-0.0165932
-0.0166714
-0.0167488
-0.0168238
-0.0168972
-0.0169688
-0.0170393
-0.01711
-0.0171805
-0.0172537
-0.0173288
-0.0174109
-0.0175015
-0.0176071
-0.0177352
-0.0178901
-0.0180844
-0.0183309
-0.0186406
-0.0190316
-0.0195246
-0.0201397
-0.0208987
-0.0218264
-0.0229476
-0.0242841
-0.0258463
-0.0276414
-0.0296427
-0.0318436
-0.0342062
-0.0366647
-0.0391503
-0.0415582
-0.0436973
-0.0452165
-0.0460247
-0.0453412
-0.0178313
-0.0179504
-0.0180428
-0.0181135
-0.0181749
-0.0182341
-0.018294
-0.018356
-0.0184198
-0.0184858
-0.0185534
-0.0186236
-0.0186947
-0.0187679
-0.0188417
-0.0189174
-0.0189923
-0.0190676
-0.0191425
-0.0192169
-0.019289
-0.0193602
-0.0194283
-0.0194936
-0.0195568
-0.019616
-0.0196722
-0.0197247
-0.0197746
-0.0198221
-0.0198686
-0.0199139
-0.0199599
-0.0200095
-0.0200646
-0.0201312
-0.0202164
-0.0203243
-0.0204672
-0.020658
-0.0209072
-0.0212327
-0.0216562
-0.0221974
-0.0228798
-0.0237289
-0.024773
-0.0260341
-0.0275299
-0.0292653
-0.0312269
-0.0333931
-0.0357421
-0.0382142
-0.0407417
-0.0432173
-0.0454429
-0.0470533
-0.0479547
-0.047295
-0.0208346
-0.0209552
-0.0210492
-0.0211211
-0.0211837
-0.0212438
-0.0213044
-0.0213663
-0.0214296
-0.0214941
-0.0215602
-0.0216275
-0.0216962
-0.0217652
-0.0218353
-0.0219053
-0.0219748
-0.0220427
-0.0221098
-0.0221747
-0.0222363
-0.0222958
-0.0223509
-0.022402
-0.0224494
-0.0224914
-0.0225287
-0.0225606
-0.0225878
-0.0226112
-0.0226302
-0.0226475
-0.022661
-0.022676
-0.0226929
-0.0227176
-0.0227571
-0.0228149
-0.0229034
-0.0230352
-0.0232206
-0.0234775
-0.0238277
-0.024292
-0.0248943
-0.0256622
-0.0266252
-0.0278088
-0.0292343
-0.0309085
-0.0328251
-0.0349596
-0.0372971
-0.0397843
-0.0423551
-0.0449006
-0.0472152
-0.0489197
-0.0499176
-0.0492835
-0.0239843
-0.0241037
-0.0241951
-0.0242636
-0.0243223
-0.0243784
-0.0244351
-0.0244934
-0.024553
-0.0246139
-0.0246757
-0.0247387
-0.0248018
-0.0248656
-0.0249285
-0.0249919
-0.0250528
-0.0251124
-0.0251697
-0.0252244
-0.0252744
-0.0253214
-0.0253624
-0.0253981
-0.0254286
-0.025452
-0.0254689
-0.0254785
-0.0254818
-0.0254786
-0.0254698
-0.0254548
-0.025435
-0.0254126
-0.0253887
-0.0253687
-0.0253595
-0.025364
-0.0253947
-0.0254642
-0.0255822
-0.0257668
-0.0260403
-0.026424
-0.0269428
-0.0276258
-0.0285054
-0.029608
-0.0309619
-0.0325721
-0.0344464
-0.0365432
-0.0388671
-0.0413701
-0.0439867
-0.0466056
-0.0490143
-0.0508185
-0.051919
-0.0513143
-0.0271948
-0.0273159
-0.0274087
-0.0274779
-0.0275372
-0.0275933
-0.0276496
-0.0277066
-0.0277645
-0.0278224
-0.0278812
-0.02794
-0.0279993
-0.0280574
-0.0281155
-0.0281718
-0.028226
-0.0282766
-0.0283246
-0.0283681
-0.0284059
-0.0284392
-0.0284652
-0.0284841
-0.0284964
-0.0284999
-0.028495
-0.0284811
-0.0284583
-0.0284275
-0.0283874
-0.0283402
-0.0282832
-0.0282214
-0.028154
-0.0280865
-0.0280258
-0.0279741
-0.027944
-0.0279479
-0.027995
-0.0281037
-0.0282969
-0.0285962
-0.0290278
-0.0296224
-0.0304146
-0.0314331
-0.0327115
-0.0342549
-0.0360815
-0.0381445
-0.0404566
-0.0429766
-0.0456405
-0.0483349
-0.0508406
-0.0527476
-0.053954
-0.0533804
-0.0305862
-0.0307047
-0.0307925
-0.0308556
-0.0309075
-0.0309561
-0.0310044
-0.031054
-0.0311039
-0.0311547
-0.0312053
-0.031257
-0.0313073
-0.031358
-0.0314064
-0.0314544
-0.031498
-0.0315389
-0.0315753
-0.0316073
-0.0316317
-0.0316507
-0.0316606
-0.0316619
-0.0316549
-0.0316372
-0.0316093
-0.03157
-0.0315201
-0.0314591
-0.0313872
-0.0313035
-0.0312085
-0.0311045
-0.0309911
-0.0308736
-0.0307584
-0.0306475
-0.0305533
-0.0304879
-0.0304605
-0.0304894
-0.0305982
-0.0308093
-0.0311498
-0.031652
-0.0323534
-0.0332843
-0.0344849
-0.0359584
-0.0377383
-0.039761
-0.0420598
-0.044598
-0.0473117
-0.0500859
-0.0526939
-0.0547098
-0.0560283
-0.0554899
-0.0339983
-0.0341181
-0.0342072
-0.0342712
-0.034324
-0.0343732
-0.0344216
-0.0344705
-0.0345191
-0.0345674
-0.0346153
-0.0346628
-0.0347092
-0.0347538
-0.0347965
-0.0348365
-0.0348721
-0.0349025
-0.0349279
-0.0349468
-0.0349568
-0.0349598
-0.0349522
-0.0349345
-0.0349067
-0.0348663
-0.0348138
-0.0347479
-0.0346688
-0.0345766
-0.0344695
-0.0343495
-0.0342129
-0.0340645
-0.0339028
-0.0337325
-0.0335602
-0.033387
-0.0332254
-0.0330874
-0.0329816
-0.0329269
-0.0329472
-0.033066
-0.0333111
-0.0337173
-0.0343234
-0.0351633
-0.0362812
-0.0376822
-0.0394094
-0.0413967
-0.0436839
-0.0462408
-0.0490055
-0.0518618
-0.0545749
-0.0567028
-0.058137
-0.0576353
-0.0375766
-0.0376949
-0.0377809
-0.0378406
-0.0378886
-0.0379328
-0.0379763
-0.0380203
-0.0380639
-0.038107
-0.0381489
-0.0381901
-0.0382286
-0.0382653
-0.038298
-0.0383282
-0.0383518
-0.0383703
-0.0383819
-0.0383866
-0.0383807
-0.0383669
-0.0383407
-0.0383028
-0.0382532
-0.0381891
-0.0381109
-0.0380168
-0.0379075
-0.0377816
-0.0376392
-0.0374788
-0.0372999
-0.037105
-0.0368921
-0.0366664
-0.0364339
-0.0361951
-0.0359624
-0.0357479
-0.0355598
-0.0354171
-0.0353448
-0.0353667
-0.0355121
-0.0358176
-0.0363247
-0.0370695
-0.0381019
-0.0394271
-0.0411014
-0.0430468
-0.0453208
-0.0478978
-0.0507165
-0.0536593
-0.0564833
-0.0587297
-0.0602858
-0.0598254
-0.0412368
-0.0413568
-0.0414438
-0.0415033
-0.0415505
-0.0415928
-0.0416339
-0.041674
-0.0417132
-0.0417502
-0.0417859
-0.0418192
-0.0418503
-0.0418774
-0.0419013
-0.0419204
-0.0419332
-0.0419386
-0.0419369
-0.0419263
-0.0419042
-0.0418726
-0.0418272
-0.0417684
-0.0416963
-0.0416077
-0.0415028
-0.0413798
-0.0412384
-0.0410786
-0.0408976
-0.0406971
-0.0404727
-0.0402287
-0.0399625
-0.0396784
-0.0393826
-0.0390749
-0.0387677
-0.0384728
-0.0381982
-0.0379633
-0.0377938
-0.0377145
-0.0377557
-0.0379562
-0.0383593
-0.0390053
-0.039947
-0.0411934
-0.0428093
-0.0447176
-0.0469797
-0.0495769
-0.0524506
-0.0554823
-0.0584201
-0.0607882
-0.0624696
-0.0620522
-0.0451494
-0.045261
-0.0453349
-0.0453788
-0.0454081
-0.0454328
-0.0454556
-0.0454793
-0.0455014
-0.0455239
-0.0455439
-0.0455644
-0.0455807
-0.045596
-0.0456057
-0.0456131
-0.0456117
-0.0456047
-0.0455885
-0.0455637
-0.0455253
-0.0454768
-0.0454124
-0.045333
-0.0452383
-0.0451247
-0.0449927
-0.0448396
-0.0446659
-0.0444698
-0.0442504
-0.044006
-0.0437352
-0.0434399
-0.0431171
-0.0427717
-0.0424094
-0.042029
-0.0416432
-0.0412638
-0.0408982
-0.0405664
-0.0402949
-0.0401093
-0.0400414
-0.0401319
-0.0404269
-0.0409694
-0.0418173
-0.0429813
-0.0445377
-0.0464022
-0.0486507
-0.0512694
-0.0542015
-0.057327
-0.0603849
-0.0628812
-0.0646946
-0.0643254
-0.048759
-0.0488807
-0.0489702
-0.049032
-0.0490822
-0.0491269
-0.04917
-0.0492106
-0.0492487
-0.0492828
-0.0493135
-0.0493397
-0.0493613
-0.049377
-0.0493868
-0.0493898
-0.0493833
-0.0493671
-0.0493406
-0.0493027
-0.0492495
-0.0491841
-0.0491008
-0.0490006
-0.0488831
-0.0487443
-0.0485844
-0.0484008
-0.0481931
-0.0479603
-0.0476992
-0.0474112
-0.0470904
-0.0467412
-0.0463595
-0.0459496
-0.0455173
-0.0450607
-0.0445924
-0.0441242
-0.0436631
-0.0432297
-0.0428515
-0.0425549
-0.0423729
-0.0423486
-0.0425303
-0.0429649
-0.0437139
-0.0447923
-0.0462842
-0.0481092
-0.0503449
-0.052985
-0.0559765
-0.0591979
-0.0623788
-0.0650065
-0.0669555
-0.0666362
-0.0529771
-0.0530857
-0.0531538
-0.0531901
-0.0532109
-0.0532271
-0.053241
-0.0532559
-0.0532686
-0.0532814
-0.0532908
-0.0533001
-0.0533038
-0.0533055
-0.0532997
-0.0532903
-0.0532696
-0.0532412
-0.0532007
-0.0531491
-0.0530803
-0.0529983
-0.0528964
-0.0527754
-0.0526349
-0.0524704
-0.0522821
-0.0520669
-0.0518245
-0.0515526
-0.0512499
-0.0509139
-0.0505425
-0.050137
-0.0496931
-0.0492155
-0.0487095
-0.0481725
-0.0476173
-0.0470556
-0.0464942
-0.0459541
-0.0454637
-0.0450505
-0.0447491
-0.0446046
-0.0446683
-0.04499
-0.0456366
-0.0466253
-0.0480512
-0.04983
-0.0520509
-0.0547136
-0.0577682
-0.061091
-0.0644015
-0.0671673
-0.0692584
-0.0689951
-0.0568052
-0.0569243
-0.0570088
-0.0570642
-0.0571068
-0.0571437
-0.0571783
-0.0572101
-0.0572386
-0.0572625
-0.0572819
-0.0572962
-0.0573046
-0.0573063
-0.0573004
-0.0572864
-0.0572606
-0.0572231
-0.0571728
-0.0571082
-0.0570249
-0.056926
-0.0568052
-0.0566629
-0.0564988
-0.0563079
-0.0560901
-0.0558423
-0.0555633
-0.0552519
-0.0549039
-0.0545205
-0.0540945
-0.05363
-0.0531212
-0.0525724
-0.0519891
-0.0513678
-0.0507215
-0.0500618
-0.0493951
-0.0487433
-0.0481356
-0.0476007
-0.0471744
-0.0469045
-0.0468446
-0.0470488
-0.0475877
-0.0484832
-0.0498385
-0.0515744
-0.0537812
-0.0564662
-0.0595849
-0.0630112
-0.0664541
-0.069361
-0.0715979
-0.0713928
-0.0612805
-0.0613847
-0.0614453
-0.0614727
-0.0614833
-0.0614893
-0.0614927
-0.0614972
-0.0614989
-0.0615005
-0.0614978
-0.0614945
-0.0614845
-0.0614715
-0.0614495
-0.0614225
-0.061382
-0.0613316
-0.0612669
-0.061188
-0.0610886
-0.0609724
-0.060832
-0.0606679
-0.0604794
-0.0602611
-0.060013
-0.059731
-0.0594147
-0.059061
-0.0586679
-0.0582321
-0.0577508
-0.0572244
-0.0566473
-0.0560238
-0.0553592
-0.0546493
-0.053907
-0.0531442
-0.052367
-0.0515977
-0.050867
-0.0502044
-0.0496474
-0.049246
-0.0490573
-0.0491385
-0.0495657
-0.0503637
-0.0516465
-0.0533325
-0.0555225
-0.0582314
-0.0614185
-0.0649543
-0.0685363
-0.0715913
-0.0739806
-0.07384
-0.0653152
-0.065431
-0.0655101
-0.0655596
-0.0655955
-0.0656261
-0.065654
-0.0656792
-0.0657003
-0.065716
-0.0657263
-0.0657303
-0.065727
-0.0657154
-0.0656946
-0.0656638
-0.0656187
-0.0655594
-0.0654845
-0.0653922
-0.0652775
-0.0651433
-0.0649828
-0.0647958
-0.0645819
-0.0643351
-0.0640552
-0.0637381
-0.0633821
-0.0629854
-0.062543
-0.0620555
-0.0615144
-0.0609232
-0.0602747
-0.0595729
-0.0588231
-0.0580202
-0.0571775
-0.0563068
-0.0554139
-0.0545219
-0.0536626
-0.0528666
-0.0521731
-0.0516347
-0.0513113
-0.0512644
-0.0515745
-0.0522712
-0.0534766
-0.0551158
-0.0572894
-0.0600219
-0.063278
-0.0669255
-0.0706494
-0.0738554
-0.0764005
-0.0763263
-0.0699947
-0.0701011
-0.0701633
-0.0701926
-0.0702048
-0.0702122
-0.070216
-0.0702197
-0.0702188
-0.0702157
-0.070206
-0.0701937
-0.0701723
-0.0701457
-0.070108
-0.070063
-0.070002
-0.0699283
-0.0698377
-0.0697295
-0.0695972
-0.0694441
-0.0692622
-0.0690514
-0.0688112
-0.0685347
-0.0682218
-0.0678675
-0.0674709
-0.0670281
-0.0665364
-0.0659917
-0.0653899
-0.0647309
-0.0640073
-0.0632233
-0.062384
-0.0614835
-0.0605352
-0.0595511
-0.0585367
-0.0575158
-0.0565216
-0.0555858
-0.0547494
-0.0540675
-0.0536036
-0.0534227
-0.0536113
-0.0542018
-0.0553279
-0.0569127
-0.0590671
-0.0618252
-0.0651551
-0.0689206
-0.0727932
-0.076157
-0.0788644
-0.0788629
-0.0745765
-0.074683
-0.0747448
-0.0747736
-0.0747842
-0.0747894
-0.07479
-0.0747895
-0.074784
-0.0747754
-0.074761
-0.0747423
-0.074716
-0.0746825
-0.074639
-0.0745854
-0.0745159
-0.0744303
-0.0743271
-0.0742033
-0.0740537
-0.0738806
-0.0736766
-0.0734407
-0.0731727
-0.0728651
-0.0725175
-0.0721248
-0.0716849
-0.0711952
-0.0706495
-0.0700481
-0.0693808
-0.0686507
-0.0678485
-0.0669783
-0.0660453
-0.0650425
-0.0639838
-0.0628812
-0.0617399
-0.0605845
-0.0594495
-0.0583679
-0.0573824
-0.0565509
-0.0559403
-0.0556199
-0.0556813
-0.0561616
-0.0572031
-0.0587362
-0.0608717
-0.063655
-0.0670594
-0.070945
-0.0749688
-0.0784933
-0.0813662
-0.0814391
-0.0793149
-0.079422
-0.0794839
-0.0795114
-0.0795215
-0.079526
-0.0795263
-0.079525
-0.0795179
-0.0795065
-0.0794868
-0.0794625
-0.0794272
-0.0793844
-0.0793286
-0.0792631
-0.0791792
-0.0790794
-0.0789602
-0.0788196
-0.078651
-0.0784574
-0.0782302
-0.0779684
-0.0776716
-0.0773315
-0.0769478
-0.0765145
-0.0760301
-0.0754899
-0.0748901
-0.0742259
-0.0734918
-0.0726869
-0.0718021
-0.0708415
-0.0698101
-0.0687
-0.0675254
-0.0662985
-0.065024
-0.0637276
-0.0624451
-0.0612107
-0.0600692
-0.0590811
-0.0583174
-0.057851
-0.0577806
-0.0581457
-0.0591004
-0.060573
-0.0626868
-0.0654977
-0.0689822
-0.0729945
-0.0771766
-0.0808683
-0.0839131
-0.0840661
-0.0841377
-0.0842461
-0.0843083
-0.084336
-0.0843455
-0.0843494
-0.0843487
-0.0843461
-0.084338
-0.084325
-0.084305
-0.0842786
-0.0842428
-0.0841969
-0.0841391
-0.0840678
-0.0839777
-0.0838676
-0.0837367
-0.0835807
-0.0833945
-0.08318
-0.0829292
-0.0826404
-0.0823136
-0.0819396