/*--------------------------------*- C++ -*----------------------------------*\
  =========                 |
  \\      /  F ield         | OpenFOAM: The Open Source CFD Toolbox
   \\    /   O peration     | Website:  https://openfoam.org
    \\  /    A nd           | Version:  6.0
     \\/     M anipulation  |
\*---------------------------------------------------------------------------*/
FoamFile
{
    version     2.0;
    format      ascii;
    class       surfaceScalarField;
    location    "3";
    object      phi;
}
// * * * * * * * * * * * * * * * * * * * * * * * * * * * * * * * * * * * * * //

dimensions      [0 3 -1 0 0 0 0];

internalField   nonuniform List<scalar> 
123526
(
2.70979e-05
2.33268e-05
-2.67097e-05
2.75203e-05
2.52182e-05
2.79764e-05
2.72626e-05
2.84704e-05
2.94722e-05
2.90039e-05
3.18605e-05
2.95816e-05
3.44418e-05
3.02054e-05
3.72315e-05
3.08811e-05
4.02463e-05
3.16116e-05
4.35035e-05
3.24033e-05
4.70236e-05
3.32578e-05
5.08281e-05
3.41832e-05
5.49388e-05
3.51819e-05
5.93801e-05
3.62659e-05
6.41757e-05
3.74391e-05
6.93551e-05
3.87098e-05
7.49524e-05
4.0082e-05
8.09972e-05
4.15743e-05
8.75181e-05
4.31899e-05
9.45606e-05
4.49393e-05
0.000102166
4.6837e-05
0.000110366
4.88977e-05
0.000119214
5.11259e-05
0.000128763
5.35506e-05
0.000139046
5.61754e-05
0.000150139
5.90233e-05
0.000162085
6.21128e-05
0.000174946
6.54598e-05
0.00018879
6.9092e-05
0.00020367
7.30242e-05
0.000219666
7.72872e-05
0.000236827
8.19001e-05
0.000255235
8.6893e-05
0.000274942
9.22922e-05
0.000296012
9.8124e-05
0.000318501
0.000104424
0.000342442
0.000111215
0.00036788
0.000118528
0.000394814
0.000126394
0.000423232
0.000134835
0.00045309
0.000143875
0.000484293
0.000153538
0.000516693
0.000163837
0.000550075
0.000174782
0.00058413
0.000186373
0.000618433
0.000198603
0.000652418
0.000211449
0.000685335
0.000224874
0.000716207
0.000238816
0.000743774
0.000253186
0.000766429
0.000267853
0.000782143
0.000282645
0.000788384
0.00029732
0.000782052
0.00031157
0.000759354
0.000324994
0.000715782
0.000337088
0.000646042
0.000347222
0.000544095
0.00035461
0.000403184
0.00035881
0.000215712
-1.25803e-05
0.000360917
2.73731e-05
2.29395e-05
-2.69888e-05
2.77897e-05
2.48004e-05
2.8239e-05
2.68117e-05
2.87249e-05
2.89855e-05
2.92492e-05
3.13349e-05
2.98165e-05
3.3874e-05
3.04288e-05
3.66179e-05
3.10918e-05
3.95831e-05
3.18086e-05
4.27854e-05
3.25855e-05
4.62466e-05
3.34243e-05
4.9988e-05
3.43329e-05
5.40303e-05
3.5314e-05
5.83974e-05
3.63793e-05
6.31105e-05
3.75327e-05
6.81998e-05
3.87825e-05
7.37027e-05
4.01327e-05
7.9645e-05
4.16015e-05
8.60491e-05
4.31924e-05
9.29677e-05
4.49154e-05
0.000100442
4.67849e-05
0.000108494
4.88152e-05
0.000117183
5.10107e-05
0.000126565
5.33998e-05
0.000136655
5.59859e-05
0.000147551
5.87913e-05
0.000159278
6.18342e-05
0.000171901
6.51295e-05
0.000185493
6.87048e-05
0.000200093
7.25733e-05
0.000215795
7.67659e-05
0.000232632
8.12999e-05
0.000250699
8.62046e-05
0.000270034
9.15054e-05
0.000290708
9.72271e-05
0.000312776
0.000103405
0.000336261
0.00011006
0.000361222
0.000117222
0.000387649
0.000124921
0.00041553
0.000133179
0.00044483
0.00014202
0.000475451
0.000151465
0.000507246
0.000161531
0.00054001
0.000172225
0.000573436
0.000183551
0.000607109
0.000195502
0.00064047
0.000208059
0.000672783
0.000221185
0.000703087
0.000234822
0.000730145
0.000248884
0.000752379
0.000263242
0.000767797
0.00027773
0.000773917
0.000292108
0.000767686
0.000306075
0.000745391
0.000319234
0.000702615
0.000331092
0.000634174
0.000341027
0.000534151
0.000348278
0.000395922
0.000352231
0.000211773
-1.37334e-05
0.000353376
2.73278e-05
2.25586e-05
-2.69502e-05
2.77376e-05
2.43894e-05
2.81801e-05
2.63677e-05
2.86589e-05
2.85058e-05
2.9176e-05
3.08165e-05
2.97357e-05
3.33137e-05
3.03402e-05
3.60123e-05
3.09947e-05
3.89281e-05
3.17025e-05
4.20763e-05
3.24695e-05
4.54792e-05
3.32978e-05
4.91582e-05
3.41948e-05
5.3133e-05
3.51635e-05
5.7427e-05
3.6215e-05
6.20587e-05
3.73536e-05
6.70593e-05
3.8587e-05
7.2469e-05
3.99196e-05
7.83105e-05
4.13688e-05
8.45996e-05
4.29383e-05
9.13963e-05
4.46379e-05
9.87423e-05
4.64817e-05
0.000106649
4.84835e-05
0.00011518
5.06478e-05
0.000124399
5.30023e-05
0.0001343
5.55503e-05
0.000145001
5.83133e-05
0.000156514
6.13093e-05
0.000168903
6.45525e-05
0.000182248
6.80698e-05
0.000196574
7.18739e-05
0.000211989
7.59947e-05
0.000228509
8.04487e-05
0.000246242
8.52649e-05
0.000265215
9.04668e-05
0.000285502
9.60792e-05
0.000307159
0.000102136
0.000330201
0.000108657
0.000354698
0.000115672
0.000380631
0.000123211
0.00040799
0.000131293
0.000436746
0.000139945
0.000466799
0.000149186
0.000498004
0.000159034
0.000530162
0.000169497
0.000562973
0.00018058
0.000596027
0.000192277
0.000628774
0.000204569
0.000660491
0.000217423
0.000690235
0.00023078
0.000716788
0.000244557
0.000738602
0.000258629
0.000753723
0.000272832
0.000759715
0.000286929
0.000753588
0.000300628
0.000731704
0.000313536
0.000689725
0.000325169
0.00062257
0.00033492
0.000524447
0.000342054
0.000388849
0.000345898
0.000208025
-1.41157e-05
0.00034646
2.70891e-05
2.21851e-05
-2.67175e-05
2.74917e-05
2.39859e-05
2.79268e-05
2.59316e-05
2.83978e-05
2.80342e-05
2.89067e-05
3.03067e-05
2.94576e-05
3.27625e-05
3.00529e-05
3.54161e-05
3.06975e-05
3.82833e-05
3.1395e-05
4.1378e-05
3.2151e-05
4.47233e-05
3.29676e-05
4.83406e-05
3.38521e-05
5.22487e-05
3.48073e-05
5.64706e-05
3.58443e-05
6.10221e-05
3.6967e-05
6.59351e-05
3.81833e-05
7.1253e-05
3.9497e-05
7.69952e-05
4.09256e-05
8.31711e-05
4.24725e-05
8.98478e-05
4.41474e-05
9.70673e-05
4.59641e-05
0.00010483
4.7936e-05
0.000113208
5.00676e-05
0.000122266
5.2386e-05
0.00013198
5.48942e-05
0.000142491
5.76135e-05
0.000153793
6.05613e-05
0.000165954
6.37513e-05
0.000179057
6.721e-05
0.000193113
7.09493e-05
0.000208248
7.49987e-05
0.000224458
7.93743e-05
0.000241864
8.41034e-05
0.000260482
8.92103e-05
0.000280392
9.4718e-05
0.000301648
0.00010066
0.000324256
0.000107055
0.0003483
0.000113933
0.00037375
0.000121323
0.000400598
0.000129244
0.000428822
0.000137721
0.00045832
0.000146776
0.000488947
0.000156425
0.000520512
0.000166677
0.00055272
0.000177537
0.000585166
0.000189
0.000617311
0.000201048
0.000648443
0.000213649
0.000677636
0.000226745
0.000703694
0.000240255
0.000725098
0.000254056
0.000739928
0.000267988
0.000745799
0.000281817
0.00073977
0.000295258
0.000718276
0.000307925
0.000677067
0.000319343
0.000611167
0.000328918
0.000514895
0.00033594
0.000381859
0.0003397
0.000204331
-1.42328e-05
0.000339906
2.67517e-05
2.18179e-05
-2.63881e-05
2.7147e-05
2.3589e-05
2.75747e-05
2.55024e-05
2.80378e-05
2.75701e-05
2.85385e-05
2.98047e-05
2.90807e-05
3.22196e-05
2.96669e-05
3.48289e-05
3.03017e-05
3.7648e-05
3.09888e-05
4.06898e-05
3.17333e-05
4.39783e-05
3.25379e-05
4.75348e-05
3.3409e-05
5.13771e-05
3.43503e-05
5.55279e-05
3.53717e-05
6.00004e-05
3.6478e-05
6.48272e-05
3.76761e-05
7.00547e-05
3.89705e-05
7.56992e-05
4.03777e-05
8.17638e-05
4.19015e-05
8.83224e-05
4.35509e-05
9.54177e-05
4.53398e-05
0.00010304
4.72812e-05
0.000111266
4.93795e-05
0.000120166
5.1661e-05
0.000129698
5.41289e-05
0.000140022
5.68039e-05
0.000151117
5.97029e-05
0.000163053
6.28396e-05
0.000175919
6.62395e-05
0.000189712
6.99144e-05
0.000204572
7.3893e-05
0.000220477
7.81908e-05
0.000237564
8.28353e-05
0.000255835
8.7849e-05
0.000275375
9.32552e-05
0.000296239
9.9086e-05
0.000318423
0.000105361
0.000342023
0.000112108
0.000367001
0.000119355
0.00039335
0.000127123
0.000421053
0.000135435
0.000450007
0.000144314
0.000480067
0.000153775
0.000511051
0.000163828
0.000542667
0.000174478
0.000574516
0.00018572
0.000606069
0.000197537
0.000636625
0.000209897
0.000665275
0.000222745
0.000690844
0.000236
0.000711841
0.000249541
0.000726382
0.000263212
0.000732127
0.000276783
0.000726197
0.000289974
0.000705097
0.000302408
0.000664652
0.000313617
0.000599988
0.000323022
0.000505536
0.00032993
0.000375008
0.000333612
0.000200737
-1.40561e-05
0.000333593
2.63565e-05
2.14573e-05
-2.59975e-05
2.67456e-05
2.31992e-05
2.71664e-05
2.50807e-05
2.76219e-05
2.7114e-05
2.81145e-05
2.93114e-05
2.86478e-05
3.16859e-05
2.92244e-05
3.42516e-05
2.98489e-05
3.70234e-05
3.05248e-05
4.00131e-05
3.12576e-05
4.32456e-05
3.20493e-05
4.67423e-05
3.29068e-05
5.05199e-05
3.38332e-05
5.46006e-05
3.48386e-05
5.89953e-05
3.59275e-05
6.37372e-05
3.71068e-05
6.88758e-05
3.83807e-05
7.44241e-05
3.97655e-05
8.03791e-05
4.1265e-05
8.68217e-05
4.2888e-05
9.37947e-05
4.46481e-05
0.000101279
4.6558e-05
0.000109356
4.8622e-05
0.000118101
5.08659e-05
0.000127453
5.32929e-05
0.000137593
5.59229e-05
0.000148486
5.87729e-05
0.000160202
6.18559e-05
0.000172834
6.51971e-05
0.00018637
6.88078e-05
0.000200959
7.27162e-05
0.000216567
7.69376e-05
0.000233341
8.14982e-05
0.000251272
8.64211e-05
0.00027045
9.17283e-05
0.00029093
9.74514e-05
0.000312698
0.000103609
0.000335864
0.00011023
0.000360379
0.000117341
0.000386238
0.000124962
0.000413431
0.000133117
0.00044185
0.000141828
0.000471355
0.000151109
0.000501769
0.000160973
0.000532803
0.000171422
0.000564066
0.000182453
0.000595037
0.00019405
0.000625028
0.00020618
0.000653146
0.00021879
0.000678236
0.000231798
0.000698836
0.00024509
0.000713096
0.000258508
0.000718723
0.00027183
0.000712886
0.000284778
0.00069216
0.000296985
0.000652458
0.000307991
0.000589001
0.00031723
0.000496327
0.000324022
0.000368257
0.00032763
0.000197204
-1.37767e-05
0.000327459
2.59307e-05
2.11025e-05
-2.55787e-05
2.63129e-05
2.28157e-05
2.67266e-05
2.4666e-05
2.71743e-05
2.66654e-05
2.76587e-05
2.88261e-05
2.81831e-05
3.1161e-05
2.87502e-05
3.36837e-05
2.93643e-05
3.6409e-05
3.00291e-05
3.93475e-05
3.07495e-05
4.25249e-05
3.15281e-05
4.59627e-05
3.2371e-05
4.96766e-05
3.32821e-05
5.36884e-05
3.42705e-05
5.80065e-05
3.53415e-05
6.2665e-05
3.65009e-05
6.77162e-05
3.77538e-05
7.31699e-05
3.91155e-05
7.90173e-05
4.05902e-05
8.53458e-05
4.2186e-05
9.21988e-05
4.39166e-05
9.95468e-05
4.57943e-05
0.000107478
4.78234e-05
0.000116071
5.00292e-05
0.000125247
5.24146e-05
0.000135207
5.49994e-05
0.0001459
5.78001e-05
0.0001574
6.08293e-05
0.000169804
6.41118e-05
0.000183086
6.76587e-05
0.000197411
7.14975e-05
0.000212727
7.5643e-05
0.000229193
8.01217e-05
0.000246791
8.49551e-05
0.000265614
9.01655e-05
0.000285717
9.57836e-05
0.000307078
0.000101828
0.000329818
0.000108326
0.00035388
0.000115305
0.000379258
0.000122785
0.00040595
0.000130788
0.000433847
0.000139337
0.000462806
0.000148447
0.00049266
0.000158127
0.000523123
0.000168384
0.00055381
0.000179213
0.000584208
0.000190597
0.000613644
0.000202505
0.000641236
0.000214885
0.000665855
0.000227656
0.000686061
0.000240706
0.000700042
0.000253879
0.000705546
0.000266958
0.000699803
0.00027967
0.000679456
0.000291656
0.000640488
0.000302465
0.000578217
0.000311541
0.00048729
0.000318217
0.000361627
0.000321752
0.000193738
-1.33773e-05
0.000321476
2.54946e-05
2.07545e-05
-2.51471e-05
2.58704e-05
2.24395e-05
2.62769e-05
2.42591e-05
2.67168e-05
2.62252e-05
2.71925e-05
2.835e-05
2.77074e-05
3.06459e-05
2.82643e-05
3.31264e-05
2.88673e-05
3.58059e-05
2.95202e-05
3.86941e-05
3.02278e-05
4.18174e-05
3.09926e-05
4.51973e-05
3.1821e-05
4.88486e-05
3.27159e-05
5.27927e-05
3.36873e-05
5.70355e-05
3.47394e-05
6.16119e-05
3.58788e-05
6.65772e-05
3.71097e-05
7.19379e-05
3.84478e-05
7.76794e-05
3.98967e-05
8.38958e-05
4.14647e-05
9.06308e-05
4.31652e-05
9.78452e-05
4.50101e-05
0.000105632
4.70038e-05
0.000114076
4.9171e-05
0.00012308
5.15146e-05
0.000132862
5.40539e-05
0.00014336
5.68051e-05
0.000154648
5.97806e-05
0.000166828
6.30047e-05
0.000179861
6.64881e-05
0.000193927
7.02581e-05
0.000208956
7.4329e-05
0.000225121
7.87263e-05
0.000242392
8.34721e-05
0.000260866
8.85875e-05
0.0002806
9.41029e-05
0.000301561
0.000100037
0.000323883
0.000106416
0.0003475
0.000113266
0.000372407
0.000120608
0.000398608
0.000128465
0.00042599
0.000136857
0.000454413
0.0001458
0.000483716
0.000155305
0.000513618
0.000165375
0.000543739
0.000176007
0.000573576
0.000187186
0.000602465
0.000198879
0.000629544
0.000211036
0.0006537
0.000223577
0.000673522
0.000236391
0.000687232
0.000249326
0.000692622
0.000262169
0.00068697
0.000274651
0.000666982
0.00028642
0.00062873
0.000297036
0.00056762
0.000305952
0.000478402
0.000312512
0.000355105
0.000315977
0.000190343
-1.29211e-05
0.000315625
2.50538e-05
2.04123e-05
-2.47148e-05
2.54221e-05
2.20696e-05
2.58209e-05
2.38591e-05
2.62525e-05
2.57925e-05
2.67196e-05
2.7882e-05
2.72252e-05
3.01397e-05
2.77722e-05
3.25787e-05
2.83644e-05
3.52132e-05
2.90058e-05
3.8052e-05
2.97006e-05
4.11222e-05
3.04518e-05
4.44452e-05
3.12649e-05
4.8035e-05
3.21441e-05
5.19126e-05
3.30977e-05
5.60815e-05
3.41312e-05
6.05774e-05
3.52499e-05
6.54582e-05
3.64592e-05
7.07276e-05
3.77732e-05
7.63653e-05
3.91964e-05
8.24717e-05
4.07364e-05
8.90908e-05
4.24067e-05
9.6174e-05
4.42187e-05
0.00010382
4.61768e-05
0.000112117
4.83052e-05
0.000120951
5.06069e-05
0.000130559
5.31008e-05
0.000140865
5.58026e-05
0.000151945
5.87246e-05
0.000163905
6.18906e-05
0.000176694
6.53112e-05
0.000190505
6.90129e-05
0.000205253
7.30099e-05
0.000221122
7.73276e-05
0.000238073
8.19869e-05
0.000256205
8.70091e-05
0.000275576
9.2424e-05
0.000296145
9.82492e-05
0.000318057
0.000104512
0.000341236
0.000111237
0.000365681
0.000118446
0.000391399
0.000126159
0.000418276
0.000134399
0.000446174
0.00014318
0.000474936
0.000152513
0.000504286
0.000162402
0.000533851
0.000172844
0.000563135
0.000183822
0.000591487
0.000195306
0.000618058
0.000207245
0.000641759
0.000219562
0.000661202
0.000232146
0.000674643
0.000244849
0.000679916
0.000257461
0.000674353
0.000269719
0.000654729
0.000281277
0.000617183
0.000291704
0.000557214
0.000300463
0.000469673
0.000306909
0.000348693
0.000310305
0.000186996
-1.2426e-05
0.000309895
2.46163e-05
2.00769e-05
-2.42816e-05
2.49784e-05
2.17071e-05
2.53701e-05
2.3467e-05
2.57939e-05
2.53684e-05
2.62523e-05
2.74232e-05
2.67483e-05
2.96434e-05
2.72849e-05
3.20418e-05
2.7866e-05
3.46321e-05
2.84952e-05
3.74224e-05
2.91771e-05
4.04404e-05
2.99143e-05
4.37076e-05
3.07126e-05
4.7237e-05
3.15753e-05
5.10493e-05
3.25116e-05
5.51457e-05
3.35259e-05
5.95624e-05
3.46242e-05
6.43602e-05
3.58111e-05
6.95399e-05
3.71011e-05
7.50756e-05
3.84982e-05
8.10737e-05
4.00101e-05
8.7579e-05
4.16498e-05
9.45334e-05
4.34288e-05
0.000102041
4.53514e-05
0.000110193
4.7441e-05
0.000118861
4.9701e-05
0.000128299
5.21495e-05
0.000138416
5.48023e-05
0.000149291
5.76712e-05
0.000161035
6.07797e-05
0.000173585
6.4138e-05
0.000187146
6.77723e-05
0.000201618
7.16966e-05
0.000217197
7.59354e-05
0.000233832
8.051e-05
0.000251629
8.54406e-05
0.000270644
9.07567e-05
0.000290828
9.64758e-05
0.000312337
0.000102624
0.000335088
0.000109228
0.000359078
0.000116305
0.000384322
0.000123879
0.000410703
0.00013197
0.000438083
0.000140593
0.000466313
0.000149759
0.000495121
0.000159471
0.000524138
0.000169726
0.000552879
0.00018051
0.000580704
0.000191789
0.000606779
0.000203516
0.000630033
0.000215613
0.000649107
0.000227974
0.000662286
0.00024045
0.000667449
0.000252836
0.000661974
0.000264874
0.000642696
0.000276226
0.00060584
0.000286467
0.000546988
0.000295072
0.000461093
0.000301404
0.000342395
0.000304733
0.000183728
-1.18836e-05
0.000304281
2.41817e-05
1.97473e-05
-2.38544e-05
2.45368e-05
2.13509e-05
2.49212e-05
2.30818e-05
2.53371e-05
2.49518e-05
2.57871e-05
2.69726e-05
2.62742e-05
2.91559e-05
2.68011e-05
3.15144e-05
2.73715e-05
3.40615e-05
2.79892e-05
3.68041e-05
2.86583e-05
3.97709e-05
2.93819e-05
4.29833e-05
3.0165e-05
4.64535e-05
3.10118e-05
5.02017e-05
3.19303e-05
5.42268e-05
3.2926e-05
5.85658e-05
3.40037e-05
6.32823e-05
3.51688e-05
6.8374e-05
3.64348e-05
7.38094e-05
3.78062e-05
7.97015e-05
3.92901e-05
8.6095e-05
4.08998e-05
9.2923e-05
4.2646e-05
0.000100295
4.45332e-05
0.000108306
4.65845e-05
0.000116809
4.88029e-05
0.000126079
5.12065e-05
0.000136012
5.38107e-05
0.000146687
5.66271e-05
0.000158218
5.96786e-05
0.000170533
6.29755e-05
0.000183848
6.65433e-05
0.000198049
7.03958e-05
0.000213343
7.45574e-05
0.00022967
7.90482e-05
0.000247137
8.38889e-05
0.000265803
8.91081e-05
0.000285608
9.4723e-05
0.000306722
0.00010076
0.000329051
0.000107243
0.000352595
0.000114193
0.000377373
0.00012163
0.000403266
0.000129575
0.000430138
0.000138044
0.000457846
0.000147045
0.000486121
0.000156585
0.0005146
0.000166658
0.000542806
0.00017725
0.000570112
0.00018833
0.000595698
0.000199849
0.000618512
0.000211732
0.00063722
0.000223873
0.000650141
0.000236126
0.000655191
0.000248292
0.000649803
0.000260116
0.000630875
0.000271265
0.000594698
0.000281325
0.000536944
0.000289778
0.000452662
0.000295998
0.000336199
0.000299261
0.000180499
-1.13399e-05
0.000298776
2.37548e-05
1.94244e-05
-2.34313e-05
2.4104e-05
2.10018e-05
2.44815e-05
2.27043e-05
2.48899e-05
2.45435e-05
2.53314e-05
2.6531e-05
2.58092e-05
2.86782e-05
2.63259e-05
3.09975e-05
2.68855e-05
3.35021e-05
2.74913e-05
3.6198e-05
2.81479e-05
3.91146e-05
2.88576e-05
4.22732e-05
2.96263e-05
4.56852e-05
3.04569e-05
4.93705e-05
3.13585e-05
5.33256e-05
3.23352e-05
5.75884e-05
3.33929e-05
6.2225e-05
3.45359e-05
6.72302e-05
3.57783e-05
7.25672e-05
3.7124e-05
7.8355e-05
3.85803e-05
8.46388e-05
4.01599e-05
9.13426e-05
4.18736e-05
9.85809e-05
4.37259e-05
0.000106453
4.57391e-05
0.000114795
4.79166e-05
0.000123901
5.02758e-05
0.000133652
5.2832e-05
0.00014413
5.55965e-05
0.000155453
5.85918e-05
0.000167537
6.18281e-05
0.000180611
6.53304e-05
0.000194546
6.91123e-05
0.00020956
7.31974e-05
0.000225583
7.76063e-05
0.000242727
8.23585e-05
0.000261049
8.74825e-05
0.000280483
9.29952e-05
0.000301209
9.89222e-05
0.000323124
0.000105288
0.000346229
0.000112112
0.000370549
0.000119415
0.000395963
0.000127218
0.000422335
0.000135535
0.000449529
0.000144376
0.00047728
0.000153746
0.00050523
0.00016364
0.000532912
0.000174045
0.000559708
0.000184929
0.000584814
0.000196244
0.000607198
0.000207917
0.000625549
0.000219843
0.000638218
0.000231879
0.000643162
0.000243829
0.000637859
0.000255442
0.000619265
0.000266393
0.000583753
0.000276275
0.000527076
0.000284579
0.00044438
0.000290689
0.000330118
0.000293888
0.000177353
-1.07492e-05
0.000293377
2.33326e-05
1.91067e-05
-2.3018e-05
2.36744e-05
2.06585e-05
2.40446e-05
2.23331e-05
2.4445e-05
2.41421e-05
2.48784e-05
2.60968e-05
2.53475e-05
2.82085e-05
2.5855e-05
3.04894e-05
2.64042e-05
3.29524e-05
2.69991e-05
3.56025e-05
2.76434e-05
3.84698e-05
2.83403e-05
4.15757e-05
2.90943e-05
4.49307e-05
2.99099e-05
4.85542e-05
3.07942e-05
5.24408e-05
3.17531e-05
5.66288e-05
3.27907e-05
6.1187e-05
3.39128e-05
6.61075e-05
3.51318e-05
7.13481e-05
3.64526e-05
7.70337e-05
3.78816e-05
8.32098e-05
3.94319e-05
8.97917e-05
4.11137e-05
9.68991e-05
4.29315e-05
0.000104634
4.49073e-05
0.000112819
4.70443e-05
0.000121764
4.93598e-05
0.000131336
5.18686e-05
0.00014162
5.4582e-05
0.000152739
5.7522e-05
0.000164597
6.06987e-05
0.000177434
6.41364e-05
0.000191107
6.78486e-05
0.000205847
7.1859e-05
0.000221572
7.61869e-05
0.000238398
8.08523e-05
0.000256383
8.58827e-05
0.000275452
9.1295e-05
0.000295796
9.71144e-05
0.000317304
0.000103365
0.000339979
0.000110065
0.000363849
0.000117237
0.000388792
0.0001249
0.000414674
0.000133068
0.000441362
0.000141752
0.000468598
0.000150955
0.000496028
0.000160674
0.000523193
0.000170895
0.000549487
0.000181587
0.000574121
0.000192703
0.00059608
0.000204169
0.000614079
0.000215884
0.000626499
0.000227707
0.000631334
0.000239445
0.000626115
0.000250852
0.000607858
0.000261609
0.000573001
0.000271316
0.000517381
0.000279473
0.000436239
0.000285476
0.000324132
0.000288613
0.000174237
-1.01814e-05
0.000288079
2.29199e-05
1.87956e-05
-2.26087e-05
2.32561e-05
2.03222e-05
2.36197e-05
2.19694e-05
2.40128e-05
2.37488e-05
2.44381e-05
2.56714e-05
2.48982e-05
2.77483e-05
2.53959e-05
2.99916e-05
2.59346e-05
3.24137e-05
2.65181e-05
3.50188e-05
2.71503e-05
3.78377e-05
2.78338e-05
4.08919e-05
2.8574e-05
4.41909e-05
2.93739e-05
4.77539e-05
3.02419e-05
5.15732e-05
3.11825e-05
5.56878e-05
3.22008e-05
6.0169e-05
3.33015e-05
6.50062e-05
3.44978e-05
7.0152e-05
3.57936e-05
7.57372e-05
3.71959e-05
8.18076e-05
3.87171e-05
8.82699e-05
4.03674e-05
9.52487e-05
4.21512e-05
0.00010285
4.40902e-05
0.00011088
4.61874e-05
0.000119666
4.84598e-05
0.000129064
5.0922e-05
0.000139158
5.35851e-05
0.000150076
5.64707e-05
0.000161711
5.95886e-05
0.000174316
6.2963e-05
0.000187732
6.66069e-05
0.000202203
7.05434e-05
0.000217634
7.47921e-05
0.000234148
7.9372e-05
0.000251803
8.43106e-05
0.000270513
8.96243e-05
0.000290482
9.53378e-05
0.000311591
0.000101475
0.000333842
0.000108055
0.00035727
0.000115097
0.00038175
0.000122623
0.000407149
0.000130645
0.000433341
0.000139173
0.000460069
0.000148213
0.000486988
0.00015776
0.000513646
0.0001678
0.000539447
0.000178303
0.000563618
0.000189223
0.000585161
0.000200487
0.000602816
0.000211996
0.000614993
0.00022361
0.000619726
0.000235139
0.000614589
0.000246344
0.000596655
0.000256911
0.000562438
0.000266447
0.000507856
0.00027446
0.000428243
0.000280357
0.00031826
0.000283433
0.000171205
-9.56293e-06
0.000282882
2.25131e-05
1.84898e-05
-2.22091e-05
2.28426e-05
1.99917e-05
2.31994e-05
2.1612e-05
2.35854e-05
2.33623e-05
2.40029e-05
2.52534e-05
2.44548e-05
2.72963e-05
2.49434e-05
2.95025e-05
2.54724e-05
3.18845e-05
2.60452e-05
3.44455e-05
2.66656e-05
3.7217e-05
2.73364e-05
4.02204e-05
2.80624e-05
4.34645e-05
2.88475e-05
4.69681e-05
2.96989e-05
5.07213e-05
3.0622e-05
5.47639e-05
3.1621e-05
5.91697e-05
3.27013e-05
6.39253e-05
3.38751e-05
6.89782e-05
3.51468e-05
7.44649e-05
3.65227e-05
8.04316e-05
3.80156e-05
8.67766e-05
3.9635e-05
9.36291e-05
4.13855e-05
0.000101099
4.32883e-05
0.000108977
4.53465e-05
0.000117607
4.75765e-05
0.000126833
4.99929e-05
0.000136741
5.26066e-05
0.000147462
5.54387e-05
0.000158878
5.8499e-05
0.000171255
6.18109e-05
0.000184419
6.53876e-05
0.000198625
6.92519e-05
0.000213769
7.34224e-05
0.000229977
7.79185e-05
0.000247306
8.27668e-05
0.000265665
8.79836e-05
0.000285266
9.35933e-05
0.000305982
9.96193e-05
0.000327817
0.00010608
0.00035081
0.000112996
0.000374836
0.000120386
0.00039976
0.000128265
0.000425463
0.000136641
0.000451694
0.00014552
0.00047811
0.000154898
0.000504269
0.000164761
0.000529585
0.000175079
0.000553299
0.000185806
0.000574432
0.000196871
0.000591747
0.000208177
0.000603683
0.000219585
0.000608312
0.000230911
0.000603257
0.000241917
0.000585647
0.000252298
0.000552061
0.000261665
0.000498497
0.000269538
0.000420382
0.00027533
0.00031248
0.000278348
0.000168198
-8.98252e-06
0.000277782
2.2116e-05
1.81902e-05
-2.1815e-05
2.24403e-05
1.96679e-05
2.27907e-05
2.12619e-05
2.31698e-05
2.29836e-05
2.35795e-05
2.48439e-05
2.40227e-05
2.68533e-05
2.45019e-05
2.90233e-05
2.50208e-05
3.13659e-05
2.55825e-05
3.38836e-05
2.61913e-05
3.66085e-05
2.68493e-05
3.95622e-05
2.7562e-05
4.27523e-05
2.83319e-05
4.61975e-05
2.91677e-05
4.9886e-05
3.00731e-05
5.38579e-05
3.10537e-05
5.81895e-05
3.21133e-05
6.28649e-05
3.32651e-05
6.78266e-05
3.45128e-05
7.32166e-05
3.5863e-05
7.90815e-05
3.73278e-05
8.53112e-05
3.89169e-05
9.20399e-05
4.06347e-05
9.93805e-05
4.25019e-05
0.00010711
4.45217e-05
0.000115587
4.67102e-05
0.000124644
4.90817e-05
0.000134369
5.16468e-05
0.000144896
5.44264e-05
0.000156098
5.74299e-05
0.000168251
6.06808e-05
0.000181168
6.41915e-05
0.000195114
6.79844e-05
0.000209976
7.20786e-05
0.000225882
7.64922e-05
0.000242892
8.12519e-05
0.000260905
8.63735e-05
0.000280144
9.18812e-05
0.000300475
9.77979e-05
0.000321901
0.000104142
0.000344467
0.000110933
0.000368046
0.00011819
0.000392503
0.000125928
0.000417726
0.000134155
0.000443467
0.000142877
0.000469389
0.000152088
0.000495057
0.000161776
0.000519897
0.000171912
0.000543163
0.00018245
0.000563895
0.00019332
0.000580877
0.000204426
0.000592579
0.000215633
0.00059711
0.000226759
0.000592132
0.00023757
0.000574834
0.000247768
0.000541866
0.000256971
0.000489303
0.000264705
0.000412663
0.000270395
0.000306811
0.000273355
0.000165278
-8.35091e-06
0.000272779
2.17241e-05
1.78954e-05
-2.1432e-05
2.20414e-05
1.93493e-05
2.2385e-05
2.09174e-05
2.27567e-05
2.26111e-05
2.31589e-05
2.4441e-05
2.35941e-05
2.64176e-05
2.40649e-05
2.8552e-05
2.45743e-05
3.08561e-05
2.51262e-05
3.33314e-05
2.57236e-05
3.60106e-05
2.63699e-05
3.89154e-05
2.70689e-05
4.20527e-05
2.78251e-05
4.54408e-05
2.86449e-05
4.90657e-05
2.9534e-05
5.29683e-05
3.04958e-05
5.72273e-05
3.15362e-05
6.18242e-05
3.26663e-05
6.66963e-05
3.3891e-05
7.19916e-05
3.52159e-05
7.77566e-05
3.66535e-05
8.38733e-05
3.82129e-05
9.04804e-05
3.98986e-05
9.76944e-05
4.1731e-05
0.000105277
4.37131e-05
0.000113604
4.58609e-05
0.000122496
4.81882e-05
0.000132041
5.07057e-05
0.000142378
5.34337e-05
0.00015337
5.63817e-05
0.000165303
5.95723e-05
0.000177977
6.30183e-05
0.000191667
6.67415e-05
0.000206252
7.07603e-05
0.000221863
7.50931e-05
0.000238559
7.97657e-05
0.000256233
8.47939e-05
0.000275116
9.02013e-05
0.000295068
9.60106e-05
0.000316092
0.00010224
0.000338239
0.000108908
0.000361378
0.000116035
0.000385377
0.000123634
0.000410129
0.000131715
0.000435388
0.000140281
0.000460824
0.000149329
0.000486009
0.000158846
0.000510381
0.000168803
0.000533205
0.000179155
0.000553541
0.000189832
0.000570195
0.000200743
0.000581665
0.000211752
0.000586094
0.000222681
0.000581197
0.000233302
0.000564211
0.00024332
0.000531851
0.000252361
0.000480269
0.00025996
0.000405073
0.000265549
0.000301229
0.000268453
0.000162375
-7.77141e-06
0.000267869
2.13425e-05
1.76067e-05
-2.10531e-05
2.16547e-05
1.90373e-05
2.19923e-05
2.058e-05
2.23572e-05
2.22463e-05
2.27519e-05
2.40464e-05
2.31788e-05
2.59908e-05
2.36405e-05
2.80903e-05
2.41402e-05
3.03565e-05
2.46813e-05
3.27901e-05
2.52677e-05
3.54246e-05
2.59015e-05
3.82814e-05
2.65878e-05
4.13668e-05
2.73295e-05
4.46987e-05
2.81343e-05
4.82612e-05
2.90064e-05
5.20958e-05
2.99506e-05
5.62835e-05
3.09711e-05
6.08031e-05
3.20802e-05
6.55874e-05
3.32817e-05
7.07895e-05
3.45819e-05
7.64565e-05
3.59925e-05
8.24622e-05
3.75228e-05
8.89501e-05
3.91771e-05
9.60397e-05
4.09753e-05
0.000103479
4.29205e-05
0.000111659
4.50283e-05
0.000120388
4.73124e-05
0.000129757
4.97831e-05
0.000139907
5.24605e-05
0.000150692
5.53538e-05
0.000162409
5.84856e-05
0.000174845
6.18679e-05
0.000188284
6.55225e-05
0.000202597
6.94676e-05
0.000217918
7.37209e-05
0.000234306
7.8308e-05
0.000251646
8.32444e-05
0.00027018
8.85534e-05
0.000289759
9.42573e-05
0.000310389
0.000100374
0.000332124
0.000106922
0.000354831
0.000113921
0.000378378
0.000121384
0.000402667
0.00012932
0.000427453
0.000137733
0.000452411
0.000146621
0.000477122
0.000155969
0.000501033
0.00016575
0.000523424
0.000175919
0.000543372
0.000186408
0.000559705
0.000197127
0.000570949
0.000207941
0.000575283
0.000218678
0.00057046
0.000229111
0.000553775
0.000238953
0.00052201
0.000247835
0.000471394
0.0002553
0.00039762
0.000260791
0.000295756
0.00026364
0.000159559
-7.13943e-06
0.000263051
2.09664e-05
1.73228e-05
-2.06839e-05
2.12724e-05
1.87305e-05
2.16037e-05
2.02484e-05
2.1962e-05
2.18877e-05
2.23495e-05
2.36587e-05
2.27688e-05
2.55714e-05
2.32223e-05
2.76367e-05
2.3713e-05
2.98657e-05
2.42443e-05
3.22584e-05
2.48197e-05
3.48489e-05
2.54419e-05
3.76587e-05
2.61151e-05
4.06932e-05
2.68432e-05
4.397e-05
2.76326e-05
4.74713e-05
2.84887e-05
5.12391e-05
2.94149e-05
5.53569e-05
3.04167e-05
5.98009e-05
3.1505e-05
6.4499e-05
3.26843e-05
6.96098e-05
3.39602e-05
7.51807e-05
3.53446e-05
8.10775e-05
3.68463e-05
8.74483e-05
3.84698e-05
9.44159e-05
4.02345e-05
0.000101714
4.21435e-05
0.000109749
4.42121e-05
0.000118319
4.64538e-05
0.000127515
4.88787e-05
0.000137482
5.15064e-05
0.000148064
5.43463e-05
0.000159569
5.742e-05
0.000171771
6.074e-05
0.000184964
6.43274e-05
0.000199009
6.81999e-05
0.000214045
7.23752e-05
0.00023013
7.68784e-05
0.000247143
8.17247e-05
0.000265334
8.6937e-05
0.000284548
9.25373e-05
0.00030479
9.85428e-05
0.00032612
0.000104973
0.000348402
0.000111846
0.000371507
0.000119175
0.000395339
0.000126969
0.00041966
0.000135233
0.000444148
0.000143962
0.000468393
0.000153145
0.000491851
0.000162752
0.000513816
0.000172742
0.000533381
0.000183046
0.000549396
0.000193576
0.000560416
0.000204199
0.000564652
0.000214746
0.000559906
0.000224996
0.000543522
0.000234665
0.000512343
0.000243392
0.000462673
0.000250726
0.000390292
0.00025612
0.000290364
0.000258916
0.000156756
-6.56899e-06
0.000258323
2.06e-05
1.70449e-05
-2.03199e-05
2.09012e-05
1.84301e-05
2.12266e-05
1.99236e-05
2.15786e-05
2.15364e-05
2.19588e-05
2.32788e-05
2.23702e-05
2.51605e-05
2.28148e-05
2.71921e-05
2.32962e-05
2.93846e-05
2.38172e-05
3.17372e-05
2.43819e-05
3.42845e-05
2.49921e-05
3.70481e-05
2.56531e-05
4.00327e-05
2.63671e-05
4.32555e-05
2.71422e-05
4.66966e-05
2.79818e-05
5.03989e-05
2.88911e-05
5.44479e-05
2.98737e-05
5.88175e-05
3.09418e-05
6.34311e-05
3.20989e-05
6.84522e-05
3.3351e-05
7.39286e-05
3.47095e-05
7.97185e-05
3.61833e-05
8.59744e-05
3.77765e-05
9.28222e-05
3.95084e-05
9.99817e-05
4.13819e-05
0.000107876
4.34121e-05
0.000116289
4.56121e-05
0.000125314
4.7992e-05
0.000135102
5.05712e-05
0.000145485
5.33584e-05
0.000156781
5.63755e-05
0.000168753
5.96342e-05
0.000181705
6.31555e-05
0.000195487
6.69569e-05
0.000210243
7.10557e-05
0.000226031
7.54765e-05
0.000242722
8.02343e-05
0.000260577
8.53517e-05
0.000279431
9.08502e-05
0.000299292
9.67469e-05
0.000320224
0.000103061
0.000342089
0.00010981
0.000364759
0.000117007
0.000388143
0.000124662
0.000412006
0.000132778
0.000436032
0.000141353
0.000459818
0.000150372
0.000482831
0.00015981
0.000504378
0.000169623
0.000523568
0.000179745
0.000539273
0.000190089
0.000550074
0.000200525
0.000554218
0.000210886
0.000549543
0.000220956
0.000533448
0.000230455
0.000502844
0.000239029
0.000454105
0.000246235
0.000383097
0.000251534
0.000285081
0.000254277
0.00015404
-5.9446e-06
0.000253684
2.0238e-05
1.67712e-05
-1.99667e-05
2.05326e-05
1.81344e-05
2.08517e-05
1.96038e-05
2.11967e-05
2.11907e-05
2.157e-05
2.2905e-05
2.19739e-05
2.47563e-05
2.24108e-05
2.67549e-05
2.28835e-05
2.89117e-05
2.33955e-05
3.12249e-05
2.39496e-05
3.37299e-05
2.45492e-05
3.64482e-05
2.51974e-05
3.93838e-05
2.5899e-05
4.25535e-05
2.66591e-05
4.59358e-05
2.74839e-05
4.95738e-05
2.83758e-05
5.35555e-05
2.93409e-05
5.78523e-05
3.03889e-05
6.23828e-05
3.15248e-05
6.73161e-05
3.27535e-05
7.26998e-05
3.40869e-05
7.83849e-05