/*--------------------------------*- C++ -*----------------------------------*\
  =========                 |
  \\      /  F ield         | OpenFOAM: The Open Source CFD Toolbox
   \\    /   O peration     | Website:  https://openfoam.org
    \\  /    A nd           | Version:  6.0
     \\/     M anipulation  |
\*---------------------------------------------------------------------------*/
FoamFile
{
    version     2.0;
    format      ascii;
    class       volScalarField;
    location    "0.35";
    object      p;
}
// * * * * * * * * * * * * * * * * * * * * * * * * * * * * * * * * * * * * * //

dimensions      [0 2 -2 0 0 0 0];

internalField   nonuniform List<scalar> 
13500
(
0.10605
0.10607
0.1053
0.1053
0.10341
0.10453
0.10117
0.10568
0.10115
0.11344
0.12061
0.18372
0.10605
0.10607
0.1053
0.1053
0.10341
0.10454
0.10117
0.10569
0.10114
0.11349
0.12001
0.1784
0.10605
0.10608
0.1053
0.1053
0.1034
0.10454
0.10116
0.1057
0.10112
0.11352
0.11922
0.17379
0.10605
0.10608
0.1053
0.10531
0.1034
0.10455
0.10114
0.10571
0.10109
0.11354
0.11837
0.17029
0.10605
0.10608
0.10529
0.10531
0.1034
0.10456
0.10113
0.10572
0.10105
0.11355
0.1175
0.16741
0.10605
0.10608
0.10529
0.10531
0.10339
0.10456
0.10112
0.10573
0.10101
0.11355
0.11663
0.16489
0.10605
0.10608
0.10529
0.10532
0.10339
0.10457
0.1011
0.10574
0.10097
0.11353
0.11578
0.16264
0.10605
0.10609
0.1053
0.10532
0.10338
0.10457
0.10109
0.10574
0.10093
0.11351
0.11496
0.16061
0.10606
0.10609
0.1053
0.10533
0.10338
0.10458
0.10108
0.10574
0.10088
0.11347
0.11418
0.15874
0.10606
0.10609
0.1053
0.10533
0.10338
0.10458
0.10106
0.10574
0.10083
0.11343
0.11342
0.157
0.10606
0.1061
0.1053
0.10533
0.10337
0.10459
0.10105
0.10574
0.10078
0.11338
0.11268
0.15537
0.10607
0.1061
0.1053
0.10534
0.10337
0.10459
0.10103
0.10574
0.10072
0.11333
0.11198
0.15383
0.10607
0.10611
0.1053
0.10534
0.10337
0.10459
0.10102
0.10573
0.10067
0.11326
0.11129
0.15235
0.10607
0.10611
0.1053
0.10535
0.10336
0.1046
0.101
0.10573
0.1006
0.11319
0.11062
0.15094
0.10608
0.10611
0.10531
0.10535
0.10336
0.1046
0.10098
0.10572
0.10054
0.11312
0.10996
0.14958
0.10608
0.10612
0.10531
0.10536
0.10336
0.1046
0.10097
0.10571
0.10048
0.11303
0.10932
0.14826
0.10609
0.10613
0.10531
0.10536
0.10336
0.1046
0.10095
0.1057
0.10041
0.11294
0.1087
0.14697
0.10609
0.10613
0.10532
0.10537
0.10335
0.1046
0.10093
0.10568
0.10034
0.11285
0.10808
0.14572
0.1061
0.10614
0.10532
0.10537
0.10335
0.10461
0.10092
0.10567
0.10026
0.11275
0.10748
0.1445
0.10611
0.10614
0.10532
0.10538
0.10335
0.10461
0.1009
0.10565
0.10019
0.11264
0.10689
0.14331
0.10611
0.10615
0.10533
0.10538
0.10335
0.10461
0.10088
0.10563
0.10011
0.11253
0.10631
0.14214
0.10612
0.10616
0.10533
0.10539
0.10334
0.10461
0.10086
0.10561
0.10004
0.11241
0.10574
0.141
0.10613
0.10617
0.10534
0.10539
0.10334
0.10461
0.10084
0.10559
0.099956
0.11229
0.10519
0.13987
0.10614
0.10617
0.10534
0.1054
0.10334
0.10461
0.10082
0.10557
0.099874
0.11216
0.10464
0.13876
0.10614
0.10618
0.10535
0.10541
0.10334
0.1046
0.1008
0.10554
0.099791
0.11202
0.10411
0.13767
0.10615
0.10619
0.10536
0.10541
0.10334
0.1046
0.10078
0.10551
0.099706
0.11188
0.10358
0.1366
0.10616
0.1062
0.10536
0.10542
0.10334
0.1046
0.10076
0.10548
0.09962
0.11174
0.10307
0.13554
0.10617
0.10621
0.10537
0.10543
0.10333
0.1046
0.10074
0.10545
0.099533
0.11159
0.10257
0.13449
0.10618
0.10622
0.10538
0.10543
0.10333
0.1046
0.10072
0.10542
0.099444
0.11144
0.10207
0.13346
0.10619
0.10623
0.10538
0.10544
0.10333
0.10459
0.1007
0.10539
0.099354
0.11128
0.10159
0.13245
0.1062
0.10624
0.10539
0.10545
0.10333
0.10459
0.10068
0.10535
0.099263
0.11112
0.10112
0.13145
0.10621
0.10625
0.1054
0.10545
0.10333
0.10459
0.10066
0.10531
0.099171
0.11096
0.10066
0.13045
0.10623
0.10626
0.10541
0.10546
0.10333
0.10458
0.10064
0.10528
0.099077
0.11079
0.10021
0.12948
0.10624
0.10627
0.10542
0.10547
0.10333
0.10458
0.10062
0.10523
0.098983
0.11061
0.099766
0.12851
0.10625
0.10629
0.10543
0.10548
0.10333
0.10457
0.10059
0.10519
0.098888
0.11043
0.099333
0.12756
0.10626
0.1063
0.10544
0.10548
0.10333
0.10457
0.10057
0.10515
0.098792
0.11025
0.09891
0.12661
0.10628
0.10631
0.10545
0.10549
0.10333
0.10456
0.10055
0.1051
0.098696
0.11007
0.098496
0.12568
0.10629
0.10633
0.10546
0.1055
0.10333
0.10455
0.10053
0.10506
0.098599
0.10988
0.098091
0.12476
0.1063
0.10634
0.10547
0.10551
0.10333
0.10455
0.1005
0.10501
0.098501
0.10969
0.097695
0.12385
0.10632
0.10635
0.10548
0.10552
0.10334
0.10454
0.10048
0.10496
0.098402
0.10949
0.097308
0.12295
0.10634
0.10637
0.10549
0.10553
0.10334
0.10453
0.10046
0.10491
0.098303
0.1093
0.096929
0.12206
0.10635
0.10638
0.10551
0.10554
0.10334
0.10453
0.10043
0.10485
0.098204
0.10909
0.096559
0.12119
0.10637
0.1064
0.10552
0.10555
0.10334
0.10452
0.10041
0.1048
0.098104
0.10889
0.096196
0.12032
0.10638
0.10642
0.10553
0.10556
0.10334
0.10451
0.10039
0.10474
0.098003
0.10868
0.095841
0.11947
0.1064
0.10643
0.10555
0.10557
0.10335
0.1045
0.10036
0.10468
0.097903
0.10847
0.095495
0.11862
0.10642
0.10645
0.10556
0.10558
0.10335
0.10449
0.10034
0.10462
0.097802
0.10826
0.095155
0.11779
0.10644
0.10647
0.10558
0.10559
0.10335
0.10448
0.10032
0.10456
0.0977
0.10805
0.094823
0.11697
0.10646
0.10648
0.10559
0.1056
0.10336
0.10447
0.10029
0.1045
0.097599
0.10783
0.094499
0.11615
0.10648
0.1065
0.10561
0.10561
0.10336
0.10446
0.10027
0.10444
0.097497
0.10761
0.094181
0.11535
0.1065
0.10652
0.10562
0.10562
0.10336
0.10445
0.10024
0.10437
0.097396
0.10739
0.09387
0.11456
0.10652
0.10654
0.10564
0.10563
0.10337
0.10444
0.10022
0.10431
0.097294
0.10716
0.093566
0.11378
0.10654
0.10656
0.10566
0.10564
0.10337
0.10443
0.10019
0.10424
0.097192
0.10694
0.093269
0.11301
0.10656
0.10658
0.10567
0.10565
0.10338
0.10442
0.10017
0.10417
0.09709
0.10671
0.092977
0.11225
0.10658
0.1066
0.10569
0.10566
0.10338
0.10441
0.10014
0.1041
0.096988
0.10648
0.092692
0.1115
0.10661
0.10662
0.10571
0.10568
0.10339
0.10439
0.10012
0.10403
0.096886
0.10625
0.092413
0.11076
0.10663
0.10665
0.10573
0.10569
0.10339
0.10438
0.10009
0.10396
0.096784
0.10601
0.09214
0.11003
0.10665
0.10667
0.10575
0.1057
0.1034
0.10437
0.10007
0.10388
0.096682
0.10578
0.091873
0.10931
0.10668
0.10669
0.10577
0.10572
0.1034
0.10436
0.10005
0.10381
0.096581
0.10554
0.091611
0.1086
0.1067
0.10672
0.10579
0.10573
0.10341
0.10434
0.10002
0.10373
0.096479
0.1053
0.091354
0.1079
0.10673
0.10674
0.10581
0.10574
0.10342
0.10433
0.099996
0.10366
0.096378
0.10506
0.091103
0.10721
0.10676
0.10677
0.10584
0.10576
0.10343
0.10432
0.099971
0.10358
0.096276
0.10482
0.090857
0.10653
0.10678
0.10679
0.10586
0.10577
0.10343
0.1043
0.099946
0.1035
0.096175
0.10458
0.090615
0.10586
0.10681
0.10682
0.10588
0.10579
0.10344
0.10429
0.099921
0.10342
0.096075
0.10434
0.090379
0.1052
0.10684
0.10684
0.10591
0.1058
0.10345
0.10427
0.099897
0.10334
0.095974
0.10409
0.090147
0.10454
0.10687
0.10687
0.10593
0.10582
0.10346
0.10426
0.099872
0.10325
0.095874
0.10385
0.089919
0.1039
0.1069
0.1069
0.10595
0.10583
0.10347
0.10424
0.099847
0.10317
0.095774
0.1036
0.089696
0.10327
0.10693
0.10693
0.10598
0.10585
0.10348
0.10423
0.099823
0.10309
0.095674
0.10336
0.089477
0.10265
0.10696
0.10696
0.10601
0.10587
0.10349
0.10421
0.099798
0.103
0.095575
0.10311
0.089262
0.10203
0.10699
0.10699
0.10603
0.10588
0.1035
0.1042
0.099774
0.10291
0.095476
0.10286
0.089051
0.10143
0.10703
0.10702
0.10606
0.1059
0.10351
0.10418
0.09975
0.10283
0.095377
0.10261
0.088844
0.10083
0.10706
0.10705
0.10609
0.10592
0.10352
0.10417
0.099725
0.10274
0.095279
0.10236
0.08864
0.10025
0.10709
0.10708
0.10612
0.10594
0.10353
0.10415
0.099701
0.10265
0.095181
0.10211
0.08844
0.099669
0.10713
0.10711
0.10615
0.10596
0.10354
0.10413
0.099677
0.10256
0.095083
0.10186
0.088244
0.0991
0.10717
0.10715
0.10618
0.10598
0.10356
0.10412
0.099653
0.10247
0.094986
0.10161
0.088051
0.098539
0.1072
0.10718
0.10621
0.10599
0.10357
0.1041
0.09963
0.10238
0.094889
0.10136
0.087861
0.097987
0.10724
0.10722
0.10624
0.10601
0.10358
0.10409
0.099606
0.10228
0.094792
0.10111
0.087674
0.097443
0.10728
0.10725
0.10627
0.10604
0.1036
0.10407
0.099583
0.10219
0.094696
0.10086
0.08749
0.096908
0.10732
0.10729
0.10631
0.10606
0.10361
0.10405
0.099559
0.1021
0.094601
0.10061
0.087309
0.09638
0.10736
0.10732
0.10634
0.10608
0.10363
0.10404
0.099536
0.102
0.094505
0.10036
0.08713
0.095861
0.1074
0.10736
0.10638
0.1061
0.10364
0.10402
0.099513
0.10191
0.094411
0.10011
0.086955
0.095349
0.10744
0.1074
0.10641
0.10612
0.10366
0.104
0.099491
0.10181
0.094316
0.099857
0.086781
0.094845
0.10748
0.10744
0.10645
0.10615
0.10368
0.10399
0.099468
0.10171
0.094222
0.099606
0.08661
0.094349
0.10752
0.10748
0.10648
0.10617
0.10369
0.10397
0.099446
0.10162
0.094129
0.099355
0.086442
0.09386
0.10757
0.10752
0.10652
0.10619
0.10371
0.10395
0.099424
0.10152
0.094035
0.099105
0.086276
0.093379
0.10761
0.10756
0.10656
0.10622
0.10373
0.10394
0.099402
0.10142
0.093943
0.098855
0.086111
0.092905
0.10766
0.10761
0.1066
0.10624
0.10375
0.10392
0.09938
0.10132
0.09385
0.098605
0.085949
0.092438
0.10771
0.10765
0.10664
0.10627
0.10377
0.1039
0.099359
0.10122
0.093758
0.098355
0.085789
0.091978
0.10775
0.10769
0.10668
0.1063
0.10379
0.10389
0.099338
0.10112
0.093667
0.098106
0.085631
0.091526
0.1078
0.10774
0.10672
0.10632
0.10381
0.10387
0.099317
0.10102
0.093576
0.097858
0.085474
0.091079
0.10785
0.10779
0.10677
0.10635
0.10383
0.10386
0.099297
0.10092
0.093485
0.097609
0.085319
0.09064
0.1079
0.10783
0.10681
0.10638
0.10385
0.10384
0.099276
0.10082
0.093395
0.097362
0.085166
0.090207
0.10795
0.10788
0.10686
0.10641
0.10387
0.10382
0.099256
0.10072
0.093305
0.097115
0.085014
0.08978
0.10801
0.10793
0.1069
0.10644
0.1039
0.10381
0.099237
0.10062
0.093216
0.096868
0.084863
0.08936
0.10806
0.10798
0.10695
0.10647
0.10392
0.10379
0.099217
0.10052
0.093127
0.096622
0.084714
0.088945
0.10812
0.10803
0.107
0.1065
0.10395
0.10378
0.099198
0.10042
0.093038
0.096377
0.084566
0.088537
0.10817
0.10809
0.10705
0.10653
0.10397
0.10376
0.099179
0.10032
0.09295
0.096133
0.084419
0.088135
0.10823
0.10814
0.1071
0.10657
0.104
0.10375
0.099161
0.10021
0.092862
0.095889
0.084273
0.087738
0.10829
0.10819
0.10715
0.1066
0.10403
0.10373
0.099143
0.10011
0.092774
0.095646
0.084129
0.087347
0.10835
0.10825
0.1072
0.10664
0.10405
0.10372
0.099125
0.10001
0.092687
0.095404
0.083985
0.086961
0.10841
0.10831
0.10725
0.10667
0.10408
0.10371
0.099108
0.099906
0.0926
0.095162
0.083842
0.086581
0.10847
0.10837
0.10731
0.10671
0.10411
0.10369
0.099091
0.099803
0.092514
0.094922
0.0837
0.086206
0.10853
0.10843
0.10736
0.10675
0.10414
0.10368
0.099074
0.0997
0.092427
0.094682
0.083558
0.085836
0.1086
0.10849
0.10742
0.10678
0.10417
0.10367
0.099058
0.099598
0.092341
0.094443
0.083417
0.085471
0.10866
0.10855
0.10748
0.10682
0.1042
0.10366
0.099042
0.099495
0.092256
0.094205
0.083277
0.085111
0.10873
0.10861
0.10754
0.10686
0.10424
0.10364
0.099027
0.099393
0.092171
0.093968
0.083137
0.084755
0.1088
0.10868
0.1076
0.10691
0.10427
0.10363
0.099012
0.09929
0.092086
0.093731
0.082998
0.084404
0.10887
0.10874
0.10766
0.10695
0.10431
0.10362
0.098998
0.099188
0.092001
0.093496
0.082859
0.084057
0.10894
0.10881
0.10772
0.10699
0.10434
0.10361
0.098984
0.099085
0.091917
0.093262
0.08272
0.083715
0.10901
0.10888
0.10779
0.10704
0.10438
0.1036
0.09897
0.098983
0.091832
0.093028
0.082582
0.083377
0.10909
0.10895
0.10785
0.10708
0.10442
0.10359
0.098957
0.098881
0.091749
0.092796
0.082444
0.083043
0.10916
0.10902
0.10792
0.10713
0.10445
0.10359
0.098945
0.09878
0.091665
0.092565
0.082305
0.082713
0.10924
0.10909
0.10799
0.10718
0.10449
0.10358
0.098933
0.098678
0.091581
0.092334
0.082167
0.082386
0.10932
0.10917
0.10806
0.10723
0.10454
0.10357
0.098921
0.098577
0.091498
0.092105
0.082029
0.082064
0.1094
0.10924
0.10813
0.10728
0.10458
0.10357
0.09891
0.098476
0.091415
0.091876
0.081891
0.081744
0.10948
0.10932
0.10821
0.10733
0.10462
0.10356
0.0989
0.098375
0.091332
0.091649
0.081753
0.081429
0.10957
0.1094
0.10828
0.10738
0.10466
0.10356
0.09889
0.098275
0.09125
0.091422
0.081614
0.081116
0.10965
0.10948
0.10836
0.10744
0.10471
0.10355
0.098881
0.098175
0.091167
0.091197
0.081475
0.080807
0.10974
0.10957
0.10844
0.1075
0.10476
0.10355
0.098873
0.098076
0.091085
0.090972
0.081336
0.0805
0.10983
0.10965
0.10852
0.10755
0.10481
0.10355
0.098865
0.097977
0.091003
0.090749
0.081197
0.080197
0.10992
0.10974
0.1086
0.10761
0.10486
0.10355
0.098858
0.097879
0.090921
0.090527
0.081057
0.079896
0.11001
0.10983
0.10868
0.10768
0.10491
0.10355
0.098851
0.097781
0.090839
0.090305
0.080916
0.079598
0.11011
0.10992
0.10877
0.10774
0.10496
0.10355
0.098845
0.097683
0.090757
0.090085
0.080775
0.079302
0.11021
0.11001
0.10886
0.1078
0.10501
0.10355
0.09884
0.097586
0.090675
0.089865
0.080633
0.079009
0.11031
0.1101
0.10895
0.10787
0.10507
0.10355
0.098836
0.09749
0.090594
0.089647
0.080491
0.078717
0.11041
0.1102
0.10904
0.10794
0.10512
0.10356
0.098832
0.097395
0.090512
0.089429
0.080348
0.078428
0.11051
0.1103
0.10913
0.10801
0.10518
0.10357
0.09883
0.0973
0.090431
0.089212
0.080204
0.078141
0.11062
0.1104
0.10923
0.10808
0.10524
0.10357
0.098828
0.097206
0.090349
0.088997
0.08006
0.077856
0.11073
0.11051
0.10933
0.10816
0.10531
0.10358
0.098827
0.097112
0.090268
0.088782
0.079914
0.077573
0.11084
0.11061
0.10943
0.10823
0.10537
0.10359
0.098827
0.09702
0.090187
0.088568
0.079767
0.077291
0.11095
0.11072
0.10953
0.10831
0.10544
0.1036
0.098828
0.096928
0.090106
0.088355
0.07962
0.07701
0.11107
0.11084
0.10964
0.10839
0.1055
0.10362
0.09883
0.096837
0.090024
0.088143
0.079471
0.076731
0.11119
0.11095
0.10974
0.10847
0.10557
0.10363
0.098833
0.096747
0.089943
0.087932
0.079321
0.076453
0.11131
0.11107
0.10985
0.10856
0.10564
0.10365
0.098837
0.096658
0.089862
0.087722
0.07917
0.076176
0.11143
0.11119
0.10997
0.10865
0.10572
0.10367
0.098842
0.09657
0.089781
0.087512
0.079018
0.0759
0.11156
0.11131
0.11009
0.10874
0.10579
0.10369
0.098848
0.096483
0.0897
0.087304
0.078865
0.075625
0.11169
0.11144
0.1102
0.10883
0.10587
0.10371
0.098856
0.096397
0.089619
0.087096
0.07871
0.075351
0.11182
0.11157
0.11033
0.10893
0.10595
0.10373
0.098865
0.096312
0.089538
0.086889
0.078553
0.075077
0.11196
0.1117
0.11045
0.10903
0.10604
0.10376
0.098875
0.096228
0.089457
0.086683
0.078395
0.074803
0.1121
0.11184
0.11058
0.10913
0.10612
0.10379
0.098886
0.096146
0.089376
0.086477
0.078236
0.074529
0.11224
0.11198
0.11071
0.10924
0.10621
0.10382
0.098899
0.096064
0.089295
0.086272
0.078075
0.074256
0.11239
0.11212
0.11085
0.10935
0.1063
0.10385
0.098914
0.095984
0.089214
0.086068
0.077912
0.073983
0.11254
0.11227
0.11099
0.10946
0.1064
0.10389
0.09893
0.095906
0.089133
0.085865
0.077748
0.073709
0.1127
0.11242
0.11113
0.10958
0.1065
0.10393
0.098948
0.095829
0.089053
0.085662
0.077582
0.073435
0.11286
0.11257
0.11128
0.1097
0.1066
0.10397
0.098967
0.095753
0.088972
0.085459
0.077414
0.073161
0.11302
0.11273
0.11143
0.10982
0.1067
0.10401
0.098988
0.095679
0.088891
0.085258
0.077244
0.072886
0.11319
0.1129
0.11159
0.10995
0.10681
0.10406
0.099011
0.095606
0.08881
0.085057
0.077072
0.07261
0.11336
0.11307
0.11175
0.11008
0.10692
0.10411
0.099036
0.095535
0.08873
0.084856
0.076898
0.072333
0.11354
0.11324
0.11191
0.11021
0.10703
0.10416
0.099063
0.095466
0.088649
0.084656
0.076721
0.072055
0.11372
0.11342
0.11208
0.11035
0.10715
0.10422
0.099093
0.095399
0.088569
0.084456
0.076543
0.071776
0.11391
0.1136
0.11226
0.1105
0.10727
0.10427
0.099124
0.095333
0.088488
0.084257
0.076362
0.071496
0.1141
0.11379
0.11243
0.11065
0.1074
0.10434
0.099158
0.09527
0.088408
0.084058
0.076179
0.071214
0.11429
0.11398
0.11262
0.1108
0.10753
0.1044
0.099194
0.095208
0.088328
0.08386
0.075994
0.07093
0.1145
0.11418
0.11281
0.11096
0.10766
0.10448
0.099233
0.095149
0.088248
0.083662
0.075806
0.070645
0.1147
0.11439
0.113
0.11113
0.1078
0.10455
0.099274
0.095091
0.088168
0.083464
0.075616
0.070357
0.11492
0.1146
0.11321
0.1113
0.10795
0.10463
0.099319
0.095036
0.088089
0.083266
0.075422
0.070068
0.11514
0.11482
0.11341
0.11148
0.1081
0.10471
0.099366
0.094983
0.088009
0.083069
0.075227
0.069775
0.11537
0.11504
0.11363
0.11166
0.10825
0.1048
0.099416
0.094933
0.08793
0.082872
0.075028
0.069481
0.1156
0.11527
0.11385
0.11185
0.10841
0.10489
0.09947
0.094885
0.087852
0.082675
0.074826
0.069183
0.11584
0.11551
0.11407
0.11204
0.10858
0.10499
0.099526
0.09484
0.087773
0.082478
0.074621
0.068883
0.11609
0.11576
0.11431
0.11225
0.10875
0.10509
0.099587
0.094797
0.087695
0.082281
0.074414
0.068579
0.11634
0.11601
0.11455
0.11246
0.10893
0.1052
0.09965
0.094757
0.087617
0.082084
0.074203
0.068272
0.1166
0.11627
0.1148
0.11267
0.10911
0.10531
0.099718
0.09472
0.08754
0.081887
0.073988
0.067962
0.11687
0.11654
0.11506
0.1129
0.1093
0.10543
0.09979
0.094686
0.087462
0.08169
0.073771
0.067648
0.11715
0.11682
0.11532
0.11313
0.1095
0.10556
0.099865
0.094656
0.087386
0.081492
0.073549
0.06733
0.11744
0.11711
0.1156
0.11337
0.1097
0.10569
0.099945
0.094628
0.08731
0.081294
0.073325
0.067007
0.11774
0.1174
0.11588
0.11362
0.10992
0.10583
0.10003
0.094603
0.087234
0.081096
0.073096
0.06668
0.11804
0.11771
0.11617
0.11388
0.11014
0.10597
0.10012
0.094582
0.087159
0.080898
0.072863
0.066349
0.11836
0.11802
0.11647
0.11415
0.11036
0.10613
0.10021
0.094565
0.087084
0.080699
0.072626
0.066013
0.11868
0.11835
0.11679
0.11442
0.1106
0.10629
0.10031
0.094551
0.087009
0.0805
0.072385
0.065671
0.11902
0.11868
0.11711
0.11471
0.11085
0.10645
0.10042
0.09454
0.086936
0.080299
0.07214
0.065324
0.11936
0.11903
0.11744
0.11501
0.1111
0.10663
0.10052
0.094534
0.086862
0.080098
0.07189
0.064971
0.11972
0.11939
0.11779
0.11532
0.11137
0.10681
0.10064
0.094531
0.086789
0.079897
0.071635
0.064612
0.12009
0.11976
0.11814
0.11563
0.11164
0.107
0.10076
0.094532
0.086717
0.079694
0.071375
0.064247
0.12047
0.12014
0.11851
0.11596
0.11192
0.1072
0.10089
0.094538
0.086645
0.079489
0.071111
0.063875
0.12086
0.12053
0.11889
0.11631
0.11222
0.10741
0.10102
0.094547
0.086574
0.079284
0.07084
0.063497
0.12126
0.12094
0.11928
0.11666
0.11252
0.10763
0.10116
0.09456
0.086503
0.079077
0.070564
0.06311
0.12168
0.12136
0.11969
0.11703
0.11284
0.10785
0.1013
0.094578
0.086432
0.078868
0.070282
0.062716
0.12211
0.1218
0.12011
0.11741
0.11317
0.10809
0.10146
0.094601
0.086362
0.078657
0.069994
0.062314
0.12256
0.12225
0.12055
0.11781
0.11351
0.10834
0.10162
0.094627
0.086291
0.078444
0.0697
0.061903
0.12302
0.12271
0.121
0.11822
0.11386
0.1086
0.10178
0.094658
0.086221
0.078229
0.069398
0.061483
0.12349
0.12319
0.12146
0.11864
0.11423
0.10887
0.10196
0.094694
0.086151
0.078011
0.06909
0.061054
0.12398
0.12369
0.12194
0.11908
0.11461
0.10915
0.10214
0.094733
0.086081
0.07779
0.068773
0.060615
0.12449
0.1242
0.12244
0.11954
0.115
0.10944
0.10233
0.094778
0.08601
0.077566
0.068449
0.060165
0.12502
0.12474
0.12296
0.12001
0.11541
0.10974
0.10253
0.094827
0.085939
0.077338
0.068116
0.059704
0.12556
0.12529
0.12349
0.1205
0.11583
0.11006
0.10273
0.09488
0.085867
0.077107
0.067775
0.059231
0.12612
0.12585
0.12404
0.121
0.11627
0.11039
0.10295
0.094938
0.085795
0.07687
0.067424
0.058747
0.1267
0.12644
0.12462
0.12153
0.11673
0.11073
0.10317
0.095
0.085721
0.076629
0.067063
0.058249
0.1273
0.12705
0.12521
0.12208
0.1172
0.11108
0.1034
0.095067
0.085646
0.076383
0.066692
0.057737
0.12791
0.12768
0.12582
0.12264
0.11769
0.11145
0.10364
0.095138
0.085569
0.076131
0.066309
0.057211
0.12855
0.12833
0.12646
0.12323
0.11819
0.11184
0.10389
0.095212
0.08549
0.075872
0.065914
0.05667
0.12922
0.12901
0.12712
0.12384
0.11872
0.11224
0.10415
0.095291
0.085409
0.075606
0.065507
0.056113
0.1299
0.12971
0.1278
0.12447
0.11927
0.11265
0.10441
0.095374
0.085325
0.075333
0.065087
0.055539
0.13061
0.13043
0.12851
0.12512
0.11983
0.11308
0.10469
0.095461
0.085238
0.075051
0.064652
0.054948
0.13135
0.13118
0.12924
0.1258
0.12042
0.11353
0.10498
0.095551
0.085147
0.07476
0.064202
0.054337
0.13211
0.13196
0.13
0.12651
0.12103
0.11399
0.10528
0.095645
0.085051
0.074458
0.063736
0.053706
0.1329
0.13277
0.13079
0.12724
0.12166
0.11448
0.10559
0.095742
0.084951
0.074146
0.063253
0.053054
0.13372
0.13361
0.13161
0.128
0.12232
0.11498
0.1059
0.095841
0.084845
0.073823
0.062752
0.05238
0.13457
0.13448
0.13247
0.12879
0.12301
0.1155
0.10623
0.095944
0.084733
0.073486
0.062231
0.051683
0.13545
0.13539
0.13336
0.12962
0.12372
0.11604
0.10658
0.096048
0.084614
0.073135
0.061689
0.05096
0.13636
0.13633
0.13428
0.13048
0.12446
0.1166
0.10693
0.096155
0.084488
0.07277
0.061126
0.05021
0.13732
0.13731
0.13524
0.13137
0.12523
0.11718
0.10729
0.096264
0.084353
0.072388
0.060539
0.049433
0.13831
0.13833
0.13624
0.1323
0.12603
0.11779
0.10767
0.096374
0.084209
0.071988
0.059926
0.048625
0.13934
0.13939
0.13729
0.13328
0.12686
0.11842
0.10806
0.096485
0.084054
0.071569
0.059287
0.047786
0.14042
0.1405
0.13838
0.13429
0.12773
0.11908
0.10846
0.096597
0.083887
0.071129
0.05862
0.046914
0.14154
0.14166
0.13952
0.13535
0.12864
0.11976
0.10887
0.096709
0.083708
0.070667
0.057922
0.046005
0.14271
0.14287
0.14072
0.13646
0.12959
0.12048
0.1093
0.096819
0.083514
0.070181
0.057191
0.045058
0.14394
0.14414
0.14197
0.13763
0.13058
0.12122
0.10974
0.096929
0.083305
0.069668
0.056425
0.044071
0.14522
0.14547
0.14328
0.13885
0.13162
0.12199
0.1102
0.097036
0.083078
0.069126
0.055621
0.04304
0.14657
0.14686
0.14466
0.14013
0.13271
0.1228
0.11067
0.09714
0.082832
0.068553
0.054777
0.041963
0.14798
0.14833
0.14611
0.14147
0.13385
0.12364
0.11116
0.097239
0.082563
0.067946
0.053889
0.040837
0.14946
0.14987
0.14763
0.14289
0.13505
0.12452
0.11166
0.097331
0.08227
0.0673
0.052954
0.039657
0.15101
0.15149
0.14923
0.14438
0.1363
0.12544
0.11217
0.097415
0.081949
0.066614
0.051967
0.038422
0.15265
0.1532
0.15093
0.14595
0.13762
0.1264
0.1127
0.097488
0.081596
0.065881
0.050926
0.037125
0.15437
0.155
0.15271
0.1476
0.13901
0.1274
0.11324
0.097546
0.081208
0.065098
0.049824
0.035763
0.15618
0.1569
0.1546
0.14935
0.14047
0.12844
0.11378
0.097587
0.080778
0.064259
0.048655
0.03433
0.1581
0.15891
0.1566
0.1512
0.142
0.12952
0.11434
0.097605
0.080301
0.063356
0.047415
0.032821
0.16012
0.16103
0.15871
0.15315
0.14361
0.13065
0.11491
0.097596
0.079771
0.062383
0.046094
0.031229
0.16225
0.16328
0.16095
0.15521
0.1453
0.13182
0.11547
0.097551
0.079178
0.061331
0.044686
0.029547
0.1645
0.16566
0.16332
0.15739
0.14708
0.13303
0.11603
0.097464
0.078513
0.06019
0.043181
0.027767
0.16688
0.16818
0.16584
0.1597
0.14895
0.13428
0.11658
0.097325
0.077766
0.05895
0.041568
0.025879
0.16939
0.17085
0.16851
0.16214
0.15091
0.13557
0.11711
0.097123
0.076923
0.057596
0.039836
0.023874
0.17206
0.17369
0.17135
0.16472
0.15296
0.13689
0.11762
0.096844
0.075971
0.056116
0.037971
0.021739
0.17487
0.1767
0.17437
0.16745
0.15512
0.13824
0.11808
0.096472
0.074892
0.054492
0.03596
0.019463
0.17786
0.17991
0.17758
0.17035
0.15736
0.1396
0.11849
0.095991
0.073668
0.052708
0.033785
0.01703
0.18103
0.18332
0.181
0.17341
0.15971
0.14098
0.11883
0.095377
0.072277
0.050742
0.031429
0.014425
0.18439
0.18696
0.18465
0.17666
0.16215
0.14234
0.11908
0.094606
0.070694
0.048573
0.028872
0.011631
0.18797
0.19084
0.18855
0.1801
0.16468
0.14369
0.1192
0.093649
0.068891
0.046175
0.026093
0.0086306
0.19178
0.195
0.19272
0.18374
0.1673
0.14499
0.11917
0.09247
0.066835
0.04352
0.023068
0.0054036
0.19584
0.19947
0.1972
0.1876
0.16999
0.14621
0.11895
0.091027
0.064487
0.040575
0.019772
0.0019295
0.20019
0.20427
0.20201
0.19169
0.17274
0.14732
0.11848
0.08927
0.061804
0.037305
0.016175
-0.001814
0.20485
0.20946
0.20719
0.19602
0.17553
0.14826
0.11771
0.087137
0.058731
0.033666
0.012245
-0.0058509
0.20985
0.21508
0.21278
0.20059
0.17831
0.14897
0.11656
0.084555
0.055206
0.029609
0.0079435
-0.010207
0.21524
0.22119
0.21882
0.20539
0.18102
0.14937
0.11493
0.081436
0.051154
0.025075
0.0032282
-0.014911
0.22105
0.22784
0.22535
0.21041
0.1836
0.14933
0.1127
0.077672
0.046488
0.019998
-0.0019501
-0.019995
0.22732
0.2351
0.23238
0.21559
0.18591
0.14871
0.10972
0.073138
0.041109
0.014302
-0.0076462
-0.025491
0.2341
0.24303
0.23993
0.22084
0.1878
0.14731
0.10582
0.067688
0.034904
0.0079041
-0.013919
-0.031435
0.24144
0.25169
0.24798
0.22601
0.18903
0.1449
0.10079
0.061158
0.027755
0.00072215
-0.020824
-0.037855
0.24939
0.26113
0.25642
0.23086
0.18928
0.14115
0.094365
0.053372
0.019543
-0.0073198
-0.028408
-0.04477
0.25802
0.27135
0.26507
0.23502
0.18811
0.13569
0.086283
0.04415
0.010164
-0.016275
-0.036693
-0.05217
0.26744
0.2823
0.27356
0.2379
0.18496
0.12808
0.076247
0.033331
-0.00045366
-0.026156
-0.045654
-0.060007
0.2778
0.2938
0.28125
0.23865
0.17906
0.1178
0.063978
0.0208
-0.012317
-0.036909
-0.055205
-0.068171
0.28936
0.30545
0.28704
0.23607
0.1695
0.10432
0.049268
0.0065431
-0.025335
-0.048387
-0.06517
-0.076478
0.30248
0.31641
0.28921
0.22846
0.15518
0.08718
0.032063
-0.0092874
-0.039271
-0.060325
-0.075277
-0.084669
0.31767
0.3252
0.28515
0.21366
0.13498
0.066111
0.012565
-0.02631
-0.053706
-0.072328
-0.08516
-0.092429
0.33553
0.32945
0.27136
0.18917
0.10791
0.041172
-0.008706
-0.043894
-0.068047
-0.083892
-0.094397
-0.099428
0.35647
0.32609
0.24404
0.15273
0.07352
0.012861
-0.030947
-0.061241
-0.081612
-0.094481
-0.10258
-0.10539
0.37973
0.31094
0.20038
0.10371
0.032364
-0.017882
-0.053253
-0.077598
-0.093812
-0.10367
-0.10942
-0.1102
0.40372
0.27642
0.13707
0.042612
-0.014474
-0.050359
-0.075255
-0.092783
-0.10458
-0.11148
-0.11502
-0.11407
0.4366
0.22062
0.052119
-0.02986
-0.066522
-0.085166
-0.098071
-0.10799
-0.115
-0.11887
-0.1202
-0.11781
0.49031
0.1604
-0.042106
-0.10626
-0.11957
-0.12055
-0.12149
-0.1237
-0.12579
-0.12652
-0.12566
-0.12194
0.10571
0.069429
0.063551
0.062693
0.063393
0.064172
0.064395
0.063864
0.062751
0.061044
0.059112
0.056422
0.12411
0.083803
0.075844
0.073764
0.074082
0.074858
0.075169
0.07467
0.073511
0.071635
0.069492
0.066821
0.10981
0.076382
0.068798
0.066123
0.066003
0.066588
0.066915
0.066579
0.065679
0.064115
0.062312
0.06001
0.10376
0.074848
0.0672
0.064133
0.06372
0.064165
0.064471
0.064188
0.06339
0.061943
0.060275
0.058068
0.1026
0.076547
0.068555
0.065125
0.064424
0.064696
0.06492
0.064606
0.063815
0.062378
0.060735
0.058539
0.10171
0.078251
0.070026
0.066253
0.065221
0.065256
0.06534
0.064952
0.064136
0.062689
0.061059
0.05886
0.10055
0.079673
0.071378
0.067295
0.065902
0.065647
0.065543
0.065046
0.064183
0.062716
0.061093
0.058886
0.099477
0.081044
0.072799
0.068447
0.066689
0.066112
0.065784
0.065147
0.064212
0.062709
0.061083
0.058862
0.098577
0.082371
0.074268
0.069701
0.067596
0.066687
0.066112
0.065313
0.064288
0.062735
0.061095
0.05885
0.097794
0.08358
0.075697
0.070973
0.068557
0.067324
0.066496
0.065524
0.064397
0.062784
0.06112
0.058847
0.097081
0.084631
0.077024
0.072203
0.06952
0.067986
0.066913
0.065765
0.064528
0.062849
0.061157
0.058851
0.096418
0.085517
0.07822
0.073353
0.070454
0.06865
0.067345
0.066027
0.064679
0.06293
0.061207
0.058869
0.095795
0.086243
0.079275
0.074406
0.071336
0.069299
0.067783
0.066302
0.064847
0.063029
0.061272
0.058903
0.095208
0.086825
0.080189
0.075353
0.072156
0.069919
0.068216
0.066586
0.065027
0.063141
0.061351
0.058953
0.094653
0.08728
0.080971
0.076195
0.072906
0.070505
0.068637
0.066872
0.065216
0.063267
0.061442
0.059021
0.094131
0.087627
0.081633
0.076936
0.073587
0.071051
0.069041
0.067156
0.065411
0.063402
0.061545
0.059104
0.093639
0.087884
0.082189
0.077584
0.074201
0.071558
0.069427
0.067435
0.065609
0.063545
0.061658
0.059202
0.093178
0.088065
0.082652
0.078148
0.074751
0.072024
0.069791
0.067707
0.065808
0.063695
0.061779
0.059312
0.092746
0.088186
0.083035
0.078637
0.075242
0.072451
0.070134
0.067969
0.066006
0.063849
0.061907
0.059434
0.092343
0.088257
0.083349
0.079059
0.075679
0.072842
0.070455
0.068222
0.066202
0.064007
0.062041
0.059565
0.091967
0.088287
0.083604
0.079422
0.076067
0.073197
0.070754
0.068464
0.066394
0.064166
0.062179
0.059704
0.091617
0.088286
0.083809
0.079733
0.07641
0.073521
0.071033
0.068696
0.066582
0.064326
0.062321
0.059849
0.091291
0.088259
0.083971
0.079999
0.076713
0.073813
0.071291
0.068915
0.066765
0.064486
0.062464
0.059999
0.090986
0.088211
0.084095
0.080224
0.07698
0.074078
0.071531
0.069123
0.066942
0.064645
0.062609
0.060153
0.090702
0.088146
0.084189
0.080414
0.077214
0.074317
0.071752
0.06932
0.067114
0.064802
0.062755
0.06031
0.090436
0.088068
0.084255
0.080572
0.077418
0.074532
0.071955
0.069506
0.067279
0.064956
0.0629
0.060468
0.090187
0.087979
0.084297
0.080703
0.077595
0.074724
0.072142
0.06968
0.067437
0.065108
0.063044
0.060627
0.089952
0.087882
0.08432
0.080809
0.077748
0.074896
0.072313
0.069844
0.067588
0.065256
0.063187
0.060785
0.089731
0.087778
0.084326
0.080894
0.07788
0.07505
0.07247
0.069998
0.067733
0.0654
0.063327
0.060943
0.089522
0.087668
0.084317
0.08096
0.077992
0.075186
0.072613
0.070141
0.067871
0.06554
0.063465
0.0611
0.089323
0.087555
0.084295
0.081009
0.078086
0.075306
0.072743
0.070274
0.068002
0.065675
0.0636
0.061254
0.089133
0.087437
0.084262
0.081044
0.078165
0.075411
0.07286
0.070398
0.068126
0.065806
0.063732
0.061405
0.088952
0.087317
0.084219
0.081065
0.078229
0.075503
0.072966
0.070513
0.068243
0.065931
0.06386
0.061554
0.088778
0.087195
0.084168
0.081074
0.07828
0.075582
0.073061
0.07062
0.068354
0.066052
0.063984
0.061699
0.08861
0.087071
0.08411
0.081072
0.078319
0.07565
0.073146
0.070717
0.068458
0.066167
0.064104
0.061841
0.088448
0.086945
0.084044
0.081061
0.078347
0.075707
0.073222
0.070807
0.068555
0.066277
0.064219
0.061978
0.08829
0.086817
0.083973
0.081041
0.078365
0.075754
0.073288
0.070889
0.068646
0.066382
0.06433
0.062111
0.088136
0.086688
0.083897
0.081014
0.078374
0.075792
0.073346
0.070963
0.06873
0.066481
0.064437
0.062239
0.087985
0.086558
0.083816
0.080979
0.078374
0.075821
0.073395
0.07103
0.068809
0.066575
0.064538
0.062363
0.087836
0.086427
0.083731
0.080937
0.078367
0.075842
0.073437
0.07109
0.068881
0.066663
0.064635
0.062482
0.087689
0.086294
0.083641
0.08089
0.078352
0.075856
0.073472
0.071144
0.068947
0.066746
0.064727
0.062596
0.087544
0.086161
0.083548
0.080837
0.078331
0.075862
0.073499
0.071191
0.069008
0.066824
0.064814
0.062706
0.087399
0.086025
0.083451
0.080778
0.078304