/*--------------------------------*- C++ -*----------------------------------*\
  =========                 |
  \\      /  F ield         | OpenFOAM: The Open Source CFD Toolbox
   \\    /   O peration     | Website:  https://openfoam.org
    \\  /    A nd           | Version:  6.0
     \\/     M anipulation  |
\*---------------------------------------------------------------------------*/
FoamFile
{
    version     2.0;
    format      ascii;
    class       surfaceScalarField;
    location    "18";
    object      phi;
}
// * * * * * * * * * * * * * * * * * * * * * * * * * * * * * * * * * * * * * //

dimensions      [0 3 -1 0 0 0 0];

internalField   nonuniform List<scalar> 
123526
(
-5.40496e-05
2.30583e-05
5.44442e-05
-5.36245e-05
2.49357e-05
-5.3168e-05
2.69664e-05
-5.26719e-05
2.9163e-05
-5.21394e-05
3.15391e-05
-5.15608e-05
3.41096e-05
-5.09393e-05
3.68904e-05
-5.02647e-05
3.98988e-05
-4.95389e-05
4.31528e-05
-4.87505e-05
4.66732e-05
-4.7902e-05
5.04827e-05
-4.69817e-05
5.46044e-05
-4.59901e-05
5.90642e-05
-4.49124e-05
6.38873e-05
-4.37467e-05
6.91053e-05
-4.2483e-05
7.47552e-05
-4.11193e-05
8.08692e-05
-3.96344e-05
8.74786e-05
-3.80269e-05
9.46341e-05
-3.62854e-05
0.000102382
-3.43963e-05
0.000110758
-3.23424e-05
0.000119824
-3.01237e-05
0.000129641
-2.77045e-05
0.000140248
-2.50874e-05
0.000151738
-2.22441e-05
0.000164162
-1.91586e-05
0.000177598
-1.58125e-05
0.000192135
-1.21771e-05
0.000207841
-8.2368e-06
0.000224828
-3.95745e-06
0.000243168
6.79022e-07
0.000262983
5.70526e-06
0.00028436
1.11515e-05
0.000307413
1.70493e-05
0.000332252
2.34473e-05
0.000358966
3.03673e-05
0.000387686
3.78517e-05
0.00041849
4.59437e-05
0.000451462
5.46764e-05
0.000486676
6.40926e-05
0.000524159
7.42397e-05
0.000563898
8.51557e-05
0.000605841
9.68793e-05
0.000649846
0.000109448
0.000695671
0.000122895
0.000742942
0.000137242
0.000791114
0.000152497
0.00083942
0.000168646
0.000886817
0.000185647
0.00093191
0.000203424
0.000972857
0.000221871
0.00100728
0.000240808
0.00103215
0.000259997
0.00104365
0.000279123
0.00103699
0.000297737
0.00100641
0.00031532
0.000944478
0.000331116
0.000842953
0.000343906
0.000686436
0.00045014
0.000340073
-5.32572e-05
2.26771e-05
5.36419e-05
-5.28417e-05
2.4523e-05
-5.23945e-05
2.65196e-05
-5.19081e-05
2.86794e-05
-5.13847e-05
3.10158e-05
-5.08156e-05
3.35433e-05
-5.02033e-05
3.62778e-05
-4.95382e-05
3.92364e-05
-4.88219e-05
4.24357e-05
-4.80439e-05
4.58973e-05
-4.72062e-05
4.96441e-05
-4.6298e-05
5.36981e-05
-4.53194e-05
5.80847e-05
-4.42567e-05
6.28263e-05
-4.31075e-05
6.79554e-05
-4.1863e-05
7.35124e-05
-4.05202e-05
7.9526e-05
-3.90595e-05
8.60199e-05
-3.74786e-05
9.3053e-05
-3.57673e-05
0.000100672
-3.3911e-05
0.000108902
-3.18943e-05
0.000117809
-2.97153e-05
0.000127462
-2.73409e-05
0.000137875
-2.47716e-05
0.000149169
-2.19818e-05
0.000161373
-1.89533e-05
0.00017457
-1.56707e-05
0.000188854
-1.21033e-05
0.000204274
-8.23845e-06
0.000220964
-4.03995e-06
0.000238971
5.08203e-07
0.000258436
5.43942e-06
0.000279428
1.07827e-05
0.000302068
1.65682e-05
0.000326466
2.28427e-05
0.000352692
2.96283e-05
0.000380903
3.69672e-05
0.000411154
4.49024e-05
0.000443529
5.34673e-05
0.000478115
6.27046e-05
0.000514925
7.26624e-05
0.000553945
8.33795e-05
0.00059513
9.48949e-05
0.000638339
0.000107247
0.000683331
0.000120465
0.000729738
0.000134572
0.000777027
0.000149571
0.000824448
0.000165446
0.000870977
0.000182157
0.000915246
0.000199626
0.000955441
0.000217754
0.00098922
0.000236367
0.00101361
0.000255231
0.00102489
0.000274026
0.00101832
0.000292314
0.000988262
0.000309526
0.00092739
0.000324992
0.000827621
0.000334834
0.000676669
0.000452285
0.000332804
-5.25252e-05
2.23036e-05
5.2902e-05
-5.21186e-05
2.41192e-05
-5.16813e-05
2.60828e-05
-5.1206e-05
2.82067e-05
-5.06944e-05
3.05042e-05
-5.01381e-05
3.29895e-05
-4.95389e-05
3.56783e-05
-4.88878e-05
3.85874e-05
-4.81853e-05
4.17326e-05
-4.74217e-05
4.51357e-05
-4.65985e-05
4.882e-05
-4.57052e-05
5.28066e-05
-4.47419e-05
5.71204e-05
-4.36953e-05
6.17813e-05
-4.25632e-05
6.68224e-05
-4.13368e-05
7.22877e-05
-4.00138e-05
7.82023e-05
-3.85748e-05
8.45826e-05
-3.70179e-05
9.14958e-05
-3.53331e-05
9.89895e-05
-3.35063e-05
0.000107075
-3.15224e-05
0.000115827
-2.93799e-05
0.00012532
-2.70462e-05
0.000135543
-2.45216e-05
0.000146644
-2.17815e-05
0.000158634
-1.88074e-05
0.000171596
-1.5585e-05
0.000185632
-1.20834e-05
0.000200773
-8.29097e-06
0.000217173
-4.17144e-06
0.000234853
2.90208e-07
0.000253975
5.12702e-06
0.00027459
1.0368e-05
0.000296826
1.60426e-05
0.000320791
2.21975e-05
0.000346539
2.88546e-05
0.000374247
3.60562e-05
0.000403954
4.38456e-05
0.000435742
5.22564e-05
0.000469706
6.13313e-05
0.000505853
7.11183e-05
0.000544162
8.16559e-05
0.000584597
9.29822e-05
0.000627018
0.000105133
0.000671187
0.000118137
0.000716743
0.000132013
0.000763163
0.000146762
0.000809712
0.000162369
0.000855386
0.000178795
0.000898839
0.000195965
0.000938288
0.000213786
0.000971426
0.000232084
0.000995341
0.000250631
0.00100637
0.000269098
0.000999867
0.000287067
0.000970317
0.000303892
0.000910551
0.000319033
0.000812493
0.000329483
0.000666187
0.000451721
0.000329969
-5.1763e-05
2.19347e-05
5.21344e-05
-5.13625e-05
2.37209e-05
-5.09322e-05
2.56529e-05
-5.04657e-05
2.77425e-05
-4.99643e-05
3.00028e-05
-4.94202e-05
3.24477e-05
-4.88347e-05
3.50926e-05
-4.81993e-05
3.79541e-05
-4.75139e-05
4.10468e-05
-4.67693e-05
4.43928e-05
-4.59659e-05
4.80159e-05
-4.50939e-05
5.19362e-05
-4.41527e-05
5.61784e-05
-4.31293e-05
6.07594e-05
-4.20211e-05
6.57134e-05
-4.08197e-05
7.10879e-05
-3.95225e-05
7.69045e-05
-3.81106e-05
8.31725e-05
-3.65823e-05
8.99671e-05
-3.49276e-05
9.73367e-05
-3.31331e-05
0.00010528
-3.1184e-05
0.000113879
-2.90788e-05
0.000123215
-2.67857e-05
0.000133251
-2.43053e-05
0.000144164
-2.16133e-05
0.000155943
-1.86918e-05
0.000168675
-1.55269e-05
0.000182468
-1.20878e-05
0.000197335
-8.36381e-06
0.00021345
-4.31874e-06
0.000230809
6.15273e-08
0.000249596
4.81018e-06
0.000269841
9.9559e-06
0.000291678
1.55281e-05
0.000315218
2.15726e-05
0.000340495
2.81116e-05
0.00036771
3.51872e-05
0.000396881
4.28425e-05
0.000428089
5.11104e-05
0.000461441
6.00333e-05
0.000496933
6.96583e-05
0.00053454
8.00225e-05
0.000574236
9.11625e-05
0.000615882
0.000103113
0.000659242
0.000115899
0.000703963
0.000129539
0.000749531
0.000144034
0.000795228
0.000159371
0.000840063
0.000175514
0.000882716
0.00019239
0.000921432
0.000209909
0.00095394
0.000227896
0.00097739
0.000246127
0.000988184
0.000264267
0.00098178
0.000281914
0.00095274
0.000298377
0.000894143
0.000313186
0.000797746
0.000324049
0.000655344
0.000449872
0.000325927
-5.10194e-05
2.15705e-05
5.1387e-05
-5.06229e-05
2.33273e-05
-5.01972e-05
2.52277e-05
-4.97355e-05
2.72835e-05
-4.924e-05
2.95074e-05
-4.8703e-05
3.19131e-05
-4.81262e-05
3.45156e-05
-4.75013e-05
3.73313e-05
-4.68285e-05
4.03734e-05
-4.60985e-05
4.36646e-05
-4.53118e-05
4.72286e-05
-4.44589e-05
5.10848e-05
-4.35385e-05
5.52573e-05
-4.25381e-05
5.97605e-05
-4.14545e-05
6.46292e-05
-4.02797e-05
6.99147e-05
-3.90106e-05
7.56349e-05
-3.76287e-05
8.17924e-05
-3.61319e-05
8.847e-05
-3.45106e-05
9.57172e-05
-3.27513e-05
0.000103521
-3.08397e-05
0.000111969
-2.87742e-05
0.000121149
-2.65237e-05
0.000131002
-2.40887e-05
0.000141729
-2.14456e-05
0.000153301
-1.85767e-05
0.000165806
-1.54684e-05
0.00017936
-1.20907e-05
0.000193958
-8.43296e-06
0.000209793
-4.45975e-06
0.000226838
-1.56956e-07
0.000245294
4.50803e-06
0.000265175
9.56411e-06
0.00028662
1.50397e-05
0.000309742
2.09802e-05
0.000334556
2.74075e-05
0.000361284
3.4363e-05
0.000389927
4.18891e-05
0.000420565
5.00183e-05
0.000453313
5.87918e-05
0.000488161
6.82553e-05
0.000525078
7.84448e-05
0.000564049
8.93954e-05
0.000604935
0.00010114
0.000647501
0.000113704
0.000691403
0.000127105
0.000736136
0.000141346
0.000780992
0.000156415
0.000825001
0.00017228
0.000866859
0.000188868
0.000904849
0.000206089
0.000936732
0.000223768
0.000959718
0.000241681
0.000970276
0.000259494
0.000963966
0.000276814
0.000935423
0.000292943
0.000877987
0.000307383
0.000783307
0.000318194
0.000644491
0.000446382
0.000321601
-5.03127e-05
2.12141e-05
5.06714e-05
-4.9924e-05
2.29408e-05
-4.9505e-05
2.4809e-05
-4.90497e-05
2.68304e-05
-4.85598e-05
2.90175e-05
-4.80285e-05
3.13839e-05
-4.74574e-05
3.39444e-05
-4.6839e-05
3.67148e-05
-4.61735e-05
3.97075e-05
-4.54526e-05
4.29453e-05
-4.46767e-05
4.64521e-05
-4.38367e-05
5.02462e-05
-4.29314e-05
5.43513e-05
-4.19487e-05
5.87791e-05
-4.08853e-05
6.35651e-05
-3.97332e-05
6.8764e-05
-3.84892e-05
7.43904e-05
-3.71351e-05
8.04399e-05
-3.56685e-05
8.70031e-05
-3.40799e-05
9.41303e-05
-3.23557e-05
0.000101796
-3.04819e-05
0.000110097
-2.84567e-05
0.000119124
-2.62494e-05
0.000128796
-2.38606e-05
0.00013934
-2.12669e-05
0.000150708
-1.8451e-05
0.00016299
-1.53995e-05
0.000176309
-1.20828e-05
0.000190642
-8.49065e-06
0.000206202
-4.58797e-06
0.000222936
-3.61064e-07
0.000241067
4.22277e-06
0.00026059
9.1914e-06
0.00028165
1.45731e-05
0.000304359
2.0412e-05
0.000328718
2.67297e-05
0.000354968
3.35668e-05
0.000383091
4.09649e-05
0.000413168
4.89556e-05
0.000445325
5.75793e-05
0.000479539
6.68803e-05
0.000515779
7.68937e-05
0.000554038
8.76535e-05
0.000594177
9.91921e-05
0.000635965
0.000111535
0.000679063
0.0001247
0.000722975
0.000138691
0.000767006
0.000153499
0.0008102
0.000169092
0.000851276
0.000185399
0.00088855
0.000202328
0.000919821
0.000219703
0.000942362
0.000237301
0.000952704
0.00025479
0.000946506
0.000271786
0.000918468
0.000287605
0.0008622
0.000301673
0.000769275
0.000312446
0.000633725
0.000441583
0.000317253
-4.95911e-05
2.08688e-05
4.99392e-05
-4.92139e-05
2.25658e-05
-4.88064e-05
2.4402e-05
-4.83626e-05
2.63887e-05
-4.78836e-05
2.85386e-05
-4.7363e-05
3.08652e-05
-4.68018e-05
3.33831e-05
-4.61933e-05
3.61081e-05
-4.55375e-05
3.90513e-05
-4.48267e-05
4.2236e-05
-4.40613e-05
4.56863e-05
-4.32332e-05
4.94194e-05
-4.23411e-05
5.34587e-05
-4.13736e-05
5.78129e-05
-4.03274e-05
6.25185e-05
-3.91951e-05
6.76332e-05
-3.79732e-05
7.31682e-05
-3.66442e-05
7.91124e-05
-3.52053e-05
8.55639e-05
-3.36472e-05
9.25738e-05
-3.19565e-05
0.000100105
-3.0119e-05
0.000108261
-2.8133e-05
0.000117138
-2.59682e-05
0.000126633
-2.3625e-05
0.000136997
-2.10802e-05
0.000148165
-1.83169e-05
0.000160227
-1.53216e-05
0.000173315
-1.20655e-05
0.000187386
-8.53821e-06
0.000202675
-4.70536e-06
0.000219105
-5.53058e-07
0.000236916
3.95039e-06
0.000256085
8.83291e-06
0.000276766
1.41215e-05
0.00029907
1.98598e-05
0.00032298
2.60687e-05
0.000348761
3.2788e-05
0.000376374
4.00584e-05
0.0004059
4.79108e-05
0.000437474
5.63847e-05
0.000471067
6.55236e-05
0.000506642
7.53615e-05
0.000544202
8.59322e-05
0.000583609
9.72676e-05
0.000624632
0.000109393
0.000666941
0.000122327
0.000710045
0.000136076
0.000753261
0.00015063
0.00079565
0.000165958
0.000835953
0.00018199
0.000872519
0.00019863
0.000903189
0.000215703
0.000925291
0.000232988
0.00093542
0.000250159
0.000929331
0.000266837
0.000901788
0.000282365
0.000846648
0.0002961
0.000755539
0.000306844
0.000622943
0.00043585
0.000312502
-4.88212e-05
2.05339e-05
4.91576e-05
-4.84568e-05
2.2203e-05
-4.8063e-05
2.40085e-05
-4.76343e-05
2.59617e-05
-4.71708e-05
2.80752e-05
-4.66662e-05
3.03623e-05
-4.61209e-05
3.28378e-05
-4.55285e-05
3.55172e-05
-4.48883e-05
3.84109e-05
-4.41933e-05
4.15423e-05
-4.34437e-05
4.49361e-05
-4.26317e-05
4.86086e-05
-4.17562e-05
5.25826e-05
-4.08062e-05
5.68641e-05
-3.97788e-05
6.14905e-05
-3.86668e-05
6.65224e-05
-3.74671e-05
7.1968e-05
-3.61624e-05
7.7809e-05
-3.47502e-05
8.41514e-05
-3.32213e-05
9.10465e-05
-3.15626e-05
9.84465e-05
-2.97599e-05
0.00010646
-2.78118e-05
0.000115189
-2.5688e-05
0.00012451
-2.3389e-05
0.000134698
-2.08919e-05
0.000145668
-1.818e-05
0.000157515
-1.524e-05
0.000170375
-1.20433e-05
0.00018419
-8.57982e-06
0.000199213
-4.81553e-06
0.000215342
-7.37028e-07
0.000232838
3.68746e-06
0.00025166
8.48443e-06
0.000271967
1.3681e-05
0.000293873
1.93194e-05
0.000317342
2.54203e-05
0.000342661
3.20226e-05
0.000369773
3.91662e-05
0.000398758
4.68814e-05
0.00042976
5.52069e-05
0.000462743
6.41854e-05
0.000497666
7.38504e-05
0.000534539
8.42352e-05
0.000573226
9.53716e-05
0.000613498
0.000107285
0.000655029
0.000119995
0.000697338
0.000133506
0.000739753
0.000147811
0.00078135
0.000162877
0.000820893
0.000178635
0.000856765
0.000194987
0.000886849
0.000211758
0.000908531
0.00022873
0.000918464
0.000245585
0.000912495
0.00026195
0.000885451
0.000277203
0.000831417
0.00029065
0.000742116
0.000301271
0.000612322
0.000429934
0.000307188
-4.80307e-05
2.02061e-05
4.83614e-05
-4.76748e-05
2.18494e-05
-4.72922e-05
2.36264e-05
-4.68766e-05
2.55482e-05
-4.64284e-05
2.76271e-05
-4.59408e-05
2.98765e-05
-4.54138e-05
3.23108e-05
-4.48406e-05
3.49455e-05
-4.42202e-05
3.77903e-05
-4.35456e-05
4.0869e-05
-4.28162e-05
4.42066e-05
-4.2025e-05
4.78186e-05
-4.11701e-05
5.17275e-05
-4.02416e-05
5.59369e-05
-3.92359e-05
6.04846e-05
-3.81468e-05
6.54347e-05
-3.69708e-05
7.07918e-05
-3.56916e-05
7.65313e-05
-3.43063e-05
8.27661e-05
-3.28066e-05
8.95483e-05
-3.11791e-05
9.68189e-05
-2.94104e-05
0.000104693
-2.74988e-05
0.000113277
-2.54146e-05
0.000122428
-2.31584e-05
0.000132441
-2.07075e-05
0.000143218
-1.80453e-05
0.000154853
-1.5159e-05
0.000167489
-1.20202e-05
0.000181052
-8.61903e-06
0.000195812
-4.92209e-06
0.000211646
-9.15766e-07
0.000228832
3.43045e-06
0.000247312
8.14331e-06
0.000267253
1.32487e-05
0.000288767
1.87885e-05
0.000311803
2.47826e-05
0.000336668
3.12692e-05
0.000363288
3.82876e-05
0.000391741
4.58674e-05
0.000422182
5.40467e-05
0.000454565
6.28674e-05
0.000488846
7.23628e-05
0.000525045
8.25656e-05
0.000563025
9.35075e-05
0.000602558
0.000105214
0.000643325
0.000117703
0.000684851
0.000130982
0.000726477
0.00014504
0.000767294
0.000159846
0.000806091
0.000175328
0.000841284
0.000191389
0.000870795
0.000207856
0.000892065
0.000224515
0.000901804
0.000241056
0.00089595
0.000257113
0.000869393
0.000272101
0.00081641
0.000285297
0.000728921
0.000295727
0.000601857
0.000423982
0.00030161
-4.72858e-05
1.98801e-05
4.76132e-05
-4.69341e-05
2.14992e-05
-4.6557e-05
2.32495e-05
-4.61493e-05
2.51421e-05
-4.57108e-05
2.71887e-05
-4.52353e-05
2.94025e-05
-4.47223e-05
3.17977e-05
-4.41652e-05
3.43898e-05
-4.35624e-05
3.71873e-05
-4.29069e-05
4.02147e-05
-4.21977e-05
4.34971e-05
-4.14276e-05
4.70495e-05
-4.05945e-05
5.0894e-05
-3.96886e-05
5.50319e-05
-3.8706e-05
5.95017e-05
-3.76409e-05
6.43707e-05
-3.64895e-05
6.96402e-05
-3.52362e-05
7.52792e-05
-3.38781e-05
8.14078e-05
-3.24072e-05
8.80788e-05
-3.08104e-05
9.52219e-05
-2.90746e-05
0.000102958
-2.71981e-05
0.000111401
-2.51522e-05
0.000120383
-2.2937e-05
0.000130226
-2.05305e-05
0.000140813
-1.79163e-05
0.000152239
-1.50819e-05
0.000164655
-1.19993e-05
0.00017797
-8.65879e-06
0.000192472
-5.02738e-06
0.000208016
-1.09211e-06
0.000224897
3.17775e-06
0.000243042
7.80748e-06
0.000262621
1.28232e-05
0.00028375
1.82658e-05
0.000306361
2.41546e-05
0.000330781
3.05274e-05
0.000356916
3.74226e-05
0.000384847
4.48693e-05
0.000414736
5.29051e-05
0.000446531
6.15713e-05
0.000480182
7.09006e-05
0.000515717
8.09254e-05
0.000553001
9.16769e-05
0.000591808
0.00010318
0.000631823
0.000115453
0.00067258
0.000128502
0.00071343
0.000142315
0.000753484
0.000156861
0.00079155
0.000172066
0.000826079
0.000187835
0.000855034
0.000203997
0.00087591
0.000220342
0.00088547
0.000236573
0.000879733
0.000252326
0.00085366
0.000267058
0.000801694
0.00028003
0.000715963
0.000290293
0.000591592
0.000418102
0.000296171
-4.6634e-05
1.95535e-05
4.69628e-05
-4.62818e-05
2.11487e-05
-4.59051e-05
2.28733e-05
-4.54992e-05
2.47378e-05
-4.50641e-05
2.67537e-05
-4.45942e-05
2.89339e-05
-4.40887e-05
3.12922e-05
-4.35415e-05
3.38438e-05
-4.29505e-05
3.65962e-05
-4.23089e-05
3.95742e-05
-4.16153e-05
4.28034e-05
-4.08625e-05
4.62978e-05
-4.00481e-05
5.00795e-05
-3.91622e-05
5.41471e-05
-3.82008e-05
5.85403e-05
-3.71581e-05
6.33292e-05
-3.60302e-05
6.85123e-05
-3.48017e-05
7.40521e-05
-3.34699e-05
8.00759e-05
-3.20267e-05
8.6637e-05
-3.04593e-05
9.36545e-05
-2.87552e-05
0.000101256
-2.69125e-05
0.000109558
-2.4903e-05
0.000118374
-2.27272e-05
0.00012805
-2.03633e-05
0.000138449
-1.77953e-05
0.000149671
-1.50108e-05
0.000161871
-1.19826e-05
0.000174942
-8.7008e-06
0.000189191
-5.13335e-06
0.00020445
-1.26704e-06
0.000221032
2.92751e-06
0.000238845
7.47615e-06
0.000258071
1.24038e-05
0.000278822
1.77509e-05
0.000301015
2.35365e-05
0.000324996
2.97975e-05
0.000350656
3.65718e-05
0.000378074
4.38881e-05
0.000407421
5.17832e-05
0.000438637
6.0298e-05
0.000471668
6.94646e-05
0.000506552
7.9315e-05
0.000543152
8.98799e-05
0.000581245
0.000101184
0.00062052
0.000113244
0.000660522
0.000126065
0.000700611
0.000139635
0.000739915
0.000153921
0.000777267
0.00016885
0.00081115
0.000184327
0.000839564
0.000200185
0.000860052
0.000216221
0.000869433
0.000232147
0.000863804
0.000247602
0.000838203
0.000262082
0.000787201
0.000274855
0.00070319
0.000285032
0.000581381
0.000411981
0.00029109
-4.60885e-05
1.92254e-05
4.64174e-05
-4.57351e-05
2.07962e-05
-4.53563e-05
2.24948e-05
-4.49489e-05
2.43314e-05
-4.45125e-05
2.63174e-05
-4.40424e-05
2.84651e-05
-4.35381e-05
3.07879e-05
-4.29939e-05
3.33008e-05
-4.2408e-05
3.60101e-05
-4.17736e-05
3.89408e-05
-4.10894e-05
4.21188e-05
-4.03481e-05
4.55574e-05
-3.95471e-05
4.92781e-05
-3.86765e-05
5.32774e-05
-3.77323e-05
5.75956e-05
-3.67083e-05
6.23062e-05
-3.56009e-05
6.74045e-05
-3.43944e-05
7.28468e-05
-3.30863e-05
7.87675e-05
-3.16685e-05
8.52206e-05
-3.01287e-05
9.21144e-05
-2.84541e-05
9.95824e-05
-2.66433e-05
0.000107747
-2.46685e-05
0.000116401
-2.25301e-05
0.000125912
-2.02069e-05
0.000136127
-1.76832e-05
0.000147148
-1.49468e-05
0.000159135
-1.19709e-05
0.000171966
-8.74613e-06
0.000185967
-5.2406e-06
0.000200945
-1.44187e-06
0.000217233
2.67979e-06
0.000234723
7.14871e-06
0.0002536
1.19903e-05
0.000273979
1.72439e-05
0.000295762
2.29283e-05
0.000319313
2.90799e-05
0.000344506
3.57357e-05
0.000371419
4.29242e-05
0.000400234
5.06815e-05
0.000430881
5.90478e-05
0.000463303
6.80548e-05
0.000497546
7.7734e-05
0.000533474
8.81152e-05
0.000570865
9.92223e-05
0.000609414
0.000111072
0.000648673
0.000123667
0.000688017
0.000136997
0.000726589
0.000151024
0.000763243
0.000165679
0.000796495
0.000180866
0.000824382
0.000196426
0.000844497
0.000212159
0.000853708
0.000227787
0.000848185
0.000242956
0.00082305
0.000257188
0.00077298
0.000269778
0.00069061
0.000279948
0.000571205
0.000405575
0.000286349
-4.56271e-05
1.88982e-05
4.59567e-05
-4.52726e-05
2.04436e-05
-4.48926e-05
2.21153e-05
-4.4483e-05
2.39235e-05
-4.40446e-05
2.58792e-05
-4.35725e-05
2.79944e-05
-4.30669e-05
3.02823e-05
-4.25223e-05
3.27574e-05
-4.19371e-05
3.54249e-05
-4.13052e-05
3.831e-05
-4.0625e-05
4.14387e-05
-3.98899e-05
4.48233e-05
-3.90969e-05
4.84852e-05
-3.82368e-05
5.24183e-05
-3.73047e-05
5.66638e-05
-3.62953e-05
6.1298e-05
-3.52041e-05
6.63134e-05
-3.40164e-05
7.16604e-05
-3.27288e-05
7.748e-05
-3.13338e-05
8.3827e-05
-2.98189e-05
9.05994e-05
-2.81717e-05
9.79365e-05
-2.63907e-05
0.000105966
-2.44485e-05
0.00011446
-2.23457e-05
0.000123809
-2.00613e-05
0.000133843
-1.758e-05
0.000144666
-1.48899e-05
0.000156446
-1.19646e-05
0.000169041
-8.79482e-06
0.000182798
-5.34958e-06
0.000197501
-1.61615e-06
0.0002135
2.43381e-06
0.000230672
6.82541e-06
0.000249207
1.15828e-05
0.000269221
1.67449e-05
0.0002906
2.23303e-05
0.000313728
2.83747e-05
0.000338463
3.49144e-05
0.000364881
4.19775e-05
0.000393172
4.95995e-05
0.00042326
5.78199e-05
0.000455084
6.66698e-05
0.000488697
7.61802e-05
0.000523965
8.63801e-05
0.000560666
9.72927e-05
0.000598502
0.000108934
0.000637034
0.000121306
0.000675646
0.000134395
0.000713501
0.000148167
0.000749474
0.000162551
0.00078211
0.000177455
0.000809483
0.000192723
0.00082923
0.000208161
0.000838269
0.000223503
0.000832841
0.000238396
0.000808156
0.000252388
0.000758978
0.000264805
0.000678192
0.000275004
0.000560974
0.000398708
0.000281812
-4.5217e-05
1.8574e-05
4.55422e-05
-4.48655e-05
2.00931e-05
-4.44868e-05
2.17369e-05
-4.40778e-05
2.35156e-05
-4.36387e-05
2.54402e-05
-4.31654e-05
2.75224e-05
-4.26581e-05
2.97751e-05
-4.21121e-05
3.22124e-05
-4.15259e-05
3.48386e-05
-4.0894e-05
3.7679e-05
-4.02151e-05
4.07596e-05
-3.94828e-05
4.40918e-05
-3.86944e-05
4.76965e-05
-3.78407e-05
5.15654e-05
-3.69173e-05
5.57401e-05
-3.59185e-05
6.03001e-05
-3.48403e-05
6.52349e-05
-3.36676e-05
7.04888e-05
-3.23975e-05
7.62097e-05
-3.10223e-05
8.24531e-05
-2.95296e-05
8.91066e-05
-2.79074e-05
9.63155e-05
-2.61538e-05
0.000104212
-2.42423e-05
0.000112549
-2.21731e-05
0.000121739
-1.99257e-05
0.000131597
-1.74851e-05
0.000142226
-1.48394e-05
0.0001538
-1.1963e-05
0.000166165
-8.84666e-06
0.000179682
-5.45977e-06
0.000194115
-1.79035e-06
0.000209831
2.19042e-06
0.00022669
6.50605e-06
0.000244889
1.11812e-05
0.000264545
1.62539e-05
0.000285528
2.17424e-05
0.000308241
2.76815e-05
0.000332525
3.41073e-05
0.000358456
4.10471e-05
0.000386234
4.85359e-05
0.000415772
5.66125e-05
0.000447008
6.53074e-05
0.000480003
7.46508e-05
0.000514622
8.46713e-05
0.000550647
9.53911e-05
0.000587783
0.000106825
0.000625601
0.000118975
0.000663497
0.000131828
0.00070065
0.000145348
0.000735957
0.000159466
0.00076799
0.000174092
0.000794861
0.000189077
0.000814249
0.000204231
0.000823121
0.000219298
0.000817781
0.000233928
0.000793537
0.000247689
0.000745226
0.000259939
0.000665948
0.000270156
0.000550751
0.000391526
0.000277333
-4.48223e-05
1.82559e-05
4.51422e-05
-4.44759e-05
1.9748e-05
-4.41018e-05
2.13631e-05
-4.36966e-05
2.31116e-05
-4.32603e-05
2.50041e-05
-4.27892e-05
2.70523e-05
-4.22831e-05
2.9269e-05
-4.1738e-05
3.16681e-05
-4.11522e-05
3.42529e-05
-4.05211e-05
3.70487e-05
-3.98431e-05
4.00817e-05
-3.91129e-05
4.33624e-05
-3.83274e-05
4.69112e-05
-3.74785e-05
5.07173e-05
-3.65614e-05
5.48232e-05
-3.55711e-05
5.93109e-05
-3.45032e-05
6.41671e-05
-3.33434e-05
6.93302e-05
-3.20884e-05
7.49547e-05
-3.07308e-05
8.10968e-05
-2.92582e-05
8.76339e-05
-2.76588e-05
9.47174e-05
-2.5931e-05
0.000102484
-2.40482e-05
0.000110667
-2.20108e-05
0.000119702
-1.97988e-05
0.000129385
-1.73973e-05
0.000139824
-1.47946e-05
0.000151198
-1.19654e-05
0.000163337
-8.90089e-06
0.000176618
-5.57099e-06
0.000190786
-1.96345e-06
0.000206224
1.94907e-06
0.000222776
6.191e-06
0.000240645
1.07856e-05
0.00025995
1.57707e-05
0.000280543
2.11639e-05
0.000302849
2.69997e-05
0.00032669
3.33133e-05
0.000352143
4.01316e-05
0.000379416
4.7489e-05
0.000408416
5.54235e-05
0.000439075
6.3965e-05
0.000471462
7.3143e-05
0.000505445
8.29855e-05
0.000540805
9.35139e-05
0.000577255
0.000104743
0.000614373
0.000116673
0.000651568
0.000129292
0.000688032
0.000142563
0.000722687
0.000156421
0.000754131
0.000170778
0.000780508
0.000185489
0.000799539
0.00020037
0.000808239
0.000215174
0.000802978
0.000229554
0.000779158
0.000243093
0.000731682
0.000255179
0.00065386
0.000265375
0.000540523
0.000384026
0.000272818
-4.44199e-05
1.79451e-05
4.47312e-05
-4.40816e-05
1.94102e-05
-4.37146e-05
2.09964e-05
-4.33163e-05
2.2714e-05
-4.28858e-05
2.45737e-05
-4.24199e-05
2.65873e-05
-4.19181e-05
2.87673e-05
-4.13766e-05
3.11275e-05
-4.0794e-05
3.36703e-05
-4.01658e-05
3.64212e-05
-3.94908e-05
3.94065e-05
-3.87638e-05
4.2636e-05
-3.79824e-05
4.61295e-05
-3.71382e-05
4.98739e-05
-3.62275e-05
5.39121e-05
-3.52449e-05
5.83291e-05
-3.41866e-05
6.31085e-05
-3.30381e-05
6.81828e-05
-3.1797e-05
7.37132e-05
-3.04553e-05
7.97563e-05
-2.90014e-05
8.61798e-05
-2.74233e-05
9.31405e-05
-2.57196e-05
0.00010078
-2.38641e-05
0.000108813
-2.18572e-05
0.000117695
-1.96791e-05
0.000127208
-1.73153e-05
0.00013746
-1.47542e-05
0.000148637
-1.1971e-05
0.000160554
-8.95697e-06
0.000173605
-5.68243e-06
0.000187513
-2.13584e-06
0.000202678
1.71069e-06
0.000218929
5.87987e-06
0.000236474
1.03956e-05
0.000255433
1.52946e-05
0.000275645
2.05942e-05
0.00029755
2.63282e-05
0.000320957
3.25312e-05
0.000345941
3.92296e-05
0.000372719
4.6457e-05
0.000401189
5.42509e-05
0.000431282
6.26404e-05
0.000463074
7.16546e-05
0.000496432
8.13204e-05
0.00053114
9.16591e-05
0.000566917
0.000102685
0.000603348
0.000114398
0.000639855
0.000126786
0.000675646
0.000139814
0.000709661
0.000153418
0.000740525
0.000167513
0.000766416
0.000181961
0.000785095
0.00019658
0.000793625
0.000211131
0.000788432
0.000225273
0.000765024
0.0002386
0.000718363
0.000250522
0.000641942
0.000260648
0.000530391
0.000376437
0.000268233
-4.39937e-05
1.7643e-05
4.4298e-05
-4.36634e-05
1.90814e-05
-4.33055e-05
2.06389e-05
-4.29159e-05
2.23256e-05
-4.24944e-05
2.41524e-05
-4.2037e-05
2.61309e-05
-4.15432e-05
2.82736e-05
-4.10091e-05
3.05943e-05
-4.04332e-05
3.30945e-05
-3.98114e-05
3.58e-05
-3.91421e-05
3.87375e-05
-3.8421e-05
4.19156e-05
-3.76453e-05
4.53541e-05
-3.68078e-05
4.90373e-05
-3.59041e-05
5.30088e-05
-3.493e-05
5.7356e-05
-3.38813e-05
6.206e-05
-3.27446e-05
6.70473e-05
-3.15167e-05
7.24854e-05
-3.01908e-05
7.84316e-05
-2.87548e-05
8.47438e-05
-2.71973e-05
9.15843e-05
-2.55168e-05
9.90995e-05
-2.36877e-05
0.000106985
-2.17103e-05
0.000115717
-1.95651e-05
0.000125063
-1.72378e-05
0.000135133
-1.47173e-05
0.000146117
-1.19789e-05
0.000157816
-9.01408e-06
0.00017064
-5.79391e-06
0.000184293
-2.30648e-06
0.000199191
1.47455e-06
0.000215146
5.57289e-06
0.000232374
1.00109e-05
0.000250994
1.48251e-05
0.000270831
2.00325e-05
0.000292344
2.56661e-05
0.000315325
3.17599e-05
0.000339849
3.83397e-05
0.00036614
4.54387e-05
0.000394091
5.30933e-05
0.000423628
6.13324e-05
0.000454835
7.01841e-05
0.00048758
7.96752e-05
0.000521649
8.98261e-05
0.000556766
0.000100651
0.000592524
0.00011215
0.000628356
0.000124311
0.000663485
0.000137101
0.000696872
0.000150458
0.000727166
0.000164301
0.000752577
0.000178494
0.000770903
0.000192862
0.000779257
0.000207171
0.000774124
0.000221086
0.00075111
0.000234208
0.000705239
0.000245966
0.000630182
0.000255976
0.000520351
0.000368772
0.000263589
-4.35405e-05
1.7349e-05
4.38352e-05
-4.322e-05
1.87614e-05
-4.28716e-05
2.02908e-05
-4.24923e-05
2.19471e-05
-4.2081e-05
2.37412e-05
-4.16338e-05
2.56846e-05
-4.115e-05
2.77899e-05
-4.06257e-05
3.00708e-05
-4.00593e-05
3.25281e-05
-3.94464e-05
3.51879e-05
-3.8786e-05
3.8077e-05
-3.80734e-05
4.12036e-05
-3.73064e-05
4.45869e-05
-3.64776e-05
4.82091e-05
-3.55833e-05
5.21143e-05
-3.46191e-05
5.63927e-05
-3.35814e-05
6.10221e-05
-3.2457e-05
6.59239e-05
-3.12431e-05
7.12714e-05
-2.99328e-05
7.71225e-05
-2.85148e-05
8.33255e-05
-2.69777e-05
9.00484e-05
-2.53199e-05
9.74416e-05
-2.35166e-05
0.000105183
-2.1568e-05
0.000113768
-1.94551e-05
0.000122951
-1.71636e-05
0.000132841
-1.46827e-05
0.000143636
-1.19882e-05
0.000155122
-9.07175e-06
0.000167724
-5.90467e-06
0.000181127
-2.47588e-06
0.000195762
1.24159e-06
0.000211428
5.26962e-06
0.000228344
9.63131e-06
0.000246632
1.43619e-05
0.0002661
1.94782e-05
0.000287228
2.50126e-05
0.000309791
3.09985e-05
0.000333864
3.74612e-05
0.000359678
4.44331e-05
0.00038712
5.19501e-05
0.000416112
6.00403e-05
0.000446746
6.87316e-05
0.00047889
7.805e-05
0.000512332
8.80157e-05
0.000546801
9.86425e-05
0.000581899
0.000109931
0.000617068
0.000121871
0.000651547
0.000134429
0.000684316
0.000147546
0.000714047
0.000161145
0.000738982
0.000175093
0.000756958
0.000189218
0.000765136
0.000203294
0.000760054
0.00021699
0.000737422
0.000229914
0.000692322
0.000241507
0.000618591
0.000251368
0.000510485
0.000361217
0.000258919
-4.30577e-05
1.70633e-05
4.3345e-05
-4.2746e-05
1.84506e-05
-4.24075e-05
1.99527e-05
-4.20389e-05
2.15793e-05
-4.16386e-05
2.33412e-05
-4.12034e-05
2.52499e-05
-4.07314e-05
2.73181e-05
-4.02193e-05
2.95592e-05
-3.96645e-05
3.19736e-05
-3.90636e-05
3.45875e-05
-3.84144e-05
3.74282e-05
-3.77132e-05
4.0503e-05
-3.69571e-05
4.38311e-05
-3.61396e-05
4.73924e-05
-3.52567e-05
5.12317e-05
-3.43046e-05
5.54415e-05
-3.32795e-05
5.99972e-05
-3.2169e-05
6.48144e-05
-3.09702e-05
7.00726e-05
-2.96767e-05
7.58301e-05
-2.82771e-05
8.19259e-05
-2.67608e-05
8.85331e-05
-2.5126e-05
9.58067e-05
-2.33485e-05
0.000103406
-2.14285e-05
0.000111848
-1.93474e-05
0.00012087
-1.70913e-05
0.000130585
-1.46494e-05
0.000141195
-1.19981e-05
0.000152471
-9.12914e-06
0.000164856
-6.01458e-06
0.000178013
-2.64295e-06
0.000192391
1.01107e-06
0.000207772
4.97038e-06
0.000224383
9.25654e-06
0.000242345
1.39046e-05
0.000261453
1.8931e-05
0.000282203
2.43675e-05
0.000304355
3.02468e-05
0.000327985
3.65937e-05
0.000353332
4.34401e-05
0.000380274
5.08212e-05
0.000408731
5.87647e-05
0.000438802
6.72978e-05
0.000470357
7.64462e-05
0.000503184
8.62298e-05
0.000537017
9.66625e-05
0.000571466
0.000107746
0.000605985
0.000119469
0.000639824
0.000131801
0.000671984
0.000144686
0.000701159
0.000158048
0.000725624
0.000171759
0.000743248
0.000185651
0.000751245
0.000199501
0.000746206
0.000212984
0.000723941
0.000225714
0.000679592
0.000237142
0.00060716
0.000246833
0.000500764
0.00035374
0.000254262
-4.25498e-05
1.67848e-05
4.28286e-05
-4.22471e-05
1.8148e-05
-4.19178e-05
1.96236e-05
-4.15596e-05
2.12215e-05
-4.11702e-05
2.29521e-05
-4.07467e-05
2.4827e-05
-4.0287e-05
2.68586e-05
-3.97875e-05
2.90604e-05
-3.9246e-05
3.14322e-05
-3.86583e-05
3.40003e-05
-3.80228e-05
3.67926e-05
-3.73349e-05
3.98158e-05
-3.65926e-05
4.30885e-05
-3.57886e-05
4.65891e-05
-3.49198e-05
5.03625e-05
-3.39817e-05
5.45042e-05
-3.29715e-05
5.89867e-05
-3.18764e-05
6.37203e-05
-3.06943e-05
6.88902e-05
-2.94186e-05
7.45555e-05
-2.80386e-05
8.05457e-05
-2.65436e-05
8.70392e-05
-2.49324e-05
9.41953e-05
-2.3181e-05
0.000101655
-2.12898e-05
0.000109957
-1.92404e-05
0.000118822
-1.70194e-05
0.000128364
-1.46163e-05
0.000138792
-1.20077e-05
0.000149862
-9.18574e-06
0.000162034
-6.12274e-06
0.000174951
-2.8081e-06
0.000189076
7.8412e-07
0.000204179
4.67498e-06
0.00022049
8.88672e-06
0.000238132
1.34533e-05
0.000256886
1.83909e-05
0.000277266
2.37306e-05
0.000299016
2.95047e-05
0.000322212
3.57374e-05
0.0003471
4.24601e-05
0.000373552
4.97074e-05
0.000401485
5.75065e-05
0.000431004
6.58842e-05
0.00046198
7.48658e-05
0.000494203
8.44711e-05
0.000527412
9.47141e-05
0.000561224
0.000105597
0.000595102
0.000117109
0.000628312
0.000129223
0.000659872
0.000141882
0.000688498
0.000155015
0.000712495
0.000168496
0.00072977
0.000182162
0.000737584
0.000195791
0.000732581
0.000209066