/*--------------------------------*- C++ -*----------------------------------*\
  =========                 |
  \\      /  F ield         | OpenFOAM: The Open Source CFD Toolbox
   \\    /   O peration     | Website:  https://openfoam.org
    \\  /    A nd           | Version:  6.0
     \\/     M anipulation  |
\*---------------------------------------------------------------------------*/
FoamFile
{
    version     2.0;
    format      ascii;
    class       volVectorField;
    location    "3.5";
    object      U;
}
// * * * * * * * * * * * * * * * * * * * * * * * * * * * * * * * * * * * * * //

dimensions      [0 1 -1 0 0 0 0];

internalField   nonuniform List<vector> 
13500
(
(1 2.616e-06 -4.2605e-18)
(1 -3.1039e-06 2.8852e-18)
(1 -5.8337e-06 -1.2398e-17)
(1 -1.0299e-05 -8.5857e-18)
(1 -9.3111e-06 1.6122e-17)
(1 -9.3044e-06 3.0046e-17)
(1 -1.4211e-06 2.5685e-17)
(0.99998 1.4837e-05 -4.1466e-18)
(0.99993 3.6304e-05 1.5203e-17)
(0.9998 7.5268e-05 3.2382e-18)
(0.99571 0.00075737 2.8556e-17)
(1.019 0.010844 7.707e-18)
(1 8.1707e-06 2.6395e-18)
(1 -8.3297e-06 -8.7621e-18)
(1 -1.5363e-05 5.9208e-18)
(1 -2.8198e-05 -3.3866e-19)
(1 -2.3859e-05 -4.2995e-19)
(1 -2.4365e-05 -3.6128e-17)
(1 1.5161e-06 -4.4362e-17)
(0.99993 4.7867e-05 -2.3726e-17)
(0.99975 0.00012129 -1.5173e-17)
(0.99982 0.00018732 -1.6013e-18)
(0.98616 0.0021932 -1.3523e-17)
(1.0534 0.03066 -4.6664e-18)
(1 1.3722e-05 -3.4092e-18)
(1 -1.3661e-05 1.7408e-17)
(1 -2.5076e-05 3.0796e-18)
(1 -4.6491e-05 9.8991e-18)
(1 -3.8608e-05 -3.7177e-18)
(1 -4.0225e-05 2.894e-17)
(1 4.7735e-06 -6.2444e-18)
(0.99989 7.9814e-05 5.3894e-18)
(0.99956 0.00021432 -1.8407e-17)
(1.0003 0.00031522 2.4327e-17)
(0.97595 0.0032781 -7.0703e-18)
(1.0819 0.045219 1.6359e-18)
(1 1.9219e-05 8.9124e-18)
(1 -1.9241e-05 -1.6878e-17)
(1 -3.5239e-05 -1.4599e-17)
(1 -6.5482e-05 -6.9457e-19)
(1 -5.4024e-05 5.7389e-18)
(1.0001 -5.7018e-05 -8.0306e-19)
(1 7.6688e-06 6.1527e-17)
(0.99986 0.0001104 9.71e-18)
(0.99933 0.00031432 2.1766e-17)
(1.0013 0.00046309 -8.812e-18)
(0.96547 0.0040384 3.4429e-17)
(1.1032 0.055794 -7.4461e-18)
(1 2.471e-05 -6.2623e-18)
(1 -2.4854e-05 1.4587e-17)
(1 -4.5462e-05 1.2427e-17)
(1 -8.457e-05 1.267e-17)
(1 -6.9522e-05 2.814e-18)
(1.0001 -7.3951e-05 2.1271e-17)
(1 1.0676e-05 -2.7475e-17)
(0.99984 0.00013996 1.9723e-18)
(0.99905 0.00042024 -1.3346e-17)
(1.0026 0.00063296 -2.1026e-18)
(0.95513 0.0045242 -8.9298e-18)
(1.1172 0.063517 2.0649e-18)
(0.99999 3.0197e-05 6.3375e-18)
(1 -3.0496e-05 -6.0471e-18)
(1 -5.5749e-05 3.7953e-18)
(1 -0.00010375 -2.5097e-17)
(1.0001 -8.5108e-05 -8.2434e-20)
(1.0001 -9.1034e-05 -4.211e-17)
(1 1.3791e-05 1.0542e-18)
(0.99983 0.00016832 -1.5832e-17)
(0.99872 0.00053068 5.0821e-18)
(1.0043 0.00083143 -2.1185e-17)
(0.94526 0.0047778 -2.1496e-17)
(1.1246 0.068998 1.9954e-18)
(0.99999 3.5682e-05 -1.049e-18)
(1 -3.6171e-05 -7.2324e-18)
(1 -6.61e-05 -3.0844e-18)
(1.0001 -0.00012303 1.8943e-17)
(1.0001 -0.00010078 -2.6063e-17)
(1.0001 -0.0001083 1.6113e-17)
(1 1.7061e-05 1.8376e-17)
(0.99983 0.0001954 5.5699e-18)
(0.99832 0.00064433 1.1361e-17)
(1.0064 0.0010648 1.1405e-17)
(0.93616 0.0048369 9.2603e-18)
(1.1264 0.072665 3.202e-18)
(0.99999 4.1163e-05 -2.1653e-18)
(1 -4.1881e-05 -1.4228e-18)
(1 -7.6519e-05 -2.6571e-17)
(1.0001 -0.00014242 -9.0457e-18)
(1.0001 -0.00011653 7.2949e-18)
(1.0001 -0.00012578 2.6406e-17)
(1 2.0503e-05 1.1696e-17)
(0.99984 0.0002211 4.9726e-18)
(0.99784 0.00075983 -7.4258e-18)
(1.0088 0.001337 1.5974e-17)
(0.92806 0.004738 7.4783e-18)
(1.1235 0.074877 -1.0181e-17)
(0.99999 4.664e-05 -6.7219e-18)
(1 -4.7626e-05 6.1168e-18)
(1 -8.7008e-05 4.4677e-17)
(1.0001 -0.00016193 -1.085e-17)
(1.0001 -0.00013238 2.7318e-17)
(1.0001 -0.00014347 -5.2135e-17)
(1 2.4118e-05 -3.8962e-17)
(0.99987 0.00024537 9.6628e-18)
(0.99729 0.00087584 -5.5772e-18)
(1.0114 0.0016493 -8.8105e-18)
(0.92112 0.0045157 -1.3818e-17)
(1.117 0.07594 1.3318e-17)
(0.99999 5.2114e-05 4.4286e-18)
(1 -5.3409e-05 2.3024e-18)
(1 -9.7571e-05 -3.7845e-17)
(1.0001 -0.00018155 1.5442e-17)
(1.0001 -0.00014833 -1.1913e-17)
(1.0001 -0.00016141 2.2235e-17)
(1 2.7906e-05 1.3846e-17)
(0.99993 0.00026819 2.443e-18)
(0.99665 0.00099108 5.2674e-19)
(1.0141 0.0020012 1.3955e-18)
(0.91543 0.0042022 4.3959e-18)
(1.1077 0.076106 -6.9832e-19)
(0.99998 5.7583e-05 -2.4315e-18)
(1 -5.9229e-05 -7.5512e-18)
(1 -0.00010821 9.2768e-18)
(1.0001 -0.0002013 -2.7246e-18)
(1.0001 -0.00016439 1.8389e-18)
(1.0002 -0.00017959 -2.4369e-17)
(1.0001 3.1869e-05 -3.1889e-17)
(1 0.00028956 -3.1026e-17)
(0.99593 0.0011043 1.5589e-17)
(1.017 0.0023909 1.8125e-18)
(0.91105 0.0038269 -1.1151e-17)
(1.0966 0.075583 -5.7375e-18)
(0.99998 6.3048e-05 3.3561e-18)
(0.99999 -6.5089e-05 2.8522e-18)
(1 -0.00011893 4.4708e-18)
(1.0001 -0.00022117 -2.1715e-18)
(1.0001 -0.00018056 -5.5124e-18)
(1.0002 -0.00019804 9.217e-18)
(1.0001 3.6005e-05 1.8459e-17)
(1.0001 0.0003095 1.9167e-17)
(0.99513 0.0012145 1.0016e-17)
(1.0199 0.0028151 -2.2892e-17)
(0.90798 0.0034161 1.1694e-19)
(1.0842 0.074541 -6.6402e-18)
(0.99998 6.8507e-05 -3.3556e-18)
(0.99999 -7.099e-05 5.6089e-18)
(1 -0.00012974 8.106e-18)
(1.0001 -0.00024118 5.6698e-18)
(1.0001 -0.00019685 -5.1128e-18)
(1.0002 -0.00021678 4.5312e-18)
(1.0001 4.031e-05 4.2093e-18)
(1.0002 0.00032807 -1.7116e-18)
(0.99424 0.0013205 -1.6189e-17)
(1.0228 0.0032696 2.1228e-17)
(0.90618 0.0029931 1.0403e-19)
(1.0711 0.073119 1.4227e-18)
(0.99997 7.396e-05 5.1029e-18)
(0.99999 -7.6932e-05 -4.3783e-18)
(1 -0.00014063 7.097e-19)
(1.0001 -0.00026132 -4.7299e-18)
(1.0002 -0.00021328 1.1611e-17)
(1.0002 -0.00023581 5.5289e-18)
(1.0001 4.4776e-05 1.6937e-17)
(1.0004 0.00034533 -6.3574e-18)
(0.99327 0.0014215 -1.978e-19)
(1.0257 0.0037498 5.2126e-18)
(0.90558 0.0025776 1.6925e-17)
(1.058 0.071431 9.0747e-19)
(0.99997 7.9407e-05 1.2308e-18)
(0.99999 -8.2918e-05 9.7172e-18)
(1 -0.00015161 1.3555e-17)
(1.0001 -0.0002816 -4.716e-18)
(1.0002 -0.00022983 8.4079e-18)
(1.0002 -0.00025517 -2.581e-18)
(1.0001 4.9393e-05 -2.9663e-17)
(1.0005 0.00036139 2.0124e-17)
(0.99223 0.0015167 -1.8254e-17)
(1.0285 0.0042504 -3.0068e-17)
(0.9061 0.0021864 -3.7151e-18)
(1.0452 0.069567 8.4059e-19)
(0.99996 8.4848e-05 -3.1399e-18)
(0.99998 -8.8949e-05 -1.0334e-17)
(1 -0.00016269 -3.2535e-17)
(1.0001 -0.00030203 7.9454e-18)
(1.0002 -0.00024654 -1.2759e-17)
(1.0003 -0.00027486 8.2759e-18)
(1.0001 5.4146e-05 -2.7753e-18)
(1.0007 0.00037636 -1.2114e-17)
(0.99112 0.0016054 4.0088e-18)
(1.0311 0.0047661 1.7955e-17)
(0.90763 0.001833 -7.7981e-18)
(1.033 0.067603 1.1666e-17)
(0.99996 9.0281e-05 3.3039e-19)
(0.99998 -9.5026e-05 7.7292e-18)
(1 -0.00017386 2.2463e-17)
(1.0001 -0.00032261 -1.7895e-18)
(1.0002 -0.00026339 -1.2676e-17)
(1.0003 -0.0002949 -1.5422e-17)
(1.0001 5.9014e-05 1.0601e-17)
(1.001 0.00039038 6.9481e-18)
(0.98994 0.001687 2.3166e-17)
(1.0337 0.0052916 -2.5136e-18)
(0.91006 0.0015279 1.9379e-18)
(1.0216 0.065596 -4.6547e-18)
(0.99996 9.5707e-05 -1.8536e-18)
(0.99998 -0.00010115 -9.3654e-18)
(1 -0.00018514 -1.0136e-17)
(1.0001 -0.00034334 5.98e-18)
(1.0002 -0.00028041 -7.1192e-18)
(1.0003 -0.00031532 -1.2371e-17)
(1.0001 6.3974e-05 1.0306e-17)
(1.0013 0.00040361 -4.7133e-18)
(0.9887 0.0017609 -2.8667e-17)
(1.036 0.0058218 -1.4086e-17)
(0.91327 0.0012788 8.4117e-18)
(1.0113 0.063593 -5.0471e-18)
(0.99995 0.00010112 -2.6543e-18)
(0.99997 -0.00010732 -3.5399e-18)
(1 -0.00019652 -7.5118e-19)
(1.0001 -0.00036424 -2.6187e-17)
(1.0002 -0.00029759 5.9732e-18)
(1.0003 -0.00033611 5.3866e-18)
(1 6.8997e-05 -1.9583e-17)
(1.0016 0.00041621 -1.6094e-17)
(0.98742 0.0018268 4.1938e-18)
(1.0381 0.0063519 -1.0572e-18)
(0.91713 0.0010908 -9.7132e-18)
(1.002 0.061629 9.5464e-19)
(0.99994 0.00010653 3.4524e-18)
(0.99997 -0.00011355 1.6227e-17)
(1 -0.00020801 1.9343e-17)
(1.0002 -0.0003853 2.4658e-18)
(1.0002 -0.00031495 1.6513e-17)
(1.0004 -0.00035731 9.4403e-18)
(1 7.4046e-05 2.8268e-18)
(1.0019 0.00042837 1.7615e-17)
(0.98609 0.0018842 2.0831e-17)
(1.0399 0.0068775 1.6819e-17)
(0.92155 0.00096667 7.2509e-18)
(0.99396 0.059731 1.1324e-18)
(0.99994 0.00011193 -1.6456e-18)
(0.99997 -0.00011983 -3.8935e-18)
(1 -0.00021962 -2.0608e-17)
(1.0002 -0.00040652 -2.3355e-18)
(1.0002 -0.0003325 -1.2515e-17)
(1.0004 -0.00037892 -5.1081e-18)
(1 7.9083e-05 -1.814e-18)
(1.0023 0.0004403 -1.5929e-17)
(0.98474 0.0019328 -1.9916e-17)
(1.0416 0.0073945 8.6191e-18)
(0.92639 0.00090721 4.9876e-19)
(0.98707 0.057917 6.4983e-19)
(0.99993 0.00011733 4.362e-18)
(0.99996 -0.00012616 -5.087e-18)
(1 -0.00023134 -1.9329e-17)
(1.0002 -0.00042793 4.4395e-17)
(1.0002 -0.00035024 1.8155e-17)
(1.0004 -0.00040097 -1.25e-17)
(0.99996 8.406e-05 2.4389e-17)
(1.0027 0.0004522 2.1529e-17)
(0.98336 0.0019724 3.2316e-17)
(1.0429 0.0078994 -3.1588e-17)
(0.93156 0.0009115 -1.3319e-17)
(0.98135 0.056201 1.7122e-19)
(0.99993 0.00012271 -3.1929e-18)
(0.99996 -0.00013254 -1.0209e-18)
(1 -0.00024318 3.3e-17)
(1.0002 -0.00044951 -3.356e-17)
(1.0002 -0.00036818 -1.7476e-18)
(1.0004 -0.00042346 4.1416e-17)
(0.99992 8.8925e-05 7.5581e-18)
(1.0032 0.00046431 -3.3252e-18)
(0.98197 0.0020028 -2.0041e-17)
(1.044 0.008389 3.7223e-17)
(0.93695 0.00097726 -5.644e-18)
(0.97676 0.054591 -2.7234e-19)
(0.99992 0.00012808 -1.6278e-18)
(0.99995 -0.00013898 -2.0342e-18)
(1 -0.00025515 1.7187e-18)
(1.0002 -0.00047128 3.4915e-17)
(1.0003 -0.00038633 -9.8537e-18)
(1.0005 -0.00044641 -3.0613e-17)
(0.99988 9.3619e-05 -1.9271e-17)
(1.0037 0.00047685 -3.5807e-18)
(0.98059 0.0020237 6.3366e-18)
(1.0449 0.0088606 -3.1399e-17)
(0.94248 0.001101 9.4523e-18)
(0.97323 0.053091 2.9506e-18)
(0.99991 0.00013344 2.69e-18)
(0.99995 -0.00014549 1.4158e-17)
(1 -0.00026725 -1.2674e-17)
(1.0002 -0.00049324 -3.6555e-18)
(1.0003 -0.0004047 -1.8911e-17)
(1.0005 -0.00046983 3.3306e-17)
(0.99982 9.8077e-05 -1.6916e-17)
(1.0042 0.00049007 1.4847e-17)
(0.97921 0.0020351 -1.9529e-18)
(1.0454 0.009312 2.9436e-17)
(0.94807 0.0012786 -9.2269e-18)
(0.97068 0.051702 -4.9234e-18)
(0.9999 0.00013879 -5.1593e-19)
(0.99994 -0.00015205 -8.1427e-18)
(1 -0.00027948 -1.7748e-17)
(1.0002 -0.00051539 -1.0018e-17)
(1.0003 -0.00042331 1.8343e-17)
(1.0005 -0.00049374 -4.2472e-17)
(0.99975 0.00010223 -2.61e-18)
(1.0048 0.00050421 -2.0059e-17)
(0.97785 0.0020369 3.1538e-18)
(1.0457 0.0097413 -8.49e-18)
(0.95364 0.001505 9.821e-18)
(0.96903 0.050422 2.0881e-18)
(0.9999 0.00014413 2.7029e-18)
(0.99993 -0.00015867 -8.7226e-18)
(1 -0.00029184 -1.7538e-18)
(1.0002 -0.00053775 2.4345e-18)
(1.0003 -0.00044215 5.8057e-18)
(1.0006 -0.00051814 1.2272e-17)
(0.99968 0.00010599 4.2795e-17)
(1.0054 0.00051953 2.3974e-18)
(0.97652 0.002029 5.1384e-18)
(1.0457 0.010147 9.3559e-18)
(0.95913 0.001775 -8.4019e-18)
(0.96818 0.049248 1.6029e-18)
(0.99989 0.00014946 -1.5498e-18)
(0.99993 -0.00016536 8.7146e-18)
(1 -0.00030436 2.5228e-17)
(1.0002 -0.00056031 -2.4528e-17)
(1.0003 -0.00046125 -9.031e-18)
(1.0006 -0.00054304 -2.16e-18)
(0.99959 0.00010927 -1.4106e-17)
(1.006 0.00053626 1.8601e-18)
(0.97524 0.0020113 -8.904e-18)
(1.0455 0.010528 -3.4392e-18)
(0.96448 0.0020829 -2.3883e-19)
(0.96804 0.048175 -1.959e-18)
(0.99988 0.00015477 -1.6658e-18)
(0.99992 -0.00017212 5.2165e-18)
(1 -0.00031701 -6.0998e-19)
(1.0002 -0.00058309 8.1332e-18)
(1.0003 -0.00048061 -1.6664e-17)
(1.0007 -0.00056846 2.4437e-17)
(0.99949 0.00011199 7.0354e-18)
(1.0067 0.00055467 -1.7745e-17)
(0.974 0.001984 -1.1415e-17)
(1.045 0.010884 -1.3613e-17)
(0.96965 0.0024233 1.3309e-18)
(0.96852 0.047197 -3.588e-18)
(0.99987 0.00016007 5.7891e-19)
(0.99991 -0.00017894 -1.2458e-17)
(1 -0.00032982 1.5623e-17)
(1.0002 -0.00060608 2.2497e-17)
(1.0003 -0.00050024 3.2662e-17)
(1.0007 -0.0005944 -1.7947e-17)
(0.99938 0.00011404 -1.7492e-17)
(1.0074 0.000575 3.6006e-18)
(0.97283 0.001947 1.0696e-17)
(1.0443 0.011213 1.0656e-17)
(0.97459 0.0027904 6.2003e-18)
(0.96951 0.046307 3.5661e-18)
(0.99986 0.00016536 1.1095e-18)
(0.99991 -0.00018583 9.9069e-18)
(1 -0.00034279 -3.5895e-17)
(1.0002 -0.00062929 -3.2592e-18)
(1.0003 -0.00052015 -2.7133e-17)
(1.0008 -0.00062086 -1.1306e-17)
(0.99925 0.00011532 2.4629e-20)
(1.0081 0.0005975 -4.1195e-18)
(0.97172 0.0019004 -2.107e-17)
(1.0434 0.011516 -1.7013e-17)
(0.97928 0.0031789 -8.4697e-18)
(0.97094 0.045497 -1.7566e-18)
(0.99985 0.00017064 -7.1908e-19)
(0.9999 -0.00019279 -6.4431e-18)
(1 -0.00035591 2.8244e-17)
(1.0002 -0.00065274 -3.1104e-17)
(1.0003 -0.00054037 -2.0413e-18)
(1.0008 -0.00064784 2.4076e-17)
(0.99911 0.0001157 6.9988e-19)
(1.0088 0.00062241 3.9279e-18)
(0.97069 0.0018444 1.8445e-17)
(1.0423 0.011792 2.2115e-17)
(0.98369 0.0035834 4.8451e-18)
(0.97271 0.044761 -9.8065e-19)
(0.99984 0.0001759 -1.8721e-18)
(0.99989 -0.00019983 -2.3763e-18)
(1 -0.00036921 -1.2521e-17)
(1.0002 -0.00067641 1.5495e-17)
(1.0003 -0.00056089 2.9822e-17)
(1.0009 -0.00067536 -1.0641e-17)
(0.99896 0.00011507 2.1784e-17)
(1.0096 0.00064996 2.9443e-18)
(0.96974 0.001779 -2.0889e-18)
(1.041 0.012042 1.0004e-17)
(0.98779 0.003999 -5.4158e-18)
(0.97475 0.044091 -6.8282e-19)
(0.99983 0.00018114 4.6819e-19)
(0.99988 -0.00020694 -6.2842e-18)
(0.99999 -0.00038267 4.6875e-18)
(1.0002 -0.00070033 -1.5793e-17)
(1.0004 -0.00058174 -3.1544e-17)
(1.0009 -0.0007034 6.7063e-18)
(0.99879 0.00011329 -3.1427e-17)
(1.0104 0.00068037 -6.7325e-18)
(0.96889 0.0017045 6.7765e-18)
(1.0395 0.012265 -3.14e-17)
(0.99158 0.0044211 3.7075e-18)
(0.97699 0.04348 1.9296e-18)
(0.99982 0.00018638 8.2225e-19)
(0.99987 -0.00021413 1.7026e-17)
(0.99999 -0.00039631 7.8491e-18)
(1.0002 -0.00072449 6.4328e-18)
(1.0004 -0.00060292 2.5224e-17)
(1.001 -0.00073197 1.9999e-18)
(0.99861 0.00011022 2.1701e-17)
(1.0112 0.00071386 4.8286e-18)
(0.96814 0.0016212 -2.0594e-17)
(1.0378 0.012463 1.081e-17)
(0.99505 0.0048451 2.5074e-18)
(0.97937 0.042921 2e-18)
(0.99981 0.00019159 -2.8713e-18)
(0.99986 -0.00022139 -5.6044e-18)
(0.99998 -0.00041013 -6.8956e-18)
(1.0002 -0.00074891 1.0565e-17)
(1.0004 -0.00062446 1.2186e-17)
(1.0011 -0.00076106 -3.982e-18)
(0.99842 0.00010572 -1.8228e-17)
(1.0121 0.00075063 2.1987e-17)
(0.96749 0.0015292 3.8145e-18)
(1.0361 0.012634 -3.2659e-18)
(0.99819 0.0052673 1.0372e-17)
(0.98182 0.042407 -1.3897e-18)
(0.9998 0.00019679 5.9001e-18)
(0.99985 -0.00022874 6.712e-18)
(0.99997 -0.00042414 -7.3306e-18)
(1.0002 -0.00077358 -6.5819e-18)
(1.0004 -0.00064636 -1.7487e-17)
(1.0011 -0.00079066 -6.8402e-18)
(0.99821 9.9638e-05 8.9872e-18)
(1.0129 0.00079087 -3.5267e-17)
(0.96695 0.001429 9.335e-18)
(1.0342 0.012781 -3.8606e-18)
(1.001 0.0056839 -1.0984e-17)
(0.9843 0.041932 4.0353e-18)
(0.99979 0.00020197 -2.604e-18)
(0.99984 -0.00023618 -1.1793e-17)
(0.99997 -0.00043834 -7.1052e-18)
(1.0002 -0.00079851 -1.2491e-17)
(1.0004 -0.00066864 -5.3397e-18)
(1.0012 -0.00082075 2.0114e-17)
(0.99799 9.1801e-05 -8.8284e-18)
(1.0137 0.00083475 3.9233e-17)
(0.96652 0.0013209 8.8011e-18)
(1.0322 0.012903 1.1715e-17)
(1.0035 0.0060916 4.6296e-18)
(0.98676 0.04149 -6.5431e-18)
(0.99977 0.00020714 -1.3813e-18)
(0.99983 -0.00024369 8.7705e-18)
(0.99996 -0.00045274 1.4078e-17)
(1.0003 -0.00082371 3.3677e-17)
(1.0004 -0.00069132 7.0778e-18)
(1.0013 -0.00085133 -1.3796e-17)
(0.99775 8.2042e-05 4.2604e-18)
(1.0146 0.00088244 -4.2209e-17)
(0.96621 0.0012053 -1.0675e-17)
(1.0301 0.013002 -6.5139e-18)
(1.0057 0.0064876 4.5416e-18)
(0.98916 0.041075 6.5782e-18)
(0.99976 0.00021229 1.0572e-18)
(0.99982 -0.0002513 2.0765e-18)
(0.99995 -0.00046734 -1.3826e-17)
(1.0003 -0.00084919 -5.6094e-18)
(1.0004 -0.00071442 8.9875e-18)
(1.0014 -0.00088237 1.6515e-17)
(0.99749 7.0181e-05 1.4814e-17)
(1.0154 0.00093407 4.1777e-18)
(0.96602 0.0010826 1.1942e-17)
(1.028 0.013077 -3.0184e-18)
(1.0075 0.0068692 -8.1076e-18)
(0.99148 0.040682 -1.6966e-18)
(0.99975 0.00021742 -4.3293e-20)
(0.99981 -0.000259 2.3666e-18)
(0.99995 -0.00048215 3.09e-18)
(1.0003 -0.00087495 -7.2828e-18)
(1.0004 -0.00073794 8.3987e-20)
(1.0015 -0.00091386 -1.4974e-17)
(0.99723 5.603e-05 -1.0021e-17)
(1.0163 0.00098977 3.091e-17)
(0.96595 0.0009535 -1.8046e-17)
(1.0259 0.01313 1.1721e-17)
(1.0091 0.0072342 4.2817e-18)
(0.99369 0.040307 -4.7897e-18)
(0.99973 0.00022253 -3.2748e-18)
(0.9998 -0.00026678 -1.1099e-17)
(0.99994 -0.00049718 7.8898e-18)
(1.0003 -0.00090099 -1.9892e-17)
(1.0004 -0.00076193 -2.273e-17)
(1.0016 -0.00094577 -2.0688e-17)
(0.99694 3.9396e-05 -2.0422e-17)
(1.0171 0.0010497 -3.1654e-18)
(0.966 0.00081841 1.577e-17)
(1.0237 0.013161 -1.0055e-17)
(1.0104 0.0075806 4.2529e-19)
(0.99576 0.039945 4.5108e-18)
(0.99972 0.00022762 6.3209e-18)
(0.99979 -0.00027467 1.16e-17)
(0.99993 -0.00051243 -1.2725e-17)
(1.0003 -0.00092732 1.6331e-17)
(1.0004 -0.00078638 -2.6662e-18)
(1.0017 -0.00097807 1.356e-17)
(0.99665 2.0073e-05 2.4547e-17)
(1.0179 0.0011138 -2.3978e-17)
(0.96617 0.00067798 -7.9963e-18)
(1.0215 0.013172 1.0618e-17)
(1.0115 0.0079068 3.6998e-18)
(0.9977 0.039593 -2.1337e-18)
(0.99971 0.00023269 -4.7431e-18)
(0.99978 -0.00028265 -3.428e-18)
(0.99992 -0.0005279 -2.6611e-18)
(1.0003 -0.00095395 1.8688e-17)
(1.0004 -0.00081134 -5.7075e-18)
(1.0018 -0.0010107 -1.7203e-19)
(0.99634 -2.1477e-06 -4.8033e-18)
(1.0187 0.0011823 1.9206e-17)
(0.96646 0.00053284 -7.592e-18)
(1.0193 0.013162 -7.2908e-18)
(1.0123 0.0082114 -1.0937e-17)
(0.99947 0.039247 2.4794e-18)
(0.99969 0.00023774 3.2243e-18)
(0.99976 -0.00029072 -4.347e-18)
(0.99991 -0.00054361 6.0909e-18)
(1.0003 -0.00098088 -2.8356e-17)
(1.0004 -0.00083681 3.8664e-17)
(1.0019 -0.0010437 5.619e-18)
(0.99602 -2.7484e-05 1.8951e-17)
(1.0195 0.0012551 -1.1885e-17)
(0.96687 0.00038368 1.0037e-19)
(1.0172 0.013133 5.4219e-18)
(1.0128 0.0084933 -2.127e-18)
(1.0011 0.038904 -9.329e-19)
(0.99968 0.00024277 -9.2236e-19)
(0.99975 -0.00029891 8.4979e-19)
(0.9999 -0.00055956 1.4842e-17)
(1.0003 -0.0010081 7.7304e-18)
(1.0004 -0.00086282 -1.933e-17)
(1.002 -0.001077 -1.1007e-17)
(0.99569 -5.6159e-05 3.3084e-18)
(1.0203 0.0013324 -5.7781e-18)
(0.96739 0.0002312 1.2702e-17)
(1.0151 0.013086 -3.5592e-18)
(1.0132 0.0087517 1.0239e-17)
(1.0025 0.038562 -3.4037e-18)
(0.99966 0.00024778 -1.6056e-18)
(0.99974 -0.00030719 -8.1918e-18)
(0.99989 -0.00057575 -4.4128e-18)
(1.0003 -0.0010357 3.1046e-17)
(1.0004 -0.0008894 -1.7223e-17)
(1.0021 -0.0011104 -9.3297e-19)
(0.99535 -8.8404e-05 -4.9482e-17)
(1.021 0.001414 5.6795e-18)
(0.96803 7.615e-05 -2.3754e-17)
(1.013 0.013021 -7.6865e-18)
(1.0134 0.0089859 -1.0237e-17)
(1.0038 0.038217 2.021e-18)
(0.99964 0.00025277 -6.9326e-19)
(0.99972 -0.00031558 5.0751e-18)
(0.99988 -0.0005922 -1.8216e-18)
(1.0003 -0.0010636 -1.8077e-17)
(1.0004 -0.00091657 2.475e-17)
(1.0023 -0.0011441 -2.2928e-18)
(0.995 -0.00012445 2.621e-17)
(1.0217 0.0015 -3.4917e-18)
(0.96877 -8.0698e-05 1.1533e-17)
(1.0111 0.012939 9.6134e-18)
(1.0134 0.0091955 8.4445e-18)
(1.0049 0.037869 -4.885e-19)
(0.99963 0.00025774 3.9297e-18)
(0.99971 -0.00032408 -3.0369e-18)
(0.99987 -0.00060891 -6.3738e-18)
(1.0003 -0.0010918 1.9732e-17)
(1.0004 -0.00094437 1.8168e-18)
(1.0024 -0.0011779 2.8419e-17)
(0.99464 -0.00016454 4.5211e-18)
(1.0224 0.0015903 1.6682e-17)
(0.96962 -0.00023856 4.3266e-18)
(1.0092 0.012842 -3.1105e-18)
(1.0133 0.0093803 1.0985e-18)
(1.0059 0.037516 4.4224e-19)
(0.99961 0.00026268 1.1207e-18)
(0.99969 -0.0003327 1.2415e-18)
(0.99986 -0.00062588 -5.7803e-18)
(1.0003 -0.0011203 -3.9296e-17)
(1.0004 -0.00097282 5.5016e-18)
(1.0026 -0.0012117 2.4661e-18)
(0.99427 -0.00020891 -1.9604e-17)
(1.023 0.0016849 2.3472e-19)
(0.97056 -0.00039663 1.275e-17)
(1.0074 0.01273 -1.9998e-18)
(1.013 0.0095402 -5.3479e-18)
(1.0067 0.037156 2.606e-18)
(0.99959 0.0002676 -4.7987e-18)
(0.99968 -0.00034142 5.2631e-18)
(0.99985 -0.00064313 9.5248e-19)
(1.0003 -0.0011491 2.1822e-17)
(1.0003 -0.001002 -2.5096e-17)
(1.0027 -0.0012455 -1.0887e-17)
(0.99389 -0.00025781 2.005e-17)
(1.0236 0.0017835 -1.13e-17)
(0.97159 -0.0005541 -2.0157e-17)
(1.0057 0.012603 -9.8815e-18)
(1.0127 0.0096753 6.8106e-18)
(1.0074 0.036787 8.6813e-19)
(0.99957 0.00027249 -5.079e-19)
(0.99966 -0.00035027 -5.2965e-18)
(0.99984 -0.00066066 1.0149e-17)
(1.0003 -0.0011783 9.6774e-18)
(1.0003 -0.0010318 3.0998e-17)
(1.0029 -0.0012793 4.1837e-18)
(0.99352 -0.00031148 1.7808e-17)
(1.0242 0.0018862 2.8648e-17)
(0.97271 -0.00071017 -8.9143e-19)
(1.0041 0.012464 1.7381e-17)
(1.0122 0.0097861 -7.2077e-19)
(1.008 0.03641 -2.5351e-18)
(0.99955 0.00027736 4.9223e-18)
(0.99965 -0.00035924 -7.7119e-18)
(0.99983 -0.00067848 -1.5406e-17)
(1.0003 -0.0012079 -2.5709e-18)
(1.0003 -0.0010624 -3.3645e-17)
(1.003 -0.0013129 -1.2447e-17)
(0.99313 -0.00037016 -6.1819e-18)
(1.0247 0.0019926 2.149e-19)
(0.9739 -0.00086403 2.6234e-17)
(1.0027 0.012313 4.005e-18)
(1.0117 0.0098728 -9.3454e-18)
(1.0084 0.036023 1.5197e-18)
(0.99954 0.00028221 -5.5187e-18)
(0.99963 -0.00036832 9.6332e-18)
(0.99981 -0.0006966 8.0641e-18)
(1.0003 -0.0012378 -5.1247e-18)
(1.0003 -0.0010938 2.7059e-17)
(1.0032 -0.0013463 1.4893e-17)
(0.99275 -0.00043409 -4.8866e-18)
(1.0251 0.0021026 -2.8871e-17)
(0.97516 -0.0010149 -8.9143e-19)
(1.0013 0.012151 -1.1445e-17)
(1.0111 0.0099361 1.1063e-17)
(1.0087 0.035625 -1.9909e-18)
(0.99952 0.00028703 3.3163e-18)
(0.99961 -0.00037754 -1.8437e-18)
(0.9998 -0.00071501 1.0679e-17)
(1.0003 -0.001268 -2.1566e-17)
(1.0003 -0.001126 8.8369e-18)
(1.0034 -0.0013794 -5.3493e-18)
(0.99236 -0.0005035 -1.0528e-17)
(1.0255 0.002216 -2.3181e-18)
(0.97649 -0.001162 -3.1663e-17)
(1.0001 0.011979 7.5504e-18)
(1.0105 0.0099767 -1.0129e-17)
(1.009 0.035218 6.6381e-19)
(0.9995 0.00029182 2.6228e-19)
(0.99959 -0.00038688 -5.8001e-18)
(0.99979 -0.00073374 6.0652e-18)
(1.0003 -0.0012987 2.8386e-17)
(1.0003 -0.0011591 -2.1046e-17)
(1.0036 -0.001412 1.7214e-17)
(0.99198 -0.00057861 -6.0868e-18)
(1.0259 0.0023326 5.3666e-18)
(0.97787 -0.0013046 3.7619e-17)
(0.99903 0.011798 -1.4017e-17)
(1.0099 0.0099953 1.5481e-17)
(1.0091 0.034799 1.878e-18)
(0.99947 0.00029659 4.7075e-19)
(0.99957 -0.00039636 -1.2009e-18)
(0.99977 -0.00075279 -8.7249e-18)
(1.0003 -0.0013296 -4.2725e-18)
(1.0002 -0.0011931 1.8345e-17)
(1.0038 -0.0014442 1.3906e-19)
(0.9916 -0.00065965 -1.1964e-17)
(1.0261 0.0024519 -1.2815e-17)
(0.97929 -0.001442 -1.5748e-17)
(0.99807 0.01161 -1.3231e-18)
(1.0093 0.0099929 2.8334e-18)
(1.0092 0.034371 1.961e-19)
(0.99945 0.00030133 -7.5737e-19)
(0.99956 -0.00040597 1.4285e-17)
(0.99976 -0.00077217 -5.82e-18)
(1.0003 -0.001361 -2.4152e-17)
(1.0002 -0.0012281 8.4588e-18)
(1.004 -0.0014757 -4.3859e-17)
(0.99122 -0.00074681 5.9681e-18)
(1.0264 0.0025736 8.0679e-18)
(0.98076 -0.0015736 7.3146e-19)
(0.99724 0.011414 1.4235e-17)
(1.0086 0.0099703 -9.4762e-19)
(1.0092 0.033931 -5.246e-18)
(0.99943 0.00030604 -1.9994e-19)
(0.99954 -0.00041572 -2.8016e-19)
(0.99974 -0.00079188 7.8355e-18)
(1.0003 -0.0013927 1.4912e-17)
(1.0002 -0.001264 -3.3606e-17)
(1.0042 -0.0015066 1.8936e-18)
(0.99085 -0.00084028 1.0689e-17)
(1.0266 0.0026975 1.2638e-17)
(0.98225 -0.0016988 -9.962e-18)
(0.99654 0.011213 -1.3859e-17)
(1.008 0.0099288 -1.5353e-17)
(1.0092 0.033482 5.5388e-18)
(0.99941 0.00031072 -1.3087e-18)
(0.99952 -0.00042561 3.9947e-19)
(0.99973 -0.00081194 -3.7779e-18)
(1.0003 -0.0014248 -9.9571e-18)
(1.0001 -0.001301 1.8631e-17)
(1.0044 -0.0015367 2.3545e-17)
(0.99049 -0.00094024 3.1172e-18)
(1.0267 0.002823 6.4055e-18)
(0.98376 -0.0018169 1.5889e-17)
(0.99596 0.011007 2.3327e-18)
(1.0074 0.0098693 1.135e-17)
(1.0091 0.033023 -3.3618e-18)
(0.99938 0.00031537 2.4089e-18)
(0.9995 -0.00043565 7.364e-19)
(0.99971 -0.00083235 -5.3997e-18)
(1.0003 -0.0014572 1.4708e-18)
(1.0001 -0.0013391 -1.0101e-17)
(1.0046 -0.001566 -5.6478e-18)
(0.99014 -0.0010468 -1.1522e-18)
(1.0267 0.0029498 -2.8925e-17)
(0.98529 -0.0019275 3.1195e-18)
(0.99551 0.010798 -4.7289e-18)
(1.0069 0.0097931 -4.6164e-18)
(1.009 0.032555 -4.051e-18)
(0.99936 0.00032 -4.9165e-18)
(0.99947 -0.00044583 9.6213e-19)
(0.99969 -0.00085313 2.8642e-18)
(1.0003 -0.0014901 -1.8487e-17)
(1.0001 -0.0013784 -1.1517e-17)
(1.0049 -0.0015942 -2.6225e-17)
(0.98979 -0.0011602 5.5597e-18)
(1.0268 0.0030773 1.1811e-17)
(0.98683 -0.0020302 -3.3452e-17)
(0.99517 0.010586 2.1805e-17)
(1.0064 0.0097013 -4.9914e-18)
(1.0089 0.032078 2.6128e-18)
(0.99934 0.00032459 4.5132e-18)
(0.99945 -0.00045617 2.153e-18)
(0.99967 -0.00087427 1.1016e-18)
(1.0003 -0.0015233 5.8622e-18)
(1 -0.0014189 -2.5448e-18)
(1.0051 -0.0016214 5.0832e-17)
(0.98946 -0.0012804 1.9961e-17)
(1.0267 0.0032051 -1.8376e-17)
(0.98836 -0.0021247 3.2197e-17)
(0.99495 0.010373 -8.1356e-18)
(1.0059 0.0095953 -3.2915e-18)
(1.0088 0.031593 -1.3028e-18)
(0.99931 0.00032915 1.1072e-18)
(0.99943 -0.00046666 -1.3632e-17)
(0.99965 -0.0008958 2.2051e-18)
(1.0003 -0.0015569 2.6333e-17)
(0.99998 -0.0014606 1.969e-17)
(1.0053 -0.0016473 -8.1883e-19)
(0.98915 -0.0014076 -2.7654e-17)
(1.0266 0.0033326 5.5612e-18)
(0.98988 -0.0022107 -7.2616e-18)
(0.99484 0.010159 -1.1259e-17)
(1.0055 0.0094762 8.3736e-18)
(1.0087 0.031102 1.215e-18)
(0.99929 0.00033368 -4.3792e-18)
(0.99941 -0.0004773 -4.5453e-18)
(0.99964 -0.00091771 -1.1945e-17)
(1.0003 -0.001591 -2.2086e-17)
(0.99994 -0.0015036 -1.9814e-17)
(1.0056 -0.001672 -2.3102e-17)
(0.98885 -0.0015417 5.1064e-18)
(1.0265 0.0034593 4.3264e-17)
(0.99139 -0.0022879 3.1651e-18)
(0.99483 0.0099462 -9.8332e-19)
(1.0052 0.0093454 -2.9564e-18)
(1.0086 0.030604 -3.2632e-18)
(0.99926 0.00033818 3.2498e-18)
(0.99938 -0.00048812 4.2216e-18)
(0.99962 -0.00094003 1.8409e-17)
(1.0003 -0.0016254 1.5297e-17)
(0.99989 -0.0015481 1.9277e-17)
(1.0058 -0.0016954 -8.585e-19)
(0.98857 -0.0016828 -2.8451e-17)
(1.0262 0.0035846 -2.3387e-17)
(0.99287 -0.0023562 7.8563e-18)
(0.99492 0.0097347 3.8971e-18)
(1.0049 0.0092041 6.6647e-18)
(1.0085 0.0301 2.5221e-18)
(0.99923 0.00034265 -2.2952e-18)
(0.99936 -0.00049909 6.6235e-18)
(0.9996 -0.00096275 -1.2181e-17)
(1.0003 -0.0016602 2.2145e-18)
(0.99984 -0.0015939 8.9647e-18)
(1.0061 -0.0017173 -2.2586e-18)
(0.9883 -0.001831 6.388e-18)
(1.026 0.0037078 6.4957e-18)
(0.99433 -0.0024158 2.5865e-18)
(0.9951 0.0095257 9.6335e-18)
(1.0047 0.0090536 -8.0154e-18)
(1.0084 0.029591 5.0968e-19)
(0.9992 0.00034708 3.4656e-18)
(0.99933 -0.00051024 4.1055e-19)
(0.99957 -0.00098589 -5.7027e-18)
(1.0003 -0.0016954 8.8188e-19)
(0.99978 -0.0016413 -1.4718e-18)
(1.0063 -0.0017376 -2.2316e-17)
(0.98806 -0.001986 1.7835e-17)
(1.0257 0.0038284 2.306e-17)
(0.99575 -0.0024664 -1.2873e-17)
(0.99536 0.0093201 -1.3405e-17)
(1.0045 0.0088951 -2.343e-18)
(1.0084 0.029079 4.3368e-18)
(0.99918 0.00035148 -2.5176e-18)
(0.99931 -0.00052156 -3.1618e-19)
(0.99955 -0.0010095 7.0899e-18)
(1.0003 -0.001731 -1.6931e-17)
(0.99972 -0.0016902 -1.3317e-17)
(1.0066 -0.0017564 2.8174e-17)
(0.98783 -0.0021479 -2.7274e-18)
(1.0253 0.0039456 -2.4414e-17)
(0.99713 -0.0025084 3.2801e-18)
(0.9957 0.0091184 1.2621e-17)
(1.0044 0.0087297 7.9414e-18)
(1.0083 0.028564 -1.5637e-18)
(0.99915 0.00035585 2.5021e-19)
(0.99928 -0.00053306 2.3162e-18)
(0.99953 -0.0010335 3.8744e-18)
(1.0003 -0.001767 8.753e-18)
(0.99966 -0.0017408 2.6107e-17)
(1.0068 -0.0017735 6.5703e-18)
(0.98763 -0.0023164 -2.3748e-17)
(1.0249 0.0040589 2.2893e-18)
(0.99847 -0.0025419 8.4502e-18)
(0.9961 0.0089216 -1.1371e-17)
(1.0043 0.0085587 -5.3693e-18)
(1.0083 0.028046 -1.809e-18)
(0.99912 0.00036018 7.105e-19)
(0.99925 -0.00054474 -4.0277e-19)
(0.99951 -0.0010579 -1.0224e-17)
(1.0004 -0.0018035 -1.8833e-19)
(0.9996 -0.001793 -5.1619e-17)
(1.0071 -0.0017888 8.1018e-18)
(0.98745 -0.0024915 2.3328e-17)
(1.0245 0.0041675 -6.5759e-18)
(0.99976 -0.0025672 -8.8487e-18)
(0.99657 0.0087301 1.8882e-17)
(1.0044 0.0083832 6.424e-18)
(1.0084 0.027528 4.6882e-18)
(0.99909 0.00036448 7.6332e-19)
(0.99923 -0.00055661 -8.3603e-19)
(0.99948 -0.0010829 1.8491e-17)
(1.0004 -0.0018403 4.0379e-18)
(0.99953 -0.001847 4.5747e-17)
(1.0073 -0.0018024 -2.855e-17)
(0.9873 -0.0026729 -7.812e-18)
(1.024 0.0042708 6.1911e-18)
(1.001 -0.0025847 3.0495e-18)
(0.99708 0.0085446 -1.0624e-17)
(1.0044 0.0082042 -1.0401e-18)
(1.0084 0.027008 -3.457e-18)
(0.99905 0.00036874 -2.9829e-18)
(0.9992 -0.00056867 1.404e-18)
(0.99946 -0.0011082 -1.0869e-17)
(1.0004 -0.0018776 5.3102e-18)
(0.99947 -0.0019027 -1.7383e-17)
(1.0076 -0.0018142 3.8719e-18)
(0.98717 -0.0028604 3.1279e-17)
(1.0235 0.0043681 -2.3176e-17)
(1.0022 -0.0025948 -1.1209e-17)
(0.99764 0.0083655 -1.051e-17)
(1.0045 0.0080227 -5.1081e-18)
(1.0085 0.026489 -9.4938e-19)
(0.99902 0.00037296 3.7159e-18)
(0.99917 -0.00058092 -3.3345e-18)
(0.99943 -0.0011341 -1.0549e-17)
(1.0004 -0.0019152 -8.4675e-18)
(0.99939 -0.0019604 -2.8426e-17)
(1.0078 -0.0018241 -1.7962e-17)
(0.98706 -0.0030536 -1.9179e-17)
(1.023 0.0044587 2.1551e-17)
(1.0033 -0.002598 1.0867e-17)
(0.99824 0.0081931 1.5916e-17)
(1.0047 0.0078396 -1.9993e-18)
(1.0086 0.025972 4.5823e-18)
(0.99899 0.00037715 -5.9725e-18)
(0.99914 -0.00059338 5.4033e-18)
(0.99941 -0.0011605 2.5831e-17)
(1.0004 -0.0019533 -1.9975e-18)
(0.99932 -0.0020199 3.145e-17)
(1.0081 -0.0018323 1.3531e-18)
(0.98698 -0.0032524 -1.8369e-17)
(1.0224 0.0045421 8.4382e-18)
(1.0044 -0.0025949 -3.919e-18)
(0.99887 0.0080278 -3.3327e-18)
(1.0049 0.0076557 6.4866e-18)
(1.0087 0.025456 -3.0988e-18)
(0.99895 0.0003813 4.8946e-18)
(0.99911 -0.00060604 -7.3435e-18)
(0.99938 -0.0011873 -3.0119e-17)
(1.0004 -0.0019918 1.3068e-17)
(0.99924 -0.0020815 -2.241e-17)
(1.0083 -0.0018386 2.4831e-17)
(0.98693 -0.0034562 5.9872e-18)
(1.0219 0.0046175 -8.0313e-18)
(1.0054 -0.0025861 -1.8812e-18)
(0.99952 0.0078697 -8.3469e-18)
(1.0052 0.0074718 -1.0575e-17)
(1.0089 0.024942 4.283e-18)
(0.99892 0.00038541 -3.6057e-18)
(0.99908 -0.00061891 2.442e-18)
(0.99935 -0.0012147 1.8302e-17)
(1.0004 -0.0020308 -1.7227e-17)
(0.99916 -0.0021451 3.606e-17)
(1.0086 -0.001843 -1.9275e-17)
(0.9869 -0.0036647 3.4903e-18)
(1.0213 0.0046845 -1.2699e-17)
(1.0063 -0.0025723 6.1408e-18)
(1.0002 0.0077188 -1.168e-18)
(1.0055 0.0072887 4.5266e-18)
(1.0091 0.024432 -1.9044e-18)
(0.99888 0.00038948 4.4226e-18)
(0.99904 -0.00063199 1.9014e-18)
(0.99932 -0.0012426 -1.2203e-17)
(1.0004 -0.0020702 -3.5077e-19)
(0.99908 -0.0022108 -1.5905e-18)
(1.0088 -0.0018458 4.6611e-18)
(0.9869 -0.0038775 3.3146e-17)
(1.0206 0.0047423 8.6871e-18)
(1.0072 -0.0025542 -1.8203e-17)
(1.0009 0.0075753 -6.054e-18)
(1.0059 0.0071068 -4.2569e-18)
(1.0093 0.023925 2.0014e-18)
(0.99885 0.00039352 -5.0695e-18)
(0.99901 -0.0006453 -7.0464e-18)
(0.99929 -0.0012711 5.1196e-18)
(1.0004 -0.00211 1.4908e-17)
(0.99899 -0.0022787 -3.2716e-17)