/*--------------------------------*- C++ -*----------------------------------*\
  =========                 |
  \\      /  F ield         | OpenFOAM: The Open Source CFD Toolbox
   \\    /   O peration     | Website:  https://openfoam.org
    \\  /    A nd           | Version:  6.0
     \\/     M anipulation  |
\*---------------------------------------------------------------------------*/
FoamFile
{
    version     2.0;
    format      ascii;
    class       volVectorField;
    location    "2";
    object      U;
}
// * * * * * * * * * * * * * * * * * * * * * * * * * * * * * * * * * * * * * //

dimensions      [0 1 -1 0 0 0 0];

internalField   nonuniform List<vector> 
4920
(
(0.995967 0.0896417 -1.89112e-19)
(0.995952 0.0895445 3.06399e-19)
(0.995946 0.0893493 -8.66346e-19)
(0.995942 0.0891565 1.22187e-18)
(0.995941 0.0889652 3.94651e-19)
(0.995934 0.0887577 -5.13445e-19)
(0.995917 0.0885264 1.21669e-18)
(0.995869 0.0882099 -2.93617e-19)
(0.995803 0.0877356 5.82174e-19)
(0.995682 0.0870286 3.59375e-18)
(0.995456 0.0860633 -5.34903e-18)
(0.995011 0.0847853 5.48307e-18)
(0.994307 0.0830053 2.11314e-18)
(0.993588 0.080149 5.15049e-19)
(0.993019 0.0691178 -8.36967e-18)
(0.995315 0.0913558 1.3253e-19)
(0.9952 0.0913232 -8.12143e-19)
(0.995108 0.0910771 3.98047e-19)
(0.995031 0.0907915 1.79747e-19)
(0.994963 0.0904512 8.58323e-19)
(0.994898 0.0900429 2.90891e-19)
(0.994842 0.0895207 -2.4449e-18)
(0.994766 0.0888083 8.493e-20)
(0.994659 0.0878174 7.17381e-19)
(0.994486 0.0864166 -6.93414e-18)
(0.994166 0.0845566 8.65147e-18)
(0.993555 0.0822456 -1.13687e-17)
(0.99262 0.0793052 7.89177e-19)
(0.99173 0.0749476 2.07853e-17)
(0.991847 0.0601721 3.021e-17)
(0.99458 0.0918522 9.53695e-20)
(0.994327 0.0918951 -8.04815e-19)
(0.994112 0.0916731 2.68261e-19)
(0.993929 0.091375 6.46213e-19)
(0.993766 0.0910075 -1.91355e-18)
(0.993619 0.0905421 4.99109e-19)
(0.993504 0.0899387 6.96506e-19)
(0.9934 0.0891102 -1.58528e-18)
(0.993264 0.0879523 2.00964e-18)
(0.99306 0.086324 -2.20544e-18)
(0.992738 0.0841646 4.6014e-18)
(0.992176 0.0814563 -5.97926e-18)
(0.99134 0.0780083 -5.63985e-18)
(0.990546 0.0729774 -7.09349e-18)
(0.991216 0.057186 -1.7911e-17)
(0.993878 0.092197 3.23853e-20)
(0.993473 0.0922806 -2.71996e-19)
(0.993114 0.092087 4.21084e-19)
(0.99279 0.0918013 -6.65897e-19)
(0.992498 0.0914323 2.52304e-19)
(0.992232 0.0909394 8.72693e-19)
(0.992029 0.0902889 2.02632e-18)
(0.991882 0.0893779 -7.57186e-19)
(0.991704 0.0881199 9.79514e-19)
(0.99146 0.0863427 5.6066e-18)
(0.991112 0.0839586 -9.45934e-18)
(0.990581 0.0809379 4.27965e-18)
(0.989863 0.0770353 8.53663e-18)
(0.989253 0.0713704 -3.09086e-17)
(0.990463 0.0546598 -4.66973e-18)
(0.993115 0.0925256 2.82152e-19)
(0.992539 0.0926946 -6.54894e-19)
(0.992012 0.0925437 -9.74386e-20)
(0.991534 0.0922833 -3.43979e-19)
(0.991104 0.0918964 8.95742e-21)
(0.990719 0.0913613 1.10097e-18)
(0.990433 0.0906435 -5.23602e-19)
(0.990248 0.0896581 -3.15444e-18)
(0.990038 0.0883078 1.31171e-19)
(0.989743 0.086414 -4.89394e-18)
(0.989366 0.0838654 -1.36697e-19)
(0.988868 0.0805727 7.33879e-18)
(0.988294 0.0762584 -5.98182e-18)
(0.987933 0.0700185 7.53799e-18)
(0.989734 0.0524976 -2.12015e-17)
(0.992394 0.0928829 1.1918e-19)
(0.991644 0.0930075 3.4836e-19)
(0.99094 0.0928467 -1.11682e-18)
(0.990283 0.0925865 8.86561e-19)
(0.989686 0.0922197 5.89467e-19)
(0.989151 0.091689 -1.22889e-18)
(0.988758 0.090962 9.00914e-19)
(0.988527 0.0899252 3.27946e-18)
(0.988277 0.0885122 8.95827e-19)
(0.987938 0.0865129 2.12452e-18)
(0.987528 0.0837892 9.90729e-18)
(0.98706 0.0802403 -2.54986e-18)
(0.986651 0.0755293 -1.54956e-17)
(0.986599 0.0687462 -1.3964e-17)
(0.989009 0.0504243 -1.07499e-17)
(0.991595 0.0933692 -2.04173e-20)
(0.990656 0.0936105 3.72297e-19)
(0.989759 0.0934772 -5.82493e-19)
(0.988912 0.0932261 -2.80741e-19)
(0.98814 0.0928026 1.37109e-18)
(0.987457 0.0921963 -7.62811e-19)
(0.986965 0.0913681 6.16506e-19)
(0.9867 0.090237 -5.3103e-18)
(0.986426 0.0887214 3.81503e-18)
(0.986042 0.0866024 1.61071e-19)
(0.985601 0.0837131 -9.26257e-18)
(0.985169 0.0798847 -1.15133e-18)
(0.984942 0.0747643 1.24979e-17)
(0.985249 0.067447 1.09146e-16)
(0.988347 0.0483261 4.95915e-17)
(0.990729 0.0938699 -5.52876e-20)
(0.989593 0.0940353 2.35414e-19)
(0.988494 0.0938663 -5.64109e-19)
(0.987447 0.0935973 1.46189e-18)
(0.986489 0.093179 2.8679e-19)
(0.985654 0.0925661 -8.76421e-19)
(0.985063 0.0917137 -2.24797e-19)
(0.98477 0.0905157 1.64736e-18)
(0.984474 0.0889201 -1.50759e-18)
(0.984058 0.0866703 6.91702e-19)
(0.983587 0.0835692 1.40085e-17)
(0.983193 0.0794422 4.38834e-19)
(0.983169 0.0738852 3.93205e-17)
(0.983894 0.0660334 -1.55655e-16)
(0.987728 0.0460875 -4.93212e-17)
(0.989826 0.0944714 1.48304e-19)
(0.988482 0.094743 -5.86426e-19)
(0.987169 0.0945744 3.46959e-19)
(0.985908 0.0942748 -3.0868e-19)
(0.984751 0.0937828 -3.22482e-19)
(0.983751 0.0930741 -3.60645e-19)
(0.983052 0.0921153 1.82148e-18)
(0.982731 0.0908134 -1.26763e-18)
(0.982424 0.0890919 2.29849e-18)
(0.981966 0.0866884 -7.22742e-18)
(0.981471 0.0833698 -1.33317e-18)
(0.98113 0.0788903 -1.24551e-17)
(0.981336 0.0728525 -2.95605e-17)
(0.982541 0.0644566 4.41477e-18)
(0.987222 0.0437078 5.06683e-17)
(0.988881 0.095111 -1.32233e-19)
(0.987322 0.0952935 9.84254e-20)
(0.985788 0.0950733 -3.39257e-19)
(0.984302 0.0947393 -2.52856e-19)
(0.982932 0.0942284 1.60392e-19)
(0.981754 0.0934853 -1.7474e-19)
(0.980936 0.092474 1.12309e-18)
(0.980581 0.0910726 -1.14462e-18)
(0.980251 0.0892381 3.22637e-19)
(0.979764 0.0866532 -6.442e-19)
(0.979245 0.0830477 -2.9931e-19)
(0.97896 0.0781787 -7.99875e-21)
(0.979437 0.0716142 -5.11875e-18)
(0.981202 0.0626587 4.90794e-17)
(0.986785 0.0410928 -3.9798e-18)
(0.987841 0.0958506 -1.209e-21)
(0.986051 0.0961632 -4.67659e-20)
(0.984282 0.0959282 -8.25256e-19)
(0.982564 0.0955391 1.33898e-18)
(0.980976 0.0949209 9.42871e-19)
(0.979619 0.0940449 -1.60439e-18)
(0.97868 0.0928904 5.72066e-19)
(0.978291 0.0913474 -9.15022e-19)
(0.977947 0.0893385 -7.44866e-20)
(0.977419 0.0865389 9.01954e-18)
(0.976882 0.0826329 -6.75225e-18)
(0.976682 0.0772974 -6.83931e-18)
(0.977483 0.0701471 4.209e-18)
(0.979885 0.060615 -5.25551e-17)
(0.986479 0.0382768 1.05784e-17)
(0.986742 0.0966078 1.77641e-20)
(0.984712 0.096798 6.05246e-19)
(0.982698 0.0964903 -2.76242e-19)
(0.980735 0.0960489 -7.19977e-19)
(0.978914 0.0953994 4.47477e-19)
(0.977361 0.0944741 5.66857e-20)
(0.976285 0.0932469 -6.26236e-19)
(0.975853 0.0915661 -1.27133e-18)
(0.975486 0.0893954 -1.16018e-18)
(0.974932 0.0863434 -7.20469e-18)
(0.974373 0.0820449 -1.25472e-17)
(0.974272 0.0761941 3.03604e-17)
(0.975453 0.0683939 -1.26443e-17)
(0.978602 0.0582738 1.37013e-16)
(0.986291 0.0351776 -8.1958e-17)
(0.985525 0.0974867 9.69814e-20)
(0.983239 0.0978074 9.94819e-20)
(0.98097 0.0974642 4.0004e-19)
(0.978753 0.0969432 3.39963e-19)
(0.976691 0.0961595 -4.78058e-19)
(0.974936 0.0950678 1.01578e-18)
(0.973721 0.0936586 -8.34773e-19)
(0.973245 0.0917864 -1.24895e-19)
(0.972868 0.0893789 6.98015e-19)
(0.97227 0.0860421 2.32729e-18)
(0.971696 0.0813334 1.05254e-17)
(0.971728 0.0748611 1.42642e-17)
(0.973361 0.0663305 4.9157e-17)
(0.977367 0.0556108 -1.20654e-16)
(0.9863 0.0318682 1.28801e-16)
(0.984261 0.0983362 -2.04868e-19)
(0.981709 0.0985033 -4.74678e-20)
(0.97917 0.0980836 5.45848e-19)
(0.976676 0.0975098 -1.7449e-19)
(0.974347 0.096687 3.21332e-19)
(0.972364 0.0955181 1.84734e-19)
(0.970989 0.0939928 -1.31744e-18)
(0.970459 0.0919224 5.03091e-19)
(0.97005 0.0892912 -1.2664e-18)
(0.969398 0.085615 5.48891e-18)
(0.968823 0.0803913 -2.59586e-18)
(0.969011 0.0732329 -2.36868e-17)
(0.971185 0.0638984 -6.5951e-17)
(0.976197 0.0525763 3.66611e-17)
(0.986491 0.0282348 -1.69937e-17)
(0.9828 0.0993058 1.00461e-19)
(0.979957 0.0997278 1.11842e-19)
(0.977131 0.0992929 -8.61962e-19)
(0.974357 0.0986103 1.69935e-18)
(0.971764 0.097582 -5.59508e-19)
(0.969559 0.0961634 4.30519e-19)
(0.968026 0.094375 -3.68671e-19)
(0.967417 0.0920391 -1.36606e-18)
(0.966966 0.0891044 5.65845e-18)
(0.966276 0.085041 -5.85599e-18)
(0.965709 0.0792528 5.55787e-18)
(0.966128 0.0712962 -7.9689e-18)
(0.96896 0.0610727 4.01893e-17)
(0.975124 0.0491644 -4.32507e-17)
(0.986934 0.0243527 -5.43313e-17)
(0.981297 0.100227 5.69846e-20)
(0.978131 0.10043 4.31657e-19)
(0.974985 0.0998972 -7.19661e-19)
(0.971893 0.0991594 3.46297e-19)
(0.968992 0.0980913 -5.31288e-19)
(0.966525 0.0965693 7.74621e-20)
(0.964765 0.0946525 2.59281e-18)
(0.964081 0.0920717 -4.20175e-18)
(0.963598 0.0887925 -1.14082e-19)
(0.962867 0.0842548 6.55849e-18)
(0.962349 0.0777958 -1.77937e-17)
(0.96305 0.0689621 3.95275e-18)
(0.966655 0.0577743 -7.11476e-19)
(0.974146 0.0452915 1.00258e-16)
(0.987618 0.0201046 -7.16345e-17)
(0.979567 0.101379 2.96511e-20)
(0.97605 0.101876 -1.40984e-21)
(0.972559 0.101288 -2.29547e-19)
(0.969123 0.100395 8.59301e-19)
(0.965906 0.0990541 -6.4852e-19)
(0.963144 0.0972545 3.23617e-19)
(0.961206 0.0950046 5.27454e-19)
(0.960434 0.0920062 -1.50109e-18)
(0.959924 0.0883319 1.69289e-18)
(0.959175 0.083267 -1.16241e-17)
(0.958725 0.0760563 1.32432e-17)
(0.959788 0.0662201 5.25515e-18)
(0.964311 0.053973 -7.69078e-18)
(0.973302 0.0409425 -4.36089e-17)
(0.988617 0.0155525 1.9095e-16)
(0.977639 0.102412 2.39082e-19)
(0.973743 0.102635 -5.19981e-19)
(0.969889 0.10194 4.53355e-19)
(0.966106 0.100982 2.39285e-19)
(0.962561 0.0995841 -8.06191e-19)
(0.959529 0.0976061 6.57923e-19)
(0.957355 0.0951335 -7.06339e-19)
(0.956502 0.0918429 5.62298e-19)
(0.955967 0.0876837 9.22594e-18)
(0.955188 0.0819894 -5.68087e-18)
(0.954822 0.0739047 -3.17849e-18)
(0.956302 0.0629552 -3.62972e-18)
(0.96189 0.0495725 -2.52436e-18)
(0.972596 0.0360393 -5.70437e-17)
(0.989931 0.0106137 -1.06053e-16)
(0.975581 0.103564 2.52545e-20)
(0.971284 0.104007 1.8372e-19)
(0.967038 0.103211 -6.43564e-19)
(0.962876 0.102069 1.3878e-18)
(0.958975 0.100379 -4.95105e-19)
(0.955626 0.0981499 7.70809e-19)
(0.953234 0.0953302 4.52402e-19)
(0.952267 0.0915048 1.72185e-18)
(0.951684 0.0868542 -3.04522e-18)
(0.950872 0.0804608 6.66744e-18)
(0.950618 0.0713843 1.97757e-17)
(0.952626 0.0591695 2.3097e-17)
(0.959465 0.0445495 -4.4706e-17)
(0.972098 0.030595 1.13129e-16)
(0.991631 0.00535432 -2.08647e-17)
(0.973519 0.104676 -1.96116e-19)
(0.968793 0.104811 1.78062e-19)
(0.964119 0.103889 -1.96163e-19)
(0.959529 0.102647 -3.96907e-19)
(0.955211 0.100864 8.28594e-19)
(0.951497 0.09837 -2.19788e-18)
(0.948802 0.0952811 -1.15525e-18)
(0.947699 0.091082 5.49839e-19)
(0.947055 0.0857803 2.65819e-19)
(0.946205 0.0785484 3.4237e-18)
(0.94609 0.0683216 -3.32024e-17)
(0.948708 0.0547083 -1.19131e-17)
(0.95699 0.0387858 3.24698e-17)
(0.971798 0.0245066 -8.80563e-17)
(0.993716 -0.000310864 -4.32857e-17)
(0.971147 0.10606 1.63995e-19)
(0.965966 0.106572 -5.89338e-20)
(0.960846 0.105516 -6.29338e-19)
(0.955818 0.104001 5.46568e-19)
(0.951084 0.101792 1.45647e-18)
(0.946986 0.098909 -6.86533e-19)
(0.944007 0.0953303 -1.60837e-19)
(0.942741 0.0904266 -2.91927e-18)
(0.942026 0.0844728 -2.65974e-18)
(0.941148 0.0763027 1.46587e-18)
(0.941226 0.0647722 2.70222e-17)
(0.944582 0.0495599 -1.9913e-18)
(0.954553 0.0322495 3.20546e-18)
(0.971778 0.0177774 3.89709e-17)
(0.996252 -0.00632872 2.27847e-17)
(0.968521 0.1073 -1.83557e-20)
(0.96284 0.10744 1.1654e-19)
(0.957249 0.106231 -6.85055e-19)
(0.951764 0.104601 -4.57128e-19)
(0.946597 0.102241 -1.66183e-19)
(0.942112 0.099001 1.2402e-18)
(0.938802 0.0950634 4.73083e-19)
(0.937368 0.0896401 4.36538e-18)
(0.936586 0.0828153 5.64771e-18)
(0.93568 0.0735314 -2.26556e-18)
(0.93598 0.0605062 -2.01347e-18)
(0.940202 0.0435461 1.38616e-17)
(0.952116 0.0248078 1.91249e-17)
(0.972031 0.0103211 7.15216e-17)
(0.99924 -0.0127542 4.01001e-18)
(0.965725 0.108735 2.94226e-20)
(0.95952 0.109132 8.64969e-20)
(0.95342 0.107715 9.12467e-20)
(0.947441 0.105763 -5.27958e-19)
(0.9418 0.102945 2.25736e-19)
(0.936868 0.0992882 1.97939e-18)
(0.933209 0.0947896 -3.39939e-18)
(0.931556 0.0885076 -2.17398e-18)
(0.930684 0.0808421 -4.41486e-19)
(0.929761 0.0703188 -2.82451e-18)
(0.930358 0.0555893 -7.70776e-18)
(0.935661 0.0366762 -1.09869e-17)
(0.949807 0.0164504 2.76204e-17)
(0.972661 0.00215561 -4.23739e-17)
(1.00274 -0.0195083 2.55152e-17)
(0.962818 0.110035 -2.47503e-20)
(0.956053 0.110053 9.80376e-20)
(0.949406 0.10846 -3.2657e-20)
(0.942884 0.106352 1.18613e-19)
(0.93671 0.103317 -1.17965e-19)
(0.931279 0.0991908 -1.45543e-18)
(0.927181 0.094229 1.67605e-18)
(0.925293 0.0872211 -2.43403e-19)
(0.924313 0.078393 -1.17117e-17)
(0.923368 0.0664046 1.18611e-18)
(0.92434 0.0497449 -2.08967e-17)
(0.930897 0.0287188 -3.1505e-17)
(0.947581 0.0070409 -8.90754e-17)
(0.973659 -0.00677291 1.0152e-19)
(1.00674 -0.0266699 7.19312e-17)
(0.959623 0.111548 -3.43935e-20)
(0.952272 0.111943 -9.28305e-20)
(0.945046 0.110118 2.02103e-19)
(0.937955 0.107602 -9.66446e-19)
(0.931218 0.104005 9.38314e-19)
(0.925238 0.0993297 -1.23289e-18)
(0.920703 0.0936198 1.04457e-18)
(0.918508 0.0854926 5.14759e-18)
(0.917401 0.0755468 -5.17138e-19)
(0.916477 0.0619002 6.93044e-18)
(0.91795 0.0430494 -1.03169e-17)
(0.926007 0.0196637 3.54708e-17)
(0.945596 -0.00343816 3.84029e-17)
(0.975135 -0.016453 -1.06281e-16)
(1.01128 -0.0341299 -5.99766e-17)
(0.956118 0.11291 -3.99115e-21)
(0.948119 0.112942 -4.15135e-20)
(0.940278 0.110936 -2.00276e-19)
(0.93258 0.108237 -5.43524e-19)
(0.925256 0.104321 1.04171e-18)
(0.918717 0.0990037 2.9282e-19)
(0.913677 0.0926714 2.53452e-18)
(0.911176 0.083535 -9.41072e-18)
(0.909952 0.0720368 3.58554e-18)
(0.909066 0.0564579 -1.92141e-17)
(0.91114 0.035156 1.48118e-17)
(0.920959 0.00928574 -3.02694e-17)
(0.943809 -0.0151135 1.00075e-16)
(0.97707 -0.0269189 1.21663e-16)
(1.01635 -0.0420066 -5.92835e-17)
(0.95222 0.114447 1.61981e-20)
(0.943526 0.114834 -1.1433e-19)
(0.935037 0.112497 -2.66282e-19)
(0.926734 0.109277 4.34385e-20)
(0.918822 0.10469 7.38335e-19)
(0.911692 0.0987208 -1.03909e-19)
(0.906135 0.0914988 -3.08654e-18)
(0.903262 0.0809714 5.36362e-18)
(0.901907 0.0679968 4.32195e-18)
(0.901128 0.0502378 1.17298e-17)
(0.904003 0.0261767 -2.35452e-18)
(0.915923 -0.00239595 4.7769e-17)
(0.942421 -0.0279559 1.54926e-18)
(0.979576 -0.0381399 8.0813e-17)
(1.02193 -0.0501304 4.21823e-17)
(0.948447 0.115806 2.29883e-20)
(0.939023 0.115354 -2.74299e-19)
(0.929818 0.11275 -1.55753e-19)
(0.920791 0.109367 2.51031e-19)
(0.912149 0.104505 -1.16312e-18)
(0.904288 0.0978749 -1.79825e-18)
(0.898073 0.0899489 4.69247e-19)
(0.894783 0.0780705 4.52231e-18)
(0.893292 0.0630674 3.07745e-18)
(0.892666 0.042799 7.73312e-18)
(0.896495 0.0157058 1.26483e-17)
(0.910848 -0.0156238 -4.13786e-18)
(0.941371 -0.0420793 -1.1647e-16)
(0.982617 -0.0501149 -5.70603e-17)
(1.02806 -0.0586798 -4.504e-18)
(0.944323 0.117474 1.67705e-20)
(0.934183 0.117648 -3.95488e-19)
(0.924234 0.114693 -5.32088e-20)
(0.914449 0.110626 2.11956e-19)
(0.905026 0.104888 1.12735e-18)
(0.896372 0.0973243 9.10928e-19)
(0.889467 0.0881776 -9.05771e-19)
(0.885662 0.0744556 -1.92153e-18)
(0.884042 0.0574619 -3.11458e-18)
(0.883695 0.0343644 -2.21358e-17)
(0.888695 0.00382645 6.44472e-19)
(0.905922 -0.0303995 -4.87267e-17)
(0.940871 -0.0574426 5.65242e-17)
(0.986291 -0.0628177 5.76816e-17)
(1.03463 -0.0674229 -3.2178e-17)
(0.939644 0.118931 -2.5006e-20)
(0.9287 0.118565 -2.41256e-19)
(0.918009 0.11535 4.63086e-19)
(0.907474 0.111004 -2.33676e-19)
(0.897299 0.104712 8.27571e-19)
(0.887851 0.0961462 -8.31606e-19)
(0.880194 0.085972 2.52847e-18)
(0.875869 0.0703167 -3.75365e-18)
(0.874164 0.0506466 1.47909e-18)
(0.874129 0.0243341 -1.83343e-18)
(0.880556 -0.0098914 1.13246e-17)
(0.901097 -0.0469582 -7.39713e-17)
(0.94084 -0.0741406 -4.53284e-17)
(0.990541 -0.0762316 2.94301e-17)
(1.04171 -0.0766087 2.20777e-17)
(0.934685 0.120588 -4.55523e-20)
(0.922897 0.120538 1.08628e-19)
(0.911377 0.11684 -4.63492e-19)
(0.900034 0.111741 -3.85018e-19)
(0.88902 0.104512 7.80679e-19)
(0.878697 0.0948914 6.53587e-19)
(0.870223 0.0832169 -4.53412e-18)
(0.86533 0.0652002 4.21266e-18)
(0.863575 0.0429238 -3.1469e-19)
(0.864071 0.0130301 1.77416e-17)
(0.872297 -0.0253049 -4.26366e-17)
(0.896621 -0.0652636 9.94537e-17)
(0.941512 -0.0920697 -7.57576e-17)
(0.995456 -0.0902885 -1.64402e-16)
(1.04912 -0.0859017 1.15083e-17)
(0.929176 0.122062 -8.23676e-20)
(0.916497 0.121504 -2.48982e-20)
(0.904148 0.117417 1.37244e-19)
(0.891952 0.111917 6.63182e-19)
(0.880063 0.103906 -9.43468e-19)
(0.868797 0.0929808 -2.4084e-18)
(0.859469 0.0798754 3.50977e-18)
(0.85412 0.0592895 -4.71516e-18)
(0.852285 0.033538 2.52346e-19)
(0.853421 -0.000336679 -1.51748e-17)
(0.863765 -0.0429372 5.19996e-17)
(0.892421 -0.0854874 -3.03861e-17)
(0.942772 -0.111307 -7.72861e-18)
(1.00095 -0.104968 -4.82912e-17)
(1.05698 -0.0956429 7.03249e-17)
(0.923312 0.123528 -8.75992e-20)
(0.909648 0.123067 -5.4665e-20)
(0.89634 0.118474 -3.89701e-20)
(0.883183 0.112144 -7.85704e-21)
(0.870346 0.103016 4.49054e-19)
(0.858066 0.0906953 7.48868e-19)
(0.847991 0.0755775 -1.46225e-18)
(0.841889 0.0519437 2.59627e-18)
(0.840229 0.0230127 1.27246e-17)
(0.842231 -0.015419 2.70157e-18)
(0.85517 -0.0627675 -2.79677e-17)
(0.888761 -0.107655 -2.81272e-17)
(0.944839 -0.131707 6.68592e-17)
(1.00709 -0.120214 5.45734e-17)
(1.06502 -0.105423 -2.80266e-17)
(0.916671 0.12501 3.31549e-20)
(0.901945 0.124224 -1.22605e-19)
(0.887653 0.119027 2.00929e-19)
(0.873575 0.111925 -6.6139e-19)
(0.859756 0.101581 2.16953e-19)
(0.846495 0.0873893 2.32621e-18)
(0.835361 0.070408 1.24096e-18)
(0.828814 0.0434174 9.54205e-19)
(0.827195 0.0099715 -4.66863e-18)
(0.830293 -0.0332134 1.21025e-17)
(0.846363 -0.0852877 -3.50891e-17)
(0.885545 -0.131879 1.55221e-16)
(0.947559 -0.153362 1.20716e-17)
(1.01377 -0.136019 5.4741e-17)
(1.07344 -0.115685 -8.46631e-17)
(0.909774 0.126287 -1.84119e-20)
(0.893945 0.125198 3.81845e-20)
(0.878574 0.119259 -2.15137e-19)
(0.863413 0.111151 8.4054e-19)
(0.848422 0.0994603 -4.81056e-19)
(0.833984 0.0835416 -1.52889e-18)
(0.821776 0.0638643 -1.62499e-19)
(0.814414 0.0328213 2.00847e-19)
(0.813143 -0.00464652 -2.62348e-17)
(0.817876 -0.0532887 2.95452e-17)
(0.837726 -0.110455 3.32945e-17)
(0.883076 -0.158172 -7.63003e-17)
(0.951139 -0.17603 3.94332e-17)
(1.02103 -0.152282 6.2721e-17)
(1.08184 -0.125897 4.62779e-17)
(0.902567 0.127701 -2.57758e-20)
(0.885553 0.126223 -7.43193e-20)
(0.86904 0.119589 1.39482e-19)
(0.852599 0.11053 -5.20272e-19)
(0.83641 0.0971614 1.49053e-19)
(0.820525 0.0786291 9.97182e-20)
(0.806996 0.0563435 2.89616e-18)
(0.79896 0.0205355 -7.75181e-18)
(0.798075 -0.0226671 2.6609e-17)
(0.804722 -0.0768004 -2.17841e-17)
(0.829015 -0.138686 2.87651e-17)
(0.881217 -0.186502 -5.19769e-17)
(0.95538 -0.199851 -6.65939e-19)
(1.02874 -0.169037 6.86982e-17)
(1.09056 -0.136616 9.98699e-18)
(0.894453 0.128996 -3.0151e-20)
(0.87619 0.127469 -3.41638e-20)
(0.858494 0.120116 2.15343e-19)
(0.840891 0.109636 -8.32167e-20)
(0.823332 0.0942929 8.1164e-20)
(0.80602 0.0733904 -1.01611e-18)
(0.791039 0.0470724 -2.39187e-18)
(0.782053 0.00577195 1.35295e-17)
(0.78181 -0.0428285 -1.13754e-17)
(0.790995 -0.103441 -2.46847e-17)
(0.820643 -0.170124 -5.8369e-17)
(0.880255 -0.216956 1.01317e-16)
(0.960441 -0.224504 7.84827e-17)
(1.03695 -0.186208 -1.0951e-16)
(1.09908 -0.14724 -3.94638e-17)
(0.885403 0.130254 -3.04173e-20)
(0.86577 0.128144 8.57075e-20)
(0.846795 0.119741 -1.30291e-19)
(0.827944 0.108228 1.49451e-19)
(0.808991 0.0908858 -1.14307e-19)
(0.790106 0.0666617 7.84835e-19)
(0.77349 0.0365787 -2.11252e-18)
(0.763677 -0.01148 4.63901e-18)
(0.76422 -0.0675099 -1.84592e-17)
(0.776471 -0.134409 -4.37421e-18)
(0.8123 -0.205098 -4.98981e-17)
(0.879968 -0.249444 -1.83724e-17)
(0.966089 -0.250244 -2.8792e-17)
(1.04548 -0.203883 -8.05092e-17)
(1.10787 -0.158443 1.03932e-16)
(0.87548 0.131266 7.90744e-21)
(0.85433 0.128788 -2.8766e-20)
(0.833906 0.119371 2.52608e-21)
(0.813547 0.106135 -2.77341e-19)
(0.793086 0.0864982 5.8181e-19)
(0.772552 0.059142 -8.59514e-19)
(0.7541 0.0234739 2.173e-18)
(0.743425 -0.0319453 -1.87319e-17)
(0.745214 -0.0952173 3.48771e-17)
(0.761435 -0.169382 2.77762e-18)
(0.804482 -0.243811 6.41365e-17)
(0.880621 -0.284129 -9.14191e-18)
(0.972432 -0.276659 -1.1155e-16)
(1.05438 -0.221995 6.48723e-17)
(1.11628 -0.169565 -1.17865e-16)
(0.864297 0.132284 8.19662e-21)
(0.841476 0.129259 -5.35297e-20)
(0.819445 0.118473 -7.36752e-20)
(0.797516 0.103614 5.84083e-19)
(0.775378 0.0810931 -5.59393e-19)
(0.75299 0.049669 1.34083e-18)
(0.732591 0.0084407 -3.62084e-18)
(0.721265 -0.0562015 3.08424e-18)
(0.724674 -0.128723 8.41958e-18)
(0.745639 -0.20953 8.61417e-17)
(0.796791 -0.286384 -1.00552e-17)
(0.881925 -0.320808 1.10844e-16)
(0.979232 -0.304138 -5.87495e-17)
(1.06348 -0.240678 6.97402e-17)
(1.12496 -0.181351 5.11018e-17)
(0.851724 0.132945 1.43177e-20)
(0.827037 0.129429 -6.35376e-21)
(0.803249 0.117179 -1.7395e-20)
(0.779542 0.0999503 4.0635e-20)
(0.755562 0.0744216 5.05542e-19)
(0.731149 0.0387646 1.1515e-18)
(0.708593 -0.0103526 7.73803e-19)
(0.696677 -0.0847908 8.02915e-18)
(0.702409 -0.16657 -1.47882e-17)
(0.729285 -0.254787 -1.20924e-16)
(0.789714 -0.333227 8.77439e-17)
(0.884114 -0.359719 -2.59288e-16)
(0.98654 -0.33219 1.85269e-16)
(1.07284 -0.259878 -1.13773e-16)
(1.13311 -0.193128 3.78064e-17)
(0.83773 0.133579 -7.70507e-21)
(0.810901 0.129015 -4.28636e-20)
(0.785075 0.11493 4.32151e-20)
(0.759362 0.0954696 -2.99787e-19)
(0.733139 0.0661654 8.65607e-20)
(0.706584 0.0253704 3.6697e-19)
(0.681611 -0.032294 2.29744e-18)
(0.66947 -0.118992 1.10258e-18)
(0.678204 -0.211939 -7.13675e-18)
(0.712059 -0.306318 1.55053e-17)
(0.782717 -0.384346 -1.00539e-16)
(0.886783 -0.400739 1.2389e-17)
(0.994129 -0.361412 -1.49729e-16)
(1.08224 -0.279828 9.93188e-17)
(1.14156 -0.205706 -4.29357e-17)
(0.821985 0.133924 -7.75583e-21)
(0.79269 0.128455 6.58935e-20)
(0.764515 0.112285 -1.78574e-19)
(0.73635 0.0897428 2.09452e-19)
(0.70773 0.0562507 -7.1064e-19)
(0.67878 0.0096391 -9.52428e-20)
(0.650986 -0.0596675 -6.67287e-19)
(0.639086 -0.159149 -9.79341e-18)
(0.651784 -0.263549 1.16585e-17)
(0.694016 -0.364504 6.17562e-17)
(0.776192 -0.440538 1.26064e-16)
(0.890075 -0.444364 9.24328e-17)
(1.00196 -0.391367 1.80589e-16)
(1.09179 -0.300587 -5.86002e-17)
(1.14939 -0.218525 7.15001e-18)
(0.803994 0.134258 -1.56892e-20)
(0.771872 0.127434 -8.83526e-21)
(0.740956 0.108712 1.27256e-19)
(0.710091 0.0828136 -1.42832e-19)
(0.67864 0.0438867 -7.55769e-19)
(0.646809 -0.00940641 1.18876e-18)
(0.616092 -0.0921425 -7.27754e-18)
(0.604996 -0.207569 6.70359e-18)
(0.622884 -0.324697 -5.41972e-18)
(0.67487 -0.430218 1.47803e-17)
(0.769569 -0.501515 4.59614e-17)
(0.893564 -0.490451 8.70815e-19)
(1.0099 -0.422752 -2.06989e-16)
(1.10123 -0.322425 -5.12757e-17)
(1.15754 -0.232303 -3.02168e-17)
(0.783422 0.134281 1.48949e-20)
(0.748028 0.126064 -5.11609e-21)
(0.713936 0.104259 -3.9508e-20)
(0.679812 0.0739588 1.14483e-19)
(0.645003 0.0292218 6.24835e-19)
(0.609788 -0.0320696 -3.09277e-18)
(0.575665 -0.132951 1.49564e-18)
(0.56656 -0.264436 -2.47207e-18)
(0.590992 -0.394805 -1.52532e-17)
(0.6545 -0.504408 3.28928e-17)
(0.763116 -0.568475 -2.52819e-16)
(0.897341 -0.539622 3.12411e-17)
(1.01781 -0.455248 9.62859e-17)
(1.11074 -0.345369 1.1768e-16)
(1.16506 -0.246639 2.00022e-17)
(0.759723 0.13395 6.05018e-21)
(0.720463 0.123984 -2.86413e-21)
(0.682549 0.0986036 -8.36136e-20)
(0.644691 0.0634919 3.11948e-19)
(0.605951 0.0112301 1.47348e-19)
(0.566722 -0.0590116 2.74248e-18)
(0.529004 -0.182277 1.42619e-18)
(0.522991 -0.333223 2.46428e-19)
(0.555776 -0.477044 1.71499e-17)
(0.632485 -0.587896 -9.37518e-17)
(0.756147 -0.641033 2.45233e-16)
(0.900894 -0.592015 -9.58257e-17)
(1.02563 -0.489707 8.94673e-18)
(1.12001 -0.3699 -5.34575e-17)
(1.17296 -0.262197 -6.22827e-17)
(0.732277 0.133312 -1.3451e-21)
(0.688351 0.12146 1.09737e-20)
(0.645935 0.0915653 -8.67495e-20)
(0.603588 0.050058 1.72882e-19)
(0.560656 -0.0101466 -4.13934e-19)
(0.515945 -0.0942534 -7.90473e-19)
(0.475293 -0.243526 -5.51246e-18)
(0.473687 -0.413649 -8.34213e-18)
(0.516225 -0.572034 1.90968e-17)
(0.608289 -0.682607 -4.78474e-17)
(0.748677 -0.721121 -1.68068e-16)
(0.904178 -0.648665 8.29288e-17)
(1.03315 -0.526116 1.08962e-16)
(1.12923 -0.396224 4.20416e-17)
(1.18024 -0.278912 1.08438e-16)
(0.700115 0.13231 -1.13654e-20)
(0.650605 0.117847 1.79457e-21)
(0.602789 0.0825101 5.2927e-20)
(0.555289 0.033758 1.59385e-19)
(0.507576 -0.0368745 1.98137e-19)
(0.456851 -0.139079 -2.83097e-19)
(0.414556 -0.315124 5.67011e-18)
(0.417276 -0.509949 8.35871e-18)
(0.471976 -0.682302 -3.34024e-17)
(0.581513 -0.78902 -1.59363e-18)
(0.739991 -0.80812 6.44255e-17)
(0.906713 -0.70974 -8.45289e-18)
(1.04036 -0.565358 -8.16008e-17)
(1.1381 -0.424874 -9.85993e-17)
(1.18793 -0.2972 -3.02455e-17)
(0.66254 0.130505 2.87774e-22)
(0.606228 0.112898 -5.0527e-21)
(0.551628 0.0709619 9.40581e-20)
(0.497829 0.0129624 -6.24534e-19)
(0.444786 -0.0687833 -1.05874e-19)
(0.387232 -0.195786 -6.10611e-19)
(0.34472 -0.400708 -5.36252e-19)
(0.352947 -0.622073 4.71432e-18)
(0.421562 -0.809999 1.75195e-17)
(0.551324 -0.909666 -1.19621e-16)
(0.729851 -0.904575 6.63252e-18)
(0.908358 -0.776522 2.88413e-17)
(1.04699 -0.607865 -5.50741e-17)
(1.14683 -0.455993 6.57264e-18)
(1.19507 -0.317317 -1.88411e-18)
(0.6184 0.128166 1.03859e-20)
(0.553439 0.106584 -1.86694e-20)
(0.490555 0.0565851 -1.61574e-19)
(0.428882 -0.0123017 3.225e-19)
(0.369125 -0.108125 -2.20692e-19)
(0.303732 -0.267501 9.64818e-19)
(0.263667 -0.502788 -5.99244e-18)
(0.278314 -0.756187 -3.41917e-17)
(0.364298 -0.957129 -3.51317e-17)
(0.517001 -1.04524 4.19197e-16)
(0.717346 -1.00996 -3.96105e-17)
(0.908526 -0.849642 -6.09497e-17)
(1.05304 -0.654676 3.93363e-18)
(1.15509 -0.490509 1.12371e-16)
(1.20264 -0.339586 -2.39056e-17)
(0.565964 0.125042 -4.01123e-20)
(0.490298 0.0984602 1.88468e-20)
(0.416889 0.0383241 7.20055e-20)
(0.345755 -0.043451 8.35824e-19)
(0.277923 -0.15422 -6.31087e-19)
(0.203426 -0.359033 4.10048e-18)
(0.167948 -0.626765 1.0805e-17)
(0.192602 -0.911936 6.32842e-17)
(0.298079 -1.12766 9.26932e-17)
(0.477338 -1.19868 -2.95057e-16)
(0.701909 -1.12763 -4.13107e-17)
(0.907007 -0.930502 2.11334e-18)
(1.05817 -0.706846 -3.37486e-17)
(1.1631 -0.528525 -1.1873e-16)
(1.20967 -0.36457 -1.68297e-17)
(0.503216 0.120771 3.05515e-20)
(0.413745 0.0876682 -1.7102e-20)
(0.327468 0.0151789 -1.23964e-19)
(0.244869 -0.0819531 -1.11083e-18)
(0.164637 -0.217959 3.22296e-19)
(0.0833236 -0.472475 -4.21518e-18)
(0.0557168 -0.775388 2.1704e-17)
(0.0926246 -1.09606 -2.58473e-17)
(0.221714 -1.32258 -1.01625e-16)
(0.431265 -1.37071 1.94434e-16)
(0.682531 -1.25678 -4.41166e-17)
(0.90305 -1.02028 3.65715e-17)
(1.0623 -0.765307 5.04713e-18)
(1.17052 -0.571481 9.01431e-17)
(1.217 -0.39241 4.90687e-17)
(0.427112 0.115072 7.37556e-20)
(0.319691 0.0732923 1.43801e-19)
(0.216796 -0.0150419 5.80187e-20)
(0.120365 -0.130517 -1.1466e-19)
(0.025767 -0.302031 2.82023e-18)
(-0.0570479 -0.607981 9.30572e-19)
(-0.0781269 -0.954035 1.863e-17)
(-0.0235309 -1.30909 9.93601e-18)
(0.132654 -1.54636 6.50076e-17)
(0.377326 -1.56365 -1.04465e-16)
(0.658416 -1.40078 -1.53309e-17)
(0.896335 -1.12044 4.75386e-17)
(1.06508 -0.831804 1.15171e-16)
(1.17749 -0.619447 9.66931e-17)
(1.22382 -0.424002 -9.40169e-18)
(0.333399 0.107067 -6.01159e-20)
(0.201545 0.053904 1.42802e-20)
(0.0767296 -0.053669 3.09346e-20)
(-0.0373492 -0.190976 -7.33735e-19)
(-0.148319 -0.414818 -5.00048e-18)
(-0.225558 -0.770203 9.05356e-18)
(-0.237456 -1.16815 -1.673e-17)
(-0.159309 -1.55641 -8.69643e-17)
(0.0288004 -1.7992 -6.57554e-17)
(0.314103 -1.77762 -2.90999e-17)
(0.628352 -1.55867 1.78903e-16)
(0.885968 -1.23243 3.16336e-17)
(1.06627 -0.907629 -2.07763e-16)
(1.18367 -0.674284 -1.66446e-16)
(1.23075 -0.459493 3.76769e-17)
(0.214658 0.0960424 -5.10051e-20)
(0.0491853 0.0278808 -2.68113e-19)
(-0.104505 -0.104026 -2.94562e-19)
(-0.241467 -0.265594 7.86184e-19)
(-0.370572 -0.565503 5.92433e-18)
(-0.431956 -0.971005 -3.77211e-17)
(-0.42645 -1.42044 -3.74731e-17)
(-0.321301 -1.84387 1.22672e-16)
(-0.092523 -2.08359 4.66206e-17)
(0.240075 -2.01308 5.53242e-17)
(0.591549 -1.73275 -3.93284e-17)
(0.871579 -1.35752 -2.12808e-16)
(1.06549 -0.995104 2.23571e-16)
(1.1891 -0.736175 9.60217e-17)
(1.23705 -0.499877 -2.68678e-17)
(0.0600302 0.0798203 -9.82264e-20)
(-0.152559 -0.0106884 4.81382e-19)
(-0.345072 -0.172417 1.51011e-19)
(-0.518103 -0.373845 -1.35828e-18)
(-0.654422 -0.763589 -6.58865e-18)
(-0.688087 -1.2181 3.4776e-17)
(-0.659322 -1.72285 -2.78727e-17)
(-0.511637 -2.16899 -8.77725e-17)
(-0.23312 -2.39601 5.97595e-17)
(0.154456 -2.26624 -9.82602e-17)
(0.547177 -1.92033 -1.18301e-17)
(0.852467 -1.49595 2.30615e-16)
(1.06241 -1.09534 -2.51395e-16)
(1.19351 -0.806965 -7.28439e-17)
(1.24312 -0.54493 -3.79439e-18)
(-0.150791 0.0552651 1.79437e-19)
(-0.433299 -0.0674484 -2.66444e-19)
(-0.679797 -0.270229 7.50693e-19)
(-0.903541 -0.540116 4.63595e-18)
(-1.01996 -1.0133 7.08428e-18)
(-1.0171 -1.52664 -2.36427e-17)
(-0.941036 -2.07359 -1.41093e-17)
(-0.744229 -2.53992 7.83682e-18)
(-0.398106 -2.73556 -8.68222e-18)
(0.0551761 -2.5354 2.32164e-17)
(0.494339 -2.12198 -7.06979e-18)
(0.828275 -1.64832 -8.36105e-17)
(1.05658 -1.21087 2.39398e-16)
(1.19677 -0.886952 -1.94413e-17)
(1.24801 -0.595183 -2.15162e-17)
(-0.458498 0.0169057 -1.53815e-19)
(-0.858263 -0.155995 -1.38705e-18)
(-1.20102 -0.41406 -3.18599e-18)
(-1.49204 -0.810169 -6.34548e-18)
(-1.529 -1.35078 8.07938e-18)
(-1.46027 -1.92043 -8.38251e-18)
(-1.31104 -2.4903 6.79736e-18)
(-1.03407 -2.95872 5.74292e-17)
(-0.588631 -3.08552 -3.39297e-17)
(-0.0586562 -2.80189 6.82501e-17)
(0.429377 -2.32297 -1.1406e-16)
(0.79275 -1.80662 -1.11498e-16)
(1.04093 -1.3374 -6.43704e-17)
(1.19092 -0.974442 5.25932e-17)
(1.2409 -0.646324 -2.33051e-17)
(-1.01137 -0.05554 1.58088e-19)
(-1.61536 -0.282793 1.54541e-18)
(-2.10431 -0.609828 8.34485e-18)
(-2.43844 -1.28409 -1.7183e-17)
(-2.3072 -1.8502 -2.96242e-17)
(-2.0772 -2.41755 9.9857e-17)
(-1.75235 -2.92952 1.30436e-17)
(-1.27953 -3.25184 -3.50985e-17)
(-0.693054 -3.19937 -6.79605e-17)
(-0.109379 -2.79514 1.02713e-16)
(0.378538 -2.28556 1.78944e-16)
(0.731159 -1.79032 6.89073e-17)
(0.976226 -1.34735 -3.5871e-17)
(1.12356 -0.977479 4.6239e-18)
(1.15727 -0.628308 -5.33624e-18)
(-1.01204 -0.125616 -1.57859e-19)
(-1.69623 -0.343385 1.31527e-18)
(-2.30636 -0.718722 6.44138e-18)