/*--------------------------------*- C++ -*----------------------------------*\
  =========                 |
  \\      /  F ield         | OpenFOAM: The Open Source CFD Toolbox
   \\    /   O peration     | Website:  https://openfoam.org
    \\  /    A nd           | Version:  6.0
     \\/     M anipulation  |
\*---------------------------------------------------------------------------*/
FoamFile
{
    version     2.0;
    format      ascii;
    class       surfaceScalarField;
    location    "3";
    object      phi;
}
// * * * * * * * * * * * * * * * * * * * * * * * * * * * * * * * * * * * * * //

dimensions      [0 3 -1 0 0 0 0];

internalField   nonuniform List<scalar> 
9714
(
-0.000106779
8.23624e-05
0.000112672
-9.86226e-05
0.000114507
-8.70145e-05
0.000159211
-7.10046e-05
0.00022138
-4.85497e-05
0.000307767
-1.70264e-05
0.000427733
2.72466e-05
0.000594039
8.95464e-05
0.000823973
0.000176943
0.00113979
0.000298652
0.00156683
0.000466259
0.00212531
0.000690622
0.00280075
0.000971875
0.00346421
0.00127265
0.00367921
0.00224445
0.00145469
-0.000102745
7.6777e-05
0.000108422
-9.50992e-05
0.000106741
-8.42614e-05
0.000148401
-6.92883e-05
0.000206322
-4.8278e-05
0.000286715
-1.87827e-05
0.00039822
2.27159e-05
0.000552542
8.10341e-05
0.00076561
0.000162718
0.00105793
0.000276521
0.00145299
0.000432753
0.00196896
0.000641177
0.00259218
0.000901617
0.00320314
0.00117996
0.00339865
0.00207318
0.00134383
-9.73891e-05
7.15643e-05
0.000102362
-9.03202e-05
9.94836e-05
-8.02652e-05
0.000138295
-6.62927e-05
0.000192246
-4.66881e-05
0.000267049
-1.91647e-05
0.000370669
1.95227e-05
0.000513831
7.38247e-05
0.000711228
0.000149911
0.000981793
0.000255683
0.00134697
0.000400791
0.00182386
0.000593991
0.00239938
0.000834949
0.00296302
0.00109231
0.00314262
0.00192562
0.00124416
-9.10887e-05
6.67683e-05
9.60046e-05
-8.44586e-05
9.28066e-05
-7.51901e-05
0.000128989
-6.22733e-05
0.000179266
-4.41876e-05
0.00024888
-1.87304e-05
0.000345172
1.7114e-05
0.000477963
6.74824e-05
0.00066081
0.000137969
0.000911131
0.000236113
0.00124886
0.000370562
0.00168932
0.000549436
0.00222037
0.000772337
0.00273951
0.00101039
0.0029026
0.00177655
0.00115175
-8.51044e-05
6.23181e-05
8.94115e-05
-7.90789e-05
8.66076e-05
-7.04181e-05
0.000120352
-5.84751e-05
0.000167224
-4.16623e-05
0.00023204
-1.80754e-05
0.000321552
1.51061e-05
0.000444745
6.1708e-05
0.000614128
0.000127043
0.000845798
0.00021781
0.00115787
0.000342261
0.00156493
0.000507759
0.00205531
0.000713958
0.00253427
0.00093418
0.00268405
0.00164992
0.00106602
-7.90375e-05
5.82304e-05
8.33309e-05
-7.33775e-05
8.0916e-05
-6.54744e-05
0.000112414
-5.44591e-05
0.000156145
-3.9009e-05
0.000216518
-1.72364e-05
0.000299757
1.3419e-05
0.000414071
5.65311e-05
0.000570999
0.000116859
0.000785324
0.000200885
0.00107394
0.000315959
0.00144978
0.000469004
0.00190208
0.000659739
0.00234298
0.000863538
0.00247836
0.0015196
0.000986357
-7.37512e-05
5.44289e-05
7.74434e-05
-6.86408e-05
7.56223e-05
-6.11656e-05
0.000105042
-5.09718e-05
0.00014587
-3.65742e-05
0.000202151
-1.64185e-05
0.000279605
1.19125e-05
0.000385721
5.17175e-05
0.00053114
0.000107554
0.000729524
0.00018513
0.000996169
0.000291514
0.00134348
0.00043302
0.00176101
0.000609459
0.00216759
0.000798114
0.00229159
0.00141026
0.000912633
-6.84274e-05
5.09469e-05
7.21998e-05
-6.36142e-05
7.07767e-05
-5.68043e-05
9.82856e-05
-4.74275e-05
0.000136436
-3.42182e-05
0.000188924
-1.56377e-05
0.000261018
1.05273e-05
0.000359546
4.73329e-05
0.000494326
9.88459e-05
0.000677893
0.000170625
0.000924532
0.00026892
0.00124511
0.000399736
0.00163001
0.000562952
0.00200376
0.000737657
0.00211514
0.00129685
0.000844291
-6.39978e-05
4.76852e-05
6.70919e-05
-5.96757e-05
6.62335e-05
-5.32685e-05
9.19597e-05
-4.45653e-05
0.000127623
-3.22317e-05
0.000176615
-1.49855e-05
0.000243771
9.22508e-06
0.000335313
4.32219e-05
0.000460288
9.09128e-05
0.000630278
0.000157137
0.000858136
0.000247996
0.00115437
0.000368933
0.00150952
0.000519956
0.00185371
0.000681803
0.00195512
0.00120331
0.000781215
-5.93389e-05
4.4714e-05
6.26425e-05
-5.52515e-05
6.20993e-05
-4.94206e-05
8.61942e-05
-4.14314e-05
0.00011957
-3.0143e-05
0.000165319
-1.42686e-05
0.000227896
8.07636e-06
0.000312964
3.9508e-05
0.000428868
8.3478e-05
0.000586211
0.000144761
0.000797017
0.000228705
0.00107038
0.00034051
0.00139746
0.000480271
0.0017133
0.000630292
0.00180348
0.00110518
0.000722841
-5.56346e-05
4.19182e-05
5.8251e-05
-5.19524e-05
5.82054e-05
-4.64572e-05
8.07754e-05
-3.89987e-05
0.000112028
-2.84343e-05
0.000154793
-1.36822e-05
0.00021316
6.99624e-06
0.000292272
3.6018e-05
0.000399816
7.67264e-05
0.000545582
0.000133262
0.000740345
0.000210856
0.000992906
0.000314252
0.00129448
0.000443642
0.00158485
0.000582771
0.00166624
0.00102443
0.000668955
-5.15722e-05
3.93812e-05
5.44727e-05
-4.80578e-05
5.4677e-05
-4.30556e-05
7.58567e-05
-3.62171e-05
0.000105158
-2.65682e-05
0.000145155
-1.30172e-05
0.000199612
6.05165e-06
0.000273199
3.28747e-05
0.000373004
7.04025e-05
0.000507982
0.000122725
0.000688215
0.000194424
0.000921153
0.000290055
0.00119859
0.000409876
0.0014643
0.000538974
0.00153581
0.000940151
0.000619101
-4.83575e-05
3.6991e-05
5.07116e-05
-4.51776e-05
5.13487e-05
-4.04782e-05
7.12264e-05
-3.40945e-05
9.87142e-05
-2.50761e-05
0.000136165
-1.24898e-05
0.00018703
5.16357e-06
0.000255543
2.99282e-05
0.000348228
6.46776e-05
0.000473354
0.000112927
0.000639886
0.000179232
0.000855038
0.000267716
0.00111051
0.000378751
0.00135411
0.000498613
0.00141763
0.000871043
0.00057316
-4.48419e-05
3.48228e-05
4.74283e-05
-4.18056e-05
4.83339e-05
-3.75521e-05
6.70243e-05
-3.16964e-05
9.28473e-05
-2.34645e-05
0.000127938
-1.1881e-05
0.000175472
4.40221e-06
0.000239285
2.73005e-05
0.000325392
5.93185e-05
0.000441308
0.000103958
0.000595368
0.000165245
0.000793701
0.000247144
0.0010283
0.000350079
0.00125042
0.00046145
0.00130523
0.000799006
0.000530702
-4.20795e-05
3.27799e-05
4.40849e-05
-3.93717e-05
4.54901e-05
-3.53496e-05
6.30713e-05
-2.98636e-05
8.7351e-05
-2.21472e-05
0.000120275
-1.13707e-05
0.000164752
3.717e-06
0.000224249
2.48289e-05
0.000304252
5.44332e-05
0.000411709
9.56282e-05
0.00055409
0.000152313
0.000737131
0.000228167
0.000952833
0.00032368
0.00115567
0.000427239
0.00120353
0.000739942
0.000491597
-3.9079e-05
3.09228e-05
4.12236e-05
-3.64973e-05
4.29085e-05
-3.28518e-05
5.94749e-05
-2.78231e-05
8.23332e-05
-2.07514e-05
0.000113242
-1.0806e-05
0.000154876
3.05452e-06
0.000210335
2.25778e-05
0.00028473
4.9903e-05
0.000384337
8.80012e-05
0.000515982
0.000140431
0.000684603
0.000210706
0.000882252
0.000299392
0.00106627
0.000395752
0.00110643
0.000678201
0.000455457
-3.67102e-05
2.91667e-05
3.83769e-05
-3.4403e-05
4.04644e-05
-3.09221e-05
5.60805e-05
-2.62306e-05
7.7617e-05
-1.95891e-05
0.000106674
-1.04341e-05
0.000145685
2.49054e-06
0.000197495
2.04998e-05
0.000266675
4.57505e-05
0.000359045
8.09476e-05
0.000480746
0.000129462
0.000636216
0.000194616
0.000817476
0.000277058
0.000984611
0.000366792
0.00101834
0.000627086
0.000422172
-3.40613e-05
2.75754e-05
3.59149e-05
-3.18901e-05
3.82523e-05
-2.87578e-05
5.30007e-05
-2.44597e-05
7.33238e-05
-1.84361e-05
0.000100663
-9.88222e-06
0.000137267
1.93172e-06
0.000185621
1.86069e-05
0.000250042
4.19436e-05
0.00033573
7.44953e-05
0.000448211
0.000119394
0.000591226
0.000179835
0.000756732
0.000256526
0.000907254
0.00034015
0.00093403
0.000573906
0.00039142
-3.1935e-05
2.6077e-05
3.3424e-05
-2.99575e-05
3.61667e-05
-2.69993e-05
5.0103e-05
-2.30039e-05
6.92961e-05
-1.73598e-05
9.50514e-05
-9.561e-06
0.000129414
1.49943e-06
0.00017468
1.68783e-05
0.000234658
3.84401e-05
0.000314167
6.85272e-05
0.00041814
0.000110105
0.000549798
0.000166232
0.000701029
0.000237671
0.000836573
0.000315667
0.000857722
0.000530329
0.000363103
-2.96402e-05
2.47176e-05
3.1273e-05
-2.77756e-05
3.42761e-05
-2.51153e-05
4.74699e-05
-2.14493e-05
6.56255e-05
-1.63214e-05
8.99127e-05
-9.03019e-06
0.00012222
1.05617e-06
0.000164539
1.53029e-05
0.000220476
3.52373e-05
0.000294286
6.30703e-05
0.000390332
0.000101595
0.00051119
0.000153754
0.000648576
0.000220367
0.000769343
0.000293147
0.000784221
0.000484457
0.000336931
-2.78623e-05
2.34297e-05
2.91251e-05
-2.61783e-05
3.24831e-05
-2.36347e-05
4.49813e-05
-2.02106e-05
6.21704e-05
-1.5386e-05
8.51062e-05
-8.71597e-06
0.000115502
7.35015e-07
0.000155198
1.38675e-05
0.000207344
3.22858e-05
0.00027588
5.80286e-05
0.000364629
9.3756e-05
0.000475647
0.000142294
0.00060043
0.000204498
0.000707892
0.000272466
0.000717774
0.000447259
0.000312822
-2.59024e-05
2.22601e-05
2.72747e-05
-2.43206e-05
3.08566e-05
-2.20272e-05
4.27173e-05
-1.88846e-05
5.90163e-05
-1.44794e-05
8.06962e-05
-8.23835e-06
0.000109337
3.90731e-07
0.000146521
1.25695e-05
0.000195238
2.96008e-05
0.000258903
5.34345e-05
0.000340815
8.6591e-05
0.000442375
0.000131817
0.00055487
0.000189962
0.000649123
0.000253443
0.000653377
0.000407663
0.000290541
-2.43161e-05
2.11593e-05
2.54449e-05
-2.28608e-05
2.9324e-05
-2.06865e-05
4.05893e-05
-1.77495e-05
5.60613e-05
-1.3626e-05
7.6584e-05
-7.91437e-06
0.000103592
1.72856e-07
0.000138535
1.13915e-05
0.000184013
2.71321e-05
0.000243181
4.91976e-05
0.000318798
8.00107e-05
0.000411737
0.000122221
0.000513078
0.000176651
0.000595434
0.000235979
0.000595325
0.000376531
0.000270042
-2.26322e-05
2.01565e-05
2.38334e-05
-2.12656e-05
2.79281e-05
-1.92976e-05
3.86461e-05
-1.65973e-05
5.33545e-05
-1.28182e-05
7.28026e-05
-7.47709e-06
9.83108e-05
-8.6494e-08
0.000131102
1.0335e-05
0.000173672
2.48972e-05
0.000228663
4.53528e-05
0.000298327
7.40312e-05
0.000382923
0.000113485
0.000473243
0.000164481
0.000543821
0.000219909
0.000538914
0.000342619
0.000251112
-2.12651e-05
1.92097e-05
2.22316e-05
-2.00165e-05
2.66087e-05
-1.81436e-05
3.68151e-05
-1.56126e-05
5.08138e-05
-1.20758e-05
6.92706e-05
-7.17122e-06
9.33845e-05
-2.34528e-07
0.000124261
9.3629e-06
0.000164055
2.2841e-05
0.000215197
4.18252e-05
0.000279397
6.85645e-05
0.000356363
0.000105519
0.000436667
0.000153353
0.000496712
0.000205145
0.000488304
0.000317001
0.000233688
-1.98081e-05
1.83449e-05
2.08136e-05
-1.86511e-05
2.54039e-05
-1.69529e-05
3.51378e-05
-1.46305e-05
4.84777e-05
-1.13743e-05
6.6011e-05
-6.78098e-06
8.88401e-05
-4.35114e-07
0.000117874
8.50276e-06
0.000155195
2.09952e-05
0.00020273
3.86484e-05
0.000261703
6.36375e-05
0.000331197
9.83146e-05
0.000401547
0.000143197
0.000451218
0.000191536
0.000439012
0.000288111
0.000217582
-1.86618e-05
1.75176e-05
1.94121e-05
-1.75978e-05
2.42504e-05
-1.59759e-05
3.35392e-05
-1.37784e-05
4.62669e-05
-1.07188e-05
6.29511e-05
-6.48719e-06
8.45908e-05
-5.25512e-07
0.000111992
7.70856e-06
0.000146927
1.93062e-05
0.000191151
3.57513e-05
0.000245318
5.91629e-05
0.000307983
9.17754e-05
0.000369323
0.000133917
0.000409848
0.000179009
0.000394854
0.000267489
0.00020274
-1.72552e-05
1.67963e-05
1.82834e-05
-1.62276e-05
2.32445e-05
-1.47777e-05
3.21313e-05
-1.28009e-05
4.4291e-05
-1.00254e-05
6.01747e-05
-6.10378e-06
8.07016e-05
-6.62526e-07
0.000106513
7.02323e-06
0.000139328
1.78017e-05
0.000180388
3.31709e-05
0.000229906
5.51771e-05
0.000285797
8.59085e-05
0.000338128
0.000125449
0.000369734
0.000167431
0.000352094
0.000243002
0.000189002
-1.63354e-05
1.60858e-05
1.70568e-05
-1.53955e-05
2.22523e-05
-1.39946e-05
3.07579e-05
-1.21001e-05
4.23941e-05
-9.48062e-06
5.75505e-05
-5.84714e-06
7.70582e-05
-7.24459e-07
0.000101467
6.3701e-06
0.000132201
1.64315e-05
0.00017037
3.08378e-05
0.00021559
5.15873e-05
0.000265244
8.06035e-05
0.000309523
0.000117701
0.000333457
0.000156731
0.000313883
0.000226759
0.000176326
-1.52362e-05
1.54541e-05
1.60454e-05
-1.43613e-05
2.13696e-05
-1.30983e-05
2.95242e-05
-1.13719e-05
4.0668e-05
-8.95445e-06
5.51376e-05
-5.55941e-06
7.36933e-05
-8.52947e-07
9.67391e-05
5.80996e-06
0.000125631
1.5222e-05
0.000160981
2.8793e-05
0.000201977
4.84482e-05
0.00024541
7.58875e-05
0.000281592
0.000110621
0.000298179
0.0001468
0.000277199
0.000205906
0.000164578
-1.44228e-05
1.48399e-05
1.50262e-05
-1.36055e-05
2.05129e-05
-1.24002e-05
2.83389e-05
-1.07535e-05
3.90316e-05
-8.48586e-06
5.28734e-05
-5.33791e-06
7.05513e-05
-9.11161e-07
9.23774e-05
5.26974e-06
0.000119435
1.41263e-05
0.000152188
2.69638e-05
0.000189247
4.564e-05
0.000226962
7.16273e-05
0.000256032
0.000104118
0.000266601
0.000137567
0.000244244
0.000193229
0.000153727
-1.3477e-05
1.42982e-05
1.41619e-05
-1.27122e-05
1.97551e-05
-1.16183e-05
2.72781e-05
-1.01217e-05
3.75453e-05
-8.02676e-06
5.07966e-05
-5.10202e-06
6.76495e-05
-1.02117e-06
8.82986e-05
4.80716e-06
0.000113692
1.31728e-05
0.000143845
2.54045e-05
0.000176996
4.32378e-05
0.000208956
6.78708e-05
0.000230902
9.81473e-05
0.000235813
0.00012895
0.0002133
0.00017527
0.000143651
-1.2753e-05
1.37697e-05
1.32775e-05
-1.20337e-05
1.90194e-05
-1.10021e-05
2.62613e-05
-9.58075e-06
3.61449e-05
-7.63212e-06
4.88541e-05
-4.91083e-06
6.49532e-05
-1.08564e-06
8.45048e-05
4.35777e-06
0.000108206
1.23273e-05
0.000135948
2.40373e-05
0.000165404
4.1104e-05
0.000192111
6.44566e-05
0.000208008
9.26207e-05
0.000208703
0.000120874
0.000185337
0.000165463
0.000134336
-1.19345e-05
1.33096e-05
1.25312e-05
-1.12734e-05
1.83739e-05
-1.03388e-05
2.53553e-05
-9.05532e-06
3.48677e-05
-7.23904e-06
4.70668e-05
-4.73517e-06
6.24236e-05
-1.19006e-06
8.09202e-05
4.00093e-06
0.000103065
1.16343e-05
0.000128309
2.29419e-05
0.00015408
3.93393e-05
0.000175536
6.14631e-05
0.000185379
8.75162e-05
0.000182143
0.000113294
0.000159848
0.000149747
0.000125668
-1.13331e-05
1.28493e-05
1.1756e-05
-1.07055e-05
1.77321e-05
-9.82818e-06
2.44668e-05
-8.58833e-06
3.36424e-05
-6.93251e-06
4.53577e-05
-4.57315e-06
6.00553e-05
-1.22873e-06
7.75566e-05
3.67874e-06
9.80787e-05
1.1066e-05
0.000120998
2.20126e-05
0.000143259
3.77637e-05
0.000160007
5.86933e-05
0.000164874
8.27391e-05
0.000159324
0.000106114
0.00013637
0.000141923
0.000117656
-1.06129e-05
1.24425e-05
1.10803e-05
-1.0043e-05
1.7159e-05
-9.23748e-06
2.36615e-05
-8.15384e-06
3.25124e-05
-6.57527e-06
4.3796e-05
-4.41534e-06
5.78354e-05
-1.28176e-06
7.43807e-05
3.46896e-06
9.34012e-05
1.06576e-05
0.000113829
2.13494e-05
0.000132576
3.64978e-05
0.000144685
5.62601e-05
0.000144647
7.82999e-05
0.000136784
9.93454e-05
0.000116052
0.000127904
0.000110174
-1.00295e-05
1.20531e-05
1.0392e-05
-9.49743e-06
1.66159e-05
-8.75823e-06
2.29077e-05
-7.69782e-06
3.14744e-05
-6.29285e-06
4.23327e-05
-4.24819e-06
5.5797e-05
-1.27106e-06
7.14056e-05
3.29806e-06
8.88018e-05
1.03732e-05
0.000106862
2.0813e-05
0.000122272
3.53242e-05
0.000130414
5.39207e-05
0.000126486
7.40846e-05
0.000118058
9.28468e-05
9.68778e-05
0.000121427
0.000103268
-9.38886e-06
1.17138e-05
9.7798e-06
-8.90512e-06
1.61385e-05
-8.2248e-06
2.2235e-05
-7.30357e-06
3.0521e-05
-5.96152e-06
4.10095e-05
-4.09592e-06
5.38829e-05
-1.26044e-06
6.85649e-05
3.24076e-06
8.43972e-05
1.02614e-05
9.98995e-05
2.05331e-05
0.00011206
3.43968e-05
0.00011639
5.18375e-05
0.000108681
7.01604e-05
9.93757e-05
8.67203e-05
8.14772e-05
0.000108457
9.67864e-05
-8.85819e-06
1.13848e-05
9.16114e-06
-8.40152e-06
1.56807e-05
-7.77011e-06
2.15983e-05
-6.88371e-06
2.964e-05
-5.68637e-06
3.97576e-05
-3.91027e-06
5.21141e-05
-1.18945e-06
6.58429e-05
3.23987e-06
7.99848e-05
1.02615e-05
9.30059e-05
2.03045e-05
0.000102153
3.34478e-05
0.000103474
4.97124e-05
9.27632e-05
6.63642e-05
8.43541e-05
8.07136e-05
6.63079e-05
0.000102554
9.08365e-05
-8.28723e-06
1.10934e-05
8.59103e-06
-7.87478e-06
1.52699e-05
-7.29521e-06
2.10183e-05
-6.50491e-06
2.88181e-05
-5.35831e-06
3.86083e-05
-3.72076e-06
5.04184e-05
-1.07664e-06
6.32155e-05
3.35713e-06
7.56432e-05
1.04419e-05
8.60211e-05
2.02913e-05
9.24451e-05
3.26744e-05
9.09423e-05
4.77738e-05
7.74719e-05
6.28498e-05
6.93018e-05
7.51039e-05
5.55543e-05
8.96009e-05
8.51859e-05
-7.78979e-06
1.08065e-05
7.99695e-06
-7.40636e-06
1.48706e-05
-6.86122e-06
2.04629e-05
-6.10112e-06
2.80467e-05
-5.05548e-06
3.75065e-05
-3.47469e-06
4.88346e-05
-8.93389e-07
6.06185e-05
3.55997e-06
7.12485e-05
1.07023e-05
7.9015e-05
2.02036e-05
8.30811e-05
3.17405e-05
7.961e-05
4.56248e-05
6.38686e-05
5.93515e-05
5.75665e-05
6.94165e-05
4.42352e-05
8.3583e-05
8.00346e-05
-7.23014e-06
1.05554e-05
7.4552e-06
-6.87876e-06
1.4518e-05
-6.38044e-06
1.99632e-05
-5.68924e-06
2.73332e-05
-4.69269e-06
3.64931e-05
-3.20901e-06
4.72885e-05
-6.3013e-07
5.80635e-05
3.89872e-06
6.68047e-05
1.11572e-05
7.19055e-05
2.02781e-05
7.41984e-05
3.09482e-05
6.88561e-05
4.36151e-05
5.12612e-05
5.61629e-05
4.55628e-05
6.46695e-05
3.74089e-05
7.06557e-05
7.48036e-05
-6.68083e-06
1.03299e-05
6.90611e-06
-6.3594e-06
1.42009e-05
-5.89668e-06
1.9509e-05
-5.25157e-06
2.66803e-05
-4.33593e-06
3.55356e-05
-2.86867e-06
4.57971e-05
-2.63583e-07
5.54381e-05
4.34276e-06
6.22954e-05
1.16363e-05
6.47356e-05
2.00909e-05
6.58742e-05
2.98431e-05
5.92279e-05
4.11623e-05
4.01227e-05
5.28351e-05
3.63127e-05
5.98488e-05
2.87969e-05
6.48264e-05
6.98791e-05
-6.14196e-06
1.01269e-05
6.36248e-06
-5.84363e-06
1.39147e-05
-5.41603e-06
1.9093e-05
-4.80655e-06
2.6075e-05
-3.93414e-06
3.46205e-05
-2.47768e-06
4.42712e-05
2.21506e-07
5.27552e-05
4.9441e-06
5.76357e-05
1.23188e-05
5.75499e-05
2.0012e-05
5.84934e-05
2.89249e-05
5.03012e-05
3.88495e-05
3.05023e-05
4.98752e-05
2.62736e-05
5.57195e-05
2.45174e-05
5.31498e-05
6.49772e-05
-5.61345e-06
9.94141e-06
5.8262e-06
-5.33812e-06
1.36501e-05
-4.91659e-06
1.87053e-05
-4.35529e-06
2.54768e-05
-3.48328e-06
3.3698e-05
-1.96709e-06
4.27034e-05
8.51692e-07
4.99091e-05
5.65075e-06
5.29568e-05
1.29285e-05
5.03652e-05
1.93157e-05
5.2215e-05
2.74845e-05
4.21557e-05
3.59317e-05
2.21107e-05
4.66637e-05
1.81535e-05
5.13687e-05
1.78219e-05
4.80988e-05
6.04961e-05
-5.08857e-06
9.77067e-06
5.28436e-06
-4.81381e-06
1.34004e-05
-4.45536e-06
1.83174e-05
-3.88093e-06
2.48897e-05
-2.96869e-06
3.27169e-05
-1.35597e-06
4.10035e-05
1.62038e-06
4.69429e-05
6.53979e-06
4.80827e-05
1.37644e-05
4.33581e-05
1.87822e-05
4.75497e-05
2.64975e-05
3.44125e-05
3.42377e-05
1.48054e-05
4.44282e-05
8.71264e-06
4.78343e-05
1.54733e-05
3.78141e-05
5.62276e-05
-4.56969e-06
9.60155e-06
4.76086e-06
-4.3432e-06
1.31494e-05
-3.95577e-06
1.7938e-05
-3.39663e-06
2.42728e-05
-2.37375e-06
3.16276e-05
-5.6593e-07
3.91557e-05
2.57452e-06
4.38079e-05
7.51019e-06
4.32838e-05
1.44085e-05
3.65243e-05
1.70104e-05
4.50525e-05
2.51935e-05
2.61321e-05
3.26199e-05
7.37916e-06
4.19579e-05
1.56422e-06
4.42973e-05
1.09476e-05
3.34045e-05
5.23953e-05
-4.08236e-06
9.44615e-06
4.25437e-06
-3.83832e-06
1.29138e-05
-3.48433e-06
1.75448e-05
-2.82448e-06
2.3586e-05
-1.6223e-06
3.03688e-05
3.83484e-07
3.70895e-05
3.65707e-06
4.05471e-05
8.67796e-06
3.83097e-05
1.53175e-05
3.01203e-05
1.77911e-05
4.29495e-05
2.67323e-05
1.71065e-05
3.29159e-05
1.56462e-06
4.02097e-05
-5.12571e-06
4.16561e-05
9.92117e-06
2.49848e-05
4.87457e-05
-3.59565e-06
9.29856e-06
3.77053e-06
-3.3736e-06
1.26733e-05
-2.96219e-06
1.71281e-05
-2.15557e-06
2.2726e-05
-7.1619e-07
2.88786e-05
1.5046e-06
3.48338e-05
4.90176e-06
3.71931e-05
9.87071e-06
3.3503e-05
1.58276e-05
2.42104e-05
1.83834e-05
4.04966e-05
2.74975e-05
7.88278e-06
3.24514e-05
-3.39251e-06
3.80509e-05
-8.69485e-06
3.88211e-05
6.82146e-06
2.20155e-05
4.5349e-05
-3.14459e-06
9.15154e-06
3.31027e-06
-2.9044e-06
1.24328e-05
-2.3884e-06
1.65746e-05
-1.31934e-06
2.16296e-05
3.57406e-07
2.71462e-05
2.77525e-06
3.2362e-05
6.26716e-06
3.37198e-05
1.13184e-05
2.84806e-05
1.66104e-05
1.91485e-05
2.01207e-05
3.73389e-05
2.82076e-05
-3.07188e-07
3.18827e-05
-6.83723e-06
3.59446e-05
-1.21895e-05
3.63982e-05
6.12679e-06
1.56294e-05
4.20171e-05
-2.73785e-06
9.01883e-06
2.88867e-06
-2.44548e-06
1.21245e-05
-1.70328e-06
1.58188e-05
-3.58708e-07
2.02337e-05
1.58095e-06
2.51586e-05
4.24598e-06
2.96521e-05
7.7584e-06
3.02518e-05
1.27578e-05
2.36834e-05
1.67397e-05
1.52155e-05
2.14969e-05
3.27015e-05
2.83654e-05
-7.26434e-06
3.09855e-05
-9.38802e-06
3.36912e-05
-1.31435e-05
3.38305e-05
3.88284e-06
1.35243e-05
3.89089e-05
-2.36111e-06
8.88186e-06
2.50695e-06
-1.91747e-06
1.16751e-05
-9.2921e-07
1.47988e-05
7.48331e-07
1.85281e-05
3.01418e-06
2.28276e-05
5.8606e-06
2.67256e-05
9.37333e-06
2.67714e-05
1.4558e-05
1.85685e-05
1.79053e-05
1.20633e-05
2.42052e-05
2.66291e-05
2.87194e-05
-1.18925e-05
3.0186e-05
-1.07755e-05
3.16109e-05
-1.3946e-05
3.16225e-05
3.05422e-06
8.98694e-06
3.59116e-05
-1.95075e-06
8.67796e-06
2.16556e-06
-1.30636e-06
1.10201e-05
-4.3736e-08
1.35196e-05
2.00798e-06
1.64244e-05
4.61498e-06
2.01638e-05
7.71333e-06
2.35578e-05
1.10695e-05
2.34248e-05
1.62841e-05
1.35779e-05
1.92323e-05
9.18008e-06
2.6509e-05
1.94372e-05
2.87335e-05
-1.41994e-05
2.91883e-05
-1.10969e-05
2.94591e-05
-1.26697e-05
2.93228e-05
1.35159e-06
7.69579e-06
3.31054e-05
-1.45046e-06
8.32056e-06
1.81444e-06
-6.14955e-07
1.01734e-05
9.61105e-07
1.19144e-05
3.45004e-06
1.39052e-05
6.36885e-06
1.71676e-05
9.63884e-06
2.01666e-05
1.29231e-05
2.01617e-05
1.84007e-05
8.25256e-06
2.15038e-05
6.22472e-06
2.86128e-05
1.24258e-05
2.87004e-05
-1.43863e-05
2.82133e-05
-1.06231e-05
2.74854e-05
-1.11909e-05
2.72971e-05
3.714e-07
4.86277e-06
3.04139e-05
-8.89382e-07
7.80422e-06
1.38438e-06
1.20621e-07
9.15224e-06
2.1329e-06
9.88445e-06
5.05047e-06
1.09378e-05
8.19672e-06
1.39494e-05
1.17282e-05
1.65214e-05
1.50936e-05
1.69184e-05
2.03553e-05
3.04648e-06
2.36023e-05
3.07292e-06
2.97693e-05
6.33206e-06
2.83175e-05
-1.3017e-05
2.7006e-05
-9.18018e-06
2.55761e-05
-8.38326e-06
2.52944e-05
-7.96281e-07
4.1851e-06
2.78567e-05
-1.84201e-07
7.21615e-06
7.67122e-07
9.71997e-07
7.98492e-06
3.51304e-06
7.31983e-06
6.86669e-06
7.55493e-06
1.00885e-05
1.06504e-05
1.40169e-05
1.25105e-05
1.74426e-05
1.34387e-05
2.23099e-05
-1.61773e-06
2.57319e-05
-2.57803e-07
3.03935e-05
1.72723e-06
2.78363e-05
-1.05174e-05
2.57731e-05
-7.09117e-06
2.39408e-05
-5.64107e-06
2.34589e-05
-1.32683e-06
3.08965e-06
2.5389e-05
9.16632e-07
6.60313e-06
-3.21588e-07
2.08059e-06
6.81325e-06
5.2184e-06
4.17317e-06
8.82373e-06
3.91177e-06
1.20305e-05
7.36744e-06
1.58378e-05
8.54587e-06
2.03063e-05
9.60001e-06
2.42516e-05
-6.00875e-06
2.77719e-05
-3.68148e-06
3.05205e-05
-9.62774e-07
2.71496e-05
-7.22138e-06
2.43424e-05
-4.18374e-06
2.22782e-05
-2.62274e-06
2.14388e-05
-1.24135e-06
2.81375e-06
2.29004e-05
3.35959e-06
5.55914e-06
-2.32369e-06
4.03001e-06
6.14304e-06
7.32706e-06
8.62686e-07
1.09131e-05
2.93556e-07
1.40958e-05
4.08603e-06
1.81114e-05
4.50476e-06
2.35479e-05
4.63812e-06
2.60793e-05
-8.85141e-06
2.93827e-05
-6.94221e-06
2.96953e-05
-1.22479e-06
2.5665e-05
-3.2629e-06
2.22154e-05
-6.42244e-07
2.01663e-05
2.09769e-07
1.89465e-05
-5.40657e-07
2.66401e-06
2.00937e-05
8.53293e-06
3.16652e-06
-6.1439e-06
8.5448e-06
6.1284e-06
1.05882e-05
-1.19227e-06
1.37101e-05
-2.86896e-06
1.74841e-05
2.21116e-07
2.16874e-05
2.75091e-07
2.65776e-05
3.95146e-07
2.69789e-05
-9.73092e-06
2.66118e-05
-6.51487e-06
2.42815e-05
1.19922e-06
2.0118e-05
7.88162e-07
1.7145e-05
2.46598e-06
1.603e-05
2.2651e-06
1.47179e-05
1.55562e-07
2.55807e-06
1.59329e-05
1.15486e-05
-8.38189e-06
1.76728e-05
1.64701e-05
1.35867e-05
1.38032e-05
1.41115e-05
1.4493e-05
4.76295e-06
-1.75121e-06
-5.52452e-07
2.35986e-07
2.70293e-06
4.96771e-06
5.12355e-06
7.68196e-06
0.0014615
4.33766e-05
0.00146724
4.41995e-05
0.00147245
4.50136e-05
0.00147753
4.56268e-05
0.00148274
4.61212e-05
0.00148813
4.65144e-05
0.00149381
4.68268e-05
0.00149979
4.70635e-05
0.00150599
4.73354e-05
4.68011e-05
0.00151295
0.00135021
3.73673e-05
0.00135606
3.86833e-05
0.00136146
3.99107e-05
0.00136669
4.06661e-05
0.00137195
4.11312e-05
0.00137734
4.13824e-05
0.00138295
4.14585e-05
0.00138887
4.13734e-05
0.0013952
4.12099e-05
4.00931e-05
0.00140195
0.00124857
3.32669e-05
0.00125339
3.41419e-05
0.00125831
3.52088e-05
0.00126334
3.58439e-05
0.00126851
3.61757e-05
0.00127382
3.6258e-05
0.00127934
3.61262e-05
0.0012851
3.57793e-05
0.00129116
3.53043e-05
3.3732e-05
0.00129755
0.00115513
3.0142e-05
0.00115918
3.0305e-05
0.00116359
3.0964e-05
0.00116828
3.13079e-05
0.00117318
3.14134e-05
0.0011783
3.12967e-05
0.0011836
3.09555e-05
0.00118913
3.03689e-05
0.00119491
2.9615e-05
2.76098e-05
0.00120106
0.00106884
2.75413e-05
0.0010724
2.69369e-05
0.0010764
2.7091e-05
0.00108076
2.70813e-05
0.00108538
2.69199e-05
0.00109023
2.65817e-05
0.00109526
2.60333e-05
0.00110049
2.52254e-05
0.00110593
2.42328e-05
2.18489e-05
0.00111171
0.000988962
2.51518e-05
0.000992238
2.38317e-05
0.000995969
2.34913e-05
0.00100006
2.31151e-05
0.00100441
2.26843e-05
0.00100898
2.21297e-05
0.00101373
2.13872e-05
0.00101863
2.03733e-05
0.00102373
1.91583e-05
1.64155e-05
0.00102919
0.000915087
2.29429e-05
0.000918194
2.09449e-05
0.000921719
2.01272e-05
0.000925589
1.94037e-05
0.000929692
1.87189e-05
0.000933998
1.79652e-05
0.000938434
1.70489e-05
0.000943013
1.58553e-05
0.000947745
1.44448e-05
1.14008e-05
0.000952786
0.000846742
2.07258e-05
0.00084976
1.81782e-05
0.00085314
1.69231e-05
0.000856833
1.59134e-05
0.000860707
1.49837e-05
0.000864756
1.40806e-05
0.000868884
1.30033e-05
0.000873133
1.16759e-05
0.000877477
1.01007e-05
6.78326e-06
0.000882099
0.000783659
1.85953e-05
0.000786537
1.53933e-05
0.000789846
1.37859e-05
0.00079332
1.2457e-05
0.000797036
1.14003e-05
0.000800782
1.03358e-05
0.000804651
9.20247e-06
0.000808533
7.75566e-06
0.000812489
6.08481e-06
2.59292e-06
0.000816666
0.00072525
1.60826e-05
0.000728182
1.24753e-05
0.00073134
1.05236e-05
0.000734747
9.04963e-06
0.000738202
7.85085e-06
0.000741758
6.77626e-06
0.00074529
5.59141e-06
0.000748852
4.13169e-06
0.000752437
2.41869e-06
-1.20802e-06
0.000756204
0.000671409
1.37385e-05
0.000674287
9.63331e-06
0.000677402
7.42484e-06
0.000680654
5.8011e-06
0.000683946
4.56976e-06
0.000687237
3.49235e-06
0.00069049
2.34624e-06
0.000693722
8.98671e-07
0.000696919
-8.3754e-07
-4.51976e-06
0.000700253
0.000621637
1.11776e-05
0.000624539
6.75889e-06
0.000627606
4.3645e-06
0.000630743
2.68418e-06
0.000633853
1.4677e-06
0.000636905
4.72847e-07
0.000639863
-5.90403e-07
0.000642756
-1.96572e-06
0.000645603
-3.67557e-06
-7.33588e-06
0.000648459
0.000575759
8.78228e-06
0.000578649
3.97817e-06
0.000581676
1.4527e-06
0.000584685
-2.48835e-07
0.000587623
-1.37901e-06
0.00059042
-2.25922e-06
0.000593094
-3.18715e-06
0.000595655
-4.47191e-06
0.000598147
-6.12954e-06
-9.71079e-06
0.000600535
0.000533381
6.06063e-06
0.000536304
1.03178e-06
0.000539283
-1.5371e-06
0.000542178
-3.16887e-06
0.000544929
-4.12926e-06
0.000547487
-4.81752e-06
0.000549871
-5.54027e-06
0.000552101
-6.66142e-06
0.000554197
-8.21018e-06
-1.1516e-05
0.000556108
0.000494321
3.51429e-06
0.00049726
-1.77531e-06
0.000500175
-4.35902e-06
0.000502956
-5.85349e-06
0.000505514
-6.62257e-06
0.000507838
-7.07952e-06
0.000509922
-7.58507e-06
0.000511804
-8.52018e-06
0.000513542
-9.91558e-06
-1.30231e-05
0.000514975
0.00045827
5.96182e-07
0.000461228
-4.80987e-06
0.000464088
-7.31323e-06
0.000466742
-8.5727e-06
0.000469109
-9.05828e-06
0.000471178
-9.1694e-06
0.000472953
-9.37804e-06
0.000474503
-1.00402e-05
0.000475842
-1.1284e-05
-1.38828e-05
0.000476857
0.000425046
-2.07803e-06
0.000428
-7.6361e-06
0.00043081
-1.00095e-05
0.000433308
-1.09983e-05
0.000435469
-1.11644e-05
0.000437257
-1.09527e-05
0.000438738
-1.08899e-05
0.000439944
-1.13322e-05
0.000440983
-1.24015e-05
-1.47189e-05
0.000441579
0.000394388
-5.16637e-06
0.000397353
-1.07369e-05
0.000400091
-1.28292e-05
0.000402395
-1.34239e-05
0.000404329
-1.31358e-05
0.000405837
-1.25297e-05
0.000407031
-1.20879e-05
0.000407921
-1.2243e-05
0.000408634
-1.31576e-05
-1.48272e-05
0.000408921
0.000366137
-7.93193e-06
0.000369112
-1.3495e-05
0.000371712
-1.52877e-05
0.000373805
-1.54122e-05
0.000375497
-1.47939e-05
0.000376739
-1.38175e-05
0.000377647
-1.31545e-05
0.000378233
-1.30963e-05
0.000378682
-1.38931e-05
-1.51964e-05
0.000378574
0.000340097
-1.11821e-05
0.000343025
-1.65137e-05
0.000345469
-1.77646e-05
0.000347312
-1.73409e-05
0.000348778
-1.62403e-05
0.000349735
-1.48179e-05
0.000350386
-1.37924e-05
0.000350693
-1.34292e-05
0.00035085
-1.40827e-05
-1.45418e-05
0.000350451
0.000316115
-1.40886e-05
0.000318935
-1.90878e-05
0.00032119
-1.98035e-05
0.000322772
-1.886e-05
0.000324008
-1.73933e-05
0.000324689
-1.56493e-05
0.000325103
-1.44406e-05
0.00032514
-1.39387e-05
0.000325107
-1.44957e-05
-1.4495e-05
0.000324423
0.000293965
-1.76189e-05
0.000296652
-2.18992e-05
0.000298702
-2.18414e-05
0.000300006
-2.02661e-05
0.000301011
-1.82764e-05
0.000301421
-1.60879e-05
0.00030162
-1.45025e-05
0.000301425
-1.36975e-05
0.000301199
-1.41281e-05
-1.32675e-05
0.000300336
0.000273532
-2.05713e-05
0.000276049
-2.41127e-05
0.000277859
-2.33619e-05
0.000278884
-2.12362e-05
0.000279658
-1.88866e-05
0.000279824
-1.64503e-05
0.000279828
-1.47711e-05
0.000279421
-1.39377e-05
0.000279052
-1.4351e-05
-1.29918e-05
0.000277967
0.000254642
-2.42657e-05
0.000256963
-2.65931e-05
0.000258519
-2.4913e-05
0.000259258
-2.2083e-05
0.000259804
-1.92572e-05
0.000259743
-1.63815e-05
0.000259569
-1.43522e-05
0.000258987
-1.31793e-05
0.000258479
-1.35207e-05
-1.12851e-05
0.000257269
0.000237205
-2.71691e-05
0.000239281
-2.84042e-05
0.00024056
-2.58512e-05
0.000241009
-2.25299e-05
0.000241351
-1.93361e-05
0.000241091
-1.63692e-05
0.000240769
-1.42337e-05
0.000240023
-1.31613e-05
0.000239421
-1.35164e-05
-1.07702e-05
0.000238085
0.000221053
-3.0985e-05
0.000222874
-3.05139e-05
0.000223859
-2.69204e-05
0.00022404
-2.28891e-05
0.000224175
-1.93147e-05
0.000223752
-1.59371e-05
0.000223286
-1.34101e-05
0.000222416
-1.19103e-05
0.000221721
-1.22228e-05
-8.72404e-06
0.000220334
0.00020612
-3.36923e-05
0.000207637
-3.17305e-05
0.000208316
-2.72221e-05
0.000208237
-2.27903e-05
0.000208201
-1.89615e-05
0.000207645
-1.55786e-05
0.000207069
-1.30257e-05
0.000206076
-1.1673e-05
0.000205315
-1.21244e-05
-8.14408e-06
0.000203892
0.000192257
-3.74203e-05
0.000193464
-3.32687e-05
0.000193832
-2.7756e-05
0.000193524
-2.26794e-05
0.000193327
-1.86748e-05
0.000192666
-1.49183e-05
0.000191988
-1.19686e-05
0.0001909
-1.00581e-05
0.000190076
-1.05361e-05
-5.98679e-06
0.000188673
0.000179413
-3.97569e-05
0.000180267
-3.37821e-05
0.000180334
-2.73948e-05
0.000179808
-2.21118e-05
0.000179491
-1.79906e-05
0.000178749
-1.43524e-05
0.000178004
-1.14296e-05
0.000176817
-9.68838e-06
0.000175945
-1.04234e-05
-5.54003e-06
0.000174588
0.00016745
-4.32224e-05