/*--------------------------------*- C++ -*----------------------------------*\
  =========                 |
  \\      /  F ield         | OpenFOAM: The Open Source CFD Toolbox
   \\    /   O peration     | Website:  https://openfoam.org
    \\  /    A nd           | Version:  6.0
     \\/     M anipulation  |
\*---------------------------------------------------------------------------*/
FoamFile
{
    version     2.0;
    format      ascii;
    class       volVectorField;
    location    "3";
    object      U;
}
// * * * * * * * * * * * * * * * * * * * * * * * * * * * * * * * * * * * * * //

dimensions      [0 1 -1 0 0 0 0];

internalField   nonuniform List<vector> 
4920
(
(0.996083 0.0893288 -1.46405e-19)
(0.996113 0.0891399 2.36502e-19)
(0.996148 0.0889414 -6.67622e-19)
(0.996178 0.0887661 9.40713e-19)
(0.9962 0.0886338 3.06457e-19)
(0.996206 0.0885189 -3.93538e-19)
(0.99618 0.0884599 9.54133e-19)
(0.996107 0.0884148 -2.21707e-19)
(0.995992 0.0882869 4.71937e-19)
(0.995777 0.0879958 3.05041e-18)
(0.995429 0.0874054 -4.60184e-18)
(0.994864 0.0862224 5.43393e-18)
(0.994087 0.0840421 2.41885e-18)
(0.993307 0.0805764 7.17669e-19)
(0.990103 0.0669051 -9.81758e-18)
(0.995368 0.092919 1.00252e-19)
(0.995366 0.092678 -6.12876e-19)
(0.995394 0.092311 3.00759e-19)
(0.995426 0.0919422 1.35806e-19)
(0.99545 0.0915632 6.50475e-19)
(0.995451 0.0911438 2.26e-19)
(0.995393 0.0907034 -1.89413e-18)
(0.995226 0.0901416 5.05934e-20)
(0.994977 0.0892956 5.88552e-19)
(0.994587 0.0879629 -5.77955e-18)
(0.993949 0.0859559 7.63918e-18)
(0.992917 0.0830074 -1.09609e-17)
(0.991525 0.0786081 8.56028e-19)
(0.990149 0.0722079 2.29378e-17)
(0.987967 0.0499037 3.39704e-17)
(0.994292 0.0947013 6.9842e-20)
(0.994171 0.094623 -5.89025e-19)
(0.99412 0.0942528 1.96518e-19)
(0.994098 0.0938265 4.75228e-19)
(0.994082 0.0933385 -1.41334e-18)
(0.994055 0.0927496 3.65889e-19)
(0.993966 0.0920759 5.3136e-19)
(0.993742 0.0911963 -1.20734e-18)
(0.99342 0.0899053 1.60263e-18)
(0.992953 0.0879769 -1.71737e-18)
(0.992263 0.0852112 3.98462e-18)
(0.991218 0.0813585 -5.49507e-18)
(0.989867 0.0759706 -5.44672e-18)
(0.988504 0.0685736 -8.58566e-18)
(0.988331 0.0452876 -1.95608e-17)
(0.993174 0.0956999 2.31252e-20)
(0.992883 0.0956456 -1.94184e-19)
(0.992697 0.0953057 3.01021e-19)
(0.992562 0.0949011 -4.77701e-19)
(0.992451 0.0944174 1.82064e-19)
(0.992345 0.0937887 6.28525e-19)
(0.992188 0.0930309 1.4978e-18)
(0.991897 0.0919828 -5.66779e-19)
(0.991491 0.0904586 7.74003e-19)
(0.99095 0.0881854 4.42456e-18)
(0.990206 0.0849362 -7.81077e-18)
(0.989172 0.0804937 3.87613e-18)
(0.987932 0.0743791 8.37634e-18)
(0.986715 0.0661906 -2.96556e-17)
(0.988333 0.0423556 -4.28006e-18)
(0.991986 0.0965072 1.93962e-19)
(0.991497 0.0966088 -4.50413e-19)
(0.991148 0.0963186 -6.78251e-20)
(0.990873 0.095924 -2.38829e-19)
(0.990644 0.0954105 2.63193e-21)
(0.990434 0.0947105 7.68917e-19)
(0.99019 0.0938624 -3.7e-19)
(0.989823 0.0926914 -2.28056e-18)
(0.989334 0.0909813 1.14279e-19)
(0.988689 0.088462 -3.74454e-18)
(0.987862 0.0848841 5.46247e-20)
(0.986812 0.0799643 6.25456e-18)
(0.985685 0.0732029 -5.25241e-18)
(0.9847 0.0642553 7.887e-18)
(0.987999 0.0398768 -1.7156e-17)
(0.990883 0.0971261 7.938e-20)
(0.990176 0.097155 2.3217e-19)
(0.989628 0.096899 -7.45666e-19)
(0.989169 0.0965666 5.92732e-19)
(0.988775 0.0961111 3.93465e-19)
(0.988423 0.0954381 -8.22044e-19)
(0.988062 0.0945793 6.08812e-19)
(0.987603 0.093329 2.26096e-18)
(0.987012 0.0915116 7.03847e-19)
(0.986255 0.0888077 1.52585e-18)
(0.98532 0.0849303 7.60167e-18)
(0.984221 0.0795998 -2.14209e-18)
(0.983207 0.0722332 -1.25398e-17)
(0.982526 0.0625297 -1.0351e-17)
(0.987313 0.0374967 -6.56389e-18)
(0.989729 0.0979752 -1.28916e-20)
(0.988796 0.0981631 2.35455e-19)
(0.988039 0.0979144 -3.69512e-19)
(0.987382 0.0975524 -1.7994e-19)
(0.986813 0.097038 8.75956e-19)
(0.986306 0.0962853 -4.88959e-19)
(0.985816 0.0953497 4.01942e-19)
(0.985255 0.0940128 -3.51551e-18)
(0.984561 0.0920639 2.56797e-18)
(0.983669 0.0891886 1.01796e-19)
(0.982603 0.0850716 -6.57465e-18)
(0.981433 0.0793311 -9.21955e-19)
(0.980531 0.0713493 1.05227e-17)
(0.980214 0.0608632 8.43587e-17)
(0.986483 0.0350788 3.74304e-17)
(0.988519 0.098736 -3.3482e-20)
(0.987358 0.0988035 1.42548e-19)
(0.986385 0.0985666 -3.42032e-19)
(0.985517 0.0982628 8.86668e-19)
(0.98475 0.0977972 1.77876e-19)
(0.984073 0.0970735 -5.30311e-19)
(0.983445 0.0961193 -1.29107e-19)
(0.982783 0.0947032 1.07855e-18)
(0.981977 0.0926595 -9.8954e-19)
(0.980957 0.0896151 4.02621e-19)
(0.979741 0.0852079 9.64758e-18)
(0.978474 0.0790468 2.40582e-19)
(0.977677 0.0704062 2.89897e-17)
(0.977796 0.0590901 -1.15086e-16)
(0.985478 0.0324186 -3.35281e-17)
(0.987215 0.0997357 8.33561e-20)
(0.985804 0.0999866 -3.29993e-19)
(0.984597 0.0997392 1.96063e-19)
(0.983506 0.0993784 -1.76621e-19)
(0.982536 0.0988375 -1.82744e-19)
(0.981692 0.0980146 -2.10188e-19)
(0.980934 0.0969715 1.07602e-18)
(0.980179 0.095463 -7.5174e-19)
(0.97928 0.0932759 1.40249e-18)
(0.97811 0.0900503 -4.53646e-18)
(0.976725 0.085377 -1.00832e-18)
(0.975352 0.0787343 -8.46446e-18)
(0.974661 0.0693545 -2.17009e-17)
(0.97529 0.0571439 5.84138e-18)
(0.984523 0.02958 3.3781e-17)
(0.985915 0.100649 -7.0327e-20)
(0.984251 0.100722 5.22007e-20)
(0.982799 0.100468 -1.81447e-19)
(0.981463 0.100153 -1.36003e-19)
(0.980264 0.0996614 8.92274e-20)
(0.979227 0.0988664 -9.11076e-20)
(0.978319 0.0978105 6.19092e-19)
(0.977466 0.0962199 -6.70053e-19)
(0.976454 0.0939321 1.84298e-19)
(0.975134 0.0905106 -3.66548e-19)
(0.973569 0.0854812 -3.08316e-19)
(0.972055 0.0783041 1.77063e-19)
(0.971484 0.0680964 -3.48465e-18)
(0.972727 0.0549147 3.44461e-17)
(0.983542 0.026403 -2.82573e-18)
(0.984488 0.101873 -5.91637e-22)
(0.982554 0.102162 -2.31029e-20)
(0.980853 0.10187 -4.05053e-19)
(0.979275 0.101464 6.61556e-19)
(0.977855 0.100855 4.77313e-19)
(0.976634 0.0999272 -8.00892e-19)
(0.975583 0.0987598 2.62695e-19)
(0.974626 0.0970632 -4.82602e-19)
(0.973505 0.0946089 -5.25145e-20)
(0.972008 0.0909629 4.89723e-18)
(0.970235 0.0855853 -3.99111e-18)
(0.968576 0.077771 -3.87942e-18)
(0.968163 0.0666173 2.79398e-18)
(0.970129 0.0523772 -3.18456e-17)
(0.982666 0.0229456 5.91649e-18)
(0.983032 0.102941 8.11152e-21)
(0.980835 0.102987 2.75952e-19)
(0.978882 0.102667 -1.25988e-19)
(0.977051 0.102302 -3.29569e-19)
(0.975388 0.101749 2.10006e-19)
(0.973959 0.100861 2.28423e-20)
(0.972743 0.0996914 -3.02724e-19)
(0.97167 0.0979077 -5.77284e-19)
(0.970414 0.0953294 -5.4366e-19)
(0.968741 0.0914329 -3.90018e-18)
(0.966727 0.0855844 -6.73933e-18)
(0.964901 0.0770515 1.78714e-17)
(0.964677 0.0648212 -7.61159e-18)
(0.967515 0.0494442 8.45693e-17)
(0.981842 0.0190951 -4.58817e-17)
(0.981475 0.104324 3.96264e-20)
(0.979002 0.104542 4.13269e-20)
(0.976793 0.104166 1.65347e-19)
(0.974709 0.103706 1.41324e-19)
(0.972807 0.103041 -2.00436e-19)
(0.97117 0.102029 4.3463e-19)
(0.96979 0.100751 -3.35661e-19)
(0.968592 0.0988489 -4.19684e-20)
(0.967211 0.0960712 3.2416e-19)
(0.965323 0.0919017 1.10391e-18)
(0.963019 0.0855794 5.67349e-18)
(0.961011 0.0761754 7.54502e-18)
(0.961029 0.0626925 2.89809e-17)
(0.964896 0.0460693 -7.11079e-17)
(0.981264 0.0149677 7.03344e-17)
(0.979978 0.105473 -7.70669e-20)
(0.977236 0.105404 -1.80859e-20)
(0.974759 0.105015 2.05987e-19)
(0.972395 0.104628 -6.72806e-20)
(0.970217 0.104045 1.21258e-19)
(0.968338 0.103084 7.98122e-20)
(0.966767 0.1018 -4.94611e-19)
(0.965435 0.0997916 2.1269e-19)
(0.963883 0.0968575 -4.93116e-19)
(0.961713 0.0923814 2.45895e-18)
(0.959093 0.0854554 -1.26151e-18)
(0.956866 0.075051 -1.29383e-17)
(0.95719 0.060139 -3.79172e-17)
(0.962299 0.0421767 2.21632e-17)
(0.980868 0.0104072 -1.01889e-17)
(0.978344 0.10699 3.30746e-20)
(0.97532 0.10725 3.67622e-20)
(0.972581 0.106825 -2.87582e-19)
(0.969957 0.106313 5.71515e-19)
(0.967523 0.105567 -1.81725e-19)
(0.965415 0.104433 1.5006e-19)
(0.963663 0.102991 -1.15963e-19)
(0.962129 0.100833 -5.43197e-19)
(0.96034 0.0976948 2.2711e-18)
(0.957856 0.0928742 -2.53226e-18)
(0.954862 0.0852859 2.42338e-18)
(0.952436 0.0737047 -3.97476e-18)
(0.953175 0.0571452 2.23232e-17)
(0.959769 0.037762 -2.28938e-17)
(0.98084 0.00553961 -2.78916e-17)
(0.976696 0.108279 1.68113e-20)
(0.973394 0.108297 1.2772e-19)
(0.970387 0.107881 -2.1357e-19)
(0.967478 0.107461 1.01492e-19)
(0.964752 0.106791 -1.63095e-19)
(0.962381 0.105666 2.06276e-20)
(0.960346 0.104223 8.47265e-19)
(0.958582 0.10198 -1.42116e-18)
(0.956525 0.0985868 6.18516e-20)
(0.953673 0.0933252 2.53992e-18)
(0.950301 0.0849318 -7.68811e-18)
(0.947691 0.0720149 2.17165e-18)
(0.948962 0.0536014 -6.14866e-19)
(0.957321 0.032724 5.49894e-17)
(0.981088 0.000162729 -3.38199e-17)
(0.974778 0.110096 7.32902e-21)
(0.971168 0.110465 -4.78872e-22)
(0.967886 0.109974 -5.82139e-20)
(0.9647 0.109408 2.19781e-19)
(0.961699 0.108559 -1.65672e-19)
(0.95903 0.107301 1.10696e-19)
(0.956775 0.105711 1.26004e-19)
(0.954747 0.103197 -4.64349e-19)
(0.952391 0.0995262 7.50106e-19)
(0.949157 0.0937683 -4.23928e-18)
(0.945381 0.0844637 5.46763e-18)
(0.942615 0.0700061 2.59252e-18)
(0.944572 0.0494855 -4.19968e-18)
(0.954984 0.0270067 -2.26843e-17)
(0.981799 -0.00563225 8.85298e-17)
(0.97265 0.111562 5.05687e-20)
(0.968751 0.111659 -1.11241e-19)
(0.965206 0.111226 9.82427e-20)
(0.961747 0.110787 5.15295e-20)
(0.958459 0.110062 -1.78382e-19)
(0.955522 0.108794 1.61304e-19)
(0.952975 0.107153 -1.84048e-19)
(0.95067 0.10455 1.2029e-19)
(0.947991 0.100502 2.73517e-18)
(0.944324 0.0941322 -1.71178e-18)
(0.940092 0.0837484 -1.29256e-18)
(0.937167 0.0675312 -1.51016e-18)
(0.93997 0.0446578 -1.43904e-18)
(0.952768 0.0205024 -2.85657e-17)
(0.982884 -0.0120617 -4.85786e-17)
(0.970414 0.113274 4.2006e-21)
(0.966184 0.113633 3.08989e-20)
(0.962356 0.113157 -1.0954e-19)
(0.958619 0.11266 2.42427e-19)
(0.955052 0.11185 -7.91236e-20)
(0.951811 0.110589 1.57711e-19)
(0.949009 0.108857 8.19587e-20)
(0.946379 0.105944 3.61065e-19)
(0.943316 0.101548 -8.54222e-19)
(0.939146 0.0945055 2.22331e-18)
(0.934403 0.0828862 7.0186e-18)
(0.931353 0.0646405 9.93679e-18)
(0.935197 0.0391005 -2.206e-17)
(0.950756 0.0132154 5.79867e-17)
(0.98456 -0.018912 -9.1364e-18)
(0.968379 0.114686 -2.50508e-20)
(0.963819 0.114729 2.25938e-20)
(0.959663 0.114353 -2.68396e-20)
(0.955581 0.114045 -5.31828e-20)
(0.95164 0.113432 1.25393e-19)
(0.948049 0.112228 -3.48953e-19)
(0.944882 0.110531 -2.37196e-19)
(0.941875 0.107537 1.68773e-20)
(0.938362 0.102653 -2.68211e-20)
(0.933608 0.0947892 1.15176e-18)
(0.928284 0.0817079 -1.12695e-17)
(0.925128 0.0611503 -5.11647e-18)
(0.930232 0.0326556 1.5987e-17)
(0.948957 0.00501604 -4.31851e-17)
(0.986709 -0.0264638 -1.71328e-17)
(0.966123 0.116727 1.23666e-20)
(0.961201 0.117189 -4.11602e-21)
(0.956733 0.116739 -5.29609e-20)
(0.952327 0.116315 4.88838e-20)
(0.948046 0.115571 1.56896e-19)
(0.944062 0.114337 -5.79582e-20)
(0.940562 0.112533 -1.8089e-21)
(0.937107 0.109195 -4.51652e-19)
(0.933074 0.103863 -4.92841e-19)
(0.927661 0.0950872 4.49181e-19)
(0.921708 0.08033 8.56501e-18)
(0.918477 0.0570902 -9.94104e-19)
(0.92512 0.0252946 1.65709e-18)
(0.94745 -0.0041175 1.977e-17)
(0.989572 -0.0344967 9.69763e-18)
(0.963646 0.118435 -7.01924e-22)
(0.958406 0.118628 5.00707e-21)
(0.953636 0.118294 -2.81451e-20)
(0.948904 0.118075 -1.94752e-20)
(0.944259 0.117511 -7.74672e-21)
(0.939906 0.116309 9.38704e-20)
(0.935988 0.11454 2.95328e-20)
(0.932057 0.111085 4.97621e-19)
(0.927436 0.105117 9.62352e-19)
(0.921271 0.0952395 -5.32119e-19)
(0.914605 0.0785191 -1.01319e-18)
(0.911336 0.0522196 5.14695e-18)
(0.919842 0.0168083 8.92135e-18)
(0.946248 -0.0143225 3.45134e-17)
(0.99302 -0.0433263 2.0853e-18)
(0.961036 0.120542 -4.85996e-22)
(0.955431 0.12101 -2.96349e-22)
(0.950354 0.120619 -2.32861e-23)
(0.9453 0.12036 5.01936e-21)
(0.940302 0.119753 -1.48515e-20)
(0.935509 0.118617 4.11517e-20)
(0.931197 0.116797 -1.51758e-19)
(0.926683 0.113 -1.80532e-19)
(0.921393 0.106474 -1.65373e-19)
(0.914382 0.0953792 -5.95367e-19)
(0.906931 0.0763983 -2.42398e-18)
(0.903745 0.0466098 -4.50821e-18)
(0.914485 0.00719815 1.24736e-17)
(0.945456 -0.0256014 -2.01081e-17)
(0.997309 -0.0526038 9.18345e-18)
(0.95854 0.1223 1.69242e-21)
(0.952594 0.122492 -5.81543e-21)
(0.947167 0.12226 4.02177e-21)
(0.941729 0.122269 -1.04827e-20)
(0.936283 0.121905 -1.89275e-20)
(0.931014 0.120859 -5.55079e-21)
(0.926124 0.119117 1.24619e-19)
(0.920997 0.115173 3.72378e-20)
(0.914927 0.107842 -1.19728e-18)
(0.90693 0.0952853 2.68833e-19)
(0.898635 0.0736677 -5.47276e-18)
(0.895664 0.0399414 -1.14582e-17)
(0.909061 -0.00375328 -4.04697e-17)
(0.945114 -0.0380332 3.82368e-19)
(1.00228 -0.0626999 2.38223e-17)
(0.95587 0.124525 4.20254e-21)
(0.949535 0.125155 1.09255e-20)
(0.943776 0.124899 -2.21383e-20)
(0.937967 0.12488 8.59488e-20)
(0.93208 0.124514 -7.06235e-20)
(0.926244 0.123558 8.94572e-20)
(0.920816 0.121729 5.72108e-20)
(0.91492 0.117379 9.54959e-21)
(0.907943 0.109334 2.5662e-19)
(0.898866 0.0951176 9.74856e-19)
(0.889711 0.0704762 -2.47444e-18)
(0.887111 0.0322704 1.27297e-17)
(0.903665 -0.0160392 1.77157e-17)
(0.945336 -0.0515954 -4.79925e-17)
(1.0082 -0.07316 -2.06961e-17)
(0.953065 0.126397 3.70508e-22)
(0.946373 0.126913 7.81548e-21)
(0.940245 0.126912 2.86106e-20)
(0.934012 0.127227 7.4568e-20)
(0.927621 0.127133 -1.49195e-19)
(0.921227 0.126246 -2.80179e-20)
(0.915092 0.124457 -1.89852e-19)
(0.908408 0.119864 1.33474e-19)
(0.900405 0.110758 2.38398e-19)
(0.890122 0.0945523 -2.57953e-18)
(0.880068 0.0664062 3.64174e-18)
(0.878066 0.0232014 -1.08403e-17)
(0.89835 -0.0299169 4.44723e-17)
(0.946168 -0.0663487 5.58413e-17)
(1.01485 -0.0844709 -1.77985e-17)
(0.949506 0.12874 -4.09076e-21)
(0.942418 0.129855 2.72543e-20)
(0.936017 0.129839 5.70333e-20)
(0.929493 0.13013 -7.36105e-21)
(0.92272 0.130038 -1.52157e-19)
(0.915757 0.12926 3.93044e-20)
(0.908994 0.127381 3.36983e-19)
(0.901365 0.122315 -2.29664e-19)
(0.892234 0.112248 2.38784e-19)
(0.88067 0.0937874 1.33534e-18)
(0.869758 0.0616731 -5.34707e-19)
(0.868638 0.0128926 1.65362e-17)
(0.89325 -0.045281 1.99478e-19)
(0.947713 -0.0822578 3.58045e-17)
(1.02248 -0.096019 1.25229e-17)
(0.946457 0.130303 -7.16824e-21)
(0.939006 0.130681 7.91932e-20)
(0.932184 0.131033 4.22489e-20)
(0.925166 0.131946 -6.30623e-20)
(0.917794 0.132448 2.85428e-19)
(0.910123 0.132022 3.64596e-19)
(0.902456 0.130353 -6.57577e-20)
(0.893843 0.124975 -4.99787e-19)
(0.883432 0.113521 8.87371e-20)
(0.870475 0.092396 6.588e-19)
(0.85875 0.055747 2.65338e-18)
(0.858873 0.000876212 -1.7051e-18)
(0.888471 -0.0623815 -5.16566e-17)
(0.950032 -0.099281 -2.53332e-17)
(1.03085 -0.108452 -1.23395e-18)
(0.943465 0.132583 -7.06301e-21)
(0.935524 0.133686 1.44452e-19)
(0.928265 0.134087 1.83095e-20)
(0.92073 0.135022 -7.00603e-20)
(0.912695 0.135632 -2.89084e-19)
(0.904167 0.135375 -1.67045e-19)
(0.895598 0.133593 2.71759e-19)
(0.885759 0.127583 1.83997e-19)
(0.873963 0.114795 1.6976e-19)
(0.859597 0.0906615 -1.6752e-18)
(0.847097 0.0488919 1.55749e-19)
(0.848871 -0.0126011 -1.63697e-17)
(0.884125 -0.0810234 2.50236e-17)
(0.953201 -0.117348 2.44068e-17)
(1.0402 -0.120932 -7.23014e-18)
(0.9401 0.134517 1.09475e-20)
(0.931766 0.135479 1.06079e-19)
(0.924071 0.136292 -1.98866e-19)
(0.915999 0.137757 7.38283e-20)
(0.907288 0.138798 -2.9199e-19)
(0.897907 0.138724 2.58063e-19)
(0.888225 0.136997 -5.89363e-19)
(0.877138 0.130349 6.32034e-19)
(0.863832 0.115644 1.68391e-21)
(0.847916 0.08797 1.79565e-19)
(0.834727 0.0404033 2.12924e-18)
(0.838717 -0.0281614 -2.42618e-17)
(0.880342 -0.101519 -1.98365e-17)
(0.957253 -0.136384 1.12075e-17)
(1.0502 -0.134405 5.80045e-18)
(0.936409 0.136923 2.49337e-20)
(0.92761 0.138491 -5.86862e-20)
(0.919523 0.139401 2.30333e-19)
(0.910964 0.140987 1.71871e-19)
(0.90156 0.142227 -2.9826e-19)
(0.891231 0.142376 -1.66753e-19)
(0.880435 0.140492 1.20618e-18)
(0.867855 0.132911 -7.95579e-19)
(0.852995 0.116341 2.2575e-20)
(0.835541 0.0847532 9.01338e-19)
(0.821848 0.0307939 -8.25599e-18)
(0.82853 -0.0453377 3.31051e-17)
(0.877196 -0.123488 -3.28073e-17)
(0.962215 -0.15629 -6.75282e-17)
(1.06112 -0.147659 3.16751e-18)
(0.932534 0.138903 5.48831e-20)
(0.923361 0.140323 1.66651e-20)
(0.914846 0.14164 -7.53621e-20)
(0.905711 0.143841 -3.59468e-19)
(0.895546 0.145577 4.85136e-19)
(0.884187 0.145963 1.00887e-18)
(0.872037 0.144065 -1.08764e-18)
(0.858109 0.135494 1.0302e-18)
(0.841435 0.11625 -1.05686e-20)
(0.822376 0.0801356 -3.36004e-19)
(0.808414 0.0190885 9.76908e-18)
(0.818488 -0.0648465 -9.77868e-18)
(0.874868 -0.147299 -2.32524e-18)
(0.968111 -0.176894 -1.73569e-17)
(1.07252 -0.162046 1.05978e-17)
(0.928517 0.140927 6.82993e-20)
(0.918853 0.142858 3.67762e-20)
(0.909871 0.144476 2.57686e-20)
(0.900125 0.147021 -2.93879e-20)
(0.88913 0.149104 -2.16263e-19)
(0.876619 0.149737 -2.54542e-19)
(0.86331 0.147509 5.05874e-19)
(0.847519 0.137512 -5.71619e-19)
(0.829182 0.11588 -1.59322e-18)
(0.808555 0.0747087 1.67359e-20)
(0.794536 0.00599072 -5.24042e-18)
(0.808631 -0.0859603 -8.9584e-18)
(0.87332 -0.172312 3.00793e-17)
(0.974894 -0.198062 2.29806e-17)
(1.08476 -0.175818 -5.63503e-18)
(0.92393 0.14284 -3.11092e-20)
(0.913817 0.144844 1.0101e-19)
(0.904343 0.146895 -1.58665e-19)
(0.894013 0.150011 4.7928e-19)
(0.882169 0.152489 -1.34372e-19)
(0.868545 0.153173 -1.17685e-18)
(0.853646 0.150712 -5.12903e-19)
(0.836284 0.139267 -2.91124e-19)
(0.815985 0.113969 2.90854e-19)
(0.793736 0.0671301 2.66259e-19)
(0.780116 -0.00992579 -6.16098e-18)
(0.799182 -0.109686 5.09283e-17)
(0.872743 -0.199145 5.78316e-18)
(0.982541 -0.219645 2.10816e-17)
(1.09719 -0.191021 -8.03994e-18)
(0.919102 0.144555 1.85041e-20)
(0.908447 0.146983 -4.17686e-20)
(0.898475 0.149294 1.98266e-19)
(0.88745 0.152775 -7.1235e-19)
(0.874592 0.155643 3.09165e-19)
(0.859692 0.15651 8.8386e-19)
(0.843358 0.153403 -6.00233e-20)
(0.823816 0.139815 -7.48683e-20)
(0.80178 0.111312 3.86459e-18)
(0.778221 0.0584001 4.09369e-19)
(0.765386 -0.0273552 5.91822e-18)
(0.790065 -0.134848 -2.56584e-17)
(0.872925 -0.22673 1.72862e-17)
(0.990916 -0.241457 2.17139e-17)
(1.11033 -0.205036 3.97701e-18)
(0.914413 0.146115 3.33222e-20)
(0.903162 0.148535 8.68113e-20)
(0.892473 0.151305 -1.45017e-19)
(0.880512 0.155461 4.92606e-19)
(0.866635 0.158664 -1.56286e-19)
(0.850256 0.159255 3.22367e-20)
(0.831962 0.155637 -1.53682e-18)
(0.8105 0.139665 2.4568e-18)
(0.786444 0.106195 -3.8232e-18)
(0.761768 0.0465543 -2.49325e-19)
(0.750365 -0.0482801 5.0515e-18)
(0.781652 -0.162683 -1.70951e-17)
(0.87413 -0.25609 -3.74131e-19)
(0.999991 -0.263357 2.00103e-17)
(1.1233 -0.220918 -2.38927e-19)
(0.909451 0.14779 4.42509e-20)
(0.897544 0.150867 4.74171e-20)
(0.886181 0.15411 -2.76804e-19)
(0.873406 0.158403 8.79782e-20)
(0.85824 0.161668 -1.72568e-19)
(0.840183 0.162126 8.13346e-19)
(0.819977 0.157183 1.0373e-18)
(0.795773 0.137774 -4.29211e-18)
(0.770087 0.0998457 1.76537e-18)
(0.744667 0.0332188 -2.78353e-19)
(0.735178 -0.070451 -1.04561e-17)
(0.773648 -0.191312 3.42627e-17)
(0.875856 -0.285414 3.29656e-17)
(1.0095 -0.28508 -3.4469e-17)
(1.13685 -0.234755 1.75392e-18)
(0.90403 0.149246 5.08317e-20)
(0.891576 0.152454 -1.37223e-19)
(0.87954 0.156199 1.66998e-19)
(0.8658 0.161295 -2.11151e-19)
(0.849368 0.164681 1.03797e-19)
(0.82947 0.164497 -4.2711e-19)
(0.806708 0.158165 1.12814e-18)
(0.780037 0.134768 -1.79742e-18)
(0.752337 0.0899346 3.11849e-18)
(0.726572 0.015545 6.02448e-20)
(0.719878 -0.0970038 -8.98126e-18)
(0.766512 -0.222568 -6.84355e-18)
(0.878484 -0.316569 -1.38801e-17)
(1.01945 -0.306654 -2.0324e-17)
(1.14969 -0.251206 -8.2421e-18)
(0.898284 0.150411 -1.56137e-20)
(0.885135 0.154123 5.70184e-20)
(0.872331 0.158398 -3.01214e-20)
(0.857578 0.163915 3.97187e-19)
(0.839626 0.167511 -6.94543e-19)
(0.817769 0.166727 9.51933e-19)
(0.792213 0.158009 -1.21986e-18)
(0.762444 0.129089 6.40406e-18)
(0.733456 0.0782613 -5.56156e-18)
(0.70797 -0.00358356 8.65171e-20)
(0.704403 -0.123881 1.21203e-17)
(0.759487 -0.253599 -3.54028e-18)
(0.880977 -0.346503 -4.85247e-17)
(1.02934 -0.327685 1.71379e-17)
(1.1628 -0.264407 1.43394e-17)
(0.891852 0.15135 -1.82384e-20)
(0.877998 0.15536 1.26359e-19)
(0.86428 0.160193 1.32835e-19)
(0.848331 0.166436 -9.87443e-19)
(0.828934 0.169948 7.63966e-19)
(0.804807 0.168149 -1.12009e-18)
(0.776004 0.156798 2.08871e-18)
(0.743618 0.121671 -1.00912e-18)
(0.713062 0.0616816 -1.2505e-18)
(0.688628 -0.0282566 9.29199e-19)
(0.689003 -0.156106 -1.42259e-18)
(0.753267 -0.287089 3.7095e-17)
(0.88405 -0.378627 -2.27512e-17)
(1.03935 -0.348452 1.29874e-17)
(1.17454 -0.281268 -8.18084e-18)
(0.884372 0.151881 -4.51687e-20)
(0.869662 0.15665 1.75186e-20)
(0.855075 0.16192 4.89264e-20)
(0.83798 0.168416 -1.43406e-19)
(0.816812 0.171865 -7.93657e-19)
(0.790341 0.168929 -1.08796e-18)
(0.758052 0.153773 -3.58032e-19)
(0.7225 0.110397 -2.95504e-18)
(0.691685 0.0428738 2.17767e-18)
(0.669148 -0.0535473 -9.15891e-19)
(0.673189 -0.186241 1.71454e-17)
(0.746458 -0.318346 -9.26838e-17)
(0.885727 -0.407214 8.2332e-17)
(1.04856 -0.368118 -1.77882e-17)
(1.1861 -0.289699 -1.08929e-17)
(0.875866 0.151943 2.3145e-20)
(0.860348 0.156811 1.40909e-19)
(0.844692 0.162619 -1.4017e-19)
(0.826211 0.169716 6.76399e-19)
(0.803169 0.172902 -2.69727e-19)
(0.774023 0.168433 -3.58848e-19)
(0.737836 0.148777 -1.53468e-18)
(0.699831 0.096482 -4.67301e-19)
(0.668668 0.017343 1.06121e-18)
(0.649137 -0.0858876 4.07448e-19)
(0.657459 -0.223379 -1.86578e-17)
(0.740334 -0.351899 5.98748e-18)
(0.887644 -0.438783 -6.45958e-17)
(1.05767 -0.387411 1.11154e-17)
(1.19516 -0.303198 1.05575e-17)
(0.866527 0.151389 3.00467e-20)
(0.849857 0.156483 -2.45118e-19)
(0.832986 0.162768 5.98747e-19)
(0.812782 0.170215 -5.0006e-19)
(0.787515 0.173096 1.19928e-18)
(0.755716 0.16665 6.83674e-20)
(0.715106 0.140846 2.08882e-19)
(0.674371 0.077142 3.45979e-18)
(0.644832 -0.0106862 -1.91788e-18)
(0.629249 -0.116966 2.89203e-19)
(0.640203 -0.253766 2.58042e-17)
(0.731845 -0.380306 3.44293e-17)
(0.885369 -0.462611 8.2882e-17)
(1.0648 -0.405161 -4.02907e-18)
(1.20253 -0.306723 -2.53193e-18)
(0.855763 0.15045 8.39741e-20)
(0.837922 0.155515 3.19301e-20)
(0.819395 0.162256 -4.97649e-19)
(0.797323 0.170005 4.97431e-19)
(0.769696 0.171888 1.65791e-18)
(0.734168 0.162611 -1.49218e-18)
(0.689257 0.129153 5.13501e-18)
(0.646936 0.0539382 -2.51586e-18)
(0.619049 -0.0477182 9.06199e-19)
(0.608651 -0.157186 -7.74928e-20)
(0.622544 -0.294772 7.96912e-18)
(0.72363 -0.411448 2.15372e-19)
(0.883575 -0.489319 -9.30236e-17)
(1.07154 -0.422697 1.80337e-18)
(1.20844 -0.315364 1.03413e-17)
(0.843285 0.148994 -8.92233e-20)
(0.823866 0.15407 1.8836e-20)
(0.803685 0.160913 1.1356e-19)
(0.779178 0.168522 -2.73766e-19)
(0.74852 0.169037 -1.37195e-18)
(0.709068 0.155982 4.15445e-18)
(0.659546 0.112036 -8.45505e-19)
(0.615959 0.0233552 8.87855e-19)
(0.592625 -0.0869749 2.37732e-18)
(0.588515 -0.19212 -1.3236e-18)
(0.600864 -0.319167 -5.48384e-17)
(0.709753 -0.432538 1.10538e-17)
(0.877914 -0.494342 4.70051e-17)
(1.07554 -0.434649 -4.57642e-18)
(1.2134 -0.314343 -7.49825e-18)
(0.828562 0.146787 -4.3955e-20)
(0.807415 0.15172 2.06134e-20)
(0.784694 0.158746 4.31639e-19)
(0.75758 0.166096 -1.15199e-18)
(0.723658 0.16406 -3.8367e-19)
(0.679246 0.146366 -3.4496e-18)
(0.625589 0.0893532 -7.22539e-19)
(0.582401 -0.0126394 -8.59596e-20)
(0.563448 -0.138314 -2.75014e-18)
(0.56689 -0.240084 3.04692e-18)
(0.579099 -0.363132 5.10342e-17)
(0.699113 -0.457601 -3.28004e-17)
(0.893227 -0.513646 3.58787e-18)
(1.08617 -0.43886 4.39621e-18)
(1.22188 -0.315361 2.70959e-17)
(0.81089 0.143949 1.36115e-20)
(0.787141 0.14906 -8.94344e-20)
(0.762111 0.155638 5.25988e-19)
(0.731618 0.161762 -7.96413e-19)
(0.693321 0.156448 1.0001e-18)
(0.644196 0.132103 1.12813e-18)
(0.586317 0.0583339 4.09198e-18)
(0.544441 -0.0584472 2.93491e-18)
(0.533459 -0.191042 -3.68776e-18)
(0.545588 -0.276272 4.48058e-18)
(0.553588 -0.364042 -3.98789e-17)
(0.69112 -0.474752 2.66982e-17)
(0.91105 -0.520245 2.47419e-17)
(1.09807 -0.439211 -6.99362e-18)
(1.23157 -0.31119 -4.89976e-17)
(0.78899 0.140668 1.04885e-19)
(0.762854 0.145441 -1.7413e-20)
(0.734337 0.15118 -2.93256e-19)
(0.700746 0.15536 -7.46418e-19)
(0.657389 0.144781 -4.76747e-19)
(0.602395 0.11018 4.49287e-19)
(0.54249 0.0203941 -3.8163e-18)
(0.502864 -0.111319 -3.05011e-18)
(0.498626 -0.25976 5.97453e-18)
(0.519823 -0.334485 3.11739e-18)
(0.561676 -0.46002 9.67137e-18)
(0.726674 -0.540931 -2.36313e-18)
(0.946008 -0.550352 -1.62399e-17)
(1.11731 -0.448396 2.06059e-17)
(1.24407 -0.317825 1.2463e-17)
(0.76307 0.13624 -3.30791e-21)
(0.733174 0.140754 3.96923e-20)
(0.70129 0.144895 -5.99072e-19)
(0.661845 0.145313 2.69401e-18)
(0.613239 0.126943 2.53603e-19)
(0.554273 0.0807752 8.94758e-19)
(0.491982 -0.0274516 4.78353e-19)
(0.455545 -0.175125 -1.91989e-18)
(0.462082 -0.327936 -3.4969e-18)
(0.492111 -0.377961 2.37789e-17)
(0.566196 -0.534734 -3.26193e-19)
(0.748991 -0.596628 2.45025e-18)
(0.966029 -0.570556 -5.44506e-18)
(1.13136 -0.456867 2.27129e-18)
(1.25358 -0.320267 1.38135e-19)
(0.731356 0.13097 -9.49639e-20)
(0.697446 0.13482 1.37585e-19)
(0.660012 0.13641 9.64202e-19)
(0.61377 0.130697 -1.26817e-18)
(0.559317 0.101532 5.42981e-19)
(0.496097 0.0406842 -1.14173e-18)
(0.435601 -0.0828727 4.50887e-18)
(0.401477 -0.249719 1.36852e-17)
(0.416857 -0.417283 8.51444e-18)
(0.454511 -0.462282 -7.19894e-17)
(0.563481 -0.642875 -1.07408e-18)
(0.761986 -0.659247 -4.34268e-18)
(0.978034 -0.604144 1.55246e-18)
(1.14069 -0.472167 -3.41037e-17)
(1.26018 -0.332488 1.23615e-17)
(0.693348 0.124949 3.09207e-19)
(0.654178 0.127748 -1.44872e-19)
(0.608062 0.125296 -4.18599e-19)
(0.552422 0.10898 -2.8502e-18)
(0.494246 0.0702328 1.26436e-18)
(0.428046 -0.010051 -4.80042e-18)
(0.367278 -0.154045 -7.13562e-18)
(0.339782 -0.334049 -2.56529e-17)
(0.367518 -0.503732 -2.50865e-17)
(0.413681 -0.520994 7.05959e-17)
(0.548101 -0.732475 3.35911e-18)
(0.760767 -0.721464 1.16563e-18)
(0.979996 -0.632615 2.8733e-18)
(1.14263 -0.487394 4.52097e-17)
(1.26354 -0.341421 1.07351e-17)
(0.647707 0.117776 -2.43742e-19)
(0.599066 0.119149 7.80008e-20)
(0.540938 0.109065 5.19548e-19)
(0.477811 0.0804119 3.33532e-18)
(0.414625 0.0297727 -6.09524e-19)
(0.34367 -0.0770694 4.60539e-18)
(0.291098 -0.232409 -1.55475e-17)
(0.264578 -0.438127 9.58114e-18)
(0.303333 -0.618169 2.89844e-17)
(0.360739 -0.662872 -5.26082e-17)
(0.523622 -0.859981 8.84742e-18)
(0.75073 -0.796587 -2.12346e-18)
(0.974363 -0.677756 3.26589e-18)
(1.13958 -0.51238 -3.64054e-17)
(1.26405 -0.361178 -2.86118e-17)
(0.591248 0.109281 -4.29722e-19)
(0.52921 0.107609 -6.76614e-19)
(0.457002 0.0863626 -2.4137e-19)
(0.385189 0.0428047 1.65119e-19)
(0.317619 -0.0228527 -4.22241e-18)
(0.246644 -0.154559 -9.75584e-19)
(0.191822 -0.337138 -1.42973e-17)
(0.179244 -0.546115 -5.68174e-18)
(0.22859 -0.731969 -2.2027e-17)
(0.303447 -0.806018 2.96865e-17)
(0.487069 -0.973551 1.11709e-17)
(0.727185 -0.873261 -8.73192e-18)
(0.958501 -0.718475 -1.35155e-17)
(1.12803 -0.538821 -5.16988e-17)
(1.26082 -0.378592 4.93692e-18)
(0.519763 0.099178 3.45874e-19)
(0.438367 0.0909326 5.05037e-21)
(0.351067 0.056433 -8.66117e-20)
(0.271203 -0.00427716 1.15827e-18)
(0.198116 -0.0906789 6.47494e-18)
(0.123655 -0.250597 -8.97699e-18)
(0.0806733 -0.440749 9.90495e-18)
(0.0674476 -0.690118 4.14388e-17)
(0.129785 -0.882061 2.64935e-17)
(0.22576 -1.00423 1.30355e-17)
(0.432792 -1.11041 -3.07638e-17)
(0.68954 -0.960671 -1.25263e-17)
(0.930825 -0.77804 3.9323e-17)
(1.10977 -0.574121 8.85196e-17)
(1.25362 -0.407068 -2.743e-17)
(0.424143 0.0867711 2.04737e-19)
(0.325042 0.070038 7.95222e-19)
(0.218002 0.0186882 5.67582e-19)
(0.127549 -0.0598612 -1.24061e-18)
(0.0480774 -0.175858 -6.4744e-18)
(-0.0226007 -0.355441 3.67296e-17)
(-0.069937 -0.577758 2.61983e-17)
(-0.0671924 -0.841096 -6.0911e-17)
(0.00453293 -1.04239 -1.94781e-17)
(0.127087 -1.18225 -1.73232e-17)
(0.35629 -1.2305 8.61487e-18)
(0.631356 -1.05111 5.01235e-17)
(0.886899 -0.833118 -4.85271e-17)
(1.08055 -0.618137 -5.53872e-17)
(1.24044 -0.434989 1.68965e-17)
(0.303732 0.0708737 2.84092e-19)
(0.180424 0.0414374 -1.11087e-18)
(0.0470468 -0.0296422 -2.91427e-19)
(-0.0523002 -0.125464 1.25324e-18)
(-0.144828 -0.280585 6.32372e-18)
(-0.220021 -0.487513 -3.18032e-17)
(-0.267283 -0.728161 2.28045e-17)
(-0.24326 -1.01453 4.55832e-17)
(-0.159088 -1.22541 -3.66759e-17)
(-0.00579488 -1.37527 4.77084e-17)
(0.251063 -1.36655 4.613e-18)
(0.55013 -1.15275 -7.0862e-17)
(0.823502 -0.909496 7.89318e-17)
(1.04323 -0.677529 4.22919e-17)
(1.21972 -0.473481 7.76555e-19)
(0.145679 0.0468116 -5.10544e-19)
(-0.00564679 0.00131048 5.28603e-19)
(-0.168862 -0.0908712 -7.91519e-19)
(-0.287942 -0.210833 -3.63883e-18)
(-0.394928 -0.398186 -6.14733e-18)
(-0.477943 -0.626543 2.16337e-17)
(-0.510745 -0.852999 1.60171e-17)
(-0.499467 -1.24258 -1.26025e-18)
(-0.377542 -1.42496 -5.08805e-18)
(-0.185941 -1.57896 2.38051e-18)
(0.109851 -1.50823 5.17436e-18)
(0.439367 -1.26611 2.21966e-17)
(0.736339 -0.992286 -7.895e-17)
(0.98748 -0.747787 1.48603e-17)
(1.18439 -0.515583 1.71662e-17)
(-0.0465432 0.00399348 3.3557e-19)
(-0.246934 -0.0628221 1.86972e-18)
(-0.463507 -0.169936 2.15308e-18)
(-0.60688 -0.316747 3.71719e-18)
(-0.745356 -0.525277 -6.53953e-18)
(-0.841456 -0.771683 9.34257e-18)
(-0.896764 -1.07341 2.73862e-19)
(-0.856461 -1.43722 -4.10657e-17)
(-0.724381 -1.71264 1.50071e-17)
(-0.438576 -1.81697 -3.26311e-17)
(-0.0766337 -1.65751 7.26282e-17)
(0.298681 -1.3787 5.06472e-17)
(0.624084 -1.06629 2.89784e-17)
(0.91048 -0.810631 -3.11176e-17)
(1.11956 -0.547917 2.27273e-17)
(-0.506799 -0.0879875 -3.00563e-19)
(-0.823464 -0.206857 -1.72854e-18)
(-1.14928 -0.287931 -3.49957e-18)
(-1.4005 -0.536424 6.95718e-18)
(-1.62159 -0.849196 1.9379e-17)
(-1.72268 -1.20214 -7.69262e-17)
(-1.68362 -1.55511 -7.12286e-18)
(-1.50801 -1.91938 2.74242e-17)
(-1.11984 -2.08667 5.56064e-17)
(-0.652902 -1.92636 -8.61476e-17)
(-0.222582 -1.63969 -1.20563e-16)
(0.171549 -1.30872 -3.80885e-17)
(0.509061 -1.00577 2.18441e-17)
(0.793363 -0.757783 -3.18823e-18)
(0.964357 -0.482798 7.04044e-18)
(-0.532044 -0.140951 1.54905e-19)
(-0.730242 -0.422799 -1.11395e-18)
(-1.45752 -0.488565 -2.31533e-18)
(-1.85453 -0.738015 -7.55528e-18)
(-1.8466 -0.983854 7.17388e-18)
(-1.57575 -1.11616 1.2876e-16)
(-1.23391 -1.2174 -9.05424e-17)
(-0.839346 -1.1124 -1.59456e-16)