/*--------------------------------*- C++ -*----------------------------------*\
  =========                 |
  \\      /  F ield         | OpenFOAM: The Open Source CFD Toolbox
   \\    /   O peration     | Website:  https://openfoam.org
    \\  /    A nd           | Version:  6.0
     \\/     M anipulation  |
\*---------------------------------------------------------------------------*/
FoamFile
{
    version     2.0;
    format      ascii;
    class       surfaceScalarField;
    location    "0.18";
    object      phi;
}
// * * * * * * * * * * * * * * * * * * * * * * * * * * * * * * * * * * * * * //

dimensions      [0 3 -1 0 0 0 0];

internalField   nonuniform List<scalar> 
26699
(
2.0052e-05
0.005201
4.0164e-10
4.0126e-05
0.0051116
5.964e-05
0.0049351
7.8188e-05
0.0046741
9.5417e-05
0.0043332
0.00011103
0.0039182
0.00012471
0.0034362
0.00013628
0.0028953
0.00014544
0.002305
0.00015204
0.0016753
0.00015671
0.0010161
0.00045914
3.9778e-05
2.0053e-05
0.0051809
1.1068e-09
4.0129e-05
0.0050916
5.9644e-05
0.0049155
7.8194e-05
0.0046556
9.5424e-05
0.004316
0.00011104
0.0039026
0.00012472
0.0034225
0.00013629
0.0028837
0.00014542
0.0022959
0.00015174
0.0016689
0.00015758
0.0010103
0.00053822
7.8497e-05
2.0054e-05
0.0051609
1.7766e-09
4.0132e-05
0.0050715
5.965e-05
0.004896
7.8201e-05
0.004637
9.5435e-05
0.0042988
0.00011105
0.003887
0.00012474
0.0034088
0.00013629
0.0028722
0.00014545
0.0022867
0.00015149
0.0016629
0.00015796
0.0010038
0.00058779
0.0001084
2.0056e-05
0.0051408
2.4497e-09
4.0136e-05
0.0050514
5.9656e-05
0.0048765
7.8211e-05
0.0046185
9.5448e-05
0.0042815
0.00011106
0.0038714
0.00012476
0.0033951
0.0001363
0.0028607
0.00014549
0.0022775
0.00015133
0.0016571
0.00015786
0.00099725
0.00061564
0.00013001
2.0057e-05
0.0051208
3.1176e-09
4.0141e-05
0.0050313
5.9664e-05
0.004857
7.8222e-05
0.0045999
9.5465e-05
0.0042643
0.00011108
0.0038558
0.00012479
0.0033814
0.00013632
0.0028491
0.00014553
0.0022683
0.00015124
0.0016513
0.00015746
0.00099103
0.00062836
0.00014473
2.006e-05
0.0051007
3.7764e-09
4.0146e-05
0.0050112
5.9674e-05
0.0048375
7.8236e-05
0.0045813
9.5485e-05
0.004247
0.00011111
0.0038401
0.00012483
0.0033677
0.00013634
0.0028376
0.00014558
0.0022591
0.00015122
0.0016457
0.00015695
0.0009853
0.00063113
0.00015419
2.0063e-05
0.0050806
4.4212e-09
4.0153e-05
0.0049911
5.9685e-05
0.0048179
7.8253e-05
0.0045628
9.5508e-05
0.0042298
0.00011113
0.0038245
0.00012486
0.0033539
0.00013637
0.0028261
0.00014562
0.0022498
0.00015125
0.0016401
0.00015648
0.00098007
0.00062772
0.00015989
2.0066e-05
0.0050606
5.0458e-09
4.0161e-05
0.0049711
5.9698e-05
0.0047984
7.8271e-05
0.0045442
9.5533e-05
0.0042125
0.00011116
0.0038089
0.0001249
0.0033402
0.0001364
0.0028146
0.00014566
0.0022405
0.0001513
0.0016344
0.00015611
0.00097526
0.00062074
0.00016309
2.007e-05
0.0050405
5.6432e-09
4.017e-05
0.004951
5.9713e-05
0.0047788
7.8291e-05
0.0045256
9.5559e-05
0.0041953
0.00011119
0.0037932
0.00012493
0.0033265
0.00013643
0.0028031
0.00014569
0.0022313
0.00015136
0.0016288
0.00015585
0.00097077
0.00061186
0.00016472
2.0075e-05
0.0050204
6.2063e-09
4.018e-05
0.0049308
5.9728e-05
0.0047593
7.8312e-05
0.004507
9.5585e-05
0.004178
0.00011122
0.0037776
0.00012496
0.0033127
0.00013645
0.0027916
0.00014572
0.002222
0.00015142
0.0016231
0.00015569
0.00096651
0.00060211
0.00016544
2.0079e-05
0.0050003
6.7282e-09
4.019e-05
0.0049107
5.9743e-05
0.0047397
7.8332e-05
0.0044884
9.5609e-05
0.0041607
0.00011125
0.003762
0.00012499
0.003299
0.00013647
0.0027801
0.00014573
0.0022128
0.00015149
0.0016173
0.0001556
0.0009624
0.00059205
0.00016566
2.0084e-05
0.0049802
7.2035e-09
4.0199e-05
0.0048906
5.9758e-05
0.0047202
7.8351e-05
0.0044699
9.5632e-05
0.0041434
0.00011127
0.0037463
0.00012501
0.0032852
0.00013649
0.0027687
0.00014575
0.0022035
0.00015155
0.0016115
0.00015556
0.00095839
0.000582
0.00016561
2.0088e-05
0.0049601
7.6285e-09
4.0209e-05
0.0048705
5.9772e-05
0.0047006
7.8369e-05
0.0044513
9.5652e-05
0.0041261
0.00011129
0.0037307
0.00012503
0.0032715
0.00013651
0.0027572
0.00014576
0.0021943
0.00015161
0.0016056
0.00015556
0.00095445
0.00057211
0.00016544
2.0093e-05
0.00494
8.0018e-09
4.0217e-05
0.0048504
5.9784e-05
0.0046811
7.8384e-05
0.0044327
9.5668e-05
0.0041089
0.00011131
0.003715
0.00012505
0.0032578
0.00013652
0.0027457
0.00014576
0.002185
0.00015167
0.0015997
0.00015557
0.00095054
0.00056246
0.00016522
2.0096e-05
0.0049199
8.3241e-09
4.0225e-05
0.0048302
5.9795e-05
0.0046615
7.8397e-05
0.0044141
9.5682e-05
0.0040916
0.00011132
0.0036994
0.00012506
0.003244
0.00013653
0.0027342
0.00014577
0.0021758
0.00015172
0.0015938
0.0001556
0.00094667
0.00055308
0.00016498
2.01e-05
0.0048998
8.598e-09
4.0231e-05
0.0048101
5.9804e-05
0.0046419
7.8408e-05
0.0043955
9.5694e-05
0.0040743
0.00011133
0.0036838
0.00012507
0.0032303
0.00013654
0.0027228
0.00014577
0.0021665
0.00015177
0.0015878
0.00015563
0.00094281
0.00054396
0.00016475
2.0103e-05
0.0048797
8.8278e-09
4.0237e-05
0.00479
5.9812e-05
0.0046223
7.8417e-05
0.0043768
9.5702e-05
0.004057
0.00011134
0.0036681
0.00012507
0.0032166
0.00013654
0.0027113
0.00014578
0.0021573
0.00015182
0.0015817
0.00015566
0.00093897
0.0005351
0.00016452
2.0105e-05
0.0048596
9.0187e-09
4.0242e-05
0.0047698
5.9818e-05
0.0046028
7.8424e-05
0.0043582
9.5709e-05
0.0040397
0.00011135
0.0036525
0.00012508
0.0032028
0.00013655
0.0026998
0.00014578
0.0021481
0.00015187
0.0015757
0.0001557
0.00093515
0.0005265
0.0001643
2.0107e-05
0.0048395
9.1763e-09
4.0246e-05
0.0047497
5.9823e-05
0.0045832
7.8429e-05
0.0043396
9.5715e-05
0.0040224
0.00011135
0.0036368
0.00012508
0.0031891
0.00013656
0.0026883
0.00014578
0.0021388
0.00015192
0.0015695
0.00015573
0.00093134
0.00051813
0.00016409
2.0109e-05
0.0048194
9.3063e-09
4.0249e-05
0.0047296
5.9827e-05
0.0045636
7.8434e-05
0.004321
9.5719e-05
0.0040051
0.00011136
0.0036212
0.00012509
0.0031754
0.00013656
0.0026769
0.00014579
0.0021296
0.00015196
0.0015633
0.00015576
0.00092754
0.00051001
0.00016389
2.011e-05
0.0047992
9.414e-09
4.0251e-05
0.0047094
5.9831e-05
0.004544
7.8437e-05
0.0043024
9.5723e-05
0.0039879
0.00011136
0.0036056
0.00012509
0.0031617
0.00013657
0.0026654
0.00014579
0.0021204
0.000152
0.0015571
0.0001558
0.00092375
0.0005021
0.0001637
2.0111e-05
0.0047791
9.5042e-09
4.0253e-05
0.0046893
5.9833e-05
0.0045244
7.844e-05
0.0042838
9.5725e-05
0.0039706
0.00011136
0.0035899
0.00012509
0.0031479
0.00013657
0.0026539
0.00014579
0.0021112
0.00015205
0.0015509
0.00015583
0.00091996
0.00049441
0.00016352
2.0112e-05
0.004759
9.5811e-09
4.0254e-05
0.0046691
5.9835e-05
0.0045049
7.8442e-05
0.0042652
9.5728e-05
0.0039533
0.00011136
0.0035743
0.00012509
0.0031342
0.00013658
0.0026424
0.0001458
0.002102
0.00015209
0.0015446
0.00015586
0.00091619
0.00048693
0.00016334
2.0112e-05
0.0047389
9.6479e-09
4.0256e-05
0.004649
5.9837e-05
0.0044853
7.8444e-05
0.0042466
9.573e-05
0.003936
0.00011137
0.0035587
0.0001251
0.0031205
0.00013658
0.0026309
0.0001458
0.0020927
0.00015213
0.0015383
0.0001559
0.00091242
0.00047965
0.00016318
2.0113e-05
0.0047188
9.7074e-09
4.0257e-05
0.0046289
5.9838e-05
0.0044657
7.8446e-05
0.004228
9.5732e-05
0.0039187
0.00011137
0.003543
0.0001251
0.0031067
0.00013659
0.0026195
0.0001458
0.0020835
0.00015216
0.0015319
0.00015593
0.00090865
0.00047256
0.00016302
2.0113e-05
0.0046986
9.7619e-09
4.0258e-05
0.0046087
5.9839e-05
0.0044461
7.8448e-05
0.0042094
9.5733e-05
0.0039014
0.00011137
0.0035274
0.0001251
0.003093
0.00013659
0.002608
0.00014581
0.0020743
0.0001522
0.0015255
0.00015596
0.00090489
0.00046566
0.00016286
2.0114e-05
0.0046785
9.8128e-09
4.0258e-05
0.0045886
5.984e-05
0.0044265
7.8449e-05
0.0041908
9.5735e-05
0.0038841
0.00011137
0.0035118
0.0001251
0.0030793
0.0001366
0.0025965
0.00014581
0.0020651
0.00015224
0.0015191
0.00015599
0.00090114
0.00045894
0.00016271
2.0114e-05
0.0046584
9.8614e-09
4.0259e-05
0.0045684
5.9841e-05
0.004407
7.845e-05
0.0041722
9.5737e-05
0.0038669
0.00011137
0.0034961
0.00012511
0.0030655
0.0001366
0.002585
0.00014582
0.0020559
0.00015227
0.0015126
0.00015602
0.00089738
0.00045239
0.00016257
2.0114e-05
0.0046383
9.9086e-09
4.026e-05
0.0045483
5.9842e-05
0.0043874
7.8452e-05
0.0041536
9.5738e-05
0.0038496
0.00011138
0.0034805
0.00012511
0.0030518
0.00013661
0.0025735
0.00014582
0.0020467
0.0001523
0.0015061
0.00015606
0.00089363
0.00044601
0.00016244
2.0115e-05
0.0046181
9.955e-09
4.026e-05
0.0045281
5.9843e-05
0.0043678
7.8453e-05
0.0041349
9.574e-05
0.0038323
0.00011138
0.0034648
0.00012511
0.0030381
0.00013661
0.002562
0.00014582
0.0020375
0.00015234
0.0014996
0.00015609
0.00088988
0.00043979
0.0001623
2.0115e-05
0.004598
1.0001e-08
4.0261e-05
0.004508
5.9844e-05
0.0043482
7.8454e-05
0.0041163
9.5742e-05
0.003815
0.00011138
0.0034492
0.00012511
0.0030243
0.00013662
0.0025505
0.00014583
0.0020282
0.00015237
0.0014931
0.00015612
0.00088613
0.00043373
0.00016218
2.0115e-05
0.0045779
1.0047e-08
4.0262e-05
0.0044878
5.9845e-05
0.0043286
7.8455e-05
0.0040977
9.5743e-05
0.0037977
0.00011138
0.0034336
0.00012512
0.0030106
0.00013663
0.002539
0.00014583
0.002019
0.0001524
0.0014865
0.00015615
0.00088238
0.00042783
0.00016206
2.0115e-05
0.0045578
1.0094e-08
4.0262e-05
0.0044677
5.9846e-05
0.004309
7.8457e-05
0.0040791
9.5745e-05
0.0037804
0.00011139
0.0034179
0.00012512
0.0029969
0.00013663
0.0025274
0.00014584
0.0020098
0.00015243
0.0014799
0.00015618
0.00087863
0.00042207
0.00016194
2.0116e-05
0.0045376
1.014e-08
4.0263e-05
0.0044475
5.9847e-05
0.0042895
7.8458e-05
0.0040605
9.5747e-05
0.0037631
0.00011139
0.0034023
0.00012512
0.0029831
0.00013664
0.0025159
0.00014584
0.0020006
0.00015246
0.0014733
0.00015621
0.00087488
0.00041645
0.00016183
2.0116e-05
0.0045175
1.0188e-08
4.0263e-05
0.0044274
5.9848e-05
0.0042699
7.8459e-05
0.0040419
9.5749e-05
0.0037458
0.00011139
0.0033866
0.00012513
0.0029694
0.00013664
0.0025044
0.00014585
0.0019914
0.00015249
0.0014667
0.00015624
0.00087113
0.00041097
0.00016172
2.0116e-05
0.0044974
1.0235e-08
4.0264e-05
0.0044072
5.9849e-05
0.0042503
7.8461e-05
0.0040233
9.575e-05
0.0037286
0.00011139
0.003371
0.00012513
0.0029557
0.00013665
0.0024929
0.00014586
0.0019822
0.00015251
0.00146
0.00015627
0.00086737
0.00040563
0.00016161
2.0117e-05
0.0044773
1.0284e-08
4.0265e-05
0.0043871
5.985e-05
0.0042307
7.8462e-05
0.0040047
9.5752e-05
0.0037113
0.0001114
0.0033553
0.00012513
0.0029419
0.00013666
0.0024814
0.00014586
0.001973
0.00015254
0.0014533
0.0001563
0.00086361
0.00040041
0.00016151
2.0117e-05
0.0044571
1.0333e-08
4.0265e-05
0.0043669
5.9851e-05
0.0042111
7.8464e-05
0.0039861
9.5754e-05
0.003694
0.0001114
0.0033397
0.00012513
0.0029282
0.00013666
0.0024698
0.00014587
0.0019638
0.00015256
0.0014467
0.00015633
0.00085985
0.00039532
0.00016142
2.0117e-05
0.004437
1.0383e-08
4.0266e-05
0.0043468
5.9852e-05
0.0041915
7.8465e-05
0.0039674
9.5756e-05
0.0036767
0.0001114
0.0033241
0.00012514
0.0029145
0.00013667
0.0024583
0.00014587
0.0019546
0.00015259
0.0014399
0.00015636
0.00085608
0.00039036
0.00016132
2.0117e-05
0.0044169
1.0433e-08
4.0267e-05
0.0043266
5.9853e-05
0.0041719
7.8467e-05
0.0039488
9.5758e-05
0.0036594
0.0001114
0.0033084
0.00012514
0.0029007
0.00013668
0.0024468
0.00014588
0.0019454
0.00015261
0.0014332
0.00015639
0.00085231
0.00038551
0.00016123
2.0118e-05
0.0043967
1.0484e-08
4.0267e-05
0.0043065
5.9854e-05
0.0041524
7.8468e-05
0.0039302
9.576e-05
0.0036421
0.00011141
0.0032928
0.00012514
0.002887
0.00013668
0.0024352
0.00014589
0.0019362
0.00015264
0.0014265
0.00015641
0.00084853
0.00038077
0.00016115
2.0118e-05
0.0043766
1.0536e-08
4.0268e-05
0.0042864
5.9855e-05
0.0041328
7.847e-05
0.0039116
9.5762e-05
0.0036248
0.00011141
0.0032771
0.00012515
0.0028733
0.00013669
0.0024237
0.00014589
0.001927
0.00015266
0.0014197
0.00015644
0.00084475
0.00037615
0.00016107
2.0118e-05
0.0043565
1.0588e-08
4.0269e-05
0.0042662
5.9856e-05
0.0041132
7.8471e-05
0.003893
9.5764e-05
0.0036075
0.00011141
0.0032615
0.00012515
0.0028595
0.0001367
0.0024121
0.0001459
0.0019178
0.00015268
0.0014129
0.00015647
0.00084096
0.00037163
0.00016099
2.0119e-05
0.0043364
1.0642e-08
4.0269e-05
0.004246
5.9857e-05
0.0040936
7.8473e-05
0.0038744
9.5766e-05
0.0035902
0.00011142
0.0032458
0.00012515
0.0028458
0.0001367
0.0024006
0.00014591
0.0019086
0.0001527
0.0014061
0.0001565
0.00083717
0.00036722
0.00016091
2.0119e-05
0.0043162
1.0696e-08
4.027e-05
0.0042259
5.9859e-05
0.004074
7.8474e-05
0.0038558
9.5768e-05
0.0035729
0.00011142
0.0032302
0.00012516
0.002832
0.00013671
0.002389
0.00014592
0.0018994
0.00015272
0.0013993
0.00015652
0.00083337
0.0003629
0.00016084
2.0119e-05
0.0042961
1.0751e-08
4.0271e-05
0.0042057
5.986e-05
0.0040544
7.8476e-05
0.0038371
9.577e-05
0.0035556
0.00011142
0.0032145
0.00012516
0.0028183
0.00013672
0.0023775
0.00014592
0.0018902
0.00015274
0.0013925
0.00015655
0.00082956
0.00035869
0.00016077
2.012e-05
0.004276
1.0806e-08
4.0272e-05
0.0041856
5.9861e-05
0.0040348
7.8478e-05
0.0038185
9.5773e-05
0.0035383
0.00011142
0.0031989
0.00012517
0.0028046
0.00013672
0.0023659
0.00014593
0.001881
0.00015276
0.0013856
0.00015658
0.00082575
0.00035456
0.0001607
2.012e-05
0.0042558
1.0863e-08
4.0272e-05
0.0041654
5.9862e-05
0.0040152
7.8479e-05
0.0037999
9.5775e-05
0.003521
0.00011143
0.0031832
0.00012517
0.0027908
0.00013673
0.0023544
0.00014594
0.0018718
0.00015278
0.0013788
0.0001566
0.00082193
0.00035053
0.00016063
2.012e-05
0.0042357
1.092e-08
4.0273e-05
0.0041453
5.9863e-05
0.0039956
7.8481e-05
0.0037813
9.5777e-05
0.0035037
0.00011143
0.0031676
0.00012517
0.0027771
0.00013674
0.0023428
0.00014595
0.0018626
0.0001528
0.0013719
0.00015663
0.00081811
0.00034658
0.00016057
2.0121e-05
0.0042156
1.0978e-08
4.0274e-05
0.0041251
5.9865e-05
0.0039761
7.8483e-05
0.0037627
9.5779e-05
0.0034864
0.00011143
0.0031519
0.00012518
0.0027633
0.00013675
0.0023312
0.00014595
0.0018533
0.00015282
0.0013651
0.00015665
0.00081428
0.00034273
0.00016051
2.0121e-05
0.0041954
1.1037e-08
4.0275e-05
0.004105
5.9866e-05
0.0039565
7.8485e-05
0.0037441
9.5782e-05
0.0034691
0.00011144
0.0031362
0.00012518
0.0027496
0.00013675
0.0023197
0.00014596
0.0018441
0.00015284
0.0013582
0.00015668
0.00081044
0.00033895
0.00016046
2.0121e-05
0.0041753
1.1097e-08
4.0275e-05
0.0040848
5.9867e-05
0.0039369
7.8486e-05
0.0037254
9.5784e-05
0.0034519
0.00011144
0.0031206
0.00012519
0.0027358
0.00013676
0.0023081
0.00014597
0.0018349
0.00015286
0.0013513
0.0001567
0.00080659
0.00033525
0.0001604
2.0122e-05
0.0041552
1.1157e-08
4.0276e-05
0.0040647
5.9868e-05
0.0039173
7.8488e-05
0.0037068
9.5787e-05
0.0034346
0.00011144
0.0031049
0.00012519
0.0027221
0.00013677
0.0022965
0.00014598
0.0018257
0.00015287
0.0013444
0.00015673
0.00080274
0.00033163
0.00016035
2.0122e-05
0.004135
1.1219e-08
4.0277e-05
0.0040445
5.987e-05
0.0038977
7.849e-05
0.0036882
9.5789e-05
0.0034173
0.00011145
0.0030893
0.00012519
0.0027084
0.00013678
0.0022849
0.00014599
0.0018165
0.00015289
0.0013375
0.00015675
0.00079888
0.00032808
0.0001603
2.0123e-05
0.0041149
1.1281e-08
4.0278e-05
0.0040244
5.9871e-05
0.0038781
7.8492e-05
0.0036696
9.5792e-05
0.0034
0.00011145
0.0030736
0.0001252
0.0026946
0.00013678
0.0022733
0.00014599
0.0018073
0.00015291
0.0013306
0.00015677
0.00079502
0.00032461
0.00016025
2.0123e-05
0.0040948
1.1345e-08
4.0279e-05
0.0040042
5.9872e-05
0.0038585
7.8494e-05
0.003651
9.5794e-05
0.0033827
0.00011146
0.003058
0.0001252
0.0026809
0.00013679
0.0022617
0.000146
0.0017981
0.00015292
0.0013237
0.0001568
0.00079114
0.0003212
0.0001602
2.0123e-05
0.0040746
1.1409e-08
4.028e-05
0.0039841
5.9874e-05
0.0038389
7.8496e-05
0.0036323
9.5797e-05
0.0033654
0.00011146
0.0030423
0.00012521
0.0026671
0.0001368
0.0022502
0.00014601
0.0017889
0.00015294
0.0013167
0.00015682
0.00078726
0.00031786
0.00016016
2.0124e-05
0.0040545
1.1474e-08
4.028e-05
0.0039639
5.9875e-05
0.0038193
7.8498e-05
0.0036137
9.5799e-05
0.0033481
0.00011146
0.0030266
0.00012521
0.0026534
0.00013681
0.0022386
0.00014602
0.0017797
0.00015295
0.0013098
0.00015684
0.00078337
0.00031459
0.00016011
2.0124e-05
0.0040344
1.1541e-08
4.0281e-05
0.0039437
5.9876e-05
0.0037997
7.85e-05
0.0035951
9.5802e-05
0.0033308
0.00011147
0.003011
0.00012522
0.0026396
0.00013681
0.002227
0.00014603
0.0017705
0.00015297
0.0013029
0.00015686
0.00077947
0.00031138
0.00016007
2.0124e-05
0.0040142
1.1608e-08
4.0282e-05
0.0039236
5.9878e-05
0.0037801
7.8502e-05
0.0035765
9.5805e-05
0.0033134
0.00011147
0.0029953
0.00012522
0.0026259
0.00013682
0.0022154
0.00014604
0.0017612
0.00015298
0.0012959
0.00015689
0.00077557
0.00030823
0.00016003
2.0125e-05
0.0039941
1.1676e-08
4.0283e-05
0.0039034
5.9879e-05
0.0037605
7.8504e-05
0.0035578
9.5808e-05
0.0032961
0.00011147
0.0029796
0.00012523
0.0026121
0.00013683
0.0022038
0.00014605
0.001752
0.000153
0.001289
0.00015691
0.00077166
0.00030514
0.00016
2.0125e-05
0.003974
1.1745e-08
4.0284e-05
0.0038833
5.9881e-05
0.0037409
7.8506e-05
0.0035392
9.581e-05
0.0032788
0.00011148
0.002964
0.00012523
0.0025984
0.00013684
0.0021921
0.00014606
0.0017428
0.00015301
0.001282
0.00015693
0.00076774
0.00030211
0.00015996
2.0126e-05
0.0039538
1.1816e-08
4.0285e-05
0.0038631
5.9882e-05
0.0037213
7.8508e-05
0.0035206
9.5813e-05
0.0032615
0.00011148
0.0029483
0.00012524
0.0025846
0.00013685
0.0021805
0.00014606
0.0017336
0.00015302
0.0012751
0.00015695
0.00076382
0.00029913
0.00015993
2.0126e-05
0.0039337
1.1887e-08
4.0286e-05
0.0038429
5.9884e-05
0.0037017
7.8511e-05
0.003502
9.5816e-05
0.0032442
0.00011149
0.0029326
0.00012524
0.0025708
0.00013685
0.0021689
0.00014607
0.0017244
0.00015304
0.0012681
0.00015697
0.00075988
0.00029621
0.00015989
2.0127e-05
0.0039135
1.1959e-08
4.0287e-05
0.0038228
5.9885e-05
0.0036821
7.8513e-05
0.0034833
9.5819e-05
0.0032269
0.00011149
0.002917
0.00012525
0.0025571
0.00013686
0.0021573
0.00014608
0.0017151
0.00015305
0.0012611
0.00015699
0.00075594
0.00029333
0.00015986
2.0127e-05
0.0038934
1.2033e-08
4.0288e-05
0.0038026
5.9887e-05
0.0036625
7.8515e-05
0.0034647
9.5822e-05
0.0032096
0.00011149
0.0029013
0.00012525
0.0025433
0.00013687
0.0021457
0.00014609
0.0017059
0.00015306
0.0012542
0.00015701
0.000752
0.00029051
0.00015983
2.0128e-05
0.0038733
1.2108e-08
4.0289e-05
0.0037825
5.9889e-05
0.0036429
7.8517e-05
0.0034461
9.5825e-05
0.0031923
0.0001115
0.0028856
0.00012526
0.0025296
0.00013688
0.0021341
0.0001461
0.0016967
0.00015308
0.0012472
0.00015703
0.00074804
0.00028773
0.00015981
2.0128e-05
0.0038531
1.2184e-08
4.029e-05
0.0037623
5.989e-05
0.0036233
7.852e-05
0.0034274
9.5828e-05
0.003175
0.0001115
0.0028699
0.00012526
0.0025158
0.00013689
0.0021224
0.00014611
0.0016875
0.00015309
0.0012402
0.00015705
0.00074408
0.000285
0.00015978
2.0128e-05
0.003833
1.226e-08
4.0291e-05
0.0037421
5.9892e-05
0.0036037
7.8522e-05
0.0034088
9.5832e-05
0.0031577
0.00011151
0.0028543
0.00012527
0.0025021
0.00013689
0.0021108
0.00014612
0.0016782
0.0001531
0.0012332
0.00015707
0.00074011
0.00028232
0.00015975
2.0129e-05
0.0038128
1.2339e-08
4.0292e-05
0.003722
5.9894e-05
0.0035841
7.8525e-05
0.0033902
9.5835e-05
0.0031404
0.00011151
0.0028386
0.00012527
0.0024883
0.0001369
0.0020992
0.00014613
0.001669
0.00015311
0.0012263
0.00015709
0.00073614
0.00027968
0.00015973
2.0129e-05
0.0037927
1.2418e-08
4.0293e-05
0.0037018
5.9895e-05
0.0035645
7.8527e-05
0.0033715
9.5838e-05
0.0031231
0.00011152
0.0028229
0.00012528
0.0024745
0.00013691
0.0020876
0.00014614
0.0016598
0.00015312
0.0012193
0.00015711
0.00073216
0.00027708
0.0001597
2.013e-05
0.0037726
1.2499e-08
4.0294e-05
0.0036816
5.9897e-05
0.0035449
7.853e-05
0.0033529
9.5841e-05
0.0031058
0.00011152
0.0028072
0.00012528
0.0024608
0.00013692
0.0020759
0.00014615
0.0016505
0.00015314
0.0012123
0.00015712
0.00072817
0.00027452
0.00015968
2.013e-05
0.0037524
1.2581e-08
4.0295e-05
0.0036615
5.9899e-05
0.0035253
7.8532e-05
0.0033343
9.5845e-05
0.0030884
0.00011153
0.0027915
0.00012529
0.002447
0.00013693
0.0020643
0.00014616
0.0016413
0.00015315
0.0012053
0.00015714
0.00072417
0.000272
0.00015966
2.0131e-05
0.0037323
1.2664e-08
4.0296e-05
0.0036413
5.9901e-05
0.0035057
7.8535e-05
0.0033156
9.5848e-05
0.0030711
0.00011153
0.0027759
0.0001253
0.0024332
0.00013693
0.0020527
0.00014617
0.0016321
0.00015316
0.0011983
0.00015716
0.00072017
0.00026951
0.00015964
2.0131e-05
0.0037121
1.2748e-08
4.0298e-05
0.0036211
5.9902e-05
0.0034861
7.8537e-05
0.003297
9.5852e-05
0.0030538
0.00011153
0.0027602
0.0001253
0.0024195
0.00013694
0.002041
0.00014618
0.0016228
0.00015317
0.0011913
0.00015718
0.00071617
0.00026707
0.00015962
2.0132e-05
0.003692
1.2834e-08
4.0299e-05
0.003601
5.9904e-05
0.0034665
7.854e-05
0.0032784
9.5855e-05
0.0030365
0.00011154
0.0027445
0.00012531
0.0024057
0.00013695
0.0020294
0.00014619
0.0016136
0.00015318
0.0011844
0.00015719
0.00071215
0.00026466
0.0001596
2.0132e-05
0.0036718
1.2921e-08
4.03e-05
0.0035808
5.9906e-05
0.0034469
7.8543e-05
0.0032597
9.5859e-05
0.0030192
0.00011154
0.0027288
0.00012531
0.0023919
0.00013696
0.0020177
0.0001462
0.0016043
0.00015319
0.0011774
0.00015721
0.00070813
0.00026228
0.00015959
2.0133e-05
0.0036517
1.301e-08
4.0301e-05
0.0035606
5.9908e-05
0.0034273
7.8545e-05
0.0032411
9.5863e-05
0.0030019
0.00011155
0.0027131
0.00012532
0.0023782
0.00013697
0.0020061
0.00014621
0.0015951
0.0001532
0.0011704
0.00015723
0.00070411
0.00025994
0.00015957
2.0134e-05
0.0036315
1.3099e-08
4.0302e-05
0.0035405
5.991e-05
0.0034077
7.8548e-05
0.0032225
9.5866e-05
0.0029845
0.00011155
0.0026974
0.00012533
0.0023644
0.00013698
0.0019944
0.00014622
0.0015858
0.00015321
0.0011634
0.00015725
0.00070007
0.00025763
0.00015956
2.0134e-05
0.0036114
1.3191e-08
4.0304e-05
0.0035203
5.9912e-05
0.0033881
7.8551e-05
0.0032038
9.587e-05
0.0029672
0.00011156
0.0026817
0.00012533
0.0023506
0.00013699
0.0019828
0.00014623
0.0015766
0.00015322
0.0011564
0.00015726
0.00069603
0.00025535
0.00015954
2.0135e-05
0.0035913
1.3284e-08
4.0305e-05
0.0035001
5.9914e-05
0.0033685
7.8554e-05
0.0031852
9.5874e-05
0.0029499
0.00011156
0.0026661
0.00012534
0.0023368
0.00013699
0.0019711
0.00014625
0.0015673
0.00015323
0.0011494
0.00015728
0.00069199
0.00025309
0.00015953
2.0135e-05
0.0035711
1.3378e-08
4.0306e-05
0.00348
5.9916e-05
0.0033489
7.8557e-05
0.0031665
9.5878e-05
0.0029326
0.00011157
0.0026504
0.00012535
0.0023231
0.000137
0.0019595
0.00014626
0.0015581
0.00015325
0.0011424
0.00015729
0.00068794
0.00025087
0.00015952
2.0136e-05
0.003551
1.3474e-08
4.0307e-05
0.0034598
5.9918e-05
0.0033292
7.856e-05
0.0031479
9.5882e-05
0.0029153
0.00011158
0.0026347
0.00012535
0.0023093
0.00013701
0.0019478
0.00014627
0.0015488
0.00015326
0.0011354
0.00015731
0.00068389
0.00024868
0.00015951
2.0136e-05
0.0035308
1.3571e-08
4.0309e-05
0.0034396
5.992e-05
0.0033096
7.8563e-05
0.0031293
9.5886e-05
0.0028979
0.00011158
0.002619
0.00012536
0.0022955
0.00013702
0.0019361
0.00014628
0.0015396
0.00015327
0.0011284
0.00015733
0.00067983
0.00024651
0.0001595
2.0137e-05
0.0035107
1.367e-08
4.031e-05
0.0034195
5.9922e-05
0.00329
7.8566e-05
0.0031106
9.589e-05
0.0028806
0.00011159
0.0026033
0.00012537
0.0022817
0.00013703
0.0019245
0.00014629
0.0015303
0.00015328
0.0011215
0.00015734
0.00067576
0.00024437
0.00015949
2.0138e-05
0.0034905
1.3771e-08
4.0312e-05
0.0033993
5.9925e-05
0.0032704
7.8569e-05
0.003092
9.5894e-05
0.0028633
0.00011159
0.0025876
0.00012537
0.002268
0.00013704
0.0019128
0.0001463
0.0015211
0.00015329
0.0011145
0.00015736
0.00067169
0.00024225
0.00015948
2.0138e-05
0.0034704
1.3873e-08
4.0313e-05
0.0033791
5.9927e-05
0.0032508
7.8572e-05
0.0030733
9.5898e-05
0.002846
0.0001116
0.0025719
0.00012538
0.0022542
0.00013705
0.0019011
0.00014631
0.0015118
0.0001533
0.0011075
0.00015737
0.00066761
0.00024015
0.00015947
2.0139e-05
0.0034502
1.3977e-08
4.0314e-05
0.0033589
5.9929e-05
0.0032312
7.8576e-05
0.0030547
9.5903e-05
0.0028286
0.0001116
0.0025562
0.00012539
0.0022404
0.00013706
0.0018895
0.00014632
0.0015025
0.00015331
0.0011005
0.00015739
0.00066353
0.00023808
0.00015946
2.014e-05
0.00343
1.4082e-08
4.0316e-05
0.0033388
5.9931e-05
0.0032116
7.8579e-05
0.003036
9.5907e-05
0.0028113
0.00011161
0.0025405
0.00012539
0.0022266
0.00013707
0.0018778
0.00014633
0.0014933
0.00015332
0.0010935
0.0001574
0.00065945
0.00023604
0.00015945
2.014e-05
0.0034099
1.419e-08
4.0317e-05
0.0033186
5.9934e-05
0.003192
7.8582e-05
0.0030174
9.5912e-05
0.002794
0.00011161
0.0025248
0.0001254
0.0022128
0.00013708
0.0018661
0.00014635
0.001484
0.00015333
0.0010865
0.00015742
0.00065535
0.00023401
0.00015945
2.0141e-05
0.0033897
1.4299e-08
4.0319e-05
0.0032984
5.9936e-05
0.0031723
7.8586e-05
0.0029987
9.5916e-05
0.0027767
0.00011162
0.0025091
0.00012541
0.002199
0.00013708
0.0018544
0.00014636
0.0014747
0.00015334
0.0010796
0.00015743
0.00065126
0.000232
0.00015944
2.0142e-05
0.0033696
1.441e-08
4.032e-05
0.0032782
5.9939e-05
0.0031527
7.8589e-05
0.0029801
9.5921e-05
0.0027593
0.00011163
0.0024934
0.00012542
0.0021852
0.00013709
0.0018428
0.00014637
0.0014654
0.00015335
0.0010726
0.00015745
0.00064716
0.00023002
0.00015943
2.0142e-05
0.0033494
1.4523e-08
4.0322e-05
0.003258
5.9941e-05
0.0031331
7.8592e-05
0.0029614
9.5925e-05
0.002742
0.00011163
0.0024777
0.00012542
0.0021714
0.0001371
0.0018311
0.00014638
0.0014562
0.00015336
0.0010656
0.00015746
0.00064305
0.00022805
0.00015943
2.0143e-05
0.0033293
1.4637e-08
4.0323e-05
0.0032379
5.9943e-05
0.0031135
7.8596e-05
0.0029428
9.593e-05
0.0027247
0.00011164
0.002462
0.00012543
0.0021576
0.00013711
0.0018194
0.00014639
0.0014469
0.00015337
0.0010586
0.00015748
0.00063895
0.0002261
0.00015943
2.0144e-05
0.0033091
1.4754e-08
4.0325e-05
0.0032177
5.9946e-05
0.0030939
7.86e-05
0.0029241
9.5935e-05
0.0027073
0.00011164
0.0024462
0.00012544
0.0021439
0.00013712
0.0018077
0.0001464
0.0014376
0.00015338
0.0010516
0.00015749
0.00063483
0.00022417
0.00015942
2.0145e-05
0.0032889
1.4873e-08
4.0327e-05
0.0031975
5.9949e-05
0.0030742
7.8603e-05
0.0029055
9.594e-05
0.00269
0.00011165
0.0024305
0.00012545
0.0021301
0.00013713
0.001796
0.00014642
0.0014283
0.00015339
0.0010447
0.00015751
0.00063072
0.00022226
0.00015942
2.0145e-05
0.0032688
1.4994e-08
4.0328e-05
0.0031773
5.9951e-05
0.0030546
7.8607e-05
0.0028868
9.5945e-05
0.0026726
0.00011166
0.0024148
0.00012546
0.0021163
0.00013714
0.0017843
0.00014643
0.001419
0.0001534
0.0010377
0.00015752
0.00062659
0.00022036
0.00015942
2.0146e-05
0.0032486
1.5116e-08
4.033e-05
0.0031571
5.9954e-05
0.003035
7.8611e-05
0.0028682
9.595e-05
0.0026553
0.00011166
0.0023991
0.00012546
0.0021025
0.00013715
0.0017727
0.00014644
0.0014097
0.00015341
0.0010307
0.00015754
0.00062247
0.00021848
0.00015942
2.0147e-05
0.0032285
1.5241e-08
4.0332e-05
0.0031369
5.9957e-05
0.0030154
7.8615e-05
0.0028495
9.5955e-05
0.002638
0.00011167
0.0023834
0.00012547
0.0020887
0.00013716
0.001761
0.00014645
0.0014005
0.00015342
0.0010238
0.00015755
0.00061834
0.00021662
0.00015942
2.0148e-05
0.0032083
1.5368e-08
4.0333e-05
0.0031168
5.9959e-05
0.0029957
7.8619e-05
0.0028308
9.596e-05
0.0026206
0.00011168
0.0023677
0.00012548
0.0020749
0.00013717
0.0017493
0.00014646
0.0013912
0.00015343
0.0010168
0.00015757
0.00061421
0.00021477
0.00015941
2.0148e-05
0.0031881
1.5498e-08
4.0335e-05
0.0030966
5.9962e-05
0.0029761
7.8623e-05
0.0028122
9.5965e-05
0.0026033
0.00011168
0.002352
0.00012549
0.0020611
0.00013718
0.0017376
0.00014648
0.0013819
0.00015344
0.0010098
0.00015758
0.00061007
0.00021294
0.00015941
2.0149e-05
0.003168
1.5629e-08
4.0337e-05
0.0030764
5.9965e-05
0.0029565
7.8627e-05
0.0027935
9.5971e-05
0.0025859
0.00011169
0.0023362
0.0001255
0.0020472
0.00013719
0.0017259
0.00014649
0.0013726
0.00015345
0.0010029
0.00015759
0.00060593
0.00021112
0.00015941
2.015e-05
0.0031478
1.5763e-08
4.0339e-05
0.0030562
5.9968e-05
0.0029368
7.8631e-05
0.0027749
9.5976e-05
0.0025686
0.0001117
0.0023205
0.00012551
0.0020334
0.0001372
0.0017142
0.0001465
0.0013633
0.00015347
0.00099589
0.00015761
0.00060179
0.00020931
0.00015942
2.0151e-05
0.0031276
1.5899e-08
4.034e-05
0.003036
5.9971e-05
0.0029172
7.8635e-05
0.0027562
9.5982e-05
0.0025512
0.00011171
0.0023048
0.00012551
0.0020196
0.00013721
0.0017025
0.00014652
0.001354
0.00015348
0.00098893
0.00015762
0.00059764
0.00020751
0.00015942
2.0152e-05
0.0031075
1.6038e-08
4.0342e-05
0.0030158
5.9974e-05
0.0028976
7.8639e-05
0.0027375
9.5988e-05
0.0025339
0.00011171
0.0022891
0.00012552
0.0020058
0.00013722
0.0016908
0.00014653
0.0013447
0.00015349
0.00098197
0.00015764
0.00059349
0.00020573
0.00015942
2.0153e-05
0.0030873
1.6179e-08
4.0344e-05
0.0029956
5.9977e-05
0.002878
7.8644e-05
0.0027189
9.5993e-05
0.0025165
0.00011172
0.0022733
0.00012553
0.001992
0.00013723
0.0016791
0.00014654
0.0013354
0.0001535
0.00097502
0.00015765
0.00058934
0.00020396
0.00015942
2.0153e-05
0.0030671
1.6322e-08
4.0346e-05
0.0029754
5.998e-05
0.0028583
7.8648e-05
0.0027002
9.5999e-05
0.0024992
0.00011173
0.0022576
0.00012554
0.0019782
0.00013725
0.0016674
0.00014655
0.0013261
0.00015351
0.00096806
0.00015767
0.00058518
0.0002022
0.00015942
2.0154e-05
0.003047
1.6469e-08
4.0348e-05
0.0029552
5.9983e-05
0.0028387
7.8652e-05
0.0026815
9.6005e-05
0.0024818
0.00011174
0.0022419
0.00012555
0.0019644
0.00013726
0.0016557
0.00014657
0.0013167
0.00015352
0.00096111
0.00015768
0.00058103
0.00020046
0.00015943
2.0155e-05
0.0030268
1.6618e-08
4.035e-05
0.002935
5.9986e-05
0.0028191
7.8657e-05
0.0026629
9.6011e-05
0.0024645
0.00011174
0.0022261
0.00012556
0.0019506
0.00013727
0.001644
0.00014658
0.0013074
0.00015353
0.00095415
0.00015769
0.00057686
0.00019872
0.00015943
2.0156e-05
0.0030066
1.6769e-08
4.0352e-05
0.0029148
5.999e-05
0.0027994
7.8662e-05
0.0026442
9.6017e-05
0.0024471
0.00011175
0.0022104
0.00012557
0.0019367
0.00013728
0.0016323
0.00014659
0.0012981
0.00015355
0.0009472
0.00015771
0.0005727
0.00019699
0.00015944
2.0157e-05
0.0029864
1.6923e-08
4.0354e-05
0.0028946
5.9993e-05
0.0027798
7.8666e-05
0.0026255
9.6023e-05
0.0024298
0.00011176
0.0021947
0.00012558
0.0019229
0.00013729
0.0016206
0.00014661
0.0012888
0.00015356
0.00094025
0.00015772
0.00056853
0.00019528
0.00015944
2.0158e-05
0.0029663
1.708e-08
4.0356e-05
0.0028744
5.9996e-05
0.0027601
7.8671e-05
0.0026068
9.603e-05
0.0024124
0.00011177
0.0021789
0.00012559
0.0019091
0.0001373
0.0016089