/*--------------------------------*- C++ -*----------------------------------*\
  =========                 |
  \\      /  F ield         | OpenFOAM: The Open Source CFD Toolbox
   \\    /   O peration     | Website:  https://openfoam.org
    \\  /    A nd           | Version:  6.0
     \\/     M anipulation  |
\*---------------------------------------------------------------------------*/
FoamFile
{
    version     2.0;
    format      ascii;
    class       volVectorField;
    location    "1.57";
    object      U;
}
// * * * * * * * * * * * * * * * * * * * * * * * * * * * * * * * * * * * * * //

dimensions      [0 1 -1 0 0 0 0];

internalField   nonuniform List<vector> 
13500
(
(1 1.5262e-06 -4.3371e-18)
(1 -3.3345e-06 2.9347e-18)
(1 -6.1561e-06 -1.2621e-17)
(1 -8.8042e-06 -8.7328e-18)
(1 -9.1701e-06 1.6461e-17)
(1 -6.3185e-06 3.0596e-17)
(1 -3.0901e-07 2.6385e-17)
(0.99998 1.6137e-05 -4.2354e-18)
(0.99991 4.5225e-05 1.5682e-17)
(0.9998 7.5574e-05 3.3582e-18)
(0.99577 0.00074247 2.907e-17)
(1.0192 0.010826 7.9549e-18)
(1 4.6622e-06 2.687e-18)
(1 -9.5786e-06 -8.9124e-18)
(1 -1.7343e-05 6.0269e-18)
(1 -2.5227e-05 -3.4439e-19)
(1 -2.5509e-05 -4.3897e-19)
(1 -1.7101e-05 -3.6789e-17)
(1 1.609e-06 -4.5572e-17)
(0.99993 5.0566e-05 -2.4234e-17)
(0.99971 0.00014409 -1.5651e-17)
(0.9998 0.0001931 -1.6606e-18)
(0.98642 0.0021335 -1.3767e-17)
(1.0541 0.030579 -4.8165e-18)
(1 7.8255e-06 -3.4705e-18)
(1 -1.5949e-05 1.7707e-17)
(1 -2.8588e-05 3.1348e-18)
(1 -4.1944e-05 1.0069e-17)
(1 -4.1959e-05 -3.7959e-18)
(1 -2.818e-05 2.9469e-17)
(1 3.5496e-06 -6.4154e-18)
(0.99989 8.5107e-05 5.5048e-18)
(0.99949 0.0002489 -1.8988e-17)
(1.0002 0.00033482 2.5228e-17)
(0.9765 0.0031511 -7.1985e-18)
(1.0829 0.045053 1.6933e-18)
(1 1.1015e-05 9.0726e-18)
(1 -2.2508e-05 -1.7167e-17)
(1 -4.0042e-05 -1.486e-17)
(1 -5.9062e-05 -7.0643e-19)
(1 -5.8753e-05 5.8598e-18)
(1 -3.9672e-05 -8.1804e-19)
(1 5.245e-06 6.3207e-17)
(0.99985 0.00011929 9.9174e-18)
(0.99925 0.00035806 2.2453e-17)
(1.001 0.00050724 -9.1381e-18)
(0.96642 0.0038174 3.5056e-17)
(1.1045 0.055534 -7.708e-18)
(1 1.4243e-05 -6.3748e-18)
(1 -2.9141e-05 1.4837e-17)
(1 -5.1505e-05 1.265e-17)
(1 -7.6283e-05 1.2886e-17)
(1.0001 -7.5586e-05 2.8733e-18)
(1 -5.1231e-05 2.1659e-17)
(1 6.932e-06 -2.8226e-17)
(0.99983 0.00015307 2.0141e-18)
(0.99897 0.00046964 -1.3767e-17)
(1.0022 0.00071404 -2.1803e-18)
(0.95656 0.0041802 -9.0904e-18)
(1.1188 0.063162 2.1356e-18)
(1 1.751e-05 6.4514e-18)
(1 -3.585e-05 -6.1508e-18)
(1 -6.2977e-05 3.8632e-18)
(1 -9.3607e-05 -2.5527e-17)
(1.0001 -9.2459e-05 -8.4129e-20)
(1.0001 -6.2876e-05 -4.2877e-17)
(1 8.5915e-06 1.0831e-18)
(0.99982 0.00018637 -1.6168e-17)
(0.99865 0.00058159 5.2425e-18)
(1.0037 0.00096323 -2.197e-17)
(0.9473 0.0042802 -2.1891e-17)
(1.1266 0.068552 2.0672e-18)
(0.99999 2.0819e-05 -1.0679e-18)
(1 -4.2638e-05 -7.3564e-18)
(1 -7.4455e-05 -3.1397e-18)
(1.0001 -0.00011105 1.9267e-17)
(1.0001 -0.00010937 -2.6612e-17)
(1.0001 -7.4631e-05 1.6406e-17)
(1 1.0234e-05 1.8879e-17)
(0.99981 0.00021927 5.6885e-18)
(0.99828 0.00069184 1.172e-17)
(1.0055 0.0012624 1.1828e-17)
(0.93892 0.0041538 9.4323e-18)
(1.1288 0.072132 3.324e-18)
(0.99999 2.4171e-05 -2.2042e-18)
(1 -4.9511e-05 -1.4471e-18)
(1 -8.5941e-05 -2.7047e-17)
(1.0001 -0.00012862 -9.2002e-18)
(1.0001 -0.00012632 7.4486e-18)
(1.0001 -8.6516e-05 2.6885e-17)
(1 1.186e-05 1.2017e-17)
(0.99982 0.00025182 5.078e-18)
(0.99786 0.00079826 -7.6611e-18)
(1.0074 0.0016162 1.6567e-17)
(0.93164 0.003837 7.6185e-18)
(1.1263 0.074265 -1.0578e-17)
(0.99999 2.7569e-05 -6.8425e-18)
(1 -5.6474e-05 6.2216e-18)
(1 -9.7434e-05 4.5477e-17)
(1.0001 -0.00014633 -1.1035e-17)
(1.0001 -0.00014331 2.7894e-17)
(1.0001 -9.8551e-05 -5.3081e-17)
(1 1.3458e-05 -4.003e-17)
(0.99984 0.00028413 9.8668e-18)
(0.99739 0.0008987 -5.7543e-18)
(1.0095 0.0020271 -9.1372e-18)
(0.9256 0.0033646 -1.4076e-17)
(1.1203 0.075258 1.3844e-17)
(0.99999 3.1012e-05 4.508e-18)
(1 -6.3527e-05 2.3418e-18)
(1 -0.00010893 -3.8522e-17)
(1.0001 -0.00016418 1.5705e-17)
(1.0001 -0.00016034 -1.2164e-17)
(1.0001 -0.00011075 2.2639e-17)
(1 1.5014e-05 1.4226e-17)
(0.99988 0.00031634 2.4939e-18)
(0.99687 0.00099105 5.4305e-19)
(1.0117 0.002495 1.4478e-18)
(0.92089 0.0027698 4.4786e-18)
(1.1116 0.075362 -7.223e-19)
(0.99999 3.4503e-05 -2.4751e-18)
(1 -7.0676e-05 -7.6804e-18)
(1 -0.00012044 9.4427e-18)
(1.0001 -0.00018218 -2.771e-18)
(1.0001 -0.00017742 1.8777e-18)
(1.0001 -0.00012315 -2.481e-17)
(1.0001 1.6512e-05 -3.2765e-17)
(0.99992 0.00034865 -3.1679e-17)
(0.99631 0.0010733 1.6085e-17)
(1.0138 0.0030185 1.8807e-18)
(0.91753 0.002084 -1.136e-17)
(1.1011 0.074785 -5.9725e-18)
(0.99998 3.8044e-05 3.4163e-18)
(1 -7.7924e-05 2.901e-18)
(1 -0.00013196 4.5508e-18)
(1.0001 -0.00020034 -2.2083e-18)
(1.0001 -0.00019455 -5.6284e-18)
(1.0001 -0.00013575 9.3838e-18)
(1.0001 1.7929e-05 1.8966e-17)
(0.99999 0.00038125 1.957e-17)
(0.99571 0.0011435 1.0336e-17)
(1.016 0.0035943 -2.3747e-17)
(0.91549 0.0013361 1.1931e-19)
(1.0894 0.073697 -6.9222e-18)
(0.99998 4.1634e-05 -3.4157e-18)
(1 -8.5273e-05 5.7048e-18)
(1 -0.00014349 8.2507e-18)
(1.0001 -0.00021867 5.7663e-18)
(1.0001 -0.00021173 -5.2204e-18)
(1.0002 -0.00014859 4.6131e-18)
(1.0001 1.9241e-05 4.325e-18)
(1.0001 0.00041439 -1.7476e-18)
(0.99507 0.0012001 -1.6705e-17)
(1.018 0.0042181 2.2022e-17)
(0.91471 0.00055265 1.0637e-19)
(1.0771 0.072236 1.4786e-18)
(0.99998 4.5275e-05 5.1942e-18)
(1 -9.2727e-05 -4.4531e-18)
(1 -0.00015503 7.2226e-19)
(1.0001 -0.00023718 -4.8102e-18)
(1.0002 -0.00022896 1.1856e-17)
(1.0002 -0.00016169 5.6284e-18)
(1.0001 2.0418e-05 1.7403e-17)
(1.0002 0.00044833 -6.4898e-18)
(0.99441 0.0012414 -2.0408e-19)
(1.0199 0.0048846 5.4094e-18)
(0.91508 -0.00024262 1.7241e-17)
(1.0649 0.070514 9.43e-19)
(0.99997 4.8968e-05 1.2527e-18)
(0.99999 -0.00010029 9.883e-18)
(1 -0.00016658 1.3797e-17)
(1.0001 -0.00025587 -4.7959e-18)
(1.0002 -0.00024624 8.5848e-18)
(1.0002 -0.00017507 -2.6275e-18)
(1.0001 2.1428e-05 -3.048e-17)
(1.0003 0.00048333 2.0542e-17)
(0.99373 0.0012663 -1.8841e-17)
(1.0217 0.0055879 -3.12e-17)
(0.91648 -0.0010287 -3.7854e-18)
(1.0529 0.068621 8.744e-19)
(0.99997 5.2715e-05 -3.196e-18)
(0.99999 -0.00010797 -1.0511e-17)
(1 -0.00017815 -3.3115e-17)
(1.0001 -0.00027476 8.0802e-18)
(1.0002 -0.00026357 -1.3028e-17)
(1.0002 -0.00018875 8.4241e-18)
(1.0001 2.2234e-05 -2.8521e-18)
(1.0004 0.00051966 -1.2366e-17)
(0.99304 0.0012737 4.136e-18)
(1.0232 0.0063215 1.8631e-17)
(0.91878 -0.0017877 -7.9425e-18)
(1.0416 0.06663 1.2191e-17)
(0.99997 5.6517e-05 3.3627e-19)
(0.99999 -0.00011576 7.8609e-18)
(1 -0.00018972 2.2862e-17)
(1.0001 -0.00029386 -1.8198e-18)
(1.0002 -0.00028097 -1.2942e-17)
(1.0002 -0.00020277 -1.5698e-17)
(1.0001 2.2797e-05 1.0894e-17)
(1.0006 0.00055758 7.0911e-18)
(0.99234 0.001263 2.3914e-17)
(1.0245 0.0070788 -2.609e-18)
(0.92183 -0.0025044 1.9733e-18)
(1.031 0.064598 -4.8631e-18)
(0.99996 6.0374e-05 -1.8866e-18)
(0.99999 -0.00012367 -9.5248e-18)
(1 -0.00020131 -1.0316e-17)
(1.0001 -0.00031316 6.0811e-18)
(1.0002 -0.00029842 -7.2687e-18)
(1.0002 -0.00021713 -1.2591e-17)
(1.0001 2.3078e-05 1.059e-17)
(1.0007 0.00059734 -4.8108e-18)
(0.99166 0.0012336 -2.9598e-17)
(1.0256 0.007853 -1.4623e-17)
(0.92549 -0.0031667 8.5628e-18)
(1.0215 0.062568 -5.2797e-18)
(0.99996 6.4287e-05 -2.7015e-18)
(0.99998 -0.0001317 -3.5999e-18)
(1 -0.00021292 -7.6452e-19)
(1.0001 -0.0003327 -2.6629e-17)
(1.0002 -0.00031592 6.0989e-18)
(1.0003 -0.00023188 5.4832e-18)
(1.0001 2.3035e-05 -2.0124e-17)
(1.0009 0.00063915 -1.6423e-17)
(0.99099 0.0011855 4.3277e-18)
(1.0264 0.0086374 -1.0999e-18)
(0.92962 -0.0037652 -9.8882e-18)
(1.013 0.060573 9.9825e-19)
(0.99995 6.8257e-05 3.5138e-18)
(0.99998 -0.00013986 1.6503e-17)
(1 -0.00022455 1.9686e-17)
(1.0001 -0.00035246 2.5079e-18)
(1.0002 -0.00033349 1.6859e-17)
(1.0003 -0.00024704 9.6084e-18)
(1.0001 2.2627e-05 2.9046e-18)
(1.0011 0.00068321 1.7975e-17)
(0.99034 0.0011188 2.1512e-17)
(1.027 0.0094253 1.7462e-17)
(0.93408 -0.0042932 7.3781e-18)
(1.0056 0.058639 1.1856e-18)
(0.99995 7.2287e-05 -1.6748e-18)
(0.99998 -0.00014815 -3.9597e-18)
(1 -0.00023619 -2.0973e-17)
(1.0001 -0.00037248 -2.3742e-18)
(1.0002 -0.00035112 -1.2778e-17)
(1.0003 -0.00026264 -5.1984e-18)
(1.0001 2.1817e-05 -1.8644e-18)
(1.0013 0.00072964 -1.6252e-17)
(0.98973 0.0010342 -2.0573e-17)
(1.0274 0.01021 8.951e-18)
(0.93874 -0.0047463 5.0536e-19)
(0.99918 0.056782 6.8112e-19)
(0.99994 7.6375e-05 4.4394e-18)
(0.99997 -0.00015657 -5.1731e-18)
(1 -0.00024785 -1.9671e-17)
(1.0002 -0.00039274 4.5141e-17)
(1.0003 -0.00036881 1.8535e-17)
(1.0003 -0.0002787 -1.272e-17)
(1.0001 2.0569e-05 2.5064e-17)
(1.0015 0.00077856 2.1964e-17)
(0.98916 0.0009323 3.3386e-17)
(1.0275 0.010987 -3.2809e-17)
(0.94351 -0.0051224 -1.3549e-17)
(0.99383 0.055014 1.7999e-19)
(0.99994 8.0524e-05 -3.2494e-18)
(0.99997 -0.00016513 -1.0381e-18)
(1 -0.00025953 3.3583e-17)
(1.0002 -0.00041328 -3.4123e-17)
(1.0003 -0.00038656 -1.7843e-18)
(1.0003 -0.00029526 4.2147e-17)
(1.0001 1.8852e-05 7.7676e-18)
(1.0017 0.00083001 -3.393e-18)
(0.98863 0.00081427 -2.0707e-17)
(1.0274 0.011748 3.8664e-17)
(0.94828 -0.0054213 -5.7382e-18)
(0.98944 0.053341 -2.8562e-19)
(0.99993 8.4734e-05 -1.6565e-18)
(0.99996 -0.00017383 -2.0685e-18)
(1 -0.00027124 1.7486e-18)
(1.0002 -0.00043409 3.55e-17)
(1.0003 -0.00040437 -1.006e-17)
(1.0004 -0.00031235 -3.1152e-17)
(1.0001 1.6641e-05 -1.9805e-17)
(1.002 0.00088398 -3.6533e-18)
(0.98815 0.00068138 6.5491e-18)
(1.0272 0.01249 -3.2619e-17)
(0.95298 -0.0056444 9.6119e-18)
(0.98594 0.051765 3.0988e-18)
(0.99992 8.9006e-05 2.7375e-18)
(0.99996 -0.00018268 1.4397e-17)
(1 -0.00028296 -1.2897e-17)
(1.0002 -0.00045519 -3.7171e-18)
(1.0003 -0.00042224 -1.9306e-17)
(1.0004 -0.00033001 3.389e-17)
(1.0001 1.3916e-05 -1.7386e-17)
(1.0022 0.00094039 1.5142e-17)
(0.98772 0.00053514 -2.0183e-18)
(1.0267 0.013206 3.0583e-17)
(0.95753 -0.0057945 -9.3778e-18)
(0.98323 0.050287 -5.1711e-18)
(0.99992 9.3341e-05 -5.2503e-19)
(0.99995 -0.00019167 -8.28e-18)
(1 -0.00029471 -1.8059e-17)
(1.0002 -0.0004766 -1.0185e-17)
(1.0003 -0.00044017 1.8726e-17)
(1.0004 -0.00034827 -4.3215e-17)
(1.0001 1.0665e-05 -2.6828e-18)
(1.0025 0.00099914 -2.0458e-17)
(0.98735 0.00037723 3.2619e-18)
(1.0262 0.013893 -8.8211e-18)
(0.96188 -0.0058756 9.982e-18)
(0.98123 0.048903 2.1944e-18)
(0.99991 9.774e-05 2.7504e-18)
(0.99995 -0.00020082 -8.8692e-18)
(1 -0.00030649 -1.784e-18)
(1.0002 -0.00049832 2.4747e-18)
(1.0003 -0.00045816 5.9267e-18)
(1.0005 -0.00036717 1.2487e-17)
(1 6.8834e-06 4.3983e-17)
(1.0027 0.00106 2.4447e-18)
(0.98703 0.00020943 5.3165e-18)
(1.0255 0.014547 9.7231e-18)
(0.96599 -0.0058926 -8.5359e-18)
(0.97984 0.047609 1.6867e-18)
(0.9999 0.0001022 -1.5771e-18)
(0.99994 -0.00021013 8.861e-18)
(1 -0.0003183 2.567e-17)
(1.0002 -0.00052036 -2.4935e-17)
(1.0003 -0.0004762 -9.2189e-18)
(1.0005 -0.00038676 -2.197e-18)
(1 2.5743e-06 -1.4497e-17)
(1.003 0.0011229 1.8966e-18)
(0.98676 3.3592e-05 -9.2103e-18)
(1.0247 0.015164 -3.5734e-18)
(0.96984 -0.0058508 -2.4099e-19)
(0.97898 0.0464 -2.0607e-18)
(0.99989 0.00010673 -1.695e-18)
(0.99994 -0.0002196 5.3038e-18)
(1 -0.00033013 -6.2089e-19)
(1.0002 -0.00054275 8.2683e-18)
(1.0003 -0.0004943 -1.701e-17)
(1.0005 -0.00040707 2.486e-17)
(0.99999 -2.2525e-06 7.2312e-18)
(1.0033 0.0011874 -1.8093e-17)
(0.98655 -0.00014841 -1.1814e-17)
(1.0238 0.015741 -1.4148e-17)
(0.9734 -0.0057562 1.3531e-18)
(0.97856 0.04527 -3.7791e-18)
(0.99989 0.00011133 5.8903e-19)
(0.99993 -0.00022923 -1.2666e-17)
(1 -0.000342 1.5895e-17)
(1.0002 -0.00056549 2.2868e-17)
(1.0004 -0.00051244 3.334e-17)
(1.0005 -0.00042816 -1.8257e-17)
(0.99996 -7.581e-06 -1.7978e-17)
(1.0035 0.0012533 3.6719e-18)
(0.98639 -0.00033474 1.107e-17)
(1.0229 0.016277 1.1075e-17)
(0.97668 -0.0056151 6.2975e-18)
(0.9785 0.044212 3.7562e-18)
(0.99988 0.00011599 1.1288e-18)
(0.99993 -0.00023903 1.0072e-17)
(1 -0.00035389 -3.6519e-17)
(1.0002 -0.0005886 -3.3135e-18)
(1.0004 -0.00053063 -2.7695e-17)
(1.0006 -0.00045007 -1.15e-17)
(0.99993 -1.339e-05 2.5255e-20)
(1.0038 0.0013202 -4.1995e-18)
(0.98629 -0.00052362 -2.1819e-17)
(1.022 0.01677 -1.7682e-17)
(0.97966 -0.0054336 -8.6007e-18)
(0.97874 0.04322 -1.8529e-18)
(0.99987 0.00012072 -7.3163e-19)
(0.99992 -0.00024901 -6.5504e-18)
(1 -0.00036582 2.8733e-17)
(1.0002 -0.0006121 -3.1616e-17)
(1.0004 -0.00054886 -2.0829e-18)
(1.0006 -0.00047285 2.4489e-17)
(0.9999 -1.9656e-05 7.1934e-19)
(1.0041 0.0013879 4.0051e-18)
(0.98623 -0.00071341 1.91e-17)
(1.021 0.017219 2.2986e-17)
(0.98237 -0.0052178 4.9205e-18)
(0.97921 0.042287 -1.036e-18)
(0.99986 0.00012551 -1.9046e-18)
(0.99991 -0.00025916 -2.4156e-18)
(1 -0.00037779 -1.2738e-17)
(1.0002 -0.00063599 1.575e-17)
(1.0004 -0.00056713 3.0438e-17)
(1.0006 -0.00049655 -1.0823e-17)
(0.99986 -2.6353e-05 2.2392e-17)
(1.0043 0.0014559 3.002e-18)
(0.98621 -0.00090259 -2.1649e-18)
(1.02 0.017623 1.0398e-17)
(0.9848 -0.0049738 -5.4987e-18)
(0.97987 0.041408 -7.2298e-19)
(0.99985 0.00013038 4.7634e-19)
(0.99991 -0.0002695 -6.3882e-18)
(1 -0.0003898 4.7682e-18)
(1.0002 -0.00066029 -1.6051e-17)
(1.0004 -0.00058543 -3.2195e-17)
(1.0007 -0.00052123 6.8203e-18)
(0.99982 -3.3457e-05 -3.2303e-17)
(1.0046 0.0015239 -6.8628e-18)
(0.98624 -0.0010898 7.0215e-18)
(1.0191 0.017982 -3.2636e-17)
(0.98698 -0.0047072 3.7648e-18)
(0.98065 0.040576 2.037e-18)
(0.99984 0.00013531 8.3648e-19)
(0.9999 -0.00028002 1.7308e-17)
(1 -0.00040184 7.9838e-18)
(1.0002 -0.00068503 6.5385e-18)
(1.0004 -0.00060374 2.5744e-17)
(1.0007 -0.00054694 2.0335e-18)
(0.99978 -4.095e-05 2.2306e-17)
(1.0048 0.0015915 4.9226e-18)
(0.9863 -0.001274 -2.1346e-17)
(1.0182 0.018298 1.1236e-17)
(0.98893 -0.0044232 2.546e-18)
(0.98153 0.039785 2.1142e-18)
(0.99983 0.00014031 -2.9207e-18)
(0.99989 -0.00029074 -5.697e-18)
(1 -0.00041393 -7.0145e-18)
(1.0002 -0.00071021 1.0738e-17)
(1.0004 -0.00062208 1.2436e-17)
(1.0008 -0.00057373 -4.0496e-18)
(0.99973 -4.882e-05 -1.8737e-17)
(1.0051 0.0016585 2.2412e-17)
(0.9864 -0.0014541 3.9507e-18)
(1.0174 0.01857 -3.3941e-18)
(0.99066 -0.0041267 1.0533e-17)
(0.98248 0.039032 -1.4703e-18)
(0.99982 0.00014538 6.0016e-18)
(0.99988 -0.00030165 6.8224e-18)
(1 -0.00042606 -7.4563e-18)
(1.0002 -0.00073585 -6.6886e-18)
(1.0004 -0.00064043 -1.7846e-17)
(1.0008 -0.00060166 -6.9553e-18)
(0.99968 -5.7066e-05 9.2382e-18)
(1.0054 0.0017245 -3.5948e-17)
(0.98653 -0.0016295 9.6774e-18)
(1.0165 0.018801 -4.012e-18)
(0.9922 -0.0038221 -1.1154e-17)
(0.98346 0.038311 4.2731e-18)
(0.99981 0.00015052 -2.6488e-18)
(0.99987 -0.00031276 -1.1987e-17)
(1 -0.00043824 -7.2263e-18)
(1.0002 -0.00076198 -1.2692e-17)
(1.0004 -0.00065877 -5.4487e-18)
(1.0009 -0.00063077 2.045e-17)
(0.99963 -6.5702e-05 -9.0752e-18)
(1.0056 0.0017891 3.999e-17)
(0.98669 -0.0017995 9.1279e-18)
(1.0158 0.018992 1.2175e-17)
(0.99357 -0.0035131 4.7017e-18)
(0.98446 0.037619 -6.9323e-18)
(0.9998 0.00015573 -1.405e-18)
(0.99987 -0.00032407 8.9143e-18)
(1 -0.00045046 1.4318e-17)
(1.0002 -0.0007886 3.4221e-17)
(1.0004 -0.00067712 7.2225e-18)
(1.0009 -0.00066112 -1.4027e-17)
(0.99958 -7.4758e-05 4.3794e-18)
(1.0059 0.0018523 -4.3023e-17)
(0.98687 -0.0019639 -1.1073e-17)
(1.0151 0.019145 -6.7691e-18)
(0.99479 -0.0032031 4.6138e-18)
(0.98546 0.036952 6.9749e-18)
(0.99979 0.000161 1.0752e-18)
(0.99986 -0.0003356 2.1102e-18)
(0.99999 -0.00046274 -1.4061e-17)
(1.0003 -0.00081574 -5.7002e-18)
(1.0004 -0.00069546 9.1704e-18)
(1.001 -0.00069274 1.6789e-17)
(0.99952 -8.4285e-05 1.5229e-17)
(1.0061 0.0019136 4.2584e-18)
(0.98707 -0.0021224 1.2389e-17)
(1.0145 0.019262 -3.1364e-18)
(0.99587 -0.002895 -8.2361e-18)
(0.98645 0.036307 -1.7981e-18)
(0.99978 0.00016634 -4.4034e-20)
(0.99985 -0.00034733 2.4049e-18)
(0.99998 -0.00047507 3.1425e-18)
(1.0003 -0.00084341 -7.3998e-18)
(1.0005 -0.00071378 8.5255e-20)
(1.001 -0.00072568 -1.5223e-17)
(0.99946 -9.4357e-05 -1.0301e-17)
(1.0063 0.001973 3.1506e-17)
(0.98729 -0.002275 -1.8725e-17)
(1.0139 0.019345 1.2179e-17)
(0.99684 -0.0025912 4.3504e-18)
(0.98743 0.035681 -5.0863e-18)
(0.99976 0.00017175 -3.3303e-18)
(0.99984 -0.00035928 -1.1279e-17)
(0.99998 -0.00048745 8.0227e-18)
(1.0003 -0.00087164 -2.0209e-17)
(1.0005 -0.00073209 -2.3191e-17)
(1.0011 -0.00075997 -2.1028e-17)
(0.9994 -0.00010507 -2.0994e-17)
(1.0066 0.0020302 -3.2264e-18)
(0.98753 -0.0024219 1.6366e-17)
(1.0134 0.019397 -1.0447e-17)
(0.99772 -0.0022936 4.3281e-19)
(0.98838 0.035073 4.7927e-18)
(0.99975 0.00017723 6.4277e-18)
(0.99983 -0.00037145 1.1788e-17)
(0.99997 -0.0004999 -1.2938e-17)
(1.0003 -0.00090044 1.6592e-17)
(1.0005 -0.00075039 -2.7193e-18)
(1.0011 -0.00079564 1.3783e-17)
(0.99934 -0.00011656 2.5235e-17)
(1.0068 0.0020851 -2.444e-17)
(0.98778 -0.0025632 -8.2993e-18)
(1.0129 0.019421 1.1032e-17)
(0.99851 -0.0020038 3.7615e-18)
(0.9893 0.034481 -2.2685e-18)
(0.99974 0.00018277 -4.823e-18)
(0.99982 -0.00038385 -3.4837e-18)
(0.99996 -0.00051241 -2.7051e-18)
(1.0003 -0.00092983 1.8985e-17)
(1.0005 -0.00076867 -5.8216e-18)
(1.0012 -0.00083269 -1.7467e-19)
(0.99927 -0.00012897 -4.9379e-18)
(1.007 0.0021375 1.9577e-17)
(0.98805 -0.0026991 -7.8809e-18)
(1.0125 0.019418 -7.5751e-18)
(0.99924 -0.0017229 -1.112e-17)
(0.99019 0.033902 2.6389e-18)
(0.99972 0.00018837 3.2784e-18)
(0.99981 -0.00039647 -4.4172e-18)
(0.99996 -0.00052499 6.193e-18)
(1.0003 -0.00095983 -2.8805e-17)
(1.0005 -0.00078694 3.9441e-17)
(1.0013 -0.00087115 5.7105e-18)
(0.9992 -0.00014249 1.9483e-17)
(1.0073 0.0021874 -1.2114e-17)
(0.98832 -0.0028301 1.0364e-19)
(1.0122 0.01939 5.6331e-18)
(0.99991 -0.0014518 -2.165e-18)
(0.99105 0.033336 -9.9268e-19)
(0.99971 0.00019403 -9.3787e-19)
(0.9998 -0.00040933 8.634e-19)
(0.99995 -0.00053764 1.5089e-17)
(1.0003 -0.00099046 7.8528e-18)
(1.0005 -0.00080521 -1.9718e-17)
(1.0013 -0.000911 -1.1185e-17)
(0.99914 -0.00015733 3.4017e-18)
(1.0075 0.0022346 -5.8897e-18)
(0.98861 -0.0029566 1.3186e-17)
(1.0118 0.019342 -3.6979e-18)
(1.0005 -0.0011911 1.0414e-17)
(0.99188 0.032781 -3.6275e-18)
(0.9997 0.00019976 -1.6324e-18)
(0.99978 -0.00042242 -8.3229e-18)
(0.99994 -0.00055036 -4.4864e-18)
(1.0003 -0.0010217 3.1534e-17)
(1.0005 -0.0008235 -1.7566e-17)
(1.0014 -0.00095224 -9.4742e-19)
(0.99907 -0.00017371 -5.0873e-17)
(1.0077 0.002279 5.7891e-18)
(0.98891 -0.0030787 -2.4659e-17)
(1.0116 0.019273 -7.9856e-18)
(1.0011 -0.00094122 -1.0417e-17)
(0.99268 0.032237 2.1541e-18)
(0.99968 0.00020554 -7.0472e-19)
(0.99977 -0.00043575 5.1564e-18)
(0.99993 -0.00056317 -1.852e-18)
(1.0003 -0.0010537 -1.8361e-17)
(1.0005 -0.00084182 2.5244e-17)
(1.0015 -0.00099484 -2.3289e-18)
(0.999 -0.00019192 2.6947e-17)
(1.0079 0.0023207 -3.559e-18)
(0.98921 -0.0031971 1.1972e-17)
(1.0114 0.019187 9.9875e-18)
(1.0017 -0.00070223 8.5936e-18)
(0.99345 0.031703 -5.2172e-19)
(0.99967 0.00021139 3.9948e-18)
(0.99976 -0.00044933 -3.0851e-18)
(0.99992 -0.00057607 -6.4786e-18)
(1.0003 -0.0010863 2.0039e-17)
(1.0005 -0.0008602 1.8524e-18)
(1.0016 -0.0010388 2.8873e-17)
(0.99893 -0.00021222 4.6485e-18)
(1.0081 0.0023594 1.7004e-17)
(0.98952 -0.003312 4.4917e-18)
(1.0112 0.019086 -3.2315e-18)
(1.0022 -0.00047417 1.1187e-18)
(0.99419 0.031178 4.7186e-19)
(0.99965 0.00021728 1.139e-18)
(0.99975 -0.00046315 1.2614e-18)
(0.99991 -0.00058907 -5.8745e-18)
(1.0003 -0.0011196 -3.9908e-17)
(1.0005 -0.00087868 5.6099e-18)
(1.0017 -0.001084 2.5042e-18)
(0.99887 -0.00023492 -2.0156e-17)
(1.0083 0.0023952 2.3926e-19)
(0.98984 -0.0034237 1.3235e-17)
(1.011 0.018971 -2.0775e-18)
(1.0027 -0.00025694 -5.4463e-18)
(0.99491 0.030663 2.7848e-18)
(0.99963 0.00022322 -4.8776e-18)
(0.99974 -0.00047723 5.3463e-18)
(0.9999 -0.00060216 9.6851e-19)
(1.0003 -0.0011537 2.2161e-17)
(1.0005 -0.00089729 -2.5591e-17)
(1.0017 -0.0011305 -1.106e-17)
(0.9988 -0.00026033 2.0616e-17)
(1.0085 0.002428 -1.1517e-17)
(0.99016 -0.0035326 -2.0923e-17)
(1.0109 0.018843 -1.0266e-17)
(1.0032 -5.0348e-05 6.9376e-18)
(0.9956 0.030155 9.2978e-19)
(0.99962 0.00022922 -5.1612e-19)
(0.99972 -0.00049155 -5.3799e-18)
(0.99989 -0.00061537 1.0314e-17)
(1.0003 -0.0011885 9.8258e-18)
(1.0005 -0.00091608 3.1607e-17)
(1.0018 -0.0011782 4.249e-18)
(0.99874 -0.00028877 1.8311e-17)
(1.0086 0.0024576 2.92e-17)
(0.99048 -0.0036388 -9.2411e-19)
(1.0108 0.018705 1.8058e-17)
(1.0036 0.00014588 -7.3379e-19)
(0.99626 0.029656 -2.7109e-18)
(0.9996 0.00023525 5.0026e-18)
(0.99971 -0.00050614 -7.8325e-18)
(0.99988 -0.00062871 -1.5654e-17)
(1.0003 -0.001224 -2.6116e-18)
(1.0004 -0.00093511 -3.4304e-17)
(1.0019 -0.001227 -1.2642e-17)
(0.99867 -0.00032056 -6.3559e-18)
(1.0088 0.0024841 2.1843e-19)
(0.99081 -0.0037426 2.7228e-17)
(1.0107 0.018557 4.1614e-18)
(1.0041 0.00033204 -9.5259e-18)
(0.99691 0.029165 1.6274e-18)
(0.99958 0.00024133 -5.6084e-18)
(0.99969 -0.00052098 9.7842e-18)
(0.99987 -0.00064218 8.1943e-18)
(1.0003 -0.0012603 -5.2041e-18)
(1.0004 -0.00095445 2.7587e-17)
(1.002 -0.0012769 1.5125e-17)
(0.99862 -0.00035603 -5.0242e-18)
(1.009 0.0025074 -2.9426e-17)
(0.99114 -0.0038442 -9.2582e-19)
(1.0106 0.018402 -1.1891e-17)
(1.0045 0.00050847 1.1279e-17)
(0.99754 0.028681 -2.1313e-18)
(0.99957 0.00024744 3.37e-18)
(0.99968 -0.00053608 -1.8722e-18)
(0.99985 -0.00065579 1.085e-17)
(1.0003 -0.0012973 -2.1895e-17)
(1.0004 -0.00097417 9.0075e-18)
(1.0021 -0.0013277 -5.4334e-18)
(0.99856 -0.00039549 -1.0825e-17)
(1.0091 0.0025274 -2.362e-18)
(0.99148 -0.0039437 -3.2857e-17)
(1.0105 0.018239 7.8456e-18)
(1.005 0.0006755 -1.033e-17)
(0.99814 0.028205 7.115e-19)
(0.99955 0.00025358 2.6644e-19)
(0.99967 -0.00055145 -5.8897e-18)
(0.99984 -0.00066957 6.1611e-18)
(1.0003 -0.0013352 2.8817e-17)
(1.0004 -0.00099436 -2.1455e-17)
(1.0022 -0.0013796 1.7478e-17)
(0.99851 -0.00043922 -6.2595e-18)
(1.0093 0.002544 5.4699e-18)
(0.99182 -0.004041 3.9035e-17)
(1.0105 0.01807 -1.4565e-17)
(1.0054 0.00083347 1.5793e-17)
(0.99873 0.027736 2.0136e-18)
(0.99953 0.00025974 4.7821e-19)
(0.99965 -0.00056709 -1.2189e-18)
(0.99983 -0.00068352 -8.8638e-18)
(1.0004 -0.0013738 -4.3382e-18)
(1.0004 -0.0010151 1.8698e-17)
(1.0023 -0.0014323 1.3912e-19)
(0.99846 -0.00048751 -1.2303e-17)
(1.0094 0.0025573 -1.3058e-17)
(0.99216 -0.0041364 -1.634e-17)
(1.0105 0.017895 -1.3754e-18)
(1.0058 0.00098273 2.8947e-18)
(0.9993 0.027274 2.1185e-19)
(0.99951 0.00026593 -7.6956e-19)
(0.99963 -0.00058299 1.4505e-17)
(0.99981 -0.00069767 -5.9118e-18)
(1.0004 -0.0014133 -2.4516e-17)
(1.0004 -0.0010365 8.6196e-18)
(1.0024 -0.0014859 -4.4531e-17)
(0.99842 -0.0005406 6.1375e-18)
(1.0096 0.0025672 8.2222e-18)
(0.9925 -0.0042298 7.5905e-19)
(1.0104 0.017716 1.4793e-17)
(1.0062 0.0011236 -9.6375e-19)
(0.99986 0.02682 -5.6287e-18)
(0.99949 0.00027213 -2.0318e-19)
(0.99962 -0.00059917 -2.8467e-19)
(0.9998 -0.00071204 7.9582e-18)
(1.0004 -0.0014535 1.5136e-17)
(1.0004 -0.0010588 -3.425e-17)
(1.0025 -0.0015402 1.9236e-18)
(0.99838 -0.00059868 1.0993e-17)
(1.0097 0.0025736 1.2877e-17)
(0.99284 -0.0043212 -1.0333e-17)
(1.0104 0.017533 -1.4404e-17)
(1.0066 0.0012563 -1.5675e-17)
(1.0004 0.026372 5.9458e-18)
(0.99947 0.00027833 -1.3294e-18)
(0.9996 -0.00061562 4.0535e-19)
(0.99978 -0.00072665 -3.8371e-18)
(1.0004 -0.0014946 -1.0106e-17)
(1.0004 -0.0010819 1.8986e-17)
(1.0026 -0.0015953 2.3903e-17)
(0.99835 -0.00066195 3.2059e-18)
(1.0098 0.0025766 6.5252e-18)
(0.99318 -0.0044105 1.648e-17)
(1.0104 0.017346 2.4241e-18)
(1.007 0.0013813 1.1593e-17)
(1.0009 0.02593 -3.6094e-18)
(0.99945 0.00028454 2.4469e-18)
(0.99958 -0.00063235 7.4735e-19)
(0.99976 -0.00074152 -5.4835e-18)
(1.0004 -0.0015365 1.4929e-18)
(1.0003 -0.0011061 -1.0293e-17)
(1.0027 -0.0016511 -5.7336e-18)
(0.99833 -0.00073053 -1.185e-18)
(1.01 0.0025762 -2.9465e-17)
(0.99352 -0.0044978 3.2345e-18)
(1.0104 0.017156 -4.9161e-18)
(1.0074 0.0014986 -4.7148e-18)
(1.0014 0.025496 -4.3527e-18)
(0.99942 0.00029074 -4.9936e-18)
(0.99957 -0.00064936 9.7639e-19)
(0.99975 -0.00075669 2.9086e-18)
(1.0004 -0.0015793 -1.8759e-17)
(1.0003 -0.0011315 -1.1734e-17)
(1.0028 -0.0017076 -2.6618e-17)
(0.99831 -0.0008045 5.7183e-18)
(1.0101 0.0025724 1.2032e-17)
(0.99386 -0.0045831 -3.4688e-17)
(1.0104 0.016963 2.2668e-17)
(1.0077 0.0016086 -5.101e-18)
(1.0019 0.025067 2.8066e-18)
(0.9994 0.00029693 4.5838e-18)
(0.99955 -0.00066665 2.185e-18)
(0.99973 -0.00077218 1.1185e-18)
(1.0004 -0.0016228 5.9497e-18)
(1.0003 -0.0011582 -2.5917e-18)
(1.0029 -0.0017647 5.1591e-17)
(0.99829 -0.0008839 2.0531e-17)
(1.0102 0.0025653 -1.8713e-17)
(0.99419 -0.0046662 3.3385e-17)
(1.0104 0.016767 -8.4573e-18)
(1.0081 0.0017116 -3.3656e-18)
(1.0024 0.024645 -1.4012e-18)
(0.99938 0.00030309 1.1243e-18)
(0.99953 -0.00068423 -1.3837e-17)
(0.99971 -0.00078803 2.2386e-18)
(1.0004 -0.0016673 2.6719e-17)
(1.0003 -0.0011864 2.0058e-17)
(1.003 -0.0018226 -8.3288e-19)
(0.99828 -0.00096872 -2.8443e-17)
(1.0103 0.0025548 5.6665e-18)
(0.99453 -0.0047472 -7.5287e-18)
(1.0104 0.016569 -1.1707e-17)
(1.0085 0.0018076 8.5612e-18)
(1.0029 0.024229 1.3056e-18)
(0.99935 0.00030922 -4.447e-18)
(0.99951 -0.0007021 -4.6127e-18)
(0.99969 -0.00080428 -1.2126e-17)
(1.0004 -0.0017126 -2.2408e-17)
(1.0003 -0.0012163 -2.0182e-17)
(1.0031 -0.0018812 -2.3445e-17)
(0.99828 -0.0010589 5.2522e-18)
(1.0104 0.0025411 4.4049e-17)
(0.99487 -0.004826 3.2811e-18)
(1.0104 0.016369 -1.0231e-18)
(1.0088 0.0018969 -3.0232e-18)
(1.0034 0.023819 -3.5111e-18)
(0.99933 0.0003153 3.2999e-18)
(0.99949 -0.00072026 4.285e-18)
(0.99967 -0.00082097 1.8687e-17)
(1.0004 -0.0017587 1.5519e-17)
(1.0003 -0.001248 1.9635e-17)
(1.0032 -0.0019404 -8.7142e-19)
(0.99828 -0.0011543 -2.9264e-17)
(1.0105 0.0025243 -2.3809e-17)
(0.9952 -0.0049026 8.1423e-18)
(1.0104 0.016166 4.0521e-18)
(1.0092 0.0019796 6.8192e-18)
(1.0038 0.023415 2.7127e-18)
(0.99931 0.00032134 -2.3304e-18)
(0.99947 -0.00073872 6.7218e-18)
(0.99965 -0.00083813 -1.2364e-17)
(1.0004 -0.0018057 2.2462e-18)
(1.0002 -0.0012817 9.1287e-18)
(1.0033 -0.0020005 -2.2919e-18)
(0.99829 -0.0012549 6.5705e-18)
(1.0106 0.0025044 6.6112e-18)
(0.99553 -0.0049771 2.6796e-18)
(1.0104 0.015962 1.0019e-17)
(1.0095 0.0020559 -8.2019e-18)
(1.0043 0.023017 5.4774e-19)
(0.99928 0.00032731 3.5184e-18)
(0.99945 -0.00075749 4.1658e-19)
(0.99963 -0.00085582 -5.7873e-18)
(1.0004 -0.0018537 8.9399e-19)
(1.0002 -0.0013175 -1.5002e-18)
(1.0033 -0.0020613 -2.264e-17)
(0.99831 -0.0013603 1.8345e-17)
(1.0107 0.0024816 2.3463e-17)
(0.99586 -0.0050494 -1.3341e-17)
(1.0105 0.015756 -1.3942e-17)
(1.0098 0.0021259 -2.3989e-18)
(1.0047 0.022624 4.6686e-18)
(0.99925 0.00033321 -2.5559e-18)
(0.99943 -0.00077656 -3.2084e-19)
(0.99961 -0.0008741 7.1955e-18)
(1.0005 -0.0019025 -1.7173e-17)
(1.0002 -0.0013556 -1.3561e-17)
(1.0034 -0.0021229 2.8583e-17)
(0.99833 -0.0014705 -2.8055e-18)
(1.0108 0.0024559 -2.4843e-17)
(0.99618 -0.0051196 3.3987e-18)
(1.0105 0.015549 1.3128e-17)
(1.0102 0.0021898 8.1308e-18)
(1.0051 0.022237 -1.6835e-18)
(0.99923 0.00033903 2.5397e-19)
(0.99941 -0.00079596 2.35e-18)
(0.99959 -0.000893 3.9315e-18)
(1.0005 -0.0019522 8.8777e-18)
(1.0002 -0.0013962 2.6579e-17)
(1.0035 -0.0021854 6.6642e-18)
(0.99835 -0.001585 -2.4428e-17)
(1.0109 0.0024276 2.3279e-18)
(0.99651 -0.0051877 8.7549e-18)
(1.0105 0.015339 -1.1829e-17)
(1.0105 0.0022477 -5.4986e-18)
(1.0056 0.021855 -1.9481e-18)
(0.9992 0.00034475 7.2111e-19)
(0.99939 -0.00081568 -4.0879e-19)
(0.99956 -0.00091258 -1.0374e-17)
(1.0005 -0.0020029 -1.9091e-19)
(1.0002 -0.0014393 -5.2549e-17)
(1.0036 -0.0022488 8.2168e-18)
(0.99838 -0.0017036 2.3996e-17)
(1.011 0.0023966 -6.6884e-18)
(0.99683 -0.0052538 -9.1681e-18)
(1.0105 0.015128 1.9645e-17)
(1.0108 0.0022996 6.5816e-18)
(1.006 0.021478 5.0501e-18)
(0.99917 0.00035036 7.746e-19)
(0.99937 -0.00083574 -8.4826e-19)
(0.99954 -0.00093291 1.876e-17)
(1.0005 -0.0020545 4.0946e-18)
(1.0001 -0.0014851 4.6566e-17)
(1.0037 -0.0023131 -2.8959e-17)
(0.99842 -0.0018261 -8.0355e-18)
(1.0111 0.0023632 6.295e-18)
(0.99714 -0.0053179 3.1589e-18)
(1.0105 0.014916 -1.1053e-17)
(1.0111 0.0023458 -1.0647e-18)
(1.0064 0.021106 -3.7241e-18)
(0.99914 0.00035585 -3.0272e-18)
(0.99934 -0.00085615 1.4241e-18)
(0.99951 -0.00095405 -1.1027e-17)
(1.0005 -0.0021071 5.3841e-18)
(1.0001 -0.0015338 -1.7694e-17)
(1.0038 -0.0023784 3.9272e-18)
(0.99846 -0.001952 3.2174e-17)
(1.0111 0.0023275 -2.356e-17)
(0.99746 -0.0053802 -1.1611e-17)
(1.0106 0.014702 -1.0936e-17)
(1.0114 0.0023862 -5.2354e-18)
(1.0068 0.02074 -1.0228e-18)
(0.99911 0.0003612 3.7708e-18)
(0.99932 -0.00087692 -3.3823e-18)
(0.99949 -0.00097604 -1.07e-17)
(1.0005 -0.0021607 -8.5855e-18)
(1.0001 -0.0015853 -2.8928e-17)
(1.0039 -0.0024447 -1.8215e-17)
(0.9985 -0.002081 -1.9728e-17)
(1.0112 0.0022895 2.1906e-17)
(0.99777 -0.0054407 1.1256e-17)
(1.0106 0.014486 1.6562e-17)
(1.0117 0.0024211 -2.0508e-18)
(1.0072 0.020378 4.938e-18)
(0.99908 0.0003664 -6.0603e-18)
(0.99929 -0.00089806 5.4802e-18)
(0.99946 -0.00099897 2.62e-17)
(1.0005 -0.0022153 -2.025e-18)
(1.0001 -0.0016399 3.2005e-17)
(1.004 -0.002512 1.3734e-18)
(0.99855 -0.0022127 -1.8894e-17)
(1.0113 0.0022493 8.5731e-18)
(0.99808 -0.0054995 -4.0592e-18)
(1.0106 0.014269 -3.4679e-18)
(1.0119 0.0024504 6.6528e-18)
(1.0076 0.02002 -3.3393e-18)
(0.99905 0.00037145 4.9663e-18)
(0.99927 -0.00091958 -7.4478e-18)
(0.99943 -0.0010229 -3.0546e-17)
(1.0005 -0.002271 1.3247e-17)
(1 -0.0016976 -2.2801e-17)
(1.0041 -0.0025802 2.5179e-17)
(0.9986 -0.0023469 6.1586e-18)
(1.0113 0.002207 -8.1614e-18)
(0.99839 -0.0055568 -1.9482e-18)
(1.0106 0.01405 -8.6873e-18)
(1.0122 0.0024743 -1.0849e-17)
(1.0079 0.019667 4.6171e-18)
(0.99902 0.00037631 -3.6581e-18)
(0.99924 -0.00094151 2.4765e-18)
(0.99941 -0.0010479 1.8561e-17)
(1.0005 -0.0023277 -1.7463e-17)
(1 -0.0017584 3.6687e-17)
(1.0042 -0.0026495 -1.9543e-17)
(0.99865 -0.0024831 3.5901e-18)
(1.0114 0.0021627 -1.2898e-17)
(0.99869 -0.0056127 6.3591e-18)
(1.0107 0.013829 -1.216e-18)
(1.0125 0.0024928 4.6432e-18)
(1.0083 0.019318 -2.0528e-18)
(0.99898 0.00038099 4.4865e-18)
(0.99922 -0.00096386 1.928e-18)
(0.99938 -0.0010739 -1.2374e-17)
(1.0005 -0.0023855 -3.5503e-19)
(1 -0.0018223 -1.6201e-18)
(1.0043 -0.0027197 4.7263e-18)
(0.99871 -0.002621 3.4089e-17)
(1.0114 0.0021165 8.8228e-18)
(0.99899 -0.0056673 -1.8848e-17)
(1.0107 0.013607 -6.3022e-18)
(1.0128 0.0025061 -4.371e-18)
(1.0087 0.018974 2.1581e-18)
(0.99895 0.00038546 -5.1424e-18)
(0.99919 -0.00098664 -7.1447e-18)
(0.99935 -0.0011012 5.1914e-18)
(1.0006 -0.0024444 1.5109e-17)
(0.99999 -0.0018893 -3.3278e-17)