/*--------------------------------*- C++ -*----------------------------------*\
  =========                 |
  \\      /  F ield         | OpenFOAM: The Open Source CFD Toolbox
   \\    /   O peration     | Website:  https://openfoam.org
    \\  /    A nd           | Version:  6.0
     \\/     M anipulation  |
\*---------------------------------------------------------------------------*/
FoamFile
{
    version     2.0;
    format      ascii;
    class       volScalarField;
    location    "1.56";
    object      p;
}
// * * * * * * * * * * * * * * * * * * * * * * * * * * * * * * * * * * * * * //

dimensions      [0 2 -2 0 0 0 0];

internalField   nonuniform List<scalar> 
13500
(
0.099698
0.099724
0.099208
0.098827
0.097917
0.097483
0.096939
0.097351
0.099172
0.10313
0.12459
0.16919
0.099698
0.099724
0.099208
0.098827
0.097917
0.097483
0.096939
0.097351
0.099168
0.10319
0.1239
0.16414
0.099698
0.099725
0.099208
0.098828
0.097917
0.097483
0.096938
0.097349
0.09916
0.10324
0.12302
0.15967
0.099699
0.099726
0.099208
0.098829
0.097916
0.097483
0.096935
0.097345
0.099147
0.10326
0.12204
0.15619
0.0997
0.099728
0.099209
0.098831
0.097916
0.097483
0.096932
0.09734
0.099128
0.10326
0.12099
0.15326
0.099701
0.09973
0.09921
0.098832
0.097916
0.097482
0.096929
0.097333
0.099104
0.10326
0.11991
0.15066
0.099703
0.099732
0.099211
0.098834
0.097915
0.097482
0.096925
0.097325
0.099076
0.10324
0.11882
0.1483
0.099705
0.099734
0.099212
0.098836
0.097915
0.097481
0.09692
0.097316
0.099043
0.10321
0.11774
0.14613
0.099708
0.099737
0.099214
0.098838
0.097915
0.09748
0.096914
0.097305
0.099005
0.10316
0.11668
0.14413
0.09971
0.09974
0.099216
0.09884
0.097915
0.097478
0.096908
0.097293
0.098962
0.1031
0.11565
0.14226
0.099713
0.099744
0.099218
0.098842
0.097915
0.097477
0.096902
0.09728
0.098915
0.10303
0.11465
0.14051
0.099717
0.099747
0.099221
0.098845
0.097915
0.097475
0.096894
0.097265
0.098863
0.10295
0.1137
0.13885
0.099721
0.099751
0.099223
0.098848
0.097914
0.097473
0.096887
0.097249
0.098807
0.10286
0.11278
0.13728
0.099725
0.099756
0.099226
0.098851
0.097914
0.097471
0.096878
0.097231
0.098745
0.10276
0.1119
0.13579
0.099729
0.09976
0.09923
0.098854
0.097914
0.097469
0.096869
0.097213
0.09868
0.10265
0.11106
0.13437
0.099734
0.099765
0.099233
0.098857
0.097914
0.097466
0.096859
0.097192
0.098609
0.10254
0.11026
0.13301
0.099739
0.099771
0.099237
0.098861
0.097914
0.097463
0.096849
0.09717
0.098535
0.10242
0.10948
0.1317
0.099745
0.099776
0.099242
0.098865
0.097915
0.09746
0.096838
0.097147
0.098456
0.1023
0.10874
0.13045
0.099751
0.099783
0.099246
0.098869
0.097915
0.097457
0.096826
0.097123
0.098373
0.10218
0.10802
0.12925
0.099757
0.099789
0.099251
0.098873
0.097915
0.097454
0.096814
0.097097
0.098287
0.10206
0.10732
0.12809
0.099764
0.099796
0.099256
0.098877
0.097915
0.09745
0.096801
0.097069
0.098197
0.10194
0.10665
0.12697
0.099771
0.099803
0.099261
0.098882
0.097915
0.097447
0.096787
0.097041
0.098104
0.10182
0.10599
0.12589
0.099779
0.099811
0.099267
0.098886
0.097916
0.097443
0.096773
0.097011
0.098008
0.10169
0.10535
0.12484
0.099787
0.099818
0.099273
0.098891
0.097916
0.097439
0.096758
0.09698
0.097909
0.10157
0.10472
0.12383
0.099795
0.099827
0.099279
0.098897
0.097917
0.097434
0.096743
0.096947
0.097807
0.10145
0.1041
0.12284
0.099804
0.099835
0.099286
0.098902
0.097917
0.09743
0.096727
0.096914
0.097703
0.10133
0.1035
0.12188
0.099813
0.099844
0.099293
0.098908
0.097918
0.097425
0.096711
0.096879
0.097597
0.10121
0.10291
0.12094
0.099822
0.099854
0.0993
0.098914
0.097918
0.09742
0.096693
0.096844
0.097489
0.10109
0.10232
0.12003
0.099832
0.099864
0.099308
0.09892
0.097919
0.097415
0.096676
0.096807
0.097379
0.10097
0.10175
0.11914
0.099843
0.099874
0.099316
0.098926
0.09792
0.09741
0.096657
0.096769
0.097267
0.10085
0.10118
0.11827
0.099854
0.099885
0.099324
0.098933
0.097921
0.097404
0.096638
0.09673
0.097154
0.10073
0.10062
0.11742
0.099865
0.099896
0.099333
0.09894
0.097921
0.097399
0.096619
0.096691
0.097039
0.10061
0.10007
0.11659
0.099877
0.099907
0.099342
0.098947
0.097922
0.097393
0.096598
0.09665
0.096922
0.10049
0.099528
0.11577
0.099889
0.099919
0.099352
0.098954
0.097923
0.097387
0.096578
0.096609
0.096804
0.10037
0.098993
0.11498
0.099901
0.099931
0.099361
0.098962
0.097925
0.097381
0.096556
0.096567
0.096684
0.10024
0.098465
0.1142
0.099914
0.099944
0.099371
0.09897
0.097926
0.097375
0.096534
0.096524
0.096564
0.10012
0.097945
0.11343
0.099928
0.099957
0.099382
0.098978
0.097927
0.097368
0.096512
0.09648
0.096441
0.099991
0.097432
0.11268
0.099942
0.099971
0.099393
0.098987
0.097928
0.097362
0.096488
0.096436
0.096318
0.099863
0.096927
0.11195
0.099956
0.099985
0.099404
0.098995
0.09793
0.097355
0.096465
0.096391
0.096193
0.099734
0.096429
0.11123
0.099971
0.099999
0.099416
0.099004
0.097931
0.097348
0.09644
0.096346
0.096067
0.099603
0.095939
0.11052
0.099987
0.10001
0.099428
0.099014
0.097933
0.097341
0.096415
0.0963
0.09594
0.09947
0.095456
0.10983
0.1
0.10003
0.09944
0.099023
0.097935
0.097334
0.09639
0.096253
0.095811
0.099336
0.094981
0.10914
0.10002
0.10005
0.099453
0.099033
0.097937
0.097327
0.096364
0.096206
0.095681
0.0992
0.094514
0.10848
0.10004
0.10006
0.099466
0.099043
0.097939
0.097319
0.096337
0.096158
0.09555
0.099063
0.094054
0.10782
0.10005
0.10008
0.09948
0.099054
0.097941
0.097312
0.09631
0.09611
0.095418
0.098923
0.093602
0.10717
0.10007
0.1001
0.099494
0.099064
0.097943
0.097304
0.096282
0.096062
0.095285
0.098782
0.093157
0.10654
0.10009
0.10011
0.099508
0.099076
0.097946
0.097297
0.096253
0.096013
0.095151
0.09864
0.09272
0.10591
0.10011
0.10013
0.099523
0.099087
0.097948
0.097289
0.096224
0.095963
0.095015
0.098496
0.09229
0.1053
0.10013
0.10015
0.099538
0.099099
0.097951
0.097281
0.096195
0.095913
0.094879
0.09835
0.091867
0.1047
0.10015
0.10017
0.099554
0.099111
0.097954
0.097273
0.096165
0.095863
0.094741
0.098202
0.091452
0.1041
0.10017
0.10019
0.09957
0.099123
0.097957
0.097265
0.096134
0.095812
0.094603
0.098054
0.091044
0.10352
0.10019
0.10021
0.099587
0.099136
0.09796
0.097256
0.096103
0.095761
0.094464
0.097903
0.090643
0.10294
0.10021
0.10023
0.099604
0.099148
0.097963
0.097248
0.096071
0.09571
0.094324
0.097751
0.090249
0.10237
0.10023
0.10025
0.099621
0.099162
0.097967
0.09724
0.096039
0.095658
0.094183
0.097598
0.089861
0.10182
0.10026
0.10027
0.099639
0.099175
0.09797
0.097231
0.096006
0.095606
0.094041
0.097443
0.089481
0.10127
0.10028
0.1003
0.099658
0.099189
0.097974
0.097223
0.095973
0.095554
0.093899
0.097287
0.089107
0.10072
0.1003
0.10032
0.099677
0.099204
0.097978
0.097214
0.095939
0.095502
0.093756
0.097129
0.08874
0.10019
0.10033
0.10034
0.099696
0.099218
0.097982
0.097205
0.095905
0.095449
0.093612
0.096971
0.088379
0.099662
0.10035
0.10037
0.099716
0.099233
0.097987
0.097197
0.095871
0.095395
0.093468
0.09681
0.088025
0.099143
0.10038
0.10039
0.099736
0.099249
0.097992
0.097188
0.095835
0.095342
0.093323
0.096649
0.087677
0.09863
0.1004
0.10042
0.099757
0.099264
0.097996
0.097179
0.0958
0.095288
0.093178
0.096487
0.087335
0.098125
0.10043
0.10044
0.099779
0.099281
0.098002
0.09717
0.095764
0.095234
0.093033
0.096323
0.086999
0.097626
0.10046
0.10047
0.099801
0.099297
0.098007
0.097161
0.095727
0.09518
0.092887
0.096158
0.086669
0.097134
0.10049
0.1005
0.099823
0.099314
0.098012
0.097152
0.09569
0.095125
0.092741
0.095992
0.086345
0.096649
0.10051
0.10052
0.099846
0.099331
0.098018
0.097144
0.095653
0.095071
0.092594
0.095825
0.086026
0.096169
0.10054
0.10055
0.09987
0.099349
0.098024
0.097135
0.095615
0.095016
0.092448
0.095657
0.085714
0.095696
0.10057
0.10058
0.099894
0.099367
0.098031
0.097126
0.095577
0.09496
0.092301
0.095488
0.085406
0.095229
0.1006
0.10061
0.099919
0.099385
0.098037
0.097117
0.095539
0.094905
0.092154
0.095318
0.085104
0.094767
0.10063
0.10064
0.099944
0.099404
0.098044
0.097108
0.0955
0.094849
0.092007
0.095147
0.084807
0.094311
0.10067
0.10067
0.09997
0.099423
0.098051
0.097099
0.09546
0.094793
0.091859
0.094975
0.084515
0.093861
0.1007
0.1007
0.099996
0.099443
0.098059
0.097091
0.095421
0.094737
0.091712
0.094802
0.084229
0.093416
0.10073
0.10073
0.10002
0.099463
0.098067
0.097082
0.09538
0.094681
0.091565
0.094628
0.083947
0.092977
0.10077
0.10077
0.10005
0.099483
0.098075
0.097074
0.09534
0.094624
0.091418
0.094453
0.08367
0.092542
0.1008
0.1008
0.10008
0.099504
0.098083
0.097065
0.095299
0.094567
0.091271
0.094278
0.083398
0.092113
0.10084
0.10083
0.10011
0.099525
0.098091
0.097057
0.095258
0.09451
0.091124
0.094102
0.08313
0.091689
0.10087
0.10087
0.10014
0.099547
0.0981
0.097049
0.095217
0.094453
0.090978
0.093925
0.082867
0.091269
0.10091
0.1009
0.10017
0.099569
0.09811
0.097041
0.095175
0.094395
0.090831
0.093747
0.082608
0.090854
0.10095
0.10094
0.1002
0.099592
0.098119
0.097033
0.095133
0.094337
0.090685
0.093568
0.082353
0.090444
0.10098
0.10098
0.10023
0.099615
0.098129
0.097025
0.095091
0.094279
0.090539
0.093389
0.082103
0.090038
0.10102
0.10101
0.10026
0.099639
0.098139
0.097018
0.095049
0.094221
0.090393
0.093209
0.081856
0.089637
0.10106
0.10105
0.1003
0.099663
0.09815
0.09701
0.095006
0.094162
0.090248
0.093029
0.081614
0.089239
0.1011
0.10109
0.10033
0.099688
0.098161
0.097003
0.094963
0.094103
0.090103
0.092848
0.081375
0.088847
0.10115
0.10113
0.10036
0.099713
0.098172
0.096996
0.09492
0.094044
0.089958
0.092666
0.081141
0.088458
0.10119
0.10117
0.1004
0.099739
0.098184
0.096989
0.094877
0.093985
0.089814
0.092484
0.08091
0.088073
0.10123
0.10121
0.10043
0.099765
0.098196
0.096983
0.094833
0.093925
0.08967
0.092301
0.080682
0.087692
0.10127
0.10125
0.10047
0.099792
0.098208
0.096976
0.09479
0.093865
0.089526
0.092118
0.080458
0.087315
0.10132
0.1013
0.10051
0.09982
0.098221
0.09697
0.094746
0.093805
0.089383
0.091934
0.080237
0.086942
0.10136
0.10134
0.10055
0.099848
0.098235
0.096965
0.094702
0.093745
0.089241
0.091749
0.08002
0.086572
0.10141
0.10138
0.10058
0.099877
0.098248
0.096959
0.094658
0.093684
0.089098
0.091564
0.079806
0.086206
0.10146
0.10143
0.10062
0.099906
0.098262
0.096954
0.094614
0.093624
0.088957
0.091379
0.079595
0.085843
0.10151
0.10147
0.10066
0.099936
0.098277
0.096949
0.09457
0.093562
0.088816
0.091193
0.079387
0.085484
0.10156
0.10152
0.10071
0.099966
0.098292
0.096944
0.094526
0.093501
0.088675
0.091006
0.079181
0.085128
0.10161
0.10157
0.10075
0.099998
0.098307
0.09694
0.094481
0.09344
0.088535
0.09082
0.078979
0.084775
0.10166
0.10162
0.10079
0.10003
0.098323
0.096936
0.094437
0.093378
0.088396
0.090632
0.078779
0.084426
0.10171
0.10167
0.10084
0.10006
0.09834
0.096933
0.094392
0.093316
0.088257
0.090445
0.078582
0.084079
0.10176
0.10172
0.10088
0.1001
0.098356
0.096929
0.094348
0.093253
0.088119
0.090257
0.078388
0.083736
0.10182
0.10177
0.10093
0.10013
0.098374
0.096927
0.094304
0.093191
0.087981
0.090068
0.078196
0.083395
0.10187
0.10182
0.10097
0.10016
0.098392
0.096924
0.094259
0.093128
0.087845
0.089879
0.078006
0.083057
0.10193
0.10188
0.10102
0.1002
0.09841
0.096922
0.094215
0.093065
0.087708
0.08969
0.077819
0.082722
0.10198
0.10193
0.10107
0.10024
0.098429
0.09692
0.094171
0.093002
0.087573
0.0895
0.077633
0.08239
0.10204
0.10199
0.10112
0.10027
0.098449
0.096919
0.094127
0.092938
0.087438
0.089311
0.07745
0.08206
0.1021
0.10204
0.10117
0.10031
0.098469
0.096919
0.094083
0.092874
0.087303
0.08912
0.077269
0.081733
0.10216
0.1021
0.10122
0.10035
0.09849
0.096918
0.094039
0.09281
0.087169
0.08893
0.07709
0.081408
0.10222
0.10216
0.10127
0.10039
0.098512
0.096918
0.093995
0.092746
0.087036
0.088738
0.076912
0.081085
0.10229
0.10222
0.10133
0.10043
0.098534
0.096919
0.093952
0.092682
0.086904
0.088547
0.076737
0.080765
0.10235
0.10228
0.10138
0.10047
0.098557
0.09692
0.093908
0.092617
0.086772
0.088355
0.076563
0.080447
0.10242
0.10235
0.10144
0.10052
0.09858
0.096922
0.093865
0.092552
0.086641
0.088163
0.076391
0.080131
0.10248
0.10241
0.10149
0.10056
0.098604
0.096925
0.093822
0.092487
0.086511
0.087971
0.07622
0.079817
0.10255
0.10247
0.10155
0.1006
0.098629
0.096927
0.09378
0.092421
0.086382
0.087778
0.07605
0.079504
0.10262
0.10254
0.10161
0.10065
0.098655
0.096931
0.093738
0.092356
0.086253
0.087585
0.075882
0.079194
0.10269
0.10261
0.10167
0.1007
0.098682
0.096935
0.093696
0.09229
0.086124
0.087392
0.075715
0.078886
0.10276
0.10268
0.10174
0.10075
0.098709
0.09694
0.093654
0.092224
0.085997
0.087198
0.07555
0.078579
0.10284
0.10275
0.1018
0.10079
0.098738
0.096945
0.093613
0.092158
0.08587
0.087004
0.075385
0.078274
0.10291
0.10282
0.10186
0.10084
0.098767
0.096951
0.093572
0.092092
0.085744
0.08681
0.075221
0.07797
0.10299
0.10289
0.10193
0.1009
0.098797
0.096958
0.093531
0.092025
0.085619
0.086615
0.075059
0.077668
0.10307
0.10297
0.102
0.10095
0.098828
0.096966
0.093491
0.091958
0.085494
0.08642
0.074897
0.077367
0.10315
0.10305
0.10207
0.101
0.09886
0.096974
0.093452
0.091891
0.08537
0.086225
0.074736
0.077068
0.10323
0.10312
0.10214
0.10106
0.098894
0.096983
0.093413
0.091824
0.085247
0.086029
0.074575
0.076769
0.10331
0.1032
0.10221
0.10112
0.098928
0.096993
0.093374
0.091757
0.085124
0.085833
0.074416
0.076472
0.10339
0.10329
0.10229
0.10117
0.098963
0.097004
0.093336
0.09169
0.085002
0.085637
0.074256
0.076176
0.10348
0.10337
0.10236
0.10124
0.099
0.097016
0.093299
0.091622
0.084881
0.08544
0.074097
0.07588
0.10357
0.10346
0.10244
0.1013
0.099038
0.097029
0.093262
0.091555
0.08476
0.085243
0.073939
0.075586
0.10366
0.10354
0.10252
0.10136
0.099077
0.097042
0.093226
0.091487
0.084641
0.085046
0.073781
0.075292
0.10375
0.10363
0.1026
0.10143
0.099117
0.097057
0.093191
0.09142
0.084521
0.084848
0.073623
0.074999
0.10385
0.10372
0.10268
0.10149
0.099159
0.097073
0.093157
0.091352
0.084403
0.08465
0.073465
0.074706
0.10394
0.10382
0.10277
0.10156
0.099202
0.09709
0.093123
0.091284
0.084285
0.084451
0.073307
0.074414
0.10404
0.10391
0.10286
0.10163
0.099247
0.097108
0.093091
0.091216
0.084168
0.084252
0.073149
0.074123
0.10414
0.10401
0.10294
0.1017
0.099294
0.097127
0.093059
0.091148
0.084052
0.084053
0.072991
0.073831
0.10425
0.10411
0.10304
0.10178
0.099342
0.097148
0.093028
0.091081
0.083936
0.083853
0.072833
0.07354
0.10435
0.10421
0.10313
0.10185
0.099391
0.09717
0.092998
0.091013
0.083821
0.083653
0.072674
0.073249
0.10446
0.10432
0.10323
0.10193
0.099443
0.097193
0.092969
0.090945
0.083706
0.083452
0.072515
0.072957
0.10457
0.10443
0.10333
0.10201
0.099496
0.097218
0.092942
0.090878
0.083593
0.083251
0.072356
0.072666
0.10468
0.10454
0.10343
0.1021
0.099552
0.097244
0.092915
0.090811
0.08348
0.08305
0.072196
0.072374
0.1048
0.10465
0.10353
0.10218
0.099609
0.097272
0.09289
0.090743
0.083367
0.082848
0.072035
0.072082
0.10492
0.10477
0.10364
0.10227
0.099669
0.097301
0.092866
0.090677
0.083256
0.082645
0.071874
0.07179
0.10504
0.10489
0.10375
0.10236
0.09973
0.097333
0.092844
0.09061
0.083145
0.082442
0.071712
0.071497
0.10517
0.10501
0.10386
0.10246
0.099794
0.097366
0.092823
0.090543
0.083034
0.082239
0.071549
0.071203
0.1053
0.10514
0.10398
0.10255
0.099861
0.097401
0.092803
0.090477
0.082925
0.082035
0.071385
0.070909
0.10543
0.10526
0.10409
0.10265
0.09993
0.097438
0.092785
0.090412
0.082816
0.08183
0.07122
0.070614
0.10556
0.1054
0.10422
0.10276
0.1
0.097477
0.092769
0.090347
0.082708
0.081625
0.071054
0.070317
0.1057
0.10553
0.10434
0.10286
0.10008
0.097518
0.092754
0.090282
0.0826
0.08142
0.070887
0.07002
0.10584
0.10567
0.10447
0.10297
0.10015
0.097562
0.092742
0.090218
0.082493
0.081214
0.070719
0.069721
0.10599
0.10582
0.10461
0.10308
0.10023
0.097607
0.092731
0.090154
0.082387
0.081007
0.070549
0.069421
0.10614
0.10596
0.10474
0.1032
0.10032
0.097656
0.092722
0.090091
0.082282
0.0808
0.070377
0.069119
0.1063
0.10612
0.10488
0.10332
0.1004
0.097707
0.092716
0.090029
0.082178
0.080592
0.070204
0.068816
0.10645
0.10627
0.10503
0.10345
0.10049
0.097761
0.092712
0.089968
0.082074
0.080384
0.07003
0.068511
0.10662
0.10643
0.10518
0.10358
0.10059
0.097817
0.09271
0.089907
0.081971
0.080175
0.069853
0.068203
0.10678
0.1066
0.10533
0.10371
0.10068
0.097877
0.09271
0.089847
0.081869
0.079965
0.069675
0.067894
0.10696
0.10677
0.10549
0.10385
0.10079
0.09794
0.092713
0.089789
0.081767
0.079755
0.069495
0.067583
0.10713
0.10695
0.10566
0.10399
0.10089
0.098006
0.092719
0.089731
0.081667
0.079544
0.069312
0.067269
0.10732
0.10713
0.10582
0.10413
0.101
0.098075
0.092728
0.089675
0.081567
0.079333
0.069128
0.066953
0.10751
0.10731
0.106
0.10429
0.10112
0.098148
0.092739
0.08962
0.081468
0.07912
0.068941
0.066634
0.1077
0.1075
0.10618
0.10444
0.10123
0.098225
0.092754
0.089566
0.08137
0.078907
0.068752
0.066312
0.1079
0.1077
0.10636
0.10461
0.10136
0.098305
0.092772
0.089514
0.081273
0.078694
0.068561
0.065987
0.1081
0.10791
0.10656
0.10477
0.10149
0.09839
0.092793
0.089463
0.081177
0.078479
0.068367
0.065659
0.10832
0.10812
0.10675
0.10495
0.10162
0.098479
0.092818
0.089413
0.081082
0.078264
0.06817
0.065328
0.10853
0.10833
0.10696
0.10513
0.10176
0.098572
0.092846
0.089366
0.080987
0.078048
0.06797
0.064993
0.10876
0.10856
0.10717
0.10532
0.1019
0.09867
0.092878
0.08932
0.080894
0.077831
0.067768
0.064654
0.10899
0.10879
0.10739
0.10551
0.10206
0.098773
0.092914
0.089276
0.080802
0.077614
0.067562
0.064312
0.10923
0.10903
0.10761
0.10571
0.10221
0.098881
0.092955
0.089234
0.08071
0.077395
0.067353
0.063965
0.10947
0.10927
0.10784
0.10592
0.10238
0.098994
0.092999
0.089194
0.08062
0.077175
0.067141
0.063614
0.10973
0.10953
0.10808
0.10613
0.10255
0.099112
0.093048
0.089157
0.080531
0.076955
0.066926
0.063259
0.10999
0.10979
0.10833
0.10635
0.10272
0.099236
0.093101
0.089122
0.080443
0.076733
0.066707
0.062898
0.11026
0.11006
0.10859
0.10658
0.10291
0.099366
0.09316
0.089089
0.080356
0.076511
0.066484
0.062533
0.11054
0.11034
0.10885
0.10682
0.1031
0.099502
0.093223
0.089058
0.08027
0.076287
0.066257
0.062162
0.11082
0.11063
0.10913
0.10707
0.1033
0.099644
0.093291
0.089031
0.080185
0.076062
0.066026
0.061786
0.11112
0.11092
0.10941
0.10733
0.10351
0.099793
0.093365
0.089006
0.080101
0.075836
0.06579
0.061404
0.11142
0.11123
0.10971
0.10759
0.10372
0.099949
0.093444
0.088984
0.080018
0.075608
0.06555
0.061016
0.11174
0.11155
0.11001
0.10787
0.10395
0.10011
0.093529
0.088964
0.079936
0.075379
0.065306
0.060622
0.11206
0.11188
0.11032
0.10815
0.10418
0.10028
0.09362
0.088948
0.079856
0.075149
0.065056
0.060221
0.1124
0.11221
0.11065
0.10845
0.10442
0.10046
0.093716
0.088935
0.079776
0.074916
0.064802
0.059813
0.11275
0.11256
0.11098
0.10875
0.10468
0.10064
0.093819
0.088925
0.079697
0.074682
0.064542
0.059397
0.1131
0.11292
0.11133
0.10907
0.10494
0.10084
0.093928
0.088918
0.079619
0.074446
0.064276
0.058974
0.11347
0.1133
0.11168
0.1094
0.10521
0.10104
0.094044
0.088914
0.079542
0.074208
0.064005
0.058543
0.11385
0.11368
0.11206
0.10973
0.1055
0.10125
0.094166
0.088914
0.079465
0.073967
0.063727
0.058103
0.11424
0.11408
0.11244
0.11009
0.10579
0.10146
0.094295
0.088917
0.079389
0.073724
0.063442
0.057655
0.11465
0.11449
0.11283
0.11045
0.10609
0.10169
0.094431
0.088924
0.079314
0.073479
0.063151
0.057197
0.11507
0.11491
0.11324
0.11083
0.10641
0.10193
0.094574
0.088934
0.079239
0.07323
0.062852
0.056729
0.1155
0.11535
0.11367
0.11121
0.10674
0.10217
0.094725
0.088947
0.079164
0.072978
0.062546
0.056252
0.11594
0.1158
0.1141
0.11162
0.10708
0.10243
0.094883
0.088964
0.07909
0.072722
0.062232
0.055763
0.1164
0.11627
0.11455
0.11203
0.10744
0.1027
0.095048
0.088984
0.079015
0.072463
0.061909
0.055263
0.11687
0.11675
0.11502
0.11247
0.1078
0.10297
0.095222
0.089008
0.07894
0.0722
0.061577
0.054751
0.11736
0.11725
0.1155
0.11291
0.10818
0.10326
0.095403
0.089035
0.078864
0.071932
0.061236
0.054227
0.11786
0.11776
0.116
0.11337
0.10858
0.10355
0.095592
0.089065
0.078787
0.071659
0.060885
0.05369
0.11838
0.11829
0.11652
0.11385
0.10899
0.10386
0.095789
0.089098
0.07871
0.071381
0.060523
0.053138
0.11892
0.11884
0.11705
0.11434
0.10941
0.10418
0.095994
0.089135
0.078631
0.071097
0.06015
0.052573
0.11947
0.1194
0.11761
0.11486
0.10985
0.10451
0.096207
0.089175
0.07855
0.070806
0.059765
0.051992
0.12004
0.11999
0.11818
0.11538
0.11031
0.10486
0.096429
0.089217
0.078467
0.070509
0.059367
0.051395
0.12063
0.12059
0.11877
0.11593
0.11078
0.10521
0.096659
0.089262
0.078382
0.070204
0.058957
0.050781
0.12124
0.12121
0.11938
0.1165
0.11127
0.10558
0.096899
0.08931
0.078294
0.069892
0.058532
0.05015
0.12187
0.12186
0.12001
0.11709
0.11178
0.10596
0.097146
0.08936
0.078202
0.06957
0.058092
0.0495
0.12252
0.12253
0.12067
0.11769
0.1123
0.10636
0.097403
0.089412
0.078107
0.06924
0.057637
0.048831
0.1232
0.12322
0.12134
0.11832
0.11285
0.10677
0.097669
0.089467
0.078007
0.068899
0.057165
0.048141
0.12389
0.12393
0.12205
0.11897
0.11342
0.10719
0.097944
0.089524
0.077903
0.068547
0.056676
0.047429
0.12461
0.12467
0.12277
0.11965
0.114
0.10763
0.098229
0.089582
0.077793
0.068184
0.056168
0.046694
0.12536
0.12543
0.12353
0.12035
0.11461
0.10809
0.098524
0.089642
0.077678
0.067808
0.055641
0.045936
0.12613
0.12623
0.12431
0.12108
0.11524
0.10856
0.098828
0.089703
0.077556
0.067419
0.055093
0.045152
0.12693
0.12705
0.12513
0.12184
0.1159
0.10905
0.099143
0.089766
0.077427
0.067016
0.054523
0.044342
0.12776
0.12791
0.12597
0.12262
0.11659
0.10956
0.099469
0.08983
0.07729
0.066597
0.05393
0.043504
0.12862
0.1288
0.12686
0.12344
0.1173
0.11009
0.099806
0.089894
0.077145
0.066163
0.053312
0.042637
0.12952
0.12972
0.12777
0.1243
0.11804
0.11064
0.10015
0.08996
0.07699
0.06571
0.052669
0.041739
0.13045
0.13069
0.12873
0.12518
0.11881
0.11121
0.10051
0.090026
0.076826
0.065239
0.051998
0.040808
0.13142
0.13169
0.12973
0.12611
0.11962
0.11181
0.10089
0.090092
0.076651
0.064748
0.051299
0.039843
0.13244
0.13274
0.13078
0.12708
0.12046
0.11243
0.10127
0.090159
0.076464
0.064236
0.050569
0.038842
0.13349
0.13384
0.13187
0.1281
0.12134
0.11308
0.10167
0.090225
0.076264
0.063701
0.049807
0.037802
0.1346
0.13499
0.13301
0.12917
0.12226
0.11375
0.10209
0.090291
0.076051
0.063142
0.049011
0.036723
0.13576
0.13619
0.13421
0.13028
0.12322
0.11446
0.10252
0.090356
0.075822
0.062556
0.048178
0.0356
0.13697
0.13745
0.13548
0.13146
0.12423
0.1152
0.10296
0.09042
0.075576
0.061942
0.047307
0.034433
0.13824
0.13877
0.1368
0.13269
0.12529
0.11597
0.10342
0.090481
0.075311
0.061298
0.046394
0.033219
0.13957
0.14017
0.1382
0.13399
0.1264
0.11677
0.1039
0.090538
0.075026
0.06062
0.045437
0.031953
0.14097
0.14163
0.13967
0.13536
0.12757
0.11762
0.10439
0.09059
0.074716
0.059905
0.044432
0.030635
0.14244
0.14318
0.14122
0.1368
0.1288
0.1185
0.10489
0.090635
0.074381
0.05915
0.043376
0.029259
0.14399
0.1448
0.14285
0.13832
0.1301
0.11943
0.10541
0.090671
0.074015
0.058351
0.042264
0.027822
0.14562
0.14652
0.14458
0.13993
0.13146
0.1204
0.10595
0.090695
0.073614
0.057502
0.041093
0.026319
0.14733
0.14833
0.1464
0.14163
0.13289
0.12141
0.10649
0.090703
0.073174
0.056599
0.039855
0.024747
0.14913
0.15024
0.14833
0.14342
0.13439
0.12246
0.10705
0.090691
0.072688
0.055635
0.038545
0.023099
0.15103
0.15226
0.15037
0.14532
0.13597
0.12356
0.10761
0.090653
0.07215
0.054602
0.037156
0.02137
0.15302
0.15439
0.15252
0.14732
0.13763
0.1247
0.10817
0.090583
0.071551
0.053493
0.03568
0.019552
0.15512
0.15665
0.1548
0.14943
0.13938
0.12588
0.10873
0.090473
0.070883
0.052297
0.034108
0.017637
0.15733
0.15903
0.15721
0.15167
0.14121
0.1271
0.10928
0.090313
0.070134
0.051005
0.03243
0.015618
0.15966
0.16155
0.15977
0.15403
0.14312
0.12836
0.10982
0.090094
0.069293
0.049605
0.030635
0.013484
0.16211
0.16421
0.16247
0.15653
0.14512
0.12965
0.11032
0.089802
0.068346
0.048083
0.028711
0.011224
0.16468
0.16702
0.16534
0.15916
0.14721
0.13096
0.11079
0.089424
0.067279
0.046425
0.026646
0.0088284
0.16739
0.17
0.16838
0.16194
0.14939
0.13229
0.1112
0.088944
0.066074
0.044617
0.024425
0.0062836
0.17025
0.17317
0.17162
0.16488
0.15167
0.13363
0.11155
0.08834
0.064713
0.04264
0.022033
0.003577
0.17326
0.17652
0.17506
0.16799
0.15403
0.13497
0.11181
0.087592
0.063173
0.040476
0.019454
0.00069513
0.17644
0.18009
0.17872
0.17129
0.15648
0.13628
0.11195
0.086673
0.06143
0.038103
0.016671
-0.002376
0.1798
0.1839
0.18265
0.17477
0.15901
0.13755
0.11196
0.08555
0.059454
0.035498
0.013665
-0.0056506
0.18336
0.18798
0.18685
0.17846
0.16163
0.13876
0.11178
0.084185
0.057212
0.032633
0.010414
-0.0091435
0.18713
0.19235
0.19137
0.18238
0.1643
0.13986
0.11139
0.082532
0.054663
0.029475
0.0068953
-0.01287
0.19115
0.19706
0.19624
0.18652
0.16702
0.14082
0.11072
0.080535
0.051757
0.025986
0.0030805
-0.016846
0.19541
0.20214
0.20149
0.19091
0.16975
0.14157
0.10969
0.078123
0.048436
0.02212
-0.0010619
-0.021089
0.19994
0.20762
0.20716
0.19553
0.17244
0.14203
0.10823
0.075216
0.044633
0.017826
-0.0055686
-0.025619
0.20475
0.21356
0.21328
0.20036
0.17501
0.1421
0.10621
0.071717
0.04027
0.013045
-0.010479
-0.030455
0.20984
0.21999
0.21986
0.20534
0.17736
0.14164
0.10351
0.067514
0.035261
0.0077148
-0.015836
-0.035616
0.2152
0.22693
0.22688
0.2104
0.17932
0.14048
0.099978
0.062484
0.029516
0.0017739
-0.021674
-0.041115
0.22081
0.23439
0.23431
0.21538
0.18067
0.13839
0.095419
0.056495
0.022949
-0.0048285
-0.028019
-0.046954
0.22663
0.24235
0.24201
0.22005
0.18114
0.1351
0.089631
0.049413
0.015485
-0.012124
-0.034872
-0.053113
0.23264
0.25074
0.24977
0.22404
0.18032
0.1303
0.082393
0.041111
0.0070732
-0.020113
-0.042203
-0.059543
0.23881
0.25941
0.25718
0.22679
0.1777
0.12359
0.073477
0.03149
-0.0023017
-0.028756
-0.049939
-0.06616
0.24513
0.26803
0.26353
0.22751
0.1726
0.11455
0.062675
0.020492
-0.012604
-0.037964
-0.05796
-0.072842
0.25169
0.27601
0.26767
0.22497
0.16416
0.10274
0.049842
0.0081402
-0.02373
-0.047595
-0.066111
-0.07944
0.25863
0.28232
0.26772
0.21749
0.15134
0.087719
0.034941
-0.0054244
-0.035482
-0.057455
-0.074205
-0.085797
0.26632
0.28523
0.2609
0.20278
0.13294
0.069164
0.018099
-0.019914
-0.047564
-0.067291
-0.082043
-0.09177
0.27532
0.28231
0.24348
0.17806
0.10772
0.046881
-0.00039835
-0.034919
-0.059597
-0.076821
-0.089433
-0.097252
0.28633
0.27068
0.21148
0.14061
0.074638
0.020843
-0.02019
-0.050006
-0.071209
-0.085781
-0.096225
-0.10219
0.29939
0.24688
0.16201
0.089019
0.033346
-0.0087866
-0.04097
-0.06488
-0.082161
-0.094018
-0.10236
-0.10661
0.31426
0.20442
0.091498
0.022657
-0.016292
-0.042222
-0.062976
-0.079757
-0.092652
-0.10173
-0.10804
-0.11079
0.34048
0.14361
-0.00044386
-0.057291
-0.073909
-0.080279
-0.087468
-0.095898
-0.10381
-0.10988
-0.11411
-0.11548
0.38966
0.081783
-0.098899
-0.14
-0.13262
-0.11954
-0.11326
-0.11317
-0.11588
-0.11879
-0.12089
-0.12088
0.10429
0.065024
0.054805
0.048577
0.044123
0.040622
0.037683
0.035027
0.032723
0.030329
0.028649
0.025656
0.12393
0.080577
0.06789
0.059646
0.053835
0.049338
0.045608
0.04226
0.039382
0.036364
0.034312
0.030645
0.11113
0.075315
0.063829
0.05574
0.050038
0.045659
0.042059
0.038839
0.036103
0.033187
0.03129
0.027614
0.10605
0.074954
0.063796
0.05562
0.04979
0.045307
0.041632
0.038347
0.035575
0.032587
0.03069
0.026786
0.10545
0.077148
0.065823
0.057424
0.051345
0.046646
0.042793
0.039346
0.036448
0.033303
0.031324
0.027157
0.10483
0.078982
0.067579
0.05904
0.052757
0.047874
0.043863
0.040271
0.037258
0.033976
0.031915
0.027548
0.10374
0.080274
0.068942
0.060347
0.053915
0.048881
0.044739
0.041027
0.037918
0.034526
0.032394
0.027889
0.10257
0.081335
0.070163
0.061565
0.055019
0.049854
0.045595
0.041775
0.038579
0.035098
0.032901
0.028313
0.10148
0.082252
0.07131
0.062755
0.056126
0.050848
0.046483
0.042567
0.039292
0.03574
0.033484
0.028868
0.10044
0.083019
0.072371
0.063904
0.057229
0.051861
0.047403
0.043404
0.04006
0.036456
0.034153
0.029561
0.099437
0.083634
0.073334
0.064999
0.058317
0.052883
0.048352
0.044284
0.040883
0.037248
0.03491
0.030392
0.098461
0.084112
0.074199
0.066032
0.059381
0.053909
0.049324
0.045205
0.041762
0.038116
0.035755
0.031359
0.097518
0.08447
0.074966
0.066999
0.060412
0.054931
0.050313
0.046162
0.042691
0.039054
0.036684
0.03245
0.096611
0.084724
0.075639
0.067895
0.061402
0.055938
0.05131
0.047145
0.043662
0.040053
0.037687
0.03365
0.09574
0.08489
0.076223
0.068717
0.062343
0.056922
0.052303
0.048144
0.044663
0.0411
0.038751
0.034938
0.094907
0.084981
0.076725
0.069467
0.063231
0.057874
0.053284
0.049147
0.045683
0.042183
0.039858
0.03629
0.094112
0.085011
0.077152
0.070146
0.064064
0.058788
0.054243
0.050145
0.04671
0.043286
0.040993
0.037682
0.093356
0.08499
0.077512
0.070757
0.064839
0.059659
0.055174
0.051128
0.047733
0.044397
0.042141
0.039091
0.092638
0.084929
0.077811
0.071306
0.065558
0.060485
0.056071
0.052089
0.048742
0.045502
0.043287
0.040496
0.091956
0.084835
0.078058
0.071797
0.066221
0.061264
0.056931
0.053021
0.049729
0.046592
0.044418
0.041878
0.091309
0.084715
0.078259
0.072234
0.066832
0.061997
0.05775
0.053921
0.050688
0.047657
0.045524
0.043223
0.090695
0.084575
0.078418
0.072622
0.067393
0.062683
0.058528
0.054784
0.051614
0.04869
0.046597
0.044517
0.090113
0.084418
0.078543
0.072966
0.067906
0.063324
0.059263
0.055609
0.052503
0.049685
0.04763
0.045753
0.08956
0.084249
0.078636
0.07327
0.068376
0.063922
0.059957
0.056394
0.053353
0.05064
0.04862
0.046924
0.089033
0.08407
0.078703
0.073538
0.068805
0.064478
0.06061
0.057139
0.054163
0.05155
0.049563
0.048027
0.088532
0.083884
0.078746
0.073772
0.069196
0.064994
0.061223
0.057844
0.054932
0.052416
0.050458
0.049061
0.088055
0.083693
0.078769
0.073977
0.069552
0.065473
0.061798
0.05851
0.055661
0.053235
0.051304
0.050026
0.087598
0.083498
0.078774
0.074155
0.069875
0.065917
0.062336
0.059137
0.05635
0.054009
0.052103
0.050923
0.087162
0.0833
0.078763
0.074308
0.070168
0.066327
0.062838
0.059727
0.056999
0.054738
0.052854
0.051755
0.086745
0.0831
0.078739
0.07444
0.070433
0.066706
0.063308
0.060281
0.057611
0.055422
0.053559
0.052525
0.086344
0.082899
0.078703
0.074551
0.070673
0.067056
0.063745
0.0608
0.058186
0.056065
0.05422
0.053237
0.085959
0.082698
0.078655
0.074644
0.070889
0.067378
0.064152
0.061286
0.058726
0.056666
0.054839
0.053894
0.085589
0.082496
0.078599
0.074721
0.071082
0.067674
0.06453
0.06174
0.059231
0.057228
0.055417
0.0545
0.085233
0.082295
0.078534
0.074782
0.071255
0.067945
0.064881
0.062163
0.059705
0.057752
0.055957
0.055058
0.084889
0.082095
0.078462