/*--------------------------------*- C++ -*----------------------------------*\
  =========                 |
  \\      /  F ield         | OpenFOAM: The Open Source CFD Toolbox
   \\    /   O peration     | Website:  https://openfoam.org
    \\  /    A nd           | Version:  6.0
     \\/     M anipulation  |
\*---------------------------------------------------------------------------*/
FoamFile
{
    version     2.0;
    format      ascii;
    class       volVectorField;
    location    "7";
    object      U;
}
// * * * * * * * * * * * * * * * * * * * * * * * * * * * * * * * * * * * * * //

dimensions      [0 1 -1 0 0 0 0];

internalField   nonuniform List<vector> 
62000
(
(0.996103 -0.0880056 -8.99758e-21)
(0.996108 -0.0880207 7.39544e-21)
(0.996112 -0.0880274 7.44553e-21)
(0.996116 -0.088022 -3.20881e-20)
(0.99612 -0.0880103 -3.59202e-20)
(0.996122 -0.087996 1.22594e-19)
(0.996124 -0.0879818 -1.32386e-19)
(0.996124 -0.0879684 7.57459e-20)
(0.996123 -0.0879558 -3.47042e-20)
(0.996122 -0.087944 -1.7374e-19)
(0.996119 -0.0879332 -2.06321e-20)
(0.996116 -0.087923 2.35358e-19)
(0.996112 -0.0879139 4.6568e-20)
(0.996107 -0.0879059 -1.61156e-19)
(0.996102 -0.0878992 2.46235e-19)
(0.996097 -0.087894 -1.2878e-19)
(0.996091 -0.0878906 1.29148e-19)
(0.996084 -0.0878888 -1.50151e-19)
(0.996078 -0.087889 7.1778e-20)
(0.99607 -0.0878907 -2.16204e-19)
(0.996063 -0.0878943 2.77514e-19)
(0.996055 -0.0878993 7.75686e-20)
(0.996047 -0.087906 1.08069e-19)
(0.996038 -0.0879136 -4.9735e-19)
(0.996029 -0.0879225 1.7884e-19)
(0.996019 -0.0879319 -1.04059e-19)
(0.996009 -0.0879418 1.82591e-21)
(0.995998 -0.0879517 -7.57234e-20)
(0.995987 -0.0879611 2.43187e-19)
(0.995975 -0.0879694 -1.25726e-19)
(0.995962 -0.0879755 2.94606e-19)
(0.99595 -0.0879787 -5.8874e-19)
(0.995936 -0.0879776 5.95962e-20)
(0.995922 -0.0879711 -1.70962e-19)
(0.995907 -0.0879592 -4.70364e-20)
(0.99589 -0.0879411 -1.64476e-19)
(0.995871 -0.0879171 -2.83858e-20)
(0.99585 -0.0878875 -3.05088e-20)
(0.995827 -0.0878529 1.41934e-19)
(0.9958 -0.0878149 5.8743e-19)
(0.99577 -0.0877762 -1.34732e-19)
(0.995734 -0.0877412 -7.06989e-19)
(0.995693 -0.0877153 -1.05077e-18)
(0.995648 -0.0877047 5.30475e-19)
(0.995599 -0.0877151 1.69529e-19)
(0.995553 -0.0877506 -6.55758e-19)
(0.995516 -0.0878108 8.23543e-20)
(0.995497 -0.0878898 -2.40681e-19)
(0.99551 -0.0879726 -9.3769e-19)
(0.995567 -0.0880369 -1.97261e-19)
(0.995682 -0.0880504 -6.70892e-20)
(0.995859 -0.0879754 -5.88111e-19)
(0.996096 -0.0877775 6.56557e-20)
(0.996383 -0.0874165 -1.98488e-19)
(0.996692 -0.0868551 -1.48455e-19)
(0.996985 -0.0860602 -8.65013e-19)
(0.9972 -0.084977 1.07566e-19)
(0.997509 -0.0834612 1.76586e-19)
(0.994501 -0.0813289 -5.09254e-19)
(1.01489 -0.0791124 -8.1035e-20)
(0.996031 -0.088293 -2.43496e-21)
(0.99603 -0.0883356 2.29249e-20)
(0.996023 -0.0883925 9.27504e-21)
(0.996019 -0.0884319 -3.95175e-20)
(0.996018 -0.0884558 1.6121e-20)
(0.996017 -0.0884682 -1.0915e-19)
(0.996017 -0.0884747 9.85392e-20)
(0.996016 -0.0884795 5.57772e-20)
(0.996015 -0.0884852 -1.02646e-19)
(0.996012 -0.0884922 4.59488e-21)
(0.996009 -0.0885007 9.57682e-20)
(0.996005 -0.0885102 -7.86318e-23)
(0.996 -0.0885209 2.61757e-20)
(0.995994 -0.0885327 -2.22656e-19)
(0.995988 -0.0885458 4.38232e-19)
(0.995982 -0.0885601 -3.80732e-19)
(0.995976 -0.0885757 1.74807e-19)
(0.99597 -0.0885924 -3.65111e-20)
(0.995964 -0.0886099 -9.58666e-20)
(0.995958 -0.088628 2.58955e-19)
(0.995953 -0.0886465 -4.01205e-19)
(0.995948 -0.0886645 2.28443e-19)
(0.995944 -0.088682 -2.8185e-19)
(0.99594 -0.088698 1.66754e-19)
(0.995936 -0.088712 1.47359e-19)
(0.995933 -0.0887231 -9.60174e-20)
(0.995931 -0.08873 2.43097e-21)
(0.995929 -0.0887323 1.04104e-19)
(0.995928 -0.0887281 8.32929e-20)
(0.995927 -0.0887164 -1.55938e-19)
(0.995926 -0.0886944 3.14006e-19)
(0.995925 -0.0886614 5.60215e-20)
(0.995923 -0.0886172 1.7635e-19)
(0.995922 -0.0885633 5.44886e-21)
(0.995918 -0.0884987 4.03573e-20)
(0.995909 -0.0884214 -5.68522e-20)
(0.995894 -0.0883328 -1.49485e-19)
(0.995873 -0.0882374 -8.00498e-20)
(0.995843 -0.0881411 -3.6892e-19)
(0.995804 -0.0880512 -3.87447e-19)
(0.995753 -0.0879775 2.90666e-19)
(0.99569 -0.0879313 1.73158e-19)
(0.995614 -0.0879247 1.12042e-18)
(0.995531 -0.0879688 5.39007e-20)
(0.995445 -0.0880706 -1.52042e-18)
(0.99537 -0.0882303 5.68575e-19)
(0.995321 -0.0884365 4.33162e-19)
(0.995317 -0.088665 4.6097e-19)
(0.995382 -0.0888767 7.19786e-20)
(0.995537 -0.0890188 1.38158e-20)
(0.995796 -0.0890296 4.53374e-19)
(0.996159 -0.0888406 7.7375e-19)
(0.99661 -0.088403 -2.03126e-19)
(0.997122 -0.087667 1.44033e-19)
(0.997626 -0.0866015 1.94921e-19)
(0.998038 -0.0852035 3.96293e-19)
(0.998207 -0.0835275 7.19295e-19)
(0.998414 -0.0815701 4.8824e-19)
(0.995386 -0.0795489 -6.15239e-19)
(0.997412 -0.0860835 -1.53345e-19)
(0.996043 -0.0881192 -1.19484e-20)
(0.996018 -0.0881793 -1.62048e-21)
(0.995985 -0.0882726 1.83911e-21)
(0.995961 -0.0883461 8.06231e-21)
(0.995945 -0.0884018 2.23054e-20)
(0.995933 -0.0884383 -2.08418e-20)
(0.995924 -0.0884603 1.08739e-19)
(0.995918 -0.0884751 -5.13213e-20)
(0.995914 -0.0884882 -2.70065e-20)
(0.995911 -0.0885018 -1.61694e-19)
(0.995909 -0.0885172 1.34304e-19)
(0.995908 -0.0885338 9.64759e-21)
(0.995908 -0.0885517 -2.93714e-20)
(0.995909 -0.0885706 7.65126e-20)
(0.99591 -0.0885904 -1.28576e-19)
(0.995913 -0.088611 1.20337e-21)
(0.995917 -0.0886319 -5.60053e-20)
(0.995922 -0.0886531 2.07237e-21)
(0.995928 -0.0886737 1.26109e-19)
(0.995935 -0.0886936 -1.87471e-19)
(0.995944 -0.088712 1.15386e-19)
(0.995954 -0.0887281 4.32147e-19)
(0.995967 -0.0887417 -6.25052e-20)
(0.99598 -0.0887515 -5.77762e-19)
(0.995996 -0.088757 2.93168e-19)
(0.996014 -0.0887575 -1.50449e-19)
(0.996035 -0.0887513 2.4232e-19)
(0.996057 -0.0887382 -1.48575e-19)
(0.996083 -0.0887162 -2.74669e-19)
(0.996109 -0.0886846 2.81613e-19)
(0.996139 -0.0886403 -1.92277e-19)
(0.99617 -0.0885832 2.46368e-19)
(0.996203 -0.0885149 -6.52424e-19)
(0.996239 -0.0884389 5.54163e-19)
(0.996274 -0.0883549 -2.83274e-19)
(0.996306 -0.0882603 1.18469e-19)
(0.996333 -0.0881572 8.77051e-20)
(0.996354 -0.0880522 1.16704e-20)
(0.996368 -0.0879536 5.12753e-21)
(0.996371 -0.0878716 4.09617e-19)
(0.996361 -0.0878179 -1.46914e-19)
(0.996336 -0.0878058 2.21892e-19)
(0.996296 -0.0878485 -7.11104e-19)
(0.996244 -0.087957 -3.26693e-19)
(0.996185 -0.0881367 3.60739e-19)
(0.996129 -0.0883844 -1.04594e-18)
(0.99609 -0.0886845 1.4304e-19)
(0.996085 -0.0890065 -7.77311e-19)
(0.996134 -0.0893063 9.96754e-19)
(0.996256 -0.0895271 2.19398e-19)
(0.996463 -0.0896066 1.18916e-19)
(0.996752 -0.0894794 1.77536e-20)
(0.997106 -0.0891083 1.84247e-19)
(0.997494 -0.0884663 -3.33952e-19)
(0.997847 -0.0875531 -1.39938e-19)
(0.998076 -0.0864175 2.93332e-19)
(0.998023 -0.0852263 -2.78694e-19)
(0.99798 -0.0840367 2.9541e-19)
(0.995795 -0.083483 3.65699e-19)
(0.998202 -0.0914473 5.54675e-20)
(0.99602 -0.0883807 -1.20254e-20)
(0.99597 -0.0884774 3.61463e-20)
(0.995918 -0.0885943 -5.50053e-21)
(0.995884 -0.0886924 -3.57913e-20)
(0.995861 -0.0887746 5.28156e-20)
(0.995842 -0.0888317 8.88986e-20)
(0.995828 -0.088865 -1.14163e-19)
(0.995818 -0.0888828 1.20702e-20)
(0.995812 -0.0888934 3.7606e-20)
(0.995808 -0.0889015 7.64043e-20)
(0.995807 -0.08891 -1.39277e-19)
(0.995808 -0.088919 -4.15957e-20)
(0.995812 -0.0889288 -4.51751e-20)
(0.995818 -0.0889393 2.03898e-19)
(0.995826 -0.0889502 -1.33011e-19)
(0.995837 -0.0889617 3.01842e-19)
(0.99585 -0.0889731 -3.59555e-19)
(0.995865 -0.0889844 -4.98144e-20)
(0.995882 -0.0889948 3.60089e-19)
(0.995902 -0.0890041 -1.24157e-19)
(0.995924 -0.0890115 -4.47765e-20)
(0.995948 -0.0890163 -4.56689e-20)
(0.995975 -0.0890181 -3.99332e-19)
(0.996005 -0.0890158 2.32196e-19)
(0.996037 -0.0890089 -9.55976e-20)
(0.996073 -0.0889968 1.57995e-19)
(0.996113 -0.0889779 7.14585e-20)
(0.996156 -0.0889523 3.32056e-19)
(0.996204 -0.0889183 -2.08837e-19)
(0.996255 -0.0888752 -2.55668e-19)
(0.996311 -0.0888206 3.86085e-19)
(0.996371 -0.0887539 -3.10938e-19)
(0.996435 -0.0886784 5.44114e-19)
(0.996505 -0.0885986 -3.06043e-19)
(0.996578 -0.0885147 1.42106e-19)
(0.996652 -0.088424 2.18227e-19)
(0.996725 -0.0883286 -8.56915e-20)
(0.996795 -0.0882351 7.85319e-20)
(0.996862 -0.0881526 -5.55835e-20)
(0.996921 -0.0880911 1.19525e-19)
(0.99697 -0.0880623 -3.34522e-19)
(0.997006 -0.0880786 8.58906e-20)
(0.997026 -0.0881522 1.63206e-19)
(0.997031 -0.088293 3.8577e-19)
(0.997021 -0.0885049 4.5521e-19)
(0.997004 -0.0887836 8.82051e-20)
(0.996986 -0.0891129 6.22087e-19)
(0.996982 -0.089463 6.27838e-19)
(0.997004 -0.0897924 6.7148e-19)
(0.997069 -0.0900488 -4.49535e-19)
(0.997185 -0.0901768 -4.69955e-19)
(0.99735 -0.0901198 3.10376e-19)
(0.997552 -0.089852 3.77861e-19)
(0.997768 -0.0893648 1.79743e-19)
(0.997939 -0.0886743 -1.67624e-19)
(0.997994 -0.0878474 2.0647e-19)
(0.997807 -0.0870807 -2.9672e-19)
(0.997631 -0.0863195 -5.33108e-19)
(0.996115 -0.0862201 1.81212e-19)
(0.999344 -0.0932975 -4.52472e-20)
(0.995903 -0.0890514 2.34855e-20)
(0.995843 -0.0891751 -7.76278e-21)
(0.995792 -0.0892981 1.25889e-20)
(0.995767 -0.0894136 -1.75648e-20)
(0.995751 -0.0895195 3.83367e-20)
(0.995739 -0.0895983 -1.87488e-20)
(0.995729 -0.0896464 9.66555e-21)
(0.995723 -0.0896705 -1.4219e-19)
(0.99572 -0.0896805 1.16701e-19)
(0.995719 -0.0896838 -2.26752e-19)
(0.995721 -0.0896849 2.44799e-19)
(0.995725 -0.0896853 -2.91001e-20)
(0.995732 -0.0896855 -6.20083e-20)
(0.995741 -0.0896857 -2.71294e-20)
(0.995754 -0.0896857 -5.36899e-21)
(0.995768 -0.0896859 -2.65462e-19)
(0.995786 -0.0896858 1.50915e-20)
(0.995806 -0.0896853 2.78098e-19)
(0.99583 -0.0896839 -8.70126e-20)
(0.995855 -0.0896816 -8.8018e-20)
(0.995884 -0.0896775 1.48367e-19)
(0.995916 -0.0896711 -6.98047e-20)
(0.99595 -0.0896623 2.90785e-19)
(0.995988 -0.0896498 1.5074e-19)
(0.99603 -0.0896336 1.07948e-19)
(0.996075 -0.089613 -3.52586e-19)
(0.996124 -0.0895868 -4.84192e-20)
(0.996178 -0.0895551 -2.56408e-19)
(0.996237 -0.0895165 4.91404e-20)
(0.996301 -0.0894707 -7.53977e-20)
(0.996371 -0.0894151 -3.09407e-20)
(0.996447 -0.0893496 2.24096e-19)
(0.996529 -0.0892778 -5.63698e-19)
(0.996618 -0.0892048 -3.17443e-20)
(0.996715 -0.089131 -2.57434e-19)
(0.996815 -0.0890535 -1.20015e-19)
(0.996918 -0.088974 4.67455e-21)
(0.997024 -0.0888988 -3.48267e-19)
(0.997129 -0.0888359 4.92865e-19)
(0.997232 -0.088795 1.07904e-19)
(0.997329 -0.0887861 4.79889e-19)
(0.997418 -0.08882 -3.26126e-19)
(0.997494 -0.0889071 -2.1402e-19)
(0.997555 -0.0890554 -4.14786e-20)
(0.9976 -0.0892673 3.32775e-19)
(0.997632 -0.0895376 4.35532e-19)
(0.997655 -0.0898503 1.41989e-19)
(0.997675 -0.0901773 2.01866e-19)
(0.997703 -0.0904807 -1.66483e-19)
(0.997749 -0.0907131 1.1834e-18)
(0.997822 -0.0908256 2.7095e-19)
(0.997917 -0.0907685 -1.75641e-19)
(0.99803 -0.0905218 2.38074e-19)
(0.998142 -0.0900856 4.88184e-19)
(0.998208 -0.089478 -1.61437e-19)
(0.998172 -0.0887611 -8.1215e-20)
(0.997948 -0.0881214 -5.2536e-19)
(0.997716 -0.087393 2.91053e-19)
(0.996539 -0.0871545 -3.56421e-19)
(1.00034 -0.0939955 2.03416e-19)
(0.99573 -0.0899487 -9.02475e-21)
(0.995676 -0.0900641 3.57757e-20)
(0.995637 -0.0901728 -5.78391e-20)
(0.995631 -0.0902906 4.23791e-20)
(0.995634 -0.0904098 2.68691e-20)
(0.995636 -0.0905067 -2.80363e-20)
(0.995637 -0.0905706 2.25419e-21)
(0.99564 -0.0906045 -2.01311e-20)
(0.995644 -0.0906183 -6.60733e-20)
(0.99565 -0.0906209 1.24418e-19)
(0.995657 -0.0906185 -1.88331e-19)
(0.995665 -0.0906137 1.61587e-19)
(0.995676 -0.0906079 1.38323e-19)
(0.995688 -0.0906014 -2.1051e-19)
(0.995703 -0.0905942 -6.63025e-20)
(0.99572 -0.0905868 2.45326e-19)
(0.995739 -0.0905788 -2.89809e-19)
(0.995761 -0.0905703 3.90446e-19)
(0.995786 -0.0905609 -7.49621e-20)
(0.995813 -0.0905509 3.80705e-20)
(0.995843 -0.0905394 -6.57827e-20)
(0.995876 -0.0905263 -7.91842e-20)
(0.995912 -0.0905115 -1.38917e-19)
(0.995952 -0.0904938 2.35109e-19)
(0.995995 -0.0904736 -1.595e-19)
(0.996041 -0.0904504 -1.48101e-19)
(0.996093 -0.090423 2.99375e-19)
(0.996148 -0.0903919 -2.77647e-19)
(0.99621 -0.0903556 4.23764e-19)
(0.996277 -0.0903145 -2.26404e-19)
(0.99635 -0.0902659 1.5532e-19)
(0.99643 -0.0902097 -2.66388e-19)
(0.996518 -0.0901496 2.62167e-19)
(0.996614 -0.0900912 -3.63742e-20)
(0.99672 -0.0900348 -1.66631e-20)
(0.996832 -0.0899769 -1.34431e-20)
(0.99695 -0.0899192 -1.44595e-19)
(0.997075 -0.0898668 3.11994e-19)
(0.997204 -0.0898268 -2.19048e-19)
(0.997335 -0.0898074 -1.24419e-18)
(0.997466 -0.0898169 -4.91529e-19)
(0.997594 -0.0898638 2.93799e-19)
(0.997716 -0.0899562 -3.79532e-19)
(0.997827 -0.0901 -3.07221e-19)
(0.997927 -0.0902957 -2.7233e-20)
(0.998013 -0.0905368 7.48881e-19)
(0.998088 -0.0908077 -1.00424e-18)
(0.998154 -0.0910816 -9.24776e-19)
(0.998217 -0.0913236 -4.98625e-19)
(0.998284 -0.091491 -8.48528e-19)
(0.99836 -0.0915399 5.90771e-19)
(0.998442 -0.0914255 -1.50997e-19)
(0.998525 -0.0911307 -1.202e-18)
(0.998597 -0.0906596 3.05472e-19)
(0.998623 -0.0900278 1.69236e-19)
(0.998553 -0.0892885 -4.10983e-19)
(0.998338 -0.0886172 5.90093e-20)
(0.99807 -0.0878006 3.10458e-19)
(0.997016 -0.0874124 5.01674e-19)
(1.0011 -0.094362 5.85141e-20)
(0.995563 -0.0909062 1.07945e-20)
(0.995519 -0.090997 -4.7797e-20)
(0.995495 -0.0910818 2.29241e-20)
(0.995509 -0.0911884 4.18547e-20)
(0.995531 -0.0913089 -8.80123e-20)
(0.995549 -0.091416 7.23731e-20)
(0.995564 -0.0914926 -4.72126e-20)
(0.995577 -0.091537 3.9226e-20)
(0.99559 -0.0915575 6.11204e-20)
(0.995603 -0.0915631 -1.44023e-19)
(0.995616 -0.0915614 2.03375e-19)
(0.995629 -0.091556 8.34486e-20)
(0.995643 -0.0915488 -3.29117e-19)
(0.995659 -0.0915406 -5.94142e-20)
(0.995676 -0.0915314 1.67425e-19)
(0.995694 -0.0915219 1.04457e-19)
(0.995713 -0.0915118 -1.24928e-19)
(0.995735 -0.091501 1.05966e-19)
(0.995759 -0.0914895 1.59492e-19)
(0.995785 -0.0914776 -7.8339e-20)
(0.995814 -0.0914646 -4.36785e-20)
(0.995845 -0.0914505 1.47861e-19)
(0.995879 -0.0914356 2.94366e-19)
(0.995916 -0.0914187 -2.1546e-19)
(0.995956 -0.0914005 -2.2732e-19)
(0.996001 -0.0913805 2.43387e-19)
(0.996049 -0.0913579 -1.8543e-19)
(0.996102 -0.0913333 -6.91828e-20)
(0.996161 -0.0913054 5.80369e-19)
(0.996225 -0.091275 -2.51107e-19)
(0.996297 -0.0912391 -1.75344e-19)
(0.996375 -0.091198 2.32519e-19)
(0.996461 -0.0911552 1.52815e-19)
(0.996558 -0.0911163 -1.42088e-19)
(0.996665 -0.0910816 -8.94608e-20)
(0.99678 -0.0910471 2.6352e-19)
(0.996905 -0.0910139 3.25539e-20)
(0.997039 -0.0909862 9.00993e-20)
(0.997181 -0.0909698 -4.19179e-19)
(0.99733 -0.0909714 -4.23288e-19)
(0.997486 -0.0909974 6.94833e-19)
(0.997644 -0.0910538 5.13093e-19)
(0.997802 -0.0911463 7.65707e-19)
(0.997956 -0.0912784 -7.42062e-19)
(0.998105 -0.0914488 -7.80145e-19)
(0.998245 -0.0916498 -4.09737e-19)
(0.998376 -0.0918656 9.88541e-19)
(0.998497 -0.092071 9.45808e-19)
(0.99861 -0.0922337 -9.4703e-19)
(0.998719 -0.0923151 -1.39265e-18)
(0.998828 -0.0922753 -1.10464e-19)
(0.998929 -0.0920736 2.52729e-19)
(0.999019 -0.0916949 -2.29718e-20)
(0.999091 -0.0911453 -3.98519e-19)
(0.999112 -0.0904383 3.42558e-19)
(0.999037 -0.0896219 1.22411e-19)
(0.998843 -0.0888695 1.52725e-19)
(0.998539 -0.0879656 -8.71245e-19)
(0.99751 -0.0875139 -1.53701e-20)
(1.00169 -0.0946588 8.4662e-20)
(0.995426 -0.091796 -1.84964e-20)
(0.995388 -0.0918615 -1.44817e-20)
(0.995373 -0.091922 1.93927e-20)
(0.995404 -0.0920111 6.71758e-20)
(0.995442 -0.0921249 -1.41915e-19)
(0.995475 -0.092236 1.59163e-19)
(0.995501 -0.0923223 -7.19227e-21)
(0.995524 -0.0923777 -9.67496e-21)
(0.995545 -0.0924076 -5.33695e-20)
(0.995564 -0.0924204 1.26484e-19)
(0.995583 -0.092424 -1.91036e-19)
(0.995602 -0.0924228 7.05373e-20)
(0.99562 -0.0924193 -2.26197e-21)
(0.995639 -0.0924146 1.05e-19)
(0.995658 -0.0924089 4.82569e-20)
(0.995677 -0.092403 -2.54828e-19)
(0.995698 -0.0923965 2.16532e-19)
(0.995719 -0.0923895 8.22249e-20)
(0.995742 -0.092382 -2.32696e-19)
(0.995767 -0.0923744 1.12438e-19)
(0.995793 -0.0923661 4.98473e-20)
(0.995822 -0.0923572 -3.35868e-20)
(0.995853 -0.0923483 3.84566e-20)
(0.995887 -0.092338 -2.35047e-20)
(0.995924 -0.0923274 -2.56237e-19)
(0.995964 -0.0923162 1.62536e-19)
(0.996009 -0.0923036 -2.40324e-19)
(0.996058 -0.0922907 4.37209e-19)
(0.996113 -0.092276 -8.13552e-20)
(0.996174 -0.0922606 -4.87819e-20)
(0.996241 -0.0922417 -1.38755e-20)
(0.996316 -0.0922194 3.94343e-19)
(0.9964 -0.0921971 -1.6703e-19)
(0.996494 -0.0921802 -1.08247e-19)
(0.996599 -0.0921691 2.30816e-19)
(0.996716 -0.0921588 1.8946e-19)
(0.996843 -0.0921504 -3.13763e-19)
(0.996982 -0.0921468 5.84863e-20)
(0.997132 -0.0921525 5.26409e-19)
(0.997295 -0.0921728 -9.59597e-20)
(0.997468 -0.0922121 3.36829e-19)
(0.997649 -0.092274 -4.2225e-19)
(0.997837 -0.0923621 6.55559e-19)
(0.998029 -0.0924778 1.22376e-18)
(0.99822 -0.0926178 2.61533e-19)
(0.998409 -0.0927734 -4.50857e-19)
(0.998593 -0.092929 -1.26323e-18)
(0.998769 -0.0930605 3.09535e-19)
(0.998937 -0.093138 2.89722e-19)
(0.999098 -0.0931265 4.7763e-19)
(0.999251 -0.0929898 2.44865e-20)
(0.999387 -0.0926908 -1.02255e-18)
(0.999505 -0.0922154 7.93752e-19)
(0.999595 -0.0915722 -4.69322e-19)
(0.999629 -0.090774 8.89643e-19)
(0.999562 -0.0898669 1.58448e-19)
(0.99939 -0.0890288 7.03116e-19)
(0.999047 -0.088062 8.46885e-19)
(0.998003 -0.087595 1.71675e-19)
(1.0022 -0.0949431 3.02609e-19)
(0.995312 -0.0925475 -9.15516e-21)
(0.995272 -0.0925987 7.73711e-21)
(0.995261 -0.092644 3.80472e-20)
(0.995303 -0.0927179 5.89409e-20)
(0.995355 -0.0928229 -1.71163e-19)
(0.995398 -0.0929336 9.64925e-20)
(0.995434 -0.093026 -1.68565e-19)
(0.995464 -0.0930904 2.5839e-19)
(0.995492 -0.0931298 -1.18544e-19)
(0.995517 -0.0931514 2.04218e-20)
(0.995542 -0.0931629 2.17913e-19)
(0.995565 -0.0931691 -4.85893e-19)
(0.995588 -0.0931729 3.23907e-19)
(0.99561 -0.0931755 4.37228e-20)
(0.995632 -0.0931775 6.9384e-20)
(0.995654 -0.0931795 -2.87408e-19)
(0.995676 -0.0931814 1.3791e-19)
(0.995698 -0.093183 -1.66269e-19)
(0.995721 -0.0931843 3.20338e-19)
(0.995745 -0.0931862 -4.45834e-20)
(0.995771 -0.0931875 -3.87481e-19)
(0.995798 -0.0931888 1.49503e-19)
(0.995827 -0.0931908 -9.02571e-21)
(0.995858 -0.0931919 -5.18455e-19)
(0.995893 -0.0931937 3.8495e-19)
(0.99593 -0.0931958 2.79373e-19)
(0.995972 -0.0931975 1.82706e-19)
(0.996018 -0.0932001 -2.30309e-19)
(0.99607 -0.093202 -2.40706e-19)
(0.996128 -0.0932048 1.09572e-19)
(0.996192 -0.0932053 1.61812e-19)
(0.996265 -0.0932041 -1.85752e-19)
(0.996346 -0.0932039 -2.67914e-19)
(0.996439 -0.09321 5.51781e-19)
(0.996544 -0.0932227 4.95487e-20)
(0.996661 -0.0932362 -7.62761e-19)
(0.99679 -0.0932514 5.80929e-20)
(0.996934 -0.0932701 4.82129e-19)
(0.997092 -0.0932954 5.69251e-20)
(0.997265 -0.0933317 5.73622e-19)
(0.997453 -0.0933811 -7.31636e-19)
(0.997654 -0.0934453 -4.95228e-20)
(0.997867 -0.093526 -4.14861e-19)
(0.99809 -0.0936226 2.06794e-19)
(0.998319 -0.0937304 6.22175e-19)
(0.998551 -0.0938398 1.90718e-18)
(0.998783 -0.0939352 1.82178e-19)
(0.999011 -0.0939938 -1.03546e-18)
(0.999232 -0.093988 7.80493e-19)
(0.999444 -0.0938857 2.49364e-18)
(0.999645 -0.0936543 -1.86774e-18)
(0.999823 -0.0932595 2.03883e-18)
(0.999976 -0.0926888 -1.10077e-18)
(1.00009 -0.0919523 -5.94954e-19)
(1.00015 -0.0910638 -1.84101e-18)
(1.00009 -0.0900703 -8.7498e-20)
(0.99994 -0.0891563 -4.39384e-19)
(0.999557 -0.0881478 -4.68836e-19)
(0.998483 -0.0876863 4.25559e-19)
(1.00266 -0.095219 1.68961e-19)
(0.995203 -0.0931519 1.29945e-20)
(0.995157 -0.0931951 4.44286e-21)
(0.995147 -0.0932313 -4.53487e-20)
(0.995198 -0.0932933 4.23818e-20)
(0.995258 -0.0933898 -1.84068e-20)
(0.995309 -0.0934985 3.21296e-20)
(0.995351 -0.0935947 1.06926e-20)
(0.995386 -0.0936665 -1.53701e-19)
(0.995418 -0.0937151 6.55968e-20)
(0.995448 -0.093746 -4.32611e-20)
(0.995476 -0.0937665 2.60636e-20)
(0.995504 -0.0937815 9.77542e-20)
(0.995531 -0.0937943 -1.82379e-20)
(0.995557 -0.0938063 5.6696e-20)
(0.995582 -0.0938181 -2.34764e-19)
(0.995607 -0.0938305 8.90889e-20)
(0.995632 -0.0938434 3.76178e-20)
(0.995656 -0.0938565 -1.00761e-19)
(0.995681 -0.0938699 1.94973e-19)
(0.995706 -0.0938845 6.12468e-20)
(0.995732 -0.093899 -7.92693e-21)
(0.995759 -0.093914 -6.61866e-20)
(0.995788 -0.0939304 2.51381e-19)
(0.995819 -0.0939463 -6.73385e-19)
(0.995852 -0.0939637 3.47004e-19)
(0.995889 -0.0939821 1.42174e-19)
(0.99593 -0.0940008 -2.26848e-19)
(0.995975 -0.0940215 3.91796e-19)
(0.996026 -0.0940422 -1.8923e-19)
(0.996083 -0.094065 -9.34577e-20)
(0.996147 -0.0940864 -1.68745e-19)
(0.996219 -0.0941071 -6.79359e-20)
(0.996301 -0.0941294 1.87303e-19)
(0.996394 -0.0941586 -5.39344e-19)
(0.996501 -0.0941943 1.00207e-18)
(0.99662 -0.0942304 -7.58812e-20)
(0.996753 -0.0942675 4.69229e-19)
(0.996902 -0.0943063 -1.18767e-18)
(0.997068 -0.0943489 -3.43083e-19)
(0.997252 -0.0943983 3.0613e-20)
(0.997453 -0.0944553 -2.60261e-19)
(0.997673 -0.0945196 -3.70601e-20)
(0.997908 -0.0945913 -8.35863e-19)
(0.998158 -0.0946682 3.25519e-19)
(0.99842 -0.0947443 3.73879e-19)
(0.99869 -0.0948095 -1.81403e-18)
(0.998965 -0.0948484 2.27211e-18)
(0.999239 -0.0948392 3.07946e-19)
(0.999509 -0.0947565 1.39972e-19)
(0.99977 -0.0945709 -1.80793e-18)
(1.00002 -0.0942527 5.46399e-19)
(1.00024 -0.0937704 -1.09668e-18)
(1.00043 -0.0931125 2.03556e-18)
(1.00058 -0.0922911 3.33e-19)
(1.00066 -0.0913213 -1.41101e-18)
(1.00061 -0.0902523 4.45061e-19)
(1.00048 -0.0892757 -1.16872e-18)
(1.00005 -0.08824 -2.53191e-19)
(0.998943 -0.0877911 -1.50917e-18)
(1.00309 -0.0954896 -3.16966e-19)
(0.995084 -0.0936236 -2.94216e-21)
(0.995031 -0.0936657 -1.13171e-20)
(0.995022 -0.0936979 -9.63785e-21)
(0.99508 -0.0937516 9.13728e-20)
(0.995147 -0.0938406 -4.97671e-20)
(0.995203 -0.093946 -5.83255e-20)
(0.995247 -0.0940432 -2.12439e-20)
(0.995285 -0.0941197 -8.5684e-20)
(0.995318 -0.0941751 5.29569e-20)
(0.99535 -0.094214 7.69884e-21)
(0.995381 -0.094243 2.91216e-21)
(0.995411 -0.094267 2.0926e-19)
(0.995441 -0.0942892 -1.45239e-19)
(0.995471 -0.0943111 -1.7229e-20)
(0.9955 -0.0943334 1.58059e-19)
(0.995528 -0.0943572 -8.55917e-20)
(0.995555 -0.0943822 -3.20771e-20)
(0.995583 -0.094408 5.03076e-20)
(0.995611 -0.0944348 1.57497e-19)
(0.995638 -0.0944634 8.26938e-20)
(0.995666 -0.0944926 2.72613e-20)
(0.995695 -0.0945229 -2.04357e-19)
(0.995726 -0.0945553 9.99404e-20)
(0.995758 -0.0945877 1.83531e-19)
(0.995793 -0.0946223 -3.80275e-19)
(0.995831 -0.0946586 1.17054e-19)
(0.995873 -0.0946958 -4.56981e-19)
(0.99592 -0.0947357 3.63786e-19)
(0.995972 -0.0947763 3.04779e-19)
(0.99603 -0.0948196 -4.62709e-19)
(0.996096 -0.0948622 -2.18575e-19)
(0.996171 -0.0949048 2.76782e-19)
(0.996255 -0.0949493 9.18536e-20)
(0.996352 -0.0950006 -2.3188e-19)
(0.996463 -0.0950583 -2.94961e-19)
(0.996587 -0.0951155 -3.40692e-19)
(0.996727 -0.0951726 2.13825e-19)
(0.996883 -0.0952294 4.83919e-19)
(0.997058 -0.095287 1.73604e-19)
(0.997253 -0.0953476 -1.24877e-19)
(0.997469 -0.0954104 1.47472e-18)
(0.997706 -0.0954736 -1.8444e-19)
(0.997962 -0.095536 1.40015e-18)
(0.998237 -0.095594 -2.42124e-18)
(0.998528 -0.0956408 4.23205e-19)
(0.998833 -0.0956657 5.62622e-20)
(0.999145 -0.0956537 -3.95026e-20)
(0.999461 -0.0955841 -1.58588e-18)
(0.999775 -0.0954331 -2.36236e-18)
(1.00008 -0.095174 1.99808e-18)
(1.00037 -0.0947795 2.4445e-18)
(1.00064 -0.0942205 1.19707e-18)
(1.00086 -0.0934867 -2.02851e-18)
(1.00104 -0.0925915 9.60867e-19)
(1.00114 -0.0915517 2.02748e-18)
(1.00112 -0.0904193 8.01087e-19)
(1.00099 -0.0893922 1.13916e-18)
(1.00053 -0.0883386 5.3342e-19)
(0.999382 -0.0879041 1.58753e-18)
(1.00352 -0.0957437 -1.27755e-18)
(0.994944 -0.0939891 3.87564e-21)
(0.994886 -0.0940297 -1.13934e-20)
(0.994879 -0.0940586 3.99089e-20)
(0.994942 -0.0941052 1.01386e-20)
(0.995015 -0.0941879 -5.26145e-20)
(0.995074 -0.09429 -5.9111e-20)
(0.995119 -0.0943875 1.37081e-19)
(0.995156 -0.0944674 -1.46138e-19)
(0.995189 -0.0945284 -3.46944e-20)
(0.995221 -0.0945742 8.63141e-20)
(0.995253 -0.0946109 7.77209e-20)
(0.995284 -0.094643 2.30103e-19)
(0.995316 -0.0946738 -1.27739e-19)
(0.995348 -0.094705 -2.12424e-19)
(0.99538 -0.0947374 4.59009e-20)
(0.995411 -0.094772 -1.6388e-19)
(0.995442 -0.0948088 1.2172e-19)
(0.995474 -0.0948469 -1.96676e-19)
(0.995505 -0.0948871 3.3325e-20)
(0.995536 -0.0949298 -5.94836e-20)
(0.995567 -0.0949738 -3.51588e-20)
(0.9956 -0.0950195 -1.56362e-19)
(0.995634 -0.0950683 1.82493e-20)
(0.99567 -0.0951173 3.30238e-19)
(0.995708 -0.0951695 -1.10172e-19)
(0.995749 -0.0952238 3.47457e-20)
(0.995794 -0.0952797 9.676e-20)
(0.995844 -0.0953388 -1.19097e-19)
(0.9959 -0.095399 -2.48016e-20)
(0.995963 -0.0954627 1.59561e-19)
(0.996033 -0.095526 1.70884e-19)
(0.996112 -0.0955897 -1.22286e-19)
(0.996202 -0.0956553 -3.88127e-19)
(0.996304 -0.0957276 -5.42307e-19)
(0.996421 -0.0958057 8.03445e-19)
(0.996553 -0.0958822 2.20719e-19)
(0.996701 -0.0959575 1.44962e-19)
(0.996868 -0.0960305 6.60604e-19)
(0.997054 -0.0961014 -5.66932e-19)
(0.997262 -0.0961715 3.51746e-19)
(0.997492 -0.096239 2.80383e-20)
(0.997746 -0.0963007 -5.27288e-23)
(0.998023 -0.0963544 -5.19521e-19)
(0.998322 -0.0963955 1.17455e-18)
(0.99864 -0.0964163 -1.50267e-18)
(0.998975 -0.0964059 8.55612e-19)
(0.999322 -0.0963496 -2.28601e-18)
(0.999676 -0.0962276 5.39312e-19)
(1.00003 -0.0960179 1.26712e-18)
(1.00038 -0.0956958 -2.059e-18)
(1.00071 -0.0952362 -3.97347e-19)
(1.00101 -0.0946121 -3.81668e-20)
(1.00128 -0.0938139 -4.17743e-19)
(1.00148 -0.0928563 -1.07546e-18)
(1.00161 -0.091758 6.37789e-20)
(1.0016 -0.0905731 8.57591e-19)
(1.00149 -0.0895055 -7.61573e-19)
(1.00099 -0.0884393 -1.84024e-19)
(0.9998 -0.0880173 -1.68137e-19)
(1.00394 -0.0959838 1.01297e-18)
(0.994786 -0.0942644 7.36378e-21)
(0.994725 -0.0943097 -6.11018e-21)
(0.99472 -0.0943403 5.47284e-21)
(0.99479 -0.0943841 3.43434e-20)
(0.994867 -0.0944628 4.87706e-20)
(0.994926 -0.0945618 -1.867e-19)
(0.994971 -0.0946582 1.32123e-19)
(0.995006 -0.0947391 2.67267e-20)
(0.995037 -0.094803 -8.13024e-21)
(0.995066 -0.0948531 -5.56586e-20)
(0.995096 -0.0948952 1.65857e-19)
(0.995127 -0.0949336 -5.33016e-20)
(0.995159 -0.0949715 -7.15481e-20)
(0.995192 -0.0950105 -2.07265e-19)
(0.995226 -0.0950514 4.047e-19)
(0.99526 -0.0950954 -8.30719e-20)
(0.995294 -0.0951425 -6.73538e-20)
(0.995328 -0.0951918 -1.92872e-19)
(0.995363 -0.0952438 2.08406e-19)
(0.995398 -0.0952994 1.11341e-19)
(0.995434 -0.0953569 -5.18532e-20)
(0.995471 -0.0954169 8.21435e-20)
(0.995509 -0.0954809 -3.47376e-19)
(0.995549 -0.0955457 2.58351e-20)
(0.995592 -0.0956144 1.83131e-19)
(0.995638 -0.0956859 -3.32613e-20)
(0.995688 -0.0957595 -5.28896e-19)
(0.995744 -0.095837 5.19181e-20)
(0.995805 -0.0959159 4.49359e-19)
(0.995873 -0.0959989 -1.1825e-19)
(0.99595 -0.0960816 -2.19083e-19)
(0.996036 -0.0961651 1.27799e-19)
(0.996133 -0.0962505 3.55285e-19)
(0.996244 -0.096342 8.10798e-19)
(0.996369 -0.0964389 -1.21424e-19)
(0.996511 -0.096533 1.61439e-19)
(0.996669 -0.0966248 -1.17631e-18)
(0.996847 -0.0967123 -3.11711e-19)
(0.997046 -0.0967951 1.97424e-19)
(0.997268 -0.0968738 -8.11943e-19)
(0.997515 -0.0969455 -1.53715e-19)
(0.997787 -0.097006 3.54056e-19)
(0.998084 -0.0970523 3.13485e-19)
(0.998405 -0.0970789 7.65487e-19)
(0.998749 -0.0970775 2.33535e-18)
(0.999113 -0.0970371 -1.75506e-18)
(0.999492 -0.0969432 2.68663e-18)
(0.999881 -0.096777 1.89299e-18)
(1.00027 -0.0965179 -1.12206e-20)
(1.00066 -0.0961429 2.17458e-18)
(1.00103 -0.0956289 -2.67733e-18)
(1.00137 -0.0949505 -2.91972e-18)
(1.00167 -0.0940987 2.04554e-18)
(1.00191 -0.0930891 1.55686e-18)
(1.00206 -0.0919419 -5.98791e-19)
(1.00206 -0.0907137 -2.80067e-18)
(1.00196 -0.089613 5.74078e-19)
(1.00142 -0.0885372 -6.09357e-19)
(1.0002 -0.0881256 -9.10783e-19)
(1.00436 -0.0962012 9.74434e-19)
(0.994618 -0.0944755 -8.08637e-21)
(0.994555 -0.094523 8.69533e-21)
(0.994553 -0.0945545 5.79494e-20)
(0.994628 -0.0945969 -7.42091e-20)
(0.994708 -0.0946734 1.31779e-19)
(0.994769 -0.0947708 -1.89523e-19)
(0.994811 -0.0948669 5.25651e-20)
(0.994842 -0.0949489 -2.37088e-21)
(0.994868 -0.0950151 1.10837e-19)
(0.994893 -0.0950686 -5.73007e-20)
(0.994919 -0.0951147 1.64344e-20)
(0.994946 -0.0951578 1.62663e-20)
(0.994977 -0.095201 -2.50769e-19)
(0.995009 -0.0952459 7.41673e-20)
(0.995043 -0.0952934 1.65382e-19)
(0.995078 -0.095345 4.4934e-21)
(0.995114 -0.0954006 -2.612e-19)
(0.995151 -0.0954591 1.0532e-19)
(0.995189 -0.0955215 4.7042e-19)
(0.995227 -0.0955883 -3.0248e-19)
(0.995267 -0.0956578 -2.21478e-19)
(0.995309 -0.0957306 1.82884e-19)
(0.995352 -0.0958083 1.13551e-19)
(0.995397 -0.0958872 1.21142e-19)
(0.995445 -0.095971 -2.32848e-19)
(0.995497 -0.0960582 -4.82436e-19)
(0.995554 -0.0961479 3.61004e-19)
(0.995615 -0.0962423 4.90715e-19)
(0.995684 -0.0963383 1.28126e-19)
(0.995759 -0.096439 -2.60373e-19)
(0.995844 -0.0965395 1.13038e-19)
(0.995938 -0.0966411 1.86308e-19)
(0.996044 -0.0967445 -3.15034e-19)
(0.996165 -0.0968538 -5.06818e-20)
(0.996301 -0.0969675 -5.27348e-19)
(0.996453 -0.0970776 -1.29077e-19)
(0.996624 -0.0971842 -1.27052e-19)
(0.996815 -0.0972849 3.32522e-19)
(0.997028 -0.0973783 -4.6601e-19)
(0.997265 -0.0974649 1.21464e-19)
(0.997529 -0.0975406 2.13433e-19)
(0.997819 -0.0976005 5.48096e-20)
(0.998137 -0.0976409 -1.17395e-18)
(0.998481 -0.0976558 -1.57911e-18)
(0.99885 -0.0976361 -1.29737e-18)
(0.999241 -0.0975709 2.53374e-18)
(0.999651 -0.097446 1.17843e-19)
(1.00007 -0.0972432 -9.12432e-19)
(1.0005 -0.0969433 4.60428e-19)
(1.00092 -0.0965248 -2.63831e-18)
(1.00133 -0.0959659 1.16894e-18)
(1.00171 -0.0952428 2.97416e-18)
(1.00204 -0.0943468 -1.22835e-19)
(1.00231 -0.093294 -2.08426e-18)
(1.00248 -0.0921062 8.60857e-19)
(1.0025 -0.0908418 7.05817e-19)
(1.00241 -0.0897137 8.27588e-19)
(1.00184 -0.0886295 1.75842e-18)
(1.00059 -0.0882251 1.83179e-18)
(1.00478 -0.0964043 -2.25199e-18)
(0.994441 -0.0946393 -6.98375e-21)
(0.994378 -0.0946899 9.89241e-21)
(0.994379 -0.0947227 2.01337e-21)
(0.994459 -0.0947642 3.60257e-20)
(0.994542 -0.0948391 -5.35577e-20)
(0.994602 -0.094935 -1.07027e-19)
(0.994641 -0.0950301 3.77496e-20)
(0.994666 -0.0951121 -4.83311e-20)
(0.994686 -0.0951795 1.03485e-19)
(0.994705 -0.095235 -2.02048e-20)
(0.994725 -0.095284 -6.48083e-20)
(0.994748 -0.0953307 5.27315e-20)
(0.994775 -0.0953782 8.28547e-20)
(0.994804 -0.095428 2.21998e-19)
(0.994837 -0.095481 -3.94654e-19)
(0.994871 -0.0955389 1.9604e-19)
(0.994907 -0.0956015 2.79528e-20)
(0.994946 -0.0956677 -1.82797e-19)
(0.994986 -0.0957384 -1.09657e-19)
(0.995027 -0.0958145 3.52659e-19)
(0.995071 -0.095894 -3.58674e-19)