/*--------------------------------*- C++ -*----------------------------------*\
  =========                 |
  \\      /  F ield         | OpenFOAM: The Open Source CFD Toolbox
   \\    /   O peration     | Website:  https://openfoam.org
    \\  /    A nd           | Version:  6.0
     \\/     M anipulation  |
\*---------------------------------------------------------------------------*/
FoamFile
{
    version     2.0;
    format      ascii;
    class       volScalarField;
    location    "14";
    object      p;
}
// * * * * * * * * * * * * * * * * * * * * * * * * * * * * * * * * * * * * * //

dimensions      [0 2 -2 0 0 0 0];

internalField   nonuniform List<scalar> 
62000
(
0.0137748
0.0137792
0.0137844
0.0137904
0.0137977
0.0138061
0.0138163
0.0138281
0.0138421
0.0138583
0.0138775
0.0138995
0.0139251
0.0139544
0.0139883
0.0140268
0.014071
0.014121
0.0141779
0.014242
0.0143143
0.0143951
0.0144855
0.0145855
0.0146962
0.0148172
0.0149491
0.015091
0.015243
0.015403
0.0155701
0.0157409
0.0159125
0.0160781
0.0162316
0.0163658
0.0164731
0.0165437
0.0165661
0.0165275
0.0164147
0.0162143
0.015914
0.0155034
0.0149747
0.0143251
0.0135562
0.0126816
0.0117241
0.010723
0.00973276
0.00879528
0.00798129
0.0072554
0.0066034
0.00593724
0.00524409
0.00439747
0.00368578
0.00350069
0.0136887
0.0136936
0.0137
0.0137078
0.0137173
0.0137283
0.0137414
0.0137565
0.0137741
0.0137941
0.0138172
0.0138433
0.013873
0.0139065
0.0139446
0.0139873
0.0140356
0.0140899
0.0141511
0.0142197
0.0142967
0.0143825
0.0144782
0.014584
0.0147009
0.0148289
0.0149686
0.0151194
0.0152813
0.0154533
0.0156339
0.015821
0.0160111
0.0161988
0.0163778
0.0165423
0.0166852
0.0167975
0.0168682
0.0168851
0.0168349
0.0167039
0.0164789
0.0161476
0.0156992
0.0151264
0.0144246
0.0136003
0.0126688
0.0116647
0.0106424
0.00965059
0.00878117
0.00800808
0.00733036
0.00664718
0.00594182
0.00503559
0.00442312
0.00389662
0.0135682
0.0135737
0.0135814
0.0135909
0.0136026
0.0136162
0.0136324
0.0136509
0.0136722
0.0136963
0.0137236
0.013754
0.0137882
0.0138262
0.0138686
0.0139157
0.0139682
0.0140265
0.0140916
0.0141639
0.0142444
0.0143334
0.0144321
0.0145405
0.0146596
0.0147894
0.0149302
0.0150818
0.0152439
0.0154157
0.0155958
0.0157821
0.0159712
0.0161574
0.016335
0.0164983
0.0166411
0.0167547
0.0168287
0.0168511
0.0168089
0.0166885
0.0164765
0.0161596
0.0157252
0.0151628
0.0144619
0.013621
0.012645
0.0115581
0.0104086
0.00924642
0.00818263
0.00721802
0.00639468
0.00564593
0.00498434
0.00426581
0.00399087
0.00373876
0.013441
0.0134469
0.0134555
0.0134663
0.0134796
0.0134953
0.0135138
0.0135351
0.0135596
0.0135871
0.0136183
0.0136529
0.0136915
0.0137341
0.0137813
0.0138332
0.0138908
0.0139541
0.0140243
0.0141017
0.0141872
0.0142813
0.0143849
0.0144981
0.0146219
0.0147561
0.0149012
0.0150569
0.0152231
0.0153989
0.0155831
0.015774
0.015968
0.0161599
0.0163441
0.0165158
0.0166694
0.0167976
0.0168908
0.0169383
0.0169283
0.0168484
0.0166869
0.0164318
0.0160715
0.0155945
0.0149873
0.0142413
0.0133494
0.012321
0.011187
0.00998615
0.00883043
0.00773553
0.0067739
0.00591863
0.00521402
0.00456006
0.00441714
0.00440201
0.0133199
0.0133262
0.0133355
0.0133472
0.0133616
0.0133788
0.0133991
0.0134225
0.0134495
0.01348
0.0135143
0.0135525
0.013595
0.0136418
0.0136935
0.0137502
0.0138127
0.0138812
0.0139566
0.0140394
0.0141306
0.0142302
0.0143395
0.0144584
0.0145879
0.0147277
0.0148783
0.0150395
0.0152111
0.0153924
0.0155823
0.0157793
0.01598
0.0161793
0.0163719
0.0165535
0.0167196
0.0168639
0.0169783
0.0170533
0.0170788
0.0170445
0.0169414
0.016761
0.016495
0.016135
0.0156688
0.015085
0.0143687
0.0135143
0.012532
0.0114375
0.0103257
0.0092032
0.00815286
0.00716996
0.00632074
0.00553586
0.00527302
0.00511498
0.0132021
0.0132089
0.0132189
0.0132317
0.0132476
0.0132664
0.0132887
0.0133144
0.0133439
0.0133772
0.0134146
0.0134561
0.0135021
0.0135526
0.0136083
0.013669
0.0137358
0.0138086
0.0138885
0.0139757
0.0140711
0.014175
0.0142883
0.014411
0.0145438
0.0146865
0.0148395
0.0150023
0.0151748
0.0153561
0.0155452
0.0157403
0.0159381
0.0161332
0.0163204
0.0164953
0.0166539
0.0167906
0.0168978
0.0169666
0.0169876
0.0169525
0.0168546
0.0166893
0.0164534
0.0161441
0.0157549
0.0152783
0.0146985
0.0140031
0.0131864
0.0122435
0.0112462
0.0101831
0.00912762
0.00808473
0.00713148
0.00622549
0.00584268
0.00554299
0.0130961
0.0131032
0.0131139
0.0131277
0.0131447
0.0131651
0.0131892
0.0132169
0.0132488
0.0132845
0.0133247
0.0133691
0.0134182
0.013472
0.0135309
0.0135951
0.0136652
0.0137415
0.0138248
0.0139154
0.0140141
0.0141209
0.0142369
0.0143618
0.0144962
0.0146398
0.0147929
0.0149548
0.0151251
0.0153029
0.0154866
0.0156745
0.0158627
0.0160457
0.0162175
0.0163737
0.01651
0.0166206
0.0166973
0.0167308
0.0167114
0.0166307
0.0164836
0.0162681
0.0159853
0.015639
0.0152307
0.0147614
0.0142223
0.0136033
0.0128941
0.012077
0.0112073
0.0102531
0.00927651
0.00828203
0.00735083
0.00646659
0.00610659
0.00586632
0.0129992
0.0130069
0.0130186
0.0130336
0.0130522
0.0130743
0.0131003
0.0131302
0.0131645
0.0132028
0.0132458
0.0132932
0.0133455
0.0134026
0.013465
0.0135328
0.0136066
0.0136867
0.0137738
0.013868
0.0139705
0.0140809
0.0142004
0.0143285
0.0144659
0.0146122
0.0147674
0.0149309
0.0151022
0.01528
0.0154628
0.0156483
0.0158324
0.0160092
0.0161724
0.016317
0.0164385
0.0165301
0.0165826
0.0165852
0.0165266
0.016397
0.0161909
0.0159067
0.0155479
0.015123
0.0146407
0.0141118
0.0135377
0.0129175
0.0122445
0.0115001
0.0107301
0.00989155
0.00903281
0.00815691
0.00734027
0.00658695
0.00635064
0.00627305
0.012923
0.0129314
0.012944
0.0129601
0.0129799
0.0130035
0.0130313
0.0130632
0.0130996
0.0131405
0.0131861
0.0132364
0.0132918
0.0133523
0.0134182
0.0134897
0.0135676
0.0136519
0.0137435
0.0138426
0.0139501
0.0140659
0.0141911
0.0143253
0.0144692
0.0146223
0.0147849
0.0149564
0.0151361
0.015323
0.0155153
0.0157107
0.0159051
0.0160925
0.0162663
0.0164216
0.0165532
0.0166536
0.0167125
0.016717
0.0166534
0.0165098
0.0162782
0.0159553
0.015544
0.0150544
0.0144996
0.0138978
0.0132605
0.0125974
0.0119108
0.0111866
0.0104705
0.00971282
0.00895441
0.00819472
0.00750073
0.00688689
0.00676834
0.00681977
0.0128634
0.0128727
0.0128864
0.0129041
0.0129257
0.0129513
0.0129813
0.0130155
0.0130545
0.013098
0.0131466
0.0132
0.0132588
0.0133228
0.0133927
0.0134684
0.0135508
0.01364
0.013737
0.013842
0.013956
0.014079
0.0142121
0.0143551
0.0145089
0.0146732
0.0148484
0.015034
0.0152298
0.0154348
0.0156476
0.0158659
0.016086
0.0163018
0.0165074
0.0166977
0.0168677
0.0170095
0.0171114
0.0171589
0.0171359
0.0170277
0.0168228
0.0165144
0.0161026
0.0155954
0.0150064
0.0143574
0.0136662
0.0129519
0.0122254
0.0114813
0.0107682
0.0100376
0.00932427
0.00862669
0.00799809
0.00745706
0.00738256
0.00747048
0.0128382
0.0128481
0.0128627
0.0128813
0.0129041
0.0129309
0.0129622
0.012998
0.0130387
0.0130842
0.0131349
0.0131907
0.0132521
0.013319
0.013392
0.0134713
0.0135578
0.0136515
0.0137537
0.0138646
0.0139853
0.014116
0.014258
0.0144112
0.0145766
0.0147543
0.0149449
0.0151484
0.0153647
0.0155935
0.0158335
0.016083
0.0163387
0.0165951
0.0168467
0.0170892
0.0173178
0.0175246
0.0176973
0.0178201
0.017875
0.0178442
0.0177128
0.0174697
0.0171101
0.0166377
0.0160634
0.0154081
0.0146922
0.0139401
0.0131696
0.012383
0.0116345
0.0108778
0.0101466
0.00943925
0.00879723
0.00824107
0.00812544
0.00816627
0.0128397
0.0128503
0.0128658
0.0128853
0.0129089
0.0129366
0.0129688
0.0130055
0.0130473
0.013094
0.0131461
0.0132034
0.0132667
0.0133357
0.0134113
0.0134935
0.0135834
0.0136811
0.0137878
0.013904
0.0140308
0.0141687
0.014319
0.0144818
0.0146586
0.0148494
0.0150554
0.0152768
0.0155141
0.0157674
0.0160358
0.0163184
0.0166123
0.0169127
0.0172152
0.0175158
0.0178108
0.0180926
0.0183487
0.0185627
0.0187154
0.0187867
0.0187583
0.0186148
0.0183462
0.0179505
0.0174332
0.0168114
0.0161037
0.0153364
0.0145303
0.0136943
0.0128863
0.0120664
0.0112671
0.0104904
0.0097679
0.0091255
0.00890908
0.00885382
0.0128695
0.0128807
0.0128966
0.0129164
0.0129402
0.012968
0.0130003
0.0130372
0.0130791
0.0131261
0.0131786
0.0132366
0.0133006
0.0133707
0.0134475
0.0135313
0.0136231
0.0137233
0.0138331
0.0139529
0.0140843
0.0142275
0.0143843
0.0145549
0.0147408
0.0149426
0.0151615
0.0153981
0.0156534
0.0159279
0.0162215
0.0165335
0.0168619
0.0172026
0.0175519
0.017907
0.0182649
0.0186187
0.0189564
0.0192615
0.0195142
0.0196932
0.0197775
0.0197479
0.0195896
0.0192944
0.0188615
0.0183022
0.0176311
0.0168722
0.0160472
0.0151677
0.0142958
0.0133951
0.0125007
0.0116187
0.0107768
0.0100099
0.00966726
0.00950273
0.012902
0.012914
0.0129308
0.0129516
0.0129763
0.0130049
0.013038
0.0130755
0.0131181
0.0131657
0.0132187
0.0132772
0.0133419
0.0134126
0.0134902
0.0135749
0.0136679
0.0137695
0.013881
0.0140031
0.0141372
0.0142838
0.0144447
0.0146204
0.0148124
0.0150217
0.0152497
0.0154972
0.0157657
0.016056
0.0163685
0.0167031
0.0170583
0.0174307
0.0178177
0.0182171
0.0186269
0.0190413
0.0194489
0.0198337
0.0201764
0.0204546
0.020646
0.0207286
0.0206833
0.0204966
0.0201612
0.0196817
0.0190669
0.0183367
0.0175103
0.0166009
0.0156712
0.0146905
0.0136949
0.0126978
0.0117254
0.0108262
0.0103611
0.0100982
0.0129477
0.0129603
0.0129776
0.0129987
0.0130236
0.0130523
0.0130854
0.0131229
0.0131654
0.0132128
0.0132656
0.0133238
0.013388
0.0134584
0.0135356
0.0136199
0.0137126
0.0138141
0.0139257
0.0140481
0.0141829
0.0143306
0.0144932
0.0146712
0.0148663
0.0150795
0.0153124
0.0155662
0.0158425
0.0161424
0.0164667
0.0168159
0.0171889
0.0175831
0.0179963
0.0184272
0.0188748
0.0193344
0.0197955
0.020243
0.0206581
0.0210189
0.0213021
0.0214841
0.0215428
0.0214601
0.021223
0.0208297
0.0202824
0.0195958
0.0187854
0.017863
0.016892
0.0158442
0.0147584
0.0136546
0.0125621
0.0115447
0.0109783
0.0106411
0.0129913
0.0130046
0.0130224
0.0130438
0.0130688
0.0130974
0.0131301
0.0131671
0.013209
0.0132557
0.0133077
0.013365
0.0134283
0.0134977
0.013574
0.0136573
0.0137491
0.0138496
0.0139603
0.0140818
0.0142159
0.0143631
0.0145253
0.0147032
0.0148986
0.0151126
0.0153469
0.0156027
0.0158819
0.0161859
0.0165157
0.0168721
0.0172546
0.0176607
0.0180892
0.0185393
0.0190109
0.0195003
0.0199979
0.0204899
0.0209587
0.0213829
0.0217393
0.0220037
0.0221518
0.0221622
0.0220173
0.0217093
0.0212341
0.0206007
0.0198196
0.0189009
0.0179057
0.0168098
0.0156527
0.0144624
0.0132715
0.0121608
0.0115214
0.0111366
0.0130362
0.0130498
0.0130676
0.0130886
0.013113
0.0131406
0.0131722
0.0132079
0.0132485
0.0132937
0.0133442
0.0133999
0.0134615
0.0135291
0.0136034
0.0136848
0.0137746
0.013873
0.0139816
0.0141011
0.0142332
0.0143783
0.0145387
0.0147147
0.0149084
0.0151207
0.0153536
0.0156084
0.0158867
0.0161904
0.0165207
0.0168785
0.0172636
0.0176742
0.0181089
0.0185681
0.0190519
0.0195579
0.0200775
0.0205979
0.0211029
0.0215723
0.0219834
0.0223121
0.0225331
0.0226227
0.0225596
0.0223311
0.0219275
0.0213522
0.0206109
0.0197102
0.0187098
0.0175862
0.0163805
0.0151271
0.0138639
0.0126876
0.0120031
0.0115952
0.0130547
0.0130688
0.0130871
0.0131085
0.0131331
0.0131609
0.0131924
0.0132278
0.0132679
0.0133123
0.0133619
0.0134165
0.0134769
0.0135429
0.0136157
0.0136952
0.0137831
0.0138794
0.0139857
0.0141027
0.0142323
0.0143747
0.0145322
0.0147053
0.0148959
0.0151052
0.0153349
0.0155865
0.0158617
0.0161623
0.0164897
0.016845
0.0172283
0.0176376
0.0180726
0.0185333
0.019021
0.0195339
0.0200643
0.0206008
0.0211284
0.0216284
0.022079
0.0224565
0.0227356
0.0228912
0.0228992
0.0227429
0.022408
0.0218924
0.0211968
0.0203251
0.0193331
0.0181997
0.0169657
0.015672
0.0143606
0.0131432
0.012437
0.0120248
0.013066
0.0130801
0.0130983
0.0131194
0.0131435
0.0131706
0.0132013
0.0132357
0.0132747
0.013318
0.0133662
0.0134192
0.0134778
0.0135419
0.0136124
0.0136896
0.0137749
0.0138685
0.0139719
0.014086
0.0142124
0.0143516
0.0145058
0.0146755
0.0148625
0.015068
0.0152938
0.0155412
0.015812
0.0161081
0.0164309
0.0167816
0.0171604
0.0175658
0.0179971
0.0184551
0.0189414
0.0194549
0.0199888
0.0205329
0.0210735
0.0215931
0.0220714
0.0224855
0.0228102
0.0230199
0.0230885
0.0229966
0.0227254
0.0222686
0.0216223
0.0207868
0.0198155
0.018687
0.0174422
0.0161266
0.0147872
0.0135484
0.0128376
0.0124341
0.0130586
0.0130728
0.0130908
0.0131115
0.0131349
0.013161
0.0131906
0.0132238
0.0132614
0.013303
0.0133495
0.0134008
0.0134575
0.0135196
0.013588
0.013663
0.013746
0.0138372
0.0139381
0.0140494
0.0141729
0.014309
0.0144599
0.0146262
0.0148096
0.0150112
0.015233
0.0154761
0.0157424
0.0160337
0.0163514
0.0166969
0.0170707
0.0174706
0.017897
0.0183504
0.0188328
0.0193438
0.0198775
0.0204245
0.0209724
0.0215051
0.0220034
0.0224457
0.0228073
0.0230623
0.0231835
0.0231491
0.022937
0.0225368
0.0219405
0.0211455
0.0202009
0.019087
0.0178433
0.0165197
0.0151663
0.0139193
0.0132149
0.0128276
0.0130426
0.0130564
0.0130735
0.013093
0.0131149
0.0131392
0.0131669
0.013198
0.0132334
0.0132729
0.0133172
0.0133661
0.0134203
0.01348
0.0135459
0.0136182
0.0136985
0.0137869
0.013885
0.0139934
0.014114
0.0142472
0.0143951
0.0145582
0.0147383
0.0149366
0.0151547
0.015394
0.0156563
0.0159434
0.0162567
0.0165975
0.0169663
0.0173617
0.0177832
0.018232
0.0187103
0.0192181
0.0197502
0.0202981
0.0208507
0.0213929
0.0219067
0.0223717
0.022764
0.0230576
0.0232248
0.0232418
0.023084
0.0227372
0.0221902
0.0214371
0.0205245
0.0194319
0.0181977
0.0168749
0.015517
0.0142702
0.013578
0.01321
0.0129896
0.0130031
0.01302
0.0130392
0.0130608
0.0130847
0.0131117
0.013142
0.0131765
0.0132148
0.0132578
0.0133053
0.013358
0.013416
0.0134801
0.0135505
0.0136288
0.0137151
0.013811
0.0139172
0.0140355
0.0141662
0.0143116
0.0144721
0.0146496
0.0148452
0.0150605
0.0152969
0.0155562
0.0158401
0.0161501
0.0164875
0.016853
0.0172446
0.0176628
0.0181083
0.0185836
0.0190893
0.0196206
0.0201698
0.0207268
0.0212776
0.0218054
0.0222907
0.0227104
0.0230389
0.0232478
0.023312
0.0232046
0.0229083
0.0224088
0.0216975
0.0208172
0.0197483
0.0185276
0.0172106
0.0158527
0.0146096
0.0139313
0.0135826
0.0129243
0.0129372
0.0129534
0.0129717
0.0129921
0.0130148
0.0130406
0.0130696
0.0131026
0.0131395
0.0131809
0.0132267
0.0132776
0.0133336
0.0133957
0.0134639
0.01354
0.013624
0.0137177
0.0138216
0.0139378
0.0140664
0.0142098
0.0143684
0.014544
0.0147378
0.0149513
0.0151859
0.0154434
0.0157255
0.0160336
0.0163693
0.0167329
0.0171232
0.0175397
0.0179839
0.0184583
0.0189639
0.0194962
0.0200483
0.0206109
0.0211708
0.0217124
0.0222172
0.0226626
0.0230236
0.0232711
0.023379
0.0233185
0.0230695
0.022615
0.0219442
0.0210971
0.0200535
0.0188483
0.0175387
0.0161828
0.0149441
0.0142788
0.013947
0.0128353
0.0128478
0.0128632
0.0128805
0.0128999
0.0129213
0.0129457
0.0129732
0.0130046
0.0130398
0.0130795
0.0131236
0.0131728
0.0132271
0.0132875
0.0133541
0.0134286
0.0135111
0.0136032
0.0137057
0.0138204
0.0139476
0.0140898
0.0142472
0.0144217
0.0146146
0.0148273
0.0150614
0.0153184
0.0156001
0.015908
0.0162437
0.0166077
0.0169981
0.0174155
0.0178607
0.0183367
0.0188446
0.0193805
0.0199379
0.0205083
0.0210795
0.0216364
0.0221614
0.0226327
0.0230254
0.0233103
0.02346
0.0234441
0.02324
0.0228283
0.0221961
0.0213798
0.0203601
0.0191697
0.0178672
0.0165124
0.0152764
0.0146211
0.0143026
0.0127354
0.0127469
0.012761
0.0127767
0.0127941
0.0128135
0.0128356
0.0128608
0.01289
0.012923
0.0129605
0.0130024
0.0130495
0.0131018
0.0131601
0.0132248
0.0132974
0.0133782
0.0134688
0.0135699
0.0136835
0.0138098
0.0139513
0.0141083
0.0142827
0.0144756
0.0146886
0.0149233
0.015181
0.0154639
0.0157732
0.0161106
0.0164765
0.0168697
0.0172899
0.0177386
0.0182186
0.0187314
0.0192735
0.0198388
0.0204196
0.0210041
0.0215781
0.0221246
0.0226224
0.0230467
0.023368
0.0235582
0.0235848
0.0234233
0.0230518
0.022456
0.0216701
0.0206736
0.019497
0.0182
0.0168445
0.0156084
0.0149592
0.0146498
0.0125916
0.0126026
0.0126163
0.0126315
0.0126486
0.0126674
0.012689
0.0127136
0.0127421
0.0127742
0.0128109
0.0128518
0.012898
0.0129492
0.0130067
0.0130704
0.0131423
0.0132224
0.0133124
0.013413
0.0135263
0.0136525
0.0137942
0.0139516
0.0141266
0.0143205
0.0145349
0.0147712
0.015031
0.0153163
0.0156284
0.015969
0.016339
0.0167363
0.0171616
0.0176159
0.0181023
0.0186227
0.0191736
0.0197496
0.0203436
0.020944
0.0215376
0.0221075
0.0226335
0.0230903
0.0234487
0.0236788
0.0237472
0.0236267
0.0232937
0.0227327
0.0219739
0.0209981
0.019833
0.0185389
0.0171797
0.01594
0.0152922
0.0149873
0.0124319
0.012442
0.0124547
0.012469
0.012485
0.0125028
0.0125233
0.0125468
0.0125742
0.0126054
0.0126411
0.012681
0.0127262
0.0127765
0.0128329
0.0128956
0.0129666
0.013046
0.0131355
0.0132358
0.0133492
0.0134758
0.0136182
0.0137768
0.0139533
0.0141491
0.0143657
0.0146048
0.0148678
0.0151566
0.0154729
0.0158183
0.0161933
0.0165969
0.0170288
0.0174907
0.0179855
0.0185157
0.0190779
0.019667
0.0202764
0.0208953
0.0215105
0.0221059
0.0226613
0.0231517
0.0235473
0.0238172
0.0239264
0.0238458
0.023549
0.023021
0.0222892
0.0213331
0.0201776
0.018884
0.0175184
0.0162711
0.0156202
0.015315
0.0122431
0.0122526
0.0122645
0.0122779
0.012293
0.0123098
0.0123292
0.0123517
0.0123781
0.0124083
0.0124431
0.0124823
0.0125269
0.0125766
0.0126328
0.0126954
0.0127665
0.0128461
0.0129361
0.0130371
0.0131515
0.0132793
0.0134233
0.0135838
0.0137626
0.0139611
0.014181
0.0144236
0.0146907
0.0149842
0.0153057
0.0156568
0.0160387
0.0164492
0.0168895
0.0173604
0.0178655
0.0184075
0.0189831
0.0195877
0.0202152
0.020855
0.0214942
0.0221173
0.0227042
0.0232296
0.0236637
0.023974
0.0241243
0.0240828
0.0238218
0.0233254
0.022618
0.0216791
0.0205307
0.0192347
0.0178592
0.0166005
0.0159415
0.0156315
0.012041
0.0120494
0.01206
0.0120718
0.0120851
0.0121
0.0121177
0.0121384
0.0121633
0.0121921
0.0122257
0.0122638
0.0123075
0.0123566
0.0124122
0.0124745
0.0125457
0.0126256
0.0127161
0.0128181
0.0129339
0.0130634
0.0132097
0.0133727
0.0135546
0.0137566
0.0139804
0.0142275
0.0144995
0.0147985
0.0151262
0.015484
0.0158731
0.0162922
0.0167416
0.017223
0.0177399
0.0182952
0.0188861
0.0195081
0.0201555
0.0208182
0.0214834
0.0221359
0.0227558
0.0233178
0.0237911
0.0241423
0.0243336
0.0243312
0.0241044
0.0236391
0.0229561
0.0220336
0.0208907
0.0195899
0.0182016
0.0169275
0.0162559
0.0159366
0.0117903
0.0117982
0.0118085
0.0118202
0.0118335
0.0118487
0.0118665
0.0118875
0.0119126
0.0119417
0.0119757
0.0120143
0.0120586
0.0121083
0.0121649
0.0122282
0.0123006
0.012382
0.0124743
0.0125783
0.0126964
0.0128284
0.0129776
0.013144
0.0133295
0.0135357
0.0137641
0.0140164
0.0142941
0.0145992
0.0149336
0.0152988
0.0156963
0.0161241
0.0165837
0.0170765
0.0176063
0.0181764
0.0187842
0.0194253
0.0200947
0.0207823
0.0214756
0.0221595
0.0228145
0.0234146
0.023929
0.0243222
0.0245555
0.0245921
0.0244
0.0239652
0.0233047
0.0223965
0.0212566
0.0199484
0.0185442
0.017251
0.016562
0.0162293
0.0115243
0.0115313
0.0115408
0.0115519
0.0115648
0.0115794
0.0115971
0.0116179
0.0116431
0.0116725
0.0117069
0.011746
0.0117909
0.0118414
0.0118988
0.0119631
0.0120367
0.0121196
0.0122137
0.0123198
0.0124404
0.0125754
0.0127281
0.0128983
0.0130881
0.0132991
0.0135327
0.0137906
0.0140745
0.0143863
0.014728
0.015101
0.0155068
0.0159445
0.0164146
0.0169196
0.0174631
0.0180493
0.018675
0.0193367
0.0200293
0.0207433
0.0214661
0.0221832
0.0228746
0.0235144
0.0240708
0.0245072
0.0247829
0.0248595
0.0247017
0.0242972
0.0236595
0.022765
0.0216269
0.0203092
0.0188865
0.0175703
0.0168596
0.0165094
0.0112324
0.0112388
0.0112478
0.0112584
0.0112707
0.0112851
0.0113024
0.0113231
0.0113485
0.0113781
0.011413
0.0114528
0.0114989
0.0115506
0.0116096
0.0116758
0.0117516
0.0118369
0.0119338
0.0120429
0.0121669
0.0123056
0.0124622
0.0126369
0.0128315
0.0130477
0.013287
0.013551
0.0138414
0.0141603
0.0145093
0.0148904
0.0153053
0.0157523
0.0162337
0.0167512
0.0173094
0.0179122
0.0185571
0.0192404
0.0199578
0.0206997
0.0214539
0.0222058
0.0229357
0.0236168
0.0242172
0.0246981
0.025018
0.0251351
0.0250128
0.0246385
0.0240223
0.0231395
0.0220009
0.0206714
0.019227
0.0178843
0.0171473
0.0167761
0.0109328
0.0109382
0.010946
0.0109553
0.0109665
0.0109796
0.0109959
0.0110158
0.0110406
0.01107
0.011105
0.0111453
0.011192
0.0112449
0.0113052
0.011373
0.0114509
0.0115385
0.0116381
0.0117504
0.0118781
0.0120207
0.0121819
0.0123614
0.0125612
0.012783
0.0130282
0.0132987
0.0135958
0.0139218
0.0142785
0.0146677
0.0150912
0.0155484
0.0160409
0.0165713
0.0171445
0.0177646
0.0184293
0.0191349
0.0198779
0.0206489
0.0214357
0.0222237
0.0229934
0.0237174
0.024363
0.02489
0.0252549
0.0254141
0.0253276
0.024984
0.0243894
0.0235178
0.0223775
0.0210342
0.0195655
0.0181924
0.017425
0.0170291
0.0105914
0.0105963
0.0106041
0.0106137
0.0106254
0.0106394
0.0106568
0.0106778
0.010704
0.010735
0.0107718
0.010814
0.010863
0.0109182
0.0109812
0.011052
0.0111331
0.0112243
0.0113276
0.0114439
0.0115759
0.0117232
0.0118892
0.0120739
0.0122793
0.0125069
0.0127583
0.0130351
0.0133391
0.0136721
0.0140363
0.0144335
0.0148661
0.0153328
0.0158366
0.0163802
0.0169683
0.017606
0.0182908
0.0190196
0.0197892
0.0205904
0.0214112
0.0222371
0.0230484
0.0238171
0.02451
0.0250847
0.0254967
0.0256991
0.02565
0.0253373
0.0247633
0.0239006
0.0227565
0.0213969
0.0199009
0.0184939
0.0176917
0.017268
0.0102439
0.0102479
0.0102551
0.0102645
0.0102763
0.0102904
0.0103083
0.0103302
0.0103576
0.0103901
0.0104287
0.010473
0.0105243
0.010582
0.0106478
0.0107215
0.0108058
0.0109004
0.0110075
0.0111279
0.0112644
0.0114163
0.0115874
0.0117775
0.0119883
0.0122218
0.0124792
0.0127624
0.0130729
0.0134129
0.0137844
0.0141895
0.0146305
0.0151071
0.0156218
0.0161781
0.0167811
0.0174363
0.0181413
0.0188935
0.0196903
0.0205227
0.0213785
0.0222435
0.0230977
0.0239128
0.0246543
0.0252785
0.0257388
0.0259863
0.0259756
0.0256944
0.025141
0.0242868
0.0231374
0.0217594
0.020233
0.018788
0.0179472
0.0174923
0.00987585
0.00987908
0.00988567
0.00989465
0.00990647
0.0099212
0.0099402
0.00996365
0.00999318
0.0100282
0.0100698
0.0101173
0.0101722
0.0102337
0.0103035
0.0103812
0.0104699
0.0105689
0.0106807
0.0108058
0.0109471
0.011104
0.0112802
0.0114755
0.0116917
0.0119307
0.0121938
0.0124829
0.0127995
0.013146
0.0135244
0.0139369
0.0143863
0.0148716
0.015397
0.0159655
0.016583
0.0172554
0.0179808
0.0187569
0.0195816
0.0204461
0.0213383
0.022244
0.0231429
0.0240062
0.0247984
0.0254741
0.0259848
0.0262788
0.0263083
0.0260589
0.025525
0.024677
0.0235201
0.0221208
0.0205608
0.0190742
0.0181906
0.0177017
0.00949151
0.00949528
0.00950437
0.00951659
0.00953253
0.00955138
0.00957471
0.00960211
0.00963548
0.00967402
0.00971901
0.00976958
0.00982752
0.00989194
0.00996476
0.0100456
0.0101377
0.0102403
0.0103558
0.0104848
0.0106303
0.0107914
0.0109721
0.0111719
0.0113928
0.0116366
0.0119047
0.0121989
0.012521
0.0128732
0.0132578
0.013677
0.0141334
0.0146274
0.0151624
0.0157427
0.0163741
0.0170634
0.0178091
0.0186092
0.0194622
0.0203597
0.0212892
0.0222368
0.0231819
0.0240949
0.0249394
0.0256683
0.0262311
0.0265733
0.0266442
0.0264273
0.025913
0.0250705
0.0239044
0.0224813
0.0208842
0.0193517
0.0184214
0.0178957
0.00919988
0.00920049
0.00920517
0.00921304
0.00922387
0.00923825
0.00925699
0.00928078
0.00931095
0.00934736
0.00939086
0.00944084
0.00949882
0.00956403
0.00963814
0.00972085
0.00981513
0.00992029
0.0100386
0.0101706
0.0103192
0.0104835
0.0106675
0.0108708
0.0110951
0.0113426
0.0116144
0.0119127
0.0122391
0.0125958
0.0129855
0.0134101
0.0138731
0.0143742
0.0149184
0.0155097
0.0161546
0.0168606
0.0176264
0.0184509
0.0193329
0.0202641
0.0212323
0.0222233
0.0232164
0.0241812
0.0250801
0.0258642
0.0264811
0.0268732
0.026987
0.0268029
0.0263073
0.0254682
0.0242901
0.0228399
0.0212021
0.01962
0.0186391
0.0180742
0.00887232
0.00887376
0.00888057
0.00889065
0.00890456
0.00892163
0.00894335
0.0089695
0.00900192
0.00904001
0.00908489
0.00913581
0.00919445
0.00926009
0.00933452
0.00941753
0.00951225
0.00961798
0.00973701
0.00986996
0.0100198
0.0101854
0.0103709
0.0105758
0.0108019
0.0110513
0.0113252
0.0116258
0.0119548
0.0123147
0.0127078
0.0131368
0.0136048
0.0141127
0.014665
0.0152667
0.0159245
0.0166468
0.0174328
0.0182816
0.019193
0.0201587
0.0211665
0.0222022
0.0232447
0.024263
0.025218
0.0260591
0.0267316
0.0271753
0.0273332
0.0271826
0.0267056
0.0258692
0.0246771
0.0231968
0.0215144
0.0198783
0.0188431
0.0182364
0.00865397
0.00865278
0.00865507
0.00866014
0.00866797
0.00867927
0.00869496
0.00871582
0.00874325
0.00877719
0.00881837
0.00886624
0.00892218
0.00898558
0.00905798
0.00913927
0.00923243
0.00933685
0.00945464
0.00958657
0.00973545
0.00990033
0.0100852
0.0102896
0.0105152
0.0107645
0.0110384
0.0113394
0.0116693
0.0120304
0.0124257
0.0128574
0.0133297
0.0138425
0.0144023
0.0150136
0.0156838
0.0164221
0.0172282
0.0181017
0.0190431
0.0200442
0.0210928
0.0221748
0.0232687
0.0243424
0.0253557
0.0262559
0.026986
0.0274828
0.027686
0.027569
0.02711
0.0262741
0.025065
0.0235508
0.0218198
0.020126
0.0190327
0.0183822
0.00838106
0.00838198
0.008388
0.00839706
0.00840973
0.00842524
0.00844506
0.00846894
0.00849881
0.00853405
0.00857571
0.00862308
0.00867778
0.00873924
0.00880917
0.00888762
0.00897772
0.00907899
0.00919357
0.00932232
0.00946811
0.00962995
0.00981194
0.0100136
0.0102366
0.0104834
0.0107552
0.0110546
0.0113832
0.0117438
0.0121392
0.0125722
0.0130466
0.013564
0.0141299
0.0147501
0.0154322
0.0161863
0.0170123
0.0179106
0.0188823
0.0199196
0.0210102
0.0221398
0.0232866
0.0244176
0.0254909
0.0264519
0.0272411
0.0277924
0.0280419
0.0279592
0.0275181
0.0266818
0.0254533
0.0239018
0.022118
0.0203621
0.0192074
0.0185107
0.00823496
0.00823402
0.00823657
0.0082416
0.00824886
0.00825884
0.00827229
0.00829008
0.00831353
0.00834279
0.00837839
0.00842007
0.00846909
0.00852514
0.00858966
0.00866288
0.00874776
0.00884393
0.00895336
0.00907705
0.00921776
0.00937455
0.00955153
0.00974824
0.00996641
0.0102087
0.0104762
0.0107716
0.0110969
0.0114548
0.0118485
0.0122807
0.0127563
0.0132761
0.0138474
0.0144757
0.0151693
0.0159388
0.0167848
0.0177082
0.0187109
0.0197853
0.0209192
0.0220981
0.0232999
0.0244903
0.0256258
0.0266496
0.0274998
0.0281069
0.0284037
0.0283554
0.0279313
0.0270924
0.0258413
0.0242483
0.0224078
0.0205861
0.0193667
0.0186223
0.00806673
0.00806666
0.0080693
0.00807366
0.00808014
0.00808865
0.00810047
0.00811605
0.00813711
0.00816351
0.00819598
0.00823408
0.00827917
0.00833087
0.00839067
0.00845877
0.00853823
0.00862865
0.008732
0.00884936
0.00898351
0.00913353
0.00930363
0.00949342
0.00970461
0.00994009
0.010201
0.0104903
0.01081
0.0111631
0.0115529
0.0119827
0.0124572
0.0129787
0.0135541
0.0141897
0.0148941
0.0156788
0.0165446
0.0174933
0.0185276
0.0196401
0.0208185
0.0220483
0.0233068
0.0245584
0.0257581
0.0268465
0.0277591
0.0284233
0.028768
0.0287543
0.0283471
0.0275046
0.0262283
0.0245902
0.0226885
0.0207969
0.0195096
0.0187158
0.00791114
0.00791236
0.00791621
0.00792148
0.00792852
0.00793708
0.00794846
0.00796299
0.00798253
0.0080068
0.00803659
0.00807136
0.00811253
0.00815968
0.0082143
0.00827666
0.00834981
0.00843343
0.00852941
0.008639
0.00876496
0.00890645
0.00906774
0.00924854
0.00945062
0.00967705
0.00992911
0.0102099
0.0105217
0.0108677
0.0112517
0.0116769
0.0121492
0.0126701
0.0132486
0.0138906
0.0146052
0.0154049
0.0162908
0.0172653
0.018332
0.0194837
0.0207083
0.0219909
0.0233082
0.0246235
0.0258895
0.0270446
0.0280212
0.0287436
0.0291371
0.0291578
0.0287665
0.0279179
0.0266128
0.0249255
0.0229588
0.020994
0.0196362
0.0187917
0.00778376
0.00778594
0.00779107
0.00779763
0.00780563
0.00781463
0.00782577
0.00783938
0.00785726
0.00787912
0.00790572
0.0079365
0.00797287
0.00801442
0.00806267
0.00811793
0.0081833
0.00825851
0.00834545
0.00844546
0.00856134
0.00869229
0.00884271
0.00901238
0.00920309
0.0094182
0.00965904
0.00992907
0.0102306
0.0105674
0.0109433
0.0113621
0.0118296
0.0123491
0.0129292
0.0135767
0.0143012
0.0151157
0.0160217
0.0170225
0.0181224
0.0193147
0.0205868
0.0219241
0.0233023
0.0246833
0.0260178
0.0272413
0.0282833
0.0290648
0.0295073
0.0295625
0.0291866
0.0283306
0.0269942
0.025254
0.0232181
0.0211759
0.0197449
0.0188486
0.00771492
0.00771701
0.00772145
0.00772673
0.00773273
0.00773908
0.00774689
0.00775662
0.00777003
0.00778692
0.0078079
0.00783246
0.0078619
0.00789588
0.00793579
0.00798204
0.00803769
0.00810257
0.00817847
0.00826688
0.00837059
0.00848887
0.0086262
0.00878249
0.00895954
0.00916099
0.0093883
0.00964518
0.00993426
0.0102594
0.0106251
0.0110353
0.011497
0.012013
0.0125938
0.0132461
0.0139799
0.0148092
0.0157358
0.0167636
0.0178979
0.0191322
0.020454
0.0218481
0.0232897
0.0247388
0.0261441
0.0274381
0.0285471
0.0293888
0.0298807
0.0299699
0.0296081
0.0287422
0.0273708
0.0255735
0.0234648
0.0213426
0.0198362
0.0188873
0.00770126
0.00770274
0.00770531
0.00770751
0.00770925
0.00771033
0.00771196
0.0077148
0.00772071
0.00772961
0.00774206
0.00775759
0.00777745
0.00780133
0.00783053
0.00786548
0.00790924
0.00796161
0.00802437
0.00809905
0.00818847
0.00829194
0.00841403
0.00855473
0.0087159
0.00890148
0.009113
0.00935455
0.00962894
0.00994051
0.0102941
0.0106941
0.0111479
0.0116598
0.0122401
0.0128965
0.0136394
0.0144835
0.0154311
0.0164867
0.0176566
0.0189346
0.0203079
0.021761
0.0232682
0.0247879
0.0262662
0.0276326
0.0288098
0.0297122
0.0302536
0.0303766
0.0300282
0.0291508
0.0277417
0.0258838
0.0236982
0.0214923
0.0199085
0.018906
0.00771069
0.00771198
0.00771298
0.00771229
0.00770978
0.00770538
0.00770038
0.00769564
0.00769315
0.00769296
0.00769558
0.00770065
0.00770936
0.00772149
0.00773824
0.00776014
0.00779017
0.00782824
0.00787597
0.00793508
0.00800832
0.00809506
0.00819999
0.00832319
0.00846656
0.00863432
0.00882819
0.00905252
0.00931052
0.00960679
0.00994673
0.0103351
0.0107803
0.0112863
0.0118655
0.0125255
0.0132772
0.0141364
0.0151056
0.0161902
0.0173973
0.0187208
0.0201478
0.0216626
0.0232381
0.0248311
0.0263849
0.0278259
0.0290728
0.0300369
0.0306278
0.0307839
0.0304474
0.0295555
0.0281049
0.0261826
0.0239171
0.0216252
0.0199622
0.0189057
0.00771554
0.00771692
0.00771688
0.007714
0.00770809
0.00769908
0.00768828
0.0076767
0.00766637
0.00765745
0.00765041
0.00764494
0.00764222
0.00764205
0.00764566
0.00765361
0.00766893
0.00769155
0.00772309
0.00776534
0.0078211
0.00788978
0.00797619
0.00808051
0.00820468
0.00835328
0.00852811
0.00873398
0.00897428
0.00925412
0.00957922
0.00995499
0.01039
0.01089
0.0114672
0.0121305
0.0128911
0.0137658
0.0147575
0.0158721