/*--------------------------------*- C++ -*----------------------------------*\
  =========                 |
  \\      /  F ield         | OpenFOAM: The Open Source CFD Toolbox
   \\    /   O peration     | Website:  https://openfoam.org
    \\  /    A nd           | Version:  6.0
     \\/     M anipulation  |
\*---------------------------------------------------------------------------*/
FoamFile
{
    version     2.0;
    format      ascii;
    class       surfaceScalarField;
    location    "1";
    object      phi;
}
// * * * * * * * * * * * * * * * * * * * * * * * * * * * * * * * * * * * * * //

dimensions      [0 3 -1 0 0 0 0];

internalField   nonuniform List<scalar> 
93586
(
2.38457e-05
0.00154617
1.64588e-10
4.79394e-05
0.0015411
7.20789e-05
0.00153155
9.60747e-05
0.0015177
0.000119801
0.00149968
0.000143177
0.00147766
0.000166148
0.00145177
0.000188664
0.0014221
0.000210681
0.00138874
0.000232148
0.00135174
0.000253007
0.00131116
0.000273204
0.00126707
0.000292679
0.00121955
0.000311373
0.00116871
0.000329229
0.00111467
0.000346195
0.00105755
0.000362218
0.000997499
0.00037725
0.000934684
0.000391246
0.000869267
0.000404166
0.000801421
0.000415971
0.00073133
0.000426627
0.000659175
0.000436104
0.00058515
0.000444374
0.000509443
0.000451412
0.000432247
0.0004572
0.00035375
0.000461719
0.000274134
0.000464956
0.000193565
0.000466898
0.000112177
3.00333e-05
0.000467504
2.34397e-05
0.00152273
1.66405e-10
4.71304e-05
0.00151741
7.0877e-05
0.00150781
9.44943e-05
0.00149408
0.000117857
0.00147632
0.000140882
0.00145464
0.000163512
0.00142914
0.000185695
0.00139993
0.000207385
0.00136705
0.000228529
0.0013306
0.000249073
0.00129062
0.000268962
0.00124719
0.000288137
0.00120039
0.000306543
0.00115032
0.000324123
0.00109709
0.000340825
0.00104085
0.000356598
0.000981734
0.000371396
0.000919894
0.000385174
0.000855496
0.000397892
0.000788711
0.000409513
0.000719716
0.000420003
0.000648693
0.000429331
0.000575829
0.000437471
0.000501311
0.000444399
0.000425327
0.000450095
0.000348063
0.000454541
0.000269697
0.000457724
0.000190393
0.000459629
0.000110283
2.94563e-05
0.000460225
2.30439e-05
0.00149968
1.69924e-10
4.63407e-05
0.00149412
6.97021e-05
0.00148445
9.29467e-05
0.00147084
0.000115951
0.00145332
0.000138628
0.00143196
0.00016092
0.00140685
0.000182773
0.00137807
0.000204139
0.00134569
0.000224966
0.00130977
0.000245199
0.00127039
0.000264785
0.0012276
0.000283665
0.00118151
0.000301788
0.00113219
0.000319095
0.00107979
0.000335538
0.00102441
0.000351066
0.000966205
0.000365633
0.000905326
0.000379196
0.000841932
0.000391716
0.00077619
0.000403156
0.000708275
0.000413482
0.000638365
0.000422664
0.000566644
0.000430676
0.000493296
0.000437495
0.000418506
0.0004431
0.000342455
0.000447475
0.000265319
0.000450605
0.000187258
0.000452476
0.000108407
2.88563e-05
0.000453062
2.26577e-05
0.00147702
1.81615e-10
4.55694e-05
0.0014712
6.85528e-05
0.00146146
9.14306e-05
0.00144796
0.00011408
0.00143067
0.000136414
0.00140963
0.000158372
0.00138489
0.000179898
0.00135655
0.000200944
0.00132464
0.000221458
0.00128926
0.000241384
0.00125047
0.000260671
0.00120832
0.000279262
0.00116292
0.000297105
0.00111436
0.000314144
0.00106275
0.000330332
0.00100823
0.000345619
0.000950923
0.00035996
0.00089099
0.000373311
0.000828584
0.000385636
0.00076387
0.000396897
0.000697019
0.000407062
0.000628205
0.0004161
0.00055761
0.000423987
0.000485414
0.000430699
0.000411799
0.000436215
0.000336944
0.00044052
0.00026102
0.000443598
0.000184187
0.000445436
0.000106576
2.82909e-05
0.000446013
2.22805e-05
0.00145474
1.91496e-10
4.48154e-05
0.00144867
6.74281e-05
0.00143885
8.99448e-05
0.00142544
0.000112244
0.00140837
0.000134238
0.00138764
0.000155866
0.00136326
0.000177069
0.00133535
0.0001978
0.00130391
0.000218004
0.00126906
0.000237628
0.00123084
0.00025662
0.00118933
0.000274926
0.00114461
0.000292494
0.00109679
0.00030927
0.00104597
0.000325207
0.000992287
0.000340256
0.000935871
0.000354374
0.00087687
0.000367518
0.000815437
0.00037965
0.000751735
0.000390735
0.000685931
0.000400742
0.000618196
0.000409639
0.000548709
0.000417402
0.000477648
0.000424008
0.00040519
0.000429437
0.000331511
0.000433673
0.00025678
0.0004367
0.000181154
0.000438507
0.000104763
2.77082e-05
0.000439075
2.19119e-05
0.00143283
2.01699e-10
4.40779e-05
0.0014265
6.63267e-05
0.0014166
8.84882e-05
0.00140328
0.000110442
0.00138641
0.000132101
0.00136598
0.000153402
0.00134196
0.000174286
0.00131446
0.000194704
0.00128349
0.000214603
0.00124916
0.000233929
0.00121151
0.000252631
0.00117063
0.000270656
0.00112659
0.000287953
0.00107949
0.00030447
0.00102946
0.000320161
0.000976599
0.000334976
0.000921058
0.000348875
0.000862975
0.000361814
0.000802501
0.000373758
0.000739795
0.00038467
0.000675021
0.00039452
0.000608349
0.000403278
0.000539955
0.000410919
0.00047001
0.000417421
0.000398692
0.000422765
0.000326172
0.000426933
0.000252617
0.000429911
0.000178181
0.000431687
0.000102993
2.71579e-05
0.000432246
2.15513e-05
0.00141128
2.06762e-10
4.33561e-05
0.0014047
6.52477e-05
0.00139471
8.70598e-05
0.00138147
0.000108673
0.0013648
0.000130001
0.00134465
0.000150979
0.00132098
0.000171548
0.0012939
0.000191657
0.00126338
0.000211255
0.00122956
0.000230287
0.00119248
0.000248704
0.00115221
0.000266452
0.00110884
0.000283483
0.00106246
0.000299745
0.00101319
0.000315192
0.000961151
0.000329778
0.00090647
0.00034346
0.00084929
0.000356198
0.00078976
0.000367956
0.000728035
0.000378698
0.000664276
0.000388395
0.00059865
0.000397016
0.00053133
0.000404538
0.000462485
0.000410937
0.000392288
0.000416196
0.000320909
0.000420298
0.00024851
0.000423227
0.000175245
0.000424974
0.000101239
2.65942e-05
0.000425524
2.11985e-05
0.00139008
2.11194e-10
4.26492e-05
0.00138325
6.41902e-05
0.00137317
8.56584e-05
0.00136
0.000106936
0.00134352
0.000127937
0.00132365
0.000148596
0.00130033
0.000168853
0.00127364
0.000188659
0.00124358
0.000207959
0.00121027
0.000226702
0.00117374
0.000244837
0.00113408
0.000262313
0.00109136
0.000279082
0.00104569
0.000295093
0.000997181
0.000310301
0.000945945
0.00032466
0.000892112
0.00033813
0.000835823
0.00035067
0.000777222
0.000362245
0.000716463
0.00037282
0.000653704
0.000382365
0.000589108
0.000390851
0.000522846
0.000398255
0.000455085
0.000404554
0.000385993
0.00040973
0.000315737
0.000413766
0.000244479
0.000416649
0.000172367
0.000418367
9.95267e-05
2.60605e-05
0.000418908
2.08529e-05
0.00136923
2.13779e-10
4.19567e-05
0.00136214
6.31534e-05
0.00135197
8.42832e-05
0.00133887
0.000105231
0.00132257
0.000125908
0.00130297
0.000146253
0.00127998
0.000166203
0.00125369
0.000185708
0.00122407
0.000204715
0.00119126
0.000223172
0.00115528
0.00024103
0.00111622
0.000258238
0.00107415
0.000274748
0.00102918
0.000290512
0.000981416
0.000305485
0.00093097
0.000319622
0.000877973
0.000332883
0.00082256
0.000345228
0.000764874
0.000356623
0.000705066
0.000367032
0.000643291
0.000376429
0.00057971
0.000384783
0.000514489
0.000392071
0.000447794
0.000398271
0.000379789
0.000403365
0.000310639
0.000407337
0.000240502
0.000410173
0.000169526
0.000411863
9.78309e-05
2.55162e-05
0.000412395
2.05144e-05
0.00134871
2.14444e-10
4.12778e-05
0.00134138
6.21364e-05
0.00133111
8.29334e-05
0.00131807
0.000103555
0.00130195
0.000123915
0.00128261
0.000143948
0.00125995
0.000163594
0.00123404
0.000182803
0.00120486
0.000201521
0.00117254
0.000219697
0.00113711
0.000237281
0.00109863
0.000254225
0.00105721
0.000270482
0.00101293
0.000286002
0.000965896
0.000300743
0.000916231
0.000314661
0.000864057
0.000327716
0.000809507
0.00033987
0.000752722
0.000351087
0.000693851
0.000361335
0.000633045
0.000370585
0.000570462
0.000378809
0.000506268
0.000385983
0.000440623
0.000392085
0.000373689
0.000397099
0.000305629
0.000401008
0.000236598
0.000403798
0.00016674
0.000405461
9.61734e-05
2.49997e-05
0.000405984
2.01826e-05
0.00132853
2.17386e-10
4.06122e-05
0.00132095
6.11386e-05
0.00131059
8.16083e-05
0.0012976
0.000101909
0.00128165
0.000121955
0.00126257
0.000141682
0.00124022
0.000161028
0.0012147
0.000179945
0.00118595
0.000198377
0.00115411
0.000216275
0.00111921
0.000233591
0.00108132
0.000250275
0.00104052
0.000266281
0.00099692
0.000281562
0.000950613
0.000296075
0.000901716
0.000309778
0.000850352
0.00032263
0.000796652
0.000334595
0.000740755
0.000345638
0.000682806
0.000355727
0.000622954
0.000364832
0.000561355
0.000372927
0.00049817
0.000379989
0.000433558
0.000385996
0.000367679
0.000390931
0.000300691
0.000394778
0.000232747
0.000397524
0.000163989
0.000399159
9.45328e-05
2.44746e-05
0.000399672
1.98573e-05
0.00130867
2.18044e-10
3.99593e-05
0.00130085
6.01594e-05
0.00129039
8.0307e-05
0.00127745
0.000100291
0.00126167
0.000120028
0.00124283
0.000139452
0.0012208
0.000158504
0.00119564
0.000177132
0.00116732
0.000195283
0.00113596
0.000212908
0.00110158
0.000229958
0.00106427
0.000246386
0.0010241
0.000262145
0.000981162
0.000277191
0.000935569
0.00029148
0.000887429
0.00030497
0.000836863
0.000317623
0.000784001
0.000329402
0.000728978
0.000340274
0.000671936
0.000350205
0.000613025
0.000359169
0.000552393
0.000367138
0.000490204
0.000374089
0.000426609
0.000380002
0.000361769
0.000384859
0.000295837
0.000388645
0.000228965
0.000391347
0.000161291
0.000392955
9.29287e-05
2.39755e-05
0.00039346
1.95381e-05
0.00128913
2.22546e-10
3.93186e-05
0.00128107
5.91981e-05
0.00127051
7.90289e-05
0.00125762
9.8702e-05
0.00124199
0.000118134
0.0012234
0.00013726
0.00120167
0.00015602
0.00117688
0.000174363
0.00114897
0.000192237
0.00111808
0.000209592
0.00108423
0.000226381
0.00104748
0.000242557
0.00100792
0.000258074
0.000965644
0.000272887
0.000920754
0.000286955
0.00087336
0.000300237
0.00082358
0.000312694
0.000771542
0.00032429
0.000717379
0.000334993
0.000661232
0.00034477
0.000603245
0.000353594
0.000543567
0.000361439
0.000482356
0.000368281
0.000419764
0.000374102
0.000355945
0.000378882
0.000291053
0.000382608
0.000225235
0.000385267
0.000158628
0.000386849
9.13414e-05
2.34693e-05
0.000387345
1.9225e-05
0.00126991
2.25042e-10
3.86898e-05
0.0012616
5.82543e-05
0.00125094
7.77734e-05
0.0012381
9.714e-05
0.00122263
0.000116271
0.00120427
0.000135103
0.00118284
0.000153576
0.00115841
0.000171638
0.00113091
0.000189239
0.00110048
0.000206329
0.00106714
0.00022286
0.00103095
0.000238787
0.000991992
0.000254065
0.000950367
0.00026865
0.00090617
0.000282501
0.00085951
0.000295577
0.000810505
0.000307841
0.000759279
0.000319257
0.000705964
0.000329794
0.000650697
0.000339419
0.000593622
0.000348106
0.000534882
0.000355828
0.000474636
0.000362564
0.000413031
0.000368293
0.000350219
0.000372998
0.000286351
0.000376665
0.000221571
0.000379281
0.000156015
0.000380838
8.97889e-05
2.29874e-05
0.000381325
1.89176e-05
0.00125099
2.30703e-10
3.80725e-05
0.00124245
5.73273e-05
0.00123169
7.65398e-05
0.00121889
9.56046e-05
0.00120356
0.000114439
0.00118543
0.000132982
0.00116429
0.000151171
0.00114022
0.000168957
0.00111312
0.000186289
0.00108315
0.000203116
0.00105031
0.000219394
0.00101467
0.000235076
0.000976309
0.000250119
0.000935323
0.000264479
0.000891808
0.000278116
0.000845872
0.000290989
0.00079763
0.000303064
0.000747204
0.000314303
0.000694723
0.000324676
0.000640323
0.000334151
0.000584144
0.000342703
0.000526329
0.000350305
0.000467031
0.000356936
0.000406398
0.000362575
0.000344577
0.000367207
0.000281716
0.000370816
0.000217959
0.00037339
0.000153437
0.000374921
8.82531e-05
2.24997e-05
0.000375399
1.86159e-05
0.00123237
2.34855e-10
3.74663e-05
0.0012236
5.64168e-05
0.00121274
7.53277e-05
0.00119998
9.40953e-05
0.00118479
0.000112638
0.00116689
0.000130895
0.00114604
0.000148805
0.00112231
0.000166318
0.00109561
0.000183384
0.00106608
0.000199954
0.00103374
0.000215982
0.00099864
0.000231423
0.000960868
0.000246234
0.000920513
0.000260373
0.00087767
0.000273799
0.000832447
0.000286473
0.000784956
0.000298361
0.000735318
0.000309426
0.000683659
0.000319638
0.000630113
0.000328966
0.000574818
0.000337384
0.000517912
0.000344868
0.00045955
0.000351395
0.000399873
0.000356946
0.000339028
0.000361505
0.00027716
0.000365057
0.00021441
0.00036759
0.000150907
0.000369096
8.67506e-05
2.20348e-05
0.000369566
1.83196e-05
0.00121405
2.41435e-10
3.68709e-05
0.00120504
5.55222e-05
0.00119408
7.41364e-05
0.00118137
9.26115e-05
0.00116632
0.000110867
0.00114863
0.000128842
0.00112806
0.000146477
0.00110468
0.000163721
0.00107836
0.000180526
0.00104928
0.000196841
0.00101742
0.000212623
0.000982857
0.000227827
0.000945663
0.00024241
0.000905929
0.00025633
0.000863749
0.000269549
0.000819227
0.000282027
0.000772476
0.000293731
0.000723613
0.000304624
0.000672763
0.000314678
0.000620058
0.000323861
0.000565632
0.000332149
0.000509623
0.000339516
0.00045218
0.000345941
0.000393445
0.000351405
0.000333561
0.000355892
0.00027267
0.000359388
0.000210911
0.000361881
0.00014841
0.000363363
8.52646e-05
2.1565e-05
0.000363824
1.80286e-05
0.00119602
2.47031e-10
3.6286e-05
0.00118679
5.46432e-05
0.00117573
7.29656e-05
0.00116304
9.11526e-05
0.00114813
0.000109125
0.00113066
0.000126823
0.00111037
0.000144186
0.00108731
0.000161166
0.00106138
0.000177712
0.00103273
0.000193777
0.00100136
0.000209316
0.000967318
0.000224286
0.000930694
0.000238645
0.000891571
0.00025235
0.000850044
0.000265365
0.000806214
0.000277651
0.000760191
0.000289173
0.000712092
0.000299898
0.00066204
0.000309795
0.000610162
0.000318836
0.000556593
0.000326995
0.000501466
0.000334247
0.00044493
0.000340572
0.000387122
0.000345951
0.000328184
0.000350368
0.000268256
0.000353808
0.000207473
0.000356261
0.000145959
0.000357719
8.38106e-05
2.11168e-05
0.000358172
1.77427e-05
0.00117828
2.54229e-10
3.57114e-05
0.00116882
5.37794e-05
0.00115766
7.18146e-05
0.00114501
8.97181e-05
0.00113023
0.000107412
0.00111297
0.000124836
0.00109294
0.000141932
0.00107022
0.000158651
0.00104467
0.000174943
0.00101644
0.000190761
0.000985538
0.000206062
0.000952017
0.000220801
0.000915953
0.000234938
0.000877433
0.000248433
0.000836548
0.000261246
0.000793399
0.000273342
0.000748094
0.000284686
0.000700747
0.000295244
0.000651479
0.000304988
0.000600417
0.000313889
0.00054769
0.000321921
0.000493432
0.00032906
0.000437788
0.000335287
0.000380893
0.000340582
0.000322887
0.000344929
0.000263906
0.000348315
0.000204083
0.000350729
0.000143541
0.000352163
8.23728e-05
2.06644e-05
0.000352607
1.74619e-05
0.00116082
2.60877e-10
3.51467e-05
0.00115113
5.29304e-05
0.00113988
7.0683e-05
0.00112726
8.83075e-05
0.0011126
0.000105727
0.00109555
0.000122882
0.00107579
0.000139714
0.00105339
0.000156176
0.0010282
0.000172217
0.0010004
0.000187792
0.000969963
0.000202858
0.000936952
0.00021737
0.000901441
0.00023129
0.000863514
0.000244576
0.000823262
0.000257192
0.000780784
0.0002691
0.000736186
0.000280269
0.00068958
0.000290664
0.000641085
0.000300257
0.000590826
0.000309019
0.000538929
0.000316926
0.000485526
0.000323954
0.000430762
0.000330084
0.000374766
0.000335296
0.000317677
0.000339575
0.000259629
0.000342908
0.000200753
0.000345284
0.000141169
0.000346694
8.09657e-05
2.02325e-05
0.00034713
1.71858e-05
0.00114363
2.68456e-10
3.45917e-05
0.00113373
5.20958e-05
0.00112237
6.95705e-05
0.00110978
8.69203e-05
0.00109525
0.000104069
0.0010784
0.000120959
0.0010589
0.000137531
0.00103681
0.00015374
0.00101199
0.000169534
0.000984606
0.00018487
0.000954627
0.000199704
0.000922118
0.000213993
0.000887151
0.000227698
0.000849808
0.000240779
0.00081018
0.0002532
0.000768362
0.000264925
0.00072446
0.00027592
0.000678584
0.000286154
0.000630849
0.000295599
0.00058138
0.000304225
0.000530301
0.000312009
0.00047774
0.000318928
0.00042384
0.000324962
0.00036873
0.000330093
0.000312544
0.000334305
0.000255414
0.000337586
0.000197469
0.000339923
0.000138827
0.000341311
7.95746e-05
1.9797e-05
0.000341739
1.69146e-05
0.00112672
2.75898e-10
3.40462e-05
0.0011166
5.12753e-05
0.00110514
6.84766e-05
0.00109258
8.5556e-05
0.00107817
0.000102439
0.00106152
0.000119067
0.00104227
0.000135384
0.0010205
0.000151342
0.000996035
0.000166894
0.000969054
0.000181994
0.000939528
0.000196599
0.000907513
0.000210668
0.000873082
0.000224162
0.000836315
0.000237041
0.000797301
0.000249271
0.000756134
0.000260814
0.000712917
0.00027164
0.000667759
0.000281715
0.000620775
0.000291013
0.000572084
0.000299506
0.00052181
0.000307169
0.000470079
0.000313981
0.000417031
0.000319921
0.000362792
0.000324971
0.000307495
0.000329118
0.00025127
0.000332346
0.000194243
0.000334647
0.000136529
0.000336012
7.8213e-05
1.93809e-05
0.000336432
1.66479e-05
0.00111007
2.83727e-10
3.35099e-05
0.00109973
5.04687e-05
0.00108818
6.74009e-05
0.00107565
8.42141e-05
0.00106136
0.000100835
0.00104489
0.000117206
0.0010259
0.000133271
0.00100443
0.000148983
0.000980322
0.000164295
0.000953742
0.000179163
0.00092466
0.000193543
0.000893132
0.000207396
0.000859229
0.000220681
0.000823029
0.000233362
0.000784619
0.000245403
0.000744093
0.000256768
0.000701551
0.000267426
0.0006571
0.000277345
0.000610853
0.000286499
0.000562929
0.00029486
0.000513447
0.000302405
0.000462532
0.00030911
0.000410323
0.000314958
0.000356943
0.00031993
0.000302521
0.000324011
0.000247187
0.000327189
0.000191062
0.000329453
0.000134262
0.000330795
7.68671e-05
1.89618e-05
0.000331207
1.63858e-05
0.00109368
2.91739e-10
3.29827e-05
0.00108314
4.96755e-05
0.00107149
6.6343e-05
0.00105898
8.28943e-05
0.00104481
9.9257e-05
0.00102853
0.000115374
0.00100978
0.000131191
0.000988615
0.000146661
0.000964852
0.000161738
0.000938666
0.000176376
0.000910021
0.000190535
0.000878973
0.000204174
0.00084559
0.000217255
0.000809948
0.00022974
0.000772134
0.000241595
0.000732239
0.000252784
0.000690362
0.000263278
0.000646608
0.000273044
0.000601088
0.000282056
0.000553918
0.000290287
0.000505217
0.000297715
0.000455107
0.000304316
0.000403723
0.000310072
0.000351188
0.000314967
0.000297629
0.000318984
0.000243171
0.000322112
0.000187937
0.00032434
0.000132036
0.00032566
7.55494e-05
1.85611e-05
0.000326065
1.61281e-05
0.00107755
2.9969e-10
3.24643e-05
0.0010668
4.88955e-05
0.00105506
6.53026e-05
0.00104257
8.15961e-05
0.00102852
9.77046e-05
0.00101242
0.000113572
0.000993913
0.000129145
0.000973043
0.000144376
0.000949619
0.00015922
0.000923821
0.000173633
0.000895608
0.000187574
0.000865032
0.000201003
0.00083216
0.000213882
0.000797069
0.000226175
0.000759841
0.000237846
0.000720567
0.000248863
0.000679344
0.000259194
0.000636276
0.000268809
0.000591471
0.000277682
0.000545044
0.000285785
0.000497112
0.000293098
0.000447793
0.000299596
0.000397222
0.000305263
0.000345519
0.000310081
0.000292809
0.000314036
0.000239215
0.000317115
0.000184855
0.000319307
0.00012984
0.000320606
7.42472e-05
1.81579e-05
0.000321003
1.58748e-05
0.00106168
3.08078e-10
3.19546e-05
0.00105072
4.81285e-05
0.00103888
6.42793e-05
0.00102642
8.03191e-05
0.00101248
9.61774e-05
0.000996565
0.000111799
0.000978291
0.000127131
0.000957711
0.000142128
0.000934623
0.000156743
0.000909206
0.000170933
0.000881417
0.000184659
0.000851306
0.000197881
0.000818938
0.000210562
0.000784388
0.000222665
0.000747738
0.000234156
0.000709076
0.000245003
0.000668498
0.000255174
0.000626106
0.000264641
0.000582006
0.000273376
0.00053631
0.000281354
0.000489135
0.000288553
0.000440596
0.000294951
0.000390826
0.000300529
0.000339942
0.000305272
0.000288068
0.000309165
0.000235324
0.000312195
0.000181827
0.000314353
0.000127685
0.000315631
7.29722e-05
1.77721e-05
0.00031602
1.56256e-05
0.00104605
3.16059e-10
3.14534e-05
0.00103489
4.73741e-05
0.00102296
6.32728e-05
0.00101052
7.90628e-05
0.000996686
9.46749e-05
0.000980952
0.000110055
0.00096291
0.000125149
0.000942616
0.000139915
0.000919857
0.000154304
0.000894816
0.000168276
0.000867445
0.000181791
0.000837791
0.000194809
0.000805919
0.000207294
0.000771903
0.00021921
0.000735821
0.000230524
0.000697761
0.000241203
0.000657818
0.000251217
0.000616091
0.000260537
0.000572684
0.000269137
0.000527709
0.000276991
0.000481279
0.000284079
0.000433507
0.000290377
0.000384525
0.000295869
0.000334448
0.000300538
0.000283397
0.00030437
0.00023149
0.000307353
0.000178842
0.000309476
0.000125559
0.000310733
7.17123e-05
1.73842e-05
0.000311115
1.53806e-05
0.00103067
3.24644e-10
3.09604e-05
0.00101931
4.66322e-05
0.00100729
6.22827e-05
0.000994871
7.78269e-05
0.000981142
9.31966e-05
0.000965583
0.000108338
0.000947769
0.000123199
0.000927755
0.000137737
0.00090532
0.000151904
0.000880649
0.000165661
0.000853688
0.000178967
0.000824485
0.000191784
0.000793102
0.000204077
0.00075961
0.000215809
0.000724089
0.000226949
0.000686623
0.000237462
0.000647305
0.000247322
0.000606232
0.000256498
0.000563509
0.000264964
0.000519244
0.000272697
0.000473547
0.000279675
0.000426531
0.000285875
0.000378326
0.000291282
0.000329043
0.000295878
0.000278802
0.00029965
0.00022772
0.000302586
0.000175908
0.000304676
0.000123471
0.000305912
7.04786e-05
1.70129e-05
0.000306287
1.51396e-05
0.00101553
3.32581e-10
3.04755e-05
0.00100398
4.59024e-05
0.000991865
6.13088e-05
0.000979465
7.66111e-05
0.000965839
9.17421e-05
0.000950452
0.000106649
0.000932862
0.00012128
0.000913123
0.000135593
0.000891007
0.000149542
0.0008667
0.000163086
0.000840144
0.000176187
0.000811384
0.000188807
0.000780482
0.00020091
0.000747507
0.000212461
0.000712536
0.000223429
0.000675655
0.00023378
0.000636952
0.000243487
0.000596525
0.000252521
0.000554474
0.000260857
0.000510907
0.00026847
0.000465932
0.000275339
0.000419661
0.000281444
0.00037222
0.000286767
0.000323719
0.000291291
0.000274276
0.000295004
0.000224005
0.000297894
0.000173016
0.00029995
0.000121412
0.000301167
6.92596e-05
1.66398e-05
0.000301534
1.49026e-05
0.00100063
3.41239e-10
2.99987e-05
0.000988879
4.51845e-05
0.000976679
6.03507e-05
0.000964298
7.54149e-05
0.000950775
9.03109e-05
0.000935555
0.000104987
0.000918186
0.000119392
0.000898718
0.000133483
0.000876915
0.000147217
0.000852966
0.000160552
0.000826808
0.000173451
0.000798485
0.000185876
0.000768057
0.000197793
0.000735591
0.000209166
0.000701164
0.000219964
0.000664857
0.000230156
0.000626761
0.000239713
0.000586968
0.000248607
0.00054558
0.000256814
0.000502701
0.000264309
0.000458438
0.000271072
0.000412899
0.000277082
0.000366211
0.000282322
0.00031848
0.000286776
0.000269823
0.000290431
0.000220351
0.000293275
0.000170174
0.000295299
0.00011939
0.000296495
6.80658e-05
1.62825e-05
0.000296856
1.46695e-05
0.000985958
3.49088e-10
2.95296e-05
0.000974019
4.44783e-05
0.00096173
5.94081e-05
0.000949368
7.4238e-05
0.000935945
8.89028e-05
0.00092089
0.000103351
0.000903737
0.000117533
0.000884536
0.000131407
0.000863041
0.000144929
0.000839444
0.000158058
0.000813678
0.000170758
0.000785785
0.000182992
0.000755822
0.000194724
0.000723858
0.000205922
0.000689965
0.000216553
0.000654225
0.000226588
0.000616725
0.000235997
0.000577558
0.000244754
0.000536822
0.000252834
0.00049462
0.000260213
0.000451057
0.000266871
0.00040624
0.000272788
0.000360293
0.000277947
0.00031332
0.000282331
0.000265436
0.000285929
0.000216751
0.000288729
0.000167372
0.000290721
0.000117396
0.000291897
6.68864e-05
1.59237e-05
0.000292251
1.44403e-05
0.000971517
3.57721e-10
2.90682e-05
0.000959391
4.37836e-05
0.000947015
5.84808e-05
0.000934671
7.308e-05
0.000921346
8.75172e-05
0.000906453
0.000101742
0.000889512
0.000115704
0.000870574
0.000129364
0.000849382
0.000142677
0.000826131
0.000155603
0.000800751
0.000168108
0.000773281
0.000180152
0.000743778
0.000191704
0.000712307
0.000202729
0.000678941
0.000213196
0.000643759
0.000223076
0.000606846
0.00023234
0.000568295
0.000240961
0.000528202
0.000248916
0.000486666
0.000256181
0.000443793
0.000262736
0.000399686
0.000268561
0.000354469
0.00027364
0.000308243
0.000277956
0.000261121
0.000281498
0.000213211
0.000284254
0.000164618
0.000286214
0.000115437
0.000287371
6.57312e-05
1.55799e-05
0.000287718
1.42147e-05
0.000957302
3.65454e-10
2.86142e-05
0.000944991
4.31002e-05
0.000932529
5.75685e-05
0.000920202
7.19407e-05
0.000906974
8.61537e-05
0.00089224
0.000100158
0.000875508
0.000113904
0.000856827
0.000127353
0.000835933
0.00014046
0.000813024
0.000153187
0.000788023
0.000165498
0.000760969
0.000177357
0.000731918
0.000188731
0.000700933
0.000199586
0.000668085
0.000209891
0.000633452
0.000219618
0.000597118
0.000228739
0.000559174
0.000237228
0.000519712
0.00024506
0.000478833
0.000252212
0.000436639
0.000258666
0.000393232
0.0002644
0.000348732
0.0002694
0.000303242
0.00027365
0.00025687
0.000277136
0.000209723
0.000279849
0.000161904
0.000281778
0.000113506
0.000282916
6.45902e-05
1.52349e-05
0.000283256
1.39928e-05
0.000943309
3.74017e-10
2.81677e-05
0.000930816
4.24278e-05
0.000918268
5.66709e-05
0.000905959
7.08197e-05
0.000892825
8.48121e-05
0.000878248
9.85992e-05
0.000861721
0.000112133
0.000843293
0.000125373
0.000822693
0.000138278
0.000800119
0.000150809
0.000775492
0.00016293
0.000748848
0.000174606
0.000720242
0.000185804
0.000689735
0.000196492
0.000657398
0.000206638
0.000623306
0.000216215
0.000587542
0.000225195
0.000550194
0.000233552
0.000511356
0.000241263
0.000471123
0.000248305
0.000429598
0.000254659
0.000386879
0.000260305
0.000343088
0.000265227
0.000298321
0.000269411
0.000252688
0.000272843
0.000206292
0.000275513
0.000159235
0.000277411
0.000111609
0.000278531
6.34723e-05
1.49042e-05
0.000278865
1.37745e-05
0.000929533
3.8162e-10
2.77284e-05
0.000916862
4.17663e-05
0.00090423
5.57877e-05
0.000891938
6.97166e-05
0.000878896
8.34919e-05
0.000864472
9.70654e-05
0.000848147
0.00011039
0.000829968
0.000123425
0.000809657
0.000136131
0.000787413
0.000148468
0.000763154
0.000160403
0.000736914
0.000171898
0.000708746
0.000182924
0.00067871
0.000193446
0.000646875
0.000203436
0.000613315
0.000212865
0.000578112
0.000221707
0.000541352
0.000229935
0.000503126
0.000237526
0.000463531
0.00024446
0.000422664
0.000250715
0.000380623
0.000256273
0.000337528
0.000261119
0.000293474
0.000265238
0.000248568
0.000268616
0.000202912
0.000271245
0.000156605
0.000273113
0.000109739
0.000274215
6.23683e-05
1.45724e-05
0.000274542
1.35598e-05
0.000915973
3.90071e-10
2.72962e-05
0.000903126
4.11155e-05
0.000890411
5.49187e-05
0.000878134
6.86312e-05
0.000865183
8.21928e-05
0.00085091
9.5556e-05
0.000834784
0.000108674
0.00081685
0.000121508
0.000796823
0.000134017
0.000774904
0.000146164
0.000751007
0.000157914
0.000725164
0.000169233
0.000697427
0.000180088
0.000667855
0.000190448
0.000636515
0.000200284
0.00060348
0.000209568
0.000568829
0.000218273
0.000532648
0.000226374
0.000495026
0.000233848
0.000456057
0.000240674
0.000415838
0.000246832
0.000374466
0.000252305
0.000332056
0.000257076
0.000288705
0.00026113
0.000244515
0.000264456
0.000199587
0.000267043
0.00015402
0.000268882
0.000107902
0.000269966
6.12866e-05
1.42543e-05
0.000270286
1.33485e-05
0.000902624
3.97539e-10
2.68709e-05
0.000889603
4.04751e-05
0.000876806
5.40637e-05
0.000864545
6.75632e-05
0.000851684
8.09144e-05
0.000837559
9.40705e-05
0.000821627
0.000106986
0.000803935
0.000119621
0.000784187
0.000131937
0.000762588
0.000143897
0.000739047
0.000155465
0.000713595
0.000166609
0.000686283
0.000177297
0.000657167
0.000187497
0.000626314
0.000197182
0.000593795
0.000206322
0.000559688
0.000214892
0.000524077
0.000222868
0.000487049
0.000230227
0.000448697
0.000236948
0.000409117
0.000243011
0.000368402
0.000248399
0.000326667
0.000253095
0.000284007
0.000257087
0.000240522
0.000260361
0.000196311
0.000262908
0.000151472
0.000264717
0.00010609
0.000265784
6.02183e-05
1.39353e-05
0.000266098
1.31407e-05
0.000889483
4.05872e-10
2.64525e-05
0.000876291
3.9845e-05
0.000863414
5.32223e-05
0.000851168
6.65122e-05
0.000838394
7.96563e-05
0.000824415
9.26086e-05
0.000808675
0.000105324
0.00079122
0.000117764
0.000771747
0.00012989
0.000750462
0.000141665
0.000727272
0.000153055
0.000702205
0.000164027
0.000675311
0.00017455
0.000646645
0.000184593
0.000616271
0.000194127
0.00058426
0.000203127
0.000550689
0.000211565
0.000515639
0.000219418
0.000479197
0.000226663
0.000441453
0.00023328
0.000402501
0.000239249
0.000362433
0.000244554
0.000321364
0.000249178
0.000279384
0.000253107
0.000236593
0.00025633
0.000193089
0.000258837
0.000148967
0.000260618
0.00010431
0.000261667
5.91715e-05
1.36292e-05
0.000261975
1.29361e-05
0.000876546
4.13191e-10
2.60408e-05
0.000863186
3.9225e-05
0.000850229
5.23945e-05
0.000837998
6.5478e-05
0.00082531
7.84183e-05
0.000811474
9.117e-05
0.000795923
0.000103689
0.000778701
0.000115936
0.000759498
0.000127875
0.000738523
0.000139468
0.000715678
0.000150682
0.000690991
0.000161485
0.000664507
0.000171845
0.000636284
0.000181733
0.000606382
0.000191121
0.000574872
0.000199982
0.000541828
0.00020829
0.00050733
0.000216021
0.000471464
0.000223155
0.000434318
0.000229669
0.000395985
0.000235546
0.000356555
0.000240769
0.00031614
0.000245321
0.00027483
0.00024919
0.000232723
0.000252363
0.000189915
0.00025483
0.000146498
0.000256583
0.000102555
0.000257615
5.81378e-05
1.33225e-05
0.000257917
1.27349e-05
0.000863811
4.21369e-10
2.56358e-05
0.000850285
3.8615e-05
0.00083725
5.15798e-05
0.000825034
6.44603e-05
0.00081243
7.71999e-05
0.000798735
8.97541e-05
0.000783369
0.000102079
0.000766376
0.000114138
0.00074744
0.000125892
0.00072677
0.000137306
0.000704264
0.000148347
0.00067995
0.000158983
0.000653871
0.000169184
0.000626084
0.000178919
0.000596647
0.000188162
0.00056563
0.000196886
0.000533105
0.000205066
0.000499151
0.000212678
0.000463852
0.000219701
0.000427296
0.000226115
0.000389572
0.000231902
0.00035077
0.000237043
0.000311
0.000241525
0.00027035
0.000245334
0.000228916
0.000248458
0.000186792
0.000250886
0.00014407
0.000252611
0.000100832
0.000253626
5.71247e-05
1.3028e-05
0.000253923
1.25369e-05
0.000851273
4.28502e-10
2.52372e-05
0.000837585
3.80147e-05
0.000824473
5.07782e-05
0.00081227
6.34588e-05
0.000799749
7.60009e-05
0.000786192
8.83607e-05
0.000771009
0.000100495
0.000754242
0.000112367
0.000735567
0.00012394
0.000715197
0.000135177
0.000693026
0.000146048
0.000669078
0.00015652
0.000643399
0.000166564
0.00061604
0.000176149
0.000587061
0.000185249
0.000556529
0.000193839
0.000524515
0.000201892
0.000491097
0.000209387
0.000456357
0.000216302
0.00042038
0.000222617
0.000383256
0.000228314
0.000345072
0.000233376
0.000305936
0.000237789
0.000265936
0.000241538