/*--------------------------------*- C++ -*----------------------------------*\
  =========                 |
  \\      /  F ield         | OpenFOAM: The Open Source CFD Toolbox
   \\    /   O peration     | Website:  https://openfoam.org
    \\  /    A nd           | Version:  6.0
     \\/     M anipulation  |
\*---------------------------------------------------------------------------*/
FoamFile
{
    version     2.0;
    format      ascii;
    class       volVectorField;
    location    "1";
    object      U;
}
// * * * * * * * * * * * * * * * * * * * * * * * * * * * * * * * * * * * * * //

dimensions      [0 1 -1 0 0 0 0];

internalField   nonuniform List<vector> 
47000
(
(0.99995 -0.000169776 1.66474e-19)
(0.999892 -0.000489405 3.02801e-19)
(0.999788 -0.000763343 -2.04244e-18)
(0.999657 -0.000976032 -3.37943e-18)
(0.999518 -0.00112272 2.27699e-18)
(0.999389 -0.00120834 -1.2995e-18)
(0.999281 -0.00124413 4.61574e-18)
(0.9992 -0.00124435 1.59905e-19)
(0.999148 -0.00122269 6.30553e-19)
(0.999122 -0.00119067 -4.26536e-18)
(0.999117 -0.00115646 2.5164e-18)
(0.99913 -0.00112527 7.66389e-19)
(0.999155 -0.0010997 1.04721e-18)
(0.999189 -0.00108086 1.19561e-18)
(0.999229 -0.00106854 -1.07416e-18)
(0.999273 -0.00106251 -4.84728e-19)
(0.999318 -0.00106199 -5.84727e-20)
(0.999365 -0.00106676 -5.53969e-19)
(0.999412 -0.00107634 -2.39141e-20)
(0.999458 -0.00109112 -1.84282e-19)
(0.999504 -0.00111129 -9.43224e-19)
(0.999549 -0.00113798 -3.50237e-19)
(0.999595 -0.00117235 -4.12727e-19)
(0.99964 -0.00121671 -7.613e-20)
(0.999685 -0.00127377 2.57071e-19)
(0.999733 -0.00134796 -8.19131e-20)
(0.999783 -0.00144543 2.71703e-19)
(0.999839 -0.00157601 -1.76596e-19)
(0.999902 -0.00175613 1.7753e-20)
(0.99998 -0.00201763 -3.38526e-20)
(0.999859 -0.00015996 -3.55154e-19)
(0.99981 -0.000461897 -1.04936e-18)
(0.99972 -0.00072277 -5.21528e-20)
(0.999606 -0.000928434 4.42818e-18)
(0.999484 -0.00107421 -1.96091e-18)
(0.99937 -0.001164 4.55618e-18)
(0.999274 -0.00120738 -3.13737e-18)
(0.999202 -0.00121685 9.40199e-19)
(0.999156 -0.0012046 -3.92153e-18)
(0.999133 -0.00118117 -3.94353e-19)
(0.99913 -0.0011542 -4.17487e-19)
(0.999143 -0.00112874 9.08494e-19)
(0.999168 -0.00110753 -1.81437e-18)
(0.999202 -0.00109183 1.93873e-19)
(0.999241 -0.00108176 3.228e-19)
(0.999284 -0.00107721 -2.27732e-19)
(0.99933 -0.00107769 9.01968e-19)
(0.999376 -0.00108303 -6.73006e-19)
(0.999423 -0.00109296 -1.10327e-18)
(0.999469 -0.00110783 1.36598e-18)
(0.999516 -0.00112802 3.47849e-19)
(0.999561 -0.0011546 9.34643e-20)
(0.999607 -0.00118888 2.35331e-19)
(0.999652 -0.0012331 3.50387e-19)
(0.999697 -0.00129014 -1.52944e-19)
(0.999744 -0.00136439 -1.58276e-20)
(0.999794 -0.00146212 -8.37696e-20)
(0.999848 -0.00159313 -4.20051e-19)
(0.999909 -0.00177344 3.11932e-19)
(0.999996 -0.00203077 8.94913e-20)
(0.999773 -0.000151266 4.17611e-19)
(0.999731 -0.000437471 8.91101e-20)
(0.999654 -0.000686659 -1.18776e-19)
(0.999554 -0.000886032 -7.77209e-18)
(0.999447 -0.00103104 5.99353e-19)
(0.999346 -0.00112471 -4.11999e-18)
(0.999261 -0.00117515 3.31275e-18)
(0.999197 -0.00119331 -2.13824e-18)
(0.999156 -0.00119001 4.1522e-18)
(0.999137 -0.00117486 2.18336e-18)
(0.999136 -0.00115499 -7.74608e-19)
(0.99915 -0.00113525 -5.0385e-19)
(0.999175 -0.00111848 3.06194e-18)
(0.999209 -0.00110604 -8.23651e-19)
(0.999248 -0.00109837 4.68446e-19)
(0.999292 -0.00109545 2.57178e-19)
(0.999337 -0.00109707 -9.63594e-19)
(0.999384 -0.00110311 1.27985e-18)
(0.999431 -0.0011135 7.38889e-19)
(0.999478 -0.00112858 1.69287e-19)
(0.999525 -0.00114888 1.47039e-18)
(0.999571 -0.00117545 1.43319e-18)
(0.999617 -0.00120974 1.00049e-18)
(0.999662 -0.00125397 3.78865e-19)
(0.999708 -0.00131112 -4.43737e-19)
(0.999755 -0.00138561 1.0109e-19)
(0.999804 -0.00148379 -6.27297e-19)
(0.999858 -0.00161543 4.6013e-19)
(0.999917 -0.00179614 -5.73478e-20)
(1.00002 -0.00205106 -1.81641e-19)
(0.999692 -0.000143597 -5.90937e-19)
(0.999656 -0.000415854 2.4228e-19)
(0.99959 -0.000654562 2.16049e-18)
(0.999503 -0.000848184 5.90516e-18)
(0.999409 -0.000992345 4.56446e-19)
(0.999321 -0.00108936 4.90423e-19)
(0.999246 -0.00114609 -3.80156e-18)
(0.99919 -0.0011721 -9.08024e-20)
(0.999154 -0.00117701 -2.20325e-18)
(0.999138 -0.00116957 -7.92637e-19)
(0.999139 -0.00115641 1.11138e-18)
(0.999154 -0.00114217 -5.31466e-19)
(0.99918 -0.00112971 -1.38446e-18)
(0.999215 -0.00112054 8.58671e-19)
(0.999255 -0.00111527 2.17187e-20)
(0.999298 -0.00111404 1.87464e-18)
(0.999344 -0.00111684 -5.28495e-19)
(0.999392 -0.00112364 -8.49264e-19)
(0.999439 -0.0011345 -1.10589e-18)
(0.999487 -0.00114982 -2.74415e-18)
(0.999534 -0.00117025 -3.50509e-19)
(0.999581 -0.00119682 -1.30032e-18)
(0.999627 -0.0012311 -1.21634e-18)
(0.999673 -0.00127532 -9.41981e-19)
(0.999719 -0.00133256 1.32991e-18)
(0.999766 -0.00140725 -8.13116e-19)
(0.999815 -0.0015058 3.34207e-19)
(0.999867 -0.00163797 5.59139e-19)
(0.999925 -0.00181899 -4.78409e-19)
(1.00004 -0.00207262 1.12286e-19)
(0.999614 -0.000136847 1.08149e-19)
(0.999585 -0.00039675 -3.00472e-19)
(0.999528 -0.000626076 -1.84902e-19)
(0.999453 -0.000814461 -1.03667e-19)
(0.999371 -0.000957741 -3.07002e-18)
(0.999294 -0.00105765 6.04982e-19)
(0.999229 -0.00111997 -1.37225e-18)
(0.99918 -0.0011531 -1.78204e-18)
(0.99915 -0.00116553 3.39748e-18)
(0.999137 -0.00116525 -8.36475e-19)
(0.999141 -0.00115841 3.01429e-18)
(0.999158 -0.00114942 2.64784e-18)
(0.999185 -0.00114116 -2.10938e-18)
(0.99922 -0.0011352 -1.89623e-18)
(0.99926 -0.00113233 -2.78762e-18)
(0.999304 -0.00113282 -1.90825e-18)
(0.999351 -0.00113682 3.35658e-19)
(0.999399 -0.0011444 -7.97224e-19)
(0.999447 -0.00115577 3.21679e-18)
(0.999495 -0.00117135 4.60321e-19)
(0.999543 -0.00119189 -2.24649e-18)
(0.999591 -0.00121846 -7.39367e-19)
(0.999637 -0.00125272 3.58506e-19)
(0.999683 -0.0012969 5.47703e-19)
(0.99973 -0.00135418 -1.01809e-18)
(0.999777 -0.00142901 7.54115e-19)
(0.999825 -0.00152786 2.04841e-19)
(0.999877 -0.00166043 -1.16496e-18)
(0.999935 -0.0018417 2.32265e-19)
(1.00007 -0.00209465 5.27249e-20)
(0.999541 -0.000130916 -1.2895e-19)
(0.999517 -0.0003799 4.65089e-19)
(0.999468 -0.00060084 -3.62826e-18)
(0.999404 -0.000784474 -1.35026e-18)
(0.999333 -0.000926875 1.89216e-18)
(0.999267 -0.00102931 5.17388e-18)
(0.99921 -0.00109663 4.71935e-18)
(0.999169 -0.0011362 2.16746e-19)
(0.999144 -0.00115553 8.13164e-19)
(0.999135 -0.00116192 2.94017e-18)
(0.999141 -0.00116104 -2.03821e-18)
(0.999159 -0.00115708 -3.28979e-18)
(0.999188 -0.00115288 7.76389e-19)
(0.999223 -0.00115008 3.42458e-18)
(0.999265 -0.00114958 6.36955e-18)
(0.999309 -0.00115181 -4.15863e-20)
(0.999357 -0.00115704 9.14217e-19)
(0.999405 -0.00116543 3.04066e-18)
(0.999455 -0.00117732 -2.90092e-18)
(0.999504 -0.00119317 1.89901e-18)
(0.999552 -0.00121383 2.31219e-18)
(0.9996 -0.0012404 1.37226e-18)
(0.999648 -0.0012746 1.05868e-18)
(0.999694 -0.00131873 -4.13005e-20)
(0.999741 -0.00137599 -4.05366e-19)
(0.999788 -0.00145091 1.22096e-18)
(0.999836 -0.00154997 5.1933e-19)
(0.999888 -0.00168287 6.7508e-19)
(0.999945 -0.0018644 3.3857e-19)
(1.0001 -0.00211725 -2.61205e-19)
(0.999471 -0.000125725 1.76449e-19)
(0.999452 -0.000365079 8.43088e-19)
(0.999411 -0.000578547 1.90408e-18)
(0.999356 -0.000757895 1.72474e-18)
(0.999295 -0.00089945 5.05391e-18)
(0.999238 -0.0010041 -3.05363e-18)
(0.99919 -0.00107591 -3.79632e-18)
(0.999155 -0.00112134 2.20724e-18)
(0.999136 -0.00114702 -3.37429e-18)
(0.999131 -0.00115961 -1.2076e-18)
(0.999139 -0.00116433 -5.9142e-18)
(0.99916 -0.00116517 3.7054e-18)
(0.999189 -0.00116488 1.66813e-18)
(0.999226 -0.00116516 4.11911e-19)
(0.999268 -0.00116703 -3.87533e-18)
(0.999314 -0.00117098 6.53147e-19)
(0.999362 -0.00117746 -1.17933e-18)
(0.999412 -0.00118668 -4.25428e-18)
(0.999462 -0.0011991 -1.30836e-19)
(0.999512 -0.00121524 -3.5607e-18)
(0.999561 -0.00123601 -3.23381e-18)
(0.99961 -0.00126256 -1.26027e-18)
(0.999658 -0.0012967 -9.14201e-19)
(0.999705 -0.00134073 -1.0594e-18)
(0.999752 -0.00139795 -6.86723e-19)
(0.999799 -0.00147289 -3.0408e-18)
(0.999848 -0.00157208 1.85063e-19)
(0.999899 -0.00170524 1.09353e-18)
(0.999956 -0.00188704 1.66475e-19)
(1.00013 -0.0021401 2.89824e-19)
(0.999403 -0.000121197 7.1121e-19)
(0.999388 -0.000352088 -1.68141e-18)
(0.999355 -0.000558918 -2.38381e-18)
(0.999308 -0.000734418 -1.3817e-18)
(0.999257 -0.000875185 -1.40367e-18)
(0.999209 -0.000981807 -1.75773e-18)
(0.999169 -0.00105766 2.90377e-18)
(0.99914 -0.00110844 -5.88544e-18)
(0.999126 -0.00113998 -2.09475e-18)
(0.999125 -0.00115834 4.02418e-18)
(0.999136 -0.00116835 5.30073e-18)
(0.999159 -0.00117375 -2.04678e-18)
(0.99919 -0.00117725 -5.48699e-18)
(0.999228 -0.00118054 -1.9303e-18)
(0.999271 -0.00118473 1.01832e-19)
(0.999318 -0.00119042 2.37066e-19)
(0.999367 -0.00119814 5.25489e-19)
(0.999418 -0.00120821 -1.10891e-18)
(0.999469 -0.00122116 3.43897e-18)
(0.99952 -0.00123759 2.37312e-18)
(0.99957 -0.00125848 2.11279e-18)
(0.99962 -0.001285 5.72232e-19)
(0.999668 -0.00131904 -1.3172e-18)
(0.999716 -0.00136295 -7.47874e-19)
(0.999763 -0.00142007 1.2608e-18)
(0.999811 -0.00149499 2.17251e-18)
(0.999859 -0.00159426 -2.15409e-18)
(0.99991 -0.00172761 -1.7756e-18)
(0.999967 -0.00190972 3.45222e-19)
(1.00016 -0.00216331 -1.69628e-19)
(0.999338 -0.000117271 2.97336e-20)
(0.999328 -0.000340757 6.52734e-19)
(0.9993 -0.000541715 2.83363e-18)
(0.999262 -0.000713786 -3.70178e-20)
(0.999219 -0.000853843 -2.34425e-18)
(0.999179 -0.000962242 -3.00697e-19)
(0.999146 -0.00104177 -2.35949e-18)
(0.999124 -0.00109745 3.22943e-18)
(0.999115 -0.00113439 4.0316e-19)
(0.999117 -0.00115814 -4.23444e-18)
(0.999132 -0.00117313 -6.34128e-18)
(0.999157 -0.00118288 -3.14367e-18)
(0.99919 -0.00119001 4.78331e-18)
(0.999229 -0.00119624 3.84737e-18)
(0.999274 -0.00120271 -2.58467e-18)
(0.999322 -0.00121012 -5.36783e-18)
(0.999372 -0.00121908 7.08584e-19)
(0.999424 -0.00123001 3.67742e-18)
(0.999476 -0.0012435 -3.62639e-18)
(0.999528 -0.00126021 2.24098e-18)
(0.999579 -0.0012812 -2.06053e-18)
(0.999629 -0.00130768 -3.8083e-19)
(0.999679 -0.00134161 1.016e-18)
(0.999727 -0.00138537 1.52349e-18)
(0.999775 -0.00144235 -3.32653e-19)
(0.999823 -0.00151718 -1.63333e-18)
(0.999871 -0.00161647 -5.12738e-19)
(0.999922 -0.00174998 -1.52818e-20)
(0.999978 -0.0019324 3.89571e-20)
(1.00019 -0.00218666 -1.14501e-19)
(0.999276 -0.000113891 -1.48606e-19)
(0.999269 -0.000330932 4.05961e-19)
(0.999247 -0.00052672 -9.89579e-19)
(0.999216 -0.000695758 -4.37887e-19)
(0.999181 -0.000835201 -2.76668e-18)
(0.999149 -0.000945223 -7.80908e-19)
(0.999123 -0.00102811 3.36739e-19)
(0.999107 -0.00108829 -2.64008e-18)
(0.999102 -0.00113023 -1.25088e-18)
(0.999109 -0.00115902 7.6724e-19)
(0.999126 -0.00117871 1.42277e-18)
(0.999153 -0.00119261 3.17922e-18)
(0.999188 -0.00120325 2.52406e-19)
(0.99923 -0.00121232 -7.89127e-18)
(0.999276 -0.00122104 -1.75993e-18)
(0.999325 -0.00123014 5.31775e-19)
(0.999377 -0.00124035 3.38207e-18)
(0.999429 -0.00125212 -1.23562e-18)
(0.999483 -0.00126616 2.34565e-18)
(0.999536 -0.00128316 2.98774e-18)
(0.999588 -0.00130424 1.40537e-18)
(0.999639 -0.00133066 -9.25426e-19)
(0.999689 -0.00136445 -1.79214e-18)
(0.999738 -0.00140801 1.45442e-18)
(0.999787 -0.00146482 -1.38211e-18)
(0.999835 -0.00153952 3.29782e-18)
(0.999883 -0.00163877 -6.24106e-19)
(0.999934 -0.0017724 2.11395e-19)
(0.999991 -0.00195517 -8.70513e-19)
(1.00022 -0.00221025 1.0622e-19)
(0.999215 -0.000111006 -7.34171e-19)
(0.999211 -0.000322482 -3.04288e-19)
(0.999195 -0.000513747 -1.5206e-19)
(0.99917 -0.000680129 2.03895e-18)
(0.999143 -0.000819065 4.63455e-18)
(0.999118 -0.000930595 5.21755e-18)
(0.999098 -0.00101658 4.36458e-18)
(0.999088 -0.00108091 -1.49999e-19)
(0.999088 -0.0011275 4.70963e-18)
(0.999099 -0.00116101 -1.15909e-18)
(0.999119 -0.00118514 -1.88473e-19)
(0.999149 -0.00120299 5.51072e-18)
(0.999186 -0.001217 5.96651e-18)
(0.999229 -0.00122884 9.66528e-19)
(0.999277 -0.00123974 3.13013e-18)
(0.999328 -0.00125052 3.48976e-19)
(0.99938 -0.00126195 -1.69101e-18)
(0.999435 -0.00127458 2.96537e-18)
(0.999489 -0.00128914 1.18977e-18)
(0.999543 -0.00130642 -6.32144e-18)
(0.999597 -0.00132758 9.98941e-19)
(0.999649 -0.00135392 1.30841e-18)
(0.9997 -0.00138754 3.68433e-20)
(0.99975 -0.00143088 -2.41779e-18)
(0.999799 -0.00148746 8.11087e-19)
(0.999847 -0.00156198 -2.96108e-18)
(0.999896 -0.00166114 1.45078e-18)
(0.999947 -0.00179485 -9.05657e-19)
(1 -0.00197796 -3.2021e-19)
(1.00025 -0.00223393 1.34318e-20)
(0.999156 -0.000108576 5.40567e-19)
(0.999156 -0.000315287 -7.51641e-19)
(0.999144 -0.000502627 1.69488e-18)
(0.999126 -0.000666707 -1.33257e-18)
(0.999105 -0.000805254 -4.5826e-18)
(0.999086 -0.000918209 -2.03361e-18)
(0.999073 -0.00100705 -8.98117e-18)
(0.999068 -0.00107525 4.3587e-18)
(0.999073 -0.00112617 -4.09615e-19)
(0.999087 -0.00116411 3.95149e-19)
(0.999111 -0.00119244 9.53239e-19)
(0.999143 -0.00121407 -7.51446e-18)
(0.999183 -0.00123132 -4.8299e-18)
(0.999228 -0.00124584 5.5674e-18)
(0.999277 -0.00125888 6.77351e-19)
(0.99933 -0.00127131 1.9097e-18)
(0.999384 -0.00128395 -3.90811e-18)
(0.99944 -0.00129741 -2.76623e-18)
(0.999495 -0.0013125 2.31653e-18)
(0.999551 -0.00133005 2.12193e-18)
(0.999606 -0.00135128 -2.86382e-18)
(0.999659 -0.00137752 -1.5235e-18)
(0.999711 -0.00141094 1.96561e-18)
(0.999761 -0.00145401 7.86558e-19)
(0.999811 -0.00151032 1.20588e-18)
(0.99986 -0.00158461 5.45942e-19)
(0.999909 -0.00168363 4.39049e-19)
(0.99996 -0.00181739 2.12017e-18)
(1.00002 -0.00200085 -6.79575e-19)
(1.00028 -0.00225777 -2.8552e-19)
(0.999099 -0.00010656 -1.60538e-19)
(0.999101 -0.000309245 2.44106e-18)
(0.999094 -0.000493213 1.64693e-18)
(0.999081 -0.000655331 -1.44338e-19)
(0.999067 -0.000793613 -4.23403e-19)
(0.999054 -0.000907936 3.39342e-18)
(0.999047 -0.00099946 3.66917e-18)
(0.999048 -0.00107125 -3.27991e-18)
(0.999057 -0.00112623 -3.41674e-18)
(0.999075 -0.00116835 -1.27086e-18)
(0.999102 -0.00120065 -5.73545e-19)
(0.999137 -0.00122588 5.34053e-18)
(0.999179 -0.00124625 -9.00134e-18)
(0.999226 -0.00126336 -1.23278e-18)
(0.999277 -0.00127849 -1.36936e-18)
(0.999331 -0.00129253 1.80419e-18)
(0.999387 -0.00130636 4.03009e-18)
(0.999444 -0.00132065 6.40495e-18)
(0.999502 -0.00133625 -7.29733e-18)
(0.999558 -0.00135405 4.50993e-19)
(0.999614 -0.00137532 3.49757e-18)
(0.999669 -0.00140143 2.42506e-18)
(0.999722 -0.00143462 6.36573e-20)
(0.999773 -0.0014774 7.5988e-19)
(0.999824 -0.0015334 2.6237e-18)
(0.999873 -0.00160741 1.93579e-18)
(0.999922 -0.00170623 3.41027e-18)
(0.999974 -0.00183999 -1.48244e-19)
(1.00003 -0.00202379 1.07395e-18)
(1.00031 -0.00228166 2.42051e-19)
(0.999043 -0.000104928 -2.81883e-19)
(0.999048 -0.000304264 -1.39027e-18)
(0.999045 -0.000485372 -2.32954e-18)
(0.999037 -0.000645848 2.59289e-19)
(0.999029 -0.000783995 3.41849e-18)
(0.999022 -0.000899652 1.61292e-18)
(0.99902 -0.000993698 -3.57333e-19)
(0.999026 -0.00106887 1.77205e-18)
(0.999039 -0.00112765 3.03454e-18)
(0.999062 -0.0011737 1.51065e-18)
(0.999092 -0.00120979 1.58222e-18)
(0.99913 -0.00123846 2.09301e-19)
(0.999174 -0.00126183 2.46355e-18)
(0.999223 -0.00128146 1.45945e-18)
(0.999276 -0.00129862 2.69702e-18)
(0.999332 -0.00131424 -1.67181e-18)
(0.99939 -0.00132924 1.50064e-19)
(0.999449 -0.00134433 -2.7843e-18)
(0.999508 -0.00136043 -1.78066e-18)
(0.999566 -0.00137847 -8.71458e-20)
(0.999623 -0.00139976 1.25086e-18)
(0.999679 -0.00142572 -2.5101e-18)
(0.999733 -0.00145864 -8.69886e-19)
(0.999785 -0.00150109 -1.25469e-18)
(0.999836 -0.00155672 -2.39812e-18)
(0.999886 -0.0016304 -8.93439e-19)
(0.999936 -0.00172899 -5.55155e-18)
(0.999988 -0.00186271 -2.28489e-18)
(1.00004 -0.00204683 -3.00014e-19)
(1.00035 -0.00230566 3.66664e-19)
(0.998988 -0.000103648 -2.32892e-19)
(0.998995 -0.000300265 -1.26673e-18)
(0.998996 -0.000478989 -1.89364e-19)
(0.998994 -0.000638128 -2.93127e-18)
(0.99899 -0.000776276 3.24082e-19)
(0.998989 -0.000893252 -1.58178e-19)
(0.998993 -0.000989694 8.57095e-19)
(0.999003 -0.00106805 1.88531e-18)
(0.999021 -0.00113043 -2.91629e-18)
(0.999047 -0.0011802 1.41061e-18)
(0.999081 -0.00121989 2.69681e-18)
(0.999122 -0.00125185 -1.55927e-18)
(0.999168 -0.0012781 5.63644e-18)
(0.99922 -0.00130016 -4.14229e-19)
(0.999275 -0.0013193 -7.28765e-18)
(0.999333 -0.00133646 -4.21122e-18)
(0.999393 -0.0013526 -1.56755e-18)
(0.999453 -0.00136848 -1.55665e-18)
(0.999514 -0.00138506 4.46826e-18)
(0.999573 -0.00140331 -3.14619e-19)
(0.999632 -0.0014246 -4.71894e-18)
(0.999689 -0.00145037 3.8397e-18)
(0.999744 -0.001483 3.69155e-18)
(0.999798 -0.00152506 1.31582e-18)
(0.999849 -0.00158028 -1.70325e-18)
(0.9999 -0.00165358 -5.72158e-20)
(0.99995 -0.00175188 4.73454e-18)
(1 -0.00188552 3.2226e-18)
(1.00006 -0.00206992 -2.95009e-19)
(1.00038 -0.00232968 -3.72605e-19)
(0.998934 -0.000102698 2.98162e-19)
(0.998944 -0.000297175 2.26844e-18)
(0.998948 -0.000473958 -1.3957e-18)
(0.99895 -0.000632051 2.48714e-18)
(0.998952 -0.000770334 -8.32147e-19)
(0.998956 -0.000888631 -6.95637e-18)
(0.998965 -0.00098737 1.09965e-18)
(0.99898 -0.00106874 -6.05179e-18)
(0.999002 -0.00113452 -2.01669e-18)
(0.999032 -0.00118784 -3.10697e-18)
(0.999069 -0.00123095 -6.61965e-18)
(0.999112 -0.00126607 -1.38034e-18)
(0.999162 -0.0012951 1.35989e-18)
(0.999216 -0.00131952 -1.52368e-18)
(0.999273 -0.00134058 1.05362e-17)
(0.999333 -0.00135924 5.17999e-19)
(0.999395 -0.00137649 1.23603e-18)
(0.999457 -0.00139313 2.76301e-18)
(0.999519 -0.00141017 -6.9007e-19)
(0.999581 -0.00142861 4.06466e-18)
(0.999641 -0.00144987 1.6358e-18)
(0.999699 -0.00147543 1.95603e-18)
(0.999756 -0.00150772 -3.879e-18)
(0.99981 -0.00154936 7.23746e-19)
(0.999863 -0.00160412 4.03992e-19)
(0.999914 -0.00167699 -2.75581e-18)
(0.999965 -0.00177494 -1.2207e-18)
(1.00002 -0.00190846 -6.39732e-19)
(1.00007 -0.00209311 6.17938e-19)
(1.00041 -0.00235378 -3.94462e-20)
(0.998881 -0.000102053 -4.36926e-19)
(0.998893 -0.000294933 -7.83673e-19)
(0.998901 -0.00047019 3.55971e-18)
(0.998907 -0.000627514 -3.96153e-18)
(0.998913 -0.000766071 -1.42461e-18)
(0.998922 -0.000885706 3.79205e-18)
(0.998936 -0.000986662 -4.203e-18)
(0.998956 -0.00107092 5.45408e-18)
(0.998982 -0.00113993 6.77321e-18)
(0.999016 -0.00119662 4.87522e-19)
(0.999056 -0.00124301 4.82821e-18)
(0.999103 -0.00128115 -3.58397e-18)
(0.999155 -0.00131286 -4.78124e-18)
(0.999211 -0.00133956 -2.06738e-18)
(0.999271 -0.00136248 -1.51839e-18)
(0.999333 -0.00138261 5.46214e-18)
(0.999397 -0.00140094 -2.02067e-18)
(0.999461 -0.00141832 -4.99778e-18)
(0.999525 -0.00143578 1.17916e-18)
(0.999588 -0.00145439 -7.03715e-18)
(0.99965 -0.00147559 1.02606e-19)
(0.99971 -0.00150091 -6.02715e-18)
(0.999768 -0.00153282 4.94502e-18)
(0.999823 -0.00157399 -2.62995e-18)
(0.999876 -0.00162824 -9.47742e-19)
(0.999928 -0.00170062 1.26843e-18)
(0.99998 -0.00179817 -5.66408e-19)
(1.00003 -0.00193151 -2.23745e-18)
(1.00009 -0.00211635 2.53577e-19)
(1.00045 -0.00237787 7.97339e-20)
(0.998829 -0.000101695 3.33691e-19)
(0.998843 -0.000293483 -1.08525e-18)
(0.998854 -0.000467601 6.34643e-20)
(0.998864 -0.000624418 6.58619e-18)
(0.998875 -0.000763389 4.13953e-18)
(0.998888 -0.000884389 -2.41301e-19)
(0.998906 -0.000987503 1.02546e-17)
(0.998931 -0.00107453 -3.30886e-18)
(0.998961 -0.00114663 -6.15762e-18)
(0.998998 -0.00120654 -2.12312e-18)
(0.999042 -0.00125606 -3.15221e-18)
(0.999092 -0.00129712 -3.65686e-18)
(0.999147 -0.00133141 3.90419e-18)
(0.999206 -0.00136032 6.44321e-18)
(0.999268 -0.00138505 -1.24231e-18)
(0.999333 -0.0014066 8.48783e-19)
(0.999398 -0.00142598 -1.51476e-18)
(0.999465 -0.00144407 3.60862e-18)
(0.999531 -0.00146194 -2.92457e-18)
(0.999596 -0.00148069 3.55323e-18)
(0.999659 -0.0015018 -1.07128e-18)
(0.99972 -0.00152683 -5.60555e-19)
(0.999779 -0.00155832 -1.29709e-18)
(0.999836 -0.00159897 1.94062e-18)
(0.99989 -0.00165267 1.42687e-18)
(0.999943 -0.00172451 1.4073e-18)
(0.999995 -0.0018216 -7.27515e-19)
(1.00005 -0.00195469 1.3506e-18)
(1.0001 -0.00213968 5.0495e-19)
(1.00048 -0.00240201 1.09957e-19)
(0.998777 -0.000101606 -3.26767e-19)
(0.998793 -0.000292776 -8.68995e-19)
(0.998807 -0.000466122 -1.11483e-18)
(0.998821 -0.000622685 -3.62599e-18)
(0.998836 -0.000762209 -9.24487e-20)
(0.998854 -0.000884614 4.27038e-18)
(0.998877 -0.000989842 -7.46708e-18)
(0.998905 -0.00107954 1.83873e-18)
(0.998939 -0.0011546 4.21552e-18)
(0.99898 -0.0012176 3.76221e-18)
(0.999028 -0.00127014 3.09871e-18)
(0.999081 -0.001314 -3.84182e-19)
(0.999138 -0.00135079 1.06532e-18)
(0.9992 -0.00138183 -6.6276e-18)
(0.999265 -0.00140832 7.07136e-18)
(0.999332 -0.00143125 -2.69966e-18)
(0.9994 -0.00145164 -2.53579e-19)
(0.999468 -0.00147041 -1.96186e-18)
(0.999536 -0.00148866 2.68332e-18)
(0.999603 -0.00150751 -3.20575e-18)
(0.999668 -0.0015285 -2.80319e-18)
(0.999731 -0.0015532 1.77486e-18)
(0.999791 -0.00158423 -5.16262e-18)
(0.999849 -0.00162432 -3.41019e-18)
(0.999905 -0.00167741 1.36866e-18)
(0.999958 -0.00174864 -2.65531e-18)
(1.00001 -0.00184521 -1.03341e-18)
(1.00006 -0.001978 2.77102e-19)
(1.00012 -0.00216308 -2.78159e-20)
(1.00052 -0.00242613 -5.23193e-19)
(0.998726 -0.000101771 9.36606e-20)
(0.998744 -0.000292768 1.72646e-18)
(0.99876 -0.000465686 -3.31184e-18)
(0.998778 -0.000622235 3.50254e-18)
(0.998797 -0.000762451 -9.05749e-19)
(0.998819 -0.000886308 -8.07098e-18)
(0.998846 -0.000993624 2.59325e-18)
(0.998878 -0.00108592 -1.67961e-18)
(0.998917 -0.00116383 -1.99233e-18)
(0.998962 -0.0012298 -1.64168e-18)
(0.999012 -0.00128525 1.78797e-18)
(0.999068 -0.00133181 6.87778e-18)
(0.999129 -0.00137101 -3.57947e-18)
(0.999194 -0.00140413 4.0612e-18)
(0.999261 -0.00143233 -7.04697e-18)
(0.99933 -0.00145658 -2.91475e-18)
(0.999401 -0.00147796 3.98739e-18)
(0.999471 -0.00149738 3.31133e-18)
(0.999542 -0.00151597 -1.791e-18)
(0.99961 -0.0015349 7.962e-18)
(0.999677 -0.00155573 7.64691e-18)
(0.999742 -0.00158007 -3.67331e-18)
(0.999804 -0.00161059 4.55426e-18)
(0.999863 -0.00165007 1.62462e-18)
(0.999919 -0.00170248 -3.24797e-18)
(0.999974 -0.00177306 2.14299e-18)
(1.00003 -0.00186903 4.06453e-18)
(1.00008 -0.00200147 8.33483e-19)
(1.00014 -0.00218656 -4.60284e-19)
(1.00055 -0.00245027 3.73381e-19)
(0.998675 -0.000102176 9.16312e-19)
(0.998694 -0.000293424 2.50229e-19)
(0.998714 -0.00046624 2.4715e-18)
(0.998735 -0.000623007 -3.24324e-18)
(0.998757 -0.000764053 2.10543e-18)
(0.998784 -0.000889417 -1.17289e-18)
(0.998815 -0.000998807 4.60571e-18)
(0.998851 -0.00109364 -1.59267e-18)
(0.998894 -0.00117431 -2.08981e-18)
(0.998942 -0.00124316 -2.32414e-18)
(0.998996 -0.0013014 -7.0648e-18)
(0.999056 -0.00135058 2.33237e-18)
(0.999119 -0.00139212 1.31583e-18)
(0.999187 -0.00142725 2.11637e-18)
(0.999257 -0.00145709 -9.64492e-19)
(0.999329 -0.00148265 2.66638e-18)
(0.999402 -0.00150496 -5.94089e-18)
(0.999475 -0.001525 -6.18112e-18)
(0.999547 -0.0015439 1.13159e-19)
(0.999618 -0.00156288 -5.58069e-18)
(0.999687 -0.00158351 3.51354e-19)
(0.999753 -0.00160744 3.27562e-18)
(0.999816 -0.00163741 -2.28286e-18)
(0.999877 -0.00167621 1.21342e-19)
(0.999935 -0.0017279 1.40607e-18)
(0.99999 -0.00179775 -7.95164e-19)
(1.00004 -0.00189307 -4.49e-18)
(1.0001 -0.00202507 -2.13615e-18)
(1.00015 -0.00221009 6.35758e-19)
(1.00059 -0.00247438 4.53569e-19)
(0.998624 -0.000102811 -6.65963e-19)
(0.998645 -0.000294708 7.36006e-19)
(0.998667 -0.00046773 -9.93265e-19)
(0.998691 -0.000624937 2.24565e-18)
(0.998718 -0.000766952 -2.5263e-18)
(0.998748 -0.000893884 -1.71335e-18)
(0.998783 -0.00100534 -6.13751e-18)
(0.998824 -0.00110266 6.81296e-18)
(0.99887 -0.00118602 9.06455e-18)
(0.998922 -0.00125765 2.00442e-18)
(0.99898 -0.00131861 1.22137e-18)
(0.999042 -0.00137032 -8.32388e-19)
(0.999109 -0.00141412 1.22946e-18)
(0.999179 -0.0014512 -2.72984e-19)
(0.999252 -0.00148265 5.21822e-18)
(0.999327 -0.00150946 1.958e-18)
(0.999402 -0.00153269 2.37351e-18)
(0.999478 -0.0015533 2.89764e-19)
(0.999552 -0.00157248 5.19611e-18)
(0.999625 -0.00159146 2.91192e-18)
(0.999696 -0.00161186 -4.0499e-18)
(0.999764 -0.00163534 -3.08742e-18)
(0.999829 -0.0016647 2.02461e-18)
(0.999891 -0.00170279 3.41134e-19)
(0.99995 -0.00175368 3.06495e-19)
(1.00001 -0.00182274 -3.32779e-19)
(1.00006 -0.00191734 2.63249e-18)
(1.00011 -0.00204883 1.13166e-18)
(1.00017 -0.00223371 -2.93154e-18)
(1.00062 -0.00249849 -4.37124e-20)
(0.998574 -0.000103665 3.14932e-19)
(0.998597 -0.000296594 3.08985e-19)
(0.998621 -0.000470116 2.27452e-18)
(0.998648 -0.000627977 -1.05234e-18)
(0.998678 -0.000771098 -4.18315e-18)
(0.998712 -0.000899666 2.80914e-19)
(0.998751 -0.00101321 -6.85994e-18)
(0.998795 -0.00111297 1.80498e-18)
(0.998845 -0.00119896 -6.95519e-18)
(0.998901 -0.00127329 -2.22186e-18)
(0.998962 -0.00133689 -1.66957e-18)
(0.999028 -0.00139106 2.18236e-18)
(0.999098 -0.00143706 -1.32234e-18)
(0.999171 -0.00147603 3.11136e-19)
(0.999247 -0.00150904 -1.32364e-18)
(0.999325 -0.00153706 -5.28908e-18)
(0.999403 -0.00156116 -3.99078e-19)
(0.99948 -0.00158232 3.36371e-18)
(0.999557 -0.00160174 -3.49707e-18)
(0.999633 -0.00162069 2.66221e-18)
(0.999705 -0.00164081 -6.08635e-18)
(0.999775 -0.00166379 3.08991e-18)
(0.999842 -0.0016925 -4.38463e-18)
(0.999906 -0.0017298 1.38865e-18)
(0.999966 -0.00177984 -1.20656e-18)
(1.00002 -0.00184804 -1.14951e-20)
(1.00008 -0.00194184 -1.67811e-18)
(1.00013 -0.00207273 -1.6201e-18)
(1.00019 -0.0022574 1.45903e-18)
(1.00066 -0.00252255 1.70635e-19)
(0.998523 -0.000104729 -8.53057e-19)
(0.998548 -0.000299053 -3.05831e-18)
(0.998575 -0.000473358 -2.43143e-18)
(0.998604 -0.000632078 1.09557e-18)
(0.998638 -0.00077644 1.19292e-18)
(0.998675 -0.000906717 6.69868e-18)
(0.998718 -0.00102235 1.07259e-17)
(0.998766 -0.00112454 -1.20124e-17)
(0.99882 -0.0012131 1.71135e-18)
(0.99888 -0.00129007 -1.44236e-18)
(0.998944 -0.00135624 1.04112e-17)
(0.999013 -0.00141281 -3.68269e-18)
(0.999087 -0.00146095 -9.31144e-19)
(0.999163 -0.00150176 6.88798e-19)
(0.999242 -0.00153628 -7.38363e-18)
(0.999322 -0.00156547 1.97132e-18)
(0.999403 -0.0015904 1.50346e-18)
(0.999483 -0.00161208 1.03911e-18)
(0.999563 -0.00163171 1.53458e-18)
(0.99964 -0.00165058 -1.43314e-18)
(0.999715 -0.00167038 1.51649e-18)
(0.999787 -0.00169282 -3.04332e-18)
(0.999856 -0.00172081 3.95485e-18)
(0.999921 -0.00175728 3.49094e-18)
(0.999982 -0.0018064 4.40685e-18)
(1.00004 -0.00187367 -2.70548e-19)
(1.0001 -0.00196659 5.94928e-19)
(1.00015 -0.00209681 1.38829e-19)
(1.00021 -0.00228116 -6.03789e-19)
(1.0007 -0.00254659 -3.90238e-19)
(0.998473 -0.000105997 7.32158e-19)
(0.998499 -0.000302067 1.9231e-18)
(0.998528 -0.000477422 -2.94886e-19)
(0.99856 -0.000637203 7.60684e-19)
(0.998597 -0.000782942 -2.77683e-19)
(0.998638 -0.000915003 -4.47286e-18)
(0.998685 -0.00103276 -6.91849e-20)
(0.998737 -0.00113736 4.60219e-18)
(0.998794 -0.00122845 6.32447e-18)
(0.998857 -0.00130801 1.08487e-17)
(0.998925 -0.00137669 3.73376e-18)
(0.998998 -0.00143559 3.4447e-18)
(0.999075 -0.00148582 -2.9801e-18)
(0.999154 -0.00152842 -4.72706e-18)
(0.999236 -0.00156441 1.15318e-17)
(0.999319 -0.00159473 5.36744e-18)
(0.999403 -0.00162046 -9.61008e-18)
(0.999486 -0.0016426 -4.96408e-18)
(0.999568 -0.0016624 -8.51646e-18)
(0.999648 -0.00168116 -3.4811e-18)
(0.999725 -0.0017006 3.65706e-18)
(0.999799 -0.00172243 5.79001e-18)
(0.999869 -0.00174967 -8.14528e-18)
(0.999936 -0.00178523 -1.375e-18)
(0.999999 -0.00183337 -3.89368e-18)
(1.00006 -0.00189963 1.1853e-18)
(1.00012 -0.0019916 -2.40215e-18)
(1.00017 -0.00212105 -2.21577e-18)
(1.00023 -0.00230498 7.27718e-19)
(1.00073 -0.00257057 -2.65189e-19)
(0.998422 -0.000107461 1.25862e-19)
(0.99845 -0.000305614 1.45099e-18)
(0.998481 -0.000482279 1.76342e-18)
(0.998516 -0.000643313 -2.94895e-18)
(0.998556 -0.000790563 1.75917e-18)
(0.998601 -0.000924489 2.5885e-18)
(0.998651 -0.00104439 -3.72162e-18)
(0.998706 -0.00115141 3.63771e-18)
(0.998768 -0.00124499 8.28019e-19)
(0.998834 -0.0013271 -1.23278e-17)
(0.998906 -0.00139824 -4.48118e-18)
(0.998982 -0.00145942 -5.36131e-18)
(0.999062 -0.00151168 7.26809e-19)
(0.999145 -0.00155603 3.75351e-18)
(0.99923 -0.00159345 -6.44413e-18)
(0.999316 -0.00162486 -2.80562e-18)
(0.999402 -0.00165135 8.62308e-18)
(0.999488 -0.00167393 8.69599e-18)
(0.999573 -0.00169386 1.03698e-18)
(0.999655 -0.00171247 6.18081e-18)
(0.999735 -0.00173149 -3.22876e-18)
(0.999811 -0.00175267 3.37463e-19)
(0.999884 -0.00177909 1.20871e-17)
(0.999952 -0.00181369 -4.15243e-18)
(1.00002 -0.00186077 -9.77131e-19)
(1.00008 -0.00192595 -1.59555e-18)
(1.00013 -0.00201687 -4.7928e-19)
(1.00019 -0.00214548 5.68233e-18)
(1.00025 -0.00232889 9.89777e-19)
(1.00077 -0.00259453 4.97183e-19)
(0.998372 -0.000109117 -2.21111e-19)
(0.9984 -0.00030968 -2.14544e-18)
(0.998434 -0.000487905 6.88432e-21)
(0.998472 -0.000650381 -1.12295e-18)
(0.998515 -0.000799275 -1.22184e-18)
(0.998563 -0.00093515 -3.41587e-18)
(0.998616 -0.00105724 -5.49921e-19)
(0.998676 -0.00116668 -5.70974e-18)
(0.99874 -0.00126274 -9.54376e-18)
(0.998811 -0.00134736 6.99181e-18)
(0.998886 -0.0014209 -1.37605e-17)
(0.998966 -0.00148432 1.63639e-18)
(0.999049 -0.00153858 1.35945e-18)
(0.999135 -0.00158463 3.3301e-18)
(0.999223 -0.00162343 -2.46975e-18)
(0.999313 -0.0016559 -9.83748e-19)
(0.999402 -0.00168311 1.10636e-18)
(0.999491 -0.00170609 -9.07414e-18)
(0.999578 -0.0017261 5.72104e-18)
(0.999663 -0.00174451 -4.86489e-19)
(0.999745 -0.00176307 2.09104e-18)
(0.999824 -0.00178356 5.61812e-18)
(0.999898 -0.00180909 -8.13516e-18)
(0.999968 -0.00184266 2.67666e-19)
(1.00003 -0.00188861 1.26433e-18)
(1.0001 -0.00195263 -1.54732e-18)
(1.00015 -0.00204242 6.13358e-18)
(1.00021 -0.00217008 1.12144e-19)
(1.00027 -0.00235286 -9.16707e-19)
(1.00081 -0.00261841 -2.72301e-19)
(0.998321 -0.000110959 -5.59779e-19)
(0.998351 -0.000314251 2.33166e-20)
(0.998386 -0.000494276 1.20892e-18)
(0.998427 -0.000658377 -7.12682e-19)
(0.998473 -0.000809048 -2.6544e-19)
(0.998524 -0.000946957 -2.37009e-18)
(0.998581 -0.00107128 2.99505e-18)
(0.998644 -0.00118314 3.08826e-18)
(0.998713 -0.00128167 -3.75509e-18)
(0.998787 -0.00136877 2.75447e-18)
(0.998865 -0.00144469 1.93676e-17)
(0.998949 -0.0015103 4.33695e-18)
(0.999035 -0.00156651 -9.60327e-18)
(0.999125 -0.00161423 -2.45503e-18)
(0.999217 -0.00165438 5.26525e-18)
(0.999309 -0.00168787 1.71531e-18)
(0.999402 -0.00171576 5.23208e-18)
(0.999493 -0.0017391 6.50194e-18)
(0.999583 -0.00175916 4.95745e-18)
(0.999671 -0.00177733 -4.75401e-18)
(0.999756 -0.00179538 -5.98232e-18)