/*--------------------------------*- C++ -*----------------------------------*\
  =========                 |
  \\      /  F ield         | OpenFOAM: The Open Source CFD Toolbox
   \\    /   O peration     | Website:  https://openfoam.org
    \\  /    A nd           | Version:  6.0
     \\/     M anipulation  |
\*---------------------------------------------------------------------------*/
FoamFile
{
    version     2.0;
    format      ascii;
    class       volVectorField;
    location    "3.43";
    object      U;
}
// * * * * * * * * * * * * * * * * * * * * * * * * * * * * * * * * * * * * * //

dimensions      [0 1 -1 0 0 0 0];

internalField   nonuniform List<vector> 
13500
(
(1 2.5647e-06 -4.2565e-18)
(1 -3.0745e-06 2.8813e-18)
(1 -5.8634e-06 -1.2388e-17)
(1 -1.0254e-05 -8.5745e-18)
(1 -9.2846e-06 1.6108e-17)
(1 -9.2758e-06 3.0013e-17)
(1 -1.2499e-06 2.5661e-17)
(0.99998 1.4766e-05 -4.1443e-18)
(0.99992 3.6561e-05 1.5188e-17)
(0.9998 7.5308e-05 3.2383e-18)
(0.99571 0.00075715 2.854e-17)
(1.019 0.010845 7.7066e-18)
(1 8.0153e-06 2.637e-18)
(1 -8.25e-06 -8.7504e-18)
(1 -1.5654e-05 5.9157e-18)
(1 -2.794e-05 -3.3824e-19)
(1 -2.4091e-05 -4.2957e-19)
(1 -2.423e-05 -3.6089e-17)
(1 1.8282e-06 -4.432e-17)
(0.99993 4.7505e-05 -2.3713e-17)
(0.99975 0.00012209 -1.5158e-17)
(0.99982 0.00018719 -1.6014e-18)
(0.98616 0.0021926 -1.3515e-17)
(1.0534 0.03066 -4.6662e-18)
(1 1.3426e-05 -3.406e-18)
(1 -1.3566e-05 1.7385e-17)
(1 -2.5533e-05 3.077e-18)
(1 -4.6154e-05 9.8862e-18)
(1 -3.8947e-05 -3.7144e-18)
(1 -4.0101e-05 2.8909e-17)
(1 5.3274e-06 -6.2385e-18)
(0.99989 7.9114e-05 5.3864e-18)
(0.99956 0.00021573 -1.8389e-17)
(1.0003 0.00031486 2.4328e-17)
(0.97595 0.0032771 -7.0663e-18)
(1.0819 0.045218 1.6358e-18)
(1 1.8763e-05 8.904e-18)
(1 -1.913e-05 -1.6855e-17)
(1 -3.5816e-05 -1.4586e-17)
(1 -6.5109e-05 -6.9367e-19)
(1 -5.4389e-05 5.7339e-18)
(1.0001 -5.6948e-05 -8.022e-19)
(1 8.5351e-06 6.1468e-17)
(0.99986 0.00010933 9.7046e-18)
(0.99933 0.00031643 2.1744e-17)
(1.0013 0.00046244 -8.8124e-18)
(0.96548 0.0040372 3.4409e-17)
(1.1032 0.055793 -7.4456e-18)
(1 2.4097e-05 -6.2564e-18)
(1 -2.472e-05 1.4568e-17)
(1 -4.6169e-05 1.2416e-17)
(1 -8.4146e-05 1.2653e-17)
(1 -6.9928e-05 2.8115e-18)
(1.0001 -7.3919e-05 2.1248e-17)
(1 1.1848e-05 -2.7449e-17)
(0.99984 0.00013851 1.9712e-18)
(0.99905 0.0004231 -1.3332e-17)
(1.0026 0.00063195 -2.1027e-18)
(0.95514 0.0045228 -8.9248e-18)
(1.1172 0.063516 2.0648e-18)
(0.99999 2.9427e-05 6.3316e-18)
(1 -3.0338e-05 -6.0391e-18)
(1 -5.6591e-05 3.792e-18)
(1 -0.00010327 -2.5065e-17)
(1.0001 -8.5563e-05 -8.2367e-20)
(1.0001 -9.1034e-05 -4.2065e-17)
(1 1.527e-05 1.0532e-18)
(0.99983 0.00016649 -1.5823e-17)
(0.99871 0.00053434 5.077e-18)
(1.0043 0.00083 -2.1186e-17)
(0.94528 0.0047762 -2.1484e-17)
(1.1246 0.068997 1.9952e-18)
(0.99999 3.4753e-05 -1.0481e-18)
(1 -3.5987e-05 -7.223e-18)
(1 -6.7079e-05 -3.0818e-18)
(1.0001 -0.00012249 1.8919e-17)
(1.0001 -0.00010129 -2.604e-17)
(1.0001 -0.00010833 1.6095e-17)
(1 1.8846e-05 1.8359e-17)
(0.99983 0.00019316 5.5668e-18)
(0.99831 0.00064883 1.135e-17)
(1.0064 0.0010629 1.1405e-17)
(0.93618 0.0048353 9.255e-18)
(1.1263 0.072662 3.2018e-18)
(0.99999 4.0074e-05 -2.1633e-18)
(1 -4.167e-05 -1.4209e-18)
(1 -7.7638e-05 -2.6548e-17)
(1.0001 -0.00014182 -9.0341e-18)
(1.0001 -0.0001171 7.2885e-18)
(1.0001 -0.00012583 2.6378e-17)
(1 2.2594e-05 1.1685e-17)
(0.99985 0.00021845 4.9698e-18)
(0.99783 0.00076523 -7.4185e-18)
(1.0088 0.0013345 1.5975e-17)
(0.92808 0.0047365 7.474e-18)
(1.1235 0.074874 -1.018e-17)
(0.99999 4.5391e-05 -6.7156e-18)
(1 -4.7388e-05 6.1088e-18)
(1 -8.8268e-05 4.4638e-17)
(1.0001 -0.00016126 -1.0836e-17)
(1.0001 -0.00013301 2.7294e-17)
(1.0001 -0.00014354 -5.2079e-17)
(1 2.6516e-05 -3.8926e-17)
(0.99988 0.00024229 9.6573e-18)
(0.99728 0.0008822 -5.5716e-18)
(1.0114 0.0016461 -8.8108e-18)
(0.92114 0.0045145 -1.381e-17)
(1.117 0.075937 1.3317e-17)
(0.99999 5.0702e-05 4.4244e-18)
(1 -5.3141e-05 2.2994e-18)
(1 -9.8975e-05 -3.7811e-17)
(1.0001 -0.00018081 1.5422e-17)
(1.0001 -0.00014902 -1.1902e-17)
(1.0001 -0.00016148 2.2212e-17)
(1 3.0612e-05 1.3833e-17)
(0.99993 0.00026467 2.4416e-18)
(0.99664 0.00099844 5.2621e-19)
(1.0141 0.0019973 1.3955e-18)
(0.91546 0.0042016 4.3933e-18)
(1.1077 0.076103 -6.9828e-19)
(0.99998 5.6007e-05 -2.4292e-18)
(1 -5.8932e-05 -7.5413e-18)
(1 -0.00010976 9.2686e-18)
(1.0001 -0.00020048 -2.7211e-18)
(1.0001 -0.00016515 1.8373e-18)
(1.0002 -0.00017967 -2.4343e-17)
(1 3.4881e-05 -3.1859e-17)
(1 0.00028559 -3.1008e-17)
(0.99592 0.0011127 1.5574e-17)
(1.017 0.0023862 1.8126e-18)
(0.91108 0.0038271 -1.1144e-17)
(1.0965 0.07558 -5.7371e-18)
(0.99998 6.1305e-05 3.353e-18)
(1 -6.4762e-05 2.8484e-18)
(1 -0.00012063 4.4669e-18)
(1.0001 -0.00022028 -2.1687e-18)
(1.0001 -0.0001814 -5.5075e-18)
(1.0002 -0.00019813 9.2071e-18)
(1.0001 3.9322e-05 1.8442e-17)
(1.0001 0.00030507 1.9156e-17)
(0.99511 0.001224 1.0006e-17)
(1.0199 0.0028095 -2.2893e-17)
(0.90801 0.0034174 1.1688e-19)
(1.0841 0.074538 -6.6396e-18)
(0.99998 6.6597e-05 -3.3524e-18)
(0.99999 -7.063e-05 5.6016e-18)
(1 -0.00013159 8.0988e-18)
(1.0001 -0.00024021 5.6626e-18)
(1.0001 -0.00019778 -5.1082e-18)
(1.0002 -0.00021686 4.5264e-18)
(1.0001 4.393e-05 4.2054e-18)
(1.0002 0.00032316 -1.7106e-18)
(0.99422 0.0013312 -1.6172e-17)
(1.0228 0.0032631 2.1228e-17)
(0.90621 0.0029956 1.0398e-19)
(1.0711 0.073117 1.4226e-18)
(0.99997 7.188e-05 5.0981e-18)
(0.99999 -7.654e-05 -4.3727e-18)
(1 -0.00014263 7.0905e-19)
(1.0001 -0.00026027 -4.7239e-18)
(1.0002 -0.00021429 1.1601e-17)
(1.0002 -0.00023588 5.5229e-18)
(1.0001 4.8696e-05 1.6921e-17)
(1.0004 0.00033994 -6.3538e-18)
(0.99325 0.0014334 -1.976e-19)
(1.0257 0.0037422 5.2128e-18)
(0.90562 0.0025817 1.6915e-17)
(1.0579 0.071428 9.074e-19)
(0.99997 7.7156e-05 1.2296e-18)
(0.99999 -8.2491e-05 9.7046e-18)
(1 -0.00015377 1.3543e-17)
(1.0001 -0.00028046 -4.71e-18)
(1.0002 -0.00023094 8.4004e-18)
(1.0002 -0.00025522 -2.5782e-18)
(1.0001 5.361e-05 -2.9635e-17)
(1.0005 0.00035551 2.0112e-17)
(0.99221 0.0015298 -1.8236e-17)
(1.0285 0.0042417 -3.0069e-17)
(0.90613 0.0021924 -3.7129e-18)
(1.0451 0.069565 8.4052e-19)
(0.99996 8.2424e-05 -3.1369e-18)
(0.99999 -8.8487e-05 -1.0321e-17)
(1 -0.00016501 -3.2506e-17)
(1.0001 -0.0003008 7.9352e-18)
(1.0002 -0.00024774 -1.2748e-17)
(1.0003 -0.00027488 8.2669e-18)
(1.0001 5.8654e-05 -2.7727e-18)
(1.0008 0.00037 -1.2107e-17)
(0.99109 0.0016197 4.0048e-18)
(1.0311 0.0047563 1.7955e-17)
(0.90766 0.0018412 -7.7934e-18)
(1.0329 0.067601 1.1665e-17)
(0.99996 8.7683e-05 3.3008e-19)
(0.99998 -9.4528e-05 7.7192e-18)
(1 -0.00017634 2.2443e-17)
(1.0001 -0.00032128 -1.7873e-18)
(1.0002 -0.0002647 -1.2665e-17)
(1.0003 -0.00029489 -1.5406e-17)
(1.0001 6.3808e-05 1.0591e-17)
(1.001 0.00038353 6.944e-18)
(0.98991 0.0017025 2.3143e-17)
(1.0337 0.0052807 -2.5137e-18)
(0.91009 0.0015386 1.9367e-18)
(1.0215 0.065595 -4.6543e-18)
(0.99996 9.2933e-05 -1.8518e-18)
(0.99998 -0.00010062 -9.3534e-18)
(1 -0.00018778 -1.0127e-17)
(1.0001 -0.00034192 5.9724e-18)
(1.0002 -0.00028182 -7.1128e-18)
(1.0003 -0.00031525 -1.2357e-17)
(1 6.9047e-05 1.0296e-17)
(1.0013 0.00039628 -4.7106e-18)
(0.98867 0.0017777 -2.8638e-17)
(1.036 0.0058098 -1.4086e-17)
(0.91329 0.0012923 8.4066e-18)
(1.0112 0.063592 -5.0466e-18)
(0.99995 9.8174e-05 -2.6517e-18)
(0.99997 -0.00010675 -3.5354e-18)
(1 -0.00019933 -7.505e-19)
(1.0001 -0.00036271 -2.6154e-17)
(1.0002 -0.00029912 5.9678e-18)
(1.0003 -0.00033599 5.3808e-18)
(1 7.4339e-05 -1.9565e-17)
(1.0016 0.00040841 -1.6084e-17)
(0.98739 0.0018447 4.1897e-18)
(1.0381 0.0063388 -1.0572e-18)
(0.91715 0.0011074 -9.7074e-18)
(1.0019 0.061629 9.5456e-19)
(0.99994 0.00010341 3.4491e-18)
(0.99997 -0.00011294 1.6207e-17)
(1 -0.00021099 1.9326e-17)
(1.0002 -0.00038366 2.4626e-18)
(1.0002 -0.00031661 1.6498e-17)
(1.0004 -0.00035712 9.43e-18)
(1 7.9647e-05 2.8241e-18)
(1.0019 0.00042013 1.7605e-17)
(0.98606 0.0019033 2.081e-17)
(1.0399 0.0068633 1.682e-17)
(0.92156 0.0009867 7.2466e-18)
(0.99384 0.059731 1.1323e-18)
(0.99994 0.00010863 -1.644e-18)
(0.99997 -0.00011917 -3.8885e-18)
(1 -0.00022276 -2.059e-17)
(1.0002 -0.00040478 -2.3326e-18)
(1.0002 -0.00033428 -1.2504e-17)
(1.0004 -0.00037866 -5.1026e-18)
(0.99999 8.4929e-05 -1.8123e-18)
(1.0023 0.00043165 -1.592e-17)
(0.9847 0.0019529 -1.9896e-17)
(1.0416 0.0073792 8.6195e-18)
(0.92639 0.00093093 4.9844e-19)
(0.98694 0.057917 6.4978e-19)
(0.99993 0.00011384 4.3578e-18)
(0.99996 -0.00012546 -5.0805e-18)
(1 -0.00023465 -1.9312e-17)
(1.0002 -0.00042606 4.4339e-17)
(1.0002 -0.00035216 1.8139e-17)
(1.0004 -0.00040062 -1.2486e-17)
(0.99995 9.0137e-05 2.4366e-17)
(1.0027 0.00044318 2.1516e-17)
(0.98333 0.0019935 3.2283e-17)
(1.0429 0.0078831 -3.159e-17)
(0.93155 0.00093919 -1.3311e-17)
(0.98122 0.056202 1.7121e-19)
(0.99993 0.00011904 -3.1898e-18)
(0.99996 -0.00013181 -1.0196e-18)
(1 -0.00024667 3.297e-17)
(1.0002 -0.00044753 -3.3518e-17)
(1.0002 -0.00037024 -1.746e-18)
(1.0005 -0.000423 4.1371e-17)
(0.99991 9.5213e-05 7.551e-18)
(1.0032 0.00045497 -3.3232e-18)
(0.98194 0.0020247 -2.002e-17)
(1.044 0.0083718 3.7225e-17)
(0.93694 0.0010092 -5.6405e-18)
(0.97662 0.054592 -2.7231e-19)
(0.99992 0.00012423 -1.6262e-18)
(0.99995 -0.00013821 -2.0316e-18)
(1 -0.00025881 1.7171e-18)
(1.0002 -0.00046917 3.4871e-17)
(1.0003 -0.00038855 -9.8448e-18)
(1.0005 -0.00044584 -3.058e-17)
(0.99986 0.0001001 -1.9253e-17)
(1.0037 0.00046725 -3.5786e-18)
(0.98055 0.0020463 6.3302e-18)
(1.0449 0.0088426 -3.14e-17)
(0.94246 0.0011375 9.4466e-18)
(0.97309 0.053092 2.9504e-18)
(0.99991 0.0001294 2.6874e-18)
(0.99995 -0.00014467 1.414e-17)
(1 -0.00027109 -1.2662e-17)
(1.0002 -0.000491 -3.6508e-18)
(1.0003 -0.00040708 -1.8894e-17)
(1.0005 -0.00046913 3.327e-17)
(0.99981 0.00010472 -1.6901e-17)
(1.0042 0.00048029 1.4838e-17)
(0.97917 0.0020581 -1.9509e-18)
(1.0454 0.0092934 2.9437e-17)
(0.94804 0.0013198 -9.2212e-18)
(0.97053 0.051703 -4.923e-18)
(0.9999 0.00013457 -5.1543e-19)
(0.99994 -0.00015119 -8.1324e-18)
(1 -0.0002835 -1.7731e-17)
(1.0002 -0.00051302 -1.0005e-17)
(1.0003 -0.00042585 1.8326e-17)
(1.0006 -0.00049289 -4.2426e-17)
(0.99974 0.000109 -2.6076e-18)
(1.0048 0.00049434 -2.0047e-17)
(0.97781 0.0020601 3.1505e-18)
(1.0457 0.0097221 -8.4904e-18)
(0.9536 0.0015513 9.815e-18)
(0.96888 0.050423 2.0879e-18)
(0.9999 0.00013972 2.7003e-18)
(0.99993 -0.00015777 -8.7116e-18)
(1 -0.00029605 -1.7521e-18)
(1.0002 -0.00053524 2.4315e-18)
(1.0003 -0.00044488 5.8004e-18)
(1.0006 -0.00051712 1.2259e-17)
(0.99966 0.00011286 4.2755e-17)
(1.0054 0.00050968 2.3959e-18)
(0.97649 0.0020521 5.1331e-18)
(1.0457 0.010127 9.3565e-18)
(0.95907 0.0018265 -8.3967e-18)
(0.96802 0.049249 1.6028e-18)
(0.99989 0.00014486 -1.5483e-18)
(0.99993 -0.00016441 8.7036e-18)
(1 -0.00030874 2.5205e-17)
(1.0002 -0.00055765 -2.4497e-17)
(1.0003 -0.00046416 -9.0228e-18)
(1.0006 -0.00054185 -2.1576e-18)
(0.99957 0.00011621 -1.4093e-17)
(1.006 0.00052657 1.8589e-18)
(0.9752 0.0020341 -8.8949e-18)
(1.0455 0.010508 -3.4393e-18)
(0.96441 0.00214 -2.3866e-19)
(0.96787 0.048176 -1.9588e-18)
(0.99988 0.00014999 -1.6642e-18)
(0.99992 -0.00017112 5.2099e-18)
(1 -0.00032159 -6.0943e-19)
(1.0002 -0.00058028 8.1228e-18)
(1.0003 -0.00048371 -1.6649e-17)
(1.0007 -0.00056706 2.441e-17)
(0.99947 0.00011894 7.0289e-18)
(1.0067 0.00054528 -1.7734e-17)
(0.97397 0.0020061 -1.1403e-17)
(1.045 0.010864 -1.3614e-17)
(0.96957 0.0024861 1.3301e-18)
(0.96834 0.047197 -3.5876e-18)
(0.99987 0.0001551 5.7834e-19)
(0.99991 -0.0001779 -1.2442e-17)
(1 -0.00033459 1.5609e-17)
(1.0002 -0.00060311 2.2468e-17)
(1.0003 -0.00050355 3.2632e-17)
(1.0007 -0.00059277 -1.7927e-17)
(0.99936 0.00012095 -1.7476e-17)
(1.0074 0.00056608 3.5984e-18)
(0.9728 0.0019679 1.0685e-17)
(1.0443 0.011193 1.0657e-17)
(0.9745 0.0028592 6.1964e-18)
(0.96933 0.046307 3.5657e-18)
(0.99986 0.0001602 1.1084e-18)
(0.99991 -0.00018474 9.8944e-18)
(1 -0.00034774 -3.5861e-17)
(1.0002 -0.00062617 -3.2551e-18)
(1.0003 -0.00052369 -2.7108e-17)
(1.0008 -0.00061898 -1.1293e-17)
(0.99923 0.00012213 2.4606e-20)
(1.0081 0.00058925 -4.1169e-18)
(0.97169 0.0019198 -2.1048e-17)
(1.0434 0.011496 -1.7014e-17)
(0.97918 0.0032538 -8.4644e-18)
(0.97074 0.045497 -1.7565e-18)
(0.99985 0.00016528 -7.1837e-19)
(0.9999 -0.00019166 -6.435e-18)
(1 -0.00036107 2.8217e-17)
(1.0002 -0.00064944 -3.1064e-17)
(1.0003 -0.00054413 -2.0394e-18)
(1.0008 -0.0006457 2.4049e-17)
(0.99909 0.00012234 6.9923e-19)
(1.0089 0.00061504 3.9255e-18)
(0.97067 0.0018617 1.8426e-17)
(1.0423 0.011773 2.2116e-17)
(0.98357 0.0036646 4.8421e-18)
(0.9725 0.044761 -9.8055e-19)
(0.99984 0.00017035 -1.8703e-18)
(0.99989 -0.00019864 -2.3733e-18)
(1 -0.00037456 -1.2509e-17)
(1.0002 -0.00067295 1.5475e-17)
(1.0003 -0.00056489 2.9795e-17)
(1.0009 -0.00067291 -1.0629e-17)
(0.99894 0.00012146 2.1764e-17)
(1.0096 0.0006437 2.9425e-18)
(0.96973 0.0017938 -2.0867e-18)
(1.041 0.012023 1.0005e-17)
(0.98767 0.0040867 -5.4123e-18)
(0.97454 0.044091 -6.8275e-19)
(0.99983 0.0001754 4.6773e-19)
(0.99988 -0.0002057 -6.2763e-18)
(0.99999 -0.00038822 4.6831e-18)
(1.0002 -0.00069669 -1.5773e-17)
(1.0004 -0.00058599 -3.1516e-17)
(1.0009 -0.00070063 6.6987e-18)
(0.99878 0.00011935 -3.1398e-17)
(1.0104 0.0006755 -6.7283e-18)
(0.96888 0.0017162 6.7694e-18)
(1.0395 0.012248 -3.1402e-17)
(0.99145 0.0045154 3.7051e-18)
(0.97676 0.04348 1.9294e-18)
(0.99982 0.00018043 8.2144e-19)
(0.99987 -0.00021284 1.7004e-17)
(0.99999 -0.00040206 7.8417e-18)
(1.0002 -0.00072067 6.4246e-18)
(1.0004 -0.00060743 2.5201e-17)
(1.001 -0.00072883 1.9977e-18)
(0.9986 0.00011585 2.1681e-17)
(1.0112 0.00071067 4.8256e-18)
(0.96814 0.0016292 -2.0572e-17)
(1.0379 0.012446 1.0811e-17)
(0.99491 0.0049463 2.5058e-18)
(0.97913 0.042921 1.9998e-18)
(0.99981 0.00018545 -2.8684e-18)
(0.99986 -0.00022006 -5.5973e-18)
(0.99998 -0.00041609 -6.8891e-18)
(1.0002 -0.00074489 1.0552e-17)
(1.0004 -0.00062924 1.2175e-17)
(1.0011 -0.00075752 -3.9775e-18)
(0.9984 0.00011081 -1.8211e-17)
(1.0121 0.00074943 2.1973e-17)
(0.96749 0.001533 3.8105e-18)
(1.0361 0.012619 -3.2661e-18)
(0.99804 0.0053753 1.0366e-17)
(0.98157 0.042407 -1.3896e-18)
(0.9998 0.00019046 5.8942e-18)
(0.99985 -0.00022736 6.7035e-18)
(0.99998 -0.0004303 -7.3236e-18)
(1.0002 -0.00076936 -6.5735e-18)
(1.0004 -0.00065143 -1.7471e-17)
(1.0011 -0.00078668 -6.8324e-18)
(0.99819 0.00010406 8.9789e-18)
(1.0129 0.000792 -3.5244e-17)
(0.96696 0.0014279 9.3251e-18)
(1.0342 0.012767 -3.8609e-18)
(1.0008 0.0057989 -1.0977e-17)
(0.98403 0.041932 4.0349e-18)
(0.99979 0.00019544 -2.6015e-18)
(0.99985 -0.00023474 -1.1778e-17)
(0.99997 -0.00044471 -7.0984e-18)
(1.0002 -0.0007941 -1.2475e-17)
(1.0004 -0.00067402 -5.3348e-18)
(1.0012 -0.0008163 2.009e-17)
(0.99797 9.543e-05 -8.8202e-18)
(1.0137 0.00083858 3.9207e-17)
(0.96655 0.0013143 8.7917e-18)
(1.0322 0.01289 1.1716e-17)
(1.0033 0.0062137 4.6266e-18)
(0.98648 0.04149 -6.5425e-18)
(0.99977 0.00020041 -1.38e-18)
(0.99983 -0.0002422 8.7595e-18)
(0.99996 -0.00045932 1.4065e-17)
(1.0003 -0.00081909 3.3634e-17)
(1.0004 -0.00069702 7.0713e-18)
(1.0013 -0.00084636 -1.378e-17)
(0.99773 8.473e-05 4.2564e-18)
(1.0146 0.00088934 -4.2181e-17)
(0.96625 0.0011926 -1.0663e-17)
(1.0302 0.01299 -6.5144e-18)
(1.0055 0.0066168 4.5386e-18)
(0.98887 0.041076 6.5776e-18)
(0.99976 0.00020535 1.0561e-18)
(0.99982 -0.00024975 2.0738e-18)
(0.99996 -0.00047414 -1.3813e-17)
(1.0003 -0.00084435 -5.6022e-18)
(1.0004 -0.00072045 8.9793e-18)
(1.0014 -0.00087684 1.6496e-17)
(0.99748 7.177e-05 1.4801e-17)
(1.0154 0.00094446 4.175e-18)
(0.96607 0.0010632 1.1929e-17)
(1.0281 0.013067 -3.0187e-18)
(1.0074 0.0070055 -8.1023e-18)
(0.99118 0.040684 -1.6964e-18)
(0.99975 0.00021028 -4.3249e-20)
(0.99981 -0.00025739 2.3637e-18)
(0.99995 -0.00048916 3.087e-18)
(1.0003 -0.00086988 -7.2735e-18)
(1.0004 -0.00074432 8.3908e-20)
(1.0015 -0.00090771 -1.4956e-17)
(0.99721 5.6347e-05 -1.0011e-17)
(1.0163 0.0010041 3.0889e-17)
(0.96601 0.00092677 -1.8026e-17)
(1.0259 0.013121 1.1722e-17)
(1.009 0.0073776 4.2789e-18)
(0.99338 0.04031 -4.7893e-18)
(0.99974 0.00021519 -3.2715e-18)
(0.9998 -0.00026513 -1.1085e-17)
(0.99994 -0.00050441 7.8822e-18)
(1.0003 -0.00089569 -1.9866e-17)
(1.0004 -0.00076867 -2.2709e-17)
(1.0016 -0.00093895 -2.0664e-17)
(0.99693 3.8254e-05 -2.0403e-17)
(1.0171 0.0010683 -3.1633e-18)
(0.96607 0.00078379 1.5753e-17)
(1.0238 0.013154 -1.0055e-17)
(1.0103 0.007731 4.2502e-19)
(0.99545 0.03995 4.5105e-18)
(0.99972 0.00022008 6.3145e-18)
(0.99979 -0.00027295 1.1585e-17)
(0.99993 -0.00051987 -1.2712e-17)
(1.0003 -0.00092179 1.631e-17)
(1.0004 -0.00079351 -2.6637e-18)
(1.0017 -0.00097052 1.3544e-17)
(0.99664 1.7272e-05 2.4524e-17)
(1.0179 0.0011373 -2.3962e-17)
(0.96625 0.0006349 -7.9875e-18)
(1.0216 0.013166 1.0618e-17)
(1.0113 0.0080642 3.6973e-18)
(0.99737 0.0396 -2.1335e-18)
(0.99971 0.00022495 -4.7383e-18)
(0.99978 -0.00028088 -3.4237e-18)
(0.99992 -0.00053557 -2.6585e-18)
(1.0003 -0.00094818 1.8664e-17)
(1.0004 -0.00081887 -5.7023e-18)
(1.0018 -0.0010024 -1.7181e-19)
(0.99634 -6.8214e-06 -4.7989e-18)
(1.0187 0.001211 1.9194e-17)
(0.96656 0.00048079 -7.5835e-18)
(1.0194 0.013158 -7.2914e-18)
(1.0121 0.0083757 -1.093e-17)
(0.99914 0.039256 2.4792e-18)
(0.99969 0.0002298 3.221e-18)
(0.99976 -0.0002889 -4.3415e-18)
(0.99992 -0.0005515 6.0851e-18)
(1.0003 -0.00097486 -2.832e-17)
(1.0004 -0.00084476 3.8628e-17)
(1.0019 -0.0010345 5.6124e-18)
(0.99602 -3.4258e-05 1.8933e-17)
(1.0195 0.0012896 -1.1877e-17)
(0.96698 0.00032218 1.0036e-19)
(1.0173 0.01313 5.4224e-18)
(1.0127 0.0086644 -2.1256e-18)
(1.0008 0.038915 -9.3283e-19)
(0.99968 0.00023463 -9.2143e-19)
(0.99975 -0.00029703 8.4873e-19)
(0.99991 -0.00056768 1.4828e-17)
(1.0003 -0.0010018 7.7204e-18)
(1.0004 -0.00087121 -1.9312e-17)
(1.002 -0.0010668 -1.0994e-17)
(0.9957 -6.5273e-05 3.3054e-18)
(1.0202 0.0013731 -5.7742e-18)
(0.96751 0.00015984 1.2688e-17)
(1.0152 0.013084 -3.5595e-18)
(1.0131 0.0089293 1.0232e-17)
(1.0022 0.038576 -3.4034e-18)
(0.99966 0.00023943 -1.604e-18)
(0.99974 -0.00030526 -8.1815e-18)
(0.9999 -0.0005841 -4.4086e-18)
(1.0003 -0.0010291 3.1006e-17)
(1.0004 -0.00089825 -1.7207e-17)
(1.0021 -0.0010993 -9.3181e-19)
(0.99536 -0.00010011 -4.9437e-17)
(1.0209 0.0014614 5.6757e-18)
(0.96816 -5.4235e-06 -2.3727e-17)
(1.0132 0.013021 -7.6872e-18)
(1.0133 0.0091699 -1.0231e-17)
(1.0035 0.038234 2.0208e-18)
(0.99964 0.00024422 -6.9256e-19)
(0.99972 -0.00031359 5.0688e-18)
(0.99989 -0.00060078 -1.8198e-18)
(1.0003 -0.0010567 -1.8054e-17)
(1.0004 -0.00092591 2.4728e-17)
(1.0023 -0.0011318 -2.29e-18)
(0.99501 -0.00013901 2.6186e-17)
(1.0216 0.0015546 -3.4893e-18)
(0.96892 -0.00017278 1.152e-17)
(1.0112 0.01294 9.6143e-18)
(1.0133 0.0093856 8.4388e-18)
(1.0046 0.037889 -4.8847e-19)
(0.99963 0.00024898 3.9257e-18)
(0.99971 -0.00032203 -3.0331e-18)
(0.99988 -0.00061772 -6.3676e-18)
(1.0003 -0.0010846 1.9707e-17)
(1.0004 -0.00095421 1.8151e-18)
(1.0024 -0.0011645 2.8385e-17)
(0.99466 -0.00018222 4.517e-18)
(1.0223 0.0016525 1.667e-17)
(0.96977 -0.00034138 4.3217e-18)
(1.0094 0.012844 -3.1108e-18)
(1.0132 0.0095764 1.0977e-18)
(1.0056 0.037539 4.4222e-19)
(0.99961 0.00025372 1.1195e-18)
(0.99969 -0.00033059 1.2399e-18)
(0.99987 -0.00063493 -5.7746e-18)
(1.0003 -0.0011129 -3.9245e-17)
(1.0004 -0.00098319 5.4966e-18)
(1.0026 -0.001197 2.463e-18)
(0.9943 -0.00023 -1.9586e-17)
(1.0229 0.0017551 2.3454e-19)
(0.97072 -0.00051034 1.2735e-17)
(1.0076 0.012732 -2e-18)
(1.0129 0.009742 -5.3443e-18)
(1.0064 0.037182 2.6058e-18)
(0.99959 0.00025843 -4.7938e-18)
(0.99968 -0.00033926 5.2565e-18)
(0.99985 -0.00065241 9.5156e-19)
(1.0003 -0.0011415 2.1794e-17)
(1.0003 -0.0010129 -2.5073e-17)
(1.0027 -0.0012295 -1.0874e-17)
(0.99393 -0.00028259 2.0032e-17)
(1.0235 0.0018623 -1.1292e-17)
(0.97176 -0.00067877 -2.0133e-17)
(1.0059 0.012607 -9.8824e-18)
(1.0126 0.0098826 6.806e-18)
(1.0071 0.036818 8.6809e-19)
(0.99957 0.00026312 -5.0738e-19)
(0.99966 -0.00034805 -5.2899e-18)
(0.99984 -0.00067018 1.0139e-17)
(1.0003 -0.0011704 9.6647e-18)
(1.0003 -0.0010433 3.0969e-17)
(1.0029 -0.0012618 4.1785e-18)
(0.99356 -0.00034023 1.7791e-17)
(1.024 0.0019738 2.8628e-17)
(0.97288 -0.0008458 -8.902e-19)
(1.0044 0.012468 1.7383e-17)
(1.0122 0.0099984 -7.2028e-19)
(1.0077 0.036444 -2.535e-18)
(0.99956 0.00026778 4.9172e-18)
(0.99965 -0.00035696 -7.7022e-18)
(0.99983 -0.00068824 -1.5391e-17)
(1.0003 -0.0011996 -2.5676e-18)
(1.0003 -0.0010745 -3.3614e-17)
(1.003 -0.0012939 -1.2431e-17)
(0.99319 -0.00040317 -6.1762e-18)
(1.0245 0.0020895 2.1469e-19)
(0.97408 -0.0010105 2.6203e-17)
(1.0029 0.012318 4.0054e-18)
(1.0117 0.01009 -9.3389e-18)
(1.0081 0.036061 1.5197e-18)
(0.99954 0.00027242 -5.513e-18)
(0.99963 -0.00036599 9.6211e-18)
(0.99982 -0.00070659 8.0562e-18)
(1.0003 -0.0012292 -5.1181e-18)
(1.0003 -0.0011065 2.7034e-17)
(1.0032 -0.0013256 1.4874e-17)
(0.99282 -0.00047165 -4.8821e-18)
(1.0249 0.0022091 -2.8851e-17)
(0.97535 -0.0011721 -8.9045e-19)
(1.0016 0.012156 -1.1446e-17)
(1.0112 0.010158 1.1055e-17)
(1.0085 0.035668 -1.9908e-18)
(0.99952 0.00027704 3.3128e-18)
(0.99961 -0.00037515 -1.8413e-18)
(0.9998 -0.00072525 1.0668e-17)
(1.0003 -0.0012591 -2.1537e-17)
(1.0003 -0.0011394 8.8288e-18)
(1.0034 -0.0013569 -5.3427e-18)
(0.99245 -0.0005459 -1.0518e-17)
(1.0253 0.0023324 -2.3165e-18)
(0.97667 -0.0013297 -3.1625e-17)
(1.0004 0.011984 7.5512e-18)
(1.0106 0.010203 -1.0122e-17)
(1.0087 0.035264 6.6378e-19)
(0.9995 0.00028162 2.6201e-19)
(0.99959 -0.00038444 -5.7928e-18)
(0.99979 -0.00074423 6.0592e-18)
(1.0003 -0.0012894 2.8349e-17)
(1.0003 -0.0011732 -2.1027e-17)
(1.0036 -0.0013877 1.7192e-17)
(0.99208 -0.00062612 -6.0814e-18)
(1.0256 0.002459 5.3629e-18)
(0.97805 -0.0014825 3.7573e-17)
(0.99931 0.011803 -1.4018e-17)
(1.01 0.010225 1.547e-17)
(1.0089 0.03485 1.8779e-18)
(0.99948 0.00028618 4.7026e-19)
(0.99958 -0.00039386 -1.1994e-18)
(0.99978 -0.00076352 -8.7163e-18)
(1.0003 -0.00132 -4.2669e-18)
(1.0002 -0.0012079 1.8328e-17)
(1.0038 -0.0014179 1.3869e-19)
(0.99171 -0.00071252 -1.1953e-17)
(1.0259 0.0025886 -1.2805e-17)
(0.97947 -0.0016297 -1.5729e-17)
(0.99836 0.011615 -1.3232e-18)
(1.0094 0.010226 2.8314e-18)
(1.009 0.034426 1.961e-19)
(0.99945 0.00029072 -7.5658e-19)
(0.99956 -0.00040342 1.4267e-17)
(0.99976 -0.00078315 -5.8142e-18)
(1.0003 -0.001351 -2.4121e-17)
(1.0002 -0.0012436 8.4511e-18)
(1.004 -0.0014474 -4.3804e-17)
(0.99135 -0.00080529 5.9628e-18)
(1.0261 0.0027208 8.0622e-18)
(0.98093 -0.0017707 7.3057e-19)
(0.99754 0.011419 1.4236e-17)
(1.0088 0.010207 -9.4699e-19)
(1.0091 0.033991 -5.2458e-18)
(0.99943 0.00029522 -1.9973e-19)
(0.99954 -0.00041311 -2.7981e-19)
(0.99975 -0.00080311 7.8277e-18)
(1.0003 -0.0013823 1.4892e-17)
(1.0002 -0.0012803 -3.3575e-17)
(1.0042 -0.0014761 1.8913e-18)
(0.99099 -0.0009046 1.0679e-17)
(1.0262 0.0028551 1.2629e-17)
(0.98241 -0.0019047 -9.9494e-18)
(0.99684 0.011218 -1.3861e-17)
(1.0082 0.010169 -1.5342e-17)
(1.0091 0.033546 5.5385e-18)
(0.99941 0.0002997 -1.3073e-18)
(0.99952 -0.00042295 3.9896e-19)
(0.99973 -0.00082341 -3.7741e-18)
(1.0003 -0.0014141 -9.9439e-18)
(1.0001 -0.0013181 1.8614e-17)
(1.0044 -0.0015039 2.3515e-17)
(0.99065 -0.0010106 3.1144e-18)
(1.0263 0.0029912 6.4009e-18)
(0.98391 -0.0020312 1.5868e-17)
(0.99627 0.011012 2.3329e-18)
(1.0077 0.010112 1.1342e-17)
(1.0091 0.033092 -3.3617e-18)
(0.99939 0.00030415 2.4064e-18)
(0.9995 -0.00043293 7.3547e-19)
(0.99971 -0.00084408 -5.3944e-18)
(1.0003 -0.0014462 1.4689e-18)
(1.0001 -0.0013571 -1.0092e-17)
(1.0046 -0.0015307 -5.6406e-18)
(0.99031 -0.0011234 -1.1512e-18)
(1.0264 0.0031285 -2.8904e-17)
(0.98543 -0.0021496 3.1154e-18)
(0.99582 0.010803 -4.7294e-18)
(1.0071 0.010038 -4.6131e-18)
(1.009 0.032628 -4.0509e-18)
(0.99936 0.00030857 -4.9113e-18)
(0.99947 -0.00044307 9.6091e-19)
(0.9997 -0.0008651 2.8614e-18)
(1.0003 -0.0014786 -1.8462e-17)
(1.0001 -0.0013972 -1.1507e-17)
(1.0048 -0.0015565 -2.6191e-17)
(0.98999 -0.0012431 5.5548e-18)
(1.0264 0.0032664 1.1802e-17)
(0.98694 -0.0022595 -3.3409e-17)
(0.99549 0.010591 2.1808e-17)
(1.0067 0.0099484 -4.9878e-18)
(1.0089 0.032156 2.6127e-18)
(0.99934 0.00031296 4.5085e-18)
(0.99945 -0.00045335 2.1503e-18)
(0.99968 -0.00088649 1.1005e-18)
(1.0003 -0.0015115 5.8545e-18)
(1 -0.0014385 -2.5425e-18)
(1.005 -0.0015811 5.0766e-17)
(0.98967 -0.0013698 1.9943e-17)
(1.0263 0.0034044 -1.8363e-17)
(0.98846 -0.0023605 3.2155e-17)
(0.99527 0.010378 -8.1365e-18)
(1.0062 0.0098442 -3.2891e-18)
(1.0089 0.031676 -1.3028e-18)
(0.99931 0.00031731 1.1061e-18)
(0.99943 -0.00046379 -1.3615e-17)
(0.99966 -0.00090827 2.2028e-18)
(1.0003 -0.0015447 2.6298e-17)
(1 -0.0014812 1.9671e-17)
(1.0053 -0.0016044 -8.1794e-19)
(0.98938 -0.0015035 -2.763e-17)
(1.0262 0.0035418 5.5572e-18)
(0.98996 -0.0024523 -7.2522e-18)
(0.99515 0.010164 -1.1261e-17)
(1.0058 0.0097266 8.3675e-18)
(1.0088 0.031188 1.215e-18)
(0.99929 0.00032164 -4.3746e-18)
(0.99941 -0.00047439 -4.5395e-18)
(0.99964 -0.00093043 -1.1933e-17)
(1.0003 -0.0015783 -2.2057e-17)
(0.99996 -0.0015252 -1.9796e-17)
(1.0055 -0.0016264 -2.3072e-17)
(0.9891 -0.0016442 5.102e-18)
(1.026 0.0036782 4.3232e-17)
(0.99144 -0.0025348 3.1609e-18)
(0.99514 0.0099517 -9.8341e-19)
(1.0055 0.0095971 -2.9542e-18)
(1.0087 0.030695 -3.2631e-18)
(0.99926 0.00032594 3.2464e-18)
(0.99938 -0.00048516 4.2162e-18)
(0.99962 -0.000953 1.839e-17)
(1.0003 -0.0016124 1.5277e-17)
(0.99991 -0.0015706 1.926e-17)
(1.0057 -0.0016469 -8.5739e-19)
(0.98883 -0.0017919 -2.8426e-17)
(1.0258 0.0038127 -2.337e-17)
(0.9929 -0.0026077 7.8457e-18)
(0.99522 0.0097407 3.8976e-18)
(1.0052 0.0094567 6.6598e-18)
(1.0087 0.030195 2.522e-18)
(0.99923 0.0003302 -2.2928e-18)
(0.99936 -0.00049609 6.6151e-18)
(0.9996 -0.00097597 -1.2168e-17)
(1.0003 -0.0016468 2.2116e-18)
(0.99986 -0.0016174 8.9564e-18)
(1.006 -0.001666 -2.2556e-18)
(0.98859 -0.0019465 6.3825e-18)
(1.0256 0.0039448 6.4909e-18)
(0.99433 -0.0026712 2.5829e-18)
(0.99538 0.0095322 9.6346e-18)
(1.005 0.0093069 -8.0094e-18)
(1.0086 0.029691 5.0966e-19)
(0.99921 0.00033444 3.462e-18)
(0.99933 -0.00050719 4.1003e-19)
(0.99958 -0.00099936 -5.6969e-18)
(1.0003 -0.0016816 8.8068e-19)
(0.99981 -0.0016658 -1.4705e-18)
(1.0062 -0.0016834 -2.2286e-17)
(0.98836 -0.002108 1.782e-17)
(1.0253 0.0040736 2.3042e-17)
(0.99572 -0.0027251 -1.2856e-17)
(0.99563 0.0093272 -1.3406e-17)
(1.0049 0.0091488 -2.3412e-18)
(1.0086 0.029182 4.3366e-18)
(0.99918 0.00033864 -2.5149e-18)
(0.99931 -0.00051847 -3.1578e-19)
(0.99956 -0.0010232 7.0827e-18)
(1.0003 -0.0017168 -1.6909e-17)
(0.99975 -0.0017157 -1.3305e-17)
(1.0064 -0.0016993 2.8137e-17)
(0.98816 -0.002276 -2.7251e-18)
(1.0249 0.0041987 -2.4396e-17)
(0.99707 -0.0027698 3.2757e-18)
(0.99594 0.0091263 1.2622e-17)
(1.0048 0.0089835 7.9354e-18)
(1.0086 0.028671 -1.5636e-18)
(0.99915 0.00034281 2.4995e-19)
(0.99928 -0.00052994 2.3133e-18)
(0.99954 -0.0010474 3.8705e-18)
(1.0003 -0.0017524 8.7412e-18)
(0.9997 -0.0017673 2.6083e-17)
(1.0067 -0.0017134 6.5614e-18)
(0.98798 -0.0024506 -2.3728e-17)
(1.0245 0.0043191 2.2876e-18)
(0.99838 -0.0028054 8.4385e-18)
(0.99633 0.0089303 -1.1372e-17)
(1.0047 0.0088123 -5.3652e-18)
(1.0086 0.028157 -1.809e-18)
(0.99912 0.00034694 7.0974e-19)
(0.99926 -0.00054158 -4.0226e-19)
(0.99951 -0.0010721 -1.0214e-17)
(1.0003 -0.0017884 -1.8807e-19)
(0.99964 -0.0018205 -5.1571e-17)
(1.0069 -0.0017259 8.0908e-18)
(0.98782 -0.0026314 2.3308e-17)
(1.0241 0.0044343 -6.5709e-18)
(0.99964 -0.0028322 -8.8365e-18)
(0.99676 0.0087398 1.8884e-17)
(1.0048 0.0086363 6.4191e-18)
(1.0086 0.027642 4.688e-18)
(0.99909 0.00035104 7.625e-19)
(0.99923 -0.00055342 -8.3497e-19)
(0.99949 -0.0010973 1.8472e-17)
(1.0003 -0.0018248 4.0325e-18)
(0.99957 -0.0018755 4.5705e-17)
(1.0072 -0.0017366 -2.8512e-17)
(0.98768 -0.0028183 -7.8054e-18)
(1.0236 0.0045435 6.1863e-18)
(1.0008 -0.0028507 3.0452e-18)
(0.99725 0.0085552 -1.0625e-17)
(1.0048 0.0084564 -1.0393e-18)
(1.0087 0.027126 -3.4568e-18)
(0.99906 0.00035511 -2.9797e-18)
(0.9992 -0.00056545 1.4023e-18)
(0.99947 -0.0011229 -1.0858e-17)
(1.0004 -0.0018616 5.303e-18)
(0.99951 -0.0019323 -1.7367e-17)
(1.0074 -0.0017455 3.8666e-18)
(0.98757 -0.0030108 3.1253e-17)
(1.0231 0.004646 -2.3158e-17)
(1.002 -0.0028614 -1.1193e-17)
(0.99778 0.0083771 -1.0511e-17)
(1.005 0.0082737 -5.1041e-18)
(1.0088 0.02661 -9.4934e-19)
(0.99902 0.00035914 3.7119e-18)
(0.99917 -0.00057767 -3.3302e-18)
(0.99944 -0.001149 -1.0538e-17)
(1.0004 -0.0018989 -8.456e-18)
(0.99944 -0.001991 -2.8399e-17)
(1.0077 -0.0017527 -1.7937e-17)
(0.98748 -0.0032086 -1.9163e-17)
(1.0226 0.0047411 2.1534e-17)
(1.0031 -0.0028647 1.0852e-17)
(0.99835 0.0082058 1.5918e-17)
(1.0051 0.0080891 -1.9977e-18)
(1.0089 0.026095 4.5821e-18)
(0.99899 0.00036313 -5.9662e-18)
(0.99914 -0.0005901 5.3964e-18)
(0.99942 -0.0011756 2.5805e-17)
(1.0004 -0.0019366 -1.9948e-18)
(0.99937 -0.0020516 3.1421e-17)
(1.0079 -0.0017581 1.3513e-18)
(0.98742 -0.0034115 -1.8354e-17)
(1.022 0.0048283 8.4316e-18)
(1.0041 -0.0028613 -3.9135e-18)
(0.99895 0.0080414 -3.3331e-18)
(1.0053 0.0079034 6.4815e-18)
(1.009 0.025581 -3.0987e-18)
(0.99896 0.00036709 4.8894e-18)
(0.99911 -0.00060275 -7.3342e-18)
(0.99939 -0.0012027 -3.0088e-17)
(1.0004 -0.0019747 1.305e-17)
(0.9993 -0.0021141 -2.2389e-17)
(1.0081 -0.0017619 2.4797e-17)
(0.98738 -0.003619 5.9822e-18)
(1.0215 0.0049067 -8.025e-18)
(1.0051 -0.0028518 -1.8785e-18)
(0.99957 0.0078843 -8.3477e-18)
(1.0056 0.0077172 -1.0567e-17)
(1.0092 0.02507 4.2828e-18)
(0.99892 0.00037102 -3.6018e-18)
(0.99908 -0.0006156 2.4389e-18)
(0.99936 -0.0012303 1.8283e-17)
(1.0004 -0.0020132 -1.7204e-17)
(0.99922 -0.0021787 3.6027e-17)
(1.0084 -0.0017639 -1.9249e-17)
(0.98736 -0.0038306 3.4873e-18)
(1.0209 0.004976 -1.2689e-17)
(1.006 -0.002837 6.132e-18)
(1.0002 0.0077343 -1.168e-18)
(1.0059 0.0075314 4.523e-18)
(1.0094 0.024561 -1.9044e-18)
(0.99889 0.00037491 4.4178e-18)
(0.99905 -0.00062868 1.899e-18)
(0.99933 -0.0012584 -1.2191e-17)
(1.0004 -0.0020522 -3.5027e-19)
(0.99914 -0.0022453 -1.589e-18)
(1.0086 -0.0017644 4.6547e-18)
(0.98737 -0.0040459 3.3118e-17)
(1.0203 0.0050354 8.6801e-18)
(1.0069 -0.0028176 -1.8177e-17)
(1.0009 0.0075915 -6.0545e-18)
(1.0062 0.0073465 -4.2534e-18)
(1.0096 0.024056 2.0013e-18)
(0.99885 0.00037876 -5.064e-18)
(0.99901 -0.00064198 -7.0374e-18)
(0.9993 -0.001287 5.1143e-18)
(1.0004 -0.0020916 1.4887e-17)
(0.99906 -0.002314 -3.2686e-17)