/*--------------------------------*- C++ -*----------------------------------*\
  =========                 |
  \\      /  F ield         | OpenFOAM: The Open Source CFD Toolbox
   \\    /   O peration     | Website:  https://openfoam.org
    \\  /    A nd           | Version:  6.0
     \\/     M anipulation  |
\*---------------------------------------------------------------------------*/
FoamFile
{
    version     2.0;
    format      ascii;
    class       surfaceScalarField;
    location    "4";
    object      phi;
}
// * * * * * * * * * * * * * * * * * * * * * * * * * * * * * * * * * * * * * //

dimensions      [0 3 -1 0 0 0 0];

internalField   nonuniform List<scalar> 
123526
(
2.73153e-05
2.33247e-05
-2.69183e-05
2.77378e-05
2.52153e-05
2.82014e-05
2.7259e-05
2.86965e-05
2.9468e-05
2.92381e-05
3.18556e-05
2.98176e-05
3.44362e-05
3.04501e-05
3.72251e-05
3.11282e-05
4.02391e-05
3.18688e-05
4.34954e-05
3.26638e-05
4.70146e-05
3.353e-05
5.08181e-05
3.44595e-05
5.49277e-05
3.54719e-05
5.93678e-05
3.6561e-05
6.41622e-05
3.77493e-05
6.93405e-05
3.90262e-05
7.49365e-05
4.04139e-05
8.098e-05
4.19132e-05
8.74996e-05
4.35439e-05
9.4541e-05
4.53008e-05
0.000102145
4.72124e-05
0.000110344
4.92801e-05
0.000119191
5.15196e-05
0.00012874
5.39496e-05
0.000139022
5.65818e-05
0.000150116
5.94311e-05
0.000162063
6.25221e-05
0.000174926
6.5864e-05
0.000188773
6.9489e-05
0.000203657
7.34064e-05
0.000219659
7.76511e-05
0.00023683
8.22381e-05
0.000255249
8.72019e-05
0.000274971
9.25665e-05
0.000296061
9.83565e-05
0.000318576
0.000104608
0.000342549
0.000111344
0.000368026
0.000118599
0.000395008
0.000126406
0.00042348
0.00013479
0.000453399
0.000143779
0.000484667
0.000153399
0.000517134
0.000163667
0.000550579
0.000174594
0.000584688
0.000186183
0.00061903
0.000198422
0.000653034
0.00021129
0.000685948
0.000224742
0.000716797
0.000238716
0.000744326
0.000253113
0.000766944
0.000267807
0.000782635
0.000282613
0.000788889
0.000297303
0.00078259
0.00031156
0.000759983
0.00032499
0.000716547
0.000337079
0.000646994
0.000347206
0.000545175
0.000354466
0.00040426
0.0003591
0.000214597
-1.8248e-05
0.000363577
2.71531e-05
2.29378e-05
-2.67626e-05
2.75678e-05
2.47976e-05
2.80217e-05
2.68082e-05
2.85061e-05
2.89812e-05
2.9035e-05
3.13297e-05
2.96009e-05
3.38679e-05
3.02178e-05
3.66109e-05
3.08795e-05
3.9575e-05
3.16016e-05
4.27764e-05
3.23771e-05
4.62365e-05
3.32217e-05
4.99768e-05
3.41287e-05
5.4018e-05
3.51164e-05
5.8384e-05
3.61799e-05
6.30961e-05
3.734e-05
6.81844e-05
3.85879e-05
7.36863e-05
3.99439e-05
7.96278e-05
4.14105e-05
8.60312e-05
4.30056e-05
9.29492e-05
4.47259e-05
0.000100423
4.65976e-05
0.000108475
4.86242e-05
0.000117164
5.08192e-05
0.000126547
5.32032e-05
0.000136638
5.57856e-05
0.000147536
5.85837e-05
0.000159265
6.16192e-05
0.000171892
6.49042e-05
0.000185489
6.84677e-05
0.000200095
7.23219e-05
0.000215806
7.64982e-05
0.000232654
8.10145e-05
0.000250734
8.59023e-05
0.000270085
9.11865e-05
0.00029078
9.68908e-05
0.000312874
0.00010305
0.000336391
0.000109688
0.000361389
0.000116836
0.000387859
0.000124526
0.000415789
0.000132781
0.000445142
0.000141628
0.000475818
0.00015109
0.000507668
0.000161182
0.000540481
0.000171913
0.000573948
0.000183286
0.000607648
0.00019529
0.000641017
0.000207902
0.000673319
0.000221081
0.000703595
0.000234768
0.000730615
0.000248866
0.000752813
0.000263256
0.00076821
0.000277757
0.000774344
0.000292147
0.000768162
0.000306115
0.000745975
0.000319274
0.000703357
0.000331118
0.000635118
0.000341037
0.000535252
0.000348194
0.000397112
0.000352276
0.000210599
-2.0281e-05
0.000354415
2.71528e-05
2.25564e-05
-2.67682e-05
2.75612e-05
2.43862e-05
2.8008e-05
2.63643e-05
2.84848e-05
2.8502e-05
2.90053e-05
3.08122e-05
2.9562e-05
3.33088e-05
3.01687e-05
3.60068e-05
3.08193e-05
3.8922e-05
3.15291e-05
4.20696e-05
3.22913e-05
4.54718e-05
3.31213e-05
4.915e-05
3.40124e-05
5.31241e-05
3.49827e-05
5.74175e-05
3.60275e-05
6.20486e-05
3.71672e-05
6.70486e-05
3.83933e-05
7.24579e-05
3.97257e-05
7.82991e-05
4.11671e-05
8.4588e-05
4.27349e-05
9.13847e-05
4.44262e-05
9.8731e-05
4.62664e-05
0.000106638
4.82594e-05
0.00011517
5.04182e-05
0.000124391
5.27633e-05
0.000134293
5.53037e-05
0.000144997
5.80566e-05
0.000156513
6.1043e-05
0.000168907
6.42751e-05
0.000182258
6.77809e-05
0.000196591
7.15725e-05
0.000212015
7.56803e-05
0.000228547
8.01221e-05
0.000246293
8.49284e-05
0.000265282
9.01233e-05
0.000285589
9.57295e-05
0.000307271
0.000101781
0.000330341
0.0001083
0.000354872
0.000115319
0.000380843
0.000122865
0.000408243
0.000130964
0.000437044
0.000139639
0.000467144
0.000148912
0.000498394
0.0001588
0.000530594
0.000169311
0.000563437
0.000180446
0.000596511
0.000192197
0.000629264
0.000204544
0.000660972
0.000217445
0.000690692
0.000230843
0.000717217
0.000244647
0.000739008
0.00025874
0.000754125
0.000272943
0.000760147
0.000287042
0.000754085
0.00030073
0.000732317
0.000313631
0.000690512
0.000325243
0.000623567
0.000334974
0.000525618
0.000342058
0.00039013
0.000345961
0.000206855
-2.11234e-05
0.000347067
2.70325e-05
2.21819e-05
-2.66542e-05
2.7434e-05
2.39821e-05
2.78732e-05
2.59282e-05
2.83421e-05
2.80309e-05
2.88539e-05
3.03033e-05
2.94017e-05
3.27589e-05
2.99987e-05
3.54124e-05
3.06392e-05
3.82794e-05
3.13378e-05
4.13739e-05
3.20883e-05
4.4719e-05
3.29054e-05
4.83361e-05
3.3783e-05
5.22441e-05
3.47383e-05
5.64659e-05
3.57673e-05
6.10173e-05
3.68893e-05
6.59303e-05
3.80967e-05
7.12484e-05
3.94085e-05
7.69909e-05
4.08277e-05
8.31672e-05
4.23711e-05
8.98445e-05
4.40361e-05
9.70649e-05
4.58476e-05
0.000104829
4.78095e-05
0.000113208
4.99344e-05
0.000122268
5.22426e-05
0.000131985
5.47428e-05
0.000142499
5.74519e-05
0.000153805
6.03904e-05
0.000165971
6.35704e-05
0.00017908
6.70189e-05
0.000193144
7.07481e-05
0.000208288
7.47873e-05
0.000224508
7.91541e-05
0.000241927
8.3878e-05
0.000260561
8.89824e-05
0.000280489
9.44894e-05
0.000301768
0.000100432
0.000324401
0.000106832
0.000348474
0.000113719
0.000373958
0.000121122
0.000400843
0.000129064
0.000429105
0.000137569
0.000458643
0.000146658
0.000489308
0.000156347
0.000520908
0.000166644
0.000553143
0.000177551
0.000585606
0.000189062
0.000617756
0.000201155
0.00064888
0.000213792
0.000678055
0.000226919
0.000704091
0.000240443
0.000725479
0.000254253
0.000740314
0.000268173
0.000746223
0.000281994
0.000740273
0.000295415
0.00071891
0.000308066
0.00067789
0.000319457
0.000612211
0.000329011
0.00051613
0.000336013
0.000383221
0.000339806
0.000203244
-2.13657e-05
0.000340319
2.68101e-05
2.18144e-05
-2.64398e-05
2.7204e-05
2.35855e-05
2.76351e-05
2.54998e-05
2.80957e-05
2.75681e-05
2.85987e-05
2.9803e-05
2.91374e-05
3.22181e-05
2.97246e-05
3.48276e-05
3.03549e-05
3.7647e-05
3.10425e-05
4.0689e-05
3.17814e-05
4.39778e-05
3.25859e-05
4.75346e-05
3.34502e-05
5.13773e-05
3.4391e-05
5.55285e-05
3.54045e-05
6.00014e-05
3.65096e-05
6.48288e-05
3.76989e-05
7.0057e-05
3.8991e-05
7.57023e-05
4.03888e-05
8.17678e-05
4.19088e-05
8.83276e-05
4.35485e-05
9.54242e-05
4.53322e-05
0.000103048
4.72638e-05
0.000111276
4.93557e-05
0.000120179
5.16276e-05
0.000129713
5.40882e-05
0.000140041
5.67541e-05
0.00015114
5.96452e-05
0.000163081
6.27734e-05
0.000175953
6.61651e-05
0.000189753
6.98322e-05
0.000204622
7.38033e-05
0.000220538
7.80954e-05
0.000237637
8.27374e-05
0.000255922
8.77522e-05
0.000275479
9.3161e-05
0.000296363
9.89962e-05
0.000318569
0.000105278
0.000342195
0.000112037
0.000367202
0.000119301
0.000393582
0.00012709
0.000421319
0.00013543
0.000450307
0.000144342
0.0004804
0.000153839
0.000511414
0.000163932
0.000543054
0.000174622
0.00057492
0.000185904
0.000606479
0.000197757
0.000637033
0.000210143
0.000665673
0.000223011
0.000691232
0.00023627
0.000712227
0.00024981
0.000726788
0.000263459
0.000732587
0.000277014
0.000726748
0.000290179
0.000705784
0.000302591
0.000665537
0.00031377
0.000601095
0.000323153
0.000506839
0.000330056
0.000376411
0.000333753
0.000199683
-2.13228e-05
0.00033392
2.65084e-05
2.1454e-05
-2.6144e-05
2.68956e-05
2.31962e-05
2.73193e-05
2.50791e-05
2.77723e-05
2.71133e-05
2.82669e-05
2.93113e-05
2.87969e-05
3.16864e-05
2.93745e-05
3.42526e-05
2.99948e-05
3.70249e-05
3.06714e-05
4.00152e-05
3.13989e-05
4.32483e-05
3.21909e-05
4.67456e-05
3.30421e-05
5.0524e-05
3.39684e-05
5.46055e-05
3.49667e-05
5.9001e-05
3.60551e-05
6.37439e-05
3.72265e-05
6.88837e-05
3.84989e-05
7.44332e-05
3.98756e-05
8.03896e-05
4.13724e-05
8.68337e-05
4.2987e-05
9.38086e-05
4.47432e-05
0.000101295
4.66448e-05
0.000109374
4.87039e-05
0.000118122
5.094e-05
0.000127478
5.33613e-05
0.000137621
5.59842e-05
0.000148518
5.88283e-05
0.000160239
6.1905e-05
0.000172878
6.52403e-05
0.00018642
6.88457e-05
0.000201018
7.27491e-05
0.000216635
7.69671e-05
0.00023342
8.15282e-05
0.000251364
8.64542e-05
0.000270557
9.17662e-05
0.000291055
9.74956e-05
0.000312843
0.000103662
0.000336031
0.000110295
0.000360572
0.000117423
0.000386458
0.000125065
0.000413681
0.000133245
0.000442131
0.000141985
0.000471665
0.000151298
0.000502106
0.000161195
0.000533163
0.000171678
0.000564442
0.00018274
0.000595422
0.000194363
0.000625416
0.000206511
0.000653531
0.000219131
0.000678619
0.000232136
0.000699226
0.000245419
0.000713515
0.000258808
0.000719204
0.000272106
0.000713469
0.000285024
0.000692895
0.000297205
0.000653399
0.000308178
0.000590175
0.000317395
0.000497704
0.000324187
0.000369729
0.000327799
0.000196267
-2.09688e-05
0.000327749
2.61469e-05
2.10995e-05
-2.57892e-05
2.65275e-05
2.28132e-05
2.6944e-05
2.46653e-05
2.73897e-05
2.66658e-05
2.78762e-05
2.88274e-05
2.83979e-05
3.1163e-05
2.89664e-05
3.36864e-05
2.95771e-05
3.64124e-05
3.02431e-05
3.93517e-05
3.09594e-05
4.253e-05
3.1739e-05
4.59687e-05
3.25771e-05
4.96837e-05
3.34891e-05
5.36966e-05
3.44721e-05
5.80159e-05
3.55436e-05
6.26757e-05
3.6697e-05
6.77283e-05
3.79497e-05
7.31836e-05
3.93052e-05
7.90327e-05
4.07787e-05
8.53631e-05
4.23681e-05
9.22182e-05
4.40967e-05
9.95685e-05
4.59682e-05
0.000107502
4.79944e-05
0.000116098
5.01944e-05
0.000125278
5.25765e-05
0.000135241
5.51564e-05
0.000145939
5.79534e-05
0.000157444
6.09788e-05
0.000169854
6.42578e-05
0.000183142
6.78018e-05
0.000197475
7.1638e-05
0.0002128
7.57828e-05
0.000229276
8.02635e-05
0.000246886
8.51021e-05
0.000265723
9.03187e-05
0.000285842
9.59442e-05
0.00030722
0.000101998
0.00032998
0.000108509
0.000354064
0.000115503
0.000379467
0.000123002
0.000406186
0.000131027
0.000434109
0.000139601
0.000463095
0.000148738
0.000492974
0.000158446
0.000523459
0.000168729
0.000554164
0.000179581
0.000584575
0.000190984
0.000614019
0.000202903
0.000641617
0.000215286
0.000666245
0.000228047
0.000686471
0.000241082
0.000700494
0.000254221
0.000706073
0.000267272
0.000700442
0.000279951
0.000680247
0.000291907
0.000641491
0.000302682
0.000579451
0.000311736
0.000488723
0.000318412
0.00036312
0.000321943
0.000192832
-2.0636e-05
0.000321749
2.57506e-05
2.07512e-05
-2.53979e-05
2.61253e-05
2.2437e-05
2.6535e-05
2.42587e-05
2.69735e-05
2.62261e-05
2.74519e-05
2.83519e-05
2.7965e-05
3.06486e-05
2.8524e-05
3.31299e-05
2.91248e-05
3.58102e-05
2.97797e-05
3.86993e-05
3.04845e-05
4.18237e-05
3.12513e-05
4.52046e-05
3.2076e-05
4.88571e-05
3.29732e-05
5.28026e-05
3.39405e-05
5.70468e-05
3.49946e-05
6.16248e-05
3.61296e-05
6.65917e-05
3.73621e-05
7.19542e-05
3.86958e-05
7.76977e-05
4.01454e-05
8.39163e-05
4.17092e-05
9.06536e-05
4.34096e-05
9.78705e-05
4.52507e-05
0.000105661
4.72436e-05
0.000114107
4.94074e-05
0.000123114
5.17499e-05
0.000132901
5.42867e-05
0.000143403
5.70366e-05
0.000154695
6.00106e-05
0.000166881
6.32335e-05
0.000179921
6.67163e-05
0.000193993
7.04858e-05
0.000209031
7.45578e-05
0.000225206
7.89594e-05
0.000242488
8.37116e-05
0.000260974
8.88344e-05
0.000280722
9.43579e-05
0.000301699
0.000100301
0.000324039
0.000106692
0.000347676
0.000113557
0.000372606
0.000120916
0.00039883
0.000128792
0.000426237
0.000137206
0.000454686
0.000146171
0.000484013
0.000155698
0.000513938
0.000165789
0.000544079
0.000176439
0.000573932
0.00018763
0.000602835
0.000199328
0.000629926
0.000211482
0.0006541
0.000224009
0.000673951
0.000236803
0.000687711
0.000249701
0.000693183
0.000262512
0.000687652
0.00027496
0.00066783
0.000286699
0.000629797
0.00029728
0.000568925
0.000306174
0.00047991
0.000312732
0.000356671
0.000316187
0.000189566
-2.00465e-05
0.000315893
2.53349e-05
2.04088e-05
-2.49897e-05
2.57028e-05
2.20671e-05
2.61051e-05
2.38588e-05
2.6536e-05
2.57937e-05
2.7006e-05
2.78842e-05
2.75105e-05
3.01427e-05
2.80599e-05
3.25826e-05
2.86506e-05
3.5218e-05
2.92946e-05
3.80577e-05
2.99875e-05
4.11289e-05
3.07415e-05
4.44531e-05
3.15524e-05
4.80442e-05
3.24345e-05
5.19232e-05
3.33856e-05
5.60937e-05
3.44222e-05
6.05912e-05
3.55383e-05
6.54738e-05
3.67503e-05
7.07451e-05
3.80618e-05
7.63849e-05
3.94872e-05
8.24935e-05
4.1025e-05
8.91151e-05
4.2697e-05
9.6201e-05
4.45072e-05
0.00010385
4.64665e-05
0.00011215
4.85937e-05
0.000120987
5.08964e-05
0.0001306
5.33899e-05
0.00014091
5.60926e-05
0.000151994
5.90152e-05
0.00016396
6.21822e-05
0.000176755
6.56042e-05
0.000190573
6.93074e-05
0.000205328
7.33074e-05
0.000221207
7.76305e-05
0.000238167
8.22976e-05
0.000256311
8.73281e-05
0.000275695
9.27515e-05
0.000296279
9.85865e-05
0.000318207
0.000104861
0.000341405
0.000111599
0.00036587
0.000118823
0.00039161
0.000126553
0.000418511
0.000134811
0.000446432
0.000143611
0.000475218
0.000152962
0.000504592
0.000162867
0.000534177
0.000173321
0.000563482
0.000184308
0.000591853
0.000195792
0.000618446
0.000207725
0.000642173
0.000220024
0.000661655
0.000232587
0.000675157
0.00024525
0.000680523
0.000257829
0.000675088
0.000270052
0.000655631
0.000281579
0.000618305
0.000291971
0.00055857
0.000300708
0.000471224
0.000307149
0.00035027
0.00031053
0.000186238
-1.96166e-05
0.000310164
2.49119e-05
2.00728e-05
-2.45716e-05
2.52737e-05
2.17041e-05
2.56689e-05
2.34665e-05
2.60923e-05
2.53695e-05
2.65538e-05
2.74253e-05
2.70494e-05
2.96462e-05
2.75888e-05
3.20454e-05
2.81691e-05
3.46366e-05
2.88014e-05
3.74278e-05
2.94821e-05
4.04468e-05
3.02227e-05
4.37152e-05
3.10195e-05
4.72459e-05
3.1886e-05
5.10595e-05
3.28207e-05
5.51574e-05
3.38391e-05
5.95758e-05
3.49361e-05
6.43754e-05
3.61269e-05
6.95571e-05
3.74159e-05
7.50949e-05
3.88165e-05
8.10953e-05
4.03279e-05
8.76031e-05
4.19709e-05
9.45602e-05
4.37499e-05
0.000102071
4.56753e-05
0.000110226
4.77657e-05
0.000118897
5.00284e-05
0.000128339
5.24784e-05
0.000138461
5.51339e-05
0.000149341
5.80053e-05
0.000161089
6.11165e-05
0.000173645
6.4478e-05
0.000187212
6.81155e-05
0.000201691
7.20441e-05
0.000217279
7.62899e-05
0.000233924
8.0873e-05
0.000251732
8.58126e-05
0.000270759
9.11378e-05
0.000290956
9.68666e-05
0.000312481
0.000103026
0.000335248
0.000109642
0.000359258
0.000116733
0.000384522
0.000124322
0.000410926
0.000132429
0.00043833
0.000141067
0.000466584
0.000150247
0.000495417
0.000159972
0.000524459
0.000170236
0.000553224
0.000181024
0.000581073
0.000192301
0.000607176
0.000204019
0.000630464
0.000216097
0.000649585
0.000228434
0.000662832
0.00024087
0.000668094
0.000253222
0.000662755
0.000265226
0.000643655
0.000276547
0.000607024
0.000286754
0.000548414
0.000295336
0.000462715
0.000301661
0.000344045
0.000304972
0.000183096
-1.89261e-05
0.000304552
2.44854e-05
1.97427e-05
-2.4152e-05
2.48405e-05
2.13475e-05
2.52284e-05
2.3081e-05
2.56442e-05
2.49527e-05
2.60974e-05
2.69744e-05
2.65842e-05
2.91585e-05
2.7114e-05
3.15177e-05
2.76839e-05
3.40655e-05
2.83049e-05
3.6809e-05
2.89735e-05
3.97767e-05
2.97007e-05
4.29902e-05
3.04832e-05
4.64615e-05
3.13342e-05
5.0211e-05
3.22522e-05
5.42376e-05
3.32524e-05
5.85782e-05
3.43298e-05
6.32965e-05
3.54995e-05
6.83901e-05
3.67657e-05
7.38276e-05
3.81416e-05
7.97219e-05
3.96263e-05
8.61178e-05
4.12402e-05
9.29484e-05
4.29878e-05
0.000100323
4.48793e-05
0.000108337
4.69327e-05
0.000116844
4.91553e-05
0.000126118
5.1562e-05
0.000136055
5.41703e-05
0.000146734
5.69907e-05
0.00015827
6.00465e-05
0.000170591
6.3348e-05
0.000183912
6.69203e-05
0.00019812
7.07785e-05
0.000213422
7.49477e-05
0.000229757
7.9448e-05
0.000247235
8.42983e-05
0.000265912
8.95268e-05
0.00028573
9.51516e-05
0.000306858
0.000101199
0.000329204
0.000107694
0.000352766
0.000114656
0.000377564
0.000122106
0.000403479
0.000130066
0.000430374
0.000138547
0.000458107
0.000147561
0.000486408
0.00015711
0.000514913
0.000167189
0.000543148
0.000177783
0.000570483
0.000188858
0.000596103
0.000200367
0.00061896
0.00021223
0.000637723
0.000224347
0.000650721
0.000236561
0.000655878
0.000248693
0.000650632
0.000260482
0.000631881
0.000271602
0.00059593
0.000281629
0.000538413
0.000290059
0.000454319
0.00029627
0.000337854
0.000299512
0.000179875
-1.84601e-05
0.000299051
2.40615e-05
1.9419e-05
-2.37328e-05
2.44107e-05
2.09978e-05
2.47918e-05
2.2703e-05
2.52002e-05
2.45438e-05
2.56451e-05
2.65322e-05
2.61231e-05
2.86801e-05
2.66429e-05
3.10001e-05
2.72025e-05
3.35053e-05
2.78117e-05
3.6202e-05
2.84682e-05
3.91193e-05
2.91818e-05
4.22789e-05
2.99501e-05
4.5692e-05
3.07853e-05
4.93784e-05
3.16867e-05
5.3335e-05
3.26685e-05
5.75992e-05
3.37264e-05
6.22374e-05
3.48746e-05
6.72444e-05
3.6118e-05
7.25834e-05
3.74689e-05
7.83733e-05
3.89268e-05
8.46594e-05
4.05116e-05
9.13657e-05
4.22278e-05
9.86068e-05
4.40851e-05
0.000106481
4.61017e-05
0.000114827
4.82844e-05
0.000123937
5.06479e-05
0.000133692
5.32093e-05
0.000144174
5.5979e-05
0.000155502
5.89798e-05
0.000167591
6.22218e-05
0.000180671
6.57297e-05
0.000194612
6.95181e-05
0.000209635
7.36119e-05
0.000225666
7.80306e-05
0.000242819
8.27929e-05
0.000261153
8.79265e-05
0.000280599
9.3449e-05
0.000301338
9.93865e-05
0.000323269
0.000105763
0.000346392
0.000112599
0.000370732
0.000119914
0.000396168
0.000127729
0.000422564
0.000136057
0.000449783
0.000144908
0.000477562
0.000154286
0.000505542
0.000164185
0.000533255
0.00017459
0.000560086
0.000185468
0.000585232
0.000196772
0.000607664
0.000208425
0.000626078
0.000220327
0.00063883
0.000232324
0.000643887
0.00024424
0.000638732
0.000255821
0.000620327
0.000266743
0.000585045
0.000276593
0.00052861
0.000284875
0.000446104
0.000290973
0.000331846
0.000294149
0.000176853
-1.77203e-05
0.000293657
2.36403e-05
1.91009e-05
-2.33192e-05
2.39827e-05
2.06541e-05
2.43566e-05
2.23314e-05
2.47574e-05
2.41421e-05
2.51941e-05
2.60977e-05
2.56634e-05
2.82101e-05
2.61739e-05
3.04915e-05
2.67233e-05
3.2955e-05
2.73215e-05
3.56057e-05
2.7966e-05
3.84736e-05
2.86665e-05
4.15804e-05
2.94207e-05
4.49362e-05
3.02406e-05
4.85608e-05
3.11254e-05
5.24485e-05
3.20891e-05
5.66379e-05
3.31277e-05
6.11975e-05
3.42549e-05
6.61195e-05
3.54756e-05
7.13619e-05
3.68018e-05
7.70493e-05
3.82332e-05
8.32276e-05
3.97891e-05
8.98119e-05
4.14741e-05
9.69217e-05
4.32976e-05
0.00010466
4.52776e-05
0.000112848
4.74206e-05
0.000121796
4.97412e-05
0.000131372
5.22561e-05
0.00014166
5.49755e-05
0.000152783
5.79219e-05
0.000164646
6.1105e-05
0.000177489
6.45493e-05
0.000191169
6.82689e-05
0.000205916
7.22883e-05
0.000221649
7.66267e-05
0.000238484
8.13023e-05
0.00025648
8.63426e-05
0.000275561
9.17648e-05
0.000295918
9.75944e-05
0.000317442
0.000103856
0.000340134
0.000110567
0.000364023
0.00011775
0.000388988
0.000125424
0.000414894
0.000133602
0.000441609
0.000142294
0.000468873
0.000151504
0.000496335
0.000161226
0.000523536
0.000171446
0.000549869
0.000182131
0.000574548
0.000193236
0.000596563
0.000204682
0.000614631
0.000216375
0.000627142
0.000228159
0.000632097
0.000239865
0.00062703
0.000251241
0.00060896
0.00026197
0.000574333
0.000271647
0.000518949
0.000279783
0.000437987
0.000285771
0.000325859
0.000288882
0.000173733
-1.72481e-05
0.000288365
2.32261e-05
1.8789e-05
-2.29094e-05
2.35628e-05
2.03171e-05
2.39299e-05
2.19672e-05
2.43236e-05
2.37482e-05
2.47522e-05
2.56717e-05
2.52128e-05
2.77492e-05
2.57136e-05
2.99929e-05
2.62527e-05
3.24154e-05
2.68396e-05
3.5021e-05
2.74721e-05
3.78404e-05
2.81594e-05
4.08952e-05
2.88997e-05
4.41949e-05
2.97042e-05
4.77587e-05
3.05727e-05
5.1579e-05
3.15184e-05
5.56947e-05
3.25378e-05
6.01771e-05
3.3644e-05
6.50157e-05
3.48421e-05
7.01631e-05
3.61437e-05
7.57499e-05
3.75487e-05
8.18222e-05
3.90759e-05
8.82867e-05
4.07299e-05
9.52677e-05
4.252e-05
0.000102871
4.44636e-05
0.000110905
4.65673e-05
0.000119693
4.88455e-05
0.000129095
5.13144e-05
0.000139193
5.39841e-05
0.000150115
5.68767e-05
0.000161755
6.00017e-05
0.000174365
6.33832e-05
0.000187788
6.70349e-05
0.000202265
7.09811e-05
0.000217705
7.52403e-05
0.000234228
7.98308e-05
0.000251893
8.47793e-05
0.000270615
9.01029e-05
0.000290597
9.58266e-05
0.000311721
0.000101974
0.000333989
0.000108564
0.000357437
0.000115617
0.000381939
0.000123152
0.000407362
0.000131184
0.000433582
0.00013972
0.000460342
0.000148765
0.000487296
0.000158315
0.000513992
0.000168353
0.000539837
0.000178849
0.000564058
0.000189758
0.000585663
0.000201003
0.000603393
0.00021249
0.000615666
0.000224066
0.000620524
0.000235565
0.000615545
0.000246741
0.000597807
0.000257281
0.000563825
0.000266788
0.000509485
0.000274781
0.000430054
0.000280662
0.000320059
0.00028371
0.000170821
-1.64888e-05
0.000283173
2.28171e-05
1.84826e-05
-2.25071e-05
2.31474e-05
1.99861e-05
2.35076e-05
2.16094e-05
2.38942e-05
2.33613e-05
2.43149e-05
2.52532e-05
2.47672e-05
2.72966e-05
2.52589e-05
2.95031e-05
2.57883e-05
3.18854e-05
2.63644e-05
3.44467e-05
2.69852e-05
3.72186e-05
2.76598e-05
4.02225e-05
2.83863e-05
4.3467e-05
2.91758e-05
4.69713e-05
3.0028e-05
5.07253e-05
3.09561e-05
5.47687e-05
3.19566e-05
5.91755e-05
3.30422e-05
6.39322e-05
3.42182e-05
6.89864e-05
3.54956e-05
7.44745e-05
3.68747e-05
8.04429e-05
3.83736e-05
8.67897e-05
3.99971e-05
9.36443e-05
4.1754e-05
0.000101116
4.36619e-05
0.000108997
4.57268e-05
0.00011763
4.7963e-05
0.000126859
5.03866e-05
0.00013677
5.30073e-05
0.000147495
5.58468e-05
0.000158917
5.89146e-05
0.000171298
6.22341e-05
0.000184469
6.58191e-05
0.000198681
6.9693e-05
0.000213833
7.38745e-05
0.00023005
7.83812e-05
0.000247389
8.32395e-05
0.000265759
8.84662e-05
0.000285373
9.40859e-05
0.000306104
0.000100122
0.000327956
0.000106593
0.000350969
0.000113518
0.000375017
0.000120918
0.000399966
0.000128805
0.000425699
0.000137188
0.000451962
0.000146072
0.000478415
0.000155452
0.000504615
0.000165313
0.000529979
0.000175624
0.000553748
0.00018634
0.000574948
0.000197387
0.000592344
0.000208672
0.000604383
0.000220045
0.000609142
0.000231341
0.000604248
0.00024232
0.000586834
0.000252676
0.000553481
0.000262016
0.000500153
0.000269868
0.00042221
0.000275644
0.000314272
0.000278631
0.000167801
-1.60214e-05
0.000278078
2.24163e-05
1.81822e-05
-2.21104e-05
2.27412e-05
1.96616e-05
2.3095e-05
2.12586e-05
2.34748e-05
2.2982e-05
2.38877e-05
2.48429e-05
2.43317e-05
2.68527e-05
2.48141e-05
2.90229e-05
2.53337e-05
3.13658e-05
2.58987e-05
3.38837e-05
2.65081e-05
3.66088e-05
2.71698e-05
3.95627e-05
2.78829e-05
4.27532e-05
2.86574e-05
4.61989e-05
2.94939e-05
4.98879e-05
3.04044e-05
5.38605e-05
3.13863e-05
5.81929e-05
3.24515e-05
6.28692e-05
3.36055e-05
6.78319e-05
3.48591e-05
7.3223e-05
3.62125e-05
7.90893e-05
3.76834e-05
8.53206e-05
3.92768e-05
9.2051e-05
4.10012e-05
9.93936e-05
4.28737e-05
0.000107125
4.49004e-05
0.000115605
4.70954e-05
0.000124665
4.94741e-05
0.000134393
5.20466e-05
0.000144924
5.48338e-05
0.000156131
5.78452e-05
0.000168288
6.11038e-05
0.000181211
6.4623e-05
0.000195163
6.8426e-05
0.000210032
7.25309e-05
0.000225948
7.69553e-05
0.000242967
8.1725e-05
0.000260991
8.68566e-05
0.000280243
9.23742e-05
0.000300589
9.83008e-05
0.000322032
0.000104654
0.000344619
0.000111455
0.00036822
0.000118721
0.000392704
0.000126467
0.000417957
0.0001347
0.000443733
0.000143426
0.000469694
0.000152639
0.000495407
0.000162326
0.000520299
0.000172454
0.000543625
0.000182982
0.000564428
0.000193835
0.000581498
0.000204922
0.000593306
0.000216095
0.000597972
0.000227192
0.000593162
0.000237979
0.000576068
0.000248152
0.000543337
0.000257329
0.000491016
0.000265043
0.00041455
0.000270715
0.000308674
0.000273644
0.000164995
-1.52589e-05
0.00027308
2.20213e-05
1.78869e-05
-2.17228e-05
2.23397e-05
1.93425e-05
2.26868e-05
2.09137e-05
2.30595e-05
2.26091e-05
2.34648e-05
2.44397e-05
2.39008e-05
2.64165e-05
2.43744e-05
2.85511e-05
2.48846e-05
3.08552e-05
2.54394e-05
3.33305e-05
2.60376e-05
3.60098e-05
2.66872e-05
3.89147e-05
2.73871e-05
4.20522e-05
2.81473e-05
4.54405e-05
2.89682e-05
4.90657e-05
2.98619e-05
5.29687e-05
3.08255e-05
5.72282e-05
3.18709e-05
6.18257e-05
3.30036e-05
6.66986e-05
3.42338e-05
7.19947e-05
3.55622e-05
7.77608e-05
3.70058e-05
8.38787e-05
3.85696e-05
9.04873e-05
4.0262e-05
9.77029e-05
4.20998e-05
0.000105288
4.40889e-05
0.000113617
4.62432e-05
0.000122512
4.8578e-05
0.000132059
5.1103e-05
0.0001424
5.38388e-05
0.000153396
5.67948e-05
0.000165333
5.99934e-05
0.000178013
6.3448e-05
0.000191709
6.71811e-05
0.000206301
7.12109e-05
0.000221921
7.55543e-05
0.000238626
8.0237e-05
0.000256311
8.5275e-05
0.000275207
9.06923e-05
0.000295174
9.65114e-05
0.000316216
0.00010275
0.000338383
0.000109428
0.000361545
0.000116564
0.000385571
0.00012417
0.000410354
0.000132256
0.000435649
0.000140827
0.000461126
0.000149876
0.000486359
0.000159391
0.000510786
0.000169341
0.000533674
0.000179684
0.000554086
0.000190345
0.000570832
0.000201238
0.000582414
0.000212214
0.000586984
0.000223117
0.000582256
0.000233715
0.000565472
0.00024371
0.000533348
0.000252727
0.000482002
0.000260305
0.00040697
0.000265876
0.000303079
0.000268748
0.000162071
-1.481e-05
0.000268175
2.16353e-05
1.75975e-05
-2.13407e-05
2.19485e-05
1.90298e-05
2.22893e-05
2.05757e-05
2.26553e-05
2.22436e-05
2.30531e-05
2.40444e-05
2.3481e-05
2.5989e-05
2.39456e-05
2.80885e-05
2.44463e-05
3.03546e-05
2.49906e-05
3.27881e-05
2.55776e-05
3.54224e-05
2.6215e-05
3.82792e-05
2.69019e-05
4.13646e-05
2.76478e-05
4.46966e-05
2.84536e-05
4.82592e-05
2.93304e-05
5.20939e-05
3.02762e-05
5.62819e-05
3.1302e-05
6.08019e-05
3.24136e-05
6.55867e-05
3.36208e-05
7.07894e-05
3.49244e-05
7.64571e-05
3.63411e-05
8.24638e-05
3.78759e-05
8.89527e-05
3.95367e-05
9.60437e-05
4.13405e-05
0.000103484
4.32927e-05
0.000111666
4.54071e-05
0.000120398
4.76987e-05
0.000129769
5.01769e-05
0.000139923
5.28622e-05
0.000150712
5.57637e-05
0.000162433
5.89034e-05
0.000174874
6.22945e-05
0.000188319
6.59591e-05
0.000202639
6.99149e-05
0.000217968
7.41788e-05
0.000234365
7.87759e-05
0.000251716
8.37222e-05
0.000270263
8.9041e-05
0.000289858
9.47545e-05
0.000310505
0.00010088
0.00033226
0.000107437
0.000354992
0.000114445
0.000378568
0.000121915
0.000402888
0.000129856
0.000427712
0.000138274
0.000452714
0.000147163
0.000477475
0.000156509
0.000501445
0.000166284
0.000523905
0.000176444
0.000543933
0.000186918
0.000560362
0.000197619
0.000571722
0.000208403
0.0005762
0.000219115
0.000571553
0.000229527
0.000555078
0.000239347
0.000523554
0.000248207
0.000473178
0.000255653
0.000399573
0.000261124
0.000297673
0.000263941
0.000159361
-1.4062e-05
0.000263362
2.12554e-05
1.73131e-05
-2.09671e-05
2.15626e-05
1.87225e-05
2.18971e-05
2.02436e-05
2.22565e-05
2.18845e-05
2.26469e-05
2.3656e-05
2.30673e-05
2.55689e-05
2.35235e-05
2.7634e-05
2.40151e-05
2.98628e-05
2.45494e-05
3.22553e-05
2.51257e-05
3.48456e-05
2.57513e-05
3.76551e-05
2.64255e-05
4.06894e-05
2.71575e-05
4.39661e-05
2.79482e-05
4.74673e-05
2.88088e-05
5.12351e-05
2.97369e-05
5.53528e-05
3.07437e-05
5.97969e-05
3.18347e-05
6.44953e-05
3.30194e-05
6.96064e-05
3.42989e-05
7.51776e-05
3.56892e-05
8.10751e-05
3.71956e-05
8.74467e-05
3.88255e-05
9.44152e-05
4.05958e-05
0.000101714
4.25118e-05
0.000109752
4.4587e-05
0.000118324
4.68361e-05
0.000127521
4.92685e-05
0.000137492
5.19043e-05
0.000148077
5.47522e-05
0.000159586
5.78341e-05
0.000171792
6.11627e-05
0.000184991
6.47599e-05
0.000199043
6.86431e-05
0.000214087
7.2829e-05
0.000230182
7.73421e-05
0.000247205
8.21982e-05
0.000265409
8.74202e-05
0.000284638
9.303e-05
0.000304898
9.90448e-05
0.000326249
0.000105484
0.000348556
0.000112365
0.00037169
0.000119701
0.000395555
0.0001275
0.000419915
0.000135768
0.000444448
0.000144499
0.000468746
0.00015368
0.000492265
0.000163281
0.000514302
0.000173263
0.000533951
0.000183553
0.000550067
0.000194066
0.000561208
0.00020466
0.000565592
0.000215184
0.000561023
0.000225414
0.000544847
0.000235063
0.000513907
0.000243768
0.000464472
0.000251084
0.000392248
0.000256459
0.000292265
0.000259222
0.000156527
-1.364e-05
0.000258639
2.08842e-05
1.70344e-05
-2.05995e-05
2.11865e-05
1.84213e-05
2.15151e-05
1.9918e-05
2.18682e-05
2.15324e-05
2.22514e-05
2.32753e-05
2.26641e-05
2.51571e-05
2.31116e-05
2.71885e-05
2.35942e-05
2.93807e-05
2.41184e-05
3.17329e-05
2.4684e-05
3.42799e-05
2.52978e-05
3.70431e-05
2.59595e-05
4.00273e-05
2.66777e-05
4.32497e-05
2.74538e-05
4.66906e-05
2.82982e-05
5.03927e-05
2.92091e-05
5.44414e-05
3.01969e-05
5.88109e-05
3.12676e-05
6.34244e-05
3.24302e-05
6.84455e-05
3.36859e-05
7.39221e-05
3.50503e-05
7.97123e-05
3.65286e-05
8.59686e-05
3.81283e-05
9.28171e-05
3.98657e-05
9.99775e-05
4.17462e-05
0.000107873
4.37829e-05
0.000116288
4.59904e-05
0.000125315
4.83778e-05
0.000135105
5.09648e-05
0.000145491
5.37602e-05
0.000156791
5.67853e-05
0.000168768
6.00527e-05
0.000181725
6.35837e-05
0.000195514
6.73957e-05
0.000210278
7.15048e-05
0.000226075
7.59355e-05
0.000242776
8.0703e-05
0.000260644
8.583e-05
0.000279514
9.1338e-05
0.000299393
9.72438e-05
0.000320346
0.000103566
0.000342236
0.000110324
0.000364936
0.000117528
0.000388355
0.000125188
0.000412259
0.000133308
0.000436333
0.000141883
0.000460174
0.000150901
0.000483251
0.000160334
0.000504873
0.000170139
0.000524151
0.000180248
0.000539961
0.000190577
0.000550886
0.000200985
0.000555182
0.000211325
0.000550691
0.000221376
0.000534813
0.000230856
0.000504452
0.000239409
0.000455952
0.000246598
0.000385105
0.000251878
0.000287045
0.000254588
0.000153909
-1.2915e-05
0.000254005
2.05188e-05
1.67602e-05
-2.02411e-05
2.0815e-05
1.81251e-05
2.11374e-05
1.95979e-05
2.14839e-05
2.11863e-05
2.18601e-05
2.2901e-05
2.22653e-05
2.47523e-05
2.27049e-05
2.67506e-05
2.31787e-05
2.89069e-05
2.36935e-05
3.12196e-05
2.42488e-05
3.37241e-05
2.48514e-05
3.64418e-05
2.55009e-05
3.93768e-05
2.6206e-05
4.25461e-05
2.69677e-05
4.59279e-05
2.77965e-05
4.95654e-05
2.86906e-05
5.35466e-05
2.96602e-05
5.78429e-05
3.07111e-05
6.23732e-05
3.18522e-05
6.73061e-05
3.30847e-05