/*--------------------------------*- C++ -*----------------------------------*\
  =========                 |
  \\      /  F ield         | OpenFOAM: The Open Source CFD Toolbox
   \\    /   O peration     | Website:  https://openfoam.org
    \\  /    A nd           | Version:  6.0
     \\/     M anipulation  |
\*---------------------------------------------------------------------------*/
FoamFile
{
    version     2.0;
    format      ascii;
    class       volVectorField;
    location    "4";
    object      U;
}
// * * * * * * * * * * * * * * * * * * * * * * * * * * * * * * * * * * * * * //

dimensions      [0 1 -1 0 0 0 0];

internalField   nonuniform List<vector> 
62000
(
(0.996251 -0.086329 -2.15554e-21)
(0.996248 -0.0863083 1.76441e-21)
(0.996246 -0.0863029 1.83622e-21)
(0.996245 -0.0863134 -8.05955e-21)
(0.996245 -0.0863296 -9.32013e-21)
(0.996244 -0.0863475 3.16568e-20)
(0.996244 -0.0863647 -3.48124e-20)
(0.996245 -0.0863806 2.00879e-20)
(0.996245 -0.0863947 -9.50362e-21)
(0.996246 -0.0864071 -4.87936e-20)
(0.996248 -0.0864175 -7.00885e-21)
(0.996249 -0.0864259 6.72915e-20)
(0.99625 -0.0864323 1.40293e-20)
(0.996252 -0.0864367 -4.84908e-20)
(0.996253 -0.086439 7.58871e-20)
(0.996254 -0.0864392 -3.9905e-20)
(0.996255 -0.086437 4.23109e-20)
(0.996255 -0.0864331 -4.90082e-20)
(0.996255 -0.0864268 2.45625e-20)
(0.996254 -0.0864189 -7.67161e-20)
(0.996252 -0.0864089 1.00138e-19)
(0.99625 -0.0863977 3.09781e-20)
(0.996247 -0.086385 4.56922e-20)
(0.996242 -0.0863717 -2.00675e-19)
(0.996236 -0.086358 7.4006e-20)
(0.996228 -0.0863448 -4.77826e-20)
(0.996219 -0.0863326 -1.61126e-21)
(0.996207 -0.0863229 -4.13193e-20)
(0.996192 -0.0863162 1.24594e-19)
(0.996175 -0.0863141 -7.35355e-20)
(0.996154 -0.0863178 1.78437e-19)
(0.996129 -0.0863292 -3.71825e-19)
(0.9961 -0.0863509 3.21261e-20)
(0.996065 -0.0863852 -1.3444e-19)
(0.996026 -0.0864332 -4.27676e-20)
(0.995981 -0.0864968 -1.46707e-19)
(0.995931 -0.0865778 -3.98463e-20)
(0.995876 -0.086678 -4.72102e-20)
(0.995817 -0.0867985 1.45839e-19)
(0.995755 -0.0869388 6.88212e-19)
(0.995693 -0.087097 -1.68597e-19)
(0.995635 -0.0872693 -9.18547e-19)
(0.995587 -0.0874493 -1.40106e-18)
(0.995554 -0.087628 7.10882e-19)
(0.995545 -0.0877937 2.24836e-19)
(0.995568 -0.0879318 -8.18551e-19)
(0.995631 -0.0880261 8.88904e-20)
(0.995742 -0.0880587 -2.5189e-19)
(0.995906 -0.0880121 -8.04897e-19)
(0.996124 -0.0878686 -1.18377e-19)
(0.996394 -0.0876113 2.28927e-21)
(0.996707 -0.0872235 2.04546e-19)
(0.997052 -0.0866843 -1.89233e-19)
(0.997411 -0.085965 -1.21585e-18)
(0.997761 -0.0850214 -3.76242e-19)
(0.998073 -0.0837765 -1.78133e-18)
(0.998301 -0.0820943 1.44836e-19)
(0.998398 -0.0796493 1.50454e-19)
(0.997554 -0.0767393 -7.57702e-19)
(1.01351 -0.057567 -9.03112e-20)
(0.996264 -0.0875469 -5.55172e-22)
(0.996269 -0.0874987 5.32138e-21)
(0.996281 -0.0874432 2.29049e-21)
(0.99629 -0.087415 -9.42631e-21)
(0.996297 -0.0874006 3.92953e-21)
(0.996304 -0.0873941 -2.73544e-20)
(0.99631 -0.0873901 2.47292e-20)
(0.996317 -0.087386 1.45365e-20)
(0.996323 -0.0873803 -2.69718e-20)
(0.996329 -0.0873726 9.76565e-22)
(0.996334 -0.0873626 2.61527e-20)
(0.996339 -0.0873504 2.93996e-22)
(0.996344 -0.087336 7.74813e-21)
(0.996347 -0.0873195 -6.475e-20)
(0.99635 -0.0873008 1.30318e-19)
(0.996351 -0.0872804 -1.14875e-19)
(0.99635 -0.0872581 5.42131e-20)
(0.996348 -0.0872346 -1.10978e-20)
(0.996343 -0.0872099 -3.18329e-20)
(0.996336 -0.0871846 8.83559e-20)
(0.996326 -0.0871592 -1.40109e-19)
(0.996313 -0.0871343 8.21376e-20)
(0.996297 -0.0871106 -1.06428e-19)
(0.996277 -0.0870893 6.28496e-20)
(0.996252 -0.0870712 6.14548e-20)
(0.996223 -0.0870581 -3.9944e-20)
(0.996188 -0.0870515 -2.48228e-21)
(0.996148 -0.0870536 4.42296e-20)
(0.996101 -0.0870666 3.91575e-20)
(0.996048 -0.087093 -9.11993e-20)
(0.995986 -0.0871352 1.81895e-19)
(0.995916 -0.0871961 4.30975e-20)
(0.995837 -0.0872792 1.18362e-19)
(0.99575 -0.0873865 1.92789e-20)
(0.995653 -0.0875208 3.77788e-20)
(0.995549 -0.087685 -3.63466e-20)
(0.995438 -0.0878811 -1.36729e-19)
(0.995322 -0.0881093 -6.23018e-20)
(0.995204 -0.0883676 -3.83693e-19)
(0.99509 -0.0886511 -4.58423e-19)
(0.994985 -0.0889521 3.48548e-19)
(0.994898 -0.0892594 2.29471e-19)
(0.994838 -0.0895574 1.4877e-18)
(0.994819 -0.0898271 6.95782e-20)
(0.994853 -0.0900457 -1.99675e-18)
(0.994954 -0.0901881 7.12459e-19)
(0.995135 -0.0902276 4.95494e-19)
(0.995406 -0.0901374 4.53816e-19)
(0.995772 -0.0898917 9.23963e-20)
(0.996234 -0.089466 3.67503e-20)
(0.996784 -0.0888351 1.12349e-19)
(0.997408 -0.0879754 -3.29414e-19)
(0.998084 -0.086848 5.95962e-19)
(0.998776 -0.0854062 2.58639e-18)
(0.999444 -0.0835754 8.6809e-19)
(1.00002 -0.0812446 4.3676e-19)
(1.00043 -0.0782259 2.08208e-18)
(1.00057 -0.0741933 9.93853e-19)
(0.999734 -0.0695283 -1.86148e-18)
(1.00568 -0.0587557 -6.61644e-19)
(0.996253 -0.0893277 -2.5144e-21)
(0.996287 -0.089253 -3.9731e-22)
(0.996331 -0.0891581 3.52053e-22)
(0.996363 -0.0891013 1.75412e-21)
(0.99639 -0.0890643 5.08904e-21)
(0.996413 -0.0890431 -4.75225e-21)
(0.996434 -0.0890301 2.56513e-20)
(0.996454 -0.0890202 -1.18711e-20)
(0.996472 -0.0890103 -6.46391e-21)
(0.996489 -0.0889994 -4.02024e-20)
(0.996504 -0.0889867 3.35151e-20)
(0.996518 -0.0889723 2.42938e-21)
(0.99653 -0.0889561 -7.83103e-21)
(0.99654 -0.0889385 2.06453e-20)
(0.996548 -0.0889194 -3.50264e-20)
(0.996555 -0.0888993 8.45075e-23)
(0.996559 -0.0888782 -1.65025e-20)
(0.996561 -0.0888572 -2.08969e-22)
(0.99656 -0.0888363 3.82038e-20)
(0.996556 -0.0888161 -5.83333e-20)
(0.99655 -0.0887973 3.60857e-20)
(0.99654 -0.0887806 1.45294e-19)
(0.996526 -0.0887667 -1.72711e-20)
(0.996508 -0.0887571 -2.05253e-19)
(0.996485 -0.0887525 1.05566e-19)
(0.996458 -0.0887546 -5.90759e-20)
(0.996425 -0.0887652 9.70749e-20)
(0.996387 -0.0887861 -5.74291e-20)
(0.996342 -0.0888198 -1.25674e-19)
(0.996291 -0.0888683 1.29993e-19)
(0.996232 -0.088934 -9.83678e-20)
(0.996166 -0.0890192 1.4299e-19)
(0.996091 -0.0891268 -3.97333e-19)
(0.996007 -0.0892578 3.75655e-19)
(0.995916 -0.089414 -2.06158e-19)
(0.995818 -0.0895982 8.9966e-20)
(0.995715 -0.0898111 5.78014e-20)
(0.995609 -0.0900517 -1.46525e-21)
(0.995504 -0.090316 9.0714e-21)
(0.995404 -0.0905969 4.15647e-19)
(0.995316 -0.0908846 -1.86648e-19)
(0.995248 -0.0911654 3.01372e-19)
(0.995211 -0.0914216 -9.28687e-19)
(0.995217 -0.091632 -4.29137e-19)
(0.995279 -0.0917724 5.26328e-19)
(0.995411 -0.0918165 -1.24478e-18)
(0.995626 -0.0917374 1.80316e-19)
(0.995934 -0.0915087 -7.33738e-19)
(0.996343 -0.091105 7.74408e-19)
(0.996851 -0.0905029 1.26492e-19)
(0.997452 -0.0896778 -3.33188e-20)
(0.998131 -0.0886066 -5.49515e-20)
(0.998864 -0.0872507 -4.05687e-19)
(0.999612 -0.0855621 2.34391e-19)
(1.00033 -0.0834691 1.70845e-18)
(1.00094 -0.0808706 9.28303e-19)
(1.00134 -0.0776128 1.22341e-18)
(1.00143 -0.0734774 3.2518e-18)
(1.00084 -0.0693091 -5.48514e-20)
(1.00289 -0.0597634 -4.04875e-19)
(0.996215 -0.0907069 -2.28391e-21)
(0.996283 -0.0905905 6.95189e-21)
(0.996357 -0.0904709 -9.99569e-22)
(0.996412 -0.0903898 -7.13057e-21)
(0.996457 -0.0903323 1.07141e-20)
(0.996497 -0.0902985 1.85569e-20)
(0.996533 -0.0902792 -2.37299e-20)
(0.996567 -0.0902674 2.58882e-21)
(0.996599 -0.0902586 8.26888e-21)
(0.996628 -0.0902507 1.7117e-20)
(0.996655 -0.0902426 -3.10525e-20)
(0.99668 -0.090234 -9.6155e-21)
(0.996702 -0.0902247 -1.07872e-20)
(0.996723 -0.0902149 4.80335e-20)
(0.99674 -0.0902045 -3.20238e-20)
(0.996756 -0.0901939 7.52418e-20)
(0.996769 -0.0901831 -9.00559e-20)
(0.996779 -0.0901732 -1.36163e-20)
(0.996787 -0.0901641 9.50636e-20)
(0.996792 -0.0901565 -3.27513e-20)
(0.996794 -0.0901512 -1.14232e-20)
(0.996793 -0.0901488 -1.30442e-20)
(0.99679 -0.0901498 -1.21602e-19)
(0.996783 -0.0901558 6.81146e-20)
(0.996772 -0.0901673 -3.33681e-20)
(0.996757 -0.0901859 5.31657e-20)
(0.996739 -0.0902132 2.34527e-20)
(0.996716 -0.0902507 1.30732e-19)
(0.996688 -0.0903008 -7.98124e-20)
(0.996655 -0.0903648 -1.1251e-19)
(0.996617 -0.0904449 1.73168e-19)
(0.996572 -0.0905427 -1.43187e-19)
(0.996521 -0.0906604 2.78763e-19)
(0.996463 -0.0907981 -1.74645e-19)
(0.996399 -0.0909568 6.30772e-20)
(0.99633 -0.0911386 1.22517e-19)
(0.996258 -0.0913434 -4.93401e-20)
(0.996183 -0.0915693 7.13194e-20)
(0.996109 -0.0918115 -1.73441e-20)
(0.996041 -0.0920617 7.87905e-20)
(0.995983 -0.0923095 -3.22614e-19)
(0.995944 -0.0925408 1.01687e-19)
(0.995932 -0.0927375 2.06703e-19)
(0.995959 -0.0928785 4.04422e-19)
(0.996037 -0.0929401 6.31096e-19)
(0.996179 -0.092897 2.42721e-19)
(0.996398 -0.0927234 5.70498e-19)
(0.996705 -0.0923943 5.06928e-19)
(0.997106 -0.091886 2.58649e-19)
(0.997604 -0.0911763 -9.88065e-20)
(0.998191 -0.0902421 2.12497e-20)
(0.998856 -0.0890613 -2.50812e-19)
(0.999575 -0.0875983 -5.64914e-19)
(1.00031 -0.0858053 -1.39029e-18)
(1.00101 -0.0836167 -1.12473e-18)
(1.0016 -0.0809393 -2.57374e-18)
(1.00198 -0.0776396 -5.06891e-18)
(1.00204 -0.0735423 5.26075e-19)
(1.0017 -0.0696214 2.92666e-18)
(1.00164 -0.0602516 2.18372e-18)
(0.99616 -0.0916916 3.8813e-21)
(0.996253 -0.0915518 -1.24768e-21)
(0.996347 -0.0914267 2.19069e-21)
(0.996413 -0.0913286 -2.99028e-21)
(0.996469 -0.0912547 6.75578e-21)
(0.996518 -0.09121 -3.22062e-21)
(0.996565 -0.0911856 1.8144e-21)
(0.996608 -0.091173 -2.61154e-20)
(0.996649 -0.0911666 2.15609e-20)
(0.996688 -0.0911633 -4.29985e-20)
(0.996724 -0.0911615 4.64568e-20)
(0.996759 -0.0911604 -5.38357e-21)
(0.99679 -0.0911599 -1.21453e-20)
(0.99682 -0.09116 -5.90324e-21)
(0.996846 -0.0911606 -1.34064e-21)
(0.99687 -0.091162 -5.54248e-20)
(0.996892 -0.0911642 1.51576e-21)
(0.996911 -0.0911683 5.95633e-20)
(0.996928 -0.0911738 -1.95318e-20)
(0.996942 -0.0911816 -2.10103e-20)
(0.996953 -0.0911922 3.49089e-20)
(0.996962 -0.0912063 -1.76939e-20)
(0.996969 -0.091224 7.20406e-20)
(0.996973 -0.0912472 4.02524e-20)
(0.996974 -0.0912758 3.22396e-20)
(0.996973 -0.0913114 -9.48473e-20)
(0.996969 -0.0913554 -1.33442e-20)
(0.996962 -0.091409 -7.52709e-20)
(0.996951 -0.0914743 1.48512e-20)
(0.996938 -0.0915521 -2.83298e-20)
(0.99692 -0.0916443 -8.60966e-21)
(0.996898 -0.0917519 9.71621e-20)
(0.996872 -0.0918767 -2.47678e-19)
(0.996842 -0.0920178 -1.03592e-21)
(0.996807 -0.0921756 -1.37679e-19)
(0.996769 -0.0923518 -7.39343e-20)
(0.996729 -0.0925452 5.13992e-20)
(0.996688 -0.0927537 -2.12743e-19)
(0.99665 -0.0929716 3.30183e-19)
(0.996616 -0.0931905 4.10831e-21)
(0.996593 -0.0933996 3.73239e-19)
(0.996586 -0.0935849 -2.38777e-19)
(0.996604 -0.0937286 -1.45902e-19)
(0.996655 -0.0938104 -1.47137e-19)
(0.996753 -0.0938074 3.58254e-19)
(0.996908 -0.0936955 5.03377e-19)
(0.997133 -0.0934503 -3.2465e-20)
(0.997439 -0.0930478 -6.31706e-21)
(0.997833 -0.0924658 -2.59916e-19)
(0.998318 -0.0916826 7.0024e-20)
(0.998888 -0.0906762 -1.13e-19)
(0.999534 -0.0894246 9.37686e-20)
(1.00023 -0.0878936 -2.74264e-19)
(1.00095 -0.0860351 -1.33718e-18)
(1.00163 -0.0837861 1.53487e-19)
(1.00221 -0.0810552 1.9989e-18)
(1.00258 -0.0777123 5.38266e-18)
(1.00264 -0.0735907 -5.3415e-18)
(1.00249 -0.0696773 3.15237e-18)
(1.00109 -0.0603742 -2.66593e-18)
(0.99609 -0.0923414 -1.23959e-21)
(0.996198 -0.0922169 4.94906e-21)
(0.996301 -0.0921055 -8.09725e-21)
(0.996371 -0.0920043 5.994e-21)
(0.996428 -0.0919229 3.88703e-21)
(0.996481 -0.0918716 -4.04031e-21)
(0.996532 -0.0918436 3.60997e-22)
(0.99658 -0.0918306 -2.99991e-21)
(0.996626 -0.0918265 -1.01681e-20)
(0.996671 -0.0918277 1.91086e-20)
(0.996713 -0.0918321 -2.9466e-20)
(0.996754 -0.0918388 2.55036e-20)
(0.996793 -0.0918472 2.2478e-20)
(0.99683 -0.0918574 -3.39226e-20)
(0.996864 -0.0918692 -1.11736e-20)
(0.996896 -0.0918827 4.13195e-20)
(0.996925 -0.0918978 -4.96084e-20)
(0.996953 -0.0919157 6.81074e-20)
(0.996977 -0.0919358 -1.23045e-20)
(0.997 -0.0919588 7.41427e-21)
(0.99702 -0.0919854 -1.1177e-20)
(0.997039 -0.0920158 -1.42549e-20)
(0.997055 -0.0920503 -2.89594e-20)
(0.99707 -0.0920905 4.78236e-20)
(0.997083 -0.092136 -3.2789e-20)
(0.997094 -0.0921884 -3.27343e-20)
(0.997103 -0.0922486 6.83994e-20)
(0.99711 -0.0923176 -6.16083e-20)
(0.997116 -0.0923974 1.10807e-19)
(0.99712 -0.0924879 -5.6426e-20)
(0.997122 -0.0925912 5.20697e-20)
(0.997122 -0.0927074 -7.41391e-20)
(0.99712 -0.0928379 9.56025e-20)
(0.997115 -0.0929813 1.54799e-21)
(0.997108 -0.0931376 -3.44581e-21)
(0.997099 -0.0933078 3.36796e-21)
(0.997091 -0.09349 -2.18302e-20)
(0.997084 -0.0936818 1.72142e-19)
(0.99708 -0.0938774 -1.55172e-19)
(0.997082 -0.0940678 -7.26478e-19)
(0.997094 -0.0942426 -2.94218e-19)
(0.997121 -0.0943882 2.52164e-19)
(0.997171 -0.0944874 -1.45056e-19)
(0.997252 -0.0945205 -2.64253e-19)
(0.997373 -0.0944661 -2.71651e-21)
(0.997547 -0.0943011 4.28064e-19)
(0.997784 -0.0940022 -4.94357e-19)
(0.998095 -0.0935466 -3.67963e-19)
(0.998488 -0.0929127 -1.96973e-19)
(0.998966 -0.092079 5.94115e-20)
(0.999525 -0.0910238 -3.27861e-19)
(1.00016 -0.0897244 1.13069e-19)
(1.00084 -0.0881469 1.78381e-18)
(1.00155 -0.0862419 -5.60778e-19)
(1.00222 -0.0839464 -7.9257e-19)
(1.00279 -0.0811678 1.9118e-18)
(1.00317 -0.0777737 -1.40163e-18)
(1.00324 -0.0735974 -1.57139e-18)
(1.00322 -0.0696309 -5.11408e-18)
(1.00088 -0.06032 -1.51547e-20)
(0.995995 -0.0927592 1.1313e-21)
(0.996113 -0.0926572 -5.05395e-21)
(0.99622 -0.0925648 2.40734e-21)
(0.996288 -0.0924691 4.54574e-21)
(0.996343 -0.0923876 -9.71468e-21)
(0.996394 -0.0923349 8.04089e-21)
(0.996444 -0.0923065 -5.31306e-21)
(0.996493 -0.0922948 4.49442e-21)
(0.996541 -0.0922938 7.04843e-21)
(0.996588 -0.0922995 -1.69136e-20)
(0.996635 -0.0923096 2.4094e-20)
(0.99668 -0.092323 1.03118e-20)
(0.996723 -0.092339 -3.9672e-20)
(0.996765 -0.0923578 -7.15628e-21)
(0.996805 -0.0923791 2.07783e-20)
(0.996843 -0.0924031 1.33525e-20)
(0.99688 -0.0924296 -1.56836e-20)
(0.996914 -0.0924598 1.43841e-20)
(0.996946 -0.092493 2.12709e-20)
(0.996977 -0.0925297 -1.03019e-20)
(0.997006 -0.0925706 -5.97878e-21)
(0.997033 -0.0926158 2.08971e-20)
(0.997059 -0.0926653 4.36218e-20)
(0.997083 -0.0927209 -3.13694e-20)
(0.997107 -0.0927816 -3.55205e-20)
(0.997129 -0.092849 3.94624e-20)
(0.997151 -0.0929239 -3.07537e-20)
(0.997172 -0.0930067 -1.46698e-20)
(0.997193 -0.0930994 1.09223e-19)
(0.997213 -0.0932013 -4.51369e-20)
(0.997233 -0.0933143 -4.18818e-20)
(0.997252 -0.093438 6.07646e-20)
(0.997271 -0.0935735 4.3183e-20)
(0.997289 -0.0937191 -2.51064e-20)
(0.997307 -0.093874 -2.24854e-20)
(0.997326 -0.0940392 8.27914e-20)
(0.997348 -0.094212 4.47526e-20)
(0.997372 -0.0943899 2.26719e-20)
(0.997401 -0.0945669 -1.48775e-19)
(0.997437 -0.0947339 -9.05164e-20)
(0.997483 -0.094881 3.15873e-19)
(0.997544 -0.0949951 2.30417e-19)
(0.997627 -0.0950596 3.99174e-19)
(0.997738 -0.0950557 -2.75542e-19)
(0.997887 -0.094963 -2.44775e-19)
(0.998084 -0.0947596 -2.10407e-19)
(0.998339 -0.0944232 2.94756e-19)
(0.998662 -0.0939314 9.31858e-20)
(0.999061 -0.0932631 4.80261e-20)
(0.999541 -0.0923965 4.84949e-19)
(1.0001 -0.0913094 7.37446e-21)
(1.00073 -0.0899778 -2.36971e-19)
(1.00141 -0.0883673 2.05849e-20)
(1.00211 -0.0864263 8.68807e-19)
(1.00278 -0.084091 -9.98708e-19)
(1.00336 -0.0812658 -6.27484e-19)
(1.00375 -0.0778141 -1.0297e-18)
(1.00383 -0.0735688 4.83211e-18)
(1.00392 -0.0695281 2.90381e-19)
(1.00085 -0.0601622 -1.65745e-19)
(0.99588 -0.0930336 -1.29461e-21)
(0.996007 -0.092958 -1.04331e-21)
(0.996117 -0.0928873 1.35928e-21)
(0.99618 -0.0928015 4.87204e-21)
(0.996229 -0.0927238 -1.04377e-20)
(0.996275 -0.0926718 1.18642e-20)
(0.99632 -0.0926432 -4.90274e-22)
(0.996367 -0.0926317 -6.77711e-22)
(0.996413 -0.0926318 -4.14824e-21)
(0.99646 -0.0926399 9.81982e-21)
(0.996506 -0.0926536 -1.512e-20)
(0.996553 -0.0926715 5.74632e-21)
(0.996599 -0.092693 -1.24329e-22)
(0.996643 -0.092718 8.96165e-21)
(0.996687 -0.0927464 4.24679e-21)
(0.99673 -0.0927781 -2.14225e-20)
(0.996772 -0.092813 1.83476e-20)
(0.996812 -0.0928524 7.28411e-21)
(0.99685 -0.0928955 -2.13816e-20)
(0.996888 -0.0929427 9.88784e-21)
(0.996924 -0.0929949 4.94249e-21)
(0.996959 -0.0930518 -3.72269e-21)
(0.996994 -0.0931134 3.98214e-21)
(0.997027 -0.0931815 -3.0038e-21)
(0.997061 -0.0932548 -2.49178e-20)
(0.997094 -0.0933347 1.7451e-20)
(0.997126 -0.0934218 -2.74427e-20)
(0.99716 -0.0935162 4.4773e-20)
(0.997194 -0.0936198 -1.35495e-20)
(0.997228 -0.0937314 -4.50274e-21)
(0.997264 -0.0938527 -1.94033e-21)
(0.9973 -0.0939829 6.20542e-20)
(0.997338 -0.0941227 -2.08832e-20)
(0.997377 -0.0942703 1.9517e-21)
(0.997418 -0.0944246 3.88861e-20)
(0.997462 -0.0945862 3.16254e-20)
(0.997509 -0.0947518 -5.17081e-20)
(0.997562 -0.094919 7.96552e-21)
(0.997621 -0.0950818 1.44164e-19)
(0.997688 -0.0952312 5.27117e-20)
(0.997768 -0.0953574 5.17306e-20)
(0.997862 -0.095448 -1.14119e-19)
(0.997978 -0.0954871 1.1443e-19)
(0.998121 -0.0954569 3.47115e-19)
(0.9983 -0.0953377 1.78917e-19)
(0.998523 -0.0951086 -6.3658e-20)
(0.998801 -0.0947479 -8.99058e-20)
(0.999143 -0.0942335 -1.29929e-19)
(0.999556 -0.0935444 -2.36308e-20)
(1.00005 -0.0926578 -3.87907e-20)
(1.00061 -0.0915509 -5.12153e-20)
(1.00124 -0.0901977 9.59634e-19)
(1.00193 -0.0885628 -1.06715e-18)
(1.00264 -0.0865917 8.79016e-19)
(1.00332 -0.0842188 -2.09953e-18)
(1.00391 -0.0813453 -5.52987e-19)
(1.00432 -0.0778304 -2.81411e-18)
(1.00443 -0.0735066 -4.02165e-18)
(1.00459 -0.0693816 -7.14343e-19)
(1.00093 -0.0599274 -1.12961e-18)
(0.995747 -0.0932301 -2.95499e-22)
(0.995884 -0.0931664 2.42606e-22)
(0.995995 -0.0931087 1.26873e-21)
(0.996052 -0.0930308 2.04079e-21)
(0.996093 -0.0929572 -5.94187e-21)
(0.996132 -0.0929074 3.3992e-21)
(0.996171 -0.0928802 -6.20413e-21)
(0.996212 -0.0928702 9.60764e-21)
(0.996255 -0.092872 -4.52274e-21)
(0.996299 -0.0928825 7.83305e-22)
(0.996344 -0.092899 8.51865e-21)
(0.996389 -0.0929202 -1.89594e-20)
(0.996435 -0.0929456 1.29568e-20)
(0.996481 -0.0929751 2.11536e-21)
(0.996527 -0.0930085 2.69123e-21)
(0.996572 -0.0930458 -1.18361e-20)
(0.996618 -0.0930869 5.93074e-21)
(0.996662 -0.0931332 -7.41843e-21)
(0.996706 -0.0931838 1.37285e-20)
(0.996749 -0.0932389 -6.78343e-22)
(0.996791 -0.0932995 -1.70862e-20)
(0.996834 -0.0933653 8.84129e-21)
(0.996876 -0.0934361 -7.24478e-23)
(0.996917 -0.0935137 -2.86185e-20)
(0.996959 -0.0935965 1.98562e-20)
(0.997002 -0.0936861 1.46846e-20)
(0.997045 -0.0937826 8.1741e-21)
(0.997089 -0.0938862 -1.68221e-20)
(0.997134 -0.0939983 -2.13895e-20)
(0.997182 -0.0941177 1.13285e-20)
(0.997231 -0.0942457 6.91954e-21)
(0.997283 -0.094381 -1.77405e-20)
(0.997338 -0.0945246 -2.14312e-20)
(0.997395 -0.0946741 5.47445e-20)
(0.997456 -0.0948282 1.31627e-20)
(0.997522 -0.0949875 -9.3029e-20)
(0.997593 -0.0951481 2.42791e-20)
(0.997671 -0.0953076 5.36996e-20)
(0.997757 -0.0954602 -1.55824e-20)
(0.997854 -0.0955969 1.02429e-19)
(0.997964 -0.0957083 -1.19094e-19)
(0.99809 -0.0957827 2.19601e-20)
(0.998238 -0.0958047 -1.08827e-19)
(0.998413 -0.0957572 -7.10739e-20)
(0.998623 -0.0956213 9.41274e-20)
(0.998876 -0.0953769 1.07121e-20)
(0.99918 -0.0950026 8.3745e-20)
(0.999546 -0.0944763 9.56362e-20)
(0.999981 -0.0937767 -2.7e-19)
(1.00049 -0.09288 -1.16546e-18)
(1.00107 -0.091762 1.26987e-18)
(1.00172 -0.0903947 -1.95455e-18)
(1.00242 -0.0887408 1.44714e-18)
(1.00314 -0.0867434 9.87844e-19)
(1.00384 -0.0843345 4.32427e-18)
(1.00446 -0.0814116 2.69765e-19)
(1.00489 -0.0778303 1.71192e-18)
(1.00502 -0.0734232 2.03117e-18)
(1.00525 -0.0692093 -1.56016e-18)
(1.00106 -0.0596456 -2.73378e-19)
(0.995603 -0.0933746 -7.11859e-23)
(0.995749 -0.0933264 -3.0576e-23)
(0.995861 -0.0932819 2.4841e-22)
(0.995912 -0.0932118 -2.10724e-22)
(0.995945 -0.0931427 9.14572e-23)
(0.995975 -0.0930949 -1.00606e-22)
(0.996007 -0.0930681 -2.82858e-23)
(0.996042 -0.0930578 4.43475e-22)
(0.996079 -0.0930594 -1.8261e-22)
(0.996119 -0.0930701 1.84174e-22)
(0.99616 -0.0930874 -5.16771e-23)
(0.996204 -0.09311 -1.73307e-22)
(0.996248 -0.0931371 3.13174e-22)
(0.996294 -0.0931689 -5.76507e-23)
(0.99634 -0.093205 3.59376e-22)
(0.996387 -0.0932453 4.49133e-23)
(0.996434 -0.0932898 7.79465e-22)
(0.996481 -0.0933399 5.79187e-22)
(0.996528 -0.0933947 -1.20339e-22)
(0.996576 -0.0934544 2.70106e-22)
(0.996623 -0.0935203 4.33928e-22)
(0.996671 -0.0935917 2.24625e-21)
(0.996719 -0.0936685 2.96445e-22)
(0.996768 -0.0937526 -1.75864e-21)
(0.996817 -0.0938421 -2.42829e-21)
(0.996868 -0.0939384 -1.94662e-21)
(0.99692 -0.0940418 -4.01813e-21)
(0.996974 -0.094152 4.83428e-21)
(0.99703 -0.0942705 -3.96409e-21)
(0.997089 -0.0943955 -1.77688e-21)
(0.997151 -0.0945286 -1.09236e-20)
(0.997216 -0.094668 2.44264e-21)
(0.997285 -0.0948144 7.91879e-21)
(0.997359 -0.0949655 -2.4735e-20)
(0.997438 -0.0951198 4.2955e-20)
(0.997523 -0.0952777 2.68428e-21)
(0.997615 -0.0954349 3.1265e-20)
(0.997717 -0.0955893 -6.01441e-20)
(0.997828 -0.0957351 -2.67311e-20)
(0.997952 -0.0958632 -2.81394e-20)
(0.99809 -0.0959649 2.70255e-20)
(0.998246 -0.096029 3.26319e-20)
(0.998425 -0.0960404 3.63044e-20)
(0.998632 -0.0959828 -1.09354e-19)
(0.998874 -0.095838 -4.66325e-20)
(0.999157 -0.0955863 8.55449e-20)
(0.999492 -0.0952065 -3.604e-19)
(0.999886 -0.0946764 -8.12553e-20)
(1.00035 -0.0939741 -1.28145e-19)
(1.00088 -0.0930744 9.23273e-19)
(1.00148 -0.0919517 -3.78303e-19)
(1.00216 -0.0905758 1.05415e-18)
(1.00288 -0.0889071 -2.61858e-18)
(1.00363 -0.0868861 -5.92934e-19)
(1.00435 -0.0844416 2.93381e-18)
(1.005 -0.0814684 -1.2224e-18)
(1.00546 -0.0778184 3.74704e-18)
(1.00562 -0.0733247 8.72809e-19)
(1.0059 -0.069018 5.87722e-18)
(1.00124 -0.0593257 1.48936e-18)
(0.995457 -0.0934908 1.35985e-22)
(0.995613 -0.093449 5.1108e-22)
(0.995726 -0.0934124 4.38184e-22)
(0.99577 -0.0933481 -4.10171e-21)
(0.995794 -0.0932833 2.23121e-21)
(0.995816 -0.0932384 2.62467e-21)
(0.995839 -0.0932136 9.05868e-22)
(0.995867 -0.0932046 3.7232e-21)
(0.995897 -0.0932069 -2.2892e-21)
(0.995931 -0.0932179 -2.79747e-22)
(0.995969 -0.0932355 -1.6865e-22)
(0.996008 -0.0932583 -9.27494e-21)
(0.99605 -0.0932858 6.34035e-21)
(0.996093 -0.0933181 6.34793e-22)
(0.996138 -0.093355 -6.81152e-21)
(0.996185 -0.0933964 3.83711e-21)
(0.996233 -0.0934424 1.8711e-21)
(0.996281 -0.0934946 -1.7188e-21)
(0.99633 -0.0935517 -6.92867e-21)
(0.996381 -0.0936141 -3.62446e-21)
(0.996432 -0.093683 -1.13842e-21)
(0.996484 -0.0937579 8.79694e-21)
(0.996537 -0.0938381 -5.34572e-21)
(0.996591 -0.0939263 -5.92086e-21)
(0.996647 -0.0940198 1.54026e-20)
(0.996705 -0.0941206 -5.05378e-21)
(0.996765 -0.0942284 1.81596e-20)
(0.996827 -0.0943428 -1.55375e-20)
(0.996893 -0.0944656 -1.32847e-20)
(0.996962 -0.0945945 1.39868e-20)
(0.997034 -0.0947311 1.50988e-20)
(0.997112 -0.0948732 -1.29379e-20)
(0.997194 -0.0950218 -4.8198e-21)
(0.997282 -0.0951741 3.95283e-21)
(0.997377 -0.0953286 1.76727e-20)
(0.99748 -0.0954858 1.70961e-20)
(0.997592 -0.0956409 -8.62351e-21)
(0.997714 -0.0957921 -1.31008e-20)
(0.997848 -0.0959336 -2.65531e-21)
(0.997996 -0.0960565 -1.04371e-20)
(0.998161 -0.0961524 -5.17634e-20)
(0.998346 -0.0962107 3.21698e-20)
(0.998555 -0.0962168 -6.11577e-20)
(0.998793 -0.0961547 2.08369e-19)
(0.999066 -0.0960071 -1.11197e-19)
(0.999382 -0.0957542 1.80374e-20)
(0.999749 -0.0953752 -9.13186e-20)
(1.00017 -0.0948473 5.89252e-19)
(1.00067 -0.094148 1.05494e-18)
(1.00123 -0.0932504 -1.20259e-18)
(1.00186 -0.0921277 -1.89806e-18)
(1.00256 -0.090747 -1.2123e-18)
(1.00332 -0.0890662 2.58632e-18)
(1.00409 -0.0870235 -1.59864e-18)
(1.00485 -0.0845445 -4.35124e-18)
(1.00553 -0.0815207 -1.96568e-18)
(1.00603 -0.0778008 -3.65247e-18)
(1.00622 -0.0732184 -1.90023e-18)
(1.00654 -0.0688161 -5.50049e-18)
(1.00144 -0.0589803 4.23063e-18)
(0.995322 -0.0935873 -3.31192e-22)
(0.995487 -0.0935577 9.57409e-22)
(0.9956 -0.0935309 -3.42512e-21)
(0.995638 -0.0934726 -8.70233e-22)
(0.995653 -0.0934116 4.45783e-21)
(0.995665 -0.0933688 5.01299e-21)
(0.995679 -0.0933445 -1.15965e-20)
(0.995698 -0.0933349 1.23173e-20)
(0.995721 -0.0933362 2.88348e-21)
(0.995748 -0.0933461 -7.31031e-21)
(0.995779 -0.0933627 -6.6297e-21)
(0.995813 -0.0933847 -1.98279e-20)
(0.99585 -0.0934114 1.06585e-20)
(0.99589 -0.0934431 1.82536e-20)
(0.995932 -0.0934796 -4.0898e-21)
(0.995977 -0.0935206 1.41103e-20)
(0.996023 -0.0935663 -1.08655e-20)
(0.996071 -0.0936184 1.78074e-20)
(0.996121 -0.0936757 -2.95215e-21)
(0.996174 -0.0937385 6.16623e-21)
(0.996227 -0.0938083 3.79593e-21)
(0.996282 -0.0938843 1.34879e-20)
(0.996339 -0.093966 -1.60952e-21)
(0.996398 -0.0940561 -2.94118e-20)
(0.996459 -0.0941516 1.20091e-20)
(0.996523 -0.0942546 -2.75363e-21)
(0.996589 -0.0943648 -9.87368e-21)
(0.996659 -0.0944817 9.62491e-21)
(0.996733 -0.094607 3.92333e-21)
(0.996811 -0.0947381 -1.46671e-20)
(0.996893 -0.0948768 -1.22854e-20)
(0.996982 -0.0950205 5.31374e-21)
(0.997076 -0.0951704 3.40206e-20)
(0.997177 -0.0953234 6.05311e-20)
(0.997286 -0.0954782 -6.48507e-20)
(0.997404 -0.0956351 -2.52666e-20)
(0.997533 -0.0957891 -1.97421e-20)
(0.997675 -0.0959385 -9.28526e-20)
(0.99783 -0.0960777 5.63975e-20)
(0.998001 -0.0961978 -4.41761e-20)
(0.998191 -0.0962911 -3.79835e-20)
(0.998402 -0.0963471 3.0018e-20)
(0.99864 -0.0963516 3.42728e-20)
(0.998908 -0.0962894 -1.50479e-19)
(0.999213 -0.0961431 2.99405e-19)
(0.999562 -0.0958935 -2.40694e-19)
(0.999962 -0.0955198 6.97651e-19)
(1.00042 -0.0949984 -1.14819e-19)
(1.00095 -0.0943061 -5.81931e-19)
(1.00154 -0.0934145 1.29029e-18)
(1.00221 -0.0922949 2.54039e-19)
(1.00294 -0.0909122 1.07384e-20)
(1.00373 -0.0892217 5.46524e-19)
(1.00454 -0.0871586 1.73758e-18)
(1.00534 -0.0846455 -1.15156e-19)
(1.00606 -0.0815708 -1.92556e-18)
(1.0066 -0.0777799 2.13173e-18)
(1.00682 -0.0731066 6.08004e-19)
(1.00718 -0.068605 7.42273e-19)
(1.00167 -0.0586115 -3.1671e-18)
(0.995187 -0.0936814 -9.28606e-22)
(0.995361 -0.0936488 7.68037e-22)
(0.995475 -0.093623 -7.02158e-22)
(0.995506 -0.0935667 -4.34665e-21)
(0.995513 -0.0935077 -6.14483e-21)
(0.995516 -0.0934668 2.34711e-20)
(0.995522 -0.0934443 -1.66092e-20)
(0.995532 -0.0934362 -3.39576e-21)
(0.995547 -0.0934384 1.02169e-21)
(0.995566 -0.0934489 7.09594e-21)
(0.995591 -0.0934657 -2.10948e-20)
(0.995619 -0.0934876 6.51692e-21)
(0.995652 -0.093514 8.90247e-21)
(0.995687 -0.0935455 2.67593e-20)
(0.995725 -0.0935816 -5.15625e-20)
(0.995767 -0.0936222 1.02566e-20)
(0.995812 -0.0936675 7.99558e-21)
(0.995859 -0.0937195 2.52611e-20)
(0.995908 -0.0937767 -2.71291e-20)
(0.995961 -0.0938393 -1.46444e-20)
(0.996016 -0.0939092 8.18356e-21)
(0.996073 -0.0939852 -1.00317e-20)
(0.996133 -0.094067 4.55552e-20)
(0.996195 -0.0941575 -3.63475e-21)
(0.996261 -0.0942535 -2.28908e-20)
(0.996329 -0.0943571 3.41585e-21)
(0.996401 -0.0944682 7.30837e-20)
(0.996478 -0.0945859 -5.46361e-21)
(0.996558 -0.0947123 -6.08689e-20)
(0.996644 -0.0948443 2.02321e-20)
(0.996736 -0.094984 2.91323e-20)
(0.996833 -0.0951283 -2.5897e-20)
(0.996938 -0.0952788 -5.0501e-20)
(0.997051 -0.0954322 -1.11925e-19)
(0.997173 -0.0955871 1.2062e-20)
(0.997306 -0.095744 -4.02799e-20)
(0.997451 -0.0958974 1.79734e-19)
(0.99761 -0.096046 2.83793e-20)
(0.997784 -0.0961844 -2.73046e-20)
(0.997976 -0.0963037 1.38484e-19)
(0.998189 -0.0963965 7.75172e-21)
(0.998426 -0.0964528 -5.50992e-20)
(0.998691 -0.0964588 -9.81993e-20)
(0.998989 -0.0963993 -2.04695e-19)
(0.999325 -0.0962578 -6.47077e-19)
(0.999707 -0.0960148 5.77864e-19)
(1.00014 -0.0956494 -1.06324e-18)
(1.00064 -0.0951376 -8.65117e-19)
(1.0012 -0.0944552 2.84443e-20)
(1.00183 -0.0935721 -1.51683e-18)
(1.00253 -0.092458 2.24222e-18)
(1.0033 -0.0910751 3.04434e-18)
(1.00413 -0.0893761 -2.61752e-18)
(1.00499 -0.0872938 -2.46292e-18)
(1.00582 -0.0847473 1.13151e-18)
(1.00659 -0.0816217 6.69211e-18)
(1.00716 -0.0777593 -1.65234e-18)
(1.00742 -0.0729932 1.78888e-18)
(1.00782 -0.068389 2.68484e-18)
(1.00191 -0.0582287 -2.59216e-18)
(0.995048 -0.093768 1.33946e-21)
(0.995231 -0.0937424 -1.43519e-21)
(0.995345 -0.0937214 -9.63381e-21)
(0.995371 -0.0936677 1.23099e-20)
(0.99537 -0.0936102 -2.18645e-20)
(0.995365 -0.0935699 3.13986e-20)
(0.995363 -0.0935473 -8.71252e-21)
(0.995365 -0.0935384 3.75934e-22)
(0.995373 -0.0935396 -1.8444e-20)
(0.995386 -0.093549 9.62831e-21)
(0.995405 -0.0935649 -2.93956e-21)
(0.995428 -0.0935859 -2.67625e-21)
(0.995455 -0.0936114 4.20907e-20)
(0.995486 -0.0936419 -1.21929e-20)
(0.995521 -0.093677 -2.76701e-20)
(0.99556 -0.0937164 -9.18887e-22)
(0.995602 -0.0937604 4.41608e-20)
(0.995647 -0.0938109 -1.87142e-20)
(0.995696 -0.0938667 -8.07153e-20)
(0.995748 -0.0939278 5.21576e-20)
(0.995803 -0.0939964 3.95307e-20)
(0.995861 -0.0940713 -3.12582e-20)
(0.995924 -0.0941519 -2.19456e-20)
(0.995988 -0.0942418 -2.19473e-20)
(0.996057 -0.094337 4.20975e-20)
(0.99613 -0.0944401 8.86783e-20)
(0.996207 -0.0945508 -6.33923e-20)
(0.996289 -0.0946682 -8.67451e-20)
(0.996375 -0.0947945 -3.0535e-20)
(0.996468 -0.0949265 5.58509e-20)
(0.996567 -0.0950662 -2.20462e-20)
(0.996674 -0.0952105 -4.74404e-20)
(0.996788 -0.0953608 6.13979e-20)
(0.996912 -0.0955143 -2.58298e-21)
(0.997046 -0.0956692 1.05519e-19)
(0.997191 -0.0958262 1.63057e-20)
(0.997351 -0.0959796 4.34129e-20)
(0.997526 -0.0961282 -6.56293e-20)
(0.997718 -0.0962668 1.11594e-19)
(0.99793 -0.0963866 -2.03374e-20)
(0.998165 -0.0964806 -6.34074e-20)
(0.998426 -0.0965391 -2.26425e-20)
(0.998717 -0.0965485 3.10809e-19)
(0.999044 -0.0964942 4.81197e-19)
(0.999411 -0.0963595 3.97716e-19)
(0.999825 -0.0961254 -9.73541e-19)
(1.00029 -0.0957706 -1.70407e-19)
(1.00082 -0.0952704 4.39431e-19)
(1.00142 -0.0945998 -2.84014e-19)
(1.00209 -0.0937269 1.91945e-18)
(1.00283 -0.0926198 -1.0163e-18)
(1.00365 -0.0912381 -3.14425e-18)
(1.00452 -0.0895318 1.64726e-19)
(1.00542 -0.087431 3.27083e-18)
(1.0063 -0.0848513 -1.63953e-18)
(1.00711 -0.0816745 -1.63948e-18)
(1.00773 -0.0777397 -2.13861e-18)
(1.00802 -0.0728787 -4.99583e-18)
(1.00846 -0.068168 -4.79754e-18)
(1.00217 -0.0578335 5.94808e-18)
(0.994913 -0.093855 1.43557e-21)
(0.995104 -0.0938284 -2.0253e-21)
(0.995219 -0.0938086 -4.25572e-22)
(0.99524 -0.0937563 -7.43679e-21)
(0.995231 -0.0937003 1.10277e-20)
(0.995219 -0.0936617 2.20328e-20)
(0.995208 -0.0936406 -7.76254e-21)
(0.995204 -0.0936328 1.00058e-20)
(0.995205 -0.0936344 -2.13614e-20)
(0.995211 -0.0936437 4.12294e-21)
(0.995224 -0.0936589 1.34908e-20)
(0.995241 -0.0936788 -1.07736e-20)
(0.995264 -0.093703 -1.71782e-20)
(0.99529 -0.093732 -4.67943e-20)
(0.995321 -0.0937656 8.32161e-20)
(0.995357 -0.0938033 -4.12941e-20)
(0.995397 -0.0938457 -5.50668e-21)
(0.995439 -0.0938948 3.87048e-20)
(0.995487 -0.0939491 2.35824e-20)
(0.995538 -0.0940086 -7.56743e-20)