/*--------------------------------*- C++ -*----------------------------------*\
  =========                 |
  \\      /  F ield         | OpenFOAM: The Open Source CFD Toolbox
   \\    /   O peration     | Website:  https://openfoam.org
    \\  /    A nd           | Version:  6.0
     \\/     M anipulation  |
\*---------------------------------------------------------------------------*/
FoamFile
{
    version     2.0;
    format      ascii;
    class       volScalarField;
    location    "3.74";
    object      p;
}
// * * * * * * * * * * * * * * * * * * * * * * * * * * * * * * * * * * * * * //

dimensions      [0 2 -2 0 0 0 0];

internalField   nonuniform List<scalar> 
13500
(
0.09828
0.098417
0.097792
0.097545
0.096209
0.096068
0.094661
0.09552
0.096429
0.099511
0.12258
0.16396
0.09828
0.098417
0.097792
0.097545
0.096209
0.096069
0.09466
0.09552
0.096426
0.099572
0.1219
0.15891
0.098281
0.098418
0.097793
0.097547
0.096208
0.09607
0.094657
0.09552
0.096417
0.099615
0.12103
0.15441
0.098281
0.098419
0.097793
0.097549
0.096207
0.096072
0.094653
0.095518
0.096403
0.099634
0.12005
0.1509
0.098283
0.098421
0.097794
0.097551
0.096206
0.096074
0.094648
0.095516
0.096384
0.099638
0.11901
0.14794
0.098284
0.098424
0.097795
0.097553
0.096205
0.096076
0.094643
0.095512
0.096359
0.09963
0.11794
0.14529
0.098287
0.098426
0.097796
0.097556
0.096204
0.096077
0.094637
0.095508
0.09633
0.099609
0.11686
0.14289
0.098289
0.098429
0.097798
0.097559
0.096204
0.096079
0.094631
0.095503
0.096295
0.099574
0.11579
0.14068
0.098292
0.098433
0.097801
0.097563
0.096203
0.09608
0.094624
0.095497
0.096255
0.099525
0.11473
0.13864
0.098296
0.098437
0.097803
0.097566
0.096203
0.096082
0.094616
0.09549
0.096211
0.099463
0.11372
0.13674
0.0983
0.098441
0.097806
0.09757
0.096203
0.096083
0.094608
0.095482
0.096161
0.099388
0.11273
0.13495
0.098305
0.098446
0.09781
0.097575
0.096203
0.096085
0.094599
0.095473
0.096105
0.099301
0.1118
0.13326
0.09831
0.098451
0.097814
0.09758
0.096204
0.096086
0.094589
0.095463
0.096045
0.099204
0.1109
0.13166
0.098315
0.098457
0.097818
0.097584
0.096204
0.096088
0.094579
0.095452
0.095978
0.099097
0.11004
0.13014
0.098321
0.098463
0.097823
0.09759
0.096205
0.096089
0.094569
0.09544
0.095907
0.098983
0.10923
0.12869
0.098328
0.09847
0.097829
0.097595
0.096206
0.09609
0.094558
0.095427
0.09583
0.098862
0.10845
0.12731
0.098335
0.098477
0.097834
0.097601
0.096207
0.096092
0.094546
0.095413
0.095748
0.098737
0.10771
0.12598
0.098343
0.098485
0.09784
0.097608
0.096208
0.096093
0.094533
0.095397
0.09566
0.098609
0.107
0.12471
0.098351
0.098493
0.097847
0.097614
0.09621
0.096094
0.09452
0.095381
0.095567
0.098478
0.10631
0.12349
0.098359
0.098501
0.097854
0.097621
0.096211
0.096096
0.094507
0.095364
0.095469
0.098345
0.10565
0.12231
0.098368
0.09851
0.097861
0.097629
0.096213
0.096097
0.094493
0.095345
0.095366
0.098213
0.10501
0.12117
0.098378
0.09852
0.097869
0.097636
0.096215
0.096098
0.094478
0.095325
0.095259
0.098081
0.10439
0.12007
0.098388
0.09853
0.097878
0.097644
0.096217
0.096099
0.094463
0.095304
0.095147
0.097949
0.10378
0.119
0.098399
0.09854
0.097887
0.097653
0.09622
0.096101
0.094447
0.095282
0.095032
0.09782
0.10319
0.11796
0.09841
0.098551
0.097896
0.097662
0.096222
0.096102
0.094431
0.095258
0.094912
0.097691
0.10261
0.11695
0.098422
0.098563
0.097906
0.097671
0.096225
0.096103
0.094414
0.095233
0.09479
0.097565
0.10203
0.11597
0.098434
0.098575
0.097916
0.09768
0.096228
0.096104
0.094396
0.095206
0.094664
0.09744
0.10147
0.11501
0.098447
0.098587
0.097927
0.09769
0.096232
0.096106
0.094378
0.095178
0.094536
0.097317
0.10091
0.11407
0.098461
0.0986
0.097938
0.0977
0.096235
0.096107
0.09436
0.095149
0.094406
0.097196
0.10036
0.11315
0.098475
0.098614
0.09795
0.097711
0.096239
0.096108
0.094341
0.095118
0.094274
0.097076
0.099818
0.11225
0.098489
0.098628
0.097962
0.097722
0.096243
0.096109
0.094321
0.095086
0.09414
0.096957
0.099278
0.11137
0.098504
0.098643
0.097975
0.097733
0.096247
0.09611
0.094301
0.095052
0.094005
0.096839
0.098742
0.11051
0.09852
0.098658
0.097988
0.097745
0.096251
0.096112
0.09428
0.095017
0.093869
0.096721
0.098212
0.10966
0.098537
0.098673
0.098002
0.097757
0.096256
0.096113
0.094259
0.094981
0.093733
0.096604
0.097686
0.10883
0.098553
0.09869
0.098016
0.09777
0.096261
0.096114
0.094237
0.094943
0.093596
0.096486
0.097164
0.10802
0.098571
0.098706
0.098031
0.097782
0.096266
0.096115
0.094214
0.094904
0.093459
0.096368
0.096647
0.10721
0.098589
0.098724
0.098046
0.097796
0.096271
0.096116
0.094191
0.094863
0.093323
0.09625
0.096134
0.10643
0.098608
0.098742
0.098062
0.097809
0.096277
0.096117
0.094167
0.094822
0.093187
0.09613
0.095627
0.10566
0.098627
0.09876
0.098078
0.097824
0.096283
0.096119
0.094143
0.094779
0.093051
0.09601
0.095124
0.1049
0.098647
0.098779
0.098095
0.097838
0.096289
0.09612
0.094118
0.094735
0.092916
0.095888
0.094626
0.10415
0.098667
0.098799
0.098113
0.097853
0.096295
0.096121
0.094092
0.094691
0.092782
0.095764
0.094134
0.10342
0.098688
0.098819
0.098131
0.097868
0.096302
0.096122
0.094066
0.094645
0.092648
0.095638
0.093648
0.1027
0.09871
0.09884
0.098149
0.097884
0.096309
0.096123
0.094039
0.094599
0.092516
0.095511
0.093168
0.102
0.098732
0.098861
0.098168
0.0979
0.096316
0.096124
0.094012
0.094552
0.092384
0.095381
0.092693
0.1013
0.098755
0.098883
0.098188
0.097917
0.096324
0.096125
0.093983
0.094505
0.092253
0.09525
0.092225
0.10062
0.098779
0.098905
0.098208
0.097934
0.096332
0.096126
0.093954
0.094457
0.092123
0.095116
0.091764
0.099957
0.098803
0.098928
0.098229
0.097951
0.09634
0.096128
0.093925
0.094409
0.091994
0.09498
0.091309
0.099302
0.098828
0.098952
0.09825
0.097969
0.096349
0.096129
0.093895
0.094361
0.091866
0.094841
0.090861
0.098659
0.098854
0.098976
0.098272
0.097987
0.096357
0.09613
0.093864
0.094313
0.091738
0.094701
0.090419
0.098028
0.09888
0.099001
0.098294
0.098006
0.096366
0.096131
0.093832
0.094265
0.091611
0.094558
0.089985
0.097409
0.098906
0.099027
0.098318
0.098025
0.096376
0.096132
0.0938
0.094217
0.091484
0.094412
0.089557
0.096801
0.098934
0.099053
0.098341
0.098044
0.096386
0.096133
0.093768
0.094169
0.091358
0.094265
0.089137
0.096204
0.098962
0.09908
0.098365
0.098064
0.096396
0.096134
0.093734
0.094122
0.091232
0.094115
0.088724
0.095619
0.098991
0.099107
0.09839
0.098085
0.096406
0.096135
0.0937
0.094075
0.091107
0.093964
0.088317
0.095044
0.09902
0.099135
0.098416
0.098106
0.096417
0.096136
0.093666
0.094029
0.090981
0.09381
0.087918
0.09448
0.09905
0.099164
0.098442
0.098127
0.096428
0.096137
0.093631
0.093983
0.090856
0.093655
0.087526
0.093926
0.099081
0.099193
0.098468
0.098148
0.09644
0.096138
0.093595
0.093938
0.09073
0.093497
0.08714
0.093382
0.099112
0.099223
0.098496
0.098171
0.096452
0.096138
0.093559
0.093893
0.090604
0.093338
0.086761
0.092849
0.099145
0.099253
0.098524
0.098193
0.096464
0.096139
0.093522
0.09385
0.090478
0.093178
0.086389
0.092325
0.099177
0.099284
0.098552
0.098216
0.096476
0.09614
0.093485
0.093807
0.090352
0.093015
0.086024
0.09181
0.099211
0.099316
0.098581
0.09824
0.096489
0.096141
0.093448
0.093764
0.090225
0.092851
0.085665
0.091304
0.099245
0.099349
0.098611
0.098264
0.096503
0.096141
0.09341
0.093723
0.090098
0.092686
0.085312
0.090808
0.09928
0.099382
0.098641
0.098288
0.096517
0.096142
0.093372
0.093682
0.089971
0.09252
0.084966
0.090319
0.099315
0.099415
0.098672
0.098313
0.096531
0.096142
0.093334
0.093642
0.089842
0.092352
0.084625
0.089839
0.099352
0.09945
0.098704
0.098338
0.096545
0.096143
0.093295
0.093603
0.089714
0.092183
0.084291
0.089368
0.099388
0.099485
0.098736
0.098364
0.09656
0.096144
0.093257
0.093565
0.089585
0.092013
0.083962
0.088904
0.099426
0.09952
0.098769
0.09839
0.096576
0.096144
0.093218
0.093527
0.089455
0.091843
0.08364
0.088447
0.099464
0.099557
0.098803
0.098416
0.096592
0.096145
0.093179
0.09349
0.089325
0.091671
0.083322
0.087998
0.099503
0.099594
0.098837
0.098443
0.096608
0.096145
0.09314
0.093453
0.089195
0.091498
0.08301
0.087556
0.099543
0.099632
0.098872
0.098471
0.096624
0.096146
0.093101
0.093417
0.089064
0.091325
0.082703
0.087121
0.099584
0.09967
0.098907
0.098499
0.096641
0.096146
0.093062
0.093381
0.088932
0.091151
0.082401
0.086692
0.099625
0.099709
0.098944
0.098527
0.096659
0.096147
0.093023
0.093346
0.0888
0.090977
0.082104
0.08627
0.099667
0.099749
0.098981
0.098556
0.096677
0.096147
0.092985
0.09331
0.088668
0.090802
0.081812
0.085854
0.099709
0.099789
0.099018
0.098586
0.096695
0.096148
0.092946
0.093275
0.088536
0.090626
0.081525
0.085444
0.099753
0.099831
0.099056
0.098616
0.096714
0.096149
0.092908
0.093241
0.088403
0.09045
0.081242
0.08504
0.099797
0.099872
0.099095
0.098646
0.096733
0.09615
0.092869
0.093206
0.08827
0.090274
0.080963
0.084642
0.099842
0.099915
0.099135
0.098677
0.096753
0.096151
0.092831
0.093171
0.088137
0.090098
0.080689
0.084249
0.099887
0.099958
0.099175
0.098708
0.096773
0.096152
0.092794
0.093136
0.088004
0.089921
0.080419
0.083862
0.099934
0.1
0.099216
0.09874
0.096793
0.096153
0.092756
0.093102
0.087871
0.089744
0.080152
0.08348
0.099981
0.10005
0.099258
0.098772
0.096814
0.096155
0.092719
0.093066
0.087739
0.089567
0.07989
0.083102
0.10003
0.10009
0.0993
0.098805
0.096835
0.096157
0.092682
0.093031
0.087606
0.08939
0.079632
0.08273
0.10008
0.10014
0.099343
0.098838
0.096857
0.096159
0.092645
0.092995
0.087474
0.089213
0.079377
0.082362
0.10013
0.10019
0.099387
0.098872
0.096879
0.096161
0.092608
0.092959
0.087341
0.089036
0.079127
0.081999
0.10018
0.10023
0.099431
0.098906
0.096902
0.096164
0.092572
0.092922
0.08721
0.088859
0.078879
0.081641
0.10023
0.10028
0.099477
0.098941
0.096925
0.096167
0.092536
0.092885
0.087078
0.088682
0.078635
0.081286
0.10028
0.10033
0.099523
0.098977
0.096949
0.09617
0.092501
0.092848
0.086948
0.088505
0.078395
0.080937
0.10033
0.10038
0.099569
0.099012
0.096972
0.096174
0.092465
0.092809
0.086817
0.088328
0.078158
0.080591
0.10038
0.10043
0.099617
0.099049
0.096997
0.096178
0.09243
0.092771
0.086687
0.088152
0.077924
0.080249
0.10044
0.10048
0.099665
0.099086
0.097021
0.096183
0.092395
0.092731
0.086558
0.087975
0.077693
0.079911
0.10049
0.10054
0.099714
0.099123
0.097047
0.096188
0.092361
0.092691
0.08643
0.087799
0.077465
0.079578
0.10055
0.10059
0.099763
0.099161
0.097072
0.096194
0.092326
0.09265
0.086302
0.087624
0.077241
0.079248
0.10061
0.10064
0.099814
0.0992
0.097098
0.0962
0.092292
0.092608
0.086175
0.087448
0.077019
0.078921
0.10066
0.1007
0.099865
0.099239
0.097125
0.096207
0.092258
0.092566
0.086049
0.087273
0.0768
0.078598
0.10072
0.10075
0.099917
0.099279
0.097151
0.096214
0.092224
0.092522
0.085923
0.087098
0.076584
0.078279
0.10078
0.10081
0.09997
0.09932
0.097179
0.096222
0.092191
0.092478
0.085798
0.086923
0.076371
0.077963
0.10084
0.10087
0.10002
0.099361
0.097206
0.096231
0.092157
0.092434
0.085675
0.086749
0.07616
0.077651
0.1009
0.10092
0.10008
0.099403
0.097234
0.09624
0.092124
0.092388
0.085552
0.086575
0.075952
0.077341
0.10096
0.10098
0.10013
0.099445
0.097263
0.09625
0.092091
0.092341
0.085429
0.086402
0.075746
0.077035
0.10102
0.10104
0.10019
0.099489
0.097292
0.096261
0.092058
0.092294
0.085308
0.086228
0.075543
0.076732
0.10109
0.1011
0.10025
0.099533
0.097321
0.096273
0.092025
0.092246
0.085188
0.086056
0.075343
0.076432
0.10115
0.10116
0.1003
0.099577
0.097351
0.096285
0.091992
0.092197
0.085068
0.085883
0.075145
0.076135
0.10122
0.10123
0.10036
0.099622
0.097381
0.096298
0.09196
0.092147
0.084949
0.085711
0.074949
0.075841
0.10128
0.10129
0.10042
0.099669
0.097412
0.096311
0.091928
0.092097
0.084832
0.085539
0.074755
0.07555
0.10135
0.10136
0.10048
0.099716
0.097443
0.096326
0.091895
0.092045
0.084715
0.085368
0.074564
0.075261
0.10142
0.10142
0.10054
0.099763
0.097475
0.096341
0.091863
0.091993
0.084599
0.085197
0.074374
0.074975
0.10149
0.10149
0.10061
0.099812
0.097507
0.096357
0.091832
0.09194
0.084484
0.085026
0.074187
0.074692
0.10156
0.10156
0.10067
0.099861
0.097539
0.096374
0.0918
0.091886
0.084369
0.084856
0.074002
0.074411
0.10163
0.10162
0.10073
0.099912
0.097572
0.096391
0.091769
0.091832
0.084256
0.084686
0.073819
0.074133
0.1017
0.10169
0.1008
0.099963
0.097606
0.096409
0.091738
0.091777
0.084143
0.084517
0.073637
0.073856
0.10177
0.10176
0.10086
0.10002
0.09764
0.096429
0.091707
0.091721
0.084031
0.084347
0.073458
0.073583
0.10185
0.10184
0.10093
0.10007
0.097674
0.096448
0.091676
0.091664
0.08392
0.084178
0.07328
0.073311
0.10193
0.10191
0.101
0.10012
0.097709
0.096469
0.091646
0.091607
0.08381
0.08401
0.073104
0.073041
0.102
0.10198
0.10107
0.10018
0.097745
0.096491
0.091616
0.091549
0.083701
0.083841
0.072929
0.072774
0.10208
0.10206
0.10114
0.10023
0.097782
0.096513
0.091587
0.09149
0.083592
0.083673
0.072756
0.072508
0.10216
0.10214
0.10121
0.10029
0.097819
0.096536
0.091558
0.091431
0.083484
0.083505
0.072585
0.072245
0.10224
0.10222
0.10128
0.10035
0.097856
0.09656
0.091529
0.091372
0.083377
0.083337
0.072415
0.071983
0.10232
0.1023
0.10136
0.10041
0.097895
0.096585
0.091501
0.091311
0.083271
0.08317
0.072247
0.071722
0.10241
0.10238
0.10143
0.10047
0.097934
0.096611
0.091474
0.091251
0.083165
0.083002
0.072079
0.071464
0.10249
0.10246
0.10151
0.10054
0.097974
0.096637
0.091447
0.09119
0.08306
0.082835
0.071914
0.071207
0.10258
0.10254
0.10159
0.1006
0.098015
0.096665
0.091421
0.091128
0.082956
0.082668
0.071749
0.070952
0.10267
0.10263
0.10167
0.10067
0.098057
0.096693
0.091396
0.091066
0.082853
0.082501
0.071586
0.070698
0.10275
0.10272
0.10175
0.10073
0.098099
0.096723
0.091371
0.091004
0.08275
0.082334
0.071423
0.070445
0.10285
0.10281
0.10183
0.1008
0.098143
0.096753
0.091347
0.090941
0.082648
0.082167
0.071262
0.070193
0.10294
0.1029
0.10192
0.10087
0.098188
0.096784
0.091324
0.090878
0.082546
0.082
0.071102
0.069943
0.10303
0.10299
0.102
0.10094
0.098233
0.096817
0.091302
0.090815
0.082446
0.081834
0.070942
0.069694
0.10313
0.10309
0.10209
0.10102
0.098281
0.09685
0.091281
0.090752
0.082346
0.081667
0.070784
0.069446
0.10323
0.10319
0.10218
0.10109
0.098329
0.096884
0.091261
0.090688
0.082246
0.0815
0.070626
0.069199
0.10333
0.10329
0.10227
0.10117
0.098379
0.09692
0.091242
0.090625
0.082148
0.081334
0.070469
0.068952
0.10343
0.10339
0.10236
0.10125
0.09843
0.096956
0.091225
0.090561
0.08205
0.081167
0.070313
0.068706
0.10354
0.10349
0.10246
0.10133
0.098482
0.096994
0.091208
0.090498
0.081953
0.081
0.070157
0.068461
0.10365
0.1036
0.10256
0.10142
0.098537
0.097034
0.091194
0.090435
0.081857
0.080834
0.070002
0.068217
0.10375
0.10371
0.10266
0.1015
0.098592
0.097074
0.09118
0.090372
0.081761
0.080667
0.069847
0.067973
0.10387
0.10382
0.10276
0.10159
0.09865
0.097116
0.091168
0.090309
0.081666
0.0805
0.069693
0.06773
0.10398
0.10393
0.10286
0.10168
0.09871
0.09716
0.091158
0.090247
0.081572
0.080333
0.069539
0.067487
0.1041
0.10405
0.10297
0.10178
0.098772
0.097205
0.091149
0.090185
0.081479
0.080167
0.069386
0.067244
0.10422
0.10417
0.10308
0.10188
0.098836
0.097251
0.091142
0.090123
0.081387
0.08
0.069233
0.067001
0.10434
0.10429
0.1032
0.10198
0.098902
0.0973
0.091138
0.090063
0.081296
0.079833
0.06908
0.066758
0.10447
0.10442
0.10331
0.10208
0.098971
0.09735
0.091135
0.090002
0.081205
0.079666
0.068927
0.066516
0.1046
0.10455
0.10343
0.10218
0.099042
0.097402
0.091134
0.089943
0.081116
0.079499
0.068774
0.066273
0.10473
0.10468
0.10355
0.10229
0.099117
0.097457
0.091136
0.089885
0.081028
0.079332
0.068621
0.06603
0.10487
0.10482
0.10368
0.10241
0.099194
0.097513
0.091139
0.089827
0.080941
0.079164
0.068469
0.065786
0.10501
0.10496
0.10381
0.10252
0.099274
0.097572
0.091146
0.089771
0.080855
0.078997
0.068316
0.065543
0.10516
0.10511
0.10394
0.10264
0.099357
0.097633
0.091155
0.089716
0.08077
0.07883
0.068163
0.065298
0.1053
0.10526
0.10408
0.10277
0.099444
0.097697
0.091167
0.089662
0.080686
0.078663
0.06801
0.065053
0.10546
0.10541
0.10422
0.1029
0.099535
0.097763
0.091181
0.089609
0.080604
0.078496
0.067857
0.064808
0.10561
0.10557
0.10437
0.10303
0.099629
0.097833
0.091199
0.089559
0.080523
0.07833
0.067704
0.064562
0.10578
0.10574
0.10452
0.10317
0.099727
0.097905
0.09122
0.08951
0.080444
0.078163
0.06755
0.064314
0.10594
0.1059
0.10468
0.10331
0.09983
0.097981
0.091244
0.089462
0.080366
0.077996
0.067396
0.064066
0.10611
0.10608
0.10484
0.10346
0.099937
0.09806
0.091272
0.089417
0.08029
0.07783
0.067242
0.063817
0.10629
0.10626
0.105
0.10361
0.10005
0.098143
0.091303
0.089374
0.080216
0.077664
0.067087
0.063566
0.10647
0.10644
0.10518
0.10377
0.10017
0.098229
0.091339
0.089333
0.080144
0.077498
0.066931
0.063315
0.10666
0.10663
0.10535
0.10394
0.10029
0.09832
0.091378
0.089295
0.080073
0.077332
0.066776
0.063061
0.10685
0.10683
0.10554
0.10411
0.10042
0.098414
0.091422
0.089259
0.080005
0.077167
0.066619
0.062807
0.10705
0.10704
0.10573
0.10428
0.10055
0.098514
0.09147
0.089226
0.079938
0.077002
0.066462
0.06255
0.10726
0.10725
0.10592
0.10446
0.10069
0.098617
0.091522
0.089196
0.079874
0.076837
0.066304
0.062292
0.10747
0.10746
0.10613
0.10465
0.10083
0.098726
0.09158
0.089169
0.079812
0.076673
0.066145
0.062032
0.10769
0.10769
0.10634
0.10485
0.10099
0.09884
0.091642
0.089146
0.079753
0.07651
0.065986
0.06177
0.10792
0.10792
0.10655
0.10505
0.10114
0.09896
0.09171
0.089125
0.079696
0.076347
0.065825
0.061506
0.10815
0.10816
0.10678
0.10527
0.10131
0.099084
0.091783
0.089109
0.079641
0.076184
0.065664
0.061239
0.1084
0.10841
0.10701
0.10549
0.10148
0.099215
0.091862
0.089096
0.07959
0.076022
0.065502
0.06097
0.10865
0.10867
0.10725
0.10571
0.10166
0.099352
0.091947
0.089087
0.079541
0.075861
0.065338
0.060699
0.10891
0.10893
0.1075
0.10595
0.10185
0.099496
0.092038
0.089082
0.079495
0.075701
0.065174
0.060424
0.10917
0.1092
0.10776
0.10619
0.10205
0.099646
0.092135
0.089082
0.079452
0.075541
0.065008
0.060147
0.10945
0.10949
0.10803
0.10645
0.10226
0.099803
0.092238
0.089086
0.079413
0.075382
0.064841
0.059867
0.10973
0.10978
0.10831
0.10671
0.10247
0.099968
0.092349
0.089094
0.079376
0.075223
0.064672
0.059583
0.11003
0.11008
0.1086
0.10698
0.1027
0.10014
0.092466
0.089108
0.079343
0.075066
0.064502
0.059296
0.11033
0.1104
0.10889
0.10727
0.10293
0.10032
0.09259
0.089126
0.079313
0.074909
0.06433
0.059006
0.11064
0.11072
0.1092
0.10756
0.10317
0.10051
0.092722
0.089149
0.079286
0.074753
0.064156
0.058711
0.11097
0.11105
0.10952
0.10786
0.10343
0.1007
0.092862
0.089178
0.079263
0.074597
0.063981
0.058412
0.1113
0.1114
0.10985
0.10818
0.10369
0.10091
0.093009
0.089211
0.079243
0.074442
0.063803
0.058109
0.11164
0.11175
0.11019
0.10851
0.10397
0.10112
0.093164
0.089251
0.079227
0.074288
0.063623
0.057802
0.112
0.11212
0.11055
0.10884
0.10425
0.10134
0.093327
0.089295
0.079214
0.074134
0.06344
0.057489
0.11236
0.1125
0.11091
0.10919
0.10455
0.10158
0.093498
0.089346
0.079205
0.07398
0.063255
0.057171
0.11274
0.11289
0.11129
0.10955
0.10486
0.10182
0.093678
0.089401
0.079199
0.073827
0.063066
0.056848
0.11313
0.11329
0.11168
0.10993
0.10518
0.10207
0.093867
0.089463
0.079196
0.073673
0.062875
0.056519
0.11353
0.11371
0.11209
0.11032
0.10552
0.10233
0.094064
0.08953
0.079196
0.07352
0.062679
0.056183
0.11394
0.11414
0.1125
0.11071
0.10586
0.1026
0.094269
0.089603
0.0792
0.073366
0.06248
0.055841
0.11437
0.11458
0.11293
0.11113
0.10622
0.10288
0.094484
0.089681
0.079206
0.073212
0.062277
0.055492
0.11481
0.11503
0.11338
0.11155
0.1066
0.10317
0.094708
0.089765
0.079216
0.073057
0.062069
0.055136
0.11526
0.1155
0.11384
0.11199
0.10698
0.10348
0.094941
0.089854
0.079227
0.072901
0.061857
0.054771
0.11572
0.11598
0.11431
0.11245
0.10738
0.10379
0.095182
0.089949
0.079241
0.072743
0.061638
0.054398
0.1162
0.11648
0.1148
0.11291
0.1078
0.10411
0.095433
0.090049
0.079258
0.072583
0.061414
0.054015
0.11669
0.11699
0.1153
0.1134
0.10822
0.10445
0.095693
0.090154
0.079275
0.072422
0.061184
0.053624
0.11719
0.11751
0.11582
0.11389
0.10867
0.1048
0.095962
0.090263
0.079295
0.072257
0.060946
0.053221
0.11771
0.11805
0.11635
0.11441
0.10912
0.10515
0.096239
0.090378
0.079315
0.072089
0.060701
0.052808
0.11824
0.11861
0.1169
0.11493
0.1096
0.10552
0.096526
0.090496
0.079336
0.071918
0.060447
0.052384
0.11878
0.11918
0.11746
0.11548
0.11008
0.10591
0.096822
0.090619
0.079357
0.071742
0.060184
0.051947
0.11934
0.11976
0.11805
0.11603
0.11059
0.1063
0.097127
0.090746
0.079378
0.071561
0.059912
0.051497
0.11992
0.12036
0.11865
0.11661
0.11111
0.1067
0.097441
0.090876
0.079398
0.071374
0.05963
0.051033
0.12051
0.12098
0.11927
0.1172
0.11164
0.10712
0.097764
0.09101
0.079416
0.071181
0.059336
0.050554
0.12112
0.12162
0.1199
0.11781
0.11219
0.10755
0.098095
0.091146
0.079433
0.070982
0.05903
0.05006
0.12174
0.12227
0.12056
0.11844
0.11276
0.10799
0.098436
0.091285
0.079448
0.070774
0.058711
0.049549
0.12238
0.12294
0.12124
0.11909
0.11335
0.10845
0.098786
0.091427
0.079459
0.070558
0.058378
0.04902
0.12304
0.12363
0.12193
0.11975
0.11396
0.10892
0.099145
0.091571
0.079468
0.070333
0.05803
0.048473
0.12372
0.12434
0.12265
0.12044
0.11459
0.1094
0.099513
0.091717
0.079472
0.070098
0.057667
0.047907
0.12442
0.12508
0.1234
0.12115
0.11524
0.1099
0.099892
0.091865
0.079472
0.069852
0.057286
0.047319
0.12514
0.12583
0.12417
0.12189
0.11591
0.11042
0.10028
0.092014
0.079466
0.069595
0.056888
0.04671
0.12588
0.12661
0.12496
0.12264
0.1166
0.11095
0.10068
0.092166
0.079456
0.069325
0.056471
0.046078
0.12665
0.12742
0.12579
0.12343
0.11732
0.1115
0.10109
0.092318
0.079439
0.069041
0.056034
0.045421
0.12744
0.12826
0.12664
0.12425
0.11807
0.11207
0.10151
0.092473
0.079416
0.068744
0.055577
0.044738
0.12827
0.12913
0.12753
0.12509
0.11884
0.11266
0.10195
0.09263
0.079386
0.068432
0.055097
0.044029
0.12912
0.13003
0.12846
0.12598
0.11965
0.11327
0.10239
0.092789
0.079349
0.068104
0.054593
0.043291
0.13001
0.13097
0.12943
0.1269
0.12049
0.11391
0.10286
0.09295
0.079305
0.06776
0.054065
0.042523
0.13093
0.13194
0.13044
0.12786
0.12137
0.11457
0.10333
0.093114
0.079252
0.067398
0.053512
0.041724
0.1319
0.13296
0.13149
0.12886
0.12229
0.11526
0.10383
0.093281
0.079191
0.067018
0.052931
0.040891
0.1329
0.13403
0.1326
0.12992
0.12325
0.11599
0.10434
0.093451
0.079121
0.066618
0.052322
0.040024
0.13396
0.13515
0.13376
0.13102
0.12426
0.11674
0.10487
0.093625
0.079041
0.066197
0.051683
0.03912
0.13506
0.13633
0.13499
0.13219
0.12532
0.11754
0.10543
0.093803
0.07895
0.065754
0.051011
0.038177
0.13621
0.13756
0.13628
0.13342
0.12644
0.11837
0.106
0.093984
0.078847
0.065286
0.050305
0.037193
0.13743
0.13887
0.13764
0.13472
0.12761
0.11925
0.1066
0.094168
0.07873
0.064793
0.049563
0.036167
0.1387
0.14024
0.13907
0.13609
0.12885
0.12017
0.10722
0.094355
0.078598
0.06427
0.048782
0.035094
0.14003
0.14168
0.14059
0.13754
0.13015
0.12114
0.10786
0.094544
0.078448
0.063715
0.047957
0.033972
0.14144
0.14321
0.1422
0.13908
0.13152
0.12216
0.10853
0.094732
0.078276
0.063124
0.047086
0.032799
0.14291
0.14482
0.14389
0.14071
0.13297
0.12324
0.10922
0.094917
0.078079
0.062493
0.046163
0.031569
0.14446
0.14651
0.14569
0.14243
0.1345
0.12436
0.10993
0.095095
0.077851
0.061815
0.045183
0.030278
0.14607
0.1483
0.14758
0.14425
0.13611
0.12554
0.11066
0.095264
0.077586
0.061084
0.04414
0.028921
0.14777
0.15019
0.14959
0.14618
0.1378
0.12677
0.11141
0.095416
0.077278
0.060293
0.043027
0.027492
0.14953
0.15217
0.1517
0.14822
0.13958
0.12806
0.11216
0.095546
0.076918
0.059434
0.041834
0.025983
0.15137
0.15426
0.15393
0.15038
0.14144
0.1294
0.11293
0.095646
0.076496
0.058495
0.040553
0.024387
0.15328
0.15644
0.15628
0.15265
0.14339
0.13078
0.11369
0.095707
0.076003
0.057468
0.039173
0.022694
0.15526
0.15873
0.15876
0.15504
0.14544
0.13221
0.11444
0.095719
0.075426
0.05634
0.037683
0.020894
0.15731
0.16113
0.16136
0.15756
0.14757
0.13367
0.11517
0.09567
0.074753
0.055099
0.036072
0.018976
0.15942
0.16364
0.1641
0.16021
0.14979
0.13517
0.11588
0.095547
0.073971
0.053732
0.034327
0.016928
0.16159
0.16626
0.16699
0.16301
0.1521
0.1367
0.11654
0.095336
0.073064
0.052226
0.032435
0.014737
0.16381
0.16901
0.17004
0.16595
0.1545
0.13824
0.11715
0.09502
0.072016
0.050566
0.030383
0.012393
0.16609
0.17188
0.17326
0.16905
0.15701
0.1398
0.11769
0.094579
0.07081
0.048737
0.028159
0.009883
0.16842
0.17489
0.17668
0.17233
0.15961
0.14135
0.11814
0.093992
0.069424
0.046723
0.025749
0.0071962
0.17081
0.17806
0.18032
0.1758
0.16231
0.14288
0.11848
0.093231
0.067834
0.044505
0.023139
0.0043223
0.17323
0.18141
0.18421
0.17948
0.16511
0.14438
0.11867
0.092262
0.06601
0.042058
0.020313
0.0012517
0.1757
0.18494
0.1884
0.1834
0.16802
0.14582
0.11868
0.091042
0.063916
0.039356
0.01725
-0.002026
0.17819
0.1887
0.1929
0.18759
0.17101
0.14716
0.11846
0.089518
0.061503
0.03636
0.013926
-0.0055222
0.18068
0.1927
0.19778
0.19205
0.17408
0.14835
0.11793
0.087625
0.058715
0.033024
0.01031
-0.0092519
0.18313
0.19694
0.20305
0.19679
0.17719
0.14932
0.11703
0.085281
0.055483
0.029295
0.0063624
-0.013234
0.18546
0.20142
0.20874
0.2018
0.18027
0.14998
0.11564
0.082393
0.051725
0.025107
0.0020375
-0.017491
0.18756
0.20612
0.21483
0.20705
0.18322
0.15021
0.11365
0.078854
0.047357
0.020394
-0.0027129
-0.02205
0.1893
0.21098
0.2213
0.21244
0.18591
0.14986
0.11091
0.074549
0.042292
0.015093
-0.007932
-0.026933
0.19044
0.21588
0.22804
0.21782
0.18814
0.14872
0.10726
0.069363
0.036456
0.0091576
-0.013647
-0.032151
0.19074
0.22064
0.23485
0.22297
0.18965
0.14656
0.10252
0.063187
0.02979
0.0025671
-0.019856
-0.037692
0.18984
0.22497
0.24142
0.22749
0.19008
0.1431
0.096505
0.055921
0.022265
-0.004662
-0.026517
-0.043505
0.18737
0.22839
0.24717
0.23081
0.18893
0.138
0.089029
0.04749
0.013882
-0.012476
-0.033546
-0.049501
0.18289
0.2302
0.25113
0.23201
0.18553
0.13086
0.079905
0.037846
0.0046725
-0.020788
-0.040821
-0.055555
0.17602
0.22922
0.2517
0.22964
0.17894
0.1212
0.068974
0.02699
-0.0052881
-0.029488
-0.048203
-0.061525
0.16648
0.22372
0.24628
0.2215
0.16784
0.10848
0.056126
0.015004
-0.015863
-0.038433
-0.055549
-0.067278
0.15434
0.21112
0.23096
0.20439
0.15043
0.092022
0.041305
0.0020726
-0.026825
-0.047434
-0.062711
-0.072707
0.14036
0.18825
0.20054
0.17404
0.12438
0.070962
0.024442
-0.011563
-0.037875
-0.056254
-0.06954
-0.077741
0.12615
0.15209
0.14957
0.12575
0.087008
0.044196
0.0052945
-0.025756
-0.048746
-0.064663
-0.075902
-0.082343
0.11375
0.10015
0.074319
0.056035
0.035863
0.010406
-0.016695
-0.040641
-0.059373
-0.072558
-0.081744
-0.086546
0.10578
0.027486
-0.029767
-0.038192
-0.031738
-0.032457
-0.042815
-0.056958
-0.070181
-0.08021
-0.087294
-0.090612
0.1159
-0.059216
-0.15761
-0.15287
-0.11466
-0.085367
-0.074627
-0.076176
-0.082413
-0.088642
-0.093405
-0.095303
0.15661
-0.13806
-0.28426
-0.26607
-0.19765
-0.14011
-0.10871
-0.097282
-0.096032
-0.0981
-0.10038
-0.10079
0.10277
0.063386
0.053276
0.047249
0.043091
0.039981
0.037498
0.035369
0.033549
0.031717
0.030259
0.027873
0.12211
0.078636
0.066075
0.058059
0.052589
0.048549
0.045353
0.042635
0.040336
0.038024
0.036238
0.033452
0.10946
0.073539
0.062174
0.054287
0.048888
0.04492
0.041801
0.039162
0.036955
0.034728
0.033069
0.030366
0.1044
0.0732
0.062165
0.054188
0.048654
0.044574
0.041369
0.038664
0.036415
0.034142
0.032483
0.029655
0.10374
0.075345
0.064152
0.055961
0.050183
0.045898
0.042526
0.03968
0.037322
0.034937
0.033208
0.030224
0.10307
0.077133
0.065871
0.057547
0.051572
0.047111
0.043591
0.040619
0.03816
0.035677
0.033881
0.030784
0.10193
0.078386
0.0672
0.058828
0.052707
0.048102
0.044457
0.041378
0.038832
0.036271
0.034415
0.031249
0.10072
0.079409
0.068387
0.060018
0.053784
0.049051
0.045291
0.042114
0.039486
0.03686
0.034947
0.031751
0.099575
0.080286
0.069498
0.061175
0.054858
0.050013
0.046145
0.042874
0.040168
0.037486
0.03552
0.032331
0.098487
0.081011
0.070519
0.062286
0.055921
0.05098
0.047014
0.043657
0.040877
0.03815
0.036136
0.03299
0.097431
0.081583
0.07144
0.063339
0.05696
0.051946
0.047895
0.04446
0.041612
0.038849
0.036794
0.033726
0.096405
0.082016
0.072259
0.064324
0.057966
0.052903
0.048782
0.045281
0.042372
0.039584
0.037495
0.034534
0.095412
0.082327
0.072976
0.065236
0.058932
0.053843
0.04967
0.046114
0.043153
0.040351
0.038236
0.035406
0.094454
0.082531
0.073595
0.066071
0.059847
0.054757
0.050549
0.046953
0.04395
0.041143
0.03901
0.036329
0.093532
0.082644
0.074121
0.066826
0.060707
0.055638
0.051412
0.047788
0.044754
0.041952
0.039808
0.037286
0.092647
0.082679
0.07456
0.067503
0.061505
0.056476
0.052251
0.048613
0.045558
0.042769
0.040619
0.038261
0.0918
0.08265
0.07492
0.068103
0.062241
0.057269
0.053058
0.049419
0.046352
0.043584
0.041432
0.039235
0.090991
0.082569
0.075209
0.068631
0.062914
0.058012
0.053828
0.0502
0.04713
0.044388
0.042239
0.040193
0.090218
0.082443
0.075433
0.069091
0.063524
0.058703
0.054558
0.05095
0.047886
0.045174
0.043029
0.041121
0.089482
0.082283
0.075602
0.069488
0.064075
0.059342
0.055245
0.051665
0.048613
0.045934
0.043795
0.042006
0.088779
0.082095
0.075721
0.069829
0.064569
0.05993
0.055888
0.052343
0.049309
0.046663
0.044531
0.042841
0.088109
0.081884
0.075797
0.070117
0.065009
0.060468
0.056486
0.052982
0.04997
0.047357
0.045232
0.043618
0.087469
0.081656
0.075835
0.070358
0.0654
0.060959
0.057041
0.053582
0.050595
0.048014
0.045896
0.044336
0.086858
0.081413
0.075841
0.070557
0.065745
0.061405
0.057554
0.054141
0.051183
0.048632
0.04652
0.044992
0.086274
0.08116
0.075819
0.070718
0.066048
0.061808
0.058026
0.054662
0.051734
0.049209
0.047105
0.045588
0.085714
0.080899
0.075772
0.070845
0.066313
0.062171
0.05846
0.055145
0.052249
0.049748
0.04765
0.046127
0.085177
0.080632
0.075705
0.070942
0.066542
0.062498
0.058857
0.055592
0.052729
0.050247
0.048156
0.046611
0.084661
0.08036
0.075619
0.071012
0.066739
0.06279
0.059219
0.056003
0.053174
0.05071
0.048625
0.047046
0.084164
0.080085
0.075518
0.071058
0.066906
0.063051
0.059549
0.056382
0.053587
0.051137
0.049059
0.047435
0.083686
0.079809
0.075403
0.071083
0.067048
0.063282
0.059848
0.05673
0.053969
0.05153
0.04946
0.047784
0.083224
0.079531
0.075277
0.071088
0.067165
0.063486
0.06012
0.057048
0.054321
0.051892
0.04983
0.048098
0.082777
0.079254
0.07514
0.071076
0.06726
0.063666
0.060365
0.057339
0.054646
0.052225
0.050171
0.04838
0.082345
0.078976
0.074996
0.07105
0.067335
0.063822
0.060586
0.057604
0.054946