/*--------------------------------*- C++ -*----------------------------------*\
  =========                 |
  \\      /  F ield         | OpenFOAM: The Open Source CFD Toolbox
   \\    /   O peration     | Website:  https://openfoam.org
    \\  /    A nd           | Version:  6.0
     \\/     M anipulation  |
\*---------------------------------------------------------------------------*/
FoamFile
{
    version     2.0;
    format      ascii;
    class       volScalarField;
    location    "18";
    object      p;
}
// * * * * * * * * * * * * * * * * * * * * * * * * * * * * * * * * * * * * * //

dimensions      [0 2 -2 0 0 0 0];

internalField   nonuniform List<scalar> 
62000
(
0.0158108
0.0156977
0.0155792
0.0154548
0.0153263
0.0151927
0.0150546
0.0149104
0.0147607
0.0146035
0.0144395
0.0142664
0.0140851
0.0138929
0.0136911
0.0134766
0.0132509
0.0130108
0.0127576
0.0124882
0.0122033
0.0119003
0.0115793
0.0112383
0.0108769
0.0104937
0.0100881
0.00965902
0.00920605
0.00872839
0.00822635
0.00769886
0.00714782
0.00657068
0.00596774
0.00533749
0.00467942
0.00399277
0.00327532
0.0025239
0.00173476
0.000904258
2.88272e-05
-0.000893636
-0.00186309
-0.00287531
-0.00391858
-0.00497636
-0.0060167
-0.00700779
-0.00789751
-0.00864435
-0.009193
-0.00950581
-0.00954989
-0.00926923
-0.00864847
-0.00731908
-0.00645891
-0.0122554
0.0158827
0.015765
0.0156395
0.0155054
0.0153654
0.0152201
0.0150713
0.014918
0.0147609
0.0145979
0.0144297
0.0142544
0.0140727
0.0138817
0.0136823
0.0134709
0.0132488
0.0130125
0.012763
0.0124972
0.0122157
0.0119157
0.0115973
0.0112584
0.0108986
0.0105164
0.010111
0.00968145
0.00922701
0.00874712
0.00824148
0.00771035
0.00715384
0.00657086
0.00595969
0.00531877
0.00464802
0.00394599
0.00320959
0.00243448
0.00161577
0.000748118
-0.000174243
-0.00115648
-0.0022023
-0.00331168
-0.00447729
-0.00568651
-0.00690873
-0.00811175
-0.00923452
-0.0102248
-0.0110016
-0.0115058
-0.0116729
-0.0113952
-0.0106107
-0.00891497
-0.00772006
-0.00940315
0.0159167
0.0158095
0.0156926
0.015563
0.0154233
0.0152742
0.0151182
0.0149555
0.0147867
0.0146101
0.0144265
0.0142348
0.0140372
0.0138314
0.0136186
0.0133951
0.0131614
0.0129136
0.0126528
0.0123752
0.0120816
0.0117689
0.0114373
0.0110842
0.0107093
0.0103108
0.00988801
0.00943979
0.00896538
0.00846411
0.00793571
0.00738076
0.00679953
0.00619142
0.00555432
0.00488831
0.00419402
0.0034707
0.00271607
0.00192725
0.00110117
0.000234482
-0.000676701
-0.00163599
-0.00264593
-0.00370593
-0.00480902
-0.00594374
-0.00708093
-0.00819078
-0.00921142
-0.0100928
-0.010749
-0.0111332
-0.011192
-0.0108451
-0.0100808
-0.00863857
-0.00797409
-0.0104689
0.0160325
0.0159394
0.0158357
0.0157171
0.0155848
0.015439
0.0152823
0.0151157
0.0149406
0.0147549
0.0145585
0.0143507
0.0141348
0.0139108
0.0136809
0.013442
0.013194
0.0129326
0.0126579
0.012366
0.0120574
0.011729
0.0113808
0.0110102
0.0106168
0.0101985
0.00975464
0.00928382
0.00878513
0.00825781
0.00770124
0.00711584
0.00650214
0.00585877
0.00518572
0.00448301
0.00375195
0.00299183
0.00220089
0.00137745
0.000520034
-0.000373003
-0.00130381
-0.00227457
-0.00328672
-0.00433923
-0.00542587
-0.0065373
-0.00764768
-0.0087323
-0.00973219
-0.0106025
-0.0112571
-0.0116569
-0.0117485
-0.0114575
-0.0107925
-0.00952681
-0.00899816
-0.0111774
0.0162194
0.0161369
0.0160428
0.0159329
0.0158074
0.015665
0.0155082
0.0153394
0.0151614
0.0149719
0.0147692
0.014551
0.0143209
0.0140804
0.0138342
0.0135804
0.0133194
0.0130458
0.0127591
0.0124548
0.0121329
0.0117902
0.0114268
0.0110399
0.0106292
0.0101923
0.00972843
0.009236
0.00871386
0.00816094
0.0075762
0.00695989
0.00631143
0.00563109
0.00491761
0.00417254
0.00339687
0.00258949
0.00174873
0.00087368
-3.60986e-05
-0.000980974
-0.00196172
-0.0029791
-0.00403316
-0.0051218
-0.0062384
-0.0073745
-0.00850639
-0.00961312
-0.0106389
-0.0115419
-0.0122356
-0.0126778
-0.0128019
-0.0125151
-0.0118143
-0.0104745
-0.00966306
-0.0114122
0.0164347
0.0163555
0.0162652
0.0161602
0.0160396
0.0159001
0.0157434
0.0155731
0.0153942
0.015205
0.0150025
0.0147819
0.014545
0.0142944
0.0140366
0.0137718
0.0135011
0.0132194
0.0129246
0.0126116
0.0122797
0.0119255
0.011549
0.0111477
0.0107211
0.0102669
0.00978436
0.00927158
0.00872722
0.00814989
0.00753826
0.00689188
0.00621081
0.00549344
0.00474073
0.00395326
0.00313215
0.00227588
0.00138286
0.00045278
-0.00051392
-0.00151641
-0.00255385
-0.00362507
-0.00472762
-0.00585663
-0.00700278
-0.00815545
-0.00928998
-0.0103866
-0.0113914
-0.012267
-0.0129294
-0.0133396
-0.0134283
-0.0130968
-0.0123478
-0.0109835
-0.0101133
-0.0117355
0.0166479
0.0165673
0.0164765
0.0163732
0.0162564
0.0161207
0.0159656
0.0157954
0.0156167
0.0154302
0.015232
0.0150151
0.0147791
0.0145258
0.0142631
0.0139934
0.0137192
0.0134355
0.0131397
0.0128251
0.0124902
0.0121311
0.0117476
0.0113374
0.0109002
0.0104338
0.00993739
0.00940909
0.00884735
0.00825063
0.00761719
0.00694667
0.00623774
0.00549078
0.00470458
0.00388072
0.00301964
0.00211928
0.00117798
0.000195728
-0.000826607
-0.00188748
-0.00298496
-0.00411629
-0.00527668
-0.00645816
-0.00764772
-0.00883102
-0.00998004
-0.0110737
-0.0120585
-0.0129011
-0.0135224
-0.0138916
-0.0139481
-0.0136023
-0.0128713
-0.0115645
-0.0107268
-0.012063
0.016848
0.0167645
0.0166719
0.0165696
0.016457
0.0163272
0.0161769
0.0160092
0.0158321
0.015648
0.0154538
0.0152413
0.0150076
0.0147538
0.014488
0.014215
0.0139389
0.0136561
0.0133632
0.0130526
0.0127212
0.0123644
0.0119812
0.0115694
0.0111287
0.0106571
0.0101539
0.00961712
0.00904528
0.00843661
0.0077893
0.00710238
0.0063755
0.00560679
0.0047971
0.00394632
0.00305453
0.00211894
0.00113744
0.000109695
-0.000963765
-0.00208173
-0.00324244
-0.00444303
-0.00567792
-0.00693744
-0.00820594
-0.00946547
-0.0106837
-0.0118362
-0.0128659
-0.0137403
-0.014379
-0.0147554
-0.0148129
-0.0144635
-0.0137236
-0.0123749
-0.0113639
-0.0121517
0.0170609
0.016978
0.0168851
0.0167834
0.0166748
0.0165519
0.0164088
0.0162464
0.0160725
0.0158912
0.0157002
0.0154906
0.0152578
0.0150013
0.0147293
0.0144483
0.0141647
0.0138765
0.013581
0.0132701
0.0129395
0.0125837
0.0122008
0.0117882
0.0113456
0.0108708
0.0103632
0.00982081
0.00924205
0.00862513
0.00796794
0.00726983
0.00652908
0.00574602
0.0049191
0.00404898
0.00313474
0.00217274
0.00116029
9.65237e-05
-0.00101882
-0.00218551
-0.00340298
-0.00466964
-0.00598081
-0.0073271
-0.00869207
-0.0100556
-0.0113817
-0.0126407
-0.0137697
-0.0147303
-0.0154331
-0.0158443
-0.0158999
-0.0155021
-0.0146549
-0.0131196
-0.0117731
-0.0119189
0.0173041
0.0172259
0.0171361
0.0170371
0.0169337
0.0168194
0.0166865
0.0165333
0.0163666
0.016191
0.0160049
0.0157994
0.0155682
0.0153093
0.0150299
0.0147377
0.0144407
0.0141392
0.0138317
0.0135107
0.0131713
0.0128073
0.0124163
0.0119952
0.0115436
0.0110593
0.0105415
0.00998832
0.00939803
0.00876872
0.00809831
0.00738563
0.00663017
0.00583013
0.00498631
0.00409793
0.003164
0.00218039
0.00114417
5.42249e-05
-0.00109026
-0.00228992
-0.00354541
-0.00485683
-0.00622127
-0.00763083
-0.00906992
-0.010518
-0.0119364
-0.0132914
-0.0145124
-0.0155535
-0.0163104
-0.0167372
-0.0167563
-0.0162585
-0.0152441
-0.0134855
-0.0118322
-0.0114295
0.017593
0.0175253
0.0174429
0.0173489
0.0172515
0.0171464
0.0170248
0.0168835
0.0167275
0.0165616
0.0163845
0.0161875
0.0159627
0.0157065
0.0154248
0.0151248
0.0148157
0.0144993
0.0141757
0.0138382
0.013482
0.013101
0.0126923
0.0122529
0.0117824
0.0112786
0.0107408
0.0101672
0.00955601
0.00890534
0.00821287
0.0074779
0.00669865
0.00587585
0.0050083
0.00409665
0.00313976
0.00213349
0.00107539
-3.51264e-05
-0.00119865
-0.00241575
-0.00368745
-0.00501494
-0.00639677
-0.00782684
-0.00929119
-0.0107704
-0.0122254
-0.0136203
-0.0148798
-0.0159513
-0.0167184
-0.0171236
-0.0170803
-0.0164779
-0.0153281
-0.0134394
-0.0116259
-0.0108434
0.0179285
0.0178746
0.0178031
0.0177169
0.0176267
0.0175308
0.0174208
0.017292
0.0171481
0.0169936
0.0168278
0.0166421
0.0164282
0.016181
0.0159049
0.0156062
0.0152936
0.0149701
0.0146363
0.0142863
0.0139154
0.0135176
0.0130898
0.0126293
0.0121357
0.0116073
0.0110436
0.0104431
0.00980405
0.00912475
0.00840297
0.00763766
0.00682832
0.00597383
0.00507565
0.00413368
0.00314778
0.00211431
0.00103195
-9.85638e-05
-0.00127673
-0.00250199
-0.00377454
-0.00509549
-0.00646396
-0.00787498
-0.00931642
-0.0107709
-0.0122009
-0.0135716
-0.0148067
-0.0158525
-0.016586
-0.016946
-0.0168452
-0.0161818
-0.0149883
-0.0131043
-0.0112738
-0.0102653
0.0183108
0.0182739
0.0182152
0.0181373
0.0180534
0.0179646
0.0178634
0.0177448
0.0176113
0.0174673
0.0173123
0.0171383
0.016937
0.0167025
0.0164381
0.016149
0.0158433
0.0155239
0.0151915
0.0148403
0.0144654
0.0140607
0.0136226
0.0131483
0.0126377
0.0120893
0.011503
0.0108778
0.0102121
0.00950449
0.00875277
0.0079565
0.00711397
0.00622665
0.00529418
0.00431822
0.00329923
0.00223435
0.00112378
-2.98891e-05
-0.00122445
-0.00245737
-0.00372699
-0.00503319
-0.00637453
-0.00774635
-0.00913781
-0.010534
-0.0119005
-0.0132061
-0.0143778
-0.0153664
-0.0160491
-0.016368
-0.0162426
-0.0155858
-0.0144471
-0.012677
-0.0109133
-0.00977806
0.0187107
0.0186891
0.0186434
0.0185751
0.0184984
0.0184166
0.0183234
0.0182138
0.0180896
0.0179547
0.017809
0.0176452
0.0174554
0.0172339
0.0169831
0.0167082
0.0164164
0.0161105
0.0157906
0.0154509
0.0150858
0.0146885
0.0142548
0.0137813
0.0132677
0.0127125
0.0121158
0.011477
0.0107948
0.010068
0.0092947
0.00847417
0.00760597
0.00668965
0.00572735
0.00471996
0.00366907
0.00257263
0.00143232
0.000252634
-0.000962317
-0.00220777
-0.00347965
-0.0047759
-0.00609367
-0.00742765
-0.00876764
-0.010101
-0.0113967
-0.0126289
-0.0137304
-0.0146605
-0.0153011
-0.0156031
-0.0154958
-0.0149052
-0.0138876
-0.0122778
-0.010598
-0.00938207
0.0191156
0.0191074
0.0190735
0.0190145
0.0189448
0.0188693
0.0187831
0.0186814
0.0185654
0.0184388
0.0183012
0.0181461
0.0179657
0.0177551
0.0175167
0.0172556
0.0169791
0.0166898
0.016388
0.0160674
0.0157218
0.0153437
0.0149278
0.01447
0.013969
0.0134233
0.0128326
0.0121964
0.0115134
0.0107827
0.0100021
0.00917155
0.00828929
0.00735711
0.00637506
0.00534529
0.00426968
0.00314663
0.00197898
0.000772851
-0.000466016
-0.00173077
-0.00301492
-0.00431426
-0.00562403
-0.00693769
-0.0082449
-0.0095346
-0.010779
-0.0119576
-0.01301
-0.0139054
-0.0145326
-0.0148516
-0.0148009
-0.0143151
-0.0134446
-0.0119926
-0.0103727
-0.00908426
0.0195254
0.019526
0.0195013
0.0194508
0.0193881
0.0193186
0.0192387
0.0191439
0.0190349
0.0189149
0.0187836
0.0186345
0.0184605
0.0182572
0.0180273
0.0177765
0.0175125
0.0172383
0.0169541
0.0166541
0.0163314
0.015978
0.0155878
0.0151556
0.0146793
0.0141564
0.0135864
0.0129683
0.0123005
0.011582
0.0108106
0.00998571
0.0091064
0.00817222
0.00718519
0.00614605
0.00505709
0.00391678
0.00272855
0.00149954
0.000236603
-0.00105189
-0.00235747
-0.00367399
-0.00499481
-0.00631173
-0.00761371
-0.00889047
-0.0101164
-0.0112755
-0.012313
-0.0132078
-0.0138541
-0.0142206
-0.0142513
-0.013883
-0.0131514
-0.01182
-0.0102161
-0.00884293
0.0199604
0.019967
0.0199481
0.0199028
0.0198438
0.0197772
0.0197002
0.0196091
0.0195042
0.0193883
0.0192607
0.0191152
0.0189445
0.0187447
0.0185191
0.0182739
0.0180172
0.0177529
0.0174818
0.0171984
0.0168959
0.0165661
0.0162023
0.0157984
0.0153517
0.0148589
0.0143185
0.013729
0.0130882
0.012395
0.0116463
0.0108417
0.00997865
0.00905833
0.00808021
0.00704554
0.00595598
0.00480961
0.00360982
0.00236412
0.00107984
-0.000233838
-0.00156711
-0.00291241
-0.00426143
-0.00560439
-0.00692907
-0.00822525
-0.00946832
-0.010645
-0.0117046
-0.0126338
-0.0133303
-0.0137674
-0.0138912
-0.0136357
-0.0130174
-0.0117615
-0.0101313
-0.00865343
0.0204097
0.0204169
0.0204005
0.0203588
0.0203028
0.0202383
0.0201636
0.020075
0.0199729
0.0198596
0.0197342
0.0195903
0.0194208
0.0192219
0.0189972
0.0187537
0.0184998
0.0182403
0.0179764
0.0177036
0.0174153
0.0171036
0.0167616
0.0163829
0.0159641
0.0155013
0.0149924
0.0144353
0.0138271
0.013166
0.0124484
0.0116729
0.0108375
0.00994068
0.0089833
0.00796456
0.00688569
0.00574395
0.00454216
0.00328758
0.00198731
0.00065067
-0.00071197
-0.00209224
-0.00348066
-0.00486599
-0.00623473
-0.00757611
-0.00886538
-0.0100902
-0.0112018
-0.0121922
-0.0129591
-0.0134787
-0.0136946
-0.0135355
-0.0129973
-0.0117716
-0.0100798
-0.00847708
0.0208749
0.02088
0.0208634
0.020823
0.0207681
0.0207045
0.0206307
0.0205438
0.0204436
0.0203325
0.0202089
0.0200661
0.0198969
0.0196977
0.0194721
0.0192275
0.0189729
0.0187135
0.0184515
0.0181828
0.0179016
0.0176006
0.0172729
0.0169123
0.0165152
0.0160774
0.0155962
0.015069
0.0144924
0.0138639
0.0131793
0.0124368
0.0116324
0.010766
0.00983552
0.00884014
0.00777984
0.00665073
0.00545465
0.00419812
0.00288751
0.00153167
0.000140878
-0.00127627
-0.00270964
-0.00414692
-0.00557335
-0.00697724
-0.00833274
-0.00962712
-0.0108115
-0.0118809
-0.0127311
-0.0133373
-0.0136385
-0.0135568
-0.0130693
-0.0118406
-0.0100645
-0.00832118
0.0213639
0.0213634
0.0213441
0.0213038
0.0212493
0.0211859
0.0211124
0.0210261
0.0209268
0.0208165
0.0206932
0.0205501
0.0203798
0.0201787
0.0199506
0.019703
0.0194452
0.019183
0.0189189
0.0186496
0.0183696
0.0180724
0.0177515
0.0174011
0.0170175
0.0165967
0.0161357
0.0156319
0.0150813
0.0144809
0.0138261
0.013114
0.012341
0.0115042
0.0106026
0.00963317
0.00859504
0.00748305
0.0062978
0.0050447
0.00372904
0.0023587
0.000943409
-0.000508587
-0.00198696
-0.00347872
-0.00496805
-0.0064422
-0.00787369
-0.00924816
-0.0105151
-0.0116709
-0.0126066
-0.0132954
-0.0136706
-0.0136468
-0.013185
-0.0119282
-0.010054
-0.00815868
0.0219002
0.0218936
0.0218696
0.021826
0.0217683
0.0217015
0.0216247
0.0215358
0.0214343
0.0213221
0.0211967
0.0210514
0.0208781
0.0206734
0.0204411
0.0201889
0.0199262
0.019659
0.01939
0.0191165
0.0188334
0.0185346
0.0182141
0.0178666
0.0174887
0.0170766
0.0166275
0.0161386
0.0156059
0.0150262
0.0143943
0.0137071
0.0129593
0.0121494
0.0112734
0.0103285
0.00931212
0.00821792
0.00704517
0.00579803
0.00448048
0.00309922
0.00166304
0.000179514
-0.00134126
-0.002886
-0.00443809
-0.00598378
-0.0074936
-0.00895111
-0.0103031
-0.0115462
-0.012566
-0.0133315
-0.0137698
-0.0137892
-0.0133366
-0.0120387
-0.0100615
-0.00800795
0.022468
0.0224528
0.0224226
0.0223751
0.0223139
0.0222434
0.022163
0.0220706
0.0219658
0.0218503
0.0217215
0.0215722
0.0213944
0.0211848
0.020947
0.0206892
0.0204204
0.0201471
0.0198719
0.0195923
0.0193033
0.0189995
0.018675
0.0183249
0.0179463
0.0175357
0.0170907
0.0166084
0.0160852
0.0155175
0.0149003
0.0142297
0.013501
0.0127101
0.0118545
0.0109292
0.00993109
0.00885237
0.00769112
0.00645021
0.00513227
0.00374266
0.00228908
0.00077818
-0.000780435
-0.00237361
-0.0039841
-0.00559745
-0.00718204
-0.00871923
-0.0101525
-0.0114781
-0.0125745
-0.0134075
-0.0138977
-0.0139476
-0.0134925
-0.0121451
-0.0100633
-0.00784812
0.0230622
0.0230382
0.0230011
0.0229486
0.0228829
0.022808
0.0227233
0.022627
0.0225187
0.0223998
0.0222673
0.0221139
0.0219313
0.0217163
0.0214726
0.0212084
0.020933
0.0206528
0.0203704
0.0200834
0.0197871
0.019476
0.0191445
0.0187883
0.0184044
0.01799
0.0175427
0.0170602
0.0165388
0.0159754
0.0153645
0.0147026
0.0139838
0.0132054
0.0123626
0.0114506
0.0104651
0.00939728
0.00824412
0.00700729
0.00568808
0.00429059
0.00282137
0.00128612
-0.000306362
-0.00194315
-0.00360684
-0.00528219
-0.00693584
-0.00854688
-0.0100556
-0.011457
-0.012624
-0.0135173
-0.0140515
-0.0141243
-0.013661
-0.0122625
-0.010079
-0.00770225
0.0236861
0.0236518
0.0236073
0.02355
0.0234801
0.023401
0.0233121
0.0232118
0.0230994
0.0229763
0.0228392
0.0226805
0.022492
0.0222705
0.0220197
0.0217484
0.0214656
0.021178
0.020888
0.0205932
0.0202888
0.0199694
0.0196294
0.0192647
0.0188728
0.0184509
0.0179971
0.0175091
0.0169838
0.0164179
0.0158065
0.0151456
0.0144301
0.0136556
0.0128185
0.0119127
0.0109334
0.00987098
0.00872139
0.00748529
0.00616279
0.00475681
0.00327284
0.00171554
9.29432e-05
-0.00158263
-0.00329357
-0.00502438
-0.00673975
-0.00841738
-0.00999388
-0.0114636
-0.012692
-0.0136371
-0.0142078
-0.0142974
-0.0138217
-0.0123714
-0.0100887
-0.00755113
0.0243597
0.0243167
0.0242642
0.0241996
0.0241228
0.0240366
0.0239406
0.0238335
0.0237146
0.0235851
0.0234414
0.0232758
0.0230798
0.0228504
0.0225914
0.0223118
0.0220207
0.021725
0.0214268
0.0211236
0.0208106
0.0204822
0.020133
0.0197588
0.0193573
0.0189258
0.0184627
0.0179659
0.0174326
0.0168596
0.0162421
0.0155767
0.0148572
0.014081
0.0132426
0.0123365
0.011357
0.0102941
0.00914277
0.00790297
0.00657378
0.00515711
0.00365751
0.00207874
0.00042793
-0.00128313
-0.00303702
-0.00481779
-0.00658898
-0.00832673
-0.00996488
-0.0114962
-0.0127811
-0.0137734
-0.0143765
-0.0144803
-0.0139919
-0.0124917
-0.0101143
-0.00741926
0.025065
0.0250119
0.024951
0.0248799
0.0247966
0.0247039
0.0246011
0.0244871
0.0243613
0.0242247
0.0240734
0.0238997
0.0236949
0.0234562
0.0231879
0.0228989
0.0225987
0.0222942
0.0219872
0.0216754
0.0213533
0.0210158
0.0206568
0.0202727
0.0198607
0.0194185
0.0189446
0.0184371
0.0178932
0.0173099
0.0166829
0.0160082
0.015281
0.0144969
0.013652
0.0127399
0.0117547
0.0106858
0.00952781
0.00828
0.00694054
0.00551077
0.00399406
0.00239393
0.000715893
-0.00102784
-0.00282148
-0.00464698
-0.00646918
-0.00826044
-0.00995557
-0.0115414
-0.0128764
-0.0139106
-0.014542
-0.0146573
-0.014155
-0.0126061
-0.010137
-0.0072868
0.0257927
0.0257304
0.0256614
0.0255833
0.0254935
0.0253941
0.0252846
0.025164
0.0250316
0.0248884
0.0247299
0.0245483
0.0243349
0.024087
0.0238089
0.0235101
0.0232002
0.0228861
0.0225698
0.0222487
0.0219172
0.0215701
0.0212011
0.0208066
0.0203839
0.0199306
0.0194452
0.0189259
0.01837
0.0177748
0.0171358
0.0164495
0.0157104
0.0149156
0.0140599
0.0131374
0.0121418
0.0110621
0.00989283
0.0086325
0.00727895
0.00583266
0.00429665
0.00267347
0.000968101
-0.000807954
-0.00263932
-0.00450724
-0.0063769
-0.00821835
-0.00996681
-0.0116033
-0.0129859
-0.0140605
-0.014719
-0.0148455
-0.0143306
-0.012735
-0.0101781
-0.00717777
0.0265473
0.0264748
0.0263977
0.0263135
0.026218
0.0261127
0.0259971
0.0258702
0.0257311
0.0255807
0.0254143
0.025224
0.0250009
0.0247427
0.024454
0.0241445
0.023824
0.0234998
0.0231735
0.0228427
0.0225014
0.0221443
0.0217651
0.0213601
0.0209264
0.0204617
0.0199646
0.0194332
0.0188648
0.0182567
0.0176046
0.0169048
0.0161528
0.0153441
0.014475
0.0135388
0.0125292
0.011435
0.0102506
0.00897409
0.00760314
0.00613744
0.0045799
0.00293214
0.00119875
-0.000609391
-0.00247758
-0.00438581
-0.0063008
-0.00818913
-0.00998917
-0.0116721
-0.0130983
-0.0142101
-0.0148938
-0.0150302
-0.0145023
-0.012861
-0.010219
-0.00707084
0.0273477
0.0272672
0.0271819
0.0270895
0.0269855
0.0268715
0.0267468
0.0266109
0.0264626
0.026303
0.026127
0.0259266
0.0256925
0.0254228
0.0251223
0.0248012
0.0244693
0.0241342
0.0237973
0.0234561
0.0231046
0.0227373
0.0223476
0.0219318
0.021487
0.021011
0.0205021
0.0199584
0.0193774
0.0187561
0.0180904
0.0173768
0.0166099
0.0157868
0.0149023
0.0139503
0.012924
0.0118124
0.0106095
0.00931369
0.00792187
0.00643391
0.00485192
0.00317747
0.00141419
-0.000427107
-0.00233262
-0.00428112
-0.00624085
-0.00817549
-0.0100262
-0.0117546
-0.0132241
-0.0143733
-0.0150824
-0.0152296
-0.0146899
-0.0130044
-0.0102805
-0.00698907
0.0281751
0.0280851
0.0279914
0.0278916
0.02778
0.027658
0.0275248
0.0273799
0.0272222
0.0270527
0.0268661
0.0266543
0.0264081
0.0261259
0.0258125
0.0254789
0.0251348
0.0247881
0.02444
0.024088
0.0237258
0.0233478
0.0229473
0.0225206
0.0220646
0.021577
0.0210562
0.0205004
0.0199067
0.0192723
0.0185929
0.017865
0.0170836
0.0162446
0.015344
0.0143747
0.01333
0.0121988
0.0109752
0.00965746
0.0082425
0.00672979
0.00512132
0.00341815
0.00162354
-0.000252052
-0.00219555
-0.00418433
-0.00618884
-0.00816888
-0.0100709
-0.011842
-0.0133528
-0.0145377
-0.015271
-0.0154279
-0.0148762
-0.0131472
-0.0103437
-0.00690991
0.0290157
0.0289174
0.0288156
0.0287081
0.0285888
0.0284588
0.0283172
0.0281638
0.0279973
0.0278187
0.0276222
0.0273998
0.0271419
0.0268474
0.0265213
0.0261749
0.0258184
0.0254597
0.0251
0.0247368
0.0243634
0.0239744
0.0235627
0.0231247
0.0226573
0.0221581
0.0216254
0.0210573
0.020451
0.0198035
0.0191106
0.0183686
0.017572
0.0167178
0.0158001
0.0148127
0.0137483
0.0125958
0.0113498
0.0100081
0.00856778
0.00702795
0.00539071
0.00365643
0.00182847
-8.35175e-05
-0.00206641
-0.0040972
-0.00614731
-0.00817432
-0.0101278
-0.0119427
-0.0134955
-0.0147171
-0.0154755
-0.015643
-0.0150801
-0.0133086
-0.0104284
-0.00685597
0.0298755
0.0297675
0.0296576
0.0295433
0.0294172
0.02928
0.0291308
0.0289691
0.0287937
0.0286055
0.0283986
0.0281647
0.0278945
0.0275869
0.0272474
0.0268878
0.0265183
0.0261473
0.0257756
0.0254008
0.0250159
0.0246154
0.0241923
0.0237427
0.0232635
0.0227524
0.0222076
0.0216272
0.0210083
0.0203479
0.0196416
0.0188854
0.0180743
0.0172038
0.0162692
0.0152631
0.0141783
0.0130038
0.0117341
0.0103672
0.0089
0.00733164
0.00566375
0.00389689
0.00203363
8.40956e-05
-0.00194
-0.00401334
-0.00611075
-0.00818445
-0.0101913
-0.012048
-0.0136416
-0.0148986
-0.0156811
-0.0158584
-0.0152837
-0.0134705
-0.0105157
-0.00680492
0.0307737
0.0306583
0.0305399
0.0304164
0.0302804
0.0301328
0.0299726
0.0297998
0.029613
0.0294131
0.029194
0.0289473
0.0286635
0.028342
0.0279884
0.027615
0.0272321
0.0268484
0.0264644
0.0260777
0.0256811
0.0252689
0.024834
0.0243725
0.0238813
0.0233581
0.022801
0.0222082
0.0215767
0.0209034
0.0201836
0.0194135
0.018587
0.0177011
0.016749
0.0157241
0.0146185
0.0134214
0.0121273
0.0107342
0.00923875
0.0076402
0.00593991
0.00413843
0.00223795
0.000248634
-0.00181847
-0.00393669
-0.00608288
-0.00820554
-0.0102665
-0.0121675
-0.013803
-0.0150963
-0.0159036
-0.0160915
-0.0155058
-0.0136513
-0.0106246
-0.00677986
0.0316892
0.0315646
0.0314375
0.0313056
0.0311608
0.0310035
0.030833
0.0306491
0.0304507
0.0302386
0.0300064
0.029746
0.0294477
0.0291113
0.0287428
0.028355
0.0279583
0.0275614
0.0271649
0.026766
0.0263573
0.0259332
0.025486
0.0250124
0.0245088
0.0239732
0.0234037
0.0227983
0.0221541
0.0214677
0.0207344
0.0199499
0.0191089
0.0182064
0.0172373
0.0161934
0.0150671
0.0138474
0.0125286
0.0111087
0.00958442
0.0079546
0.00622084
0.00438327
0.00244421
0.000413523
-0.00169796
-0.00386253
-0.00605874
-0.00823122
-0.0103473
-0.0122919
-0.0139686
-0.015297
-0.0161278
-0.0163253
-0.0157282
-0.0138333
-0.010737
-0.00675865
0.0326048
0.0324713
0.0323354
0.0321946
0.0320406
0.0318739
0.0316935
0.0314996
0.0312906
0.0310678
0.0308241
0.0305513
0.0302397
0.0298894
0.0295066
0.0291047
0.0286942
0.0282841
0.0278747
0.0274633
0.0270423
0.0266058
0.0261462
0.0256601
0.025144
0.0245958
0.0240136
0.0233955
0.0227384
0.0220387
0.0212917
0.0204931
0.0196366
0.0187187
0.0177322
0.0166697
0.0155229
0.0142805
0.0129368
0.0114896
0.00993544
0.00827329
0.00650463
0.00462942
0.00264999
0.000575987
-0.00158181
-0.00379497
-0.00604286
-0.00826746
-0.0104394
-0.0124305
-0.0141495
-0.0155138
-0.016369
-0.0165769
-0.0159687
-0.0140337
-0.0108706
-0.00676382
0.0335423
0.0333985
0.0332533
0.0331041
0.0329413
0.0327653
0.0325748
0.0323701
0.0321498
0.0319148
0.0316581
0.0313715
0.0310451
0.0306796
0.0302813
0.0298642
0.0294389
0.0290147
0.0285918
0.0281674
0.0277335
0.0272843
0.0268121
0.0263133
0.0257846
0.0252237
0.0246289
0.0239981
0.023328
0.0226151
0.0218545
0.0210415
0.0201706
0.0192365
0.0182333
0.0171523
0.0159851
0.0147199
0.0133512
0.0118764
0.0102921
0.00859695
0.00679255
0.00487866
0.00285767
0.000739041
-0.00146635
-0.00372946
-0.00603011
-0.00830772
-0.0105358
-0.0125732
-0.0143341
-0.015733
-0.0166115
-0.0168289
-0.0162095
-0.0142355
-0.0110082
-0.00677367
0.0345304
0.0343827
0.0342293
0.0340679
0.03389
0.0336968
0.0334879
0.0332649
0.0330265
0.0327742
0.0325006
0.0321974
0.0318544
0.0314724
0.0310579
0.0306251
0.0301849
0.0297467
0.0293104
0.0288731
0.0284266
0.0279652
0.0274806
0.0269696
0.0264286
0.0258554
0.0252483
0.024605
0.0239222
0.0231964
0.0224223
0.0215956
0.0207097
0.0197606
0.0187404
0.017641
0.0164533
0.0151653
0.0137712
0.0122683
0.0106531
0.00892411
0.00708286
0.00512901
0.00306491
0.00089996
-0.00135483
-0.00366987
-0.00602492
-0.00835743
-0.0106426
-0.0127289
-0.0145333
-0.015968
-0.0168706
-0.0170983
-0.016468
-0.0144552
-0.0111669
-0.00681082
0.0354407
0.0352821
0.0351223
0.0349576
0.0347769
0.0345797
0.034365
0.0341337
0.0338851
0.0336207
0.0333337
0.0330159
0.0326576
0.0322601
0.0318302
0.0313826
0.0309282
0.0304766
0.0300275
0.029578
0.0291196
0.0286465
0.0281502
0.0276276
0.0270749
0.02649
0.0258711
0.0252158
0.0245209
0.0237827
0.0229957
0.0221554
0.0212556
0.0202906
0.0192538
0.0181358
0.0169275
0.0156166
0.0141969
0.0126659
0.0110193
0.00925605
0.00737731
0.00538269
0.00327452
0.00106218
-0.00124311
-0.00361118
-0.00602157
-0.00840962
-0.0107521
-0.0128873
-0.014735
-0.0162046
-0.0171306
-0.0173679
-0.0167269
-0.0146768
-0.0113304
-0.00685419
0.0364084
0.0362417
0.0360701
0.0358911
0.0356948
0.0354817
0.0352509
0.0350038
0.0347395
0.0344595
0.034157
0.0338236
0.03345
0.0330373
0.0325929
0.0321316
0.0316644
0.0312007
0.0307402
0.0302797
0.0298106
0.0293268
0.0288199
0.0282866
0.0277231
0.0271273
0.0264974
0.0258309
0.0251245
0.0243743
0.0235749
0.0227216
0.0218073
0.0208276
0.0197739
0.0186373
0.0174083
0.0160741
0.0146285
0.0130686
0.0113903
0.00959187
0.0076747
0.00563817
0.00348458
0.00122336
-0.00113407
-0.0035569
-0.00602419
-0.00846944
-0.0108701
-0.0130568
-0.0149496
-0.0164556
-0.0174062
-0.0176542
-0.0170029
-0.0149158
-0.0115149
-0.00692555
0.0373184
0.0371383
0.0369573
0.0367718
0.03657
0.0363511
0.0361133
0.0358578
0.0355834
0.0352918
0.0349761
0.0346285
0.0342398
0.033812
0.0333531
0.0328782
0.0323983
0.031923
0.0314517
0.0309808
0.0305016
0.0300079
0.029491
0.0289477
0.028374
0.0277681
0.0271277
0.0264506
0.0257332
0.0249716
0.0241602
0.023294
0.0223664
0.0213712
0.0203012
0.019146
0.0178962
0.0165385
0.0150668
0.0134779
0.0117674
0.0099335
0.00797738
0.00589828
0.00369846
0.00138747
-0.00102307
-0.00350158
-0.00602661
-0.00852963
-0.0109889
-0.013227
-0.0151649
-0.0167071
-0.0176819
-0.0179404
-0.0172793
-0.0151571
-0.011705
-0.0070044
0.0383035
0.0381148
0.0379209
0.0377196
0.0375002
0.0372633
0.0370076
0.0367347
0.0364436
0.0361357
0.0358039
0.0354401
0.0350352
0.0345915
0.0341175
0.0336283
0.0331355
0.0326484
0.0321661
0.0316849
0.0311958
0.0306923
0.0301657
0.0296127
0.0290294
0.0284136
0.0277632
0.0270759
0.0263479
0.0255752
0.0247522
0.0238739
0.0229325
0.0219231
0.0208364
0.0196626
0.0183918
0.0170104
0.0155121
0.0138938
0.0121506
0.0102805
0.00828453
0.00616181
0.00391451
0.00155234
-0.000912807
-0.0034486
-0.00603291
-0.00859522
-0.0111143
-0.0134064
-0.0153916
-0.0169718
-0.0179724
-0.0182426
-0.0175723
-0.0154158
-0.0119161
-0.0071114
0.039213
0.0390114
0.0388089
0.0386021
0.0383783
0.0381363
0.0378746
0.0375943
0.0372942
0.0369759
0.0366322
0.0362552
0.0358361
0.0353778
0.0348893
0.0343864
0.0338808
0.0333818
0.0328885
0.0323968
0.0318975
0.031384
0.0308475
0.0302847
0.0296915
0.0290658
0.0284055
0.027708
0.0269696
0.0261862
0.025352
0.0244615
0.0235074
0.022483
0.0213801
0.0201877
0.0188959
0.0174908
0.0159659
0.014318
0.0125418
0.0106351
0.00859884
0.00643187
0.00413634
0.00172218
-0.000798484
-0.00339244
-0.00603686
-0.00865912
-0.0112386
-0.0135849
-0.0156178
-0.0172363
-0.0182628
-0.0185451
-0.0178665
-0.015678
-0.0121339
-0.00722696
0.0401791
0.0399637
0.0397475
0.0395278
0.0392923
0.03904
0.0387687
0.0384789
0.0381693
0.0378406
0.0374853
0.037095
0.0366613
0.0361873
0.0356829
0.0351645
0.0346442
0.0341315
0.0336256
0.033122
0.0326113
0.0320868
0.0315397
0.0309663
0.0303628
0.0297269
0.0290564
0.0283486
0.0275999
0.0268058
0.0259603
0.0250581
0.0240907
0.0230524
0.0219331
0.0207223
0.0194094
0.0179804
0.0164286
0.0147507
0.012941
0.010997
0.00891946
0.00670717
0.00436217
0.00189462
-0.000683043
-0.00333672
-0.00604284
-0.00872668
-0.011368
-0.0137712
-0.0158542
-0.0175132
-0.0185675
-0.0188634
-0.0181772
-0.0159578
-0.012373
-0.00737018
0.0411939
0.040967
0.0407381
0.0405053
0.0402561
0.0399898
0.0397047
0.0394014
0.0390785
0.0387364
0.0383672
0.037962
0.0375123
0.0370215
0.0365002
0.0359652
0.035429
0.0349015
0.0343817
0.0338648
0.0333415
0.0328049
0.0322459
0.031661
0.0310463
0.0303994
0.0297181
0.0289997
0.0282402
0.0274353
0.0265786
0.0256643
0.0246845
0.0236316
0.0224965
0.0212672
0.0199333
0.0184804
0.0169016
0.0151936
0.01335
0.0113683
0.00924899
0.00699071
0.00459545
0.00207366
-0.000561939
-0.00327626
-0.00604501
-0.00879128
-0.0114954
-0.0139558
-0.0160896
-0.0177896
-0.0188723
-0.0191824
-0.0184901
-0.0162424
-0.0126201
-0.00752246
0.0422125
0.0419777
0.041741
0.0415
0.0412418
0.040966
0.0406705
0.0403567
0.0400225
0.0396686
0.0392862
0.0388662
0.0384
0.0378911
0.0373509
0.036797
0.0362427
0.0356979
0.0351619
0.0346298
0.0340921
0.0335417
0.0329695
0.0323719
0.0317449
0.0310861
0.0303932
0.0296635
0.0288928
0.0280766
0.0272084
0.0262823
0.0252892
0.0242226
0.0230712
0.0218235
0.0204684
0.0189913
0.0173853
0.0156465
0.0137686
0.0117483
0.00958617
0.00728073
0.0048339
0.00225643
-0.000438622
-0.00321521
-0.00604831
-0.00885877
-0.0116275
-0.0141479
-0.0163351
-0.0180785
-0.0191915
-0.0195174
-0.0188201
-0.0165456
-0.0128891
-0.00770216
0.0432147
0.0429723
0.0427296
0.042484
0.0422214
0.0419409
0.04164
0.0413197
0.0409782
0.0406154
0.0402228
0.0397906
0.0393099
0.0387849
0.0382273
0.0376555
0.0370831
0.0365208
0.0359679
0.0354196
0.0348663
0.0343009
0.0337141
0.0331025
0.032462
0.0317902
0.0310847
0.0303428
0.0295601
0.0287321
0.0278519
0.0269133
0.0259073
0.0248257
0.0236581
0.0223917
0.0210154
0.019514
0.0178804
0.0161108
0.014198
0.0121387
0.00993316
0.00757984
0.00508055
0.00244653
-0.000309055
-0.00314885
-0.00604753
-0.0089232
-0.0117579
-0.0143388
-0.0165803
-0.0183679
-0.0195121
-0.0198548
-0.0191542
-0.0168556
-0.0131676
-0.0078922
0.0442279
0.0439788
0.0437304
0.04348
0.0432133
0.0429291
0.0426245
0.0423
0.0419534
0.0415845
0.0411836
0.0407409
0.0402473
0.039707
0.0391325
0.0385428
0.0379523
0.037372
0.0368016
0.0362363
0.0356665
0.0350851
0.0344828
0.033856
0.0332009
0.032515
0.0317958
0.0310406
0.030245
0.0294041
0.0285109
0.0275592
0.0265388
0.0254425
0.024258
0.0229726
0.0215746
0.0200486
0.0183871
0.0165859
0.0146376
0.0125382
0.0102882
0.00788563
0.00533261
0.00264041
-0.000177142
-0.00308204