/*--------------------------------*- C++ -*----------------------------------*\
  =========                 |
  \\      /  F ield         | OpenFOAM: The Open Source CFD Toolbox
   \\    /   O peration     | Website:  https://openfoam.org
    \\  /    A nd           | Version:  6.0
     \\/     M anipulation  |
\*---------------------------------------------------------------------------*/
FoamFile
{
    version     2.0;
    format      ascii;
    class       surfaceScalarField;
    location    "18";
    object      phi;
}
// * * * * * * * * * * * * * * * * * * * * * * * * * * * * * * * * * * * * * //

dimensions      [0 3 -1 0 0 0 0];

internalField   nonuniform List<scalar> 
123526
(
5.50239e-05
2.30528e-05
-5.46319e-05
5.54477e-05
2.4919e-05
5.59037e-05
2.69356e-05
5.63981e-05
2.91148e-05
5.69301e-05
3.14695e-05
5.75069e-05
3.40136e-05
5.81284e-05
3.67621e-05
5.88022e-05
3.97312e-05
5.95297e-05
4.29375e-05
6.03189e-05
4.64012e-05
6.11702e-05
5.0143e-05
6.20928e-05
5.41837e-05
6.30885e-05
5.8547e-05
6.41696e-05
6.32557e-05
6.534e-05
6.8338e-05
6.66078e-05
7.38266e-05
6.79774e-05
7.97495e-05
6.94663e-05
8.61341e-05
7.10784e-05
9.30234e-05
7.28236e-05
0.000100456
7.47158e-05
0.000108463
7.67688e-05
0.000117093
7.89872e-05
0.000126396
8.13981e-05
0.000136402
8.40046e-05
0.000147181
8.68283e-05
0.000158772
8.98859e-05
0.000171232
9.31921e-05
0.000184621
9.67715e-05
0.000198985
0.000100638
0.000214395
0.000104818
0.000230893
0.00010933
0.000248546
0.0001142
0.000267396
0.00011945
0.000287493
0.000125105
0.000308875
0.000131196
0.000331561
0.000137742
0.000355569
0.000144773
0.00038088
0.000152314
0.000407451
0.000160387
0.000435208
0.000169015
0.000464019
0.000178217
0.000493693
0.000188004
0.000523961
0.000198384
0.000554454
0.000209352
0.000584678
0.000220894
0.000613988
0.000232977
0.000641547
0.000245548
0.000666287
0.000258529
0.000686856
0.000271808
0.000701565
0.000285235
0.000708309
0.000298608
0.000704512
0.000311669
0.00068703
0.000324082
0.000652117
0.000335426
0.000595353
0.000345173
0.000511618
0.000352751
0.000395255
0.000356577
0.000239419
0.000360576
3.84577e-05
-0.000189955
0.000379972
5.40814e-05
2.267e-05
-5.36967e-05
5.44974e-05
2.45049e-05
5.49456e-05
2.64878e-05
5.54317e-05
2.86306e-05
5.59554e-05
3.09458e-05
5.65236e-05
3.34472e-05
5.71362e-05
3.61495e-05
5.78007e-05
3.90683e-05
5.85183e-05
4.22194e-05
5.92969e-05
4.56239e-05
6.01368e-05
4.93024e-05
6.10469e-05
5.32747e-05
6.2029e-05
5.7564e-05
6.3095e-05
6.21906e-05
6.42489e-05
6.71834e-05
6.54982e-05
7.25782e-05
6.68476e-05
7.83996e-05
6.83138e-05
8.46689e-05
6.99008e-05
9.14361e-05
7.1618e-05
9.87401e-05
7.34794e-05
0.000106601
7.54982e-05
0.000115075
7.76793e-05
0.000124214
8.00486e-05
0.000134033
8.26101e-05
0.00014462
8.53842e-05
0.000155999
8.83879e-05
0.000168229
9.16351e-05
0.000181374
9.51506e-05
0.00019547
9.89474e-05
0.000210599
0.000103053
0.000226788
0.000107483
0.000244116
0.000112266
0.000262614
0.000117423
0.000282336
0.000122977
0.000303321
0.00012896
0.000325579
0.000135391
0.000349139
0.000142298
0.000373974
0.000149707
0.000400044
0.000157639
0.000427278
0.000166115
0.000455544
0.000175155
0.000484654
0.000184771
0.000514347
0.000194966
0.00054426
0.000205739
0.000573908
0.000217073
0.000602657
0.000228937
0.000629687
0.000241278
0.000653951
0.00025402
0.000674121
0.000267051
0.000688541
0.000280226
0.000695147
0.000293345
0.00069141
0.000306158
0.00067425
0.000318332
0.000639986
0.000329456
0.000584289
0.000338992
0.000502161
0.000346389
0.000387971
0.000351181
0.000234794
0.000353477
3.64581e-05
-0.000185247
0.000349027
5.32188e-05
2.22937e-05
-5.28406e-05
5.36273e-05
2.40982e-05
5.40671e-05
2.60484e-05
5.45438e-05
2.81557e-05
5.50572e-05
3.04325e-05
5.5614e-05
3.28922e-05
5.62142e-05
3.55492e-05
5.68652e-05
3.84189e-05
5.75684e-05
4.15158e-05
5.83315e-05
4.48622e-05
5.91548e-05
4.84784e-05
6.00471e-05
5.23834e-05
6.10104e-05
5.65999e-05
6.20563e-05
6.11456e-05
6.31887e-05
6.60503e-05
6.44151e-05
7.13526e-05
6.57401e-05
7.70741e-05
6.71802e-05
8.32299e-05
6.87392e-05
8.98768e-05
7.04264e-05
9.7054e-05
7.22555e-05
0.000104772
7.42394e-05
0.000113092
7.6383e-05
0.000122071
7.87117e-05
0.000131705
8.12294e-05
0.000142102
8.3956e-05
0.000153273
8.69085e-05
0.000165277
9.01004e-05
0.000178183
9.35561e-05
0.000192015
9.72882e-05
0.000206867
0.000101324
0.000222753
0.000105679
0.000239761
0.00011038
0.000257914
0.000115449
0.000277268
0.000120909
0.000297862
0.000126789
0.0003197
0.00013311
0.00034282
0.000139898
0.000367188
0.000147178
0.000392765
0.000154971
0.000419486
0.000163298
0.000447218
0.000172178
0.000475776
0.000181621
0.000504905
0.000191632
0.000534249
0.000202208
0.000563333
0.000213333
0.000591533
0.000224975
0.000618046
0.000237083
0.000641842
0.000249582
0.000661622
0.000262363
0.000675759
0.000275283
0.000682227
0.000288145
0.000678547
0.000300705
0.000661698
0.000312636
0.000628066
0.000323536
0.000573404
0.000332879
0.000492832
0.000340121
0.000380745
0.000344688
0.000230238
0.000347226
3.39157e-05
-0.000187109
0.000349048
5.24394e-05
2.19237e-05
-5.20675e-05
5.2841e-05
2.36985e-05
5.32732e-05
2.56166e-05
5.37415e-05
2.76892e-05
5.42456e-05
2.99286e-05
5.4792e-05
3.23476e-05
5.53809e-05
3.49603e-05
5.60194e-05
3.7782e-05
5.67088e-05
4.0826e-05
5.74567e-05
4.41155e-05
5.82637e-05
4.76709e-05
5.91381e-05
5.15101e-05
6.00821e-05
5.56552e-05
6.1107e-05
6.01216e-05
6.22168e-05
6.49398e-05
6.34191e-05
7.01513e-05
6.47182e-05
7.57745e-05
6.61304e-05
8.18187e-05
6.76597e-05
8.83473e-05
6.93151e-05
9.53997e-05
7.11102e-05
0.000102977
7.30576e-05
0.000111146
7.51622e-05
0.000119967
7.7449e-05
0.000129419
7.99218e-05
0.00013963
8.26001e-05
0.000150595
8.55007e-05
0.000162376
8.86367e-05
0.000175048
9.20323e-05
0.00018862
9.56996e-05
0.000203201
9.96654e-05
0.000218788
0.000103945
0.000235482
0.000108564
0.000253295
0.000113545
0.000272288
0.00011891
0.000292498
0.000124688
0.000313923
0.000130898
0.000336612
0.000137566
0.000360522
0.000144717
0.000385616
0.000152371
0.000411834
0.000160548
0.000439043
0.000169266
0.00046706
0.000178537
0.000495638
0.000188363
0.000524426
0.000198743
0.000552957
0.000209659
0.000580621
0.000221081
0.000606629
0.000232958
0.000629971
0.000245218
0.000649372
0.000257752
0.000663234
0.000270422
0.000669572
0.000283034
0.000665954
0.00029535
0.000649415
0.000307049
0.000616413
0.000317739
0.000562777
0.000326917
0.000483737
0.000334039
0.000373741
0.00033869
0.000225759
0.000341074
3.18358e-05
-0.000185217
0.000339443
5.16775e-05
2.15606e-05
-5.13121e-05
5.20718e-05
2.33062e-05
5.2496e-05
2.51928e-05
5.29558e-05
2.72314e-05
5.34507e-05
2.94339e-05
5.39873e-05
3.18129e-05
5.45655e-05
3.43822e-05
5.51926e-05
3.71565e-05
5.58697e-05
4.01485e-05
5.66043e-05
4.33822e-05
5.73968e-05
4.68778e-05
5.82555e-05
5.06524e-05
5.91824e-05
5.47276e-05
6.01887e-05
5.91162e-05
6.12783e-05
6.38496e-05
6.24585e-05
6.89721e-05
6.37338e-05
7.44988e-05
6.51202e-05
8.04334e-05
6.66216e-05
8.68457e-05
6.82469e-05
9.37755e-05
7.00096e-05
0.000101215
7.19219e-05
0.000109234
7.39888e-05
0.0001179
7.62347e-05
0.000127174
7.86634e-05
0.000137201
8.12943e-05
0.000147965
8.41435e-05
0.000159528
8.72241e-05
0.000171968
9.05598e-05
0.000185285
9.41625e-05
0.000199599
9.80583e-05
0.000214893
0.000102263
0.000231278
0.0001068
0.000248757
0.000111693
0.000267395
0.000116963
0.00028723
0.000122638
0.00030825
0.000128737
0.000330515
0.000135285
0.000353975
0.000142307
0.000378596
0.000149822
0.000404321
0.00015785
0.000431017
0.000166409
0.000458503
0.000175508
0.00048654
0.000185153
0.000514783
0.000195338
0.000542772
0.00020605
0.00056991
0.000217257
0.000595422
0.000228909
0.000618318
0.000240935
0.000637345
0.000253229
0.000650936
0.000265656
0.000657143
0.000278027
0.000653579
0.000290109
0.000637337
0.000301587
0.000604939
0.000312077
0.000552294
0.0003211
0.000474718
0.000328114
0.000366731
0.000332671
0.000221193
0.000335029
2.944e-05
-0.000183775
0.000333519
5.09134e-05
2.12047e-05
-5.05555e-05
5.12997e-05
2.29218e-05
5.17154e-05
2.47775e-05
5.2166e-05
2.67827e-05
5.26511e-05
2.89488e-05
5.31774e-05
3.12884e-05
5.37448e-05
3.38148e-05
5.43604e-05
3.65425e-05
5.50256e-05
3.9483e-05
5.57475e-05
4.26615e-05
5.65267e-05
4.60981e-05
5.73711e-05
4.98089e-05
5.82828e-05
5.38152e-05
5.92724e-05
5.81274e-05
6.03439e-05
6.27775e-05
6.15043e-05
6.78125e-05
6.2758e-05
7.32447e-05
6.41207e-05
7.90717e-05
6.55963e-05
8.53699e-05
6.71935e-05
9.21794e-05
6.89256e-05
9.94825e-05
7.08048e-05
0.000107356
7.28357e-05
0.000115869
7.50425e-05
0.000124968
7.74289e-05
0.000134815
8.00138e-05
0.000145381
8.28131e-05
0.000156729
8.58397e-05
0.000168942
8.91167e-05
0.000182009
9.26559e-05
0.00019606
9.64829e-05
0.000211066
0.000100613
0.000227149
0.00010507
0.000244301
0.000109876
0.00026259
0.000115051
0.000282056
0.000120624
0.000302679
0.000126613
0.000324528
0.000133043
0.000347547
0.000139938
0.000371704
0.000147316
0.000396945
0.000155197
0.000423138
0.000163599
0.000450105
0.00017253
0.000477612
0.000181996
0.00050532
0.000191992
0.00053278
0.000202503
0.000559404
0.000213499
0.000584432
0.000224931
0.000606892
0.000236729
0.000625555
0.000248791
0.000638884
0.000260982
0.000644967
0.000273118
0.000641461
0.000284971
0.000625515
0.000296234
0.00059372
0.000306528
0.000542059
0.000315394
0.000465931
0.000322298
0.000359939
0.00032676
0.000216895
0.000328961
2.75319e-05
-0.000182101
0.000327537
5.0142e-05
2.08567e-05
-4.9792e-05
5.05198e-05
2.2546e-05
5.09263e-05
2.43714e-05
5.13672e-05
2.63437e-05
5.18422e-05
2.8474e-05
5.23579e-05
3.07745e-05
5.29143e-05
3.32584e-05
5.35185e-05
3.59399e-05
5.41717e-05
3.88295e-05
5.48813e-05
4.19532e-05
5.56476e-05
4.53313e-05
5.64788e-05
4.89789e-05
5.73764e-05
5.29169e-05
5.83512e-05
5.71536e-05
5.94066e-05
6.17215e-05
6.05496e-05
6.66705e-05
6.17841e-05
7.20098e-05
6.31257e-05
7.77313e-05
6.45778e-05
8.39176e-05
6.61493e-05
9.06091e-05
6.78529e-05
9.7779e-05
6.97008e-05
0.000105509
7.16976e-05
0.000113873
7.38669e-05
0.0001228
7.62125e-05
0.00013247
7.87529e-05
0.000142841
8.15037e-05
0.000153979
8.44776e-05
0.000165969
8.76972e-05
0.00017879
9.11741e-05
0.000192584
9.49335e-05
0.000207307
9.89902e-05
0.000223093
0.000103368
0.000239923
0.000108088
0.000257871
0.00011317
0.000276974
0.000118643
0.000297208
0.000124524
0.000318649
0.000130837
0.000341236
0.000137606
0.000364937
0.00014485
0.000389704
0.000152586
0.000415403
0.000160833
0.00044186
0.000169599
0.000468847
0.00017889
0.000496031
0.0001887
0.000522971
0.000199014
0.00054909
0.000209804
0.000573641
0.000221022
0.000595672
0.000232598
0.000613977
0.000244432
0.000627045
0.000256394
0.000633001
0.000268302
0.000629546
0.000279932
0.000613882
0.000290986
0.000582665
0.000301091
0.000531952
0.000309802
0.000457214
0.000316603
0.000353126
0.000321003
0.000212466
0.000323002
2.5463e-05
-0.000180799
0.000321606
4.93615e-05
2.05167e-05
-4.90199e-05
4.97308e-05
2.21785e-05
5.01285e-05
2.3974e-05
5.05603e-05
2.59137e-05
5.10259e-05
2.80084e-05
5.15319e-05
3.02703e-05
5.2078e-05
3.27122e-05
5.26713e-05
3.53481e-05
5.33131e-05
3.81873e-05
5.40105e-05
4.12569e-05
5.47641e-05
4.4577e-05
5.55819e-05
4.8162e-05
5.64656e-05
5.20324e-05
5.74259e-05
5.61941e-05
5.8466e-05
6.06807e-05
5.95928e-05
6.55446e-05
6.081e-05
7.07921e-05
6.21325e-05
7.64098e-05
6.35636e-05
8.24862e-05
6.51118e-05
8.9062e-05
6.67894e-05
9.61013e-05
6.86083e-05
0.000103691
7.05731e-05
0.000111908
7.27069e-05
0.000120667
7.50134e-05
0.000130164
7.75109e-05
0.000140344
8.02147e-05
0.000151275
8.31372e-05
0.000163047
8.63008e-05
0.000175627
8.97167e-05
0.000189169
9.34097e-05
0.000203615
9.73942e-05
0.000219109
0.000101694
0.000235624
0.000106329
0.000253237
0.00011132
0.000271984
0.000116694
0.000291836
0.000122468
0.000312876
0.000128666
0.000335039
0.000135312
0.000358293
0.000142423
0.000382595
0.000150017
0.000407811
0.000158112
0.000433768
0.000166716
0.000460246
0.000175834
0.000486917
0.000185462
0.000513347
0.000195584
0.000538972
0.000206173
0.000563058
0.000217182
0.00058467
0.000228542
0.000602625
0.000240156
0.000615441
0.000251895
0.000621276
0.000263582
0.000617876
0.000274998
0.000602496
0.00028585
0.000571855
0.000295774
0.000522085
0.000304337
0.000448727
0.000311041
0.000346529
0.000315396
0.000208268
0.000317184
2.3957e-05
-0.000178971
0.000315593
4.85847e-05
2.01838e-05
-4.82496e-05
4.89472e-05
2.18182e-05
4.93378e-05
2.35838e-05
4.97624e-05
2.54911e-05
5.02203e-05
2.75507e-05
5.07179e-05
2.97745e-05
5.1255e-05
3.21752e-05
5.18385e-05
3.47662e-05
5.24693e-05
3.75561e-05
5.31549e-05
4.05727e-05
5.38954e-05
4.3836e-05
5.46992e-05
4.73594e-05
5.55679e-05
5.11631e-05
5.65123e-05
5.52508e-05
5.75356e-05
5.96568e-05
5.86449e-05
6.44363e-05
5.98437e-05
6.95929e-05
6.11468e-05
7.51078e-05
6.2557e-05
8.10758e-05
6.40825e-05
8.75375e-05
6.57353e-05
9.44486e-05
6.75267e-05
0.000101901
6.9461e-05
0.000109974
7.15609e-05
0.000118568
7.38299e-05
0.000127895
7.62861e-05
0.000137889
7.89443e-05
0.000148618
8.18169e-05
0.000160175
8.49258e-05
0.000172519
8.82821e-05
0.000185813
9.191e-05
0.000199988
9.58239e-05
0.000215196
0.000100047
0.000231402
0.000104599
0.000248686
0.0001095
0.000267084
0.000114776
0.000286561
0.000120445
0.000307209
0.000126531
0.000328955
0.000133054
0.000351771
0.000140035
0.000375617
0.00014749
0.000400358
0.000155435
0.000425824
0.00016388
0.000451802
0.00017283
0.000477969
0.000182279
0.000503898
0.000192214
0.000529036
0.000202607
0.000552664
0.000213412
0.000573863
0.000224563
0.000591472
0.000235963
0.000604035
0.000247488
0.000609746
0.000258961
0.000606392
0.00027017
0.000591279
0.000280829
0.000561189
0.00029058
0.000512325
0.000299002
0.00044029
0.000305609
0.000339897
0.000309921
0.000203909
0.000311508
2.22664e-05
-0.000177187
0.000309603
4.78345e-05
1.98555e-05
-4.75046e-05
4.81922e-05
2.14623e-05
4.8578e-05
2.31982e-05
4.89974e-05
2.50735e-05
4.94496e-05
2.70986e-05
4.99408e-05
2.92851e-05
5.04704e-05
3.16454e-05
5.10454e-05
3.41927e-05
5.16665e-05
3.69346e-05
5.23406e-05
3.98997e-05
5.30682e-05
4.31078e-05
5.38573e-05
4.65712e-05
5.47097e-05
5.03098e-05
5.56361e-05
5.43251e-05
5.664e-05
5.8652e-05
5.77287e-05
6.33485e-05
5.89058e-05
6.84152e-05
6.01861e-05
7.38285e-05
6.15726e-05
7.9689e-05
6.30732e-05
8.6038e-05
6.46995e-05
9.28224e-05
6.64623e-05
0.000100139
6.83657e-05
0.000108071
7.04317e-05
0.000116502
7.26637e-05
0.000125664
7.50791e-05
0.000135474
7.76927e-05
0.000146004
8.05163e-05
0.000157352
8.35715e-05
0.000169464
8.68693e-05
0.000182516
9.04334e-05
0.000196424
9.42778e-05
0.000211352
9.84254e-05
0.000227255
0.000102895
0.000244216
0.000107708
0.000262272
0.000112889
0.000281381
0.000118455
0.000301645
0.000124429
0.000322983
0.000130834
0.000345368
0.000137687
0.000368766
0.000145005
0.000393042
0.000152804
0.000418027
0.000161094
0.000443515
0.000169878
0.000469188
0.000179153
0.000494627
0.000188905
0.000519289
0.000199107
0.000542468
0.000209713
0.000563263
0.000220661
0.000580533
0.000231854
0.000592851
0.00024317
0.000598443
0.000254437
0.00059514
0.000265446
0.000580296
0.000275917
0.000550756
0.000285501
0.000502793
0.000293785
0.000432076
0.000300294
0.000333486
0.000304556
0.000199792
0.000305962
2.11232e-05
-0.000174767
0.000303762
4.71354e-05
1.953e-05
-4.68081e-05
4.74904e-05
2.11093e-05
4.7873e-05
2.28159e-05
4.82886e-05
2.46598e-05
4.8736e-05
2.66512e-05
4.92215e-05
2.88013e-05
4.97444e-05
3.11224e-05
5.03114e-05
3.36273e-05
5.09231e-05
3.63226e-05
5.15865e-05
3.92377e-05
5.23014e-05
4.23923e-05
5.3076e-05
4.57977e-05
5.39117e-05
4.94735e-05
5.48193e-05
5.34186e-05
5.58021e-05
5.76687e-05
5.68675e-05
6.22841e-05
5.80195e-05
6.72628e-05
5.9273e-05
7.2576e-05
6.06314e-05
7.83305e-05
6.21027e-05
8.45677e-05
6.36984e-05
9.12268e-05
6.54292e-05
9.84093e-05
6.72988e-05
0.000106202
6.93288e-05
0.000114473
7.15222e-05
0.000123471
7.38959e-05
0.000133101
7.64642e-05
0.000143437
7.92387e-05
0.000154578
8.22404e-05
0.000166463
8.54802e-05
0.000179277
8.89811e-05
0.000192924
9.27572e-05
0.000207576
9.68302e-05
0.000223182
0.00010122
0.000239827
0.000105946
0.000257548
0.000111033
0.000276296
0.000116498
0.000296181
0.000122363
0.000317119
0.000128651
0.000339082
0.000135378
0.000362041
0.000142562
0.000385859
0.000150219
0.000410372
0.000158356
0.000435378
0.000166979
0.000460565
0.000176084
0.000485522
0.000185658
0.000509715
0.000195673
0.000532451
0.000206087
0.000552846
0.000216836
0.000569781
0.000227826
0.000581853
0.00023894
0.000587323
0.000250005
0.000584061
0.000260819
0.000569471
0.000271107
0.000540455
0.000280527
0.000493358
0.000288675
0.000423905
0.000295086
0.00032704
0.000299288
0.000195527
0.000300544
1.97354e-05
-0.000172498
0.000298133
4.65008e-05
1.9206e-05
-4.61758e-05
4.68534e-05
2.07583e-05
4.72331e-05
2.24362e-05
4.76449e-05
2.42496e-05
4.80876e-05
2.62083e-05
4.85673e-05
2.83232e-05
4.90835e-05
3.06061e-05
4.96424e-05
3.30697e-05
5.02449e-05
3.57196e-05
5.08974e-05
3.85862e-05
5.16001e-05
4.1689e-05
5.23604e-05
4.50383e-05
5.31799e-05
4.86531e-05
5.40687e-05
5.25304e-05
5.50303e-05
5.67062e-05
5.60719e-05
6.12434e-05
5.71974e-05
6.61367e-05
5.84218e-05
7.13525e-05
5.97489e-05
7.70031e-05
6.11871e-05
8.31305e-05
6.27479e-05
8.96659e-05
6.44424e-05
9.67158e-05
6.62743e-05
0.00010437
6.82646e-05
0.000112484
7.04163e-05
0.000121319
7.27458e-05
0.000130772
7.52669e-05
0.000140916
7.7991e-05
0.000151854
8.09383e-05
0.000163516
8.41196e-05
0.000176096
8.75573e-05
0.000189487
9.1265e-05
0.000203869
9.52646e-05
0.000219183
9.95747e-05
0.000235517
0.000104215
0.000252908
0.000109209
0.000271303
0.000114575
0.000290818
0.000120333
0.000311362
0.000126506
0.000332911
0.000133111
0.000355438
0.000140164
0.000378808
0.00014768
0.000402859
0.000155669
0.000427392
0.000164134
0.000452103
0.000173074
0.000476587
0.000182473
0.00050032
0.000192306
0.000522623
0.000202531
0.000542627
0.000213086
0.000559234
0.00022388
0.000571068
0.000234795
0.000576422
0.000245663
0.000573206
0.000256286
0.000558873
0.000266394
0.000530383
0.000275652
0.000484148
0.000283666
0.000415957
0.000289976
0.000320823
0.000294105
0.000191536
0.00029525
1.88403e-05
-0.000169765
0.000292725
4.59323e-05
1.88844e-05
-4.56087e-05
4.62821e-05
2.04105e-05
4.66579e-05
2.20609e-05
4.70647e-05
2.38448e-05
4.75015e-05
2.57717e-05
4.79744e-05
2.78522e-05
4.84824e-05
3.0098e-05
4.90325e-05
3.25212e-05
4.96249e-05
3.51269e-05
5.02664e-05
3.79461e-05
5.09566e-05
4.09983e-05
5.17031e-05
4.42929e-05
5.2507e-05
4.78486e-05
5.33784e-05
5.16601e-05
5.432e-05
5.57641e-05
5.53389e-05
6.02255e-05
5.64388e-05
6.50364e-05
5.76345e-05
7.01579e-05
5.89296e-05
7.57077e-05
6.03331e-05
8.17281e-05
6.18567e-05
8.81422e-05
6.35118e-05
9.50616e-05
6.53025e-05
0.000102579
6.72496e-05
0.000110537
6.93562e-05
0.000119213
7.16385e-05
0.000128491
7.41098e-05
0.000138445
7.67812e-05
0.000149183
7.96725e-05
0.000160626
8.2794e-05
0.000172975
8.61677e-05
0.000186114
8.9807e-05
0.00020023
9.37326e-05
0.000215257
9.79638e-05
0.000231286
0.000102519
0.000248354
0.000107422
0.000266401
0.000112689
0.000285552
0.000118343
0.00030571
0.000124403
0.000326853
0.000130886
0.000348956
0.000137811
0.000371885
0.00014519
0.00039548
0.000153034
0.00041955
0.000161345
0.000443792
0.000170122
0.00046781
0.000179351
0.00049109
0.000189007
0.000512965
0.000199048
0.000532582
0.000209413
0.000548864
0.000220013
0.00056046
0.000230734
0.000565693
0.000241409
0.000562515
0.000251844
0.000548424
0.000261774
0.000520436
0.000270874
0.000475028
0.000278753
0.000408048
0.000284961
0.000314571
0.000289009
0.000187411
0.000290077
1.76157e-05
-0.000167362
0.000287514
4.54179e-05
1.85663e-05
-4.50986e-05
4.57629e-05
2.00672e-05
4.61329e-05
2.1691e-05
4.65332e-05
2.34462e-05
4.69626e-05
2.53421e-05
4.74272e-05
2.73892e-05
4.79264e-05
2.95986e-05
4.84667e-05
3.19824e-05
4.90485e-05
3.45446e-05
4.96784e-05
3.73173e-05
5.03561e-05
4.03198e-05
5.1089e-05
4.35609e-05
5.1878e-05
4.70587e-05
5.27329e-05
5.08059e-05
5.36562e-05
5.48398e-05
5.46546e-05
5.92278e-05
5.57314e-05
6.39591e-05
5.69006e-05
6.89895e-05
5.8166e-05
7.44421e-05
5.95362e-05
8.03589e-05
6.10231e-05
8.66552e-05
6.26383e-05
9.34473e-05
6.43864e-05
0.000100831
6.62885e-05
0.000108636
6.83477e-05
0.000117154
7.05803e-05
0.000126259
7.29994e-05
0.000136026
7.5616e-05
0.000146567
7.84495e-05
0.000157793
8.15097e-05
0.000169915
8.48184e-05
0.000182806
8.83881e-05
0.000196661
9.224e-05
0.000211406
9.63917e-05
0.000227134
0.000100862
0.000243884
0.000105674
0.00026159
0.000110845
0.000280383
0.000116394
0.000300162
0.000122343
0.000320905
0.000128708
0.000342593
0.000135506
0.000365089
0.000142751
0.000388238
0.000150452
0.000411851
0.000158613
0.000435634
0.000167231
0.000459196
0.000176293
0.000482032
0.000185776
0.000503488
0.000195636
0.000522728
0.000205816
0.000538692
0.000216227
0.000550057
0.000226757
0.000555177
0.000237242
0.000552041
0.000247492
0.000538196
0.000257248
0.000510712
0.00026619
0.000466132
0.000273935
0.000400363
0.000280038
0.000308554
0.000283999
0.000183576
0.00028502
1.68256e-05
-0.000164615
0.000282466
4.49415e-05
1.82537e-05
-4.46274e-05
4.528e-05
1.97306e-05
4.56427e-05
2.13285e-05
4.60348e-05
2.30558e-05
4.64555e-05
2.49215e-05
4.69107e-05
2.69356e-05
4.73998e-05
2.91093e-05
4.79294e-05
3.14543e-05
4.84998e-05
3.39738e-05
4.91177e-05
3.67006e-05
4.97828e-05
3.96543e-05
5.05022e-05
4.28425e-05
5.12769e-05
4.62834e-05
5.21163e-05
4.99675e-05
5.30229e-05
5.39327e-05
5.40028e-05
5.82488e-05
5.50591e-05
6.29025e-05
5.62051e-05
6.78445e-05
5.7444e-05
7.3203e-05
5.87842e-05
7.90198e-05
6.02372e-05
8.52022e-05
6.18147e-05
9.18707e-05
6.35215e-05
9.91246e-05
6.53789e-05
0.000106779
6.73905e-05
0.000115143
6.95725e-05
0.000124077
7.19383e-05
0.000133661
7.44988e-05
0.000144007
7.7273e-05
0.000155019
8.02708e-05
0.000166918
8.35133e-05
0.000179564
8.70132e-05
0.000193162
9.07903e-05
0.000207629
9.48629e-05
0.000223062
9.92487e-05
0.000239499
0.000103971
0.000256869
0.000109045
0.00027531
0.000114492
0.000294716
0.000120331
0.000315067
0.000126579
0.000336346
0.000133253
0.000358417
0.000140366
0.000381126
0.000147927
0.000404291
0.00015594
0.000427621
0.000164403
0.000450733
0.000173302
0.000473131
0.000182614
0.000494173
0.000192298
0.000513039
0.000202296
0.000528689
0.000212522
0.000539822
0.000222864
0.000544826
0.000233163
0.000541725
0.000243231
0.000528111
0.000252815
0.000501108
0.0002616
0.000457322
0.000269212
0.000392716
0.000275208
0.000302505
0.000279082
0.000179615
0.000280073
1.56573e-05
-0.000162266
0.000277549
4.44834e-05
1.79477e-05
-4.4177e-05
4.48141e-05
1.94014e-05
4.51683e-05
2.09741e-05
4.55516e-05
2.2674e-05
4.59629e-05
2.45099e-05
4.64082e-05
2.64917e-05
4.6887e-05
2.86302e-05
4.74057e-05
3.09369e-05
4.79646e-05
3.34142e-05
4.85704e-05
3.60958e-05
4.92227e-05
3.90011e-05
4.99287e-05
4.21373e-05
5.06893e-05
4.55219e-05
5.15137e-05
4.91436e-05
5.24044e-05
5.30412e-05
5.33673e-05
5.72866e-05
5.44051e-05
6.1864e-05
5.55308e-05
6.67197e-05
5.67469e-05
7.19866e-05
5.80611e-05
7.77065e-05
5.94844e-05
8.37788e-05
6.10281e-05
9.03278e-05
6.26971e-05
9.74557e-05
6.45124e-05
0.000104965
6.64782e-05
0.000113177
6.86109e-05
0.000121945
7.0924e-05
0.000131348
7.34284e-05
0.000141503
7.61433e-05
0.000152305
7.90783e-05
0.000163983
8.22545e-05
0.000176388
8.56838e-05
0.000189732
8.93867e-05
0.000203926
9.33798e-05
0.000219069
9.76814e-05
0.000235198
0.000102314
0.000252237
0.000107292
0.000270333
0.000112638
0.000289372
0.000118369
0.000309337
0.000124502
0.000330214
0.000131053
0.000351868
0.000138037
0.000374145
0.00014546
0.00039687
0.000153328
0.000419756
0.000161638
0.000442427
0.000170377
0.000464396
0.000179523
0.000485033
0.000189034
0.000503534
0.000198854
0.000518877
0.000208896
0.000529787
0.000219055
0.00053468
0.00022917
0.000531619
0.000239059
0.000518242
0.000248474
0.000491724
0.000257104
0.000448733
0.000264583
0.000385295
0.000270472
0.000296698
0.000274258
0.000175948
0.000275228
1.4905e-05
-0.000159599
0.000272742
4.40295e-05
1.76497e-05
-4.37299e-05
4.43521e-05
1.90808e-05
4.46977e-05
2.06288e-05
4.50719e-05
2.23017e-05
4.54735e-05
2.41082e-05
4.59089e-05
2.60581e-05
4.6377e-05
2.81619e-05
4.68847e-05
3.04308e-05
4.7432e-05
3.28665e-05
4.80257e-05
3.55034e-05
4.86653e-05
3.8361e-05
4.93582e-05
4.14456e-05
5.01048e-05
4.47745e-05
5.09148e-05
4.83347e-05
5.179e-05
5.21653e-05
5.27368e-05
5.63408e-05
5.37575e-05
6.08429e-05
5.48647e-05
6.56135e-05
5.60605e-05
7.07905e-05
5.73521e-05
7.64159e-05
5.87497e-05
8.23811e-05
6.02641e-05
8.88143e-05
6.18997e-05
9.58202e-05
6.36771e-05
0.000103188
6.56008e-05
0.000111253
6.76871e-05
0.000119859
6.99497e-05
0.000129086
7.23999e-05
0.000139053
7.50565e-05
0.000149648
7.79298e-05
0.000161111
8.104e-05
0.000173278
8.43999e-05
0.000186373
8.80282e-05
0.000200298
9.19429e-05
0.000215154
9.61609e-05
0.000230981
0.000100704
0.000247695
0.000105589
0.00026545
0.000110833
0.000284129
0.000116458
0.000303714
0.000122478
0.000324196
0.000128908
0.000345438
0.000135764
0.00036729
0.000143052
0.000389581
0.000150778
0.00041203
0.000158938
0.000434266
0.00016752
0.000455812
0.000176502
0.000476049
0.000185842
0.000494188
0.000195487
0.000509226
0.000205351
0.000519913
0.000215328
0.000524693
0.000225263
0.000521665
0.000234976
0.00050851
0.000244223
0.000482456
0.000252701
0.000440227
0.000260047
0.000377909
0.000265828
0.000290858
0.00026953
0.000172149
0.00027048
1.37618e-05
-0.000157334
0.000268027
4.35671e-05
1.73592e-05
-4.32761e-05
4.38814e-05
1.87681e-05
4.42184e-05
2.02916e-05
4.45837e-05
2.19379e-05
4.49761e-05
2.37155e-05
4.54018e-05
2.56339e-05
4.586e-05
2.77034e-05
4.63571e-05
2.9935e-05
4.68934e-05
3.23296e-05
4.74753e-05
3.49224e-05
4.81026e-05
3.77328e-05
4.87824e-05
4.07665e-05
4.95155e-05
4.40404e-05
5.03111e-05
4.75397e-05
5.11713e-05
5.13042e-05
5.21023e-05
5.54104e-05
5.31065e-05
5.9838e-05
5.41963e-05
6.45245e-05
5.53735e-05
6.96129e-05
5.6645e-05
7.51453e-05
5.80202e-05
8.10057e-05
5.95091e-05
8.73262e-05
6.11157e-05
9.42136e-05
6.28599e-05
0.000101444
6.47459e-05
0.000109368
6.679e-05
0.000117816
6.90058e-05
0.00012687
7.14048e-05
0.000136655
7.4006e-05
0.000147048
7.68195e-05
0.000158298
7.98658e-05
0.000170232
8.31571e-05
0.000183082
8.67131e-05
0.000196742
9.055e-05
0.000211317
9.46858e-05
0.000226845
9.91416e-05
0.00024324
0.000103933
0.00026066
0.000109078
0.000278984
0.000114598
0.000298196
0.000120506
0.000318289
0.000126818
0.000339127
0.000133548
0.000360562
0.000140703
0.000382428
0.000148289
0.000404447
0.000156301
0.000426257
0.000164729
0.000447388
0.000173549
0.000467234
0.000182723
0.000485019
0.000192195
0.000499761
0.000201882
0.000510231
0.000211682
0.000514905
0.000221439
0.000511916
0.000230978
0.000498989
0.00024006
0.000473401
0.000248387
0.000431939
0.000255602
0.000370747
0.000261275
0.000285259
0.000264896
0.000168638
0.000265822
1.30353e-05
-0.000154742
0.000263396
4.30912e-05
1.70764e-05
-4.28074e-05
4.33978e-05
1.84633e-05
4.37267e-05
1.99627e-05
4.40836e-05
2.15827e-05
4.44672e-05
2.33317e-05
4.48837e-05
2.5219e-05
4.53321e-05
2.72547e-05
4.5819e-05
2.94496e-05
4.63445e-05
3.18036e-05
4.69152e-05
3.43529e-05
4.75305e-05
3.71169e-05
4.81978e-05
4.01003e-05
4.89176e-05
4.332e-05
4.96992e-05
4.67591e-05
5.05446e-05
5.04582e-05
5.146e-05
5.4496e-05
5.24478e-05
5.88498e-05
5.35204e-05
6.34529e-05
5.46797e-05
6.84534e-05
5.59321e-05
7.38938e-05
5.72867e-05
7.9651e-05
5.87529e-05
8.58608e-05
6.0334e-05
9.26326e-05
6.20491e-05
9.97297e-05
6.39019e-05
0.000107515
6.59082e-05
0.00011581
6.80816e-05
0.000124697
7.04335e-05
0.000134303
7.29827e-05
0.000144499
7.57397e-05
0.000155541
7.87248e-05
0.000167248
8.19505e-05
0.000179857
8.54354e-05
0.000193257
8.91971e-05
0.000207556
9.32522e-05
0.000222791
9.76222e-05
0.000238871
0.000102322
0.000255961
0.00010737
0.000273937
0.000112786
0.000292782
0.000118584
0.000312492
0.00012478
0.000332932
0.000131386
0.000353957
0.000138411
0.000375403
0.000145859
0.000396999
0.000153726
0.000418388
0.000162002
0.00043911
0.000170664
0.000458569
0.000179673
0.000476004
0.000188975
0.000490452
0.000198489
0.000500706
0.000208113
0.00050527
0.000217695
0.000502314
0.000227063
0.000489601
0.000235982
0.000464458
0.00024416
0.000423731
0.000251244
0.000363619
0.000256812
0.000279628
0.000260353
0.000164991
0.000261251
1.19296e-05
-0.000152535
0.000258843
4.25977e-05
1.68002e-05
-4.23215e-05
4.2897e-05
1.81653e-05
4.32186e-05
1.96408e-05
4.35678e-05
2.12348e-05
4.39434e-05
2.29556e-05
4.43514e-05
2.48123e-05
4.4791e-05
2.68147e-05
4.52683e-05
2.89734e-05
4.57837e-05
3.12875e-05
4.63435e-05
3.3794e-05
4.69473e-05
3.65122e-05
4.76022e-05
3.94461e-05
4.83089e-05
4.26122e-05
4.90765e-05
4.5992e-05
4.99072e-05
4.96265e-05
5.0807e-05
5.35967e-05
5.17785e-05
5.78776e-05
5.28339e-05
6.23982e-05
5.39752e-05
6.73117e-05
5.52089e-05
7.26609e-05
5.65438e-05
7.8316e-05
5.79887e-05
8.44167e-05
5.95466e-05
9.10748e-05
6.12356e-05
9.80413e-05
6.30588e-05
0.000105692
6.50316e-05
0.000113837
6.71668e-05
0.000122562
6.94759e-05
0.000131994
7.19773e-05
0.000141998
7.46816e-05
0.000152837
7.7609e-05
0.000164321
8.07718e-05
0.000176694
8.41894e-05
0.00018984
8.78779e-05
0.000203867
9.1855e-05
0.000218814
9.61413e-05
0.000234585
0.000100752
0.000251352
0.000105705
0.000268985
0.000111019
0.000287469
0.00011671
0.000306803
0.000122791
0.000326853
0.000129276
0.000347473
0.000136173
0.000368508
0.000143485
0.000389689
0.00015121
0.000410666
0.000159336
0.000430986
0.000167842
0.000450067
0.000176689
0.000467162
0.000185824
0.000481323
0.000195167
0.000491369
0.000204618
0.00049583
0.000214028
0.000492911
0.000223227
0.000480418
0.000231985
0.000455725
0.000240016
0.000415737
0.000246971
0.000356713
0.000252434
0.000274235
0.000255898
0.000161631
0.000256761
1.12522e-05
-0.00014999
0.000254367
4.20878e-05
1.65304e-05
-4.18169e-05
4.23811e-05
1.7874e-05
4.2696e-05
1.93259e-05
4.30383e-05
2.08943e-05
4.34064e-05
2.25874e-05
4.38064e-05
2.44139e-05
4.42373e-05
2.63836e-05
4.47055e-05
2.85066e-05
4.5211e-05
3.07815e-05
4.57603e-05
3.32459e-05
4.63528e-05
3.59191e-05
4.69958e-05
3.88042e-05
4.76896e-05
4.19177e-05
4.84435e-05
4.52391e-05
4.92594e-05
4.881e-05
5.01437e-05
5.27134e-05
5.10987e-05
5.69222e-05
5.21366e-05
6.13612e-05
5.32596e-05
6.61885e-05