/*--------------------------------*- C++ -*----------------------------------*\
  =========                 |
  \\      /  F ield         | OpenFOAM: The Open Source CFD Toolbox
   \\    /   O peration     | Website:  https://openfoam.org
    \\  /    A nd           | Version:  6.0
     \\/     M anipulation  |
\*---------------------------------------------------------------------------*/
FoamFile
{
    version     2.0;
    format      ascii;
    class       volScalarField;
    location    "19";
    object      p;
}
// * * * * * * * * * * * * * * * * * * * * * * * * * * * * * * * * * * * * * //

dimensions      [0 2 -2 0 0 0 0];

internalField   nonuniform List<scalar> 
34500
(
1.00703
1.00738
1.00781
1.00769
1.00701
1.00613
1.00527
1.00434
1.00352
1.00283
1.0023
1.0019
1.00143
1.00122
1.00125
1.00703
1.00741
1.00793
1.00794
1.00739
1.00661
1.00584
1.00495
1.00411
1.00336
1.00277
1.00232
1.00178
1.00162
1.00151
1.00701
1.00737
1.00787
1.00789
1.00733
1.00654
1.00577
1.00488
1.00399
1.00316
1.00249
1.00199
1.00146
1.00138
1.00121
1.00699
1.00731
1.00781
1.00782
1.00726
1.00647
1.00575
1.00492
1.00408
1.00324
1.00253
1.00197
1.00142
1.00132
1.00119
1.00697
1.00725
1.00774
1.00777
1.00722
1.00642
1.00572
1.00497
1.00422
1.00344
1.00273
1.00213
1.00152
1.00133
1.00113
1.00694
1.00718
1.00764
1.00768
1.00711
1.00625
1.0055
1.00475
1.00406
1.00334
1.00267
1.00207
1.00144
1.00119
1.00092
1.00692
1.0071
1.00753
1.00758
1.007
1.00607
1.0052
1.00437
1.00367
1.00298
1.00234
1.00178
1.00117
1.00091
1.00065
1.00689
1.00702
1.00744
1.00753
1.00701
1.00606
1.00508
1.00414
1.00335
1.00264
1.00201
1.00147
1.0009
1.00064
1.00038
1.00686
1.00694
1.00735
1.00752
1.00712
1.00623
1.00521
1.00417
1.00328
1.00249
1.00182
1.00125
1.00068
1.00039
1.0001
1.00683
1.00685
1.00722
1.00745
1.0072
1.00643
1.00544
1.00435
1.00336
1.00247
1.00172
1.00108
1.00047
1.00012
0.999784
1.00681
1.00673
1.00701
1.00723
1.00708
1.00646
1.00554
1.00444
1.00339
1.00241
1.00156
1.00085
1.0002
0.999784
0.999418
1.00678
1.00659
1.00671
1.00684
1.00671
1.00619
1.00536
1.00429
1.00321
1.00217
1.00126
1.00051
0.999835
0.99939
0.999033
1.00676
1.00644
1.00636
1.00631
1.00612
1.00563
1.00487
1.00386
1.0028
1.00175
1.00082
1.00006
0.99941
0.99897
0.998652
1.00675
1.00631
1.006
1.00573
1.0054
1.00488
1.00417
1.00322
1.00221
1.00119
1.00029
0.999564
0.998974
0.998565
0.9983
1.00674
1.0062
1.00569
1.00519
1.00469
1.0041
1.0034
1.0025
1.00155
1.0006
0.999752
0.99909
0.998575
0.998202
0.997984
1.00675
1.00614
1.00547
1.00477
1.00409
1.0034
1.00268
1.00183
1.00094
1.00006
0.999279
0.998685
0.99824
0.997893
0.997706
1.00677
1.00613
1.00537
1.00451
1.00367
1.00288
1.00212
1.00129
1.00045
0.99963
0.99891
0.998371
0.997978
0.997636
0.997456
1.0068
1.00616
1.00536
1.00441
1.00346
1.00257
1.00176
1.00093
1.00011
0.999336
0.998655
0.998149
0.997779
0.997419
0.997226
1.00683
1.00624
1.00545
1.00446
1.00343
1.00246
1.0016
1.00074
0.999932
0.999168
0.998501
0.998001
0.997627
0.997227
0.997003
1.00688
1.00633
1.00559
1.00461
1.00354
1.00252
1.0016
1.0007
0.999876
0.999101
0.998421
0.997901
0.997499
0.997044
0.996779
1.00692
1.00644
1.00576
1.00483
1.00375
1.00269
1.00171
1.00077
0.999907
0.9991
0.998384
0.997824
0.997377
0.996858
0.996546
1.00696
1.00654
1.00594
1.00506
1.00401
1.00292
1.00189
1.0009
0.999984
0.999129
0.998363
0.997749
0.997246
0.996659
0.996304
1.007
1.00663
1.0061
1.00529
1.00426
1.00316
1.00209
1.00105
1.00007
0.999159
0.998332
0.997658
0.997095
0.996444
0.996046
1.00704
1.00671
1.00624
1.00549
1.00449
1.00338
1.00228
1.00118
1.00014
0.999168
0.998278
0.997541
0.99692
0.996209
0.995776
1.00706
1.00676
1.00634
1.00564
1.00467
1.00356
1.00242
1.00127
1.00018
0.999144
0.998191
0.997394
0.996719
0.995954
0.995493
1.00708
1.0068
1.00641
1.00574
1.00479
1.00368
1.00252
1.00132
1.00018
0.999081
0.998069
0.997217
0.996492
0.995682
0.995199
1.0071
1.00682
1.00644
1.00579
1.00486
1.00375
1.00256
1.00133
1.00013
0.998978
0.997912
0.99701
0.996243
0.995393
0.994894
1.0071
1.00682
1.00644
1.0058
1.00488
1.00376
1.00255
1.00128
1.00003
0.998838
0.997724
0.996779
0.995974
0.995092
0.994582
1.00711
1.00682
1.00642
1.00578
1.00485
1.00373
1.00249
1.00119
0.999906
0.998667
0.997511
0.996527
0.99569
0.994779
0.994262
1.00711
1.0068
1.00638
1.00573
1.00479
1.00366
1.0024
1.00107
0.999747
0.99847
0.997276
0.996259
0.995393
0.994457
0.993936
1.00711
1.00678
1.00634
1.00566
1.00471
1.00356
1.00228
1.00092
0.999567
0.998254
0.997025
0.995977
0.995085
0.994128
0.993603
1.00711
1.00676
1.00628
1.00558
1.00461
1.00344
1.00214
1.00075
0.999369
0.998024
0.996762
0.995686
0.994769
0.993791
0.993265
1.00712
1.00674
1.00622
1.00549
1.00451
1.00332
1.00199
1.00058
0.99916
0.997783
0.996491
0.995387
0.994447
0.993449
0.992921
1.00712
1.00671
1.00616
1.00541
1.00439
1.00318
1.00183
1.00039
0.998943
0.997535
0.996213
0.995082
0.994118
0.993102
0.992573
1.00713
1.00669
1.00611
1.00532
1.00428
1.00305
1.00167
1.0002
0.998722
0.997283
0.995931
0.994773
0.993785
0.992749
0.992218
1.00713
1.00667
1.00606
1.00524
1.00418
1.00292
1.00151
1.00001
0.998499
0.997028
0.995645
0.994459
0.993447
0.992392
0.991858
1.00714
1.00666
1.00601
1.00516
1.00407
1.00279
1.00135
0.999819
0.998275
0.996772
0.995356
0.994143
0.993104
0.99203
0.991491
1.00716
1.00665
1.00597
1.00509
1.00397
1.00266
1.0012
0.999629
0.998051
0.996513
0.995065
0.993822
0.992757
0.991662
0.99112
1.00717
1.00664
1.00594
1.00503
1.00388
1.00254
1.00104
0.999442
0.997828
0.996254
0.994772
0.993498
0.992407
0.99129
0.990741
1.00719
1.00664
1.00591
1.00497
1.0038
1.00243
1.00089
0.999256
0.997603
0.995993
0.994476
0.993171
0.992051
0.990913
0.990359
1.00721
1.00664
1.00588
1.00492
1.00372
1.00231
1.00075
0.999072
0.99738
0.995731
0.994177
0.99284
0.991691
0.990531
0.989968
1.00723
1.00664
1.00586
1.00487
1.00364
1.00221
1.0006
0.998889
0.997156
0.995468
0.993876
0.992506
0.991326
0.990143
0.989574
1.00726
1.00665
1.00584
1.00482
1.00357
1.0021
1.00046
0.998708
0.996933
0.995203
0.993573
0.992168
0.990958
0.989751
0.989172
1.00728
1.00666
1.00583
1.00478
1.0035
1.002
1.00032
0.998526
0.996708
0.994936
0.993266
0.991825
0.990584
0.989354
0.988766
1.00731
1.00667
1.00582
1.00474
1.00343
1.0019
1.00019
0.998346
0.996483
0.994667
0.992957
0.99148
0.990206
0.988952
0.988351
1.00734
1.00668
1.00581
1.00471
1.00337
1.00181
1.00005
0.998165
0.996256
0.994396
0.992644
0.99113
0.989823
0.988544
0.987933
1.00737
1.0067
1.0058
1.00468
1.00331
1.00171
0.999915
0.997985
0.996029
0.994124
0.992329
0.990777
0.989436
0.988132
0.987507
1.0074
1.00672
1.0058
1.00465
1.00325
1.00162
0.999781
0.997804
0.9958
0.993848
0.99201
0.990419
0.989044
0.987714
0.987077
1.00744
1.00674
1.0058
1.00462
1.00319
1.00153
0.999648
0.997624
0.99557
0.993571
0.991689
0.990058
0.988648
0.987291
0.986639
1.00747
1.00676
1.00581
1.00459
1.00314
1.00144
0.999515
0.997442
0.995339
0.993291
0.991364
0.989693
0.988247
0.986863
0.986196
1.00751
1.00679
1.00581
1.00457
1.00309
1.00135
0.999384
0.997262
0.995108
0.993011
0.991037
0.989324
0.987842
0.98643
0.985746
1.00756
1.00682
1.00582
1.00455
1.00304
1.00127
0.999253
0.997081
0.994874
0.992727
0.990706
0.988952
0.987432
0.985992
0.985291
1.0076
1.00685
1.00584
1.00454
1.00299
1.00119
0.999125
0.996901
0.994641
0.992442
0.990373
0.988576
0.987019
0.985549
0.984829
1.00765
1.00689
1.00585
1.00452
1.00294
1.0011
0.998996
0.99672
0.994406
0.992154
0.990037
0.988196
0.986599
0.9851
0.984362
1.0077
1.00693
1.00587
1.00451
1.0029
1.00102
0.99887
0.99654
0.994171
0.991866
0.989698
0.987813
0.986177
0.984647
0.983888
1.00775
1.00697
1.00589
1.00451
1.00286
1.00095
0.998743
0.99636
0.993934
0.991575
0.989357
0.987425
0.985749
0.984188
0.983408
1.00781
1.00701
1.00592
1.0045
1.00283
1.00087
0.99862
0.996182
0.993698
0.991283
0.989013
0.987035
0.985318
0.983724
0.982922
1.00786
1.00706
1.00595
1.0045
1.00279
1.0008
0.998497
0.996002
0.993461
0.990989
0.988666
0.986641
0.984881
0.983255
0.98243
1.00793
1.00711
1.00598
1.0045
1.00276
1.00073
0.998377
0.995825
0.993224
0.990695
0.988318
0.986244
0.984441
0.982781
0.981931
1.00799
1.00717
1.00601
1.00451
1.00273
1.00066
0.998257
0.995648
0.992986
0.990397
0.987966
0.985842
0.983995
0.9823
0.981426
1.00806
1.00723
1.00605
1.00452
1.00271
1.00059
0.998141
0.995472
0.992749
0.9901
0.987612
0.985438
0.983546
0.981816
0.980916
1.00813
1.00729
1.0061
1.00453
1.00269
1.00053
0.998026
0.995297
0.99251
0.9898
0.987255
0.98503
0.983092
0.981324
0.980398
1.00821
1.00735
1.00614
1.00455
1.00267
1.00047
0.997914
0.995123
0.992273
0.989501
0.986897
0.984619
0.982634
0.980829
0.979875
1.00829
1.00742
1.00619
1.00457
1.00266
1.00042
0.997803
0.99495
0.992034
0.989198
0.986535
0.984204
0.98217
0.980327
0.979345
1.00837
1.0075
1.00625
1.00459
1.00265
1.00036
0.997696
0.99478
0.991797
0.988896
0.986172
0.983786
0.981704
0.979821
0.97881
1.00846
1.00757
1.00631
1.00462
1.00264
1.00031
0.99759
0.994609
0.991559
0.988592
0.985806
0.983364
0.981231
0.979308
0.978267
1.00855
1.00766
1.00637
1.00466
1.00264
1.00027
0.997488
0.994441
0.991322
0.988287
0.985439
0.982939
0.980755
0.978791
0.977719
1.00864
1.00774
1.00644
1.00469
1.00264
1.00023
0.997387
0.994274
0.991084
0.987981
0.985068
0.98251
0.980273
0.978268
0.977164
1.00874
1.00783
1.00652
1.00474
1.00265
1.00019
0.997291
0.99411
0.990848
0.987674
0.984695
0.982078
0.979788
0.97774
0.976603
1.00884
1.00793
1.00659
1.00479
1.00266
1.00015
0.997196
0.993946
0.990611
0.987366
0.98432
0.981642
0.979297
0.977205
0.976035
1.00895
1.00803
1.00668
1.00484
1.00268
1.00012
0.997106
0.993785
0.990376
0.987058
0.983943
0.981203
0.978803
0.976666
0.975462
1.00906
1.00814
1.00676
1.0049
1.0027
1.0001
0.997018
0.993625
0.99014
0.986747
0.983563
0.980759
0.978303
0.97612
0.974882
1.00918
1.00825
1.00686
1.00496
1.00273
1.00008
0.996934
0.993468
0.989906
0.986437
0.983181
0.980314
0.977799
0.97557
0.974296
1.0093
1.00836
1.00695
1.00503
1.00276
1.00006
0.996852
0.993311
0.989671
0.986125
0.982797
0.979863
0.97729
0.975013
0.973702
1.00943
1.00848
1.00706
1.0051
1.00279
1.00004
0.996774
0.993158
0.989438
0.985813
0.982411
0.97941
0.976777
0.974452
0.973104
1.00956
1.00861
1.00716
1.00518
1.00283
1.00003
0.996699
0.993006
0.989205
0.985499
0.982021
0.978953
0.976258
0.973884
0.972498
1.0097
1.00874
1.00728
1.00526
1.00288
1.00003
0.996629
0.992858
0.988973
0.985185
0.981631
0.978493
0.975736
0.973312
0.971887
1.00984
1.00887
1.0074
1.00535
1.00293
1.00003
0.99656
0.99271
0.988741
0.98487
0.981237
0.978028
0.975208
0.972733
0.971268
1.00999
1.00901
1.00752
1.00545
1.00299
1.00004
0.996497
0.992566
0.988511
0.984554
0.980842
0.977561
0.974677
0.97215
0.970645
1.01014
1.00916
1.00765
1.00555
1.00305
1.00005
0.996436
0.992422
0.98828
0.984237
0.980443
0.977088
0.974139
0.97156
0.970013
1.0103
1.00931
1.00779
1.00566
1.00312
1.00006
0.996381
0.992283
0.988051
0.98392
0.980043
0.976614
0.973598
0.970966
0.969378
1.01047
1.00947
1.00793
1.00577
1.00319
1.00008
0.996328
0.992144
0.987822
0.983601
0.97964
0.976134
0.973051
0.970364
0.968734
1.01064
1.00964
1.00808
1.00589
1.00327
1.0001
0.996279
0.99201
0.987595
0.983282
0.979235
0.975653
0.972501
0.969759
0.968086
1.01082
1.00981
1.00823
1.00601
1.00336
1.00013
0.996234
0.991876
0.987367
0.982961
0.978827
0.975166
0.971944
0.969147
0.967429
1.011
1.00998
1.00839
1.00614
1.00345
1.00017
0.996194
0.991746
0.987142
0.982641
0.978418
0.974677
0.971385
0.968531
0.966769
1.01119
1.01017
1.00856
1.00628
1.00354
1.00021
0.996156
0.991617
0.986916
0.982318
0.978005
0.974183
0.970819
0.967908
0.9661
1.01138
1.01036
1.00873
1.00642
1.00365
1.00025
0.996123
0.991492
0.986692
0.981996
0.977591
0.973686
0.97025
0.967281
0.965427
1.01158
1.01055
1.00891
1.00657
1.00375
1.0003
0.996094
0.991368
0.986468
0.981672
0.977173
0.973184
0.969675
0.966647
0.964746
1.01179
1.01075
1.00909
1.00673
1.00387
1.00036
0.996069
0.991248
0.986245
0.981348
0.976754
0.97268
0.969097
0.96601
0.964062
1.01201
1.01096
1.00928
1.00689
1.00399
1.00042
0.996047
0.991129
0.986022
0.981021
0.976331
0.972171
0.968512
0.965365
0.963369
1.01223
1.01118
1.00948
1.00706
1.00412
1.00048
0.996031
0.991014
0.985801
0.980695
0.975906
0.97166
0.967925
0.964717
0.962673
1.01246
1.0114
1.00968
1.00723
1.00425
1.00055
0.996017
0.9909
0.98558
0.980367
0.975478
0.971143
0.967331
0.964062
0.961969
1.01269
1.01162
1.00989
1.00741
1.00439
1.00063
0.996008
0.990789
0.98536
0.980039
0.975049
0.970624
0.966734
0.963404
0.961261
1.01293
1.01186
1.01011
1.0076
1.00453
1.00071
0.996002
0.99068
0.985139
0.979708
0.974615
0.970099
0.96613
0.962738
0.960545
1.01318
1.0121
1.01033
1.00779
1.00468
1.0008
0.996001
0.990573
0.98492
0.979377
0.97418
0.969572
0.965524
0.96207
0.959827
1.01344
1.01235
1.01056
1.00799
1.00484
1.00089
0.996002
0.990468
0.984701
0.979044
0.973741
0.96904
0.964912
0.961394
0.9591
1.0137
1.0126
1.0108
1.0082
1.005
1.00098
0.996008
0.990366
0.984482
0.97871
0.9733
0.968505
0.964297
0.960716
0.958371
1.01397
1.01286
1.01104
1.00841
1.00517
1.00108
0.996017
0.990265
0.984263
0.978374
0.972855
0.967965
0.963675
0.96003
0.957633
1.01425
1.01313
1.01129
1.00863
1.00534
1.00119
0.99603
0.990167
0.984045
0.978037
0.972409
0.967422
0.963051
0.959342
0.956893
1.01453
1.01341
1.01154
1.00886
1.00552
1.0013
0.996046
0.990069
0.983826
0.977698
0.971957
0.966874
0.96242
0.958647
0.956145
1.01482
1.01369
1.01181
1.00909
1.00571
1.00142
0.996066
0.989975
0.983608
0.977357
0.971504
0.966323
0.961787
0.95795
0.955396
1.01512
1.01398
1.01207
1.00933
1.0059
1.00154
0.996088
0.98988
0.983389
0.977014
0.971047
0.965767
0.961147
0.957245
0.954638
1.01543
1.01428
1.01235
1.00957
1.00609
1.00166
0.996114
0.989788
0.98317
0.97667
0.970587
0.965208
0.960505
0.956539
0.953879
1.01575
1.01458
1.01263
1.00982
1.00629
1.00179
0.996142
0.989697
0.982949
0.976322
0.970123
0.964643
0.959856
0.955825
0.953111
1.01607
1.01489
1.01292
1.01008
1.0065
1.00192
0.996174
0.989607
0.982729
0.975973
0.969656
0.964075
0.959205
0.95511
0.952343
1.01641
1.01521
1.01321
1.01034
1.00671
1.00206
0.996207
0.989517
0.982507
0.975621
0.969184
0.963502
0.958548
0.954388
0.951567
1.01675
1.01554
1.01351
1.0106
1.00693
1.0022
0.996243
0.989428
0.982284
0.975266
0.96871
0.962925
0.957888
0.953664
0.950791
1.01709
1.01587
1.01382
1.01088
1.00715
1.00234
0.996281
0.989339
0.98206
0.974908
0.968231
0.962343
0.957222
0.952934
0.950006
1.01745
1.01621
1.01413
1.01115
1.00737
1.00249
0.996321
0.989251
0.981834
0.974548
0.967748
0.961758
0.956553
0.952202
0.949222
1.01782
1.01656
1.01445
1.01143
1.0076
1.00263
0.996361
0.989162
0.981606
0.974183
0.96726
0.961166
0.955878
0.951464
0.94843
1.01819
1.01692
1.01477
1.01172
1.00783
1.00279
0.996404
0.989073
0.981376
0.973815
0.966769
0.960572
0.9552
0.950724
0.947639
1.01857
1.01728
1.0151
1.01201
1.00807
1.00294
0.996447
0.988983
0.981143
0.973443
0.966271
0.959971
0.954516
0.949978
0.94684
1.01896
1.01765
1.01544
1.01231
1.00831
1.0031
0.996491
0.988892
0.980908
0.973067
0.965771
0.959366
0.95383
0.949231
0.946042
1.01936
1.01803
1.01578
1.01261
1.00855
1.00326
0.996535
0.988799
0.980669
0.972686
0.965263
0.958755
0.953137
0.948478
0.945237
1.01977
1.01842
1.01613
1.01292
1.0088
1.00342
0.996579
0.988705
0.980428
0.972301
0.964752
0.95814
0.952441
0.947724
0.944434
1.02019
1.01881
1.01648
1.01323
1.00905
1.00358
0.996622
0.988608
0.980181
0.97191
0.964233
0.957518
0.95174
0.946965
0.943624
1.02062
1.01921
1.01684
1.01354
1.0093
1.00374
0.996664
0.988509
0.979931
0.971515
0.96371
0.956892
0.951035
0.946204
0.942815
1.02105
1.01962
1.0172
1.01386
1.00955
1.0039
0.996705
0.988405
0.979676
0.971112
0.963179
0.956259
0.950325
0.945438
0.942001
1.0215
1.02004
1.01757
1.01418
1.00981
1.00406
0.996744
0.988299
0.979416
0.970704
0.962643
0.955622
0.949611
0.944671
0.941189
1.02195
1.02046
1.01795
1.0145
1.01006
1.00423
0.996781
0.988188
0.979149
0.970289
0.962099
0.954977
0.948891
0.943899
0.940371
1.02241
1.02089
1.01833
1.01482
1.01032
1.00439
0.996815
0.988073
0.978877
0.969867
0.961549
0.954327
0.948168
0.943127
0.939556
1.02289
1.02133
1.01871
1.01515
1.01058
1.00454
0.996845
0.987952
0.978598
0.969437
0.96099
0.953669
0.947438
0.942349
0.938736
1.02337
1.02177
1.0191
1.01548
1.01083
1.0047
0.996872
0.987826
0.978312
0.968999
0.960424
0.953006
0.946705
0.941572
0.93792
1.02386
1.02223
1.01949
1.01581
1.01109
1.00486
0.996893
0.987692
0.978017
0.968552
0.959849
0.952334
0.945966
0.940789
0.937098
1.02436
1.02269
1.01989
1.01615
1.01134
1.00501
0.99691
0.987552
0.977714
0.968096
0.959265
0.951656
0.945223
0.940007
0.936282
1.02488
1.02316
1.02029
1.01648
1.0116
1.00516
0.996921
0.987404
0.977401
0.96763
0.958672
0.950969
0.944473
0.93922
0.935461
1.0254
1.02364
1.02069
1.01681
1.01185
1.0053
0.996926
0.987248
0.977079
0.967154
0.958069
0.950275
0.94372
0.938434
0.934646
1.02593
1.02412
1.0211
1.01715
1.0121
1.00544
0.996922
0.987082
0.976746
0.966666
0.957455
0.949571
0.942959
0.937643
0.933827
1.02647
1.02461
1.02151
1.01749
1.01235
1.00557
0.996913
0.986907
0.976402
0.966167
0.956832
0.94886
0.942195
0.936853
0.933015
1.02702
1.02512
1.02192
1.01782
1.01259
1.0057
0.996893
0.98672
0.976046
0.965655
0.956196
0.948139
0.941424
0.936059
0.932199
1.02759
1.02562
1.02234
1.01816
1.01284
1.00582
0.996866
0.986523
0.975677
0.965131
0.955548
0.947409
0.940648
0.935267
0.931392
1.02816
1.02614
1.02277
1.01849
1.01307
1.00594
0.996828
0.986312
0.975294
0.964592
0.954887
0.946669
0.939865
0.93447
0.930582
1.02874
1.02666
1.02319
1.01883
1.01331
1.00604
0.99678
0.98609
0.974897
0.964039
0.954214
0.945919
0.939077
0.933676
0.929782
1.02934
1.0272
1.02362
1.01916
1.01353
1.00614
0.996719
0.985852
0.974484
0.963471
0.953526
0.945157
0.938282
0.932878
0.92898
1.02994
1.02774
1.02405
1.01949
1.01376
1.00623
0.996648
0.985601
0.974056
0.962886
0.952824
0.944385
0.937481
0.932082
0.928189
1.03056
1.02829
1.02448
1.01982
1.01398
1.00631
0.996563
0.985333
0.973609
0.962284
0.952107
0.9436
0.936673
0.931284
0.927397
1.03118
1.02884
1.02492
1.02015
1.01419
1.00638
0.996465
0.98505
0.973146
0.961665
0.951373
0.942804
0.93586
0.930489
0.926617
1.03182
1.02941
1.02536
1.02047
1.01439
1.00644
0.996351
0.984748
0.972662
0.961027
0.950623
0.941995
0.935039
0.929692
0.925837
1.03247
1.02999
1.02581
1.0208
1.01459
1.00649
0.996224
0.984429
0.97216
0.960369
0.949855
0.941172
0.934213
0.928898
0.92507
1.03313
1.03057
1.02625
1.02112
1.01479
1.00653
0.996079
0.984089
0.971635
0.95969
0.949069
0.940336
0.933379
0.928104
0.924303
1.0338
1.03116
1.0267
1.02144
1.01497
1.00656
0.995919
0.98373
0.97109
0.95899
0.948264
0.939486
0.93254
0.927314
0.92355
1.03448
1.03176
1.02715
1.02176
1.01515
1.00657
0.995739
0.983349
0.97052
0.958267
0.947439
0.938621
0.931694
0.926524
0.922798
1.03518
1.03237
1.02761
1.02207
1.01532
1.00657
0.995543
0.982947
0.969928
0.957521
0.946593
0.937742
0.930843
0.925739
0.922062
1.03588
1.03299
1.02806
1.02238
1.01548
1.00655
0.995325
0.982519
0.969309
0.95675
0.945725
0.936848
0.929986
0.924956
0.921329
1.0366
1.03362
1.02853
1.02269
1.01564
1.00652
0.995089
0.982069
0.968665
0.955954
0.944836
0.935939
0.929124
0.924179
0.920613
1.03733
1.03425
1.02899
1.023
1.01578
1.00648
0.99483
0.981592
0.967992
0.95513
0.943923
0.935014
0.928257
0.923404
0.919901
1.03807
1.0349
1.02946
1.02331
1.01592
1.00642
0.994551
0.98109
0.967292
0.954279
0.942987
0.934074
0.927385
0.922636
0.919208
1.03882
1.03555
1.02993
1.02361
1.01605
1.00635
0.994247
0.980558
0.966561
0.953399
0.942026
0.933119
0.926509
0.921871
0.91852
1.03958
1.03622
1.0304
1.02391
1.01617
1.00626
0.993922
0.98
0.9658
0.95249
0.941041
0.932148
0.925629
0.921114
0.91785
1.04035
1.0369
1.03088
1.02421
1.01628
1.00615
0.99357
0.97941
0.965006
0.951548
0.94003
0.931162
0.924746
0.920361
0.917186
1.04114
1.03758
1.03136
1.02451
1.01639
1.00602
0.993196
0.978791
0.96418
0.950576
0.938994
0.930162
0.923859
0.919615
0.916541
1.04193
1.03827
1.03185
1.0248
1.01648
1.00588
0.992792
0.978137
0.963318
0.94957
0.937932
0.929147
0.922971
0.918873
0.915899
1.04274
1.03898
1.03234
1.0251
1.01657
1.00572
0.992364
0.977452
0.962421
0.948532
0.936845
0.928118
0.922079
0.918138
0.915275
1.04356
1.03969
1.03283
1.02539
1.01664
1.00554
0.991905
0.97673
0.961486
0.947458
0.935731
0.927075
0.921186
0.917408
0.914653
1.04439
1.04042
1.03334
1.02569
1.01672
1.00535
0.99142
0.975975
0.960514
0.94635
0.934592
0.926018
0.920289
0.916684
0.914047
1.04523
1.04115
1.03384
1.02598
1.01678
1.00513
0.990901
0.97518
0.959501
0.945206
0.933427
0.924949
0.919393
0.915963
0.913442
1.04608
1.0419
1.03436
1.02628
1.01683
1.00489
0.990355
0.974349
0.95845
0.944027
0.932236
0.923865
0.918492
0.915248
0.91285
1.04694
1.04266
1.03488
1.02658
1.01688
1.00464
0.989773
0.973475
0.957355
0.942811
0.931019
0.922771
0.917591
0.914536
0.912259
1.04781
1.04342
1.03541
1.02688
1.01692
1.00436
0.989162
0.972564
0.95622
0.941559
0.929777
0.921662
0.916686
0.913829
0.91168
1.0487
1.0442
1.03594
1.02718
1.01695
1.00406
0.988513
0.971606
0.95504
0.94027
0.92851
0.920542
0.915781
0.913124
0.9111
1.04959
1.04499
1.03648
1.02749
1.01698
1.00374
0.987832
0.970609
0.953818
0.938944
0.927217
0.919407
0.914871
0.912423
0.91053
1.05049
1.04579
1.03704
1.0278
1.01699
1.0034
0.98711
0.969563
0.952549
0.93758
0.9259
0.918263
0.91396
0.911723
0.909959
1.0514
1.0466
1.0376
1.02812
1.017
1.00304
0.986354
0.968475
0.951237
0.93618
0.924557
0.917103
0.913043
0.911025
0.909395
1.05232
1.04743
1.03817
1.02843
1.01701
1.00264
0.985554
0.967336
0.949877
0.934742
0.92319
0.915932
0.912126
0.910328
0.908828
1.05325
1.04826
1.03876
1.02876
1.01701
1.00223
0.984719
0.966152
0.948473
0.933267
0.921797
0.914746
0.911201
0.909632
0.908268
1.05419
1.04911
1.03935
1.0291
1.017
1.00179
0.983837
0.964915
0.94702
0.931755
0.92038
0.913548
0.910275
0.908936
0.907703
1.05513
1.04997
1.03997
1.02944
1.01698
1.00133
0.982916
0.963632
0.945522
0.930205
0.918936
0.912334
0.909341
0.90824
0.907143
1.05609
1.05084
1.04059
1.02979
1.01696
1.00083
0.981945
0.962293
0.943974
0.928617
0.917468
0.911108
0.908404
0.907543
0.906577
1.05705
1.05172
1.04123
1.03016
1.01693
1.00031
0.980934
0.960905
0.942381
0.926993
0.915971
0.909864
0.907459
0.906845
0.906014
1.05801
1.05262
1.04188
1.03053
1.0169
0.999757
0.979869
0.95946
0.940736
0.92533
0.914451
0.908607
0.90651
0.906145
0.905443
1.05899
1.05353
1.04256
1.03092
1.01686
0.999177
0.97876
0.957965
0.939047
0.923629
0.912901
0.90733
0.905551
0.905443
0.904875
1.05997
1.05446
1.04325
1.03131
1.01681
0.998558
0.977595
0.95641
0.937306
0.921889
0.911326
0.906041
0.904589
0.904739
0.904297
1.06096
1.0554
1.04396
1.03173
1.01675
0.99791
0.976382
0.954804
0.935519
0.920111
0.909721
0.90473
0.903616
0.904033
0.903719
1.06195
1.05635
1.04469
1.03215
1.01668
0.99722
0.975109
0.953136
0.93368
0.918294
0.908089
0.903406
0.902638
0.903323
0.903131
1.06295
1.05732
1.04545
1.03259
1.01661
0.996497
0.973786
0.951415
0.931795
0.916438
0.906424
0.902058
0.90165
0.902611
0.902541
1.06396
1.05831
1.04623
1.03305
1.01652
0.995727
0.972399
0.949631
0.929857
0.914541
0.904733
0.900697
0.900657
0.901896
0.901939
1.06497
1.05932
1.04703
1.03352
1.01642
0.99492
0.970957
0.947793
0.927873
0.912604
0.903007
0.899311
0.899652
0.901177
0.901334
1.06599
1.06034
1.04786
1.03401
1.01631
0.994061
0.969448
0.94589
0.925836
0.910626
0.901253
0.89791
0.898643
0.900454
0.900714
1.06701
1.06138
1.04873
1.03451
1.01618
0.993159
0.96788
0.943931
0.923751
0.908606
0.899464
0.896485
0.897622
0.899729
0.900091
1.06804
1.06245
1.04961
1.03503
1.01603
0.9922
0.966241
0.941907
0.921613
0.906545
0.897645
0.895043
0.896597
0.898999
0.899452
1.06907
1.06353
1.05054
1.03557
1.01586
0.99119
0.964538
0.939824
0.919427
0.90444
0.895789
0.893577
0.895561
0.898267
0.898807
1.07011
1.06464
1.05149
1.03611
1.01566
0.990116
0.962761
0.937676
0.917188
0.902292
0.893902
0.892094
0.894521
0.89753
0.898144
1.07116
1.06577
1.05249
1.03668
1.01545
0.988984
0.960915
0.935467
0.9149
0.9001
0.891977
0.890587
0.893471
0.896792
0.897474
1.07221
1.06693
1.05351
1.03726
1.01519
0.987779
0.958989
0.933192
0.912559
0.897864
0.89002
0.889064
0.892417
0.896049
0.896782
1.07328
1.06812
1.05458
1.03785
1.0149
0.986508
0.95699
0.930855
0.910168
0.895581
0.888024
0.887516
0.891356
0.895307
0.896082
1.07435
1.06934
1.05569
1.03844
1.01457
0.985155
0.954908
0.92845
0.907724
0.893254
0.885995
0.885954
0.890292
0.89456
0.895358
1.07544
1.0706
1.05684
1.03905
1.0142
0.983724
0.952746
0.925983
0.905228
0.890878
0.883925
0.884369
0.889223
0.893815
0.894623
1.07654
1.07189
1.05803
1.03966
1.01377
0.982202
0.950495
0.923447
0.90268
0.888457
0.881821
0.88277
0.888152
0.893066
0.893863
1.07765
1.07322
1.05927
1.04028
1.01329
0.98059
0.94816
0.920848
0.90008
0.885985
0.879677
0.881151
0.88708
0.892323
0.893092
1.07878
1.07459
1.06054
1.04089
1.01273
0.978876
0.945732
0.91818
0.897425
0.883465
0.877499
0.879521
0.886009
0.891577
0.892293
1.07993
1.07601
1.06187
1.04149
1.01211
0.977059
0.943212
0.915447
0.894718
0.880894
0.87528
0.877874
0.884941
0.890839
0.89148
1.08111
1.07747
1.06324
1.04209
1.0114
0.975127
0.940595
0.912645
0.891955
0.878273
0.873027
0.876218
0.883878
0.8901
0.890639
1.08231
1.07899
1.06467
1.04266
1.0106
0.973077
0.93788
0.909776
0.889137
0.875597
0.870735
0.874551
0.882823
0.889374
0.889782
1.08354
1.08056
1.06613
1.04321
1.0097
0.970898
0.935063
0.906838
0.886262
0.872871
0.868408
0.872878
0.881778
0.888648
0.888895
1.0848
1.0822
1.06765
1.04374
1.00869
0.968587
0.932144
0.903832
0.88333
0.870087
0.866045
0.871202
0.88075
0.887939
0.887994
1.0861
1.0839
1.06921
1.04422
1.00756
0.966131
0.929116
0.900756
0.880339
0.867251
0.863649
0.869525
0.879736
0.887234
0.887059
1.08745
1.08567
1.07083
1.04465
1.00629
0.963526
0.925981
0.89761
0.877288
0.864355
0.861219
0.867854
0.878747
0.88655
0.88611
1.08884
1.08751
1.07248
1.04502
1.00487
0.960761
0.922735
0.894395
0.874175
0.861404
0.858761
0.866189
0.877781
0.885873
0.885124
1.09029
1.08944
1.07418
1.04533
1.00329
0.95783
0.919376
0.891107
0.870997
0.858393
0.856273
0.864539
0.87685
0.885222
0.884122
1.0918
1.09145
1.07592
1.04555
1.00153
0.954723
0.915902
0.887749
0.867754
0.855325
0.853761
0.862905
0.87595
0.884581
0.883082
1.09338
1.09356
1.0777
1.04568
0.999583
0.951436
0.912313
0.884318
0.864442
0.852196
0.851228
0.861299
0.875097
0.883972
0.882023
1.09504
1.09576
1.07951
1.04569
0.997427
0.947956
0.908607
0.880814
0.86106
0.84901
0.848678
0.85972
0.874284
0.883376
0.880924
1.09677
1.09807
1.08136
1.04558
0.995049
0.944281
0.904784
0.877234
0.857604
0.845762
0.846116
0.858182
0.873529
0.882815
0.879804
1.0986
1.10049
1.08322
1.04532
0.992431
0.940402
0.900845
0.87358
0.854074
0.842458
0.843546
0.856686
0.872826
0.882269
0.878639
1.10053
1.10303
1.0851
1.0449
0.989559
0.936316
0.896788
0.869848
0.850464
0.839095
0.840978
0.855248
0.872193
0.881762
0.877448
1.10257
1.1057
1.08699
1.0443
0.986416
0.932016
0.892618
0.866039
0.846774
0.835679
0.838417
0.853867
0.871622
0.881271
0.876206
1.10474
1.1085
1.08888
1.0435
0.982987
0.927502
0.888334
0.862148
0.843
0.832209
0.835872
0.852561
0.871131
0.880818
0.87493
1.10703
1.11144
1.09075
1.04247
0.979255
0.92277
0.883941
0.858177
0.839141
0.828691
0.83335
0.85133
0.870711
0.880378
0.873593
1.10947
1.11454
1.09259
1.04119
0.975209
0.917824
0.87944
0.85412
0.835193
0.825129
0.830866
0.850193
0.870382
0.879974
0.872212
1.11206
1.11778
1.09439
1.03964
0.970834
0.912662
0.874838
0.849979
0.831157
0.82153
0.828425
0.849149
0.870129
0.879578
0.870758
1.11483
1.12118
1.09613
1.03779
0.96612
0.907293
0.870136
0.845749
0.827031
0.817901
0.826044
0.848218
0.869971
0.879209
0.869245
1.11778
1.12475
1.09779
1.03562
0.961058
0.901721
0.865343
0.841429
0.822815
0.814251
0.823732
0.847396
0.869892
0.878838
0.867643
1.12093
1.12848
1.09935
1.03311
0.955641
0.895959
0.860461
0.837016
0.818513
0.810591
0.821507
0.846705
0.869908
0.878479
0.86596
1.1243
1.13238
1.10078
1.03022
0.949865
0.890016
0.8555
0.83251
0.814127
0.806934
0.819377
0.846137
0.87
0.878101
0.864168
1.1279
1.13646
1.10206
1.02693
0.94373
0.883909
0.850464
0.827908
0.809666
0.803296
0.817365
0.845712
0.870178
0.877714
0.86227
1.13175
1.14069
1.10316
1.02322
0.937238
0.877655
0.845363
0.823214
0.805137
0.799696
0.815477
0.845419
0.870417
0.877282
0.860234
1.13588
1.14509
1.10403
1.01906
0.930397
0.871276
0.840201
0.818429
0.800557
0.796156
0.813738
0.845274
0.870724
0.876808
0.858063
1.14029
1.14964
1.10464
1.01442
0.923217
0.864793
0.834988
0.81356
0.795944
0.792701
0.812156
0.845261
0.871067
0.876253
0.855722
1.14501
1.15433
1.10496
1.00929
0.915714
0.85823
0.829731
0.808617
0.791327
0.789361
0.810753
0.845391
0.871444
0.875613
0.853207
1.15006
1.15912
1.10493
1.00364
0.907907
0.85161
0.824436
0.803615
0.786737
0.78617
0.809535
0.845639
0.871817
0.874844
0.850484
1.15546
1.16402
1.10451
0.997461
0.89982
0.84496
0.819113
0.798577
0.782222
0.78317
0.808527
0.846009
0.872174
0.873934
0.847546
1.16123
1.16897
1.10364
0.990726
0.89148
0.838298
0.813766
0.793537
0.777835
0.780404
0.807731
0.846467
0.872468
0.872835
0.844355
1.16739
1.17394
1.10227
0.983426
0.882918
0.831641
0.808403
0.788536
0.773648
0.777926
0.807167
0.847007
0.872677
0.871529
0.840901
1.17396
1.17887
1.10032
0.97555
0.874166
0.824998
0.803028
0.783631
0.769742
0.775791
0.806838
0.847586
0.872746
0.869962
0.837151
1.18095
1.18371
1.09775
0.967093
0.865256
0.818367
0.797646
0.778894
0.766218
0.774067
0.806757
0.848187
0.872644
0.868111
0.833093
1.18838
1.18838
1.09447
0.958054
0.856218
0.811733
0.792264
0.774412
0.763184
0.772815
0.806921
0.848759
0.87231
0.865926
0.828699
1.19627
1.19282
1.09042
0.948439
0.84708
0.805067
0.786888
0.770286
0.76076
0.772104
0.807337
0.849275
0.871713
0.863385
0.823965
1.20459
1.19691
1.08553
0.938257
0.837858
0.798324
0.781538
0.766636
0.759062
0.771986
0.80799
0.849682
0.870795
0.860448
0.81888
1.21338
1.20056
1.07972
0.927525
0.828561
0.791454
0.776254
0.763579
0.758181
0.772496
0.80887
0.849956
0.869541
0.857117
0.813464
1.2226
1.20365
1.07293
0.916254
0.819168
0.784424
0.77114
0.761241
0.758139
0.773589
0.809922
0.850057
0.867936
0.853404
0.807756
1.23225
1.20605
1.0651
0.904447
0.809623
0.777247
0.766415
0.759752
0.758854
0.775102
0.811028
0.849949
0.866013
0.849382
0.801856