/*--------------------------------*- C++ -*----------------------------------*\
  =========                 |
  \\      /  F ield         | OpenFOAM: The Open Source CFD Toolbox
   \\    /   O peration     | Website:  https://openfoam.org
    \\  /    A nd           | Version:  6.0
     \\/     M anipulation  |
\*---------------------------------------------------------------------------*/
FoamFile
{
    version     2.0;
    format      ascii;
    class       surfaceScalarField;
    location    "19";
    object      phi;
}
// * * * * * * * * * * * * * * * * * * * * * * * * * * * * * * * * * * * * * //

dimensions      [0 3 -1 0 0 0 0];

internalField   nonuniform List<scalar> 
68636
(
3.72179e-05
0.00309866
-2.89134e-08
7.48712e-05
0.00306378
0.000112115
0.0029956
0.000148331
0.00289451
0.000183006
0.00276166
0.000215698
0.00259861
0.000246049
0.00240705
0.000273697
0.00218919
0.000298331
0.00194748
0.000319661
0.0016846
0.000337452
0.00140323
0.00035151
0.00110621
0.000361763
0.000796964
0.00036783
0.000478656
0.000147038
0.000364852
3.67593e-05
0.00306191
-1.55797e-08
7.39749e-05
0.00302657
0.000110795
0.00295879
0.000146592
0.00285874
0.000180856
0.00272744
0.000213155
0.00256635
0.000243142
0.00237713
0.000270459
0.00216193
0.000294796
0.0019232
0.000315867
0.00166357
0.000333444
0.0013857
0.000347322
0.00109238
0.000357523
0.000786821
0.000363058
0.000473189
0.000148854
0.000361377
3.63139e-05
0.0030256
2.17935e-09
7.3106e-05
0.00298978
0.000109504
0.0029224
0.000144877
0.00282337
0.000178729
0.0026936
0.000210641
0.00253444
0.000240271
0.00234751
0.00026726
0.00213494
0.000291303
0.00189917
0.000312117
0.00164275
0.000329485
0.00136833
0.000343182
0.00107867
0.000353229
0.000776758
0.000358989
0.000467398
0.000149195
0.000358545
3.58831e-05
0.0029897
1.74455e-08
7.22571e-05
0.00295341
0.00010823
0.00288643
0.000143178
0.00278843
0.000176623
0.00266017
0.000208155
0.00250292
0.000237432
0.00231826
0.000264095
0.0021083
0.000287846
0.00187545
0.000308406
0.00162221
0.000325567
0.0013512
0.000339091
0.00106516
0.000348956
0.00076692
0.000354745
0.000461638
0.000149173
0.000354833
3.54639e-05
0.0029542
3.30572e-08
7.14214e-05
0.00291745
0.000106968
0.00285088
0.000141493
0.0027539
0.000174537
0.00262714
0.000205697
0.00247175
0.000234625
0.00228933
0.000260967
0.00208194
0.000284429
0.00185198
0.000304737
0.00160188
0.000321691
0.00133423
0.000335051
0.00105179
0.00034474
0.000757213
0.00035046
0.000455886
0.000148552
0.000350975
3.50526e-05
0.00291911
4.1859e-08
7.05938e-05
0.00288191
0.000105715
0.00281576
0.000139823
0.00271979
0.000172472
0.00259449
0.000203266
0.00244096
0.000231851
0.00226076
0.000257875
0.00205593
0.000281051
0.00182882
0.000301112
0.00158183
0.000317862
0.0013175
0.000331066
0.00103859
0.000340595
0.000747698
0.000346251
0.000450244
0.000147717
0.000347124
3.46465e-05
0.00288442
4.39659e-08
6.97718e-05
0.00284679
0.000104471
0.00278106
0.000138167
0.0026861
0.00017043
0.00256223
0.000200862
0.00241052
0.000229108
0.00223251
0.00025482
0.0020302
0.000277714
0.00180592
0.000297532
0.001562
0.000314081
0.00130094
0.000327132
0.00102553
0.000336523
0.000738292
0.000342115
0.000444624
0.000146537
0.000343197
3.42439e-05
0.00285014
3.92755e-08
6.89549e-05
0.00281208
0.000103237
0.00274678
0.000136528
0.0026528
0.000168409
0.00253035
0.000198484
0.00238045
0.000226395
0.00220461
0.000251797
0.00200481
0.000274415
0.00178331
0.000293994
0.00154243
0.000310344
0.0012846
0.000323246
0.00101263
0.000332515
0.000729033
0.000338041
0.000439105
0.000145372
0.000339234
3.38441e-05
0.00281627
2.74697e-08
6.81433e-05
0.00277778
0.000102014
0.00271291
0.000134908
0.00261991
0.000166413
0.00249885
0.000196132
0.00235072
0.00022371
0.00217703
0.000248806
0.0019797
0.000271151
0.00176097
0.000290496
0.00152307
0.000306649
0.00126844
0.000319404
0.000999863
0.000328563
0.000719862
0.000334032
0.000433612
0.000143998
0.000335318
3.34466e-05
0.00278281
1.34268e-08
6.73376e-05
0.00274389
0.000100804
0.00267944
0.000133307
0.0025874
0.00016444
0.00246772
0.000193807
0.00232135
0.000221053
0.00214979
0.000245846
0.00195491
0.000267923
0.0017389
0.000287037
0.00150396
0.000302998
0.00125248
0.000315605
0.000987263
0.000324659
0.000710816
0.000330083
0.000428193
0.000142616
0.000331488
3.30514e-05
0.00274976
1.15022e-10
6.65387e-05
0.0027104
9.96076e-05
0.00264637
0.000131727
0.00255528
0.000162492
0.00243696
0.000191508
0.00229233
0.000218426
0.00212287
0.000242919
0.00193041
0.000264731
0.00171708
0.000283619
0.00148506
0.00029939
0.00123671
0.000311852
0.000974792
0.000320803
0.000701855
0.000326188
0.000422788
0.000140998
0.000327726
3.26588e-05
0.00271711
-8.41236e-09
6.57474e-05
0.00267732
9.84252e-05
0.00261369
0.000130167
0.00252354
0.000160567
0.00240656
0.000189236
0.00226366
0.000215828
0.00209628
0.000240026
0.00190622
0.000261577
0.00169554
0.000280243
0.0014664
0.000295828
0.00122113
0.000308145
0.000962482
0.000316995
0.000693012
0.000322338
0.000417448
0.000139353
0.000324004
3.22694e-05
0.00268485
-9.43263e-09
6.49644e-05
0.00264462
9.72571e-05
0.0025814
0.000128626
0.00249217
0.000158666
0.00237653
0.000186989
0.00223533
0.00021326
0.00207001
0.000237167
0.0018823
0.000258462
0.00167424
0.000276909
0.00144795
0.000292312
0.00120572
0.000304486
0.0009503
0.000313236
0.000684255
0.000318533
0.000412134
0.00013752
0.000320295
3.18837e-05
0.00265297
-3.44547e-09
6.41905e-05
0.00261232
9.61029e-05
0.00254949
0.000127103
0.00246117
0.000156786
0.00234684
0.000184769
0.00220735
0.000210722
0.00204406
0.000234342
0.00185869
0.000255386
0.0016532
0.000273619
0.00142972
0.000288843
0.0011905
0.000300877
0.000938275
0.000309528
0.000675611
0.00031477
0.000406894
0.000135719
0.000316591
3.15021e-05
0.00262146
8.26296e-09
6.34259e-05
0.00258039
9.49626e-05
0.00251795
0.000125597
0.00243054
0.000154927
0.00231752
0.000182573
0.0021797
0.000208213
0.00201842
0.000231552
0.00183534
0.000252349
0.00163241
0.000270371
0.00141169
0.00028542
0.00117545
0.000297315
0.000926373
0.00030587
0.00066705
0.000311054
0.000401694
0.000133814
0.000312894
3.1125e-05
0.00259031
2.25997e-08
6.26707e-05
0.00254885
9.38355e-05
0.00248679
0.000124108
0.00240026
0.000153088
0.00228854
0.000180401
0.00215239
0.000205733
0.00199309
0.000228797
0.00181228
0.000249351
0.00161186
0.000267166
0.00139388
0.000282042
0.00116058
0.000293802
0.00091462
0.000302262
0.000658597
0.000307383
0.000396575
0.000132002
0.000309215
3.07527e-05
0.00255952
3.62203e-08
6.19247e-05
0.00251768
9.27212e-05
0.00245599
0.000122635
0.00237035
0.000151268
0.00225991
0.000178253
0.0021254
0.000203283
0.00196806
0.000226075
0.00178949
0.000246391
0.00159154
0.000264002
0.00137626
0.000278708
0.00114587
0.000290335
0.000902989
0.000298702
0.000650225
0.000303761
0.000391502
0.00013014
0.000305564
3.03851e-05
0.00252909
4.67146e-08
6.11878e-05
0.00248687
9.16193e-05
0.00242556
0.000121177
0.00234079
0.000149467
0.00223162
0.000176129
0.00209874
0.000200862
0.00194333
0.000223388
0.00176696
0.00024347
0.00157146
0.00026088
0.00135886
0.000275419
0.00113133
0.000286913
0.000891503
0.000295189
0.000641955
0.000300185
0.000386508
0.000128393
0.000301951
3.00224e-05
0.00249902
5.21747e-08
6.04596e-05
0.00245644
9.05295e-05
0.00239549
0.000119735
0.00231159
0.000147686
0.00220367
0.00017403
0.00207239
0.00019847
0.00191889
0.000220734
0.0017447
0.000240586
0.00155161
0.000257798
0.00134164
0.000272171
0.00111696
0.000283535
0.000880135
0.000291721
0.000633765
0.000296657
0.000381558
0.000126613
0.000298383
2.96643e-05
0.0024693
5.23065e-08
5.97398e-05
0.00242636
8.94515e-05
0.00236578
0.000118308
0.00228273
0.000145925
0.00217606
0.000171955
0.00204636
0.000196108
0.00189474
0.000218115
0.00172269
0.00023774
0.00153199
0.000254756
0.00132463
0.000268966
0.00110275
0.0002802
0.000868908
0.000288296
0.000625675
0.000293174
0.000376681
0.000124943
0.000294862
2.93106e-05
0.00243994
4.76631e-08
5.90281e-05
0.00239664
8.83854e-05
0.00233642
0.000116897
0.00225422
0.000144183
0.00214877
0.000169906
0.00202064
0.000193777
0.00187087
0.000215531
0.00170094
0.000234931
0.00151259
0.000251754
0.0013078
0.000265802
0.0010887
0.000276908
0.000857799
0.000284914
0.000617666
0.000289735
0.000371846
0.000123241
0.000291389
2.89613e-05
0.00241095
3.97519e-08
5.83245e-05
0.00236728
8.73311e-05
0.00230742
0.000115501
0.00222605
0.000142463
0.00212181
0.000167882
0.00199522
0.000191476
0.00184728
0.00021298
0.00167943
0.000232159
0.00149342
0.000248791
0.00129117
0.000262678
0.00107482
0.000273656
0.000846828
0.000281572
0.000609755
0.000286339
0.00036708
0.000121634
0.000287963
2.86161e-05
0.0023823
3.048e-08
5.76289e-05
0.00233827
8.62889e-05
0.00227876
0.000114123
0.00219822
0.000140765
0.00209517
0.000165886
0.00197009
0.000189206
0.00182396
0.000210464
0.00165817
0.000229425
0.00147445
0.000245867
0.00127473
0.000259595
0.00106109
0.000270445
0.000835975
0.000278271
0.000601926
0.000282984
0.000362354
0.000119992
0.000284583
2.82749e-05
0.002354
2.18e-08
5.69413e-05
0.0023096
8.5259e-05
0.00225044
0.000112761
0.00217071
0.000139088
0.00206885
0.000163916
0.00194527
0.000186967
0.00180091
0.000207982
0.00163716
0.000226726
0.00145571
0.00024298
0.00125848
0.00025655
0.00104753
0.000267274
0.000825257
0.00027501
0.000594195
0.000279669
0.000357694
0.000118435
0.000281245
2.79376e-05
0.00232605
1.527e-08
5.62617e-05
0.00228128
8.42416e-05
0.00222246
0.000111417
0.00214354
0.000137434
0.00204283
0.000161972
0.00192073
0.000184759
0.00177812
0.000205533
0.00161638
0.000224063
0.00143718
0.00024013
0.00124241
0.000253543
0.00103411
0.000264141
0.000814656
0.000271787
0.000586547
0.000276393
0.000353076
0.000116842
0.000277947
2.76043e-05
0.00229844
1.19509e-08
5.55905e-05
0.00225329
8.32372e-05
0.00219481
0.000110091
0.00211668
0.000135802
0.00201712
0.000160056
0.00189647
0.00018258
0.0017556
0.000203118
0.00159585
0.000221435
0.00141887
0.000237317
0.00122653
0.000250573
0.00102086
0.000261046
0.000804189
0.000268602
0.000578995
0.000273155
0.000348522
0.000115328
0.000274688
2.72749e-05
0.00227115
1.21278e-08
5.49276e-05
0.00222564
8.22458e-05
0.00216749
0.000108782
0.00209015
0.000134193
0.00199171
0.000158166
0.0018725
0.000180432
0.00173333
0.000200734
0.00157554
0.000218841
0.00140076
0.000234538
0.00121083
0.000247639
0.00100776
0.000257988
0.000793838
0.000265454
0.000571527
0.000269954
0.000344011
0.000113784
0.000271466
2.69495e-05
0.00224419
1.56167e-08
5.42733e-05
0.00219832
8.12677e-05
0.0021405
0.000107492
0.00206392
0.000132606
0.0019666
0.000156302
0.0018488
0.000178312
0.00171132
0.000198381
0.00155548
0.000216279
0.00138286
0.000231794
0.00119531
0.00024474
0.000994813
0.000254966
0.000783619
0.000262343
0.000564154
0.000266788
0.000339564
0.000112315
0.000268279
2.6628e-05
0.00221754
2.1657e-08
5.36276e-05
0.00217132
8.03029e-05
0.00211382
0.000106219
0.00203801
0.000131041
0.00194178
0.000154464
0.00182537
0.000176221
0.00168957
0.000196059
0.00153564
0.000213749
0.00136517
0.000229082
0.00117998
0.000241876
0.000982017
0.000251979
0.000773515
0.000259266
0.000556866
0.000263658
0.000335162
0.000110818
0.000265128
2.63107e-05
0.0021912
2.93874e-08
5.29906e-05
0.00214464
7.93513e-05
0.00208746
0.000104964
0.00201239
0.000129497
0.00191725
0.00015265
0.00180222
0.000174157
0.00166806
0.000193766
0.00151603
0.00021125
0.00134769
0.000226403
0.00116483
0.000239044
0.00096938
0.000249026
0.000763539
0.000256225
0.00054967
0.000260562
0.000330824
0.0001094
0.00026201
2.59974e-05
0.00216516
3.77755e-08
5.23622e-05
0.00211828
7.84129e-05
0.00206141
0.000103726
0.00198708
0.000127975
0.001893
0.000150861
0.00177933
0.000172119
0.0016468
0.000191501
0.00149665
0.000208781
0.00133041
0.000223755
0.00114985
0.000236245
0.000956888
0.000246106
0.000753678
0.000253217
0.000542559
0.000257501
0.00032653
0.00010795
0.000258926
2.56883e-05
0.00213943
4.60315e-08
5.17425e-05
0.00209222
7.74874e-05
0.00203566
0.000102506
0.00196206
0.000126473
0.00186903
0.000149094
0.00175671
0.000170106
0.00162579
0.000189263
0.00147749
0.00020634
0.00131334
0.000221137
0.00113506
0.000233478
0.00094455
0.000243219
0.000743943
0.000250243
0.000535537
0.000254473
0.000322301
0.000106588
0.000255875
2.53832e-05
0.00211399
5.34497e-08
5.11311e-05
0.00206648
7.65745e-05
0.00201022
0.000101301
0.00193733
0.000124991
0.00184534
0.00014735
0.00173435
0.000168119
0.00160502
0.000187052
0.00145856
0.000203928
0.00129646
0.000218549
0.00112044
0.000230742
0.000932356
0.000240364
0.00073432
0.000247302
0.0005286
0.000251478
0.000318115
0.000105185
0.000252858
2.50823e-05
0.00208885
5.96944e-08
5.05281e-05
0.00204103
7.5674e-05
0.00198507
0.000100113
0.00191289
0.000123528
0.00182193
0.000145628
0.00171225
0.000166154
0.0015845
0.000184866
0.00143985
0.000201543
0.00127978
0.000215989
0.00110599
0.000228035
0.000920314
0.000237541
0.000724821
0.000244393
0.000521751
0.000248516
0.000313993
0.000103882
0.000249874
2.47854e-05
0.002064
6.45336e-08
4.99331e-05
0.00201589
7.47853e-05
0.00196022
9.894e-05
0.00188874
0.000122083
0.00179879
0.000143926
0.00169041
0.000164213
0.00156421
0.000182705
0.00142136
0.000199184
0.00126331
0.000213458
0.00109172
0.000225359
0.000908413
0.000234748
0.000715432
0.000241516
0.000514984
0.000245586
0.000309913
0.000102521
0.000246923
2.44924e-05
0.00203945
6.80474e-08
4.9346e-05
0.00199103
7.39081e-05
0.00193566
9.77817e-05
0.00186487
0.000120655
0.00177591
0.000142244
0.00166882
0.000162294
0.00154416
0.000180567
0.00140309
0.000196851
0.00124702
0.000210954
0.00107762
0.000222711
0.00089666
0.000231986
0.000706163
0.00023867
0.000508303
0.000242688
0.000305895
0.000101272
0.000244006
2.42033e-05
0.00201517
7.0311e-08
4.87664e-05
0.00196647
7.3042e-05
0.00191139
9.66376e-05
0.00184127
0.000119245
0.00175331
0.000140581
0.00164748
0.000160396
0.00152435
0.000178454
0.00138503
0.000194543
0.00123094
0.000208477
0.00106368
0.000220092
0.000885045
0.000229254
0.000697002
0.000235855
0.000501703
0.000239823
0.000301918
9.99498e-05
0.000241121
2.39179e-05
0.00199119
7.16006e-08
4.81941e-05
0.0019422
7.21865e-05
0.00188739
9.55071e-05
0.00181795
0.00011785
0.00173097
0.000138937
0.0016264
0.000158519
0.00150477
0.000176363
0.00136719
0.00019226
0.00121504
0.000206027
0.00104992
0.000217501
0.000873575
0.000226551
0.000687958
0.000233071
0.000495185
0.000236988
0.000298002
9.8745e-05
0.00023827
2.36361e-05
0.00196748
7.20769e-08
4.76288e-05
0.00191821
7.13412e-05
0.00186368
9.43897e-05
0.00179491
0.000116472
0.00170889
0.000137311
0.00160556
0.000156662
0.00148542
0.000174294
0.00134955
0.000190002
0.00119933
0.000203603
0.00103632
0.000214938
0.000862239
0.000223878
0.000679019
0.000230318
0.000488746
0.000234185
0.000294125
9.74587e-05
0.000235449
2.33578e-05
0.00194405
7.20248e-08
4.70703e-05
0.0018945
7.05058e-05
0.00184024
9.3285e-05
0.00177213
0.000115108
0.00168706
0.000135703
0.00158496
0.000154825
0.0014663
0.000172248
0.00133213
0.000187768
0.00118381
0.000201205
0.00102288
0.000212403
0.000851045
0.000221235
0.000670195
0.000227595
0.000482388
0.000231413
0.000290307
9.62917e-05
0.00023266
2.30829e-05
0.0019209
7.15585e-08
4.65184e-05
0.00187106
6.968e-05
0.00181708
9.21927e-05
0.00174962
0.00011376
0.0016655
0.000134112
0.00156461
0.000153007
0.0014474
0.000170223
0.00131492
0.000185557
0.00116848
0.000198833
0.00100961
0.000209896
0.000839982
0.00021862
0.000661472
0.000224902
0.000476106
0.000228672
0.000286527
9.50426e-05
0.000229902
2.28112e-05
0.00189802
7.08944e-08
4.59728e-05
0.0018479
6.88634e-05
0.00179419
9.11123e-05
0.00172737
0.000112426
0.00164419
0.000132538
0.0015445
0.000151209
0.00142873
0.00016822
0.00129791
0.00018337
0.00115333
0.000196486
0.000996495
0.000207416
0.000829057
0.000216034
0.00065286
0.000222239
0.000469903
0.000225961
0.000282805
9.39087e-05
0.000227176
2.25427e-05
0.00187541
7.00689e-08
4.54333e-05
0.00182501
6.80557e-05
0.00177157
9.00435e-05
0.00170538
0.000111106
0.00162313
0.000130981
0.00152463
0.00014943
0.00141028
0.000166238
0.00128111
0.000181207
0.00113836
0.000194165
0.000983537
0.000204963
0.000818259
0.000213477
0.000644348
0.000219607
0.000463774
0.000223281
0.000279118
9.26949e-05
0.00022448
2.22773e-05
0.00185306
6.92287e-08
4.48998e-05
0.00180239
6.72568e-05
0.00174921
8.89861e-05
0.00168365
0.000109801
0.00160231
0.00012944
0.00150499
0.00014767
0.00139206
0.000164277
0.0012645
0.000179067
0.00112358
0.000191869
0.000970738
0.000202537
0.000807596
0.000210948
0.000635943
0.000217003
0.00045772
0.000220632
0.000275488
9.15892e-05
0.000221816
2.20148e-05
0.00183098
6.83517e-08
4.4372e-05
0.00178004
6.64665e-05
0.00172712
8.794e-05
0.00166218
0.000108509
0.00158175
0.000127915
0.00148559
0.000145928
0.00137404
0.000162337
0.00124809
0.00017695
0.00110897
0.000189599
0.00095809
0.000200138
0.000797057
0.000208448
0.000627635
0.00021443
0.000451738
0.000218013
0.000271893
9.04086e-05
0.000219184
2.17552e-05
0.00180916
6.75415e-08
4.385e-05
0.00175794
6.56845e-05
0.00170528
8.69049e-05
0.00164096
0.00010723
0.00156142
0.000126406
0.00146641
0.000144205
0.00135625
0.000160418
0.00123188
0.000174856
0.00109453
0.000187353
0.000945595
0.000197766
0.000786649
0.000205976
0.000619432
0.000211885
0.00044583
0.000215424
0.000268351
8.93272e-05
0.000216582
2.14984e-05
0.0017876
6.67444e-08
4.33336e-05
0.00173611
6.49109e-05
0.00168371
8.58807e-05
0.00161999
0.000105965
0.00154134
0.000124914
0.00144746
0.000142501
0.00133866
0.00015852
0.00121586
0.000172785
0.00108027
0.000185133
0.000933249
0.00019542
0.000776362
0.000203532
0.000611322
0.000209371
0.000439991
0.000212866
0.000264843
8.81773e-05
0.00021401
2.12445e-05
0.00176629
6.60428e-08
4.28226e-05
0.00171453
6.41454e-05
0.00166238
8.48674e-05
0.00159927
0.000104714
0.00152149
0.000123437
0.00142874
0.000140814
0.00132128
0.000156643
0.00120004
0.000170737
0.00106617
0.000182937
0.000921052
0.000193102
0.000766202
0.000201116
0.000603314
0.000206885
0.000434224
0.000210337
0.000261386
8.71175e-05
0.00021147
2.09932e-05
0.00174523
6.53688e-08
4.23171e-05
0.00169321
6.33881e-05
0.00164131
8.38648e-05
0.0015788
0.000103476
0.00150189
0.000121976
0.00141024
0.000139147
0.00130412
0.000154786
0.0011844
0.000168712
0.00105225
0.000180766
0.000908999
0.000190809
0.000756159
0.000198729
0.000595397
0.000204428
0.000428524
0.000207839
0.000257962
8.59963e-05
0.000208959
2.07447e-05
0.00172443
6.47958e-08
4.1817e-05
0.00167214
6.26388e-05
0.00162049
8.28729e-05
0.00155856
0.000102251
0.00148251
0.000120531
0.00139196
0.000137497
0.00128715
0.00015295
0.00116895
0.00016671
0.00103849
0.00017862
0.000897092
0.000188544
0.00074624
0.000196368
0.000587579
0.000202
0.000422893
0.000205369
0.000254587
8.49562e-05
0.000206478
2.04989e-05
0.00170387
6.425e-08
4.13223e-05
0.00165132
6.18975e-05
0.00159992
8.18916e-05
0.00153857
0.000101039
0.00146336
0.000119102
0.0013739
0.000135866
0.00127039
0.000151135
0.00115368
0.000164731
0.0010249
0.000176499
0.000885326
0.000186304
0.000736435
0.000194036
0.00057985
0.0001996
0.000417328
0.00020293
0.000251244
8.3862e-05
0.000204027
2.02557e-05
0.00168355
6.38002e-08
4.08328e-05
0.00163075
6.11642e-05
0.00157958
8.0921e-05
0.00151882
9.98412e-05
0.00144444
0.000117689
0.00135606
0.000134253
0.00125383
0.00014934
0.0011386
0.000162774
0.00101146
0.000174402
0.000873701
0.00018409
0.000726751
0.00019173
0.000572217
0.000197229
0.00041183
0.000200519
0.000247947
8.284e-05
0.000201606
2.00152e-05
0.00166347
6.33704e-08
4.03487e-05
0.00161041
6.04388e-05
0.0015595
7.9961e-05
0.00149929
9.86562e-05
0.00142575
0.000116292
0.00133842
0.000132658
0.00123746
0.000147565
0.00112369
0.000160839
0.000998191
0.000172329
0.000862212
0.000181902
0.000717178
0.000189452
0.000564669
0.000194885
0.000406396
0.000198137
0.000244682
8.1771e-05
0.000199214
1.97773e-05
0.00164364
6.30268e-08
3.98698e-05
0.00159032
5.97214e-05
0.00153964
7.90116e-05
0.00148001
9.74843e-05
0.00140728
0.00011491
0.001321
0.000131082
0.00122129
0.000145811
0.00110897
0.000158927
0.000985077
0.00017028
0.000850863
0.00017974
0.000707723
0.000187201
0.000557216
0.00019257
0.000401026
0.000195784
0.000241461
8.07662e-05
0.00019685
1.9542e-05
0.00162403
6.26924e-08
3.93962e-05
0.00157047
5.90119e-05
0.00152003
7.80727e-05
0.00146095
9.63256e-05
0.00138903
0.000113544
0.00130378
0.000129523
0.00120531
0.000144078
0.00109441
0.000157038
0.000972118
0.000168256
0.000839646
0.000177604
0.000698376
0.000184976
0.000549845
0.000190283
0.000395719
0.000193459
0.000238271
7.9721e-05
0.000194516
1.93094e-05
0.00160467
6.24318e-08
3.89279e-05
0.00155086
5.83103e-05
0.00150065
7.71443e-05
0.00144211
9.51799e-05
0.00137099
0.000112193
0.00128677
0.000127982
0.00118953
0.000142364
0.00108004
0.00015517
0.000959314
0.000166255
0.000828564
0.000175493
0.000689143
0.000182778
0.000542566
0.000188022
0.000390474
0.000191162
0.000235123
7.87326e-05
0.000192209
1.90793e-05
0.00158553
6.21683e-08
3.84647e-05
0.00153147
5.76166e-05
0.00148149
7.62264e-05
0.00142351
9.40474e-05
0.00135317
0.000110858
0.00126996
0.00012646
0.00117393
0.00014067
0.00106583
0.000153324
0.000946661
0.000164278
0.000817611
0.000173407
0.000680015
0.000180607
0.000535369
0.000185789
0.00038529
0.000188893
0.000232006
7.77099e-05
0.00018993
1.88519e-05
0.00156662
6.19653e-08
3.80068e-05
0.00151232
5.69307e-05
0.00146257
7.5319e-05
0.00140512
9.29278e-05
0.00133557
0.000109539
0.00125335
0.000124955
0.00115851
0.000138996
0.00105179
0.000151501
0.000934159
0.000162325
0.00080679
0.000171346
0.000670999
0.000178461
0.00052826
0.000183583
0.000380167
0.000186651
0.000228929
7.67371e-05
0.00018768
1.8627e-05
0.00154793
6.17473e-08
3.75541e-05
0.00149339
5.62527e-05
0.00144387
7.4422e-05
0.00138695
9.18212e-05
0.00131817
0.000108235
0.00123694
0.000123467
0.00114328
0.000137342
0.00103791
0.000149698
0.000921804
0.000160395
0.000796095
0.000169309
0.000662085
0.000176341
0.00052123
0.000181404
0.000375103
0.000184437
0.000225883
7.57359e-05
0.000185456
1.84047e-05
0.00152947
6.1577e-08
3.71066e-05
0.00147469
5.55824e-05
0.0014254
7.35354e-05
0.001369
9.07275e-05
0.00130098
0.000106946
0.00122072
0.000121997
0.00112823
0.000135708
0.00102421
0.000147918
0.000909597
0.000158488
0.000785528
0.000167297
0.000653281
0.000174247
0.000514287
0.000179251
0.000370098
0.000182249
0.000222875
7.47783e-05
0.00018326
1.8185e-05
0.00151122
6.13814e-08
3.66642e-05
0.00145622
5.49199e-05
0.00140714
7.26591e-05
0.00135126
8.96466e-05
0.00128399
0.000105672
0.0012047
0.000120545
0.00111336
0.000134093
0.00101066
0.000146158
0.000897532
0.000156604
0.000775084
0.000165309
0.000644576
0.000172178
0.000507421
0.000177123
0.00036515
0.000180088
0.000219897
7.37975e-05
0.00018109
1.79678e-05
0.0014932
6.12226e-08
3.62269e-05
0.00143796
5.42651e-05
0.0013891
7.1793e-05
0.00133373
8.85784e-05
0.00126721
0.000104413
0.00118887
0.00011911
0.00109866
0.000132498
0.000997276
0.00014442
0.000885612
0.000154742
0.000764765
0.000163346
0.000635977
0.000170134
0.00050064
0.000175022
0.000360261
0.000177954
0.000216956
7.28548e-05
0.000178946
1.77532e-05
0.00147538
6.10297e-08
3.57948e-05
0.00141992
5.3618e-05
0.00137128
7.09372e-05
0.00131642
8.75229e-05
0.00125062
0.00010317
0.00117322
0.000117692
0.00108414
0.000130921
0.000984048
0.000142703
0.000873831
0.000152903
0.000754566
0.000161406
0.000627475
0.000168115
0.000493933
0.000172947
0.000355427
0.000175845
0.000214045
7.18936e-05
0.000176829
1.75411e-05
0.00145778
6.08646e-08
3.53677e-05
0.0014021
5.29785e-05
0.00135367
7.00914e-05
0.00129931
8.64798e-05
0.00123424
0.000101941
0.00115776
0.000116291
0.00106979
0.000129364
0.000970979
0.000141006
0.000862191
0.000151086
0.000744489
0.000159489
0.000619077
0.00016612
0.000487309
0.000170896
0.000350649
0.000173762
0.000211169
7.09653e-05
0.000174738
1.73316e-05
0.00144039
6.06592e-08
3.49457e-05
0.00138448
5.23465e-05
0.00133627
6.92557e-05
0.0012824
8.54493e-05
0.00121804
0.000100727
0.00114248
0.000114907
0.00105562
0.000127825
0.000958062
0.00013933
0.000850686
0.000149292
0.000734528
0.000157596
0.000610774
0.00016415
0.000480758
0.000168871
0.000345927
0.000171704
0.000208322
7.0023e-05
0.000172672
1.71245e-05
0.00142321
6.04745e-08
3.45286e-05
0.00136708
5.17221e-05
0.00131907
6.843e-05
0.00126569
8.4431e-05
0.00120204
9.95272e-05
0.00112739
0.000113539
0.00104161
0.000126305
0.0009453
0.000137674
0.000839319
0.000147519
0.000724687
0.000155726
0.000602571
0.000162203
0.000474287
0.00016687
0.000341258
0.000169672
0.00020551
6.91089e-05
0.000170631
1.69199e-05
0.00140623
6.0245e-08
3.41165e-05
0.00134989
5.11051e-05
0.00130208
6.76141e-05
0.00124918
8.3425e-05
0.00118623
9.83421e-05
0.00111247
0.000112188
0.00102776
0.000124803
0.000932687
0.000136038
0.000828084
0.000145767
0.000714959
0.000153878
0.000594461
0.00016028
0.000467888
0.000164893
0.000336643
0.000167664
0.000202726
6.81847e-05
0.000168616
1.67178e-05
0.00138946
6.0031e-08
3.37094e-05
0.0013329
5.04955e-05
0.0012853
6.6808e-05
0.00123287
8.2431e-05
0.00117061
9.71713e-05
0.00109774
0.000110854
0.00101408
0.000123319
0.000920225
0.000134422
0.000816984
0.000144037
0.000705348
0.000152053
0.000586449
0.000158381
0.000461567
0.000162941
0.000332082
0.000165681
0.000199975
6.72845e-05
0.000166625
1.65181e-05
0.00137288
5.97702e-08
3.33071e-05
0.00131611
4.98932e-05
0.00126871
6.60117e-05
0.00121675
8.14491e-05
0.00115518
9.60146e-05
0.00108317
0.000109535
0.00100056
0.000121854
0.000907907
0.000132826
0.000806011
0.000142328
0.000695847
0.000150251
0.000578528
0.000156505
0.000455315
0.000161012
0.000327572
0.000163722
0.000197253
6.63779e-05
0.000164658
1.63208e-05
0.00135651
5.95214e-08
3.29096e-05
0.00129953
4.92981e-05
0.00125232
6.52249e-05
0.00120083
8.0479e-05
0.00113992
9.4872e-05
0.00106878
0.000108233
0.000987202
0.000120406
0.000895737
0.000131249
0.000795171
0.00014064
0.00068646
0.00014847
0.000570702
0.000154652
0.00044914
0.000159107
0.000323114
0.000161787
0.000194563
6.54914e-05
0.000162715
1.61259e-05
0.00134032
5.92249e-08
3.2517e-05
0.00128314
4.87102e-05
0.00123613
6.44476e-05
0.00118509
7.95207e-05
0.00112485
9.37432e-05
0.00105456
0.000106946
0.000974
0.000118976
0.000883709
0.000129692
0.000784455
0.000138972
0.00067718
0.000146711
0.000562965
0.000152821
0.000443032
0.000157226
0.000318707
0.000159876
0.0001919
6.46018e-05
0.000160796
1.59333e-05
0.00132434
5.89382e-08
3.21291e-05
0.00126694
4.81294e-05
0.00122013
6.36797e-05
0.00116954
7.85739e-05
0.00110996
9.26281e-05
0.00104051
0.000105675
0.000960956
0.000117563
0.000871824
0.000128153
0.000773868
0.000137325
0.000668012
0.000144973
0.000555321
0.000151013
0.000436999
0.000155367
0.000314351
0.000157988
0.000189268
6.37287e-05
0.0001589
1.57431e-05
0.00130854
5.86046e-08
3.17458e-05
0.00125094
4.75557e-05
0.00120432
6.29211e-05
0.00115418
7.76387e-05
0.00109524
9.15265e-05
0.00102662
0.000104419
0.000948063
0.000116167
0.000860077
0.000126633
0.000763402
0.000135698
0.000658949
0.000143257
0.000547762
0.000149227
0.000431033
0.000153531
0.000310044
0.000156123
0.000186665
6.28555e-05
0.000157028
1.55553e-05
0.00129293
5.82794e-08
3.13672e-05
0.00123513
4.69889e-05
0.0011887
6.21718e-05
0.001139
7.67148e-05
0.0010807
9.04384e-05
0.0010129
0.000103179
0.000935325
0.000114789
0.000848471
0.000125132
0.000753062
0.00013409
0.000649994
0.000141562
0.000540296
0.000147462
0.000425138
0.000151718
0.000305786
0.000154281
0.00018409
6.19956e-05
0.000155178
1.53697e-05
0.0012775
5.79083e-08
3.09932e-05
0.00121951
4.64289e-05
0.00117326
6.14315e-05
0.001124
7.58022e-05
0.00106633
8.93635e-05
0.000999339
0.000101954
0.000922734
0.000113427
0.000836998
0.000123649
0.00074284
0.000132502
0.000641141
0.000139887
0.000532912
0.000145719
0.000419309
0.000149926
0.000301577
0.000152462
0.000181543
6.11383e-05
0.000153351
1.51863e-05
0.00126226
5.7545e-08
3.06238e-05
0.00120408
4.58758e-05
0.00115801
6.07002e-05
0.00110917
7.49007e-05
0.00105213
8.83018e-05
0.000985941
0.000100744
0.000910295
0.000112082
0.000825663
0.000122184
0.000732742
0.000130934
0.000632394
0.000138233
0.000525618
0.000143998
0.00041355
0.000148157
0.000297416
0.000150665
0.000179025
6.02914e-05
0.000151547
1.50053e-05
0.0012472
5.71381e-08
3.02588e-05
0.00118882
4.53294e-05
0.00114294
5.99779e-05
0.00109452
7.40102e-05
0.0010381
8.72529e-05
0.000972698
9.95484e-05
0.000897999
0.000110754
0.000814459
0.000120737
0.000722758
0.000129385
0.000623747
0.000136599
0.000518406
0.000142298
0.000407854
0.000146409
0.000293302
0.000148889
0.000176534
5.94496e-05
0.000149764
1.48264e-05
0.00123232
5.67388e-08
2.98983e-05
0.00117375
4.47897e-05
0.00112805
5.92643e-05
0.00108005
7.31305e-05
0.00102424
8.62169e-05
0.000959615
9.83677e-05
0.000885852
0.000109441
0.000803389
0.000119308
0.000712894
0.000127855
0.000615203
0.000134985
0.00051128
0.000140618
0.000402228
0.000144682
0.000289235
0.000147136
0.000174069
5.86152e-05
0.000148004
1.46497e-05
0.00121761
5.6298e-08
2.95422e-05
0.00115886
4.42565e-05
0.00111333
5.85594e-05
0.00106575
7.22615e-05
0.00101053
8.51935e-05
0.000946682
9.72013e-05
0.000873843
0.000108145
0.000792445
0.000117896
0.000703143
0.000126344
0.000606757
0.000133391
0.000504234
0.000138959
0.000396663
0.000142977
0.000285214
0.000145404
0.000171633
5.77885e-05
0.000146264
1.44752e-05
0.00120309
5.58648e-08
2.91904e-05
0.00114415
4.37298e-05
0.00109879
5.78632e-05
0.00105162
7.14032e-05
0.000996995
8.41827e-05
0.000933906
9.60492e-05
0.00086198
0.000106865
0.000781634
0.000116502
0.000693509
0.000124851
0.000598411
0.000131816
0.000497273
0.00013732
0.000391165
0.000141293
0.000281239
0.000143693
0.000169222
5.69664e-05
0.000144546
1.43028e-05
0.00118873
5.5393e-08
2.88429e-05
0.00112961
4.32096e-05
0.00108442
5.71754e-05
0.00103765
7.05553e-05
0.000983615
8.31842e-05
0.000921277
9.49112e-05
0.000850252
0.0001056
0.000770946
0.000115124
0.000683984
0.000123376
0.00059016
0.000130261
0.00049039
0.000135701
0.000385728
0.000139629
0.000277309
0.000142003
0.000166838
5.61544e-05
0.00014285
1.41326e-05
0.00117455
5.49288e-08
2.84996e-05
0.00111525
4.26956e-05
0.00107023
5.6496e-05
0.00102385
6.97178e-05
0.000970396
8.21979e-05
0.0009088
9.37871e-05
0.000838666
0.00010435
0.000760386