/*--------------------------------*- C++ -*----------------------------------*\
  =========                 |
  \\      /  F ield         | OpenFOAM: The Open Source CFD Toolbox
   \\    /   O peration     | Website:  https://openfoam.org
    \\  /    A nd           | Version:  6.0
     \\/     M anipulation  |
\*---------------------------------------------------------------------------*/
FoamFile
{
    version     2.0;
    format      ascii;
    class       volVectorField;
    location    "19";
    object      U;
}
// * * * * * * * * * * * * * * * * * * * * * * * * * * * * * * * * * * * * * //

dimensions      [0 1 -1 0 0 0 0];

internalField   nonuniform List<vector> 
34500
(
(0.999997 -1.23007e-06 -9.42321e-18)
(0.999965 2.66573e-05 9.04245e-17)
(0.999891 3.08072e-06 2.29214e-17)
(0.999792 -8.71585e-05 -1.34914e-17)
(0.999694 -0.000205678 1.32249e-16)
(0.999606 -0.000325933 3.05524e-16)
(0.999533 -0.000461466 1.52899e-17)
(0.999498 -0.000600522 -2.40329e-16)
(0.999494 -0.000734217 3.70447e-16)
(0.999515 -0.000862515 -2.20433e-17)
(0.99954 -0.00102023 -2.81312e-16)
(0.999573 -0.00126276 -4.62256e-16)
(0.999613 -0.00153137 2.15187e-16)
(1.00027 -0.00211387 4.4138e-16)
(0.992275 -0.00595159 -3.93924e-16)
(0.999997 4.8235e-05 -2.98378e-17)
(0.999923 6.37472e-05 -8.04488e-17)
(0.99977 -5.53264e-05 1.89618e-16)
(0.99959 -0.00026679 -1.0491e-16)
(0.999425 -0.000476945 -6.86455e-17)
(0.99927 -0.000681625 -5.99672e-16)
(0.999146 -0.000927019 9.88748e-17)
(0.999101 -0.00117229 1.5982e-16)
(0.99912 -0.00137764 -2.76662e-16)
(0.999172 -0.00156544 -4.53729e-16)
(0.99922 -0.00180491 -1.92429e-16)
(0.999289 -0.00221624 -3.95319e-16)
(0.999285 -0.00268497 -3.06285e-16)
(1.00058 -0.00344011 -5.84263e-16)
(0.992864 -0.00720969 7.03816e-16)
(1 9.80557e-05 -2.22302e-17)
(0.999923 6.1534e-05 9.85458e-17)
(0.999763 -0.000136657 3.52657e-17)
(0.999596 -0.000387259 -4.56931e-17)
(0.999453 -0.000585701 -1.09537e-16)
(0.999305 -0.000777308 6.47887e-17)
(0.999185 -0.00103281 -5.75915e-17)
(0.999152 -0.00128353 -8.90414e-17)
(0.9992 -0.00144803 4.64162e-16)
(0.999285 -0.00155519 -2.5673e-16)
(0.999355 -0.0016848 3.55822e-16)
(0.999455 -0.00198159 5.17108e-16)
(0.999341 -0.00237257 -3.45066e-16)
(1.00058 -0.00282604 3.13652e-16)
(0.995666 -0.00459218 -5.16545e-17)
(1 0.000129078 4.00754e-18)
(0.999927 2.34335e-05 -1.63474e-16)
(0.99977 -0.000235888 -1.64156e-16)
(0.999617 -0.00049508 7.4186e-17)
(0.999494 -0.000667905 -2.74321e-16)
(0.999353 -0.00084814 1.38147e-16)
(0.99922 -0.00112826 3.3651e-16)
(0.999163 -0.00142123 -2.47658e-16)
(0.999195 -0.00161282 -9.73407e-16)
(0.999282 -0.00171987 3.15998e-16)
(0.999359 -0.0018222 -4.88351e-17)
(0.999498 -0.00207353 2.68582e-16)
(0.999319 -0.00245895 4.3244e-16)
(1.00031 -0.0027381 -2.58323e-16)
(0.996725 -0.00411782 -1.96997e-16)
(0.999999 0.000139719 4.86619e-17)
(0.999927 -3.48115e-05 9.32873e-17)
(0.999767 -0.000336167 -1.1979e-16)
(0.999619 -0.000591614 5.03853e-17)
(0.999512 -0.000743265 3.3696e-16)
(0.999383 -0.00091721 4.32253e-16)
(0.999237 -0.00122219 -8.71595e-16)
(0.999139 -0.00157147 3.37035e-16)
(0.999121 -0.00183798 9.28237e-16)
(0.999176 -0.0020227 -3.87481e-16)
(0.999241 -0.00218974 -1.13403e-16)
(0.999416 -0.00248332 -2.99783e-17)
(0.999249 -0.00290493 -2.67904e-16)
(0.999994 -0.00307492 5.90937e-16)
(0.997343 -0.00409484 -3.86028e-16)
(0.99999 0.000134767 2.82519e-17)
(0.999927 -9.71467e-05 3.48964e-17)
(0.999767 -0.000420753 1.26266e-16)
(0.999627 -0.000664774 -1.45321e-16)
(0.999552 -0.000795158 -6.515e-17)
(0.999467 -0.000945491 -4.06763e-16)
(0.999349 -0.00122833 3.22436e-16)
(0.999239 -0.00157539 -8.18982e-17)
(0.999181 -0.00187015 -3.71802e-16)
(0.999193 -0.00210943 7.45683e-16)
(0.999229 -0.00233403 1.42293e-16)
(0.999418 -0.00266286 3.9862e-17)
(0.999295 -0.00308971 4.20626e-16)
(0.999809 -0.00313408 -1.20058e-15)
(0.997928 -0.00358736 4.50237e-16)
(0.999978 0.000120198 -4.91665e-17)
(0.999923 -0.000153599 5.54369e-17)
(0.999762 -0.000486497 9.74328e-17)
(0.999625 -0.000724814 2.73971e-16)
(0.999581 -0.000848978 7.60389e-17)
(0.99956 -0.000973777 3.45051e-16)
(0.999509 -0.0011979 -1.48302e-16)
(0.99943 -0.00148046 -6.36774e-16)
(0.999361 -0.00173459 -5.762e-16)
(0.999343 -0.00197133 -7.91239e-16)
(0.999344 -0.00221447 -3.3614e-16)
(0.999522 -0.00255445 1.28709e-17)
(0.999442 -0.00298149 -3.09986e-16)
(0.999765 -0.00294115 1.02255e-15)
(0.99833 -0.0030376 -1.32503e-16)
(0.999963 0.000101399 -3.20338e-17)
(0.999912 -0.000198633 -2.25085e-17)
(0.999735 -0.000535933 -4.52304e-17)
(0.999576 -0.000787998 -1.47022e-16)
(0.999535 -0.000942179 1.08621e-16)
(0.999557 -0.001074 4.13655e-18)
(0.999576 -0.00125084 1.05241e-16)
(0.99955 -0.00145589 6.85322e-16)
(0.999502 -0.00164118 5.58127e-17)
(0.999478 -0.00184466 -3.10241e-16)
(0.999459 -0.00208592 4.29902e-16)
(0.999623 -0.00243089 -3.93142e-17)
(0.999589 -0.00287299 -7.60462e-18)
(0.999793 -0.00280665 1.83509e-16)
(0.998617 -0.00271064 -3.83405e-16)
(0.999948 8.26833e-05 -2.77259e-18)
(0.999893 -0.000229192 -1.18969e-16)
(0.99969 -0.000568677 -2.71577e-17)
(0.999483 -0.000853776 1.8972e-16)
(0.999404 -0.00107606 -1.44268e-16)
(0.999429 -0.00126124 2.30203e-16)
(0.99949 -0.00143346 1.50841e-16)
(0.999515 -0.00158893 1.02999e-17)
(0.999506 -0.00171677 1.38356e-16)
(0.999503 -0.00188405 3.48439e-17)
(0.999493 -0.00211552 -4.06916e-16)
(0.999662 -0.00245692 2.52276e-16)
(0.999691 -0.00290215 -1.58876e-16)
(0.99985 -0.00281225 -8.11146e-16)
(0.998942 -0.00249663 4.81326e-16)
(0.999934 6.66914e-05 9.1097e-17)
(0.999876 -0.000244749 7.28003e-17)
(0.999653 -0.000581508 -3.23955e-17)
(0.999392 -0.000905809 -1.63399e-16)
(0.999252 -0.00121389 -1.65255e-16)
(0.999243 -0.0014822 -6.30619e-16)
(0.999311 -0.00168854 4.45616e-16)
(0.99937 -0.00183022 9.55728e-18)
(0.999403 -0.00192415 7.67662e-16)
(0.999442 -0.00206046 7.76099e-16)
(0.999468 -0.00227199 -2.23526e-16)
(0.999664 -0.00258747 -6.63924e-17)
(0.999772 -0.00299614 3.86561e-16)
(0.999931 -0.00284136 6.76354e-16)
(0.999359 -0.00224782 -5.16372e-16)
(0.999924 5.43939e-05 -2.65523e-17)
(0.999872 -0.000247874 4.96522e-17)
(0.999649 -0.000573805 2.13663e-17)
(0.999357 -0.000927078 -4.11643e-17)
(0.999162 -0.00131072 -1.40463e-16)
(0.999104 -0.00166099 -2.02314e-17)
(0.999153 -0.00191509 -4.71924e-16)
(0.999225 -0.00206399 -6.61796e-16)
(0.999292 -0.00214087 -8.27444e-16)
(0.999378 -0.00224928 -4.88899e-16)
(0.999453 -0.00242848 2.7902e-16)
(0.999687 -0.00269353 -3.27504e-16)
(0.999874 -0.00302885 -2.37656e-16)
(1.00004 -0.00277678 -8.8386e-16)
(0.999815 -0.00192119 2.91851e-16)
(0.999917 4.52702e-05 -7.44389e-17)
(0.999882 -0.000243843 -1.11055e-16)
(0.999692 -0.000550526 -5.37747e-18)
(0.999407 -0.000912471 9.59671e-17)
(0.999186 -0.00134081 1.2418e-16)
(0.999086 -0.00174574 -1.61274e-16)
(0.999104 -0.002036 -1.72717e-16)
(0.999172 -0.00219477 2.14934e-16)
(0.999259 -0.00226167 1.04455e-15)
(0.999381 -0.00234428 -9.81138e-17)
(0.999501 -0.00248492 -1.55712e-16)
(0.999769 -0.00268887 2.74605e-16)
(1.00002 -0.00294033 4.28074e-18)
(1.00018 -0.00259631 2.27128e-16)
(1.00023 -0.00156528 4.78604e-17)
(0.999909 3.80988e-05 1.07269e-16)
(0.999904 -0.000239026 7.05199e-17)
(0.999773 -0.000521441 -1.83168e-16)
(0.999536 -0.000870546 -7.42484e-17)
(0.999325 -0.00130587 5.42418e-18)
(0.999204 -0.00172623 3.05018e-16)
(0.999192 -0.00202711 4.15334e-16)
(0.999244 -0.00218706 3.06729e-16)
(0.999334 -0.00224593 -4.91351e-16)
(0.999477 -0.00230785 6.64212e-16)
(0.999626 -0.00241501 -2.11175e-16)
(0.999913 -0.00256614 1.66504e-16)
(1.0002 -0.0027503 7.76365e-16)
(1.00034 -0.00235001 -2.42994e-17)
(1.00056 -0.00125193 1.6468e-18)
(0.999898 3.14279e-05 -6.25536e-18)
(0.999929 -0.000239038 -6.09763e-17)
(0.999873 -0.00049745 2.5087e-16)
(0.999712 -0.000818303 1.07115e-16)
(0.999543 -0.00122795 -4.06175e-17)
(0.999425 -0.00162679 3.45693e-16)
(0.999391 -0.00191155 -7.10763e-16)
(0.99942 -0.00206183 -4.49337e-16)
(0.9995 -0.00211464 -3.83867e-16)
(0.999648 -0.00216571 -5.58626e-16)
(0.999809 -0.0022543 3.31192e-16)
(1.0001 -0.00237461 -1.42073e-16)
(1.00041 -0.00252253 -1.03932e-15)
(1.00051 -0.00211031 4.65204e-16)
(1.00079 -0.00103794 1.0033e-16)
(0.999881 2.41789e-05 -3.53224e-17)
(0.999946 -0.000247497 2.33512e-17)
(0.999967 -0.00048742 -3.05625e-17)
(0.999892 -0.000773556 -1.86483e-16)
(0.999787 -0.00113676 1.41904e-17)
(0.999689 -0.0014882 1.81546e-16)
(0.999645 -0.00173751 3.20411e-16)
(0.999652 -0.00187107 4.6908e-16)
(0.999716 -0.0019223 2.20168e-16)
(0.999856 -0.00197554 -2.00187e-16)
(1.00002 -0.00206483 3.12174e-17)
(1.0003 -0.00218017 2.21276e-16)
(1.00061 -0.00232259 -1.23494e-16)
(1.00067 -0.00193333 -5.47091e-16)
(1.00094 -0.000944457 1.7682e-17)
(0.999855 1.57122e-05 -2.61157e-17)
(0.999949 -0.00026554 1.11681e-17)
(1.00003 -0.000495961 6.10457e-17)
(1.00004 -0.000749613 7.46596e-17)
(1 -0.00105881 -1.0601e-16)
(0.999939 -0.00135105 -6.95817e-16)
(0.999894 -0.00155636 -2.05384e-16)
(0.999887 -0.0016723 -3.44261e-16)
(0.999934 -0.00172891 -5.97016e-16)
(1.00006 -0.00179763 6.51257e-16)
(1.00022 -0.00190544 3.76103e-16)
(1.00048 -0.00203739 -4.07025e-16)
(1.00081 -0.00219569 1.0424e-15)
(1.00084 -0.00184719 2.0823e-16)
(1.00104 -0.000965185 6.80811e-17)
(0.99982 5.97106e-06 1.63023e-17)
(0.999932 -0.000292163 -8.06342e-17)
(1.00006 -0.000523382 -3.36475e-16)
(1.00014 -0.000752716 7.89556e-17)
(1.00016 -0.00101146 3.33513e-16)
(1.00013 -0.00124533 2.97951e-17)
(1.0001 -0.0014083 6.38289e-17)
(1.00008 -0.00151121 -1.26396e-17)
(1.00012 -0.00158127 7.28594e-16)
(1.00024 -0.00167636 -1.89606e-16)
(1.00039 -0.00181513 -5.10995e-16)
(1.00065 -0.00197651 -1.08432e-16)
(1.00098 -0.0021595 -4.5509e-17)
(1.001 -0.00185298 2.24687e-16)
(1.00113 -0.00107337 -3.66486e-16)
(0.999775 -4.74444e-06 2.16542e-17)
(0.999895 -0.00032486 5.89401e-17)
(1.00005 -0.000566356 2.20904e-16)
(1.00017 -0.000782559 -1.97343e-16)
(1.00024 -0.0010016 -2.04443e-16)
(1.00025 -0.00118704 1.09967e-16)
(1.00023 -0.00131675 2.11221e-16)
(1.00022 -0.00141492 4.17408e-16)
(1.00025 -0.00150603 -5.56111e-16)
(1.00038 -0.00163449 1.19451e-17)
(1.00053 -0.00180987 -1.64595e-16)
(1.00079 -0.00200429 1.6184e-17)
(1.00114 -0.00221002 -2.1041e-16)
(1.00116 -0.00193506 6.42202e-17)
(1.00123 -0.00123804 6.08241e-16)
(0.999724 -1.58217e-05 -2.78684e-18)
(0.999842 -0.000360509 1.01365e-16)
(1 -0.000619661 -1.00326e-16)
(1.00015 -0.000834027 2.77694e-16)
(1.00025 -0.00102758 9.76033e-17)
(1.00029 -0.00117956 1.56519e-16)
(1.00029 -0.0012892 2.94761e-16)
(1.00029 -0.00139234 -6.57684e-16)
(1.00034 -0.00151051 1.50535e-16)
(1.00047 -0.0016751 -4.31598e-17)
(1.00064 -0.0018865 4.63976e-16)
(1.00091 -0.00211003 -2.78006e-16)
(1.00129 -0.00232929 -1.342e-16)
(1.00133 -0.00206957 -4.60564e-17)
(1.00137 -0.00142793 -1.33272e-16)
(0.999669 -2.66006e-05 -3.17266e-17)
(0.999775 -0.000396015 -2.41714e-17)
(0.999926 -0.000677433 3.19264e-16)
(1.00007 -0.000899755 -2.11404e-16)
(1.0002 -0.00108236 1.49613e-16)
(1.00026 -0.00121736 -2.77345e-16)
(1.00028 -0.00132132 -5.94078e-17)
(1.0003 -0.00143888 4.80883e-16)
(1.00037 -0.001588 2.30606e-16)
(1.00053 -0.00178785 3.40369e-16)
(1.00073 -0.00203013 -5.80677e-16)
(1.00103 -0.00227423 6.46128e-16)
(1.00143 -0.00249462 -1.69567e-16)
(1.0015 -0.00223274 -1.58542e-16)
(1.00153 -0.00161999 -1.08949e-16)
(0.999612 -3.63976e-05 4.09983e-17)
(0.999701 -0.000428891 1.22923e-17)
(0.999831 -0.000734583 -3.7896e-16)
(0.99997 -0.00097209 -1.56556e-17)
(1.0001 -0.00115673 -1.21321e-16)
(1.00018 -0.00129031 2.25957e-16)
(1.00023 -0.00140207 -9.76078e-17)
(1.00028 -0.001542 -1.983e-16)
(1.00039 -0.00172383 3.11316e-16)
(1.00058 -0.00195541 -7.07273e-17)
(1.00081 -0.00222081 7.38591e-16)
(1.00114 -0.00247486 -7.55126e-16)
(1.00158 -0.00268369 2.30056e-16)
(1.00168 -0.00240421 -7.60911e-17)
(1.00173 -0.00179673 -1.56355e-16)
(0.999558 -4.46976e-05 -5.51243e-18)
(0.999624 -0.000457446 -1.72593e-16)
(0.999728 -0.000787275 1.46875e-16)
(0.999851 -0.00104476 5.54181e-17)
(0.999984 -0.00124187 -7.45996e-17)
(1.00008 -0.00138724 -7.49398e-17)
(1.00015 -0.00151811 1.6795e-16)
(1.00024 -0.00168642 3.43424e-16)
(1.00038 -0.00190083 -3.72641e-16)
(1.00062 -0.00215912 -7.79154e-17)
(1.00089 -0.00243892 -4.08493e-16)
(1.00126 -0.00269242 7.55897e-16)
(1.00174 -0.00287882 -8.29622e-17)
(1.00188 -0.00256976 -4.22521e-17)
(1.00196 -0.00195009 1.4788e-16)
(0.999506 -5.11153e-05 5.98259e-18)
(0.999549 -0.000480945 1.10258e-16)
(0.999626 -0.000833451 -5.30058e-18)
(0.99973 -0.00111347 1.24025e-16)
(0.999859 -0.00133082 -1.57799e-16)
(0.999965 -0.0014983 5.53926e-17)
(1.00006 -0.00165691 -5.47234e-17)
(1.00019 -0.00185745 -2.8654e-16)
(1.00038 -0.00210294 7.7772e-17)
(1.00066 -0.00238224 -3.01656e-16)
(1.00099 -0.00266804 9.25081e-17)
(1.00139 -0.00291171 -4.17318e-16)
(1.00191 -0.00306732 -5.30227e-17)
(1.00208 -0.00272049 8.33673e-17)
(1.00221 -0.00207561 -1.3762e-16)
(0.999458 -5.55105e-05 -2.98515e-17)
(0.999476 -0.00049943 -2.79892e-17)
(0.999531 -0.000872538 -8.4088e-18)
(0.999616 -0.00117626 -1.76346e-16)
(0.999741 -0.00141917 -7.48673e-18)
(0.999859 -0.00161618 1.20104e-16)
(0.999987 -0.00180851 2.17866e-17)
(1.00016 -0.00204323 2.93273e-16)
(1.0004 -0.00231728 -1.15466e-16)
(1.00072 -0.00261194 4.231e-16)
(1.00109 -0.00289635 -5.34436e-17)
(1.00154 -0.00312289 -2.94947e-18)
(1.00209 -0.00324214 -1.52463e-16)
(1.00229 -0.00285269 -3.5545e-16)
(1.00247 -0.00217505 1.6143e-16)
(0.999414 -5.79015e-05 2.51484e-17)
(0.99941 -0.000513645 8.67808e-17)
(0.999445 -0.00090538 3.1858e-17)
(0.999516 -0.00123303 -3.31429e-17)
(0.999638 -0.00150498 3.36492e-16)
(0.999769 -0.00173642 -7.23086e-17)
(0.999928 -0.00196601 -3.10268e-16)
(1.00014 -0.00223516 -1.64176e-16)
(1.00043 -0.00253469 1.78517e-16)
(1.00081 -0.00283944 -4.58943e-16)
(1.00122 -0.00311637 -2.31608e-16)
(1.0017 -0.00332033 -7.24589e-17)
(1.00229 -0.00339996 2.9132e-16)
(1.00251 -0.00296567 -1.51363e-16)
(1.00274 -0.00225032 -1.2757e-16)
(0.999373 -5.85182e-05 -5.24189e-17)
(0.999348 -0.000524727 -5.42921e-17)
(0.999371 -0.000933635 -1.03815e-16)
(0.999433 -0.00128525 2.39997e-17)
(0.999555 -0.00158833 5.28602e-17)
(0.999702 -0.00185704 -8.96985e-17)
(0.999891 -0.00212548 -3.25287e-17)
(1.00014 -0.00242809 -3.20997e-17)
(1.00048 -0.00274965 3.44681e-17)
(1.00091 -0.00305982 1.08453e-16)
(1.00136 -0.00332449 4.98997e-16)
(1.00188 -0.00350221 1.89566e-16)
(1.0025 -0.00354082 -1.71109e-16)
(1.00273 -0.00306124 3.19122e-16)
(1.003 -0.00230641 5.79765e-17)
(0.999334 -5.76985e-05 3.59698e-17)
(0.999292 -0.000534106 -1.17662e-16)
(0.999308 -0.000959583 1.29266e-16)
(0.999366 -0.00133524 -1.40124e-16)
(0.999493 -0.00167068 -1.07487e-16)
(0.999658 -0.00197796 -9.98282e-17)
(0.999878 -0.00228527 -4.12064e-17)
(1.00017 -0.00261936 -1.17811e-16)
(1.00056 -0.00295941 -2.14215e-16)
(1.00102 -0.00327091 2.24908e-16)
(1.00152 -0.0035197 -2.87589e-16)
(1.00207 -0.0036688 -2.49913e-16)
(1.00271 -0.00366618 1.73535e-16)
(1.00295 -0.00314195 -1.78141e-16)
(1.00326 -0.00234597 -8.31038e-17)
(0.999294 -5.59019e-05 1.09798e-17)
(0.999241 -0.000543215 -1.67388e-17)
(0.999255 -0.000985555 -4.04717e-17)
(0.999315 -0.00138576 3.73976e-17)
(0.999451 -0.00175424 -1.21814e-16)
(0.999636 -0.00210026 9.33523e-17)
(0.999889 -0.00244533 3.16773e-16)
(1.00023 -0.00280833 4.43481e-16)
(1.00065 -0.0031633 -1.15974e-16)
(1.00116 -0.00347264 -2.5093e-16)
(1.00169 -0.00370284 -1.28788e-16)
(1.00227 -0.00382199 1.99334e-16)
(1.00293 -0.00377875 -2.43957e-16)
(1.00318 -0.00321104 7.92154e-16)
(1.00352 -0.00237334 3.53684e-16)
(0.999253 -5.36083e-05 -4.43324e-17)
(0.999193 -0.000553459 7.20037e-17)
(0.99921 -0.00101385 1.07397e-16)
(0.999278 -0.00143943 1.15079e-16)
(0.999427 -0.00184134 -1.4237e-16)
(0.999635 -0.00222549 -2.80617e-17)
(0.99992 -0.00260642 7.26113e-17)
(1.0003 -0.00299529 1.86675e-17)
(1.00076 -0.00336171 3.49834e-16)
(1.00131 -0.00366588 2.2098e-16)
(1.00187 -0.00387548 3.93026e-16)
(1.00247 -0.00396394 5.25958e-17)
(1.00314 -0.00388102 8.87308e-17)
(1.0034 -0.00327113 -3.58612e-16)
(1.00376 -0.00239148 -3.3814e-16)
(0.99921 -5.13132e-05 1.88881e-17)
(0.999147 -0.000565994 4.87962e-17)
(0.99917 -0.00104631 -2.07936e-16)
(0.99925 -0.00149856 1.9165e-16)
(0.999416 -0.00193411 1.55327e-16)
(0.999649 -0.00235525 2.99069e-16)
(0.999967 -0.0027696 -5.78618e-17)
(1.00038 -0.00318112 -3.25325e-17)
(1.00089 -0.00355567 -1.12732e-16)
(1.00147 -0.00385206 6.57241e-17)
(1.00206 -0.00403958 -6.90257e-16)
(1.00268 -0.00409708 5.38263e-16)
(1.00336 -0.00397562 -5.06271e-17)
(1.00361 -0.00332475 -5.093e-16)
(1.004 -0.00240192 2.59962e-16)
(0.999162 -4.94574e-05 3.35832e-17)
(0.999102 -0.000581792 7.10922e-17)
(0.999134 -0.00108446 2.26928e-16)
(0.999229 -0.00156483 -3.22248e-16)
(0.999415 -0.00203413 2.56315e-17)
(0.999675 -0.00249076 -2.30146e-16)
(1.00003 -0.0029358 2.254e-17)
(1.00048 -0.00336664 -4.42885e-16)
(1.00102 -0.00374619 2.99018e-16)
(1.00163 -0.00403254 -3.6103e-16)
(1.00224 -0.00419685 5.21697e-16)
(1.00288 -0.0042233 -5.98385e-16)
(1.00357 -0.00406435 -2.96092e-16)
(1.00382 -0.00337365 2.09039e-16)
(1.00422 -0.00240635 -2.07819e-16)
(0.999109 -4.84225e-05 -3.97192e-17)
(0.999056 -0.000601487 -3.38372e-17)
(0.9991 -0.0011292 -3.99113e-17)
(0.999212 -0.00163939 1.25374e-17)
(0.999421 -0.00214237 -1.88962e-17)
(0.999709 -0.00263277 -2.75399e-16)
(1.00009 -0.00310561 -2.57136e-16)
(1.00058 -0.00355251 1.74918e-16)
(1.00116 -0.00393416 8.35853e-17)
(1.00179 -0.00420853 5.47716e-16)
(1.00243 -0.0043488 -4.09145e-16)
(1.00308 -0.0043443 1.05871e-16)
(1.00377 -0.00414896 3.9188e-17)
(1.00402 -0.00341933 -8.36667e-17)
(1.00443 -0.00240439 3.13522e-16)
(0.999052 -4.84982e-05 2.33701e-17)
(0.999009 -0.000625505 -3.99737e-17)
(0.999065 -0.00118105 1.64718e-17)
(0.999197 -0.00172264 1.64938e-16)
(0.99943 -0.00225913 8.06628e-17)
(0.999747 -0.00278142 4.18732e-16)
(1.00016 -0.00327913 8.4083e-17)
(1.00068 -0.00373895 -7.40418e-17)
(1.00129 -0.00412007 -2.58891e-16)
(1.00195 -0.00438078 -3.55116e-16)
(1.00261 -0.0044964 3.10778e-16)
(1.00328 -0.00446107 2.50197e-17)
(1.00397 -0.00423028 1.54223e-16)
(1.00421 -0.00346245 1.75838e-16)
(1.00463 -0.00239847 -7.23266e-17)
(0.99899 -4.98757e-05 -2.92045e-17)
(0.998959 -0.000653937 -1.04664e-16)
(0.999029 -0.00123998 -6.60739e-17)
(0.999181 -0.00181448 1.16712e-16)
(0.999439 -0.00238414 7.55689e-17)
(0.999786 -0.00293633 4.93048e-17)
(1.00024 -0.00345605 1.95457e-17)
(1.00079 -0.00392585 3.35397e-16)
(1.00142 -0.00430408 1.12363e-16)
(1.00211 -0.00454975 -2.37069e-16)
(1.00278 -0.00464031 -4.77156e-17)
(1.00346 -0.00457443 -2.46362e-16)
(1.00416 -0.00430912 -2.27097e-16)
(1.00439 -0.00350356 5.63041e-17)
(1.00481 -0.00238704 -1.15127e-16)
(0.998923 -5.26599e-05 2.36586e-17)
(0.998906 -0.000686729 1.27434e-16)
(0.99899 -0.00130569 -7.53315e-17)
(0.999164 -0.00191429 -5.39047e-17)
(0.999447 -0.00251657 7.59282e-17)
(0.999824 -0.00309666 -4.89343e-17)
(1.00031 -0.00363563 -7.92491e-17)
(1.00089 -0.00411271 -2.07121e-16)
(1.00155 -0.00448601 4.50364e-17)
(1.00226 -0.00471552 5.18108e-16)
(1.00295 -0.00478077 1.74131e-16)
(1.00364 -0.00468463 4.63333e-16)
(1.00434 -0.00438559 1.96158e-16)
(1.00456 -0.00354285 2.72141e-16)
(1.00499 -0.00237295 2.44351e-17)
(0.998851 -5.6857e-05 2.84541e-17)
(0.99885 -0.000723563 3.54156e-17)
(0.998947 -0.0013775 9.2085e-17)
(0.999143 -0.00202116 -1.64073e-16)
(0.999453 -0.00265531 -4.20075e-16)
(0.999859 -0.00326126 -7.1318e-17)
(1.00037 -0.0038169 -3.4411e-18)
(1.00098 -0.0042989 4.52759e-17)
(1.00167 -0.00466552 2.36587e-17)
(1.0024 -0.00487801 -3.25136e-16)
(1.0031 -0.00491791 1.94048e-16)
(1.0038 -0.00479196 -3.14086e-16)
(1.0045 -0.00446004 -1.02068e-16)
(1.00472 -0.00358055 -3.35959e-16)
(1.00516 -0.00235384 -1.88389e-17)
(0.998775 -6.24214e-05 -3.96499e-17)
(0.998789 -0.000764064 -6.78629e-17)
(0.998901 -0.00145461 -6.03246e-17)
(0.999118 -0.00213386 -3.1014e-17)
(0.999454 -0.00279897 6.25892e-17)
(0.999889 -0.00342879 -1.65663e-16)
(1.00043 -0.00399872 7.03322e-17)
(1.00107 -0.00448351 1.84859e-16)
(1.00179 -0.00484205 -2.45535e-16)
(1.00253 -0.00503694 1.06792e-16)
(1.00325 -0.00505159 1.18205e-16)
(1.00396 -0.00489631 9.0935e-17)
(1.00466 -0.00453229 6.41387e-16)
(1.00487 -0.00361661 3.344e-17)
(1.00533 -0.00233304 -1.55122e-16)
(0.998695 -6.92202e-05 9.57558e-18)
(0.998724 -0.000807666 -3.84117e-18)
(0.998849 -0.00153598 -6.67263e-17)
(0.999088 -0.00225108 2.64462e-16)
(0.999449 -0.00294606 7.99416e-18)
(0.999914 -0.0035978 1.74076e-16)
(1.00049 -0.00417986 -9.6622e-17)
(1.00115 -0.00466569 -4.96002e-16)
(1.00189 -0.00501504 2.28898e-16)
(1.00266 -0.00519198 1.47862e-17)
(1.00338 -0.00518169 -5.5311e-16)
(1.0041 -0.0049977 3.64114e-18)
(1.00481 -0.00460246 -4.1135e-16)
(1.00501 -0.003651 2.21627e-16)
(1.00548 -0.00230891 5.49296e-17)
(0.99861 -7.7113e-05 1.34154e-17)
(0.998655 -0.000853834 -9.79474e-18)
(0.998793 -0.00162063 1.59586e-16)
(0.999052 -0.00237142 -1.04778e-16)
(0.999439 -0.00309505 -1.6221e-16)
(0.999931 -0.00376687 -3.9511e-16)
(1.00053 -0.00435915 -1.90904e-16)
(1.00123 -0.00484454 2.09948e-16)
(1.00199 -0.0051839 5.07847e-17)
(1.00277 -0.00534279 -2.75317e-16)
(1.00351 -0.00530799 1.78339e-16)
(1.00423 -0.00509597 -4.80689e-17)
(1.00494 -0.00467029 1.5217e-16)
(1.00514 -0.00368359 -4.00028e-17)
(1.00563 -0.00228346 -1.04176e-16)
(0.998522 -8.5893e-05 -3.31154e-17)
(0.99858 -0.000901923 2.82178e-17)
(0.998731 -0.00170748 -9.29107e-17)
(0.999011 -0.00249359 -5.65348e-17)
(0.999423 -0.00324454 2.52377e-16)
(0.999942 -0.00393467 6.10811e-16)
(1.00057 -0.00453553 4.01339e-16)
(1.00129 -0.00501933 1.59049e-16)
(1.00207 -0.00534818 2.89474e-17)
(1.00287 -0.00548914 3.39281e-17)
(1.00362 -0.00543042 1.21306e-16)
(1.00436 -0.00519117 -1.81673e-16)
(1.00507 -0.00473598 -2.4898e-17)
(1.00527 -0.00371446 1.32852e-16)
(1.00576 -0.00225732 2.72984e-16)
(0.99843 -9.53871e-05 1.00456e-17)
(0.998501 -0.000951383 -3.55234e-17)
(0.998665 -0.0017956 8.37562e-19)
(0.998965 -0.00261629 8.19773e-17)
(0.9994 -0.00339321 5.49349e-17)
(0.999945 -0.00410004 -3.53666e-16)
(1.0006 -0.00470807 -1.73632e-16)
(1.00134 -0.00518939 -3.05667e-16)
(1.00215 -0.00550749 -6.66445e-17)
(1.00296 -0.00563081 7.17287e-16)
(1.00373 -0.00554889 8.52094e-18)
(1.00447 -0.00528323 -1.32748e-16)
(1.00519 -0.00479937 -4.10233e-16)
(1.00538 -0.00374353 -1.92607e-17)
(1.00588 -0.0022308 -7.13351e-17)
(0.998334 -0.000105363 2.2598e-17)
(0.998418 -0.0010016 -2.98064e-18)
(0.998593 -0.00188401 2.90211e-17)
(0.998912 -0.00273844 -7.36407e-17)
(0.99937 -0.00353994 -2.15949e-17)
(0.999941 -0.00426199 1.44497e-16)
(1.00062 -0.00487603 -2.04032e-16)
(1.00139 -0.00535428 2.56247e-16)
(1.00221 -0.0056616 4.35041e-18)
(1.00304 -0.00576774 -3.82846e-16)
(1.00382 -0.00566342 -8.2331e-17)
(1.00458 -0.0053723 5.10383e-16)
(1.0053 -0.00486065 1.79755e-16)
(1.00549 -0.00377099 -4.74453e-16)
(1.00599 -0.00220443 -3.6007e-17)
(0.998235 -0.000115656 -1.64579e-17)
(0.998329 -0.0010521 5.22498e-17)
(0.998516 -0.00197197 9.60498e-18)
(0.998854 -0.00285906 -1.57338e-16)
(0.999334 -0.00368377 1.81707e-17)
(0.999929 -0.00441974 -6.11472e-18)
(1.00063 -0.00503886 4.73942e-16)
(1.00142 -0.00551365 2.61578e-16)
(1.00227 -0.00581036 -6.50597e-16)
(1.00311 -0.00589994 -2.87176e-16)
(1.00391 -0.00577409 1.71174e-16)
(1.00467 -0.0054584 2.23589e-18)
(1.0054 -0.00491978 4.29922e-16)
(1.00559 -0.0037969 4.3579e-16)
(1.0061 -0.00217791 1.20187e-16)
(0.998132 -0.00012605 -7.43586e-18)
(0.998236 -0.00110237 6.6841e-18)
(0.998434 -0.00205875 1.05041e-16)
(0.99879 -0.00297738 2.70874e-16)
(0.999292 -0.00382398 -3.23551e-17)
(0.99991 -0.00457273 -3.07779e-16)
(1.00064 -0.00519622 -3.54683e-16)
(1.00145 -0.00566741 -6.68367e-16)
(1.00231 -0.00595384 4.2765e-16)
(1.00318 -0.00602755 3.41121e-16)
(1.00398 -0.00588112 -1.5433e-16)
(1.00476 -0.00554185 -2.6646e-16)
(1.00549 -0.00497712 -4.22134e-16)
(1.00569 -0.00382168 -3.47946e-17)
(1.0062 -0.00215216 -3.59674e-16)
(0.998026 -0.00013642 1.10809e-17)
(0.998139 -0.00115208 -3.2885e-17)
(0.998347 -0.00214383 -1.23624e-16)
(0.99872 -0.00309278 -2.14166e-16)
(0.999243 -0.00396003 -4.49832e-17)
(0.999883 -0.00472058 2.92979e-16)
(1.00063 -0.00534794 2.1954e-16)
(1.00147 -0.00581554 6.77647e-16)
(1.00235 -0.00609217 6.95402e-18)
(1.00323 -0.00615082 -1.45549e-16)
(1.00405 -0.00598474 1.16117e-17)
(1.00484 -0.00562281 -2.65298e-16)
(1.00558 -0.00503272 -3.59503e-16)
(1.00578 -0.00384537 -3.22388e-16)
(1.0063 -0.00212624 3.75336e-16)
(0.997917 -0.000146583 -3.77652e-17)
(0.998037 -0.00120085 8.34465e-17)
(0.998255 -0.00222673 -9.6201e-18)
(0.998645 -0.00320482 2.57881e-16)
(0.999188 -0.00409158 -1.00644e-16)
(0.99985 -0.00486312 -7.10487e-17)
(1.00062 -0.00549401 7.38286e-17)
(1.00148 -0.00595821 -4.27389e-16)
(1.00238 -0.00622562 -3.06057e-16)
(1.00328 -0.00627003 -1.07715e-17)
(1.00411 -0.00608528 9.41455e-17)
(1.00491 -0.00570163 1.4659e-16)
(1.00566 -0.00508699 3.76231e-16)
(1.00586 -0.00386838 3.81593e-16)
(1.00639 -0.00210152 -5.29055e-17)
(0.997804 -0.000156466 3.16884e-18)
(0.99793 -0.00124848 -2.76455e-17)
(0.998158 -0.00230719 -1.69556e-16)
(0.998565 -0.00331318 -2.65559e-16)
(0.999126 -0.00421843 9.5776e-17)
(0.999809 -0.0050003 1.35423e-16)
(1.0006 -0.00563456 -3.34303e-16)
(1.00148 -0.00609566 -8.20352e-17)
(1.0024 -0.0063545 2.9436e-16)
(1.00331 -0.00638554 -1.17235e-16)
(1.00416 -0.00618305 1.26814e-16)
(1.00498 -0.00577853 1.31138e-16)
(1.00574 -0.00513998 5.79958e-17)
(1.00595 -0.00389077 -4.72149e-16)
(1.00649 -0.00207664 -1.0639e-16)
(0.997688 -0.000165929 2.62664e-17)
(0.99782 -0.00129473 -4.53693e-17)
(0.998057 -0.00238495 1.25243e-16)
(0.998479 -0.00341775 2.24563e-16)
(0.99906 -0.00434057 7.20393e-17)
(0.999763 -0.00513227 -2.61766e-16)
(1.00057 -0.00576986 1.68099e-16)
(1.00147 -0.00622828 1.35931e-16)
(1.00242 -0.00647926 2.5653e-16)
(1.00335 -0.00649781 1.66843e-16)
(1.00421 -0.00627852 -3.09469e-16)
(1.00504 -0.00585398 3.4982e-17)
(1.00582 -0.00519222 -5.04421e-17)
(1.00602 -0.00391302 -1.31408e-17)
(1.00658 -0.0020534 4.15525e-17)
(0.997569 -0.000174958 3.19299e-17)
(0.997705 -0.00133955 5.06441e-18)
(0.997952 -0.00245996 1.75447e-16)
(0.998389 -0.00351847 -6.53379e-17)
(0.998987 -0.00445809 1.49906e-16)
(0.99971 -0.00525925 1.30016e-16)
(1.00054 -0.00590027 4.84573e-17)
(1.00146 -0.00635649 9.49443e-17)
(1.00242 -0.00660036 -1.19547e-16)
(1.00337 -0.00660727 -1.14621e-17)
(1.00425 -0.00637205 -8.87833e-17)
(1.0051 -0.00592822 -3.43685e-17)
(1.00588 -0.00524381 1.22082e-16)
(1.0061 -0.00393511 -1.08223e-18)
(1.00667 -0.00203006 -1.22133e-16)
(0.997447 -0.000183452 5.09656e-18)
(0.997587 -0.0013828 -8.85729e-17)
(0.997842 -0.00253216 -1.91476e-16)
(0.998294 -0.00361543 -1.20459e-16)
(0.998909 -0.0045712 -9.76892e-17)
(0.999651 -0.00538158 3.16777e-18)
(1.0005 -0.00602622 -5.27581e-17)
(1.00144 -0.00648077 -1.10057e-16)
(1.00242 -0.00671829 -5.45963e-17)
(1.00339 -0.00671439 -1.6291e-16)
(1.00429 -0.00646409 2.74113e-16)
(1.00515 -0.00600171 4.28716e-17)
(1.00595 -0.0052952 -2.60622e-16)
(1.00618 -0.00395746 2.49285e-16)
(1.00676 -0.00200855 4.24511e-17)
(0.997322 -0.000191446 -5.02084e-17)
(0.997464 -0.00142454 6.89047e-17)
(0.997728 -0.00260164 -7.13816e-18)
(0.998194 -0.00370878 -1.95511e-17)
(0.998827 -0.00468017 -1.42546e-16)
(0.999587 -0.00549965 1.82595e-16)
(1.00046 -0.00614818 -5.25124e-18)
(1.00142 -0.00660164 1.75936e-16)
(1.00242 -0.00683356 1.41692e-17)
(1.00341 -0.00681966 -4.2752e-18)
(1.00433 -0.00655503 -4.09903e-16)
(1.0052 -0.00607467 -1.00397e-16)
(1.00602 -0.00534647 2.95911e-16)
(1.00625 -0.00398009 -1.874e-16)
(1.00686 -0.00198693 1.0283e-16)
(0.997194 -0.000198875 1.65773e-17)
(0.997338 -0.00146474 5.52328e-17)
(0.99761 -0.00266849 -5.72772e-17)
(0.99809 -0.00379876 -5.69112e-17)
(0.998739 -0.00478536 9.79367e-17)
(0.999518 -0.00561392 -1.64883e-16)
(1.00041 -0.00626667 -1.88206e-16)
(1.00139 -0.00671966 -9.0855e-18)
(1.00241 -0.0069467 -3.75395e-17)
(1.00342 -0.00692356 2.62568e-16)
(1.00436 -0.00664532 2.42348e-16)
(1.00525 -0.00614761 1.18867e-16)
(1.00608 -0.00539812 7.07179e-17)
(1.00633 -0.00400347 4.1963e-16)
(1.00695 -0.00196742 -2.02289e-16)
(0.997064 -0.000205816 -2.89546e-17)
(0.997209 -0.00150352 -7.35112e-17)
(0.997488 -0.00273292 2.79827e-16)
(0.997982 -0.00388564 2.29787e-16)
(0.998648 -0.00488717 -5.62151e-17)
(0.999445 -0.00572487 -8.56633e-17)
(1.00036 -0.00638224 8.76484e-18)
(1.00136 -0.00683536 -2.38966e-16)
(1.0024 -0.00705824 -2.84448e-16)
(1.00343 -0.00702657 8.27591e-17)
(1.00438 -0.00673535 2.17114e-16)
(1.0053 -0.00622073 -1.33873e-16)
(1.00614 -0.00545023 -1.77876e-16)
(1.0064 -0.00402751 -4.11148e-16)
(1.00705 -0.00194794 2.30565e-17)
(0.99693 -0.000212229 6.04295e-17)
(0.997076 -0.00154092 8.62358e-17)
(0.997363 -0.00279509 -2.57002e-16)
(0.997871 -0.00396976 -1.0913e-16)
(0.998552 -0.00498602 1.79843e-16)
(0.999367 -0.00583301 2.56198e-16)
(1.0003 -0.00649542 9.47607e-17)
(1.00132 -0.0069493 1.45975e-16)
(1.00238 -0.0071687 1.94808e-17)
(1.00343 -0.00712915 -3.03795e-16)
(1.00441 -0.00682553 -2.118e-16)
(1.00534 -0.00629446 8.20206e-17)
(1.0062 -0.00550323 -2.89666e-16)
(1.00648 -0.00405262 4.94564e-16)
(1.00715 -0.00193068 1.33398e-16)
(0.996794 -0.000218219 -5.27329e-17)
(0.99694 -0.0015771 -6.70534e-17)
(0.997235 -0.00285527 3.36483e-17)
(0.997755 -0.00405143 -8.21459e-17)
(0.998452 -0.00508235 -1.96991e-16)
(0.999285 -0.00593884 -1.19502e-16)
(1.00024 -0.00660673 8.51598e-17)
(1.00128 -0.00706198 1.00128e-17)
(1.00237 -0.00727853 3.07604e-16)
(1.00344 -0.00723171 3.21267e-16)
(1.00443 -0.00691617 1.52709e-17)
(1.00539 -0.00636896 1.97708e-17)
(1.00626 -0.00555712 6.28838e-16)
(1.00655 -0.00407872 3.2907e-17)
(1.00725 -0.00191347 4.17335e-17)
(0.996656 -0.00022376 1.1681e-17)
(0.996801 -0.00161216 2.32366e-17)
(0.997103 -0.00291368 1.79748e-17)
(0.997636 -0.00413103 1.08934e-16)
(0.998348 -0.0051766 -8.8806e-17)
(0.999199 -0.00604285 -2.28467e-16)
(1.00017 -0.00671672 -1.24139e-16)
(1.00123 -0.00717392 -2.16678e-17)
(1.00234 -0.00738824 -2.16864e-16)
(1.00344 -0.00733467 -2.50169e-16)
(1.00445 -0.00700769 -3.00106e-17)
(1.00543 -0.00644465 -5.72581e-17)
(1.00633 -0.00561239 5.62408e-18)
(1.00663 -0.00410628 -3.99605e-16)
(1.00735 -0.00189877 -4.64863e-17)
(0.996514 -0.000228979 1.18936e-17)