/*--------------------------------*- C++ -*----------------------------------*\
  =========                 |
  \\      /  F ield         | OpenFOAM: The Open Source CFD Toolbox
   \\    /   O peration     | Website:  https://openfoam.org
    \\  /    A nd           | Version:  6.0
     \\/     M anipulation  |
\*---------------------------------------------------------------------------*/
FoamFile
{
    version     2.0;
    format      ascii;
    class       volScalarField;
    location    "3.48";
    object      p;
}
// * * * * * * * * * * * * * * * * * * * * * * * * * * * * * * * * * * * * * //

dimensions      [0 2 -2 0 0 0 0];

internalField   nonuniform List<scalar> 
13500
(
0.097893
0.097995
0.09742
0.097112
0.095862
0.09568
0.094328
0.09527
0.096095
0.099425
0.12235
0.16392
0.097893
0.097995
0.09742
0.097113
0.095861
0.095681
0.094327
0.095271
0.096092
0.099486
0.12167
0.15886
0.097894
0.097996
0.09742
0.097114
0.09586
0.095682
0.094324
0.095271
0.096083
0.099529
0.12079
0.15437
0.097895
0.097997
0.09742
0.097116
0.095859
0.095684
0.09432
0.095269
0.096068
0.099549
0.11982
0.15086
0.097896
0.097999
0.097421
0.097118
0.095858
0.095686
0.094315
0.095267
0.096048
0.099553
0.11878
0.14789
0.097898
0.098001
0.097422
0.09712
0.095858
0.095687
0.09431
0.095264
0.096023
0.099546
0.11771
0.14525
0.0979
0.098004
0.097424
0.097123
0.095857
0.095689
0.094304
0.09526
0.095993
0.099525
0.11663
0.14284
0.097903
0.098007
0.097426
0.097126
0.095857
0.09569
0.094297
0.095255
0.095958
0.099491
0.11555
0.14063
0.097906
0.09801
0.097428
0.097129
0.095856
0.095691
0.09429
0.095249
0.095918
0.099442
0.1145
0.13859
0.097909
0.098014
0.097431
0.097132
0.095856
0.095692
0.094282
0.095242
0.095872
0.09938
0.11348
0.13669
0.097913
0.098018
0.097434
0.097136
0.095856
0.095694
0.094274
0.095234
0.095822
0.099306
0.1125
0.1349
0.097918
0.098023
0.097438
0.09714
0.095856
0.095695
0.094265
0.095225
0.095766
0.099219
0.11156
0.13321
0.097923
0.098028
0.097442
0.097144
0.095857
0.095696
0.094255
0.095215
0.095704
0.099123
0.11067
0.13161
0.097928
0.098033
0.097446
0.097149
0.095857
0.095697
0.094245
0.095204
0.095638
0.099017
0.10981
0.13009
0.097934
0.098039
0.097451
0.097154
0.095858
0.095698
0.094234
0.095192
0.095565
0.098904
0.109
0.12864
0.09794
0.098045
0.097456
0.097159
0.095859
0.095699
0.094223
0.095179
0.095488
0.098784
0.10822
0.12726
0.097947
0.098052
0.097461
0.097165
0.09586
0.095699
0.094211
0.095165
0.095404
0.09866
0.10748
0.12593
0.097955
0.098059
0.097467
0.09717
0.095861
0.0957
0.094198
0.09515
0.095316
0.098532
0.10677
0.12466
0.097963
0.098067
0.097474
0.097177
0.095862
0.095701
0.094185
0.095133
0.095222
0.098402
0.10608
0.12344
0.097971
0.098075
0.097481
0.097183
0.095864
0.095702
0.094171
0.095116
0.095123
0.098271
0.10542
0.12226
0.09798
0.098084
0.097488
0.09719
0.095866
0.095702
0.094157
0.095097
0.095019
0.098139
0.10478
0.12112
0.097989
0.098093
0.097496
0.097197
0.095868
0.095703
0.094142
0.095077
0.094911
0.098008
0.10416
0.12002
0.097999
0.098103
0.097504
0.097204
0.09587
0.095703
0.094127
0.095056
0.094799
0.097878
0.10355
0.11895
0.098009
0.098113
0.097513
0.097212
0.095872
0.095704
0.094111
0.095033
0.094682
0.097749
0.10296
0.11791
0.09802
0.098123
0.097522
0.09722
0.095875
0.095704
0.094094
0.095009
0.094562
0.097621
0.10238
0.1169
0.098032
0.098134
0.097531
0.097229
0.095877
0.095704
0.094077
0.094984
0.094438
0.097496
0.10181
0.11592
0.098044
0.098146
0.097541
0.097238
0.09588
0.095705
0.094059
0.094957
0.094311
0.097372
0.10124
0.11496
0.098056
0.098158
0.097552
0.097247
0.095883
0.095705
0.094041
0.094929
0.094182
0.09725
0.10069
0.11402
0.09807
0.09817
0.097563
0.097256
0.095887
0.095705
0.094022
0.094899
0.09405
0.09713
0.10014
0.1131
0.098083
0.098184
0.097574
0.097266
0.09589
0.095705
0.094003
0.094868
0.093917
0.09701
0.099592
0.11221
0.098097
0.098197
0.097586
0.097276
0.095894
0.095705
0.093983
0.094835
0.093782
0.096892
0.099052
0.11132
0.098112
0.098211
0.097599
0.097287
0.095898
0.095705
0.093962
0.094801
0.093645
0.096775
0.098517
0.11046
0.098127
0.098226
0.097612
0.097298
0.095902
0.095705
0.093941
0.094765
0.093508
0.096658
0.097987
0.10962
0.098143
0.098241
0.097625
0.097309
0.095907
0.095705
0.09392
0.094728
0.09337
0.096541
0.097461
0.10879
0.09816
0.098257
0.097639
0.09732
0.095911
0.095705
0.093898
0.09469
0.093232
0.096425
0.09694
0.10797
0.098177
0.098273
0.097653
0.097332
0.095916
0.095704
0.093875
0.09465
0.093093
0.096308
0.096423
0.10717
0.098194
0.09829
0.097668
0.097345
0.095922
0.095704
0.093852
0.094609
0.092955
0.09619
0.09591
0.10638
0.098212
0.098307
0.097684
0.097358
0.095927
0.095704
0.093828
0.094567
0.092817
0.096071
0.095403
0.10561
0.098231
0.098325
0.0977
0.097371
0.095933
0.095703
0.093803
0.094524
0.092679
0.095951
0.0949
0.10486
0.09825
0.098343
0.097716
0.097384
0.095939
0.095703
0.093778
0.094479
0.092542
0.095829
0.094403
0.10411
0.09827
0.098362
0.097733
0.097398
0.095945
0.095702
0.093752
0.094434
0.092406
0.095706
0.093912
0.10338
0.098291
0.098381
0.097751
0.097412
0.095952
0.095701
0.093726
0.094388
0.09227
0.095581
0.093426
0.10266
0.098312
0.098401
0.097769
0.097427
0.095958
0.095701
0.093699
0.094341
0.092135
0.095454
0.092945
0.10196
0.098334
0.098422
0.097787
0.097442
0.095966
0.0957
0.093671
0.094294
0.092001
0.095325
0.092471
0.10127
0.098356
0.098443
0.097806
0.097457
0.095973
0.095699
0.093643
0.094246
0.091868
0.095194
0.092004
0.10059
0.098379
0.098465
0.097826
0.097473
0.095981
0.095698
0.093614
0.094197
0.091735
0.095061
0.091542
0.099923
0.098402
0.098487
0.097846
0.097489
0.095989
0.095698
0.093584
0.094149
0.091604
0.094925
0.091088
0.099269
0.098427
0.09851
0.097867
0.097506
0.095997
0.095697
0.093554
0.0941
0.091472
0.094788
0.09064
0.098627
0.098451
0.098534
0.097889
0.097523
0.096006
0.095695
0.093523
0.094051
0.091342
0.094647
0.090199
0.097997
0.098477
0.098558
0.097911
0.09754
0.096015
0.095694
0.093492
0.094003
0.091212
0.094505
0.089765
0.097379
0.098503
0.098583
0.097933
0.097558
0.096024
0.095693
0.09346
0.093954
0.091082
0.09436
0.089337
0.096772
0.09853
0.098608
0.097956
0.097576
0.096034
0.095692
0.093427
0.093906
0.090953
0.094213
0.088917
0.096177
0.098557
0.098634
0.09798
0.097595
0.096044
0.095691
0.093394
0.093858
0.090824
0.094064
0.088504
0.095593
0.098585
0.09866
0.098004
0.097614
0.096054
0.095689
0.09336
0.093811
0.090695
0.093913
0.088098
0.095019
0.098614
0.098687
0.098029
0.097633
0.096065
0.095688
0.093326
0.093764
0.090566
0.09376
0.087698
0.094456
0.098643
0.098715
0.098054
0.097653
0.096076
0.095686
0.093291
0.093717
0.090437
0.093605
0.087306
0.093903
0.098673
0.098744
0.09808
0.097673
0.096087
0.095684
0.093256
0.093672
0.090308
0.093448
0.08692
0.09336
0.098704
0.098773
0.098107
0.097694
0.096099
0.095683
0.09322
0.093627
0.090179
0.09329
0.086542
0.092827
0.098735
0.098802
0.098134
0.097715
0.096111
0.095681
0.093184
0.093582
0.090049
0.09313
0.086169
0.092304
0.098767
0.098833
0.098162
0.097737
0.096123
0.095679
0.093147
0.093539
0.089919
0.092968
0.085804
0.091789
0.0988
0.098863
0.098191
0.097759
0.096136
0.095677
0.093111
0.093496
0.089789
0.092804
0.085444
0.091284
0.098833
0.098895
0.09822
0.097781
0.096149
0.095676
0.093073
0.093454
0.089658
0.092639
0.085091
0.090788
0.098867
0.098927
0.09825
0.097804
0.096163
0.095674
0.093036
0.093413
0.089527
0.092473
0.084745
0.0903
0.098902
0.09896
0.09828
0.097827
0.096177
0.095672
0.092998
0.093372
0.089396
0.092306
0.084404
0.08982
0.098937
0.098993
0.098311
0.097851
0.096192
0.09567
0.09296
0.093332
0.089264
0.092137
0.084069
0.089348
0.098973
0.099028
0.098343
0.097875
0.096207
0.095668
0.092922
0.093293
0.089131
0.091967
0.08374
0.088885
0.09901
0.099062
0.098375
0.0979
0.096222
0.095666
0.092884
0.093254
0.088998
0.091797
0.083416
0.088428
0.099048
0.099098
0.098408
0.097925
0.096237
0.095664
0.092846
0.093216
0.088865
0.091625
0.083098
0.087979
0.099086
0.099134
0.098442
0.09795
0.096254
0.095662
0.092807
0.093178
0.088731
0.091452
0.082785
0.087537
0.099125
0.099171
0.098476
0.097976
0.09627
0.09566
0.092769
0.093141
0.088597
0.091279
0.082477
0.087102
0.099164
0.099209
0.098511
0.098003
0.096287
0.095658
0.092731
0.093104
0.088462
0.091105
0.082174
0.086673
0.099205
0.099247
0.098546
0.09803
0.096304
0.095656
0.092692
0.093068
0.088328
0.09093
0.081876
0.086251
0.099246
0.099286
0.098582
0.098057
0.096322
0.095655
0.092654
0.093031
0.088193
0.090755
0.081583
0.085835
0.099288
0.099325
0.098619
0.098085
0.09634
0.095653
0.092616
0.092995
0.088057
0.090579
0.081294
0.085425
0.09933
0.099366
0.098657
0.098113
0.096359
0.095652
0.092578
0.092959
0.087922
0.090402
0.08101
0.085021
0.099374
0.099407
0.098695
0.098142
0.096378
0.095651
0.09254
0.092923
0.087787
0.090226
0.08073
0.084623
0.099418
0.099448
0.098734
0.098171
0.096397
0.09565
0.092502
0.092887
0.087652
0.090048
0.080454
0.08423
0.099462
0.099491
0.098774
0.098201
0.096417
0.095649
0.092464
0.092851
0.087516
0.089871
0.080183
0.083842
0.099508
0.099534
0.098814
0.098232
0.096438
0.095649
0.092427
0.092815
0.087381
0.089693
0.079916
0.08346
0.099554
0.099578
0.098855
0.098262
0.096458
0.095649
0.092389
0.092778
0.087247
0.089515
0.079652
0.083083
0.099601
0.099623
0.098897
0.098294
0.096479
0.095649
0.092352
0.092741
0.087112
0.089337
0.079392
0.08271
0.099649
0.099668
0.098939
0.098326
0.096501
0.09565
0.092315
0.092704
0.086978
0.089158
0.079136
0.082343
0.099698
0.099714
0.098982
0.098358
0.096523
0.095651
0.092278
0.092666
0.086844
0.08898
0.078884
0.08198
0.099747
0.099761
0.099026
0.098391
0.096545
0.095652
0.092241
0.092628
0.086711
0.088801
0.078635
0.081622
0.099797
0.099809
0.099071
0.098425
0.096568
0.095654
0.092204
0.09259
0.086578
0.088623
0.07839
0.081268
0.099848
0.099857
0.099116
0.098459
0.096591
0.095656
0.092168
0.092551
0.086446
0.088444
0.078148
0.080918
0.0999
0.099906
0.099162
0.098494
0.096615
0.095659
0.092132
0.092511
0.086314
0.088266
0.07791
0.080573
0.099953
0.099957
0.099209
0.098529
0.096639
0.095662
0.092095
0.092471
0.086184
0.088087
0.077674
0.080231
0.10001
0.10001
0.099257
0.098565
0.096663
0.095666
0.092059
0.09243
0.086053
0.087909
0.077442
0.079894
0.10006
0.10006
0.099305
0.098601
0.096688
0.09567
0.092023
0.092388
0.085924
0.087731
0.077213
0.07956
0.10012
0.10011
0.099354
0.098638
0.096713
0.095675
0.091988
0.092346
0.085795
0.087553
0.076987
0.079231
0.10017
0.10016
0.099404
0.098676
0.096739
0.09568
0.091952
0.092303
0.085668
0.087375
0.076764
0.078905
0.10023
0.10022
0.099454
0.098715
0.096765
0.095686
0.091916
0.092259
0.085541
0.087197
0.076544
0.078582
0.10029
0.10027
0.099506
0.098754
0.096791
0.095693
0.091881
0.092215
0.085415
0.087019
0.076326
0.078263
0.10034
0.10033
0.099558
0.098794
0.096818
0.0957
0.091846
0.09217
0.08529
0.086842
0.076111
0.077948
0.1004
0.10039
0.099611
0.098834
0.096845
0.095708
0.091811
0.092124
0.085165
0.086665
0.075899
0.077635
0.10046
0.10044
0.099665
0.098875
0.096873
0.095717
0.091776
0.092077
0.085042
0.086488
0.07569
0.077326
0.10052
0.1005
0.099719
0.098917
0.096901
0.095726
0.091741
0.092029
0.08492
0.086312
0.075483
0.077021
0.10059
0.10056
0.099775
0.09896
0.096929
0.095736
0.091706
0.091981
0.084798
0.086135
0.075279
0.076718
0.10065
0.10062
0.099831
0.099003
0.096958
0.095747
0.091671
0.091932
0.084678
0.085959
0.075077
0.076418
0.10071
0.10068
0.099888
0.099048
0.096987
0.095758
0.091637
0.091882
0.084558
0.085783
0.074877
0.076121
0.10078
0.10075
0.099947
0.099093
0.097017
0.09577
0.091602
0.091831
0.08444
0.085608
0.07468
0.075827
0.10084
0.10081
0.10001
0.099139
0.097047
0.095783
0.091568
0.091779
0.084322
0.085433
0.074485
0.075536
0.10091
0.10088
0.10007
0.099186
0.097078
0.095797
0.091534
0.091727
0.084205
0.085258
0.074292
0.075247
0.10098
0.10094
0.10013
0.099233
0.097109
0.095811
0.091501
0.091674
0.08409
0.085083
0.074102
0.074961
0.10105
0.10101
0.10019
0.099282
0.09714
0.095826
0.091467
0.09162
0.083975
0.084909
0.073913
0.074677
0.10112
0.10108
0.10025
0.099331
0.097172
0.095842
0.091434
0.091566
0.083861
0.084735
0.073727
0.074396
0.10119
0.10114
0.10031
0.099382
0.097204
0.095858
0.091401
0.09151
0.083748
0.084561
0.073542
0.074117
0.10126
0.10121
0.10038
0.099434
0.097237
0.095876
0.091369
0.091454
0.083636
0.084388
0.073359
0.073841
0.10134
0.10129
0.10044
0.099486
0.097271
0.095894
0.091336
0.091398
0.083525
0.084214
0.073178
0.073566
0.10141
0.10136
0.10051
0.09954
0.097305
0.095913
0.091304
0.09134
0.083415
0.084041
0.072999
0.073294
0.10149
0.10143
0.10058
0.099594
0.09734
0.095932
0.091273
0.091282
0.083305
0.083869
0.072822
0.073024
0.10156
0.10151
0.10065
0.09965
0.097375
0.095953
0.091242
0.091223
0.083197
0.083696
0.072646
0.072755
0.10164
0.10158
0.10072
0.099707
0.097411
0.095974
0.091211
0.091164
0.083089
0.083524
0.072472
0.072489
0.10172
0.10166
0.10079
0.099766
0.097448
0.095996
0.091181
0.091104
0.082982
0.083352
0.072299
0.072224
0.1018
0.10174
0.10086
0.099825
0.097485
0.096019
0.091152
0.091044
0.082876
0.08318
0.072128
0.071961
0.10188
0.10182
0.10094
0.099886
0.097523
0.096043
0.091123
0.090983
0.082771
0.083008
0.071958
0.071699
0.10197
0.1019
0.10101
0.099948
0.097562
0.096067
0.091095
0.090921
0.082666
0.082836
0.071789
0.071439
0.10205
0.10199
0.10109
0.10001
0.097602
0.096093
0.091067
0.090859
0.082562
0.082665
0.071622
0.071181
0.10214
0.10207
0.10117
0.10008
0.097642
0.096119
0.09104
0.090797
0.082459
0.082493
0.071456
0.070924
0.10223
0.10216
0.10125
0.10014
0.097684
0.096146
0.091014
0.090734
0.082357
0.082322
0.071291
0.070668
0.10232
0.10225
0.10133
0.10021
0.097726
0.096175
0.090989
0.090671
0.082256
0.082151
0.071127
0.070413
0.10241
0.10234
0.10141
0.10028
0.09777
0.096204
0.090964
0.090607
0.082155
0.08198
0.070965
0.07016
0.10251
0.10243
0.10149
0.10035
0.097814
0.096234
0.090941
0.090544
0.082055
0.081809
0.070803
0.069907
0.1026
0.10252
0.10158
0.10043
0.09786
0.096265
0.090918
0.09048
0.081956
0.081638
0.070642
0.069656
0.1027
0.10262
0.10167
0.1005
0.097907
0.096298
0.090897
0.090415
0.081857
0.081467
0.070482
0.069405
0.1028
0.10272
0.10176
0.10058
0.097956
0.096331
0.090876
0.090351
0.081759
0.081297
0.070323
0.069156
0.1029
0.10282
0.10185
0.10066
0.098005
0.096366
0.090857
0.090287
0.081662
0.081126
0.070164
0.068906
0.103
0.10292
0.10194
0.10074
0.098056
0.096402
0.090839
0.090222
0.081566
0.080955
0.070007
0.068658
0.10311
0.10303
0.10204
0.10082
0.098109
0.096439
0.090822
0.090158
0.08147
0.080784
0.069849
0.06841
0.10322
0.10314
0.10214
0.10091
0.098164
0.096477
0.090807
0.090093
0.081375
0.080613
0.069693
0.068162
0.10333
0.10325
0.10224
0.10099
0.09822
0.096517
0.090793
0.090029
0.081281
0.080443
0.069537
0.067915
0.10344
0.10336
0.10234
0.10108
0.098278
0.096559
0.09078
0.089965
0.081188
0.080272
0.069381
0.067669
0.10356
0.10348
0.10244
0.10118
0.098338
0.096602
0.09077
0.089901
0.081096
0.080101
0.069225
0.067422
0.10368
0.10359
0.10255
0.10127
0.0984
0.096646
0.09076
0.089838
0.081004
0.07993
0.06907
0.067175
0.1038
0.10372
0.10266
0.10137
0.098464
0.096692
0.090753
0.089775
0.080913
0.079759
0.068915
0.066929
0.10392
0.10384
0.10278
0.10147
0.098531
0.09674
0.090748
0.089713
0.080823
0.079588
0.068761
0.066682
0.10405
0.10397
0.10289
0.10157
0.0986
0.09679
0.090744
0.089651
0.080734
0.079417
0.068606
0.066435
0.10418
0.1041
0.10301
0.10168
0.098672
0.096842
0.090743
0.08959
0.080646
0.079246
0.068452
0.066188
0.10431
0.10424
0.10314
0.10179
0.098747
0.096896
0.090743
0.08953
0.080559
0.079075
0.068297
0.065941
0.10445
0.10437
0.10326
0.10191
0.098824
0.096953
0.090746
0.089471
0.080473
0.078904
0.068142
0.065693
0.10459
0.10452
0.10339
0.10202
0.098905
0.097011
0.090752
0.089412
0.080388
0.078733
0.067988
0.065445
0.10474
0.10466
0.10353
0.10214
0.098988
0.097073
0.09076
0.089355
0.080304
0.078562
0.067833
0.065196
0.10489
0.10481
0.10367
0.10227
0.099075
0.097136
0.090771
0.089299
0.080222
0.078391
0.067678
0.064946
0.10504
0.10497
0.10381
0.1024
0.099166
0.097203
0.090784
0.089244
0.08014
0.07822
0.067523
0.064695
0.1052
0.10513
0.10395
0.10253
0.099261
0.097272
0.090801
0.089191
0.08006
0.078049
0.067367
0.064444
0.10536
0.1053
0.10411
0.10267
0.099359
0.097345
0.09082
0.089139
0.079982
0.077878
0.067211
0.064191
0.10553
0.10547
0.10426
0.10281
0.099462
0.097421
0.090843
0.089089
0.079904
0.077707
0.067054
0.063937
0.10571
0.10564
0.10442
0.10296
0.099569
0.0975
0.090869
0.089041
0.079829
0.077536
0.066897
0.063682
0.10588
0.10582
0.10459
0.10312
0.099681
0.097583
0.090899
0.088995
0.079754
0.077366
0.06674
0.063426
0.10607
0.10601
0.10476
0.10327
0.099798
0.097669
0.090932
0.088951
0.079682
0.077196
0.066582
0.063168
0.10626
0.1062
0.10494
0.10344
0.099919
0.09776
0.09097
0.088909
0.079611
0.077025
0.066423
0.062908
0.10645
0.1064
0.10512
0.10361
0.10005
0.097854
0.091011
0.08887
0.079542
0.076855
0.066263
0.062647
0.10665
0.1066
0.10531
0.10378
0.10018
0.097954
0.091057
0.088833
0.079475
0.076686
0.066103
0.062384
0.10686
0.10681
0.10551
0.10397
0.10032
0.098057
0.091107
0.088799
0.07941
0.076516
0.065941
0.062119
0.10707
0.10703
0.10571
0.10416
0.10046
0.098166
0.091162
0.088768
0.079347
0.076347
0.065779
0.061852
0.10729
0.10726
0.10592
0.10435
0.10061
0.09828
0.091222
0.08874
0.079286
0.076178
0.065616
0.061582
0.10752
0.10749
0.10614
0.10456
0.10077
0.098399
0.091287
0.088715
0.079228
0.07601
0.065452
0.061311
0.10775
0.10773
0.10637
0.10477
0.10094
0.098523
0.091357
0.088694
0.079172
0.075842
0.065286
0.061036
0.108
0.10798
0.1066
0.10498
0.10111
0.098653
0.091433
0.088676
0.079118
0.075674
0.065119
0.06076
0.10825
0.10823
0.10684
0.10521
0.10129
0.09879
0.091514
0.088662
0.079067
0.075507
0.064951
0.06048
0.10851
0.1085
0.10709
0.10545
0.10147
0.098932
0.091601
0.088652
0.079018
0.07534
0.064782
0.060197
0.10877
0.10877
0.10735
0.10569
0.10167
0.099082
0.091694
0.088646
0.078973
0.075174
0.064611
0.059911
0.10905
0.10906
0.10762
0.10594
0.10187
0.099238
0.091794
0.088644
0.07893
0.075008
0.064439
0.059622
0.10933
0.10935
0.10789
0.1062
0.10208
0.099401
0.0919
0.088646
0.07889
0.074843
0.064264
0.05933
0.10963
0.10965
0.10818
0.10647
0.10231
0.099571
0.092013
0.088653
0.078853
0.074678
0.064088
0.059033
0.10993
0.10996
0.10848
0.10676
0.10254
0.09975
0.092133
0.088665
0.078818
0.074514
0.063911
0.058733
0.11025
0.11029
0.10879
0.10705
0.10278
0.099936
0.09226
0.088681
0.078787
0.07435
0.06373
0.058429
0.11057
0.11062
0.1091
0.10735
0.10303
0.10013
0.092394
0.088703
0.078759
0.074187
0.063548
0.05812
0.1109
0.11096
0.10943
0.10766
0.10329
0.10033
0.092536
0.088729
0.078734
0.074023
0.063363
0.057806
0.11125
0.11132
0.10977
0.10799
0.10356
0.10054
0.092686
0.088761
0.078713
0.073861
0.063176
0.057488
0.1116
0.11168
0.11013
0.10832
0.10384
0.10076
0.092843
0.088798
0.078694
0.073698
0.062986
0.057164
0.11197
0.11206
0.11049
0.10867
0.10414
0.10099
0.093009
0.08884
0.078678
0.073535
0.062793
0.056835
0.11235
0.11245
0.11087
0.10903
0.10444
0.10123
0.093183
0.088887
0.078666
0.073372
0.062596
0.0565
0.11274
0.11285
0.11126
0.1094
0.10476
0.10148
0.093365
0.08894
0.078656
0.073209
0.062396
0.056159
0.11314
0.11327
0.11166
0.10978
0.10509
0.10174
0.093555
0.088999
0.07865
0.073046
0.062192
0.055812
0.11355
0.1137
0.11208
0.11018
0.10543
0.10201
0.093755
0.089063
0.078646
0.072882
0.061984
0.055457
0.11398
0.11414
0.11251
0.11059
0.10579
0.10228
0.093963
0.089132
0.078645
0.072717
0.061771
0.055095
0.11442
0.11459
0.11295
0.11101
0.10615
0.10257
0.094179
0.089207
0.078646
0.072551
0.061553
0.054725
0.11487
0.11506
0.11341
0.11145
0.10654
0.10287
0.094405
0.089287
0.07865
0.072384
0.061331
0.054347
0.11533
0.11554
0.11388
0.1119
0.10693
0.10318
0.09464
0.089372
0.078655
0.072215
0.061102
0.053961
0.11581
0.11604
0.11436
0.11237
0.10734
0.1035
0.094883
0.089462
0.078663
0.072043
0.060867
0.053564
0.1163
0.11655
0.11487
0.11285
0.10776
0.10383
0.095136
0.089558
0.078672
0.07187
0.060625
0.053158
0.11681
0.11707
0.11538
0.11334
0.1082
0.10418
0.095397
0.089658
0.078682
0.071693
0.060376
0.052742
0.11733
0.11761
0.11592
0.11385
0.10865
0.10453
0.095668
0.089762
0.078693
0.071513
0.060119
0.052314
0.11786
0.11817
0.11647
0.11438
0.10912
0.1049
0.095947
0.089871
0.078704
0.071329
0.059854
0.051874
0.11841
0.11874
0.11703
0.11492
0.1096
0.10527
0.096236
0.089985
0.078716
0.07114
0.059579
0.051422
0.11898
0.11933
0.11762
0.11548
0.1101
0.10566
0.096534
0.090102
0.078727
0.070946
0.059295
0.050956
0.11956
0.11993
0.11822
0.11605
0.11062
0.10607
0.09684
0.090222
0.078737
0.070747
0.059
0.050476
0.12015
0.12056
0.11884
0.11665
0.11115
0.10648
0.097156
0.090346
0.078746
0.070541
0.058693
0.049981
0.12077
0.1212
0.11948
0.11726
0.1117
0.10691
0.097481
0.090474
0.078753
0.070328
0.058374
0.049471
0.1214
0.12185
0.12014
0.11789
0.11226
0.10735
0.097814
0.090604
0.078757
0.070108
0.058042
0.048943
0.12205
0.12253
0.12082
0.11853
0.11285
0.1078
0.098157
0.090736
0.078759
0.069879
0.057696
0.048398
0.12272
0.12323
0.12152
0.1192
0.11345
0.10827
0.09851
0.090871
0.078757
0.06964
0.057335
0.047834
0.1234
0.12395
0.12225
0.11989
0.11408
0.10875
0.098872
0.091009
0.078752
0.069392
0.056957
0.04725
0.12411
0.12469
0.123
0.12061
0.11472
0.10925
0.099244
0.091148
0.078741
0.069132
0.056563
0.046645
0.12485
0.12546
0.12377
0.12134
0.11539
0.10976
0.099626
0.091289
0.078726
0.068861
0.056151
0.046018
0.1256
0.12625
0.12457
0.12211
0.11609
0.11029
0.10002
0.091432
0.078705
0.068578
0.05572
0.045368
0.12638
0.12707
0.12541
0.1229
0.1168
0.11084
0.10042
0.091576
0.078678
0.068281
0.055268
0.044692
0.12719
0.12792
0.12627
0.12372
0.11755
0.1114
0.10084
0.091723
0.078645
0.06797
0.054796
0.043991
0.12803
0.1288
0.12717
0.12457
0.11832
0.11199
0.10127
0.091871
0.078605
0.067643
0.0543
0.043263
0.1289
0.12971
0.1281
0.12546
0.11913
0.1126
0.10171
0.092022
0.078557
0.067301
0.053782
0.042506
0.1298
0.13067
0.12908
0.12639
0.11997
0.11324
0.10216
0.092174
0.078501
0.066942
0.053238
0.041718
0.13075
0.13166
0.1301
0.12735
0.12085
0.1139
0.10263
0.092329
0.078437
0.066565
0.052668
0.040899
0.13173
0.1327
0.13116
0.12837
0.12177
0.11459
0.10312
0.092487
0.078363
0.06617
0.05207
0.040046
0.13275
0.13378
0.13228
0.12943
0.12273
0.11531
0.10363
0.092647
0.07828
0.065754
0.051444
0.039158
0.13383
0.13492
0.13345
0.13054
0.12373
0.11607
0.10415
0.092811
0.078187
0.065316
0.050786
0.038233
0.13495
0.13611
0.13469
0.13172
0.12479
0.11686
0.10469
0.092978
0.078082
0.064856
0.050096
0.037268
0.13612
0.13736
0.13599
0.13295
0.1259
0.11769
0.10526
0.093147
0.077964
0.064371
0.04937
0.036262
0.13736
0.13868
0.13735
0.13425
0.12707
0.11856
0.10584
0.093319
0.077831
0.063858
0.048608
0.035212
0.13865
0.14007
0.1388
0.13563
0.1283
0.11947
0.10645
0.093492
0.077682
0.063316
0.047805
0.034115
0.14002
0.14154
0.14033
0.13709
0.1296
0.12044
0.10708
0.093665
0.077514
0.062741
0.046958
0.032969
0.14145
0.14308
0.14194
0.13863
0.13096
0.12145
0.10773
0.093837
0.077323
0.062128
0.046064
0.031769
0.14295
0.14471
0.14364
0.14025
0.1324
0.12251
0.10841
0.094005
0.077105
0.061475
0.045117
0.030513
0.14452
0.14643
0.14545
0.14198
0.13392
0.12362
0.1091
0.094166
0.076856
0.060774
0.044112
0.029194
0.14617
0.14825
0.14735
0.1438
0.13552
0.12479
0.10981
0.094315
0.076569
0.060019
0.043044
0.027809
0.1479
0.15016
0.14937
0.14573
0.1372
0.126
0.11054
0.094446
0.076237
0.059204
0.041903
0.026351
0.14971
0.15217
0.15149
0.14777
0.13897
0.12727
0.11127
0.094555
0.075853
0.058319
0.040684
0.024813
0.15159
0.15428
0.15374
0.14993
0.14082
0.12859
0.11201
0.094632
0.075406
0.057354
0.039375
0.023187
0.15356
0.15651
0.1561
0.1522
0.14276
0.12996
0.11275
0.094669
0.074887
0.056301
0.037967
0.021463
0.1556
0.15884
0.1586
0.15459
0.14479
0.13137
0.11348
0.094655
0.074284
0.055146
0.036449
0.019632
0.15771
0.16129
0.16122
0.15712
0.14691
0.13282
0.11419
0.09458
0.073583
0.053877
0.034809
0.017682
0.1599
0.16385
0.16399
0.15978
0.14912
0.1343
0.11487
0.094429
0.072772
0.052482
0.033035
0.015603
0.16216
0.16654
0.16691
0.16257
0.15142
0.1358
0.1155
0.094188
0.071834
0.050946
0.031112
0.013381
0.16449
0.16935
0.17
0.16552
0.15381
0.13732
0.11609
0.09384
0.070754
0.049254
0.02903
0.011005
0.16689
0.17231
0.17326
0.16863
0.1563
0.13885
0.1166
0.093365
0.069513
0.047392
0.026773
0.008462
0.16936
0.17542
0.17673
0.17192
0.15889
0.14038
0.11701
0.09274
0.068088
0.045341
0.024328
0.0057414
0.17191
0.17869
0.18042
0.1754
0.16157
0.14188
0.11731
0.091936
0.066457
0.043082
0.021679
0.0028318
0.17452
0.18216
0.18437
0.17909
0.16436
0.14334
0.11746
0.090921
0.064587
0.040591
0.018811
-0.00027712
0.1772
0.18583
0.18861
0.18302
0.16724
0.14474
0.11742
0.08965
0.062442
0.037839
0.015703
-0.0035963
0.17993
0.18975
0.19318
0.1872
0.1702
0.14603
0.11714
0.08807
0.059974
0.03479
0.012329
-0.0071379
0.18271
0.19391
0.19812
0.19166
0.17323
0.14716
0.11656
0.086116
0.057127
0.031397
0.0086596
-0.010917
0.18549
0.19836
0.20346
0.19639
0.17628
0.14807
0.11559
0.083705
0.053831
0.027607
0.0046551
-0.014951
0.18822
0.20308
0.20922
0.20138
0.17929
0.14865
0.11412
0.080745
0.050007
0.023357
0.00027165
-0.019264
0.1908
0.20806
0.2154
0.20659
0.18216
0.14879
0.11204
0.077128
0.045568
0.01858
-0.0045379
-0.02388
0.19312
0.21325
0.22196
0.21194
0.18475
0.14833
0.1092
0.072737
0.04043
0.013213
-0.0098158
-0.028819
0.19498
0.21856
0.22881
0.21727
0.18686
0.14706
0.10543
0.067456
0.034513
0.00721
-0.015589
-0.034093
0.19616
0.22384
0.23578
0.22236
0.18823
0.14475
0.10056
0.06117
0.027759
0.00054759
-0.021858
-0.039686
0.19637
0.22882
0.24254
0.22681
0.18848
0.1411
0.094386
0.053778
0.020134
-0.0067606
-0.028582
-0.045552
0.19527
0.23308
0.24857
0.23006
0.18712
0.13578
0.08672
0.045199
0.011637
-0.014663
-0.035678
-0.051601
0.19252
0.23597
0.25293
0.23121
0.18349
0.12838
0.077374
0.035386
0.0023015
-0.023071
-0.043026
-0.057711
0.18778
0.23643
0.25408
0.22884
0.17664
0.11843
0.066191
0.024343
-0.0077931
-0.031871
-0.050485
-0.063739
0.18087
0.23281
0.24955
0.22084
0.16532
0.1054
0.053073
0.012161
-0.018502
-0.040911
-0.057904
-0.069548
0.17189
0.2227
0.23563
0.20417
0.14782
0.08867
0.03799
-0.00096403
-0.02959
-0.049996
-0.065131
-0.075029
0.16156
0.20303
0.20733
0.17479
0.12197
0.067484
0.020928
-0.014765
-0.04075
-0.058886
-0.072012
-0.080105
0.15136
0.17083
0.15947
0.12832
0.085366
0.040905
0.0017378
-0.029054
-0.051699
-0.067349
-0.078414
-0.084739
0.14302
0.12344
0.088445
0.061603
0.03588
0.0078468
-0.020005
-0.043896
-0.062348
-0.075274
-0.084282
-0.088965
0.1387
0.055703
-0.010158
-0.028067
-0.028773
-0.033453
-0.045423
-0.059949
-0.073081
-0.082919
-0.089843
-0.093043
0.15142
-0.026706
-0.13214
-0.1371
-0.10759
-0.083943
-0.076031
-0.078649
-0.085124
-0.091296
-0.095944
-0.097735
0.19351
-0.10266
-0.2541
-0.24533
-0.18664
-0.13617
-0.10876
-0.099124
-0.098484
-0.10066
-0.10289
-0.10321
0.10271
0.063306
0.053185
0.047148
0.042982
0.039865
0.037377
0.035245
0.033425
0.031594
0.030141
0.027756
0.12203
0.078539
0.065965
0.057937
0.052456
0.048408
0.045206
0.042483
0.040183
0.037871
0.03609
0.033305
0.10938
0.073447
0.06207
0.054172
0.048763
0.044787
0.041661
0.039018
0.03681
0.034582
0.032928
0.030223
0.10432
0.073107
0.062061
0.054073
0.048528
0.04444
0.041228
0.038518
0.036268
0.033993
0.032338
0.029509
0.10365
0.075248
0.064044
0.055841
0.050052
0.045758
0.042379
0.039527
0.037167
0.03478
0.033056
0.03007
0.10298
0.077032
0.065759
0.057423
0.051437
0.046966
0.043439
0.040461
0.037999
0.035514
0.033721
0.030622
0.10183
0.078284
0.067086
0.058702
0.052569
0.047954
0.044301
0.041215
0.038666
0.036103
0.03425
0.031082
0.10062
0.079304
0.068272
0.05989
0.053645
0.048901
0.045133
0.041948
0.039317
0.036688
0.034778
0.031578
0.099476
0.080181
0.069382
0.061047
0.054718
0.049861
0.045985
0.042706
0.039997
0.037311
0.035348
0.032155
0.098385
0.080905
0.070404
0.062159
0.055781
0.050829
0.046854
0.043489
0.040705
0.037973
0.035961
0.032812
0.097328
0.081477
0.071326
0.063212
0.056822
0.051796
0.047736
0.044293
0.04144
0.038673
0.036619
0.033547
0.096302
0.081911
0.072146
0.0642
0.057831
0.052756
0.048625
0.045116
0.042202
0.039409
0.037322
0.034356
0.095308
0.082223
0.072865
0.065114
0.058799
0.053699
0.049516
0.045952
0.042986
0.040179
0.038065
0.035231
0.09435
0.082428
0.073487
0.065952
0.059718
0.054618
0.0504
0.046795
0.043787
0.040975
0.038843
0.036157
0.093427
0.082542
0.074015
0.06671
0.060582
0.055503
0.051268
0.047636
0.044596
0.04179
0.039645
0.03712
0.092543
0.082579
0.074456
0.067391
0.061385
0.056346
0.052112
0.048466
0.045405
0.042612
0.040461
0.038101
0.091695
0.082551
0.074819
0.067994
0.062125
0.057144
0.052924
0.049278
0.046206
0.043434
0.041282
0.039082
0.090886
0.082471
0.075109
0.068526
0.062802
0.057892
0.053701
0.050065
0.046991
0.044245
0.042095
0.040048
0.090114
0.082347
0.075336
0.068989
0.063416
0.058588
0.054436
0.050822
0.047753
0.045038
0.042892
0.040984
0.089377
0.082188
0.075507
0.069389
0.063971
0.059232
0.055129
0.051544
0.048487
0.045806
0.043666
0.041879
0.088674
0.082
0.075628
0.069733
0.064469
0.059825
0.055777
0.052228
0.04919
0.046543
0.044409
0.042722
0.088004
0.08179
0.075706
0.070023
0.064913
0.060368
0.056381
0.052873
0.049858
0.047244
0.045118
0.043509
0.087364
0.081563
0.075746
0.070267
0.065307
0.060863
0.056941
0.053478
0.050489
0.047908
0.045789
0.044235
0.086753
0.081321
0.075753
0.070468
0.065655
0.061312
0.057458
0.054044
0.051083
0.048533
0.046421
0.044901
0.086168
0.081068
0.075732
0.070631
0.065961
0.061719
0.057935
0.054569
0.05164
0.049117
0.047012
0.045506
0.085608
0.080808
0.075686
0.07076
0.066228
0.062085
0.058372
0.055057
0.052159
0.049661
0.047564
0.046052
0.085071
0.080541
0.075619
0.070858
0.066459
0.062415
0.058772
0.055508
0.052644
0.050167
0.048076
0.046545
0.084554
0.080269
0.075534
0.07093
0.066658
0.06271
0.059137
0.055923
0.053093
0.050634
0.048551
0.046986
0.084057
0.079995
0.075433
0.070977
0.066827
0.062972
0.05947
0.056306
0.05351
0.051066
0.04899
0.047382
0.083578
0.079718
0.075319
0.071002
0.066969
0.063206
0.059772
0.056656
0.053895
0.051464
0.049395
0.047737
0.083116
0.079441
0.075193
0.071008
0.067088
0.063412
0.060046
0.056977
0.054251
0.05183
0.049769
0.048055
0.082669
0.079163
0.075057
0.070997
0.067184
0.063593
0.060293
0.057271
0.054579
0.052166
0.050114
0.048342