/*--------------------------------*- C++ -*----------------------------------*\
  =========                 |
  \\      /  F ield         | OpenFOAM: The Open Source CFD Toolbox
   \\    /   O peration     | Website:  https://openfoam.org
    \\  /    A nd           | Version:  6.0
     \\/     M anipulation  |
\*---------------------------------------------------------------------------*/
FoamFile
{
    version     2.0;
    format      ascii;
    class       surfaceScalarField;
    location    "13";
    object      phi;
}
// * * * * * * * * * * * * * * * * * * * * * * * * * * * * * * * * * * * * * //

dimensions      [0 3 -1 0 0 0 0];

internalField   nonuniform List<scalar> 
123526
(
-0.000106934
2.19994e-05
0.000107316
-0.000106514
2.37953e-05
-0.000106077
2.57387e-05
-0.000105589
2.78422e-05
-0.00010508
3.01192e-05
-0.000104514
3.25846e-05
-0.000103921
3.52541e-05
-0.000103267
3.81449e-05
-0.000102581
4.12747e-05
-0.000101825
4.46639e-05
-0.00010103
4.83351e-05
-0.000100157
5.23112e-05
-9.92357e-05
5.66177e-05
-9.82236e-05
6.12798e-05
-9.71459e-05
6.6329e-05
-9.59667e-05
7.18025e-05
-9.47085e-05
7.7733e-05
-9.33266e-05
8.4152e-05
-9.18411e-05
9.11115e-05
-9.02203e-05
9.86595e-05
-8.8469e-05
0.000106833
-8.65514e-05
0.000115696
-8.4486e-05
0.000125316
-8.22171e-05
0.000135731
-7.97668e-05
0.000147042
-7.70869e-05
0.000159305
-7.41787e-05
0.000172606
-7.10061e-05
0.000187044
-6.75542e-05
0.000202694
-6.37915e-05
0.000219689
-5.96946e-05
0.000238107
-5.5233e-05
0.0002581
-5.03842e-05
0.000279769
-4.51041e-05
0.000303261
-3.93557e-05
0.000328719
-3.30789e-05
0.000356265
-2.62502e-05
0.000386082
-1.88175e-05
0.000418293
-1.0727e-05
0.000453044
-1.93746e-06
0.000490485
7.6027e-06
0.000530718
1.79517e-05
0.000573825
2.91518e-05
0.000619861
4.12424e-05
0.000668814
5.42576e-05
0.000720594
6.82164e-05
0.000775006
8.31395e-05
0.00083171
9.90271e-05
0.000890167
0.000115912
0.000949559
0.000133812
0.00100869
0.000152785
0.00106588
0.000172846
0.00111889
0.000193864
0.00116485
0.000215698
0.00120017
0.000237903
0.00122039
0.000260131
0.00121968
0.000281867
0.00118962
0.000302382
0.00112006
0.000320962
0.000988543
0.000766188
0.000318811
-0.000105451
2.16492e-05
0.0001058
-0.00010506
2.34154e-05
-0.000104651
2.53257e-05
-0.00010419
2.73921e-05
-0.000103704
2.96282e-05
-0.000103157
3.20486e-05
-0.000102577
3.46693e-05
-0.000101929
3.75077e-05
-0.00010124
4.05808e-05
-0.000100476
4.39097e-05
-9.9665e-05
4.75178e-05
-9.87719e-05
5.14275e-05
-9.7825e-05
5.56643e-05
-9.67863e-05
6.02506e-05
-9.56817e-05
6.52188e-05
-9.44786e-05
7.06097e-05
-9.32006e-05
7.6452e-05
-9.1806e-05
8.2769e-05
-9.03154e-05
8.9621e-05
-8.86995e-05
9.70563e-05
-8.69614e-05
0.000105098
-8.50695e-05
0.000113818
-8.30365e-05
0.000123288
-8.08139e-05
0.000133522
-7.84138e-05
0.000144649
-7.57987e-05
0.000156703
-7.29564e-05
0.000169773
-6.98646e-05
0.000183965
-6.64929e-05
0.000199334
-6.28249e-05
0.000216034
-5.88207e-05
0.000234118
-5.44644e-05
0.000253756
-4.97201e-05
0.00027503
-4.45521e-05
0.000298094
-3.89199e-05
0.000323093
-3.27671e-05
0.000350125
-2.60692e-05
0.000379399
-1.87756e-05
0.000411015
-1.08323e-05
0.000445117
-2.19861e-06
0.000481867
7.17338e-06
0.000521363
1.73324e-05
0.000563684
2.8313e-05
0.000608901
4.01483e-05
0.000657004
5.28696e-05
0.000707907
6.64984e-05
0.000761422
8.10662e-05
0.000817211
9.65934e-05
0.000874733
0.000113138
0.000933163
0.000130736
0.000991296
0.000149449
0.00104747
0.000169266
0.00109952
0.000190025
0.00114465
0.000211545
0.0011794
0.000233351
0.00119939
0.000255123
0.00119895
0.000276297
0.00116947
0.000296264
0.00110141
0.000308773
0.000977359
0.000772089
0.000304871
-0.000103611
2.13063e-05
0.000103951
-0.000103237
2.30513e-05
-0.000102854
2.49378e-05
-0.00010243
2.69773e-05
-0.000101989
2.91823e-05
-0.000101498
3.15668e-05
-0.00010098
3.41461e-05
-0.0001004
3.69374e-05
-9.97823e-05
3.99566e-05
-9.90885e-05
4.32248e-05
-9.83445e-05
4.67666e-05
-9.7512e-05
5.06039e-05
-9.66188e-05
5.47626e-05
-9.56223e-05
5.92632e-05
-9.45511e-05
6.41394e-05
-9.33685e-05
6.94365e-05
-9.21031e-05
7.518e-05
-9.07105e-05
8.1386e-05
-8.9217e-05
8.81233e-05
-8.7592e-05
9.5441e-05
-8.58443e-05
0.000103349
-8.39423e-05
0.000111925
-8.19022e-05
0.000121249
-7.96773e-05
0.000131306
-7.72807e-05
0.000142255
-7.46775e-05
0.000154108
-7.18548e-05
0.000166955
-6.87933e-05
0.000180911
-6.54604e-05
0.000196009
-6.18434e-05
0.000212427
-5.79001e-05
0.000230186
-5.36173e-05
0.000249482
-4.89602e-05
0.000270373
-4.38918e-05
0.000293024
-3.83741e-05
0.000317578
-3.2351e-05
0.000344112
-2.58003e-05
0.000372862
-1.86727e-05
0.000403902
-1.09161e-05
0.000437374
-2.49039e-06
0.000473456
6.65053e-06
0.000512237
1.65528e-05
0.000553798
2.72514e-05
0.00059822
3.87843e-05
0.000645491
5.1192e-05
0.000695525
6.45101e-05
0.000748133
7.87873e-05
0.000802978
9.40602e-05
0.00085951
0.000110394
0.000916904
0.000127818
0.000973961
0.000146361
0.00102906
0.000165972
0.0010801
0.00018645
0.00112435
0.000207611
0.00115851
0.000228987
0.00117818
0.000250323
0.00117791
0.000270957
0.00114893
0.000290557
0.00108202
0.000303116
0.000964786
0.000772795
0.000302042
-0.000102029
2.09418e-05
0.000102387
-0.000101635
2.26654e-05
-0.000101233
2.45302e-05
-0.000100795
2.65474e-05
-0.000100347
2.87289e-05
-9.98595e-05
3.10875e-05
-9.93555e-05
3.36376e-05
-9.88049e-05
3.63949e-05
-9.82274e-05
3.93736e-05
-9.75889e-05
4.2594e-05
-9.69091e-05
4.60806e-05
-9.61519e-05
4.98543e-05
-9.53369e-05
5.39406e-05
-9.44236e-05
5.83575e-05
-9.34314e-05
6.31405e-05
-9.23259e-05
6.83391e-05
-9.11278e-05
7.39765e-05
-8.97954e-05
8.00621e-05
-8.83501e-05
8.66741e-05
-8.67638e-05
9.38632e-05
-8.50441e-05
0.000101627
-8.31618e-05
0.000110051
-8.11344e-05
0.000119221
-7.89177e-05
0.000129096
-7.6527e-05
0.000139865
-7.393e-05
0.000151517
-7.11159e-05
0.000164143
-6.80678e-05
0.000177868
-6.47548e-05
0.000192701
-6.11662e-05
0.000208844
-5.72607e-05
0.00022629
-5.30275e-05
0.000245255
-4.8432e-05
0.000265778
-4.34399e-05
0.000288028
-3.80131e-05
0.000312152
-3.20975e-05
0.000338204
-2.56722e-05
0.000366447
-1.869e-05
0.000396932
-1.11005e-05
0.000429798
-2.86553e-06
0.000465235
6.06194e-06
0.000503325
1.57309e-05
0.000544145
2.61806e-05
0.000587788
3.7456e-05
0.000634235
4.96069e-05
0.000683397
6.26806e-05
0.000735086
7.67354e-05
0.000788962
9.1813e-05
0.000844477
0.000107973
0.000900817
0.000125221
0.000956805
0.000143558
0.00101087
0.000162897
0.001061
0.000183021
0.00110452
0.000203757
0.00113819
0.000224679
0.0011577
0.00024559
0.00115762
0.000265759
0.00112939
0.0002851
0.00106354
0.00029888
0.000951898
0.000773535
0.000299454
-0.000101321
2.05559e-05
0.000101704
-0.000100895
2.22486e-05
-0.000100452
2.40828e-05
-9.99664e-05
2.60702e-05
-9.94652e-05
2.82225e-05
-9.89217e-05
3.05524e-05
-9.83631e-05
3.30736e-05
-9.77612e-05
3.58012e-05
-9.71414e-05
3.8747e-05
-9.64697e-05
4.19304e-05
-9.57718e-05
4.53749e-05
-9.5009e-05
4.90995e-05
-9.4206e-05
5.31284e-05
-9.33166e-05
5.7476e-05
-9.23636e-05
6.21784e-05
-9.13053e-05
6.72889e-05
-9.01639e-05
7.28272e-05
-8.88903e-05
7.87966e-05
-8.75062e-05
8.52842e-05
-8.5978e-05
9.23429e-05
-8.43131e-05
9.99583e-05
-8.24795e-05
0.000108224
-8.04947e-05
0.000117234
-7.83144e-05
0.000126921
-7.59549e-05
0.000137505
-7.3385e-05
0.000148951
-7.05959e-05
0.000161355
-6.75725e-05
0.000174847
-6.42859e-05
0.000189417
-6.07272e-05
0.00020529
-5.68573e-05
0.000222427
-5.26668e-05
0.000241069
-4.81235e-05
0.000261232
-4.31939e-05
0.000283094
-3.7842e-05
0.0003068
-3.20147e-05
0.000332383
-2.56925e-05
0.000360135
-1.88298e-05
0.000390081
-1.1378e-05
0.000422359
-3.3009e-06
0.000457171
5.45008e-06
0.000494587
1.49287e-05
0.000534681
2.51786e-05
0.000577553
3.62493e-05
0.000623181
4.81961e-05
0.000671469
6.10709e-05
0.00072223
7.49345e-05
0.000775125
8.98248e-05
0.000829611
0.00010579
0.000884891
0.000122815
0.000939816
0.000140879
0.000992868
0.000159874
0.00104209
0.000179584
0.00108486
0.000199857
0.00111803
0.000220314
0.00113725
0.00024081
0.00113723
0.000260582
0.00110954
0.00027964
0.0010445
0.000293927
0.000937388
0.000770319
0.000296525
-0.000101167
2.01705e-05
0.000101548
-0.000100735
2.18247e-05
-0.000100276
2.36188e-05
-9.97639e-05
2.55654e-05
-9.92236e-05
2.76768e-05
-9.86297e-05
2.99664e-05
-9.80092e-05
3.24483e-05
-9.73379e-05
3.51377e-05
-9.66422e-05
3.80452e-05
-9.58943e-05
4.11898e-05
-9.51207e-05
4.45945e-05
-9.42904e-05
4.82762e-05
-9.34274e-05
5.22575e-05
-9.2493e-05
5.65486e-05
-9.15076e-05
6.11852e-05
-9.04345e-05
6.6223e-05
-8.92916e-05
7.16778e-05
-8.80326e-05
7.75452e-05
-8.66739e-05
8.39206e-05
-8.51819e-05
9.08583e-05
-8.35594e-05
9.83323e-05
-8.17729e-05
0.000106445
-7.98367e-05
0.000115295
-7.7705e-05
0.000124795
-7.53926e-05
0.000135191
-7.28678e-05
0.00014643
-7.01218e-05
0.000158609
-6.714e-05
0.000171868
-6.38945e-05
0.000186174
-6.03777e-05
0.000201777
-5.65521e-05
0.000218607
-5.24098e-05
0.000236931
-4.79203e-05
0.000256739
-4.30522e-05
0.00027822
-3.77706e-05
0.000301518
-3.2024e-05
0.000326643
-2.57938e-05
0.000353915
-1.90359e-05
0.000383334
-1.17033e-05
0.000415038
-3.76086e-06
0.000449242
4.8408e-06
0.000486
1.41594e-05
0.000525378
2.42415e-05
0.000567487
3.51389e-05
0.0006123
4.69079e-05
0.000659719
5.96012e-05
0.000709556
7.32766e-05
0.000761476
8.79652e-05
0.000814948
0.000103704
0.000869198
0.000120461
0.000923109
0.000138204
0.000975221
0.000156818
0.00102363
0.000176096
0.00106577
0.000195908
0.0010985
0.000215922
0.00111754
0.000236028
0.00111756
0.000255463
0.00109057
0.000274194
0.00102642
0.000288799
0.000923463
0.000766191
0.000293919
-0.000100976
1.98046e-05
0.000101338
-0.000100563
2.14196e-05
-0.00010012
2.31712e-05
-9.96188e-05
2.5072e-05
-9.90824e-05
2.71352e-05
-9.84833e-05
2.93749e-05
-9.78461e-05
3.18062e-05
-9.7146e-05
3.44451e-05
-9.64089e-05
3.73021e-05
-9.56084e-05
4.03965e-05
-9.4773e-05
4.37523e-05
-9.38745e-05
4.7385e-05
-9.29413e-05
5.13162e-05
-9.19377e-05
5.55524e-05
-9.08892e-05
6.01286e-05
-8.97613e-05
6.51027e-05
-8.85761e-05
7.04855e-05
-8.72878e-05
7.62644e-05
-8.59146e-05
8.25419e-05
-8.44219e-05
8.93728e-05
-8.28119e-05
9.67185e-05
-8.10494e-05
0.000104689
-7.91463e-05
0.00011339
-7.70552e-05
0.000122709
-7.4788e-05
0.000132922
-7.23119e-05
0.000143957
-6.96162e-05
0.000155914
-6.66857e-05
0.000168939
-6.34921e-05
0.000182983
-6.0028e-05
0.000198315
-5.62566e-05
0.000214842
-5.21711e-05
0.000232848
-4.77423e-05
0.000252307
-4.29399e-05
0.000273411
-3.77308e-05
0.000296307
-3.20647e-05
0.000320982
-2.59238e-05
0.000347783
-1.92652e-05
0.000376686
-1.2043e-05
0.000407827
-4.22313e-06
0.000441434
4.24431e-06
0.000477545
1.3419e-05
0.000516216
2.3349e-05
0.00055757
3.4086e-05
0.000601577
4.56857e-05
0.000648135
5.81983e-05
0.000697058
7.16769e-05
0.000748017
8.61457e-05
0.000800494
0.000101632
0.000853738
0.000118094
0.000906665
0.000135496
0.000957856
0.000153722
0.00100546
0.000172584
0.00104693
0.000191969
0.00107916
0.000211584
0.00109788
0.00023134
0.00109784
0.000250485
0.00107128
0.000268898
0.00100793
0.00028403
0.000908009
0.000757781
0.000291728
-0.000100479
1.94624e-05
0.000100815
-0.000100094
2.1042e-05
-9.96822e-05
2.27539e-05
-9.92138e-05
2.46105e-05
-9.87091e-05
2.66252e-05
-9.81397e-05
2.88126e-05
-9.75264e-05
3.11883e-05
-9.68437e-05
3.37692e-05
-9.61133e-05
3.65661e-05
-9.53096e-05
3.95994e-05
-9.44577e-05
4.28942e-05
-9.35327e-05
4.64663e-05
-9.25607e-05
5.03371e-05
-9.15123e-05
5.45103e-05
-9.0412e-05
5.90212e-05
-8.92327e-05
6.39299e-05
-8.79962e-05
6.9243e-05
-8.6664e-05
7.49391e-05
-8.52541e-05
8.11273e-05
-8.37365e-05
8.7862e-05
-8.2113e-05
9.50916e-05
-8.03501e-05
0.000102932
-7.84584e-05
0.000111495
-7.63901e-05
0.000120646
-7.41552e-05
0.000130686
-7.17194e-05
0.000141524
-6.90703e-05
0.000153264
-6.6191e-05
0.000166061
-6.30524e-05
0.000179846
-5.96459e-05
0.000194912
-5.59351e-05
0.000211136
-5.19131e-05
0.000228829
-4.75512e-05
0.000247941
-4.28204e-05
0.000268674
-3.7688e-05
0.000291173
-3.21052e-05
0.000315404
-2.60547e-05
0.000341741
-1.94947e-05
0.000370135
-1.238e-05
0.000400723
-4.67722e-06
0.000433743
3.66333e-06
0.000469217
1.27013e-05
0.000507192
2.24848e-05
0.000547801
3.30642e-05
0.000591013
4.4493e-05
0.000636722
5.68182e-05
0.000684748
7.00879e-05
0.000734769
8.432e-05
0.00078628
9.95362e-05
0.000838555
0.000115689
0.000890544
0.000132746
0.000940871
0.000150596
0.000987717
0.000169074
0.00102859
0.000188078
0.00106037
0.000207349
0.00107884
0.000226798
0.00107873
0.000245704
0.00105275
0.000263837
0.000990332
0.000279613
0.000892798
0.000748581
0.00028963
-9.96802e-05
1.91394e-05
9.9999e-05
-9.93182e-05
2.06883e-05
-9.89343e-05
2.23654e-05
-9.84987e-05
2.41826e-05
-9.80315e-05
2.61529e-05
-9.75024e-05
2.82909e-05
-9.69314e-05
3.06123e-05
-9.62895e-05
3.31346e-05
-9.55978e-05
3.58682e-05
-9.48261e-05
3.88346e-05
-9.39995e-05
4.20607e-05
-9.30887e-05
4.55625e-05
-9.21218e-05
4.9362e-05
-9.10661e-05
5.34615e-05
-8.99499e-05
5.7897e-05
-8.87451e-05
6.2732e-05
-8.74785e-05
6.79694e-05
-8.61125e-05
7.358e-05
-8.46701e-05
7.96793e-05
-8.31229e-05
8.63215e-05
-8.14767e-05
9.34413e-05
-7.96994e-05
0.00010116
-7.78033e-05
0.000109596
-7.57416e-05
0.000118588
-7.35238e-05
0.000128466
-7.11153e-05
0.000139119
-6.85026e-05
0.000150651
-6.56675e-05
0.000163228
-6.25798e-05
0.00017676
-5.92299e-05
0.000191564
-5.55808e-05
0.000207492
-5.16249e-05
0.000224875
-4.73338e-05
0.000243646
-4.26783e-05
0.000264012
-3.76264e-05
0.00028612
-3.213e-05
0.000309913
-2.61723e-05
0.000335791
-1.97122e-05
0.000363685
-1.27053e-05
0.000393726
-5.11836e-06
0.000426166
3.09734e-06
0.000461012
1.2e-05
0.000498301
2.16366e-05
0.000538176
3.20553e-05
0.000580606
4.3307e-05
0.000625484
5.54354e-05
0.000672631
6.84841e-05
0.000721736
8.24668e-05
0.000772307
9.74023e-05
0.00082364
0.000113242
0.000874713
0.000129962
0.00092418
0.00014746
0.000970259
0.00016559
0.00101046
0.000184262
0.00104171
0.000203238
0.00105981
0.000222425
0.00105953
0.00024113
0.00103388
0.000259027
0.000972307
0.000275351
0.000876093
0.000736014
0.00028717
-9.86702e-05
1.88295e-05
9.89746e-05
-9.83254e-05
2.03511e-05
-9.79625e-05
2.19975e-05
-9.75528e-05
2.37799e-05
-9.71161e-05
2.5711e-05
-9.66227e-05
2.78047e-05
-9.60917e-05
3.00766e-05
-9.5494e-05
3.25438e-05
-9.48481e-05
3.52165e-05
-9.41235e-05
3.81164e-05
-9.33412e-05
4.12719e-05
-9.24718e-05
4.46991e-05
-9.15384e-05
4.84211e-05
-9.05097e-05
5.24387e-05
-8.94098e-05
5.67897e-05
-8.82131e-05
6.15415e-05
-8.69443e-05
6.66943e-05
-8.55698e-05
7.2212e-05
-8.41127e-05
7.82172e-05
-8.25487e-05
8.47639e-05
-8.08852e-05
9.17741e-05
-7.9094e-05
9.93749e-05
-7.71888e-05
0.000107689
-7.51256e-05
0.00011653
-7.29148e-05
0.000126254
-7.05225e-05
0.000136729
-6.79355e-05
0.000148063
-6.51352e-05
0.000160428
-6.2091e-05
0.000173717
-5.87923e-05
0.000188267
-5.52016e-05
0.000203906
-5.13106e-05
0.000220986
-4.70901e-05
0.000239421
-4.25113e-05
0.000259426
-3.75417e-05
0.000281148
-3.21338e-05
0.000304509
-2.62711e-05
0.000329936
-1.99129e-05
0.000357336
-1.30154e-05
0.000386839
-5.54555e-06
0.000418708
2.54413e-06
0.000452935
1.13095e-05
0.000489549
2.07952e-05
0.000528704
3.10476e-05
0.000570367
4.21148e-05
0.000614431
5.40373e-05
0.000660721
6.68558e-05
0.000708935
8.05814e-05
0.000758594
9.52326e-05
0.000809015
0.000110764
0.000859203
0.000127161
0.000907841
0.00014433
0.00095317
0.000162149
0.000992754
0.000180533
0.00102349
0.000199259
0.00104127
0.000218216
0.00104086
0.000236753
0.00101566
0.000254441
0.000955072
0.000271072
0.00085994
0.00072366
0.000284123
-9.75198e-05
1.85287e-05
9.78157e-05
-9.71861e-05
2.00253e-05
-9.68373e-05
2.16439e-05
-9.64455e-05
2.33952e-05
-9.6031e-05
2.52913e-05
-9.5565e-05
2.73457e-05
-9.50665e-05
2.95732e-05
-9.45065e-05
3.19907e-05
-9.39031e-05
3.46072e-05
-9.32246e-05
3.74446e-05
-9.24912e-05
4.0532e-05
-9.16711e-05
4.38855e-05
-9.07861e-05
4.75287e-05
-8.98019e-05
5.1461e-05
-8.87419e-05
5.57222e-05
-8.75778e-05
6.0384e-05
-8.63343e-05
6.54442e-05
-8.49767e-05
7.08612e-05
-8.35293e-05
7.67646e-05
-8.19686e-05
8.32095e-05
-8.03042e-05
9.01059e-05
-7.851e-05
9.75863e-05
-7.6602e-05
0.000105778
-7.45389e-05
0.000114471
-7.23328e-05
0.000124046
-6.99518e-05
0.00013435
-6.73837e-05
0.000145495
-6.46107e-05
0.000157656
-6.16025e-05
0.00017071
-5.83485e-05
0.000185015
-5.48109e-05
0.000200372
-5.09807e-05
0.000217158
-4.68287e-05
0.000235265
-4.23248e-05
0.000254915
-3.74371e-05
0.000276258
-3.21181e-05
0.000299195
-2.63513e-05
0.000324177
-2.00964e-05
0.00035109
-1.331e-05
0.000380062
-5.95955e-06
0.000411367
2.0014e-06
0.000444984
1.06258e-05
0.000480935
1.99561e-05
0.000519384
3.00364e-05
0.000560297
4.09126e-05
0.000603566
5.26231e-05
0.00064902
6.52065e-05
0.000696364
7.86732e-05
0.000745134
9.30437e-05
0.000794661
0.000108277
0.000843972
0.00012437
0.000891772
0.000141239
0.000936328
0.000158779
0.000975207
0.00017691
0.00100536
0.000195417
0.00102269
0.00021417
0.00102206
0.000232553
0.000997097
0.000250045
0.000937411
0.000266721
0.000842844
0.00070915
0.00028046
-9.6279e-05
1.82344e-05
9.65671e-05
-9.59537e-05
1.97073e-05
-9.56149e-05
2.12999e-05
-9.52356e-05
2.30226e-05
-9.48364e-05
2.48869e-05
-9.43896e-05
2.69057e-05
-9.39143e-05
2.90934e-05
-9.33832e-05
3.14662e-05
-9.28132e-05
3.40318e-05
-9.21744e-05
3.68119e-05
-9.14845e-05
3.9836e-05
-9.07128e-05
4.31196e-05
-8.98776e-05
4.66866e-05
-8.89454e-05
5.05345e-05
-8.7935e-05
5.4705e-05
-8.68188e-05
5.92737e-05
-8.56175e-05
6.42369e-05
-8.42974e-05
6.95472e-05
-8.288e-05
7.53425e-05
-8.13434e-05
8.1679e-05
-7.96966e-05
8.84555e-05
-7.79158e-05
9.58109e-05
-7.60177e-05
0.000103877
-7.39638e-05
0.000112421
-7.17677e-05
0.000121848
-6.93999e-05
0.000131985
-6.68497e-05
0.000142944
-6.41009e-05
0.000154909
-6.11245e-05
0.000167734
-5.79101e-05
0.000181803
-5.44206e-05
0.000196887
-5.06467e-05
0.000213386
-4.65586e-05
0.000231173
-4.21271e-05
0.000250476
-3.73191e-05
0.000271447
-3.20879e-05
0.000293967
-2.64167e-05
0.000318513
-2.02654e-05
0.000344947
-1.35914e-05
0.000373398
-6.36213e-06
0.000404148
1.46741e-06
0.000437166
9.94757e-06
0.000472466
1.91185e-05
0.000510225
2.90228e-05
0.000550405
3.97044e-05
0.000592897
5.12005e-05
0.000637534
6.35488e-05
0.000684031
7.67606e-05
0.000731931
9.08591e-05
0.000780584
0.00010581
0.000829035
0.000121619
0.00087601
0.000138212
0.000919796
0.000155501
0.000958007
0.000173405
0.000987595
0.000191715
0.00100454
0.000210275
0.00100374
0.000228509
0.000979142
0.000245804
0.000920515
0.000262308
0.000826763
0.00069575
0.000276325
-9.49752e-05
1.79455e-05
9.52596e-05
-9.46554e-05
1.93956e-05
-9.43236e-05
2.09635e-05
-9.39527e-05
2.26591e-05
-9.35645e-05
2.44936e-05
-9.31312e-05
2.64796e-05
-9.26735e-05
2.86308e-05
-9.21632e-05
3.09629e-05
-9.16197e-05
3.34823e-05
-9.10114e-05
3.62103e-05
-9.03584e-05
3.91763e-05
-8.96275e-05
4.23952e-05
-8.8839e-05
4.58904e-05
-8.79558e-05
4.96577e-05
-8.69981e-05
5.37397e-05
-8.59341e-05
5.82161e-05
-8.47849e-05
6.30811e-05
-8.35137e-05
6.82823e-05
-8.21418e-05
7.39654e-05
-8.06452e-05
8.01884e-05
-7.90334e-05
8.68398e-05
-7.72822e-05
9.40649e-05
-7.54091e-05
0.000102001
-7.33771e-05
0.000110393
-7.12011e-05
0.000119669
-6.88536e-05
0.00012964
-6.63257e-05
0.000140415
-6.36029e-05
0.000152186
-6.06577e-05
0.00016479
-5.7481e-05
0.000178628
-5.40366e-05
0.000193447
-5.03153e-05
0.000209667
-4.62883e-05
0.000227141
-4.19252e-05
0.000246106
-3.71943e-05
0.000266714
-3.20487e-05
0.000288826
-2.64715e-05
0.000312944
-2.04233e-05
0.000338907
-1.38615e-05
0.000366845
-6.75443e-06
0.00039705
9.41903e-07
0.000429479
9.27561e-06
0.000464142
1.82852e-05
0.000501225
2.80119e-05
0.000540687
3.84988e-05
0.000582419
4.97822e-05
0.000626258
6.19001e-05
0.000671923
7.48654e-05
0.000718969
8.8705e-05
0.000766757
0.00010339
0.000814348
0.000118937
0.000860483
0.000135278
0.000903471
0.000152337
0.000940937
0.000170031
0.000969886
0.000188153
0.000986344
0.000206526
0.000985304
0.000224602
0.00096088
0.000241694
0.000903226
0.000257887
0.000810124
0.000680996
0.000271871
-9.3633e-05
1.76612e-05
9.39119e-05
-9.33187e-05
1.90889e-05
-9.29928e-05
2.06326e-05
-9.26288e-05
2.23022e-05
-9.22486e-05
2.41083e-05
-9.18252e-05
2.60632e-05
-9.13795e-05
2.81803e-05
-9.08846e-05
3.04748e-05
-9.03598e-05
3.29518e-05
-8.97752e-05
3.5632e-05
-8.91502e-05
3.85449e-05
-8.84533e-05
4.17042e-05
-8.77031e-05
4.5133e-05
-8.68643e-05
4.88244e-05
-8.59541e-05
5.28223e-05
-8.49418e-05
5.72096e-05
-8.38454e-05
6.19784e-05
-8.26281e-05
6.7071e-05
-8.13085e-05
7.26409e-05
-7.98623e-05
7.87481e-05
-7.82971e-05
8.5271e-05
-7.65889e-05
9.23618e-05
-7.47543e-05
0.000100164
-7.27573e-05
0.0001084
-7.06131e-05
0.000117523
-6.82958e-05
0.000127325
-6.5798e-05
0.000137916
-6.31066e-05
0.000149496
-6.01961e-05
0.00016188
-5.70584e-05
0.000175492
-5.36587e-05
0.000190051
-4.99888e-05
0.000205999
-4.60198e-05
0.000223167
-4.17232e-05
0.000241802
-3.70667e-05
0.000262055
-3.20042e-05
0.000283767
-2.65192e-05
0.000307465
-2.05725e-05
0.000332969
-1.41222e-05
0.000360403
-7.13687e-06
0.000390075
4.25794e-07
0.000421926
8.61262e-06
0.000455966
1.74611e-05
0.000492387
2.70116e-05
0.000531147
3.73065e-05
0.000572135
4.83824e-05
0.000615191
6.0278e-05
0.00066004
7.30082e-05
0.000706246
8.66037e-05
0.000753179
0.000101041
0.000799918
0.000116345
0.000845219
0.000132451
0.000887409
0.000149295
0.000924165
0.000166789
0.000952505
0.000184728
0.000968545
0.000202908
0.000967329
0.000220809
0.000943224
0.000237689
0.000886698
0.000253497
0.000794689
0.000667777
0.000267269
-9.22644e-05
1.73814e-05
9.25391e-05
-9.19547e-05
1.87872e-05
-9.16341e-05
2.03072e-05
-9.1276e-05
2.19512e-05
-9.09026e-05
2.37298e-05
-9.04872e-05
2.56548e-05
-9.00512e-05
2.77395e-05
-8.95681e-05
2.99985e-05
-8.90577e-05
3.24357e-05
-8.84907e-05
3.50715e-05
-8.78875e-05
3.79353e-05
-8.72166e-05
4.10397e-05
-8.64979e-05
4.4407e-05
-8.56952e-05
4.80279e-05
-8.48269e-05
5.19467e-05
-8.38606e-05
5.62496e-05
-8.28145e-05
6.0926e-05
-8.16501e-05
6.59128e-05
-8.03852e-05
7.1371e-05
-7.89937e-05
7.73624e-05
-7.74823e-05
8.37558e-05
-7.58257e-05
9.07103e-05
-7.40397e-05
9.83749e-05
-7.20886e-05
0.000106452
-6.99871e-05
0.00011542
-6.77103e-05
0.00012505
-6.52516e-05
0.000135456
-6.25992e-05
0.000146844
-5.9729e-05
0.000159011
-5.66342e-05
0.000172398
-5.32815e-05
0.000186702
-4.96633e-05
0.000202382
-4.57528e-05
0.000219252
-4.15208e-05
0.000237563
-3.6937e-05
0.000257468
-3.19558e-05
0.000278789
-2.65608e-05
0.000302077
-2.07137e-05
0.00032713
-1.43732e-05
0.000354071
-7.50841e-06
0.000383218
-7.84751e-08
0.000414505
7.96274e-06
0.000447934
1.66524e-05
0.000483706
2.60301e-05
0.000521777
3.61386e-05
0.000562035
4.70146e-05
0.00060432
5.86982e-05
0.000648365
7.12063e-05
0.000693739
8.45731e-05
0.000739822
9.87802e-05
0.000785705
0.000113857
0.000830158
0.000129744
0.000871529
0.000146383
0.000907511
0.000163681
0.000935184
0.00018143
0.000950716
0.000199408
0.000949272
0.000217115
0.000925326
0.000233771
0.000869824
0.000249174
0.00077882
0.000653563
0.000262617
-9.08814e-05
1.71062e-05
9.11506e-05
-9.05768e-05
1.84901e-05
-9.02615e-05
1.99868e-05
-8.9909e-05
2.16056e-05
-8.95416e-05
2.33572e-05
-8.9133e-05
2.52531e-05
-8.87045e-05
2.73063e-05
-8.82307e-05
2.95313e-05
-8.77311e-05
3.19307e-05
-8.71781e-05
3.45245e-05
-8.65912e-05
3.73423e-05
-8.59413e-05
4.03955e-05
-8.52469e-05
4.37057e-05
-8.44744e-05
4.72609e-05
-8.36403e-05
5.11058e-05
-8.27143e-05
5.53293e-05
-8.17123e-05
5.99182e-05
-8.05971e-05
6.48034e-05
-7.93842e-05
7.01535e-05
-7.80475e-05
7.60314e-05
-7.65917e-05
8.22965e-05
-7.49911e-05
8.91146e-05
-7.326e-05
9.66411e-05
-7.13623e-05
0.000104558
-6.9312e-05
0.000113368
-6.70845e-05
0.000122824
-6.46735e-05
0.000133045
-6.2068e-05
0.000144239
-5.92449e-05
0.000156188
-5.61984e-05
0.000169353
-5.28967e-05
0.000183404
-4.93332e-05
0.00019882
-4.54815e-05
0.000215396
-4.1315e-05
0.000233389
-3.68031e-05
0.000252954
-3.19018e-05
0.000273891
-2.65953e-05
0.000296777
-2.0846e-05
0.000321388
-1.46133e-05
0.000347847
-7.86712e-06
0.000376481
-5.67687e-07
0.000407215
7.33076e-06
0.000440045
1.58653e-05
0.000475181
2.50756e-05
0.000512576
3.50046e-05
0.000552115
4.56898e-05
0.000593643
5.71723e-05
0.000636893
6.94714e-05
0.000681445
8.26238e-05
0.000726684
9.66151e-05
0.000771716
0.000111479
0.000815326
0.000127155
0.000855884
0.000143594
0.000891134
0.000160693
0.000918183
0.000178245
0.000933288
0.000196008
0.00093169
0.000213499
0.000908059
0.00022992
0.000853722
0.000244926
0.000764158
0.000640996
0.000257998
-8.94894e-05
1.68354e-05
8.97555e-05
-8.91889e-05
1.81978e-05
-8.88783e-05
1.96714e-05
-8.85308e-05
2.12655e-05
-8.81692e-05
2.29905e-05
-8.77667e-05
2.48578e-05
-8.73456e-05
2.68803e-05
-8.68795e-05
2.90721e-05
-8.63898e-05
3.1435e-05
-8.58475e-05
3.39887e-05
-8.52745e-05
3.67628e-05
-8.46404e-05
3.97677e-05
-8.39664e-05
4.30242e-05
-8.32173e-05
4.65178e-05
-8.24123e-05
5.02934e-05
-8.15194e-05
5.44424e-05
-8.05565e-05
5.89487e-05
-7.94845e-05
6.37374e-05
-7.83199e-05
6.89837e-05
-7.70348e-05
7.47519e-05
-7.56338e-05
8.08917e-05
-7.40898e-05
8.75755e-05
-7.24161e-05
9.49645e-05
-7.05759e-05
0.000102722
-6.85825e-05
0.000111372
-6.64109e-05
0.000120654
-6.40546e-05
0.000130687
-6.15029e-05
0.000141688
-5.87335e-05
0.000153419
-5.57412e-05
0.000166362
-5.24952e-05
0.000180162
-4.89897e-05
0.000195317
-4.52002e-05
0.000211602
-4.11e-05
0.000229282
-3.66606e-05
0.000248511
-3.18388e-05
0.000269073
-2.66197e-05
0.000291565
-2.09665e-05
0.000315742
-1.48397e-05
0.000341728
-8.20984e-06
0.000369859
-1.03798e-06
0.000400051
6.72153e-06
0.000432294
1.51058e-05
0.000466804
2.41549e-05
0.000503534
3.39122e-05
0.000542364
4.44159e-05
0.000583142
5.57085e-05
0.000625607
6.78106e-05
0.000669341
8.07614e-05
0.000713739
9.45487e-05
0.000757919
0.00010921
0.000800679
0.000124683
0.00084041
0.000140921
0.000874878
0.000157816
0.000901258
0.00017516
0.000915866
0.000192695
0.000914068
0.000209948
0.000890616
0.000226123
0.000837316
0.000240755
0.000749051
0.000627557
0.000253433
-8.80977e-05
1.65688e-05
8.83587e-05
-8.78021e-05
1.791e-05
-8.74964e-05
1.93607e-05
-8.71541e-05
2.09303e-05
-8.67979e-05
2.2629e-05
-8.64012e-05
2.44682e-05
-8.59862e-05
2.64605e-05
-8.55273e-05
2.86199e-05
-8.50452e-05
3.09473e-05
-8.45126e-05
3.34621e-05
-8.39503e-05
3.61942e-05
-8.33299e-05
3.9153e-05
-8.26715e-05
4.23586e-05
-8.19423e-05
4.5794e-05
-8.11602e-05
4.95042e-05
-8.02954e-05
5.35832e-05
-7.93645e-05
5.80118e-05
-7.83303e-05
6.27089e-05
-7.72078e-05
6.78564e-05
-7.59699e-05
7.35195e-05
-7.46199e-05
7.9538e-05
-7.31305e-05
8.60909e-05
-7.15136e-05
9.33449e-05
-6.97322e-05
0.000100944
-6.77982e-05
0.000109436
-6.56864e-05
0.000118544
-6.33897e-05
0.00012839
-6.08973e-05
0.000139196
-5.81871e-05
0.00015071
-5.52542e-05
0.000163431
-5.20687e-05
0.00017698
-4.86256e-05
0.000191875
-4.49007e-05
0.000207873
-4.08696e-05
0.000225244
-3.65039e-05
0.000244143
-3.17621e-05
0.000264334
-2.66299e-05
0.000286439
-2.10716e-05
0.000310191
-1.50488e-05
0.000335713
-8.53287e-06
0.000363352
-1.4853e-06
0.000393012
6.1395e-06
0.000424678
1.43788e-05
0.000458574
2.32733e-05
0.000494648
3.28667e-05
0.000532779
4.3198e-05
0.000572817
5.43105e-05
0.000614504
6.62262e-05
0.000657428
7.89852e-05
0.000700992
9.25776e-05
0.000744325
0.000107042
0.000786242
0.000122313
0.000825157
0.000138348
0.000858894
0.000155033
0.000884659
0.000172156
0.000898852
0.000189447
0.000896937
0.000206445
0.00087382
0.000222364
0.000821684
0.000236648
0.000735078
0.000615723
0.000248944
-8.67091e-05
1.63066e-05
8.6966e-05
-8.64179e-05
1.76268e-05
-8.61172e-05
1.9055e-05
-8.57801e-05
2.06004e-05
-8.54294e-05
2.22731e-05
-8.50387e-05
2.40845e-05
-8.46301e-05
2.60469e-05
-8.41779e-05
2.81745e-05
-8.37035e-05
3.0467e-05
-8.3179e-05
3.29439e-05
-8.26264e-05
3.56353e-05
-8.20169e-05
3.85496e-05
-8.13719e-05
4.17064e-05
-8.06582e-05
4.50862e-05
-7.98955e-05
4.87343e-05
-7.90534e-05
5.27471e-05
-7.815e-05
5.71021e-05
-7.71476e-05
6.17124e-05
-7.60621e-05
6.6766e-05
-7.48659e-05
7.23288e-05
-7.35624e-05
7.82308e-05
-7.21238e-05
8.4657e-05
-7.05613e-05
9.17797e-05
-6.88374e-05
9.92234e-05
-6.6963e-05
0.00010756
-6.49123e-05
0.000116495
-6.26777e-05
0.000126154
-6.0248e-05
0.000136766
-5.7601e-05
0.000148063
-5.47318e-05
0.000160563
-5.1611e-05
0.000173863
-4.82337e-05
0.000188499
-4.45775e-05
0.000204211
-4.06175e-05
0.000221277
-3.63274e-05
0.00023985
-3.16665e-05
0.000259677
-2.66213e-05
0.0002814
-2.11571e-05
0.000304734
-1.52368e-05
0.0003298
-8.83227e-06
0.000356954
-1.90571e-06
0.000386093
5.58862e-06
0.00041719
1.36883e-05
0.000450481
2.24345e-05
0.000485907
3.18713e-05
0.000523347
4.20382e-05
0.000562652
5.29791e-05
0.000603567
6.47167e-05
0.000645687
7.72919e-05
0.00068842
9.06953e-05
0.000730909
0.000104966
0.000771983
0.000120036
0.000810079
0.000135864
0.000843047
0.000152329
0.00086816
0.000169219
0.000881884
0.000186254
0.000879807
0.000202981
0.000856903
0.000218636
0.000805786
0.000232597
0.000720636
0.000603046
0.000244516
-8.53285e-05
1.60489e-05
8.55802e-05
-8.50424e-05
1.73483e-05
-8.47467e-05
1.87542e-05
-8.4415e-05
2.02756e-05
-8.40698e-05
2.19227e-05
-8.36849e-05
2.37065e-05
-8.32822e-05
2.56395e-05
-8.28367e-05
2.77356e-05
-8.2369e-05
2.99938e-05
-8.18525e-05
3.24335e-05
-8.13083e-05
3.5085e-05
-8.0709e-05
3.7956e-05
-8.00751e-05
4.10656e-05
-7.93754e-05
4.43919e-05
-7.86283e-05
4.79805e-05
-7.78058e-05
5.19301e-05
-7.69248e-05
5.62152e-05
-7.59497e-05
6.07429e-05
-7.48955e-05
6.57072e-05
-7.37358e-05
7.11745e-05
-7.24735e-05
7.6965e-05
-7.10811e-05
8.32693e-05
-6.95689e-05
9.02649e-05
-6.78996e-05
9.75575e-05
-6.6083e-05
0.000105741
-6.40928e-05
0.000114507
-6.19208e-05
0.000123981
-5.95552e-05
0.000134401
-5.69737e-05
0.000145482
-5.4171e-05
0.000157761
-5.1118e-05
0.000170813
-4.78101e-05
0.000185193
-4.42246e-05
0.000200622
-4.03388e-05
0.000217384
-3.6126e-05
0.000235634
-3.15472e-05
0.000255101
-2.65894e-05
0.000276448
-2.12191e-05
0.000299371
-1.53999e-05
0.000323988
-9.10467e-06
0.000350667
-2.29601e-06
0.000379292
5.07183e-06
0.000409831
1.30369e-05
0.000442524
2.16404e-05
0.00047731
3.09269e-05
0.000514067
4.09361e-05
0.000552647
5.17122e-05
0.000592799
6.32781e-05
0.000634122
7.56744e-05
0.000676032
8.88924e-05
0.000717686
0.00010297
0.000757927
0.000117836
0.000795223