/*--------------------------------*- C++ -*----------------------------------*\
  =========                 |
  \\      /  F ield         | OpenFOAM: The Open Source CFD Toolbox
   \\    /   O peration     | Website:  https://openfoam.org
    \\  /    A nd           | Version:  6.0
     \\/     M anipulation  |
\*---------------------------------------------------------------------------*/
FoamFile
{
    version     2.0;
    format      ascii;
    class       volVectorField;
    location    "13";
    object      U;
}
// * * * * * * * * * * * * * * * * * * * * * * * * * * * * * * * * * * * * * //

dimensions      [0 1 -1 0 0 0 0];

internalField   nonuniform List<vector> 
62000
(
(0.93887 0.342072 -4.00696e-21)
(0.938858 0.342039 3.39047e-21)
(0.93886 0.34203 3.52387e-21)
(0.938879 0.342009 -1.5735e-20)
(0.938912 0.341988 -1.82986e-20)
(0.938957 0.341969 6.44611e-20)
(0.939009 0.341948 -7.22904e-20)
(0.939065 0.341931 4.28987e-20)
(0.939121 0.341918 -2.05469e-20)
(0.939173 0.341913 -1.07399e-19)
(0.939218 0.341915 -1.42973e-20)
(0.939255 0.341928 1.57337e-19)
(0.939282 0.341952 3.30422e-20)
(0.939299 0.341989 -1.18138e-19)
(0.939306 0.342037 1.89418e-19)
(0.939304 0.342098 -1.03215e-19)
(0.939294 0.342168 1.10425e-19)
(0.939279 0.342248 -1.32145e-19)
(0.939259 0.342334 6.74874e-20)
(0.939236 0.342427 -2.14954e-19)
(0.939211 0.342522 2.88548e-19)
(0.939186 0.342619 9.02865e-20)
(0.939162 0.342716 1.34424e-19)
(0.939139 0.342811 -6.15712e-19)
(0.939116 0.342903 2.31384e-19)
(0.939097 0.34299 -1.53088e-19)
(0.939079 0.34307 -5.65255e-21)
(0.939064 0.343144 -1.36197e-19)
(0.939052 0.34321 4.21932e-19)
(0.939045 0.343267 -2.48624e-19)
(0.93904 0.343312 6.17712e-19)
(0.939042 0.343345 -1.32156e-18)
(0.939049 0.343364 1.19729e-19)
(0.939063 0.343367 -5.01383e-19)
(0.939085 0.34335 -1.69084e-19)
(0.939116 0.343311 -5.60054e-19)
(0.939156 0.343246 -1.85235e-19)
(0.939205 0.343154 -2.08406e-19)
(0.939262 0.343033 6.06241e-19)
(0.939326 0.342882 2.99908e-18)
(0.939393 0.342697 -7.36412e-19)
(0.939458 0.342479 -4.29848e-18)
(0.939513 0.342238 -6.80955e-18)
(0.939546 0.341987 3.69145e-18)
(0.939541 0.341745 1.02953e-18)
(0.939477 0.34153 -5.16739e-18)
(0.93933 0.341356 1.34479e-18)
(0.939076 0.341212 -2.07907e-18)
(0.938694 0.341057 -9.84078e-18)
(0.938184 0.340796 -2.18344e-18)
(0.937566 0.340302 -1.14026e-18)
(0.936881 0.339439 -1.62403e-17)
(0.936183 0.33811 1.55727e-18)
(0.935513 0.336284 1.9397e-17)
(0.934871 0.333922 5.43149e-18)
(0.934238 0.330877 1.78539e-17)
(0.933668 0.326487 -2.52486e-18)
(0.933199 0.320266 -4.63832e-18)
(0.933213 0.307938 9.30354e-18)
(0.909347 0.28252 1.97342e-18)
(0.938987 0.34408 -1.02682e-21)
(0.938829 0.343956 9.9738e-21)
(0.938669 0.343903 4.19563e-21)
(0.938521 0.343839 -1.83706e-20)
(0.938399 0.343772 7.77349e-21)
(0.938311 0.343706 -5.47891e-20)
(0.938262 0.343632 5.11908e-20)
(0.938254 0.343552 3.03711e-20)
(0.938285 0.343463 -5.808e-20)
(0.938351 0.343367 2.45387e-21)
(0.938443 0.343264 5.91591e-20)
(0.938555 0.34316 3.42147e-22)
(0.938677 0.343056 1.81607e-20)
(0.9388 0.342958 -1.58626e-19)
(0.938918 0.342871 3.28041e-19)
(0.939023 0.342799 -2.98031e-19)
(0.939111 0.342747 1.44383e-19)
(0.939181 0.342719 -3.08415e-20)
(0.93923 0.342715 -8.87979e-20)
(0.939259 0.342738 2.53856e-19)
(0.939269 0.342785 -4.13085e-19)
(0.939264 0.342857 2.48104e-19)
(0.939244 0.342948 -3.28901e-19)
(0.939214 0.343058 1.99976e-19)
(0.939175 0.343179 1.95859e-19)
(0.93913 0.343311 -1.32876e-19)
(0.939081 0.343446 -4.45748e-21)
(0.939031 0.343582 1.55588e-19)
(0.93898 0.343715 1.39085e-19)
(0.938932 0.343844 -3.07562e-19)
(0.938884 0.343964 6.4195e-19)
(0.93884 0.344067 1.43655e-19)
(0.938801 0.344144 4.57693e-19)
(0.938774 0.344188 4.14181e-20)
(0.938762 0.344202 1.49007e-19)
(0.938764 0.344184 -1.60648e-19)
(0.938777 0.344134 -5.29019e-19)
(0.938801 0.344045 -2.64113e-19)
(0.938838 0.343914 -1.63225e-18)
(0.938885 0.343738 -1.97543e-18)
(0.938947 0.343507 1.57786e-18)
(0.939007 0.343253 9.4097e-19)
(0.939045 0.343009 7.0943e-18)
(0.939037 0.342805 4.14001e-19)
(0.938949 0.342667 -1.0792e-17)
(0.938743 0.342604 4.24897e-18)
(0.938378 0.342593 3.51541e-18)
(0.937825 0.342547 4.09549e-18)
(0.937076 0.342315 9.31115e-19)
(0.936166 0.341681 1.97796e-19)
(0.935173 0.340451 7.16792e-18)
(0.934154 0.33853 2.00653e-17)
(0.933192 0.3359 -1.39104e-17)
(0.932294 0.332716 -3.411e-17)
(0.931353 0.328944 -8.28241e-18)
(0.930245 0.324313 -6.07958e-18)
(0.929103 0.317255 -1.35097e-17)
(0.927508 0.307391 -7.15809e-18)
(0.928141 0.287612 1.14403e-17)
(0.888792 0.250416 4.5651e-18)
(0.940229 0.344378 -4.82162e-21)
(0.940232 0.344307 -6.88594e-22)
(0.940152 0.3443 7.7748e-22)
(0.939997 0.344325 3.57693e-21)
(0.939789 0.344367 1.0343e-20)
(0.939548 0.344434 -9.9765e-21)
(0.939296 0.344512 5.432e-20)
(0.939054 0.344596 -2.63292e-20)
(0.938841 0.344677 -1.45439e-20)
(0.93867 0.344747 -9.13966e-20)
(0.93855 0.344799 7.87686e-20)
(0.938485 0.344828 5.88331e-21)
(0.938473 0.34483 -1.91666e-20)
(0.938508 0.344806 5.2143e-20)
(0.93858 0.344755 -9.14814e-20)
(0.93868 0.344684 3.39893e-22)
(0.938796 0.344597 -4.52988e-20)
(0.938917 0.344503 -9.28352e-23)
(0.939033 0.344407 1.114e-19)
(0.939138 0.344319 -1.75937e-19)
(0.939225 0.344242 1.12702e-19)
(0.939292 0.344183 4.62886e-19)
(0.939338 0.344143 -5.71402e-20)
(0.939362 0.344126 -6.91789e-19)
(0.939365 0.344129 3.66995e-19)
(0.93935 0.344154 -2.12232e-19)
(0.93932 0.344194 3.5708e-19)
(0.939276 0.344251 -2.21044e-19)
(0.939222 0.344318 -4.70744e-19)
(0.939161 0.344399 5.26958e-19)
(0.939092 0.344486 -3.89272e-19)
(0.939016 0.344572 5.49158e-19)
(0.938936 0.344645 -1.6046e-18)
(0.938861 0.344699 1.50228e-18)
(0.938796 0.344734 -8.39854e-19)
(0.938738 0.344753 3.53643e-19)
(0.938683 0.344757 2.80871e-19)
(0.938632 0.344743 -3.69088e-20)
(0.938585 0.344709 -1.09071e-19)
(0.93854 0.344651 2.03169e-18)
(0.938513 0.344559 -8.25202e-19)
(0.938492 0.344482 1.2863e-18)
(0.938449 0.344456 -4.58224e-18)
(0.938356 0.344501 -2.23993e-18)
(0.938185 0.344623 2.35895e-18)
(0.937906 0.344796 -8.17491e-18)
(0.93749 0.344948 1.07038e-18)
(0.93693 0.344933 -6.90021e-18)
(0.93625 0.34456 9.65941e-18)
(0.935515 0.343604 2.52412e-18)
(0.934829 0.341962 1.32641e-18)
(0.934233 0.339715 -3.97617e-19)
(0.933771 0.337048 5.89935e-18)
(0.933416 0.334353 8.07687e-19)
(0.932992 0.331753 -1.21314e-17)
(0.932243 0.329071 -6.86596e-18)
(0.931377 0.324509 -4.42508e-18)
(0.929034 0.318081 -1.53332e-17)
(0.930603 0.304856 -1.89778e-18)
(0.894306 0.283258 1.21263e-18)
(0.940752 0.34524 -4.66499e-21)
(0.94121 0.345175 1.44263e-20)
(0.941558 0.345143 -2.26758e-21)
(0.941784 0.345153 -1.51787e-20)
(0.94188 0.345197 2.31371e-20)
(0.941847 0.345284 4.03709e-20)
(0.941698 0.34541 -5.36132e-20)
(0.941452 0.345573 5.90663e-21)
(0.941135 0.345763 1.92246e-20)
(0.940777 0.345973 4.07669e-20)
(0.940404 0.346189 -7.68437e-20)
(0.940044 0.346399 -2.4258e-20)
(0.939718 0.346591 -2.79136e-20)
(0.93944 0.346755 1.29436e-19)
(0.93922 0.34688 -8.88736e-20)
(0.93906 0.346964 2.1482e-19)
(0.938958 0.347002 -2.66664e-19)
(0.938905 0.346997 -4.15785e-20)
(0.938894 0.346952 3.00896e-19)
(0.938912 0.346875 -1.07267e-19)
(0.938948 0.346772 -4.01449e-20)
(0.938993 0.346654 -4.58467e-20)
(0.939038 0.346526 -4.38716e-19)
(0.939076 0.3464 2.54455e-19)
(0.939104 0.346278 -1.2697e-19)
(0.939117 0.346168 2.05317e-19)
(0.939115 0.346071 1.00361e-19)
(0.939098 0.345991 5.29057e-19)
(0.939066 0.345927 -3.39153e-19)
(0.939023 0.345884 -4.71727e-19)
(0.938965 0.345862 7.82943e-19)
(0.938896 0.345855 -6.64495e-19)
(0.938815 0.345852 1.29869e-18)
(0.938733 0.345846 -8.37579e-19)
(0.938652 0.345838 3.50737e-19)
(0.938572 0.345834 6.43064e-19)
(0.938488 0.345837 -2.96616e-19)
(0.938398 0.345849 3.96387e-19)
(0.938299 0.345869 -1.97251e-19)
(0.938192 0.345892 6.37305e-19)
(0.938095 0.345915 -1.81156e-18)
(0.938006 0.345978 5.00568e-19)
(0.937893 0.346106 1.07843e-18)
(0.937731 0.346302 2.65172e-18)
(0.937495 0.346542 3.40075e-18)
(0.937165 0.346771 7.31012e-19)
(0.936724 0.346874 5.18542e-18)
(0.936178 0.346676 5.57229e-18)
(0.935565 0.345975 6.43234e-18)
(0.93495 0.344568 -4.668e-18)
(0.934429 0.34243 -6.43512e-18)
(0.934016 0.339768 4.3017e-18)
(0.933732 0.336881 5.93442e-18)
(0.933558 0.334287 1.44728e-17)
(0.933373 0.332232 9.19174e-18)
(0.932862 0.330657 1.49553e-17)
(0.93242 0.327761 2.63894e-17)
(0.929816 0.323689 -1.35014e-18)
(0.932561 0.316266 -1.37498e-17)
(0.901017 0.304824 -9.5482e-18)
(0.939453 0.349253 8.73265e-21)
(0.940162 0.34906 -3.02898e-21)
(0.940855 0.348897 4.84025e-21)
(0.941506 0.348742 -7.06598e-21)
(0.942073 0.348607 1.56389e-20)
(0.942521 0.348505 -7.95256e-21)
(0.942827 0.348443 4.17725e-21)
(0.942978 0.348427 -6.40686e-20)
(0.942974 0.348459 5.44991e-20)
(0.942829 0.348538 -1.10333e-19)
(0.942563 0.348659 1.2344e-19)
(0.942204 0.348813 -1.5019e-20)
(0.941785 0.348987 -3.42729e-20)
(0.941338 0.34917 -1.66262e-20)
(0.940892 0.349346 -3.97264e-21)
(0.94047 0.349502 -1.73187e-19)
(0.940092 0.349627 4.88986e-21)
(0.939767 0.349712 1.98792e-19)
(0.9395 0.349751 -6.80297e-20)
(0.93929 0.349743 -7.59477e-20)
(0.939131 0.349686 1.28595e-19)
(0.939017 0.349589 -6.89091e-20)
(0.938936 0.349454 2.94463e-19)
(0.93888 0.349292 1.7447e-19)
(0.93884 0.349109 1.44055e-19)
(0.938807 0.348916 -4.33424e-19)
(0.938776 0.348718 -6.37247e-20)
(0.938742 0.348523 -3.79261e-19)
(0.938702 0.348335 7.07348e-20)
(0.938654 0.348164 -1.45894e-19)
(0.938595 0.348014 -5.87423e-20)
(0.938527 0.347884 5.03547e-19)
(0.938449 0.347768 -1.2959e-18)
(0.93837 0.34766 -6.1498e-20)
(0.938291 0.34756 -7.34756e-19)
(0.938213 0.347478 -3.73212e-19)
(0.93813 0.347421 1.07468e-19)
(0.938035 0.347392 -1.33034e-18)
(0.937924 0.347392 2.13172e-18)
(0.937797 0.347414 3.80425e-19)
(0.937671 0.347465 2.48296e-18)
(0.93755 0.347564 -1.83801e-18)
(0.937403 0.34772 -1.23728e-18)
(0.937204 0.347921 -4.46182e-19)
(0.936933 0.348124 2.53158e-18)
(0.93657 0.348255 3.60384e-18)
(0.936098 0.348179 8.78454e-19)
(0.935519 0.347706 1.45207e-18)
(0.934859 0.346635 -2.23513e-18)
(0.934163 0.344764 1.19313e-17)
(0.933496 0.342099 3.03801e-18)
(0.932853 0.338867 -3.12403e-18)
(0.932249 0.33536 9.8078e-19)
(0.931707 0.332087 1.14652e-17)
(0.93124 0.329316 -7.04242e-19)
(0.930576 0.327058 -1.16908e-17)
(0.930428 0.323637 -2.71313e-17)
(0.927936 0.319169 2.40588e-17)
(0.931847 0.31346 -1.3706e-17)
(0.90483 0.303969 1.06561e-17)
(0.937054 0.355357 -3.22565e-21)
(0.937591 0.355072 1.3028e-20)
(0.938232 0.354809 -2.14878e-20)
(0.938962 0.354511 1.61045e-20)
(0.939737 0.354198 1.03148e-20)
(0.940509 0.353882 -1.11996e-20)
(0.94123 0.353574 9.0578e-22)
(0.941858 0.353288 -8.46432e-21)
(0.942356 0.353035 -2.87352e-20)
(0.942701 0.352826 5.60391e-20)
(0.942883 0.352666 -8.82327e-20)
(0.942904 0.352558 7.87123e-20)
(0.942778 0.352501 7.10151e-20)
(0.94253 0.352488 -1.11972e-19)
(0.942189 0.35251 -3.78762e-20)
(0.941787 0.352555 1.45353e-19)
(0.941355 0.352608 -1.81824e-19)
(0.94092 0.352657 2.60143e-19)
(0.940506 0.352688 -4.83917e-20)
(0.940127 0.352691 3.25854e-20)
(0.939793 0.352656 -4.79664e-20)
(0.939507 0.352582 -6.49814e-20)
(0.939269 0.352463 -1.31944e-19)
(0.939073 0.352306 2.3774e-19)
(0.938912 0.352111 -1.68106e-19)
(0.93878 0.351889 -1.7791e-19)
(0.938667 0.351643 3.79708e-19)
(0.938566 0.351383 -3.86848e-19)
(0.938471 0.351112 6.48993e-19)
(0.938377 0.350843 -3.55099e-19)
(0.93828 0.350583 2.98688e-19)
(0.938178 0.350338 -5.24473e-19)
(0.938073 0.350104 6.02201e-19)
(0.937973 0.349878 -4.26247e-20)
(0.93788 0.349666 -2.8848e-20)
(0.937791 0.349477 -1.36924e-20)
(0.937699 0.349324 -4.03534e-19)
(0.937598 0.349212 1.18579e-18)
(0.937483 0.349139 -9.39608e-19)
(0.937353 0.349098 -5.69059e-18)
(0.93722 0.349101 -2.46116e-18)
(0.937093 0.349155 1.73147e-18)
(0.936947 0.34925 -1.95229e-18)
(0.93676 0.34937 -2.08129e-18)
(0.936513 0.34947 -1.7181e-19)
(0.936186 0.349471 5.10468e-18)
(0.935756 0.349242 -7.26451e-18)
(0.935213 0.348597 -7.20015e-18)
(0.934558 0.347348 -4.77214e-18)
(0.933807 0.345289 -7.98369e-18)
(0.932985 0.342422 5.11055e-18)
(0.932059 0.338941 -2.16627e-18)
(0.931045 0.335051 -1.82101e-17)
(0.930001 0.33116 3.44788e-18)
(0.929083 0.327486 5.64336e-18)
(0.928101 0.324087 -1.0542e-17)
(0.928126 0.319502 7.52603e-18)
(0.925878 0.313882 6.69374e-18)
(0.930538 0.308529 2.21373e-17)
(0.909296 0.300972 -3.78323e-19)
(0.934859 0.361324 3.75986e-21)
(0.934992 0.36105 -1.69559e-20)
(0.935282 0.360793 8.41545e-21)
(0.935738 0.360481 1.54027e-20)
(0.936343 0.360127 -3.31176e-20)
(0.937065 0.359737 2.79968e-20)
(0.937864 0.359316 -1.86823e-20)
(0.938694 0.358875 1.60153e-20)
(0.939504 0.358428 2.56312e-20)
(0.940247 0.357988 -6.26014e-20)
(0.940883 0.357569 9.16609e-20)
(0.94138 0.357185 3.93674e-20)
(0.941722 0.356844 -1.60556e-19)
(0.941905 0.356555 -3.0921e-20)
(0.941937 0.356317 8.89269e-20)
(0.941836 0.35613 5.93029e-20)
(0.941627 0.355987 -7.33904e-20)
(0.94134 0.355877 6.7097e-20)
(0.941004 0.355788 1.09127e-19)
(0.940645 0.355708 -5.1437e-20)
(0.940286 0.355622 -3.07689e-20)
(0.939945 0.35552 1.22962e-19)
(0.93963 0.355391 2.66559e-19)
(0.939349 0.355231 -1.88744e-19)
(0.939102 0.355037 -2.28746e-19)
(0.938887 0.354811 2.69967e-19)
(0.938697 0.354553 -2.1477e-19)
(0.938526 0.354269 -9.84836e-20)
(0.938367 0.353957 8.27945e-19)
(0.938213 0.353629 -3.79342e-19)
(0.93806 0.353293 -3.24884e-19)
(0.937906 0.352956 4.27532e-19)
(0.937754 0.352621 3.19321e-19)
(0.937613 0.352287 -3.01765e-19)
(0.937483 0.351961 -2.17248e-19)
(0.937362 0.35166 7.47339e-19)
(0.937242 0.351397 1.74946e-19)
(0.937118 0.351178 2.72861e-19)
(0.936986 0.351 -1.5628e-18)
(0.936853 0.350857 -1.62125e-18)
(0.936723 0.350764 3.13892e-18)
(0.936605 0.350719 2.53946e-18)
(0.93649 0.350703 4.22516e-18)
(0.936363 0.350708 -3.87851e-18)
(0.93621 0.350694 -4.2323e-18)
(0.936008 0.350601 -2.72289e-18)
(0.935733 0.350314 6.48204e-18)
(0.935359 0.349674 6.14188e-18)
(0.934864 0.348519 -6.68749e-18)
(0.934234 0.34665 -9.49559e-18)
(0.933451 0.344056 -2.08784e-18)
(0.93245 0.340876 1.86686e-18)
(0.931233 0.337207 4.28926e-19)
(0.929876 0.333309 -6.67969e-18)
(0.928634 0.329313 5.7607e-18)
(0.927382 0.325305 3.7212e-18)
(0.927502 0.320071 5.51204e-18)
(0.925487 0.313862 -2.01509e-17)
(0.930289 0.309286 -1.4875e-18)
(0.915962 0.306057 -2.0933e-19)
(0.933492 0.366188 -6.34152e-21)
(0.933235 0.365984 -4.97006e-21)
(0.933118 0.365795 7.01791e-21)
(0.933167 0.365551 2.44244e-20)
(0.933394 0.365258 -5.29149e-20)
(0.933796 0.364916 6.09395e-20)
(0.934358 0.36452 -2.97994e-21)
(0.935055 0.364076 -4.0161e-21)
(0.935847 0.363589 -2.23413e-20)
(0.936689 0.363071 5.46973e-20)
(0.937531 0.362532 -8.56638e-20)
(0.938326 0.361989 3.27997e-20)
(0.939032 0.361456 -1.11817e-21)
(0.939617 0.360948 5.33491e-20)
(0.940061 0.360476 2.62249e-20)
(0.940357 0.36005 -1.42081e-19)
(0.940509 0.359674 1.26657e-19)
(0.940531 0.35935 5.21515e-20)
(0.940446 0.359072 -1.52367e-19)
(0.940279 0.358833 7.68731e-20)
(0.940055 0.358621 3.79768e-20)
(0.939799 0.358426 -2.39569e-20)
(0.93953 0.358233 3.69377e-20)
(0.939264 0.358034 -1.72938e-20)
(0.93901 0.357818 -2.49936e-19)
(0.938774 0.357582 1.73581e-19)
(0.938555 0.35732 -2.7897e-19)
(0.938351 0.35703 5.4057e-19)
(0.938155 0.356704 -9.7516e-20)
(0.937962 0.356349 -6.35856e-20)
(0.937769 0.355969 -1.59158e-20)
(0.937575 0.355573 7.2811e-19)
(0.937385 0.355162 -2.94359e-19)
(0.937207 0.354738 -1.9556e-19)
(0.93704 0.354314 5.48981e-19)
(0.936882 0.353909 5.05412e-19)
(0.936727 0.353539 -8.82371e-19)
(0.936571 0.353208 1.61779e-19)
(0.936419 0.352912 1.88258e-18)
(0.936281 0.352645 -1.98717e-19)
(0.936158 0.352424 1.3132e-18)
(0.936062 0.352248 -1.90779e-18)
(0.935997 0.352093 2.86591e-18)
(0.93596 0.351966 6.1487e-18)
(0.935941 0.351844 1.75157e-18)
(0.935919 0.35169 -2.35599e-18)
(0.935867 0.351421 -6.97555e-18)
(0.935751 0.350912 1.19756e-18)
(0.935527 0.35004 2.04284e-18)
(0.935157 0.348621 4.51167e-18)
(0.93459 0.346632 -7.30702e-19)
(0.933726 0.344158 -7.6427e-18)
(0.932545 0.341188 6.75048e-18)
(0.931122 0.33783 -4.73676e-18)
(0.92977 0.334108 9.01261e-18)
(0.928384 0.330113 2.61034e-18)
(0.928578 0.324853 1.1033e-17)
(0.926799 0.318661 1.4905e-17)
(0.931234 0.315265 1.89748e-18)
(0.923727 0.316756 1.97776e-18)
(0.932913 0.369938 -3.12995e-21)
(0.93239 0.369793 2.72478e-21)
(0.931956 0.369675 1.35503e-20)
(0.931645 0.369514 2.13922e-20)
(0.931482 0.369314 -6.42485e-20)
(0.931488 0.369071 3.72715e-20)
(0.931675 0.368774 -6.68371e-20)
(0.93204 0.36842 1.05863e-19)
(0.93257 0.368006 -5.02095e-20)
(0.933238 0.367536 8.95553e-21)
(0.934007 0.367013 9.9366e-20)
(0.934831 0.366448 -2.30264e-19)
(0.935665 0.365853 1.59717e-19)
(0.936462 0.365244 2.29341e-20)
(0.937182 0.364635 3.84864e-20)
(0.937794 0.364044 -1.62806e-19)
(0.93828 0.363483 8.19335e-20)
(0.938631 0.362965 -1.04713e-19)
(0.938852 0.362493 2.14054e-19)
(0.938955 0.36207 -2.789e-20)
(0.938959 0.361694 -2.89101e-19)
(0.938885 0.361357 1.15931e-19)
(0.938755 0.36105 -6.92352e-21)
(0.938591 0.360764 -4.76403e-19)
(0.938407 0.360485 3.59994e-19)
(0.938216 0.36021 2.86685e-19)
(0.938024 0.359925 2.12597e-19)
(0.937832 0.359622 -2.73876e-19)
(0.937639 0.359287 -3.2437e-19)
(0.937443 0.358919 1.54486e-19)
(0.937242 0.358517 2.54232e-19)
(0.937039 0.358084 -3.26799e-19)
(0.936838 0.357622 -5.26772e-19)
(0.936645 0.357134 1.09728e-18)
(0.936461 0.356632 1.2806e-19)
(0.93628 0.356141 -1.88925e-18)
(0.9361 0.355676 1.52484e-19)
(0.935923 0.35524 1.41625e-18)
(0.935758 0.354826 1.42472e-19)
(0.93562 0.354429 2.03832e-18)
(0.935511 0.354066 -2.98861e-18)
(0.935443 0.353742 -2.11664e-19)
(0.935433 0.353435 -1.92717e-18)
(0.935489 0.353169 7.29535e-19)
(0.935604 0.352938 3.08093e-18)
(0.935758 0.352734 9.15774e-18)
(0.935924 0.352503 1.32231e-18)
(0.936062 0.352161 -5.55126e-18)
(0.936116 0.351621 3.97079e-18)
(0.936034 0.350716 1.3777e-17)
(0.93574 0.349417 -1.07956e-17)
(0.935113 0.347759 1.27238e-17)
(0.93411 0.345638 -8.00391e-18)
(0.9328 0.343023 -3.68995e-18)
(0.931521 0.339838 -1.81716e-17)
(0.930154 0.336153 -9.44076e-19)
(0.930459 0.331159 -6.38575e-18)
(0.929011 0.325191 -6.67845e-18)
(0.932812 0.322829 3.55315e-18)
(0.93081 0.327553 -5.01343e-19)
(0.932838 0.372923 4.44594e-21)
(0.932173 0.372823 1.52686e-21)
(0.931546 0.372753 -1.62904e-20)
(0.930986 0.372654 1.56418e-20)
(0.930524 0.37253 -6.99085e-21)
(0.930189 0.372375 1.25367e-20)
(0.930008 0.372177 4.29163e-21)
(0.929998 0.371931 -6.40679e-20)
(0.930169 0.371628 2.82936e-20)
(0.930517 0.371263 -1.9464e-20)
(0.931026 0.370834 1.20187e-20)
(0.931668 0.370341 4.7407e-20)
(0.932407 0.36979 -9.23643e-21)
(0.933199 0.369191 3.02339e-20)
(0.933999 0.368556 -1.30724e-19)
(0.934764 0.3679 5.10283e-20)
(0.935459 0.36724 2.23819e-20)
(0.936056 0.366594 -6.61062e-20)
(0.93654 0.365972 1.33414e-19)
(0.936903 0.365389 4.59166e-20)
(0.937152 0.364849 -4.78552e-21)
(0.937296 0.364356 -5.48758e-20)
(0.937353 0.363906 2.19891e-19)
(0.937342 0.363496 -6.27223e-19)
(0.937279 0.363117 3.36255e-19)
(0.937181 0.362763 1.52406e-19)
(0.937058 0.362421 -2.59266e-19)
(0.936917 0.36208 4.83481e-19)
(0.936761 0.36172 -2.33198e-19)
(0.936594 0.361332 -1.33894e-19)
(0.936417 0.36091 -2.79221e-19)
(0.936234 0.360452 -1.29843e-19)
(0.936051 0.359954 3.37668e-19)
(0.935872 0.359418 -1.10567e-18)
(0.935695 0.35886 2.18565e-18)
(0.935515 0.358302 -1.46347e-19)
(0.935332 0.35776 1.27898e-18)
(0.935151 0.357233 -3.38767e-18)
(0.934987 0.356711 -1.13627e-18)
(0.93486 0.356191 8.63196e-21)
(0.934772 0.355686 -9.29211e-19)
(0.934734 0.355212 -1.58492e-19)
(0.934772 0.354753 -3.32832e-18)
(0.934902 0.354346 1.09177e-18)
(0.935117 0.354003 1.55132e-18)
(0.935397 0.353736 -8.46488e-18)
(0.935718 0.353521 1.04447e-17)
(0.936037 0.353304 1.47961e-18)
(0.936293 0.353033 3.29017e-19)
(0.936432 0.352551 -9.07761e-18)
(0.93637 0.351826 3.25834e-18)
(0.935974 0.350849 -6.53697e-18)
(0.935191 0.349445 1.17471e-17)
(0.934086 0.347472 3.10948e-18)
(0.933013 0.344768 -8.81859e-18)
(0.931809 0.341373 3.70663e-18)
(0.932309 0.336629 -1.03852e-17)
(0.931358 0.330792 -2.07444e-18)
(0.934489 0.328974 -1.50218e-17)
(0.936143 0.334998 -3.44853e-18)
(0.933005 0.375368 -1.0141e-21)
(0.932286 0.375292 -3.99518e-21)
(0.931565 0.375252 -3.4832e-21)
(0.930866 0.375193 3.41421e-20)
(0.930213 0.375122 -1.91949e-20)
(0.929637 0.375032 -2.321e-20)
(0.929169 0.374915 -8.74737e-21)
(0.928836 0.374762 -3.65731e-20)
(0.928662 0.374563 2.32767e-20)
(0.928661 0.374311 3.37267e-21)
(0.928838 0.373996 1.21992e-21)
(0.929186 0.373613 1.04573e-19)
(0.929686 0.373161 -7.54837e-20)
(0.930309 0.372642 -9.52351e-21)
(0.931017 0.372061 9.06832e-20)
(0.931768 0.37143 -5.10586e-20)
(0.93252 0.370761 -2.07857e-20)
(0.933235 0.370071 3.29775e-20)
(0.933882 0.369375 1.12256e-19)
(0.934438 0.36869 6.55043e-20)
(0.934892 0.36803 2.73192e-20)
(0.93524 0.367404 -1.68558e-19)
(0.935488 0.366817 9.1372e-20)
(0.935646 0.366275 1.79212e-19)
(0.935729 0.365773 -3.81704e-19)
(0.93575 0.365314 1.30723e-19)
(0.935723 0.364885 -5.28376e-19)
(0.935659 0.364474 4.47514e-19)
(0.935565 0.364062 4.19509e-19)
(0.93545 0.363633 -6.52906e-19)
(0.935319 0.36318 -3.40618e-19)
(0.935179 0.362691 4.67636e-19)
(0.935035 0.36216 1.63691e-19)
(0.934891 0.361585 -4.8259e-19)
(0.934743 0.360982 -6.53136e-19)
(0.934585 0.360373 -8.14703e-19)
(0.934419 0.359769 5.07684e-19)
(0.934254 0.359166 1.30163e-18)
(0.934107 0.358551 4.66428e-19)
(0.934 0.357921 -4.67951e-19)
(0.933936 0.357286 5.23092e-18)
(0.933927 0.356671 -5.37965e-19)
(0.933999 0.356069 5.5067e-18)
(0.93417 0.355525 -9.81031e-18)
(0.934436 0.355066 1.53808e-18)
(0.934775 0.354716 2.71923e-19)
(0.935164 0.354472 -4.96916e-19)
(0.935563 0.354302 -6.8573e-18)
(0.935914 0.354176 -1.05441e-17)
(0.936169 0.353947 9.00145e-18)
(0.936249 0.353572 1.12847e-17)
(0.936026 0.353017 5.64555e-18)
(0.935449 0.35205 -1.10284e-17)
(0.934589 0.350452 5.76865e-18)
(0.933808 0.348001 1.44225e-17)
(0.932892 0.344711 5.18632e-18)
(0.933691 0.340051 1.01041e-17)
(0.933415 0.33416 4.83002e-18)
(0.936 0.332362 1.27895e-17)
(0.939496 0.338228 -7.59134e-18)
(0.933254 0.37745 1.34754e-21)
(0.932532 0.37739 -4.07097e-21)
(0.931784 0.377365 1.46828e-20)
(0.931025 0.377326 3.84806e-21)
(0.930272 0.377283 -2.0602e-20)
(0.929552 0.377231 -2.39852e-20)
(0.928893 0.377164 5.75571e-20)
(0.928323 0.377075 -6.36777e-20)
(0.927873 0.376955 -1.58732e-20)
(0.927566 0.376796 4.05108e-20)
(0.927423 0.376586 3.82385e-20)
(0.927452 0.376317 1.18753e-19)
(0.927654 0.375981 -6.74056e-20)
(0.928016 0.375575 -1.192e-19)
(0.928516 0.375095 2.68058e-20)
(0.929122 0.374546 -1.02504e-19)
(0.929796 0.373936 7.83284e-20)
(0.9305 0.373277 -1.37784e-19)
(0.931195 0.372579 2.10722e-20)
(0.931848 0.371863 -5.03225e-20)
(0.932434 0.371141 -3.43128e-20)
(0.932935 0.370431 -1.41958e-19)
(0.933343 0.369741 8.78161e-21)
(0.933658 0.369087 3.19498e-19)
(0.933886 0.368469 -1.16592e-19)
(0.934036 0.367897 3.42063e-20)
(0.934119 0.367364 1.10455e-19)
(0.934146 0.366863 -1.54925e-19)
(0.93413 0.366375 -3.72976e-20)
(0.934082 0.365884 2.40761e-19)
(0.934011 0.365379 2.71426e-19)
(0.933927 0.364846 -2.06808e-19)
(0.933836 0.364273 -7.12555e-19)
(0.93374 0.363657 -1.0814e-18)
(0.933634 0.363013 1.69896e-18)
(0.933514 0.362359 4.87491e-19)
(0.93338 0.361704 3.13994e-19)
(0.933244 0.361038 1.74746e-18)
(0.933126 0.360345 -1.65281e-18)
(0.933046 0.359621 1.07255e-18)
(0.933007 0.358873 4.74172e-20)
(0.933021 0.358131 7.01649e-20)
(0.933109 0.357402 -2.01064e-18)
(0.933291 0.356731 4.57025e-18)
(0.933559 0.356152 -5.97382e-18)
(0.933892 0.3557 3.50403e-18)
(0.934268 0.355377 -9.58407e-18)
(0.934654 0.355166 2.45032e-18)
(0.934999 0.355052 5.54485e-18)
(0.935271 0.354887 -9.102e-18)
(0.935405 0.354623 -1.97779e-18)
(0.935289 0.354202 -3.48447e-19)
(0.934888 0.353365 -2.01483e-18)
(0.934287 0.351839 -5.88607e-18)
(0.933855 0.349375 3.86854e-19)
(0.933328 0.345973 5.06074e-18)
(0.934525 0.341218 -5.37866e-18)
(0.935064 0.335124 -1.47429e-18)
(0.937296 0.332963 -1.76164e-18)
(0.941252 0.337908 5.57603e-18)
(0.933526 0.379218 2.59319e-21)
(0.932828 0.379159 -2.21397e-21)
(0.932092 0.379139 2.04885e-21)
(0.931323 0.379109 1.3272e-20)
(0.930535 0.379081 1.95375e-20)
(0.929745 0.379054 -7.72244e-20)
(0.928976 0.37902 5.66606e-20)
(0.928254 0.378975 1.2031e-20)
(0.927608 0.378913 -3.63029e-21)
(0.927066 0.378824 -2.68527e-20)
(0.926653 0.378699 8.40295e-20)
(0.926393 0.378527 -2.74247e-20)
(0.926297 0.378299 -3.90488e-20)
(0.926371 0.378007 -1.20459e-19)
(0.926606 0.377643 2.45849e-19)
(0.926987 0.377206 -5.10669e-20)
(0.927487 0.376696 -4.38217e-20)
(0.928073 0.376118 -1.37602e-19)
(0.92871 0.37548 1.55241e-19)
(0.929359 0.374795 8.99429e-20)
(0.929989 0.374077 -4.19312e-20)
(0.930572 0.373341 7.56371e-20)
(0.931088 0.3726 -3.29268e-19)
(0.931524 0.371875 2.06291e-20)
(0.931877 0.371169 1.91722e-19)
(0.932146 0.3705 -3.68328e-20)
(0.932339 0.369869 -6.51349e-19)
(0.932464 0.369272 4.95764e-20)
(0.932533 0.368697 6.14198e-19)
(0.932561 0.368127 -1.75808e-19)
(0.932558 0.367554 -3.42518e-19)
(0.932538 0.36696 2.18702e-19)
(0.932505 0.366335 6.46178e-19)
(0.932463 0.36567 1.59418e-18)
(0.932407 0.364979 -2.49573e-19)
(0.932332 0.364282 4.00019e-19)
(0.932239 0.363579 -2.87574e-18)
(0.932141 0.362857 -8.59469e-19)
(0.932058 0.362096 5.77361e-19)
(0.932007 0.361293 -2.5004e-18)
(0.931992 0.360449 -5.50091e-19)
(0.932023 0.359601 1.21936e-18)
(0.932112 0.358761 1.02364e-18)
(0.932278 0.357975 2.77048e-18)
(0.932511 0.357277 8.95034e-18)
(0.932788 0.356704 -6.95795e-18)
(0.933094 0.35626 1.08531e-17)
(0.933401 0.355933 7.85948e-18)
(0.93367 0.355711 -5.03249e-20)
(0.93389 0.355447 9.39234e-18)
(0.934017 0.355083 -1.19344e-17)
(0.933963 0.354551 -1.36223e-17)
(0.933715 0.353578 1.01094e-17)
(0.933381 0.351867 8.33091e-18)
(0.933334 0.349166 -3.46209e-18)
(0.933265 0.345476 -1.81842e-17)
(0.934934 0.340496 4.15354e-18)
(0.936365 0.334137 -4.35069e-18)
(0.938447 0.331418 -5.95524e-18)
(0.941955 0.335235 4.76315e-18)
(0.933794 0.380781 -2.87818e-21)
(0.933133 0.380727 3.18501e-21)
(0.932426 0.380707 2.19731e-20)
(0.931676 0.380678 -2.90352e-20)
(0.93089 0.380654 5.35527e-20)
(0.93008 0.380635 -7.97683e-20)
(0.929261 0.380616 2.28783e-20)
(0.928455 0.380594 -1.14896e-21)
(0.927686 0.380566 5.26562e-20)
(0.92698 0.380524 -2.82087e-20)
(0.926366 0.38046 8.64599e-21)
(0.92587 0.380363 8.97547e-21)
(0.925514 0.380224 -1.42326e-19)
(0.925314 0.380032 4.28034e-20)
(0.925277 0.379778 1.02633e-19)
(0.9254 0.379454 3.59244e-21)
(0.925672 0.379056 -1.80709e-19)
(0.92607 0.378584 7.51483e-20)
(0.926565 0.378038 3.63795e-19)
(0.927125 0.377428 -2.41079e-19)
(0.927715 0.376761 -1.91626e-19)
(0.928304 0.376052 1.65075e-19)
(0.928862 0.375312 1.13014e-19)
(0.929369 0.374562 1.29422e-19)
(0.929809 0.373809 -2.52129e-19)
(0.930175 0.373076 -5.72954e-19)
(0.930464 0.372369 4.3265e-19)
(0.930682 0.371689 6.52594e-19)
(0.930837 0.37103 2.04129e-19)
(0.930944 0.370379 -3.82289e-19)
(0.931013 0.36973 1.83571e-19)
(0.931058 0.369065 3.35754e-19)
(0.931087 0.368375 -5.56705e-19)
(0.931101 0.367651 -6.49677e-20)
(0.931097 0.366909 -1.09733e-18)
(0.931068 0.366163 -3.0967e-19)
(0.93102 0.365411 -3.41802e-19)
(0.930963 0.364636 8.66609e-19)
(0.930916 0.363815 -1.26459e-18)
(0.930893 0.362944 3.78529e-19)
(0.930898 0.362019 6.6346e-19)
(0.930941 0.361081 1.81583e-19)
(0.93102 0.360148 -4.16145e-18)
(0.931153 0.359258 -5.77674e-18)
(0.931329 0.358442 -4.97004e-18)
(0.931523 0.357735 9.80966e-18)
(0.931727 0.357137 4.04911e-19)
(0.931922 0.356635 -3.72295e-18)
(0.93208 0.356217 1.93226e-18)
(0.932217 0.355728 -1.14131e-17)
(0.93231 0.355108 5.23399e-18)
(0.932299 0.354282 1.39575e-17)
(0.932196 0.352982 -5.49925e-19)
(0.932137 0.350904 -1.12616e-17)
(0.932495 0.347817 5.00622e-18)
(0.932926 0.343736 4.49939e-18)
(0.935105 0.338471 5.65574e-18)
(0.93744 0.331865 1.24279e-17)
(0.93954 0.328558 1.10692e-17)
(0.942158 0.331378 -1.10158e-17)
(0.934029 0.382166 -2.5147e-21)
(0.933405 0.382113 3.67014e-21)
(0.932735 0.382093 7.82704e-22)
(0.932018 0.382066 1.43668e-20)
(0.931256 0.382044 -2.20537e-20)
(0.930455 0.382029 -4.60147e-20)
(0.929627 0.382018 1.6554e-20)
(0.928786 0.382009 -2.27491e-20)
(0.927952 0.381999 4.9888e-20)
(0.927147 0.381984 -1.02692e-20)
(0.926396 0.381956 -3.45179e-20)
(0.925726 0.381909 2.88094e-20)
(0.925165 0.381833 4.80763e-20)
(0.924734 0.381718 1.36222e-19)
(0.924449 0.381553 -2.51522e-19)
(0.924319 0.38133 1.31204e-19)
(0.924346 0.38104 2.05699e-20)
(0.924521 0.380678 -1.35505e-19)
(0.924825 0.38024 -8.77337e-20)
(0.925232 0.379728 2.93087e-19)
(0.925714 0.379147 -3.15971e-19)
(0.926239 0.378504 9.52941e-20)
(0.926775 0.377808 -2.7113e-19)
(0.927295 0.377078 4.64197e-19)
(0.927776 0.376322 -9.70078e-20)
(0.928202 0.375564 -2.84393e-19)
(0.928563 0.374813 2.30175e-19)
(0.928858 0.374075 4.49931e-19)
(0.929091 0.373349 -4.34108e-19)
(0.929272 0.372626 2.72539e-19)
(0.929412 0.371903 -9.76648e-19)
(0.929524 0.371166 -1.16116e-19)
(0.929612 0.370407 4.41313e-19)
(0.929681 0.369619 -2.71661e-19)
(0.929728 0.368817 -5.93121e-19)
(0.929746 0.368018 -1.46218e-18)
(0.929741 0.367214 1.91202e-18)
(0.929724 0.366385 -8.09528e-19)
(0.929712 0.365507 6.21767e-19)
(0.929715 0.364575 1.35845e-18)
(0.929737 0.363581 1.13876e-18)
(0.929788 0.362567 -7.10508e-19)
(0.929851 0.361553 2.45373e-18)
(0.929943 0.360566 4.58106e-18)
(0.930053 0.359633 -4.61754e-19)
(0.930157 0.358784 -5.9949e-18)
(0.930253 0.35801 -7.85886e-18)
(0.930331 0.357292 -5.71019e-19)
(0.930376 0.356617 5.77853e-18)
(0.930429 0.355822 -1.28457e-18)
(0.930492 0.354842 9.9172e-18)
(0.930529 0.353609 -1.43256e-17)
(0.93058 0.351866 -7.27347e-18)
(0.930804 0.349321 -3.31732e-18)
(0.931576 0.345774 -5.92999e-18)
(0.932519 0.341269 3.5721e-18)
(0.935214 0.335717 -4.36339e-18)
(0.938409 0.328932 -1.6951e-17)
(0.940641 0.325117 -1.76841e-17)
(0.942224 0.327213 6.09658e-18)
(0.934216 0.38343 -3.90059e-21)
(0.933628 0.383382 3.17071e-21)
(0.932995 0.383361 2.54793e-21)
(0.932315 0.383332 -1.84611e-20)
(0.931586 0.383307 1.92921e-20)
(0.930812 0.383289 -9.68367e-21)
(0.93 0.383276 3.20441e-20)
(0.929158 0.383268 -4.84403e-20)
(0.928301 0.383264 2.70275e-21)
(0.927446 0.383262 3.84691e-21)
(0.926614 0.383256 -3.81492e-20)