/*--------------------------------*- C++ -*----------------------------------*\
  =========                 |
  \\      /  F ield         | OpenFOAM: The Open Source CFD Toolbox
   \\    /   O peration     | Website:  https://openfoam.org
    \\  /    A nd           | Version:  6.0
     \\/     M anipulation  |
\*---------------------------------------------------------------------------*/
FoamFile
{
    version     2.0;
    format      ascii;
    class       surfaceScalarField;
    location    "0.83";
    object      phi;
}
// * * * * * * * * * * * * * * * * * * * * * * * * * * * * * * * * * * * * * //

dimensions      [0 3 -1 0 0 0 0];

internalField   nonuniform List<scalar> 
26699
(
2.0051e-05
0.005201
3.343e-10
4.0126e-05
0.0051116
5.9638e-05
0.0049351
7.8187e-05
0.0046741
9.5414e-05
0.0043332
0.00011102
0.0039182
0.00012471
0.0034362
0.00013627
0.0028953
0.00014545
0.002305
0.00015187
0.0016754
0.00015715
0.0010155
0.00046493
3.4423e-05
2.0051e-05
0.0051809
1.0564e-09
4.0128e-05
0.0050916
5.9639e-05
0.0049156
7.8192e-05
0.0046556
9.5415e-05
0.004316
0.00011103
0.0039026
0.00012471
0.0034225
0.00013625
0.0028838
0.00014542
0.0022958
0.00015125
0.0016696
0.00015887
0.0010079
0.0005588
6.4999e-05
2.0051e-05
0.0051609
1.8397e-09
4.013e-05
0.0050715
5.9641e-05
0.004896
7.8194e-05
0.004637
9.5418e-05
0.0042988
0.00011103
0.003887
0.0001247
0.0034088
0.00013623
0.0028723
0.0001454
0.0022866
0.00015065
0.0016644
0.00016015
0.00099837
0.00062889
9.0056e-05
2.0052e-05
0.0051408
2.6286e-09
4.0131e-05
0.0050514
5.9644e-05
0.0048765
7.8197e-05
0.0046185
9.542e-05
0.0042816
0.00011103
0.0038714
0.0001247
0.0033951
0.00013621
0.0028607
0.0001454
0.0022775
0.00015009
0.0016597
0.00016091
0.00098755
0.0006797
0.00011009
2.0052e-05
0.0051208
3.4183e-09
4.0132e-05
0.0050313
5.9646e-05
0.004857
7.82e-05
0.0045999
9.5423e-05
0.0042643
0.00011103
0.0038558
0.0001247
0.0033815
0.00013619
0.0028493
0.00014542
0.0022682
0.00014961
0.0016555
0.00016118
0.00097598
0.00071498
0.0001259
2.0052e-05
0.0051007
4.209e-09
4.0134e-05
0.0050112
5.9649e-05
0.0048375
7.8203e-05
0.0045813
9.5426e-05
0.0042471
0.00011103
0.0038402
0.00012469
0.0033678
0.00013617
0.0028378
0.00014544
0.0022589
0.00014921
0.0016517
0.00016103
0.00096417
0.00073785
0.00013816
2.0053e-05
0.0050807
5.0005e-09
4.0135e-05
0.0049912
5.9651e-05
0.004818
7.8206e-05
0.0045628
9.5429e-05
0.0042299
0.00011103
0.0038246
0.00012469
0.0033542
0.00013615
0.0028263
0.00014547
0.0022496
0.00014891
0.0016483
0.00016056
0.00095252
0.00075095
0.00014746
2.0053e-05
0.0050606
5.7929e-09
4.0137e-05
0.0049711
5.9653e-05
0.0047985
7.8209e-05
0.0045442
9.5433e-05
0.0042127
0.00011103
0.003809
0.00012469
0.0033405
0.00013612
0.0028149
0.00014551
0.0022402
0.00014871
0.0016451
0.00015986
0.00094137
0.00075648
0.00015433
2.0053e-05
0.0050405
6.5862e-09
4.0138e-05
0.004951
5.9656e-05
0.0047789
7.8212e-05
0.0045257
9.5436e-05
0.0041954
0.00011103
0.0037934
0.00012469
0.0033268
0.0001361
0.0028035
0.00014554
0.0022308
0.00014861
0.001642
0.00015903
0.00093095
0.00075627
0.00015924
2.0054e-05
0.0050205
7.3805e-09
4.0139e-05
0.0049309
5.9658e-05
0.0047594
7.8215e-05
0.0045071
9.5439e-05
0.0041782
0.00011104
0.0037778
0.00012469
0.0033132
0.00013608
0.0027921
0.00014557
0.0022213
0.0001486
0.001639
0.00015814
0.00092141
0.00075183
0.00016258
2.0054e-05
0.0050004
8.1757e-09
4.0141e-05
0.0049108
5.9661e-05
0.0047399
7.8217e-05
0.0044886
9.5443e-05
0.004161
0.00011104
0.0037622
0.0001247
0.0032995
0.00013606
0.0027807
0.0001456
0.0022118
0.00014866
0.0016359
0.00015724
0.00091283
0.00074435
0.00016471
2.0055e-05
0.0049804
8.9721e-09
4.0142e-05
0.0048907
5.9663e-05
0.0047204
7.822e-05
0.00447
9.5446e-05
0.0041438
0.00011104
0.0037466
0.0001247
0.0032859
0.00013604
0.0027694
0.00014562
0.0022022
0.00014878
0.0016327
0.00015638
0.00090523
0.0007348
0.00016594
2.0055e-05
0.0049603
9.7695e-09
4.0144e-05
0.0048706
5.9666e-05
0.0047009
7.8223e-05
0.0044515
9.545e-05
0.0041265
0.00011104
0.003731
0.0001247
0.0032722
0.00013602
0.0027581
0.00014563
0.0021926
0.00014895
0.0016294
0.0001556
0.00089859
0.0007239
0.0001665
2.0055e-05
0.0049402
1.0568e-08
4.0145e-05
0.0048506
5.9668e-05
0.0046813
7.8226e-05
0.0044329
9.5454e-05
0.0041093
0.00011104
0.0037154
0.00012471
0.0032585
0.000136
0.0027468
0.00014564
0.0021829
0.00014916
0.0016259
0.00015491
0.00089283
0.00071222
0.00016659
2.0056e-05
0.0049202
1.1368e-08
4.0146e-05
0.0048305
5.9671e-05
0.0046618
7.8229e-05
0.0044143
9.5458e-05
0.0040921
0.00011104
0.0036998
0.00012471
0.0032449
0.00013598
0.0027355
0.00014564
0.0021733
0.00014938
0.0016222
0.00015433
0.00088788
0.00070018
0.00016638
2.0056e-05
0.0049001
1.2169e-08
4.0148e-05
0.0048104
5.9674e-05
0.0046423
7.8232e-05
0.0043958
9.5462e-05
0.0040749
0.00011105
0.0036842
0.00012472
0.0032312
0.00013597
0.0027243
0.00014564
0.0021636
0.00014962
0.0016182
0.00015386
0.00088364
0.00068807
0.00016598
2.0056e-05
0.00488
1.2971e-08
4.0149e-05
0.0047903
5.9676e-05
0.0046228
7.8235e-05
0.0043772
9.5466e-05
0.0040576
0.00011105
0.0036687
0.00012473
0.0032175
0.00013596
0.0027131
0.00014563
0.0021539
0.00014986
0.0016139
0.0001535
0.00088
0.00067609
0.00016548
2.0057e-05
0.00486
1.3774e-08
4.0151e-05
0.0047702
5.9679e-05
0.0046032
7.8238e-05
0.0043587
9.5471e-05
0.0040404
0.00011105
0.0036531
0.00012474
0.0032038
0.00013595
0.0027018
0.00014561
0.0021443
0.00015009
0.0016095
0.00015323
0.00087685
0.00066437
0.00016495
2.0057e-05
0.0048399
1.4579e-08
4.0152e-05
0.0047501
5.9682e-05
0.0045837
7.8241e-05
0.0043401
9.5475e-05
0.0040232
0.00011105
0.0036375
0.00012475
0.0031901
0.00013595
0.0026906
0.0001456
0.0021346
0.00015031
0.0016048
0.00015305
0.00087411
0.00065299
0.00016443
2.0058e-05
0.0048198
1.5385e-08
4.0153e-05
0.00473
5.9685e-05
0.0045642
7.8244e-05
0.0043215
9.548e-05
0.0040059
0.00011105
0.0036219
0.00012476
0.0031764
0.00013595
0.0026795
0.00014559
0.002125
0.00015052
0.0015998
0.00015295
0.00087168
0.00064198
0.00016396
2.0058e-05
0.0047997
1.6193e-08
4.0155e-05
0.0047099
5.9687e-05
0.0045446
7.8247e-05
0.004303
9.5485e-05
0.0039887
0.00011106
0.0036064
0.00012477
0.0031627
0.00013595
0.0026683
0.00014557
0.0021153
0.00015071
0.0015947
0.0001529
0.00086949
0.00063135
0.00016353
2.0058e-05
0.0047797
1.7002e-08
4.0156e-05
0.0046898
5.969e-05
0.0045251
7.8251e-05
0.0042844
9.5491e-05
0.0039714
0.00011106
0.0035908
0.00012478
0.003149
0.00013595
0.0026571
0.00014556
0.0021057
0.00015088
0.0015894
0.00015291
0.00086746
0.0006211
0.00016316
2.0059e-05
0.0047596
1.7813e-08
4.0158e-05
0.0046697
5.9693e-05
0.0045056
7.8254e-05
0.0042659
9.5496e-05
0.0039542
0.00011106
0.0035752
0.00012479
0.0031352
0.00013596
0.0026459
0.00014555
0.0020962
0.00015103
0.0015839
0.00015296
0.00086553
0.00061121
0.00016285
2.0059e-05
0.0047395
1.8625e-08
4.0159e-05
0.0046496
5.9696e-05
0.004486
7.8257e-05
0.0042473
9.5502e-05
0.003937
0.00011107
0.0035597
0.00012481
0.0031215
0.00013597
0.0026348
0.00014554
0.0020866
0.00015117
0.0015783
0.00015303
0.00086368
0.00060165
0.00016259
2.006e-05
0.0047194
1.9438e-08
4.0161e-05
0.0046295
5.9699e-05
0.0044665
7.8261e-05
0.0042287
9.5509e-05
0.0039197
0.00011107
0.0035441
0.00012482
0.0031077
0.00013599
0.0026236
0.00014553
0.0020771
0.0001513
0.0015725
0.00015313
0.00086185
0.0005924
0.00016238
2.006e-05
0.0046993
2.0254e-08
4.0162e-05
0.0046094
5.9702e-05
0.004447
7.8264e-05
0.0042102
9.5515e-05
0.0039025
0.00011107
0.0035285
0.00012484
0.003094
0.00013601
0.0026124
0.00014552
0.0020675
0.00015141
0.0015666
0.00015324
0.00086001
0.00058344
0.00016221
2.0061e-05
0.0046793
2.1071e-08
4.0164e-05
0.0045893
5.9706e-05
0.0044274
7.8268e-05
0.0041916
9.5522e-05
0.0038852
0.00011108
0.003513
0.00012485
0.0030802
0.00013603
0.0026013
0.00014552
0.002058
0.00015151
0.0015606
0.00015336
0.00085816
0.00057473
0.00016207
2.0061e-05
0.0046592
2.1889e-08
4.0165e-05
0.0045692
5.9709e-05
0.0044079
7.8272e-05
0.0041731
9.553e-05
0.0038679
0.00011109
0.0034974
0.00012487
0.0030664
0.00013605
0.0025901
0.00014552
0.0020486
0.0001516
0.0015545
0.00015349
0.00085627
0.00056626
0.00016196
2.0062e-05
0.0046391
2.271e-08
4.0167e-05
0.0045491
5.9713e-05
0.0043883
7.8276e-05
0.0041545
9.5538e-05
0.0038507
0.00011109
0.0034819
0.00012488
0.0030526
0.00013607
0.0025789
0.00014552
0.0020391
0.00015168
0.0015484
0.00015362
0.00085434
0.00055801
0.00016187
2.0062e-05
0.004619
2.3531e-08
4.0169e-05
0.004529
5.9716e-05
0.0043688
7.8281e-05
0.0041359
9.5546e-05
0.0038334
0.0001111
0.0034663
0.0001249
0.0030388
0.00013609
0.0025677
0.00014552
0.0020297
0.00015176
0.0015421
0.00015375
0.00085235
0.00054997
0.00016179
2.0063e-05
0.0045989
2.4354e-08
4.0171e-05
0.0045089
5.972e-05
0.0043492
7.8285e-05
0.0041174
9.5555e-05
0.0038161
0.00011111
0.0034508
0.00012492
0.003025
0.00013612
0.0025565
0.00014553
0.0020203
0.00015183
0.0015358
0.00015388
0.00085031
0.00054212
0.00016173
2.0064e-05
0.0045788
2.5178e-08
4.0173e-05
0.0044888
5.9724e-05
0.0043297
7.829e-05
0.0040988
9.5564e-05
0.0037989
0.00011112
0.0034352
0.00012494
0.0030112
0.00013615
0.0025453
0.00014554
0.0020109
0.0001519
0.0015295
0.000154
0.0008482
0.00053444
0.00016167
2.0064e-05
0.0045587
2.6003e-08
4.0174e-05
0.0044687
5.9728e-05
0.0043101
7.8296e-05
0.0040802
9.5574e-05
0.0037816
0.00011113
0.0034196
0.00012495
0.0029974
0.00013617
0.0025341
0.00014554
0.0020015
0.00015196
0.0015231
0.00015412
0.00084604
0.00052694
0.00016163
2.0065e-05
0.0045387
2.6828e-08
4.0177e-05
0.0044485
5.9732e-05
0.0042906
7.8302e-05
0.0040617
9.5584e-05
0.0037643
0.00011115
0.0034041
0.00012497
0.0029836
0.0001362
0.0025228
0.00014555
0.0019922
0.00015202
0.0015166
0.00015424
0.00084381
0.0005196
0.00016158
2.0066e-05
0.0045186
2.7654e-08
4.0179e-05
0.0044284
5.9737e-05
0.004271
7.8308e-05
0.0040431
9.5595e-05
0.003747
0.00011116
0.0033885
0.00012499
0.0029698
0.00013623
0.0025116
0.00014556
0.0019828
0.00015207
0.0015101
0.00015436
0.00084153
0.00051242
0.00016154
2.0067e-05
0.0044985
2.848e-08
4.0181e-05
0.0044083
5.9742e-05
0.0042515
7.8314e-05
0.0040245
9.5606e-05
0.0037297
0.00011117
0.0033729
0.00012501
0.0029559
0.00013625
0.0025004
0.00014557
0.0019735
0.00015213
0.0015035
0.00015447
0.00083919
0.00050538
0.0001615
2.0067e-05
0.0044784
2.9305e-08
4.0184e-05
0.0043882
5.9747e-05
0.0042319
7.8322e-05
0.0040059
9.5618e-05
0.0037124
0.00011119
0.0033574
0.00012502
0.0029421
0.00013628
0.0024891
0.00014558
0.0019642
0.00015218
0.0014969
0.00015458
0.00083679
0.00049849
0.00016147
2.0068e-05
0.0044583
3.0128e-08
4.0186e-05
0.0043681
5.9752e-05
0.0042123
7.8329e-05
0.0039874
9.563e-05
0.0036951
0.0001112
0.0033418
0.00012504
0.0029282
0.00013631
0.0024778
0.00014559
0.0019549
0.00015223
0.0014903
0.00015468
0.00083434
0.00049174
0.00016143
2.0069e-05
0.0044382
3.0949e-08
4.0189e-05
0.004348
5.9757e-05
0.0041928
7.8337e-05
0.0039688
9.5643e-05
0.0036778
0.00011122
0.0033262
0.00012506
0.0029144
0.00013633
0.0024666
0.0001456
0.0019457
0.00015228
0.0014836
0.00015478
0.00083184
0.00048513
0.0001614
2.007e-05
0.0044181
3.1768e-08
4.0192e-05
0.0043278
5.9763e-05
0.0041732
7.8346e-05
0.0039502
9.5656e-05
0.0036605
0.00011123
0.0033106
0.00012507
0.0029006
0.00013635
0.0024553
0.00014561
0.0019364
0.00015233
0.0014769
0.00015488
0.00082928
0.00047864
0.00016136
2.0072e-05
0.004398
3.2582e-08
4.0195e-05
0.0043077
5.9769e-05
0.0041536
7.8354e-05
0.0039316
9.5669e-05
0.0036432
0.00011125
0.0032951
0.00012509
0.0028867
0.00013638
0.002444
0.00014562
0.0019272
0.00015237
0.0014701
0.00015498
0.00082668
0.00047229
0.00016133
2.0073e-05
0.0043779
3.3392e-08
4.0199e-05
0.0042876
5.9776e-05
0.004134
7.8364e-05
0.003913
9.5682e-05
0.0036259
0.00011127
0.0032795
0.00012511
0.0028729
0.0001364
0.0024327
0.00014564
0.0019179
0.00015242
0.0014634
0.00015507
0.00082402
0.00046606
0.0001613
2.0074e-05
0.0043577
3.4195e-08
4.0202e-05
0.0042675
5.9783e-05
0.0041145
7.8373e-05
0.0038944
9.5695e-05
0.0036086
0.00011128
0.0032639
0.00012512
0.0028591
0.00013642
0.0024214
0.00014565
0.0019087
0.00015246
0.0014566
0.00015516
0.00082132
0.00045995
0.00016127
2.0076e-05
0.0043376
3.4991e-08
4.0206e-05
0.0042473
5.9789e-05
0.0040949
7.8383e-05
0.0038758
9.5709e-05
0.0035912
0.0001113
0.0032483
0.00012513
0.0028452
0.00013644
0.0024101
0.00014566
0.0018995
0.0001525
0.0014497
0.00015525
0.00081858
0.00045396
0.00016124
2.0077e-05
0.0043175
3.5778e-08
4.021e-05
0.0042272
5.9797e-05
0.0040753
7.8393e-05
0.0038572
9.5722e-05
0.0035739
0.00011131
0.0032327
0.00012515
0.0028314
0.00013647
0.0023988
0.00014567
0.0018903
0.00015255
0.0014428
0.00015533
0.00081579
0.00044809
0.00016121
2.0079e-05
0.0042974
3.6554e-08
4.0214e-05
0.0042071
5.9804e-05
0.0040557
7.8403e-05
0.0038386
9.5735e-05
0.0035566
0.00011133
0.0032171
0.00012516
0.0028176
0.00013649
0.0023874
0.00014568
0.0018811
0.00015259
0.0014359
0.00015542
0.00081296
0.00044232
0.00016118
2.0081e-05
0.0042773
3.732e-08
4.0219e-05
0.0041869
5.9811e-05
0.0040361
7.8414e-05
0.00382
9.5748e-05
0.0035392
0.00011134
0.0032015
0.00012517
0.0028037
0.00013651
0.0023761
0.00014569
0.0018719
0.00015263
0.001429
0.0001555
0.00081008
0.00043667
0.00016115
2.0083e-05
0.0042572
3.8072e-08
4.0223e-05
0.0041668
5.9819e-05
0.0040165
7.8424e-05
0.0038014
9.5761e-05
0.0035219
0.00011136
0.0031859
0.00012518
0.0027899
0.00013652
0.0023648
0.0001457
0.0018627
0.00015267
0.001422
0.00015558
0.00080717
0.00043113
0.00016112
2.0084e-05
0.004237
3.8811e-08
4.0228e-05
0.0041466
5.9827e-05
0.0039969
7.8434e-05
0.0037828
9.5773e-05
0.0035046
0.00011137
0.0031703
0.00012519
0.0027761
0.00013654
0.0023534
0.00014572
0.0018535
0.00015271
0.001415
0.00015566
0.00080422
0.00042569
0.0001611
2.0086e-05
0.0042169
3.9533e-08
4.0233e-05
0.0041265
5.9834e-05
0.0039773
7.8444e-05
0.0037642
9.5785e-05
0.0034872
0.00011138
0.0031547
0.0001252
0.0027623
0.00013656
0.002342
0.00014573
0.0018444
0.00015274
0.001408
0.00015573
0.00080123
0.00042035
0.00016107
2.0088e-05
0.0041968
4.0239e-08
4.0237e-05
0.0041063
5.9842e-05
0.0039577
7.8454e-05
0.0037456
9.5796e-05
0.0034699
0.00011139
0.0031391
0.00012521
0.0027484
0.00013658
0.0023307
0.00014574
0.0018352
0.00015278
0.001401
0.00015581
0.0007982
0.00041511
0.00016105
2.009e-05
0.0041767
4.0926e-08
4.0242e-05
0.0040862
5.985e-05
0.0039381
7.8464e-05
0.003727
9.5807e-05
0.0034525
0.0001114
0.0031235
0.00012522
0.0027346
0.0001366
0.0023193
0.00014575
0.0018261
0.00015282
0.0013939
0.00015588
0.00079514
0.00040997
0.00016102
2.0092e-05
0.0041565
4.1595e-08
4.0247e-05
0.004066
5.9857e-05
0.0039185
7.8474e-05
0.0037084
9.5817e-05
0.0034352
0.00011142
0.0031079
0.00012523
0.0027208
0.00013662
0.0023079
0.00014577
0.0018169
0.00015285
0.0013868
0.00015595
0.00079204
0.00040493
0.000161
2.0095e-05
0.0041364
4.2244e-08
4.0252e-05
0.0040459
5.9864e-05
0.0038989
7.8483e-05
0.0036898
9.5827e-05
0.0034179
0.00011143
0.0030923
0.00012524
0.002707
0.00013663
0.0022965
0.00014578
0.0018078
0.00015289
0.0013797
0.00015602
0.00078891
0.00039998
0.00016097
2.0097e-05
0.0041162
4.2872e-08
4.0256e-05
0.0040257
5.9871e-05
0.0038793
7.8491e-05
0.0036711
9.5836e-05
0.0034005
0.00011144
0.0030767
0.00012525
0.0026932
0.00013665
0.0022851
0.00014579
0.0017986
0.00015292
0.0013726
0.00015609
0.00078574
0.00039512
0.00016095
2.0099e-05
0.0040961
4.3479e-08
4.0261e-05
0.0040056
5.9878e-05
0.0038596
7.85e-05
0.0036525
9.5845e-05
0.0033832
0.00011145
0.0030611
0.00012525
0.0026794
0.00013667
0.0022737
0.00014581
0.0017895
0.00015296
0.0013654
0.00015616
0.00078254
0.00039034
0.00016093
2.0101e-05
0.004076
4.4065e-08
4.0265e-05
0.0039854
5.9885e-05
0.00384
7.8508e-05
0.0036339
9.5853e-05
0.0033658
0.00011145
0.0030455
0.00012526
0.0026656
0.00013669
0.0022623
0.00014582
0.0017803
0.00015299
0.0013583
0.00015622
0.00077931
0.00038566
0.00016091
2.0103e-05
0.0040558
4.463e-08
4.027e-05
0.0039652
5.9891e-05
0.0038204
7.8515e-05
0.0036153
9.5861e-05
0.0033485
0.00011146
0.0030299
0.00012527
0.0026518
0.0001367
0.0022508
0.00014584
0.0017712
0.00015302
0.0013511
0.00015629
0.00077605
0.00038105
0.00016089
2.0105e-05
0.0040357
4.5174e-08
4.0274e-05
0.0039451
5.9897e-05
0.0038008
7.8523e-05
0.0035966
9.5868e-05
0.0033311
0.00011147
0.0030143
0.00012527
0.002638
0.00013672
0.0022394
0.00014585
0.0017621
0.00015306
0.0013439
0.00015635
0.00077275
0.00037653
0.00016087
2.0107e-05
0.0040155
4.5697e-08
4.0278e-05
0.0039249
5.9903e-05
0.0037811
7.8529e-05
0.003578
9.5875e-05
0.0033138
0.00011148
0.0029987
0.00012528
0.0026242
0.00013674
0.0022279
0.00014587
0.0017529
0.00015309
0.0013367
0.00015641
0.00076943
0.00037209
0.00016085
2.0108e-05
0.0039954
4.62e-08
4.0282e-05
0.0039047
5.9909e-05
0.0037615
7.8536e-05
0.0035594
9.5882e-05
0.0032964
0.00011149
0.0029831
0.00012529
0.0026104
0.00013675
0.0022165
0.00014588
0.0017438
0.00015312
0.0013294
0.00015647
0.00076608
0.00036773
0.00016083
2.011e-05
0.0039752
4.6684e-08
4.0286e-05
0.0038845
5.9914e-05
0.0037419
7.8542e-05
0.0035408
9.5888e-05
0.0032791
0.0001115
0.0029675
0.0001253
0.0025966
0.00013677
0.002205
0.0001459
0.0017347
0.00015315
0.0013222
0.00015653
0.0007627
0.00036344
0.00016082
2.0112e-05
0.003955
4.7149e-08
4.0289e-05
0.0038644
5.9919e-05
0.0037223
7.8548e-05
0.0035221
9.5894e-05
0.0032618
0.0001115
0.0029519
0.0001253
0.0025828
0.00013679
0.0021935
0.00014592
0.0017256
0.00015318
0.0013149
0.00015659
0.00075929
0.00035922
0.0001608
2.0113e-05
0.0039349
4.7597e-08
4.0292e-05
0.0038442
5.9923e-05
0.0037026
7.8553e-05
0.0035035
9.5899e-05
0.0032444
0.00011151
0.0029363
0.00012531
0.002569
0.00013681
0.002182
0.00014593
0.0017164
0.00015321
0.0013076
0.00015664
0.00075586
0.00035508
0.00016079
2.0115e-05
0.0039147
4.8029e-08
4.0296e-05
0.003824
5.9928e-05
0.003683
7.8558e-05
0.0034849
9.5905e-05
0.0032271
0.00011152
0.0029207
0.00012532
0.0025552
0.00013682
0.0021705
0.00014595
0.0017073
0.00015324
0.0013003
0.0001567
0.0007524
0.00035101
0.00016077
2.0116e-05
0.0038946
4.8446e-08
4.0299e-05
0.0038038
5.9932e-05
0.0036634
7.8563e-05
0.0034662
9.591e-05
0.0032097
0.00011153
0.002905
0.00012532
0.0025414
0.00013684
0.002159
0.00014597
0.0016982
0.00015327
0.001293
0.00015675
0.00074891
0.00034701
0.00016076
2.0118e-05
0.0038744
4.885e-08
4.0301e-05
0.0037836
5.9936e-05
0.0036437
7.8568e-05
0.0034476
9.5915e-05
0.0031924
0.00011153
0.0028894
0.00012533
0.0025276
0.00013686
0.0021475
0.00014598
0.0016891
0.0001533
0.0012857
0.00015681
0.0007454
0.00034307
0.00016074
2.0119e-05
0.0038542
4.9241e-08
4.0304e-05
0.0037634
5.9939e-05
0.0036241
7.8573e-05
0.003429
9.592e-05
0.003175
0.00011154
0.0028738
0.00012534
0.0025138
0.00013688
0.0021359
0.000146
0.0016799
0.00015333
0.0012784
0.00015686
0.00074187
0.0003392
0.00016073
2.012e-05
0.0038341
4.9621e-08
4.0306e-05
0.0037433
5.9943e-05
0.0036045
7.8577e-05
0.0034103
9.5925e-05
0.0031577
0.00011155
0.0028582
0.00012535
0.0025
0.00013689
0.0021244
0.00014602
0.0016708
0.00015335
0.0012711
0.00015691
0.00073831
0.0003354
0.00016072
2.0121e-05
0.0038139
4.9991e-08
4.0309e-05
0.0037231
5.9946e-05
0.0035848
7.8581e-05
0.0033917
9.593e-05
0.0031403
0.00011156
0.0028426
0.00012536
0.0024862
0.00013691
0.0021128
0.00014604
0.0016617
0.00015338
0.0012637
0.00015696
0.00073472
0.00033165
0.00016071
2.0122e-05
0.0037937
5.0353e-08
4.0311e-05
0.0037029
5.9949e-05
0.0035652
7.8586e-05
0.0033731
9.5935e-05
0.003123
0.00011157
0.0028269
0.00012536
0.0024724
0.00013693
0.0021013
0.00014605
0.0016526
0.00015341
0.0012564
0.00015701
0.00073112
0.00032796
0.0001607
2.0123e-05
0.0037735
5.0709e-08
4.0313e-05
0.0036827
5.9952e-05
0.0035455
7.859e-05
0.0033544
9.594e-05
0.0031056
0.00011157
0.0028113
0.00012537
0.0024586
0.00013695
0.0020897
0.00014607
0.0016434
0.00015343
0.001249
0.00015706
0.00072749
0.00032434
0.00016069
2.0124e-05
0.0037534
5.1058e-08
4.0315e-05
0.0036625
5.9955e-05
0.0035259
7.8594e-05
0.0033358
9.5944e-05
0.0030883
0.00011158
0.0027957
0.00012538
0.0024448
0.00013697
0.0020781
0.00014609
0.0016343
0.00015346
0.0012416
0.00015711
0.00072384
0.00032077
0.00016068
2.0125e-05
0.0037332
5.1403e-08
4.0317e-05
0.0036423
5.9958e-05
0.0035063
7.8598e-05
0.0033171
9.5949e-05
0.0030709
0.00011159
0.00278
0.00012539
0.002431
0.00013698
0.0020665
0.00014611
0.0016252
0.00015349
0.0012343
0.00015716
0.00072017
0.00031725
0.00016067
2.0125e-05
0.003713
5.1745e-08
4.0319e-05
0.0036221
5.9961e-05
0.0034866
7.8602e-05
0.0032985
9.5954e-05
0.0030536
0.0001116
0.0027644
0.0001254
0.0024172
0.000137
0.0020549
0.00014613
0.0016161
0.00015351
0.0012269
0.0001572
0.00071648
0.0003138
0.00016066
2.0126e-05
0.0036928
5.2084e-08
4.0321e-05
0.0036019
5.9963e-05
0.003467
7.8606e-05
0.0032799
9.5959e-05
0.0030362
0.00011161
0.0027487
0.0001254
0.0024034
0.00013702
0.0020433
0.00014615
0.0016069
0.00015354
0.0012195
0.00015725
0.00071276
0.00031039
0.00016066
2.0127e-05
0.0036726
5.2422e-08
4.0322e-05
0.0035817
5.9966e-05
0.0034473
7.861e-05
0.0032612
9.5964e-05
0.0030189
0.00011161
0.0027331
0.00012541
0.0023896
0.00013704
0.0020317
0.00014617
0.0015978
0.00015356
0.0012121
0.00015729
0.00070903
0.00030703
0.00016065
2.0128e-05
0.0036525
5.2759e-08
4.0324e-05
0.0035615
5.9969e-05
0.0034277
7.8614e-05
0.0032426
9.5969e-05
0.0030015
0.00011162
0.0027174
0.00012542
0.0023758
0.00013706
0.00202
0.00014619
0.0015887
0.00015359
0.0012047
0.00015734
0.00070528
0.00030373
0.00016064
2.0128e-05
0.0036323
5.3097e-08
4.0326e-05
0.0035413
5.9971e-05
0.003408
7.8618e-05
0.0032239
9.5974e-05
0.0029842
0.00011163
0.0027018
0.00012543
0.002362
0.00013707
0.0020084
0.00014621
0.0015795
0.00015361
0.0011973
0.00015738
0.00070151
0.00030047
0.00016064
2.0129e-05
0.0036121
5.3435e-08
4.0328e-05
0.0035211
5.9974e-05
0.0033884
7.8622e-05
0.0032053
9.5979e-05
0.0029668
0.00011164
0.0026861
0.00012544
0.0023482
0.00013709
0.0019967
0.00014623
0.0015704
0.00015363
0.0011899
0.00015742
0.00069772
0.00029726
0.00016063
2.013e-05
0.0035919
5.3776e-08
4.0329e-05
0.0035009
5.9976e-05
0.0033688
7.8626e-05
0.0031866
9.5984e-05
0.0029494
0.00011165
0.0026704
0.00012545
0.0023344
0.00013711
0.0019851
0.00014625
0.0015613
0.00015366
0.0011825
0.00015747
0.00069391
0.0002941
0.00016063
2.013e-05
0.0035717
5.4118e-08
4.0331e-05
0.0034807
5.9979e-05
0.0033491
7.863e-05
0.003168
9.599e-05
0.0029321
0.00011166
0.0026548
0.00012546
0.0023206
0.00013713
0.0019734
0.00014627
0.0015521
0.00015368
0.0011751
0.00015751
0.00069009
0.00029098
0.00016063
2.0131e-05
0.0035516
5.4463e-08
4.0333e-05
0.0034605
5.9982e-05
0.0033295
7.8634e-05
0.0031493
9.5995e-05
0.0029147
0.00011167
0.0026391
0.00012547
0.0023068
0.00013715
0.0019617
0.00014629
0.001543
0.00015371
0.0011677
0.00015755
0.00068624
0.0002879
0.00016062
2.0132e-05
0.0035314
5.4811e-08
4.0334e-05
0.0034403
5.9984e-05
0.0033098
7.8639e-05
0.0031307
9.6001e-05
0.0028974
0.00011168
0.0026234
0.00012548
0.002293
0.00013717
0.00195
0.00014631
0.0015338
0.00015373
0.0011602
0.00015759
0.00068239
0.00028487
0.00016062
2.0132e-05
0.0035112
5.5163e-08
4.0336e-05
0.0034201
5.9987e-05
0.0032902
7.8643e-05
0.003112
9.6006e-05
0.00288
0.00011169
0.0026077
0.00012549
0.0022792
0.00013718
0.0019383
0.00014633
0.0015247
0.00015375
0.0011528
0.00015763
0.00067851
0.00028188
0.00016062
2.0133e-05
0.003491
5.5519e-08
4.0338e-05
0.0033999
5.999e-05
0.0032705
7.8647e-05
0.0030934
9.6012e-05
0.0028626
0.00011169
0.0025921
0.0001255
0.0022654
0.0001372
0.0019266
0.00014635
0.0015155
0.00015377
0.0011454
0.00015767
0.00067462
0.00027893
0.00016062
2.0133e-05
0.0034708
5.588e-08
4.0339e-05
0.0033797
5.9993e-05
0.0032509
7.8652e-05
0.0030747
9.6018e-05
0.0028453
0.0001117
0.0025764
0.00012551
0.0022516
0.00013722
0.0019149
0.00014638
0.0015064
0.0001538
0.001138
0.0001577
0.00067071
0.00027602
0.00016062
2.0134e-05
0.0034506
5.6245e-08
4.0341e-05
0.0033595
5.9995e-05
0.0032312
7.8656e-05
0.003056
9.6024e-05
0.0028279
0.00011171
0.0025607
0.00012552
0.0022378
0.00013724
0.0019032
0.0001464
0.0014972
0.00015382
0.0011305
0.00015774
0.00066679
0.00027314
0.00016062
2.0135e-05
0.0034304
5.6615e-08
4.0343e-05
0.0033393
5.9998e-05
0.0032115
7.8661e-05
0.0030374
9.603e-05
0.0028105
0.00011172
0.002545
0.00012553
0.0022239
0.00013726
0.0018915
0.00014642
0.0014881
0.00015384
0.0011231
0.00015778
0.00066285
0.0002703
0.00016062
2.0135e-05
0.0034102
5.699e-08
4.0345e-05
0.0033191
6.0001e-05
0.0031919
7.8666e-05
0.0030187
9.6036e-05
0.0027932
0.00011173
0.0025293
0.00012554
0.0022101
0.00013728
0.0018797
0.00014644
0.0014789
0.00015387
0.0011157
0.00015782
0.0006589
0.0002675
0.00016062
2.0136e-05
0.00339
5.737e-08
4.0346e-05
0.0032989
6.0004e-05
0.0031722
7.8671e-05
0.003
9.6042e-05
0.0027758
0.00011174
0.0025136
0.00012555
0.0021963
0.0001373
0.001868
0.00014646
0.0014697
0.00015389
0.0011083
0.00015785
0.00065493
0.00026474
0.00016062
2.0137e-05
0.0033698
5.7756e-08
4.0348e-05
0.0032787
6.0007e-05
0.0031526
7.8676e-05
0.0029814
9.6048e-05
0.0027584
0.00011175
0.0024979
0.00012557
0.0021825
0.00013732
0.0018562
0.00014649
0.0014606
0.00015391
0.0011009
0.00015789
0.00065096
0.000262
0.00016062
2.0137e-05
0.0033496
5.8148e-08
4.035e-05
0.0032585
6.001e-05
0.0031329
7.8681e-05
0.0029627
9.6055e-05
0.002741
0.00011177
0.0024822
0.00012558
0.0021687
0.00013734
0.0018445
0.00014651
0.0014514
0.00015393
0.0010934
0.00015793
0.00064696
0.0002593
0.00016062
2.0138e-05
0.0033294
5.8546e-08
4.0352e-05
0.0032382
6.0014e-05
0.0031132
7.8686e-05
0.002944
9.6061e-05
0.0027237
0.00011178
0.0024665
0.00012559
0.0021549
0.00013735
0.0018327
0.00014653
0.0014422
0.00015395
0.001086
0.00015796
0.00064296
0.00025664
0.00016063
2.0139e-05
0.0033092
5.895e-08
4.0354e-05
0.003218
6.0017e-05
0.0030936
7.8691e-05
0.0029254
9.6068e-05
0.0027063
0.00011179
0.0024507
0.0001256
0.0021411
0.00013737
0.001821
0.00014656
0.001433
0.00015398
0.0010786
0.000158
0.00063894
0.000254
0.00016063
2.0139e-05
0.003289
5.9361e-08
4.0356e-05
0.0031978
6.002e-05
0.0030739
7.8696e-05
0.0029067
9.6075e-05
0.0026889
0.0001118
0.002435
0.00012561
0.0021273
0.00013739
0.0018092
0.00014658
0.0014238
0.000154
0.0010712
0.00015803
0.00063491
0.00025139
0.00016064
2.014e-05
0.0032688
5.9778e-08
4.0358e-05
0.0031776
6.0023e-05
0.0030543
7.8702e-05
0.002888
9.6082e-05
0.0026715
0.00011181
0.0024193
0.00012563
0.0021134
0.00013741
0.0017974
0.0001466
0.0014147
0.00015402
0.0010637
0.00015806
0.00063086
0.00024881
0.00016064
2.0141e-05
0.0032486
6.0201e-08
4.036e-05
0.0031574
6.0027e-05
0.0030346
7.8707e-05
0.0028693
9.6089e-05
0.0026541
0.00011182
0.0024036
0.00012564
0.0020996
0.00013743
0.0017856
0.00014663
0.0014055
0.00015404
0.0010563
0.0001581
0.00062681
0.00024627
0.00016065
2.0142e-05
0.0032284
6.0632e-08
4.0362e-05
0.0031372
6.003e-05
0.0030149
7.8713e-05
0.0028506
9.6096e-05
0.0026368
0.00011183
0.0023878
0.00012565
0.0020858
0.00013745
0.0017738
0.00014665
0.0013963
0.00015406
0.0010489
0.00015813
0.00062274
0.00024375
0.00016065
2.0142e-05
0.0032082
6.1069e-08
4.0364e-05
0.0031169
6.0034e-05
0.0029952
7.8719e-05
0.002832
9.6103e-05
0.0026194
0.00011184
0.0023721
0.00012566
0.002072
0.00013747
0.001762
0.00014667
0.0013871
0.00015409
0.0010415
0.00015816
0.00061866
0.00024125
0.00016066
2.0143e-05
0.003188
6.1514e-08
4.0366e-05
0.0030967
6.0037e-05
0.0029756
7.8724e-05
0.0028133
9.6111e-05
0.002602
0.00011185
0.0023563
0.00012568
0.0020582
0.00013749
0.0017502
0.0001467
0.0013779
0.00015411
0.0010341
0.0001582
0.00061457
0.00023878
0.00016067
2.0144e-05
0.0031678
6.1966e-08
4.0369e-05
0.0030765
6.0041e-05
0.0029559
7.873e-05
0.0027946
9.6118e-05
0.0025846
0.00011187
0.0023406
0.00012569
0.0020443
0.00013751
0.0017383
0.00014672
0.0013686
0.00015413
0.0010267
0.00015823
0.00061047
0.00023634
0.00016067
2.0145e-05
0.0031476
6.2425e-08
4.0371e-05
0.0030563
6.0045e-05
0.0029362
7.8736e-05
0.0027759
9.6126e-05
0.0025672
0.00011188
0.0023248
0.0001257
0.0020305
0.00013753
0.0017265
0.00014675
0.0013594
0.00015415
0.0010193
0.00015826
0.00060636
0.00023392
0.00016068
2.0146e-05
0.0031274
6.2893e-08
4.0373e-05
0.003036
6.0048e-05
0.0029166
7.8742e-05
0.0027572
9.6134e-05
0.0025498
0.00011189
0.0023091
0.00012572
0.0020167
0.00013755
0.0017147
0.00014677
0.0013502
0.00015417
0.0010119
0.0001583
0.00060224
0.00023153
0.00016069
2.0147e-05
0.0031072
6.3367e-08
4.0376e-05
0.0030158
6.0052e-05
0.0028969
7.8749e-05
0.0027385
9.6142e-05
0.0025324
0.0001119
0.0022933
0.00012573
0.0020029
0.00013757
0.0017029
0.0001468
0.001341
0.0001542
0.0010045
0.00015833
0.00059811
0.00022916
0.0001607
2.0147e-05
0.003087
6.385e-08
4.0378e-05
0.0029956
6.0056e-05
0.0028772
7.8755e-05
0.0027198
9.615e-05
0.002515
0.00011191
0.0022776
0.00012575
0.001989
0.00013759
0.001691
0.00014682
0.0013318
0.00015422
0.00099708
0.00015836
0.00059397
0.00022681
0.00016071
2.0148e-05
0.0030668
6.4341e-08
4.0381e-05
0.0029753
6.006e-05
0.0028575
7.8761e-05
0.0027011
9.6158e-05
0.0024976
0.00011193
0.0022618
0.00012576
0.0019752
0.00013761
0.0016792
0.00014685
0.0013225
0.00015424
0.00098968
0.00015839
0.00058982
0.00022448
0.00016072
2.0149e-05
0.0030466
6.4841e-08
4.0383e-05
0.0029551
6.0064e-05
0.0028378
7.8768e-05
0.0026824
9.6166e-05
0.0024802
0.00011194
0.002246
0.00012578
0.0019614
0.00013763
0.0016673
0.00014687
0.0013133
0.00015426
0.00098229
0.00015842
0.00058566
0.00022217
0.00016073
2.015e-05
0.0030264
6.5349e-08
4.0386e-05
0.0029349
6.0068e-05
0.0028182
7.8775e-05
0.0026637
9.6175e-05
0.0024628
0.00011195
0.0022302
0.00012579
0.0019475
0.00013765
0.0016554
0.0001469
0.001304
0.00015429
0.0009749
0.00015845
0.00058149
0.00021989
0.00016074
2.0151e-05
0.0030061
6.5865e-08
4.0388e-05
0.0029146
6.0073e-05
0.0027985
7.8781e-05
0.002645
9.6183e-05
0.0024454
0.00011197
0.0022145
0.00012581
0.0019337
0.00013767
0.0016436
0.00014692
0.0012948
0.00015431
0.00096751
0.00015849
0.00057731
0.00021762
0.00016075
2.0152e-05
0.0029859
6.6391e-08
4.0391e-05
0.0028944
6.0077e-05
0.0027788
7.8788e-05
0.0026263
9.6192e-05
0.002428
0.00011198
0.0021987
0.00012582
0.0019198
0.00013769
0.0016317
0.00014695
0.0012855
0.00015433
0.00096013
0.00015852
0.00057313
0.00021537
0.00016076
2.0153e-05
0.0029657
6.6925e-08
4.0394e-05
0.0028742
6.0081e-05
0.0027591
7.8795e-05
0.0026076
9.6201e-05
0.0024106
0.00011199
0.0021829
0.00012584
0.001906
0.00013772
0.0016198