/*--------------------------------*- C++ -*----------------------------------*\
  =========                 |
  \\      /  F ield         | OpenFOAM: The Open Source CFD Toolbox
   \\    /   O peration     | Website:  https://openfoam.org
    \\  /    A nd           | Version:  6.0
     \\/     M anipulation  |
\*---------------------------------------------------------------------------*/
FoamFile
{
    version     2.0;
    format      ascii;
    class       volScalarField;
    location    "15";
    object      p;
}
// * * * * * * * * * * * * * * * * * * * * * * * * * * * * * * * * * * * * * //

dimensions      [0 2 -2 0 0 0 0];

internalField   nonuniform List<scalar> 
15500
(
0.0119943
0.0120545
0.0121273
0.0122107
0.0123098
0.0124238
0.0125584
0.0127138
0.0128962
0.0131073
0.0133537
0.0136389
0.01397
0.0143539
0.0147999
0.0153153
0.015907
0.0165773
0.0173279
0.0181473
0.0190045
0.0198348
0.0205316
0.0209282
0.0208183
0.0199854
0.0183935
0.0159548
0.0136434
0.0123459
0.0120003
0.0120596
0.0121319
0.0122153
0.012315
0.0124299
0.0125654
0.0127218
0.0129046
0.0131157
0.0133613
0.0136458
0.0139764
0.0143618
0.0148117
0.0153355
0.0159415
0.0166395
0.0174374
0.0183323
0.019305
0.0203106
0.0212655
0.0220238
0.0223842
0.0220892
0.0210534
0.0190275
0.0173641
0.0153269
0.0119962
0.0120584
0.0121321
0.0122169
0.0123174
0.0124335
0.0125705
0.0127289
0.0129146
0.0131294
0.0133789
0.0136672
0.0140009
0.0143888
0.0148411
0.0153653
0.0159688
0.0166593
0.0174427
0.0183145
0.0192559
0.0202241
0.0211375
0.0218535
0.0221747
0.0218226
0.0207131
0.0185878
0.0168273
0.0141239
0.0120349
0.0120965
0.0121693
0.0122527
0.0123517
0.0124666
0.0126027
0.0127612
0.0129478
0.0131648
0.0134177
0.0137102
0.0140488
0.0144417
0.0148994
0.0154288
0.0160364
0.0167286
0.0175082
0.0183729
0.0193074
0.0202751
0.021201
0.0219582
0.0223723
0.0221678
0.0212517
0.0193408
0.0176103
0.0151216
0.0120559
0.012125
0.012205
0.0122953
0.0124
0.0125193
0.0126586
0.0128194
0.0130077
0.0132268
0.0134825
0.0137791
0.0141232
0.0145224
0.0149872
0.0155245
0.0161419
0.0168443
0.0176364
0.0185171
0.0194763
0.0204836
0.0214745
0.0223434
0.0229523
0.0230474
0.0225227
0.0210502
0.0196154
0.0171733
0.0120799
0.012151
0.0122348
0.0123304
0.0124415
0.0125685
0.0127153
0.012884
0.0130795
0.0133057
0.0135679
0.0138714
0.0142227
0.0146292
0.0151011
0.0156453
0.016269
0.0169789
0.0177781
0.0186659
0.0196308
0.0206399
0.0216316
0.0225135
0.0231826
0.023423
0.0231461
0.0220305
0.0209871
0.0183942
0.0120919
0.0121699
0.0122612
0.0123658
0.0124864
0.0126232
0.0127803
0.0129591
0.0131645
0.0134002
0.0136717
0.0139844
0.0143448
0.0147601
0.0152404
0.0157918
0.0164226
0.0171385
0.0179434
0.0188331
0.0197901
0.0207729
0.0217117
0.0225138
0.0230982
0.0232894
0.0230493
0.0221345
0.0214672
0.0190093
0.0121608
0.0122348
0.0123237
0.012428
0.012551
0.0126933
0.0128579
0.0130464
0.0132625
0.0135098
0.0137927
0.0141168
0.0144885
0.0149155
0.0154081
0.015973
0.0166195
0.0173552
0.0181826
0.0190983
0.0200782
0.0210723
0.021998
0.0227522
0.0232581
0.0233665
0.0230875
0.0222832
0.0219032
0.0198865
0.0122774
0.0123521
0.0124406
0.0125446
0.0126675
0.0128105
0.0129772
0.0131694
0.0133912
0.013646
0.0139381
0.014273
0.0146569
0.0150985
0.0156092
0.0161972
0.0168748
0.0176501
0.0185316
0.019516
0.0205804
0.0216701
0.0226922
0.0235283
0.0240882
0.0242217
0.0239535
0.0232305
0.023005
0.021422
0.01248
0.0125452
0.0126244
0.0127196
0.012835
0.0129725
0.013136
0.0133277
0.0135515
0.0138112
0.0141105
0.0144556
0.0148529
0.0153121
0.0158464
0.0164668
0.0171879
0.0180237
0.0189857
0.0200783
0.0212842
0.0225502
0.0237796
0.0248377
0.025611
0.0259198
0.0257574
0.0251084
0.0248932
0.0234713
0.0127085
0.0127742
0.0128515
0.012943
0.013053
0.0131842
0.0133415
0.0135282
0.0137493
0.0140095
0.0143131
0.0146668
0.0150776
0.0155561
0.0161177
0.0167755
0.0175486
0.0184539
0.0195114
0.0207329
0.0221103
0.023598
0.0251006
0.026471
0.0275679
0.0281629
0.0281811
0.0276005
0.0272876
0.0257153
0.0129736
0.0130304
0.0130994
0.0131832
0.0132863
0.0134119
0.0135645
0.0137486
0.0139688
0.0142309
0.0145395
0.0149024
0.0153272
0.0158262
0.0164158
0.0171124
0.0179374
0.0189139
0.0200649
0.0214136
0.0229604
0.0246717
0.026457
0.0281633
0.0296227
0.0305532
0.0307897
0.0302748
0.0298083
0.0278667
0.0132052
0.0132679
0.0133412
0.0134277
0.0135315
0.013656
0.0138068
0.0139888
0.0142081
0.0144716
0.0147847
0.0151565
0.0155952
0.0161142
0.016731
0.0174636
0.0183373
0.0193747
0.0206087
0.0220662
0.023759
0.0256641
0.0276997
0.0297119
0.0315124
0.0327698
0.0332264
0.0327794
0.0321579
0.0297692
0.0134605
0.0135151
0.0135822
0.0136644
0.0137655
0.0138896
0.0140409
0.0142251
0.0144474
0.0147158
0.0150358
0.015418
0.0158714
0.0164099
0.0170518
0.0178167
0.0187296
0.0198188
0.021116
0.0226565
0.0244602
0.0265135
0.0287457
0.0310055
0.0330941
0.0346397
0.0353021
0.0349327
0.0341884
0.0313725
0.0136596
0.0137224
0.0137967
0.0138852
0.013991
0.0141185
0.0142725
0.014459
0.0146846
0.0149581
0.0152855
0.0156785
0.0161462
0.0167033
0.0173678
0.0181591
0.0191045
0.0202301
0.0215741
0.0231732
0.0250532
0.0272099
0.0295823
0.0320259
0.0343387
0.0361201
0.0369637
0.0366834
0.0358665
0.0327029
0.0138765
0.0139298
0.0139972
0.0140819
0.014187
0.0143172
0.0144756
0.0146691
0.0149023
0.015185
0.0155228
0.015928
0.0164107
0.0169853
0.0176693
0.0184826
0.0194515
0.0206061
0.02198
0.0236167
0.0255441
0.0277669
0.0302327
0.032807
0.0352888
0.0372616
0.0382667
0.0380892
0.0372466
0.0338224
0.0140181
0.0140839
0.0141623
0.0142572
0.0143705
0.0145074
0.0146716
0.0148705
0.0151098
0.0153998
0.0157465
0.0161631
0.0166591
0.0172492
0.01795
0.0187808
0.0197696
0.0209409
0.0223374
0.0239976
0.0259553
0.0282202
0.0307484
0.0334153
0.0360252
0.0381525
0.0392997
0.0392334
0.0384014
0.0347975
0.0142078
0.0142634
0.014334
0.0144241
0.0145358
0.0146749
0.0148434
0.0150492
0.015296
0.0155948
0.015951
0.0163783
0.016887
0.0174908
0.0182057
0.0190513
0.0200526
0.0212408
0.0226504
0.0243264
0.0263047
0.0285989
0.0311745
0.0339145
0.0366314
0.0388935
0.0401743
0.0402252
0.0394234
0.035694
0.014322
0.014392
0.0144746
0.0145752
0.0146944
0.014839
0.0150114
0.0152206
0.0154714
0.0157755
0.0161383
0.0165743
0.0170928
0.0177078
0.0184345
0.0192911
0.020305
0.0215022
0.0229254
0.024617
0.0266148
0.0289382
0.0315582
0.0343659
0.0371809
0.039566
0.0409712
0.0411365
0.0403706
0.0365477
0.0144876
0.0145462
0.0146195
0.0147137
0.0148302
0.014976
0.0151517
0.0153669
0.015624
0.0159355
0.0163055
0.0167492
0.0172762
0.0178999
0.0186354
0.0195012
0.020523
0.0217333
0.023167
0.0248749
0.0268947
0.0292524
0.0319235
0.0348069
0.0377252
0.0402358
0.0417653
0.0420412
0.0413049
0.037396
0.0145633
0.0146411
0.0147307
0.0148386
0.0149645
0.0151164
0.0152958
0.0155132
0.0157721
0.016086
0.0164591
0.0169071
0.017439
0.0180681
0.0188096
0.0196817
0.020713
0.0219291
0.0233793
0.0251071
0.0271579
0.0295604
0.0322956
0.0352669
0.0382983
0.0409379
0.0425873
0.0429631
0.0422398
0.0382403
0.0147257
0.0147918
0.014871
0.0149713
0.0150927
0.0152438
0.0154238
0.0156441
0.0159054
0.0162221
0.0165974
0.0170477
0.0175823
0.0182139
0.0189585
0.0198353
0.02087
0.0220992
0.0235619
0.0253132
0.0274017
0.0298597
0.0326752
0.0357525
0.0389152
0.0416959
0.0434695
0.0439366
0.0432057
0.0391013
0.0148001
0.0148864
0.0149821
0.0150954
0.0152247
0.0153796
0.0155601
0.0157787
0.0160376
0.0163522
0.0167255
0.0171749
0.0177083
0.0183392
0.0190839
0.0199612
0.0210014
0.0222352
0.023716
0.025497
0.0276315
0.030159
0.0330702
0.0362711
0.0395805
0.0425105
0.0444056
0.044949
0.0441861
0.0399557
0.0149562
0.0150289
0.0151128
0.0152173
0.015341
0.0154941
0.0156742
0.0158942
0.0161536
0.0164683
0.0168403
0.0172874
0.017818
0.0184452
0.0191862
0.020062
0.0211014
0.022346
0.0238406
0.0256527
0.0278381
0.0304455
0.033468
0.0368129
0.0402886
0.0433832
0.0454048
0.046015
0.0451979
0.0408184
0.0150085
0.0151051
0.0152087
0.0153289
0.0154623
0.01562
0.0158004
0.0160177
0.0162726
0.016582
0.0169481
0.0173892
0.0179131
0.0185329
0.0192671
0.0201372
0.0211774
0.0224214
0.0239355
0.0257808
0.0280258
0.0307233
0.0338719
0.0373762
0.0410328
0.0443001
0.0464443
0.0471055
0.0462079
0.0416544
0.0151727
0.0152548
0.0153455
0.0154556
0.015582
0.0157361
0.0159136
0.0161294
0.016381
0.0166861
0.0170456
0.0174789
0.017994
0.0186035
0.0193272
0.0201894
0.021221
0.0224719
0.0239967
0.0258749
0.0281814
0.0309762
0.0342647
0.0379459
0.0418026
0.0452561
0.0475282
0.0482317
0.0472323
0.0424842
0.0152385
0.0153432
0.015452
0.0155758
0.0157094
0.0158653
0.0160401
0.0162495
0.0164927
0.0167883
0.0171373
0.0175595
0.018062
0.018658
0.0193679
0.0202163
0.0212411
0.0224846
0.0240237
0.0259374
0.0283095
0.0312111
0.0346502
0.0385216
0.0425901
0.0462355
0.0486299
0.0493586
0.0482319
0.0432639
0.0154037
0.0154921
0.0155864
0.0156988
0.0158244
0.0159758
0.0161467
0.0163534
0.0165915
0.0168805
0.0172197
0.0176297
0.0181181
0.0186978
0.0193896
0.0202208
0.021228
0.0224698
0.0240137
0.0259597
0.0283972
0.0314107
0.0350113
0.0390895
0.0433857
0.047236
0.0497559
0.0505011
0.0492294
0.0440219
0.0154577
0.015571
0.0156856
0.0158137
0.0159479
0.0161017
0.0162698
0.0164693
0.0166975
0.0169744
0.0172997
0.0176943
0.0181653
0.018724
0.019393
0.0201996
0.0211864
0.0224099
0.023966
0.0259442
0.0284529
0.0315845
0.0353572
0.0396525
0.0441862
0.0482442
0.050881
0.051624
0.0501805
0.0447084
0.0156429
0.0157386
0.0158375
0.0159526
0.016077
0.0162244
0.0163861
0.01658
0.0167996
0.0170657
0.0173765
0.017754
0.0182037
0.0187376
0.0193768
0.0201473
0.0211061
0.0223239
0.0238779
0.0258846
0.0284623
0.031716
0.0356719
0.040199
0.044986
0.0492614
0.0520168
0.0527483
0.0511152
0.0453636
0.0157314
0.0158496
0.0159659
0.0160933
0.0162229
0.016369
0.0165245
0.0167076
0.0169135
0.0171637
0.0174557
0.0178111
0.0182352
0.018738
0.019336
0.0200764
0.0210075
0.0221989
0.023757
0.0257893
0.0284366
0.0318206
0.0359684
0.0407378
0.0457856
0.0502786
0.05314
0.0538372
0.0519862
0.045928
0.0159317
0.0160319
0.0161322
0.0162468
0.0163668
0.0165066
0.0166553
0.0168318
0.017027
0.0172629
0.0175355
0.0178664
0.0182616
0.0187279
0.0192948
0.0199914
0.0208895
0.0220671
0.0236013
0.0256483
0.0283622
0.0318813
0.036232
0.0412601
0.0465821
0.051301
0.0542662
0.0549174
0.0528317
0.0464511
0.0160378
0.0161637
0.0162844
0.0164131
0.0165391
0.0166772
0.016818
0.016981
0.017159
0.017374
0.017622
0.0179252
0.0182885
0.0187224
0.0192439
0.0199097
0.0207731
0.0218946
0.0234118
0.0254682
0.0282554
0.0319172
0.0364824
0.0417785
0.0473814
0.0523226
0.0553736
0.0559508
0.0535979
0.0468652
0.0162828
0.0163921
0.0164961
0.0166092
0.0167216
0.0168491
0.0169789
0.0171306
0.017293
0.0174882
0.0177115
0.0179852
0.0183165
0.0187121
0.0192023
0.0198186
0.0206245
0.0217092
0.0231776
0.0252405
0.0281012
0.0319118
0.0367052
0.0422853
0.0481828
0.0533498
0.0564805
0.0569688
0.0543296
0.0472319
0.016322
0.0164592
0.0165908
0.0167312
0.0168636
0.0170035
0.0171371
0.0172842
0.0174347
0.0176111
0.0178089
0.0180517
0.0183471
0.0187058
0.0191436
0.0197127
0.0204622
0.0214665
0.022904
0.0249791
0.0279197
0.0318919
0.0369244
0.0427995
0.0489954
0.0543803
0.0575658
0.0579298
0.0549678
0.0474718
0.0166214
0.01674
0.0168526
0.0169737
0.0170897
0.0172161
0.0173361
0.017469
0.0176007
0.0177531
0.0179209
0.0181271
0.0183814
0.0186907
0.0190822
0.0195802
0.020252
0.0212049
0.0225898
0.0246758
0.0276982
0.0318397
0.0371258
0.0433143
0.0498182
0.055421
0.0586489
0.0588689
0.0555653
0.0476562
0.0168116
0.0169513
0.0170793
0.0172109
0.0173296
0.0174513
0.017561
0.0176779
0.0177893
0.0179159
0.0180511
0.0182174
0.0184234
0.0186794
0.0189967
0.0194277
0.0200258
0.0208873
0.0222463
0.0243473
0.0274637
0.0317857
0.037341
0.0438521
0.050666
0.0564718
0.0597089
0.059742
0.0560543
0.0476961
0.0170664
0.0171978
0.0173231
0.0174559
0.0175767
0.0177012
0.0178084
0.0179182
0.018013
0.0181137
0.0182128
0.0183321
0.0184818
0.0186681
0.0189171
0.0192551
0.0197579
0.0205661
0.0218706
0.0239873
0.0271996
0.0317119
0.0375549
0.0444056
0.0515372
0.0575379
0.0607658
0.0605879
0.0564939
0.0476756
0.0174619
0.0176042
0.0177324
0.0178617
0.0179724
0.0180801
0.0181657
0.0182479
0.01831
0.0183714
0.0184231
0.0184855
0.0185672
0.0186777
0.0188291
0.0190778
0.0194919
0.0202008
0.0214764
0.0236163
0.0269343
0.0316567
0.0378029
0.0450042
0.0524495
0.0586231
0.0617991
0.0613577
0.0568095
0.0474927
0.0179347
0.0180663
0.0181844
0.0183037
0.0184031
0.0184985
0.0185665
0.0186261
0.0186567
0.0186772
0.0186773
0.0186758
0.0186822
0.018702
0.0187628
0.018896
0.019201
0.0198454
0.0210615
0.0232214
0.0266505
0.031598
0.0380685
0.0456394
0.0533989
0.0597306
0.0628283
0.0620937
0.0570685
0.0472416
0.0184364
0.0185836
0.01871
0.0188303
0.0189222
0.0190006
0.0190443
0.0190712
0.0190621
0.0190343
0.0189761
0.0189049
0.0188282
0.0187545
0.0186961
0.0187228
0.0189222
0.0194507
0.0206366
0.0228219
0.0263834
0.0315778
0.038396
0.046344
0.0544094
0.0608666
0.0638329
0.0627429
0.0571857
0.0468099
0.0189409
0.0190795
0.0192015
0.0193204
0.0194106
0.0194868
0.0195214
0.0195318
0.0194936
0.0194235
0.0193087
0.0191651
0.0190017
0.0188221
0.0186556
0.0185481
0.0186188
0.0190736
0.0201915
0.022406
0.0261106
0.0315734
0.0387665
0.0471075
0.0554739
0.0620307
0.0648319
0.0633512
0.0572348
0.046305
0.0195291
0.0196795
0.0198069
0.019925
0.0200076
0.0200676
0.0200795
0.0200582
0.01998
0.019859
0.0196806
0.0194591
0.019202
0.0189152
0.018613
0.0183806
0.0183295
0.0186559
0.0197399
0.0220004
0.0258716
0.031638
0.0392294
0.0479712
0.0566202
0.0632333
0.065805
0.0638603
0.0571231
0.0456012
0.0201956
0.0203318
0.0204477
0.0205562
0.0206285
0.0206773
0.0206711
0.0206244
0.0205083
0.0203355
0.0200903
0.0197847
0.0194275
0.0190202
0.0185936
0.0182091
0.0180169
0.0182585
0.0192762
0.0215889
0.0256465
0.031746
0.0397648
0.048922
0.0578362
0.06447
0.06677
0.0643188
0.0569329
0.0448164
0.0209456
0.02109
0.0212066
0.0213086
0.0213668
0.0213919
0.0213551
0.0212681
0.0211026
0.0208682
0.0205469
0.0201489
0.0196813
0.0191491
0.0185696
0.018048
0.0177179
0.0178192
0.0188167
0.0212023
0.025487
0.0319576
0.0404342
0.0500058
0.0591576
0.0657542
0.0677074
0.0646643
0.0565596
0.0438154
0.02176
0.021889
0.0219931
0.0220843
0.0221302
0.0221415
0.0220825
0.021964
0.0217522
0.0214549
0.0210531
0.0205546
0.0199677
0.0192945
0.0185733
0.0178822
0.017393
0.0174099
0.018352
0.0208296
0.02537
0.0322484
0.0412149
0.0512061
0.0605664
0.0670769
0.0686335
0.0649496
0.0560926
0.0427306
0.0226956
0.0228315
0.0229339
0.0230146
0.0230412
0.0230226
0.0229254
0.0227575
0.0224851
0.0221127
0.0216191
0.0210099
0.020292
0.019472
0.0185772
0.0177277
0.0170861
0.0169632
0.0179058
0.020513
0.0253541
0.0326926
0.0421743
0.0525783
0.0621028
0.0684563
0.0695293
0.0651061
0.0554184
0.0414142
0.0237079
0.0238295
0.0239185
0.0239856
0.0239951
0.0239552
0.0238264
0.0236152
0.0232832
0.0228326
0.0222413
0.0215126
0.0206542
0.0196709
0.0186107
0.0175683
0.0167598
0.0165573
0.0174743
0.0202364
0.0254189
0.0332612
0.0432875
0.0541
0.0637414
0.0698781
0.0704103
0.0651894
0.0546353
0.0400094
0.0247905
0.0249209
0.0250102
0.0250683
0.0250593
0.0249885
0.0248188
0.0245531
0.0241526
0.0236158
0.0229183
0.0220614
0.0210516
0.0198986
0.0186402
0.0174231
0.0164537
0.0161185
0.0170835
0.0200455
0.0256354
0.0340347
0.0446331
0.0558304
0.0655299
0.0713633
0.0712574
0.0651254
0.0536176
0.0383587
0.0259208
0.0260375
0.0261153
0.0261626
0.0261391
0.0260496
0.0258489
0.0255382
0.025073
0.024449
0.0236412
0.0226481
0.0214775
0.0201385
0.0186933
0.0172669
0.0161248
0.015734
0.0167213
0.0199265
0.0259758
0.0349818
0.0461783
0.0577389
0.0674332
0.0728923
0.0720848
0.0649732
0.0524703
0.0366214
0.0271496
0.0272733
0.0273489
0.0273841
0.027339
0.0272149
0.026969
0.0265979
0.0260561
0.0253349
0.0244064
0.0232673
0.0219247
0.0203938
0.0187312
0.017116
0.0158146
0.0153201
0.0164183
0.0199346
0.0265151
0.0361942
0.0480045
0.0598921
0.0695027
0.0744904
0.0728729
0.0646515
0.0510584
0.0346255
0.0284334
0.0285428
0.0286049
0.0286257
0.0285612
0.0284113
0.0281259
0.0276992
0.0270805
0.0262575
0.0252017
0.0239071
0.0223823
0.0206447
0.0187766
0.0169406
0.0154796
0.0149665
0.0161646
0.020046
0.0272244
0.0376302
0.0500704
0.0622471
0.0716928
0.0761318
0.0736347
0.0642211
0.0494967
0.0325427
0.0297694
0.0298842
0.0299429
0.0299503
0.0298622
0.029675
0.02934
0.0288467
0.0281421
0.0272092
0.0260165
0.0245566
0.022839
0.0208891
0.0187858
0.0167577
0.015152
0.0145798
0.0159908
0.0203169
0.0281878
0.0393828
0.0524638
0.0648708
0.0740607
0.0778442
0.0743497
0.0635949
0.0476379
0.0301902
0.0311203
0.03122
0.0312653
0.0312588
0.0311517
0.0309382
0.0305619
0.0300083
0.0292192
0.0281728
0.0268372
0.0252028
0.0232814
0.0211026
0.0187774
0.0165254
0.0147821
0.0142577
0.0158764
0.0207236
0.0293646
0.0414029
0.0551286
0.0677067
0.0765481
0.0795973
0.0750285
0.0628361
0.0456046
0.0277598
0.0325425
0.0326425
0.032679
0.0326531
0.0325167
0.0322599
0.0318274
0.0311993
0.0303143
0.029145
0.0276561
0.0258348
0.0236953
0.0212784
0.0186961
0.0162544
0.0144019
0.0138987
0.0158581
0.0213313
0.0308402
0.04379
0.0581497
0.0708253
0.0792141
0.0814216
0.0756479
0.0618492
0.0432409
0.0250556
0.0339836
0.0340641
0.0340814
0.0340342
0.0338705
0.0335774
0.033093
0.0323927
0.0314102
0.0301121
0.0284598
0.0264386
0.0240648
0.0213798
0.0185637
0.0159133
0.013972
0.0136062
0.0159172
0.0221046
0.0325696
0.0464783
0.0614568
0.0741522
0.0819899
0.0832814
0.0762165
0.0606973
0.0406807
0.0222851
0.0354476
0.0355213
0.035524
0.0354527
0.0352562
0.0349164
0.034372
0.0335915
0.0325032
0.0310666
0.029239
0.0270026
0.0243682
0.0214305
0.0183535
0.0155282
0.0135302
0.0132738
0.0160922
0.0231092
0.0346444
0.0495639
0.0651358
0.0777561
0.0849387
0.0852074
0.0767065
0.0592773
0.0377576
0.0192442
0.0368804
0.0369311
0.0369154
0.0368281
0.0366095
0.0362375
0.0356413
0.034783
0.0335858
0.0320017
0.0299877
0.027519
0.0246369
0.0214127
0.0180966
0.0150858
0.0130289
0.0130099
0.0163516
0.0243087
0.0370048
0.0529688
0.0690955
0.0815473
0.0879801
0.0871612
0.0771219
0.0576536
0.0346149
0.016161
0.0384777
0.0385156
0.038475
0.0383484
0.0380792
0.0376406
0.0369629
0.0360008
0.0346726
0.0329233
0.0307064
0.0280029
0.024838
0.0213499
0.0177699
0.0145718
0.012491
0.012694
0.0167403
0.0257774
0.0397402
0.0567898
0.0734153
0.0855966
0.0911797
0.0891736
0.0774281
0.055714
0.0310806
0.0128213
0.0402264
0.0402042
0.0401007
0.0399103
0.0395736
0.0390598
0.0382909
0.0372147
0.0357433
0.0338145
0.0313819
0.0284217
0.0249906
0.0211958
0.0173492
0.013958
0.0118662
0.0124395
0.0172309
0.0274682
0.0427855
0.0609278
0.0779868
0.0897965
0.094452
0.0912014
0.0776243
0.0535219
0.0273127
0.00947016
0.0417697
0.0417433
0.0416251
0.0414052
0.0410234
0.0404442
0.0395891
0.0383993
0.0367802
0.0346636
0.0320018
0.0287773
0.025033
0.0209423
0.0168037
0.0132237
0.0111721
0.0121277
0.0178779
0.0294587
0.0462311
0.0654713
0.0828874
0.0942176
0.0978652
0.0932731
0.0776668
0.0509591
0.0231317
0.00588823
0.0433788
0.0432987
0.0431305
0.0428632
0.0424292
0.0417879
0.0408498
0.0395471
0.0377767
0.0354619
0.0325547
0.0290358
0.0249823
0.0205436
0.0161104
0.0123499
0.0103763
0.0118923
0.0186502
0.0317032
0.0499957
0.0703062
0.0879869
0.0987432
0.101329
0.0953434
0.0775467
0.0480912
0.0187092
0.00234037
0.0448677
0.0447817
0.0445986
0.0443034
0.0438267
0.0431228
0.0420987
0.0406779
0.0387466
0.0362192
0.0330451
0.0292116
0.0247908
0.0200098
0.0152603
0.0113351
0.00951179
0.0116205
0.0196144
0.0342845
0.0541613
0.0755146
0.093357
0.103448
0.104912
0.0974343
0.0772087
0.044793
0.0138645
-0.00139937
0.046617
0.0464649
0.0462138
0.0458505
0.0453
0.0445122
0.0433827
0.0418251
0.0397141
0.0369514
0.033483
0.0292955
0.0245008
0.0193188
0.0142535
0.010185
0.00856799
0.011454
0.020742
0.0371433
0.0586372
0.0809591
0.0988554
0.108207
0.108529
0.0994946
0.0766372
0.0411321
0.00878966
-0.0050504
0.0482949
0.0481246
0.0478416
0.0474303
0.0468151
0.0459414
0.0447001
0.0429958
0.0406895
0.0376714
0.0338821
0.029314
0.0240846
0.0185054
0.0131018
0.00890973
0.0075724
0.0112795
0.0220999
0.040355
0.0634925
0.0867083
0.104553
0.113101
0.112247
0.101535
0.0757629
0.0369811
0.00330054
-0.00884017
0.0501311
0.0499005
0.0495533
0.0490749
0.0483823
0.0474162
0.0460551
0.044193
0.0416776
0.0383841
0.0342475
0.0292617
0.0235893
0.0175529
0.0118112
0.00751768
0.00652039
0.0112413
0.0236471
0.0438534
0.0686151
0.0926121
0.110295
0.118011
0.115979
0.1035
0.0745612
0.0324167
-0.00239145
-0.0124694
0.0518462
0.0516065
0.0512385
0.0507215
0.0499704
0.048919
0.0474396
0.0454155
0.0426797
0.0390933
0.0345859
0.0291568
0.0229849
0.0164942
0.0103905
0.00601286
0.0054339
0.0112257
0.0254511
0.0477029
0.0740546
0.0987291
0.116157
0.123024
0.11979
0.105383
0.0729501
0.0273101
-0.0084669
-0.01617
0.0537907
0.0534915
0.0530585
0.0524727
0.0516404
0.0504893
0.0488786
0.0466788
0.043707
0.0398078
0.0349021
0.0289928
0.0223082
0.0153022
0.00883715
0.00440344
0.00431706
0.0113738
0.0274685
0.0518196
0.0796906
0.104895
0.12199
0.128029
0.1236
0.107116
0.0709004
0.0217493
-0.0146888
-0.0196282
0.0556968
0.0553781
0.054913
0.0542776
0.0533752
0.0521263
0.0503814
0.0479981
0.0447768
0.0405416
0.0352088
0.0287843
0.0215228
0.0140009
0.00715287
0.00269092
0.00318472
0.0115771
0.0297585
0.0562516
0.0855503
0.111165
0.127878
0.13312
0.127457
0.108672
0.0683176
0.0156121
-0.0212366
-0.0230772
0.0578211
0.0574468
0.0569193
0.0562156
0.0552292
0.0538737
0.0519845
0.049405
0.0459132
0.0413171
0.0355177
0.0285232
0.0206671
0.012572
0.00534314
0.000889253
0.00204917
0.011971
0.0322664
0.0609085
0.0915018
0.117383
0.133688
0.13821
0.131279
0.109972
0.0651704
0.00900794
-0.0278493
-0.0261885
0.0599617
0.0595716
0.0590168
0.0582664
0.0572096
0.0557508
0.0537137
0.0509254
0.0471459
0.0421562
0.0358462
0.0282556
0.0197428
0.0110579
0.00342502
-0.000998023
0.000921456
0.0124528
0.0350431
0.0658149
0.0975556
0.123606
0.139523
0.143392
0.135089
0.110962
0.0613593
0.0018235
-0.0346983
-0.0291992
0.062413
0.0619716
0.0613551
0.0605349
0.0593879
0.0578114
0.0556108
0.0525972
0.0485057
0.0430943
0.0362537
0.028008
0.0188048
0.00946718
0.00140331
-0.00295694
-0.000180547
0.0131458
0.0380301
0.0708679
0.103591
0.129699
0.145287
0.148594
0.138809
0.111552
0.0568627
-0.00580737
-0.0414948
-0.0317706
0.0649724
0.0645118
0.0638608
0.0629859
0.0617577
0.0600637
0.0576965
0.0544471
0.0500307
0.0441796
0.0367605
0.0278285
0.0178632
0.00781266
-0.000719486
-0.00499113
-0.00124928
0.0139598
0.0412556
0.0760702
0.109604
0.135736
0.151098
0.153899
0.142414
0.111661
0.0515811
-0.0139788
-0.0484071
-0.0341436
0.0678199
0.0673196
0.0666153
0.0656765
0.0643599
0.062545
0.0600034
0.0565086
0.0517482
0.0454286
0.0374059
0.0277141
0.0169172
0.00607907
-0.00295076
-0.0070837
-0.00225671
0.0149987
0.0446505
0.0813209
0.11549
0.141634
0.156894
0.159259
0.145816
0.111197
0.0455103
-0.0225221
-0.0551217
-0.0359734
0.0707736
0.0702664
0.0695432
0.068566
0.0671826
0.0652591
0.0625491
0.0588023
0.053683
0.0468643
0.0381756
0.0276656
0.0159534
0.00425871
-0.0052917
-0.00922915
-0.00318799
0.0161841
0.0482216
0.0865956
0.121252
0.147488
0.162812
0.164714
0.148939
0.110057
0.0385645
-0.0315134
-0.0618013
-0.0375042
0.0739696
0.0734542
0.0727162
0.0717082
0.0702663
0.0682402
0.0653605
0.0613519
0.0558465
0.0484875
0.0390821
0.0276679
0.01496
0.00234142
-0.0077374
-0.0113971
-0.00400926
0.0175934
0.0518954
0.0918011
0.126842
0.153272
0.168836
0.170214
0.151686
0.108152
0.030772
-0.0407473
-0.0681109
-0.0383873
0.0774444
0.0769294
0.0761796
0.0751413
0.0736418
0.0715121
0.0684588
0.0641734
0.0582566
0.05031
0.0401161
0.0277249
0.0139374
0.000331506
-0.0102786
-0.0135721
-0.00470533
0.0191564
0.0556417
0.0969063
0.132272
0.159114
0.175084
0.175745
0.153916
0.105372
0.0220686
-0.0502757
-0.074212
-0.0388733
0.0811876
0.0806828
0.0799311
0.0788718
0.0773208
0.0750901
0.0718584
0.0672824
0.0609217
0.0523397
0.0412928
0.0278367
0.0128827
-0.00177435
-0.0129039
-0.0157268
-0.00525555
0.020901
0.0593823
0.101854
0.137567
0.165069
0.18156
0.181252
0.155517
0.101654
0.0125246
-0.0598537
-0.0797541
-0.0386192
0.0851695
0.084692
0.083955
0.0828896
0.0812987
0.0789737
0.0755633
0.0706836
0.0638525
0.0545829
0.0426095
0.0280077
0.0117966
-0.00397499
-0.0156126
-0.017858
-0.00566147
0.0227508
0.0630613
0.106615
0.142787
0.171272
0.188343
0.186621
0.156299
0.0968955
0.00211376
-0.069511
-0.0848971
-0.0378821
0.0894017
0.0889644
0.0882568
0.0872
0.0855815
0.08317
0.0795803
0.074385
0.0670501
0.0570425
0.0440671
0.0282256
0.0106658
-0.00628628
-0.0184123
-0.0199613
-0.00593522
0.024676
0.0666118
0.111198
0.148068
0.177834
0.195446
0.191772
0.156155
0.0910742
-0.00903915
-0.0789671
-0.0892867
-0.0363275
0.0939284
0.0935428
0.0928754
0.0918368
0.0901979
0.0877024
0.0839296
0.0783987
0.0705264
0.0597149
0.0456506
0.028475
0.00946216
-0.00873357
-0.0213173
-0.0220441
-0.00610084
0.0265934
0.069965
0.115629
0.153513
0.184885
0.202847
0.196488
0.154851
0.0841277
-0.0209167
-0.0882294
-0.0930881
-0.0342222
0.098801
0.0984769
0.0978592
0.0968465
0.0951908
0.0926108
0.0886416
0.0827521
0.0742895
0.0625997
0.047349
0.0287267
0.00815355
-0.0113528
-0.0243585
-0.0241291
-0.00621697
0.0284156
0.0731011
0.120025
0.159371
0.19257
0.210521
0.200674
0.152307
0.0760971
-0.0333339
-0.0969921
-0.095952
-0.0312512
0.104068
0.103817
0.103258
0.102278
0.100607
0.0979356
0.0937563
0.0874699
0.0783589
0.0657043
0.0491546
0.0289606
0.00669293
-0.0142016
-0.0275776
-0.0262452
-0.00633882
0.0300553
0.0759893
0.124493
0.165795
0.200926
0.218328
0.204006
0.148285
0.0669757
-0.0462204
-0.10525
-0.0980545
-0.0276876
0.109771
0.109606
0.109117
0.108177
0.106492
0.103723
0.0993098
0.0925893
0.0827657
0.0690479
0.0510693
0.029145
0.00502484
-0.0173409
-0.0310271
-0.0284421
-0.00658615
0.0314012
0.078695
0.129298
0.17312
0.210062
0.226197
0.20638
0.142768
0.0568852
-0.0593309
-0.112683
-0.0990703
-0.0232397
0.115942
0.11588
0.115475
0.114584
0.112888
0.110012
0.105346
0.0981485
0.0875389
0.0726431
0.0530826
0.0292411
0.00307559
-0.0208397
-0.0347627
-0.0307817
-0.00705905
0.0323824
0.0812906
0.13467
0.181469
0.219867
0.233831
0.207414
0.135549
0.0458955
-0.0725426
-0.119288
-0.0991889
-0.0181934
0.122659
0.122715
0.122406
0.121571
0.11986
0.116861
0.111908
0.104175
0.0926866
0.0764793
0.0551628
0.0291798
0.000767206
-0.0247732
-0.0388673
-0.0333746
-0.00793013
0.0329294
0.0839886
0.141018
0.191173
0.23035
0.241118
0.207039
0.126706
0.0342145
-0.0855534
-0.124758
-0.0981181
-0.0122898
0.130002
0.130187
0.129982
0.129206
0.127471
0.124324
0.119031
0.110684
0.0981994
0.0805243
0.0572683
0.0289058
-0.00197134
-0.0292333
-0.043436
-0.0363165
-0.00934442
0.0330396
0.0870334
0.148653
0.202215
0.241164
0.247653
0.20486
0.116118
0.0219965
-0.0981913
-0.1291
-0.0960696
-0.00582046
0.138001
0.138342
0.138265
0.137559
0.135793
0.132462
0.126763
0.117692
0.104066
0.0847516
0.0593609
0.0283663
-0.00520969
-0.0343386
-0.0485926
-0.0397464
-0.011473
0.0327891
0.090804
0.158074
0.214745
0.252175
0.253345
0.2009
0.103985
0.00953276
-0.110116
-0.132044
-0.0928047
0.00143656
0.146743
0.147274
0.147354
0.146731
0.144921
0.141361
0.135165
0.125238
0.110296
0.0891427
0.0614156
0.0275214
-0.0090242
-0.0402119
-0.0544348
-0.0437866
-0.0144684
0.0323064
0.0957636
0.169575
0.228409
0.262842
0.257775
0.194833
0.090302
-0.00294555
-0.12112
-0.133632
-0.0885521
0.00917668
0.156382
0.157133
0.157392
0.156855
0.154979
0.151127
0.144326
0.133378
0.116913
0.0937024
0.0634013
0.0263148
-0.0135023
-0.0469863
-0.0610516
-0.0485562
-0.0184001
0.0319418
0.102501
0.183543
0.242936
0.272973
0.261018
0.186839
0.0754085
-0.0150997
-0.130849
-0.13367
-0.0831355
0.0175772
0.167103
0.168099
0.168551
0.168094
0.166112
0.161889
0.154344
0.142181
0.123956
0.098427
0.0652924
0.0247032
-0.0187299
-0.0547835
-0.0684933
-0.0541876
-0.0232869
0.0321402
0.111737
0.199791
0.257344
0.282012
0.26283
0.17679
0.0594354
-0.0266548
-0.139094
-0.132247
-0.0768117
0.0263323
0.17905
0.180324
0.180987
0.180602
0.17847
0.173774
0.165325
0.151718
0.131444
0.103322
0.0670333
0.0226229
-0.0247778
-0.0637333
-0.0768059
-0.0607021
-0.0288873
0.0337694
0.124041
0.217589
0.270842
0.290099
0.263614
0.165145
0.0428621
-0.0372706
-0.145541
-0.129275
-0.0694804
0.0355733
0.192391
0.193974
0.194862
0.194532
0.192184
0.186894
0.177343
0.162004
0.139383
0.108357
0.0685878
0.0200377
-0.0316958
-0.0740022
-0.0861977
-0.068144
-0.0344471
0.0376525
0.138899
0.235394
0.282772
0.297201
0.263403
0.152057
0.0259936
-0.0466634
-0.150015
-0.124922
-0.0614125
0.0449835
0.207244
0.209169
0.210295
0.209997
0.207354
0.201312
0.190402
0.173046
0.147724
0.113498
0.0699024
0.0168613
-0.0396222
-0.0862449
-0.0975021
-0.0759194
-0.0383998
0.0438755
0.154945
0.252508
0.293769
0.304123
0.262638
0.137973
0.00944712
-0.0545095
-0.152267
-0.119221
-0.0525821
0.0546318
0.223761
0.226048
0.227408
0.227096
0.224045
0.217051
0.204515
0.184742
0.156352
0.118606
0.0709072
0.0129671
-0.0487792
-0.101248
-0.110965
-0.0827369
-0.0386533
0.05058
0.171728
0.269089
0.304241
0.311112
0.261025
0.122628
-0.0064345
-0.0605307
-0.15218
-0.112393
-0.0432749
0.0641852
0.242074
0.244731
0.246312
0.245921
0.242319
0.234119
0.219549
0.196951
0.165023
0.123377
0.0713131
0.00776809
-0.0604224
-0.120421
-0.124317
-0.090216
-0.0366278
0.0572145
0.190096
0.285368
0.314457
0.318034
0.258176
0.106049
-0.0210103
-0.0644712
-0.149621
-0.104586
-0.0335398
0.0736508
0.262364
0.265376
0.267127
0.266552
0.262187
0.252447
0.235404
0.209365
0.173332
0.12734
0.0708281
0.000745293
-0.0752146
-0.140536
-0.136625
-0.100383
-0.0382173
0.0664756
0.210557
0.300417
0.323659
0.323665
0.253265
0.0883641
-0.0336221
-0.0661117
-0.144585
-0.0960728
-0.0236599
0.0827088
0.284752
0.28809
0.289948
0.289044
0.283666
0.271971
0.251846
0.221717
0.180743
0.129763
0.0687953
-0.00965439
-0.096858
-0.164344
-0.157761
-0.112554
-0.0416283
0.0815525
0.231428
0.312748
0.331539
0.328091
0.247081
0.0710462
-0.0431771
-0.0653452
-0.13712
-0.0870928
-0.0137257
0.0913315
0.309441
0.313054
0.314914
0.313488
0.306743
0.292588
0.268757
0.233607
0.186675
0.129818
0.0640526
-0.0255539
-0.126213
-0.200052
-0.190645
-0.122625
-0.0409262
0.100277
0.250033
0.321075
0.338015
0.332038
0.241109
0.0563696
-0.048671
-0.0621972
-0.127415
-0.0779254