/*--------------------------------*- C++ -*----------------------------------*\
  =========                 |
  \\      /  F ield         | OpenFOAM: The Open Source CFD Toolbox
   \\    /   O peration     | Website:  https://openfoam.org
    \\  /    A nd           | Version:  6.0
     \\/     M anipulation  |
\*---------------------------------------------------------------------------*/
FoamFile
{
    version     2.0;
    format      ascii;
    class       surfaceScalarField;
    location    "15";
    object      phi;
}
// * * * * * * * * * * * * * * * * * * * * * * * * * * * * * * * * * * * * * //

dimensions      [0 3 -1 0 0 0 0];

internalField   nonuniform List<scalar> 
30763
(
-5.30587e-05
4.48219e-05
5.45881e-05
-5.12747e-05
5.2547e-05
-4.91712e-05
6.16054e-05
-4.67118e-05
7.22276e-05
-4.38171e-05
8.46806e-05
-4.04247e-05
9.92852e-05
-3.6442e-05
0.000116415
-3.17508e-05
0.00013648
-2.62444e-05
0.00016003
-1.97466e-05
0.000187605
-1.20967e-05
0.000219941
-3.08033e-06
0.000257821
7.55069e-06
0.000302169
2.00983e-05
0.000354047
3.48816e-05
0.000414685
5.22864e-05
0.00048542
7.27615e-05
0.000567713
9.6797e-05
0.000663096
0.000124949
0.00077304
0.000157821
0.000898726
0.000196055
0.00104068
0.000240241
0.00119815
0.000290881
0.00136802
0.00034821
0.00154308
0.000411959
0.00170952
0.000480918
0.00184294
0.000552401
0.00190283
0.000621282
0.00182542
0.000678973
0.00151208
0.000816238
0.000698903
-5.15227e-05
4.33474e-05
5.29969e-05
-4.98051e-05
5.08183e-05
-4.77802e-05
5.95786e-05
-4.54128e-05
6.98514e-05
-4.26262e-05
8.18911e-05
-3.936e-05
9.60121e-05
-3.55256e-05
0.000112577
-3.10077e-05
0.000131958
-2.57047e-05
0.000154723
-1.94461e-05
0.000181343
-1.2077e-05
0.000212567
-3.39195e-06
0.000249133
6.8502e-06
0.000291923
1.89395e-05
0.000341953
3.31855e-05
0.000400433
4.99618e-05
0.000468639
6.96981e-05
0.000547964
9.28754e-05
0.000639905
0.000120025
0.00074587
0.000151735
0.000866992
0.000188625
0.00100376
0.000231265
0.00115547
0.000280139
0.00131909
0.00033547
0.00148767
0.000396991
0.00164789
0.000463525
0.00177625
0.000532452
0.0018337
0.000598891
0.00175869
0.000652604
0.00145791
0.000793043
0.000674971
-5.0021e-05
4.19246e-05
5.1441e-05
-4.83622e-05
4.91507e-05
-4.64085e-05
5.76239e-05
-4.41239e-05
6.756e-05
-4.14356e-05
7.92017e-05
-3.82858e-05
9.28567e-05
-3.45883e-05
0.000108878
-3.02333e-05
0.000127598
-2.51213e-05
0.000149608
-1.90887e-05
0.000175307
-1.19851e-05
0.000205459
-3.61257e-06
0.000240757
6.26242e-06
0.000282044
1.79195e-05
0.000330292
3.16593e-05
0.00038669
4.7839e-05
0.000452452
6.68779e-05
0.000528918
8.92358e-05
0.000617533
0.000115428
0.000719661
0.000146021
0.000836379
0.000181612
0.000968144
0.000222753
0.00111431
0.000269906
0.0012719
0.000323289
0.00143426
0.000382636
0.00158851
0.000446815
0.00171205
0.00051325
0.00176725
0.000577325
0.00169463
0.000629752
0.00140554
0.000769521
0.000653648
-4.85527e-05
4.05515e-05
4.99251e-05
-4.69539e-05
4.75412e-05
-4.50693e-05
5.57373e-05
-4.28666e-05
6.53486e-05
-4.02744e-05
7.66062e-05
-3.72366e-05
8.98117e-05
-3.36708e-05
0.000105308
-2.94699e-05
0.000123392
-2.45391e-05
0.000144673
-1.87201e-05
0.000169484
-1.1868e-05
0.000198603
-3.79246e-06
0.000232678
5.73276e-06
0.000272514
1.69777e-05
0.000319043
3.02314e-05
0.000373431
4.58405e-05
0.000436838
6.42061e-05
0.000510542
8.57762e-05
0.000595953
0.000111044
0.000694378
0.000140559
0.000806849
0.000174894
0.000933788
0.000214583
0.00107459
0.000260071
0.00122638
0.000311567
0.00138271
0.00036881
0.00153119
0.000430707
0.00165005
0.000494742
0.00170307
0.000556501
0.00163267
0.000607478
0.00135419
0.000744766
0.000631566
-4.71653e-05
3.92263e-05
4.84879e-05
-4.56192e-05
4.59877e-05
-4.37989e-05
5.39163e-05
-4.16705e-05
6.32142e-05
-3.91661e-05
7.41015e-05
-3.62331e-05
8.68734e-05
-3.279e-05
0.000101863
-2.87362e-05
0.000119333
-2.39778e-05
0.000139912
-1.83639e-05
0.000163866
-1.17535e-05
0.000191989
-3.96319e-06
0.000224884
5.22519e-06
0.000263322
1.60716e-05
0.000308192
2.88561e-05
0.000360643
4.39108e-05
0.000421777
6.16275e-05
0.000492821
8.24313e-05
0.000575137
0.000106805
0.000669992
0.000135273
0.000778366
0.000168393
0.000900653
0.000206678
0.00103629
0.000250557
0.00118248
0.000300229
0.00133303
0.000355436
0.00147598
0.000415122
0.00159036
0.000476847
0.00164136
0.00053632
0.00157326
0.000585566
0.00130506
0.000720932
0.000609869
-4.58106e-05
3.79486e-05
4.70879e-05
-4.43221e-05
4.44893e-05
-4.25665e-05
5.21593e-05
-4.05149e-05
6.11542e-05
-3.80996e-05
7.16836e-05
-3.52697e-05
8.40367e-05
-3.19475e-05
9.85381e-05
-2.8035e-05
0.000115416
-2.34429e-05
0.000135316
-1.80255e-05
0.000158445
-1.16472e-05
0.000185607
-4.13181e-06
0.000217365
4.73134e-06
0.000254454
1.51931e-05
0.000297727
2.75225e-05
0.000348309
4.20434e-05
0.000407253
5.91273e-05
0.000475728
7.91928e-05
0.000555064
0.000102699
0.000646475
0.000130155
0.000750897
0.0001621
0.000868694
0.000199026
0.000999344
0.000241349
0.00114014
0.000289255
0.00128508
0.000342492
0.00142268
0.000400041
0.00153273
0.000459546
0.00158175
0.000516805
0.00151584
0.000564369
0.00125718
0.000695487
0.000589204
-4.44984e-05
3.67173e-05
4.57268e-05
-4.30611e-05
4.30453e-05
-4.13677e-05
5.0466e-05
-3.93877e-05
5.91688e-05
-3.70563e-05
6.9353e-05
-3.43266e-05
8.13021e-05
-3.11206e-05
9.53319e-05
-2.73474e-05
0.000111638
-2.29176e-05
0.000130884
-1.76927e-05
0.000153216
-1.15406e-05
0.000179451
-4.29189e-06
0.000210113
4.25612e-06
0.000245902
1.43451e-05
0.000287634
2.62358e-05
0.000336415
4.02371e-05
0.000393246
5.67136e-05
0.000459247
7.60623e-05
0.000535705
9.87302e-05
0.000623796
0.000125208
0.000724408
0.000156014
0.000837877
0.000191625
0.000963724
0.00023244
0.00109931
0.000278638
0.00123888
0.00032997
0.00137136
0.000385457
0.00147727
0.000442833
0.00152441
0.000497987
0.00146077
0.000543958
0.00121135
0.000670743
0.000569194
-4.31845e-05
3.55319e-05
4.43695e-05
-4.18044e-05
4.16547e-05
-4.01745e-05
4.88348e-05
-3.82703e-05
5.72555e-05
-3.60261e-05
6.71063e-05
-3.33971e-05
7.86654e-05
-3.03084e-05
9.22402e-05
-2.6671e-05
0.000107995
-2.24002e-05
0.00012661
-1.7362e-05
0.000148174
-1.14294e-05
0.000173515
-4.43977e-06
0.000203119
3.80277e-06
0.000237656
1.35313e-05
0.000277902
2.49957e-05
0.000324947
3.84972e-05
0.000379741
5.43826e-05
0.000443353
7.30409e-05
0.000517042
9.48982e-05
0.000601929
0.00012043
0.000698867
0.000150133
0.00080816
0.000184472
0.00092937
0.000223826
0.00105994
0.00026837
0.0011943
0.000317863
0.00132182
0.000371363
0.0014237
0.000426697
0.00146898
0.000479858
0.00140746
0.00052426
0.00116666
0.000645048
0.00054937
-4.1915e-05
3.43899e-05
4.30532e-05
-4.05825e-05
4.03154e-05
-3.90114e-05
4.72641e-05
-3.7175e-05
5.54136e-05
-3.5011e-05
6.49438e-05
-3.2478e-05
7.61274e-05
-2.95009e-05
8.92637e-05
-2.59974e-05
0.000104486
-2.1882e-05
0.000122493
-1.70279e-05
0.000143315
-1.13106e-05
0.000167794
-4.57346e-06
0.000196379
3.37208e-06
0.000229707
1.27501e-05
0.00026852
2.38029e-05
0.00031389
3.68181e-05
0.00036672
5.21362e-05
0.000428033
7.01229e-05
0.000499045
9.11973e-05
0.000580848
0.000115812
0.000674243
0.00014445
0.000779514
0.000177555
0.000896259
0.000215495
0.00102199
0.000258439
0.00115136
0.000306156
0.00127411
0.000357739
0.00137215
0.000411114
0.00141566
0.000462385
0.00135629
0.000505213
0.00112399
0.000621066
0.000529684
-4.06583e-05
3.32897e-05
4.17588e-05
-3.93785e-05
3.90253e-05
-3.78663e-05
4.57511e-05
-3.61011e-05
5.36391e-05
-3.40194e-05
6.28602e-05
-3.15816e-05
7.36819e-05
-2.87157e-05
8.63956e-05
-2.53411e-05
0.000101106
-2.13767e-05
0.000118527
-1.66996e-05
0.000138634
-1.11903e-05
0.000162282
-4.69797e-06
0.000189883
2.95979e-06
0.000222045
1.1999e-05
0.000259477
2.26522e-05
0.000303233
3.52003e-05
0.00035417
4.99637e-05
0.000413262
6.73058e-05
0.000481699
8.76213e-05
0.000560525
0.00011135
0.000650504
0.000138957
0.000751897
0.000170868
0.000864332
0.000207441
0.000985402
0.000248838
0.00110994
0.000294841
0.00122807
0.000344578
0.00132235
0.00039607
0.00136408
0.000445536
0.00130668
0.000486815
0.00108244
0.000596957
0.000510347
-3.94783e-05
3.22278e-05
4.05357e-05
-3.82407e-05
3.77809e-05
-3.67808e-05
4.42927e-05
-3.50764e-05
5.19296e-05
-3.30671e-05
6.08537e-05
-3.07173e-05
7.13274e-05
-2.79545e-05
8.36345e-05
-2.47044e-05
9.78514e-05
-2.08854e-05
0.000114707
-1.63808e-05
0.000134126
-1.10733e-05
0.000156972
-4.81777e-06
0.000183624
2.56143e-06
0.000214663
1.12726e-05
0.000250762
2.15412e-05
0.000292962
3.36339e-05
0.000342072
4.7867e-05
0.000399027
6.45816e-05
0.000464976
8.4164e-05
0.000540934
0.000107037
0.000627625
0.000133646
0.000725281
0.000164405
0.00083357
0.000199657
0.000950151
0.000239561
0.00107004
0.00028391
0.00118374
0.000331869
0.00127442
0.000381548
0.00131446
0.000429287
0.00125904
0.000469073
0.00104282
0.000574912
0.000491601
-3.83317e-05
3.12033e-05
3.93589e-05
-3.71415e-05
3.65804e-05
-3.57352e-05
4.28856e-05
-3.40957e-05
5.02802e-05
-3.2162e-05
5.89179e-05
-2.98989e-05
6.9056e-05
-2.72382e-05
8.09712e-05
-2.41058e-05
9.4713e-05
-2.04256e-05
0.000111024
-1.6084e-05
0.00012978
-1.09688e-05
0.000151854
-4.94066e-06
0.000177593
2.17087e-06
0.000207548
1.05667e-05
0.000242363
2.04627e-05
0.000283062
3.21194e-05
0.000330413
4.58355e-05
0.000385303
6.19479e-05
0.000448861
8.08223e-05
0.000522053
0.000102868
0.000605572
0.000128515
0.000699623
0.000158161
0.000803912
0.000192138
0.000916154
0.000230604
0.00103155
0.00027336
0.00114094
0.00031961
0.00122812
0.000367542
0.00126645
0.000413624
0.00121283
0.000451995
0.0010042
0.000552759
0.000473587
-3.72911e-05
3.02125e-05
3.82773e-05
-3.61369e-05
3.54201e-05
-3.47759e-05
4.15265e-05
-3.31884e-05
4.86883e-05
-3.13178e-05
5.70506e-05
-2.9132e-05
6.68661e-05
-2.6563e-05
7.84043e-05
-2.35426e-05
9.16883e-05
-1.9994e-05
0.000107475
-1.58095e-05
0.000125592
-1.08796e-05
0.000146922
-5.06953e-06
0.00017178
1.78462e-06
0.00020069
9.87636e-06
0.000234268
1.9415e-05
0.00027352
3.06485e-05
0.000319174
4.38719e-05
0.00037208
5.93989e-05
0.000433325
7.75918e-05
0.000503855
9.88393e-05
0.000584318
0.000123558
0.0006749
0.000152132
0.000775336
0.000184882
0.000883407
0.000221962
0.000994479
0.000263187
0.00109973
0.000307791
0.00118355
0.000354041
0.00122026
0.000398529
0.00116844
0.000435566
0.000967334
0.000532449
0.000456347
-3.62796e-05
2.92562e-05
3.72415e-05
-3.51682e-05
3.42998e-05
-3.38556e-05
4.02141e-05
-3.23267e-05
4.71506e-05
-3.05244e-05
5.52468e-05
-2.84165e-05
6.47508e-05
-2.59392e-05
7.59252e-05
-2.30246e-05
8.87683e-05
-1.96013e-05
0.00010405
-1.55647e-05
0.000121551
-1.08101e-05
0.000142165
-5.20828e-06
0.000166175
1.39961e-06
0.000194079
9.20028e-06
0.000226464
1.83943e-05
0.000264322
2.92247e-05
0.000308342
4.19668e-05
0.000359331
5.69355e-05
0.000418356
7.44699e-05
0.000486315
9.49493e-05
0.000563831
0.000118775
0.000651066
0.000146316
0.000747782
0.000177886
0.000851821
0.000213633
0.000958706
0.000253386
0.00105995
0.000296409
0.00114048
0.000341037
0.00117556
0.000383992
0.00112536
0.000419768
0.000931324
0.000511819
0.000439849
-3.53677e-05
2.83309e-05
3.62901e-05
-3.4289e-05
3.32163e-05
-3.3017e-05
3.89453e-05
-3.15344e-05
4.5665e-05
-2.97883e-05
5.35051e-05
-2.77496e-05
6.27092e-05
-2.53546e-05
7.35333e-05
-2.2541e-05
8.59513e-05
-1.9237e-05
0.000100746
-1.53431e-05
0.000117654
-1.07573e-05
0.000137577
-5.35465e-06
0.000160769
1.01686e-06
0.000187705
8.53765e-06
0.00021894
1.74023e-05
0.000255455
2.78407e-05
0.000297899
4.01265e-05
0.000347044
5.4553e-05
0.000403922
7.14543e-05
0.000469408
9.11948e-05
0.000544086
0.00011416
0.000628097
0.000140709
0.000721234
0.000171143
0.000821391
0.00020561
0.00092425
0.000243948
0.00102163
0.000285451
0.00109902
0.000328517
0.00113256
0.000369994
0.00108399
0.00040457
0.00089692
0.000492822
0.000424037
-3.4461e-05
2.74382e-05
3.53625e-05
-3.34231e-05
3.21704e-05
-3.21974e-05
3.77199e-05
-3.07703e-05
4.42294e-05
-2.90884e-05
5.18215e-05
-2.71219e-05
6.07354e-05
-2.48116e-05
7.1221e-05
-2.20945e-05
8.32291e-05
-1.89049e-05
9.7555e-05
-1.51454e-05
0.000113891
-1.07195e-05
0.000133149
-5.50749e-06
0.000155555
6.38033e-07
0.000181557
7.891e-06
0.000211685
1.64375e-05
0.000246906
2.65028e-05
0.000287832
3.83439e-05
0.000335197
5.22532e-05
0.000390013
6.85452e-05
0.000453111
8.75747e-05
0.000525052
0.000109713
0.00060595
0.000135308
0.000695629
0.000164651
0.000792031
0.000197888
0.000890991
0.000234866
0.000984619
0.000274907
0.00105893
0.000316469
0.00109093
0.00035652
0.00104382
0.000389946
0.000863271
0.000473406
0.00040884
-3.364e-05
2.65749e-05
3.45016e-05
-3.26325e-05
3.1159e-05
-3.14445e-05
3.65354e-05
-3.00596e-05
4.28425e-05
-2.84293e-05
5.01958e-05
-2.65262e-05
5.88302e-05
-2.42917e-05
6.89896e-05
-2.16676e-05
8.06022e-05
-1.85877e-05
9.44754e-05
-1.49595e-05
0.00011026
-1.0689e-05
0.000128877
-5.66032e-06
0.000150524
2.67603e-07
0.000175626
7.26216e-06
0.000204688
1.55041e-05
0.000238661
2.52071e-05
0.000278125
3.6627e-05
0.000323778
5.00333e-05
0.000376598
6.57409e-05
0.0004374
8.40858e-05
0.000506702
0.00010543
0.000584605
0.000130107
0.000670953
0.000158402
0.000763742
0.000190457
0.00085895
0.000226127
0.000948971
0.000264763
0.00102034
0.000304875
0.00105088
0.000343549
0.00100525
0.000375864
0.000831133
0.000455525
0.000394207
-3.27978e-05
2.57434e-05
3.36407e-05
-3.18294e-05
3.01842e-05
-3.06855e-05
3.53929e-05
-2.93536e-05
4.15037e-05
-2.77843e-05
4.86256e-05
-2.59493e-05
5.69894e-05
-2.37944e-05
6.68333e-05
-2.12604e-05
7.80642e-05
-1.8287e-05
9.1501e-05
-1.4784e-05
0.000106754
-1.06619e-05
0.000124753
-5.80987e-06
0.000145669
-9.10753e-08
0.000169905
6.65554e-06
0.000197939
1.46029e-05
0.000230711
2.39616e-05
0.000268766
3.49685e-05
0.000312765
4.78974e-05
0.00036367
6.30407e-05
0.000422253
8.0728e-05
0.00048901
0.000101308
0.000564019
0.000125103
0.000647147
0.000152391
0.000736441
0.000183308
0.00082801
0.000217722
0.000914528
0.000255004
0.00098301
0.00029372
0.0010121
0.000331063
0.000967799
0.0003623
0.000799693
0.000437235
0.000380088
-3.20207e-05
2.49399e-05
3.2825e-05
-3.10815e-05
2.92426e-05
-2.99736e-05
3.42896e-05
-2.86821e-05
4.02115e-05
-2.71618e-05
4.71107e-05
-2.53872e-05
5.52138e-05
-2.33039e-05
6.47537e-05
-2.08578e-05
7.56163e-05
-1.79878e-05
8.86316e-05
-1.46079e-05
0.000103372
-1.06309e-05
0.000120775
-5.94949e-06
0.000140986
-4.33053e-07
0.000164386
6.07382e-06
0.000191429
1.37391e-05
0.000223044
2.27614e-05
0.00025974
3.3378e-05
0.000302149
4.58417e-05
0.000351201
6.0443e-05
0.000407648
7.7498e-05
0.000471953
9.73424e-05
0.000544174
0.00012029
0.000624203
0.000146608
0.000710131
0.000176432
0.0007982
0.000209636
0.000881348
0.000245615
0.000947072
0.000282983
0.000974798
0.000319041
0.000931844
0.000349226
0.000769682
0.000420468
0.000366454
-3.12067e-05
2.41669e-05
3.19936e-05
-3.03057e-05
2.83358e-05
-2.9241e-05
3.32263e-05
-2.8001e-05
3.8965e-05
-2.65399e-05
4.56483e-05
-2.48306e-05
5.34991e-05
-2.28236e-05
6.27449e-05
-2.04629e-05
7.32521e-05
-1.76936e-05
8.5861e-05
-1.4431e-05
0.000100107
-1.05931e-05
0.000116935
-6.07668e-06
0.000136467
-7.55188e-07
0.000159063
5.52094e-06
0.000185152
1.29124e-05
0.00021565
2.16142e-05
0.000251037
3.18484e-05
0.000291909
4.38689e-05
0.000339182
5.79479e-05
0.000393566
7.43941e-05
0.000455504
9.35308e-05
0.00052503
0.000115662
0.000602063
0.000141047
0.000684732
0.000169819
0.000769409
0.000201857
0.000849281
0.000236581
0.000912311
0.000272649
0.000938669
0.000307464
0.000896929
0.000336624
0.000740329
0.000403343
0.000353279
-3.04524e-05
2.34203e-05
3.12012e-05
-2.95789e-05
2.74604e-05
-2.85482e-05
3.22002e-05
-2.73462e-05
3.77629e-05
-2.59314e-05
4.42386e-05
-2.42792e-05
5.18466e-05
-2.23401e-05
6.0809e-05
-2.00626e-05
7.09732e-05
-1.73908e-05
8.31899e-05
-1.42443e-05
9.6959e-05
-1.05428e-05
0.000113233
-6.18646e-06
0.000132109
-1.05408e-06
0.000153929
4.9981e-06
0.000179097
1.21264e-05
0.00020852
2.05157e-05
0.000242644
3.03878e-05
0.000282039
4.19756e-05
0.000327587
5.5553e-05
0.000379987
7.14117e-05
0.000439643
8.98676e-05
0.000506576
0.000111213
0.000580722
0.0001357
0.000660254
0.000163458
0.000741666
0.000194372
0.000818392
0.000227885
0.00087884
0.000262699
0.000903921
0.00029631
0.000863418
0.000324473
0.000712341
0.000387711
0.000340553
-2.96558e-05
2.27025e-05
3.03884e-05
-2.88182e-05
2.66182e-05
-2.78282e-05
3.12124e-05
-2.66749e-05
3.66045e-05
-2.53161e-05
4.28792e-05
-2.37258e-05
5.02522e-05
-2.18587e-05
5.89408e-05
-1.96622e-05
6.87742e-05
-1.70855e-05
8.06125e-05
-1.40501e-05
9.3922e-05
-1.04797e-05
0.000109661
-6.27843e-06
0.000127906
-1.32875e-06
0.000148978
4.50767e-06
0.000173259
1.13805e-05
0.000201645
1.94722e-05
0.000234552
2.89875e-05
0.000272518
4.01644e-05
0.000316412
5.32562e-05
0.000366894
6.85496e-05
0.000424346
8.6349e-05
0.000488772
0.000106937
0.000560125
0.000130558
0.000636621
0.000157339
0.000714866
0.00018717
0.000788535
0.000219514
0.000846459
0.000253117
0.000870264
0.000285564
0.000830877
0.000312757
0.000684976
0.00037177
0.000328261
-2.89112e-05
2.20097e-05
2.96086e-05
-2.80997e-05
2.58056e-05
-2.71418e-05
3.02596e-05
-2.60246e-05
3.54879e-05
-2.47097e-05
4.15696e-05
-2.31738e-05
4.87166e-05
-2.13711e-05
5.71416e-05
-1.92535e-05
6.66559e-05
-1.67692e-05
7.81291e-05
-1.38433e-05
9.09947e-05
-1.04012e-05
0.000106218
-6.35018e-06
0.000123854
-1.57782e-06
0.000144204
4.04943e-06
0.00016763
1.06771e-05
0.000195016
1.8477e-05
0.000226749
2.7655e-05
0.000263342
3.84298e-05
0.000305633
5.10541e-05
0.000354267
6.58028e-05
0.000409597
8.29685e-05
0.000471608
0.000102826
0.000540273
0.000125613
0.000613845
0.000151451
0.000689044
0.000180238
0.000759775
0.000211454
0.000815286
0.000243888
0.000837895
0.000275208
0.000799656
0.000301458
0.000658893
0.000357273
0.000316396
-2.8128e-05
2.13435e-05
2.88099e-05
-2.73506e-05
2.50239e-05
-2.64313e-05
2.93424e-05
-2.53602e-05
3.44122e-05
-2.40982e-05
4.0307e-05
-2.26207e-05
4.72354e-05
-2.0886e-05
5.54057e-05
-1.88446e-05
6.46123e-05
-1.64499e-05
7.57336e-05
-1.36282e-05
8.81717e-05
-1.03091e-05
0.000102898
-6.40336e-06
0.000119947
-1.80193e-06
0.000139601
3.62384e-06
0.000162203
1.00131e-05
0.000188625
1.75348e-05
0.000219227
2.63811e-05
0.00025449
3.67727e-05
0.000295243
4.89454e-05
0.000342092
6.3168e-05
0.000395373
7.97227e-05
0.000455048
9.88764e-05
0.000521113
0.000120857
0.000591851
0.000145787
0.000664098
0.000173565
0.00073197
0.000203692
0.000785126
0.000234996
0.00080654
0.000265227
0.000769341
0.000290562
0.0006334
0.000342494
0.000304944
-2.73989e-05
2.07004e-05
2.80476e-05
-2.66455e-05
2.42695e-05
-2.5756e-05
2.84579e-05
-2.47186e-05
3.33754e-05
-2.34975e-05
3.90908e-05
-2.20708e-05
4.58092e-05
-2.03964e-05
5.37343e-05
-1.84287e-05
6.26443e-05
-1.61204e-05
7.34261e-05
-1.34012e-05
8.54516e-05
-1.02024e-05
9.96988e-05
-6.43723e-06
0.000116181
-2.00142e-06
0.000135164
3.22885e-06
0.000156971
9.38897e-06
0.000182463
1.66389e-05
0.000211974
2.51711e-05
0.000245961
3.51873e-05
0.000285222
4.69256e-05
0.000330354
6.06397e-05
0.000381659
7.66052e-05
0.000439086
9.50787e-05
0.000502646
0.000116283
0.000570659
0.000140335
0.000640064
0.00016714
0.000705193
0.000196216
0.000756093
0.000226429
0.000776392
0.000255607
0.000740257
0.000280056
0.000609117
0.000329068
0.000293899
-2.66385e-05
2.00821e-05
2.72723e-05
-2.59165e-05
2.35438e-05
-2.50621e-05
2.76065e-05
-2.40671e-05
3.23767e-05
-2.28946e-05
3.79185e-05
-2.1522e-05
4.44339e-05
-1.99104e-05
5.21223e-05
-1.80139e-05
6.07464e-05
-1.5789e-05
7.12011e-05
-1.31675e-05
8.28292e-05
-1.00837e-05
9.66145e-05
-6.45442e-06
0.000112551
-2.17834e-06
0.000130887
2.8638e-06
0.000151928
8.80148e-06
0.000176524
1.57928e-05
0.000204983
2.40149e-05
0.000237734
3.36746e-05
0.000275565
4.49915e-05
0.000319037
5.82153e-05
0.000368433
7.36118e-05
0.000423687
9.14288e-05
0.000484821
0.000111883
0.000550194
0.000135089
0.00061684
0.000160955
0.000679303
0.000189015
0.000727998
0.000218175
0.000747187
0.000246335
0.00071202
0.000269927
0.000585386
0.000315388
0.000283246
-2.5927e-05
1.94851e-05
2.65315e-05
-2.52275e-05
2.28436e-05
-2.4401e-05
2.67854e-05
-2.34377e-05
3.14143e-05
-2.23035e-05
3.67895e-05
-2.09785e-05
4.31097e-05
-1.94231e-05
5.05703e-05
-1.75956e-05
5.89188e-05
-1.54514e-05
6.90579e-05
-1.29255e-05
8.03027e-05
-9.95367e-06
9.36422e-05
-6.45552e-06
0.000109052
-2.334e-06
0.000126764
2.52605e-06
0.000147067
8.25056e-06
0.000170798
1.49883e-05
0.000198243
2.29173e-05
0.000229807
3.22275e-05
0.000266251
4.31384e-05
0.000308125
5.58893e-05
0.000355683
7.07357e-05
0.000408843
8.79196e-05
0.000467645
0.00010765
0.000530476
0.000130039
0.00059447
0.000154998
0.000654371
0.00018208
0.000700959
0.000210222
0.000719107
0.000237399
0.000684936
0.000260162
0.000562777
0.000302977
0.00027298
-2.51934e-05
1.89108e-05
2.57834e-05
-2.4523e-05
2.21697e-05
-2.37289e-05
2.59946e-05
-2.28048e-05
3.04868e-05
-2.17154e-05
3.57008e-05
-2.04406e-05
4.18325e-05
-1.89435e-05
4.90732e-05
-1.7182e-05
5.71561e-05
-1.51154e-05
6.69913e-05
-1.26802e-05
7.78669e-05
-9.81539e-06
9.07771e-05
-6.44368e-06
0.000105679
-2.47081e-06
0.00012279
2.21424e-06
0.000142381
7.73193e-06
0.00016528
1.42279e-05
0.000191747
2.18686e-05
0.000222163
3.08458e-05
0.000257278
4.13641e-05
0.000297606
5.3658e-05
0.000343389
6.79737e-05
0.000394524
8.45462e-05
0.000451067
0.000103578
0.000511432
0.000125178
0.000572854
0.000149263
0.00063026
0.000175399
0.000674792
0.00020256
0.000691903
0.000228788
0.00065864
0.000250751
0.00054069
0.000290326
0.000263084
-2.45091e-05
1.83563e-05
2.50724e-05
-2.38593e-05
2.15192e-05
-2.3091e-05
2.52319e-05
-2.21963e-05
2.95927e-05
-2.11424e-05
3.4652e-05
-1.99117e-05
4.06024e-05
-1.84667e-05
4.76315e-05
-1.67691e-05
5.54584e-05
-1.47771e-05
6.50004e-05
-1.24306e-05
7.55198e-05
-9.6698e-06
8.80159e-05
-6.4199e-06
0.000102429
-2.59038e-06
0.00011896
1.92559e-06
0.000137864
7.2446e-06
0.00015996
1.3505e-05
0.000185485
2.08729e-05
0.000214798
2.95223e-05
0.000248621
3.96635e-05
0.000287466
5.15155e-05
0.000331538
6.53196e-05
0.000380724
8.13017e-05
0.000435092
9.96597e-05
0.000493087
0.0001205
0.000552033
0.000143741
0.000607046
0.000168966
0.000649609
0.000195179
0.00066575
0.000220492
0.000633415
0.000241683
0.000519649
0.000278827
0.000253553
-2.38107e-05
1.78226e-05
2.43595e-05
-2.31877e-05
2.08929e-05
-2.24487e-05
2.44971e-05
-2.15896e-05
2.87309e-05
-2.05764e-05
3.36406e-05
-1.93917e-05
3.94159e-05
-1.80001e-05
4.62407e-05
-1.63636e-05
5.3821e-05
-1.44432e-05
6.30805e-05
-1.2181e-05
7.32569e-05
-9.5195e-06
8.53541e-05
-6.38658e-06
9.92953e-05
-2.69508e-06
0.000115268
1.6584e-06
0.00013351
6.7857e-06
0.000154833
1.28211e-05
0.000179449
1.99179e-05
0.000207693
2.82592e-05
0.000240283
3.80335e-05
0.000277689
4.94598e-05
0.000320109
6.27698e-05
0.000367411
7.81822e-05
0.000419672
9.58904e-05
0.000475369
0.000115997
0.000531909
0.000138425
0.000584593
0.000162771
0.000625232
0.000188071
0.00064041
0.000212499
0.000608926
0.000232947
0.000499097
0.000267124
0.000244371
-2.3155e-05
1.73073e-05
2.36804e-05
-2.25515e-05
2.02885e-05
-2.18367e-05
2.37884e-05
-2.10057e-05
2.79002e-05
-2.00257e-05
3.2666e-05
-1.88826e-05
3.82728e-05
-1.75394e-05
4.4901e-05
-1.59622e-05
5.22434e-05
-1.4111e-05
6.12304e-05
-1.19307e-05
7.1076e-05
-9.36512e-06
8.27884e-05
-6.34512e-06
9.62748e-05
-2.78658e-06
0.000111708
1.4108e-06
0.000129313
6.35177e-06
0.000149888
1.21678e-05
0.000173629
1.90121e-05
0.000200849
2.70477e-05
0.000232236
3.64703e-05
0.000268264
4.74858e-05
0.000309095
6.03183e-05
0.000354582
7.51819e-05
0.000404817
9.22633e-05
0.000458302
0.000111663
0.000512528
0.000133308
0.000562976
0.000156806
0.000601775
0.000181226
0.000616048
0.000204802
0.000585434
0.000224532
0.000479503
0.00025648
0.000235531
-2.24933e-05
1.68111e-05
2.30037e-05
-2.1915e-05
1.97062e-05
-2.12275e-05
2.31051e-05
-2.04295e-05
2.70988e-05
-1.94871e-05
3.17256e-05
-1.83862e-05
3.71696e-05
-1.70921e-05
4.36077e-05
-1.55711e-05
5.07211e-05
-1.37857e-05
5.94455e-05
-1.16832e-05
6.89725e-05
-9.20913e-06
8.03142e-05
-6.29773e-06
9.33623e-05
-2.86642e-06
0.000108277
1.17764e-06
0.000125266
5.94291e-06
0.000145124
1.15489e-05
0.00016802
1.81415e-05
0.000194246
2.5891e-05
0.000224491
3.49718e-05
0.00025918
4.55906e-05
0.000298475
5.79627e-05
0.000342206
7.2297e-05
0.000390477
8.87742e-05
0.000441812
0.000107494
0.000493792
0.000128384
0.000542059
0.000151066
0.000579062
0.000174636
0.000592439
0.00019739
0.00056263
0.000216428
0.000460377
0.000245659
0.000227018
-2.1872e-05
1.63322e-05
2.23606e-05
-2.13123e-05
1.91442e-05
-2.06473e-05
2.2446e-05
-1.98755e-05
2.6326e-05
-1.89635e-05
3.0819e-05
-1.79009e-05
3.61062e-05
-1.6651e-05
4.23614e-05
-1.51847e-05
4.92537e-05
-1.3463e-05
5.77249e-05
-1.14361e-05
6.69447e-05
-9.05122e-06
7.7929e-05
-6.24407e-06
9.0555e-05
-2.93764e-06
0.000104969
9.63567e-07
0.000121367
5.55336e-06
0.000140531
1.09566e-05
0.000162615
1.73159e-05
0.000187892
2.47796e-05
0.000217017
3.35338e-05
0.000250427
4.3769e-05
0.00028824
5.56979e-05
0.000330281
6.95217e-05
0.000376662
8.54175e-05
0.000425931
0.000103482
0.000475747
0.000123646
0.000521922
0.000145541
0.000557206
0.000168294
0.000569742
0.000190255
0.000540745
0.000208627
0.000442137
0.000235776
0.000218825
-2.12489e-05
1.58707e-05
2.17245e-05
-2.07108e-05
1.86028e-05
-2.00681e-05
2.18108e-05
-1.93257e-05
2.55812e-05
-1.84471e-05
2.9945e-05
-1.74237e-05
3.50809e-05
-1.62191e-05
4.11596e-05
-1.48057e-05
4.78389e-05
-1.31453e-05
5.6066e-05
-1.11915e-05
6.49897e-05
-8.89203e-06
7.56295e-05
-6.18641e-06
8.78483e-05
-2.99809e-06
0.000101781
7.59095e-07
0.000117607
5.18627e-06
0.000136106
1.03953e-05
0.000157406
1.6519e-05
0.00018176
2.37177e-05
0.000209824
3.21533e-05
0.000241988
4.20194e-05
0.000278371
5.3521e-05
0.000318776
6.6853e-05
0.000363322
8.21892e-05
0.000410583
9.9623e-05
0.000458294
0.000119088
0.000502432
0.000140225
0.000536036
0.00016219
0.000547743
0.000183387
0.000519506
0.000201116
0.00042434
0.00022577
0.000210938
-2.06604e-05
1.54253e-05
2.11171e-05
-2.0139e-05
1.80801e-05
-1.95192e-05
2.11978e-05
-1.88009e-05
2.48625e-05
-1.79516e-05
2.91019e-05
-1.69635e-05
3.40922e-05
-1.58003e-05
4.00007e-05
-1.44372e-05
4.64748e-05
-1.28358e-05
5.44664e-05
-1.09516e-05
6.31046e-05
-8.73466e-06
7.34124e-05
-6.12564e-06
8.52391e-05
-3.05321e-06
9.87067e-05
5.71104e-07
0.000113985
4.83553e-06
0.000131838
9.85538e-06
0.000152385
1.57623e-05
0.000175857
2.26954e-05
0.000202882
3.08268e-05
0.000233856
4.03377e-05
0.000268861
5.1427e-05
0.000307691
6.42862e-05
0.000350472
7.90838e-05
0.000395801
9.59115e-05
0.000441487
0.000114704
0.000483667
0.000135113
0.000515664
0.000156318
0.00052659
0.000176778
0.00049912
0.000193887
0.000407343
0.000216607
0.000203348
-2.00772e-05
1.49963e-05
2.05197e-05
-1.95771e-05
1.75766e-05
-1.89782e-05
2.0607e-05
-1.82874e-05
2.41696e-05
-1.74684e-05
2.82887e-05
-1.65159e-05
3.31382e-05
-1.53937e-05
3.88826e-05
-1.40787e-05
4.51587e-05
-1.25335e-05
5.29235e-05
-1.07166e-05
6.12867e-05
-8.57844e-06
7.12746e-05
-6.06345e-06
8.27233e-05
-3.10058e-06
9.57435e-05
3.90287e-07
0.000110491
4.50385e-06
0.000127728
9.34221e-06
0.000147546
1.50307e-05
0.000170162
2.17173e-05
0.000196202
2.9553e-05
0.000226017
3.87215e-05
0.000259691
4.94141e-05
0.000296992
6.18185e-05
0.00033806
7.6098e-05
0.000381507
9.23433e-05
0.000425223
0.000110489
0.000465492
0.000130196
0.000495924
0.00015067
0.000506084
0.000170419
0.000479338
0.000186931
0.000390783
0.000207359
0.000196045
-1.95242e-05
1.45818e-05
1.99497e-05
-1.90389e-05
1.70903e-05
-1.84596e-05
2.00367e-05
-1.77909e-05
2.35011e-05
-1.69983e-05
2.75048e-05
-1.60789e-05
3.22188e-05
-1.49953e-05
3.7805e-05
-1.37277e-05
4.38903e-05
-1.22376e-05
5.14361e-05
-1.04859e-05
5.95342e-05
-8.42471e-06
6.92135e-05
-5.99958e-06
8.02979e-05
-3.14439e-06
9.28868e-05
2.23547e-07
0.000107125
4.18489e-06
0.000123763
8.84814e-06
0.000142883
1.43356e-05
0.000164681
2.07742e-05
0.000189752
2.83288e-05
0.000218463
3.71668e-05
0.000250853
4.74783e-05
0.000286686
5.94449e-05
0.000326104
7.32274e-05
0.000367741
8.8913e-05
0.00040956
0.000106437
0.000447995
0.00012547
0.000476928
0.000145239
0.000486366
0.000164302
0.000460339
0.000180238
0.000374954
0.000198827
0.000189018
-1.8977e-05
1.41818e-05
1.93871e-05
-1.85107e-05
1.66208e-05
-1.79537e-05
1.94858e-05
-1.73093e-05
2.28551e-05
-1.65467e-05
2.6747e-05
-1.56594e-05
3.13302e-05
-1.46146e-05
3.67637e-05
-1.33908e-05
4.26652e-05
-1.19528e-05
5.00003e-05
-1.02629e-05
5.7843e-05
-8.27444e-06
6.72253e-05
-5.93619e-06
7.79587e-05
-3.18222e-06
9.01323e-05
6.15685e-08
0.000103879
3.88323e-06
0.000119945
8.37846e-06
0.000138388
1.36615e-05
0.00015939
1.98726e-05
0.000183548
2.71523e-05
0.00021118
3.56727e-05
0.000242328
4.56177e-05
0.000276736
5.71635e-05
0.000314547
7.04687e-05
0.000354422
8.56167e-05
0.00039439
0.000102544
0.000431039
0.000120927
0.00045851
0.000140016
0.000467247
0.000158418
0.000441913
0.000173797
0.000359549
0.00019028
0.000182257
-1.84571e-05
1.37961e-05
1.88538e-05
-1.80054e-05
1.61683e-05
-1.74658e-05
1.8955e-05
-1.68431e-05
2.22328e-05
-1.6105e-05
2.60171e-05
-1.52491e-05
3.04742e-05
-1.42401e-05
3.57606e-05
-1.30604e-05
4.14846e-05
-1.16735e-05
4.8616e-05
-1.00439e-05
5.62124e-05
-8.12668e-06
6.53081e-05
-5.87159e-06
7.57033e-05
-3.21739e-06
8.74765e-05
-8.76874e-08
0.00010075
3.59306e-06
0.000116261
7.9252e-06
0.000134056
1.30217e-05
0.000154298
1.90027e-05
0.000177556
2.60207e-05
0.00020416
3.42361e-05
0.000234114
4.38279e-05
0.000267149
5.49706e-05
0.000303415
6.78175e-05
0.000341593
8.24502e-05
0.00037978
9.88037e-05
0.000414713
0.000116562
0.000440788
0.000134997
0.00044886
0.00015276
0.00042421
0.000167601
0.000344793
0.000182355
0.000175752
-1.79442e-05
1.3424e-05
1.83276e-05
-1.75102e-05
1.57314e-05
-1.69905e-05
1.84424e-05
-1.63906e-05
2.16317e-05
-1.56796e-05
2.5312e-05
-1.48537e-05
2.96473e-05
-1.38804e-05
3.47915e-05
-1.27416e-05
4.03447e-05
-1.14031e-05
4.728e-05
-9.83109e-06
5.46392e-05
-7.98158e-06
6.34588e-05
-5.80724e-06
7.3528e-05
-3.24713e-06
8.49157e-05
-2.32529e-07
9.7733e-05
3.31884e-06
0.000112714
7.49376e-06
0.00012988
1.24011e-05
0.000149384
1.81707e-05
0.000171794
2.49338e-05
0.000197392
3.28556e-05
0.000226188
4.21083e-05
0.000257888
5.28639e-05
0.00029265
6.52712e-05
0.000329169
7.94095e-05
0.00036562
9.52117e-05
0.000398879
0.000112368
0.000423597