/*--------------------------------*- C++ -*----------------------------------*\
  =========                 |
  \\      /  F ield         | OpenFOAM: The Open Source CFD Toolbox
   \\    /   O peration     | Website:  https://openfoam.org
    \\  /    A nd           | Version:  6.0
     \\/     M anipulation  |
\*---------------------------------------------------------------------------*/
FoamFile
{
    version     2.0;
    format      ascii;
    class       volVectorField;
    location    "15";
    object      U;
}
// * * * * * * * * * * * * * * * * * * * * * * * * * * * * * * * * * * * * * //

dimensions      [0 1 -1 0 0 0 0];

internalField   nonuniform List<vector> 
15500
(
(0.996185 0.0875345 -1.00805e-20)
(0.996184 0.087539 1.14655e-21)
(0.996182 0.0875427 2.39939e-20)
(0.99618 0.0875441 6.28365e-20)
(0.996179 0.0875461 -1.18065e-19)
(0.996177 0.0875466 -2.25948e-20)
(0.996175 0.0875475 1.69406e-19)
(0.996173 0.087547 1.34312e-20)
(0.99617 0.0875469 6.18961e-21)
(0.996168 0.0875452 -1.36887e-19)
(0.996165 0.0875434 3.72565e-19)
(0.996161 0.0875404 -2.7426e-19)
(0.996156 0.0875378 -1.99015e-20)
(0.99615 0.0875362 -2.70788e-19)
(0.99614 0.0875345 1.72236e-19)
(0.996125 0.0875311 -2.73992e-19)
(0.996103 0.0875238 6.62895e-19)
(0.99607 0.0875104 -8.96456e-19)
(0.996022 0.0874867 3.829e-19)
(0.995953 0.0874436 -1.33802e-18)
(0.995854 0.0873678 1.60612e-18)
(0.995715 0.0872391 4.43277e-19)
(0.995525 0.0870276 -2.87838e-19)
(0.995274 0.0866908 -3.88153e-18)
(0.994961 0.0861713 7.12694e-18)
(0.994608 0.0854008 3.43814e-18)
(0.994268 0.0842614 -3.14462e-18)
(0.994023 0.0826206 -3.66645e-18)
(0.994087 0.0795496 -5.79862e-18)
(0.986983 0.07127 7.41175e-18)
(0.9962 0.0882164 -1.19452e-20)
(0.996199 0.0882272 3.95565e-20)
(0.996196 0.088236 -1.16174e-20)
(0.996191 0.0882405 4.25388e-20)
(0.996185 0.0882458 -1.41628e-19)
(0.996178 0.0882478 -1.08654e-19)
(0.996171 0.0882505 2.8873e-20)
(0.996162 0.0882504 -1.5883e-19)
(0.996153 0.0882514 2.87029e-19)
(0.996142 0.0882497 -1.00665e-19)
(0.996131 0.0882487 9.1657e-20)
(0.996117 0.0882462 1.79691e-19)
(0.996101 0.0882445 -8.13338e-20)
(0.99608 0.0882418 4.73577e-20)
(0.99605 0.0882365 -6.41062e-20)
(0.99601 0.0882233 -1.92378e-19)
(0.995955 0.0881972 4.79211e-19)
(0.995881 0.0881511 -6.91529e-20)
(0.995776 0.0880748 9.51147e-19)
(0.995633 0.0879507 1.84066e-18)
(0.99544 0.0877532 -1.53811e-18)
(0.995183 0.0874459 9.3594e-19)
(0.994845 0.0869774 -1.56736e-18)
(0.994422 0.0862803 -5.06498e-19)
(0.993927 0.0852721 -5.00345e-18)
(0.99341 0.0838884 -1.58411e-19)
(0.992973 0.0819613 4.0011e-19)
(0.992628 0.0794375 1.32018e-18)
(0.993243 0.0748808 1.4189e-17)
(0.986008 0.0656014 4.42516e-19)
(0.996186 0.0888679 3.23511e-20)
(0.99619 0.0888838 -3.10379e-20)
(0.996191 0.0888919 -1.91409e-20)
(0.996188 0.0888947 -5.87299e-20)
(0.996183 0.0888975 1.17261e-19)
(0.996174 0.0888963 -1.68247e-19)
(0.996163 0.0888949 1.03825e-19)
(0.99615 0.0888896 8.02183e-20)
(0.996133 0.0888847 -4.6578e-20)
(0.996115 0.0888754 -1.57923e-19)
(0.996093 0.0888661 5.98155e-20)
(0.996068 0.0888537 2.25517e-19)
(0.996039 0.0888399 -1.13598e-19)
(0.996001 0.0888194 1.28313e-19)
(0.995955 0.0887908 -2.76742e-19)
(0.995897 0.0887475 4.2317e-19)
(0.995826 0.0886835 -7.00911e-19)
(0.995737 0.0885906 5.69347e-19)
(0.995621 0.0884569 -1.15162e-18)
(0.995475 0.0882639 8.62422e-19)
(0.995289 0.0879866 8.8187e-19)
(0.995051 0.0875902 -1.1005e-18)
(0.994753 0.0870245 2.69634e-18)
(0.9944 0.0862275 -3.50212e-19)
(0.994021 0.0851291 -3.49627e-18)
(0.993673 0.0837286 -4.50718e-18)
(0.993474 0.0819041 -7.5783e-18)
(0.993236 0.0797699 2.64399e-18)
(0.994458 0.0763063 -9.81273e-18)
(0.989811 0.0716773 -1.04585e-17)
(0.996106 0.0895121 -1.16018e-20)
(0.996117 0.0895241 4.96613e-20)
(0.996124 0.0895319 -2.22464e-20)
(0.996126 0.0895332 -1.73066e-20)
(0.996125 0.0895351 -4.29189e-20)
(0.996119 0.0895318 -1.40887e-19)
(0.996108 0.0895263 1.06753e-19)
(0.996092 0.089515 9.52195e-20)
(0.996072 0.0895013 -4.80387e-20)
(0.996047 0.0894804 7.44263e-20)
(0.996018 0.089457 -3.55594e-20)
(0.995982 0.0894277 2.66361e-20)
(0.995938 0.0893942 -2.3962e-20)
(0.995884 0.0893482 1.90025e-21)
(0.99582 0.0892891 -3.71304e-19)
(0.995745 0.0892088 7.82923e-19)
(0.995658 0.0891007 -7.16717e-19)
(0.995557 0.0889565 2.61926e-19)
(0.995434 0.0887635 1.17571e-18)
(0.995288 0.0885037 -1.14387e-18)
(0.995109 0.0881524 -4.91305e-19)
(0.994889 0.0876747 1.56078e-18)
(0.99462 0.0870183 -1.1383e-18)
(0.994312 0.0861204 -1.03696e-18)
(0.994002 0.084906 1.04234e-17)
(0.993746 0.0834079 4.56394e-18)
(0.993689 0.0815206 4.70169e-18)
(0.99348 0.0793881 -3.43807e-18)
(0.995053 0.0764075 3.93137e-18)
(0.991785 0.0728208 4.12276e-18)
(0.995962 0.0902514 -8.22247e-21)
(0.995978 0.0902511 -3.15184e-20)
(0.995989 0.0902435 2.89685e-20)
(0.995996 0.0902306 1.36248e-19)
(0.995999 0.090218 -1.4798e-19)
(0.995996 0.0902023 -1.88699e-20)
(0.995988 0.0901847 8.76286e-20)
(0.995973 0.0901616 -2.1394e-19)
(0.995952 0.0901358 -1.60016e-19)
(0.995923 0.0901012 4.47949e-19)
(0.995887 0.0900621 -2.56141e-19)
(0.995843 0.0900145 3.40304e-19)
(0.995786 0.0899598 -1.94045e-19)
(0.995715 0.0898882 2.40934e-19)
(0.995634 0.0897992 -4.23873e-20)
(0.995542 0.0896836 -4.16431e-20)
(0.995438 0.0895336 1.5883e-19)
(0.99532 0.0893401 -3.82571e-19)
(0.995184 0.0890901 -1.11121e-18)
(0.995025 0.0887651 4.44201e-19)
(0.994838 0.0883398 -7.62518e-19)
(0.994613 0.0877758 -6.50504e-19)
(0.994345 0.0870171 -1.57681e-19)
(0.994039 0.085995 8.03015e-18)
(0.993733 0.0846179 -3.17266e-18)
(0.993472 0.0829183 -8.24002e-18)
(0.993442 0.0807756 -5.00917e-18)
(0.993198 0.0782628 1.41836e-18)
(0.994889 0.0749995 -2.16262e-17)
(0.99287 0.0711551 -3.92951e-18)
(0.995779 0.0910109 1.69665e-20)
(0.995792 0.0909979 2.11617e-21)
(0.995803 0.0909796 -4.44104e-20)
(0.99581 0.0909558 -1.6775e-20)
(0.995814 0.0909314 -5.68748e-21)
(0.995813 0.0909037 2.83143e-19)
(0.995805 0.0908732 -1.43699e-19)
(0.995791 0.0908371 -7.61282e-21)
(0.995769 0.0907971 -4.99405e-21)
(0.995739 0.0907475 -2.41806e-20)
(0.9957 0.0906915 -1.40384e-19)
(0.995649 0.0906249 1.1511e-19)
(0.995582 0.0905486 5.48761e-19)
(0.995497 0.0904516 5.1267e-20)
(0.9954 0.0903335 -1.00102e-19)
(0.995293 0.0901835 -4.02635e-19)
(0.995175 0.0899938 4.68272e-19)
(0.995044 0.0897533 -2.78629e-19)
(0.994896 0.0894487 6.20598e-19)
(0.994731 0.0890625 -9.70331e-20)
(0.994544 0.0885699 1.33595e-18)
(0.994333 0.0879334 -2.77147e-19)
(0.994094 0.0871 -1.53089e-18)
(0.993829 0.0860043 -8.38639e-18)
(0.993575 0.0845487 -3.66597e-18)
(0.993353 0.0827619 8.09635e-18)
(0.993372 0.0805115 1.12173e-18)
(0.993125 0.0777805 8.46788e-18)
(0.994796 0.0742873 2.719e-17)
(0.994303 0.0710338 1.00441e-17)
(0.995585 0.0917861 -1.2048e-21)
(0.995588 0.0917681 -2.54485e-20)
(0.995592 0.0917366 -8.68007e-21)
(0.995595 0.0917001 2.37485e-20)
(0.995594 0.0916609 -4.72355e-20)
(0.995589 0.0916186 -4.71456e-20)
(0.995579 0.0915736 8.2789e-20)
(0.995563 0.0915234 1.80307e-19)
(0.995538 0.0914695 -1.70691e-19)
(0.995504 0.0914057 2.08975e-19)
(0.995461 0.0913344 -4.28314e-19)
(0.995404 0.0912502 1.07738e-19)
(0.995328 0.0911529 -2.08241e-19)
(0.995231 0.0910309 3.6907e-19)
(0.995121 0.0908834 -1.19632e-19)
(0.995 0.0906991 -7.81171e-20)
(0.994869 0.0904693 2.74309e-19)
(0.994728 0.0901816 -5.52983e-19)
(0.994573 0.0898227 4.98462e-19)
(0.994408 0.089376 1.65165e-19)
(0.994235 0.0888197 -1.20756e-18)
(0.994059 0.0881222 -5.39711e-19)
(0.993885 0.0872407 1.40821e-18)
(0.993716 0.0861258 2.30358e-18)
(0.993585 0.0846892 2.53843e-18)
(0.993483 0.0829678 -7.29778e-19)
(0.993618 0.0808303 5.01161e-18)
(0.993434 0.0781732 -7.45949e-18)
(0.995002 0.0747362 -1.9642e-17)
(0.995738 0.0721685 -2.19931e-18)
(0.9954 0.092485 -6.26172e-21)
(0.995387 0.0924719 2.22828e-20)
(0.995378 0.0924445 2.85113e-20)
(0.995369 0.09241 -2.66742e-20)
(0.995359 0.0923704 -7.22216e-20)
(0.995346 0.0923238 -1.99044e-22)
(0.995328 0.0922717 2.04401e-19)
(0.995304 0.0922123 -2.98302e-19)
(0.995273 0.0921471 1.86793e-19)
(0.995233 0.0920708 2.85208e-19)
(0.995182 0.0919849 -4.23767e-19)
(0.995117 0.0918846 -6.72413e-20)
(0.995032 0.0917671 -7.34451e-20)
(0.994922 0.0916205 9.44271e-20)
(0.994797 0.0914441 -4.25306e-19)
(0.994661 0.0912252 4.48035e-19)
(0.994514 0.0909552 1.01282e-19)
(0.994358 0.0906195 -4.13416e-19)
(0.994191 0.0902034 6.27355e-20)
(0.994019 0.0896916 1.67851e-19)
(0.99385 0.089065 8.41758e-19)
(0.993702 0.0882984 -9.74176e-19)
(0.993586 0.0873614 1.41888e-18)
(0.993514 0.0862251 4.03733e-18)
(0.993519 0.0848188 -1.0213e-18)
(0.993567 0.0831945 -8.70916e-18)
(0.993844 0.0812311 -4.79762e-18)
(0.99378 0.0787378 2.99199e-18)
(0.995231 0.0754319 1.27968e-18)
(0.996499 0.0727793 7.18224e-18)
(0.995219 0.0931577 1.23053e-20)
(0.995192 0.0931556 -7.61787e-21)
(0.995168 0.0931318 3.3306e-20)
(0.995145 0.0931004 5.93965e-21)
(0.995122 0.0930616 6.25886e-20)
(0.995096 0.0930138 -1.61831e-19)
(0.995066 0.0929584 1.26701e-19)
(0.995031 0.0928939 4.27686e-20)
(0.994989 0.0928218 -1.6878e-19)
(0.994937 0.0927368 1.92431e-20)
(0.994874 0.0926402 3.60212e-19)
(0.994797 0.0925268 -3.29342e-19)
(0.994699 0.0923915 2.41447e-19)
(0.994573 0.0922224 -1.47152e-19)
(0.994429 0.092019 -5.03851e-20)
(0.994272 0.0917671 2.41739e-19)
(0.994102 0.0914573 4.15568e-19)
(0.993919 0.0910733 5.2839e-19)
(0.993725 0.0905983 -3.45567e-19)
(0.993526 0.090015 -8.57333e-19)
(0.993337 0.0893055 -1.15082e-18)
(0.993179 0.0884479 -1.09655e-18)
(0.993079 0.0874207 -6.36916e-19)
(0.993055 0.0862111 2.30445e-18)
(0.993151 0.0847659 1.26215e-18)
(0.993316 0.0831501 1.82816e-18)
(0.993722 0.0812607 2.31603e-18)
(0.993821 0.0788242 -5.38585e-18)
(0.995224 0.0755265 5.68137e-18)
(0.996456 0.0721124 -2.35915e-18)
(0.995027 0.09377 -2.18008e-20)
(0.994992 0.0937813 4.6229e-20)
(0.994957 0.0937744 -1.7215e-20)
(0.994922 0.0937581 -5.98732e-21)
(0.994884 0.0937328 4.7073e-20)
(0.994844 0.0936941 -1.2311e-19)
(0.9948 0.0936439 1.29757e-19)
(0.994749 0.0935808 1.12108e-19)
(0.994692 0.093506 -1.63888e-19)
(0.994624 0.0934156 6.87605e-20)
(0.994544 0.0933102 2.4675e-19)
(0.994449 0.0931857 -4.21043e-19)
(0.994333 0.0930351 -9.82489e-20)
(0.994187 0.0928457 9.66864e-20)
(0.994018 0.0926177 6.04417e-20)
(0.993832 0.0923349 4.71436e-20)
(0.993628 0.0919885 -2.67245e-19)
(0.993407 0.091558 -5.54539e-19)
(0.993171 0.0910233 5.24442e-19)
(0.992922 0.0903649 1.13364e-19)
(0.992681 0.0895621 2.30481e-18)
(0.992473 0.0885919 -5.26651e-19)
(0.992336 0.0874357 -6.68534e-19)
(0.992297 0.0860884 -5.21105e-18)
(0.992419 0.0845086 -5.3788e-19)
(0.992651 0.0827702 8.23945e-19)
(0.993158 0.0807952 -4.66953e-18)
(0.993463 0.0782475 9.62695e-18)
(0.99494 0.0747976 1.39968e-17)
(0.995918 0.0704461 -9.26573e-18)
(0.994802 0.094431 -1.5066e-20)
(0.994769 0.0944511 9.9717e-21)
(0.99473 0.0944498 6.99428e-20)
(0.994688 0.0944398 -9.51399e-20)
(0.994639 0.094421 1.23311e-19)
(0.994586 0.0943886 -2.30603e-20)
(0.994527 0.0943434 -5.99841e-20)
(0.99446 0.0942837 -1.90277e-19)
(0.994383 0.0942098 1.03041e-19)
(0.994295 0.0941173 8.41186e-20)
(0.994194 0.0940064 -1.10249e-21)
(0.994075 0.0938733 5.97592e-20)
(0.993935 0.0937097 -3.7248e-19)
(0.993763 0.0935026 2.06457e-19)
(0.993564 0.0932524 1.06748e-19)
(0.993343 0.0929422 -2.12427e-20)
(0.993097 0.0925618 4.84795e-19)
(0.992828 0.0920878 -3.43876e-20)
(0.992535 0.0914967 -6.16731e-19)
(0.992222 0.0907633 -4.74939e-19)
(0.991907 0.0898631 -3.14836e-19)
(0.99162 0.088768 4.79413e-19)
(0.991406 0.0874559 -5.48404e-20)
(0.991306 0.0859224 -1.28146e-18)
(0.991405 0.0841298 -5.83884e-18)
(0.991665 0.0821587 -1.11241e-18)
(0.992255 0.0799615 1.21357e-17)
(0.992805 0.0771738 -9.53852e-18)
(0.994489 0.0734715 1.01958e-17)
(0.995291 0.0683736 -1.29113e-17)
(0.994518 0.095126 9.31963e-21)
(0.994498 0.0951487 -2.37913e-20)
(0.994465 0.0951594 -1.19403e-20)
(0.994422 0.0951607 1.06012e-19)
(0.994368 0.0951535 -3.65031e-20)
(0.994306 0.0951306 -1.55642e-19)
(0.994233 0.0950923 1.09998e-19)
(0.994149 0.0950363 -2.40637e-19)
(0.994054 0.0949622 4.87741e-20)
(0.993943 0.0948666 5.84398e-20)
(0.993817 0.0947487 8.15128e-20)
(0.993671 0.0946064 -3.14286e-19)
(0.993503 0.09443 6.27942e-19)
(0.993299 0.0942061 -1.75985e-19)
(0.993066 0.0939353 -7.62524e-19)
(0.992804 0.0935996 5.31675e-19)
(0.992512 0.0931882 -1.23305e-19)
(0.99219 0.0926742 -4.69088e-19)
(0.991835 0.0920295 -3.61698e-19)
(0.991451 0.091225 1.94136e-19)
(0.991053 0.0902291 -1.7348e-19)
(0.990675 0.0890071 -1.67076e-19)
(0.990368 0.087529 3.66772e-18)
(0.990186 0.0857854 3.66233e-18)
(0.99024 0.0837369 -3.85784e-19)
(0.990515 0.0814688 -3.36059e-18)
(0.991188 0.0789699 -3.03299e-18)
(0.992014 0.0758806 3.25876e-18)
(0.994018 0.0719048 -4.37372e-18)
(0.994848 0.0663693 9.14808e-18)
(0.994144 0.0959797 -8.43437e-21)
(0.994148 0.0959983 -5.70235e-21)
(0.99413 0.0959999 1.34232e-20)
(0.994095 0.0959933 -3.29602e-20)
(0.994045 0.0959797 1.70851e-20)
(0.993979 0.0959528 6.30231e-20)
(0.993898 0.0959114 4.6559e-20)
(0.993801 0.095853 -7.60179e-20)
(0.993689 0.0957753 1.73352e-19)
(0.993557 0.0956746 -2.41004e-19)
(0.993405 0.0955488 2.22682e-19)
(0.99323 0.0953962 -3.37346e-19)
(0.993032 0.0952064 2.4917e-19)
(0.992795 0.0949661 -4.02738e-19)
(0.992523 0.094675 5.35954e-19)
(0.992219 0.0943149 2.21787e-19)
(0.99188 0.0938732 -9.31117e-19)
(0.991502 0.0933211 9.91269e-19)
(0.991086 0.0926271 -3.14038e-19)
(0.990631 0.0917552 -1.18401e-18)
(0.990152 0.0906686 1.99955e-19)
(0.989686 0.0893238 7.50194e-19)
(0.989289 0.0876819 -1.18378e-18)
(0.989029 0.0857242 -2.84811e-18)
(0.989041 0.0834079 5.72845e-18)
(0.98934 0.080821 6.43856e-18)
(0.99011 0.0779937 -5.3063e-18)
(0.991234 0.0745969 7.67751e-18)
(0.993631 0.0703805 -2.49788e-18)
(0.994708 0.0646808 8.55553e-18)
(0.993667 0.0969073 -5.59224e-21)
(0.9937 0.0969145 5.59327e-21)
(0.993705 0.0969155 -1.57375e-21)
(0.993687 0.0969078 9.072e-21)
(0.993647 0.0968935 -6.0089e-20)
(0.993585 0.0968643 3.90969e-20)
(0.993502 0.0968188 -1.04371e-19)
(0.993398 0.0967546 1.95391e-19)
(0.993273 0.0966685 -1.66683e-19)
(0.993123 0.0965579 4.27037e-20)
(0.992949 0.0964193 2.2765e-19)
(0.992746 0.0962529 2.62303e-20)
(0.992517 0.0960471 -2.37748e-20)
(0.992245 0.0957887 -2.8706e-19)
(0.991935 0.0954763 9.96128e-20)
(0.991589 0.0950898 -3.3491e-19)
(0.991202 0.0946182 6.92472e-19)
(0.990772 0.0940287 3.34393e-19)
(0.990297 0.0932854 -2.0896e-19)
(0.989776 0.0923491 8.28076e-19)
(0.989227 0.0911762 1.4993e-18)
(0.988684 0.0897146 -1.83741e-18)
(0.988212 0.0879166 -4.3676e-18)
(0.987892 0.0857525 7.71062e-19)
(0.987882 0.0831753 -1.72853e-18)
(0.988226 0.0802763 -1.45351e-18)
(0.989117 0.0771278 7.35311e-18)
(0.990551 0.0734501 -4.18749e-18)
(0.99338 0.0690477 -1.97401e-20)
(0.994859 0.0633708 8.05933e-18)
(0.99308 0.0980033 6.55458e-21)
(0.993146 0.0979974 1.39031e-20)
(0.993179 0.0979775 -5.40359e-22)
(0.993184 0.0979502 1.37689e-20)
(0.993161 0.0979172 -9.52239e-20)
(0.99311 0.0978723 7.46555e-20)
(0.993032 0.0978126 1.30897e-19)
(0.992926 0.0977358 -1.51488e-19)
(0.992793 0.0976374 -2.40633e-20)
(0.99263 0.0975139 -7.85427e-20)
(0.992437 0.0973604 3.12502e-19)
(0.99221 0.0971774 -1.10025e-19)
(0.991952 0.0969527 -1.40708e-19)
(0.991646 0.0966747 -5.37895e-20)
(0.991299 0.096338 2.63663e-19)
(0.990913 0.0959239 9.98829e-20)
(0.99048 0.0954194 -2.00394e-19)
(0.990001 0.0947902 -7.43852e-21)
(0.989472 0.0939979 -2.90549e-19)
(0.988894 0.0929968 -5.42941e-19)
(0.988284 0.0917389 -1.2681e-18)
(0.987681 0.0901646 2.30815e-18)
(0.987153 0.088217 2.20729e-18)
(0.986796 0.0858569 -2.00966e-21)
(0.986791 0.0830322 3.8147e-18)
(0.987209 0.0798403 -1.9732e-18)
(0.988245 0.0763926 -4.23355e-18)
(0.989998 0.0724724 -4.28137e-18)
(0.99327 0.0679366 -2.51059e-17)
(0.99523 0.062387 -1.34622e-17)
(0.992394 0.0991289 -2.37448e-21)
(0.992491 0.0991074 7.06423e-21)
(0.992552 0.0990845 1.35508e-22)
(0.992581 0.0990534 -7.39402e-20)
(0.992578 0.0990154 -7.85275e-22)
(0.992542 0.0989625 8.14002e-20)
(0.992475 0.0988919 -1.02944e-19)
(0.992373 0.0988018 1.55899e-19)
(0.992239 0.0986871 6.66999e-20)
(0.992068 0.0985459 4.62973e-21)
(0.991862 0.098372 -2.59898e-19)
(0.991616 0.0981683 1.35997e-19)
(0.991334 0.0979208 3.7731e-19)
(0.990996 0.0976199 -3.00379e-19)
(0.990614 0.0972564 2.1434e-19)
(0.990188 0.0968107 -2.28871e-19)
(0.989714 0.0962706 1.7429e-19)
(0.989189 0.0955985 -1.64323e-19)
(0.988611 0.0947522 7.28709e-19)
(0.987983 0.0936837 3.10723e-19)
(0.987323 0.0923388 1.42102e-18)
(0.986673 0.0906519 -1.08633e-18)
(0.986108 0.0885577 -3.26635e-18)
(0.985738 0.0860087 9.90757e-19)
(0.985764 0.0829488 -6.14075e-18)
(0.986283 0.079484 7.85028e-18)
(0.98749 0.0757623 -5.87138e-18)
(0.989566 0.0716352 1.65606e-17)
(0.993279 0.0670097 6.14675e-18)
(0.995732 0.0616314 -4.70995e-18)
(0.991613 0.100399 4.76584e-21)
(0.991736 0.100367 2.85435e-21)
(0.991823 0.100319 -3.5959e-20)
(0.991877 0.100264 9.64991e-21)
(0.991897 0.100202 7.62516e-21)
(0.99188 0.100127 3.41781e-21)
(0.991826 0.100037 -1.85157e-20)
(0.991735 0.099928 1.69261e-19)
(0.991604 0.0997948 -2.53083e-19)
(0.991432 0.0996348 2.13649e-19)
(0.991219 0.0994402 -1.87099e-20)
(0.990959 0.0992144 -1.40001e-19)
(0.990658 0.0989419 1.75623e-19)
(0.990292 0.0986162 -2.88117e-19)
(0.989877 0.098223 1.01554e-19)
(0.989415 0.0977431 -2.08581e-19)
(0.988902 0.097162 5.11985e-19)
(0.988334 0.096442 4.92096e-19)
(0.987711 0.0955383 7.55437e-19)
(0.987038 0.0943962 -3.66274e-19)
(0.986335 0.092959 -1.51677e-18)
(0.985649 0.0911547 -3.8586e-19)
(0.985063 0.0889117 1.14366e-18)
(0.984698 0.0861747 2.98466e-18)
(0.984779 0.0828863 2.75127e-18)
(0.985423 0.0791625 -1.59302e-17)
(0.986823 0.0751877 3.85945e-18)
(0.989227 0.07088 -1.90136e-17)
(0.99337 0.0661965 1.6956e-17)
(0.996285 0.0609949 6.801e-18)
(0.990758 0.101626 1.81415e-21)
(0.9909 0.10158 -1.96348e-20)
(0.991009 0.101531 -1.26945e-20)
(0.991086 0.101475 3.49817e-20)
(0.991126 0.10141 -6.49275e-20)
(0.991129 0.101329 4.21011e-20)
(0.991092 0.101227 -8.34107e-20)
(0.991012 0.101103 -3.87491e-20)
(0.990891 0.100952 1.88402e-20)
(0.990722 0.100772 7.47959e-20)
(0.990506 0.100555 -1.94948e-21)
(0.990239 0.100305 8.52614e-20)
(0.989923 0.100006 6.62055e-20)
(0.989532 0.0996531 3.36757e-19)
(0.989087 0.099228 -5.51706e-20)
(0.988592 0.0987093 1.38077e-19)
(0.988041 0.0980845 -7.63702e-19)
(0.987432 0.097312 -3.08833e-19)
(0.986768 0.0963427 -9.31286e-19)
(0.986052 0.0951203 4.03482e-19)
(0.985311 0.0935829 1.20489e-18)
(0.984595 0.0916532 2.74894e-19)
(0.983998 0.0892545 6.86477e-19)
(0.983653 0.0863248 4.0455e-19)
(0.983806 0.0828078 3.77831e-18)
(0.984595 0.0788322 8.2093e-18)
(0.986209 0.0746176 -7.32537e-18)
(0.988947 0.0701477 -2.35254e-18)
(0.99351 0.0654272 3.11933e-18)
(0.996824 0.0603957 1.51686e-18)
(0.989846 0.102941 1.79174e-21)
(0.990001 0.102888 -2.29061e-20)
(0.990127 0.102818 4.04732e-20)
(0.990222 0.102741 -6.02415e-20)
(0.990282 0.102655 7.96596e-20)
(0.990303 0.102555 7.01309e-20)
(0.990282 0.102437 -7.99215e-20)
(0.990217 0.102298 4.08259e-20)
(0.990105 0.102131 -1.70223e-19)
(0.989942 0.101934 4.766e-20)
(0.989727 0.101697 -3.64252e-20)
(0.989456 0.101425 -2.76047e-19)
(0.989129 0.101099 5.96028e-20)
(0.988717 0.100719 3.73168e-19)
(0.988244 0.10026 -9.41181e-20)
(0.987717 0.0997006 8.4836e-20)
(0.987129 0.099027 -2.67219e-19)
(0.986482 0.0981964 5.41076e-19)
(0.985774 0.0971573 -2.08588e-19)
(0.985017 0.0958459 -1.38168e-18)
(0.98424 0.0941986 -2.23961e-19)
(0.983499 0.092133 3.03557e-19)
(0.982896 0.0895675 -5.40828e-19)
(0.982582 0.0864357 -3.45803e-18)
(0.982819 0.0826834 -5.58646e-18)
(0.983768 0.0784565 -2.83166e-18)
(0.985613 0.0740077 5.38573e-18)
(0.988693 0.0693869 1.00988e-17)
(0.993668 0.0646411 -1.98816e-17)
(0.997305 0.0597677 -1.6315e-18)
(0.9889 0.104147 8.75189e-21)
(0.98906 0.104088 -2.28707e-21)
(0.989196 0.104026 3.45126e-20)
(0.989303 0.103958 -8.57329e-21)
(0.989377 0.103878 -4.74458e-20)
(0.989412 0.10378 3.86024e-20)
(0.989406 0.103656 5.20019e-20)
(0.989353 0.103509 -9.85233e-20)
(0.989252 0.103328 2.07305e-19)
(0.989096 0.103114 8.66584e-20)
(0.988885 0.102856 -1.43674e-19)
(0.988612 0.102562 -2.18636e-20)
(0.988278 0.102211 -3.25188e-20)
(0.987847 0.101801 -7.88331e-20)
(0.987348 0.101307 3.13899e-19)
(0.986789 0.100705 -4.70659e-20)
(0.986165 0.0999807 1.13179e-19)
(0.985478 0.0990881 -6.09738e-19)
(0.984728 0.0979706 1.06933e-18)
(0.983929 0.0965631 2.82846e-19)
(0.983115 0.0947958 -9.71087e-19)
(0.982349 0.092583 -1.63575e-18)
(0.981743 0.0898379 1.27745e-18)
(0.981463 0.0864918 -5.34776e-18)
(0.981794 0.0824936 7.66745e-18)
(0.982915 0.0780105 4.37968e-18)
(0.985006 0.0733291 6.26375e-18)
(0.988438 0.0685627 -2.49504e-18)
(0.993821 0.0638015 2.05969e-17)
(0.997717 0.0590824 -4.965e-18)
(0.987919 0.10544 -2.31277e-21)
(0.988077 0.105381 -2.70381e-20)
(0.988218 0.105299 1.11822e-20)
(0.988334 0.105214 7.04663e-20)
(0.988418 0.105117 -9.11489e-20)
(0.988465 0.105004 3.94134e-21)
(0.988471 0.104868 -6.65607e-22)
(0.988429 0.104709 1.98619e-20)
(0.988338 0.104517 -1.83131e-20)
(0.988191 0.10429 -2.52855e-20)
(0.987984 0.104016 6.78981e-20)
(0.987712 0.103703 1.9861e-19)
(0.987371 0.103327 -1.86476e-19)
(0.986924 0.102889 2.46702e-20)
(0.9864 0.102361 -1.62844e-19)
(0.985808 0.101715 -6.57748e-20)
(0.985149 0.100936 -1.12709e-20)
(0.984419 0.0999768 5.97897e-19)
(0.983625 0.0987783 -7.28543e-19)
(0.982782 0.0972662 1.91918e-18)
(0.981929 0.0953696 1.52636e-18)
(0.981137 0.0929974 -5.90536e-19)
(0.980527 0.0900592 -7.4576e-19)
(0.980285 0.0864839 7.7622e-18)
(0.980716 0.0822272 -6.36662e-18)
(0.982018 0.0774789 -3.63254e-18)
(0.98437 0.072563 -3.41405e-18)
(0.988163 0.067652 2.09286e-18)
(0.993954 0.0628843 -1.64158e-17)
(0.998054 0.0583161 1.06333e-17)
(0.986916 0.106585 -2.88486e-21)
(0.987068 0.106524 -2.4034e-20)
(0.987208 0.106456 -5.50955e-22)
(0.987327 0.106385 3.80766e-20)
(0.987417 0.106299 -2.23385e-20)
(0.987473 0.106193 8.47234e-20)
(0.987488 0.106058 -1.30731e-19)
(0.987455 0.105896 4.30288e-20)
(0.987373 0.105696 1.17008e-19)
(0.987232 0.105458 -2.54378e-19)
(0.98703 0.105169 9.73056e-21)
(0.986758 0.104838 -5.47889e-20)
(0.986413 0.104439 9.73081e-20)
(0.98595 0.103974 -1.42856e-20)
(0.9854 0.103411 1.50373e-19)
(0.984776 0.102719 -4.99706e-19)
(0.984077 0.101886 5.64254e-20)
(0.983304 0.100858 -3.22182e-19)
(0.982463 0.0995718 2.04511e-19)
(0.981573 0.0979496 6.07086e-20)
(0.980677 0.095915 -1.12273e-18)
(0.979855 0.0933722 -1.0868e-18)
(0.979241 0.090228 2.4742e-18)
(0.979038 0.086409 -4.35344e-18)
(0.979574 0.0818799 1.12551e-18)
(0.981065 0.0768566 2.3886e-18)
(0.983691 0.0717024 1.7866e-18)
(0.987857 0.0666479 -1.05524e-17)
(0.994056 0.0618819 -7.51157e-18)
(0.998328 0.0574738 -7.15131e-18)
(0.985895 0.107801 4.67699e-21)
(0.986039 0.107742 -3.05763e-21)
(0.986176 0.107657 -2.20272e-20)
(0.986295 0.107571 2.8551e-20)
(0.986388 0.107473 -5.04508e-20)
(0.986448 0.107358 8.79597e-20)
(0.986468 0.107217 -1.00083e-19)
(0.986442 0.10705 6.03198e-20)
(0.986366 0.106845 -1.20413e-19)
(0.986229 0.106602 2.53234e-19)
(0.98603 0.106303 -1.22868e-19)
(0.985757 0.105957 1.26545e-19)
(0.985405 0.105538 -5.21752e-19)
(0.984928 0.105049 2.96594e-19)
(0.98435 0.104451 2.11551e-21)
(0.983691 0.103715 1.65704e-19)
(0.982951 0.102824 -2.26634e-19)
(0.982132 0.101726 2.71117e-19)
(0.98124 0.10035 8.2845e-20)
(0.980299 0.0986118 -9.20263e-19)
(0.979357 0.0964313 1.55609e-18)
(0.978502 0.0937079 5.8456e-19)
(0.977881 0.0903444 -3.72698e-18)
(0.977717 0.0862676 1.48606e-18)
(0.978361 0.0814515 1.06351e-18)
(0.980049 0.0761429 -5.12671e-18)
(0.982961 0.070745 -2.42841e-18)
(0.987514 0.0655482 3.41067e-17)
(0.994126 0.0607895 -1.21772e-18)
(0.998542 0.0565569 3.80309e-19)
(0.984866 0.108851 -2.27263e-21)
(0.984999 0.108792 7.01741e-21)
(0.985129 0.108728 -9.38744e-21)
(0.985243 0.108664 -1.00834e-21)
(0.985334 0.108584 1.04124e-20)
(0.985394 0.108482 3.80669e-21)
(0.985417 0.108348 1.23446e-20)
(0.985393 0.108185 -9.04057e-20)
(0.985319 0.107977 1.91329e-19)
(0.985185 0.107728 -6.06281e-20)
(0.984986 0.107418 2.06214e-20)
(0.984711 0.107059 2.15371e-21)
(0.984351 0.106621 -9.23652e-20)
(0.983857 0.106107 -2.42458e-20)
(0.983251 0.105476 4.85497e-19)
(0.982554 0.104694 4.81468e-20)
(0.98177 0.103747 3.69627e-19)
(0.980902 0.102578 1.83278e-19)
(0.979956 0.101108 -8.79294e-19)
(0.97896 0.0992502 5.91167e-19)
(0.977967 0.0969171 -5.5363e-19)
(0.977075 0.0940044 2.34644e-18)
(0.976443 0.0904101 3.59605e-18)
(0.976319 0.0860624 2.98357e-18)
(0.977074 0.0809458 4.94582e-18)
(0.978967 0.0753416 3.82462e-18)
(0.982178 0.0696958 -2.68598e-18)
(0.987132 0.0643578 -3.62608e-18)
(0.994162 0.0596155 1.37691e-19)
(0.998715 0.0555818 7.79298e-18)
(0.983814 0.110005 -5.31266e-22)
(0.983934 0.109952 1.33241e-20)
(0.984055 0.109869 -4.65372e-20)
(0.984164 0.10979 9.99578e-21)
(0.984252 0.109698 -3.58586e-20)
(0.984311 0.109588 6.97569e-20)
(0.984333 0.109449 -1.97526e-20)
(0.98431 0.109284 3.79174e-20)
(0.984237 0.109075 -3.14212e-20)
(0.984102 0.108822 -1.0669e-19)
(0.983901 0.108506 1.70752e-19)
(0.983621 0.108137 -1.76529e-19)
(0.983252 0.107683 3.2906e-19)
(0.982741 0.107146 -1.63561e-19)
(0.982103 0.106483 -1.47277e-19)
(0.981365 0.105657 -5.38305e-19)
(0.980536 0.104652 -4.31411e-19)
(0.979614 0.10341 2.65772e-19)
(0.978609 0.101848 2.1319e-19)
(0.977553 0.0998661 -5.30429e-19)
(0.976505 0.0973749 -4.81002e-19)
(0.975572 0.0942641 -3.03633e-19)
(0.974928 0.0904282 -2.00765e-18)
(0.974842 0.0857962 -1.93769e-18)
(0.975713 0.0803665 -7.01667e-18)
(0.97782 0.0744559 8.91989e-19)
(0.981344 0.0685587 -8.99066e-19)
(0.986712 0.0630799 -4.0012e-17)
(0.99417 0.0583642 1.86791e-17)
(0.998853 0.0545509 1.14996e-17)
(0.98274 0.110991 4.12259e-21)
(0.982846 0.110937 4.62853e-21)
(0.982958 0.110876 -1.22248e-20)
(0.98306 0.110819 7.82726e-20)
(0.983143 0.110746 -1.20783e-19)
(0.983199 0.11065 7.47351e-20)
(0.98322 0.110519 4.41018e-20)
(0.983195 0.110358 -1.28912e-19)
(0.98312 0.110149 1.28945e-19)
(0.982983 0.109894 -2.25963e-19)
(0.982779 0.109571 2.81187e-19)
(0.982492 0.109193 1.18164e-20)
(0.98211 0.108723 -2.67553e-19)
(0.981579 0.108164 6.10628e-20)
(0.980907 0.10747 3.01401e-20)
(0.980126 0.1066 7.50049e-20)
(0.979246 0.10554 3.63178e-19)
(0.978267 0.104226 -5.18066e-19)
(0.977201 0.102567 8.60797e-19)
(0.97608 0.100459 2.91094e-20)
(0.974971 0.0978049 8.53148e-19)
(0.973992 0.0944885 -2.59007e-18)
(0.973333 0.0904012 1.52628e-19)
(0.973287 0.0854728 -2.8331e-19)
(0.974279 0.0797178 8.88361e-19)
(0.976607 0.0734917 4.9376e-18)
(0.980458 0.06734 -9.97041e-19)
(0.986256 0.0617233 1.96294e-17)
(0.994153 0.0570455 -1.47143e-17)
(0.998978 0.0534824 -8.08438e-18)
(0.981643 0.112079 1.35532e-21)
(0.981737 0.112027 -3.96511e-21)
(0.98184 0.111946 -3.83454e-20)
(0.981935 0.111874 5.24149e-20)
(0.982012 0.11179 -1.3087e-20)
(0.982064 0.111687 -4.20334e-21)
(0.982081 0.111555 -2.76329e-20)
(0.982053 0.111395 4.37524e-20)
(0.981974 0.111189 -8.6382e-20)
(0.981831 0.110935 -3.52531e-20)
(0.981619 0.11061 7.3566e-20)
(0.981322 0.110224 -1.36707e-19)
(0.980925 0.109741 -7.86858e-20)
(0.980372 0.109162 7.82685e-20)
(0.979663 0.108438 -1.28597e-19)
(0.978836 0.107526 -1.07404e-19)
(0.977902 0.106409 5.43945e-19)
(0.976862 0.105022 -2.03178e-19)
(0.975729 0.103269 6.07936e-20)
(0.974537 0.101032 -3.55764e-19)
(0.973364 0.0982103 -4.8755e-20)
(0.972335 0.0946811 2.03811e-18)
(0.971659 0.0903316 3.53982e-19)
(0.971653 0.085095 -4.82036e-19)
(0.972772 0.079002 2.11623e-18)
(0.975334 0.0724516 -3.98039e-18)
(0.979527 0.0660418 4.80164e-18)
(0.985772 0.0602912 -3.24515e-17)
(0.99412 0.0556599 1.11069e-17)
(0.999094 0.0523793 -2.05454e-17)
(0.980527 0.112997 1.98717e-21)
(0.980609 0.112944 -6.41817e-21)
(0.980701 0.112888 2.76661e-20)
(0.980788 0.112841 4.12022e-21)
(0.980857 0.112779 -6.01756e-20)
(0.980902 0.112693 1.4355e-20)
(0.980913 0.112571 1.3611e-20)
(0.980879 0.112418 1.96987e-20)
(0.980794 0.112214 9.42567e-21)
(0.980644 0.11196 -1.07041e-20)
(0.980422 0.11163 -1.14028e-19)
(0.980112 0.111237 2.28252e-21)
(0.979697 0.11074 1.75799e-19)
(0.979119 0.110142 4.01096e-20)
(0.978371 0.109389 1.91325e-19)
(0.977493 0.108433 1.47844e-19)
(0.976504 0.107263 -2.16134e-19)
(0.9754 0.105805 5.67688e-20)
(0.974193 0.103953 -7.68488e-19)
(0.972927 0.101586 -6.39843e-19)
(0.971683 0.0985917 -1.01735e-18)
(0.9706 0.094843 -2.95421e-18)
(0.969904 0.0902214 -5.1992e-19)
(0.969942 0.0846646 2.8265e-18)
(0.971195 0.0782219 -5.32826e-18)
(0.974003 0.0713385 -2.82515e-19)
(0.978554 0.0646691 -4.32714e-19)
(0.985264 0.0587892 2.25687e-17)
(0.994075 0.0542173 -6.71357e-18)
(0.999222 0.0512549 3.98393e-18)
(0.979372 0.114057 -4.09201e-21)
(0.979442 0.114006 -1.96898e-21)
(0.979525 0.113927 2.54289e-20)
(0.979603 0.113863 -9.24964e-21)
(0.979666 0.113787 -7.81217e-21)
(0.979705 0.113694 2.08442e-20)
(0.97971 0.113569 -1.35002e-20)
(0.979669 0.113417 4.96914e-20)
(0.979576 0.113215 -6.68669e-20)
(0.979417 0.112962 -6.6982e-20)
(0.979184 0.112631 -7.25669e-21)
(0.978858 0.112232 1.03079e-19)
(0.978422 0.111723 -6.07188e-20)
(0.977818 0.111105 1.88889e-19)
(0.977029 0.110324 -2.51606e-19)
(0.976104 0.109327 -1.21964e-19)
(0.975056 0.108102 3.43559e-19)
(0.973879 0.106574 -8.72264e-20)
(0.972592 0.104628 2.58594e-19)
(0.971246 0.102125 3.02829e-19)
(0.969926 0.098954 3.31732e-19)
(0.968786 0.0949771 2.67467e-18)
(0.96807 0.0900721 7.19176e-19)
(0.968154 0.084182 -6.74563e-19)
(0.96955 0.0773773 2.45748e-18)
(0.972617 0.0701517 -1.01337e-18)
(0.977546 0.0632218 8.09381e-18)
(0.984739 0.0572161 1.54657e-17)
(0.99403 0.0527175 1.0766e-17)
(0.999365 0.0501029 1.15266e-17)
(0.978175 0.114954 -1.32637e-20)
(0.978232 0.1149 1.39284e-20)
(0.978306 0.114844 -1.79615e-20)
(0.978377 0.114802 6.33753e-21)
(0.978433 0.114746 -3.65237e-21)
(0.978466 0.114667 -5.02661e-20)
(0.978465 0.114552 1.54726e-22)
(0.978418 0.114405 1.71484e-19)
(0.978317 0.114206 -5.26421e-20)
(0.978148 0.113954 6.39303e-20)
(0.977902 0.113619 -1.35809e-19)
(0.977559 0.113213 2.43817e-19)
(0.977101 0.11269 7.58595e-20)
(0.97647 0.112053 8.17006e-20)
(0.975644 0.111241 -1.30706e-19)
(0.974666 0.110203 2.96656e-19)
(0.973549 0.108935 -3.89031e-19)
(0.972294 0.107339 -3.31573e-19)
(0.970922 0.10529 5.41089e-19)
(0.96949 0.102651 5.79998e-19)