/*--------------------------------*- C++ -*----------------------------------*\
  =========                 |
  \\      /  F ield         | OpenFOAM: The Open Source CFD Toolbox
   \\    /   O peration     | Website:  https://openfoam.org
    \\  /    A nd           | Version:  6.0
     \\/     M anipulation  |
\*---------------------------------------------------------------------------*/
FoamFile
{
    version     2.0;
    format      ascii;
    class       volScalarField;
    location    "20";
    object      p;
}
// * * * * * * * * * * * * * * * * * * * * * * * * * * * * * * * * * * * * * //

dimensions      [0 2 -2 0 0 0 0];

internalField   nonuniform List<scalar> 
62000
(
0.013925
0.0139079
0.0138882
0.0138676
0.0138438
0.0138186
0.0137896
0.013759
0.0137241
0.0136875
0.0136458
0.0136021
0.0135523
0.0135002
0.0134408
0.0133785
0.0133074
0.0132326
0.0131475
0.0130573
0.0129554
0.0128465
0.0127243
0.0125927
0.0124457
0.0122864
0.0121088
0.0119152
0.0117
0.0114645
0.0112037
0.0109182
0.0106029
0.010256
0.00987072
0.00944094
0.00896753
0.00845527
0.00790717
0.00732366
0.00670511
0.00605362
0.00537348
0.00466996
0.00394937
0.00321681
0.00247642
0.0017325
0.000982259
0.000237123
-0.000514974
-0.0012325
-0.00192637
-0.00251161
-0.00298896
-0.00329145
-0.00344534
-0.00325137
-0.002912
-0.00366681
0.013924
0.0139077
0.0138894
0.0138707
0.0138492
0.0138265
0.0138003
0.0137727
0.0137411
0.0137078
0.0136695
0.0136292
0.0135827
0.0135338
0.0134774
0.0134177
0.0133493
0.0132768
0.0131947
0.0131074
0.0130092
0.0129043
0.0127871
0.0126605
0.0125198
0.0123664
0.0121961
0.0120089
0.0118015
0.0115727
0.0113215
0.0110469
0.0107461
0.0104128
0.0100349
0.00960887
0.00913966
0.00863348
0.00809137
0.00751143
0.0068926
0.00623631
0.00554619
0.00482696
0.00408404
0.00332205
0.00254407
0.00175336
0.000945203
0.000128704
-0.000713108
-0.00153836
-0.00235641
-0.00306566
-0.00366755
-0.00407307
-0.00429442
-0.00406318
-0.00378795
-0.00381836
0.0139165
0.0138989
0.0138796
0.0138605
0.0138391
0.0138169
0.0137915
0.0137647
0.0137339
0.0137012
0.0136634
0.0136234
0.0135771
0.0135282
0.0134716
0.0134116
0.0133428
0.0132698
0.0131869
0.0130987
0.0129995
0.0128933
0.0127746
0.0126464
0.0125038
0.0123481
0.0121752
0.011985
0.0117742
0.0115414
0.011286
0.0110077
0.0107044
0.0103654
0.00997845
0.00953996
0.00905891
0.00854276
0.00799076
0.00739906
0.006766
0.00609328
0.00538542
0.00464826
0.00388872
0.00311415
0.0023303
0.00154442
0.000755744
-2.5173e-05
-0.000811892
-0.00157095
-0.0022954
-0.00289908
-0.00339809
-0.00372571
-0.0038967
-0.00370977
-0.0036025
-0.00391632
0.0139316
0.0139131
0.0138934
0.0138742
0.0138534
0.0138322
0.0138082
0.0137829
0.0137535
0.013722
0.0136853
0.013646
0.0136004
0.0135517
0.0134954
0.0134354
0.0133667
0.0132937
0.013211
0.013123
0.0130241
0.0129182
0.0128
0.0126723
0.0125302
0.0123752
0.0122031
0.0120138
0.0118042
0.0115728
0.0113185
0.0110413
0.0107379
0.0103993
0.0100109
0.00957216
0.00909339
0.00858147
0.00803348
0.00744383
0.00681026
0.00613456
0.00542152
0.00467739
0.00390966
0.00312726
0.00233794
0.00155192
0.000772229
1.1219e-05
-0.00074165
-0.00146113
-0.00213211
-0.00268465
-0.00314897
-0.00347833
-0.00368848
-0.00362881
-0.00368064
-0.00418521
0.0139527
0.0139339
0.0139144
0.0138959
0.0138763
0.0138567
0.0138348
0.0138118
0.0137849
0.0137559
0.0137216
0.0136846
0.0136413
0.0135947
0.0135404
0.0134825
0.0134158
0.013345
0.0132647
0.0131793
0.0130832
0.0129804
0.0128656
0.0127416
0.0126037
0.0124534
0.0122866
0.0121035
0.0119008
0.0116773
0.011431
0.0111612
0.0108658
0.0105333
0.0101538
0.00972733
0.00926503
0.00877234
0.00824368
0.00767141
0.0070524
0.00638792
0.00568222
0.00494071
0.00417008
0.00337911
0.00257584
0.00177226
0.000973715
0.000195664
-0.000569445
-0.00130013
-0.00197721
-0.0025391
-0.00302829
-0.00340067
-0.00366949
-0.00370338
-0.00382409
-0.00430038
0.0139832
0.0139645
0.013945
0.0139266
0.0139074
0.0138888
0.0138686
0.0138479
0.0138239
0.0137979
0.0137668
0.0137331
0.0136932
0.0136498
0.0135986
0.0135434
0.0134795
0.0134113
0.0133339
0.0132514
0.0131587
0.0130596
0.0129491
0.0128299
0.0126975
0.0125534
0.0123938
0.0122188
0.0120254
0.0118123
0.0115771
0.0113186
0.011033
0.0107123
0.0103456
0.0099368
0.00949723
0.00903059
0.00852875
0.00798212
0.00738653
0.00674263
0.00605378
0.0053241
0.00455878
0.00376538
0.00295124
0.00212863
0.00130465
0.000497789
-0.000295554
-0.00105342
-0.00175572
-0.00234231
-0.00286288
-0.00327329
-0.00358622
-0.00369552
-0.00386665
-0.00435115
0.0140154
0.0139961
0.0139758
0.0139565
0.0139367
0.0139181
0.0138987
0.0138796
0.0138581
0.013835
0.0138073
0.0137774
0.0137418
0.0137029
0.0136563
0.0136055
0.013546
0.0134821
0.0134091
0.0133311
0.0132431
0.013149
0.0130438
0.0129304
0.0128046
0.0126678
0.0125164
0.0123507
0.012168
0.0119669
0.0117449
0.0114997
0.0112288
0.0109217
0.0105724
0.010185
0.00977203
0.00933616
0.00886713
0.00835366
0.00779059
0.00717786
0.00651782
0.0058131
0.00506695
0.00428489
0.00347227
0.00264022
0.00179543
0.000958443
0.000128579
-0.000670321
-0.00141525
-0.00204481
-0.00261528
-0.00307915
-0.00345004
-0.00364635
-0.00387933
-0.00436434
0.0140504
0.0140305
0.0140097
0.0139896
0.0139692
0.0139502
0.0139311
0.0139133
0.0138936
0.0138728
0.0138481
0.0138215
0.01379
0.0137556
0.0137139
0.0136678
0.013613
0.0135537
0.0134854
0.0134121
0.0133293
0.0132404
0.013141
0.0130339
0.0129149
0.0127857
0.0126429
0.0124868
0.012315
0.0121262
0.011918
0.011688
0.0114317
0.0111423
0.0108118
0.0104476
0.0100627
0.00965916
0.0092254
0.00874895
0.00822401
0.00765
0.00702856
0.00636102
0.00564879
0.00489492
0.00410194
0.00327793
0.00242718
0.00156899
0.000703331
-0.000145324
-0.000951924
-0.001652
-0.00230181
-0.00284871
-0.00329992
-0.00359024
-0.00387171
-0.00431483
0.0140812
0.0140614
0.0140408
0.0140211
0.0140011
0.0139825
0.0139643
0.0139477
0.0139296
0.0139107
0.0138879
0.0138636
0.0138349
0.0138039
0.0137659
0.0137238
0.0136729
0.0136175
0.0135531
0.013484
0.0134055
0.0133212
0.0132266
0.0131245
0.013011
0.0128878
0.0127516
0.0126029
0.0124395
0.0122602
0.0120628
0.0118444
0.0116019
0.0113255
0.0110113
0.0106662
0.0103043
0.0099276
0.00952384
0.00907996
0.00858988
0.00805298
0.00747065
0.00684361
0.00617212
0.0054573
0.00469891
0.00390168
0.00306583
0.0022076
0.00132454
0.000439401
-0.000421264
-0.00119014
-0.00192316
-0.00255813
-0.00309223
-0.00346818
-0.00378254
-0.00418947
0.0141205
0.0141018
0.0140824
0.0140641
0.0140454
0.0140281
0.0140111
0.0139961
0.0139799
0.0139626
0.0139413
0.0139183
0.0138913
0.0138621
0.0138263
0.0137859
0.0137368
0.0136827
0.0136199
0.0135521
0.0134753
0.0133928
0.0133003
0.0132005
0.0130896
0.0129692
0.012836
0.0126908
0.0125311
0.0123564
0.0121642
0.011952
0.0117151
0.0114468
0.0111406
0.0108058
0.0104565
0.0100948
0.00970833
0.00928389
0.0088156
0.00830331
0.00774899
0.00715381
0.00651815
0.00584264
0.00512573
0.00436962
0.00357103
0.00274198
0.00187605
0.000991562
0.000112468
-0.000693761
-0.00148258
-0.0021859
-0.00279141
-0.00325278
-0.00361342
-0.00402903
0.0141702
0.0141526
0.0141346
0.0141177
0.0141005
0.0140844
0.0140689
0.0140555
0.0140413
0.0140259
0.0140064
0.013985
0.0139596
0.0139324
0.0138985
0.0138599
0.0138121
0.013759
0.0136967
0.0136293
0.0135529
0.0134708
0.0133788
0.0132793
0.0131688
0.0130487
0.0129159
0.012771
0.0126117
0.0124374
0.012246
0.0120344
0.0117995
0.0115314
0.011227
0.0108942
0.0105479
0.01019
0.00980821
0.00938953
0.00892835
0.00842524
0.00788324
0.00730474
0.00669144
0.006045
0.00536439
0.00465129
0.00390032
0.00312044
0.00230073
0.00145328
0.000597073
-0.000205055
-0.0010141
-0.00176053
-0.00242807
-0.00298178
-0.00341321
-0.00387869
0.0142368
0.0142204
0.0142035
0.0141877
0.0141719
0.014157
0.0141428
0.0141309
0.0141188
0.0141059
0.0140888
0.0140698
0.0140471
0.0140225
0.0139916
0.0139556
0.0139101
0.0138584
0.0137972
0.0137305
0.0136547
0.013573
0.0134815
0.0133826
0.0132727
0.0131531
0.0130208
0.0128763
0.0127174
0.0125434
0.0123522
0.0121414
0.0119059
0.011639
0.0113343
0.0110014
0.0106546
0.0102958
0.00991251
0.00949177
0.00902816
0.00852283
0.00797992
0.00740328
0.00679655
0.00616342
0.00550492
0.00482391
0.00411511
0.00338567
0.00262138
0.0018276
0.00101549
0.000239219
-0.000570072
-0.00134808
-0.00207719
-0.00273258
-0.0032483
-0.00377241
0.0143136
0.0142977
0.0142816
0.0142669
0.0142524
0.0142389
0.0142258
0.0142152
0.014205
0.0141944
0.0141801
0.014164
0.0141445
0.0141238
0.0140971
0.0140656
0.0140242
0.0139762
0.0139184
0.0138547
0.0137818
0.013703
0.0136146
0.0135187
0.0134121
0.0132958
0.013167
0.0130261
0.0128711
0.0127011
0.0125143
0.0123078
0.012078
0.0118152
0.0115158
0.0111874
0.0108445
0.0104884
0.0101065
0.0096855
0.00921964
0.00871009
0.00816148
0.00757866
0.00696685
0.00633192
0.00567737
0.00500845
0.00432136
0.00362357
0.00289907
0.00214766
0.00137307
0.000619451
-0.000192742
-0.00100576
-0.00180105
-0.00255581
-0.00314608
-0.00371169
0.0144034
0.0143882
0.0143728
0.014359
0.0143454
0.0143326
0.01432
0.0143099
0.0143004
0.0142911
0.0142787
0.0142649
0.0142484
0.0142311
0.0142089
0.0141821
0.0141459
0.0141028
0.0140498
0.0139908
0.013923
0.0138495
0.0137668
0.0136772
0.0135772
0.0134681
0.0133471
0.0132146
0.0130684
0.0129081
0.0127316
0.0125367
0.0123183
0.0120692
0.0117829
0.0114681
0.0111383
0.0107943
0.0104227
0.0100097
0.00954887
0.00904058
0.00848912
0.00789944
0.00727753
0.00663065
0.00596453
0.00528679
0.00459613
0.00390135
0.00318679
0.00244869
0.0016843
0.000928967
9.52704e-05
-0.000765451
-0.00163055
-0.00247341
-0.00311447
-0.00369064
0.0144965
0.0144818
0.0144667
0.0144531
0.0144399
0.0144271
0.0144141
0.014403
0.0143928
0.0143832
0.014371
0.0143579
0.0143429
0.0143281
0.0143094
0.0142871
0.0142559
0.0142184
0.0141713
0.0141185
0.0140573
0.0139909
0.0139161
0.013835
0.0137444
0.0136455
0.0135355
0.013415
0.0132821
0.0131361
0.0129754
0.0127974
0.0125986
0.0123689
0.0121045
0.0118121
0.011505
0.0111832
0.0108328
0.010439
0.00999411
0.0094973
0.00895155
0.00836084
0.00773078
0.00706886
0.00638194
0.00567952
0.0049626
0.00424234
0.00350498
0.00274545
0.00195796
0.00117175
0.000294143
-0.000626191
-0.00155967
-0.00247039
-0.00313279
-0.00369008
0.01459
0.0145762
0.0145613
0.0145476
0.0145342
0.0145212
0.0145072
0.0144946
0.0144825
0.014471
0.0144573
0.0144431
0.0144275
0.0144129
0.0143955
0.0143754
0.0143476
0.0143138
0.0142712
0.0142233
0.0141679
0.0141081
0.014041
0.0139685
0.0138877
0.0137996
0.0137017
0.0135946
0.0134763
0.0133467
0.013204
0.0130462
0.0128687
0.012664
0.0124256
0.0121611
0.0118828
0.0115903
0.0112688
0.0109027
0.0104829
0.010007
0.00947603
0.00889226
0.00825994
0.00758559
0.00687611
0.00614177
0.00538553
0.00462069
0.00383655
0.0030288
0.00219087
0.00134913
0.000410896
-0.000575168
-0.00157003
-0.00252804
-0.0031867
-0.00370113
0.0146744
0.0146615
0.0146472
0.0146337
0.0146207
0.0146077
0.0145933
0.0145792
0.014565
0.014551
0.0145346
0.0145177
0.0144996
0.0144829
0.0144642
0.0144436
0.014416
0.0143834
0.0143424
0.0142971
0.014245
0.0141896
0.0141278
0.0140618
0.0139887
0.0139095
0.0138219
0.0137263
0.0136212
0.0135063
0.0133803
0.013241
0.0130852
0.0129033
0.0126912
0.0124547
0.0122062
0.0119448
0.0116551
0.0113207
0.0109313
0.0104827
0.0099739
0.00940493
0.00877799
0.00809776
0.00737
0.00660479
0.00580608
0.00498914
0.00414664
0.00327634
0.00237353
0.00146462
0.000459606
-0.000589685
-0.00163433
-0.00261902
-0.00325426
-0.00371068
0.0147545
0.0147432
0.0147297
0.0147164
0.0147035
0.0146905
0.0146755
0.01466
0.0146436
0.0146267
0.0146069
0.0145863
0.0145642
0.0145435
0.014521
0.014497
0.0144666
0.0144314
0.0143886
0.0143418
0.0142892
0.014234
0.0141737
0.0141102
0.0140407
0.0139664
0.0138849
0.0137968
0.0137004
0.013596
0.0134819
0.0133569
0.0132167
0.0130542
0.012863
0.0126502
0.0124273
0.0121933
0.0119324
0.0116278
0.0112683
0.0108481
0.0103643
0.00981469
0.00919926
0.00852034
0.00778193
0.00699302
0.00615785
0.00529269
0.00439351
0.00346067
0.00249198
0.00151594
0.000448289
-0.000654988
-0.00173554
-0.0027309
-0.00333012
-0.00371901
0.0148255
0.0148158
0.014803
0.0147897
0.0147766
0.0147632
0.0147475
0.0147305
0.0147117
0.0146917
0.0146684
0.0146437
0.0146171
0.0145916
0.0145642
0.0145353
0.0145
0.0144601
0.0144127
0.0143616
0.014305
0.0142464
0.0141834
0.0141179
0.0140475
0.0139731
0.0138925
0.0138063
0.013713
0.0136127
0.0135043
0.0133863
0.0132558
0.0131038
0.0129264
0.0127291
0.012524
0.0123097
0.0120708
0.0117899
0.0114556
0.0110608
0.0106012
0.0100725
0.00947269
0.00880158
0.00806108
0.00725857
0.00639777
0.00549534
0.00454991
0.00356421
0.00253953
0.00150699
0.000388623
-0.000754674
-0.00185663
-0.00284901
-0.00340381
-0.00372047
0.0148888
0.0148809
0.0148688
0.0148552
0.0148415
0.0148274
0.0148107
0.0147922
0.0147712
0.0147484
0.0147217
0.014693
0.014662
0.0146315
0.0145988
0.0145641
0.0145228
0.0144764
0.0144225
0.0143645
0.014301
0.0142356
0.0141663
0.0140949
0.0140191
0.0139399
0.013855
0.0137653
0.013669
0.0135666
0.0134569
0.013339
0.013209
0.0130604
0.0128873
0.0126965
0.0124995
0.0122954
0.0120688
0.0118027
0.0114854
0.0111093
0.0106691
0.0101591
0.00957557
0.00891616
0.0081807
0.00737481
0.0065013
0.00557619
0.00460015
0.00357767
0.0025126
0.00143874
0.000285238
-0.000882942
-0.00199311
-0.00297323
-0.00347887
-0.00372062
0.014938
0.0149318
0.0149206
0.0149072
0.0148935
0.0148792
0.0148621
0.0148427
0.0148202
0.014795
0.0147654
0.0147333
0.0146983
0.0146632
0.0146252
0.0145846
0.0145369
0.0144836
0.0144221
0.0143561
0.0142843
0.0142103
0.0141321
0.014052
0.0139676
0.0138798
0.0137866
0.0136886
0.0135845
0.0134744
0.0133575
0.0132326
0.0130972
0.012943
0.0127664
0.012573
0.0123748
0.0121711
0.0119472
0.0116864
0.0113773
0.0110121
0.0105851
0.0100899
0.00952128
0.00887529
0.00814998
0.00734916
0.00647442
0.00554073
0.00454984
0.00350734
0.00241932
0.00132137
0.000148863
-0.0010297
-0.00213682
-0.00309733
-0.00355076
-0.00371645
0.0149806
0.0149759
0.0149655
0.0149522
0.0149379
0.014923
0.0149052
0.0148848
0.0148607
0.0148334
0.0148014
0.0147662
0.0147277
0.0146885
0.0146458
0.0145998
0.014546
0.0144857
0.0144165
0.014342
0.0142612
0.0141775
0.0140893
0.0139988
0.0139038
0.0138053
0.0137011
0.0135919
0.0134762
0.0133546
0.0132259
0.0130895
0.0129421
0.0127774
0.01259
0.0123868
0.0121795
0.011968
0.011738
0.0114736
0.0111638
0.0108012
0.0103802
0.00989399
0.00933671
0.00870325
0.00799032
0.0072002
0.00633324
0.00540274
0.00441114
0.00336408
0.0022683
0.00116094
-1.6765e-05
-0.00119403
-0.00228978
-0.0032263
-0.00362591
-0.00371531
0.0150125
0.0150087
0.0149988
0.0149851
0.01497
0.0149539
0.014935
0.014913
0.0148872
0.0148579
0.0148235
0.0147858
0.0147445
0.014702
0.0146556
0.0146053
0.0145465
0.0144804
0.0144046
0.0143226
0.0142334
0.0141406
0.0140426
0.0139417
0.0138357
0.0137255
0.0136092
0.0134873
0.0133584
0.013223
0.01308
0.0129288
0.0127669
0.0125865
0.0123844
0.0121661
0.0119443
0.0117187
0.0114761
0.0112014
0.010884
0.0105174
0.0100961
0.00961362
0.00906378
0.00844085
0.00774052
0.00696403
0.00611019
0.00519099
0.0042082
0.00316782
0.00207645
0.000971531
-0.000200833
-0.00136814
-0.00244672
-0.00335637
-0.00370152
-0.00371451
0.0150357
0.0150323
0.0150221
0.0150074
0.0149908
0.0149731
0.0149524
0.0149287
0.0149009
0.0148694
0.0148328
0.0147927
0.0147491
0.014704
0.0146549
0.0146012
0.0145386
0.0144678
0.0143866
0.0142982
0.0142018
0.0141009
0.0139941
0.0138834
0.0137671
0.0136458
0.0135176
0.013383
0.0132406
0.013091
0.0129329
0.012766
0.0125871
0.0123904
0.0121707
0.0119349
0.0116951
0.0114518
0.0111923
0.0109024
0.0105722
0.0101959
0.00976879
0.00928489
0.008738
0.00812224
0.00743284
0.00667014
0.00583193
0.00492825
0.00396089
0.00293441
0.00185472
0.000759331
-0.00040119
-0.00155347
-0.0026119
-0.00349365
-0.00378416
-0.00372169
0.0150446
0.0150407
0.0150302
0.015015
0.0149973
0.0149783
0.0149562
0.014931
0.0149014
0.0148679
0.0148291
0.0147868
0.0147409
0.0146936
0.014642
0.0145857
0.0145199
0.0144455
0.0143601
0.0142668
0.0141647
0.0140572
0.0139431
0.0138243
0.013699
0.0135679
0.0134291
0.0132829
0.0131281
0.0129648
0.0127923
0.0126099
0.0124153
0.012201
0.0119639
0.0117097
0.011451
0.0111884
0.0109101
0.0106026
0.0102568
0.00986771
0.00943141
0.00894251
0.00839503
0.00778345
0.00710249
0.0063524
0.0055293
0.00464255
0.00369193
0.00268272
0.00161858
0.000536627
-0.000608774
-0.00174356
-0.00278068
-0.00363458
-0.00387123
-0.00373378
0.0150449
0.0150401
0.0150287
0.0150122
0.0149929
0.0149721
0.0149481
0.0149208
0.0148893
0.0148536
0.0148126
0.0147682
0.0147204
0.014671
0.0146175
0.0145589
0.0144907
0.0144134
0.0143247
0.0142274
0.0141208
0.0140082
0.0138883
0.013763
0.0136305
0.0134913
0.0133436
0.0131876
0.0130218
0.0128469
0.0126614
0.0124653
0.0122553
0.0120258
0.0117719
0.0115002
0.0112232
0.0109416
0.0106442
0.0103183
0.00995563
0.0095518
0.00910377
0.0086069
0.00805557
0.00744476
0.00676923
0.00602889
0.00521913
0.00434767
0.00341448
0.00242189
0.00137339
0.000305122
-0.000824893
-0.00194226
-0.00295866
-0.00378547
-0.00396889
-0.0037587
0.0150331
0.0150265
0.0150135
0.0149954
0.014974
0.0149507
0.0149244
0.0148947
0.0148607
0.0148227
0.0147794
0.0147329
0.0146832
0.0146323
0.0145772
0.0145171
0.0144472
0.014368
0.014277
0.0141771
0.0140675
0.0139512
0.0138272
0.0136971
0.0135592
0.0134138
0.0132591
0.0130952
0.0129208
0.0127359
0.0125398
0.0123316
0.0121093
0.0118656
0.0115973
0.01131
0.0110163
0.0107172
0.010402
0.0100586
0.00967948
0.00926078
0.00880047
0.00829423
0.00773729
0.00712484
0.00645204
0.00571861
0.00491895
0.00406044
0.0031407
0.00216345
0.00112892
7.27538e-05
-0.00104331
-0.00214454
-0.00314163
-0.00394294
-0.00407492
-0.00379308
0.0150099
0.0150007
0.0149854
0.0149648
0.0149407
0.0149145
0.0148853
0.0148529
0.0148163
0.0147757
0.0147301
0.0146815
0.0146302
0.0145779
0.0145217
0.0144605
0.0143896
0.014309
0.0142167
0.0141149
0.0140032
0.0138845
0.0137576
0.0136241
0.0134823
0.0133325
0.0131727
0.013003
0.0128218
0.0126295
0.0124247
0.0122073
0.011974
0.0117195
0.0114388
0.0111382
0.0108301
0.0105156
0.0101844
0.009825
0.00943039
0.00899731
0.0085244
0.00800791
0.00744367
0.00682732
0.00615454
0.00542461
0.00463188
0.00378235
0.00287399
0.00190759
0.0008834
-0.000163831
-0.00126879
-0.00235643
-0.00333631
-0.0041135
-0.00419508
-0.0038449
0.0149706
0.0149584
0.0149407
0.0149181
0.0148919
0.0148634
0.0148318
0.014797
0.0147579
0.0147148
0.0146669
0.0146162
0.014563
0.0145091
0.0144515
0.0143892
0.0143172
0.0142356
0.0141421
0.0140392
0.0139262
0.0138059
0.0136773
0.0135418
0.0133976
0.0132449
0.0130816
0.0129078
0.0127219
0.0125239
0.0123129
0.0120879
0.011847
0.0115829
0.0112925
0.0109812
0.0106612
0.0103337
0.00998873
0.00961554
0.00920724
0.00876131
0.00827665
0.00775019
0.00717815
0.00655676
0.00588194
0.00515301
0.00436355
0.00351976
0.00261722
0.00165903
0.000641614
-0.000400241
-0.00149723
-0.0025738
-0.00353868
-0.00429384
-0.00432729
-0.00391025
0.0149205
0.0149049
0.0148843
0.0148592
0.0148302
0.0147988
0.0147644
0.014727
0.0146854
0.0146398
0.0145897
0.0145368
0.0144819
0.0144264
0.0143678
0.0143042
0.0142312
0.0141486
0.0140542
0.0139503
0.0138364
0.0137151
0.0135855
0.0134488
0.0133032
0.0131487
0.0129834
0.012807
0.0126179
0.0124162
0.0122004
0.0119704
0.0117229
0.0114524
0.0111542
0.0108343
0.0105046
0.0101664
0.00980991
0.00942472
0.00900446
0.00854681
0.00805116
0.00751479
0.00693445
0.00630676
0.00562809
0.00489733
0.00410838
0.00326635
0.00236747
0.00141155
0.000396858
-0.000643312
-0.00173573
-0.00280414
-0.00375612
-0.00449029
-0.00447672
-0.00399708
0.0148563
0.0148368
0.014813
0.0147848
0.0147528
0.0147183
0.0146809
0.0146405
0.0145962
0.0145481
0.0144956
0.0144408
0.0143843
0.0143277
0.0142681
0.0142038
0.0141301
0.0140469
0.013952
0.0138476
0.0137332
0.0136116
0.0134815
0.0133443
0.0131981
0.0130429
0.0128765
0.0126986
0.0125077
0.0123034
0.0120848
0.0118508
0.0115993
0.0113231
0.0110193
0.0106926
0.0103552
0.0100082
0.00964223
0.00924705
0.00881667
0.00834892
0.00784351
0.00729804
0.00670963
0.00607529
0.00539154
0.00465727
0.00386595
0.00302302
0.00212274
0.00116754
0.000152108
-0.000889975
-0.00198083
-0.00304338
-0.00398447
-0.00469966
-0.00464158
-0.00410102
0.0147787
0.0147549
0.0147272
0.0146953
0.0146597
0.0146216
0.0145809
0.0145373
0.0144903
0.0144396
0.0143851
0.0143286
0.014271
0.0142135
0.0141534
0.0140887
0.0140149
0.0139313
0.0138363
0.0137317
0.0136173
0.0134955
0.0133655
0.0132284
0.0130822
0.0129268
0.0127601
0.0125817
0.0123898
0.0121843
0.0119637
0.0117275
0.0114722
0.0111929
0.0108842
0.0105522
0.0102083
0.00985406
0.00948004
0.00907636
0.00863699
0.00816021
0.00764565
0.00709147
0.00649482
0.00585321
0.00516322
0.0044235
0.00362788
0.00278107
0.00187806
0.00091836
-0.000101139
-0.00114818
-0.00224042
-0.00329953
-0.00423131
-0.004928
-0.00482643
-0.00422979
0.0146834
0.014655
0.0146239
0.0145892
0.0145508
0.0145101
0.0144667
0.0144207
0.0143713
0.0143185
0.0142621
0.014204
0.0141451
0.0140867
0.0140259
0.0139608
0.0138866
0.013803
0.0137078
0.0136033
0.0134892
0.0133678
0.0132382
0.0131015
0.0129558
0.0128009
0.0126344
0.0124561
0.012264
0.0120579
0.0118364
0.0115984
0.0113415
0.0110586
0.0107465
0.0104098
0.0100602
0.00969982
0.00931899
0.00890792
0.00846077
0.00797595
0.00745324
0.00689093
0.00628648
0.00563744
0.00494066
0.00419438
0.0033927
0.00254015
0.00163097
0.000666481
-0.000359518
-0.00141441
-0.00251043
-0.00356783
-0.00449192
-0.00517195
-0.0050295
-0.00437834
0.0145771
0.0145442
0.014509
0.0144708
0.0144291
0.0143852
0.0143389
0.0142903
0.0142387
0.014184
0.014126
0.0140667
0.014007
0.0139481
0.0138872
0.0138219
0.0137478
0.0136641
0.0135691
0.0134648
0.0133511
0.0132302
0.0131013
0.0129654
0.0128204
0.0126662
0.0125004
0.0123225
0.0121307
0.0119246
0.0117026
0.0114637
0.0112046
0.0109195
0.0106038
0.0102627
0.00990831
0.00954236
0.00915542
0.00873743
0.00828301
0.00779051
0.00725995
0.00668962
0.00607722
0.00542027
0.00471587
0.00396174
0.00315271
0.00229264
0.00137649
0.000403135
-0.000631738
-0.00169665
-0.00279874
-0.0038562
-0.00477358
-0.0054369
-0.00525451
-0.004554
0.0144567
0.014419
0.0143799
0.0143381
0.014293
0.0142458
0.0141965
0.0141452
0.0140913
0.0140349
0.0139756
0.0139156
0.0138557
0.013797
0.0137366
0.0136719
0.0135984
0.0135154
0.0134212
0.0133176
0.0132048
0.0130847
0.0129568
0.0128218
0.0126777
0.0125243
0.0123593
0.0121821
0.0119908
0.0117847
0.0115623
0.0113222
0.0110616
0.0107735
0.0104544
0.0101094
0.00975061
0.00937968
0.00898695
0.00856248
0.00810112
0.00760141
0.00706338
0.00648537
0.00586517
0.00520023
0.00448781
0.00372522
0.00290778
0.0020391
0.00111398
0.000132301
-0.000913045
-0.00199017
-0.00310015
-0.00415905
-0.00507113
-0.00571953
-0.00549987
-0.00475134
0.0143156
0.014273
0.0142292
0.0141834
0.0141347
0.0140846
0.0140331
0.0139802
0.0139254
0.0138685
0.0138096
0.0137503
0.0136919
0.0136348
0.0135763
0.0135133
0.0134416
0.0133601
0.0132673
0.0131648
0.0130532
0.0129341
0.0128072
0.0126731
0.0125299
0.0123773
0.0122129
0.0120362
0.011845
0.0116388
0.0114156
0.0111742
0.010911
0.0106205
0.0102979
0.00994932
0.0095864
0.00921054
0.00881193
0.00838084
0.00791242
0.00740541
0.00685976
0.0062739
0.00564551
0.00497212
0.0042509
0.00347892
0.00265213
0.00177369
0.000839202
-0.000153882
-0.00121141
-0.0023024
-0.00342214
-0.004484
-0.00539147
-0.00602467
-0.00576867
-0.00497732
0.014143
0.0140952
0.0140496
0.0140038
0.0139567
0.0139085
0.0138593
0.0138086
0.0137558
0.0137007
0.0136434
0.0135857
0.0135287
0.0134731
0.0134159
0.0133543
0.0132839
0.0132035
0.0131117
0.0130104
0.0128996
0.0127815
0.0126554
0.0125219
0.0123793
0.012227
0.0120629
0.0118861
0.0116947
0.0114876
0.0112632
0.0110196
0.0107543
0.0104603
0.0101346
0.00978254
0.00941538
0.0090344
0.00862974
0.00819189
0.00771635
0.00720204
0.00664879
0.00605505
0.0054184
0.00473635
0.00400598
0.0032242
0.00238739
0.0014986
0.000553742
-0.000449885
-0.00152067
-0.00262732
-0.00375846
-0.00482464
-0.00572904
-0.00634899
-0.00605942
-0.00522616
0.014065
0.0140108
0.0139563
0.0139009
0.0138437
0.0137864
0.0137291
0.0136721
0.0136142
0.0135553
0.0134954
0.0134359
0.0133779
0.0133217
0.0132644
0.0132028
0.0131325
0.0130522
0.0129606
0.0128593
0.0127487
0.0126306
0.0125045
0.012371
0.0122283
0.0120758
0.0119112
0.0117338
0.0115413
0.0113328
0.0111062
0.0108603
0.0105916
0.0102947
0.00996547
0.00960953
0.00923777
0.00885121
0.00844002
0.00799496
0.00751189
0.00698987
0.00642862
0.00582655
0.00518111
0.00448978
0.0037495
0.00295707
0.00210941
0.00120935
0.000253651
-0.000763015
-0.00184854
-0.00297224
-0.0041164
-0.00518828
-0.00609021
-0.00669659
-0.00637443
-0.00550422
0.0139151
0.0138577
0.0138027
0.0137478
0.0136921
0.0136361
0.0135805
0.0135248
0.0134683
0.0134106
0.0133514
0.0132926
0.0132349
0.013179
0.0131218
0.01306
0.0129894
0.0129086
0.0128163
0.0127144
0.0126031
0.0124842
0.0123573
0.012223
0.0120793
0.0119257
0.0117599
0.011581
0.0113867
0.0111759
0.0109467
0.0106973
0.0104255
0.0101243
0.00979119
0.00943087
0.00905394
0.00866128
0.00824314
0.00779054
0.00729968
0.00676971
0.00620022
0.00558956
0.00493504
0.00423411
0.00348354
0.00268009
0.00182107
0.000909393
-5.7871e-05
-0.00108686
-0.00218807
-0.00333033
-0.00448908
-0.0055682
-0.00646949
-0.00706447
-0.0067125
-0.00580607
0.0138529
0.0137905
0.0137283
0.0136654
0.0136009
0.0135368
0.0134738
0.0134121
0.0133508
0.0132895
0.0132278
0.0131672
0.0131083
0.0130514
0.0129931
0.0129302
0.0128582
0.0127759
0.012682
0.0125782
0.0124652
0.0123445
0.0122159
0.0120797
0.0119342
0.0117786
0.0116107
0.0114294
0.0112323
0.0110185
0.0107856
0.0105324
0.0102558
0.00995054
0.00961267
0.00924734
0.00886458
0.00846516
0.00803946
0.00757878
0.0070796
0.00654112
0.00596281
0.00534293
0.00467866
0.00396737
0.00320571
0.00239031
0.00151906
0.000594651
-0.000384922
-0.00142854
-0.00254689
-0.00370895
-0.00488383
-0.00597158
-0.00687291
-0.00745625
-0.00707551
-0.00613718
0.0137149
0.013651
0.0135899
0.0135292
0.013468
0.0134068
0.0133466
0.0132872
0.013228
0.0131684
0.0131082
0.0130488
0.0129907
0.012934
0.0128755
0.0128117
0.0127382
0.012654
0.0125579
0.0124517
0.0123361
0.0122128
0.0120815
0.0119427
0.0117944
0.0116359
0.0114649
0.0112802
0.0110795
0.0108616
0.0106244
0.0103662
0.0100849
0.00977396
0.00943085
0.00905976
0.00867041
0.0082636
0.00782984
0.00736064
0.00685276
0.00630538
0.00571783
0.00508829
0.00441384
0.00369176
0.00291856
0.00209082
0.00120679
0.000269286
-0.00072324
-0.00178123
-0.00291762
-0.00410088
-0.00529348
-0.00639166
-0.00729521
-0.00786927
-0.00746249
-0.00649268
0.0136905
0.0136234
0.0135569
0.0134896
0.0134203
0.0133512
0.0132832
0.0132168
0.0131514
0.0130868
0.0130223
0.0129595
0.0128984
0.012839
0.0127777
0.0127109
0.0126342
0.0125465
0.0124467
0.0123369
0.0122176
0.0120907
0.0119558
0.0118133
0.0116612
0.0114988
0.0113237
0.0111348
0.0109294
0.0107066
0.0104641
0.0102004
0.00991282
0.00959618
0.00924672
0.008869
0.00847229
0.00805735
0.00761486
0.00713654
0.00661931
0.00606235
0.00546484
0.00482489
0.00413946
0.00340573
0.0026201
0.00177896
0.000881128
-7.09158e-05
-0.00107759
-0.00215227
-0.0033083
-0.00451388
-0.00572555
-0.00683543
-0.00774192
-0.00830655
-0.00787476
-0.00687724
0.0136235
0.0135579
0.013493
0.0134266
0.0133578
0.0132881
0.0132188
0.0131506
0.013083
0.0130161
0.0129496
0.0128846
0.0128215
0.0127598
0.0126958
0.0126257
0.0125452
0.0124534
0.0123492
0.0122348
0.0121109
0.0119794
0.0118399
0.0116928
0.011536
0.0113687
0.0111886
0.0109943
0.0107835
0.0105548
0.0103061
0.0100357
0.00974161
0.00941759
0.0090611
0.00867588
0.00827099
0.00784723
0.00739541
0.00690741
0.0063803
0.00581321
0.00520518
0.00455426
0.0038573
0.0031114
0.00231281
0.00145783
0.000545516
-0.000421468
-0.00144315
-0.00253474
-0.00371147
-0.00494073
-0.00617306
-0.0072966
-0.00820838
-0.00876594
-0.00831169
-0.00728681
0.0135725
0.013508
0.013445
0.0133808
0.0133139
0.0132453
0.0131762
0.0131071
0.0130381
0.012969
0.0129
0.0128323
0.0127662
0.0127012
0.0126334
0.0125589
0.0124736
0.0123765
0.0122668
0.0121468
0.0120174
0.0118803
0.0117353
0.0115825
0.01142
0.0112469
0.0110608
0.0108602
0.0106428
0.0104073
0.0101513
0.0098735
0.00957122
0.00923954
0.00887485
0.00848123
0.00806732
0.00763389
0.00717194
0.0066735
0.00613574
0.00555772
0.00493835
0.00427558
0.00356623
0.00280721
0.00199469
0.00112466
0.000196669
-0.000787068
-0.00182526
-0.00293622
-0.0041354
-0.00538949
-0.00664368
-0.00778203
-0.00869974
-0.00925012
-0.00877432
-0.00772533
0.0135335
0.0134697
0.0134081
0.0133458
0.0132808
0.0132137
0.0131453
0.0130762
0.0130062
0.0129357
0.0128646
0.0127945
0.0127257
0.0126577
0.0125862
0.0125075
0.0124172
0.0123146
0.012199
0.0120729
0.0119373
0.0117939
0.0116424
0.0114832
0.0113141
0.0111342
0.010941
0.0107332
0.0105082
0.0102647
0.0100006
0.00971406
0.0094033
0.00906233
0.00868871
0.00828572
0.00786182
0.00741787
0.006945
0.00643541
0.00588632
0.0052967
0.0046653
0.00399007
0.00326768
0.00249502
0.00166793
0.00078238
-0.000162111
-0.00116311
-0.00221879
-0.00334978
-0.00457263
-0.005853
-0.00713072
-0.00828594
-0.00921193
-0.00975738
-0.00926227
-0.0081893
0.0135196
0.013456
0.0133946
0.0133328
0.0132681
0.0132013
0.0131328
0.013063
0.0129917
0.0129191
0.0128454
0.0127724
0.0127004
0.0126289
0.0125535
0.0124702
0.0123747
0.0122663
0.0121446
0.012012
0.0118697
0.0117195
0.0115611
0.0113947
0.0112182
0.0110307
0.0108297
0.0106136
0.0103801
0.0101279
0.00985442
0.00955855
0.00923767
0.00888702
0.00850321
0.00808979
0.00765488
0.00719941
0.00671469
0.00619303
0.00563172
0.00502961
0.00438533
0.00369672
0.0029604
0.00217304
0.00133039
0.000427948
-0.000534354
-0.00155462
-0.00262958
-0.00378328
-0.00503171
-0.00633948
-0.00764168
-0.00881469
-0.00974942
-0.0102898
-0.00977615
-0.00868179
0.0135143
0.0134503
0.013389
0.0133275
0.0132634
0.013197
0.0131286
0.0130584
0.0129858
0.0129113
0.0128351
0.0127592
0.0126839
0.0126089
0.0125296
0.0124421
0.0123416
0.0122279
0.0121002
0.0119613
0.0118123
0.0116552
0.0114896
0.0113158
0.0111315
0.0109359
0.0107264
0.0105014
0.0102587
0.00999665
0.00971325
0.00940672
0.00907533
0.00871335
0.00831847
0.00789352
0.00744654
0.00697858
0.00648111
0.00594656
0.00537224
0.00475689
0.00409901
0.00339638
0.00264552
0.00184289
0.000984061
6.41198e-05
-0.000916762
-0.00195714