/*--------------------------------*- C++ -*----------------------------------*\
  =========                 |
  \\      /  F ield         | OpenFOAM: The Open Source CFD Toolbox
   \\    /   O peration     | Website:  https://openfoam.org
    \\  /    A nd           | Version:  6.0
     \\/     M anipulation  |
\*---------------------------------------------------------------------------*/
FoamFile
{
    version     2.0;
    format      ascii;
    class       volScalarField;
    location    "200";
    object      nuTilda;
}
// * * * * * * * * * * * * * * * * * * * * * * * * * * * * * * * * * * * * * //

dimensions      [0 2 -1 0 0 0 0];

internalField   nonuniform List<scalar> 
9800
(
0.14002
0.140008
0.140008
0.140007
0.140007
0.140007
0.140007
0.140008
0.140008
0.140009
0.140009
0.14001
0.140011
0.140012
0.140014
0.140015
0.140015
0.140016
0.140016
0.140015
0.140012
0.140009
0.140003
0.140004
0.14001
0.140013
0.140016
0.140017
0.140017
0.140017
0.140017
0.140016
0.140015
0.140013
0.140012
0.140011
0.14001
0.14001
0.140009
0.140009
0.140008
0.140007
0.140007
0.140006
0.140005
0.140004
0.140003
0.140002
0.140001
0.14
0.139998
0.139996
0.139993
0.139984
0.139975
0.139969
0.139965
0.139972
0.139981
0.139988
0.139995
0.14
0.140006
0.140011
0.140018
0.140025
0.140034
0.140045
0.140058
0.140074
0.140094
0.140119
0.140152
0.140195
0.140252
0.14033
0.14044
0.140616
0.1409
0.141093
0.141538
0.142417
0.142804
0.14301
0.143105
0.143248
0.143387
0.143477
0.143507
0.143484
0.14342
0.143327
0.143218
0.143103
0.14299
0.142872
0.142826
0.142682
0.143481
0.138331
0.140049
0.140042
0.140038
0.140035
0.140033
0.140031
0.140029
0.140027
0.140025
0.140023
0.140022
0.140021
0.140018
0.140012
0.140001
0.139993
0.139992
0.139991
0.13999
0.139991
0.140005
0.140004
0.139977
0.139982
0.140009
0.140011
0.139997
0.139994
0.139993
0.139994
0.139995
0.139998
0.14001
0.140017
0.140021
0.140023
0.140025
0.140026
0.140027
0.140029
0.14003
0.140031
0.140032
0.140033
0.140034
0.140035
0.140036
0.140037
0.140038
0.14004
0.140041
0.140042
0.140042
0.140041
0.140037
0.140032
0.140028
0.140029
0.140036
0.140047
0.14006
0.140074
0.140089
0.140106
0.140124
0.140143
0.140165
0.140188
0.140214
0.140244
0.140278
0.140317
0.140362
0.140415
0.140478
0.140553
0.140643
0.140754
0.140897
0.141005
0.141097
0.141209
0.141278
0.141327
0.141372
0.141412
0.141446
0.141474
0.1415
0.141526
0.141555
0.141585
0.141618
0.141651
0.141683
0.141712
0.14174
0.14175
0.141776
0.141739
0.140053
0.140042
0.140026
0.140011
0.139999
0.139996
0.139993
0.13999
0.139987
0.139985
0.139983
0.139979
0.139972
0.139963
0.139952
0.139946
0.139945
0.139947
0.13996
0.139979
0.139997
0.139993
0.139952
0.139949
0.139996
0.140002
0.139982
0.139957
0.139948
0.139948
0.13995
0.139954
0.139964
0.139974
0.139982
0.139986
0.139989
0.139991
0.139992
0.139994
0.139995
0.139996
0.139998
0.139999
0.14
0.140001
0.140003
0.140004
0.140005
0.140006
0.140007
0.140009
0.14001
0.14001
0.14001
0.140008
0.140005
0.140003
0.140001
0.140003
0.140006
0.140012
0.14002
0.140028
0.140039
0.140051
0.140064
0.140085
0.140113
0.140143
0.140175
0.140209
0.140245
0.140284
0.140326
0.140373
0.140425
0.140483
0.140547
0.140615
0.14069
0.140772
0.140857
0.140946
0.141042
0.141142
0.141246
0.141351
0.141457
0.141563
0.141667
0.141769
0.141867
0.141962
0.142051
0.142135
0.142214
0.142288
0.142351
0.142441
0.139991
0.139977
0.139962
0.139952
0.139946
0.139945
0.139945
0.139947
0.139948
0.139945
0.139943
0.139944
0.139942
0.139936
0.139931
0.139928
0.13993
0.139938
0.139955
0.139978
0.139992
0.13998
0.13993
0.139915
0.139977
0.139993
0.139977
0.139949
0.139932
0.139922
0.13991
0.139906
0.139911
0.13992
0.139928
0.139934
0.139938
0.13994
0.139941
0.139942
0.139943
0.139944
0.139944
0.139945
0.139945
0.139945
0.139946
0.139946
0.139946
0.139946
0.139946
0.139946
0.139946
0.139946
0.139945
0.139944
0.139943
0.13994
0.139937
0.139938
0.139943
0.139949
0.139957
0.139966
0.139975
0.139984
0.139995
0.140007
0.140022
0.140039
0.140059
0.140081
0.140104
0.140129
0.140154
0.14018
0.140206
0.140233
0.14026
0.140287
0.140314
0.14034
0.14037
0.140403
0.140436
0.140469
0.140501
0.140532
0.140562
0.140591
0.140618
0.140643
0.140664
0.140683
0.140701
0.140717
0.140732
0.140747
0.140765
0.140782
0.139911
0.139902
0.139888
0.139883
0.139881
0.139882
0.139884
0.139886
0.139886
0.139886
0.139886
0.139887
0.139887
0.139886
0.139891
0.139901
0.139914
0.13993
0.139953
0.139975
0.139982
0.13996
0.139894
0.139878
0.139948
0.139976
0.139966
0.139936
0.139903
0.139877
0.13986
0.139851
0.13985
0.139855
0.139862
0.139868
0.139872
0.139875
0.139877
0.139878
0.139878
0.139879
0.139879
0.13988
0.13988
0.13988
0.13988
0.13988
0.13988
0.13988
0.139881
0.139886
0.139894
0.139901
0.139908
0.139914
0.139919
0.139922
0.139925
0.139927
0.13993
0.139934
0.139939
0.139944
0.139951
0.139957
0.139965
0.139973
0.139981
0.13999
0.140001
0.140012
0.140024
0.140037
0.14005
0.140064
0.140077
0.14009
0.140102
0.140113
0.140123
0.140132
0.140141
0.140151
0.140161
0.140172
0.140183
0.140195
0.140208
0.140221
0.140235
0.140248
0.140261
0.140275
0.140288
0.140301
0.140314
0.140327
0.140342
0.140358
0.139819
0.139813
0.139809
0.139809
0.13981
0.139812
0.139814
0.139814
0.139814
0.139814
0.139814
0.139815
0.139816
0.139821
0.139835
0.139861
0.13989
0.139919
0.139946
0.139965
0.139965
0.139929
0.139847
0.139835
0.139908
0.139947
0.139945
0.139913
0.139863
0.139823
0.1398
0.139788
0.139783
0.139783
0.139786
0.139791
0.139795
0.139798
0.1398
0.139801
0.139802
0.139802
0.139802
0.139802
0.139802
0.139802
0.139801
0.139801
0.1398
0.1398
0.1398
0.139801
0.139804
0.139808
0.139813
0.139819
0.139824
0.139829
0.139833
0.139837
0.13984
0.139842
0.139845
0.139849
0.139854
0.139861
0.139868
0.139876
0.139884
0.139893
0.139902
0.13991
0.139919
0.139928
0.139937
0.139946
0.139955
0.139964
0.139973
0.139981
0.13999
0.139998
0.140006
0.140014
0.140022
0.140031
0.140039
0.140048
0.140058
0.140068
0.140079
0.14009
0.140101
0.140113
0.140125
0.140137
0.140149
0.140161
0.140175
0.140193
0.139743
0.139725
0.139726
0.139728
0.13973
0.139731
0.139732
0.139734
0.139737
0.139743
0.139753
0.139761
0.139771
0.139786
0.13981
0.139843
0.139879
0.139912
0.139938
0.139951
0.139939
0.139888
0.139795
0.139784
0.13986
0.139911
0.139918
0.139892
0.139843
0.139793
0.139755
0.139725
0.139709
0.139704
0.139704
0.139706
0.139709
0.139712
0.139714
0.139715
0.139716
0.139716
0.139716
0.139715
0.139714
0.139713
0.139711
0.13971
0.139709
0.139707
0.139705
0.139703
0.139702
0.139701
0.139701
0.139702
0.139704
0.139705
0.139707
0.13971
0.139712
0.139714
0.139715
0.139716
0.139718
0.139719
0.13972
0.139722
0.139724
0.139728
0.139735
0.139743
0.139753
0.139764
0.139775
0.139786
0.139798
0.139809
0.13982
0.13983
0.13984
0.13985
0.13986
0.139869
0.139878
0.139887
0.139895
0.139904
0.139912
0.13992
0.139928
0.139937
0.139945
0.139954
0.139962
0.139971
0.139979
0.139987
0.139997
0.140013
0.13966
0.139635
0.139643
0.13965
0.139657
0.139663
0.139669
0.139677
0.139687
0.1397
0.139717
0.139731
0.139749
0.139773
0.139804
0.13984
0.139876
0.139907
0.139928
0.13993
0.139904
0.139838
0.139736
0.139724
0.139798
0.139863
0.139884
0.139869
0.139829
0.139779
0.139732
0.139689
0.139657
0.139635
0.13962
0.139613
0.139612
0.139613
0.139615
0.139617
0.139618
0.139618
0.139618
0.139616
0.139615
0.139612
0.13961
0.139608
0.139605
0.139602
0.139599
0.139595
0.139592
0.139588
0.139584
0.139581
0.139578
0.139575
0.139572
0.13957
0.139568
0.139566
0.139565
0.139564
0.139562
0.13956
0.139559
0.139557
0.139555
0.139552
0.13955
0.139548
0.139546
0.139546
0.139547
0.139551
0.139558
0.139568
0.139579
0.13959
0.139602
0.139615
0.139627
0.139639
0.139651
0.139662
0.139673
0.139683
0.139693
0.139702
0.13971
0.139718
0.139726
0.139733
0.139739
0.139745
0.139751
0.139757
0.139762
0.139775
0.139579
0.139559
0.139575
0.139587
0.139599
0.139611
0.139624
0.139638
0.139655
0.139675
0.139698
0.139718
0.139743
0.139774
0.139807
0.139842
0.139874
0.139899
0.139909
0.139898
0.139855
0.139775
0.139667
0.13965
0.139713
0.139797
0.139837
0.139838
0.139811
0.139767
0.13972
0.13967
0.139625
0.139586
0.139553
0.139529
0.139514
0.139506
0.139502
0.139501
0.139501
0.139502
0.139502
0.139501
0.1395
0.139497
0.139495
0.139491
0.139488
0.139484
0.139479
0.139475
0.13947
0.139464
0.139459
0.139453
0.139447
0.13944
0.139434
0.139428
0.139421
0.139415
0.139409
0.139403
0.139397
0.139391
0.139385
0.13938
0.139374
0.139368
0.139362
0.139355
0.139348
0.139341
0.139334
0.139327
0.13932
0.139314
0.13931
0.139311
0.139316
0.139324
0.139334
0.139345
0.139357
0.139369
0.139381
0.139392
0.139403
0.139414
0.139424
0.139433
0.139441
0.139449
0.139456
0.139462
0.139468
0.139473
0.139479
0.139488
0.139541
0.139533
0.139549
0.139563
0.139578
0.139594
0.139611
0.13963
0.139651
0.139674
0.1397
0.139726
0.139754
0.139786
0.139817
0.139847
0.139871
0.139884
0.13988
0.139852
0.139792
0.139695
0.139582
0.139555
0.139603
0.139705
0.139768
0.13979
0.139781
0.139751
0.13971
0.139661
0.139611
0.139563
0.139518
0.139479
0.139446
0.139421
0.139403
0.139389
0.139379
0.139372
0.139367
0.139364
0.139361
0.139358
0.139355
0.139352
0.139348
0.139343
0.139338
0.139333
0.139327
0.139321
0.139314
0.139307
0.1393
0.139292
0.139284
0.139275
0.139266
0.139257
0.139247
0.139237
0.139227
0.139217
0.139207
0.139197
0.139187
0.139176
0.139166
0.139155
0.139145
0.139134
0.139122
0.139111
0.139099
0.139087
0.139075
0.139063
0.139051
0.139041
0.139036
0.139036
0.139039
0.139045
0.139053
0.139062
0.139071
0.13908
0.139089
0.139098
0.139106
0.139113
0.139119
0.139125
0.13913
0.139134
0.139139
0.139145
0.139498
0.139493
0.139512
0.139533
0.139554
0.139576
0.139599
0.139623
0.139649
0.139676
0.139706
0.139734
0.139763
0.139792
0.139818
0.139839
0.139851
0.139848
0.139826
0.139777
0.139695
0.139579
0.139469
0.139438
0.139482
0.139595
0.139681
0.139727
0.139739
0.139727
0.139699
0.139659
0.139613
0.139565
0.139517
0.139471
0.139427
0.139388
0.139354
0.139324
0.139299
0.139277
0.139258
0.139243
0.13923
0.139218
0.139208
0.139199
0.139191
0.139183
0.139175
0.139168
0.13916
0.139153
0.139145
0.139136
0.139128
0.139119
0.139109
0.1391
0.139089
0.139078
0.139067
0.139055
0.139042
0.139029
0.139016
0.139003
0.138989
0.138974
0.138959
0.138945
0.13893
0.138915
0.1389
0.138884
0.138869
0.138853
0.138838
0.138821
0.138805
0.138788
0.138772
0.138756
0.138744
0.138739
0.138738
0.138741
0.138745
0.138751
0.138758
0.138765
0.138772
0.138779
0.138786
0.138792
0.138797
0.138802
0.138808
0.138815
0.139514
0.139517
0.139535
0.139556
0.139577
0.1396
0.139625
0.13965
0.139676
0.139704
0.139733
0.139759
0.139784
0.139805
0.139821
0.139829
0.139825
0.139804
0.13976
0.139688
0.139584
0.139451
0.139333
0.139294
0.139329
0.139423
0.139534
0.139609
0.139649
0.13966
0.139652
0.139627
0.139591
0.139548
0.139501
0.139453
0.139403
0.139354
0.139306
0.139261
0.139219
0.139179
0.139142
0.139108
0.13908
0.139055
0.139033
0.139014
0.138998
0.138984
0.138971
0.13896
0.138949
0.138939
0.138929
0.13892
0.13891
0.1389
0.138889
0.138878
0.138867
0.138854
0.138842
0.138829
0.138815
0.138801
0.138786
0.13877
0.138754
0.138737
0.13872
0.138702
0.138684
0.138666
0.138648
0.138629
0.13861
0.138591
0.138572
0.138553
0.138533
0.138513
0.138493
0.138472
0.138451
0.13843
0.13841
0.138392
0.138379
0.138371
0.138367
0.138365
0.138365
0.138366
0.138367
0.138368
0.13837
0.138371
0.138374
0.138373
0.13939
0.139374
0.139402
0.139439
0.139476
0.139511
0.139545
0.139578
0.13961
0.139643
0.139679
0.139705
0.139725
0.139738
0.139741
0.139732
0.139705
0.139657
0.139581
0.139475
0.139341
0.139209
0.139126
0.139102
0.139145
0.13925
0.139385
0.13949
0.139559
0.139597
0.139612
0.139606
0.139585
0.139554
0.139516
0.139473
0.139427
0.139379
0.139329
0.139278
0.139227
0.139176
0.139125
0.139076
0.139029
0.138983
0.138941
0.138902
0.138866
0.138832
0.138801
0.138773
0.138747
0.138725
0.138704
0.138685
0.138668
0.138651
0.138636
0.13862
0.138604
0.138588
0.138572
0.138556
0.13854
0.138523
0.138506
0.138488
0.138469
0.13845
0.138431
0.13841
0.13839
0.138368
0.138346
0.138324
0.138301
0.138278
0.138255
0.138232
0.138209
0.138186
0.138162
0.138138
0.138113
0.138089
0.138063
0.138038
0.138015
0.137999
0.13799
0.137984
0.137981
0.13798
0.137981
0.137983
0.137985
0.137987
0.137991
0.137993
0.139475
0.139483
0.139511
0.139544
0.139577
0.139609
0.13964
0.13967
0.139698
0.139724
0.139747
0.13976
0.139763
0.139756
0.139736
0.139699
0.139642
0.139563
0.139459
0.139332
0.139186
0.139036
0.138905
0.138852
0.138861
0.13892
0.139005
0.139093
0.139174
0.139245
0.139303
0.139329
0.13933
0.139312
0.139278
0.139235
0.139186
0.139135
0.139082
0.139031
0.138978
0.138927
0.138876
0.138826
0.138777
0.138729
0.138682
0.138638
0.138595
0.138555
0.138517
0.138481
0.138447
0.138416
0.138387
0.138359
0.138334
0.13831
0.138288
0.138265
0.138243
0.138222
0.138201
0.13818
0.13816
0.138139
0.138119
0.138097
0.138075
0.138053
0.13803
0.138006
0.137982
0.137958
0.137934
0.137909
0.137884
0.137858
0.137833
0.137807
0.137781
0.137754
0.137726
0.137699
0.13767
0.137641
0.137611
0.137581
0.13755
0.137519
0.137488
0.137456
0.137424
0.137391
0.137358
0.137327
0.137296
0.137267
0.137248
0.137215
0.139096
0.139083
0.139104
0.139131
0.139158
0.139183
0.139205
0.139223
0.139238
0.139248
0.13925
0.139244
0.139228
0.139199
0.139158
0.139101
0.139029
0.138942
0.138842
0.138734
0.138627
0.138532
0.13847
0.138462
0.138513
0.138628
0.138772
0.138899
0.139008
0.139099
0.139174
0.139225
0.139254
0.139263
0.139255
0.139233
0.139202
0.139163
0.139118
0.139071
0.139021
0.13897
0.138917
0.138864
0.138809
0.138754
0.138699
0.138642
0.138585
0.138528
0.13847
0.138411
0.138351
0.138291
0.138231
0.138174
0.138119
0.138067
0.138019
0.137974
0.137932
0.137892
0.137854
0.137817
0.137782
0.137748
0.137714
0.137682
0.137649
0.137617
0.137585
0.137552
0.137519
0.137487
0.137453
0.13742
0.137386
0.137352
0.137317
0.137282
0.137248
0.137213
0.137178
0.137142
0.137107
0.137071
0.137035
0.136998
0.136961
0.136923
0.136885
0.136846
0.136808
0.136776
0.136752
0.136735
0.136723
0.136714
0.13671
0.136697
0.139181
0.139177
0.139185
0.139197
0.139208
0.139217
0.139222
0.139223
0.139219
0.139207
0.139188
0.13916
0.139119
0.139067
0.139003
0.138928
0.138842
0.138747
0.138645
0.13854
0.138435
0.138332
0.138234
0.138139
0.138051
0.138022
0.13805
0.138103
0.138165
0.138228
0.138287
0.138338
0.138375
0.1384
0.138412
0.138414
0.138405
0.138386
0.138361
0.138329
0.138292
0.138252
0.138209
0.138163
0.138115
0.138066
0.138016
0.137964
0.137912
0.137857
0.137802
0.137746
0.137689
0.137632
0.137573
0.137515
0.137457
0.1374
0.137345
0.137291
0.137239
0.137188
0.13714
0.137093
0.137048
0.137004
0.136962
0.136921
0.136881
0.136842
0.136804
0.136767
0.136729
0.136693
0.136656
0.136619
0.136582
0.136545
0.136508
0.13647
0.136432
0.136393
0.136354
0.136314
0.136273
0.136231
0.136188
0.136144
0.1361
0.136054
0.136007
0.135959
0.13591
0.135859
0.135806
0.135752
0.135696
0.135639
0.135581
0.135527
0.138577
0.138665
0.138685
0.138669
0.13864
0.138607
0.138573
0.138538
0.138498
0.138442
0.13837
0.138303
0.138236
0.138167
0.138099
0.138034
0.137975
0.137923
0.13788
0.137846
0.13782
0.137802
0.13779
0.137785
0.137788
0.137808
0.137844
0.137891
0.137944
0.137999
0.138052
0.1381
0.138142
0.138177
0.138204
0.138224
0.138236
0.13824
0.138237
0.138227
0.138212
0.138192
0.138167
0.138138
0.138105
0.13807
0.138033
0.137993
0.137951
0.137907
0.137861
0.137813
0.137763
0.13771
0.137656
0.137599
0.13754
0.137478
0.137414
0.137347
0.13728
0.137213
0.137143
0.137068
0.136985
0.136896
0.136798
0.136697
0.136593
0.136492
0.136395
0.136302
0.136212
0.136127
0.136045
0.135965
0.135887
0.135812
0.135737
0.135663
0.135591
0.135519
0.135447
0.135374
0.135302
0.135229
0.135155
0.135082
0.13501
0.134938
0.134866
0.134794
0.134722
0.134649
0.134574
0.134498
0.134421
0.134343
0.134268
0.134199
0.138586
0.138561
0.138522
0.138476
0.138428
0.13838
0.138331
0.138283
0.138235
0.138186
0.13814
0.138097
0.138054
0.138012
0.137972
0.137935
0.137902
0.137873
0.137848
0.137825
0.137806
0.137787
0.137769
0.137752
0.137733
0.137713
0.13769
0.137666
0.137637
0.137604
0.137567
0.137536
0.137513
0.137494
0.137476
0.137459
0.137438
0.137414
0.137386
0.137356
0.137324
0.137287
0.137246
0.1372
0.13715
0.137096
0.137039
0.136982
0.13692
0.136854
0.136784
0.136711
0.136635
0.136555
0.136472
0.136387
0.136298
0.136208
0.136114
0.136018
0.135917
0.135815
0.135714
0.135616
0.13552
0.135421
0.135321
0.13522
0.13512
0.135022
0.134923
0.134825
0.134731
0.134636
0.134542
0.134447
0.134352
0.134261
0.134168
0.134074
0.133982
0.133889
0.133793
0.133697
0.133598
0.133499
0.133399
0.133297
0.133195
0.133091
0.132987
0.132881
0.132775
0.132667
0.132557
0.132446
0.13233
0.132211
0.132092
0.131992
0.138881
0.139119
0.139259
0.13933
0.139358
0.139359
0.139342
0.139312
0.139269
0.139212
0.139158
0.139109
0.139064
0.139022
0.138985
0.138951
0.13892
0.138892
0.138867
0.138845
0.138825
0.138807
0.13879
0.138774
0.138759
0.138745
0.138729
0.13871
0.138687
0.138654
0.138613
0.138578
0.138537
0.138496
0.138454
0.138412
0.138369
0.138324
0.138279
0.13823
0.13818
0.138127
0.138072
0.138014
0.137955
0.137892
0.137824
0.137753
0.137678
0.137598
0.137511
0.137417
0.137315
0.137206
0.137089
0.136964
0.136831
0.136691
0.136545
0.136394
0.136236
0.13607
0.135904
0.135717
0.135518
0.135302
0.135069
0.134821
0.134554
0.13427
0.133973
0.133665
0.133353
0.133044
0.132744
0.132452
0.132171
0.131898
0.131631
0.131371
0.131116
0.130867
0.130622
0.130378
0.130137
0.129897
0.129657
0.129418
0.129179
0.128939
0.128698
0.128455
0.128211
0.127964
0.127719
0.127474
0.127229
0.12699
0.126767
0.126593
0.134907
0.133863
0.133576
0.133593
0.133628
0.133592
0.13347
0.133262
0.132978
0.132662
0.1327
0.132056
0.131497
0.131063
0.130705
0.13039
0.130096
0.129813
0.12953
0.129244
0.128951
0.128649
0.128338
0.128016
0.127685
0.127345
0.126998
0.126646
0.126292
0.12595
0.125759
0.12623
0.126113
0.12593
0.125691
0.125405
0.125078
0.124714
0.124318
0.123893
0.123441
0.122963
0.122462
0.121939
0.121395
0.120833
0.120253
0.119658
0.11905
0.118432
0.117807
0.117179
0.11656
0.115958
0.115376
0.114816
0.114274
0.113745
0.113223
0.112695
0.112138
0.111757
0.111765
0.111393
0.111009
0.110625
0.11024
0.109854
0.109469
0.109083
0.108699
0.108316
0.107934
0.107556
0.10718
0.106809
0.106441
0.106077
0.105718
0.105363
0.105013
0.104668
0.104327
0.103992
0.103662
0.103338
0.103019
0.102705
0.102396
0.102095
0.1018
0.101515
0.10124
0.10098
0.100743
0.100545
0.100425
0.100461
0.100787
0.101647
0.201658
0.217671
0.233414
0.248363
0.262577
0.276142
0.289127
0.30159
0.313575
0.325119
0.336253
0.347007
0.357404
0.367466
0.377211
0.386656
0.395835
0.404715
0.413327
0.421694
0.429824
0.437723
0.4454
0.452859
0.460106
0.467146
0.473983
0.48062
0.487063
0.493313
0.499374
0.50525
0.510857
0.516175
0.521505
0.52667
0.531668
0.536503
0.541178
0.545699
0.550069
0.554293
0.558379
0.562332
0.56616
0.569871
0.573476
0.576746
0.579819
0.583187
0.586508
0.589788
0.593047
0.596305
0.599585
0.602915
0.606322
0.60984
0.613501
0.61682
0.62039
0.62485
0.629627
0.63475
0.640264
0.646212
0.652642
0.658132
0.666541
0.674561
0.141849
0.141911
0.141997
0.142104
0.142232
0.142378
0.142534
0.142698
0.14287
0.143053
0.143249
0.14346
0.143688
0.143933
0.144198
0.144482
0.144792
0.14512
0.145468
0.145842
0.14624
0.146665
0.147115
0.147592
0.148096
0.148627
0.149185
0.149769
0.150381
0.151019
0.151685
0.152377
0.153072
0.153758
0.154522
0.155317
0.156137
0.156982
0.157852
0.158745
0.15966
0.160597
0.161556
0.162535
0.163535
0.164555
0.165597
0.166575
0.167529
0.168633
0.169766
0.170916
0.17208
0.173259
0.174452
0.175662
0.17689
0.17814
0.179417
0.180511
0.181645
0.183077
0.184573
0.186125
0.187755
0.189498
0.191407
0.192876
0.195782
0.198772
0.142397
0.142369
0.142338
0.142306
0.142273
0.142241
0.142208
0.142174
0.142139
0.142102
0.142063
0.142021
0.141976
0.141928
0.141877
0.141822
0.141765
0.141704
0.141639
0.141571
0.141499
0.141423
0.141343
0.141259
0.141172
0.141081
0.140987
0.140889
0.140787
0.140682
0.140573
0.14046
0.140341
0.140217
0.14009
0.139959
0.139825
0.139688
0.139547
0.139403
0.139257
0.139107
0.138955
0.138801
0.138644
0.138485
0.138323
0.138151
0.137971
0.137796
0.13762
0.137445
0.137269
0.137093
0.136918
0.136743
0.136568
0.136394
0.13622
0.136023
0.13582
0.135637
0.135461
0.13529
0.135123
0.134964
0.134815
0.134599
0.134522
0.134467
0.140756
0.140748
0.140741
0.140733
0.140724
0.140715
0.140706
0.140698
0.140691
0.140684
0.140678
0.140673
0.140668
0.140663
0.140659
0.140655
0.140651
0.140648
0.140644
0.140641
0.140638
0.140634
0.140631
0.140628
0.140625
0.140622
0.140618
0.140615
0.140611
0.140608
0.140604
0.140601
0.140597
0.140592
0.140588
0.140583
0.140578
0.140573
0.140567
0.140561
0.140553
0.140546
0.140537
0.140528
0.140518
0.140507
0.140495
0.140481
0.140467
0.140451
0.140434
0.140415
0.140397
0.140377
0.140357
0.140336
0.140314
0.140291
0.140267
0.140243
0.140216
0.140187
0.140157
0.140127
0.140097
0.140066
0.140033
0.140003
0.139959
0.139918
0.140337
0.140328
0.14032
0.140311
0.140301
0.140292
0.140282
0.140273
0.140263
0.140254
0.140245
0.140238
0.140231
0.140225
0.140219
0.140213
0.140207
0.140202
0.140198
0.140193
0.140189
0.140186
0.140183
0.140181
0.140179
0.140178
0.140177
0.140177
0.140178
0.140179
0.140181
0.140184
0.140188
0.140192
0.140198
0.140204
0.140211
0.140219
0.140228
0.140237
0.140247
0.140258
0.14027
0.140282
0.140294
0.140307
0.14032
0.140334
0.140349
0.140364
0.140381
0.140398
0.140415
0.140433
0.140452
0.140472
0.140492
0.140513
0.140534
0.140555
0.140579
0.140604
0.140629
0.140656
0.140682
0.140708
0.140732
0.140755
0.140772
0.140781
0.140169
0.140158
0.140147
0.140137
0.140126
0.140114
0.140103
0.140092
0.140081
0.140069
0.140058
0.140048
0.140039
0.140031
0.140023
0.140015
0.140007
0.14
0.139994
0.139987
0.139982
0.139976
0.139972
0.139968
0.139964
0.139962
0.13996
0.139959
0.139958
0.139959
0.13996
0.139962
0.139965
0.139969
0.139974
0.13998
0.139987
0.139995
0.140003
0.140013
0.140023
0.140035
0.140047
0.140059
0.140072
0.140086
0.1401
0.140115
0.14013
0.140147
0.140164
0.140182
0.140201
0.14022
0.14024
0.140261
0.140283
0.140305
0.140327
0.140349
0.140373
0.1404
0.140427
0.140454
0.140482
0.14051
0.140535
0.140558
0.140579
0.14059
0.139983
0.13997
0.139956
0.139943
0.13993
0.139917
0.139904
0.139892
0.13988
0.139869
0.13986
0.139852
0.139844
0.139837
0.13983
0.139824
0.139818
0.139813
0.139808
0.139804
0.139801
0.139798
0.139796
0.139795
0.139795
0.139795
0.139796
0.139798
0.139801
0.139804
0.139809
0.139814
0.13982
0.139827
0.139836
0.139845
0.139854
0.139865
0.139877
0.139889
0.139902
0.139916
0.139931
0.139946
0.139962
0.139978
0.139995
0.140012
0.140029
0.140048
0.140067
0.140087
0.140107
0.140129
0.14015
0.140173
0.140196
0.140219
0.140242
0.140265
0.140289
0.140316
0.140343
0.140371
0.140399
0.140426
0.14045
0.140473
0.140493
0.140503
0.139741
0.139727
0.139712
0.139698
0.139685
0.139671
0.139658
0.139646
0.139635
0.139626
0.139619
0.139612
0.139606
0.139601
0.139596
0.139591
0.139587
0.139584
0.139582
0.13958
0.139579
0.139579
0.139579
0.13958
0.139582
0.139585
0.139589
0.139593
0.139598
0.139604
0.139611
0.139618
0.139626
0.139635
0.139645
0.139656
0.139667
0.13968
0.139693
0.139706
0.139721
0.139736
0.139752
0.139769
0.139786
0.139803
0.13982
0.139838
0.139857
0.139876
0.139896
0.139917
0.139938
0.13996
0.139983
0.140006
0.140029
0.140053
0.140076
0.140099
0.140124
0.140151
0.140179
0.140207
0.140235
0.140262
0.140287
0.140309
0.140329
0.140339
0.139458
0.139446
0.139433
0.139421
0.13941
0.139399
0.139388
0.13938
0.139373
0.139367
0.139363
0.13936
0.139357
0.139354
0.139353
0.139351
0.139351
0.13935
0.139351
0.139352
0.139354
0.139356
0.139359
0.139363
0.139367
0.139373
0.139378
0.139385
0.139392
0.1394
0.139408
0.139418
0.139427
0.139438
0.139449
0.139461
0.139473
0.139487
0.139501
0.139516
0.139531
0.139547
0.139564
0.139581
0.139598
0.139616
0.139634
0.139652
0.139671
0.139691
0.139711
0.139732
0.139754
0.139776
0.139799
0.139823
0.139846
0.13987
0.139893
0.139916
0.139941
0.139967
0.139995
0.140023
0.140051
0.140078
0.140102
0.140124
0.140143
0.140153
0.13912
0.139111
0.139101
0.139093
0.139084
0.139076
0.13907
0.139064
0.13906
0.139058
0.139058
0.139058
0.139059
0.139061
0.139062
0.139064
0.139067
0.13907
0.139073
0.139077
0.139081
0.139086
0.139091
0.139097
0.139103
0.13911
0.139117
0.139125
0.139134
0.139143
0.139153
0.139163
0.139174
0.139185
0.139197
0.139209
0.139223
0.139236
0.139251
0.139266
0.139282
0.139298
0.139315
0.139332
0.13935
0.139368
0.139385
0.139403
0.139422
0.139442
0.139462
0.139483
0.139504
0.139527
0.139549
0.139573
0.139596
0.139619
0.139642
0.139665
0.139689
0.139716
0.139743
0.139771
0.139799
0.139826
0.139849
0.139871
0.139891
0.139902
0.138796
0.138789
0.138782
0.138776
0.138771
0.138767
0.138763
0.13876
0.138759
0.138758
0.138759
0.138761
0.138765
0.138769
0.138775
0.138781
0.138787
0.138793
0.138799
0.138806
0.138812
0.138819
0.138825
0.138833
0.13884
0.138848
0.138856
0.138865
0.138874
0.138884
0.138894
0.138904
0.138915
0.138926
0.138938
0.13895
0.138963
0.138977
0.138991
0.139005
0.139021
0.139037
0.139053
0.13907
0.139087
0.139104
0.139122
0.139139
0.139157
0.139177
0.139197
0.139217
0.139238
0.13926
0.139283
0.139306
0.13933
0.139353
0.139375
0.139398
0.139422
0.139449
0.139476
0.139505
0.139533
0.13956
0.139584
0.139606
0.139627
0.139637
0.138351
0.138346
0.138341
0.138338
0.138334
0.138331
0.138328
0.138326
0.138325
0.138324
0.138324
0.138325
0.138327
0.138331
0.138336
0.138342
0.138349
0.138358
0.138369
0.13838
0.138391
0.138402
0.138413
0.138424
0.138435
0.138446
0.138457
0.138468
0.138479
0.138491
0.138502
0.138514
0.138526
0.138538
0.13855
0.138564
0.138577
0.138591
0.138605
0.13862
0.138635
0.138651
0.138668
0.138684
0.138701
0.138719
0.138736
0.138753
0.13877
0.138789
0.138809
0.13883
0.138851
0.138872
0.138895
0.138918
0.138942
0.138965
0.138988
0.13901
0.139034
0.139061
0.13909
0.139119
0.139148
0.139176
0.139201
0.139224
0.139246
0.139257
0.137979
0.137978
0.137977
0.137976
0.137977
0.137977
0.137977
0.137977
0.137975
0.137973
0.137971
0.137969
0.137968
0.137967
0.137966
0.137966
0.137966
0.137967
0.137968
0.13797
0.137973
0.137977
0.137981
0.137987
0.137993
0.138001
0.138011
0.138022
0.138034
0.138048
0.138064
0.138081
0.138099
0.138118
0.138138
0.138158
0.138177
0.138196
0.138216
0.138235
0.138253
0.138272
0.138291
0.138309
0.138328
0.138346
0.138364
0.138381
0.138399
0.138418
0.138437
0.138458
0.138478
0.1385
0.138522
0.138545
0.138568
0.138591
0.138613
0.138635
0.138659
0.138686
0.138714
0.138744
0.138774
0.138802
0.138828
0.138851
0.138874
0.138885
0.137188
0.137187
0.137188
0.13719
0.137193
0.137195
0.137198
0.137201
0.137204
0.137207
0.137211
0.137214
0.137218
0.137221
0.137225
0.137228
0.137232
0.137235
0.137239
0.137242
0.137246
0.13725
0.137253
0.137257
0.137262
0.137267
0.137272
0.137278
0.137285
0.137292
0.1373
0.137309
0.137319
0.137329
0.137341
0.137354
0.137368
0.137384
0.137402
0.137421
0.137442
0.137466
0.137491
0.137519
0.137549
0.13758
0.137612
0.137641
0.137671
0.137702
0.137734
0.137765
0.137796
0.137827
0.137858
0.137889
0.13792
0.13795
0.137978
0.138004
0.138033
0.138065
0.138099
0.138134
0.138169
0.138203
0.138232
0.138259
0.138287
0.138301
0.136681
0.136689
0.136701
0.136715
0.136731
0.136747
0.136763
0.136778
0.136793
0.136808
0.136823
0.136838
0.136852
0.136866
0.136879
0.136893
0.136906
0.136918
0.13693
0.136941
0.136952
0.136962
0.136972
0.136981
0.136989
0.136997
0.137004
0.13701
0.137015
0.137019
0.137022
0.137023
0.137021
0.137018
0.137013
0.137007
0.136999
0.136989
0.136979
0.136968
0.136957
0.136946
0.136935
0.136926
0.136918
0.136911
0.136906
0.136902
0.136899
0.136899
0.136901
0.136905
0.136913
0.136923
0.136937
0.136954
0.136974
0.136997
0.13702
0.137043
0.13707
0.137106
0.137147
0.137195
0.137247
0.137299
0.137345
0.137385
0.137427
0.137442
0.135489
0.135492
0.135498
0.135504
0.135511
0.135519
0.135527
0.135535
0.135544
0.135552
0.135562
0.135571
0.135581
0.135591
0.135602
0.135613
0.135624
0.135636
0.135649
0.135662
0.135676
0.13569
0.135705
0.135721
0.135738
0.135755
0.135773
0.135791
0.13581
0.13583
0.135849
0.135866
0.135882
0.135896
0.13591
0.135922
0.135934
0.135945
0.135955
0.135963
0.135971
0.135978
0.135984
0.135988
0.13599
0.13599
0.135987
0.13598
0.13597
0.135959
0.135948
0.135937
0.135926
0.135917
0.135908
0.135901
0.135894
0.135887
0.13588
0.135873
0.135866
0.135864
0.135867
0.135874
0.135886
0.135901
0.135915
0.135925
0.135941
0.135948
0.13413
0.134128
0.134131
0.134137
0.134144
0.134154
0.134166
0.13418
0.134196
0.134214
0.134234
0.134257
0.134282
0.134308
0.134336
0.134366
0.134397
0.134429
0.134461
0.134495
0.134529
0.134564
0.134599
0.134635
0.134672
0.134709
0.134747
0.134784
0.134822
0.134859
0.134896
0.13493
0.134963
0.134994
0.135025
0.135056
0.135087
0.135118
0.135148
0.135177
0.135207
0.135235
0.135264
0.135291
0.135317
0.135341
0.135363
0.13538
0.135396
0.135414
0.135432
0.13545
0.135467
0.135485
0.135502
0.135519
0.135534
0.135548
0.135558
0.135565
0.135571
0.13558
0.135591
0.135603
0.135614
0.135623
0.135628
0.135623
0.135616
0.135598
0.131794
0.131754
0.131723
0.131693
0.131663
0.131633
0.131604
0.131576
0.131549
0.131522
0.131497
0.131472
0.131448
0.131425
0.131403
0.131382
0.131362
0.131343
0.131325
0.131307
0.131291
0.131276
0.131262
0.13125
0.131239
0.13123
0.131222
0.131217
0.131212
0.13121
0.131209
0.131209
0.131209
0.131209
0.131211
0.131216
0.131223
0.131233
0.131245
0.131261
0.131279
0.1313
0.131325
0.131353
0.131384
0.131416
0.131449
0.131477
0.131504
0.131538
0.131576
0.131619
0.131667
0.131722
0.131782
0.131849
0.131918
0.131985
0.132044
0.132088
0.132131
0.132187
0.132253
0.132328
0.132403
0.132466
0.132507
0.132517
0.132533
0.132523
0.125659
0.125467
0.125338
0.125218
0.125102
0.124988
0.124877
0.124768
0.124663
0.12456
0.124461
0.124365
0.124273
0.124185
0.124102
0.124023
0.123949
0.12388
0.123816
0.123757
0.123704
0.123658
0.123617
0.123584
0.123557
0.123535
0.123521
0.123514
0.123515
0.123522
0.123537
0.123556
0.123573
0.123588
0.123615
0.12365