/*--------------------------------*- C++ -*----------------------------------*\
  =========                 |
  \\      /  F ield         | OpenFOAM: The Open Source CFD Toolbox
   \\    /   O peration     | Website:  https://openfoam.org
    \\  /    A nd           | Version:  6.0
     \\/     M anipulation  |
\*---------------------------------------------------------------------------*/
FoamFile
{
    version     2.0;
    format      ascii;
    class       volScalarField;
    location    "200";
    object      p;
}
// * * * * * * * * * * * * * * * * * * * * * * * * * * * * * * * * * * * * * //

dimensions      [0 2 -2 0 0 0 0];

internalField   nonuniform List<scalar> 
9800
(
85.1892
83.9548
83.0677
82.3889
81.8317
81.3442
80.8958
80.4681
80.0513
79.64
79.2181
78.7866
78.3467
77.8976
77.4389
76.9714
76.4968
76.0188
75.5442
75.0841
74.6575
74.2965
74.0669
74.1101
74.4283
74.8814
75.4017
75.9565
76.5262
77.0995
77.6691
78.2263
78.7727
79.3065
79.8265
80.3321
80.8226
81.298
81.7581
82.2031
82.6329
83.0476
83.4471
83.8316
84.201
84.5554
84.8945
85.2184
85.5266
85.8192
86.0955
86.3557
86.5987
86.8246
87.0322
87.2215
87.3909
87.5405
87.668
87.7736
87.8548
87.9112
87.9398
87.9428
87.9161
87.8608
87.7771
87.6694
87.5434
87.4133
87.3022
87.2519
87.3316
87.6596
88.4247
89.9462
92.7141
97.5412
105.604
118.378
137.388
152.135
168.357
175.137
180.246
187.4
195.879
203.883
210.86
217.236
223.412
229.442
235.272
240.933
246.531
252.155
257.849
263.617
269.453
275.372
136.413
136.586
136.63
136.637
136.639
136.651
136.675
136.709
136.748
136.793
136.84
136.882
136.919
136.95
136.975
136.997
137.017
137.039
137.068
137.112
137.176
137.257
137.333
137.415
137.505
137.595
137.703
137.831
137.971
138.116
138.261
138.401
138.53
138.645
138.745
138.83
138.898
138.949
138.982
138.998
138.994
138.974
138.934
138.876
138.799
138.703
138.588
138.454
138.301
138.128
137.934
137.721
137.487
137.233
136.956
136.659
136.339
135.997
135.633
135.247
134.84
134.411
133.963
133.494
133.008
132.51
132.003
131.495
130.993
130.508
130.052
129.643
129.291
129.021
128.836
128.757
128.767
128.879
129.064
129.457
130.732
135.213
144.161
155.676
166.789
175.981
183.776
191.006
197.871
204.232
210.024
215.319
220.224
224.795
229.044
232.96
236.498
239.575
242.028
243.764
88.2539
89.5802
90.6832
91.6276
92.4634
93.2314
93.9591
94.6666
95.3641
96.061
96.7749
97.5119
98.2662
99.0383
99.8268
100.63
101.442
102.256
103.058
103.829
104.538
105.141
105.551
105.641
105.406
104.967
104.415
103.796
103.14
102.467
101.789
101.121
100.466
99.825
99.1974
98.5858
97.9899
97.4106
96.847
96.2999
95.7679
95.2524
94.7517
94.2674
93.7979
93.3451
92.9074
92.4874
92.0834
91.6985
91.3311
90.9853
90.6593
90.3582
90.0806
89.8322
89.6128
89.429
89.2816
89.1789
89.1231
89.1248
89.1898
89.3332
89.5622
89.8951
90.3446
90.9361
91.6897
92.6406
93.8196
95.2778
97.062
99.2485
101.911
105.167
109.133
113.985
119.897
127.089
135.76
145.537
155.597
164.805
172.643
179.368
185.52
191.361
196.821
201.799
206.35
210.589
214.577
218.304
221.747
224.88
227.671
230.041
231.965
233.214
90.9791
90.3196
89.863
89.5358
89.2945
89.1115
88.9693
88.8591
88.7747
88.7121
88.668
88.6434
88.6372
88.6497
88.6789
88.7228
88.7778
88.8404
88.9054
88.9677
89.0235
89.0789
89.1495
89.2347
89.3324
89.4435
89.5539
89.6577
89.7576
89.8595
89.9669
90.0848
90.2172
90.3659
90.5321
90.7181
90.9237
91.1503
91.3973
91.6661
91.9558
92.268
92.6015
92.9585
93.3376
93.7416
94.1691
94.6235
95.1033
95.6128
96.1505
96.7217
97.3249
97.9664
98.6451
99.3683
100.135
100.955
101.828
102.764
103.765
104.843
105.999
107.248
108.596
110.059
111.645
113.373
115.253
117.308
119.548
121.999
124.671
127.591
130.764
134.211
137.925
141.908
146.128
150.546
155.091
159.668
164.218
168.749
173.279
177.784
182.19
186.42
190.447
194.277
197.928
201.396
204.661
207.692
210.454
212.904
215.006
216.698
217.989
218.716
106.383
105.973
105.565
105.173
104.806
104.464
104.145
103.846
103.566
103.302
103.04
102.778
102.52
102.264
102.009
101.757
101.509
101.268
101.04
100.835
100.664
100.547
100.516
100.611
100.836
101.152
101.526
101.936
102.37
102.817
103.271
103.724
104.172
104.62
105.065
105.509
105.95
106.391
106.83
107.271
107.711
108.155
108.601
109.052
109.507
109.969
110.439
110.919
111.409
111.912
112.429
112.964
113.516
114.091
114.687
115.313
115.966
116.655
117.378
118.147
118.959
119.826
120.745
121.73
122.781
123.914
125.128
126.441
127.853
129.383
131.032
132.82
134.75
136.844
139.106
141.556
144.201
147.06
150.138
153.447
156.98
160.729
164.654
168.686
172.724
176.676
180.489
184.152
187.668
191.032
194.231
197.242
200.053
202.643
204.997
207.088
208.906
210.422
211.687
212.57
110.62
110.601
110.571
110.537
110.501
110.469
110.443
110.425
110.419
110.427
110.439
110.458
110.486
110.523
110.568
110.622
110.684
110.756
110.838
110.931
111.035
111.147
111.263
111.384
111.511
111.642
111.781
111.929
112.087
112.252
112.425
112.6
112.777
112.958
113.145
113.337
113.535
113.74
113.952
114.173
114.405
114.648
114.903
115.174
115.46
115.764
116.087
116.432
116.799
117.193
117.613
118.064
118.546
119.065
119.62
120.219
120.859
121.551
122.291
123.092
123.95
124.878
125.872
126.946
128.098
129.344
130.681
132.125
133.673
135.342
137.129
139.049
141.1
143.294
145.626
148.103
150.715
153.461
156.322
159.285
162.319
165.397
168.48
171.538
174.544
177.483
180.346
183.127
185.813
188.388
190.838
193.146
195.303
197.292
199.104
200.726
202.158
203.383
204.451
205.237
114.632
114.353
114.12
113.929
113.775
113.656
113.568
113.51
113.481
113.481
113.502
113.543
113.608
113.694
113.801
113.927
114.071
114.229
114.399
114.576
114.756
114.932
115.096
115.237
115.356
115.46
115.558
115.656
115.759
115.871
115.995
116.131
116.28
116.446
116.631
116.836
117.06
117.306
117.574
117.864
118.178
118.516
118.879
119.268
119.683
120.127
120.599
121.102
121.635
122.203
122.803
123.441
124.114
124.828
125.581
126.38
127.221
128.112
129.049
130.042
131.085
132.189
133.347
134.569
135.851
137.205
138.625
140.121
141.686
143.33
145.046
146.843
148.711
150.658
152.673
154.759
156.905
159.111
161.365
163.661
165.989
168.342
170.708
173.079
175.444
177.79
180.103
182.367
184.569
186.693
188.729
190.664
192.49
194.199
195.786
197.246
198.583
199.78
200.885
201.774
120.305
119.964
119.65
119.367
119.115
118.892
118.7
118.538
118.406
118.304
118.222
118.16
118.121
118.105
118.109
118.134
118.178
118.241
118.32
118.415
118.526
118.653
118.796
118.954
119.128
119.318
119.523
119.742
119.976
120.224
120.489
120.766
121.056
121.364
121.69
122.034
122.398
122.781
123.183
123.607
124.05
124.515
125.002
125.511
126.043
126.599
127.178
127.784
128.414
129.073
129.758
130.474
131.218
131.995
132.803
133.646
134.523
135.439
136.391
137.385
138.418
139.496
140.614
141.778
142.986
144.246
145.552
146.912
148.32
149.785
151.297
152.866
154.483
156.154
157.871
159.637
161.443
163.291
165.172
167.084
169.016
170.964
172.917
174.867
176.803
178.715
180.593
182.427
184.209
185.931
187.587
189.17
190.68
192.109
193.46
194.729
195.918
197.014
198.058
198.938
125.624
125.311
125.024
124.765
124.533
124.328
124.15
123.998
123.874
123.778
123.698
123.636
123.594
123.574
123.574
123.594
123.633
123.691
123.769
123.866
123.982
124.118
124.276
124.456
124.66
124.885
125.13
125.393
125.673
125.97
126.284
126.609
126.946
127.299
127.668
128.055
128.457
128.878
129.315
129.771
130.244
130.738
131.249
131.782
132.334
132.909
133.505
134.125
134.767
135.436
136.128
136.848
137.593
138.369
139.172
140.007
140.871
141.769
142.698
143.664
144.662
145.698
146.765
147.87
149.009
150.189
151.405
152.661
153.953
155.284
156.651
158.055
159.492
160.963
162.462
163.99
165.542
167.116
168.705
170.309
171.919
173.534
175.145
176.75
178.341
179.913
181.462
182.982
184.468
185.916
187.323
188.684
189.999
191.262
192.473
193.627
194.725
195.753
196.746
197.602
130.096
129.834
129.596
129.385
129.199
129.041
128.908
128.802
128.724
128.675
128.642
128.626
128.632
128.659
128.708
128.778
128.867
128.976
129.104
129.25
129.413
129.593
129.788
129.999
130.223
130.463
130.718
130.989
131.276
131.58
131.902
132.236
132.582
132.947
133.33
133.732
134.151
134.59
135.047
135.524
136.02
136.536
137.071
137.628
138.204
138.803
139.422
140.065
140.729
141.418
142.128
142.864
143.623
144.409
145.218
146.055
146.916
147.805
148.72
149.663
150.632
151.629
152.65
153.697
154.769
155.871
156.998
158.152
159.331
160.536
161.764
163.016
164.288
165.58
166.89
168.217
169.558
170.91
172.271
173.638
175.009
176.379
177.745
179.105
180.454
181.789
183.107
184.404
185.678
186.925
188.144
189.331
190.485
191.602
192.684
193.724
194.727
195.68
196.618
197.448
135.277
134.978
134.71
134.474
134.269
134.095
133.951
133.838
133.756
133.706
133.675
133.663
133.675
133.711
133.77
133.851
133.954
134.078
134.223
134.388
134.572
134.776
134.996
135.234
135.489
135.76
136.049
136.355
136.678
137.02
137.379
137.752
138.135
138.538
138.958
139.396
139.851
140.325
140.815
141.325
141.85
142.395
142.957
143.538
144.136
144.754
145.389
146.045
146.719
147.413
148.125
148.858
149.61
150.383
151.175
151.988
152.821
153.674
154.547
155.442
156.355
157.288
158.238
159.206
160.192
161.197
162.222
163.264
164.324
165.4
166.492
167.598
168.718
169.85
170.992
172.144
173.303
174.467
175.635
176.805
177.974
179.14
180.302
181.456
182.602
183.736
184.858
185.963
187.053
188.123
189.174
190.201
191.207
192.187
193.142
194.07
194.972
195.84
196.702
197.475
138.115
138.023
137.943
137.879
137.831
137.802
137.792
137.803
137.838
137.896
137.964
138.043
138.139
138.254
138.385
138.536
138.702
138.887
139.089
139.309
139.545
139.799
140.069
140.357
140.66
140.981
141.318
141.674
142.045
142.434
142.839
143.255
143.679
144.12
144.576
145.049
145.536
146.04
146.558
147.093
147.643
148.209
148.791
149.389
150.003
150.634
151.281
151.945
152.625
153.322
154.035
154.765
155.512
156.275
157.055
157.851
158.663
159.492
160.336
161.196
162.071
162.961
163.862
164.774
165.701
166.641
167.594
168.56
169.537
170.525
171.524
172.53
173.546
174.567
175.595
176.627
177.663
178.7
179.739
180.777
181.813
182.846
183.874
184.896
185.912
186.919
187.916
188.902
189.876
190.836
191.782
192.712
193.626
194.521
195.399
196.256
197.096
197.908
198.719
199.454
144.962
144.684
144.442
144.238
144.068
143.933
143.829
143.76
143.723
143.721
143.742
143.784
143.85
143.942
144.056
144.194
144.353
144.536
144.738
144.962
145.207
145.472
145.757
146.063
146.389
146.735
147.099
147.482
147.88
148.296
148.726
149.165
149.61
150.069
150.543
151.031
151.532
152.048
152.577
153.12
153.677
154.248
154.833
155.432
156.044
156.671
157.31
157.964
158.63
159.311
160.003
160.709
161.428
162.158
162.901
163.656
164.422
165.2
165.988
166.787
167.597
168.415
169.239
170.069
170.908
171.755
172.611
173.473
174.342
175.216
176.097
176.981
177.87
178.76
179.654
180.549
181.445
182.34
183.235
184.126
185.017
185.902
186.784
187.66
188.53
189.392
190.248
191.093
191.93
192.756
193.572
194.375
195.168
195.946
196.712
197.463
198.201
198.919
199.638
200.296
142.258
142.548
142.831
143.114
143.4
143.693
143.993
144.304
144.63
144.972
145.305
145.637
145.977
146.328
146.689
147.06
147.44
147.831
148.23
148.638
149.055
149.481
149.915
150.357
150.805
151.261
151.725
152.199
152.684
153.18
153.687
154.197
154.708
155.233
155.77
156.32
156.882
157.458
158.046
158.647
159.26
159.886
160.525
161.176
161.838
162.513
163.199
163.896
164.605
165.324
166.053
166.793
167.542
168.301
169.069
169.845
170.631
171.424
172.225
173.033
173.848
174.668
175.491
176.315
177.145
177.98
178.82
179.663
180.511
181.36
182.213
183.066
183.921
184.776
185.631
186.484
187.337
188.186
189.033
189.876
190.715
191.549
192.377
193.199
194.014
194.82
195.619
196.408
197.189
197.958
198.718
199.465
200.202
200.925
201.637
202.334
203.019
203.686
204.353
204.965
157.959
157.558
157.206
156.9
156.636
156.414
156.228
156.081
155.967
155.892
155.86
155.86
155.89
155.952
156.043
156.164
156.313
156.49
156.694
156.925
157.181
157.464
157.771
158.104
158.462
158.845
159.251
159.677
160.121
160.582
161.058
161.543
162.03
162.53
163.043
163.569
164.107
164.656
165.215
165.786
166.366
166.956
167.556
168.165
168.782
169.408
170.042
170.684
171.333
171.99
172.653
173.323
174
174.682
175.371
176.064
176.763
177.467
178.175
178.887
179.604
180.321
181.038
181.753
182.471
183.19
183.913
184.636
185.361
186.086
186.812
187.537
188.262
188.986
189.708
190.428
191.146
191.86
192.572
193.279
193.983
194.682
195.376
196.064
196.748
197.425
198.096
198.759
199.416
200.065
200.706
201.338
201.963
202.578
203.184
203.779
204.365
204.936
205.506
206.035
135.523
136.592
137.627
138.646
139.653
140.653
141.649
142.648
143.659
144.673
145.633
146.554
147.468
148.379
149.285
150.188
151.085
151.979
152.867
153.749
154.626
155.496
156.359
157.216
158.063
158.902
159.732
160.556
161.376
162.197
163.015
163.818
164.61
165.404
166.204
167.008
167.816
168.629
169.446
170.268
171.094
171.925
172.759
173.599
174.441
175.288
176.138
176.992
177.848
178.707
179.568
180.432
181.297
182.164
183.031
183.899
184.768
185.635
186.502
187.368
188.232
189.092
189.944
190.789
191.631
192.469
193.304
194.134
194.96
195.781
196.597
197.407
198.211
199.007
199.797
200.578
201.352
202.117
202.874
203.621
204.359
205.085
205.803
206.508
207.203
207.885
208.557
209.214
209.86
210.491
211.11
211.713
212.303
212.877
213.438
213.981
214.511
215.022
215.522
215.992
185.905
185.027
184.211
183.454
182.745
182.076
181.442
180.835
180.24
179.673
179.229
178.841
178.494
178.186
177.916
177.687
177.496
177.346
177.236
177.166
177.137
177.148
177.199
177.29
177.422
177.594
177.806
178.056
178.338
178.652
178.993
179.357
179.726
180.112
180.517
180.938
181.375
181.827
182.292
182.771
183.262
183.765
184.28
184.805
185.34
185.885
186.439
187.002
187.572
188.15
188.735
189.327
189.924
190.527
191.134
191.745
192.361
192.979
193.601
194.224
194.849
195.472
196.089
196.702
197.312
197.923
198.535
199.147
199.76
200.372
200.983
201.592
202.201
202.806
203.41
204.011
204.609
205.202
205.792
206.378
206.959
207.534
208.105
208.669
209.227
209.778
210.322
210.858
211.386
211.905
212.417
212.917
213.41
213.891
214.362
214.821
215.27
215.705
216.127
216.548
94.4793
97.3464
100.148
102.91
105.652
108.391
111.138
113.917
116.757
119.609
122.224
124.713
127.171
129.611
132.034
134.437
136.818
139.176
141.508
143.813
146.09
148.337
150.553
152.737
154.887
157.004
159.084
161.129
163.142
165.121
167.056
168.893
170.681
172.441
174.176
175.89
177.582
179.253
180.903
182.532
184.14
185.729
187.297
188.845
190.373
191.881
193.369
194.838
196.286
197.713
199.121
200.508
201.875
203.221
204.547
205.852
207.136
208.398
209.64
210.86
212.059
213.23
214.37
215.491
216.586
217.658
218.711
219.744
220.757
221.749
222.721
223.672
224.602
225.51
226.397
227.262
228.106
228.927
229.726
230.503
231.258
231.989
232.699
233.385
234.05
234.69
235.308
235.902
236.475
237.022
237.549
238.05
238.53
238.986
239.42
239.83
240.219
240.582
240.915
241.299
265.727
263.487
261.03
258.652
256.345
254.067
251.798
249.511
247.107
244.563
242.658
240.823
238.997
237.237
235.545
233.922
232.37
230.892
229.491
228.169
226.927
225.767
224.689
223.693
222.78
221.95
221.199
220.525
219.929
219.4
218.908
218.535
218.178
217.823
217.518
217.266
217.064
216.907
216.796
216.729
216.704
216.72
216.775
216.868
216.997
217.159
217.354
217.58
217.835
218.117
218.425
218.757
219.112
219.487
219.882
220.294
220.724
221.167
221.625
222.094
222.569
223.029
223.501
224.012
224.481
224.946
225.431
225.927
226.433
226.945
227.465
227.99
228.52
229.053
229.59
230.127
230.667
231.205
231.744
232.28
232.815
233.345
233.873
234.394
234.912
235.422
235.927
236.422
236.911
237.389
237.86
238.318
238.768
239.204
239.63
240.041
240.441
240.819
241.156
241.805
-62.5379
-51.0933
-41.5114
-30.8109
-19.4735
-7.84156
4.16646
17.0566
29.0893
34.3208
38.6371
46.5211
55.0744
63.3423
71.478
79.5172
87.4519
95.2641
102.948
110.492
117.893
125.141
132.235
139.167
145.939
152.537
158.957
165.252
171.511
177.333
181.633
185.596
190.685
195.539
200.213
204.77
209.224
213.566
217.799
221.921
225.933
229.835
233.629
237.313
240.89
244.359
247.722
250.979
254.131
257.178
260.123
262.976
265.742
268.413
270.994
273.485
275.89
278.207
280.446
282.612
284.67
286.452
288.142
290.291
292.143
293.849
295.512
297.125
298.682
300.178
301.619
303.004
304.336
305.613
306.84
308.016
309.143
310.221
311.255
312.241
313.186
314.087
314.948
315.769
316.553
317.3
318.013
318.691
319.338
319.953
320.541
321.1
321.633
322.14
322.626
323.09
323.532
323.894
324.133
325.663
278.177
277.573
276.87
276.373
275.981
275.644
275.378
275.173
275.032
274.939
274.9
274.903
274.957
275.05
275.192
275.376
275.593
275.831
276.125
276.456
276.824
277.216
277.645
278.097
278.583
279.09
279.63
280.189
280.779
281.392
282.031
282.624
283.193
283.952
284.809
285.548
286.287
287.044
287.825
288.613
289.421
290.234
291.064
291.902
292.767
293.622
294.309
294.957
296.075
297.272
298.169
299.019
299.904
300.794
301.694
302.6
303.541
304.44
304.926
305.516
307.055
308.563
309.486
310.373
311.371
312.193
312.023
313.96
316.388
315.807
243.749
244.161
245.133
246.07
246.906
247.711
248.522
249.325
250.128
250.922
251.718
252.505
253.293
254.074
254.857
255.633
256.411
257.18
257.954
258.72
259.49
260.253
261.02
261.781
262.547
263.306
264.072
264.832
265.598
266.359
267.127
267.889
268.655
269.422
270.201
270.966
271.736
272.503
273.277
274.048
274.826
275.601
276.383
277.163
277.951
278.736
279.523
280.303
281.111
281.919
282.71
283.493
284.289
285.083
285.885
286.685
287.495
288.305
289.104
289.899
290.756
291.605
292.409
293.21
294.036
294.864
295.641
296.534
297.565
298.131
233.911
234.34
235.248
236.144
236.969
237.777
238.598
239.411
240.226
241.03
241.837
242.636
243.44
244.237
245.038
245.831
246.628
247.417
248.209
248.993
249.781
250.561
251.344
252.121
252.901
253.674
254.452
255.222
255.997
256.765
257.538
258.304
259.072
259.831
260.596
261.349
262.107
262.858
263.614
264.362
265.115
265.861
266.611
267.355
268.104
268.847
269.594
270.329
271.066
271.796
272.524
273.247
273.975
274.699
275.428
276.153
276.884
277.612
278.345
279.062
279.78
280.492
281.203
281.913
282.635
283.358
284.083
284.781
285.548
286.119
219.187
219.703
220.706
221.683
222.589
223.478
224.375
225.26
226.145
227.019
227.898
228.77
229.649
230.521
231.397
232.266
233.139
234.003
234.87
235.73
236.593
237.448
238.307
239.159
240.015
240.864
241.718
242.565
243.417
244.262
245.113
245.957
246.804
247.643
248.484
249.315
250.149
250.978
251.812
252.639
253.472
254.298
255.13
255.956
256.787
257.614
258.445
259.265
260.084
260.893
261.699
262.5
263.309
264.113
264.923
265.729
266.543
267.354
268.171
268.971
269.769
270.553
271.335
272.121
272.923
273.732
274.541
275.335
276.184
276.836
213.326
213.847
214.824
215.778
216.661
217.519
218.381
219.229
220.078
220.918
221.764
222.605
223.452
224.293
225.139
225.977
226.819
227.654
228.492
229.323
230.157
230.983
231.814
232.638
233.467
234.289
235.116
235.937
236.763
237.584
238.41
239.231
240.054
240.868
241.684
242.49
243.302
244.108
244.919
245.725
246.536
247.342
248.154
248.961
249.775
250.585
251.401
252.204
253.006
253.795
254.584
255.37
256.165
256.956
257.755
258.551
259.356
260.161
260.973
261.767
262.555
263.327
264.101
264.884
265.685
266.496
267.31
268.104
268.946
269.604
206.005
206.564
207.547
208.491
209.363
210.211
211.063
211.903
212.744
213.579
214.419
215.255
216.096
216.931
217.772
218.605
219.442
220.272
221.106
221.931
222.761
223.583
224.41
225.23
226.054
226.872
227.696
228.513
229.336
230.153
230.976
231.793
232.614
233.424
234.235
235.037
235.844
236.646
237.454
238.256
239.063
239.866
240.675
241.479
242.29
243.098
243.912
244.715
245.514
246.3
247.085
247.87
248.664
249.456
250.256
251.055
251.862
252.672
253.49
254.292
255.083
255.857
256.636
257.426
258.236
259.056
259.88
260.682
261.52
262.193
202.633
203.183
204.124
205.03
205.868
206.683
207.503
208.313
209.123
209.925
210.733
211.536
212.344
213.146
213.953
214.754
215.558
216.356
217.158
217.952
218.75
219.54
220.335
221.123
221.917
222.704
223.496
224.283
225.075
225.862
226.655
227.444
228.235
229.016
229.796
230.568
231.346
232.119
232.898
233.671
234.451
235.226
236.008
236.785
237.569
238.352
239.14
239.919
240.691
241.447
242.205
242.965
243.734
244.501
245.276
246.052
246.837
247.625
248.422
249.203
249.97
250.716
251.471
252.239
253.028
253.829
254.635
255.42
256.227
256.883
199.76
200.288
201.174
202.029
202.823
203.601
204.383
205.157
205.931
206.699
207.472
208.241
209.017
209.788
210.564
211.334
212.109
212.878
213.65
214.416
215.186
215.949
216.718
217.48
218.248
219.011
219.779
220.542
221.311
222.076
222.847
223.614
224.385
225.145
225.904
226.655
227.413
228.167
228.927
229.682
230.444
231.201
231.965
232.726
233.494
234.259
235.032
235.794
236.549
237.286
238.025
238.766
239.517
240.265
241.022
241.777
242.543
243.311
244.088
244.85
245.592
246.311
247.04
247.784
248.549
249.329
250.114
250.88
251.66
252.306
198.401
198.914
199.769
200.596
201.366
202.118
202.873
203.618
204.362
205.1
205.843
206.581
207.325
208.065
208.809
209.547
210.29
211.027
211.767
212.501
213.238
213.97
214.705
215.436
216.171
216.901
217.637
218.368
219.104
219.837
220.576
221.312
222.051
222.779
223.505
224.224
224.95
225.672
226.4
227.125
227.855
228.582
229.315
230.046
230.783
231.52
232.264
232.998
233.723
234.428
235.137
235.849
236.571
237.291
238.02
238.749
239.488
240.231
240.984
241.72
242.435
243.123
243.824
244.543
245.284
246.041
246.804
247.549
248.298
248.925
198.231
198.732
199.548
200.336
201.071
201.789
202.509
203.22
203.931
204.636
205.346
206.052
206.764
207.471
208.183
208.889
209.599
210.305
211.014
211.716
212.422
213.122
213.826
214.525
215.228
215.927
216.63
217.33
218.034
218.735
219.442
220.146
220.853
221.549
222.241
222.927
223.619
224.309
225.003
225.694
226.391
227.084
227.784
228.482
229.187
229.891
230.602
231.304
231.996
232.666
233.341
234.021
234.71
235.399
236.097
236.796
237.506
238.222
238.947
239.658
240.343
241
241.673
242.365
243.08
243.814
244.554
245.275
245.989
246.591
198.213
198.701
199.482
200.237
200.943
201.634
202.327
203.012
203.697
204.376
205.059
205.738
206.421
207.101
207.784
208.463
209.145
209.823
210.504
211.179
211.856
212.528
213.204
213.876
214.551
215.222
215.898
216.569
217.246
217.92
218.599
219.276
219.956
220.625
221.289
221.947
222.612
223.274
223.942
224.606
225.275
225.943
226.616
227.288
227.967
228.645
229.331
230.009
230.674
231.317
231.966
232.62
233.284
233.948
234.621
235.296
235.982
236.674
237.376
238.065
238.724
239.355
240.002
240.671
241.364
242.076
242.795
243.497
244.183
244.768
200.154
200.614
201.343
202.05
202.712
203.361
204.012
204.656
205.299
205.937
206.58
207.219
207.863
208.504
209.149
209.79
210.434
211.074
211.718
212.356
212.997
213.633
214.273
214.908
215.548
216.184
216.825
217.462
218.105
218.745
219.391
220.034
220.681
221.317
221.947
222.572
223.204
223.834
224.468
225.1
225.738
226.373
227.015
227.655
228.302
228.949
229.605
230.251
230.882
231.49
232.103
232.723
233.352
233.981
234.619
235.259
235.91
236.567
237.235
237.887
238.505
239.091
239.696
240.324
240.977
241.652
242.336
243.003
243.646
244.198
200.933
201.377
202.078
202.758
203.397
204.023
204.65
205.27
205.89
206.505
207.123
207.738
208.357
208.973
209.592
210.207
210.826
211.441
212.059
212.671
213.286
213.896
214.51
215.12
215.734
216.345
216.96
217.572
218.189
218.804
219.425
220.044
220.666
221.278
221.882
222.482
223.09
223.696
224.306
224.915
225.529
226.141
226.76
227.378
228.003
228.628
229.262
229.887
230.497
231.083
231.675
232.274
232.882
233.492
234.11
234.731
235.363
236.002
236.653
237.288
237.887
238.455
239.041
239.653
240.289
240.949
241.618
242.272
242.896
243.438
205.569
205.982
206.629
207.261
207.856
208.438
209.022
209.598
210.175
210.747
211.323
211.895
212.471
213.043
213.619
214.19
214.764
215.335
215.908
216.475
217.044
217.609
218.176
218.739
219.306
219.869
220.437
221.001
221.57
222.136
222.708
223.278
223.851
224.411
224.964
225.511
226.066
226.619
227.176
227.731
228.292
228.851
229.416
229.98
230.552
231.124
231.705
232.277
232.831
233.358
233.892
234.434
234.986
235.54
236.103
236.67
237.249
237.837
238.437
239.021
239.561
240.067
240.595
241.151
241.735
242.345
242.967
243.568
244.126
244.615
206.556
206.923
207.526
208.124
208.686
209.236
209.79
210.337
210.884
211.426
211.972
212.514
213.06
213.603
214.149
214.69
215.236
215.778
216.323
216.863
217.405
217.943
218.484
219.022
219.564
220.102
220.646
221.186
221.731
222.275
222.824
223.373
223.924
224.464
224.995
225.523
226.058
226.593
227.132
227.669
228.212
228.754
229.302
229.85
230.406
230.963
231.529
232.087
232.628
233.143
233.665
234.197
234.739
235.283
235.837
236.395
236.966
237.546
238.138
238.716
239.253
239.757
240.284
240.838
241.42
242.029
242.647
243.253
243.813
244.311
216.481
216.786
217.319
217.86
218.368
218.861
219.357
219.846
220.335
220.818
221.304
221.785
222.268
222.747
223.228
223.704
224.183
224.657
225.132
225.601
226.071
226.536
227.003
227.465
227.93
228.391
228.855
229.316
229.781
230.244
230.712
231.178
231.646
232.099
232.54
232.977
233.421
233.863
234.309
234.753
235.202
235.65
236.104
236.558
237.019
237.483
237.955
238.417
238.852
239.257
239.669
240.092
240.526
240.961
241.408
241.861
242.327
242.804
243.296
243.768
244.182
244.556
244.958
245.394
245.862
246.366
246.887
247.377
247.805
248.194
216.976
217.105
217.556
218.062
218.528
218.974
219.424
219.871
220.317
220.759
221.202
221.642
222.084
222.521
222.962
223.397
223.836
224.272
224.71
225.142
225.576
226.006
226.439
226.868
227.301
227.731
228.166
228.599
229.036
229.473
229.915
230.358
230.803
231.235
231.655
232.072
232.498
232.924
233.355
233.786
234.223
234.66
235.105
235.551
236.005
236.463
236.931
237.391
237.827
238.234
238.651
239.079
239.52
239.964
240.42
240.882
241.358
241.845
242.346
242.833
243.269
243.669
244.096
244.556
245.044
245.565
246.094
246.613
247.07
247.492
241.739
241.627
241.938
242.364
242.737
243.074
243.409
243.738
244.062
244.375
244.684
244.984
245.28
245.567
245.85
246.124
246.395
246.66
246.92
247.169
247.415
247.652
247.886
248.113
248.34
248.56
248.781
248.997
249.216
249.431
249.651
249.871
250.088
250.278
250.444
250.606
250.775
250.942
251.113
251.282
251.457
251.634
251.818
252.006
252.203
252.408
252.626
252.827
252.972
253.07
253.183
253.312
253.458
253.612
253.784
253.971
254.179
254.409
254.665
254.884
254.992
255.046
255.149
255.309
255.522
255.794
256.109
256.343
256.479
256.642
242.534
240.828
240.705
241.176
241.489
241.687
241.891
242.101
242.309
242.505
242.697
242.882
243.063
243.235
243.405
243.567
243.728
243.885
244.037
244.181
244.323
244.457
244.591
244.72
244.849
244.974
245.102
245.226
245.354
245.481
245.613
245.746
245.88
245.99
246.075
246.16
246.256
246.351
246.452
246.554
246.664
246.777
246.9
247.029
247.169
247.317
247.479
247.631
247.736
247.8
247.881
247.982
248.101
248.231
248.382
248.548
248.737
248.949
249.183
249.393
249.521
249.607
249.737
249.921
250.155
250.443
250.752
251.024
251.235
251.427
328.57
322.866
320.741
320.478
319.93
319.067
318.206
317.387
316.572
315.746
314.918
314.087
313.255
312.419
311.582
310.74
309.901
309.062
308.22
307.371
306.519
305.664
304.81
303.955
303.105
302.256
301.415
300.578
299.751
298.932
298.124
297.328
296.525
295.65
294.71
293.773
292.846
291.922
291.005
290.093
289.194
288.305
287.432
286.574
285.737
284.92
284.13
283.298
282.302
281.182
280.084
279.015
277.971
276.95
275.962
275.01
274.102
273.243
272.441
271.534
270.3
268.907
267.62
266.459
265.424
264.532
263.789
262.716
261.42
260.437
305.479
288.556
275.929
266.976
260.343
255.266
251.376
248.393
246.079
244.25
242.773
241.548
240.505
239.596
238.787
238.058
237.395
236.787
236.23
235.717
235.245
234.81
234.411
234.042
233.702
233.388
233.098
232.828
232.578
232.344
232.126
231.92
231.727
231.545
231.374
231.212
231.058
230.912
230.774
230.641
230.514
230.392
230.275
230.161
230.051
229.944
229.84
229.738
229.639
229.542
229.447
229.354
229.263
229.172
229.083
228.995
228.907
228.819
228.732
228.644
228.556
228.468
228.379
228.29
228.201
228.111
228.021
227.931
227.842
227.753
227.668
227.586
227.51
227.438
227.376
296.962
287.436
278.507
271.962
266.463
261.475
257.153
253.535
250.506
247.958
245.821
244.034
242.539
241.279
240.211
239.295
238.502
237.806
237.187
236.631
236.125
235.66
235.231
234.832
234.46
234.113
233.791
233.49
233.21
232.949
232.705
232.476
232.26
232.057
231.865
231.683
231.51
231.346
231.191
231.044
230.903
230.769
230.641
230.518
230.399
230.283
230.17
230.06
229.953
229.847
229.744
229.642
229.543
229.445
229.348
229.253
229.158
229.065
228.971
228.878
228.785
228.691
228.597
228.503
228.407
228.312
228.215
228.118
228.02
227.921
227.821
227.721
227.62
227.515
227.394
286.512
280.026
273.387
268.918
265.312
261.778
258.485
255.599
253.064
250.794
248.757
246.933
245.302
243.839
242.527
241.353
240.306
239.376
238.552
237.823
237.178
236.603
236.089
235.625
235.203
234.817
234.463
234.137
233.837
233.56
233.303
233.063
232.836
232.621
232.415
232.216
232.026
231.842
231.666
231.497
231.337
231.185
231.041
230.904
230.773
230.647
230.526
230.408
230.293
230.18
230.068
229.958
229.85
229.744
229.639
229.536
229.434
229.333
229.233
229.134
229.034
228.935
228.835
228.734
228.632
228.529
228.424
228.317
228.207
228.094
227.976
227.853
227.724
227.582
227.389
278.301
274.073
269.31
266.146
263.456
260.584
257.777
255.288
253.108
251.16
249.41
247.841
246.431
245.154
243.988
242.92
241.94
241.04
240.215
239.457
238.761
238.12
237.526
236.973
236.457
235.974
235.523
235.105
234.72
234.369
234.051
233.762
233.499
233.258
233.034
232.822
232.619
232.423
232.233
232.049
231.872
231.703
231.542
231.389
231.245
231.108
230.978
230.852
230.73
230.611
230.492
230.374
230.257
230.141
230.025
229.91
229.798
229.686
229.576
229.468
229.361
229.254
229.148
229.041
228.932
228.822
228.708
228.591
228.468
228.339
228.202
228.054
227.892
227.713
227.441
271.368
268.166
264.521
262.388
260.651
258.642
256.562
254.642
252.886
251.24
249.689