/*--------------------------------*- C++ -*----------------------------------*\
  =========                 |
  \\      /  F ield         | OpenFOAM: The Open Source CFD Toolbox
   \\    /   O peration     | Website:  https://openfoam.org
    \\  /    A nd           | Version:  6.0
     \\/     M anipulation  |
\*---------------------------------------------------------------------------*/
FoamFile
{
    version     2.0;
    format      ascii;
    class       surfaceScalarField;
    location    "200";
    object      phi;
}
// * * * * * * * * * * * * * * * * * * * * * * * * * * * * * * * * * * * * * //

dimensions      [0 3 -1 0 0 0 0];

internalField   nonuniform List<scalar> 
19165
(
-0.0400048
0.027662
0.0415687
-0.0383719
0.0279735
-0.036688
0.0282736
-0.0349689
0.0285623
-0.0332247
0.0288375
-0.0314613
0.0290983
-0.0296826
0.0293443
-0.0278914
0.0295752
-0.0260896
0.0297911
-0.0242787
0.0299918
-0.0224408
0.0301586
-0.0205919
0.0303252
-0.0187351
0.030479
-0.0168714
0.0306175
-0.0150016
0.0307407
-0.0131265
0.0308483
-0.0112474
0.0309403
-0.00936541
0.0310163
-0.00748258
0.031076
-0.0056017
0.0311193
-0.00372754
0.031146
-0.00186857
0.0311566
-4.21834e-05
0.0311542
0.00178366
0.0311506
0.00364171
0.031147
0.00551525
0.0311314
0.00739563
0.0310997
0.00927814
0.0310515
0.0111598
0.0309868
0.0130388
0.0309059
0.0149145
0.0308084
0.0167918
0.03069
0.0186634
0.0305624
0.0205285
0.0304196
0.0223864
0.0302618
0.0242362
0.0300891
0.0260773
0.0299015
0.027909
0.0296991
0.0297306
0.029482
0.0315415
0.0292502
0.0333409
0.0290037
0.0351284
0.0287425
0.0369031
0.0284666
0.0386645
0.028176
0.040412
0.0278707
0.0421448
0.0275507
0.0438624
0.0272159
0.0455642
0.0268662
0.0472494
0.0265018
0.0489176
0.0261223
0.0505679
0.0257278
0.0521999
0.0253182
0.0538129
0.0248933
0.0554064
0.0244529
0.0569795
0.023997
0.0585319
0.0235252
0.0600627
0.0230374
0.0615715
0.0225332
0.0630575
0.0220124
0.0645202
0.0214744
0.0659587
0.0209189
0.0673732
0.0203447
0.0687638
0.0197507
0.0701284
0.0191389
0.0714654
0.0185065
0.0727742
0.0178525
0.074053
0.0171756
0.0753001
0.0164743
0.0765126
0.0157465
0.0776864
0.0149902
0.078815
0.0142026
0.079889
0.0133805
0.0808917
0.0125204
0.0817985
0.0116178
0.082566
0.0106679
0.0831277
0.00966502
0.0833676
0.0086022
0.083101
0.00747265
0.0820003
0.00625035
0.0795528
0.00486712
0.0794939
0.0033068
0.0738925
0.00175419
0.0722536
0.000729752
0.0706038
0.000199222
0.069103
-0.000160716
0.0676508
-0.000487807
0.0661965
-0.000783354
0.0647382
-0.00105676
0.0632912
-0.00130724
0.0618515
-0.00152816
0.0604138
-0.00171213
0.058969
-0.0018549
0.0575171
-0.00195426
0.0560533
-0.00200752
0.0545748
-0.00201057
0.0530742
-0.00195782
0.0515442
-0.0018436
0.0499834
-0.00165132
0.0483337
-0.0014201
-0.000812441
0.0469848
-0.0393884
0.0260561
0.0409931
-0.0377594
0.0263441
-0.0361013
0.0266146
-0.0344154
0.0268758
-0.0327054
0.0271267
-0.0309739
0.0273663
-0.0292246
0.0275941
-0.0274593
0.0278095
-0.0256811
0.0280121
-0.0238913
0.0282016
-0.0220739
0.0283405
-0.0202445
0.0284954
-0.0184072
0.0286411
-0.0165629
0.0287728
-0.0147136
0.0288908
-0.0128606
0.0289949
-0.0110066
0.0290856
-0.00915368
0.029163
-0.00730609
0.0292278
-0.00546807
0.0292809
-0.00364634
0.0293236
-0.00184815
0.029358
-8.31776e-05
0.0293886
0.00168005
0.0293871
0.00347492
0.0293516
0.00529508
0.029311
0.00713195
0.0292624
0.00897965
0.0292036
0.0108328
0.0291332
0.0126882
0.0290504
0.0145435
0.0289529
0.0164027
0.0288307
0.0182576
0.0287072
0.0201072
0.0285701
0.0219498
0.028419
0.0237849
0.0282541
0.025611
0.0280752
0.0274279
0.0278824
0.0292342
0.0276757
0.0310297
0.027455
0.032813
0.0272203
0.0345842
0.0269716
0.0363418
0.026709
0.0380858
0.0264323
0.0398148
0.0261417
0.041529
0.025837
0.0432268
0.0255182
0.0449083
0.0251853
0.0465721
0.0248381
0.0482183
0.0244768
0.0498453
0.024101
0.0514535
0.0237108
0.0530409
0.0233061
0.0546081
0.0228866
0.0561533
0.0224523
0.0576766
0.0220029
0.0591764
0.0215382
0.0606528
0.0210579
0.0621041
0.0205619
0.0635301
0.0200496
0.0649291
0.0195207
0.0663013
0.0189736
0.0676462
0.0184067
0.0689612
0.0178249
0.0702444
0.0172241
0.0714942
0.0166035
0.0727083
0.0159622
0.0738842
0.015299
0.0750185
0.0146128
0.0761075
0.013902
0.0771454
0.0131651
0.078127
0.0124002
0.0790423
0.0116053
0.0798838
0.0107782
0.0806358
0.00991643
0.0812853
0.0090176
0.0818093
0.00807927
0.0821829
0.0071009
0.0823518
0.00608281
0.0821974
0.00502275
0.081417
0.00408869
0.0799621
0.00320964
0.0781336
0.00255951
0.0762957
0.00203708
0.0745559
0.00158009
0.0729159
0.0011518
0.0713762
0.000757177
0.0699128
0.000406027
0.0685073
9.89805e-05
0.0671469
-0.0001685
0.065835
-0.000399801
0.0645747
-0.000595288
0.0633746
-0.000754087
0.0622417
-0.000875474
0.06119
-0.000959054
0.0602357
-0.00100442
0.0594033
-0.00101131
0.0587304
-0.000978659
0.0582199
-0.000909288
-0.000795209
0.0582021
-0.0396731
0.0243233
0.0414051
-0.0379458
0.0246168
-0.0362244
0.0248926
-0.0345015
0.0251528
-0.0327738
0.0253985
-0.0310381
0.0256305
-0.0292938
0.0258493
-0.0275396
0.0260553
-0.0257765
0.0262486
-0.0240043
0.0264294
-0.0222066
0.0265424
-0.0203978
0.0266866
-0.0185817
0.0268246
-0.0167585
0.0269496
-0.01493
0.0270618
-0.0130964
0.0271613
-0.0112593
0.0272481
-0.00941875
0.0273224
-0.0075757
0.0273844
-0.00572897
0.0274341
-0.00387727
0.0274715
-0.00201571
0.0274963
-0.000136004
0.0275085
0.00174504
0.0275059
0.00360807
0.0274881
0.00546176
0.0274572
0.00731011
0.0274137
0.00915581
0.0273579
0.0109989
0.0272898
0.0128399
0.0272094
0.0146783
0.0271142
0.0165187
0.0269903
0.0183537
0.026872
0.0201829
0.0267408
0.0220049
0.0265968
0.0238192
0.0264398
0.0256245
0.0262698
0.0274204
0.0260866
0.0292056
0.0258903
0.0309798
0.0256809
0.0327416
0.0254583
0.0344909
0.0252225
0.0362262
0.0249735
0.0379474
0.0247113
0.039653
0.0244359
0.0413431
0.0241472
0.0430159
0.0238452
0.0446716
0.0235299
0.0463083
0.0232012
0.0479264
0.0228591
0.0495238
0.0225035
0.0511007
0.0221343
0.0526551
0.0217515
0.0541873
0.0213549
0.0556949
0.0209445
0.0571783
0.0205201
0.0586349
0.0200815
0.0600649
0.0196286
0.0614655
0.0191613
0.0628366
0.0186791
0.0641754
0.0181821
0.0654816
0.0176681
0.0667525
0.0171359
0.0679857
0.0165925
0.069177
0.0160329
0.0703245
0.0154569
0.0714228
0.0148641
0.0724685
0.0142542
0.0734547
0.0136268
0.0743759
0.0129819
0.075222
0.0123192
0.0759844
0.0116391
0.0766482
0.0109418
0.0771996
0.0102283
0.0776164
0.00950019
0.0778753
0.00876003
0.0779438
0.00801163
0.0777849
0.00726081
0.077353
0.0065157
0.0765911
0.00578528
0.0755916
0.00508936
0.0743705
0.00443096
0.0731142
0.00381707
0.0718995
0.00325176
0.0707413
0.00273948
0.0696147
0.00227826
0.0685105
0.00186261
0.0674289
0.00148732
0.0663806
0.00114854
0.0653679
0.000843842
0.0643974
0.000571823
0.0634703
0.000331261
0.0625962
0.000120736
0.0617816
-6.1379e-05
0.0610394
-0.0002167
0.0603811
-0.000346803
0.0598241
-0.000453847
0.0593862
-0.000540692
0.059088
-0.00061044
-0.000676337
0.0589686
-0.0391374
0.022726
0.0407337
-0.0375088
0.0229883
-0.035857
0.0232401
-0.0341851
0.0234809
-0.0324976
0.0237104
-0.0307954
0.0239284
-0.0290814
0.0241348
-0.0273556
0.0243297
-0.0256204
0.024513
-0.0238758
0.0246848
-0.0221058
0.0247721
-0.0203243
0.0249051
-0.0185347
0.0250347
-0.0167369
0.0251519
-0.014932
0.0252566
-0.0131195
0.0253487
-0.0113
0.0254282
-0.00947256
0.0254949
-0.00763703
0.0255485
-0.00579148
0.0255885
-0.00393482
0.0256144
-0.00206472
0.0256261
-0.000180661
0.025624
0.00170537
0.0256198
0.00357828
0.0256148
0.00543843
0.0255969
0.00728699
0.0255647
0.00912638
0.0255184
0.0109573
0.0254585
0.0127813
0.0253853
0.0145988
0.0252963
0.0164153
0.0251738
0.0182242
0.0250627
0.0200258
0.0249392
0.0218188
0.0248034
0.0236033
0.0246553
0.0253779
0.0244948
0.0271425
0.024322
0.0288956
0.0241369
0.030637
0.0239395
0.0323653
0.0237297
0.0340803
0.0235076
0.0357803
0.0232731
0.0374653
0.0230264
0.0391335
0.0227673
0.0407849
0.0224959
0.0424176
0.0222121
0.0440317
0.021916
0.045625
0.0216074
0.0471977
0.0212865
0.0487475
0.0209532
0.0502746
0.0206074
0.0517764
0.0202492
0.0532531
0.0198785
0.0547019
0.0194952
0.056123
0.0190993
0.0575133
0.0186908
0.0588727
0.0182696
0.0601979
0.0178357
0.0614885
0.017389
0.0627408
0.0169295
0.0639545
0.0164548
0.0651264
0.0159637
0.0662536
0.0154659
0.067331
0.0149553
0.0683568
0.0144318
0.0693251
0.0138956
0.070233
0.013347
0.0710735
0.0127862
0.0718426
0.0122136
0.072532
0.0116298
0.0731363
0.0110356
0.0736461
0.010432
0.0740549
0.00982043
0.0743528
0.00920255
0.074533
0.00858063
0.0745876
0.00795745
0.0745126
0.00733646
0.074307
0.00672192
0.073974
0.00611862
0.0735321
0.00553199
0.0729944
0.00496877
0.0723766
0.00443572
0.0716912
0.00393706
0.0709581
0.00347355
0.0701937
0.00304243
0.069417
0.0026404
0.0686384
0.00226559
0.0678708
0.00191722
0.0671198
0.00159442
0.0663969
0.00129575
0.065708
0.00101963
0.0650648
0.000764547
0.0644738
0.00052895
0.0639464
0.00031093
0.0634906
0.000108287
0.0631185
-8.13674e-05
0.0628389
-0.000261122
0.0626625
-0.000433432
-0.000606076
0.0625917
-0.0384792
0.0211543
0.0400502
-0.0368864
0.0213958
-0.0352733
0.0216265
-0.0336396
0.0218474
-0.0319881
0.0220586
-0.0303194
0.0222599
-0.028636
0.0224513
-0.0269387
0.0226326
-0.0252298
0.0228039
-0.0235098
0.0229651
-0.0217632
0.0230254
-0.0200038
0.023146
-0.0182354
0.0232663
-0.0164581
0.0233749
-0.0146733
0.0234717
-0.012881
0.0235567
-0.0110826
0.0236298
-0.0092783
0.0236909
-0.00746951
0.0237397
-0.00565693
0.0237762
-0.00384283
0.0238003
-0.00202911
0.0238127
-0.000219747
0.0238146
0.00158974
0.0238106
0.00340334
0.0238012
0.00521864
0.023782
0.00703248
0.0237509
0.00884361
0.0237076
0.0106502
0.0236519
0.0124519
0.023584
0.014248
0.0235002
0.0160436
0.0233786
0.0178314
0.0232749
0.0196115
0.0231594
0.0213827
0.0230324
0.0231446
0.0228937
0.0248959
0.0227435
0.0266365
0.0225818
0.0283648
0.0224086
0.0300806
0.022224
0.0317825
0.0220278
0.0334702
0.0218203
0.035142
0.0216013
0.0367978
0.021371
0.0384358
0.0211293
0.0400559
0.0208762
0.0416561
0.0206118
0.0432365
0.0203361
0.0447948
0.020049
0.0463311
0.0197507
0.047843
0.0194411
0.0493307
0.0191203
0.0507914
0.0187883
0.0522254
0.0184451
0.0536296
0.0180907
0.0550043
0.0177252
0.0563461
0.0173487
0.0576553
0.0169611
0.058928
0.0165626
0.0601645
0.0161532
0.0613605
0.0157331
0.0625166
0.0152994
0.0636293
0.0148506
0.0646965
0.0143994
0.0657132
0.0139381
0.0666787
0.013467
0.0675876
0.0129864
0.0684384
0.0124969
0.0692254
0.0119988
0.0699467
0.0114929
0.0705962
0.01098
0.0711714
0.010461
0.0716662
0.00993703
0.0720776
0.00940945
0.0724003
0.00887988
0.072631
0.00835017
0.072766
0.00782247
0.0728033
0.0072992
0.0727424
0.00678306
0.0725839
0.00627687
0.0723328
0.00578343
0.0719958
0.0053054
0.0715871
0.00484479
0.0711211
0.00440255
0.070616
0.00397909
0.0700833
0.00357447
0.0695355
0.00318877
0.0689785
0.00282188
0.0684229
0.00247343
0.0678739
0.00214269
0.0673415
0.00182874
0.0668296
0.00153056
0.0663474
0.00124702
0.0658985
0.000976873
0.0654907
0.000718618
0.0651274
0.000470558
0.0648154
0.000230875
0.0645565
-2.59096e-06
0.0643549
-0.000231275
-0.000462364
0.0642105
-0.0380424
0.0195913
0.0396047
-0.0364595
0.0198131
-0.0348591
0.0200257
-0.0332412
0.0202296
-0.0316078
0.0204248
-0.0299588
0.0206111
-0.0282963
0.0207885
-0.0266204
0.0209569
-0.0249331
0.0211164
-0.0232345
0.0212667
-0.0215095
0.0213001
-0.0197716
0.0214082
-0.0180245
0.021519
-0.0162686
0.0216191
-0.0145055
0.0217084
-0.0127357
0.021787
-0.0109607
0.0218547
-0.00918138
0.0219116
-0.00739949
0.0219577
-0.00561606
0.0219929
-0.00383323
0.0220174
-0.00205222
0.0220318
-0.000274881
0.0220372
0.00150226
0.0220336
0.00328257
0.0220209
0.00506571
0.021999
0.00684958
0.021967
0.00863293
0.0219244
0.0104138
0.0218709
0.0121914
0.0218066
0.0139646
0.021727
0.0157377
0.0216057
0.0175037
0.0215089
0.0192618
0.0214015
0.0210108
0.0212833
0.0227501
0.0211546
0.0244784
0.0210152
0.0261951
0.0208652
0.027899
0.0207047
0.0295895
0.0205337
0.0312652
0.0203521
0.0329257
0.02016
0.0345693
0.0199575
0.036196
0.0197446
0.0378037
0.0195214
0.0393924
0.0192878
0.0409601
0.0190439
0.0425067
0.0187898
0.04403
0.0185255
0.04553
0.0182511
0.0470043
0.0179666
0.0484529
0.0176721
0.0498731
0.0173677
0.0512652
0.0170535
0.052626
0.0167295
0.0539559
0.0163959
0.0552513
0.0160528
0.0565128
0.0157003
0.0577364
0.0153385
0.0589226
0.0149677
0.0600672
0.0145881
0.0611711
0.0141963
0.0622308
0.0137905
0.0632451
0.0133861
0.0642089
0.012974
0.0651224
0.0125545
0.0659807
0.012128
0.0667834
0.0116951
0.0675258
0.0112564
0.0682072
0.0108125
0.068823
0.0103642
0.0693726
0.00991226
0.0698521
0.00945772
0.0702607
0.00900159
0.0705958
0.00854502
0.0708573
0.00808926
0.0710445
0.00763563
0.0711586
0.00718552
0.0712018
0.00674035
0.0711774
0.00630154
0.071091
0.00587045
0.0709482
0.00544833
0.0707573
0.00503635
0.0705244
0.00463547
0.0702578
0.00424645
0.0699623
0.00386978
0.0696464
0.00350563
0.0693141
0.00315389
0.0689743
0.00281425
0.0686303
0.0024863
0.0682905
0.00216951
0.0679573
0.00186321
0.0676384
0.00156661
0.0673358
0.0012788
0.0670558
0.000998794
0.0668002
0.000725453
0.0665738
0.000457625
0.0663772
0.00019389
0.066213
-6.64787e-05
-0.000327878
0.0660779
-0.0375138
0.0180704
0.0390343
-0.0359702
0.0182697
-0.0344066
0.0184618
-0.0328234
0.0186467
-0.0312231
0.0188243
-0.0296062
0.0189944
-0.0279749
0.019157
-0.0263295
0.0193119
-0.0246721
0.0194589
-0.023003
0.0195979
-0.0213075
0.0196045
-0.0195988
0.0196999
-0.0178807
0.0198009
-0.0161533
0.0198921
-0.0144182
0.0199734
-0.0126757
0.0200449
-0.0109272
0.0201064
-0.00917299
0.0201579
-0.00741446
0.0201994
-0.00565202
0.0202309
-0.00388692
0.0202526
-0.00211951
0.020265
-0.000350666
0.0202688
0.00141866
0.0202649
0.00318658
0.0202533
0.00495285
0.0202332
0.00671639
0.0202038
0.00847676
0.0201645
0.0102328
0.0201153
0.0119839
0.020056
0.0137297
0.0199816
0.0154743
0.0198615
0.0172111
0.0197725
0.0189394
0.0196737
0.0206579
0.0195651
0.0223662
0.0194468
0.0240629
0.0193188
0.0257476
0.0191811
0.0274187
0.0190339
0.0290759
0.018877
0.0307176
0.0187106
0.0323434
0.0185347
0.0339518
0.0183494
0.0355423
0.0181547
0.0371133
0.0179506
0.0386643
0.0177373
0.0401936
0.0175147
0.041701
0.0172831
0.0431843
0.0170423
0.0446434
0.0167926
0.046076
0.016534
0.0474823
0.0162667
0.0488593
0.0159907
0.0502076
0.0157061
0.0515239
0.0154131
0.0528089
0.0151119
0.0540592
0.0148025
0.0552752
0.0144852
0.0564535
0.0141602
0.0575945
0.0138277
0.0586946
0.0134878
0.059755
0.0131369
0.0607729
0.0127724
0.061747
0.0124128
0.0626735
0.0120471
0.0635529
0.0116758
0.0643814
0.0112991
0.0651595
0.0109177
0.0658835
0.0105319
0.066554
0.0101425
0.0671679
0.00974987
0.0677255
0.00935483
0.0682249
0.00895805
0.0686663
0.00856026
0.0690487
0.00816228
0.069373
0.00776493
0.0696394
0.00736907
0.069849
0.00697559
0.0700039
0.00658536
0.0701058
0.00619924
0.0701582
0.00581808
0.0701633
0.00544262
0.0701262
0.00507354
0.0700497
0.00471138
0.0699397
0.00435655
0.0697994
0.0040093
0.0696356
0.00366973
0.0694509
0.00333784
0.0692519
0.00301354
0.0690407
0.00269663
0.0688236
0.00238681
0.0686022
0.00208371
0.0683819
0.00178686
0.068164
0.0014957
0.0679528
0.00120963
0.0677492
0.000927967
0.067557
0.000649984
0.0673756
0.000374734
0.0672075
0.00010202
-0.000171826
0.0670508
-0.0369192
0.0165833
0.0384061
-0.0354102
0.0167609
-0.0338813
0.0169326
-0.0323329
0.0170985
-0.0307672
0.0172583
-0.0291844
0.0174119
-0.0275867
0.0175591
-0.0259745
0.0176999
-0.0243498
0.0178339
-0.0227128
0.0179612
-0.0210495
0.017941
-0.0193727
0.0180233
-0.017686
0.0181141
-0.0159897
0.018196
-0.0142851
0.0182688
-0.0125727
0.0183326
-0.0108537
0.0183873
-0.00912837
0.0184328
-0.00739814
0.0184691
-0.00566336
0.0184964
-0.00392541
0.0185147
-0.0021847
0.0185245
-0.000442479
0.0185266
0.00130037
0.0185223
0.00304175
0.018512
0.00478106
0.0184942
0.00651697
0.018468
0.00824902
0.0184328
0.00997591
0.0183884
0.0116973
0.0183349
0.0134125
0.0182664
0.015126
0.0181483
0.0168311
0.0180675
0.0185272
0.0179778
0.0202132
0.0178792
0.0218886
0.0177717
0.0235519
0.0176555
0.0252029
0.0175305
0.02684
0.0173968
0.0284629
0.0172545
0.0300699
0.0171036
0.0316608
0.0169442
0.0332339
0.0167764
0.0347889
0.0166001
0.036324
0.0164156
0.0378389
0.0162228
0.0393318
0.0160218
0.0408026
0.0158128
0.042249
0.0155958
0.0436712
0.015371
0.0450669
0.0151384
0.046436
0.0148981
0.0477762
0.0146504
0.0490876
0.0143953
0.0503677
0.0141329
0.0516167
0.0138635
0.0528318
0.0135873
0.0540133
0.0133043
0.0551584
0.0130149
0.0562675
0.0127193
0.0573376
0.0124176
0.05837
0.0121053
0.0593625
0.0117797
0.0603142
0.011462
0.0612218
0.0111394
0.0620862
0.0108123
0.0629042
0.010481
0.0636769
0.010146
0.0644014
0.00980754
0.0650786
0.00946621
0.0657062
0.00912242
0.0662852
0.00877671
0.0668141
0.00842955
0.0672936
0.00808151
0.0677232
0.00773311
0.0681038
0.00738493
0.068436
0.0070375
0.0687207
0.0066914
0.0689596
0.00634715
0.069154
0.00600526
0.0693066
0.00566622
0.069419
0.00533047
0.069495
0.00499838
0.0695364
0.00467027
0.0695474
0.0043464
0.0695299
0.00402697
0.0694886
0.00371209
0.0694246
0.00340183
0.0693431
0.00309619
0.0692446
0.00279507
0.0691341
0.00249837
0.0690117
0.00220587
0.0688821
0.00191736
0.0687449
0.00163253
0.0686041
0.00135105
0.0684591
0.00107255
0.0683131
0.000796642
0.0681653
0.000522781
0.068017
0.000250997
-2.12575e-05
0.067866
-0.0363249
0.0151278
0.03778
-0.0348475
0.0152838
-0.0333503
0.0154351
-0.0318335
0.0155819
-0.0302993
0.0157238
-0.028748
0.0158608
-0.0271818
0.0159926
-0.0256008
0.0161191
-0.0240072
0.0162401
-0.0224012
0.0163554
-0.020769
0.0163086
-0.0191233
0.0163778
-0.0174678
0.0164584
-0.0158025
0.0165309
-0.0141292
0.0165953
-0.012448
0.0166516
-0.0107607
0.0166998
-0.00906737
0.0167397
-0.00736983
0.0167715
-0.00566841
0.0167952
-0.00396484
0.016811
-0.00225949
0.0168194
-0.000553894
0.0168209
0.00115215
0.0168165
0.00285755
0.0168065
0.00456209
0.0167899
0.00626404
0.0167659
0.00796301
0.0167341
0.00965728
0.0166941
0.0113465
0.0166459
0.0130298
0.0165831
0.0147115
0.0164668
0.0163848
0.0163942
0.0180492
0.0163137
0.0197033
0.0162251
0.0213467
0.0161286
0.0229778
0.0160243
0.0245965
0.0159121
0.026201
0.0157922
0.0277912
0.0156647
0.0293653
0.0155295
0.0309231
0.0153867
0.0324629
0.0152365
0.0339846
0.0150789
0.0354862
0.0149139
0.0369676
0.0147417
0.038427
0.0145624
0.0398643
0.014376
0.0412774
0.0141826
0.0426664
0.0139825
0.0440291
0.0137755
0.0453656
0.013562
0.0466738
0.0133421
0.0479538
0.0131158
0.0492032
0.0128833
0.0504224
0.0126449
0.0516089
0.0124006
0.052763
0.0121507
0.0538825
0.0118953
0.0549676
0.0116347
0.0560159
0.011369
0.0570286
0.0110931
0.0580047
0.0108034
0.0589425
0.0105246
0.0598401
0.0102417
0.0606978
0.00995504
0.0615137
0.0096649
0.0622884
0.00937161
0.0630203
0.00907548
0.0637098
0.00877687
0.064356
0.0084761
0.0649592
0.00817357
0.0655191
0.0078696
0.066036
0.0075646
0.0665101
0.00725892
0.066942
0.00695294
0.0673325
0.00664702
0.0676822
0.00634153
0.0679926
0.00603681
0.0682643
0.00573318
0.0684997
0.00543096
0.0686994
0.00513043
0.0688661
0.00483183
0.0690005
0.00453539
0.0691059
0.00424129
0.0691826
0.00394967
0.0692344
0.00366064
0.0692613
0.00337427
0.0692672
0.00309058
0.0692521
0.00280957
0.0692195
0.00253118
0.0691693
0.00225534
0.0691049
0.00198193
0.0690259
0.00171081
0.0689352
0.00144181
0.0688323
0.00117472
0.06872
0.00090937
0.0685971
0.000645422
0.0684656
0.000383035
0.000120308
0.0683234
-0.0357812
0.0136997
0.0372089
-0.0343318
0.0138346
-0.0328634
0.0139663
-0.0313758
0.0140945
-0.0298713
0.0142189
-0.0283499
0.0143396
-0.0268138
0.0144562
-0.0252632
0.0145687
-0.0237002
0.0146768
-0.0221249
0.0147803
-0.0205241
0.0147076
-0.0189099
0.0147638
-0.0172861
0.0148343
-0.0156526
0.0148977
-0.0140114
0.0149539
-0.0123624
0.0150029
-0.0107076
0.0150447
-0.00904692
0.0150793
-0.00738236
0.0151067
-0.00571402
0.0151271
-0.00404378
0.0151406
-0.0023717
0.0151476
-0.000699458
0.0151485
0.000973281
0.0151441
0.00264507
0.0151346
0.00431595
0.0151194
0.00598411
0.0150977
0.0076494
0.0150691
0.00930996
0.0150334
0.0109656
0.0149906
0.0126152
0.0149334
0.0142634
0.0148188
0.015903
0.0147545
0.0175339
0.0146831
0.0191542
0.0146047
0.020764
0.0145192
0.0223613
0.0144269
0.0239462
0.0143276
0.0255169
0.0142215
0.0270732
0.0141087
0.0286135
0.0139891
0.0301375
0.013863
0.0316437
0.0137303
0.0331318
0.0135912
0.0346
0.0134456
0.0360483
0.0132938
0.037475
0.0131357
0.0388798
0.0129715
0.0402611
0.0128013
0.0416187
0.0126253
0.0429508
0.0124434
0.0442574
0.0122558
0.0455368
0.0120627
0.0467887
0.0118642
0.0480117
0.0116604
0.0492054
0.0114515
0.0503684
0.0112376
0.0515004
0.011019
0.0526
0.0107957
0.053667
0.010568
0.0547001
0.010336
0.0556998
0.0100937
0.0566662
0.00983706
0.0575971
0.00959396
0.0584915
0.00934738
0.0593491
0.00909755
0.0601694
0.00884471
0.060952
0.00858911
0.0616966
0.00833097
0.0624029
0.00807058
0.0630709
0.00780816
0.0637004
0.007544
0.0642918
0.00727835
0.0648448
0.00701147
0.0653603
0.00674361
0.0658379
0.00647505
0.0662791
0.00620602
0.0666836
0.00593677
0.0670531
0.00566753
0.0673874
0.00539853
0.0676886
0.00512996
0.0679566
0.00486203
0.0681938
0.0045949
0.0684
0.00432872
0.068578
0.00406364
0.0687273
0.00379977
0.0688511
0.0035372
0.0689488
0.00327599
0.0690235
0.00301622
0.0690745
0.00275789
0.069105
0.00250102
0.0691141
0.0022456
0.0691046
0.0019916
0.0690757
0.00173898
0.0690299
0.00148768
0.0689665
0.00123763
0.0688874
0.000988766
0.0687917
0.000740944
0.0686808
0.000494369
0.000247353
0.0685533
-0.0351887
0.0123062
0.0365818
-0.0337742
0.0124204
-0.0323405
0.0125322
-0.0308876
0.0126418
-0.0294179
0.0127488
-0.0279312
0.0128531
-0.0264299
0.0129546
-0.024914
0.0130531
-0.0233859
0.0131483
-0.0218455
0.0132402
-0.0202799
0.0131416
-0.0187009
0.0131851
-0.0171124
0.0132455
-0.0155143
0.0132998
-0.0139086
0.0133479
-0.012295
0.0133897
-0.0106758
0.0134252
-0.00905074
0.0134545
-0.00742186
0.0134776
-0.00578906
0.0134946
-0.00415435
0.0135057
-0.00251758
0.0135112
-0.000880583
0.0135113
0.000757056
0.0135068
0.0023936
0.0134979
0.00402924
0.0134841
0.00566197
0.0134648
0.00729184
0.0134396
0.00891687
0.0134083
0.010537
0.0133708
0.0121511
0.0133192
0.0137639
0.0132063
0.0153682
0.0131502
0.0169638
0.0130879
0.018549
0.0130194
0.0201238
0.0129448
0.0216863
0.0128642
0.0232366
0.0127776
0.024773
0.0126851
0.0262952
0.0125867
0.0278018
0.0124825
0.0292925
0.0123726
0.0307657
0.012257
0.0322214
0.0121358
0.0336578
0.0120091
0.0350748
0.011877
0.036471
0.0117395
0.037846
0.0115968
0.0391985
0.0114489
0.040528
0.0112959
0.0418334
0.011138
0.0431142
0.0109752
0.0443692
0.0108077
0.0455981
0.0106355
0.0467996
0.0104589
0.0479734
0.0102779
0.0491184
0.0100926
0.0502342
0.00990327
0.05132
0.00970997
0.0523751
0.00951288
0.053399
0.00931214
0.0543918
0.00910085
0.0553544
0.0088745
0.056284
0.00866426
0.0571805
0.00845098
0.058043
0.00823484
0.0588719
0.00801601
0.059666
0.00779469
0.0604261
0.00757105
0.0611511
0.00734529
0.0618418
0.0071176
0.0624973
0.00688815
0.0631186
0.00665715
0.0637049
0.00642477
0.0642575
0.0061912
0.0647754
0.00595663
0.0652604
0.00572122
0.0657115
0.00548515
0.0661307
0.00524858
0.066517
0.00501167
0.0668726
0.00477457
0.0671966
0.00453741
0.0674914
0.00430033
0.067756
0.00406345
0.067993
0.00382687
0.0682014
0.00359069
0.0683838
0.003355
0.0685392
0.00311986
0.0686703
0.00288535
0.0687758
0.00265151
0.0688586
0.00241839
0.0689174
0.002186
0.0689546
0.00195438
0.0689692
0.00172354
0.0689633
0.00149348
0.068936
0.00126419
0.0688893
0.00103569
0.0688219
0.000807904
0.0687356
0.000581046
0.000354058
0.0686283
-0.0348202
0.0109271
0.0361988
-0.0334217
0.0110221
-0.0320061
0.0111163
-0.0305732
0.011209
-0.029125
0.0113002
-0.0276613
0.0113897
-0.0261845
0.0114774
-0.0246941
0.011563
-0.0231927
0.0116465
-0.02168
0.0117277
-0.0201434
0.0116047
-0.0185943
0.0116362
-0.0170365
0.0116874
-0.0154697
0.0117333
-0.0138959
0.0117738
-0.0123149
0.0118089
-0.0107288
0.0118387
-0.00913721
0.0118632
-0.00754225
0.0118823
-0.00594369
0.0118963
-0.0043435
0.0119052
-0.00274139
0.0119093
-0.00113919
0.0119089
0.000463575
0.0119043
0.00206491
0.0118963
0.00366495
0.0118843
0.00526177
0.0118677
0.00685557
0.011846
0.00844442
0.0118192
0.0100284
0.011787
0.0116064
0.011741
0.0131833
0.0116297
0.0147518
0.0115815
0.0163118
0.011528
0.0178617
0.0114693
0.0194014
0.0114053
0.0209293
0.0113362
0.0224453
0.0112619
0.0239477
0.0111826
0.0254364
0.0110982
0.0269101
0.0110088
0.0283683
0.0109146
0.0298098
0.0108155
0.0312342
0.0107116
0.0326403
0.010603
0.0340277
0.0104898
0.0353953
0.010372
0.0367424
0.0102497
0.0380683
0.0101231
0.0393722
0.00999213
0.0406533
0.00985694
0.041911
0.00971763
0.0431445
0.00957428
0.0443531
0.009427
0.0455362
0.00927589
0.046693
0.00912105
0.0478232
0.0089626
0.0489258
0.00880066
0.0500007
0.00863533
0.0510468
0.00846674
0.0520642
0.00829501
0.0530526
0.00811236
0.0540137
0.00791374
0.054944
0.00773383
0.0558441
0.00755124
0.0567127
0.00736609
0.0575505
0.00717853
0.0583563
0.0069887
0.059131
0.00679672
0.0598734
0.00660275
0.0605845
0.00640691
0.061263
0.00620935
0.0619104
0.0060102
0.0625253
0.00580961
0.0631093
0.0056077
0.063661
0.00540461
0.0641823
0.00520046
0.0646718
0.00499539
0.0651314
0.00478951
0.0655598
0.00458294
0.0659591
0.00437579
0.066328
0.00416818
0.0666687
0.00396019
0.0669798
0.00375194
0.0672637
0.0035435
0.0675191
0.00333496
0.0677482
0.00312641
0.0679498
0.0029179
0.0681261
0.00270952
0.068276
0.00250131
0.0684015
0.00229333
0.0685015
0.00208562
0.068578
0.00187824
0.06863
0.00167122
0.0686591
0.0014646
0.0686647
0.0012584
0.0686481
0.00105265
0.0686086
0.000847359
0.0685474
0.000642689
0.000437423
0.0684637
-0.0342125
0.00958869
0.0355505
-0.0328551
0.00966503
-0.0314801
0.00974085
-0.0300872
0.00981639
-0.0286788
0.00989149
-0.0272548
0.009966
-0.0258177
0.0100398
-0.0243671
0.0101127
-0.0229056
0.0101846
-0.0214329
0.0102553
-0.0199357
0.0101071
-0.018426
0.0101268
-0.0169079
0.0101689
-0.015381
0.0102067
-0.0138476
0.0102399
-0.0123071
0.0102687
-0.0107617
0.010293
-0.00921122
0.0103129
-0.00765767
0.0103284
-0.00610074
0.0103396
-0.00454249
0.0103466
-0.00298257
0.0103496
-0.00142289
0.0103488
0.000137104
0.0103446
0.0016961
0.010337
0.0032548
0.0103259
0.00481117
0.010311
0.00636526
0.0102922
0.00791511
0.0102691
0.00946068
0.0102417
0.0110009
0.0102006
0.0125408
0.0100899
0.014073
0.0100492
0.0155972
0.010004
0.0171119
0.00995445
0.0186168
0.0099005
0.0201107
0.00984221
0.0215931
0.00977961
0.0230628
0.00971275
0.0245193
0.00964167
0.0259617
0.00956642
0.0273892
0.00948704
0.028801
0.00940359
0.0301964
0.00931613
0.0315747
0.00922471
0.032935
0.00912939
0.0342768
0.00903024
0.0355991
0.00892733
0.0369015
0.00882071
0.038183
0.00871046
0.0394434
0.00859666
0.0406814
0.00847937
0.0418971
0.00835868
0.0430892
0.00823467
0.0442578
0.00810741
0.0454015
0.007977
0.0465207
0.00784352
0.0476139
0.00770707
0.0486817
0.00756772
0.0497225
0.00742558
0.0507369
0.00728074
0.0517243
0.00712454
0.0526869
0.00695132
0.0536208
0.00679949
0.0545269
0.00664528
0.0554037
0.00648881
0.0562523
0.00633016
0.057071
0.00616946
0.0578612
0.00600679
0.058621
0.00584226
0.0593522
0.00567598
0.0600529
0.00550805
0.0607248
0.00533857
0.0613661
0.00516764
0.0619787
0.00499537
0.0625608
0.00482185
0.0631144
0.00464718
0.0636377
0.00447146
0.0641327
0.00429477
0.0645977
0.00411721
0.0650349
0.00393888
0.0654425
0.00375984
0.0658229
0.00358019
0.0661741
0.0034
0.0664985
0.00321936
0.0667944
0.00303832
0.0670641
0.00285698
0.0673058
0.00267539
0.067522
0.00249361
0.0677108
0.00231171
0.0678745
0.00212974
0.0680116
0.00194777
0.0681241
0.00176584
0.0682106
0.001584
0.0682728
0.00140231
0.0683097
0.0012208
0.0683231
0.00103953
0.0683114
0.000858515
0.0682765
0.0006779
0.000497275
0.0682161
-0.0344103
0.00824302
0.0357556
-0.0330472
0.0083022
-0.0316699
0.0083631
-0.0302778
0.00842452
-0.028873
0.00848631
-0.0274551
0.00854838
-0.0260264
0.00861063
-0.0245864
0.00867297
-0.0231375
0.00873531
-0.0216795
0.00879756
-0.0202001
0.00862741
-0.0187101
0.00863695
-0.017213
0.00867147
-0.0157083
0.00870228
-0.0141981
0.00872939
-0.012682
0.0087528
-0.0111618
0.00877254
-0.00963728
0.00878861
-0.0081102
0.00880106
-0.0065803
0.00880994
-0.00504926
0.00881535
-0.00351682
0.00881741
-0.00198448
0.00881628
-0.000451858
0.00881219
0.00107921
0.0088057
0.00260822
0.00879705
0.00413352
0.00878556
0.0056552
0.00877069
0.00717192
0.00875225
0.00868357
0.00873018
0.0101896
0.00869449
0.0116949
0.00858473
0.0131926
0.00855146
0.0146822
0.00851451
0.0161627
0.00847392
0.0176335
0.00842971
0.0190939
0.0083819
0.020543
0.00833052
0.0219801
0.00827562
0.0234046
0.00821723
0.0248157
0.00815538
0.0262126
0.00809012
0.0275948
0.0080215
0.0289613
0.00794955
0.0303118
0.00787432
0.0316453
0.00779586
0.0329615
0.00771422
0.0342592
0.00762946
0.0355385
0.00754163
0.036798
0.00745078
0.0380379
0.00735697
0.0392569
0.00726027
0.0404551
0.00716073
0.0416311
0.00705841
0.0427855
0.00695338
0.0439165
0.00684571
0.0450249
0.00673545
0.046109
0.00662269
0.0471696
0.00650749
0.048205
0.00638992
0.049216
0.00627005
0.050202
0.0061383
0.0511653
0.0059884
0.0521018
0.00586265
0.0530126
0.00573484
0.0538961
0.00560503
0.0547534
0.00547331
0.0555827
0.00533974
0.0563856
0.0052044
0.05716
0.00506738
0.0579078
0.00492874
0.0586268
0.00478858
0.0593189
0.00464695
0.0599822
0.00450395
0.0606185
0.00435964
0.0612258
0.0042141
0.0618061
0.00406741
0.0623575
0.00391963
0.062882
0.00377084
0.0633777
0.00362111
0.0638466
0.00347051
0.0642869
0.00331911
0.0647007
0.00316697
0.0650861
0.00301416
0.0654452
0.00286075
0.0657763
0.00270679
0.0660815
0.00255234
0.066359
0.00239747
0.0666108
0.00224224
0.0668354
0.00208669
0.0670347
0.00193089
0.0672072
0.00177488
0.0673546
0.00161873
0.0674758
0.00146247
0.0675722
0.00130617
0.0676428
0.00114986
0.0676892
0.0009936
0.0677101
0.000837416
0.0677071
0.000681424
0.000524623
0.0676793
-0.0335267
0.00695397
0.0348154
-0.0322222
0.00699798
-0.0309022
0.00704277
-0.0295666
0.00708926
-0.028218
0.0071373
-0.0268561
0.00718681
-0.0254835
0.0072377
-0.0241001
0.00728986
-0.0227082
0.00734318
-0.0213079
0.0073975
-0.0198815
0.00720073
-0.0184439
0.00719961
-0.0169995
0.00722674
-0.0155479
0.00725094
-0.014091