/*--------------------------------*- C++ -*----------------------------------*\
  =========                 |
  \\      /  F ield         | OpenFOAM: The Open Source CFD Toolbox
   \\    /   O peration     | Website:  https://openfoam.org
    \\  /    A nd           | Version:  6.0
     \\/     M anipulation  |
\*---------------------------------------------------------------------------*/
FoamFile
{
    version     2.0;
    format      ascii;
    class       volVectorField;
    location    "200";
    object      U;
}
// * * * * * * * * * * * * * * * * * * * * * * * * * * * * * * * * * * * * * //

dimensions      [0 1 -1 0 0 0 0];

internalField   nonuniform List<vector> 
9800
(
(22.5743 4.39659 -8.70609e-16)
(22.6235 4.3513 -5.61714e-16)
(22.6619 4.29997 1.54939e-15)
(22.6943 4.24455 6.60726e-16)
(22.7225 4.18727 -1.91121e-15)
(22.7479 4.12939 1.16593e-15)
(22.7713 4.07163 -4.78464e-16)
(22.7935 4.01438 -5.09481e-16)
(22.8145 3.95775 9.8433e-16)
(22.8347 3.90172 -6.65963e-16)
(22.8546 3.84669 3.16225e-16)
(22.8742 3.79231 4.29843e-17)
(22.8934 3.73871 -4.12846e-16)
(22.9124 3.68583 2.91904e-16)
(22.9311 3.63367 -1.11339e-16)
(22.9494 3.58223 -4.68635e-17)
(22.9674 3.53155 -7.93869e-17)
(22.9848 3.48171 1.90255e-16)
(23.0014 3.43286 -3.6197e-16)
(23.0166 3.38532 -8.5772e-17)
(23.0299 3.33975 5.6724e-16)
(23.0401 3.29769 1.66888e-16)
(23.0459 3.26183 -1.29882e-16)
(23.0483 3.22993 -9.91169e-17)
(23.0488 3.19334 -7.39956e-16)
(23.0466 3.14943 1.05599e-15)
(23.0424 3.10114 6.21596e-17)
(23.0369 3.05025 -1.50452e-15)
(23.0305 2.99759 -7.31966e-17)
(23.0236 2.94359 1.4679e-15)
(23.0164 2.88838 -4.2124e-16)
(23.0092 2.83239 -6.22886e-16)
(23.0021 2.77543 6.67549e-16)
(22.995 2.71751 5.32434e-16)
(22.9881 2.65866 8.04749e-16)
(22.9813 2.59886 -1.07589e-15)
(22.9747 2.53809 1.58201e-16)
(22.9683 2.47632 -5.09637e-16)
(22.9621 2.4135 -2.15848e-16)
(22.9561 2.34957 -5.5158e-16)
(22.9502 2.28448 6.75848e-16)
(22.9446 2.21817 5.11505e-16)
(22.939 2.15055 4.70798e-16)
(22.9336 2.08154 6.03683e-16)
(22.9283 2.01108 -3.06846e-15)
(22.923 1.93904 8.31325e-16)
(22.9179 1.86535 2.15967e-15)
(22.9128 1.78987 -1.21237e-15)
(22.9077 1.71249 -8.48542e-16)
(22.9026 1.63308 1.05642e-15)
(22.8974 1.5515 -2.87025e-15)
(22.8922 1.46756 -1.90795e-16)
(22.8869 1.38112 2.36244e-15)
(22.8814 1.29196 -6.77258e-17)
(22.8758 1.19987 -1.30218e-16)
(22.8699 1.10461 -1.9103e-15)
(22.8637 1.00592 3.08241e-15)
(22.8572 0.903489 -1.77839e-15)
(22.8502 0.796982 -2.2835e-16)
(22.8427 0.686013 1.253e-15)
(22.8345 0.570145 1.05391e-15)
(22.8257 0.44888 -2.06862e-15)
(22.8159 0.321758 1.04004e-15)
(22.805 0.187989 -1.31056e-15)
(22.7928 0.046792 1.25168e-15)
(22.7789 -0.10274 -9.60723e-16)
(22.7628 -0.261679 1.99662e-15)
(22.7441 -0.431338 -2.05614e-15)
(22.7218 -0.613302 1.55384e-15)
(22.6948 -0.809529 -2.38215e-15)
(22.6612 -1.02245 1.07716e-15)
(22.6183 -1.25519 5.10643e-17)
(22.5619 -1.51175 2.00662e-15)
(22.4856 -1.79759 -2.5317e-15)
(22.379 -2.12006 5.1333e-16)
(22.2256 -2.49012 2.11169e-16)
(21.9979 -2.92415 1.66706e-16)
(21.6524 -3.44764 -3.26378e-16)
(21.1116 -4.12348 -1.49841e-16)
(20.1969 -5.04472 -1.08597e-15)
(19.1589 -5.86802 5.10247e-16)
(18.0746 -6.73729 -9.52901e-16)
(17.335 -6.48176 1.78503e-15)
(17.0101 -6.34497 -1.71438e-16)
(16.7701 -6.10655 1.78969e-15)
(16.4777 -5.88774 -3.85303e-16)
(16.1386 -5.66766 -1.3341e-15)
(15.8056 -5.4471 -1.00498e-15)
(15.4976 -5.22715 2.93354e-15)
(15.2037 -5.00476 -4.63888e-16)
(14.9116 -4.7736 -1.24012e-15)
(14.6192 -4.52883 1.14961e-15)
(14.3283 -4.2678 -1.40833e-15)
(14.0374 -3.98845 1.93493e-15)
(13.7423 -3.68808 -3.05774e-16)
(13.4383 -3.36276 -3.39233e-16)
(13.1217 -3.00922 -9.18826e-16)
(12.7887 -2.61039 1.3773e-15)
(12.4372 -2.2301 -3.63587e-16)
(12.0659 -1.3619 2.75322e-17)
(20.759 4.77143 7.85228e-16)
(20.7721 4.70002 5.32049e-16)
(20.784 4.62244 -4.71444e-16)
(20.7966 4.5425 3.3368e-16)
(20.8088 4.4602 -9.69041e-16)
(20.8203 4.37633 4.70244e-16)
(20.8308 4.29136 -8.9224e-17)
(20.8403 4.20574 1.1081e-15)
(20.8489 4.11973 -2.02987e-15)
(20.8564 4.0334 2.92069e-16)
(20.863 3.9469 1.38248e-16)
(20.8692 3.86046 3.52353e-16)
(20.8747 3.77427 -5.31964e-17)
(20.8796 3.68833 -3.27856e-16)
(20.8838 3.60275 3.40849e-16)
(20.8873 3.5177 1.34668e-17)
(20.8901 3.43339 -1.76622e-16)
(20.892 3.35019 3.2142e-16)
(20.8929 3.26863 -8.58292e-16)
(20.8928 3.18945 9.64699e-16)
(20.8915 3.11356 -3.84724e-16)
(20.8891 3.04266 -1.48021e-15)
(20.887 2.98099 5.84426e-17)
(20.8906 2.92674 -1.83656e-16)
(20.9019 2.86741 2.13474e-15)
(20.9161 2.79905 -3.24398e-16)
(20.9309 2.72512 -1.51409e-15)
(20.9456 2.64731 -1.85897e-15)
(20.9601 2.5666 2.3204e-15)
(20.9743 2.48379 3.62107e-16)
(20.9882 2.39927 8.16201e-16)
(21.0017 2.31345 1.56227e-15)
(21.015 2.22658 -1.60944e-15)
(21.0281 2.13882 -1.61809e-16)
(21.0411 2.05025 -1.53698e-15)
(21.0539 1.9609 1.68178e-15)
(21.0665 1.87078 7.28189e-16)
(21.0789 1.77985 -1.60504e-15)
(21.0912 1.68809 1.2588e-16)
(21.1034 1.59544 -6.49535e-16)
(21.1154 1.50182 3.4718e-16)
(21.1273 1.40716 -3.80543e-15)
(21.139 1.31137 7.33403e-15)
(21.1506 1.21436 -4.57114e-15)
(21.162 1.11603 -1.41203e-15)
(21.1733 1.01626 1.42937e-15)
(21.1844 0.914948 -3.4994e-15)
(21.1952 0.811947 1.92951e-15)
(21.2059 0.707135 9.0144e-16)
(21.2163 0.600351 3.8722e-15)
(21.2264 0.491447 -5.74374e-15)
(21.2363 0.380239 6.1355e-15)
(21.2457 0.266549 -2.5715e-17)
(21.2549 0.150164 -4.70983e-16)
(21.2635 0.0308662 -2.99741e-16)
(21.2717 -0.0915945 -9.15904e-16)
(21.2794 -0.217488 -2.89163e-15)
(21.2864 -0.347109 1.41013e-15)
(21.2927 -0.480778 1.20771e-15)
(21.2982 -0.618859 1.30606e-16)
(21.3026 -0.761744 -1.5401e-15)
(21.306 -0.909915 -6.91665e-16)
(21.308 -1.06395 2.4576e-15)
(21.3085 -1.22436 -5.67901e-16)
(21.3071 -1.39175 -3.33421e-15)
(21.3035 -1.56686 3.70553e-15)
(21.2972 -1.75051 -3.07753e-15)
(21.2875 -1.94364 4.84881e-15)
(21.2739 -2.14727 -3.57346e-15)
(21.2553 -2.36259 -5.22965e-17)
(21.2306 -2.59082 4.2814e-15)
(21.1984 -2.83336 -1.8039e-15)
(21.157 -3.09153 -9.38706e-16)
(21.1044 -3.36667 1.75994e-17)
(21.0378 -3.6596 -4.2601e-16)
(20.9549 -3.9704 9.88188e-16)
(20.8518 -4.29733 2.88675e-16)
(20.7264 -4.63468 -8.42384e-16)
(20.5731 -4.97172 1.37159e-15)
(20.3719 -5.29426 -5.81678e-16)
(20.2046 -5.3933 2.01058e-16)
(19.8688 -5.44805 2.35049e-17)
(19.4817 -5.24931 -1.50381e-15)
(19.0039 -5.0225 -8.82688e-16)
(18.542 -4.80884 7.35131e-16)
(18.1339 -4.61736 3.8981e-16)
(17.7708 -4.42746 6.35513e-16)
(17.43 -4.22745 -1.50546e-15)
(17.1035 -4.01682 -2.65767e-16)
(16.7925 -3.79688 7.17157e-17)
(16.4994 -3.56597 -9.46844e-16)
(16.2238 -3.32105 2.70491e-15)
(15.9641 -3.05981 -2.16772e-15)
(15.72 -2.7804 8.94591e-16)
(15.4927 -2.48045 6.47479e-17)
(15.2843 -2.15667 5.09965e-16)
(15.0981 -1.80508 1.72457e-17)
(14.9396 -1.42022 -9.67978e-16)
(14.8156 -0.997948 8.50733e-17)
(14.7447 -0.527795 9.82478e-17)
(21.4967 4.64644 -1.88919e-15)
(21.4907 4.56036 8.46622e-16)
(21.4854 4.48116 -6.27635e-16)
(21.4819 4.4062 6.67487e-17)
(21.4791 4.33393 -2.64428e-16)
(21.4766 4.26343 1.24441e-15)
(21.4738 4.19394 -7.54015e-16)
(21.4705 4.12502 8.94175e-16)
(21.4664 4.05644 -1.00388e-17)
(21.4615 3.98801 -1.52677e-15)
(21.4556 3.91911 1.21952e-15)
(21.4489 3.85059 -4.18696e-16)
(21.4411 3.78178 4.25931e-17)
(21.4323 3.71274 1.10404e-16)
(21.4224 3.64348 -1.04492e-16)
(21.4117 3.57399 -1.69141e-17)
(21.4001 3.50422 -1.66992e-16)
(21.3879 3.43415 1.63618e-16)
(21.3754 3.36368 4.70041e-16)
(21.363 3.29261 -1.68872e-16)
(21.3515 3.22036 -2.48436e-17)
(21.3421 3.14565 -8.29245e-16)
(21.3375 3.06848 -1.02708e-15)
(21.3439 2.99172 1.65801e-15)
(21.3615 2.91725 -3.42747e-16)
(21.3835 2.84614 1.43558e-15)
(21.4071 2.77773 -1.36189e-15)
(21.4314 2.71046 1.8008e-15)
(21.4559 2.64351 -2.94815e-15)
(21.4802 2.57657 1.01646e-15)
(21.504 2.50954 -4.49615e-16)
(21.5269 2.44183 1.11849e-16)
(21.549 2.37406 1.39809e-15)
(21.5705 2.3059 4.26615e-16)
(21.5911 2.23732 1.17044e-15)
(21.6108 2.16829 -1.82355e-15)
(21.6297 2.09878 -6.32024e-16)
(21.6477 2.02872 2.30345e-15)
(21.6648 1.95806 -1.15113e-15)
(21.681 1.88674 1.37309e-15)
(21.6964 1.81469 -8.82725e-16)
(21.7109 1.74184 6.38051e-16)
(21.7246 1.66812 -2.21055e-15)
(21.7375 1.59343 -1.98155e-15)
(21.7494 1.51771 1.96268e-15)
(21.7606 1.44085 1.26369e-15)
(21.7708 1.36275 2.11042e-15)
(21.7801 1.28331 -2.73481e-15)
(21.7885 1.20242 -4.16301e-16)
(21.7959 1.11996 1.94759e-15)
(21.8023 1.03581 -5.55916e-16)
(21.8076 0.949813 2.45701e-15)
(21.8118 0.861842 -5.29533e-16)
(21.8148 0.771728 -1.69947e-15)
(21.8164 0.679307 5.389e-16)
(21.8167 0.584389 -2.2107e-15)
(21.8153 0.48678 3.73862e-15)
(21.8123 0.38626 -1.46307e-15)
(21.8074 0.282603 -1.34662e-15)
(21.8003 0.175548 1.1773e-15)
(21.791 0.0648454 -1.46527e-16)
(21.7789 -0.0498074 -2.33295e-15)
(21.7638 -0.168734 1.78491e-15)
(21.7451 -0.292206 1.25416e-16)
(21.7224 -0.420593 1.17077e-15)
(21.6952 -0.554289 -1.83736e-15)
(21.6625 -0.693655 1.5133e-15)
(21.6236 -0.839097 -1.20116e-15)
(21.5773 -0.990955 -1.24826e-15)
(21.5223 -1.14959 2.56284e-15)
(21.457 -1.31523 -1.95168e-15)
(21.3794 -1.48806 2.16316e-15)
(21.287 -1.668 9.5655e-16)
(21.1768 -1.85479 -2.94691e-15)
(21.0451 -2.04773 1.13775e-15)
(20.8872 -2.24559 6.62187e-17)
(20.6974 -2.44645 -1.0687e-15)
(20.4689 -2.64731 7.10965e-16)
(20.1932 -2.84398 1.11815e-15)
(19.8593 -3.03239 -6.50102e-16)
(19.4721 -3.19869 -2.8764e-16)
(19.043 -3.33231 6.4457e-16)
(18.6035 -3.42428 8.13217e-16)
(18.1949 -3.4705 -3.64229e-15)
(17.8369 -3.47274 1.9054e-15)
(17.5204 -3.43989 1.24875e-15)
(17.2264 -3.37874 -1.38751e-15)
(16.9458 -3.29286 -5.42986e-16)
(16.6801 -3.18461 1.35518e-15)
(16.434 -3.05586 -1.63441e-15)
(16.2071 -2.90804 1.84891e-16)
(15.9958 -2.7424 1.79194e-15)
(15.7986 -2.56006 -4.18637e-16)
(15.6162 -2.36194 -2.59192e-16)
(15.4505 -2.14861 -7.78876e-16)
(15.3031 -1.92057 8.7861e-16)
(15.1772 -1.67857 1.3691e-16)
(15.0731 -1.42302 -6.50173e-16)
(15.0052 -1.15663 9.40532e-17)
(14.9468 -0.882607 -3.46563e-17)
(21.3868 4.51699 2.33393e-15)
(21.4205 4.44921 -1.49362e-15)
(21.4481 4.38313 -2.5449e-17)
(21.4717 4.31725 1.89949e-15)
(21.4922 4.25215 -1.82457e-15)
(21.5104 4.18785 -2.30629e-16)
(21.5267 4.12435 2.90187e-16)
(21.5413 4.06159 3.75039e-17)
(21.5545 3.99949 -6.50156e-16)
(21.5666 3.93801 9.1473e-16)
(21.5779 3.87715 -7.00605e-18)
(21.5882 3.81684 -4.14605e-18)
(21.5975 3.75674 -5.57871e-17)
(21.6058 3.69684 9.26398e-17)
(21.6132 3.63697 5.57596e-18)
(21.6198 3.57697 2.18862e-17)
(21.6255 3.51661 2.33206e-17)
(21.6306 3.45561 -2.12366e-17)
(21.635 3.39358 2.16226e-16)
(21.6388 3.33008 -9.86e-17)
(21.6422 3.26456 3.68217e-17)
(21.6452 3.19598 -1.4797e-15)
(21.6486 3.12311 1.5084e-15)
(21.6549 3.04793 2.93514e-16)
(21.6636 2.97495 -1.93875e-15)
(21.6717 2.90584 9.54596e-16)
(21.6787 2.8394 -7.85201e-16)
(21.6847 2.77449 2.53584e-15)
(21.6898 2.71054 -1.47532e-15)
(21.6941 2.64706 6.67344e-16)
(21.6976 2.58376 -1.27336e-15)
(21.7002 2.52022 -5.11887e-16)
(21.7022 2.4564 1.27692e-15)
(21.7034 2.39201 6.50417e-17)
(21.704 2.3269 -1.61154e-15)
(21.7037 2.26096 1.97526e-15)
(21.7027 2.19412 -3.99709e-16)
(21.701 2.12629 -1.58838e-16)
(21.6984 2.05739 -7.84253e-16)
(21.695 1.98735 4.43442e-16)
(21.6908 1.91611 4.48279e-16)
(21.6857 1.8436 5.65682e-16)
(21.6798 1.76975 1.89742e-15)
(21.673 1.6945 -5.57003e-15)
(21.6653 1.61776 1.03008e-15)
(21.6566 1.53946 4.03462e-15)
(21.6469 1.45951 -5.22043e-15)
(21.6361 1.37783 -2.09011e-16)
(21.6242 1.29433 3.04376e-15)
(21.6111 1.2089 1.43418e-15)
(21.5967 1.12145 -3.72898e-15)
(21.581 1.03184 2.60203e-16)
(21.5637 0.939985 3.64482e-15)
(21.5448 0.845736 -8.73211e-16)
(21.5242 0.748969 -1.48626e-16)
(21.5016 0.649537 -1.68513e-15)
(21.4769 0.547299 3.16198e-15)
(21.4499 0.442093 -2.94276e-15)
(21.4203 0.33377 1.96586e-15)
(21.3878 0.222158 -2.75009e-16)
(21.3522 0.107098 -9.34252e-16)
(21.3131 -0.0115628 9.38628e-16)
(21.2701 -0.133891 5.58983e-17)
(21.2227 -0.260122 3.2267e-16)
(21.1703 -0.390409 -3.10748e-15)
(21.1124 -0.524873 1.38664e-15)
(21.0483 -0.663578 -1.14163e-15)
(20.9772 -0.806568 1.6533e-15)
(20.8983 -0.953782 1.1348e-15)
(20.8106 -1.10509 -2.61569e-15)
(20.713 -1.26021 -1.9668e-16)
(20.6046 -1.41869 1.33513e-15)
(20.484 -1.57984 7.70548e-16)
(20.3501 -1.74266 1.0264e-15)
(20.2019 -1.90575 -1.78485e-15)
(20.0382 -2.06715 1.25619e-15)
(19.8586 -2.22427 1.99368e-16)
(19.6629 -2.37359 -1.53546e-15)
(19.4523 -2.51057 2.68428e-15)
(19.2284 -2.62953 -3.62602e-16)
(18.9954 -2.72417 -8.97961e-16)
(18.7588 -2.7884 -1.9312e-15)
(18.5232 -2.81827 -4.33836e-17)
(18.2891 -2.81558 5.60244e-16)
(18.057 -2.78527 2.1853e-15)
(17.8282 -2.73331 -2.95332e-15)
(17.6054 -2.66348 3.69618e-15)
(17.3917 -2.57731 -1.51289e-15)
(17.1886 -2.47585 1.07517e-15)
(16.9964 -2.36064 -1.66179e-15)
(16.815 -2.23323 -1.59976e-16)
(16.645 -2.09468 1.46419e-15)
(16.4876 -1.94557 -1.41902e-15)
(16.3442 -1.78652 1.02719e-15)
(16.2162 -1.61832 5.91636e-16)
(16.1055 -1.44169 -5.13574e-16)
(16.015 -1.25752 5.58456e-16)
(15.9439 -1.06702 -7.61941e-18)
(15.9026 -0.871175 -2.11904e-16)
(15.8679 -0.677752 -3.88697e-18)
(20.9813 4.45339 -1.58276e-15)
(21.0099 4.39035 1.88458e-15)
(21.0363 4.32695 -3.4879e-16)
(21.0611 4.26355 8.78105e-16)
(21.0841 4.20019 -1.32046e-15)
(21.1056 4.13688 1.69559e-15)
(21.1257 4.07368 -4.57464e-16)
(21.1445 4.01064 3.41935e-16)
(21.1622 3.9477 -2.46234e-16)
(21.179 3.88488 -9.86852e-16)
(21.1952 3.82281 1.32026e-16)
(21.2107 3.76062 1.78723e-16)
(21.2256 3.6987 1.17131e-16)
(21.2397 3.63694 -2.62686e-16)
(21.2533 3.57528 1.54636e-16)
(21.2661 3.51366 -2.33095e-17)
(21.2783 3.45204 1.04569e-16)
(21.2895 3.39035 7.34233e-17)
(21.2998 3.32853 -1.76123e-16)
(21.3086 3.26656 -4.89415e-16)
(21.3158 3.20459 5.97378e-16)
(21.3211 3.1429 6.16163e-16)
(21.3249 3.08144 -1.65271e-15)
(21.3286 3.01996 2.36156e-15)
(21.3324 2.95816 -4.1239e-16)
(21.3349 2.89539 -1.38218e-15)
(21.3356 2.83145 -3.10042e-16)
(21.3348 2.76661 2.16683e-15)
(21.3326 2.70112 -2.97496e-15)
(21.3295 2.63503 2.60241e-15)
(21.3256 2.56831 -2.51397e-15)
(21.3212 2.50133 3.96944e-15)
(21.3163 2.43356 -3.31428e-15)
(21.3111 2.36515 1.28914e-15)
(21.3055 2.29607 -9.70533e-16)
(21.2996 2.22624 1.20898e-15)
(21.2932 2.1556 1.08093e-15)
(21.2865 2.08412 -3.48691e-15)
(21.2793 2.01176 1.58563e-15)
(21.2717 1.93846 -1.09758e-15)
(21.2636 1.8642 7.10093e-16)
(21.2549 1.78893 -2.16831e-15)
(21.2456 1.71261 3.2444e-15)
(21.2357 1.63519 -2.36295e-15)
(21.2251 1.55663 1.24444e-16)
(21.2137 1.47687 7.51263e-16)
(21.2015 1.39588 3.20469e-15)
(21.1884 1.3136 -2.6811e-15)
(21.1743 1.22998 -4.9983e-16)
(21.1591 1.14496 2.03515e-15)
(21.1428 1.0585 -4.37513e-15)
(21.1252 0.970529 4.48688e-15)
(21.1061 0.881001 -4.57386e-16)
(21.0856 0.789852 3.41667e-16)
(21.0633 0.697036 -4.81903e-16)
(21.0393 0.602489 -2.862e-15)
(21.0132 0.506174 3.19762e-15)
(20.985 0.408036 1.70698e-15)
(20.9543 0.308054 -5.17926e-15)
(20.921 0.206187 1.20625e-15)
(20.8848 0.102438 -2.73398e-15)
(20.8454 -0.00318028 2.06617e-15)
(20.8026 -0.110558 -8.04818e-16)
(20.7561 -0.219705 1.46537e-15)
(20.7053 -0.330556 -2.2542e-15)
(20.6499 -0.442977 8.92696e-16)
(20.5896 -0.556773 3.38527e-15)
(20.5237 -0.671696 9.54556e-16)
(20.4518 -0.787406 -2.9858e-15)
(20.3733 -0.903471 2.48463e-15)
(20.2879 -1.01935 -2.39507e-15)
(20.1948 -1.13435 7.1081e-16)
(20.0935 -1.24767 3.04132e-15)
(19.9835 -1.35828 -2.50388e-15)
(19.8643 -1.46503 -1.59021e-15)
(19.7354 -1.56652 1.2263e-15)
(19.5964 -1.6612 -1.71523e-15)
(19.4473 -1.74734 1.74037e-16)
(19.2878 -1.82317 1.63944e-15)
(19.1185 -1.88689 -1.1523e-16)
(18.9398 -1.93709 -5.50784e-16)
(18.7531 -1.97278 5.52735e-16)
(18.5604 -1.99378 -1.28337e-15)
(18.3645 -2.0006 7.63722e-16)
(18.1689 -1.99387 -2.04997e-15)
(17.9772 -1.97418 1.87079e-15)
(17.7917 -1.94201 -8.29296e-16)
(17.6134 -1.89793 8.11336e-16)
(17.4426 -1.84268 -7.22509e-16)
(17.2801 -1.77707 -1.06006e-15)
(17.1266 -1.70186 4.94398e-16)
(16.9832 -1.6177 1.30295e-15)
(16.8507 -1.52527 -2.61979e-16)
(16.73 -1.42532 -1.17796e-16)
(16.622 -1.31875 -5.50974e-16)
(16.5275 -1.20665 2.15794e-16)
(16.4485 -1.09025 9.61106e-16)
(16.3828 -0.970968 -6.72474e-16)
(16.339 -0.850024 1.27452e-16)
(16.2881 -0.73265 -1.02265e-17)
(20.7814 4.39299 -3.2477e-15)
(20.8005 4.33117 2.58083e-15)
(20.818 4.26946 -2.58066e-15)
(20.8346 4.20809 2.24251e-15)
(20.8502 4.1469 -9.08291e-16)
(20.8646 4.08584 9.76628e-16)
(20.8781 4.02486 -3.89678e-16)
(20.8905 3.96391 3.64214e-16)
(20.902 3.90284 -1.36681e-15)
(20.9125 3.84164 3.31196e-16)
(20.9221 3.78079 2.91496e-16)
(20.9311 3.71958 -9.84064e-17)
(20.9391 3.65837 -5.29114e-17)
(20.9463 3.597 -1.77778e-17)
(20.9527 3.53548 2.38783e-16)
(20.9582 3.47385 -9.3893e-17)
(20.9628 3.41212 -1.93072e-16)
(20.9665 3.35036 3.21469e-16)
(20.969 3.28861 -3.32443e-16)
(20.9705 3.22697 4.71522e-16)
(20.9708 3.16556 -1.35882e-16)
(20.9704 3.10474 -2.14457e-15)
(20.9704 3.04498 2.60584e-15)
(20.9727 2.98608 1.45406e-16)
(20.9777 2.92684 -2.17465e-15)
(20.9835 2.86634 1.62558e-15)
(20.989 2.8046 -1.10176e-15)
(20.9935 2.74185 2.49247e-15)
(20.9972 2.67823 -1.93217e-15)
(20.9999 2.61384 4.55269e-16)
(21.0018 2.54866 -1.68176e-15)
(21.0031 2.48323 -5.16405e-19)
(21.0038 2.41705 -7.14683e-16)
(21.0038 2.35036 2.40171e-15)
(21.0032 2.2832 1.30899e-15)
(21.002 2.21552 -1.32311e-15)
(21 2.1473 -3.86989e-17)
(20.9974 2.07852 -5.44093e-16)
(20.9941 2.00917 -7.90119e-16)
(20.99 1.93922 2.38919e-15)
(20.9851 1.86864 -1.46155e-15)
(20.9793 1.79738 4.12868e-15)
(20.9726 1.72542 -7.99222e-15)
(20.9649 1.65273 -2.24416e-16)
(20.9562 1.57926 5.11427e-15)
(20.9464 1.50497 1.8421e-15)
(20.9355 1.42984 -7.58564e-16)
(20.9232 1.35382 -2.1983e-15)
(20.9097 1.27688 -1.59205e-15)
(20.8947 1.19898 2.88644e-15)
(20.8783 1.12009 -1.7634e-15)
(20.8602 1.04017 -1.82378e-15)
(20.8403 0.959207 5.08926e-15)
(20.8186 0.87716 4.99992e-16)
(20.795 0.794016 -2.29529e-15)
(20.7691 0.709753 -6.90489e-16)
(20.741 0.624372 2.60822e-15)
(20.7104 0.537862 -3.41474e-15)
(20.6772 0.450245 -8.64058e-16)
(20.6411 0.361537 5.69873e-16)
(20.6019 0.271785 1.47827e-15)
(20.5595 0.181061 -8.12934e-16)
(20.5136 0.0895033 4.64772e-16)
(20.4639 -0.00281713 -5.18922e-16)
(20.4102 -0.0958145 1.99048e-15)
(20.3521 -0.189317 -2.053e-15)
(20.2893 -0.283126 2.22749e-15)
(20.2215 -0.376992 -2.30645e-15)
(20.1484 -0.470623 1.12192e-15)
(20.0696 -0.563656 1.53714e-15)
(19.9849 -0.655685 2.28364e-17)
(19.894 -0.746217 -1.67433e-15)
(19.7966 -0.83471 4.13538e-16)
(19.6925 -0.920523 9.74631e-16)
(19.5816 -1.00297 -2.88247e-15)
(19.464 -1.08125 3.29261e-15)
(19.3397 -1.15456 -2.20076e-15)
(19.2092 -1.22197 -9.86269e-16)
(19.073 -1.28258 4.16464e-15)
(18.932 -1.33544 -1.18569e-15)
(18.7873 -1.37968 1.37532e-15)
(18.6403 -1.41448 -4.01744e-15)
(18.4925 -1.43918 1.56568e-15)
(18.3456 -1.45333 1.91254e-15)
(18.2008 -1.45682 -1.0855e-15)
(18.059 -1.44985 5.42833e-16)
(17.9209 -1.43288 -4.03237e-16)
(17.7871 -1.40647 -9.8812e-16)
(17.6585 -1.3712 7.82593e-16)
(17.5357 -1.32762 -1.76157e-15)
(17.4196 -1.27633 1.82407e-15)
(17.3109 -1.21795 5.70852e-16)
(17.2103 -1.15313 -1.65089e-15)
(17.1186 -1.0826 4.27436e-16)
(17.0363 -1.00711 -1.36063e-16)
(16.9641 -0.9275 2.12009e-16)
(16.9029 -0.844729 -7.61522e-16)
(16.8506 -0.759797 2.0437e-16)
(16.8147 -0.6735 3.18984e-16)
(16.7663 -0.590323 6.65016e-17)
(20.6 4.29787 -2.77296e-16)
(20.6224 4.24302 3.19512e-15)
(20.6423 4.18802 -1.80578e-15)
(20.6606 4.13288 7.06802e-16)
(20.6771 4.07756 -1.31391e-15)
(20.692 4.02208 1.73894e-15)
(20.7055 3.96643 6.87835e-17)
(20.7176 3.9106 -1.26712e-15)
(20.7283 3.85449 1.14882e-15)
(20.7377 3.79808 -8.38691e-16)
(20.7459 3.74185 -6.08209e-16)
(20.753 3.68521 5.21e-16)
(20.759 3.62837 -1.19942e-18)
(20.7638 3.57116 -2.39281e-16)
(20.7674 3.51359 3.66023e-16)
(20.7699 3.45562 -2.26792e-17)
(20.7713 3.39723 -1.67185e-16)
(20.7717 3.33838 3.08771e-16)
(20.771 3.27905 -5.74118e-16)
(20.7693 3.21921 7.19128e-16)
(20.767 3.15884 2.69283e-16)
(20.7646 3.09797 -2.73855e-16)
(20.7634 3.0369 1.38361e-15)
(20.765 2.97598 -2.33779e-15)
(20.7698 2.91529 3.45697e-16)
(20.7759 2.85468 1.74623e-15)
(20.782 2.79407 -3.46651e-16)
(20.7874 2.73333 1.23404e-15)
(20.7919 2.67236 -4.27398e-15)
(20.7954 2.61109 2.93368e-15)
(20.7979 2.5494 -1.58391e-17)
(20.7995 2.48766 3.06021e-16)
(20.8001 2.42543 -1.62886e-15)
(20.7997 2.36282 -1.29779e-15)
(20.7983 2.29982 1.79579e-15)
(20.7959 2.23637 -1.68601e-18)
(20.7924 2.17245 -1.21148e-15)
(20.788 2.10804 1.51802e-15)
(20.7824 2.0431 -2.2122e-16)
(20.7758 1.97762 1.01219e-15)
(20.768 1.91156 -1.73047e-15)
(20.7591 1.84489 1.24406e-15)
(20.749 1.7776 -3.27941e-15)
(20.7376 1.70965 1.59398e-15)
(20.7249 1.64103 4.09191e-16)
(20.7109 1.5717 1.56187e-16)
(20.6956 1.50166 -3.34204e-15)
(20.6787 1.43087 2.97874e-15)
(20.6604 1.35933 2.86202e-15)
(20.6405 1.28702 -8.74526e-17)
(20.6189 1.21393 -3.56922e-15)
(20.5956 1.14006 2.18549e-15)
(20.5705 1.06541 -1.66123e-15)
(20.5434 0.989971 1.59263e-16)
(20.5144 0.913771 -8.85507e-16)
(20.4832 0.836817 2.40241e-16)
(20.4498 0.75914 5.10675e-15)
(20.414 0.680776 -5.82791e-15)
(20.3758 0.601776 3.12448e-15)
(20.335 0.522199 -3.42831e-15)
(20.2914 0.442126 4.86546e-16)
(20.2449 0.361676 1.33185e-15)
(20.1956 0.281023 2.41573e-15)
(20.1431 0.200259 -1.37066e-15)
(20.0873 0.119494 -3.37407e-15)
(20.028 0.0389208 2.36196e-15)
(19.9651 -0.0412548 9.92111e-16)
(19.8984 -0.120783 2.48922e-15)
(19.8279 -0.199395 2.67937e-16)
(19.7535 -0.276762 -5.02446e-15)
(19.675 -0.352545 1.58762e-15)
(19.5925 -0.426339 1.50528e-15)
(19.5059 -0.497726 2.49516e-15)
(19.4153 -0.566229 -5.18639e-16)
(19.3208 -0.631363 -3.52316e-15)
(19.2225 -0.692593 6.08359e-16)
(19.1208 -0.749392 1.41197e-15)
(19.0159 -0.801211 -1.67349e-15)
(18.9083 -0.847541 1.7242e-15)
(18.7983 -0.887895 -1.53084e-15)
(18.6866 -0.921875 -9.27414e-17)
(18.5736 -0.949168 8.99565e-16)
(18.46 -0.969597 -4.19824e-16)
(18.3464 -0.983119 -1.33935e-15)
(18.2334 -0.989833 5.08305e-16)
(18.1216 -0.989935 -2.32236e-15)
(18.0119 -0.983683 4.17901e-15)
(17.9049 -0.971369 -2.87817e-15)
(17.8013 -0.953315 1.40449e-15)
(17.7017 -0.92989 -1.58441e-16)
(17.6069 -0.901508 -3.62925e-16)
(17.5172 -0.868638 -1.04496e-15)
(17.4333 -0.831787 3.19838e-16)
(17.3556 -0.791522 2.40011e-16)
(17.2845 -0.748464 6.75683e-17)
(17.2201 -0.703295 -8.46266e-17)
(17.1633 -0.656766 -5.90804e-16)
(17.112 -0.609675 1.15451e-15)
(17.0732 -0.562442 -6.67395e-17)
(17.0186 -0.518412 2.45305e-17)
(20.3867 4.19478 2.24581e-15)
(20.4091 4.14596 -2.34894e-15)
(20.4295 4.09667 6.05471e-16)
(20.4484 4.04712 1.98977e-15)
(20.4658 3.99725 -2.71282e-15)
(20.4818 3.94706 5.39976e-16)
(20.4963 3.89655 3.87718e-16)
(20.5094 3.8457 -1.59237e-15)
(20.521 3.79438 1.14536e-15)
(20.5313 3.74262 -2.77889e-16)
(20.5403 3.69103 3.80235e-16)
(20.5483 3.63888 4.75123e-18)
(20.555 3.58642 -2.64881e-16)
(20.5606 3.5335 -6.38973e-17)
(20.5649 3.48011 5.08332e-16)
(20.5681 3.42619 -1.03335e-16)
(20.5702 3.37172 -1.92724e-16)
(20.5711 3.31665 2.96623e-16)
(20.5708 3.26094 5.01841e-16)
(20.5696 3.20459 -1.2153e-15)
(20.5675 3.14758 4.03582e-16)
(20.5652 3.08995 -1.5794e-15)
(20.5636 3.03184 2.33906e-15)
(20.5639 2.97354 8.94443e-16)
(20.5664 2.9154 -1.77582e-15)
(20.5697 2.85742 7.53533e-16)
(20.5727 2.79948 -1.47757e-15)
(20.5749 2.74145 3.08549e-15)
(20.576 2.68326 -2.42429e-15)
(20.576 2.62485 1.5669e-15)
(20.5749 2.5661 -1.65763e-15)
(20.5729 2.50743 -1.38937e-16)
(20.5698 2.4483 -4.83865e-16)
(20.5657 2.38885 2.0335e-15)
(20.5606 2.32907 -1.15594e-15)
(20.5543 2.26889 -1.50251e-15)
(20.5471 2.20829 3.74797e-15)
(20.5388 2.14725 -2.6055e-15)
(20.5295 2.08576 1.69425e-16)
(20.5191 2.0238 -7.84827e-16)
(20.5076 1.96135 -4.88994e-16)
(20.495 1.8984 -1.36991e-17)
(20.4812 1.83495 3.05029e-15)
(20.4663 1.77098 -5.90564e-15)
(20.4502 1.7065 1.2075e-15)
(20.4328 1.64149 4.77369e-15)
(20.4141 1.57597 -5.19978e-15)
(20.3941 1.50992 4.42808e-15)
(20.3727 1.44337 -6.78338e-16)
(20.3498 1.37632 1.38979e-15)
(20.3255 1.30879 -2.67029e-15)
(20.2996 1.2408 -1.69035e-15)
(20.2721 1.17236 4.074e-15)
(20.2429 1.10352 -1.15666e-15)
(20.212 1.0343 -3.71589e-15)
(20.1792 0.964758 1.30961e-15)
(20.1445 0.894935 4.94993e-15)
(20.1079 0.824894 -3.49505e-15)
(20.0691 0.754709 1.97276e-15)
(20.0282 0.684459 -9.79968e-16)
(19.9851 0.614233 4.27141e-16)
(19.9397 0.544163 -3.82234e-15)
(19.8921 0.474431 5.80689e-17)
(19.842 0.405126 2.18381e-15)
(19.7894 0.336333 -2.88854e-15)
(19.7342 0.268233 -6.94506e-16)
(19.6762 0.200987 5.31063e-15)
(19.6156 0.134803 -1.79896e-15)
(19.5522 0.0698772 -2.454e-15)
(19.486 0.00645612 2.97852e-15)
(19.417 -0.0552329 -1.27586e-15)
(19.3452 -0.114916 5.49429e-16)
(19.2707 -0.17234 7.97585e-18)
(19.1936 -0.227214 1.48542e-15)
(19.1139 -0.279271 -3.20836e-15)
(19.0318 -0.328219 2.91672e-15)
(18.9475 -0.373799 -2.2328e-15)
(18.8612 -0.415741 7.2279e-16)
(18.7733 -0.453819 -2.54605e-16)
(18.6839 -0.487815 5.98117e-16)
(18.5935 -0.517565 4.47421e-16)
(18.5024 -0.542931 3.33806e-16)
(18.4112 -0.563829 -1.30983e-15)
(18.3202 -0.580213 -1.06197e-15)
(18.23 -0.592089 1.71101e-15)
(18.1411 -0.5995 -1.49799e-15)
(18.054 -0.602542 2.87546e-15)
(17.969 -0.60135 -2.19033e-15)
(17.8868 -0.596113 1.27432e-15)
(17.8076 -0.587055 -1.51773e-15)
(17.7318 -0.574446 7.76076e-16)
(17.6598 -0.558591 3.5005e-16)
(17.5919 -0.539834 -9.6887e-16)
(17.5282 -0.518554 1.36163e-15)
(17.469 -0.495158 -6.93236e-16)
(17.4143 -0.470072 1.10153e-15)
(17.3646 -0.443745 -1.47489e-16)
(17.3182 -0.416643 -2.67887e-16)
(17.2811 -0.388886 -7.83719e-17)
(17.2292 -0.36311 -1.40268e-16)
(20.1918 4.08637 -2.34827e-15)
(20.2107 4.04413 3.64186e-15)
(20.228 4.00097 -1.28663e-15)
(20.2441 3.95728 5.15085e-16)
(20.2588 3.91299 -1.78714e-15)
(20.2723 3.86814 -9.00028e-17)
(20.2844 3.82275 1.4951e-15)
(20.2952 3.7768 -6.0022e-16)
(20.3047 3.73018 9.10132e-16)
(20.3129 3.68292 -1.0869e-15)
(20.32 3.63576 8.49482e-17)
(20.3261 3.58784 -5.94469e-17)
(20.331 3.53949 8.43858e-17)
(20.3348 3.49059 -2.34047e-16)
(20.3374 3.44111 1.90377e-16)
(20.3389 3.39104 -6.28565e-18)
(20.3393 3.34038 1.25416e-16)
(20.3385 3.28913 5.45594e-17)
(20.3366 3.23729 -6.99696e-17)
(20.3338 3.18489 -2.66401e-17)
(20.3302 3.132 2.6568e-16)
(20.3264 3.07872 1.57211e-16)
(20.3232 3.0252 -4.94565e-16)
(20.3215 2.97158 -1.70322e-15)
(20.3219 2.91795 1.52046e-15)
(20.323 2.86416 -3.88876e-16)
(20.3239 2.81012 -1.4127e-16)
(20.3241 2.75576 2.67431e-15)
(20.3233 2.70107 -3.9826e-15)
(20.3214 2.64606 2.93762e-15)
(20.3185 2.59063 -2.03826e-15)
(20.3147 2.53532 -1.19519e-15)
(20.31 2.47949 1.38538e-16)
(20.3042 2.42339 2.39077e-15)
(20.2974 2.36702 -1.20544e-15)
(20.2895 2.31032 2.03365e-15)
(20.2806 2.2533 -2.59773e-15)
(20.2707 2.19595 6.40672e-16)
(20.2598 2.13828 6.56287e-17)
(20.2479 2.08026 2.12008e-15)
(20.235 2.02192 -3.23047e-15)
(20.2209 1.96324 -2.97571e-15)
(20.2058 1.90422 3.68852e-15)
(20.1895 1.84488 -3.3601e-15)
(20.1721 1.78521 1.72509e-15)
(20.1535 1.72523 3.10776e-16)
(20.1337 1.66495 3.49339e-15)
(20.1127 1.60437 -5.10938e-15)
(20.0903 1.54352 4.26157e-15)
(20.0666 1.48242 6.48786e-16)
(20.0415 1.42109 -2.35226e-15)
(20.0151 1.35955 4.24914e-16)
(19.9871 1.29785 -1.71512e-15)
(19.9576 1.23601 4.61697e-15)
(19.9266 1.17408 -1.71657e-15)
(19.8939 1.1121 -3.01566e-15)
(19.8596 1.05012 5.67276e-15)
(19.8236 0.988217 -4.72394e-15)
(19.7858 0.926437 2.37741e-15)
(19.7462 0.864864 -2.44985e-15)
(19.7048 0.80357 -2.9176e-15)
(19.6615 0.742682 7.17353e-15)
(19.6165 0.682346 -6.88468e-15)
(19.5695 0.62264 4.83244e-15)
(19.5206 0.563603 -4.7645e-15)
(19.4697 0.505382 1.06883e-15)
(19.4168 0.448083 3.80586e-15)
(19.3619 0.391859 1.36809e-15)
(19.3049 0.336835 -5.47417e-15)
(19.246 0.283182 5.56764e-15)
(19.1851 0.231037 -7.72613e-16)
(19.1224 0.18058 -2.03799e-15)
(19.0578 0.131956 4.02388e-15)
(18.9916 0.0853475 -4.28016e-15)
(18.9238 0.0409002 -4.62875e-16)
(18.8545 -0.0012107 1.5414e-15)
(18.7839 -0.0408489 1.47838e-16)
(18.7123 -0.0778589 -1.91015e-15)
(18.6397 -0.112124 3.32623e-15)
(18.5665 -0.143523 -2.06299e-15)
(18.4929 -0.171975 -2.06956e-16)
(18.4191 -0.197405 -1.79543e-15)
(18.3455 -0.21978 1.53037e-15)
(18.2722 -0.239086 -2.05979e-15)
(18.1996 -0.255352 3.12497e-15)
(18.128 -0.268628 5.59642e-17)
(18.0577 -0.279008 1.53337e-15)
(17.9889 -0.286608 -4.19063e-15)
(17.9219 -0.291582 1.97813e-15)
(17.8569 -0.294104 -1.26101e-15)
(17.7941 -0.294377 3.91498e-16)
(17.7339 -0.292627 6.54539e-16)
(17.6763 -0.289096 2.81302e-16)
(17.6215 -0.284049 -3.83538e-16)
(17.5696 -0.277754 4.15192e-16)
(17.5208 -0.270492 4.05605e-16)
(17.4756 -0.262548 -7.73457e-16)
(17.4324 -0.254226 1.21074e-16)
(17.3966 -0.245521 -2.03776e-16)
(17.3468 -0.238691 -4.16589e-17)
(20.001 3.991 -2.9264e-15)
(20.0173 3.95397 -9.26275e-16)
(20.0321 3.91595 2.76845e-15)
(20.0456 3.87735 -1.60914e-15)
(20.0577 3.83809 -3.15585e-16)
(20.0686 3.79818 -5.99565e-16)
(20.0782 3.75763 3.63863e-16)
(20.0864 3.71644 2.22433e-15)
(20.0932 3.67446 -1.17474e-15)
(20.0987 3.63175 9.37486e-16)
(20.1031 3.58913 -8.47916e-16)
(20.1064 3.54563 -6.78266e-17)
(20.1086 3.50162 -7.2238e-17)
(20.1096 3.45697 -8.85316e-17)
(20.1094 3.41166 -3.16294e-16)
(20.1081 3.36569 2.25846e-16)
(20.1056 3.31905 4.42111e-17)
(20.102 3.27176 -6.65289e-17)
(20.0974 3.22382 1.04699e-15)
(20.092 3.17527 -1.80055e-15)
(20.0861 3.12617 1.27609e-15)
(20.0801 3.07664 -5.2912e-16)
(20.0748 3.02681 2.66577e-15)
(20.0712 2.97686 -1.29611e-15)
(20.0696 2.92689 5.38964e-16)
(20.0691 2.87681 -1.3503e-15)
(20.0686 2.82653 1.22827e-15)
(20.0676 2.77601 -2.64427e-15)
(20.0658 2.72523 3.27519e-15)
(20.0629 2.67418 -2.84424e-15)
(20.059 2.62274 -1.06151e-16)
(20.0543 2.57153 -2.35933e-15)
(20.0487 2.51983 1.915e-15)
(20.042 2.46791 -6.9768e-16)
(20.0342 2.41579 2.9202e-15)
(20.0254 2.36342 8.4127e-16)
(20.0155 2.31078 -1.9686e-15)
(20.0045 2.2579 -9.45982e-16)
(19.9925 2.20478 6.12097e-16)
(19.9795 2.15142 -6.66231e-17)
(19.9654 2.09782 -1.53951e-15)
(19.9503 2.044 1.70557e-15)
(19.9341 1.98995 -4.99035e-15)
(19.9168 1.9357 1.91142e-15)
(19.8984 1.88125 -5.799e-16)
(19.8788 1.82661 3.90341e-15)
(19.8581 1.77181 -4.22678e-15)
(19.8362 1.71685 2.95678e-15)
(19.8132 1.66177 1.38285e-15)
(19.7889 1.60657 -3.05886e-15)
(19.7633 1.5513 4.9242e-16)
(19.7365 1.49598 -5.91631e-17)