/*--------------------------------*- C++ -*----------------------------------*\
  =========                 |
  \\      /  F ield         | OpenFOAM: The Open Source CFD Toolbox
   \\    /   O peration     | Website:  https://openfoam.org
    \\  /    A nd           | Version:  6.0
     \\/     M anipulation  |
\*---------------------------------------------------------------------------*/
FoamFile
{
    version     2.0;
    format      ascii;
    class       volScalarField;
    location    "10";
    object      p;
}
// * * * * * * * * * * * * * * * * * * * * * * * * * * * * * * * * * * * * * //

dimensions      [0 2 -2 0 0 0 0];

internalField   nonuniform List<scalar> 
248000
(
0.0150572
0.015016
0.0149752
0.0149351
0.0148953
0.0148563
0.0148177
0.0147798
0.0147423
0.0147055
0.0146691
0.0146335
0.0145982
0.0145638
0.0145297
0.0144965
0.0144637
0.0144318
0.0144003
0.0143698
0.0143398
0.0143108
0.0142823
0.014255
0.0142283
0.0142028
0.014178
0.0141547
0.0141321
0.0141111
0.0140911
0.014073
0.0140561
0.0140413
0.0140279
0.0140171
0.0140081
0.014002
0.0139983
0.0139979
0.0140005
0.0140072
0.0140174
0.0140325
0.0140521
0.0140775
0.0141085
0.0141465
0.0141908
0.0142424
0.0143009
0.0143683
0.0144446
0.0145319
0.0146306
0.0147428
0.0148692
0.0150121
0.0151727
0.0153533
0.0155551
0.0157807
0.0160316
0.0163104
0.0166186
0.0169588
0.0173324
0.0177422
0.0181895
0.0186748
0.0191974
0.0197561
0.0203487
0.0209718
0.0216206
0.0222886
0.0229674
0.0236469
0.024315
0.024958
0.0255615
0.0261105
0.026591
0.0269909
0.0273018
0.0275209
0.0276524
0.027709
0.0277132
0.0276969
0.0277008
0.0277715
0.0279582
0.0283062
0.0288531
0.0296184
0.0306044
0.0317834
0.0331084
0.0345013
0.0358748
0.0371228
0.0381508
0.0388639
0.0391985
0.0391042
0.0385726
0.0376185
0.0362799
0.034611
0.0326771
0.0305448
0.0282803
0.0259418
0.0235822
0.021232
0.018991
0.016599
0.0151437
0.0159103
0.0150166
0.0149684
0.0149219
0.0148772
0.0148341
0.0147926
0.0147523
0.0147136
0.014676
0.0146397
0.0146044
0.0145702
0.0145367
0.0145043
0.0144725
0.0144417
0.0144114
0.0143819
0.0143529
0.0143247
0.0142969
0.0142701
0.0142437
0.0142182
0.0141932
0.0141694
0.0141462
0.0141242
0.014103
0.0140832
0.0140644
0.0140473
0.0140313
0.0140174
0.0140048
0.0139945
0.0139861
0.0139804
0.0139769
0.0139767
0.0139794
0.0139859
0.013996
0.0140108
0.0140302
0.0140551
0.0140856
0.014123
0.0141669
0.0142179
0.0142759
0.0143425
0.0144182
0.0145046
0.0146025
0.0147137
0.0148393
0.0149812
0.0151409
0.0153202
0.0155211
0.0157454
0.0159953
0.0162729
0.0165803
0.0169195
0.0172929
0.017703
0.0181515
0.0186392
0.0191653
0.0197288
0.0203277
0.0209587
0.0216176
0.022298
0.0229918
0.0236889
0.0243771
0.0250427
0.0256706
0.0262455
0.0267521
0.0271772
0.0275111
0.0277492
0.027894
0.0279569
0.0279593
0.0279335
0.0279213
0.0279726
0.0281417
0.0284811
0.029038
0.0298425
0.0309086
0.0322195
0.0337374
0.0353893
0.0370891
0.0387252
0.0401932
0.0413813
0.0422068
0.0425939
0.0425118
0.0419546
0.040942
0.0395132
0.0377224
0.0356291
0.0332962
0.0307802
0.0281357
0.0253879
0.0226747
0.0196461
0.018057
0.0178403
0.0149505
0.0149067
0.0148637
0.0148219
0.0147809
0.0147409
0.0147017
0.0146635
0.0146261
0.0145896
0.0145538
0.014519
0.0144848
0.0144515
0.0144188
0.014387
0.0143558
0.0143254
0.0142955
0.0142665
0.0142379
0.0142103
0.0141833
0.0141573
0.0141319
0.0141078
0.0140845
0.0140627
0.0140418
0.0140226
0.0140046
0.0139884
0.0139734
0.0139606
0.0139492
0.0139402
0.013933
0.0139284
0.0139261
0.0139269
0.0139305
0.0139378
0.0139486
0.0139638
0.0139834
0.0140084
0.0140387
0.0140754
0.0141183
0.0141679
0.0142244
0.0142891
0.0143625
0.0144462
0.0145409
0.0146482
0.0147694
0.0149061
0.01506
0.0152327
0.015426
0.0156418
0.0158822
0.0161492
0.0164448
0.0167711
0.0171304
0.0175257
0.0179591
0.0184311
0.0189408
0.0194867
0.020067
0.0206788
0.0213177
0.0219777
0.0226503
0.0233253
0.0239902
0.0246304
0.0252299
0.0257718
0.0262389
0.0266154
0.0268882
0.0270489
0.0270956
0.0270348
0.026883
0.0266678
0.0264275
0.0262094
0.0260681
0.0260587
0.0262341
0.0266338
0.0272842
0.0281833
0.0293097
0.0306066
0.0320031
0.0333988
0.0346977
0.03579
0.036592
0.037018
0.0370274
0.0366044
0.0357572
0.0345135
0.0329177
0.0310228
0.0288892
0.026575
0.024142
0.0216242
0.0192041
0.0165902
0.0155912
0.0155584
0.0149333
0.0148987
0.0148631
0.0148275
0.0147914
0.0147552
0.0147187
0.0146822
0.0146455
0.014609
0.0145724
0.0145362
0.0144999
0.0144641
0.0144284
0.0143933
0.0143583
0.014324
0.01429
0.0142568
0.0142239
0.014192
0.0141606
0.0141304
0.0141009
0.0140729
0.0140459
0.0140206
0.0139966
0.0139747
0.0139541
0.0139358
0.013919
0.0139045
0.0138917
0.0138815
0.0138732
0.0138676
0.0138643
0.0138642
0.0138669
0.0138733
0.0138833
0.0138976
0.0139162
0.0139401
0.0139692
0.0140045
0.0140456
0.0140935
0.0141481
0.0142108
0.0142822
0.0143636
0.0144558
0.0145606
0.014679
0.0148128
0.0149636
0.015133
0.0153229
0.0155351
0.0157718
0.0160351
0.0163271
0.0166499
0.0170063
0.0173997
0.0178328
0.0183063
0.018819
0.0193696
0.0199566
0.0205778
0.0212296
0.0219064
0.0226003
0.0233011
0.0239966
0.0246721
0.0253112
0.0258959
0.0264074
0.0268277
0.0271402
0.0273325
0.0273975
0.0273356
0.0271569
0.0268816
0.0265416
0.0261781
0.0258416
0.0255849
0.0254627
0.0255192
0.0257895
0.0262841
0.0269971
0.0278888
0.0289064
0.0299654
0.0309847
0.0318637
0.0325259
0.0328835
0.0328936
0.032537
0.0318149
0.0307465
0.0293681
0.0277267
0.0258802
0.0238865
0.0218125
0.0196985
0.0177524
0.015741
0.0153142
0.0161474
0.014957
0.0149238
0.014889
0.0148537
0.0148177
0.0147813
0.0147442
0.0147069
0.0146691
0.0146312
0.014593
0.0145547
0.0145163
0.014478
0.0144396
0.0144016
0.0143635
0.0143259
0.0142884
0.0142514
0.0142148
0.0141789
0.0141435
0.0141091
0.0140755
0.0140432
0.0140121
0.0139828
0.0139549
0.0139292
0.013905
0.0138831
0.013863
0.0138453
0.0138295
0.0138163
0.013805
0.0137967
0.0137907
0.0137879
0.013788
0.0137918
0.0137992
0.013811
0.0138273
0.013849
0.0138759
0.013909
0.0139481
0.0139939
0.0140467
0.0141076
0.0141773
0.0142572
0.0143482
0.014452
0.0145697
0.0147033
0.0148542
0.0150244
0.0152155
0.0154298
0.0156694
0.0159367
0.0162342
0.0165642
0.0169298
0.0173353
0.0177838
0.0182763
0.018812
0.0193899
0.0200098
0.0206706
0.0213696
0.0221025
0.0228623
0.0236402
0.0244247
0.0252023
0.0259568
0.0266705
0.0273243
0.0278988
0.0283754
0.0287384
0.0289763
0.0290839
0.0290647
0.0289312
0.0287072
0.0284256
0.0281297
0.0278666
0.0276873
0.0276356
0.0277497
0.028047
0.0285319
0.0291773
0.0299454
0.0307661
0.031573
0.0322759
0.0328079
0.033083
0.0330595
0.0327175
0.032054
0.0310809
0.0298266
0.0283312
0.0266465
0.0248243
0.0229263
0.0209868
0.0192088
0.0173637
0.0169805
0.0179813
0.0149436
0.0149062
0.0148677
0.0148289
0.0147896
0.0147502
0.0147103
0.0146704
0.0146302
0.0145901
0.0145498
0.0145096
0.0144694
0.0144295
0.0143896
0.0143501
0.0143106
0.0142716
0.0142327
0.0141944
0.0141563
0.0141189
0.0140819
0.0140458
0.0140104
0.0139764
0.0139434
0.0139121
0.0138821
0.0138542
0.0138277
0.0138036
0.0137812
0.0137611
0.0137428
0.0137271
0.0137133
0.0137024
0.0136937
0.0136882
0.0136855
0.0136865
0.0136911
0.0137001
0.0137137
0.0137327
0.0137572
0.013788
0.0138248
0.0138684
0.013919
0.0139777
0.0140452
0.0141229
0.014212
0.0143139
0.01443
0.0145622
0.014712
0.0148813
0.0150721
0.0152865
0.0155271
0.0157964
0.0160972
0.0164321
0.0168047
0.0172194
0.01768
0.0181878
0.0187423
0.0193436
0.0199927
0.0206898
0.0214335
0.022221
0.0230469
0.0239035
0.0247816
0.0256689
0.0265507
0.0274106
0.0282301
0.0289899
0.0296707
0.0302548
0.0307278
0.0310803
0.0313099
0.0314223
0.0314331
0.031367
0.0312584
0.0311465
0.0310758
0.0310859
0.0312138
0.0314784
0.0318895
0.032428
0.0330666
0.0337465
0.0344128
0.0349856
0.0354063
0.0355924
0.0355048
0.0351242
0.0344439
0.033469
0.0322205
0.0307309
0.0290429
0.0271991
0.0252499
0.0232183
0.0212916
0.0192238
0.0184954
0.0190274
0.0148406
0.0147996
0.0147582
0.0147168
0.0146753
0.0146339
0.0145923
0.0145509
0.0145095
0.0144683
0.0144272
0.0143865
0.0143459
0.0143057
0.0142657
0.0142262
0.0141869
0.0141482
0.0141097
0.0140719
0.0140343
0.0139974
0.013961
0.0139254
0.0138905
0.0138569
0.0138242
0.013793
0.0137631
0.0137352
0.0137085
0.0136841
0.0136611
0.0136404
0.0136212
0.0136045
0.0135895
0.0135771
0.0135668
0.0135595
0.0135549
0.0135538
0.0135561
0.0135629
0.013574
0.0135906
0.0136127
0.013641
0.0136753
0.0137162
0.0137639
0.0138193
0.0138831
0.0139568
0.0140414
0.0141385
0.0142494
0.0143759
0.0145196
0.0146822
0.0148659
0.0150728
0.0153056
0.015567
0.0158598
0.0161873
0.0165527
0.0169609
0.0174156
0.0179185
0.0184695
0.0190695
0.019721
0.0204254
0.0211826
0.021991
0.022847
0.0237445
0.0246763
0.0256322
0.0265993
0.0275632
0.0285068
0.029412
0.0302599
0.0310323
0.0317135
0.0322913
0.032759
0.033117
0.0333741
0.0335472
0.0336624
0.0337508
0.0338493
0.0339917
0.0342107
0.0345243
0.0349436
0.0354542
0.0360351
0.0366358
0.0372102
0.0376867
0.0380135
0.0381122
0.0379464
0.0374969
0.0367543
0.035718
0.0344023
0.0328331
0.0310449
0.0290717
0.0269539
0.0247077
0.0225112
0.0201106
0.0189615
0.0189245
0.0146727
0.0146296
0.0145864
0.0145437
0.014501
0.0144586
0.0144163
0.0143745
0.0143327
0.0142915
0.0142504
0.0142099
0.0141697
0.01413
0.0140906
0.0140519
0.0140134
0.0139757
0.0139382
0.0139015
0.0138651
0.0138295
0.0137944
0.0137602
0.0137266
0.0136943
0.0136629
0.013633
0.0136042
0.0135772
0.0135515
0.0135278
0.0135054
0.0134851
0.0134662
0.0134495
0.0134344
0.0134216
0.0134107
0.0134026
0.0133968
0.0133944
0.0133951
0.0133999
0.013409
0.0134232
0.0134428
0.0134683
0.0134997
0.0135372
0.0135808
0.0136315
0.0136897
0.0137569
0.013834
0.0139227
0.0140241
0.0141397
0.0142712
0.0144203
0.014589
0.0147793
0.014994
0.0152356
0.0155074
0.0158122
0.0161539
0.0165365
0.0169641
0.0174381
0.0179589
0.0185284
0.01915
0.0198262
0.0205578
0.0213447
0.0221845
0.0230729
0.0240047
0.0249715
0.0259629
0.0269666
0.0279675
0.0289492
0.0298945
0.0307853
0.0316061
0.0323432
0.0329877
0.033536
0.0339916
0.0343655
0.0346765
0.0349485
0.035211
0.0354915
0.035818
0.0362054
0.0366644
0.0371824
0.0377425
0.0382998
0.0388144
0.0392216
0.0394746
0.0394989
0.0392604
0.0387405
0.0379274
0.0368164
0.0354169
0.03375
0.0318444
0.0297294
0.0274397
0.0249924
0.0225668
0.0199171
0.0184536
0.0180253
0.0144759
0.0144316
0.0143877
0.0143443
0.0143012
0.0142585
0.0142161
0.0141742
0.0141326
0.0140916
0.0140508
0.0140107
0.0139709
0.0139319
0.0138931
0.0138551
0.0138174
0.0137804
0.0137439
0.0137081
0.0136727
0.0136381
0.013604
0.0135709
0.0135385
0.0135073
0.013477
0.0134481
0.0134204
0.0133944
0.0133696
0.0133467
0.013325
0.0133052
0.0132867
0.0132702
0.0132551
0.0132421
0.0132308
0.013222
0.0132153
0.0132116
0.0132108
0.0132137
0.0132205
0.0132323
0.0132488
0.013271
0.0132986
0.0133317
0.0133701
0.0134144
0.0134651
0.0135236
0.0135906
0.0136677
0.0137557
0.0138562
0.0139706
0.0141005
0.0142477
0.0144141
0.0146023
0.014815
0.0150549
0.0153254
0.0156295
0.0159716
0.0163549
0.016781
0.0172506
0.017766
0.0183316
0.0189506
0.0196246
0.0203546
0.0211392
0.0219756
0.0228605
0.0237875
0.0247481
0.0257323
0.0267274
0.0277191
0.0286919
0.0296294
0.0305164
0.0313394
0.0320883
0.0327571
0.0333458
0.0338608
0.0343154
0.0347272
0.0351196
0.0355141
0.0359338
0.0363905
0.0368932
0.0374298
0.0379856
0.0385198
0.038997
0.0393573
0.0395587
0.0395296
0.0392381
0.038666
0.0378001
0.0366328
0.0351705
0.0334318
0.0314426
0.0292304
0.0268288
0.0242617
0.0217152
0.01896
0.0173258
0.0167094
0.014274
0.0142298
0.0141859
0.0141426
0.0140995
0.0140569
0.0140146
0.0139729
0.0139314
0.0138906
0.0138501
0.0138102
0.0137707
0.0137319
0.0136934
0.0136556
0.0136182
0.0135816
0.0135453
0.0135098
0.0134747
0.0134404
0.0134066
0.0133738
0.0133417
0.0133108
0.0132807
0.0132522
0.0132246
0.0131988
0.0131741
0.0131513
0.0131295
0.0131097
0.013091
0.0130741
0.0130585
0.0130449
0.0130327
0.0130228
0.0130147
0.0130094
0.0130065
0.0130071
0.0130112
0.0130196
0.0130325
0.0130505
0.0130733
0.0131009
0.0131327
0.0131693
0.013211
0.013259
0.0133139
0.0133771
0.0134493
0.0135319
0.013626
0.0137332
0.013855
0.0139932
0.0141501
0.0143282
0.0145302
0.0147591
0.015018
0.0153104
0.0156396
0.0160067
0.0164126
0.01686
0.0173539
0.0178981
0.0184948
0.0191454
0.0198497
0.0206062
0.0214128
0.0222649
0.0231562
0.0240786
0.0250216
0.0259732
0.0269199
0.027847
0.0287409
0.0295884
0.0303794
0.0311068
0.0317684
0.0323672
0.0329124
0.0334169
0.0338989
0.034375
0.0348639
0.0353741
0.0359127
0.0364675
0.0370252
0.0375476
0.0380028
0.0383351
0.0385056
0.0384454
0.0381248
0.037526
0.036635
0.0354429
0.0339542
0.0321867
0.0301652
0.0279182
0.0254803
0.0228849
0.0203251
0.0175878
0.0158949
0.015232
0.0140728
0.0140298
0.013987
0.0139446
0.0139024
0.0138607
0.013819
0.013778
0.013737
0.0136967
0.0136565
0.0136169
0.0135776
0.0135388
0.0135004
0.0134626
0.0134251
0.0133882
0.0133517
0.0133159
0.0132804
0.0132457
0.0132114
0.0131781
0.0131454
0.0131138
0.0130831
0.0130538
0.0130255
0.0129989
0.0129733
0.0129495
0.0129267
0.0129057
0.0128858
0.0128676
0.0128505
0.0128353
0.0128213
0.0128094
0.0127991
0.0127912
0.0127854
0.0127828
0.0127831
0.0127875
0.0127956
0.0128083
0.0128253
0.0128463
0.0128705
0.0128983
0.0129298
0.012966
0.0130077
0.0130558
0.0131109
0.0131743
0.0132468
0.0133299
0.0134249
0.0135334
0.0136574
0.0137991
0.013961
0.0141462
0.014357
0.0145971
0.0148687
0.0151732
0.0155112
0.0158859
0.0163024
0.0167651
0.0172763
0.017838
0.0184507
0.0191137
0.0198263
0.0205853
0.021386
0.0222223
0.0230856
0.0239661
0.0248522
0.0257314
0.0265913
0.02742
0.0282079
0.0289474
0.0296352
0.0302722
0.0308645
0.0314215
0.0319572
0.0324844
0.0330179
0.0335635
0.0341265
0.0346944
0.0352546
0.0357709
0.0362144
0.0365322
0.0366888
0.0366173
0.0362895
0.0356887
0.0348001
0.0336144
0.0321353
0.0303808
0.0283753
0.0261497
0.02374
0.0211888
0.0186932
0.0160516
0.0143646
0.0137288
0.0138787
0.0138376
0.0137963
0.0137554
0.0137144
0.0136736
0.0136329
0.0135925
0.0135521
0.0135121
0.0134722
0.0134327
0.0133934
0.0133545
0.0133158
0.0132775
0.0132395
0.013202
0.0131646
0.0131279
0.0130914
0.0130557
0.0130202
0.0129856
0.0129515
0.0129185
0.0128863
0.0128554
0.0128254
0.012797
0.0127695
0.0127438
0.0127189
0.0126958
0.0126737
0.0126532
0.0126336
0.0126158
0.012599
0.012584
0.0125705
0.012559
0.0125495
0.0125426
0.0125383
0.0125375
0.01254
0.0125465
0.0125565
0.01257
0.0125856
0.0126038
0.0126243
0.0126483
0.0126761
0.0127087
0.0127465
0.0127905
0.0128416
0.0129009
0.0129695
0.0130489
0.0131407
0.013247
0.0133701
0.0135125
0.0136769
0.0138658
0.0140818
0.0143254
0.0145975
0.0149014
0.0152423
0.0156248
0.0160515
0.0165244
0.0170446
0.0176123
0.0182275
0.0188883
0.0195914
0.0203322
0.0211039
0.0218986
0.0227066
0.0235172
0.0243197
0.0251036
0.0258598
0.0265811
0.0272636
0.0279068
0.0285147
0.0290943
0.0296561
0.0302102
0.0307679
0.0313333
0.0319095
0.0324842
0.0330447
0.0335575
0.033995
0.034308
0.0344624
0.0343934
0.0340748
0.0334903
0.0326252
0.0314702
0.0300284
0.0283182
0.0263643
0.0241996
0.021861
0.0193991
0.0170103
0.0144991
0.0128447
0.0122629
0.0136877
0.0136489
0.0136097
0.0135705
0.0135311
0.0134918
0.0134522
0.0134127
0.0133731
0.0133336
0.013294
0.0132547
0.0132152
0.0131761
0.0131369
0.0130981
0.0130593
0.0130208
0.0129824
0.0129445
0.0129067
0.0128694
0.0128322
0.0127959
0.0127598
0.0127248
0.0126904
0.0126572
0.0126248
0.0125939
0.0125638
0.0125353
0.0125076
0.0124815
0.0124561
0.0124323
0.0124093
0.0123878
0.0123673
0.0123483
0.0123305
0.0123145
0.0123001
0.0122881
0.0122782
0.0122714
0.0122673
0.0122665
0.0122689
0.012274
0.0122804
0.0122884
0.0122976
0.012309
0.012323
0.0123403
0.0123612
0.0123866
0.0124173
0.012454
0.0124979
0.0125501
0.012612
0.0126856
0.0127728
0.0128761
0.0129975
0.0131398
0.0133046
0.0134925
0.0137044
0.0139435
0.0142151
0.0145238
0.0148723
0.0152626
0.0156963
0.0161741
0.0166965
0.0172628
0.0178707
0.0185168
0.0191959
0.0199017
0.0206262
0.0213604
0.022095
0.0228209
0.0235301
0.0242157
0.0248736
0.0255027
0.0261056
0.0266871
0.0272556
0.0278186
0.0283851
0.0289576
0.0295374
0.0301126
0.0306706
0.0311797
0.031614
0.0319269
0.032086
0.0320285
0.0317292
0.0311728
0.0303447
0.0292356
0.0278485
0.026202
0.0243209
0.0222394
0.0199947
0.0176428
0.0153755
0.0129994
0.01138
0.0108508
0.0135002
0.0134637
0.0134265
0.0133892
0.0133513
0.0133132
0.0132747
0.013236
0.013197
0.013158
0.0131186
0.0130793
0.0130396
0.0130001
0.0129604
0.0129208
0.012881
0.0128414
0.0128017
0.0127622
0.0127227
0.0126835
0.0126444
0.0126058
0.0125675
0.01253
0.0124929
0.0124569
0.0124215
0.0123875
0.0123541
0.0123222
0.012291
0.0122611
0.0122319
0.0122041
0.0121769
0.0121511
0.0121259
0.0121021
0.0120793
0.012058
0.012038
0.0120199
0.0120037
0.01199
0.0119786
0.0119701
0.011964
0.0119601
0.0119569
0.0119544
0.0119522
0.0119512
0.0119517
0.0119542
0.0119591
0.0119671
0.0119786
0.0119947
0.012016
0.0120436
0.0120787
0.012123
0.0121783
0.0122467
0.0123302
0.012431
0.0125509
0.0126899
0.0128489
0.013031
0.0132417
0.0134853
0.0137646
0.0140817
0.0144382
0.0148354
0.015274
0.0157543
0.0162747
0.0168329
0.017425
0.0180459
0.0186892
0.0193472
0.0200122
0.0206763
0.0213323
0.0219739
0.0225974
0.023201
0.0237863
0.024357
0.0249194
0.0254795
0.0260439
0.0266142
0.0271903
0.0277608
0.0283127
0.028817
0.0292481
0.0295633
0.0297298
0.0296873
0.0294119
0.0288891
0.028104
0.0270481
0.0257236
0.0241496
0.02235
0.0203602
0.0182159
0.015977
0.013828
0.0115739
0.00998009
0.00949031
0.013309
0.0132749
0.0132398
0.0132044
0.0131682
0.0131317
0.0130944
0.0130568
0.0130186
0.0129801
0.012941
0.0129018
0.012862
0.0128222
0.0127818
0.0127414
0.0127006
0.0126598
0.0126187
0.0125776
0.0125362
0.012495
0.0124537
0.0124127
0.0123718
0.0123314
0.0122914
0.0122523
0.0122136
0.0121761
0.0121391
0.0121033
0.012068
0.012034
0.0120004
0.011968
0.011936
0.0119051
0.0118747
0.0118455
0.0118169
0.0117897
0.0117633
0.0117387
0.0117155
0.0116944
0.0116751
0.0116582
0.0116433
0.0116301
0.011617
0.0116038
0.0115903
0.0115772
0.0115647
0.0115533
0.0115431
0.0115349
0.0115291
0.0115264
0.0115274
0.0115331
0.0115445
0.011563
0.0115904
0.0116285
0.0116791
0.0117443
0.0118253
0.0119223
0.0120359
0.0121693
0.0123277
0.0125155
0.0127353
0.0129891
0.0132789
0.0136058
0.0139713
0.0143759
0.0148189
0.0152987
0.0158123
0.0163559
0.0169241
0.0175108
0.0181092
0.0187126
0.0193147
0.01991
0.0204949
0.0210674
0.0216284
0.0221807
0.022729
0.0232781
0.023833
0.0243945
0.0249612
0.0255224
0.0260651
0.0265624
0.0269894
0.0273063
0.0274804
0.0274535
0.0272028
0.0267143
0.0259734
0.0249719
0.0237116
0.0222111
0.0204937
0.0185946
0.0165474
0.0144145
0.0123708
0.0102186
0.00863658
0.00816782
0.0131154
0.0130835
0.0130502
0.0130164
0.0129816
0.0129462
0.0129099
0.0128731
0.0128354
0.0127973
0.0127583
0.012719
0.0126789
0.0126385
0.0125974
0.012556
0.0125141
0.0124719
0.0124291
0.0123862
0.0123429
0.0122995
0.0122557
0.0122121
0.0121684
0.0121251
0.012082
0.0120395
0.0119973
0.011956
0.0119151
0.0118752
0.0118356
0.0117971
0.0117588
0.0117215
0.0116844
0.0116482
0.0116122
0.0115771
0.0115425
0.0115089
0.0114759
0.0114442
0.0114136
0.0113848
0.0113574
0.0113318
0.0113078
0.0112851
0.011262
0.0112383
0.0112137
0.0111889
0.0111639
0.0111393
0.0111152
0.011092
0.0110703
0.0110507
0.0110337
0.01102
0.0110105
0.0110066
0.0110098
0.0110217
0.0110441
0.0110787
0.0111267
0.011188
0.0112632
0.0113553
0.0114694
0.0116098
0.0117791
0.0119792
0.012212
0.012479
0.0127816
0.0131209
0.0134967
0.0139079
0.0143525
0.0148275
0.0153284
0.0158504
0.0163876
0.0169343
0.0174851
0.018035
0.0185807
0.0191201
0.0196538
0.0201837
0.0207134
0.0212468
0.0217873
0.0223356
0.0228888
0.0234376
0.023968
0.0244562
0.0248769
0.0251945
0.0253743
0.0253612
0.0251332
0.0246768
0.0239777
0.023028
0.0218288
0.0203983
0.0187581
0.0169433
0.0149845
0.0129454
0.0109905
0.0089181
0.00733505
0.00687065
0.0129117
0.0128816
0.0128502
0.0128179
0.0127846
0.0127504
0.0127151
0.0126791
0.012642
0.0126042
0.0125654
0.012526
0.0124856
0.0124447
0.0124029
0.0123606
0.0123175
0.0122739
0.0122296
0.0121849
0.0121396
0.012094
0.0120479
0.0120017
0.0119551
0.0119089
0.0118624
0.0118166
0.0117708
0.0117257
0.0116808
0.0116367
0.0115927
0.0115495
0.0115063
0.0114639
0.0114214
0.0113796
0.0113378
0.0112966
0.0112556
0.0112153
0.0111754
0.0111365
0.0110983
0.0110616
0.0110258
0.0109914
0.0109583
0.010926
0.010893
0.010859
0.0108235
0.0107874
0.0107505
0.0107136
0.0106764
0.0106395
0.0106034
0.0105684
0.0105352
0.0105042
0.0104764
0.0104528
0.0104348
0.0104242
0.0104221
0.0104307
0.0104505
0.0104815
0.010524
0.0105811
0.0106577
0.0107581
0.0108846
0.0110391
0.0112234
0.0114393
0.0116881
0.0119713
0.0122892
0.012641
0.0130254
0.01344
0.0138815
0.0143456
0.0148275
0.0153223
0.0158253
0.0163321
0.0168397
0.0173459
0.0178511
0.0183567
0.0188652
0.0193799
0.019903
0.0204348
0.0209717
0.0215051
0.022021
0.0224979
0.0229105
0.0232264
0.0234097
0.0234078
0.0231993
0.0227715
0.0221103
0.0212079
0.0200648
0.0186984
0.0171286
0.0153895
0.0135088
0.0115502
0.00966751
0.00765543
0.00606043
0.00558554
0.0126982
0.0126698
0.0126397
0.0126087
0.0125763
0.012543
0.0125084
0.0124729
0.0124362
0.0123986
0.0123598
0.0123202
0.0122795
0.012238
0.0121955
0.0121522
0.0121079
0.012063
0.0120171
0.0119706
0.0119233
0.0118755
0.011827
0.0117782
0.0117289
0.0116796
0.01163
0.0115807
0.0115313
0.0114824
0.0114334
0.011385
0.0113365
0.0112886
0.0112405
0.0111929
0.0111451
0.0110977
0.01105
0.0110027
0.0109552
0.0109083
0.0108614
0.0108151
0.0107694
0.0107246
0.0106805
0.0106374
0.0105952
0.0105534
0.0105106
0.0104665
0.0104206
0.0103735
0.0103255
0.0102768
0.0102274
0.0101778
0.0101283
0.0100794
0.0100314
0.00998487
0.00994061
0.00989957
0.0098631
0.00983249
0.00980943
0.00979518
0.00979072
0.00979554
0.00981009
0.00983725
0.0098818
0.00994789
0.0100378
0.0101533
0.0102962
0.0104681
0.0106708
0.0109057
0.0111733
0.0114734
0.0118052
0.0121669
0.0125557
0.0129683
0.0134004
0.0138481
0.0143071
0.0147737
0.0152449
0.015719
0.0161957
0.0166763
0.0171623
0.0176567
0.0181604
0.0186739
0.0191925
0.0197089
0.0202082
0.0206721
0.0210744
0.0213871
0.021571
0.0215771
0.0213847
0.0209814
0.0203533
0.019493
0.0184001
0.0170911
0.015584
0.0139118
0.0120985
0.0102077
0.00838272
0.00641431
0.00479975
0.00430371
0.0124675
0.0124406
0.0124119
0.0123822
0.012351
0.0123187
0.0122849
0.0122501
0.0122139
0.0121766
0.0121379
0.0120983
0.0120573
0.0120155
0.0119723
0.0119282
0.0118829
0.0118367
0.0117894
0.0117413
0.0116921
0.0116423
0.0115914
0.0115402
0.0114881
0.0114359
0.0113832
0.0113305
0.0112776
0.0112249
0.011172
0.0111194
0.0110665
0.0110139
0.0109609
0.0109081
0.0108549
0.0108018
0.0107483
0.0106948
0.0106409
0.0105873
0.0105334
0.0104799
0.0104266
0.0103739
0.0103215
0.0102699
0.0102187
0.0101676
0.0101152
0.0100613
0.0100053
0.00994784
0.009889
0.00982921
0.00976833
0.00970675
0.0096448
0.00958294
0.00952142
0.00946072
0.00940149
0.00934471
0.00929149
0.00924325
0.0092012
0.00916705
0.00914113
0.00912306
0.00911315
0.00911414
0.00913071
0.00916692
0.009225
0.00930651
0.00941332
0.00954708
0.00970942
0.00990198
0.0101256
0.0103803
0.0106656
0.0109802
0.011322
0.0116882
0.0120753
0.0124798
0.0128982
0.0133271
0.0137639
0.0142068
0.0146554
0.0151107
0.0155735
0.0160466
0.0165296
0.0170235
0.0175224
0.0180203
0.0185018
0.0189512
0.0193419
0.0196492
0.0198318
0.0198432
0.0196636
0.0192809
0.0186816
0.0178585
0.0168103
0.0155526
0.0141012
0.0124878
0.0107328
0.0088993
0.00712013
0.0051826
0.0035432
0.00301746
0.0122233
0.0121976
0.0121699
0.012141
0.0121105
0.0120788
0.0120455
0.012011
0.011975
0.0119378
0.011899
0.0118592
0.0118178
0.0117753
0.0117314
0.0116864
0.01164
0.0115925
0.0115438
0.011494
0.011443
0.0113911
0.0113381
0.0112843
0.0112297
0.0111747
0.0111189
0.0110631
0.0110067
0.0109504
0.0108936
0.010837
0.0107798
0.0107227
0.010665
0.0106073
0.0105489
0.0104904
0.0104311
0.0103717
0.0103116
0.0102515
0.0101908
0.0101302
0.0100695
0.0100091
0.00994869
0.00988872
0.00982882
0.00976871
0.00970706
0.00964362
0.00957787
0.00951043
0.0094413
0.00937089
0.00929909
0.00922619
0.00915249
0.00907847
0.00900427
0.0089303
0.00885721
0.00878583
0.00871731
0.00865273
0.00859368
0.00854125
0.00849606
0.00845743
0.00842554
0.00840311
0.00839466
0.00840424
0.00843393
0.00848526
0.00855999
0.00865978
0.00878625
0.00894115
0.00912548
0.00933946
0.009583
0.00985523
0.0101545
0.0104785
0.0108243
0.011189
0.0115696
0.0119631
0.012367
0.0127799
0.0132009
0.013631
0.0140704
0.0145215
0.0149833
0.0154567
0.0159352
0.0164138
0.0168765
0.0173106
0.0176884
0.017989
0.018168
0.0181825
0.0180129
0.0176475
0.0170731
0.0162828
0.0152744
0.0140625
0.0126607
0.0110991
0.00939469
0.00760958
0.00586677
0.00395023
0.00228319
0.00172265
0.011958
0.0119333
0.0119067
0.0118787
0.011849
0.011818
0.0117852
0.0117512
0.0117154
0.0116783
0.0116396
0.0115995
0.0115578
0.0115149
0.0114703
0.0114246
0.0113772
0.0113286
0.0112785
0.0112273
0.0111746
0.0111209
0.0110658
0.0110099
0.0109528
0.0108952
0.0108367
0.0107778
0.0107183
0.0106586
0.0105982
0.0105377
0.0104765
0.0104151
0.0103528
0.0102904
0.010227
0.0101631
0.0100983
0.0100331
0.00996695
0.00990049
0.00983324
0.00976576
0.00969787
0.00963005
0.00956186
0.00949382
0.00942552
0.00935668
0.00928608
0.0092135
0.00913838
0.0090613
0.00898229
0.00890172
0.00881941
0.00873568
0.00865079
0.00856514
0.00847887
0.00839233
0.00830607
0.00822096
0.00813791
0.00805821
0.00798301
0.00791381
0.00785067
0.00779299
0.00774088
0.0076969
0.0076655
0.00765068
0.00765445
0.00767823
0.00772375
0.0077926
0.00788641
0.00800699
0.00815546
0.00833225
0.00853755
0.0087708
0.00903078
0.0093157
0.00962307
0.00995048
0.0102953
0.010655
0.0110273
0.0114108
0.0118046
0.0122095
0.0126252
0.0130539
0.013494
0.0139463
0.0144039
0.0148626
0.0153063
0.0157242
0.0160886
0.0163813
0.0165557
0.0165714
0.0164097
0.016059
0.0155066
0.0147456
0.0137732
0.0126027
0.0112456
0.00973042
0.00807076
0.00632735
0.004614
0.00271144
0.00101523
0.000415814
0.0116748
0.0116509
0.0116247
0.0115972
0.011568
0.0115372
0.0115047
0.0114708
0.0114351
0.0113979
0.0113591
0.0113187
0.0112767
0.0112333
0.0111881
0.0111415
0.0110933
0.0110436
0.0109923
0.0109397
0.0108855
0.0108301
0.0107731
0.0107151
0.0106559
0.0105958
0.0105347
0.010473
0.0104105
0.0103476
0.0102837
0.0102197
0.0101546
0.0100892
0.0100226
0.0099557
0.00988753
0.00981878
0.00974871
0.00967802
0.00960612
0.00953368
0.00946015
0.00938612
0.00931138
0.00923643
0.00916081
0.00908505
0.00900868
0.00893144
0.00885223
0.00877086
0.00868671
0.00860037
0.00851182
0.00842142
0.00832902
0.00823481
0.00813907
0.00804222
0.0079443
0.00784558
0.00774665
0.00764826
0.00755137
0.00745699
0.0073666
0.00728113
0.007201
0.00712525
0.007054
0.0069897
0.00693674
0.00689904
0.00687858
0.00687666
0.00689496
0.00693501
0.00699842
0.00708707
0.00720217
0.00734431
0.00751391
0.00771072
0.00793389
0.00818201
0.00845303
0.00874498
0.00905562
0.00938274
0.00972428
0.010079
0.0104459
0.0108256
0.0112176
0.0116237
0.0120418
0.0124728
0.0129093
0.0133479
0.0137723
0.0141739
0.0145244
0.0148084
0.0149771
0.014993
0.0148375
0.0144997
0.013967
0.0132325
0.0122929
0.0111603
0.00984407
0.008371
0.00675128
0.00504428
0.00335504
0.0014612
-0.000264318
-0.000904332
0.0113659
0.0113427
0.0113174
0.0112906
0.011262
0.0112319
0.0111999
0.0111663
0.0111309
0.011094
0.0110552
0.0110149
0.0109726
0.0109289
0.0108833
0.0108362
0.0107872
0.0107368
0.0106845
0.0106308
0.0105753
0.0105183
0.0104598
0.0104
0.0103387
0.0102764
0.0102129
0.0101488
0.0100835
0.0100176
0.00995068
0.00988322
0.00981457
0.00974532
0.0096748
0.0096036
0.00953096
0.00945744
0.00938242
0.00930646
0.0092291
0.00915091
0.0090714
0.00899111
0.00890984
0.00882806
0.00874536
0.00866223
0.00857815
0.00849287
0.00840539
0.00831558
0.00822274
0.00812743
0.00802966
0.00792977
0.00782751
0.00772311
0.00761683
0.00750902
0.0073997
0.0072891
0.00717775
0.00706642
0.00695589
0.00684734
0.00674183
0.00664078
0.006544
0.00645076
0.00636101
0.00627715
0.00620348
0.0061439
0.0061003
0.00607388
0.00606627
0.00607893
0.00611347
0.0061718
0.0062552
0.00636443
0.00650009
0.00666219
0.00685024
0.00706312
0.00729922
0.00755693
0.00783437
0.0081297
0.00844097
0.00876716
0.00910718
0.00946162
0.00982961
0.0102128
0.0106086
0.0110181
0.0114334
0.0118519
0.0122572
0.0126423
0.0129791
0.0132539
0.0134166
0.0134319
0.0132818
0.0129556
0.012441
0.0117313
0.0108223
0.00972504
0.00844681
0.00701272
0.00542961
0.00375524
0.00208647
0.000197869
-0.00155669
-0.00223894
0.0110375
0.0110149
0.0109899
0.0109635
0.0109351
0.0109052
0.0108734
0.01084
0.0108046
0.0107677
0.0107288
0.0106883
0.0106459
0.0106018
0.0105558
0.0105081
0.0104585
0.0104072
0.010354
0.0102992
0.0102425
0.0101842
0.0101241
0.0100627
0.00999958
0.00993534
0.00986971
0.0098032
0.00973541
0.00966689
0.00959704
0.00952652
0.00945458
0.00938188
0.00930765
0.00923259
0.00915582
0.00907799
0.00899835
0.00891758
0.00883512
0.00875162
0.00866651
0.00858035
0.00849292
0.00840473
0.00831531
0.0082252
0.00813378
0.00804081
0.00794543
0.0078475
0.00774628
0.00764232
0.00753559
0.00742642
0.00731458
0.0072002
0.00708354
0.00696498
0.00684443
0.00672207
0.00659845
0.00647427
0.00635035
0.00622757
0.0061074
0.00599063
0.00587752
0.005767
0.00565908
0.00555606
0.0054622
0.00538134
0.00531529
0.00526515
0.0052325
0.00521871
0.00522539
0.0052545
0.00530737
0.00538489
0.00548785
0.00561647
0.00577059
0.00594935
0.00615152
0.00637586
0.0066208
0.00688484
0.00716617
0.00746398
0.00777712
0.00810615
0.00844998
0.00881001
0.00918351
0.00957137
0.00996571
0.0103642
0.0107506
0.0111194
0.0114424
0.0117079
0.0118642
0.0118787
0.0117335
0.0114182
0.0109206
0.0102342
0.00935418
0.00829035
0.00704791
0.00565029
0.00410109
0.00245632
0.000805136
-0.00108092
-0.0028636
-0.00358811
0.0106842
0.0106619
0.0106375
0.0106115
0.0105837
0.0105543
0.0105228
0.0104898
0.0104547
0.010418
0.0103792
0.0103387
0.0102961
0.0102518
0.0102055
0.0101574
0.0101072
0.0100553
0.0100013
0.00994557
0.0098878
0.00982838
0.00976699
0.00970409
0.00963939
0.00957343
0.00950586
0.0094373
0.00936727
0.00929635
0.00922392
0.00915061
0.00907571
0.0089998
0.00892221
0.00884352
0.00876294
0.00868102
0.0085971
0.00851176
0.00842453
0.00833599
0.00824561
0.0081539