/*--------------------------------*- C++ -*----------------------------------*\
  =========                 |
  \\      /  F ield         | OpenFOAM: The Open Source CFD Toolbox
   \\    /   O peration     | Website:  https://openfoam.org
    \\  /    A nd           | Version:  6.0
     \\/     M anipulation  |
\*---------------------------------------------------------------------------*/
FoamFile
{
    version     2.0;
    format      ascii;
    class       volScalarField;
    location    "2.14";
    object      p;
}
// * * * * * * * * * * * * * * * * * * * * * * * * * * * * * * * * * * * * * //

dimensions      [0 2 -2 0 0 0 0];

internalField   nonuniform List<scalar> 
13500
(
0.098302
0.098327
0.097858
0.097366
0.096527
0.095941
0.09535
0.095851
0.097226
0.10145
0.12287
0.16632
0.098303
0.098327
0.097858
0.097366
0.096527
0.095941
0.095349
0.095851
0.097222
0.10151
0.12219
0.16126
0.098303
0.098327
0.097859
0.097367
0.096527
0.09594
0.095348
0.09585
0.097212
0.10156
0.12131
0.15677
0.098304
0.098328
0.09786
0.097367
0.096527
0.09594
0.095345
0.095847
0.097197
0.10158
0.12033
0.15328
0.098305
0.098329
0.097861
0.097368
0.096527
0.09594
0.095342
0.095843
0.097177
0.10159
0.11929
0.15033
0.098307
0.098331
0.097862
0.097369
0.096528
0.095939
0.095338
0.095837
0.097151
0.10158
0.11822
0.14771
0.098308
0.098333
0.097864
0.097371
0.096528
0.095938
0.095334
0.09583
0.097121
0.10157
0.11714
0.14534
0.098311
0.098335
0.097866
0.097372
0.096528
0.095937
0.095329
0.095822
0.097086
0.10154
0.11606
0.14316
0.098313
0.098338
0.097868
0.097374
0.096529
0.095936
0.095324
0.095813
0.097046
0.10149
0.11501
0.14115
0.098316
0.098341
0.097871
0.097376
0.096529
0.095934
0.095318
0.095803
0.097
0.10143
0.11399
0.13927
0.09832
0.098344
0.097874
0.097378
0.09653
0.095932
0.095311
0.095791
0.09695
0.10136
0.11301
0.13751
0.098324
0.098348
0.097877
0.09738
0.096531
0.09593
0.095304
0.095778
0.096895
0.10128
0.11206
0.13585
0.098328
0.098352
0.097881
0.097383
0.096532
0.095928
0.095297
0.095763
0.096834
0.10119
0.11116
0.13428
0.098332
0.098356
0.097885
0.097385
0.096533
0.095926
0.095288
0.095747
0.096768
0.10109
0.1103
0.13279
0.098337
0.098361
0.097889
0.097388
0.096534
0.095923
0.095279
0.09573
0.096697
0.10098
0.10948
0.13136
0.098343
0.098366
0.097893
0.097392
0.096535
0.095921
0.09527
0.095711
0.096621
0.10087
0.10869
0.13
0.098348
0.098371
0.097898
0.097395
0.096536
0.095918
0.09526
0.09569
0.096539
0.10075
0.10793
0.1287
0.098355
0.098377
0.097903
0.097399
0.096537
0.095914
0.095249
0.095669
0.096453
0.10063
0.10721
0.12744
0.098361
0.098383
0.097909
0.097402
0.096539
0.095911
0.095238
0.095645
0.096362
0.1005
0.10651
0.12624
0.098368
0.09839
0.097915
0.097406
0.09654
0.095907
0.095226
0.095621
0.096266
0.10038
0.10583
0.12507
0.098376
0.098397
0.097921
0.097411
0.096542
0.095903
0.095214
0.095594
0.096166
0.10025
0.10518
0.12394
0.098383
0.098404
0.097927
0.097415
0.096543
0.095899
0.095201
0.095567
0.096062
0.10013
0.10454
0.12285
0.098392
0.098412
0.097934
0.09742
0.096545
0.095895
0.095188
0.095537
0.095953
0.1
0.10391
0.1218
0.0984
0.09842
0.097942
0.097425
0.096547
0.095891
0.095174
0.095507
0.095842
0.09988
0.1033
0.12077
0.09841
0.098429
0.097949
0.09743
0.096549
0.095886
0.095159
0.095474
0.095727
0.099757
0.1027
0.11976
0.098419
0.098438
0.097957
0.097436
0.096551
0.095881
0.095144
0.095441
0.095609
0.099636
0.10211
0.11879
0.098429
0.098447
0.097966
0.097441
0.096553
0.095876
0.095129
0.095405
0.095489
0.099516
0.10153
0.11784
0.09844
0.098457
0.097974
0.097447
0.096556
0.09587
0.095113
0.095369
0.095366
0.099398
0.10095
0.11691
0.098451
0.098467
0.097983
0.097454
0.096558
0.095865
0.095096
0.09533
0.095242
0.09928
0.10039
0.116
0.098462
0.098478
0.097993
0.09746
0.096561
0.095859
0.095079
0.095291
0.095116
0.099163
0.099827
0.11511
0.098474
0.098489
0.098003
0.097467
0.096564
0.095853
0.095062
0.09525
0.094988
0.099046
0.099273
0.11424
0.098486
0.0985
0.098013
0.097474
0.096566
0.095847
0.095043
0.095208
0.094859
0.09893
0.098725
0.11338
0.098499
0.098512
0.098023
0.097481
0.096569
0.095841
0.095025
0.095165
0.094729
0.098814
0.098182
0.11255
0.098512
0.098525
0.098034
0.097489
0.096572
0.095834
0.095006
0.095121
0.094599
0.098697
0.097646
0.11173
0.098526
0.098537
0.098046
0.097497
0.096576
0.095827
0.094986
0.095076
0.094467
0.09858
0.097115
0.11093
0.09854
0.098551
0.098058
0.097505
0.096579
0.095821
0.094966
0.095029
0.094336
0.098462
0.09659
0.11014
0.098555
0.098565
0.09807
0.097513
0.096583
0.095813
0.094945
0.094983
0.094203
0.098343
0.096072
0.10937
0.09857
0.098579
0.098082
0.097522
0.096586
0.095806
0.094923
0.094935
0.094071
0.098223
0.095559
0.10861
0.098586
0.098593
0.098095
0.097531
0.09659
0.095799
0.094902
0.094886
0.093938
0.098101
0.095054
0.10787
0.098602
0.098609
0.098109
0.09754
0.096594
0.095791
0.094879
0.094837
0.093805
0.097978
0.094554
0.10714
0.098619
0.098624
0.098123
0.09755
0.096598
0.095784
0.094856
0.094788
0.093671
0.097853
0.094061
0.10642
0.098636
0.09864
0.098137
0.09756
0.096602
0.095776
0.094833
0.094738
0.093537
0.097726
0.093575
0.10572
0.098654
0.098657
0.098152
0.09757
0.096607
0.095768
0.094809
0.094688
0.093403
0.097597
0.093096
0.10503
0.098672
0.098674
0.098167
0.097581
0.096611
0.09576
0.094784
0.094637
0.093269
0.097465
0.092624
0.10436
0.098691
0.098692
0.098182
0.097592
0.096616
0.095752
0.094759
0.094586
0.093134
0.097332
0.092159
0.10369
0.09871
0.09871
0.098198
0.097603
0.096621
0.095744
0.094733
0.094535
0.092999
0.097197
0.091702
0.10304
0.09873
0.098729
0.098215
0.097615
0.096626
0.095736
0.094707
0.094484
0.092864
0.09706
0.091251
0.1024
0.09875
0.098748
0.098232
0.097627
0.096632
0.095727
0.094681
0.094432
0.092728
0.09692
0.090808
0.10177
0.098771
0.098767
0.098249
0.097639
0.096637
0.095719
0.094653
0.094381
0.092591
0.096778
0.090371
0.10116
0.098793
0.098788
0.098267
0.097652
0.096643
0.09571
0.094626
0.094329
0.092455
0.096635
0.089942
0.10055
0.098815
0.098808
0.098285
0.097665
0.096648
0.095702
0.094597
0.094278
0.092317
0.096489
0.08952
0.099954
0.098838
0.09883
0.098304
0.097678
0.096654
0.095693
0.094568
0.094226
0.092179
0.096341
0.089106
0.099368
0.098861
0.098852
0.098324
0.097692
0.096661
0.095685
0.094539
0.094175
0.092041
0.096191
0.088698
0.098791
0.098885
0.098874
0.098343
0.097706
0.096667
0.095676
0.094509
0.094123
0.091902
0.096039
0.088297
0.098225
0.098909
0.098897
0.098364
0.097721
0.096673
0.095668
0.094479
0.094072
0.091763
0.095885
0.087904
0.097668
0.098934
0.098921
0.098384
0.097735
0.09668
0.09566
0.094448
0.09402
0.091623
0.095729
0.087517
0.09712
0.09896
0.098945
0.098406
0.097751
0.096687
0.095651
0.094416
0.093969
0.091482
0.095571
0.087137
0.09658
0.098986
0.098969
0.098427
0.097767
0.096694
0.095643
0.094384
0.093917
0.091341
0.095412
0.086763
0.09605
0.099013
0.098995
0.09845
0.097783
0.096702
0.095634
0.094352
0.093866
0.0912
0.095251
0.086396
0.095527
0.09904
0.09902
0.098472
0.097799
0.096709
0.095626
0.094319
0.093814
0.091058
0.095088
0.086036
0.095013
0.099068
0.099047
0.098496
0.097816
0.096717
0.095618
0.094285
0.093763
0.090916
0.094924
0.085682
0.094507
0.099097
0.099074
0.098519
0.097834
0.096725
0.09561
0.094251
0.093711
0.090773
0.094758
0.085335
0.094008
0.099126
0.099102
0.098544
0.097851
0.096733
0.095602
0.094217
0.093659
0.09063
0.094591
0.084993
0.093517
0.099156
0.09913
0.098569
0.09787
0.096742
0.095594
0.094182
0.093608
0.090487
0.094422
0.084658
0.093033
0.099187
0.099159
0.098594
0.097888
0.09675
0.095586
0.094147
0.093556
0.090343
0.094252
0.084328
0.092557
0.099218
0.099189
0.09862
0.097908
0.096759
0.095578
0.094111
0.093505
0.090199
0.094081
0.084004
0.092087
0.09925
0.099219
0.098647
0.097927
0.096768
0.095571
0.094075
0.093453
0.090055
0.093909
0.083686
0.091624
0.099282
0.09925
0.098674
0.097947
0.096778
0.095564
0.094038
0.093401
0.089911
0.093735
0.083374
0.091168
0.099315
0.099281
0.098701
0.097968
0.096787
0.095556
0.094001
0.093349
0.089767
0.09356
0.083067
0.090718
0.099349
0.099313
0.09873
0.097989
0.096797
0.095549
0.093964
0.093298
0.089623
0.093384
0.082765
0.090274
0.099384
0.099346
0.098758
0.09801
0.096807
0.095542
0.093926
0.093246
0.089478
0.093207
0.082468
0.089836
0.099419
0.09938
0.098788
0.098032
0.096818
0.095536
0.093888
0.093193
0.089334
0.093029
0.082177
0.089405
0.099455
0.099414
0.098818
0.098055
0.096829
0.095529
0.093849
0.093141
0.08919
0.09285
0.081891
0.088979
0.099492
0.099449
0.098849
0.098078
0.09684
0.095523
0.09381
0.093089
0.089046
0.092671
0.081609
0.088558
0.099529
0.099484
0.09888
0.098102
0.096851
0.095516
0.093771
0.093037
0.088902
0.09249
0.081332
0.088144
0.099568
0.099521
0.098912
0.098126
0.096863
0.09551
0.093731
0.092984
0.088759
0.092309
0.08106
0.087734
0.099606
0.099558
0.098944
0.09815
0.096874
0.095505
0.093692
0.092932
0.088615
0.092126
0.080793
0.08733
0.099646
0.099596
0.098977
0.098175
0.096887
0.095499
0.093651
0.092879
0.088472
0.091943
0.08053
0.086931
0.099686
0.099634
0.099011
0.098201
0.096899
0.095494
0.093611
0.092826
0.088329
0.09176
0.080271
0.086537
0.099728
0.099673
0.099046
0.098227
0.096912
0.095489
0.09357
0.092773
0.088187
0.091575
0.080017
0.086148
0.099769
0.099713
0.099081
0.098254
0.096925
0.095484
0.093529
0.09272
0.088045
0.091391
0.079767
0.085764
0.099812
0.099754
0.099117
0.098282
0.096939
0.09548
0.093488
0.092666
0.087903
0.091205
0.07952
0.085384
0.099856
0.099796
0.099153
0.098309
0.096953
0.095476
0.093446
0.092613
0.087762
0.091019
0.079278
0.085009
0.0999
0.099838
0.09919
0.098338
0.096967
0.095472
0.093404
0.092559
0.087621
0.090832
0.079039
0.084638
0.099945
0.099882
0.099228
0.098367
0.096982
0.095468
0.093362
0.092505
0.087481
0.090645
0.078805
0.084272
0.099991
0.099926
0.099267
0.098397
0.096997
0.095465
0.09332
0.092451
0.087342
0.090458
0.078573
0.083909
0.10004
0.09997
0.099306
0.098427
0.097012
0.095462
0.093278
0.092397
0.087202
0.09027
0.078346
0.083551
0.10009
0.10002
0.099347
0.098458
0.097028
0.095459
0.093235
0.092343
0.087064
0.090081
0.078122
0.083197
0.10013
0.10006
0.099388
0.09849
0.097045
0.095457
0.093193
0.092288
0.086926
0.089892
0.077901
0.082847
0.10018
0.10011
0.099429
0.098522
0.097061
0.095455
0.09315
0.092233
0.086789
0.089703
0.077683
0.0825
0.10023
0.10016
0.099472
0.098555
0.097079
0.095454
0.093107
0.092178
0.086652
0.089514
0.077469
0.082157
0.10028
0.10021
0.099515
0.098589
0.097096
0.095453
0.093064
0.092123
0.086517
0.089324
0.077257
0.081818
0.10034
0.10026
0.099559
0.098623
0.097114
0.095452
0.093021
0.092067
0.086381
0.089134
0.077049
0.081482
0.10039
0.10031
0.099604
0.098658
0.097133
0.095452
0.092977
0.092012
0.086247
0.088943
0.076843
0.08115
0.10044
0.10036
0.09965
0.098693
0.097152
0.095452
0.092934
0.091956
0.086113
0.088753
0.076641
0.080821
0.1005
0.10041
0.099697
0.09873
0.097171
0.095452
0.092891
0.0919
0.08598
0.088562
0.076441
0.080495
0.10056
0.10047
0.099745
0.098767
0.097191
0.095454
0.092847
0.091843
0.085848
0.088371
0.076243
0.080172
0.10061
0.10052
0.099793
0.098805
0.097212
0.095455
0.092804
0.091787
0.085717
0.088179
0.076048
0.079852
0.10067
0.10058
0.099843
0.098844
0.097233
0.095457
0.09276
0.09173
0.085586
0.087988
0.075856
0.079536
0.10073
0.10064
0.099893
0.098883
0.097254
0.09546
0.092717
0.091672
0.085456
0.087796
0.075666
0.079221
0.10079
0.10069
0.099945
0.098924
0.097276
0.095463
0.092674
0.091615
0.085327
0.087604
0.075478
0.07891
0.10085
0.10075
0.099997
0.098965
0.097299
0.095467
0.09263
0.091557
0.085199
0.087412
0.075293
0.078602
0.10091
0.10081
0.10005
0.099007
0.097322
0.095471
0.092587
0.091499
0.085071
0.08722
0.075109
0.078296
0.10098
0.10087
0.10011
0.09905
0.097346
0.095476
0.092544
0.091441
0.084944
0.087028
0.074928
0.077992
0.10104
0.10094
0.10016
0.099094
0.097371
0.095481
0.092501
0.091383
0.084818
0.086835
0.074748
0.077691
0.10111
0.101
0.10022
0.099139
0.097396
0.095487
0.092458
0.091324
0.084693
0.086643
0.074571
0.077392
0.10117
0.10107
0.10028
0.099184
0.097422
0.095494
0.092416
0.091265
0.084569
0.08645
0.074395
0.077095
0.10124
0.10113
0.10033
0.099231
0.097448
0.095501
0.092374
0.091206
0.084446
0.086257
0.074221
0.0768
0.10131
0.1012
0.10039
0.099279
0.097476
0.095509
0.092332
0.091146
0.084323
0.086065
0.074048
0.076508
0.10138
0.10127
0.10046
0.099328
0.097504
0.095518
0.09229
0.091086
0.084201
0.085872
0.073877
0.076217
0.10146
0.10134
0.10052
0.099378
0.097532
0.095528
0.092248
0.091026
0.084081
0.085679
0.073708
0.075928
0.10153
0.10141
0.10058
0.099429
0.097562
0.095538
0.092207
0.090966
0.08396
0.085486
0.07354
0.075641
0.1016
0.10148
0.10065
0.099482
0.097592
0.095549
0.092167
0.090905
0.083841
0.085292
0.073373
0.075356
0.10168
0.10156
0.10071
0.099535
0.097623
0.095561
0.092126
0.090845
0.083723
0.085099
0.073207
0.075072
0.10176
0.10163
0.10078
0.09959
0.097656
0.095573
0.092086
0.090784
0.083605
0.084906
0.073043
0.07479
0.10184
0.10171
0.10085
0.099646
0.097689
0.095587
0.092047
0.090722
0.083488
0.084712
0.07288
0.074509
0.10192
0.10179
0.10092
0.099703
0.097723
0.095601
0.092008
0.090661
0.083372
0.084519
0.072717
0.074229
0.102
0.10187
0.101
0.099762
0.097757
0.095616
0.09197
0.090599
0.083257
0.084325
0.072556
0.073951
0.10209
0.10195
0.10107
0.099822
0.097793
0.095633
0.091932
0.090537
0.083143
0.084132
0.072396
0.073674
0.10217
0.10204
0.10115
0.099884
0.097831
0.09565
0.091895
0.090475
0.083029
0.083938
0.072236
0.073397
0.10226
0.10212
0.10122
0.099947
0.097869
0.095668
0.091859
0.090413
0.082917
0.083744
0.072077
0.073122
0.10235
0.10221
0.1013
0.10001
0.097908
0.095687
0.091823
0.090351
0.082805
0.08355
0.071918
0.072848
0.10244
0.1023
0.10138
0.10008
0.097949
0.095708
0.091788
0.090288
0.082694
0.083356
0.071761
0.072574
0.10254
0.10239
0.10147
0.10015
0.097991
0.095729
0.091754
0.090226
0.082584
0.083162
0.071603
0.072301
0.10263
0.10249
0.10155
0.10022
0.098034
0.095752
0.09172
0.090163
0.082474
0.082968
0.071447
0.072029
0.10273
0.10258
0.10164
0.10029
0.098079
0.095776
0.091688
0.0901
0.082365
0.082773
0.07129
0.071757
0.10283
0.10268
0.10173
0.10036
0.098125
0.095801
0.091657
0.090037
0.082258
0.082579
0.071134
0.071486
0.10293
0.10278
0.10182
0.10044
0.098172
0.095828
0.091626
0.089975
0.082151
0.082385
0.070978
0.071215
0.10304
0.10288
0.10191
0.10052
0.098222
0.095856
0.091597
0.089912
0.082044
0.08219
0.070822
0.070944
0.10314
0.10299
0.10201
0.1006
0.098273
0.095885
0.091569
0.089849
0.081939
0.081995
0.070666
0.070673
0.10325
0.10309
0.1021
0.10068
0.098325
0.095916
0.091542
0.089787
0.081834
0.0818
0.07051
0.070402
0.10337
0.1032
0.1022
0.10076
0.09838
0.095948
0.091516
0.089724
0.081731
0.081605
0.070354
0.070132
0.10348
0.10332
0.10231
0.10085
0.098437
0.095982
0.091491
0.089662
0.081628
0.08141
0.070197
0.069861
0.1036
0.10343
0.10241
0.10094
0.098495
0.096018
0.091468
0.0896
0.081526
0.081214
0.070041
0.069589
0.10372
0.10355
0.10252
0.10103
0.098556
0.096056
0.091447
0.089538
0.081424
0.081019
0.069884
0.069317
0.10384
0.10367
0.10263
0.10113
0.098619
0.096095
0.091427
0.089476
0.081324
0.080823
0.069727
0.069045
0.10397
0.1038
0.10275
0.10123
0.098684
0.096136
0.091408
0.089415
0.081225
0.080627
0.069569
0.068772
0.1041
0.10393
0.10286
0.10133
0.098752
0.09618
0.091392
0.089355
0.081126
0.080431
0.06941
0.068499
0.10423
0.10406
0.10298
0.10143
0.098822
0.096225
0.091377
0.089294
0.081028
0.080235
0.069251
0.068225
0.10437
0.10419
0.10311
0.10154
0.098895
0.096273
0.091364
0.089234
0.080931
0.080039
0.069092
0.067949
0.10451
0.10433
0.10324
0.10165
0.098971
0.096323
0.091353
0.089175
0.080835
0.079842
0.068931
0.067673
0.10465
0.10448
0.10337
0.10177
0.09905
0.096375
0.091344
0.089117
0.08074
0.079645
0.06877
0.067395
0.1048
0.10462
0.1035
0.10188
0.099132
0.09643
0.091337
0.089059
0.080646
0.079448
0.068608
0.067117
0.10495
0.10477
0.10364
0.10201
0.099217
0.096488
0.091333
0.089002
0.080553
0.079251
0.068444
0.066836
0.10511
0.10493
0.10379
0.10213
0.099306
0.096548
0.091331
0.088946
0.080461
0.079053
0.06828
0.066555
0.10527
0.10509
0.10393
0.10226
0.099398
0.096612
0.091331
0.088891
0.080369
0.078856
0.068114
0.066271
0.10544
0.10525
0.10409
0.1024
0.099494
0.096678
0.091334
0.088837
0.080279
0.078658
0.067948
0.065986
0.10561
0.10542
0.10424
0.10254
0.099594
0.096747
0.09134
0.088784
0.08019
0.078459
0.067779
0.065699
0.10578
0.1056
0.1044
0.10268
0.099697
0.09682
0.091349
0.088732
0.080102
0.078261
0.06761
0.06541
0.10596
0.10578
0.10457
0.10283
0.099805
0.096897
0.091361
0.088681
0.080015
0.078062
0.067439
0.065119
0.10615
0.10596
0.10474
0.10298
0.099918
0.096977
0.091376
0.088632
0.07993
0.077863
0.067266
0.064825
0.10634
0.10615
0.10492
0.10314
0.10004
0.09706
0.091395
0.088585
0.079845
0.077664
0.067092
0.064529
0.10653
0.10635
0.1051
0.1033
0.10016
0.097148
0.091416
0.088539
0.079762
0.077465
0.066915
0.064231
0.10673
0.10655
0.10529
0.10347
0.10028
0.09724
0.091442
0.088495
0.07968
0.077265
0.066737
0.063929
0.10694
0.10676
0.10549
0.10365
0.10042
0.097336
0.091471
0.088452
0.079599
0.077065
0.066557
0.063625
0.10716
0.10697
0.10569
0.10383
0.10055
0.097437
0.091504
0.088412
0.079519
0.076864
0.066375
0.063318
0.10738
0.1072
0.1059
0.10402
0.1007
0.097542
0.091541
0.088374
0.079441
0.076664
0.066191
0.063007
0.10761
0.10743
0.10611
0.10422
0.10085
0.097653
0.091583
0.088337
0.079365
0.076462
0.066004
0.062693
0.10784
0.10766
0.10633
0.10442
0.101
0.097768
0.091629
0.088304
0.079289
0.076261
0.065815
0.062376
0.10808
0.10791
0.10656
0.10463
0.10117
0.097889
0.09168
0.088272
0.079215
0.076059
0.065624
0.062054
0.10833
0.10816
0.1068
0.10484
0.10133
0.098015
0.091735
0.088243
0.079143
0.075857
0.065429
0.061729
0.10859
0.10842
0.10705
0.10507
0.10151
0.098147
0.091795
0.088217
0.079072
0.075654
0.065232
0.0614
0.10886
0.10869
0.1073
0.1053
0.10169
0.098284
0.091861
0.088194
0.079003
0.075451
0.065033
0.061066
0.10913
0.10896
0.10756
0.10554
0.10189
0.098429
0.091931
0.088173
0.078935
0.075248
0.06483
0.060728
0.10941
0.10925
0.10783
0.10579
0.10208
0.098579
0.092008
0.088155
0.078869
0.075043
0.064624
0.060384
0.1097
0.10954
0.10811
0.10605
0.10229
0.098736
0.09209
0.088141
0.078805
0.074838
0.064414
0.060036
0.11
0.10985
0.1084
0.10632
0.10251
0.0989
0.092178
0.08813
0.078742
0.074633
0.064201
0.059683
0.11032
0.11016
0.1087
0.1066
0.10273
0.099071
0.092272
0.088122
0.07868
0.074427
0.063984
0.059323
0.11064
0.11049
0.10901
0.10688
0.10296
0.099249
0.092372
0.088118
0.078621
0.074219
0.063764
0.058959
0.11097
0.11082
0.10933
0.10718
0.10321
0.099435
0.092478
0.088117
0.078563
0.074011
0.063539
0.058588
0.11131
0.11117
0.10966
0.10749
0.10346
0.099629
0.092592
0.08812
0.078506
0.073802
0.06331
0.05821
0.11166
0.11153
0.11
0.1078
0.10372
0.099831
0.092712
0.088126
0.078451
0.073592
0.063076
0.057826
0.11202
0.1119
0.11036
0.10813
0.10399
0.10004
0.092839
0.088137
0.078397
0.07338
0.062838
0.057435
0.11239
0.11228
0.11072
0.10848
0.10427
0.10026
0.092973
0.088151
0.078345
0.073167
0.062594
0.057036
0.11278
0.11267
0.1111
0.10883
0.10457
0.10049
0.093114
0.088169
0.078295
0.072952
0.062345
0.056629
0.11318
0.11307
0.11149
0.10919
0.10487
0.10072
0.093263
0.088191
0.078245
0.072735
0.062091
0.056215
0.11359
0.11349
0.11189
0.10957
0.10519
0.10097
0.093419
0.088217
0.078197
0.072516
0.06183
0.055792
0.11401
0.11393
0.11231
0.10996
0.10552
0.10122
0.093583
0.088247
0.078149
0.072295
0.061563
0.055359
0.11444
0.11437
0.11274
0.11036
0.10586
0.10149
0.093754
0.088282
0.078103
0.072072
0.061289
0.054917
0.11489
0.11483
0.11319
0.11078
0.10621
0.10176
0.093934
0.08832
0.078057
0.071845
0.061008
0.054465
0.11536
0.1153
0.11365
0.11121
0.10658
0.10205
0.094122
0.088362
0.078011
0.071615
0.060719
0.054003
0.11583
0.11579
0.11412
0.11166
0.10696
0.10234
0.094318
0.088407
0.077966
0.071382
0.060423
0.053529
0.11633
0.1163
0.11461
0.11212
0.10735
0.10265
0.094522
0.088457
0.077921
0.071145
0.060117
0.053044
0.11683
0.11682
0.11512
0.11259
0.10776
0.10297
0.094735
0.088511
0.077876
0.070903
0.059803
0.052547
0.11736
0.11736
0.11564
0.11309
0.10819
0.10329
0.094956
0.088568
0.07783
0.070657
0.059478
0.052036
0.11789
0.11791
0.11618
0.11359
0.10862
0.10363
0.095186
0.088628
0.077783
0.070406
0.059144
0.051512
0.11845
0.11848
0.11674
0.11412
0.10908
0.10398
0.095424
0.088692
0.077735
0.070149
0.058798
0.050973
0.11902
0.11907
0.11732
0.11466
0.10955
0.10435
0.095671
0.088759
0.077686
0.069885
0.058441
0.05042
0.11961
0.11968
0.11791
0.11522
0.11003
0.10472
0.095927
0.08883
0.077634
0.069615
0.058071
0.04985
0.12022
0.12031
0.11853
0.1158
0.11054
0.10511
0.096192
0.088903
0.077581
0.069337
0.057689
0.049264
0.12085
0.12095
0.11917
0.1164
0.11106
0.10551
0.096465
0.088979
0.077524
0.069052
0.057292
0.04866
0.1215
0.12162
0.11983
0.11702
0.1116
0.10593
0.096749
0.089058
0.077464
0.068757
0.056881
0.048038
0.12217
0.12231
0.12051
0.11766
0.11215
0.10635
0.097041
0.089139
0.0774
0.068453
0.056454
0.047396
0.12286
0.12303
0.12121
0.11832
0.11273
0.1068
0.097343
0.089222
0.077333
0.068139
0.05601
0.046733
0.12358
0.12377
0.12194
0.11901
0.11333
0.10726
0.097655
0.089307
0.07726
0.067814
0.055548
0.046049
0.12432
0.12453
0.1227
0.11972
0.11396
0.10773
0.097977
0.089395
0.077182
0.067477
0.055068
0.045342
0.12508
0.12532
0.12349
0.12045
0.1146
0.10822
0.098309
0.089484
0.077098
0.067127
0.054569
0.04461
0.12588
0.12615
0.1243
0.12122
0.11527
0.10873
0.098652
0.089575
0.077008
0.066764
0.054048
0.043854
0.1267
0.127
0.12515
0.12201
0.11597
0.10926
0.099006
0.089667
0.076911
0.066386
0.053506
0.043071
0.12755
0.12788
0.12603
0.12284
0.1167
0.1098
0.099372
0.089761
0.076807
0.065993
0.05294
0.04226
0.12844
0.1288
0.12695
0.1237
0.11745
0.11037
0.09975
0.089856
0.076694
0.065584
0.05235
0.041419
0.12936
0.12976
0.12791
0.1246
0.11824
0.11096
0.10014
0.089952
0.076572
0.065157
0.051734
0.040548
0.13032
0.13076
0.12891
0.12553
0.11906
0.11158
0.10054
0.09005
0.07644
0.064711
0.051091
0.039643
0.13132
0.1318
0.12995
0.12651
0.11992
0.11222
0.10096
0.090148
0.076298
0.064246
0.050419
0.038705
0.13237
0.13289
0.13104
0.12754
0.12081
0.11288
0.1014
0.090248
0.076145
0.063759
0.049716
0.03773
0.13346
0.13403
0.13219
0.12861
0.12175
0.11358
0.10184
0.090348
0.075979
0.063249
0.048981
0.036716
0.1346
0.13522
0.13339
0.12973
0.12273
0.11431
0.10231
0.090449
0.0758
0.062715
0.048211
0.035662
0.1358
0.13647
0.13465
0.13092
0.12376
0.11507
0.10279
0.090549
0.075605
0.062154
0.047405
0.034566
0.13705
0.13779
0.13598
0.13216
0.12484
0.11586
0.10329
0.090649
0.075394
0.061565
0.04656
0.033424
0.13837
0.13917
0.13738
0.13347
0.12598
0.11669
0.1038
0.090747
0.075163
0.060944
0.045673
0.032234
0.13975
0.14063
0.13885
0.13485
0.12718
0.11757
0.10434
0.090842
0.074912
0.060289
0.04474
0.030993
0.1412
0.14216
0.1404
0.1363
0.12843
0.11848
0.10489
0.090932
0.074636
0.059596
0.043759
0.029698
0.14272
0.14377
0.14204
0.13784
0.12976
0.11944
0.10546
0.091015
0.074332
0.058861
0.042725
0.028345
0.14433
0.14547
0.14377
0.13946
0.13115
0.12044
0.10604
0.091088
0.073997
0.05808
0.041633
0.026929
0.14601
0.14727
0.14559
0.14117
0.13261
0.12149
0.10664
0.091148
0.073624
0.057246
0.040478
0.025447
0.14778
0.14916
0.14752
0.14298
0.13415
0.12258
0.10725
0.09119
0.073207
0.056353
0.039254
0.023892
0.14965
0.15116
0.14956
0.1449
0.13576
0.12372
0.10787
0.091208
0.072741
0.055395
0.037953
0.022258
0.1516
0.15327
0.15172
0.14692
0.13746
0.1249
0.10849
0.091197
0.072217
0.054362
0.036568
0.020539
0.15366
0.1555
0.154
0.14905
0.13924
0.12613
0.10911
0.091148
0.071625
0.053246
0.035089
0.018728
0.15581
0.15785
0.15641
0.1513
0.14111
0.12739
0.10972
0.091053
0.070956
0.052036
0.033508
0.016814
0.15807
0.16032
0.15895
0.15368
0.14306
0.1287
0.11032
0.090901
0.070198
0.05072
0.031812
0.014788
0.16044
0.16294
0.16165
0.15619
0.1451
0.13004
0.11089
0.09068
0.069336
0.049286
0.02999
0.012641
0.16293
0.16569
0.1645
0.15884
0.14723
0.1314
0.11143
0.090376
0.068358
0.04772
0.02803
0.010361
0.16553
0.16861
0.16752
0.16163
0.14945
0.13279
0.11191
0.089974
0.067247
0.046007
0.025919
0.0079346
0.16826
0.17169
0.17072
0.16458
0.15177
0.13418
0.11234
0.089454
0.065983
0.044131
0.02364
0.0053508
0.17113
0.17495
0.17412
0.1677
0.15417
0.13558
0.11268
0.088795
0.064547
0.042073
0.021181
0.0025962
0.17414
0.17841
0.17774
0.171
0.15667
0.13696
0.11291
0.087971
0.062914
0.039815
0.018523
-0.00034214
0.1773
0.1821
0.18162
0.17449
0.15925
0.1383
0.11301
0.086952
0.061057
0.037332
0.01565
-0.0034774
0.18064
0.18603
0.18576
0.17819
0.16192
0.13959
0.11294
0.0857
0.058942
0.034598
0.012541
-0.0068231
0.18415
0.19024
0.19022
0.18212
0.16466
0.14078
0.11266
0.08417
0.05653
0.031582
0.0091736
-0.010393
0.18786
0.19476
0.19503
0.18629
0.16745
0.14184
0.11211
0.082305
0.053771
0.028245
0.0055204
-0.014203
0.19176
0.19962
0.20021
0.1907
0.17027
0.14271
0.11122
0.080039
0.050608
0.024543
0.0015496
-0.01827
0.19587
0.20486
0.20581
0.19536
0.17307
0.1433
0.1099
0.077289
0.046973
0.020422
-0.0027757
-0.022613
0.20017
0.21051
0.21185
0.20024
0.17577
0.14352
0.10806
0.07396
0.042789
0.015823
-0.0074964
-0.027253
0.20465
0.21658
0.21833
0.20529
0.17826
0.14323
0.10555
0.069943
0.037969
0.010684
-0.012655
-0.032209
0.20926
0.2231
0.22525
0.21043
0.18039
0.14227
0.10222
0.065116
0.032428
0.0049444
-0.018288
-0.037497
0.21395
0.23003
0.23253
0.21551
0.18195
0.14041
0.097901
0.059354
0.026082
-0.0014446
-0.02442
-0.04312
0.21863
0.23732
0.24006
0.22029
0.18266
0.13741
0.09239
0.052527
0.018861
-0.008511
-0.031052
-0.04906
0.22321
0.24487
0.24757
0.2244
0.18214
0.13293
0.085474
0.044518
0.01072
-0.016251
-0.038149
-0.055266
0.22759
0.25245
0.25464
0.2273
0.17986
0.12662
0.076935
0.03523
0.0016453
-0.024624
-0.045636
-0.061656
0.23167
0.25965
0.2605
0.22814
0.17517
0.11805
0.066571
0.02461
-0.0083289
-0.033543
-0.053398
-0.068107
0.23544
0.26578
0.26391
0.22568
0.16718
0.10677
0.054234
0.012673
-0.019106
-0.042876
-0.061285
-0.074477
0.23897
0.26963
0.26286
0.21812
0.15481
0.092331
0.039872
-0.00045082
-0.030505
-0.052442
-0.069125
-0.080618
0.24254
0.26934
0.25433
0.203
0.13673
0.074331
0.023573
-0.014499
-0.042245
-0.062007
-0.076733
-0.086401
0.24675
0.2623
0.23431
0.17724
0.11148
0.052439
0.0055437
-0.0291
-0.053967
-0.0713
-0.083932
-0.091729
0.25251
0.24565
0.19852
0.13772
0.077672
0.026398
-0.013986
-0.04389
-0.06533
-0.080068
-0.090574
-0.096553
0.26027
0.21614
0.14392
0.082612
0.034538
-0.0039409
-0.034899
-0.058672
-0.076138
-0.088176
-0.096603
-0.10091
0.2704
0.16763
0.066732
0.010732
-0.018615
-0.039178
-0.057653
-0.073773
-0.086641
-0.095836
-0.10224
-0.10505
0.2933
0.10179
-0.032301
-0.076145
-0.081275
-0.08017
-0.083568
-0.090493
-0.097983
-0.10402
-0.10831
-0.10974
0.34073
0.036795
-0.1362
-0.1649
-0.14483
-0.12251
-0.11099
-0.10851
-0.11035
-0.11303
-0.11513
-0.11517
0.10362
0.064374
0.054322
0.04834
0.044209
0.041073
0.03854
0.036246
0.034277
0.03204
0.030386
0.027144
0.12308
0.079755
0.067261
0.0593
0.053865
0.049795
0.046549
0.043636
0.041175
0.038378
0.036399
0.032547
0.11031
0.074512
0.063202
0.055363
0.049998
0.046003
0.042844
0.040028
0.037692
0.035011
0.033224
0.029479
0.10521
0.074128
0.06314
0.055206
0.049705
0.045597
0.042359
0.039477
0.037116
0.034385
0.03263
0.028723
0.10456
0.07628
0.065129
0.056976
0.05123
0.046914
0.043511
0.040482
0.038016
0.035154
0.033344
0.029217
0.10391
0.078082
0.066854
0.058563
0.052619
0.048122
0.044572
0.041411
0.038849
0.035871
0.034002
0.029711
0.10279
0.079352
0.068194
0.059847
0.053754
0.049109
0.045434
0.04216
0.039515
0.036446
0.034523
0.030127
0.10161
0.080397
0.069398
0.061046
0.054836
0.050059
0.046268
0.042891
0.040167
0.037023
0.035047
0.030599
0.1005
0.081302
0.070532
0.062219
0.055921
0.051026
0.047127
0.043654
0.040853
0.037647
0.035621
0.031172
0.099445
0.082059
0.071581
0.063351
0.056999
0.052006
0.048007
0.044446
0.041574
0.038321
0.036249
0.031852
0.098426
0.082666
0.072534
0.064428
0.058059
0.052988
0.048903
0.045264
0.042327
0.039043
0.036933
0.032636
0.097439
0.083136
0.073387
0.065442
0.05909
0.053967
0.049812
0.046108
0.043114
0.039815
0.037674
0.033523
0.096486
0.083485
0.074141
0.066386
0.060084
0.054934
0.050726
0.046971
0.04393
0.040632
0.038471
0.034502
0.095566
0.083728
0.074797
0.067255
0.061031
0.055879
0.051637
0.047847
0.04477
0.041487
0.039314
0.035558
0.094682
0.08388
0.075362
0.068047
0.061925
0.056794
0.052536
0.048727
0.045624
0.042372
0.040195
0.036673
0.093835
0.083954
0.07584
0.068761
0.062761
0.057671
0.053415
0.049602
0.046485
0.043276
0.041101
0.037827
0.093023
0.083964
0.07624
0.069401
0.063536
0.058505
0.054266
0.050463
0.047343
0.044189
0.042021
0.038999
0.092248
0.083919
0.076567
0.069969
0.064249
0.059292
0.055084
0.051305
0.048191
0.045099
0.042943
0.040168
0.091508
0.083831
0.076831
0.07047
0.064902
0.06003
0.055865
0.05212
0.04902
0.045998
0.043856
0.041318
0.090803
0.083706
0.077038
0.070909
0.065496
0.060718
0.056605
0.052905
0.049826
0.046877
0.04475
0.042433
0.09013
0.083552
0.077195
0.071291
0.066035
0.061357
0.057304
0.053656
0.050602
0.04773
0.045618
0.043502
0.089488
0.083374
0.077308
0.07162
0.06652
0.061948
0.05796
0.05437
0.051347
0.048551
0.046454
0.044515
0.088875
0.083178
0.077383
0.071903
0.066957
0.062493
0.058574
0.055046
0.052058
0.049336
0.047253
0.045466
0.088289
0.082967
0.077425
0.072144
0.067347
0.062993
0.059147
0.055685
0.052733
0.050082
0.048014
0.046354
0.087729
0.082744
0.077438
0.072346
0.067696
0.063451
0.05968
0.056285
0.053371
0.050789
0.048733
0.047175
0.087193
0.082512
0.077426
0.072514
0.068006
0.063869
0.060174
0.056847
0.053973
0.051454
0.049411
0.047932
0.086679
0.082274
0.077392
0.072651
0.068281
0.064251
0.060632
0.057373
0.054539
0.052079
0.050047
0.048626
0.086185
0.08203
0.07734
0.072761
0.068522
0.064598
0.061055
0.057864
0.05507
0.052664
0.050643
0.04926
0.085711
0.081784
0.077271
0.072846
0.068735
0.064913
0.061445
0.05832
0.055567
0.053209
0.051199
0.049839
0.085254
0.081535
0.077188
0.072909
0.06892
0.065197
0.061804
0.058744
0.056032
0.053717
0.051718
0.050366
0.084814
0.081284
0.077094
0.072953
0.06908
0.065454
0.062134
0.059137
0.056465
0.054189
0.0522
0.050846
0.084389
0.081033
0.076989
0.072979
0.069218
0.065685
0.062437
0.0595
0.056868
0.054627
0.052649
0.051283
0.083978
0.080782
0.076875
0.072988
0.069334