/*--------------------------------*- C++ -*----------------------------------*\
  =========                 |
  \\      /  F ield         | OpenFOAM: The Open Source CFD Toolbox
   \\    /   O peration     | Website:  https://openfoam.org
    \\  /    A nd           | Version:  6.0
     \\/     M anipulation  |
\*---------------------------------------------------------------------------*/
FoamFile
{
    version     2.0;
    format      ascii;
    class       volScalarField;
    location    "2.74";
    object      p;
}
// * * * * * * * * * * * * * * * * * * * * * * * * * * * * * * * * * * * * * //

dimensions      [0 2 -2 0 0 0 0];

internalField   nonuniform List<scalar> 
13500
(
0.097499
0.097537
0.097051
0.096604
0.095605
0.095203
0.094202
0.095086
0.095927
0.099989
0.12207
0.16445
0.097499
0.097538
0.097052
0.096605
0.095605
0.095203
0.094201
0.095086
0.095923
0.10005
0.12139
0.15939
0.0975
0.097538
0.097052
0.096605
0.095605
0.095204
0.094198
0.095086
0.095914
0.1001
0.12051
0.15489
0.0975
0.097539
0.097053
0.096607
0.095604
0.095205
0.094195
0.095084
0.095898
0.10012
0.11953
0.15139
0.097502
0.097541
0.097054
0.096608
0.095604
0.095205
0.094191
0.095082
0.095877
0.10012
0.1185
0.14843
0.097503
0.097542
0.097055
0.09661
0.095604
0.095206
0.094186
0.095078
0.095851
0.10012
0.11743
0.14578
0.097505
0.097545
0.097057
0.096611
0.095604
0.095206
0.09418
0.095073
0.095819
0.1001
0.11634
0.14339
0.097508
0.097547
0.097059
0.096613
0.095604
0.095206
0.094174
0.095068
0.095783
0.10007
0.11527
0.14119
0.097511
0.09755
0.097062
0.096616
0.095604
0.095206
0.094168
0.095061
0.095742
0.10002
0.11422
0.13916
0.097514
0.097553
0.097064
0.096618
0.095605
0.095205
0.094161
0.095053
0.095695
0.099965
0.1132
0.13726
0.097518
0.097557
0.097068
0.096621
0.095605
0.095205
0.094153
0.095044
0.095643
0.099894
0.11222
0.13548
0.097522
0.097561
0.097071
0.096624
0.095606
0.095204
0.094145
0.095033
0.095586
0.099811
0.11129
0.1338
0.097526
0.097565
0.097075
0.096627
0.095606
0.095203
0.094136
0.095022
0.095524
0.099719
0.11039
0.13221
0.097531
0.09757
0.097079
0.09663
0.095607
0.095202
0.094126
0.095009
0.095456
0.099617
0.10954
0.1307
0.097537
0.097575
0.097084
0.096634
0.095608
0.095201
0.094116
0.094996
0.095382
0.099507
0.10872
0.12926
0.097543
0.097581
0.097089
0.096638
0.095609
0.0952
0.094106
0.09498
0.095303
0.099392
0.10795
0.12789
0.097549
0.097586
0.097094
0.096642
0.095611
0.095198
0.094094
0.094964
0.095219
0.099272
0.1072
0.12657
0.097556
0.097593
0.0971
0.096646
0.095612
0.095197
0.094082
0.094946
0.095129
0.099149
0.10649
0.1253
0.097563
0.0976
0.097106
0.096651
0.095614
0.095195
0.09407
0.094927
0.095034
0.099023
0.1058
0.12409
0.097571
0.097607
0.097112
0.096656
0.095615
0.095193
0.094057
0.094907
0.094934
0.098897
0.10514
0.12292
0.097579
0.097614
0.097119
0.096661
0.095617
0.09519
0.094044
0.094885
0.094829
0.09877
0.1045
0.12178
0.097587
0.097622
0.097126
0.096666
0.095619
0.095188
0.09403
0.094862
0.09472
0.098643
0.10387
0.12068
0.097596
0.097631
0.097134
0.096672
0.095622
0.095185
0.094015
0.094837
0.094606
0.098517
0.10326
0.11962
0.097606
0.09764
0.097142
0.096678
0.095624
0.095183
0.094
0.094811
0.094488
0.098393
0.10267
0.11859
0.097616
0.097649
0.09715
0.096684
0.095627
0.09518
0.093985
0.094783
0.094367
0.09827
0.10208
0.11758
0.097626
0.097659
0.097159
0.09669
0.095629
0.095176
0.093969
0.094754
0.094242
0.098148
0.1015
0.1166
0.097637
0.097669
0.097168
0.096697
0.095632
0.095173
0.093952
0.094723
0.094114
0.098029
0.10093
0.11564
0.097648
0.09768
0.097178
0.096704
0.095635
0.09517
0.093935
0.09469
0.093984
0.09791
0.10037
0.1147
0.09766
0.097691
0.097188
0.096711
0.095638
0.095166
0.093917
0.094656
0.093851
0.097794
0.099818
0.11379
0.097673
0.097702
0.097199
0.096719
0.095642
0.095162
0.093899
0.094621
0.093717
0.097678
0.099268
0.11289
0.097686
0.097714
0.09721
0.096727
0.095646
0.095158
0.093881
0.094584
0.093581
0.097563
0.098724
0.11201
0.097699
0.097727
0.097221
0.096735
0.095649
0.095154
0.093862
0.094545
0.093443
0.097449
0.098185
0.11115
0.097713
0.09774
0.097233
0.096743
0.095653
0.095149
0.093842
0.094505
0.093305
0.097335
0.09765
0.11031
0.097727
0.097753
0.097245
0.096752
0.095658
0.095144
0.093822
0.094463
0.093166
0.097222
0.09712
0.10948
0.097742
0.097767
0.097258
0.096761
0.095662
0.09514
0.093801
0.09442
0.093026
0.097108
0.096595
0.10867
0.097758
0.097782
0.097271
0.096771
0.095667
0.095134
0.09378
0.094376
0.092886
0.096993
0.096074
0.10787
0.097774
0.097797
0.097285
0.09678
0.095672
0.095129
0.093758
0.094331
0.092746
0.096878
0.095559
0.10709
0.09779
0.097812
0.097299
0.09679
0.095677
0.095124
0.093736
0.094284
0.092606
0.096762
0.095049
0.10632
0.097807
0.097828
0.097313
0.096801
0.095682
0.095118
0.093713
0.094237
0.092466
0.096644
0.094544
0.10557
0.097825
0.097844
0.097328
0.096811
0.095688
0.095113
0.09369
0.094188
0.092327
0.096525
0.094045
0.10483
0.097843
0.097861
0.097344
0.096822
0.095693
0.095107
0.093666
0.094139
0.092188
0.096404
0.093551
0.10411
0.097862
0.097879
0.09736
0.096834
0.095699
0.0951
0.093642
0.094089
0.092049
0.096281
0.093064
0.1034
0.097881
0.097897
0.097376
0.096845
0.095706
0.095094
0.093617
0.094039
0.091911
0.096157
0.092582
0.1027
0.097901
0.097915
0.097393
0.096857
0.095712
0.095088
0.093591
0.093988
0.091773
0.09603
0.092108
0.10201
0.097921
0.097934
0.097411
0.096869
0.095719
0.095081
0.093565
0.093936
0.091635
0.095901
0.091639
0.10134
0.097942
0.097954
0.097429
0.096882
0.095726
0.095075
0.093539
0.093885
0.091498
0.095769
0.091178
0.10068
0.097964
0.097974
0.097447
0.096895
0.095733
0.095068
0.093512
0.093833
0.091361
0.095636
0.090723
0.10003
0.097986
0.097995
0.097466
0.096908
0.095741
0.095061
0.093484
0.093781
0.091225
0.0955
0.090275
0.099395
0.098009
0.098016
0.097486
0.096922
0.095749
0.095054
0.093456
0.09373
0.091088
0.095362
0.089834
0.09877
0.098032
0.098038
0.097506
0.096936
0.095757
0.095047
0.093428
0.093678
0.090952
0.095222
0.0894
0.098157
0.098056
0.09806
0.097526
0.096951
0.095765
0.095039
0.093399
0.093627
0.090816
0.095079
0.088973
0.097555
0.09808
0.098083
0.097547
0.096966
0.095774
0.095032
0.09337
0.093576
0.09068
0.094934
0.088552
0.096964
0.098105
0.098106
0.097569
0.096981
0.095783
0.095025
0.09334
0.093525
0.090544
0.094786
0.088139
0.096383
0.098131
0.09813
0.097591
0.096996
0.095792
0.095017
0.093309
0.093475
0.090408
0.094637
0.087733
0.095813
0.098157
0.098155
0.097614
0.097012
0.095802
0.09501
0.093279
0.093425
0.090271
0.094485
0.087334
0.095253
0.098184
0.09818
0.097637
0.097029
0.095811
0.095002
0.093247
0.093376
0.090134
0.094332
0.086941
0.094703
0.098212
0.098206
0.09766
0.097046
0.095821
0.094995
0.093216
0.093326
0.089998
0.094176
0.086556
0.094162
0.09824
0.098233
0.097685
0.097063
0.095832
0.094987
0.093184
0.093278
0.08986
0.094018
0.086177
0.093631
0.098269
0.09826
0.09771
0.09708
0.095843
0.094979
0.093151
0.09323
0.089723
0.093859
0.085804
0.093109
0.098299
0.098287
0.097735
0.097098
0.095853
0.094972
0.093119
0.093182
0.089585
0.093697
0.085438
0.092596
0.098329
0.098316
0.097761
0.097117
0.095865
0.094965
0.093085
0.093135
0.089447
0.093534
0.085078
0.092091
0.098359
0.098345
0.097788
0.097136
0.095876
0.094957
0.093052
0.093088
0.089309
0.093369
0.084724
0.091594
0.098391
0.098374
0.097815
0.097155
0.095888
0.09495
0.093018
0.093041
0.08917
0.093203
0.084377
0.091106
0.098423
0.098404
0.097842
0.097175
0.0959
0.094943
0.092984
0.092995
0.089031
0.093035
0.084035
0.090625
0.098456
0.098435
0.097871
0.097195
0.095913
0.094936
0.092949
0.092949
0.088891
0.092865
0.0837
0.090153
0.098489
0.098467
0.0979
0.097216
0.095926
0.094929
0.092915
0.092904
0.088752
0.092694
0.08337
0.089687
0.098523
0.098499
0.097929
0.097237
0.095939
0.094922
0.092879
0.092859
0.088612
0.092522
0.083045
0.089229
0.098558
0.098531
0.097959
0.097259
0.095952
0.094916
0.092844
0.092814
0.088472
0.092348
0.082726
0.088778
0.098594
0.098565
0.09799
0.097281
0.095966
0.094909
0.092808
0.092769
0.088332
0.092174
0.082413
0.088334
0.09863
0.098599
0.098021
0.097303
0.09598
0.094903
0.092772
0.092724
0.088192
0.091998
0.082104
0.087896
0.098667
0.098634
0.098053
0.097326
0.095994
0.094897
0.092736
0.092679
0.088052
0.091821
0.081801
0.087465
0.098704
0.098669
0.098086
0.09735
0.096009
0.094892
0.092699
0.092635
0.087912
0.091643
0.081503
0.08704
0.098743
0.098706
0.098119
0.097374
0.096024
0.094886
0.092663
0.09259
0.087772
0.091464
0.08121
0.086622
0.098782
0.098743
0.098153
0.097399
0.096039
0.094881
0.092626
0.092546
0.087632
0.091284
0.080921
0.086209
0.098822
0.09878
0.098187
0.097424
0.096055
0.094876
0.092588
0.092501
0.087492
0.091103
0.080637
0.085802
0.098862
0.098819
0.098222
0.09745
0.096071
0.094872
0.092551
0.092456
0.087353
0.090922
0.080358
0.085401
0.098903
0.098858
0.098258
0.097476
0.096087
0.094868
0.092513
0.092411
0.087213
0.090739
0.080083
0.085005
0.098946
0.098898
0.098294
0.097503
0.096103
0.094864
0.092475
0.092366
0.087074
0.090556
0.079812
0.084615
0.098988
0.098938
0.098331
0.097531
0.09612
0.094861
0.092437
0.092321
0.086936
0.090373
0.079546
0.08423
0.099032
0.09898
0.098369
0.097559
0.096137
0.094858
0.092398
0.092276
0.086798
0.090189
0.079283
0.08385
0.099076
0.099022
0.098407
0.097587
0.096155
0.094855
0.09236
0.09223
0.08666
0.090004
0.079025
0.083475
0.099121
0.099065
0.098446
0.097617
0.096173
0.094853
0.092321
0.092184
0.086523
0.089819
0.078771
0.083105
0.099167
0.099109
0.098486
0.097646
0.096191
0.094851
0.092282
0.092138
0.086386
0.089634
0.07852
0.082739
0.099214
0.099153
0.098527
0.097677
0.096209
0.09485
0.092243
0.092091
0.08625
0.089448
0.078274
0.082378
0.099261
0.099198
0.098568
0.097708
0.096228
0.094849
0.092204
0.092044
0.086115
0.089261
0.078031
0.082022
0.09931
0.099245
0.09861
0.09774
0.096247
0.094848
0.092164
0.091997
0.08598
0.089075
0.077792
0.08167
0.099359
0.099292
0.098652
0.097772
0.096267
0.094848
0.092125
0.091949
0.085846
0.088888
0.077556
0.081322
0.099409
0.099339
0.098695
0.097805
0.096286
0.094849
0.092085
0.091901
0.085713
0.088701
0.077323
0.080978
0.09946
0.099388
0.098739
0.097839
0.096307
0.09485
0.092046
0.091853
0.085581
0.088514
0.077094
0.080638
0.099511
0.099438
0.098784
0.097874
0.096327
0.094851
0.092006
0.091804
0.085449
0.088326
0.076868
0.080302
0.099564
0.099488
0.09883
0.097909
0.096348
0.094853
0.091966
0.091754
0.085318
0.088139
0.076646
0.07997
0.099618
0.099539
0.098876
0.097945
0.096369
0.094855
0.091926
0.091705
0.085188
0.087951
0.076426
0.079642
0.099672
0.099592
0.098923
0.097982
0.096391
0.094858
0.091887
0.091654
0.085059
0.087763
0.076209
0.079317
0.099727
0.099645
0.098971
0.098019
0.096413
0.094862
0.091847
0.091604
0.08493
0.087575
0.075996
0.078996
0.099783
0.099699
0.09902
0.098057
0.096436
0.094865
0.091807
0.091552
0.084803
0.087388
0.075785
0.078678
0.099841
0.099754
0.09907
0.098096
0.096459
0.09487
0.091768
0.091501
0.084676
0.0872
0.075577
0.078363
0.099899
0.09981
0.09912
0.098136
0.096482
0.094875
0.091728
0.091449
0.08455
0.087012
0.075372
0.078052
0.099958
0.099867
0.099171
0.098177
0.096506
0.094881
0.091688
0.091396
0.084425
0.086824
0.075169
0.077743
0.10002
0.099925
0.099223
0.098218
0.09653
0.094887
0.091649
0.091343
0.084301
0.086636
0.074969
0.077438
0.10008
0.099984
0.099276
0.09826
0.096555
0.094893
0.09161
0.091289
0.084178
0.086448
0.074771
0.077135
0.10014
0.10004
0.09933
0.098304
0.09658
0.094901
0.091571
0.091235
0.084056
0.086261
0.074575
0.076836
0.1002
0.10011
0.099385
0.098348
0.096606
0.094909
0.091532
0.09118
0.083935
0.086073
0.074382
0.076539
0.10027
0.10017
0.099441
0.098393
0.096632
0.094917
0.091493
0.091125
0.083815
0.085885
0.074191
0.076244
0.10033
0.10023
0.099498
0.098438
0.096659
0.094927
0.091454
0.09107
0.083695
0.085698
0.074003
0.075952
0.1004
0.1003
0.099556
0.098485
0.096686
0.094936
0.091416
0.091013
0.083577
0.085511
0.073816
0.075663
0.10047
0.10036
0.099614
0.098533
0.096714
0.094947
0.091378
0.090957
0.083459
0.085323
0.073632
0.075376
0.10054
0.10043
0.099674
0.098582
0.096743
0.094958
0.09134
0.0909
0.083343
0.085136
0.073449
0.075091
0.10061
0.1005
0.099735
0.098632
0.096772
0.09497
0.091302
0.090842
0.083227
0.084949
0.073268
0.074808
0.10068
0.10057
0.099797
0.098682
0.096801
0.094983
0.091265
0.090784
0.083112
0.084762
0.073089
0.074528
0.10075
0.10064
0.099861
0.098734
0.096832
0.094996
0.091228
0.090725
0.082999
0.084576
0.072912
0.074249
0.10082
0.10071
0.099925
0.098787
0.096863
0.09501
0.091191
0.090666
0.082886
0.084389
0.072737
0.073972
0.1009
0.10078
0.09999
0.098841
0.096895
0.095025
0.091155
0.090607
0.082774
0.084203
0.072563
0.073697
0.10097
0.10086
0.10006
0.098897
0.096928
0.095041
0.091119
0.090547
0.082663
0.084016
0.07239
0.073424
0.10105
0.10093
0.10013
0.098953
0.096961
0.095057
0.091084
0.090486
0.082553
0.08383
0.072219
0.073153
0.10113
0.10101
0.10019
0.099011
0.096996
0.095074
0.091049
0.090426
0.082443
0.083644
0.07205
0.072883
0.10121
0.10109
0.10027
0.09907
0.097031
0.095093
0.091015
0.090365
0.082335
0.083458
0.071881
0.072614
0.10129
0.10117
0.10034
0.09913
0.097067
0.095112
0.090981
0.090303
0.082228
0.083272
0.071714
0.072347
0.10138
0.10125
0.10041
0.099192
0.097104
0.095132
0.090948
0.090241
0.082121
0.083086
0.071548
0.072081
0.10146
0.10134
0.10049
0.099255
0.097142
0.095153
0.090915
0.090179
0.082015
0.082901
0.071384
0.071816
0.10155
0.10142
0.10056
0.09932
0.097182
0.095175
0.090883
0.090116
0.081911
0.082715
0.07122
0.071553
0.10164
0.10151
0.10064
0.099386
0.097222
0.095198
0.090852
0.090054
0.081807
0.08253
0.071057
0.07129
0.10173
0.1016
0.10072
0.099453
0.097263
0.095222
0.090821
0.08999
0.081703
0.082344
0.070895
0.071029
0.10182
0.10169
0.1008
0.099523
0.097306
0.095247
0.090792
0.089927
0.081601
0.082159
0.070734
0.070768
0.10192
0.10179
0.10089
0.099594
0.09735
0.095273
0.090763
0.089864
0.0815
0.081974
0.070574
0.070508
0.10201
0.10188
0.10097
0.099667
0.097395
0.0953
0.090735
0.0898
0.081399
0.081789
0.070414
0.070249
0.10211
0.10198
0.10106
0.099741
0.097441
0.095329
0.090708
0.089736
0.081299
0.081603
0.070255
0.06999
0.10221
0.10208
0.10115
0.099818
0.097489
0.095359
0.090682
0.089672
0.0812
0.081418
0.070097
0.069732
0.10231
0.10218
0.10124
0.099896
0.097539
0.09539
0.090657
0.089608
0.081102
0.081233
0.069939
0.069474
0.10242
0.10228
0.10134
0.099977
0.09759
0.095423
0.090633
0.089544
0.081005
0.081048
0.069781
0.069216
0.10253
0.10239
0.10143
0.10006
0.097643
0.095457
0.09061
0.08948
0.080909
0.080863
0.069624
0.068959
0.10264
0.1025
0.10153
0.10014
0.097697
0.095492
0.090588
0.089416
0.080813
0.080678
0.069467
0.068702
0.10275
0.10261
0.10163
0.10023
0.097754
0.095529
0.090568
0.089352
0.080718
0.080493
0.069311
0.068445
0.10286
0.10273
0.10173
0.10032
0.097812
0.095568
0.090549
0.089289
0.080625
0.080308
0.069154
0.068187
0.10298
0.10284
0.10184
0.10041
0.097872
0.095608
0.090532
0.089225
0.080532
0.080124
0.068998
0.06793
0.1031
0.10296
0.10195
0.10051
0.097935
0.09565
0.090516
0.089162
0.080439
0.079939
0.068841
0.067672
0.10323
0.10309
0.10206
0.10061
0.097999
0.095694
0.090502
0.089099
0.080348
0.079754
0.068685
0.067415
0.10335
0.10321
0.10218
0.10071
0.098066
0.09574
0.09049
0.089037
0.080258
0.079569
0.068528
0.067156
0.10348
0.10334
0.10229
0.10081
0.098136
0.095788
0.090479
0.088975
0.080168
0.079384
0.068371
0.066897
0.10361
0.10347
0.10241
0.10092
0.098208
0.095838
0.09047
0.088914
0.08008
0.079198
0.068214
0.066638
0.10375
0.10361
0.10254
0.10103
0.098283
0.095891
0.090464
0.088853
0.079992
0.079013
0.068057
0.066377
0.10389
0.10375
0.10267
0.10114
0.09836
0.095945
0.090459
0.088793
0.079905
0.078828
0.067899
0.066116
0.10404
0.1039
0.1028
0.10126
0.098441
0.096003
0.090457
0.088734
0.07982
0.078643
0.067741
0.065854
0.10418
0.10404
0.10294
0.10138
0.098525
0.096062
0.090457
0.088676
0.079735
0.078458
0.067582
0.065591
0.10434
0.1042
0.10308
0.1015
0.098612
0.096125
0.09046
0.088619
0.079651
0.078273
0.067423
0.065327
0.10449
0.10435
0.10322
0.10163
0.098702
0.09619
0.090465
0.088562
0.079569
0.078087
0.067263
0.065061
0.10465
0.10451
0.10337
0.10176
0.098796
0.096258
0.090473
0.088507
0.079487
0.077902
0.067102
0.064794
0.10482
0.10468
0.10352
0.1019
0.098894
0.096329
0.090483
0.088453
0.079407
0.077717
0.066941
0.064526
0.10499
0.10485
0.10368
0.10204
0.098996
0.096404
0.090497
0.088401
0.079328
0.077531
0.066779
0.064255
0.10516
0.10503
0.10384
0.10219
0.099102
0.096482
0.090514
0.08835
0.07925
0.077346
0.066615
0.063984
0.10534
0.10521
0.10401
0.10234
0.099213
0.096564
0.090534
0.088301
0.079174
0.07716
0.066451
0.06371
0.10553
0.10539
0.10418
0.1025
0.099328
0.096649
0.090558
0.088253
0.079098
0.076975
0.066285
0.063434
0.10572
0.10559
0.10436
0.10266
0.099448
0.096738
0.090585
0.088208
0.079024
0.076789
0.066119
0.063156
0.10592
0.10578
0.10455
0.10283
0.099573
0.096831
0.090616
0.088164
0.078952
0.076604
0.065951
0.062876
0.10612
0.10599
0.10474
0.103
0.099703
0.096929
0.090651
0.088122
0.078881
0.076418
0.065782
0.062594
0.10633
0.1062
0.10493
0.10318
0.099839
0.097031
0.09069
0.088083
0.078812
0.076233
0.065611
0.062309
0.10654
0.10642
0.10514
0.10337
0.09998
0.097138
0.090734
0.088046
0.078744
0.076048
0.065439
0.062021
0.10676
0.10664
0.10535
0.10356
0.10013
0.097249
0.090782
0.088011
0.078678
0.075862
0.065265
0.061731
0.10699
0.10687
0.10557
0.10376
0.10028
0.097366
0.090834
0.087979
0.078613
0.075677
0.06509
0.061438
0.10723
0.10711
0.10579
0.10397
0.10044
0.097488
0.090891
0.08795
0.07855
0.075491
0.064913
0.061141
0.10747
0.10736
0.10602
0.10418
0.10061
0.097615
0.090954
0.087924
0.078489
0.075306
0.064733
0.060841
0.10773
0.10762
0.10626
0.10441
0.10078
0.097749
0.091021
0.087901
0.07843
0.07512
0.064552
0.060538
0.10798
0.10788
0.10651
0.10464
0.10096
0.097888
0.091094
0.087881
0.078373
0.074935
0.064369
0.060231
0.10825
0.10815
0.10677
0.10488
0.10115
0.098033
0.091173
0.087865
0.078318
0.074749
0.064184
0.05992
0.10853
0.10843
0.10704
0.10512
0.10135
0.098185
0.091257
0.087852
0.078265
0.074563
0.063996
0.059605
0.10881
0.10872
0.10731
0.10538
0.10155
0.098344
0.091348
0.087842
0.078214
0.074378
0.063806
0.059286
0.10911
0.10902
0.10759
0.10565
0.10177
0.098509
0.091445
0.087837
0.078165
0.074192
0.063613
0.058963
0.10941
0.10933
0.10789
0.10592
0.10199
0.098682
0.091548
0.087835
0.078118
0.074006
0.063417
0.058635
0.10972
0.10965
0.10819
0.10621
0.10222
0.098862
0.091657
0.087837
0.078074
0.073819
0.063219
0.058302
0.11005
0.10998
0.10851
0.1065
0.10246
0.09905
0.091774
0.087844
0.078031
0.073633
0.063017
0.057963
0.11038
0.11032
0.10883
0.10681
0.10271
0.099246
0.091897
0.087854
0.077991
0.073446
0.062812
0.057619
0.11072
0.11067
0.10917
0.10712
0.10297
0.09945
0.092027
0.087869
0.077953
0.073258
0.062603
0.05727
0.11108
0.11103
0.10952
0.10745
0.10325
0.099662
0.092165
0.087889
0.077917
0.07307
0.062391
0.056914
0.11144
0.11141
0.10988
0.10779
0.10353
0.099883
0.092311
0.087913
0.077883
0.072881
0.062175
0.056552
0.11182
0.11179
0.11025
0.10814
0.10382
0.10011
0.092464
0.087941
0.077852
0.072691
0.061954
0.056184
0.11221
0.11219
0.11063
0.1085
0.10412
0.10035
0.092624
0.087974
0.077822
0.072501
0.061729
0.055808
0.11261
0.1126
0.11103
0.10888
0.10444
0.1006
0.092793
0.088012
0.077794
0.072309
0.061499
0.055425
0.11302
0.11303
0.11144
0.10926
0.10477
0.10086
0.09297
0.088055
0.077768
0.072115
0.061264
0.055034
0.11345
0.11346
0.11186
0.10967
0.10511
0.10113
0.093155
0.088102
0.077744
0.07192
0.061023
0.054635
0.11389
0.11392
0.1123
0.11008
0.10546
0.1014
0.093348
0.088154
0.077721
0.071723
0.060777
0.054227
0.11434
0.11438
0.11275
0.11051
0.10583
0.10169
0.09355
0.08821
0.0777
0.071524
0.060524
0.05381
0.11481
0.11486
0.11322
0.11095
0.10621
0.10199
0.09376
0.088271
0.07768
0.071322
0.060264
0.053383
0.11529
0.11535
0.1137
0.11141
0.1066
0.1023
0.093979
0.088337
0.077661
0.071118
0.059998
0.052946
0.11578
0.11586
0.1142
0.11188
0.10701
0.10262
0.094207
0.088407
0.077642
0.07091
0.059723
0.052497
0.11629
0.11639
0.11471
0.11236
0.10743
0.10295
0.094443
0.088481
0.077624
0.070698
0.05944
0.052038
0.11681
0.11693
0.11524
0.11287
0.10787
0.10329
0.094688
0.08856
0.077606
0.070483
0.059149
0.051566
0.11735
0.11749
0.11579
0.11338
0.10832
0.10364
0.094942
0.088642
0.077588
0.070262
0.058848
0.051082
0.11791
0.11806
0.11635
0.11392
0.10878
0.10401
0.095205
0.088729
0.077569
0.070037
0.058536
0.050584
0.11848
0.11865
0.11693
0.11447
0.10927
0.10439
0.095477
0.088819
0.077549
0.069806
0.058214
0.050072
0.11907
0.11926
0.11754
0.11504
0.10977
0.10478
0.095758
0.088912
0.077528
0.069569
0.057881
0.049545
0.11968
0.11989
0.11816
0.11563
0.11028
0.10518
0.096048
0.089009
0.077505
0.069324
0.057535
0.049002
0.1203
0.12054
0.1188
0.11624
0.11082
0.10559
0.096347
0.089109
0.077479
0.069073
0.057176
0.048442
0.12094
0.1212
0.11946
0.11686
0.11137
0.10602
0.096655
0.089212
0.077451
0.068813
0.056803
0.047865
0.12161
0.12189
0.12014
0.11751
0.11194
0.10646
0.096973
0.089317
0.07742
0.068544
0.056416
0.047268
0.12229
0.1226
0.12085
0.11818
0.11254
0.10692
0.097301
0.089425
0.077385
0.068265
0.056012
0.046653
0.123
0.12334
0.12158
0.11887
0.11315
0.10739
0.097638
0.089535
0.077345
0.067976
0.055592
0.046016
0.12373
0.1241
0.12234
0.11959
0.11378
0.10788
0.097985
0.089648
0.077301
0.067676
0.055154
0.045358
0.12449
0.12488
0.12312
0.12033
0.11444
0.10838
0.098343
0.089762
0.077251
0.067363
0.054697
0.044676
0.12527
0.12569
0.12393
0.1211
0.11513
0.10891
0.098711
0.089878
0.077195
0.067038
0.05422
0.04397
0.12608
0.12654
0.12478
0.12189
0.11583
0.10945
0.099091
0.089996
0.077133
0.066699
0.053722
0.043239
0.12692
0.12741
0.12566
0.12272
0.11657
0.11
0.099482
0.090116
0.077064
0.066345
0.053202
0.042481
0.12779
0.12832
0.12657
0.12358
0.11734
0.11058
0.099886
0.090237
0.076988
0.065975
0.052659
0.041694
0.12869
0.12926
0.12752
0.12448
0.11814
0.11119
0.1003
0.09036
0.076903
0.065589
0.052091
0.040878
0.12963
0.13025
0.12851
0.12542
0.11897
0.11181
0.10073
0.090485
0.076809
0.065185
0.051496
0.04003
0.13061
0.13127
0.12955
0.1264
0.11984
0.11247
0.10118
0.090612
0.076706
0.064762
0.050875
0.039149
0.13164
0.13234
0.13064
0.12742
0.12074
0.11315
0.10164
0.09074
0.076592
0.064318
0.050224
0.038233
0.13271
0.13347
0.13177
0.12849
0.1217
0.11386
0.10212
0.09087
0.076468
0.063854
0.049542
0.03728
0.13382
0.13464
0.13297
0.12962
0.12269
0.1146
0.10261
0.091002
0.076331
0.063366
0.048827
0.036288
0.13499
0.13587
0.13422
0.1308
0.12374
0.11538
0.10312
0.091135
0.07618
0.062853
0.048078
0.035255
0.13622
0.13717
0.13554
0.13204
0.12483
0.11619
0.10365
0.091268
0.076015
0.062314
0.047291
0.034179
0.13751
0.13853
0.13693
0.13335
0.12599
0.11704
0.1042
0.091402
0.075832
0.061745
0.046464
0.033057
0.13886
0.13996
0.13839
0.13474
0.1272
0.11794
0.10477
0.091535
0.075631
0.061144
0.045595
0.031886
0.14027
0.14147
0.13994
0.1362
0.12848
0.11888
0.10536
0.091665
0.075407
0.060507
0.044679
0.030663
0.14176
0.14306
0.14157
0.13774
0.12982
0.11986
0.10597
0.09179
0.075158
0.05983
0.043713
0.029384
0.14333
0.14474
0.14329
0.13937
0.13124
0.12089
0.1066
0.091908
0.074879
0.05911
0.042692
0.028046
0.14498
0.14651
0.14511
0.14109
0.13273
0.12197
0.10724
0.092015
0.074565
0.058339
0.04161
0.026643
0.1467
0.14837
0.14704
0.14291
0.13429
0.12309
0.1079
0.092107
0.074211
0.057512
0.040461
0.025171
0.14852
0.15034
0.14907
0.14483
0.13594
0.12427
0.10857
0.092178
0.073809
0.056622
0.039238
0.023622
0.15042
0.15242
0.15122
0.14687
0.13767
0.12549
0.10924
0.092223
0.073351
0.055659
0.037933
0.021991
0.15241
0.1546
0.15349
0.14901
0.13949
0.12676
0.10992
0.092233
0.072829
0.054616
0.036537
0.020269
0.15449
0.15691
0.15589
0.15128
0.14139
0.12808
0.11059
0.092199
0.072231
0.05348
0.03504
0.018448
0.15667
0.15933
0.15842
0.15367
0.14338
0.12943
0.11125
0.092111
0.071546
0.052241
0.033431
0.016518
0.15894
0.16188
0.16109
0.15619
0.14546
0.13082
0.11188
0.091958
0.070761
0.050887
0.031698
0.014468
0.16131
0.16457
0.16391
0.15885
0.14762
0.13223
0.11248
0.091725
0.069862
0.049402
0.029829
0.012286
0.16379
0.1674
0.1669
0.16165
0.14988
0.13368
0.11304
0.091397
0.068833
0.047774
0.02781
0.0099611
0.16637
0.17038
0.17006
0.1646
0.15224
0.13513
0.11354
0.090956
0.067657
0.045987
0.025628
0.0074802
0.16905
0.17353
0.17341
0.16773
0.15468
0.13658
0.11396
0.090381
0.066312
0.044023
0.023268
0.0048309
0.17186
0.17685
0.17698
0.17102
0.15722
0.13803
0.11427
0.089648
0.064777
0.041863
0.020714
0.0020008
0.17478
0.18038
0.18078
0.17452
0.15985
0.13945
0.11446
0.088727
0.063025
0.039486
0.01795
-0.0010223
0.17784
0.18414
0.18486
0.17822
0.16258
0.14081
0.11449
0.087582
0.061024
0.036867
0.014958
-0.0042508
0.18102
0.18814
0.18924
0.18216
0.16538
0.1421
0.11432
0.086169
0.058735
0.033974
0.011715
-0.0076973
0.18435
0.19242
0.19395
0.18634
0.16825
0.14326
0.11389
0.084432
0.05611
0.030771
0.008195
-0.011376
0.18782
0.19702
0.19904
0.19077
0.17116
0.14424
0.11314
0.082306
0.053092
0.027213
0.0043673
-0.015303
0.19141
0.20195
0.20455
0.19546
0.17407
0.14497
0.11197
0.079708
0.049612
0.023245
0.00019447
-0.019496
0.1951
0.20723
0.21048
0.20039
0.1769
0.14534
0.1103
0.076544
0.045593
0.018809
-0.0043658
-0.023977
0.19884
0.21288
0.21685
0.20552
0.17955
0.14524
0.10797
0.072706
0.040949
0.013839
-0.0093574
-0.028769
0.20255
0.21888
0.22363
0.21075
0.18187
0.14449
0.10486
0.068076
0.035594
0.0082755
-0.01482
-0.033887
0.20613
0.22518
0.23075
0.21593
0.18367
0.14288
0.10078
0.062528
0.029446
0.0020688
-0.020778
-0.039338
0.20945
0.23169
0.23806
0.22084
0.18465
0.14017
0.095547
0.055943
0.02244
-0.0048065
-0.027233
-0.045106
0.21232
0.23823
0.24529
0.2251
0.18445
0.13605
0.088953
0.048207
0.014534
-0.012343
-0.034148
-0.051142
0.21456
0.24451
0.25196
0.22815
0.18256
0.13015
0.08079
0.039233
0.0057224
-0.020495
-0.041445
-0.057362
0.21597
0.25003
0.25725
0.22913
0.17831
0.12207
0.070863
0.028967
-0.0039623
-0.029176
-0.049008
-0.063644
0.2164
0.25394
0.25979
0.22674
0.17081
0.11136
0.05902
0.017423
-0.01443
-0.03826
-0.056689
-0.069845
0.21584
0.25488
0.25739
0.21904
0.15889
0.097517
0.045191
0.0047122
-0.025516
-0.04758
-0.064328
-0.075825
0.21449
0.25075
0.24679
0.20336
0.14109
0.080067
0.029418
-0.008929
-0.036959
-0.056919
-0.071752
-0.081461
0.213
0.23879
0.22358
0.17625
0.11567
0.058508
0.011818
-0.023173
-0.048422
-0.066019
-0.078796
-0.086666
0.21251
0.21609
0.18314
0.13408
0.080837
0.032314
-0.0075302
-0.037728
-0.05959
-0.07464
-0.085321
-0.091399
0.21396
0.17963
0.12221
0.074528
0.035292
0.00096681
-0.028725
-0.052499
-0.070309
-0.082654
-0.091271
-0.095691
0.21845
0.1237
0.03674
-0.004221
-0.022292
-0.036593
-0.052485
-0.067946
-0.080882
-0.090294
-0.096866
-0.099804
0.23739
0.051503
-0.071157
-0.099681
-0.091212
-0.081259
-0.080206
-0.085419
-0.092484
-0.098546
-0.10294
-0.1045
0.28276
-0.017631
-0.18198
-0.19597
-0.16078
-0.12743
-0.10968
-0.10438
-0.10523
-0.10769
-0.10982
-0.10994
0.10285
0.06347
0.053362
0.047344
0.043203
0.040108
0.037647
0.035518
0.033713
0.031828
0.030373
0.027806
0.12217
0.078707
0.066147
0.05814
0.05269
0.048665
0.045495
0.042776
0.040497
0.03812
0.036348
0.033341
0.10949
0.073576
0.062209
0.054328
0.048945
0.044989
0.041894
0.039251
0.037067
0.034778
0.033144
0.030227
0.10441
0.073216
0.062177
0.054204
0.048684
0.044614
0.041432
0.038722
0.036498
0.034161
0.032534
0.029487
0.10374
0.07535
0.064151
0.055961
0.050195
0.045918
0.04257
0.039717
0.037386
0.034934
0.033242
0.030027
0.10307
0.077133
0.065861
0.057536
0.051571
0.047116
0.043619
0.040639
0.038208
0.035655
0.033898
0.030562
0.10192
0.078387
0.067188
0.058811
0.052698
0.048096
0.044473
0.041383
0.038866
0.036234
0.034419
0.031008
0.10072
0.079414
0.068379
0.060001
0.053773
0.04904
0.0453
0.04211
0.039511
0.036812
0.034941
0.031498
0.099582
0.0803
0.069498
0.061164
0.05485
0.050002
0.046152
0.042867
0.04019
0.037433
0.035509
0.032075
0.098503
0.081038
0.070533
0.062286
0.055922
0.050975
0.047026
0.043653
0.0409
0.038098
0.036126
0.032741
0.09746
0.081626
0.071471
0.063354
0.056975
0.051952
0.047916
0.044463
0.041641
0.038805
0.036791
0.033493
0.096448
0.082077
0.072309
0.064359
0.057999
0.052925
0.048817
0.045297
0.042413
0.039554
0.037505
0.034328
0.095469
0.082407
0.073048
0.065292
0.058985
0.053886
0.049723
0.046148
0.04321
0.040341
0.038265
0.035236
0.094526
0.082631
0.07369
0.066151
0.059924
0.054823
0.050624
0.047008
0.044027
0.041158
0.039063
0.036202
0.09362
0.082764
0.074239
0.066931
0.060809
0.055728
0.051511
0.047869
0.044855
0.041997
0.039889
0.037211
0.09275
0.08282
0.074701
0.067632
0.061633
0.056594
0.052375
0.048721
0.045686
0.042848
0.040733
0.038243
0.091917
0.08281
0.075084
0.068258
0.062396
0.057414
0.05321
0.049557
0.04651
0.043701
0.041583
0.03928
0.091121
0.082747
0.075395
0.068811
0.063095
0.058185
0.054009
0.050369
0.047319
0.044545
0.042429
0.040304
0.090362
0.08264
0.07564
0.069295
0.063731
0.058904
0.054767
0.051151
0.048106
0.045372
0.04326
0.0413
0.089637
0.082496
0.075829
0.069715
0.064307
0.059571
0.055483
0.051899
0.048866
0.046175
0.044069
0.042255
0.088945
0.082322
0.075966
0.070077
0.064825
0.060186
0.056154
0.052609
0.049595
0.046948
0.044847
0.043159
0.088284
0.082125
0.076059
0.070385
0.065288
0.060751
0.05678
0.05328
0.050289
0.047685
0.045592
0.044006
0.087653
0.081909
0.076113
0.070646
0.065701
0.061266
0.057361
0.053911
0.050946
0.048384
0.046298
0.044791
0.08705
0.081678
0.076133
0.070862
0.066066
0.061735
0.0579
0.054501
0.051565
0.049043
0.046964
0.045513
0.086472
0.081435
0.076124
0.071039
0.066388
0.062161
0.058396
0.055051
0.052146
0.049661
0.047588
0.046171
0.085918
0.081182
0.076089
0.071181
0.066669
0.062545
0.058852
0.055562
0.05269
0.050238
0.048172
0.046769
0.085385
0.080923
0.076031
0.071292
0.066914
0.062891
0.05927
0.056034
0.053197
0.050774
0.048715
0.047308
0.084874
0.080658
0.075955
0.071374
0.067126
0.063202
0.059652
0.056471
0.053668
0.05127
0.049218
0.047793
0.084381
0.08039
0.075862
0.071431
0.067307
0.063479
0.060001
0.056873
0.054105
0.051729
0.049685
0.048228
0.083906
0.080119
0.075755
0.071466
0.067461
0.063726
0.060318
0.057242
0.05451
0.052152
0.050115
0.048618
0.083447
0.079847
0.075636
0.071481
0.067589
0.063944
0.060606
0.05758
0.054883
0.052541
0.050512
0.048968
0.083004
0.079574
0.075506
0.071478