/*--------------------------------*- C++ -*----------------------------------*\
  =========                 |
  \\      /  F ield         | OpenFOAM: The Open Source CFD Toolbox
   \\    /   O peration     | Website:  https://openfoam.org
    \\  /    A nd           | Version:  6.0
     \\/     M anipulation  |
\*---------------------------------------------------------------------------*/
FoamFile
{
    version     2.0;
    format      ascii;
    class       volScalarField;
    location    "13";
    object      p;
}
// * * * * * * * * * * * * * * * * * * * * * * * * * * * * * * * * * * * * * //

dimensions      [0 2 -2 0 0 0 0];

internalField   nonuniform List<scalar> 
62000
(
0.0221261
0.0221748
0.0222243
0.0222756
0.0223283
0.0223832
0.0224402
0.0225001
0.0225627
0.0226289
0.0226986
0.0227726
0.022851
0.0229342
0.0230227
0.0231167
0.0232166
0.0233225
0.0234348
0.0235534
0.0236786
0.02381
0.0239479
0.0240912
0.0242406
0.0243947
0.0245539
0.0247154
0.0248781
0.025038
0.0251927
0.0253367
0.0254651
0.0255698
0.0256421
0.025675
0.025662
0.0255974
0.0254774
0.0253006
0.0250689
0.0247877
0.0244655
0.0241113
0.0237313
0.0233241
0.022876
0.022366
0.0217694
0.0210824
0.0203296
0.0195728
0.0188925
0.0182846
0.0177153
0.0169992
0.0161059
0.014558
0.0133085
0.0137188
0.0220984
0.0221492
0.0222013
0.0222555
0.0223114
0.0223697
0.0224302
0.0224935
0.0225595
0.0226289
0.0227015
0.0227781
0.0228588
0.022944
0.0230341
0.0231293
0.0232302
0.0233368
0.0234497
0.0235686
0.0236941
0.0238257
0.0239638
0.0241074
0.0242575
0.0244137
0.024576
0.0247424
0.0249112
0.0250795
0.025244
0.0254006
0.0255443
0.0256674
0.025763
0.0258239
0.0258439
0.0258184
0.0257441
0.0256206
0.0254505
0.02524
0.0249986
0.0247365
0.0244608
0.0241703
0.0238491
0.0234714
0.0230035
0.0224322
0.0217738
0.0210947
0.0204972
0.0199986
0.019587
0.0190498
0.0183645
0.016871
0.0160853
0.0154431
0.0220625
0.0221088
0.0221578
0.0222097
0.0222644
0.0223225
0.0223837
0.0224488
0.0225175
0.0225903
0.0226671
0.0227484
0.0228342
0.022925
0.0230208
0.0231218
0.0232287
0.0233412
0.0234599
0.0235847
0.023716
0.0238532
0.0239966
0.0241455
0.0243007
0.0244618
0.0246288
0.0248001
0.0249737
0.0251465
0.0253154
0.0254763
0.0256237
0.0257507
0.0258485
0.0259098
0.0259283
0.0258989
0.025818
0.0256843
0.0254992
0.0252676
0.0249982
0.0247006
0.0243813
0.0240371
0.0236482
0.0231802
0.0225848
0.0218284
0.0209053
0.0198699
0.0188381
0.0178617
0.0169984
0.0161034
0.0152644
0.0139261
0.0135194
0.0123879
0.022031
0.0220749
0.0221225
0.0221737
0.0222281
0.0222867
0.022349
0.0224157
0.0224866
0.0225623
0.0226428
0.0227283
0.0228191
0.0229153
0.0230171
0.0231247
0.0232383
0.0233579
0.023484
0.0236162
0.0237551
0.0239
0.0240514
0.0242084
0.0243717
0.0245406
0.0247152
0.0248941
0.0250753
0.0252561
0.0254334
0.0256038
0.0257622
0.0259
0.0260086
0.02608
0.0261083
0.0260896
0.0260207
0.0259
0.0257287
0.0255125
0.0252616
0.0249883
0.0247024
0.0244046
0.024077
0.0236824
0.0231612
0.0224588
0.0215378
0.0204217
0.0192121
0.0179679
0.0167884
0.0155941
0.0145744
0.0133289
0.0130192
0.0121546
0.0219808
0.0220303
0.0220835
0.0221402
0.0222001
0.0222639
0.0223314
0.0224031
0.0224789
0.0225596
0.022645
0.0227357
0.0228318
0.0229335
0.023041
0.0231546
0.0232746
0.0234008
0.0235339
0.0236735
0.0238201
0.0239732
0.0241332
0.0242995
0.0244724
0.0246511
0.0248356
0.0250243
0.0252155
0.0254068
0.0255956
0.025779
0.0259516
0.0261052
0.0262289
0.0263151
0.0263591
0.0263579
0.0263091
0.0262111
0.0260657
0.0258803
0.0256683
0.0254475
0.0252356
0.0250424
0.0248599
0.0246579
0.0243756
0.0239449
0.0232984
0.0224182
0.021365
0.020165
0.018912
0.0175435
0.0163008
0.0148885
0.0143144
0.013142
0.0219034
0.0219631
0.0220263
0.0220933
0.0221634
0.0222371
0.0223141
0.022395
0.0224796
0.0225686
0.022662
0.0227603
0.0228639
0.0229729
0.0230879
0.023209
0.0233367
0.0234708
0.023612
0.02376
0.0239152
0.0240773
0.0242467
0.0244228
0.024606
0.0247952
0.02499
0.0251888
0.0253897
0.0255901
0.0257877
0.0259798
0.0261611
0.026321
0.0264489
0.0265356
0.0265768
0.0265699
0.0265118
0.0263996
0.0262341
0.0260231
0.025782
0.0255335
0.0253031
0.0251124
0.0249681
0.0248548
0.0247227
0.024504
0.0241146
0.0235031
0.0226865
0.0216449
0.0204356
0.0189843
0.0175501
0.0159144
0.0150183
0.0132124
0.0218727
0.021939
0.0220093
0.0220834
0.022161
0.0222425
0.0223275
0.0224166
0.0225095
0.0226068
0.0227084
0.022815
0.0229265
0.0230436
0.0231666
0.0232957
0.0234315
0.023574
0.0237239
0.0238808
0.0240453
0.0242169
0.0243962
0.0245824
0.024776
0.0249755
0.0251804
0.0253886
0.0255979
0.0258053
0.0260082
0.0262034
0.0263844
0.0265411
0.0266594
0.0267302
0.0267481
0.0267091
0.0266076
0.0264377
0.0261969
0.0258908
0.025534
0.0251508
0.0247722
0.0244296
0.0241451
0.0239228
0.0237326
0.0235213
0.0232061
0.0227215
0.0220555
0.0211501
0.0200273
0.0185935
0.0171206
0.0154645
0.0144817
0.012422
0.0219113
0.0219775
0.0220487
0.0221246
0.0222048
0.0222899
0.0223793
0.0224736
0.0225724
0.0226762
0.0227849
0.022899
0.0230186
0.023144
0.0232758
0.023414
0.0235594
0.0237117
0.0238716
0.0240388
0.0242138
0.0243959
0.0245857
0.0247826
0.0249867
0.0251967
0.0254118
0.0256297
0.0258478
0.0260625
0.0262704
0.0264677
0.026648
0.0267984
0.0269058
0.0269587
0.0269507
0.0268756
0.0267242
0.0264862
0.0261541
0.025729
0.0252221
0.0246554
0.024061
0.0234766
0.0229364
0.0224634
0.0220507
0.0216689
0.021251
0.0207364
0.0201047
0.0192811
0.0182616
0.0169425
0.0156069
0.0141888
0.0133925
0.011605
0.0220539
0.0221135
0.0221789
0.0222499
0.0223264
0.022409
0.0224973
0.0225919
0.0226922
0.0227989
0.0229117
0.023031
0.0231567
0.0232892
0.0234287
0.0235755
0.0237299
0.023892
0.0240622
0.0242401
0.024426
0.0246194
0.0248206
0.0250287
0.0252442
0.0254656
0.0256923
0.0259217
0.0261513
0.0263769
0.0265945
0.0267997
0.0269851
0.0271393
0.0272467
0.0272964
0.0272805
0.0271904
0.0270133
0.0267339
0.0263397
0.0258256
0.0251973
0.0244719
0.0236786
0.0228562
0.0220463
0.0212863
0.0205908
0.0199559
0.0193379
0.0186941
0.0180119
0.0172158
0.016293
0.0151359
0.0140378
0.0130018
0.0125294
0.0112746
0.0222551
0.0223056
0.0223633
0.0224279
0.0224993
0.0225782
0.0226642
0.0227576
0.0228583
0.0229666
0.0230825
0.0232061
0.0233375
0.0234769
0.0236245
0.0237803
0.0239448
0.0241177
0.0242992
0.0244891
0.0246873
0.0248932
0.025107
0.0253279
0.0255561
0.0257908
0.0260313
0.0262755
0.0265209
0.0267632
0.0269979
0.0272202
0.0274238
0.0275957
0.0277228
0.0277932
0.0277986
0.0277287
0.0275675
0.0272956
0.0268951
0.0263552
0.025675
0.0248646
0.0239473
0.0229585
0.0219414
0.0209416
0.0199898
0.0191044
0.0182654
0.017453
0.0166714
0.0158583
0.0149998
0.0139904
0.0131258
0.0124652
0.0122958
0.0115537
0.022538
0.0225791
0.0226283
0.0226853
0.0227502
0.0228235
0.0229053
0.0229959
0.0230951
0.0232034
0.0233205
0.0234469
0.0235824
0.0237273
0.0238814
0.024045
0.0242184
0.0244012
0.0245937
0.0247953
0.0250062
0.0252253
0.0254528
0.0256879
0.0259309
0.026181
0.0264382
0.0267008
0.0269669
0.0272322
0.027492
0.027742
0.0279754
0.0281823
0.0283484
0.0284639
0.0285204
0.0285064
0.0284037
0.0281895
0.0278418
0.0273445
0.0266899
0.0258807
0.024932
0.0238727
0.0227426
0.0215895
0.0204533
0.0193683
0.0183345
0.0173541
0.0164506
0.0155792
0.0147325
0.0138075
0.0130964
0.0127014
0.0127173
0.0123178
0.0228697
0.0229044
0.022948
0.023
0.0230607
0.0231306
0.0232096
0.0232983
0.0233966
0.0235049
0.0236233
0.0237521
0.0238914
0.0240412
0.0242018
0.0243731
0.0245555
0.0247485
0.0249523
0.0251663
0.0253903
0.0256236
0.025866
0.0261167
0.0263762
0.026644
0.0269205
0.027205
0.027496
0.0277896
0.0280814
0.0283672
0.0286421
0.0288954
0.0291169
0.0292966
0.0294271
0.0294967
0.0294857
0.0293694
0.0291223
0.0287238
0.0281605
0.0274274
0.0265308
0.0254909
0.0243407
0.023125
0.0218862
0.0206682
0.0194844
0.0183551
0.0173214
0.0163585
0.0154651
0.0145422
0.0138728
0.0135951
0.0136512
0.0133985
0.0232828
0.0233136
0.0233533
0.0234018
0.023459
0.023526
0.0236025
0.0236894
0.0237866
0.0238947
0.0240136
0.024144
0.0242858
0.0244393
0.0246047
0.024782
0.0249716
0.0251733
0.025387
0.0256123
0.025849
0.0260963
0.0263539
0.0266211
0.0268983
0.0271855
0.0274835
0.0277923
0.0281113
0.0284368
0.0287651
0.0290927
0.0294147
0.0297241
0.0300099
0.0302652
0.0304833
0.0306524
0.0307526
0.0307577
0.0306401
0.0303758
0.0299463
0.0293397
0.0285539
0.0275995
0.0265006
0.0252953
0.024024
0.0227335
0.0214449
0.0201909
0.019027
0.0179449
0.0169514
0.0159502
0.0152153
0.0149176
0.0148885
0.0146206
0.023738
0.0237683
0.0238081
0.0238569
0.0239149
0.0239828
0.0240606
0.0241488
0.0242477
0.0243577
0.0244792
0.0246125
0.0247581
0.0249161
0.025087
0.0252708
0.0254681
0.0256785
0.0259021
0.0261386
0.0263879
0.026649
0.0269219
0.0272059
0.0275015
0.027809
0.0281295
0.028464
0.0288124
0.0291719
0.0295388
0.0299104
0.0302837
0.0306511
0.0310056
0.0313404
0.0316503
0.0319244
0.0321423
0.0322775
0.0323011
0.0321866
0.0319115
0.0314579
0.0308158
0.0299867
0.0289849
0.0278397
0.0265859
0.0252687
0.0239118
0.0225552
0.0212642
0.0200458
0.0189122
0.0177707
0.0168875
0.0164668
0.0162657
0.0158774
0.0242884
0.0243198
0.0243603
0.0244098
0.0244685
0.0245371
0.0246158
0.0247054
0.0248058
0.0249178
0.0250416
0.0251777
0.0253264
0.0254881
0.0256632
0.0258521
0.0260553
0.0262728
0.0265047
0.0267509
0.0270114
0.0272855
0.0275731
0.0278735
0.0281874
0.0285152
0.0288585
0.0292189
0.0295972
0.0299906
0.0303965
0.0308124
0.0312357
0.0316621
0.0320835
0.0324962
0.0328956
0.0332712
0.0336033
0.033865
0.034027
0.0340611
0.0339417
0.0336461
0.0331576
0.032469
0.0315852
0.0305261
0.0293187
0.0280039
0.0266037
0.0251617
0.023749
0.022384
0.0210846
0.0197617
0.0186778
0.0180714
0.0176512
0.0170861
0.0249042
0.0249389
0.0249827
0.0250354
0.0250972
0.0251688
0.0252504
0.0253426
0.0254457
0.0255604
0.025687
0.0258262
0.0259785
0.0261442
0.0263241
0.0265183
0.0267278
0.0269524
0.0271926
0.0274482
0.0277195
0.0280058
0.0283074
0.0286236
0.0289551
0.0293028
0.0296684
0.0300542
0.0304614
0.0308879
0.0313312
0.0317897
0.032262
0.0327427
0.0332278
0.0337129
0.0341948
0.0346638
0.0351004
0.0354782
0.0357676
0.0359393
0.0359655
0.0358198
0.0354797
0.0349306
0.0341685
0.0332041
0.0320558
0.0307584
0.02933
0.0278143
0.0262856
0.0247723
0.0232954
0.0217713
0.0204611
0.0196392
0.0189836
0.0182244
0.0256203
0.025659
0.0257061
0.0257617
0.025826
0.0258999
0.0259835
0.0260778
0.026183
0.0262999
0.0264288
0.0265705
0.0267254
0.0268942
0.0270774
0.0272756
0.0274897
0.0277199
0.0279667
0.0282303
0.028511
0.0288084
0.0291228
0.0294538
0.029802
0.0301686
0.0305555
0.0309656
0.0314004
0.0318582
0.0323369
0.0328354
0.0333521
0.0338846
0.034427
0.0349775
0.0355331
0.0360847
0.0366132
0.0370926
0.0374934
0.0377858
0.0379402
0.0379274
0.0377205
0.0372984
0.0366494
0.0357754
0.0346867
0.0334109
0.0319611
0.0303791
0.0287404
0.0270802
0.0254238
0.0236926
0.0221509
0.021108
0.0202208
0.0192717
0.0263794
0.0264236
0.0264764
0.0265377
0.0266075
0.0266868
0.0267756
0.0268748
0.0269847
0.027106
0.0272392
0.0273851
0.0275445
0.0277177
0.0279057
0.0281091
0.028329
0.0285656
0.0288195
0.0290911
0.0293809
0.0296888
0.0300154
0.0303601
0.030724
0.0311083
0.0315153
0.0319483
0.032409
0.032896
0.0334076
0.0339429
0.0345016
0.0350795
0.0356743
0.0362828
0.0369031
0.0375264
0.0381342
0.0387007
0.0391968
0.0395921
0.0398562
0.0399575
0.0398655
0.0395539
0.0390041
0.0382104
0.037175
0.0359187
0.034449
0.0328047
0.0310609
0.0292595
0.0274282
0.0254947
0.0237282
0.022472
0.0213673
0.0202452
0.0272307
0.0272798
0.027337
0.0274024
0.0274761
0.0275592
0.0276519
0.027755
0.0278687
0.0279941
0.0281313
0.0282813
0.0284445
0.0286219
0.0288139
0.0290217
0.0292463
0.0294882
0.0297481
0.0300267
0.0303248
0.0306423
0.03098
0.0313375
0.031716
0.0321168
0.0325428
0.0329973
0.0334821
0.0339964
0.0345386
0.035108
0.035704
0.0363248
0.0369658
0.0376258
0.0383027
0.038988
0.0396633
0.0403033
0.0408792
0.0413604
0.0417157
0.0419119
0.0419154
0.0416957
0.0412286
0.0405013
0.039509
0.0382662
0.0367742
0.0350689
0.0332241
0.0312866
0.0292873
0.0271603
0.0251819
0.0237265
0.0224216
0.021146
0.0281317
0.0281865
0.0282494
0.0283203
0.0283994
0.0284877
0.0285853
0.028693
0.0288113
0.028941
0.0290826
0.0292369
0.0294049
0.0295869
0.0297841
0.0299973
0.0302277
0.0304758
0.0307426
0.0310288
0.0313352
0.0316621
0.0320106
0.0323803
0.0327726
0.0331892
0.033633
0.0341075
0.0346151
0.0351549
0.0357255
0.0363265
0.0369581
0.0376166
0.0383002
0.0390063
0.0397333
0.0404727
0.0412063
0.0419092
0.0425527
0.0431062
0.0435377
0.0438127
0.0438953
0.0437514
0.0433518
0.0426775
0.0417177
0.0404807
0.0389628
0.037196
0.0352528
0.033185
0.0310257
0.0287157
0.0265392
0.0248989
0.0234099
0.0219999
0.0291163
0.0291762
0.0292436
0.0293185
0.0294013
0.029493
0.0295938
0.0297049
0.0298264
0.0299595
0.0301045
0.0302624
0.0304338
0.0306198
0.0308209
0.0310385
0.0312736
0.0315271
0.0317998
0.0320928
0.032407
0.0327429
0.0331016
0.033483
0.0338885
0.0343201
0.0347808
0.0352745
0.0358036
0.0363675
0.0369652
0.0375961
0.0382598
0.0389551
0.0396774
0.0404258
0.041198
0.0419856
0.0427704
0.0435277
0.0442289
0.0448433
0.0453385
0.0456787
0.0458261
0.0457435
0.0453973
0.0447635
0.0438253
0.0425861
0.0410371
0.0392069
0.0371662
0.0349712
0.0326581
0.0301739
0.0278116
0.0259989
0.0243385
0.0228093
0.0301189
0.0301848
0.0302584
0.0303398
0.0304289
0.0305269
0.0306339
0.0307508
0.0308781
0.0310166
0.031167
0.0313302
0.0315071
0.0316984
0.0319053
0.0321287
0.0323702
0.0326303
0.0329101
0.0332108
0.0335334
0.0338785
0.0342473
0.0346403
0.0350586
0.0355046
0.0359816
0.0364938
0.0370436
0.0376308
0.0382544
0.0389139
0.0396098
0.0403384
0.0410981
0.0418862
0.0427004
0.0435325
0.0443639
0.0451703
0.045923
0.0465911
0.0471415
0.0475375
0.0477396
0.0477077
0.0474045
0.0468008
0.0458753
0.0446264
0.0430413
0.0411448
0.0390065
0.0366872
0.0342249
0.0315736
0.0290344
0.0270578
0.0252343
0.0235971
0.0311926
0.0312632
0.0313412
0.0314267
0.03152
0.031622
0.0317332
0.0318546
0.0319864
0.0321297
0.0322849
0.032453
0.0326348
0.0328312
0.0330431
0.0332718
0.0335187
0.0337848
0.0340711
0.034379
0.0347096
0.0350638
0.0354428
0.035847
0.036278
0.0367383
0.0372313
0.0377616
0.0383318
0.0389419
0.039591
0.0402787
0.0410048
0.0417677
0.0425631
0.0433896
0.0442443
0.0451185
0.0459938
0.0468457
0.0476454
0.0483618
0.0489612
0.049406
0.0496547
0.049665
0.0493958
0.0488136
0.0478926
0.046627
0.0450004
0.0430342
0.0407963
0.0383523
0.0357428
0.032928
0.0302178
0.028082
0.0261
0.0243616
0.0322936
0.0323694
0.0324527
0.0325435
0.0326421
0.0327494
0.0328658
0.0329921
0.0331289
0.033277
0.0334373
0.0336105
0.0337978
0.0339998
0.0342178
0.0344529
0.0347067
0.03498
0.0352741
0.0355902
0.0359297
0.0362934
0.0366829
0.0370988
0.0375426
0.0380171
0.0385261
0.0390745
0.0396651
0.0402982
0.0409728
0.0416886
0.0424461
0.0432415
0.0440732
0.0449377
0.0458324
0.0467483
0.0476665
0.0485627
0.0494079
0.0501704
0.0508159
0.0513056
0.0515966
0.0516439
0.0514029
0.0508361
0.0499134
0.0486254
0.0469523
0.0449121
0.0425725
0.0400031
0.0372469
0.0342701
0.0313909
0.0290969
0.0269572
0.0251209
0.0334585
0.0335388
0.033626
0.0337204
0.0338223
0.0339328
0.0340522
0.0341819
0.0343221
0.034474
0.0346381
0.0348156
0.0350071
0.0352139
0.0354368
0.0356773
0.0359369
0.0362168
0.0365179
0.0368419
0.0371902
0.0375637
0.0379639
0.0383917
0.0388485
0.0393375
0.0398629
0.0404297
0.0410412
0.0416976
0.0423982
0.0431427
0.0439308
0.0447611
0.0456289
0.0465321
0.0474673
0.048425
0.0493863
0.0503265
0.0512165
0.0520239
0.0527136
0.0532459
0.0535758
0.053656
0.0534387
0.052882
0.0519522
0.050636
0.0489118
0.046793
0.0443474
0.0416495
0.0387445
0.0356044
0.032556
0.0301021
0.027803
0.0258696
0.0346206
0.0347062
0.0347991
0.0348995
0.0350075
0.0351242
0.0352499
0.0353855
0.0355317
0.0356895
0.0358594
0.0360428
0.0362405
0.0364536
0.0366833
0.0369309
0.037198
0.0374858
0.0377954
0.0381285
0.0384865
0.0388704
0.039282
0.0397222
0.0401927
0.0406967
0.0412389
0.0418248
0.0424576
0.0431382
0.0438654
0.0446394
0.0454605
0.0463249
0.0472306
0.0481735
0.0491503
0.0501513
0.051157
0.0521426
0.0530785
0.0539316
0.0546661
0.0552407
0.0556089
0.0557205
0.0555245
0.0549747
0.054034
0.0526852
0.0509047
0.0487033
0.0461481
0.0433185
0.0402619
0.0369556
0.033735
0.0311168
0.0286543
0.0266219
0.0358367
0.0359261
0.0360226
0.0361266
0.0362383
0.0363588
0.0364886
0.0366287
0.0367797
0.0369426
0.0371179
0.0373069
0.0375102
0.0377294
0.0379651
0.0382191
0.0384931
0.0387884
0.0391061
0.0394482
0.039816
0.0402108
0.0406343
0.0410875
0.0415723
0.042092
0.0426518
0.0432576
0.0439128
0.0446183
0.0453735
0.0461782
0.0470322
0.0479338
0.0488782
0.0498625
0.0508827
0.0519285
0.0529802
0.0540126
0.0549958
0.0558958
0.0566758
0.057293
0.0576989
0.0578407
0.057664
0.0571183
0.056163
0.054777
0.0529361
0.0506466
0.0479765
0.0450104
0.0417976
0.0383207
0.0349236
0.0321355
0.0295045
0.0273704
0.037064
0.0371579
0.0372591
0.0373678
0.0374843
0.0376098
0.0377445
0.0378896
0.0380457
0.0382138
0.0383947
0.0385894
0.0387991
0.0390249
0.039268
0.0395298
0.0398122
0.0401165
0.0404437
0.0407961
0.0411749
0.0415815
0.0420179
0.0424851
0.042985
0.0435213
0.0440996
0.0447263
0.0454049
0.0461367
0.0469209
0.0477577
0.0486474
0.0495861
0.0505716
0.0515991
0.0526646
0.0537575
0.0548576
0.0559395
0.0569725
0.0579219
0.0587496
0.0594112
0.0598561
0.0600285
0.0598706
0.0593277
0.0583553
0.0569287
0.0550223
0.0526405
0.049852
0.046745
0.0433711
0.0397184
0.0361387
0.0331735
0.0303675
0.028127
0.0383412
0.0384387
0.0385431
0.0386549
0.0387742
0.0389025
0.0390402
0.0391886
0.0393482
0.0395204
0.0397056
0.0399052
0.0401201
0.0403518
0.0406009
0.0408698
0.0411597
0.0414725
0.0418089
0.0421716
0.0425618
0.0429809
0.0434308
0.0439129
0.0444289
0.0449829
0.0455808
0.0462295
0.0469328
0.0476921
0.048507
0.0493773
0.0503031
0.0512825
0.0523103
0.0533832
0.0544962
0.0556384
0.0567892
0.0579229
0.0590081
0.060009
0.0608862
0.0615937
0.0620785
0.0622819
0.0621423
0.0616005
0.0606086
0.0591374
0.0571614
0.0546816
0.0517693
0.0485159
0.0449751
0.0411404
0.0373721
0.0342222
0.0312346
0.0288834
0.0396003
0.0397025
0.0398122
0.0399297
0.040055
0.0401896
0.0403335
0.0404883
0.0406543
0.0408329
0.0410246
0.0412311
0.0414533
0.0416925
0.0419499
0.0422275
0.0425269
0.0428497
0.0431971
0.0435714
0.0439741
0.0444068
0.0448713
0.0453693
0.0459025
0.0464753
0.047094
0.047766
0.0484953
0.0492836
0.0501304
0.051036
0.0520008
0.0530208
0.0540938
0.055214
0.0563768
0.0575709
0.0587754
0.0599639
0.0611044
0.06216
0.0630897
0.0638458
0.0643727
0.0646085
0.0644878
0.0639469
0.0629336
0.0614152
0.0593646
0.0567839
0.0537437
0.0503391
0.0466256
0.0426023
0.0386379
0.0352947
0.0321178
0.02965
0.0409033
0.0410087
0.0411215
0.0412421
0.0413709
0.0415092
0.0416573
0.0418169
0.0419882
0.0421726
0.0423705
0.0425837
0.0428127
0.0430594
0.0433245
0.0436104
0.0439188
0.0442515
0.0446095
0.0449957
0.0454114
0.0458582
0.0463383
0.0468531
0.0474046
0.0479974
0.0486381
0.0493347
0.0500914
0.0509102
0.0517907
0.0527331
0.0537375
0.054802
0.0559211
0.0570909
0.0583059
0.0595545
0.0608151
0.0620611
0.0632595
0.0643722
0.0653568
0.0661636
0.0667341
0.0670033
0.0669017
0.066361
0.0653248
0.0637552
0.0616265
0.0589389
0.0557662
0.0522047
0.0483123
0.0440938
0.0399261
0.0363811
0.033008
0.0304186
0.0422083
0.0423175
0.0424346
0.0425598
0.0426933
0.0428366
0.04299
0.0431549
0.0433318
0.0435222
0.0437266
0.0439467
0.0441834
0.0444383
0.0447126
0.0450083
0.0453275
0.0456716
0.046042
0.0464415
0.0468714
0.0473337
0.0478304
0.0483633
0.0489343
0.0495483
0.0502124
0.050935
0.0517206
0.0525714
0.0534869
0.0544678
0.0555147
0.0566234
0.0577917
0.0590131
0.0602827
0.0615885
0.0629082
0.0642148
0.0654744
0.0666476
0.0676903
0.0685506
0.0691675
0.0694719
0.0693906
0.0688503
0.0677901
0.0661676
0.0639562
0.0611592
0.0578503
0.0541271
0.0500499
0.045629
0.0412498
0.0374937
0.0339161
0.0311983
0.0435585
0.0436708
0.0437906
0.0439185
0.0440546
0.0442007
0.0443571
0.0445257
0.0447067
0.0449019
0.0451116
0.0453377
0.0455809
0.0458434
0.0461255
0.0464303
0.0467592
0.0471145
0.0474969
0.0479098
0.0483545
0.048833
0.0493473
0.0498993
0.0504911
0.0511277
0.0518165
0.0525665
0.0533824
0.0542665
0.0552189
0.0562398
0.0573296
0.0584863
0.0597047
0.06098
0.0623066
0.063672
0.0650533
0.066423
0.0677464
0.0689826
0.0700859
0.0710021
0.0716671
0.0720082
0.071948
0.0714079
0.0703226
0.068644
0.0663466
0.0634346
0.059985
0.0560948
0.0518266
0.0471964
0.042598
0.0386221
0.0348327
0.0319813
0.0448834
0.045
0.0451249
0.0452585
0.0454008
0.0455535
0.0457168
0.0458923
0.0460805
0.0462831
0.0465005
0.0467348
0.0469868
0.0472585
0.0475508
0.0478664
0.0482072
0.0485752
0.0489714
0.0493991
0.0498599
0.0503557
0.0508888
0.0514611
0.0520749
0.0527354
0.0534503
0.0542291
0.0550767
0.0559958
0.0569861
0.0580486
0.0591842
0.0603886
0.0616599
0.0629913
0.064377
0.0658045
0.0672503
0.0686861
0.0700765
0.0713791
0.0725463
0.0735215
0.0742372
0.0746173
0.0745797
0.0740408
0.0729298
0.0711941
0.0688071
0.0657781
0.0621846
0.0581225
0.0536571
0.04881
0.0439835
0.0397778
0.035768
0.0327758
0.0462533
0.0463723
0.0464996
0.0466359
0.0467815
0.0469378
0.0471055
0.0472863
0.0474804
0.0476897
0.0479144
0.0481566
0.0484169
0.0486978
0.0489997
0.0493258
0.0496778
0.0500583
0.0504681
0.050911
0.0513883
0.0519022
0.0524551
0.053049
0.053686
0.0543718
0.0551142
0.0559231
0.056804
0.0577592
0.0587894
0.0598948
0.0610765
0.0623326
0.0636576
0.0650468
0.0664938
0.0679854
0.0694978
0.0710022
0.0724622
0.0738337
0.0750673
0.0761038
0.0768725
0.0772931
0.0772791
0.0767417
0.0756047
0.0738096
0.0713303
0.0681793
0.0644372
0.0601981
0.0555292
0.0504581
0.0453952
0.0409506
0.0367127
0.0335742
0.0476209
0.0477438
0.0478757
0.0480167
0.0481672
0.0483289
0.0485021
0.0486886
0.048889
0.049105
0.0493372
0.0495875
0.049857
0.0501477
0.0504607
0.0507988
0.0511641
0.0515589
0.0519841
0.0524437
0.0529392
0.0534727
0.0540469
0.0546637
0.0553254
0.0560378
0.0568091
0.0576497
0.0585651
0.0595582
0.0606292
0.0617793
0.06301
0.0643168
0.0656982
0.0671468
0.0686567
0.0702148
0.0717965
0.0733724
0.0749051
0.0763489
0.0776522
0.0787532
0.0795777
0.0800414
0.0800529
0.0795182
0.0783555
0.0765007
0.0739269
0.0706523
0.0667582
0.062337
0.0574581
0.0521546
0.0468457
0.0421516
0.0376765
0.0343839
0.0490622
0.0491868
0.049319
0.0494598
0.0496095
0.0497707
0.0499437
0.0501315
0.0503339
0.0505535
0.0507901
0.0510468
0.0513234
0.0516231
0.0519457
0.0522954
0.0526732
0.0530824
0.0535232
0.0540003
0.0545148
0.0550691
0.0556657
0.0563069
0.0569947
0.0577353
0.0585369
0.0594105
0.060362
0.0613941
0.0625077
0.0637035
0.0649829
0.0663441
0.067782
0.0692915
0.0708662
0.0724927
0.0741458
0.0757956
0.0774035
0.0789221
0.0802976
0.0814655
0.0823481
0.0828567
0.082895
0.0823638
0.0811755
0.0792597
0.0765894
0.0731865
0.0691355
0.0645267
0.0594314
0.0538878
0.0483239
0.0433707
0.0386502
0.0351976
0.0503239
0.0504555
0.0505997
0.0507555
0.0509232
0.0511031
0.0512959
0.0515025
0.0517238
0.0519611
0.0522154
0.0524886
0.0527819
0.0530978
0.0534372
0.0538036
0.0541989
0.0546259
0.0550855
0.0555823
0.0561177
0.0566943
0.0573148
0.0579815
0.0586967
0.0594667
0.0602999
0.0612077
0.0621964
0.0632688
0.0644256
0.0656684
0.0669989
0.0684131
0.0699099
0.0714818
0.0731231
0.0748201
0.0765473
0.0782739
0.0799603
0.081557
0.0830082
0.0842463
0.08519
0.085746
0.0858134
0.0852872
0.0840742
0.082098
0.0793299
0.0757974
0.0715858
0.0667838
0.0614646
0.0556715
0.0498419
0.0446183
0.0396429
0.036022
0.0519096
0.0520373
0.0521733
0.052319
0.0524748
0.0526441
0.052827
0.0530266
0.0532428
0.0534784
0.0537327
0.0540091
0.0543074
0.0546308
0.0549791
0.0553567
0.0557649
0.0562069
0.0566832
0.0571987
0.0577546
0.0583536
0.0589985
0.0596915
0.0604348
0.061235
0.0621007
0.0630437
0.0640704
0.0651838
0.0663851
0.0676753
0.0690565
0.0705274
0.0720832
0.0737192
0.0754287
0.0771983
0.0790016
0.0808073
0.0825746
0.0842521
0.0857814
0.0870923
0.0880994
0.0887049
0.0888028
0.0882826
0.0870454
0.0850081
0.0821411
0.0784745
0.074097
0.0690957
0.0635454
0.0574941
0.0513891
0.0458846
0.0406457
0.03685
0.0532586
0.053394
0.0535428
0.0537041
0.0538781
0.0540655
0.0542671
0.0544841
0.0547174
0.0549685
0.0552385
0.0555294
0.0558427
0.0561807
0.0565446
0.0569379
0.0573629
0.0578224
0.0583174
0.0588527
0.0594299
0.0600518
0.0607213
0.0614409
0.0622129
0.0630438
0.0639424
0.064921
0.0659862
0.0671413
0.0683873
0.0697262
0.0711606
0.0726866
0.074304
0.0760054
0.0777851
0.0796295
0.0815116
0.0833994
0.0852508
0.0870123
0.0886233
0.0900103
0.0910839
0.0917417
0.0918724
0.0913601
0.0900998
0.0880023
0.0850357
0.0812338
0.0766863
0.0714792
0.0656891
0.059369
0.0529769
0.0471794
0.0416669
0.0376878
0.0549483
0.0550794
0.0552192
0.0553699
0.0555317
0.0557081
0.0558992
0.0561085
0.0563358
0.0565842
0.056853
0.0571459
0.0574626
0.0578065
0.0581778
0.0585807
0.0590171
0.0594902
0.0600007
0.0605537
0.0611508
0.0617946
0.0624883
0.0632342
0.0640347
0.0648963
0.0658281
0.0668426
0.0679467
0.0691439
0.0704356
0.0718236
0.0733105
0.0748954
0.0765744
0.0783429
0.0801946
0.0821157
0.0840787
0.0860509
0.0879888
0.089837
0.0915323
0.092998
0.0941405
0.0948526
0.0950176
0.0945141
0.0932313
0.0910732
0.0880058
0.0840643
0.0793407
0.073921
0.0678829
0.0612845
0.0545946
0.048493
0.042698
0.0385283
0.056408
0.0565452
0.0566967
0.0568622
0.0570416
0.0572358
0.0574455
0.057672
0.0579163
0.05818
0.0584643
0.0587712
0.0591024
0.0594602
0.0598461
0.0602636
0.0607156
0.0612047
0.0617325
0.0623039
0.062921
0.0635865
0.0643039
0.0650757
0.0659043
0.0667965
0.0677612
0.0688117
0.0699548
0.0711945
0.0725319
0.0739697
0.0755114
0.0771536
0.0788969
0.080734
0.0826597
0.0846599
0.0867065
0.0887661
0.0907938
0.0927322
0.0945153
0.0960631
0.0972778
0.098047
0.0982485
0.0977555
0.0964512
0.0942333
0.0910645
0.0869819
0.0820777
0.0764379
0.0701416
0.0632531
0.0562528
0.0498345
0.0437465
0.0393772
0.0582282
0.058361
0.0585038
0.058659
0.0588267
0.0590103
0.0592098
0.0594285
0.0596665
0.0599263
0.0602081
0.060515
0.0608475
0.0612089
0.0615996
0.0620242
0.062485
0.0629853
0.0635262
0.064113
0.0647477
0.0654332
0.0661731
0.0669698
0.0678258
0.068748
0.0697454
0.0708315
0.0720136
0.0732955
0.0746793
0.0761672
0.077763
0.0794663
0.0812739
0.0831815
0.085183
0.0872643
0.0893966
0.0915459
0.0936659
0.0956971
0.0975708
0.0992035
0.100493
0.101321
0.101561
0.101079
0.0997532
0.0974749
0.0942031
0.0899745
0.0848833
0.0790156
0.0724522
0.0652631
0.0579412
0.0511944
0.0448039
0.0402271
0.0599939
0.0601302
0.0602768
0.0604358
0.0606067
0.0607926
0.060994
0.0612139
0.0614532
0.0617145
0.0619988
0.0623088
0.062646
0.0630131
0.0634115
0.0638447
0.064316
0.0648278
0.065382
0.0659835
0.0666351
0.0673393
0.0681004
0.0689208
0.0698031
0.0707544
0.0717837
0.0729049
0.0741255
0.0754498
0.0768796
0.0784183
0.0800704
0.0818331
0.0837078
0.0856874
0.0877667
0.0899316
0.0921525
0.0943946
0.0966105
0.0987382
0.100706
0.102427
0.103794
0.104685
0.104964
0.104495
0.103149
0.10081
0.0974341
0.0930576
0.0877741
0.0816702
0.0748285
0.0673261
0.0596694
0.0525809
0.0458772
0.0410835
0.0618563
0.061995
0.0621446
0.0623064
0.0624806
0.06267
0.062875
0.0630985
0.063341
0.0636053
0.063892
0.0642044
0.0645437
0.0649133
0.0653145
0.0657518
0.0662284
0.0667475
0.0673108
0.0679239
0.0685893
0.0693099
0.0700902
0.0709326
0.0718399
0.072819
0.0738792
0.0750347
0.0762935
0.0776595
0.0791358
0.0807252
0.0824326
0.0842582
0.0861999
0.0882533
0.0904126
0.0926632
0.0949751
0.0973127
0.0996271
0.101854
0.103919
0.105732
0.10718
0.108134
0.108455
0.107999
0.106631
0.104231
0.100748
0.0962177
0.0907347
0.0843862
0.0772567
0.0694301
0.0614268
0.0539847
0.0469579
0.0419389
0.0638019
0.0639417
0.064092
0.0642546
0.0644294
0.0646192
0.0648247
0.0650487
0.0652922
0.0655577
0.0658467
0.0661615
0.0665046
0.0668783
0.0672849
0.0677281
0.0682118
0.0687388
0.0693114
0.0699351
0.0706131
0.0713484
0.072146
0.0730085
0.073939
0.0749445
0.0760343
0.0772232
0.0785191
0.0799265
0.0814483
0.0830887
0.0848532
0.0867399
0.0887513
0.0908802
0.0931217
0.0954609
0.097867
0.100304
0.102721
0.105051
0.107218
0.109125
0.110657
0.111678
0.112043
0.1116
0.110212
0.107749
0.104156
0.0994694
0.0937811
0.0871788
0.0797495
0.0715855
0.063222
0.0554131
0.0480523
0.0427987
0.0658963
0.0660376
0.0661885
0.0663506
0.0665244
0.0667127
0.0669165
0.0671386
0.06738
0.0676433
0.0679296
0.0682422
0.0685826
0.0689544
0.0693593
0.069802
0.0702865
0.0708161
0.0713932
0.0720235
0.0727108
0.0734577
0.0742701
0.0751504
0.0761021
0.0771322
0.0782502
0.0794711
0.080803
0.0822508
0.0838182
0.0855091
0.0873297
0.0892812
0.0913623
0.0935688
0.0958946
0.098325
0.100828
0.103367
0.10589
0.108327
0.110598
0.112604
0.114223
0.115313
0.115722
0.115293
0.113882
0.111354
0.107649
0.102798
0.0968967
0.090032
0.082293
0.0737804
0.0650447
0.056857
0.0491523
0.0436556
0.0680424
0.0681863
0.0683395
0.0685034
0.0686783
0.0688669
0.0690702
0.0692911
0.0695311
0.0697927
0.0700779
0.070389
0.070729
0.0711004
0.0715062
0.0719499
0.0724366
0.072969
0.0735504
0.0741862
0.074881
0.0756376
0.0764625
0.0773585
0.0783292
0.079382
0.0805264
0.0817779
0.0831446
0.0846321
0.0862441
0.087986
0.0898647
0.091879
0.0940327
0.0963186
0.0987315
0.101256
0.10386
0.106505
0.109139
0.111687
0.114068
0.116176
0.117885
0.119047
0.119502
0.119088
0.117653
0.115058
0.111236
0.106218
0.100097
0.0929598
0.0848988
0.076024
0.0669024
0.0583229
0.0502635
0.0445148
0.0703016
0.070448
0.070603
0.070768
0.0709436
0.0711326
0.0713359
0.0715563
0.0717951
0.0720549
0.0723371
0.0726449
0.0729807
0.0733478
0.073749
0.074189
0.0746726
0.0752035
0.0757849
0.0764229
0.0771222
0.0778858
0.0787208
0.0796303
0.0806181
0.0816918
0.0828611
0.0841418
0.0855425
0.0870688
0.0887258
0.0905184
0.0924541
0.0945352
0.0967617
0.0991292
0.101632
0.104254
0.106962
0.109717
0.112465
0.115129
0.117623
0.119837
0.121639
0.122875
0.123377
0.122977
0.121516
0.118851
0.114907
0.109713
0.103364
0.0959456
0.0875526
0.0783045
0.068785
0.0598018
0.0513779
0.0453689
0.0726014
0.07275
0.0729067
0.0730733
0.0732499
0.0734392
0.0736423
0.0738619
0.0740999
0.0743584
0.0746397
0.0749461
0.0752811
0.0756471
0.0760478
0.0764869
0.0769705
0.0775013
0.0780838
0.0787238
0.0794268
0.0801963
0.08104
0.0819614
0.0829648
0.0840581
0.085251
0.0865601
0.0879938
0.0895588
0.0912601
0.093104