/*--------------------------------*- C++ -*----------------------------------*\
  =========                 |
  \\      /  F ield         | OpenFOAM: The Open Source CFD Toolbox
   \\    /   O peration     | Website:  https://openfoam.org
    \\  /    A nd           | Version:  6.0
     \\/     M anipulation  |
\*---------------------------------------------------------------------------*/
FoamFile
{
    version     2.0;
    format      ascii;
    class       surfaceScalarField;
    location    "13";
    object      phi;
}
// * * * * * * * * * * * * * * * * * * * * * * * * * * * * * * * * * * * * * //

dimensions      [0 3 -1 0 0 0 0];

internalField   nonuniform List<scalar> 
123526
(
-2.70527e-05
2.33266e-05
2.74463e-05
-2.6628e-05
2.5223e-05
-2.61687e-05
2.72737e-05
-2.56723e-05
2.94914e-05
-2.51353e-05
3.18896e-05
-2.4555e-05
3.4483e-05
-2.39271e-05
3.72877e-05
-2.32485e-05
4.03207e-05
-2.25134e-05
4.36e-05
-2.17181e-05
4.71466e-05
-2.08575e-05
5.09828e-05
-1.99272e-05
5.51315e-05
-1.89205e-05
5.96183e-05
-1.78299e-05
6.44681e-05
-1.66463e-05
6.97122e-05
-1.5367e-05
7.53866e-05
-1.39825e-05
8.1523e-05
-1.24793e-05
8.81521e-05
-1.08486e-05
9.53231e-05
-9.08583e-06
0.000103081
-7.17062e-06
0.000111461
-5.09287e-06
0.00012052
-2.84505e-06
0.000130321
-3.9939e-07
0.000140898
2.24898e-06
0.00015234
5.12145e-06
0.000164695
8.24004e-06
0.000178037
1.16175e-05
0.000192448
1.52865e-05
0.000207992
1.92582e-05
0.00022477
2.35693e-05
0.000242848
2.82363e-05
0.000262334
3.32945e-05
0.000283305
3.87714e-05
0.000305859
4.46943e-05
0.000330089
5.11068e-05
0.000356067
5.80319e-05
0.000383894
6.55101e-05
0.000413623
7.35808e-05
0.000445305
8.22741e-05
0.000478977
9.16264e-05
0.000514624
0.000101677
0.000552188
0.000112455
0.000591558
0.00012399
0.000632535
0.000136309
0.000674808
0.000149431
0.00071793
0.000163366
0.000761276
0.000178111
0.000804
0.000193637
0.000844978
0.000209884
0.000882746
0.000226756
0.000915417
0.0002441
0.000940574
0.000261726
0.000955122
0.000279361
0.000955175
0.000296673
0.000935852
0.000313192
0.000891256
0.00032838
0.000814008
0.000341626
0.000695859
0.000351562
0.00052503
0.000287467
0.00034601
-2.65977e-05
2.29395e-05
2.69857e-05
-2.6179e-05
2.48047e-05
-2.57264e-05
2.68216e-05
-2.52376e-05
2.90028e-05
-2.47092e-05
3.13616e-05
-2.41383e-05
3.39123e-05
-2.35211e-05
3.66708e-05
-2.28543e-05
3.9654e-05
-2.21322e-05
4.28784e-05
-2.13513e-05
4.63656e-05
-2.05065e-05
5.01383e-05
-1.95934e-05
5.42183e-05
-1.86053e-05
5.86306e-05
-1.75349e-05
6.33975e-05
-1.63731e-05
6.85509e-05
-1.5117e-05
7.41304e-05
-1.37576e-05
8.01641e-05
-1.22811e-05
8.66755e-05
-1.06793e-05
9.37218e-05
-8.94705e-06
0.000101349
-7.0648e-06
0.000109579
-5.02207e-06
0.000118478
-2.81176e-06
0.000128111
-4.05864e-07
0.000138492
2.19995e-06
0.000149735
5.02705e-06
0.000161868
8.09606e-06
0.000174969
1.14199e-05
0.000189125
1.50298e-05
0.000204382
1.89369e-05
0.000220863
2.31766e-05
0.000238608
2.77655e-05
0.000257746
3.27378e-05
0.000278334
3.81202e-05
0.000300478
4.39387e-05
0.000324272
5.02354e-05
0.000349771
5.70324e-05
0.000377098
6.43685e-05
0.000406287
7.22829e-05
0.000437391
8.0805e-05
0.000470455
8.99717e-05
0.000505457
9.98229e-05
0.000542336
0.00011039
0.00058099
0.000121703
0.00062122
0.000133791
0.000662718
0.000146674
0.000705043
0.000160362
0.000747583
0.000174848
0.000789507
0.0001901
0.000829718
0.000206055
0.00086678
0.000222613
0.000898846
0.000239627
0.000923542
0.000256916
0.000937826
0.000274218
0.000937869
0.000291214
0.000918866
0.000307448
0.000875036
0.000322364
0.000799118
0.000335492
0.000682766
0.000343498
0.000517083
0.00028947
0.000341587
-2.61785e-05
2.25588e-05
2.65601e-05
-2.57664e-05
2.4393e-05
-2.53208e-05
2.63765e-05
-2.48394e-05
2.85216e-05
-2.43188e-05
3.08414e-05
-2.37564e-05
3.33501e-05
-2.31484e-05
3.60632e-05
-2.24915e-05
3.89972e-05
-2.17804e-05
4.21676e-05
-2.10114e-05
4.55967e-05
-2.01797e-05
4.93071e-05
-1.92811e-05
5.33196e-05
-1.83089e-05
5.7659e-05
-1.72559e-05
6.23445e-05
-1.61134e-05
6.74089e-05
-1.48785e-05
7.28955e-05
-1.35423e-05
7.88285e-05
-1.20912e-05
8.52244e-05
-1.05172e-05
9.21484e-05
-8.81528e-06
9.96467e-05
-6.96615e-06
0.00010773
-4.9595e-06
0.000116471
-2.78837e-06
0.000125941
-4.25232e-07
0.000136129
2.13399e-06
0.000147176
4.91021e-06
0.000159092
7.92348e-06
0.000171956
1.11865e-05
0.000185862
1.47296e-05
0.000200839
1.85639e-05
0.000217029
2.27238e-05
0.000234449
2.72258e-05
0.000253244
3.21029e-05
0.000273457
3.73818e-05
0.0002952
4.3088e-05
0.000318567
4.92628e-05
0.000343597
5.59282e-05
0.000370433
6.31227e-05
0.000399093
7.08851e-05
0.000429629
7.92454e-05
0.000462095
8.82408e-05
0.000496462
9.79118e-05
0.000532665
0.00010829
0.000570611
0.000119407
0.000610102
0.000131289
0.000650834
0.000143956
0.000692374
0.000157414
0.000734122
0.000171653
0.000775265
0.000186636
0.00081473
0.000202302
0.000851109
0.000218553
0.000882591
0.000235249
0.000906838
0.00025222
0.000920859
0.000269213
0.000920877
0.000285916
0.000902174
0.000301889
0.000859071
0.000316536
0.000784485
0.000329383
0.00066993
0.000338207
0.000508274
0.000288243
0.000339443
-2.58279e-05
2.21852e-05
2.62022e-05
-2.54233e-05
2.39886e-05
-2.49854e-05
2.5939e-05
-2.45118e-05
2.80482e-05
-2.39994e-05
3.03293e-05
-2.34454e-05
3.27963e-05
-2.28462e-05
3.54643e-05
-2.21986e-05
3.83496e-05
-2.14974e-05
4.14668e-05
-2.07391e-05
4.48383e-05
-1.99191e-05
4.84873e-05
-1.90331e-05
5.24335e-05
-1.80748e-05
5.67011e-05
-1.70372e-05
6.13067e-05
-1.59118e-05
6.62839e-05
-1.46958e-05
7.16793e-05
-1.33805e-05
7.75137e-05
-1.19527e-05
8.37965e-05
-1.04046e-05
9.06008e-05
-8.7312e-06
9.79733e-05
-6.91372e-06
0.000105913
-4.94205e-06
0.0001145
-2.80944e-06
0.000123809
-4.88926e-07
0.000133809
2.02336e-06
0.000144664
4.74795e-06
0.000156368
7.7046e-06
0.000169
1.09059e-05
0.000182661
1.43816e-05
0.000197364
1.81429e-05
0.000213268
2.22233e-05
0.000230368
2.66392e-05
0.000248829
3.14233e-05
0.000268674
3.66015e-05
0.000290023
4.21994e-05
0.00031297
4.8258e-05
0.000337539
5.47994e-05
0.000363892
6.18619e-05
0.000392031
6.94842e-05
0.000422007
7.76961e-05
0.000453884
8.65347e-05
0.000487624
9.60401e-05
0.00052316
0.000106244
0.000560408
0.000117175
0.000599172
0.000128859
0.00063915
0.000141312
0.000679921
0.000154538
0.000720896
0.000168524
0.00076128
0.000183234
0.000800019
0.000198606
0.000835736
0.00021455
0.000866646
0.000230933
0.00089045
0.000247594
0.000904204
0.000264288
0.000904192
0.000280708
0.000885774
0.000296423
0.000843379
0.000310817
0.000770125
0.000323349
0.000657442
0.000332545
0.000499145
0.000286203
0.000334687
-2.54876e-05
2.1819e-05
2.58547e-05
-2.50908e-05
2.35922e-05
-2.46613e-05
2.55099e-05
-2.41965e-05
2.75838e-05
-2.36934e-05
2.98267e-05
-2.31493e-05
3.22524e-05
-2.25604e-05
3.48758e-05
-2.19237e-05
3.7713e-05
-2.12341e-05
4.07775e-05
-2.0488e-05
4.40923e-05
-1.9681e-05
4.76807e-05
-1.88089e-05
5.15615e-05
-1.78657e-05
5.57584e-05
-1.68444e-05
6.02854e-05
-1.57367e-05
6.51768e-05
-1.454e-05
7.04826e-05
-1.32459e-05
7.62201e-05
-1.18415e-05
8.23921e-05
-1.0319e-05
8.90789e-05
-8.67382e-06
9.63281e-05
-6.88742e-06
0.000104127
-4.94999e-06
0.000112562
-2.85497e-06
0.000121714
-5.75959e-07
0.00013153
1.89077e-06
0.000142198
4.56545e-06
0.000153694
7.46757e-06
0.000166098
1.06096e-05
0.00017952
1.4021e-05
0.000193953
1.77126e-05
0.000209577
2.17177e-05
0.000226363
2.60523e-05
0.000244494
3.07485e-05
0.000263979
3.58321e-05
0.000284941
4.13281e-05
0.000307475
4.72775e-05
0.000331591
5.37021e-05
0.000357468
6.06401e-05
0.000385094
6.81295e-05
0.000414519
7.61997e-05
0.000445814
8.48872e-05
0.000478937
9.4231e-05
0.000513816
0.000104261
0.000550378
0.000115006
0.000588427
0.000126487
0.000627668
0.000138721
0.000667686
0.000151708
0.000707907
0.000165434
0.000747552
0.000179865
0.000785586
0.000194942
0.000820656
0.000210582
0.000851005
0.000226658
0.000874369
0.000243017
0.000887851
0.00025942
0.000887791
0.000275562
0.000869642
0.000291021
0.000827926
0.000305181
0.000755975
0.000317414
0.000645214
0.000326508
0.000490057
0.000283616
0.000329089
-2.51107e-05
2.14604e-05
2.547e-05
-2.47224e-05
2.32042e-05
-2.43021e-05
2.509e-05
-2.38475e-05
2.71294e-05
-2.33553e-05
2.93348e-05
-2.28228e-05
3.17201e-05
-2.22464e-05
3.42997e-05
-2.1623e-05
3.70897e-05
-2.09475e-05
4.01023e-05
-2.02164e-05
4.33612e-05
-1.94252e-05
4.68899e-05
-1.857e-05
5.07061e-05
-1.76447e-05
5.48334e-05
-1.66425e-05
5.9283e-05
-1.55553e-05
6.409e-05
-1.43804e-05
6.93076e-05
-1.31097e-05
7.49499e-05
-1.17305e-05
8.10128e-05
-1.02353e-05
8.75842e-05
-8.6195e-06
9.47122e-05
-6.86505e-06
0.000102373
-4.9623e-06
0.000110659
-2.9049e-06
0.000119657
-6.66957e-07
0.000129292
1.75517e-06
0.000139777
4.38141e-06
0.000151068
7.23094e-06
0.000163249
1.03161e-05
0.000176435
1.36658e-05
0.000190604
1.72909e-05
0.000205952
2.1224e-05
0.000222431
2.5481e-05
0.000240238
3.00935e-05
0.000259367
3.50866e-05
0.000279949
4.04853e-05
0.000302077
4.63297e-05
0.000325747
5.26416e-05
0.000351157
5.94584e-05
0.000378278
6.68177e-05
0.00040716
7.47481e-05
0.000437884
8.32852e-05
0.0004704
9.24668e-05
0.000504636
0.000102322
0.000540524
0.000112876
0.000577874
0.000124152
0.000616393
0.000136161
0.000655678
0.000148906
0.000695164
0.000162372
0.000734088
0.000176528
0.000771433
0.000191317
0.000805868
0.000206663
0.000835663
0.000222443
0.000858587
0.000238511
0.000871791
0.000254635
0.000871681
0.000270508
0.00085379
0.000285714
0.000812745
0.00029965
0.000742074
0.000311617
0.00063329
0.000320624
0.000481116
0.000280375
0.000323967
-2.46934e-05
2.11096e-05
2.5045e-05
-2.43139e-05
2.2825e-05
-2.39034e-05
2.46799e-05
-2.34596e-05
2.66857e-05
-2.29792e-05
2.88549e-05
-2.24596e-05
3.12007e-05
-2.18972e-05
3.37376e-05
-2.12888e-05
3.64813e-05
-2.06293e-05
3.94432e-05
-1.99153e-05
4.26473e-05
-1.91423e-05
4.61173e-05
-1.83063e-05
4.98701e-05
-1.74014e-05
5.39289e-05
-1.64207e-05
5.83023e-05
-1.53563e-05
6.30262e-05
-1.42057e-05
6.81569e-05
-1.29606e-05
7.37054e-05
-1.16087e-05
7.96608e-05
-1.01426e-05
8.61186e-05
-8.55779e-06
9.31274e-05
-6.83653e-06
0.000100653
-4.96939e-06
0.000108792
-2.95014e-06
0.000117638
-7.53348e-07
0.000127095
1.62454e-06
0.000137399
4.20312e-06
0.000148489
7.00121e-06
0.000160451
1.0031e-05
0.000173405
1.33207e-05
0.000187315
1.68812e-05
0.000202392
2.07444e-05
0.000218567
2.4926e-05
0.000236057
2.94569e-05
0.000254837
3.4362e-05
0.000275045
3.96656e-05
0.000296775
4.54072e-05
0.000320006
5.16081e-05
0.000344957
5.83052e-05
0.000371581
6.55351e-05
0.000399931
7.33259e-05
0.000430094
8.17122e-05
0.000462014
9.07305e-05
0.000495618
0.000100409
0.000530846
0.000110772
0.000567511
0.00012184
0.000605325
0.000133627
0.000643891
0.000146133
0.000682657
0.000159344
0.000720874
0.000173233
0.000757543
0.000187747
0.000791351
0.000202812
0.000820596
0.000218312
0.000843081
0.000234103
0.000856002
0.000249959
0.000855827
0.000265573
0.000838183
0.000280531
0.000797789
0.000294247
0.000728362
0.000305977
0.00062156
0.000314981
0.00047211
0.000276104
0.000319233
-2.42694e-05
2.07659e-05
2.46136e-05
-2.38979e-05
2.24537e-05
-2.34964e-05
2.42786e-05
-2.30625e-05
2.6252e-05
-2.25932e-05
2.83858e-05
-2.20857e-05
3.06933e-05
-2.15366e-05
3.31887e-05
-2.09427e-05
3.58874e-05
-2.02989e-05
3.87997e-05
-1.96019e-05
4.19502e-05
-1.88472e-05
4.53628e-05
-1.80307e-05
4.90535e-05
-1.71465e-05
5.30451e-05
-1.6188e-05
5.73435e-05
-1.51471e-05
6.19857e-05
-1.40214e-05
6.7031e-05
-1.28027e-05
7.24871e-05
-1.14788e-05
7.83368e-05
-1.00425e-05
8.46828e-05
-8.48922e-06
9.15742e-05
-6.80166e-06
9.89656e-05
-4.97044e-06
0.000106961
-2.98948e-06
0.000115658
-8.33758e-07
0.00012494
1.50024e-06
0.000135066
4.03174e-06
0.000145958
6.77919e-06
0.000157704
9.75447e-06
0.00017043
1.29854e-05
0.000184084
1.64824e-05
0.000198896
2.0277e-05
0.000214773
2.43844e-05
0.00023195
2.88351e-05
0.000250387
3.36534e-05
0.000270227
3.88631e-05
0.000291566
4.4503e-05
0.000314367
5.05938e-05
0.000338867
5.71717e-05
0.000365004
6.42725e-05
0.00039283
7.19238e-05
0.000422444
8.01591e-05
0.00045378
8.90139e-05
0.000486764
9.85153e-05
0.000521346
0.000108688
0.00055734
0.000119551
0.000594463
0.000131118
0.000632326
0.00014339
0.000670387
0.000156356
0.00070791
0.000169989
0.000743913
0.000184241
0.000777102
0.00019904
0.000805801
0.000214275
0.000827846
0.000229803
0.000840483
0.000245401
0.000840244
0.000260764
0.000822841
0.00027548
0.000783099
0.000288979
0.000714898
0.000300491
0.00061009
0.000309472
0.000463193
0.000271235
0.000314439
-2.38743e-05
2.04278e-05
2.42133e-05
-2.3509e-05
2.20887e-05
-2.31144e-05
2.38845e-05
-2.26884e-05
2.58263e-05
-2.2228e-05
2.79258e-05
-2.17306e-05
3.01961e-05
-2.11927e-05
3.26511e-05
-2.06111e-05
3.5306e-05
-1.99811e-05
3.817e-05
-1.92992e-05
4.12683e-05
-1.85608e-05
4.46248e-05
-1.77621e-05
4.82548e-05
-1.68971e-05
5.21805e-05
-1.59592e-05
5.64056e-05
-1.49407e-05
6.09676e-05
-1.38387e-05
6.59291e-05
-1.26455e-05
7.12943e-05
-1.13488e-05
7.70401e-05
-9.94155e-06
8.3276e-05
-8.41925e-06
9.00519e-05
-6.76478e-06
9.73115e-05
-4.96893e-06
0.000105165
-3.02567e-06
0.000113715
-9.10393e-07
0.000122825
1.38039e-06
0.000132775
3.86557e-06
0.000143473
6.56318e-06
0.000155007
9.48484e-06
0.000167509
1.26578e-05
0.000180911
1.60923e-05
0.000195461
1.98191e-05
0.000211046
2.38532e-05
0.000227916
2.82244e-05
0.000246017
3.29567e-05
0.000265496
3.80734e-05
0.00028645
4.36122e-05
0.000308829
4.95936e-05
0.000332886
5.60528e-05
0.000358545
6.30251e-05
0.000385859
7.05372e-05
0.000414932
7.8622e-05
0.000445696
8.73143e-05
0.000478072
9.66403e-05
0.00051202
0.000106624
0.000547356
0.000117286
0.000583801
0.000128638
0.000620973
0.000140684
0.000658341
0.000153413
0.000695179
0.000166802
0.000730522
0.000180804
0.000763097
0.000195351
0.000791251
0.000210333
0.000812857
0.00022561
0.000825206
0.000240959
0.000824894
0.000256078
0.000807725
0.000270555
0.000768621
0.000283838
0.000701615
0.000295146
0.000598775
0.000304026
0.000454302
0.000265851
0.000309376
-2.35305e-05
2.00938e-05
2.3865e-05
-2.31699e-05
2.17283e-05
-2.27805e-05
2.34955e-05
-2.23603e-05
2.54062e-05
-2.19065e-05
2.74723e-05
-2.14165e-05
2.97063e-05
-2.0887e-05
3.21219e-05
-2.03151e-05
3.47341e-05
-1.96958e-05
3.7551e-05
-1.90259e-05
4.05983e-05
-1.83011e-05
4.39002e-05
-1.75173e-05
4.74709e-05
-1.66688e-05
5.13323e-05
-1.5749e-05
5.54856e-05
-1.47501e-05
5.99691e-05
-1.36696e-05
6.48484e-05
-1.24996e-05
7.01247e-05
-1.1228e-05
7.57685e-05
-9.84793e-06
8.18964e-05
-8.3548e-06
8.85587e-05
-6.73183e-06
9.5689e-05
-4.96987e-06
0.000103404
-3.06299e-06
0.000111809
-9.86947e-07
0.000120749
1.26174e-06
0.000130527
3.70163e-06
0.000141033
6.35037e-06
0.000152359
9.21932e-06
0.00016464
1.23352e-05
0.000177796
1.57079e-05
0.000192089
1.93678e-05
0.000207387
2.33293e-05
0.000223955
2.76219e-05
0.000241725
3.22688e-05
0.00026085
3.7293e-05
0.000281427
4.27316e-05
0.000303391
4.86043e-05
0.000327014
5.49458e-05
0.000352204
6.17905e-05
0.000379015
6.91646e-05
0.000407559
7.71003e-05
0.000437761
8.56319e-05
0.000469541
9.47853e-05
0.000502868
0.000104584
0.000537558
0.000115049
0.000573337
0.000126193
0.000609831
0.00013802
0.000646516
0.000150522
0.00068268
0.000163677
0.000717371
0.00017744
0.000749337
0.000191746
0.00077695
0.000206485
0.000798118
0.000221518
0.000810181
0.000236625
0.000809801
0.000251504
0.000792867
0.000265746
0.000754403
0.000278813
0.000688579
0.000289927
0.000587702
0.000298633
0.000445655
0.0002605
0.000304077
-2.324e-05
1.97634e-05
2.35711e-05
-2.28831e-05
2.13716e-05
-2.24977e-05
2.31105e-05
-2.2082e-05
2.49907e-05
-2.16333e-05
2.70238e-05
-2.1149e-05
2.92221e-05
-2.06259e-05
3.15992e-05
-2.00613e-05
3.41695e-05
-1.94505e-05
3.69405e-05
-1.87901e-05
3.9938e-05
-1.8076e-05
4.31865e-05
-1.73043e-05
4.66992e-05
-1.64694e-05
5.04978e-05
-1.55647e-05
5.4581e-05
-1.45828e-05
5.89877e-05
-1.35209e-05
6.37865e-05
-1.23715e-05
6.89757e-05
-1.11225e-05
7.45195e-05
-9.76726e-06
8.05415e-05
-8.3011e-06
8.70926e-05
-6.70755e-06
9.40959e-05
-4.97758e-06
0.000101674
-3.10534e-06
0.000109937
-1.06695e-06
0.000118711
1.14105e-06
0.000128319
3.53692e-06
0.000138638
6.13794e-06
0.000149758
8.95523e-06
0.000161823
1.20149e-05
0.000174737
1.53268e-05
0.000188777
1.89206e-05
0.000203793
2.28105e-05
0.000220065
2.70251e-05
0.000237511
3.15877e-05
0.000256289
3.65204e-05
0.000276495
4.18598e-05
0.000298052
4.76251e-05
0.000321249
5.38502e-05
0.00034598
6.0569e-05
0.000372296
6.78071e-05
0.000400321
7.55963e-05
0.000429972
8.39702e-05
0.000461167
9.29546e-05
0.000493884
0.000102573
0.00052794
0.000112847
0.000563064
0.000123789
0.000598888
0.000135405
0.000634899
0.000147688
0.000670395
0.000160618
0.000704439
0.000174151
0.000735799
0.000188225
0.000762874
0.000202728
0.000783605
0.000217524
0.000795383
0.000232392
0.000794931
0.000247034
0.000778224
0.000261043
0.00074039
0.000273894
0.000675723
0.000284819
0.000576765
0.000293314
0.000437141
0.000255112
0.000298659
-2.2992e-05
1.94366e-05
2.3319e-05
-2.2639e-05
2.10187e-05
-2.22577e-05
2.27294e-05
-2.18463e-05
2.45794e-05
-2.1402e-05
2.65797e-05
-2.09226e-05
2.87428e-05
-2.0405e-05
3.10818e-05
-1.98464e-05
3.3611e-05
-1.92424e-05
3.63367e-05
-1.85898e-05
3.92854e-05
-1.78846e-05
4.24815e-05
-1.7123e-05
4.59375e-05
-1.62996e-05
4.96746e-05
-1.54078e-05
5.36891e-05
-1.44405e-05
5.80207e-05
-1.3395e-05
6.27408e-05
-1.22637e-05
6.78447e-05
-1.1035e-05
7.32908e-05
-9.70223e-06
7.92091e-05
-8.2608e-06
8.56512e-05
-6.69457e-06
9.253e-05
-4.9946e-06
9.99737e-05
-3.15514e-06
0.000108098
-1.15273e-06
0.000116708
1.01611e-06
0.000126151
3.36935e-06
0.000136285
5.92392e-06
0.000147204
8.69071e-06
0.000159057
1.16954e-05
0.000171732
1.49475e-05
0.000185525
1.84763e-05
0.000200264
2.22955e-05
0.000216246
2.64335e-05
0.000233373
3.09128e-05
0.00025181
3.57554e-05
0.000271653
4.09971e-05
0.000292811
4.66567e-05
0.00031559
5.27675e-05
0.000339869
5.93627e-05
0.000365702
6.64676e-05
0.000393217
7.41135e-05
0.000422327
8.23337e-05
0.000452948
9.11537e-05
0.000485065
0.000100597
0.000518497
0.000110686
0.000552977
0.000121433
0.000588142
0.000132846
0.000623488
0.000144918
0.000658325
0.00015763
0.00069173
0.000170942
0.000722491
0.000184788
0.000749032
0.000199061
0.000769333
0.000213622
0.000780829
0.000228254
0.000780313
0.000242659
0.000763838
0.000256436
0.000726637
0.000269072
0.000663117
0.000279811
0.000566064
0.000288084
0.000428925
0.000250048
0.000293235
-2.27686e-05
1.91143e-05
2.30917e-05
-2.24199e-05
2.06704e-05
-2.20431e-05
2.23531e-05
-2.16363e-05
2.41728e-05
-2.11969e-05
2.61407e-05
-2.07227e-05
2.82688e-05
-2.02107e-05
3.057e-05
-1.96581e-05
3.30586e-05
-1.90608e-05
3.57397e-05
-1.84156e-05
3.86402e-05
-1.77186e-05
4.17849e-05
-1.69662e-05
4.51851e-05
-1.61531e-05
4.88619e-05
-1.52731e-05
5.28091e-05
-1.4319e-05
5.7067e-05
-1.32883e-05
6.17101e-05
-1.21737e-05
6.67305e-05
-1.09637e-05
7.20808e-05
-9.6517e-06
7.78975e-05
-8.23336e-06
8.42328e-05
-6.69276e-06
9.09898e-05
-5.02114e-06
9.83021e-05
-3.21289e-06
0.00010629
-1.24492e-06
0.00011474
8.86188e-07
0.00012402
3.19815e-06
0.000133973
5.70754e-06
0.000144695
8.42509e-06
0.00015634
1.1376e-05
0.000168782
1.45696e-05
0.000182332
1.80345e-05
0.0001968
2.17846e-05
0.000212496
2.58472e-05
0.000229311
3.02449e-05
0.000247413
3.49992e-05
0.000266899
4.0145e-05
0.000287666
4.57012e-05
0.000310034
5.17002e-05
0.000333871
5.81748e-05
0.000359228
6.51499e-05
0.000386242
7.26564e-05
0.000414821
8.07273e-05
0.000444877
8.9388e-05
0.000476404
9.86624e-05
0.000509223
0.000108572
0.000543067
0.000119131
0.000577582
0.000130347
0.000612271
0.000142215
0.000646455
0.000154717
0.000679226
0.000167811
0.000709392
0.000181436
0.000735404
0.000195481
0.000755277
0.00020981
0.000766496
0.000224205
0.000765914
0.000238375
0.000749666
0.000251919
0.000713086
0.000264337
0.00065069
0.000274892
0.000555493
0.000282952
0.00042084
0.000245066
0.000287881
-2.25542e-05
1.8797e-05
2.28719e-05
-2.22108e-05
2.03272e-05
-2.18394e-05
2.1982e-05
-2.14382e-05
2.37717e-05
-2.10046e-05
2.57073e-05
-2.05363e-05
2.78006e-05
-2.00305e-05
3.00644e-05
-1.94845e-05
3.25127e-05
-1.88943e-05
3.51496e-05
-1.82567e-05
3.80027e-05
-1.75682e-05
4.10965e-05
-1.6825e-05
4.44419e-05
-1.60222e-05
4.80593e-05
-1.51536e-05
5.19403e-05
-1.42123e-05
5.6126e-05
-1.31958e-05
6.06935e-05
-1.20971e-05
6.56321e-05
-1.09048e-05
7.08884e-05
-9.61266e-06
7.66057e-05
-8.21628e-06
8.28365e-05
-6.70016e-06
8.9474e-05
-5.05568e-06
9.66577e-05
-3.27738e-06
0.000104512
-1.34262e-06
0.000112806
7.51979e-07
0.000121926
3.02385e-06
0.000131701
5.48929e-06
0.00014223
8.15883e-06
0.00015367
1.10572e-05
0.000165883
1.41936e-05
0.000179196
1.75963e-05
0.000193397
2.12785e-05
0.000208814
2.52677e-05
0.000225323
2.95855e-05
0.000243096
3.42534e-05
0.000262232
3.93058e-05
0.000282614
4.47611e-05
0.000304579
5.06513e-05
0.000327981
5.70085e-05
0.000352871
6.38575e-05
0.000379393
7.12288e-05
0.00040745
7.91551e-05
0.000436952
8.76616e-05
0.000467899
9.67723e-05
0.000500113
0.000106509
0.000533332
0.000116886
0.000567207
0.000127911
0.000601248
0.000139581
0.000634787
0.000151877
0.000666934
0.00016476
0.000696513
0.000178165
0.000722004
0.000191985
0.000741457
0.000206082
0.000752406
0.000220241
0.000751767
0.000234174
0.000735752
0.000247485
0.000699796
0.000259684
0.000638519
0.000270054
0.000545158
0.000277917
0.000413029
0.000240431
0.000282633
-2.23355e-05
1.84855e-05
2.26476e-05
-2.19981e-05
1.999e-05
-2.1633e-05
2.16172e-05
-2.12383e-05
2.33772e-05
-2.08114e-05
2.52807e-05
-2.03502e-05
2.73396e-05
-1.98518e-05
2.95663e-05
-1.93136e-05
3.19745e-05
-1.87315e-05
3.45678e-05
-1.81026e-05
3.73738e-05
-1.74233e-05
4.04175e-05
-1.66901e-05
4.37087e-05
-1.58981e-05
4.72676e-05
-1.50413e-05
5.10835e-05
-1.4113e-05
5.51981e-05
-1.31108e-05
5.96913e-05
-1.20279e-05
6.45495e-05
-1.08532e-05
6.97137e-05
-9.58048e-06
7.53334e-05
-8.20561e-06
8.14616e-05
-6.71337e-06
8.79821e-05
-5.09534e-06
9.50397e-05
-3.3462e-06
0.000102763
-1.44374e-06
0.000110903
6.15288e-07
0.000119867
2.84808e-06
0.000129469
5.27063e-06
0.000139808
7.89331e-06
0.000151048
1.07404e-05
0.000163037
1.38211e-05
0.000176115
1.71628e-05
0.000190055
2.07791e-05
0.000205198
2.46964e-05
0.000221406
2.89365e-05
0.000238857
3.35203e-05
0.000257649
3.84818e-05
0.000277653
4.38389e-05
0.000299222
4.96233e-05
0.000322197
5.58667e-05
0.000346628
6.25935e-05
0.000372667
6.98338e-05
0.00040021
7.762e-05
0.000429166
8.59773e-05
0.000459541
9.49296e-05
0.000491161
0.000104498
0.000523763
0.000114699
0.000557005
0.000125539
0.000590406
0.000137016
0.000623309
0.000149111
0.000654836
0.000161784
0.000683836
0.000174972
0.000708811
0.000188568
0.00072785
0.000202433
0.000738534
0.000216356
0.000737839
0.00023005
0.000722054
0.000243128
0.00068671
0.000255106
0.000626529
0.000265291
0.000534953
0.000272974
0.000405315
0.000235844
0.000277501
-2.21057e-05
1.81801e-05
2.24113e-05
-2.1775e-05
1.96593e-05
-2.14169e-05
2.12593e-05
-2.10296e-05
2.29898e-05
-2.06104e-05
2.48617e-05
-2.01571e-05
2.68864e-05
-1.9667e-05
2.90763e-05
-1.91375e-05
3.1445e-05
-1.85646e-05
3.39951e-05
-1.79454e-05
3.67546e-05
-1.72763e-05
3.97486e-05
-1.6554e-05
4.29863e-05
-1.57736e-05
4.64874e-05
-1.49293e-05
5.02391e-05
-1.40147e-05
5.42838e-05
-1.30274e-05
5.87038e-05
-1.19606e-05
6.3483e-05
-1.08037e-05
6.85567e-05
-9.55057e-06
7.40806e-05
-8.19714e-06
8.01082e-05
-6.72861e-06
8.65139e-05
-5.13669e-06
9.34479e-05
-3.41627e-06
0.000101043
-1.54556e-06
0.000109033
4.78584e-07
0.000117844
2.67307e-06
0.000127274
5.05364e-06
0.000137427
7.63049e-06
0.000148471
1.04276e-05
0.00016024
1.34537e-05
0.00017309
1.67362e-05
0.000186773
2.0288e-05
0.000201647
2.41356e-05
0.000217559
2.83e-05
0.000234693
3.2802e-05
0.000253147
3.7675e-05
0.00027278
4.29368e-05
0.000293961
4.86185e-05
0.000316515
5.47515e-05
0.000340495
6.13597e-05
0.000366059
6.84731e-05
0.000393097
7.61236e-05
0.000421516
8.43362e-05
0.00045133
9.31348e-05
0.000482363
0.000102541
0.000514359
0.00011257
0.000546978
0.000123229
0.000579749
0.000134516
0.000612024
0.000146412
0.000642943
0.000158879
0.000671372
0.000171852
0.000695843
0.000185223
0.000714478
0.000198857
0.000724906
0.000212543
0.000724165
0.000225998
0.000708615
0.000238842
0.000673887
0.000250599
0.000614798
0.000260598
0.000524988
0.000268117
0.000397845
0.000231555
0.000272482
-2.18605e-05
1.78812e-05
2.21601e-05
-2.15365e-05
1.93356e-05
-2.11856e-05
2.09088e-05
-2.08059e-05
2.26104e-05
-2.0395e-05
2.4451e-05
-1.99504e-05
2.6442e-05
-1.94695e-05
2.85957e-05
-1.89496e-05
3.09253e-05
-1.83869e-05
3.34326e-05
-1.77783e-05
3.61461e-05
-1.71205e-05
3.90911e-05
-1.64101e-05
4.22759e-05
-1.56424e-05
4.572e-05
-1.48116e-05
4.94084e-05
-1.39116e-05
5.33841e-05
-1.29398e-05
5.77321e-05
-1.189e-05
6.24335e-05
-1.07514e-05
6.74182e-05
-9.51831e-06
7.28478e-05
-8.18667e-06
7.87766e-05
-6.74201e-06
8.50696e-05
-5.17624e-06
9.18822e-05
-3.4844e-06
9.93515e-05
-1.64514e-06
0.000107194
3.44558e-07
0.000115854
2.50133e-06
0.000125118
4.84066e-06
0.000135088
7.37262e-06
0.00014594
1.01207e-05
0.000157492
1.30937e-05
0.000170117
1.63183e-05
0.000183548
1.98074e-05
0.000198158
2.35868e-05
0.00021378
2.76777e-05
0.000230603
3.21001e-05
0.000248725
3.68871e-05
0.000267993
4.20563e-05
0.000288792
4.76384e-05
0.000310934
5.36641e-05
0.00033447
6.01573e-05
0.000359566
6.71473e-05
0.000386107
7.4666e-05
0.000413998
8.2738e-05
0.000443258
9.1387e-05
0.000473714
0.000100634
0.000505111
0.000110495
0.000537116
0.000120978
0.000569265
0.000132078
0.000600922
0.000143779
0.00063124
0.000156039
0.000659107
0.000168798
0.00068308
0.000181946
0.000701318
0.000195348
0.000711497
0.000208797
0.00071071
0.000222014
0.000695392
0.000234624
0.000661267
0.00024616
0.000603247
0.000255973
0.000515152
0.000263338
0.000390445
0.000227261
0.000267566
-2.16001e-05
1.75885e-05
2.18931e-05
-2.1283e-05
1.90187e-05
-2.09396e-05
2.05655e-05
-2.05678e-05
2.22387e-05
-2.01652e-05
2.40487e-05
-1.97297e-05
2.60066e-05
-1.92582e-05
2.81245e-05
-1.87484e-05
3.04155e-05
-1.81963e-05
3.28807e-05
-1.75991e-05
3.55488e-05
-1.69533e-05
3.84454e-05
-1.62555e-05
4.15781e-05
-1.55013e-05
4.49659e-05
-1.46849e-05
4.85919e-05
-1.38002e-05
5.24996e-05
-1.28449e-05
5.67767e-05
-1.18126e-05
6.14015e-05
-1.0693e-05
6.62985e-05
-9.48043e-06
7.16355e-05
-8.17097e-06
7.74672e-05
-6.75046e-06
8.36494e-05
-5.21099e-06
9.03428e-05
-3.54774e-06
9.76886e-05
-1.73979e-06
0.000105386
2.15762e-07
0.000113899
2.33527e-06
0.000122998
4.63399e-06
0.00013279
7.12183e-06
0.000143452
9.82189e-06
0.000154792
1.27428e-05
0.000167196
1.59109e-05
0.00018038
1.93388e-05
0.00019473
2.30521e-05
0.000210067
2.70711e-05
0.000226584
3.14161e-05
0.000244381
3.61194e-05
0.00026329
4.11985e-05
0.000283713
4.66835e-05
0.000305449
5.26049e-05
0.000328549
5.89861e-05
0.000353186
6.58561e-05
0.000379238
7.32463e-05
0.000406608
8.11812e-05
0.000435324
8.96841e-05
0.000465212
9.8776e-05
0.00049602
0.000108472
0.000527422
0.00011878
0.000558959
0.000129697
0.000590008
0.000141203
0.000619737
0.00015326
0.000647052
0.000165805
0.00067054
0.00017873
0.000688393
0.000191901
0.000698331
0.000205113
0.000697509
0.000218092
0.000682428
0.000230469
0.000648909
0.000241786
0.000591954
0.000251413
0.000505556
0.000258634
0.000383269
0.000223223
0.000262742
-2.13254e-05
1.7302e-05
2.16124e-05
-2.10149e-05
1.87084e-05
-2.06787e-05
2.02296e-05
-2.03148e-05
2.1875e-05
-1.99208e-05
2.36549e-05
-1.94943e-05
2.55802e-05
-1.90327e-05
2.7663e-05
-1.85333e-05
2.99162e-05
-1.79923e-05
3.23399e-05
-1.74068e-05
3.49634e-05
-1.67735e-05
3.78123e-05
-1.60889e-05
4.08936e-05
-1.53487e-05
4.4226e-05
-1.45473e-05
4.77905e-05
-1.36785e-05
5.16312e-05
-1.27401e-05
5.58383e-05
-1.1726e-05
6.03877e-05
-1.06259e-05
6.51985e-05
-9.4344e-06
7.04443e-05
-8.14754e-06
7.61804e-05
-6.7515e-06
8.22536e-05
-5.23853e-06
8.88299e-05
-3.60395e-06
9.60543e-05
-1.82724e-06
0.000103609
9.43619e-08
0.000111978
2.17697e-06
0.000120916
4.43562e-06
0.000130531
6.88005e-06
0.000141008
9.53295e-06
0.000152139
1.24029e-05
0.000164326
1.55156e-05
0.000177268
1.88838e-05
0.000191362
2.25322e-05
0.000206419
2.64813e-05
0.000222636
3.07508e-05
0.000240112
3.53725e-05
0.000258669
4.03637e-05
0.000278722
4.57542e-05
0.000300059
5.15737e-05
0.00032273
5.78456e-05
0.000346914
6.45985e-05
0.000372485
7.18631e-05
0.000399344
7.96637e-05
0.000427523
8.80234e-05
0.000456852
9.69628e-05
0.00048708
0.000106497
0.000517887
0.000116633
0.000548821
0.000127367
0.000579271
0.000138681
0.00060842
0.000150535
0.000635193
0.000162867
0.000658203
0.00017557
0.000675678
0.00018851
0.000685382
0.000201486
0.000684526
0.000214229
0.000669679
0.000226375
0.000636751
0.000237475
0.000580838
0.000246918
0.000496088
0.000253999
0.00037615
0.000219146
0.000258003
-2.10392e-05
1.70214e-05
2.13199e-05
-2.07354e-05
1.84046e-05
-2.04063e-05
1.99006e-05
-2.00502e-05
2.15189e-05
-1.96645e-05
2.32693e-05
-1.9247e-05
2.51628e-05
-1.8795e-05
2.72112e-05
-1.83059e-05
2.94272e-05
-1.7776e-05
3.18101e-05
-1.72024e-05
3.43897e-05
-1.65817e-05
3.71917e-05
-1.59106e-05
4.02224e-05
-1.51847e-05
4.35003e-05
-1.43985e-05
4.70041e-05
-1.3546e-05
5.07789e-05
-1.26249e-05
5.49172e-05
-1.16293e-05
5.93923e-05
-1.05491e-05
6.41182e-05
-9.37891e-06
6.92744e-05
-8.1149e-06
7.49164e-05
-6.74354e-06
8.08825e-05
-5.2572e-06
8.73436e-05
-3.65133e-06
9.44487e-05
-1.90578e-06
0.000101864
-1.79221e-08
0.00011009
2.0281e-06
0.00011887
4.24714e-06
0.000128313
6.64877e-06
0.000138606
9.25529e-06
0.000149533
1.20751e-05
0.000161507
1.51337e-05
0.000174209
1.84431e-05
0.000188053
2.20283e-05
0.000202834
2.59089e-05
0.000218755
3.01046e-05
0.000235917
3.46466e-05
0.000254127
3.95519e-05
0.000273817
4.48498e-05
0.000294761
5.05697e-05
0.00031701
5.67346e-05
0.00034075
6.33727e-05
0.000365848
7.05142e-05
0.000392203
7.8183e-05
0.000419855
8.64019e-05
0.000448634
9.51909e-05
0.000478292
0.000104565
0.000508514
0.000114531
0.000538857
0.000125085
0.00056872
0.000136208
0.0005973
0.00014786
0.000623543
0.00015998
0.000646088
0.000172461
0.000663197
0.000185172
0.000672676
0.000197914
0.000671794
0.000210421
0.000657186
0.000222339
0.000624851
0.000233225
0.000569975
0.000242487
0.000486856
0.000249432
0.000369245
0.000215301
0.000253341
-2.07432e-05
1.67465e-05
2.10186e-05
-2.04455e-05
1.81071e-05