/*--------------------------------*- C++ -*----------------------------------*\
  =========                 |
  \\      /  F ield         | OpenFOAM: The Open Source CFD Toolbox
   \\    /   O peration     | Website:  https://openfoam.org
    \\  /    A nd           | Version:  6.0
     \\/     M anipulation  |
\*---------------------------------------------------------------------------*/
FoamFile
{
    version     2.0;
    format      ascii;
    class       volScalarField;
    location    "1";
    object      p;
}
// * * * * * * * * * * * * * * * * * * * * * * * * * * * * * * * * * * * * * //

dimensions      [0 2 -2 0 0 0 0];

internalField   nonuniform List<scalar> 
15500
(
0.0565941
0.0568829
0.0571857
0.0575046
0.0578413
0.0581978
0.0585746
0.0589723
0.0593887
0.0598202
0.0602575
0.0606865
0.0610875
0.0614344
0.0616763
0.061729
0.0614719
0.0607447
0.0593452
0.0570416
0.0536059
0.0488828
0.042887
0.0359034
0.0285161
0.0214922
0.0155149
0.0109389
0.00774231
0.00576145
0.0571956
0.0574735
0.057765
0.0580722
0.0583965
0.05874
0.0591035
0.0594875
0.0598905
0.0603092
0.0607361
0.0611589
0.0615614
0.0619223
0.0621993
0.0623186
0.0621743
0.0616244
0.0604878
0.0585527
0.0556038
0.0514789
0.046153
0.0398321
0.0329949
0.0263163
0.0204519
0.0158126
0.0124925
0.0104983
0.0581733
0.0584432
0.0587265
0.0590253
0.0593412
0.0596762
0.0600313
0.0604073
0.060803
0.061216
0.0616396
0.0620636
0.0624744
0.0628554
0.063171
0.0633567
0.0633192
0.0629319
0.0620319
0.0604248
0.0579075
0.0543137
0.0495878
0.0438699
0.0375471
0.0312085
0.0254738
0.0207936
0.0173649
0.0153404
0.0595081
0.0597739
0.060053
0.0603474
0.0606589
0.0609896
0.0613406
0.0617132
0.0621065
0.0625189
0.0629449
0.0633757
0.0638003
0.0642059
0.0645631
0.0648155
0.0648801
0.0646435
0.0639588
0.0626469
0.0605156
0.0573967
0.0532103
0.0480416
0.0421984
0.0361892
0.0305939
0.0258891
0.022362
0.0202916
0.0611882
0.061452
0.0617293
0.0620221
0.0623323
0.0626623
0.0630132
0.0633867
0.0637824
0.0641991
0.0646325
0.065075
0.0655179
0.0659523
0.0663538
0.0666731
0.0668361
0.0667414
0.0662545
0.0652106
0.0634267
0.0607349
0.0570351
0.052367
0.0469686
0.0412749
0.0358226
0.0311041
0.0274838
0.025353
0.0631954
0.0634612
0.0637407
0.0640359
0.0643488
0.0646819
0.0650367
0.065415
0.065817
0.0662423
0.0666873
0.0671458
0.0676111
0.0680777
0.0685261
0.0689129
0.0691721
0.0692114
0.0689086
0.0681101
0.066642
0.0643365
0.0610777
0.0568665
0.0518796
0.0464846
0.0411734
0.0364463
0.0327343
0.0305286
0.0655305
0.0657995
0.0660824
0.0663818
0.0666995
0.0670384
0.0674002
0.067787
0.0681992
0.0686371
0.0690977
0.0695762
0.0700678
0.07057
0.0710677
0.071523
0.0718762
0.0720442
0.0719138
0.0713419
0.0701625
0.0682082
0.06535
0.0615554
0.0569477
0.0518321
0.0466562
0.0419209
0.0381146
0.03582
0.0681779
0.068454
0.0687445
0.0690519
0.0693782
0.0697264
0.0700984
0.0704968
0.0709225
0.0713763
0.0718561
0.0723582
0.0728794
0.0734203
0.07397
0.0744948
0.0749412
0.0752328
0.0752658
0.0749052
0.0739918
0.0723587
0.069866
0.0664519
0.0621924
0.0573352
0.0522843
0.0475366
0.0436301
0.0412319
0.071147
0.0714303
0.0717287
0.0720448
0.072381
0.0727403
0.0731252
0.0735383
0.0739809
0.0744543
0.074957
0.0754862
0.0760405
0.0766234
0.0772273
0.077823
0.0783618
0.0787743
0.0789626
0.0788004
0.0781331
0.0767951
0.0746359
0.071569
0.0676272
0.063006
0.0580667
0.0532984
0.0492823
0.0467659
0.0744211
0.0747159
0.0750266
0.0753557
0.0757057
0.0760799
0.0764809
0.0769116
0.0773741
0.07787
0.0783987
0.0789583
0.0795488
0.0801764
0.0808371
0.0815052
0.0821369
0.0826668
0.083005
0.0830301
0.0825927
0.0815271
0.0796738
0.0769236
0.0732705
0.0688617
0.0640171
0.0592157
0.0550774
0.0524269
0.0780228
0.0783284
0.0786507
0.0789926
0.0793568
0.0797469
0.0801658
0.0806168
0.081102
0.0816236
0.0821815
0.0827745
0.0834043
0.0840796
0.0847995
0.0855419
0.0862661
0.0869126
0.0873952
0.0875982
0.0873762
0.0865625
0.0849896
0.0825271
0.0791341
0.0749128
0.0701434
0.0652934
0.0610172
0.0582162
0.0819351
0.0822562
0.0825948
0.0829538
0.0833362
0.0837455
0.0841852
0.0846587
0.085169
0.0857186
0.0863082
0.0869375
0.0876094
0.0883352
0.0891169
0.0899353
0.0907532
0.091514
0.0921374
0.0925109
0.092492
0.0919127
0.0905975
0.0883962
0.0852358
0.081176
0.0764596
0.0715413
0.0671086
0.0641389
0.0861865
0.0865212
0.0868744
0.0872495
0.0876497
0.088079
0.088541
0.0890395
0.0895777
0.0901585
0.090783
0.0914515
0.0921686
0.0929476
0.0937936
0.09469
0.0956018
0.0964775
0.0972378
0.0977752
0.0979477
0.0975866
0.0965074
0.0945418
0.0915861
0.087661
0.082973
0.0779641
0.0733532
0.070196
0.0907552
0.091109
0.0914824
0.0918787
0.0923012
0.0927542
0.0932418
0.0937678
0.0943363
0.0949506
0.0956126
0.0963232
0.097088
0.0979231
0.098836
0.0998121
0.10082
0.101809
0.102704
0.1034
0.103754
0.103597
0.102735
0.100981
0.098203
0.0943846
0.0896975
0.0845721
0.0797583
0.0763923
0.0956829
0.0960532
0.0964443
0.0968601
0.0973041
0.0977811
0.0982952
0.0988509
0.0994522
0.100103
0.100805
0.101561
0.102376
0.10327
0.104252
0.105311
0.106415
0.107518
0.108546
0.109394
0.109922
0.109955
0.10929
0.107724
0.105097
0.101356
0.0966402
0.0913694
0.0863254
0.0827285
0.100948
0.101341
0.101755
0.102196
0.102666
0.10317
0.103714
0.104301
0.104937
0.105626
0.106371
0.107174
0.108042
0.108998
0.110052
0.111195
0.112398
0.113614
0.114773
0.11577
0.116464
0.116674
0.11619
0.11479
0.112285
0.108591
0.103815
0.0983667
0.0930618
0.0892094
0.106596
0.107008
0.107443
0.107905
0.1084
0.108932
0.109506
0.110127
0.110801
0.111531
0.112321
0.113174
0.114098
0.115118
0.116246
0.117476
0.118778
0.12011
0.121398
0.12254
0.123391
0.123767
0.123446
0.122188
0.119779
0.116099
0.111229
0.105568
0.0999688
0.0958349
0.1126
0.113037
0.113499
0.11399
0.114515
0.115078
0.115686
0.116344
0.117057
0.11783
0.118668
0.119573
0.120557
0.121643
0.122849
0.124167
0.125571
0.127017
0.128434
0.129717
0.130719
0.131251
0.131076
0.129938
0.127596
0.123898
0.118896
0.112984
0.107054
0.10261
0.119018
0.119477
0.119962
0.120478
0.121031
0.121625
0.122268
0.122963
0.123718
0.124538
0.125426
0.126387
0.127432
0.128587
0.129873
0.131282
0.13279
0.134352
0.135896
0.137317
0.138463
0.139137
0.139092
0.138051
0.135746
0.131996
0.126823
0.120618
0.114317
0.109533
0.125823
0.126311
0.126826
0.127375
0.12796
0.12859
0.129269
0.130005
0.130803
0.131671
0.132612
0.13363
0.134739
0.135967
0.137335
0.138838
0.140451
0.142128
0.1438
0.145356
0.14664
0.147446
0.147515
0.146548
0.144251
0.14041
0.135024
0.128482
0.121767
0.116609
0.133076
0.133587
0.134129
0.134705
0.135321
0.135985
0.136703
0.137481
0.138325
0.139244
0.14024
0.141319
0.142495
0.143797
0.14525
0.14685
0.148569
0.150365
0.152162
0.15385
0.155264
0.156192
0.156357
0.15544
0.153119
0.149149
0.143505
0.136578
0.129404
0.123836
0.140742
0.141286
0.141861
0.142472
0.143126
0.143828
0.144588
0.14541
0.146304
0.147275
0.148329
0.149472
0.150717
0.152097
0.153639
0.155336
0.157165
0.159079
0.161002
0.162818
0.164358
0.165396
0.16564
0.164749
0.162371
0.158232
0.152282
0.144917
0.137233
0.131219
0.148894
0.149465
0.150068
0.150711
0.151399
0.15214
0.152942
0.153811
0.154756
0.155783
0.156898
0.158107
0.159425
0.160886
0.162518
0.164317
0.166257
0.168291
0.170339
0.17228
0.173937
0.175073
0.175378
0.174487
0.172018
0.167666
0.161359
0.153503
0.145257
0.138755
0.1575
0.158106
0.158747
0.159428
0.160157
0.160941
0.161788
0.162706
0.163704
0.164789
0.165967
0.167245
0.168638
0.170184
0.17191
0.173813
0.175867
0.17802
0.180193
0.182257
0.184026
0.185248
0.185596
0.184678
0.182083
0.177471
0.170753
0.162345
0.15348
0.146448
0.166634
0.167269
0.16794
0.168656
0.169422
0.170248
0.171142
0.172111
0.173166
0.174312
0.175557
0.176907
0.17838
0.180012
0.181835
0.183846
0.186014
0.188291
0.190587
0.19277
0.194641
0.195938
0.196308
0.195335
0.192574
0.187655
0.180469
0.171447
0.161903
0.154295
0.176253
0.176927
0.17764
0.178399
0.17921
0.180084
0.181028
0.182052
0.183165
0.184376
0.185691
0.187116
0.188671
0.190394
0.192318
0.194438
0.196726
0.199124
0.201544
0.203842
0.20581
0.207168
0.207541
0.206484
0.203517
0.198239
0.190522
0.18082
0.170531
0.162298
0.18645
0.187156
0.187903
0.1887
0.189553
0.190473
0.191469
0.19255
0.193725
0.195003
0.196391
0.197896
0.199537
0.201354
0.203382
0.205616
0.208023
0.210547
0.213088
0.215497
0.217553
0.218956
0.21931
0.218135
0.21492
0.209228
0.200917
0.190463
0.179364
0.170455
0.19718
0.197929
0.198722
0.199566
0.200469
0.20144
0.202492
0.203632
0.204872
0.20622
0.207684
0.209272
0.211002
0.212917
0.215053
0.217404
0.219935
0.222582
0.225246
0.227762
0.229898
0.231332
0.231644
0.230319
0.22681
0.220646
0.21167
0.20039
0.188407
0.178767
0.208542
0.209325
0.210155
0.211039
0.211988
0.21301
0.214118
0.215321
0.216629
0.218051
0.219596
0.22127
0.223093
0.225111
0.227358
0.229829
0.232486
0.235263
0.238043
0.240661
0.242865
0.244315
0.244558
0.243048
0.239195
0.232498
0.222785
0.2106
0.197658
0.18723
0.220476
0.221307
0.222187
0.223123
0.224127
0.225207
0.226377
0.227645
0.229024
0.230525
0.232153
0.233917
0.235838
0.237963
0.240326
0.242922
0.245709
0.248609
0.251509
0.254224
0.256487
0.257935
0.258084
0.25635
0.252103
0.244806
0.234279
0.221103
0.207123
0.195846
0.233098
0.233967
0.234888
0.23587
0.236923
0.23806
0.239293
0.24063
0.242085
0.243667
0.245384
0.247244
0.249267
0.251502
0.253987
0.25671
0.259626
0.262657
0.26567
0.268476
0.270786
0.272213
0.272239
0.270239
0.265543
0.257577
0.246153
0.2319
0.216798
0.204609
0.246346
0.247267
0.248243
0.249283
0.250397
0.251598
0.252899
0.254309
0.255843
0.257511
0.25932
0.26128
0.26341
0.26576
0.268367
0.271222
0.274272
0.277426
0.280557
0.283449
0.285796
0.287182
0.287055
0.284747
0.279542
0.270833
0.258425
0.243001
0.226689
0.21352
0.260342
0.261305
0.262326
0.263416
0.264587
0.265851
0.267222
0.268709
0.270328
0.272087
0.273994
0.276057
0.278299
0.280768
0.283504
0.286491
0.289672
0.292961
0.296201
0.299172
0.301541
0.302864
0.302549
0.299885
0.294109
0.284579
0.271096
0.254404
0.23679
0.222574
0.275028
0.276047
0.277129
0.278284
0.279523
0.280858
0.282305
0.283873
0.28558
0.287433
0.289441
0.291613
0.293969
0.296563
0.299428
0.302552
0.305873
0.309284
0.312637
0.315679
0.318057
0.319294
0.318757
0.315687
0.309274
0.298839
0.284183
0.26612
0.247107
0.23177
0.290583
0.291646
0.292775
0.29398
0.295275
0.296674
0.298193
0.299841
0.301636
0.303586
0.305698
0.307982
0.310458
0.313177
0.31618
0.319442
0.322898
0.326443
0.329897
0.333
0.335369
0.336493
0.335696
0.332165
0.325043
0.313614
0.297685
0.278144
0.257635
0.241102
0.306857
0.307982
0.309177
0.310452
0.311822
0.313299
0.314901
0.316638
0.318528
0.320579
0.322801
0.325201
0.3278
0.330651
0.33379
0.337196
0.340794
0.34446
0.348017
0.351172
0.353517
0.354501
0.353401
0.349353
0.341446
0.32893
0.31162
0.290488
0.268376
0.250569
0.324069
0.325244
0.326492
0.327826
0.32926
0.330808
0.33249
0.334314
0.3363
0.338455
0.340788
0.343307
0.346033
0.349019
0.352302
0.355851
0.359587
0.363385
0.367032
0.370228
0.372525
0.373338
0.37189
0.367262
0.358489
0.344788
0.325984
0.303146
0.279324
0.260163
0.342151
0.343388
0.3447
0.3461
0.347604
0.349227
0.350991
0.352903
0.354986
0.357247
0.359695
0.362338
0.365195
0.368321
0.371747
0.375446
0.379327
0.383241
0.386981
0.390205
0.392436
0.393045
0.391202
0.385928
0.376203
0.361211
0.340794
0.316127
0.290483
0.269883
0.36113
0.362425
0.3638
0.36527
0.36685
0.368556
0.37041
0.372422
0.374611
0.376986
0.379556
0.382328
0.385323
0.388591
0.39217
0.396018
0.400039
0.404082
0.407898
0.411134
0.413275
0.413643
0.411352
0.40536
0.394591
0.378198
0.356047
0.329424
0.301845
0.27972
0.381059
0.382421
0.383868
0.385412
0.387072
0.388864
0.39081
0.392922
0.39522
0.397714
0.400411
0.403318
0.406454
0.409873
0.413604
0.417609
0.421775
0.425929
0.429823
0.433059
0.435085
0.435174
0.43238
0.425594
0.413685
0.395774
0.371757
0.343046
0.313412
0.289673
0.401979
0.403405
0.404921
0.406542
0.408284
0.410167
0.412214
0.414434
0.416849
0.419468
0.422298
0.425346
0.428631
0.432204
0.436096
0.440255
0.444563
0.44884
0.452793
0.456011
0.457892
0.457658
0.454299
0.446638
0.433484
0.413933
0.387917
0.356985
0.325175
0.299733
0.423938
0.425437
0.42703
0.428732
0.43056
0.432535
0.434682
0.43701
0.439545
0.442292
0.44526
0.448455
0.451894
0.455627
0.45968
0.464002
0.468457
0.472838
0.476851
0.480032
0.48174
0.48114
0.477152
0.468529
0.454021
0.4327
0.404542
0.371248
0.337136
0.309896
0.446956
0.448526
0.450194
0.451979
0.453899
0.455974
0.45823
0.460677
0.463339
0.466224
0.469337
0.472685
0.476284
0.480182
0.484407
0.488889
0.493486
0.497982
0.502033
0.505156
0.506655
0.505637
0.500949
0.49127
0.475292
0.452066
0.421623
0.385824
0.349285
0.320154
0.471085
0.472734
0.474487
0.476361
0.478376
0.480553
0.482921
0.485488
0.488281
0.491307
0.494572
0.49808
0.501845
0.505916
0.510311
0.514962
0.519705
0.524294
0.528382
0.531426
0.532683
0.531195
0.525733
0.514899
0.497328
0.472055
0.439173
0.400718
0.361621
0.330503
0.496363
0.498089
0.499926
0.501891
0.504006
0.506292
0.508779
0.511476
0.514409
0.517584
0.521007
0.524682
0.52862
0.532868
0.537444
0.54226
0.547144
0.551837
0.555936
0.558875
0.559847
0.557829
0.551512
0.539417
0.520123
0.492654
0.457179
0.41592
0.374135
0.340933
0.522841
0.524655
0.526582
0.528644
0.530862
0.533259
0.535867
0.538695
0.54177
0.545101
0.548688
0.552536
0.556654
0.561087
0.565842
0.570833
0.57586
0.580633
0.58474
0.587548
0.588195
0.585586
0.578326
0.56486
0.543705
0.513886
0.475653
0.431433
0.386824
0.351439
0.550543
0.55244
0.554459
0.556621
0.558949
0.561466
0.564205
0.567175
0.570403
0.573897
0.577657
0.581686
0.585992
0.590613
0.595559
0.60072
0.605885
0.610747
0.614831
0.617475
0.617748
0.614478
0.606183
0.591223
0.568064
0.535733
0.494578
0.447242
0.399679
0.362014
0.579522
0.581514
0.583633
0.585902
0.588343
0.590983
0.593856
0.596971
0.600357
0.604021
0.60796
0.612178
0.616679
0.621498
0.626633
0.631972
0.637275
0.642198
0.646254
0.648703
0.648554
0.64455
0.635121
0.618541
0.593226
0.558215
0.513965
0.463351
0.412696
0.372649
0.609821
0.611905
0.614125
0.616503
0.619064
0.621835
0.624851
0.62812
0.631674
0.635516
0.639644
0.644059
0.648761
0.653782
0.659117
0.664629
0.670064
0.675055
0.679045
0.681262
0.68063
0.675812
0.665141
0.646807
0.619177
0.581312
0.533793
0.479743
0.425863
0.383339
0.641491
0.643678
0.646006
0.648499
0.651184
0.654088
0.65725
0.660678
0.664403
0.66843
0.672754
0.677374
0.682286
0.687517
0.69305
0.698743
0.704308
0.709335
0.713252
0.715198
0.714025
0.708309
0.696282
0.676051
0.645939
0.60504
0.554071
0.496419
0.439178
0.394074
0.674558
0.676846
0.679284
0.681898
0.684713
0.687761
0.69108
0.694677
0.698586
0.702808
0.707337
0.71217
0.7173
0.722747
0.728488
0.734354
0.74004
0.745109
0.748908
0.750534
0.748753
0.742044
0.728539
0.70626
0.673492
0.629375
0.574775
0.513361
0.452626
0.404849
0.709077
0.711478
0.714035
0.716775
0.719727
0.722923
0.726403
0.730175
0.734273
0.738697
0.743441
0.748496
0.753851
0.759522
0.765469
0.771516
0.777318
0.78239
0.786058
0.78732
0.784861
0.77706
0.761949
0.737462
0.701858
0.654328
0.595912
0.530568
0.466204
0.415654
0.745091
0.747602
0.75028
0.753152
0.756248
0.759601
0.763253
0.76721
0.771508
0.776146
0.781112
0.786399
0.791988
0.797887
0.80405
0.810267
0.816174
0.821252
0.824736
0.825578
0.822358
0.813358
0.796499
0.769636
0.731006
0.679871
0.617453
0.54802
0.479898
0.426483
0.782655
0.785288
0.788095
0.791105
0.79435
0.797863
0.801692
0.805839
0.810344
0.815203
0.820401
0.825928
0.831759
0.837893
0.844268
0.850664
0.856667
0.861706
0.864987
0.865352
0.861289
0.850976
0.832222
0.802809
0.760957
0.706013
0.639402
0.565714
0.493703
0.437328
0.821801
0.824555
0.827494
0.830648
0.83405
0.837736
0.841752
0.846102
0.850825
0.855914
0.861354
0.867131
0.873212
0.879587
0.886185
0.892744
0.898829
0.903824
0.906841
0.906659
0.901659
0.889905
0.869101
0.83695
0.791674
0.732719
0.661727
0.583628
0.507606
0.448182
0.862588
0.865475
0.868555
0.87186
0.875425
0.879287
0.883495
0.888054
0.893001
0.898331
0.904022
0.910057
0.916397
0.923023
0.929836
0.936562
0.942713
0.947615
0.95034
0.949545
0.943509
0.930184
0.907163
0.872082
0.823172
0.759996
0.684432
0.60176
0.521598
0.459036
0.905067
0.908087
0.91131
0.914771
0.918505
0.922551
0.926962
0.931738
0.93692
0.9425
0.948452
0.954756
0.961365
0.968239
0.975274
0.982152
0.98835
0.993151
0.99551
0.994021
0.986838
0.971797
0.946382
0.908168
0.855409
0.787803
0.70748
0.620084
0.535668
0.469887
0.949294
0.952454
0.955826
0.959445
0.963351
0.967584
0.972201
0.977201
0.982628
0.988467
0.994692
1.00127
1.00815
1.01529
1.02254
1.02956
1.03579
1.04043
1.04239
1.04013
1.03168
1.01478
0.986781
0.945224
0.888394
0.816144
0.730871
0.638597
0.549808
0.480722
0.99524
0.998542
1.00207
1.00586
1.00995
1.01439
1.01923
1.02448
1.03016
1.03628
1.04279
1.04966
1.05682
1.06421
1.07168
1.07884
1.08508
1.08954
1.09101
1.08787
1.07804
1.0591
1.02833
0.983205
0.922079
0.844972
0.754567
0.657272
0.564003
0.49154
1.04293
1.0464
1.0501
1.05409
1.05838
1.06304
1.06812
1.07362
1.07958
1.08599
1.09279
1.09996
1.10741
1.11507
1.12274
1.13003
1.13625
1.14047
1.1414
1.13729
1.12593
1.10479
1.07103
1.02212
0.95647
0.87429
0.778567
0.676105
0.578246
0.502329
1.09257
1.09619
1.10006
1.10423
1.10873
1.11361
1.11894
1.1247
1.13095
1.13765
1.14476
1.15224
1.15999
1.1679
1.17579
1.18318
1.18935
1.19329
1.19358
1.18839
1.17534
1.15181
1.11486
1.06192
0.99151
0.904045
0.802829
0.695069
0.592524
0.513088
1.14408
1.14788
1.15194
1.15631
1.16103
1.16615
1.17173
1.17777
1.18431
1.19132
1.19875
1.20654
1.21459
1.22277
1.23086
1.23834
1.24442
1.248
1.24759
1.24119
1.22631
1.20019
1.15982
1.10261
1.0272
0.934238
0.82735
0.714159
0.606828
0.523805
1.19763
1.2016
1.20584
1.21041
1.21535
1.2207
1.22655
1.23287
1.23972
1.24705
1.25481
1.26292
1.27128
1.27972
1.288
1.29554
1.30149
1.30466
1.30343
1.29569
1.2788
1.24988
1.20585
1.14413
1.06348
0.96481
0.852086
0.733346
0.621144
0.534481
1.25314
1.2573
1.26175
1.26654
1.27171
1.27733
1.28345
1.29007
1.29724
1.3049
1.31299
1.32144
1.3301
1.33881
1.34726
1.35484
1.3606
1.36327
1.36114
1.35191
1.33283
1.30091
1.25296
1.18647
1.10035
0.995762
0.877034
0.752625
0.635465
0.545103
1.31079
1.31513
1.31978
1.32479
1.3302
1.33608
1.3425
1.34942
1.35691
1.36492
1.37336
1.38214
1.39112
1.40008
1.40868
1.41626
1.42179
1.4239
1.42072
1.40985
1.38838
1.3532
1.30109
1.22958
1.13773
1.02703
0.902147
0.771968
0.649777
0.555673
1.37053
1.37508
1.37995
1.38519
1.39087
1.39702
1.40373
1.41098
1.41881
1.42717
1.43596
1.44509
1.45438
1.46358
1.47232
1.47986
1.48509
1.48652
1.48219
1.46951
1.44544
1.40678
1.35024
1.27343
1.17564
1.05862
0.927423
0.791369
0.664071
0.566179
1.43253
1.43727
1.44236
1.44784
1.45377
1.46021
1.46723
1.47481
1.48299
1.4917
1.50086
1.51034
1.51993
1.52936
1.53821
1.54567
1.55053
1.55121
1.54556
1.53088
1.50398
1.46157
1.40033
1.31797
1.21398
1.09045
0.952812
0.810801
0.678336
0.576624
1.49671
1.50168
1.507
1.51274
1.51895
1.52569
1.53303
1.54096
1.5495
1.55859
1.56811
1.57794
1.58783
1.59749
1.60641
1.61373
1.61814
1.61792
1.61083
1.59396
1.564
1.51757
1.45136
1.36317
1.25275
1.12254
0.978315
0.830258
0.692562
0.586996
1.56326
1.56845
1.57401
1.58
1.58649
1.59354
1.60122
1.60949
1.61841
1.62788
1.63777
1.64795
1.65815
1.66799
1.67696
1.68408
1.68795
1.68674
1.67799
1.65872
1.62545
1.57472
1.50324
1.40896
1.29188
1.1548
1.00388
0.849713
0.706738
0.5973
1.63215
1.63757
1.64339
1.64966
1.65645
1.66381
1.67184
1.68048
1.68978
1.69964
1.70991
1.72044
1.73092
1.74094
1.7499
1.75676
1.75999
1.75761
1.74707
1.72517
1.68831
1.63301
1.55597
1.45532
1.33137
1.18725
1.02951
0.869162
0.720856
0.607521
1.70353
1.70919
1.71526
1.72181
1.72889
1.73659
1.74497
1.75399
1.76368
1.77393
1.78459
1.79546
1.80621
1.81637
1.82527
1.83179
1.83427
1.8306
1.81803
1.79325
1.75253
1.69234
1.60944
1.50216
1.37112
1.2198
1.05514
0.888578
0.734904
0.617669
1.77738
1.78328
1.78963
1.79648
1.80388
1.81192
1.82067
1.83008
1.84017
1.85083
1.86186
1.87307
1.88406
1.89433
1.90312
1.90921
1.91081
1.90566
1.89089
1.86296
1.8181
1.75271
1.66366
1.54948
1.41113
1.25247
1.08079
0.907958
0.748874
0.627727
1.85384
1.86
1.86662
1.87377
1.8815
1.88989
1.89902
1.90882
1.91933
1.93039
1.94181
1.95334
1.96455
1.97488
1.9835
1.98906
1.98965
1.98285
1.9656
1.93426
1.88492
1.81402
1.71851
1.59718
1.45132
1.28519
1.10641
0.927276
0.762757
0.637708
1.93293
1.93937
1.94628
1.95375
1.96182
1.97058
1.9801
1.99031
2.00123
2.01269
2.02448
2.03632
2.04773
2.05808
2.06644
2.07136
2.07078
2.06211
2.04217
2.00712
1.95299
1.87625
1.77398
1.64525
1.49169
1.31794
1.13198
0.946532
0.776544
0.647594
2.01481
2.02152
2.02873
2.03651
2.04494
2.05406
2.06398
2.0746
2.08594
2.09781
2.10997
2.12209
2.13366
2.14397
2.15199
2.15615
2.15422
2.14349
2.12055
2.08147
2.02222
1.93931
1.82997
1.69358
1.53214
1.35068
1.15748
0.9657
0.790226
0.657399
2.09951
2.1065
2.11402
2.12214
2.13092
2.14043
2.15075
2.16179
2.17355
2.18583
2.19833
2.21073
2.22242
2.23261
2.24019
2.24344
2.23998
2.22692
2.20073
2.1573
2.09259
2.00316
1.88646
1.74217
1.57268
1.38339
1.18289
0.984782
0.803797
0.667106
2.18711
2.1944
2.20224
2.2107
2.21985
2.22975
2.24049
2.25196
2.26414
2.27682
2.28966
2.30229
2.31404
2.32405
2.33108
2.33327
2.32808
2.31245
2.28266
2.23453
2.16398
2.0677
1.94334
1.79092
1.61323
1.41603
1.20818
1.00375
0.817247
0.676731
2.2777
2.28529
2.29346
2.30228
2.31181
2.32211
2.33328
2.34518
2.35779
2.37086
2.38402
2.39685
2.40862
2.41835
2.4247
2.42565
2.41849
2.4
2.36632
2.31313
2.23638
2.1329
2.00059
1.83982
1.65378
1.44858
1.23334
1.02262
0.830571
0.686255
2.37137
2.37928
2.38779
2.39697
2.40689
2.41761
2.42922
2.44156
2.45459
2.46804
2.4815
2.49448
2.50619
2.51555
2.52109
2.52061
2.51124
2.4896
2.45164
2.393
2.30968
2.19866
2.05811
1.88878
1.69425
1.48099
1.25834
1.04136
0.843758
0.695696
2.46822
2.47646
2.48532
2.49488
2.50521
2.51635
2.5284
2.54118
2.55463
2.56845
2.58217
2.59527
2.60685
2.61572
2.62027
2.61815
2.6063
2.58116
2.53859
2.47412
2.38385
2.26493
2.11587
1.93779
1.73464
1.51328
1.28318
1.05997
0.856806
0.705035
2.56835
2.57693
2.58615
2.59611
2.60685
2.61843
2.63092
2.64414
2.65802
2.67218
2.68614
2.69928
2.71064
2.71889
2.72229
2.7183
2.70367
2.67471
2.6271
2.55639
2.45876
2.33161
2.17376
1.98675
1.77489
1.54538
1.30781
1.07844
0.869705
0.714293
2.67188
2.68081
2.69041
2.70076
2.71193
2.72395
2.7369
2.75056
2.76484
2.77933
2.79348
2.80661
2.81764
2.82513
2.82718
2.82105
2.80333
2.77016
2.71714
2.63976
2.53439
2.39868
2.23179
2.03566
1.81499
1.5773
1.33226
1.09678
0.882453
0.723448
2.77892
2.78821
2.7982
2.80897
2.82056
2.83304
2.84645
2.86055
2.87522
2.89
2.90429
2.91732
2.92792
2.93449
2.93497
2.92643
2.90528
2.86751
2.80861
2.72413
2.61061
2.466
2.28982
2.08444
1.85487
1.60899
1.35647
1.11496
0.895039
0.732525
2.88958
2.89925
2.90964
2.92083
2.93288
2.94581
2.95968
2.97421
2.98925
3.00429
3.01866
3.03151
3.04153
3.047
3.04567
3.03442
3.00946
2.96666
2.90147
2.80946
2.6874
2.53356
2.34786
2.13308
1.89455
1.64047
1.38046
1.133
0.907465
0.741501
3.00402
3.01407
3.02486
3.03649
3.04899
3.06238
3.07671
3.09166
3.10705
3.1223
3.13668
3.14925
3.15856
3.16273
3.15933
3.14503
3.11587
3.06761
2.99563
2.89562
2.76462
2.60124
2.40581
2.1815
1.93394
1.67169
1.40418
1.15088
0.919718
0.750402
3.12232
3.13277
3.14399
3.15607
3.16903
3.18289
3.19768
3.21303
3.22874
3.24416
3.25848
3.27064
3.27907
3.28172
3.27595
3.25824
3.22445
3.17026
3.09104
2.98258
2.84225
2.66903
2.46365
2.22971
1.97308
1.70267
1.42767
1.1686
0.931802
0.759204
3.24463
3.25549
3.26715
3.27969
3.29313
3.30746
3.3227
3.33845
3.35445
3.36998
3.38414
3.39577
3.40314
3.40401
3.39557
3.37405
3.3352
3.27458
3.18758
3.07021
2.92016
2.73681
2.52129
2.27763
2.01188
1.73336
1.45086
1.18617
0.943703
0.767935
3.3711
3.3824
3.39451
3.40752
3.42144
3.43625
3.45194
3.46806
3.48431
3.49988
3.51378
3.52473
3.53082
3.52964
3.51817
3.49243
3.44802
3.38046
3.28522
3.15847
2.99832
2.80456
2.57874
2.32528
2.05038
1.76378
1.47379
1.20359
0.955429
0.776571
3.50191
3.51364
3.52622
3.53971
3.55412
3.5694
3.58553
3.602
3.61845
3.63399
3.64752
3.65761
3.6622
3.65867
3.64379
3.61338
3.5629
3.48787
3.38382
3.24723
3.07662
2.87218
2.63589
2.37258
2.0885
1.79391
1.49642
1.22085
0.966965
0.785143
3.6372
3.64939
3.66244
3.67642
3.69132
3.70708
3.72364
3.74042
3.75701
3.77243
3.78545
3.7945
3.79732
3.79111
3.77242
3.73684
3.67975
3.59669
3.48335
3.33646
3.15502
2.93966
2.69276
2.41955
2.12629
1.82375
1.51876
1.23795
0.978319
0.793622
3.77715
3.7898
3.80334
3.81783
3.83322
3.84945
3.86641
3.88348
3.90015
3.91533
3.92769
3.93549
3.93627
3.92701
3.90406
3.8628
3.79855
3.70689
3.58367
3.42602
3.23342
3.00689
2.74926
2.46613
2.16366
1.85329
1.54077
1.25491
0.989476
0.802043
3.92192
3.93505
3.9491
3.96409
3.97999
3.99668
4.01402
4.03132
4.048
4.06284
4.07437
4.08067
4.07909
4.06639
4.03869
3.9912
3.91918
3.81832
3.68474
3.51589
3.31179
3.07389
2.8054
2.51234
2.20066
1.88254
1.5625
1.27172
1.00045
0.810376
4.07171
4.08534
4.0999
4.11541
4.1318
4.14894
4.16664
4.18412
4.20072
4.21507
4.22558
4.23013
4.22585
4.20927
4.17631
4.122
4.0416
3.93096
3.78643
3.60593
3.39001
3.14056
2.86111
2.55813
2.23723
1.91148
1.58388
1.28838
1.01122
0.818658
4.2267
4.24084
4.25592
4.27196
4.28885
4.30643
4.32444
4.34204
4.35845
4.37218
4.38146
4.38396
4.37658
4.35566
4.31688
4.25513
4.1657
4.04466
3.88868
3.69612
3.4681
3.2069
2.91641
2.60353
2.2734
1.94014
1.60496
1.3049
1.0218
0.826858
4.38708
4.40175
4.41737
4.43394
4.45132
4.46931
4.48761
4.50525
4.52137
4.53429
4.5421
4.54224
4.53136
4.50558
4.46039
4.39055
4.29144
4.15937
3.99138
3.78634
3.54592
3.27282
2.97121
2.64848
2.30911
1.9685
1.62569
1.3213
1.03217
0.835013
4.55307
4.56828
4.58445
4.60156
4.61943
4.63781
4.65634
4.67394
4.68963
4.70157
4.70764
4.70505
4.69022
4.65901
4.60678
4.52817
4.41868
4.27495
4.09446
3.87655
3.6235
3.33836
3.02557
2.69303
2.34442
1.99658
1.64611
1.33755
1.04236
0.843091
4.72488
4.74065
4.75738
4.77503
4.79338
4.81213
4.83083
4.8483
4.86342
4.87415
4.87819
4.87248
4.85319
4.81598
4.75603
4.66792
4.54736
4.39137
4.19782
3.96666
3.70072
3.40342
3.07939
2.73713
2.37925
2.02437
1.66617
1.3537
1.05234
0.851132
4.90273
4.91908
4.93639
4.95457
4.97339
4.99247
5.01129
5.02852
5.0429
5.05218
5.05386
5.0446
5.0203
4.97644
4.90805
4.80971
4.67737
4.50846
4.3014
4.05664
3.7776
3.46803
3.13272
2.78082
2.41366
2.05188
1.68592
1.3697
1.06214
0.859101
5.08686
5.10381
5.12169
5.14042
5.15969
5.17906
5.19792
5.21478
5.22824
5.2358
5.23476
5.22147
5.19157
5.14038
5.06282
4.95347
4.80862
4.62619
4.40509
4.14639
3.85404
3.53213
3.18549
2.82407
2.44759
2.07913
1.7053
1.38562
1.07172
0.867039
5.2775
5.29506
5.31354
5.3328
5.3525
5.37213
5.39093
5.4073
5.41961
5.42516
5.42099
5.40315
5.36702
5.30776
5.22023
5.09908
4.94098
4.74441
4.50885
4.2359
3.93007
3.59575
3.23776
2.8669
2.48109
2.10612
1.72438
1.4014
1.08112
0.87491
5.4749
5.49309
5.51217
5.53197
5.55208
5.57189
5.59055
5.60625
5.6172
5.6204
5.61266
5.5897
5.54666
5.47856
5.38023
5.24647
5.07439
4.86308
4.61257
4.32508
4.00561
3.65883
3.28945
2.90932
2.5141
2.13287
1.74308
1.41711
1.0903
0.882758
5.67932
5.69815
5.71784
5.73817
5.75865
5.77859
5.79699
5.81186
5.82117
5.82165
5.80985
5.78116
5.73046
5.65269
5.54271
5.3955
5.20871
4.98206
4.71622
4.41393
4.08068
3.72141
3.34064
2.95133
2.54669
2.15937
1.76147
1.4327
1.09931
0.890543
5.89102
5.91051
5.93081
5.95166
5.97249
5.99248
6.01049
6.02432
6.0317
6.02906
6.01267
5.97757
5.91843
5.83012
5.7076
5.54609
5.34386
5.10131
4.8197
4.50236
4.1552
3.78345
3.39123
2.99294
2.57877
2.18566
1.77949
1.44822
1.10811
0.898314
6.11026
6.13044
6.15137
6.17272
6.19384
6.2138
6.23127
6.24384
6.24897
6.24275
6.22118
6.17895
6.11052
6.01075
5.87476
5.69811
5.47971
5.22071
4.92299
4.59039
4.22921
3.84497
3.44132
3.03417
2.61044
2.21172
1.79721
1.46364
1.11673
0.906028
6.33735
6.35822
6.37978
6.40162
6.42298
6.44281
6.45959
6.47063
6.47315
6.46285
6.43547
6.38533
6.30669
6.19452
6.04412
5.85145
5.61618
5.34021
5.026
4.67794
4.30265
3.90596
3.49082
3.07502
2.64161
2.2376
1.81456
1.47901
1.12515
0.913736
6.57258
6.59417
6.61635
6.63865
6.6602
6.67978
6.69567
6.70492
6.70441
6.68948
6.65559
6.59668
6.5069
6.38131
6.21553
6.00599
5.75316
5.4597
5.12872
4.76504
4.37556
3.96645
3.53983
3.1155
2.67237
2.26327
1.83162
1.49429
1.1334
0.921392
6.81625
6.83857
6.86139
6.88412
6.90578
6.92499
6.93978
6.9469
6.94292
6.92277
6.88161
6.81303
6.71107
6.57103
6.38889
6.16162
5.89056
5.57915
5.23107
4.85162
4.44787
4.02643
3.58825
3.15565
2.70263
2.2888
1.84831
1.50953
1.14144
0.92905
7.0687
7.09177
7.11521
7.13834
7.16004
7.17872
7.19217
7.19682
7.18885
7.1628
7.11354
7.03431
6.91912
6.76355
6.56405
6.31821
6.02826
5.69846
5.33304
4.93771
4.51965
4.08592
3.63618
3.19546
2.7325
2.31414
1.86473
1.5247
1.14934
0.936663
7.33025
7.35409
7.37814
7.40163
7.42327
7.44126
7.45309
7.45485
7.44236
7.40969
7.35143
7.26052
7.13096
6.95876
6.7409
6.47566
6.16621
5.8176
5.43457
5.02327
4.59081
4.14494
3.68354
3.23497
2.76187
2.33936
1.88077
1.53985
1.15703
0.944284
7.60124
7.62587
7.65054
7.67433
7.69579
7.7129
7.72281
7.72124
7.7036
7.66349
7.59528
7.49157
7.34647
7.1565
6.91929
6.63383
6.30428
5.93649
5.53567
5.10831
4.66145
4.2035
3.73043
3.27416
2.79087
2.36442
1.89657
1.55492
1.16459
0.951866
7.88206
7.90749
7.93274
7.95678
7.97793
7.99393
8.00157
7.99617
7.9727
7.92429
7.84509
7.7274
7.56555
7.35666
7.09909
6.79263
6.44244
6.05511
5.63627
5.19283
4.73148
4.26162
3.77675
3.31311
2.81938
2.38941
1.91201
1.57
1.17195
0.959464
8.17306
8.19931
8.22513
8.24934
8.27004
8.28467
8.28964
8.27985
8.24978
8.19213
8.10081
7.96792
7.78805
7.55907
7.28015
6.95193
6.58057
6.17338
5.7364
5.27684
4.80099
4.31933
3.82262
3.35178
2.84754
2.41424
1.9272
1.58501
1.17918
0.967024
8.47465
8.50173
8.52809
8.55238
8.57244
8.58542
8.58727
8.57245
8.53498
8.46705
8.36242
8.21302
8.01382
7.76358
7.46234
7.11164
6.71863
6.29132
5.836
5.36033
4.86991
4.37665
3.86794
3.39024
2.87522
2.43902
1.94206
1.60003
1.18623
0.9746
8.78725
8.81516
8.84203
8.86628
8.88551
8.89648
8.89471
8.87417
8.82837
8.74905
8.62985
8.46258
8.24271
7.97002
7.64552
7.27164
6.85654
6.40884
5.93512
5.44333
4.93834
4.43359
3.91287
3.42846
2.90261
2.46368
1.95673
1.615
1.19318
0.98215
9.1113
9.14006
9.16738
9.19146
9.2096
9.21818
9.21221
9.18516
9.13005
9.03814