/*--------------------------------*- C++ -*----------------------------------*\
  =========                 |
  \\      /  F ield         | OpenFOAM: The Open Source CFD Toolbox
   \\    /   O peration     | Website:  https://openfoam.org
    \\  /    A nd           | Version:  6.0
     \\/     M anipulation  |
\*---------------------------------------------------------------------------*/
FoamFile
{
    version     2.0;
    format      ascii;
    class       surfaceScalarField;
    location    "1";
    object      phi;
}
// * * * * * * * * * * * * * * * * * * * * * * * * * * * * * * * * * * * * * //

dimensions      [0 3 -1 0 0 0 0];

internalField   nonuniform List<scalar> 
30763
(
-5.52786e-05
4.47949e-05
5.68354e-05
-5.3456e-05
5.25125e-05
-5.13194e-05
6.15615e-05
-4.88093e-05
7.21724e-05
-4.5862e-05
8.46117e-05
-4.23959e-05
9.92e-05
-3.83287e-05
0.000116311
-3.35251e-05
0.000136353
-2.78822e-05
0.000159876
-2.12099e-05
0.00018742
-1.33428e-05
0.000219717
-4.05572e-06
0.000257551
6.90307e-06
0.000301848
1.98321e-05
0.000353666
3.50553e-05
0.000414219
5.29636e-05
0.00048482
7.40047e-05
0.000566893
9.86663e-05
0.000661921
0.000127475
0.000771291
0.00016099
0.000896069
0.00019978
0.00103663
0.000244344
0.0011921
0.000295083
0.00135923
0.000352176
0.00153092
0.000415365
0.00169365
0.00048358
0.00182352
0.000554286
0.00188035
0.00062255
0.00179954
0.000679801
0.00148109
0.000765623
0.000711521
-5.31675e-05
4.33044e-05
5.46652e-05
-5.14132e-05
5.07627e-05
-4.93564e-05
5.95073e-05
-4.69402e-05
6.97606e-05
-4.41033e-05
8.17765e-05
-4.07675e-05
9.58684e-05
-3.68539e-05
0.000112398
-3.22331e-05
0.000131736
-2.68063e-05
0.000154451
-2.0392e-05
0.000181009
-1.2831e-05
0.000212158
-3.90915e-06
0.000248632
6.61728e-06
0.000291323
1.9035e-05
0.000341251
3.36577e-05
0.000399598
5.08609e-05
0.000467618
7.1078e-05
0.000546678
9.47801e-05
0.000638221
0.00012248
0.000743594
0.000154726
0.000863828
0.000192075
0.000999289
0.000235021
0.00114915
0.00028396
0.00131029
0.000339063
0.00147582
0.000400063
0.00163266
0.0004659
0.00175769
0.000534105
0.00181214
0.000599912
0.00173373
0.000655025
0.00142599
0.00073514
0.000685533
-5.11599e-05
4.18695e-05
5.2602e-05
-4.94717e-05
4.90784e-05
-4.74925e-05
5.75301e-05
-4.51678e-05
6.74394e-05
-4.24383e-05
7.9048e-05
-3.9229e-05
9.26625e-05
-3.5464e-05
0.000108634
-3.10192e-05
0.000127295
-2.57999e-05
0.000149232
-1.9632e-05
0.000174844
-1.2363e-05
0.000204891
-3.78759e-06
0.000240059
6.32894e-06
0.000281209
1.82628e-05
0.000329319
3.2316e-05
0.000385547
4.88508e-05
0.000451086
6.82847e-05
0.000527245
9.10744e-05
0.000615434
0.000117717
0.000716954
0.000148747
0.000832803
0.000184711
0.00096333
0.000226095
0.00110778
0.000273288
0.0012631
0.000326455
0.00142266
0.000385327
0.00157379
0.000448859
0.00169415
0.000514649
0.00174635
0.000578089
0.00167029
0.000631161
0.00137292
0.000705765
0.000660536
-4.92577e-05
4.04878e-05
5.06452e-05
-4.7632e-05
4.74568e-05
-4.57262e-05
5.56267e-05
-4.34879e-05
6.52053e-05
-4.08603e-05
7.64223e-05
-3.77716e-05
8.95777e-05
-3.41487e-05
0.000105013
-2.98725e-05
0.000123022
-2.4852e-05
0.000144213
-1.89199e-05
0.000168915
-1.19297e-05
0.000197902
-3.6843e-06
0.000231816
6.04215e-06
0.000271485
1.75158e-05
0.000317848
3.10278e-05
0.000372038
4.69265e-05
0.000435189
6.56155e-05
0.000508559
8.7535e-05
0.000593516
0.000113168
0.000691325
0.000143034
0.000802942
0.000177667
0.000928703
0.000217542
0.00106791
0.000263044
0.00121761
0.000314332
0.00137138
0.000371138
0.00151699
0.000432437
0.00163286
0.000495895
0.00168289
0.000557055
0.00160914
0.000608175
0.00132183
0.000677496
0.000636476
-4.74422e-05
3.91577e-05
4.87802e-05
-4.58772e-05
4.58958e-05
-4.40431e-05
5.37945e-05
-4.18891e-05
6.30546e-05
-3.93608e-05
7.38948e-05
-3.63886e-05
8.66086e-05
-3.29025e-05
0.000101527
-2.87879e-05
0.000118911
-2.39574e-05
0.000139384
-1.82504e-05
0.000163211
-1.15262e-05
0.00019118
-3.59554e-06
0.000223888
5.75911e-06
0.000262133
1.67943e-05
0.000306815
2.97905e-05
0.000359044
4.50832e-05
0.000419899
6.30608e-05
0.000490582
8.41502e-05
0.00057243
0.000108818
0.00066666
0.000137567
0.000774196
0.00017092
0.000895354
0.000209342
0.00102949
0.000253208
0.00117374
0.000302674
0.00132191
0.000357477
0.00146219
0.000416615
0.00157372
0.000477821
0.00162168
0.000536785
0.00155017
0.000586034
0.00127258
0.000650218
0.00061331
-4.57212e-05
3.78764e-05
4.70073e-05
-4.42138e-05
4.43922e-05
-4.2447e-05
5.20299e-05
-4.03722e-05
6.09838e-05
-3.7937e-05
7.14615e-05
-3.50751e-05
8.37505e-05
-3.1719e-05
9.81726e-05
-2.77587e-05
0.000114954
-2.31099e-05
0.000134736
-1.76182e-05
0.000157722
-1.11484e-05
0.000184711
-3.51831e-06
0.000216261
5.48137e-06
0.000253135
1.6098e-05
0.0002962
2.86017e-05
0.000346543
4.33153e-05
0.000405187
6.06144e-05
0.000473285
8.09092e-05
0.000552136
0.000104652
0.00064292
0.000132332
0.000746521
0.000164455
0.000863236
0.000201475
0.000992473
0.000243761
0.00113146
0.000291463
0.00127422
0.000344326
0.00140933
0.000401372
0.00151669
0.000460403
0.00156266
0.000517251
0.00149333
0.000564706
0.00122515
0.000623957
0.000591001
-4.40704e-05
3.66428e-05
4.53116e-05
-4.26191e-05
4.29445e-05
-4.09186e-05
5.03309e-05
-3.89218e-05
5.89899e-05
-3.65782e-05
6.91185e-05
-3.38236e-05
8.09985e-05
-3.05932e-05
9.49427e-05
-2.67809e-05
0.000111144
-2.23062e-05
0.000130262
-1.70203e-05
0.000152439
-1.07935e-05
0.000178486
-3.45085e-06
0.000208921
5.20966e-06
0.000244477
1.54263e-05
0.000285986
2.7459e-05
0.000334512
4.16196e-05
0.000391029
5.82686e-05
0.000456638
7.78036e-05
0.000532604
0.000100661
0.000620066
0.000127314
0.000719871
0.000158255
0.0008323
0.000193925
0.000956806
0.000234684
0.00109071
0.000280681
0.00122822
0.000331666
0.00135835
0.000386689
0.00146166
0.00044362
0.00150572
0.000498429
0.00143852
0.000544162
0.00117942
0.000598602
0.000569513
-4.25048e-05
3.5454e-05
4.36973e-05
-4.11064e-05
4.15497e-05
-3.94675e-05
4.86943e-05
-3.7543e-05
5.70694e-05
-3.52847e-05
6.68623e-05
-3.26311e-05
7.83488e-05
-2.95199e-05
9.18331e-05
-2.58492e-05
0.000107477
-2.1541e-05
0.000125955
-1.64527e-05
0.000147354
-1.04589e-05
0.000172494
-3.39121e-06
0.000201855
4.94465e-06
0.000236143
1.47784e-05
0.000276154
2.63607e-05
0.000322932
3.99913e-05
0.0003774
5.60189e-05
0.000440612
7.48254e-05
0.000513799
9.68337e-05
0.000598061
0.000122501
0.000694208
0.000152305
0.000802501
0.000186674
0.000922442
0.000225961
0.00105143
0.000270309
0.00118388
0.000319479
0.00130919
0.000372547
0.0014086
0.00042745
0.00145083
0.000480294
0.00138569
0.000524372
0.00113537
0.000574192
0.000548816
-4.09947e-05
3.43096e-05
4.2147e-05
-3.96483e-05
4.02067e-05
-3.8071e-05
4.71184e-05
-3.6219e-05
5.522e-05
-3.40457e-05
6.46894e-05
-3.14913e-05
7.57968e-05
-2.84961e-05
8.88381e-05
-2.49616e-05
0.000103945
-2.08134e-05
0.000121808
-1.59139e-05
0.000142457
-1.01429e-05
0.000166724
-3.33857e-06
0.000195053
4.68656e-06
0.00022812
1.41538e-05
0.000266689
2.53046e-05
0.000311784
3.84281e-05
0.000364279
5.38589e-05
0.000425182
7.1968e-05
0.000495692
9.31613e-05
0.00057687
0.000117882
0.00066949
0.000146593
0.000773794
0.00017971
0.000889327
0.000217576
0.00101356
0.000260333
0.00114113
0.000307748
0.00126177
0.000358927
0.00135742
0.000411872
0.00139788
0.000462823
0.00133473
0.000505308
0.00109288
0.000550616
0.000528877
-3.95641e-05
3.32063e-05
4.06692e-05
-3.82669e-05
3.89123e-05
-3.67463e-05
4.55996e-05
-3.49609e-05
5.34381e-05
-3.28657e-05
6.2596e-05
-3.04042e-05
7.33387e-05
-2.75183e-05
8.59537e-05
-2.41139e-05
0.000100544
-2.01187e-05
0.000117814
-1.54006e-05
0.000137742
-9.84343e-06
0.000161169
-3.29137e-06
0.000188504
4.4359e-06
0.000220395
1.35518e-05
0.000257575
2.42891e-05
0.000301049
3.69255e-05
0.000351644
5.17857e-05
0.000410324
6.92243e-05
0.000478255
8.96358e-05
0.000556461
0.000113448
0.000645682
0.000141107
0.000746139
0.000173019
0.00085742
0.000209515
0.000977075
0.000250735
0.00109991
0.000296455
0.00121606
0.00034581
0.00130807
0.000396866
0.00134683
0.000445991
0.00128562
0.000486944
0.00105195
0.000527926
0.000509669
-3.8178e-05
3.21441e-05
3.92469e-05
-3.6929e-05
3.76659e-05
-3.54655e-05
4.4137e-05
-3.37475e-05
5.17218e-05
-3.17311e-05
6.05796e-05
-2.93613e-05
7.09707e-05
-2.65825e-05
8.31749e-05
-2.33036e-05
9.72669e-05
-1.94556e-05
0.000113967
-1.49112e-05
0.0001332
-9.55897e-06
0.000155818
-3.24899e-06
0.000182196
4.19276e-06
0.000212955
1.29718e-05
0.000248798
2.33121e-05
0.00029071
3.54823e-05
0.000339476
4.97933e-05
0.000396014
6.65897e-05
0.000461461
8.62503e-05
0.000536803
0.000109188
0.000622747
0.000135837
0.000719494
0.000166588
0.000826671
0.000201764
0.000941899
0.000241502
0.00106018
0.000285585
0.00117197
0.000333178
0.00126047
0.000382411
0.00129759
0.000429776
0.00123825
0.000469254
0.00101247
0.000506007
0.000491164
-3.6866e-05
3.11199e-05
3.78908e-05
-3.56619e-05
3.64644e-05
-3.42503e-05
4.27274e-05
-3.25931e-05
5.00679e-05
-3.06484e-05
5.86369e-05
-2.8364e-05
6.86896e-05
-2.56858e-05
8.04984e-05
-2.2527e-05
9.4111e-05
-1.88201e-05
0.000110261
-1.4443e-05
0.000128825
-9.28783e-06
0.000150664
-3.21018e-06
0.00017612
3.95738e-06
0.000205789
1.24129e-05
0.000240344
2.23727e-05
0.000280753
3.40945e-05
0.000327755
4.78798e-05
0.000382231
6.40583e-05
0.000445283
8.29976e-05
0.000517867
0.000105096
0.000600651
0.000130772
0.000693823
0.000160405
0.000797042
0.000194309
0.000908002
0.000232618
0.00102187
0.000275122
0.00112948
0.000321014
0.00121459
0.000368489
0.00125012
0.000414157
0.00119259
0.000452214
0.000974439
0.000484919
0.000473337
-3.55883e-05
3.0134e-05
3.65811e-05
-3.44288e-05
3.53075e-05
-3.30706e-05
4.13699e-05
-3.1476e-05
4.8475e-05
-2.96047e-05
5.67655e-05
-2.74054e-05
6.64919e-05
-2.48265e-05
7.79195e-05
-2.17837e-05
9.10702e-05
-1.82127e-05
0.000106691
-1.39959e-05
0.00012461
-9.02954e-06
0.000145699
-3.17491e-06
0.000170268
3.7296e-06
0.000198886
1.18749e-05
0.000232201
2.14689e-05
0.000271161
3.27611e-05
0.000316465
4.60396e-05
0.000368953
6.16261e-05
0.0004297
7.98718e-05
0.000499623
0.000101163
0.000579362
0.000125903
0.000669085
0.000154461
0.000768485
0.00018714
0.000875324
0.000224069
0.000984943
0.00026505
0.00108849
0.000309302
0.00117033
0.000355079
0.00120434
0.000399112
0.00114855
0.000435801
0.000937745
0.000464547
0.000456161
-3.43816e-05
2.9183e-05
3.53318e-05
-3.32641e-05
3.41918e-05
-3.19538e-05
4.0061e-05
-3.04154e-05
4.69394e-05
-2.86099e-05
5.49618e-05
-2.64893e-05
6.43741e-05
-2.4003e-05
7.54347e-05
-2.10709e-05
8.81405e-05
-1.76301e-05
0.000103251
-1.35674e-05
0.00012055
-8.78267e-06
0.000140916
-3.14212e-06
0.000164629
3.50966e-06
0.000192236
1.13567e-05
0.000224356
2.05998e-05
0.00026192
3.1478e-05
0.000305588
4.42721e-05
0.000356161
5.92877e-05
0.000414684
7.68673e-05
0.000482045
9.73826e-05
0.000558851
0.000121223
0.000645248
0.000148745
0.000740968
0.000180243
0.000843832
0.000215844
0.00094935
0.000255355
0.00104899
0.000298024
0.00112767
0.000342165
0.0011602
0.000384621
0.0011061
0.00041999
0.000902403
0.000444956
0.000439615
-3.32027e-05
2.82676e-05
3.41238e-05
-3.21267e-05
3.31177e-05
-3.08659e-05
3.88004e-05
-2.93858e-05
4.54602e-05
-2.76484e-05
5.32239e-05
-2.56066e-05
6.23333e-05
-2.32122e-05
7.304e-05
-2.03871e-05
8.53171e-05
-1.70717e-05
9.99367e-05
-1.31569e-05
0.000116637
-8.54643e-06
0.000136307
-3.11171e-06
0.000159196
3.29743e-06
0.000185829
1.08581e-05
0.000216797
1.97635e-05
0.000253016
3.02453e-05
0.000295108
4.25714e-05
0.000343836
5.70401e-05
0.000400218
7.39792e-05
0.000465109
9.37477e-05
0.000539084
0.000116722
0.000622275
0.000143248
0.000714443
0.000173609
0.00081347
0.000207929
0.000915027
0.000246023
0.00101089
0.000287166
0.00108653
0.000329728
0.00111763
0.000370664
0.00106516
0.000404761
0.000868298
0.00042603
0.000423674
-3.20906e-05
2.73844e-05
3.29721e-05
-3.1053e-05
3.20815e-05
-2.9836e-05
3.75849e-05
-2.84072e-05
4.40342e-05
-2.67304e-05
5.1549e-05
-2.47611e-05
6.03668e-05
-2.24521e-05
7.07327e-05
-1.97294e-05
8.25968e-05
-1.65343e-05
9.67428e-05
-1.27621e-05
0.000112867
-8.31964e-06
0.000131866
-3.08273e-06
0.000153961
3.09297e-06
0.000179655
1.03782e-05
0.000209513
1.89595e-05
0.000244437
2.90591e-05
0.00028501
4.09374e-05
0.00033196
5.48787e-05
0.000386277
7.1202e-05
0.000448788
9.02524e-05
0.000520036
0.000112394
0.000600137
0.00013796
0.000688881
0.000167226
0.000784211
0.000200312
0.000881948
0.00023704
0.000974174
0.000276711
0.00104686
0.000317752
0.0010766
0.000357221
0.0010257
0.000390093
0.000835452
0.000407839
0.000408317
-3.09991e-05
2.65344e-05
3.18551e-05
-2.99999e-05
3.10841e-05
-2.88291e-05
3.64144e-05
-2.74547e-05
4.26606e-05
-2.58414e-05
4.99352e-05
-2.39453e-05
5.84716e-05
-2.17216e-05
6.85088e-05
-1.90981e-05
7.99748e-05
-1.60192e-05
9.36644e-05
-1.23837e-05
0.000109233
-8.10223e-06
0.000127586
-3.05548e-06
0.000148916
2.896e-06
0.000173705
9.91672e-06
0.000202494
1.8186e-05
0.000236169
2.79193e-05
0.000275279
3.93648e-05
0.000320514
5.2801e-05
0.000372844
6.85313e-05
0.000433059
8.68914e-05
0.000501678
0.000108231
0.000578798
0.000132874
0.000664238
0.000161085
0.000755998
0.000192981
0.000850048
0.000228394
0.000938756
0.000266645
0.0010086
0.000306219
0.00103701
0.000344275
0.000987633
0.000375965
0.000803754
0.000390264
0.000393522
-2.99723e-05
2.5714e-05
3.079e-05
-2.90088e-05
3.01217e-05
-2.78786e-05
3.52852e-05
-2.65517e-05
4.1336e-05
-2.49941e-05
4.83793e-05
-2.31649e-05
5.66449e-05
-2.10201e-05
6.63655e-05
-1.84911e-05
7.74479e-05
-1.55232e-05
9.06977e-05
-1.20195e-05
0.000105731
-7.89315e-06
0.000123461
-3.0291e-06
0.000144054
2.70667e-06
0.000167971
9.47282e-06
0.00019573
1.74426e-05
0.000228201
2.68221e-05
0.0002659
3.7854e-05
0.000309485
5.0802e-05
0.000359896
6.59629e-05
0.0004179
8.36585e-05
0.000483986
0.000104227
0.000558233
0.00012798
0.00064049
0.000155176
0.000728808
0.000185927
0.000819304
0.000220071
0.000904621
0.000256954
0.000971732
0.000295113
0.000998864
0.000331807
0.000950952
0.000362358
0.000773229
0.000373384
0.00037927
-2.89621e-05
2.49244e-05
2.97565e-05
-2.80343e-05
2.91951e-05
-2.6947e-05
3.41978e-05
-2.56705e-05
4.00598e-05
-2.41719e-05
4.68799e-05
-2.24105e-05
5.4884e-05
-2.03446e-05
6.42992e-05
-1.79073e-05
7.50119e-05
-1.50467e-05
8.78377e-05
-1.16693e-05
0.000102355
-7.69191e-06
0.000119485
-3.00379e-06
0.000139368
2.52471e-06
0.000162444
9.04616e-06
0.00018921
1.67272e-05
0.000220522
2.57681e-05
0.000256861
3.63997e-05
0.000298854
4.88802e-05
0.000347418
6.34929e-05
0.000403289
8.05489e-05
0.000466931
0.000100375
0.000538407
0.000123273
0.000617591
0.00014949
0.000702588
0.000179138
0.000789652
0.000212059
0.000871693
0.000247624
0.000936158
0.00028442
0.000962055
0.0003198
0.000915558
0.000349252
0.000743768
0.000357078
0.000365539
-2.80129e-05
2.41623e-05
2.87721e-05
-2.71176e-05
2.83009e-05
-2.60672e-05
3.31488e-05
-2.4834e-05
3.88291e-05
-2.33866e-05
4.54345e-05
-2.16868e-05
5.31869e-05
-1.96938e-05
6.2308e-05
-1.73441e-05
7.26643e-05
-1.45865e-05
8.50814e-05
-1.13313e-05
9.9102e-05
-7.49771e-06
0.000115652
-2.97875e-06
0.00013485
2.35006e-06
0.000157117
8.63589e-06
0.000182925
1.60398e-05
0.000213119
2.47537e-05
0.000248149
3.50024e-05
0.000288608
4.70312e-05
0.000335389
6.11167e-05
0.000389206
7.75577e-05
0.000450492
9.66699e-05
0.000519299
0.000118744
0.000595521
0.00014402
0.000677318
0.000172605
0.000761073
0.000204348
0.000839959
0.000238642
0.000901874
0.000274123
0.000926584
0.000308238
0.000881456
0.00033663
0.000715401
0.000341425
0.000352313
-2.70746e-05
2.3429e-05
2.7814e-05
-2.62123e-05
2.74404e-05
-2.52021e-05
3.21388e-05
-2.4016e-05
3.76437e-05
-2.26236e-05
4.40415e-05
-2.0987e-05
5.1551e-05
-1.90674e-05
6.03882e-05
-1.68027e-05
7.0401e-05
-1.41447e-05
8.2424e-05
-1.10065e-05
9.59655e-05
-7.31072e-06
0.000111958
-2.95458e-06
0.000130496
2.18235e-06
0.000151982
8.24179e-06
0.000176867
1.53787e-05
0.000205984
2.37791e-05
0.00023975
3.36569e-05
0.000278729
4.52537e-05
0.000323796
5.88312e-05
0.000375629
7.46806e-05
0.000434644
9.31052e-05
0.000500874
0.000114386
0.000574239
0.000138755
0.000652946
0.000166317
0.000733506
0.000196926
0.000809343
0.000229995
0.000868794
0.00026421
0.000892356
0.000297104
0.000848548
0.000324473
0.000688022
0.000326306
0.000339572
-2.61961e-05
2.27209e-05
2.69014e-05
-2.53641e-05
2.66095e-05
-2.4388e-05
3.1164e-05
-2.32419e-05
3.65e-05
-2.18967e-05
4.26983e-05
-2.0317e-05
4.99738e-05
-1.84648e-05
5.85376e-05
-1.62811e-05
6.82193e-05
-1.37183e-05
7.98624e-05
-1.06931e-05
9.2942e-05
-7.13029e-06
0.000108396
-2.93061e-06
0.000126298
2.02156e-06
0.000147031
7.863e-06
0.000171028
1.47434e-05
0.000199105
2.28407e-05
0.000231654
3.23648e-05
0.000269208
4.3543e-05
0.000312617
5.66327e-05
0.000362541
7.19126e-05
0.000419367
8.96755e-05
0.000483114
0.000110193
0.000553726
0.00013369
0.000629454
0.000160266
0.000706937
0.000189782
0.000779836
0.000221671
0.000836914
0.000254665
0.000859372
0.000286382
0.000816843
0.000312766
0.000661662
0.000311801
0.000327299
-2.53258e-05
2.20395e-05
2.60131e-05
-2.45246e-05
2.58098e-05
-2.35859e-05
3.02253e-05
-2.24836e-05
3.53982e-05
-2.11896e-05
4.14036e-05
-1.96684e-05
4.84533e-05
-1.78841e-05
5.67532e-05
-1.5779e-05
6.61155e-05
-1.33083e-05
7.73924e-05
-1.03913e-05
9.00267e-05
-6.95617e-06
0.000104962
-2.90727e-06
0.00012225
1.86734e-06
0.000142258
7.49916e-06
0.000165397
1.41322e-05
0.000192474
2.19395e-05
0.000223848
3.11203e-05
0.000260027
4.18983e-05
0.000301842
5.45182e-05
0.000349923
6.92498e-05
0.000404636
8.63763e-05
0.000465987
0.000106159
0.000533941
0.000128816
0.000606794
0.000154443
0.000681304
0.000182905
0.000751365
0.000213658
0.00080615
0.000245475
0.00082754
0.000276059
0.000786244
0.000301492
0.000636218
0.000297794
0.000315477
-2.45126e-05
2.13815e-05
2.5168e-05
-2.37389e-05
2.50377e-05
-2.28313e-05
2.93194e-05
-2.17655e-05
3.43354e-05
-2.05148e-05
4.01552e-05
-1.90461e-05
4.69874e-05
-1.73242e-05
5.50332e-05
-1.52942e-05
6.40877e-05
-1.29118e-05
7.50113e-05
-1.00997e-05
8.72162e-05
-6.78787e-06
0.000101652
-2.88394e-06
0.000118348
1.71954e-06
0.000137656
7.14942e-06
0.000159969
1.3545e-05
0.00018608
2.1072e-05
0.000216322
2.9925e-05
0.000251177
4.03157e-05
0.00029145
5.24839e-05
0.000337757
6.6688e-05
0.000390434
8.32019e-05
0.000449477
0.000102278
0.000514868
0.000124125
0.000584952
0.000148838
0.000656597
0.000176287
0.000723926
0.000205945
0.000776502
0.000236628
0.000796867
0.000266119
0.000756766
0.000290634
0.000611725
0.000284365
0.000304089
-2.37025e-05
2.07486e-05
2.43426e-05
-2.29575e-05
2.42948e-05
-2.20849e-05
2.84472e-05
-2.10603e-05
3.33115e-05
-1.98577e-05
3.8952e-05
-1.84436e-05
4.55742e-05
-1.6785e-05
5.33744e-05
-1.4828e-05
6.21321e-05
-1.25311e-05
7.2715e-05
-9.8193e-06
8.45061e-05
-6.62562e-06
9.84592e-05
-2.8613e-06
0.000114585
1.57773e-06
0.000133218
6.81362e-06
0.000154734
1.29803e-05
0.000179914
2.02389e-05
0.000209065
2.87737e-05
0.000242641
3.87944e-05
0.000281433
5.05271e-05
0.000326025
6.42241e-05
0.000376738
8.0148e-05
0.000433552
9.85434e-05
0.00049647
0.000119612
0.000563878
0.000143445
0.000632757
0.000169918
0.000697444
0.000198521
0.000747887
0.000228111
0.000767261
0.000256548
0.000728313
0.000280178
0.000588082
0.000271401
0.00029312
-2.29491e-05
2.01369e-05
2.35578e-05
-2.223e-05
2.3577e-05
-2.13864e-05
2.7605e-05
-2.03956e-05
3.23234e-05
-1.92327e-05
3.77913e-05
-1.78673e-05
4.42112e-05
-1.62662e-05
5.17751e-05
-1.43787e-05
6.02466e-05
-1.21635e-05
7.05009e-05
-9.54859e-06
8.18927e-05
-6.46898e-06
9.53807e-05
-2.83876e-06
0.000110956
1.4419e-06
0.000128939
6.49092e-06
0.000149686
1.24379e-05
0.000173969
1.94364e-05
0.000202067
2.76685e-05
0.000234412
3.73301e-05
0.000271771
4.86447e-05
0.000314711
6.18534e-05
0.000363531
7.72097e-05
0.000418198
9.49503e-05
0.000478734
0.000115269
0.000543564
0.000138256
0.000609778
0.000163788
0.000671921
0.000191374
0.000720311
0.000219912
0.000738733
0.000247332
0.000700905
0.00027011
0.000565326
0.00025898
0.000282555
-2.21967e-05
1.95486e-05
2.27912e-05
-2.15046e-05
2.28864e-05
-2.06937e-05
2.67941e-05
-1.97414e-05
3.13713e-05
-1.86233e-05
3.66724e-05
-1.73085e-05
4.28969e-05
-1.57661e-05
5.02324e-05
-1.39462e-05
5.84279e-05
-1.18099e-05
6.83653e-05
-9.2879e-06
7.93722e-05
-6.31769e-06
9.24117e-05
-2.81676e-06
0.000107457
1.31172e-06
0.000124812
6.18109e-06
0.000144818
1.1916e-05
0.000168235
1.86662e-05
0.000195318
2.66038e-05
0.000226474
3.59226e-05
0.000262454
4.68345e-05
0.000303801
5.9573e-05
0.000350793
7.43835e-05
0.000403386
9.14934e-05
0.000461621
0.000111091
0.00052396
0.000133262
0.0005876
0.000157888
0.000647285
0.000184496
0.000693691
0.000212019
0.000711194
0.00023846
0.000674447
0.000260414
0.00054336
0.000246993
0.000272378
-2.14989e-05
1.89799e-05
2.20635e-05
-2.08304e-05
2.2219e-05
-2.00458e-05
2.6011e-05
-1.91243e-05
3.04525e-05
-1.80427e-05
3.55931e-05
-1.67728e-05
4.16295e-05
-1.52836e-05
4.8745e-05
-1.35282e-05
5.66744e-05
-1.14677e-05
6.6306e-05
-9.03574e-06
7.69417e-05
-6.17134e-06
8.95484e-05
-2.79468e-06
0.000104081
1.18709e-06
0.000120831
5.88335e-06
0.000140123
1.14146e-05
0.000162705
1.79245e-05
0.000188809
2.55814e-05
0.000218819
3.45683e-05
0.000253466
4.50931e-05
0.000293277
5.73793e-05
0.000338507
7.16644e-05
0.000389104
8.81675e-05
0.000445121
0.000107071
0.000505062
0.000128456
0.000566221
0.00015221
0.000623541
0.000177875
0.000668037
0.000204421
0.000684659
0.000229918
0.000648961
0.000251078
0.000522221
0.000235515
0.000262576
-2.07972e-05
1.84333e-05
2.13504e-05
-2.01539e-05
2.15772e-05
-1.94003e-05
2.52573e-05
-1.85151e-05
2.95675e-05
-1.74756e-05
3.45528e-05
-1.62531e-05
4.04073e-05
-1.48187e-05
4.73103e-05
-1.31262e-05
5.49829e-05
-1.1139e-05
6.43195e-05
-8.79317e-06
7.45971e-05
-6.03009e-06
8.67865e-05
-2.77312e-06
0.000100826
1.06749e-06
0.000116992
5.59733e-06
0.000135594
1.09324e-05
0.00015737
1.72121e-05
0.00018253
2.45964e-05
0.000211433
3.32672e-05
0.0002448
4.34184e-05
0.000283126
5.52698e-05
0.000326656
6.90488e-05
0.000375323
8.49682e-05
0.000429198
0.000103203
0.000486821
0.000123832
0.000545583
0.000146747
0.000600617
0.000171503
0.000643268
0.000197107
0.000659039
0.000221694
0.000624356
0.000242087
0.000501814
0.000224445
0.000253135
-2.01506e-05
1.79045e-05
2.06741e-05
-1.95296e-05
2.09566e-05
-1.88003e-05
2.4529e-05
-1.79436e-05
2.87129e-05
-1.69378e-05
3.35489e-05
-1.57568e-05
3.92284e-05
-1.43714e-05
4.59266e-05
-1.27386e-05
5.33516e-05
-1.08215e-05
6.24035e-05
-8.55891e-06
7.23357e-05
-5.89366e-06
8.41222e-05
-2.752e-06
9.76848e-05
9.52881e-07
0.000113288
5.32235e-06
0.000131225
1.04685e-05
0.000152224
1.65262e-05
0.000176474
2.36523e-05
0.000204313
3.20144e-05
0.000236437
4.18078e-05
0.000273336
5.32405e-05
0.000315226
6.65326e-05
0.000362033
8.18903e-05
0.000413844
9.94818e-05
0.000469234
0.000119383
0.000525689
0.000141489
0.000578521
0.000165371
0.000619398
0.000190066
0.000634354
0.000213776
0.000600659
0.00023343
0.000482179
0.000213853
0.000244041
-1.94984e-05
1.73963e-05
2.00112e-05
-1.89012e-05
2.03598e-05
-1.8201e-05
2.38281e-05
-1.73785e-05
2.78896e-05
-1.64119e-05
3.25811e-05
-1.5275e-05
3.80912e-05
-1.39404e-05
4.45915e-05
-1.23657e-05
5.17776e-05
-1.05163e-05
6.05548e-05
-8.33358e-06
7.01538e-05
-5.76229e-06
8.15518e-05
-2.73131e-06
9.46546e-05
8.42945e-07
0.000109714
5.05781e-06
0.000127011
1.00239e-05
0.000147261
1.58687e-05
0.000170631
2.27416e-05
0.000197441
3.08115e-05
0.000228374
4.02591e-05
0.000263889
5.12887e-05
0.000304196
6.41128e-05
0.000349207
7.89296e-05
0.000399023
9.5902e-05
0.000452255
0.000115103
0.000506479
0.00013643
0.000557183
0.000159469
0.000596346
0.00018329
0.000610516
0.000206154
0.000577777
0.000225094
0.000463224
0.000203641
0.000235283
-1.88999e-05
1.69044e-05
1.93834e-05
-1.83234e-05
1.97825e-05
-1.76454e-05
2.31506e-05
-1.68491e-05
2.70945e-05
-1.59132e-05
3.1647e-05
-1.48147e-05
3.69942e-05
-1.35253e-05
4.33038e-05
-1.20061e-05
5.02594e-05
-1.02217e-05
5.87714e-05
-8.11595e-06
6.80488e-05
-5.6352e-06
7.90717e-05
-2.71059e-06
9.17308e-05
7.37741e-07
0.000106266
4.80611e-06
0.000122944
9.59581e-06
0.000142471
1.52357e-05
0.000164995
2.18694e-05
0.000190813
2.96528e-05
0.000220589
3.87692e-05
0.000254776
4.94113e-05
0.000293555
6.17851e-05
0.000336836
7.60816e-05
0.000384729
9.24583e-05
0.000435883
0.000110985
0.000487959
0.000131562
0.000536616
0.000153789
0.000574131
0.000176767
0.000587549
0.000198815
0.00055574
0.000217067
0.00044499
0.000193877
0.000226847
-1.82921e-05
1.64318e-05
1.87648e-05
-1.77389e-05
1.92273e-05
-1.70888e-05
2.24983e-05
-1.63251e-05
2.63283e-05
-1.54262e-05
3.0746e-05
-1.43689e-05
3.59354e-05
-1.31265e-05
4.20605e-05
-1.16609e-05
4.87936e-05
-9.93879e-06
5.70496e-05
-7.9066e-06
6.60169e-05
-5.51229e-06
7.66779e-05
-2.69007e-06
8.89088e-05
6.38473e-07
0.000102938
4.56243e-06
0.000119019
9.18704e-06
0.000137849
1.4629e-05
0.000159554
2.10271e-05
0.000184413
2.85409e-05
0.000213082
3.73366e-05
0.000245979
4.76064e-05
0.000283284
5.95467e-05
0.000324893
7.33426e-05
0.000370928
8.91458e-05
0.000420073
0.000107023
0.000470072
0.000126878
0.00051675
0.000148323
0.000552673
0.000170488
0.000565366
0.00019175
0.000534459
0.000209338
0.000427388
0.000184472
0.000218721
-1.77361e-05
1.59732e-05
1.81774e-05
-1.72035e-05
1.86888e-05
-1.65751e-05
2.18663e-05
-1.58358e-05
2.55866e-05
-1.49649e-05
2.98749e-05
-1.39427e-05
3.49124e-05
-1.27415e-05
4.086e-05
-1.13269e-05
4.73786e-05
-9.66463e-06
5.53877e-05
-7.7035e-06
6.40557e-05
-5.39288e-06
7.43674e-05
-2.66887e-06
8.61851e-05
5.42922e-07
9.97258e-05
4.33213e-06
0.000115231
8.7928e-06
0.000133387
1.40444e-05
0.000154303
2.0222e-05
0.000178241
2.74696e-05
0.00020583
3.59593e-05
0.000237491
4.58706e-05
0.000273375
5.73938e-05
0.000313371
7.07083e-05
0.000357618
8.59595e-05
0.000404826
0.000103212
0.000452827
0.000122372
0.000497601
0.000143063
0.000531995
0.000164445
0.000543996
0.000184949
0.000513968
0.000201896
0.000410458
0.000175485
0.000210896
-1.71684e-05
1.55341e-05
1.7609e-05
-1.66536e-05
1.8173e-05
-1.60485e-05
2.12601e-05
-1.53387e-05
2.48743e-05
-1.45028e-05
2.90371e-05
-1.352e-05
3.39274e-05
-1.23641e-05
3.97028e-05
-1.10008e-05
4.6014e-05
-9.39761e-06
5.37842e-05
-7.50565e-06
6.21631e-05
-5.27583e-06
7.21375e-05
-2.6471e-06
8.3556e-05
4.53479e-07
9.66253e-05
4.10881e-06
0.000111575
8.41636e-06
0.000129082
1.34851e-05
0.000149235
1.94443e-05
0.000172279
2.64424e-05
0.000198837
3.46356e-05
0.000229298
4.42018e-05
0.000263807
5.53241e-05
0.000302246
6.8175e-05
0.000344761
8.28952e-05
0.000390098
9.95463e-05
0.000436166
0.000118036
0.0004791
0.000138002
0.000512017
0.000158629
0.00052335
0.000178401
0.000494177
0.000194729
0.000394114
0.000166834
0.000203358
-1.66509e-05
1.51073e-05
1.70599e-05
-1.61561e-05
1.76719e-05
-1.55718e-05
2.06717e-05
-1.48846e-05
2.41837e-05
-1.40744e-05
2.82257e-05
-1.31236e-05
3.29745e-05
-1.20055e-05
3.85843e-05
-1.06888e-05
4.46957e-05
-9.14069e-06
5.22356e-05
-7.31433e-06
6.03359e-05
-5.16206e-06
6.99847e-05
-2.62445e-06
8.10181e-05
3.67826e-07
9.36324e-05
3.89803e-06
0.000108046
8.05348e-06
0.000124924
1.29464e-05
0.000144344
1.87012e-05
0.000166528
2.54532e-05
0.000192081
3.3363e-05
0.00022139
4.25973e-05
0.000254573
5.33339e-05
0.000291512
6.5739e-05
0.000332359
7.99482e-05
0.000375894
9.60201e-05
0.000420101
0.000113865
0.000461266
0.000133131
0.000492765
0.000153031
0.000503464
0.000172097
0.000475122
0.000187828
0.000378399
0.000158572
0.000196099
-1.6125e-05
1.46974e-05
1.65281e-05
-1.56479e-05
1.71902e-05
-1.50856e-05
2.01057e-05
-1.44251e-05
2.35186e-05
-1.36464e-05
2.74436e-05
-1.27307e-05
3.20555e-05
-1.16535e-05
3.75051e-05
-1.03833e-05
4.34236e-05
-8.88962e-06
5.07411e-05
-7.12726e-06
5.85723e-05
-5.04999e-06
6.79069e-05
-2.60093e-06
7.85683e-05
2.88035e-07
9.07432e-05
3.69372e-06
0.000104639
7.7078e-06
0.000120913
1.24309e-05
0.00013962
1.79835e-05
0.000160972
2.45052e-05
0.000185565
3.21401e-05
0.000213753
4.10556e-05
0.000245656
5.14208e-05
0.000281142
6.3397e-05
0.000320376
7.71143e-05
0.000362167
9.26288e-05
0.000404576
0.000109853
0.000444031
0.000128444
0.000474159
0.000147642
0.000484248
0.000166028
0.000456717
0.000181182
0.000363229
0.000150629
0.000189106
-1.5635e-05
1.43021e-05
1.60265e-05
-1.51712e-05
1.67259e-05
-1.46264e-05
1.95604e-05
-1.39865e-05
2.28782e-05
-1.32334e-05
2.66907e-05
-1.23496e-05
3.11705e-05
-1.13101e-05
3.64654e-05
-1.00855e-05
4.21974e-05
-8.64494e-06
4.92998e-05
-6.94482e-06
5.6871e-05
-4.94048e-06
6.59017e-05
-2.57651e-06
7.62037e-05
2.11625e-07
8.79542e-05
3.50138e-06
0.00010135
7.37435e-06
0.000117038
1.19344e-05
0.000135061
1.72986e-05
0.000155612
2.35919e-05
0.000179266
3.0965e-05
0.000206381
3.95735e-05
0.000237049
4.95816e-05
0.000271136
6.11453e-05
0.000308816
7.43893e-05
0.000348928
8.93671e-05
0.000389606
0.000105993
0.000427416
0.000123935
0.000456232
0.000142456
0.00046574
0.000160185
0.000439
0.000174783
0.000348644
0.000143047
0.000182371
-1.51511e-05
1.39204e-05
1.55272e-05
-1.47062e-05
1.62773e-05
-1.41824e-05
1.90331e-05
-1.35667e-05
2.22587e-05
-1.28415e-05
2.59624e-05
-1.19885e-05
3.03146e-05
-1.09853e-05
3.54602e-05
-9.80248e-06
4.10126e-05
-8.41126e-06
4.79075e-05
-6.76976e-06
5.5228e-05
-4.83452e-06
6.39656e-05
-2.55234e-06
7.39204e-05
1.4017e-07
8.5261e-05
3.31476e-06
9.81737e-05
7.0566e-06
0.000113298
1.14598e-05
0.000130657
1.66368e-05
0.000150432
2.27171e-05
0.000173191
2.98363e-05
0.00019926
3.81494e-05
0.000228734
4.78143e-05
0.000261467
5.89808e-05
0.000297643
7.17695e-05
0.00033613
8.62305e-05
0.000375134
0.00010228
0.000411355
0.000119595
0.000438903
0.000137464
0.000447853
0.000154559
0.000421884
0.00016862
0.000334567
0.000135765
0.000175884
-1.46962e-05
1.3552e-05
1.50589e-05
-1.4265e-05
1.58446e-05
-1.37578e-05
1.85248e-05
-1.31621e-05
2.16616e-05
-1.24606e-05
2.52603e-05
-1.16371e-05
2.94894e-05
-1.06684e-05
3.44907e-05
-9.52719e-06
3.98694e-05
-8.18445e-06
4.65636e-05
-6.59988e-06
5.36419e-05
-4.73161e-06
6.20961e-05
-2.52785e-06
7.17157e-05
7.16606e-08
8.26603e-05
3.13894e-06
9.51071e-05
6.75011e-06
0.000109685
1.10031e-05
0.000126405
1.60054e-05
0.000145433
2.18746e-05
0.000167316
2.87517e-05
0.000192385
3.67808e-05
0.000220705
4.61156e-05
0.000252134
5.69002e-05
0.000286861
6.92508e-05
0.000323785
8.32142e-05
0.000361177
9.87085e-05
0.000395873
0.00011542
0.000422206
0.000132659