/*--------------------------------*- C++ -*----------------------------------*\
  =========                 |
  \\      /  F ield         | OpenFOAM: The Open Source CFD Toolbox
   \\    /   O peration     | Website:  https://openfoam.org
    \\  /    A nd           | Version:  6.0
     \\/     M anipulation  |
\*---------------------------------------------------------------------------*/
FoamFile
{
    version     2.0;
    format      ascii;
    class       surfaceScalarField;
    location    "14";
    object      phi;
}
// * * * * * * * * * * * * * * * * * * * * * * * * * * * * * * * * * * * * * //

dimensions      [0 3 -1 0 0 0 0];

internalField   nonuniform List<scalar> 
9714
(
-0.000107071
8.23614e-05
0.000112976
-9.87376e-05
0.000114491
-8.71444e-05
0.00015916
-7.09409e-05
0.000221271
-4.8288e-05
0.000307566
-1.64725e-05
0.000427403
2.82839e-05
0.00059357
9.11974e-05
0.000823385
0.000179303
0.00113908
0.000301782
0.0015662
0.000469547
0.0021252
0.000692733
0.00280301
0.000971513
0.0034739
0.00127119
0.00370335
0.00233209
0.00144218
-0.000101006
7.67868e-05
0.000106473
-9.3291e-05
0.000106742
-8.25484e-05
0.000148375
-6.75432e-05
0.000206243
-4.65543e-05
0.000286548
-1.70834e-05
0.000397914
2.43952e-05
0.000552078
8.27122e-05
0.000765053
0.000164398
0.00105737
0.000277985
0.00145259
0.00043357
0.0019696
0.000640533
0.00259603
0.000898866
0.00321552
0.00117402
0.00342814
0.00216981
0.00133641
-9.52818e-05
7.16146e-05
0.000100335
-8.81277e-05
9.95518e-05
-7.81645e-05
0.000138368
-6.42475e-05
0.000192304
-4.47836e-05
0.000267057
-1.74608e-05
0.000370575
2.09889e-05
0.000513616
7.50433e-05
0.000710982
0.000150766
0.000981633
0.000256057
0.00134728
0.000400275
0.00182537
0.00059207
0.00240424
0.000831407
0.00297618
0.0010868
0.00317275
0.00201519
0.00124141
-8.98625e-05
6.68243e-05
9.45733e-05
-8.32287e-05
9.28916e-05
-7.39891e-05
0.000129099
-6.10925e-05
0.000179388
-4.30522e-05
0.000248994
-1.77307e-05
0.000345237
1.79039e-05
0.00047797
6.8e-05
0.000660874
0.000138169
0.000911441
0.000235749
0.00124969
0.000369394
0.00169171
0.000547101
0.00222654
0.000768868
0.0027544
0.0010061
0.00293554
0.00187012
0.00115148
-8.47893e-05
6.2382e-05
8.91154e-05
-7.86454e-05
8.67135e-05
-7.00861e-05
0.000120499
-5.81283e-05
0.000167408
-4.14026e-05
0.000232244
-1.79296e-05
0.000321748
1.50932e-05
0.000444937
6.1504e-05
0.00061445
0.00012651
0.000846424
0.000216894
0.00115928
0.000340702
0.00156791
0.000505319
0.00206194
0.000710751
0.00254897
0.000930931
0.00271535
0.0017337
0.0010672
-7.98865e-05
5.82778e-05
8.39449e-05
-7.41905e-05
8.10046e-05
-6.62651e-05
0.00011255
-5.52013e-05
0.00015633
-3.9724e-05
0.000216748
-1.79991e-05
0.000300009
1.25725e-05
0.000414356
5.5544e-05
0.000571469
0.000115725
0.000786224
0.000199416
0.00107558
0.000314058
0.00145326
0.000466508
0.00190951
0.000656751
0.00235874
0.000861037
0.00251115
0.00160584
0.000989292
-7.53019e-05
5.44736e-05
7.90054e-05
-7.00333e-05
7.57122e-05
-6.27016e-05
0.000105182
-5.24515e-05
0.000146063
-3.81163e-05
0.000202393
-1.79977e-05
0.000279877
1.03048e-05
0.000386045
5.00763e-05
0.000531686
0.000105778
0.000730512
0.000183231
0.000998104
0.000289357
0.00134714
0.00043051
0.00176839
0.00060668
0.00218257
0.000796183
0.00232159
0.0014846
0.000917187
-7.08784e-05
5.09627e-05
7.43693e-05
-6.59957e-05
7.08293e-05
-5.92147e-05
9.83824e-05
-4.97452e-05
0.000136585
-3.64994e-05
0.000189131
-1.79022e-05
0.000261266
8.27491e-06
0.00035986
4.50702e-05
0.000494883
9.66019e-05
0.000678962
0.000168275
0.000926427
0.000266491
0.00124892
0.000397169
0.00163773
0.000560324
0.00201942
0.000736074
0.00214592
0.00137096
0.000850005
-6.68502e-05
4.7702e-05
6.9999e-05
-6.23398e-05
6.62948e-05
-5.60708e-05
9.20709e-05
-4.72954e-05
0.000127793
-3.50264e-05
0.000176839
-1.7805e-05
0.000244031
6.42288e-06
0.000335625
4.04662e-05
0.00046083
8.81451e-05
0.000631275
0.000154452
0.000860098
0.000245347
0.00115805
0.000366329
0.00151679
0.000517462
0.00186827
0.000680422
0.00198289
0.00126383
0.000787252
-6.30073e-05
4.46905e-05
6.59906e-05
-5.88223e-05
6.21092e-05
-5.30196e-05
8.62461e-05
-4.49105e-05
0.000119677
-3.35742e-05
0.000165487
-1.76581e-05
0.000228103
4.74606e-06
0.000313217
3.62354e-05
0.000429335
8.03365e-05
0.000587158
0.000141691
0.000798747
0.000225806
0.00107393
0.000337818
0.00140478
0.000477847
0.00172822
0.000628931
0.00183185
0.00116403
0.00072875
-5.95746e-05
4.18889e-05
6.22735e-05
-5.57003e-05
5.82165e-05
-5.03244e-05
8.08328e-05
-4.28003e-05
0.000112142
-3.22914e-05
0.00015496
-1.75469e-05
0.00021335
3.19046e-06
0.000292477
3.2326e-05
0.000400196
7.31343e-05
0.000546348
0.000129898
0.000741963
0.000207755
0.000996098
0.000311481
0.0013011
0.000441256
0.00159843
0.000581317
0.00169167
0.00107079
0.000674323
-5.63284e-05
3.92989e-05
5.89079e-05
-5.27237e-05
5.46194e-05
-4.7736e-05
7.5832e-05
-4.07733e-05
0.00010518
-3.10536e-05
0.000145231
-1.74191e-05
0.000199711
1.76481e-06
0.000273297
2.87228e-05
0.000373242
6.64749e-05
0.000508587
0.000119016
0.000689437
0.000191086
0.000924023
0.000287156
0.00120502
0.00040746
0.00147808
0.000537307
0.0015618
0.000983991
0.00062383
-5.34386e-05
3.68867e-05
5.57885e-05
-5.00924e-05
5.12697e-05
-4.54596e-05
7.1179e-05
-3.89893e-05
9.87111e-05
-2.99687e-05
0.000136204
-1.7328e-05
0.000187071
4.3834e-07
0.00025554
2.53901e-05
0.000348299
6.03381e-05
0.000473654
0.000108958
0.000640802
0.000175696
0.000857327
0.000264704
0.00111607
0.000376261
0.00136649
0.000496636
0.00144134
0.000903438
0.000577053
-5.06755e-05
3.4658e-05
5.2939e-05
-4.7559e-05
4.81757e-05
-4.32584e-05
6.68813e-05
-3.72686e-05
9.27333e-05
-2.89195e-05
0.000127857
-1.72211e-05
0.000175379
-7.73378e-07
0.000239111
2.23292e-05
0.000325221
5.4665e-05
0.00044131
9.96886e-05
0.000595794
0.000161497
0.000795513
0.000243981
0.00103355
0.000347464
0.00126295
0.000459063
0.00132966
0.000828261
0.000533781
-4.82229e-05
3.25779e-05
5.02445e-05
-4.53379e-05
4.52873e-05
-4.13457e-05
6.28719e-05
-3.57661e-05
8.71648e-05
-2.80028e-05
0.000120097
-1.71374e-05
0.00016453
-1.88269e-06
0.000223889
1.94975e-05
0.000303839
4.94466e-05
0.000411369
9.11321e-05
0.000554097
0.000148401
0.000738291
0.000224873
0.000957138
0.000320898
0.00116691
0.000424358
0.00122607
0.000759043
0.000493748
-4.58218e-05
3.06585e-05
4.77793e-05
-4.31335e-05
4.2622e-05
-3.94232e-05
5.91711e-05
-3.42591e-05
8.202e-05
-2.70695e-05
0.000112919
-1.69996e-05
0.000154487
-2.89757e-06
0.000209782
1.69156e-05
0.000284045
4.46437e-05
0.000383635
8.3266e-05
0.000515485
0.000136339
0.000685219
0.00020726
0.000886175
0.000296393
0.00107769
0.000392318
0.00113002
0.000694107
0.000456744
-4.36889e-05
2.8864e-05
4.54197e-05
-4.12009e-05
4.01285e-05
-3.77468e-05
5.57106e-05
-3.29334e-05
7.72167e-05
-2.62314e-05
0.000106232
-1.68969e-05
0.000145149
-3.7877e-06
0.000196709
1.45562e-05
0.000265697
4.02459e-05
0.000357951
7.60305e-05
0.000479725
0.000125238
0.000636085
0.000191046
0.000820444
0.000273808
0.000994932
0.000362739
0.00104095
0.000634688
0.000422524
-4.15354e-05
2.72094e-05
4.32253e-05
-3.92173e-05
3.78295e-05
-3.60057e-05
5.25193e-05
-3.15468e-05
7.27833e-05
-2.53495e-05
0.000100054
-1.66765e-05
0.000136518
-4.56778e-06
0.000184598
1.24359e-05
0.000248724
3.62364e-05
0.000334181
6.94028e-05
0.000446596
0.000115037
0.000590467
0.000176127
0.000759302
0.000252996
0.000917985
0.00033545
0.00095835
0.000578758
0.000390909
-3.95591e-05
2.56654e-05
4.10932e-05
-3.74085e-05
3.5684e-05
-3.44146e-05
4.95433e-05
-3.02638e-05
6.86546e-05
-2.44918e-05
9.43109e-05
-1.64699e-05
0.000128503
-5.20917e-06
0.000173391
1.05327e-05
0.000233001
3.2582e-05
0.000312166
6.33252e-05
0.000415912
0.000105671
0.000548233
0.000162426
0.000702653
0.000233837
0.000846587
0.000310273
0.000881701
0.000528087
0.000361671
-3.75922e-05
2.42416e-05
3.91013e-05
-3.5588e-05
3.37063e-05
-3.28035e-05
4.67997e-05
-2.89591e-05
6.48449e-05
-2.36221e-05
8.9005e-05
-1.61606e-05
0.000121098
-5.7632e-06
0.000163003
8.83553e-06
0.000218459
2.92694e-05
0.000291791
5.77791e-05
0.000387467
9.70894e-05
0.00050895
0.00014985
0.000649829
0.0002162
0.000780159
0.000287068
0.000810721
0.000480097
0.000334671
-3.58289e-05
2.29069e-05
3.71642e-05
-3.39724e-05
3.18515e-05
-3.13724e-05
4.42291e-05
-2.77822e-05
6.12829e-05
-2.2797e-05
8.4058e-05
-1.58863e-05
0.000114206
-6.1961e-06
0.000153388
7.32156e-06
0.000204977
2.62605e-05
0.000272911
5.27058e-05
0.000361115
8.92332e-05
0.000472572
0.000138334
0.000600845
0.000199985
0.000718551
0.000265673
0.00074479
0.000437022
0.00030971
-3.40363e-05
2.1677e-05
3.53597e-05
-3.23044e-05
3.01425e-05
-2.98836e-05
4.18597e-05
-2.65561e-05
5.79959e-05
-2.19434e-05
7.94869e-05
-1.55051e-05
0.000107838
-6.56133e-06
0.000144467
5.98579e-06
0.00019251
2.3547e-05
0.000255437
4.80932e-05
0.000336649
8.2056e-05
0.000438631
0.000127797
0.000555018
0.00018507
0.000661223
0.000245967
0.00068388
0.000395955
0.000286668
-3.24032e-05
2.05265e-05
3.36046e-05
-3.07927e-05
2.85433e-05
-2.8528e-05
3.96446e-05
-2.54199e-05
5.49284e-05
-2.11129e-05
7.52311e-05
-1.51561e-05
0.000101916
-6.81522e-06
0.000136217
4.80198e-06
0.000180947
2.1086e-05
0.000239235
4.38841e-05
0.000313972
7.55117e-05
0.000407182
0.000118185
0.000512484
0.000171372
0.000608054
0.000227803
0.000627128
0.000359637
0.000265364
-3.07719e-05
1.94642e-05
3.19583e-05
-2.92711e-05
2.70674e-05
-2.71604e-05
3.76e-05
-2.42776e-05
5.20943e-05
-2.02885e-05
7.12943e-05
-1.47341e-05
9.64397e-05
-7.0336e-06
0.000128553
3.76403e-06
0.000170259
1.88776e-05
0.000224226
4.00736e-05
0.000292864
6.95622e-05
0.000377697
0.000109418
0.00047251
0.000158778
0.000558684
0.000211085
0.00057498
0.000324633
0.000245701
-2.92964e-05
1.8467e-05
3.03601e-05
-2.7904e-05
2.5681e-05
-2.59269e-05
3.56817e-05
-2.32288e-05
4.94412e-05
-1.95013e-05
6.76197e-05
-1.43553e-05
9.13374e-05
-7.15466e-06
0.000121465
2.84273e-06
0.000160322
1.68786e-05
0.000210293
3.66099e-05
0.000273278
6.41715e-05
0.000350349
0.000101455
0.000435374
0.000147214
0.000512977
0.000195674
0.000526213
0.000294232
0.000227522
-2.78253e-05
1.75422e-05
2.88642e-05
-2.65314e-05
2.43957e-05
-2.46862e-05
3.39036e-05
-2.21809e-05
4.69809e-05
-1.87217e-05
6.42113e-05
-1.3909e-05
8.66104e-05
-7.26351e-06
0.000114862
2.0507e-06
0.000151138
1.51009e-05
0.00019736
3.34989e-05
0.00025496
5.93058e-05
0.000324504
9.42153e-05
0.000400338
0.000136574
0.000470717
0.000181498
0.000481686
0.000264531
0.000210745
-2.64658e-05
1.6677e-05
2.74324e-05
-2.52628e-05
2.31922e-05
-2.35346e-05
3.22392e-05
-2.11903e-05
4.46811e-05
-1.7959e-05
6.10308e-05
-1.35034e-05
8.2203e-05
-7.27772e-06
0.000108754
1.3519e-06
0.000142574
1.35007e-05
0.000185334
3.06913e-05
0.000237956
5.49441e-05
0.0003005
8.76628e-05
0.000367782
0.000126797
0.000431588
0.000168424
0.00043972
0.000239476
0.000195239
-2.51383e-05
1.58722e-05
2.6083e-05
-2.40227e-05
2.20734e-05
-2.24051e-05
3.06929e-05
-2.02275e-05
4.25428e-05
-1.72225e-05
5.80734e-05
-1.30511e-05
7.81102e-05
-7.29623e-06
0.000103049
7.71897e-07
0.000134667
1.21017e-05
0.000174143
2.81988e-05
0.000221931
5.1048e-05
0.000277565
8.17077e-05
0.000337015
0.000117788
0.000395764
0.000156402
0.000401764
0.000214478
0.000180885
-2.39377e-05
1.51132e-05
2.4793e-05
-2.29033e-05
2.10171e-05
-2.13872e-05
2.92336e-05
-1.93364e-05
4.05302e-05
-1.6521e-05
5.52987e-05
-1.2641e-05
7.42819e-05
-7.22415e-06
9.777e-05
2.62587e-07
0.000127262
1.08504e-05
0.000163726
2.59763e-05
0.000207045
4.76055e-05
0.00025623
7.63175e-05
0.00030853
0.000109493
0.000362639
0.00014531
0.000365666
0.000194329
0.000167594
-2.277e-05
1.4403e-05
2.35875e-05
-2.18093e-05
2.00294e-05
-2.03832e-05
2.78713e-05
-1.84673e-05
3.86515e-05
-1.58338e-05
5.27117e-05
-1.21859e-05
7.07183e-05
-7.16968e-06
9.28202e-05
-1.32117e-07
0.000120437
9.77977e-06
0.000153976
2.40389e-05
0.000192843
4.45713e-05
0.000235584
7.13946e-05
0.0002817
0.000101829
0.000332706
0.000135106
0.000333339
0.000173609
0.00015531
-2.16837e-05
1.37376e-05
2.24595e-05
-2.07849e-05
1.91026e-05
-1.94451e-05
2.6592e-05
-1.76347e-05
3.68886e-05
-1.51667e-05
5.02843e-05
-1.17668e-05
6.73803e-05
-7.02669e-06
8.82387e-05
-4.82368e-07
0.000114001
8.83162e-06
0.000144885
2.235e-05
0.000179638
4.19353e-05
0.000216354
6.69076e-05
0.000256967
9.47534e-05
0.000304831
0.000125673
0.000302134
0.000157814
0.000143977
-2.06572e-05
1.31096e-05
2.13811e-05
-1.98241e-05
1.82284e-05
-1.85583e-05
2.53869e-05
-1.68595e-05
3.52274e-05
-1.45304e-05
4.80045e-05
-1.13213e-05
6.42532e-05
-6.9124e-06
8.39188e-05
-7.25795e-07
0.000108084
8.04838e-06
0.000136303
2.0923e-05
0.000166808
3.96322e-05
0.000197536
6.2757e-05
0.000233978
8.81989e-05
0.000280157
0.000116981
0.000274574
0.00014087
0.000133486
-1.96901e-05
1.25184e-05
2.03737e-05
-1.89132e-05
1.74035e-05
-1.77267e-05
2.42473e-05
-1.61066e-05
3.36578e-05
-1.39155e-05
4.58476e-05
-1.09024e-05
6.13007e-05
-6.70211e-06
7.99108e-05
-9.46396e-07
0.000102402
7.37057e-06
0.000128299
1.9732e-05
0.000154908
3.76485e-05
0.00018016
5.89171e-05
0.000213102
8.21361e-05
0.000256991
0.000108925
0.000247723
0.000129174
0.000123826
-1.87778e-05
1.19544e-05
1.94087e-05
-1.80638e-05
1.66164e-05
-1.69339e-05
2.31624e-05
-1.54024e-05
3.21626e-05
-1.33204e-05
4.38002e-05
-1.04346e-05
5.85177e-05
-6.54395e-06
7.60591e-05
-1.02874e-06
9.72312e-05
6.86513e-06
0.000120611
1.87895e-05
0.000143088
3.59018e-05
0.000163092
5.53018e-05
0.000194127
7.65114e-05
0.000236926
0.000101476
0.000224368
0.00011575
0.000114855
-1.79366e-05
1.14198e-05
1.85282e-05
-1.72503e-05
1.58701e-05
-1.61839e-05
2.21317e-05
-1.47209e-05
3.07437e-05
-1.2722e-05
4.18585e-05
-1.00158e-05
5.58701e-05
-6.23461e-06
7.25294e-05
-1.10256e-06
9.21561e-05
6.4827e-06
0.000113423
1.80728e-05
0.000132095
3.43708e-05
0.000147461
5.19015e-05
0.000176974
7.13038e-05
0.000217425
9.45457e-05
0.000201147
0.000107108
0.000106598
-1.71545e-05
1.09066e-05
1.76948e-05
-1.6513e-05
1.51546e-05
-1.54914e-05
2.11495e-05
-1.40871e-05
2.93938e-05
-1.21579e-05
4.00278e-05
-9.51992e-06
5.34039e-05
-6.00295e-06
6.91251e-05
-1.03489e-06
8.75803e-05
6.28699e-06
0.000106421
1.75742e-05
0.000121031
3.29623e-05
0.000132435
4.86549e-05
0.00016205
6.64724e-05
0.000201143
8.81061e-05
0.000181616
9.69574e-05
9.89064e-05
-1.64208e-05
1.0422e-05
1.69342e-05
-1.57919e-05
1.44788e-05
-1.48376e-05
2.02192e-05
-1.34574e-05
2.81241e-05
-1.1602e-05
3.82971e-05
-9.08578e-06
5.10784e-05
-5.66744e-06
6.6017e-05
-9.65879e-07
8.30859e-05
6.22866e-06
9.98465e-05
1.72509e-05
0.000111022
3.16365e-05
0.000119182
4.55677e-05
0.000148697
6.19972e-05
0.000184717
8.20873e-05
0.000162041
9.13839e-05
9.18281e-05
-1.57284e-05
9.95199e-06
1.61886e-05
-1.51307e-05
1.38239e-05
-1.42002e-05
1.93238e-05
-1.28932e-05
2.69017e-05
-1.10676e-05
3.6672e-05
-8.64752e-06
4.88999e-05
-5.40648e-06
6.30282e-05
-7.89773e-07
7.90182e-05
6.3874e-06
9.34666e-05
1.70499e-05
0.000101225
3.03003e-05
0.000107182
4.26023e-05
0.000137821
5.78421e-05
0.000171647
7.6454e-05
0.000146452
8.4606e-05
8.52125e-05
-1.50383e-05
9.50673e-06
1.54946e-05
-1.44518e-05
1.32036e-05
-1.35787e-05
1.8476e-05
-1.22989e-05
2.57591e-05
-1.05806e-05
3.51316e-05
-8.2646e-06
4.68457e-05
-5.09139e-06
6.02988e-05
-5.93632e-07
7.50716e-05
6.69746e-06
8.70556e-05
1.68907e-05
9.20837e-05
2.89284e-05
9.64208e-05
3.97885e-05
0.000127326
5.39842e-05
0.000157081
7.11633e-05
0.000129821
8.0402e-05
7.91009e-05
-1.43739e-05
9.0733e-06
1.48104e-05
-1.38031e-05
1.26061e-05
-1.29587e-05
1.76715e-05
-1.17675e-05
2.46742e-05
-1.01301e-05
3.36945e-05
-7.89616e-06
4.49519e-05
-4.84675e-06
5.76551e-05
-3.93049e-07
7.11146e-05
7.20437e-06
8.10054e-05
1.67029e-05
8.46329e-05
2.74559e-05
8.82736e-05
3.70984e-05
0.000119924
5.03925e-05
0.000146739
6.62038e-05
0.000118362
7.6933e-05
7.34061e-05
-1.37049e-05
8.67141e-06
1.41736e-05
-1.31526e-05
1.20532e-05
-1.23783e-05
1.69229e-05
-1.12702e-05
2.36663e-05
-9.71742e-06
3.2355e-05
-7.60607e-06
4.31346e-05
-4.6731e-06
5.51598e-05
-9.83383e-08
6.76064e-05
7.84361e-06
7.41258e-05
1.62987e-05
7.76256e-05
2.58567e-05
7.98696e-05
3.45579e-05
0.000111217
4.7026e-05
0.000133457
6.15046e-05
0.000104493
7.36377e-05
6.81151e-05
-1.31198e-05
8.28014e-06
1.35155e-05
-1.2601e-05
1.15184e-05
-1.188e-05
1.6204e-05
-1.08448e-05
2.27029e-05
-9.40297e-06
3.10822e-05
-7.39605e-06
4.14673e-05
-4.51357e-06
5.27755e-05
3.88447e-08
6.3274e-05
8.66342e-06
6.82972e-05
1.5626e-05
7.44061e-05
2.41381e-05
7.54437e-05
3.21228e-05
0.000106112
4.3852e-05
0.000125423
5.70953e-05
9.7156e-05
7.31438e-05
6.32025e-05
-1.25698e-05
7.90034e-06
1.28678e-05
-1.20918e-05
1.10022e-05
-1.14479e-05
1.55133e-05
-1.05051e-05
2.17948e-05
-9.16472e-06
2.98844e-05
-7.30137e-06
3.98399e-05
-4.585e-06
5.04044e-05
3.69821e-07
5.96765e-05
9.59924e-06
5.96038e-05
1.45725e-05
7.0603e-05
2.25229e-05
6.81882e-05
2.99656e-05
9.79888e-05
4.08668e-05
0.000112828
5.28855e-05
8.52034e-05
6.91131e-05
5.86021e-05
-1.20351e-05
7.5395e-06
1.22311e-05
-1.16293e-05
1.05155e-05
-1.10575e-05
1.48665e-05
-1.02469e-05
2.09148e-05
-9.04047e-06
2.87912e-05
-7.31559e-06
3.84076e-05
-4.66065e-06
4.78732e-05
3.79682e-07
5.42116e-05
1.06016e-05
5.31436e-05
1.24991e-05
7.56959e-05
2.04779e-05
6.53633e-05
2.77999e-05
9.3667e-05
3.80688e-05
0.000106672
4.9055e-05
8.15326e-05
7.08654e-05
5.43839e-05
-1.15273e-05
7.19521e-06
1.15964e-05
-1.11799e-05
1.00501e-05
-1.07526e-05
1.42328e-05
-9.96875e-06
2.01692e-05
-8.92266e-06
2.78295e-05
-7.51149e-06
3.68755e-05
-5.02363e-06
4.53986e-05
6.26192e-07
4.9403e-05
1.16482e-05
4.0657e-05
9.06872e-06
7.63302e-05
1.81188e-05
5.46323e-05
2.5354e-05
8.38159e-05
3.50892e-05
9.30258e-05
4.52912e-05
6.92773e-05
6.44957e-05
5.04231e-05
-1.103e-05
6.8529e-06
1.0968e-05
-1.08079e-05
9.60034e-06
-1.03042e-05
1.37129e-05
-9.74779e-06
1.95164e-05
-8.98916e-06
2.69808e-05
-7.69304e-06
3.56128e-05
-5.67167e-06
4.29729e-05
-1.78244e-07
4.15545e-05
1.36341e-05
3.19775e-05
4.74957e-06
9.65201e-05
1.62896e-05
4.80687e-05
2.28069e-05
7.99655e-05
3.18286e-05
8.81153e-05
4.15395e-05
6.79985e-05
6.74632e-05
4.66022e-05
-1.05783e-05
6.54288e-06
1.03525e-05
-1.02997e-05
9.22267e-06
-1.00237e-05
1.32463e-05
-9.5791e-06
1.90018e-05
-8.73276e-06
2.60323e-05
-8.26554e-06
3.48051e-05
-7.93428e-06
4.15076e-05
-1.52618e-06
3.56443e-05
1.32102e-05
1.15372e-05
3.56618e-06
0.00010116
1.58096e-05
3.30098e-05
2.10526e-05
7.10029e-05
2.87562e-05
7.48116e-05
3.76101e-05
5.54207e-05
5.85861e-05
4.27609e-05
-1.00784e-05
6.23221e-06
9.71241e-06
-9.97572e-06
8.86448e-06
-9.75056e-06
1.29091e-05
-9.49643e-06
1.85726e-05
-9.04715e-06
2.53406e-05
-1.00773e-05
3.49418e-05
-1.1466e-05
4.22312e-05
-4.32806e-06
2.52994e-05
9.99663e-06
4.53107e-06
-1.85744e-07
0.000120384
1.40709e-05
2.19265e-05
1.96432e-05
6.74776e-05
2.64911e-05
7.14728e-05
3.44974e-05
5.58186e-05
6.13889e-05
3.94585e-05
-9.67458e-06
5.96712e-06
9.09831e-06
-9.79846e-06
8.76144e-06
-9.95661e-06
1.28719e-05
-9.34443e-06
1.77334e-05
-8.73086e-06
2.42197e-05
-1.14469e-05
3.75948e-05
-1.61917e-05
4.46024e-05
-1.62463e-05
2.49091e-05
-6.94925e-06
-1.36996e-05
-9.96254e-06
0.000117056
1.05028e-05
-1.476e-06
1.82197e-05
5.56618e-05
2.51722e-05
5.76858e-05
3.26152e-05
4.3009e-05
5.04651e-05
3.74922e-05
-1.0388e-05
6.1309e-06
9.30634e-06
-1.05125e-05
8.61922e-06
-9.82125e-06
1.19288e-05
-8.40428e-06
1.61223e-05
-7.72446e-06
2.31078e-05
-1.40931e-05
4.06887e-05
-2.25705e-05
5.30337e-05
-3.26362e-05
3.28767e-05
-3.62316e-05
-1.19063e-05
-2.34916e-05
0.000107123
4.65498e-06
-3.20193e-05
1.59132e-05
4.39568e-05
2.37368e-05
5.055e-05
3.15362e-05
4.05708e-05
5.02755e-05
3.63322e-05
-1.10178e-05
5.87539e-06
1.013e-05
-1.0228e-05
7.53997e-06
-9.40589e-06
1.09935e-05
-8.81342e-06
1.51076e-05
-9.0213e-06
2.2337e-05
-1.95195e-05
5.31447e-05
-3.10702e-05
6.02441e-05
-4.75054e-05
4.42403e-05
-5.84706e-05
-5.57043e-06
-3.57888e-05
7.97184e-05
-3.60713e-07
-6.90207e-05
1.35106e-05
2.70323e-05
2.2011e-05
3.57714e-05
3.01248e-05
2.76213e-05
3.91468e-05
3.50814e-05
-4.81362e-06
5.25873e-06
4.85672e-06
-4.92839e-06
7.52713e-06
-5.99338e-06
1.18436e-05
-8.19759e-06
1.76843e-05
-7.86667e-06
2.20122e-05
-2.71218e-05
6.50766e-05
-4.21052e-05
7.60647e-05
-5.6193e-05
6.07885e-05
-6.69402e-05
-1.01273e-05
-4.4748e-05
4.93569e-05
-7.56426e-06
-0.000124036
1.10463e-05
1.14658e-06
2.03126e-05
2.02911e-05
2.88008e-05
1.75675e-05
3.25831e-05
3.35577e-05
8.25398e-07
5.80435e-06
-1.62305e-06
-5.41933e-07
8.83332e-06
-2.88366e-07
1.21177e-05
-6.27814e-06
2.23808e-05
-1.04709e-05
2.53432e-05
-3.6828e-05
9.47657e-05
-4.89518e-05
8.41149e-05
-5.08654e-05
4.77328e-05
-5.87308e-05
-4.06318e-06
-3.82102e-05
2.66786e-05
-8.22119e-06
-0.00015002
9.69775e-06
-1.80421e-05
1.91255e-05
5.22201e-06
2.71553e-05
5.48418e-06
2.22635e-05
3.13876e-05
9.40635e-06
1.05316e-05
-1.43732e-05
2.20026e-06
1.60923e-05
1.90183e-06
1.12869e-05
-8.11628e-06
3.34765e-05
-1.6508e-05
3.33219e-05
-4.32086e-05
0.000115677
-4.91197e-05
9.15329e-05
-1.55967e-05
2.03893e-05
-1.67941e-05
-2.20367e-05
-8.22115e-06
-6.24219e-07
4.0227e-06
-0.00017779
1.15256e-05
-3.89873e-05
2.01264e-05
-1.61976e-05
2.6334e-05
-8.73263e-06
1.21516e-05
2.91089e-05
2.06864e-05
8.38396e-06
-2.0198e-05
1.44538e-05
2.1731e-05
6.35906e-06
2.04845e-05
-6.08782e-06
4.41412e-05
-1.64648e-05
4.37811e-05
-3.09661e-05
0.000133762
-9.83601e-06
7.03352e-05
1.61757e-05
-1.76246e-05
1.72768e-05
-1.78227e-05
3.1729e-05
-1.36282e-05
2.39245e-05
-0.000164032
2.0024e-05
-3.59519e-05
2.29664e-05
-2.51899e-05
2.53059e-05
-1.5411e-05
4.49903e-06
2.61646e-05
-2.02419e-06
2.71948e-06
8.21909e-06
6.58195e-06
1.36809e-05
4.10828e-06
2.28801e-05
2.37776e-06
4.78808e-05
-9.92761e-06
5.6883e-05
-9.99478e-06
0.000134106
2.43107e-05
3.65457e-05
5.26837e-05
-3.74806e-05
5.71441e-05
-2.51983e-05
6.20971e-05
-2.33834e-05
4.29716e-05
-0.000147283
3.53661e-05
-3.45001e-05
2.76678e-05
-2.63659e-05
2.46334e-05
-1.90168e-05
-7.61493e-07
2.25129e-05
-1.35173e-05
-4.89897e-07
1.72157e-05
-3.58459e-06
4.70626e-06
1.30719e-06
1.96222e-05
7.79657e-06
4.22845e-05
1.0046e-05
5.57656e-05
8.72215e-05
5.9579e-05
0.000124952
2.6556e-05
8.82204e-05
-1.71411e-05
9.13782e-05
-2.28962e-05
9.25151e-05
-2.22902e-05
5.62561e-05
-0.000106161
4.26425e-05
-2.07741e-05
2.9754e-05
-1.7394e-05
2.26687e-05
-1.49526e-05
-1.87436e-06
1.79019e-05
-1.90133e-05
-8.1352e-07
2.06492e-05
-1.37531e-05
4.99672e-07
-5.37605e-06
1.26637e-05
1.06098e-05
2.83493e-05
3.34014e-05
3.51227e-05
0.00010198
-3.31375e-06
0.000122201
3.65598e-05
0.000102897
-6.35518e-06
9.36428e-05
-7.02007e-06
8.94803e-05
-1.39248e-05
5.10667e-05
-6.05123e-05
4.02318e-05
-7.91157e-06
2.86458e-05
-8.16033e-06
1.88457e-05
-6.97985e-06
-7.96266e-07
1.22579e-05
-2.32926e-05
-5.64365e-07
2.38779e-05
-2.02336e-05
-1.26975e-06
-1.02633e-05
4.69991e-06
9.50107e-06
1.12918e-05
3.02794e-05
1.88809e-05
4.85356e-05
-1.36591e-05
9.02394e-05
2.46244e-05
8.12213e-05
-7.50441e-06
7.16938e-05
9.62625e-06
6.367e-05
-1.30914e-06
3.32051e-05
-2.23326e-05
2.77086e-05
6.17733e-08
1.94317e-05
-2.97047e-06
1.20185e-05
-1.72762e-06
-2.12621e-06
6.6759e-06
-1.76844e-05
1.81106e-05
-1.81611e-05
-1.27354e-05
-7.66498e-07
1.87757e-05
5.93406e-06
3.03613e-05
2.29376e-05
3.25936e-05
3.13091e-05
8.98072e-06
9.03946e-06
6.06795e-06
4.33848e-06
2.21233e-06
0.00144661
4.73855e-05
0.00145147
4.68819e-05
0.00145713
4.64506e-05
0.00146345
4.60894e-05
0.00147008
4.58999e-05
0.00147686
4.58553e-05
0.00148371
4.58845e-05
0.00149056
4.59566e-05
0.00149723
4.60486e-05
4.63175e-05
0.00150341
0.00133958
4.42417e-05
0.00134404
4.24535e-05
0.00134925
4.12697e-05
0.00135483
4.05346e-05
0.00136064
4.00999e-05
0.00136673
3.97776e-05
0.00137321
3.93985e-05
0.00138035
3.88129e-05
0.00138853
3.7865e-05
3.66799e-05
0.00139816
0.00124171
4.39738e-05
0.00124339
4.08064e-05
0.00124603
3.86522e-05
0.00124943
3.71507e-05
0.00125345
3.60763e-05
0.001258
3.52184e-05
0.00126298
3.44039e-05
0.00126831
3.34587e-05
0.00127393
3.22343e-05
3.15708e-05
0.00127902
0.00115252
4.29673e-05
0.00115478
3.85838e-05
0.00115793
3.55074e-05
0.00116175
3.33408e-05
0.00116602
3.17905e-05
0.00117062
3.0587e-05
0.0011755
2.94839e-05
0.00118067
2.82562e-05
0.00118637
2.65134e-05
2.515e-05
0.00119278
0.00106869
4.15151e-05
0.0010712
3.60905e-05
0.00107452
3.21893e-05
0.00107842
2.94289e-05
0.0010827
2.74761e-05
0.00108724
2.6003e-05
0.00109197
2.47079e-05
0.00109686
2.33237e-05
0.00110186
2.1482e-05
2.00348e-05
0.00110696
0.000990383
4.04633e-05
0.000992496
3.3997e-05
0.000995436
2.92409e-05
0.000999014
2.58263e-05
0.00100305
2.34001e-05
0.00100741
2.15909e-05
0.00101201
2.00493e-05
0.00101681
1.84736e-05
0.00102185
1.64171e-05
1.4783e-05
0.00102709
0.000917896
3.97934e-05
0.00091958
3.23288e-05
0.000922072
2.67383e-05
0.000925211
2.26553e-05
0.000928843
1.97208e-05
0.000932841
1.75292e-05
0.000937137
1.56953e-05
0.000941672
1.38835e-05
0.000946504
1.155e-05
9.57046e-06
0.000951688
0.000850702
3.91254e-05
0.000852222
3.0831e-05
0.000854419
2.45165e-05
0.000857193
1.9855e-05
0.000860404
1.64442e-05
0.000863972
1.39026e-05
0.000867818
1.17749e-05
0.000871906
9.73433e-06
0.000876289
7.12527e-06
4.80431e-06
0.000881039
0.000788228
3.82087e-05
0.000789781
2.92615e-05
0.000791884
2.24269e-05
0.00079439
1.72893e-05
0.000797282
1.35349e-05
0.000800422
1.06975e-05
0.000803809
8.35276e-06
0.000807378
6.13541e-06
0.000811241
3.2831e-06
7.19001e-07
0.000815305
0.000730064
3.68866e-05
0.000731828
2.75145e-05
0.000733917
2.02998e-05
0.000736322
1.48773e-05
0.000738943
1.08778e-05
0.000741748
7.88048e-06
0.000744695
5.4027e-06
0.000747756
3.101e-06
0.00075102
3.06014e-08
-2.57821e-06
0.000754353
0.000675972
3.52384e-05
0.000677927
2.55471e-05
0.000680095
1.81108e-05
0.000682431
1.25164e-05
0.000684876
8.40835e-06
0.000687389
5.34892e-06
0.000689945
2.83697e-06
0.000692503
5.3148e-07
0.000695268
-2.66449e-06
-5.3126e-06
0.000697922
0.00062575
3.32975e-05
0.000627897
2.33749e-05
0.000630156
1.58073e-05
0.000632475
1.01515e-05
0.000634789
6.03624e-06
0.000637059
3.03109e-06
0.000639264
5.88328e-07
0.000641389
-1.59626e-06
0.000643592
-4.93427e-06
-7.37974e-06
0.000645703
0.000579192
3.11784e-05
0.000581498
2.10655e-05
0.000583851
1.34502e-05
0.000586161
7.81211e-06
0.000588374
3.79129e-06
0.000590425
9.25179e-07
0.00059232
-1.36693e-06
0.000594002
-3.36575e-06
0.000595776
-6.70814e-06
-9.10229e-06
0.0005973
0.000536099
2.88638e-05
0.000538557
1.8604e-05
0.000541001
1.09839e-05
0.000543322
5.42983e-06
0.000545453
1.5981e-06
0.000547314
-1.02886e-06
0.000548912
-3.0424e-06
0.000550201
-4.72623e-06
0.00055145
-8.09522e-06
-1.00426e-05
0.000552456
0.000496219
2.64804e-05
0.000498806
1.61118e-05
0.000501326
8.52874e-06
0.000503667
3.13864e-06
0.000505718
-4.63882e-07
0.000507406
-2.77408e-06
0.000508707
-4.46968e-06
0.00050959
-5.79658e-06
0.000510448
-9.07785e-06
-1.08753e-05
0.000510901
0.000459362
2.39316e-05
0.000462073
1.3468e-05
0.000464681
5.94216e-06
0.000467045
7.59169e-07
0.000469039
-2.52487e-06
0.000470547
-4.38139e-06
0.000471555
-5.62069e-06
0.000472059
-6.44314e-06
0.000472419
-9.65656e-06
-1.08162e-05
0.000472458
0.000425268
2.14212e-05
0.000428086
1.09003e-05
0.000430778
3.4886e-06
0.000433164
-1.45165e-06
0.000435102
-4.38852e-06
0.000436421
-5.77437e-06
0.000437152
-6.58315e-06
0.000437268
-6.93601e-06
0.000437249
-9.98674e-06
-1.10462e-05
0.000436839
0.000393775
1.86951e-05
0.000396711
8.11426e-06
0.000399502
8.20288e-07
0.000401912
-3.84802e-06
0.000403796
-6.26306e-06
0.000404915
-7.04414e-06
0.000405372
-7.21483e-06
0.000405116
-6.94632e-06
0.000404621
-9.77688e-06
-1.02387e-05
0.000403967
0.00036463
1.61469e-05
0.000367671
5.58449e-06
0.000370546
-1.57608e-06
0.000372973
-5.88052e-06
0.000374779
-7.88252e-06
0.000375719
-8.0844e-06
0.000375909
-7.81929e-06
0.000375315
-7.04032e-06
0.000374496
-9.66814e-06
-1.02954e-05
0.000373529
0.000337713
1.32829e-05
0.000340855
2.67362e-06
0.000343832
-4.35431e-06
0.000346239
-8.20415e-06
0.000347985
-9.54304e-06
0.000348718
-8.96601e-06
0.000348656
-7.96179e-06
0.000347721
-6.46698e-06
0.000346545
-8.81737e-06
-8.9979e-06
0.000345462
0.000312801
1.07365e-05
0.000316028
1.85831e-07
0.000319069
-6.65508e-06
0.000321436
-9.99791e-06
0.000323108
-1.08356e-05
0.000323648
-9.64683e-06
0.000323367
-8.2064e-06
0.000322132
-6.22903e-06
0.000320712
-8.40479e-06
-9.06318e-06
0.000319468
0.000289802
7.69962e-06
0.000293131
-2.92906e-06
0.000296218
-9.52654e-06
0.00029852
-1.21917e-05
0.000300116
-1.21699e-05
0.00030044
-1.00502e-05
0.000299935
-7.72794e-06
0.000298389
-4.97326e-06
0.000296694
-6.80448e-06
-7.43445e-06
0.000295484
0.000268507
5.23315e-06
0.000271918
-5.3422e-06
0.000275001
-1.16317e-05
0.000277218
-1.36629e-05
0.000278728
-1.31155e-05
0.000278872
-1.03948e-05
0.00027818
-7.65419e-06
0.00027639
-4.4958e-06
0.000274529
-6.20751e-06
-7.75577e-06
0.00027323
0.00024883
2.09955e-06
0.000252301
-8.64306e-06
0.000255382
-1.44997e-05
0.0002575
-1.56091e-05
0.000258919
-1.40706e-05
0.000258863
-1.0256e-05
0.000257964
-6.55263e-06
0.000255901
-2.56526e-06
0.000253863
-4.0088e-06
-5.96507e-06
0.000252695
0.000230618
-2.13832e-07
0.000234108
-1.09444e-05
0.000237147
-1.63282e-05
0.00023914
-1.67317e-05
0.000240475
-1.45857e-05
0.000240252
-1.02643e-05
0.000239197
-6.07367e-06
0.000236925
-1.81e-06
0.00023478
-3.24198e-06
-6.57911e-06
0.000233615
0.00021381
-3.39388e-06
0.000217283
-1.42913e-05
0.000220263
-1.9046e-05
0.000222131
-1.82719e-05
0.000223359
-1.50267e-05
0.000222965
-9.49405e-06
0.000221711
-4.26314e-06
0.00021919
8.35579e-07
0.000216917
-4.68958e-07
-4.81239e-06
0.000215959
0.000198267
-5.42139e-06
0.000201672
-1.63071e-05
0.000204555
-2.05763e-05
0.000206274
-1.90517e-05
0.00020742
-1.53349e-05
0.000206903
-9.29283e-06
0.000205518
-3.60649e-06
0.000202822
1.76173e-06
0.000200459
2.74976e-07
-5.84713e-06
0.000199546
0.00018386
-8.47456e-06
0.000187182
-1.94026e-05
0.000189969
-2.28948e-05
0.000191545
-2.00305e-05
0.000192601
-1.52496e-05
0.000191944
-7.98901e-06
0.000190394
-1.29939e-06
0.000187463
4.87983e-06
0.000185014
3.29128e-06
-4.42194e-06
0.000184315
0.000170493
-9.98913e-06
0.000173727
-2.08887e-05
0.000176393
-2.39209e-05
0.00017781
-2.03953e-05
0.000178807
-1.53725e-05
0.000178071
-7.73111e-06
0.000176436
-6.67911e-07
0.000173348
5.74049e-06
0.000170859
3.67705e-06
-6.15176e-06
0.00017019
0.000158101