/*--------------------------------*- C++ -*----------------------------------*\
  =========                 |
  \\      /  F ield         | OpenFOAM: The Open Source CFD Toolbox
   \\    /   O peration     | Website:  https://openfoam.org
    \\  /    A nd           | Version:  6.0
     \\/     M anipulation  |
\*---------------------------------------------------------------------------*/
FoamFile
{
    version     2.0;
    format      ascii;
    class       volVectorField;
    location    "14";
    object      U;
}
// * * * * * * * * * * * * * * * * * * * * * * * * * * * * * * * * * * * * * //

dimensions      [0 1 -1 0 0 0 0];

internalField   nonuniform List<vector> 
4920
(
(0.996152 0.0880401 -1.0117e-19)
(0.996148 0.0880665 1.63166e-19)
(0.996141 0.0880654 -4.58468e-19)
(0.996134 0.0880581 6.4441e-19)
(0.996125 0.0880412 2.08993e-19)
(0.996113 0.0880145 -2.6817e-19)
(0.996094 0.0879725 6.48411e-19)
(0.996064 0.0879089 -1.49258e-19)
(0.996006 0.087806 3.20788e-19)
(0.995894 0.0876307 2.08584e-18)
(0.995681 0.0873085 -3.12981e-18)
(0.995292 0.0866697 3.81175e-18)
(0.994665 0.0853697 1.804e-18)
(0.993933 0.0826435 7.43531e-19)
(0.987989 0.0737561 -8.39006e-18)
(0.995961 0.0897377 6.94409e-20)
(0.995954 0.0897742 -4.23655e-19)
(0.995938 0.0897642 2.07382e-19)
(0.995915 0.0897352 9.33006e-20)
(0.99588 0.0896856 4.45225e-19)
(0.995832 0.0896089 1.54167e-19)
(0.995765 0.0894942 -1.28716e-18)
(0.995666 0.0893129 3.39954e-20)
(0.995511 0.0890266 4.00038e-19)
(0.995257 0.0885606 -3.93363e-18)
(0.994821 0.0877707 5.24708e-18)
(0.994105 0.0863496 -7.64023e-18)
(0.993051 0.0838066 6.67881e-19)
(0.992087 0.0790149 1.74829e-17)
(0.985301 0.06627 2.64464e-17)
(0.995566 0.0914375 4.83965e-20)
(0.995554 0.0914722 -4.07105e-19)
(0.995531 0.0914475 1.35761e-19)
(0.995491 0.0913843 3.2629e-19)
(0.995432 0.0912859 -9.67363e-19)
(0.995346 0.0911416 2.49999e-19)
(0.995227 0.0909404 3.61754e-19)
(0.99506 0.0906338 -8.22355e-19)
(0.994832 0.0901671 1.08749e-18)
(0.994514 0.0894445 -1.16362e-18)
(0.994053 0.0883074 2.687e-18)
(0.993421 0.0864373 -3.66567e-18)
(0.992668 0.0835664 -3.52571e-18)
(0.99255 0.0790797 -7.05156e-18)
(0.988577 0.0702891 -1.39409e-17)
(0.994941 0.0931561 1.59281e-20)
(0.994915 0.0931862 -1.33482e-19)
(0.994883 0.0931533 2.0639e-19)
(0.994829 0.0930659 -3.26903e-19)
(0.994748 0.0929201 1.24275e-19)
(0.99463 0.0927057 4.30319e-19)
(0.994461 0.0924126 1.02468e-18)
(0.994227 0.0919806 -3.86805e-19)
(0.993923 0.0913396 5.24196e-19)
(0.993532 0.0903718 2.99722e-18)
(0.993035 0.0889037 -5.22832e-18)
(0.992476 0.0865733 2.57076e-18)
(0.992011 0.083284 5.49587e-18)
(0.992706 0.0789538 -1.93132e-17)
(0.990894 0.0718064 -2.44278e-18)
(0.994137 0.0948583 1.34711e-19)
(0.994078 0.0948856 -3.12467e-19)
(0.994024 0.0948403 -4.62794e-20)
(0.993949 0.0947383 -1.64266e-19)
(0.993844 0.0945592 2.44138e-21)
(0.993695 0.0942894 5.29564e-19)
(0.993481 0.0939157 -2.55069e-19)
(0.993182 0.0933718 -1.57539e-18)
(0.992792 0.0925747 7.45226e-20)
(0.992302 0.0913832 -2.54836e-18)
(0.991705 0.0895994 1.99571e-20)
(0.991106 0.0867655 4.13355e-18)
(0.99074 0.0828151 -3.41484e-18)
(0.991915 0.0779951 5.08214e-18)
(0.992009 0.0706581 -9.26909e-18)
(0.993229 0.0965311 5.49429e-20)
(0.993117 0.0965406 1.6052e-19)
(0.993022 0.096477 -5.15623e-19)
(0.992909 0.0963637 4.1035e-19)
(0.992767 0.096164 2.73587e-19)
(0.992578 0.0958572 -5.72169e-19)
(0.992314 0.0954225 4.2737e-19)
(0.991948 0.0947863 1.5891e-18)
(0.99147 0.0938557 4.73721e-19)
(0.990872 0.0924672 1.0563e-18)
(0.99016 0.0904068 5.14565e-18)
(0.989508 0.0871156 -1.41916e-18)
(0.989222 0.082503 -8.11128e-18)
(0.99076 0.0770307 -6.33994e-18)
(0.993132 0.070009 -2.87502e-18)
(0.992266 0.0981701 -9.14932e-21)
(0.992085 0.0981869 1.66958e-19)
(0.99193 0.0981073 -2.61908e-19)
(0.991761 0.0979816 -1.26879e-19)
(0.991562 0.0977649 6.20199e-19)
(0.991314 0.097426 -3.46479e-19)
(0.990988 0.0969386 2.86799e-19)
(0.99055 0.0962182 -2.51339e-18)
(0.989982 0.0951654 1.82246e-18)
(0.989281 0.0935956 6.95075e-20)
(0.988469 0.0912872 -4.52876e-18)
(0.987807 0.0876037 -6.19102e-19)
(0.987686 0.0824455 6.83812e-18)
(0.98962 0.0764428 5.18418e-17)
(0.994405 0.0702794 1.9073e-17)
(0.991244 0.0998396 -2.38949e-20)
(0.990997 0.099846 1.01983e-19)
(0.990774 0.0997503 -2.45077e-19)
(0.990535 0.0996105 6.37554e-19)
(0.990261 0.0993784 1.27985e-19)
(0.989934 0.099013 -3.8404e-19)
(0.989528 0.0984796 -9.7451e-20)
(0.989006 0.0976782 7.75398e-19)
(0.98834 0.096502 -7.09746e-19)
(0.987531 0.0947469 3.05842e-19)
(0.986624 0.0921915 6.68456e-18)
(0.985979 0.0881355 1.66293e-19)
(0.986097 0.0824972 1.85242e-17)
(0.988479 0.0760503 -6.93952e-17)
(0.995405 0.0704486 -1.58538e-17)
(0.990131 0.101577 6.1954e-20)
(0.989829 0.101607 -2.45654e-19)
(0.989537 0.101504 1.46042e-19)
(0.989222 0.101346 -1.3092e-19)
(0.988863 0.101089 -1.36982e-19)
(0.988441 0.100684 -1.56714e-19)
(0.987935 0.100092 8.05584e-19)
(0.987315 0.0991968 -5.68449e-19)
(0.986536 0.097883 1.04113e-18)
(0.985603 0.0959217 -3.30295e-18)
(0.984582 0.0930838 -6.66537e-19)
(0.983942 0.0886097 -5.73932e-18)
(0.98432 0.0824512 -1.38261e-17)
(0.98717 0.0755184 3.87887e-18)
(0.995864 0.0697938 1.5603e-17)
(0.988861 0.10349 -5.32944e-20)
(0.988528 0.103505 3.98737e-20)
(0.988181 0.103386 -1.38098e-19)
(0.987796 0.1032 -1.04044e-19)
(0.987349 0.10291 6.65605e-20)
(0.986822 0.10246 -7.21398e-20)
(0.986199 0.101804 4.83561e-19)
(0.985463 0.100804 -5.10755e-19)
(0.984551 0.0993319 1.42956e-19)
(0.983468 0.0971306 -2.78102e-19)
(0.982298 0.0939596 -1.63139e-19)
(0.981628 0.088984 1.11452e-19)
(0.982259 0.0821916 -2.19963e-18)
(0.985602 0.0746513 2.01355e-17)
(0.995801 0.0682397 -1.33579e-18)
(0.987373 0.105588 -4.7172e-22)
(0.987032 0.105608 -1.84439e-20)
(0.986646 0.105474 -3.26008e-19)
(0.986202 0.105254 5.33099e-19)
(0.985673 0.104918 3.81173e-19)
(0.98504 0.104403 -6.48444e-19)
(0.984289 0.103661 2.31018e-19)
(0.983421 0.102534 -3.95199e-19)
(0.982355 0.100875 -3.44752e-20)
(0.981094 0.0983949 3.89113e-18)
(0.979739 0.0948229 -2.95354e-18)
(0.979006 0.0892372 -2.8635e-18)
(0.979878 0.0816626 1.78655e-18)
(0.983762 0.0733848 -1.88067e-17)
(0.995344 0.0659912 2.83988e-18)
(0.985613 0.107982 6.73715e-21)
(0.985286 0.107953 2.30589e-19)
(0.984882 0.107776 -1.05896e-19)
(0.984395 0.107502 -2.78331e-19)
(0.983794 0.107102 1.74952e-19)
(0.983058 0.106512 2.15318e-20)
(0.982173 0.10567 -2.57487e-19)
(0.981157 0.1044 -5.26317e-19)
(0.979918 0.102528 -4.84696e-19)
(0.978451 0.0997253 -3.10422e-18)
(0.97688 0.0956857 -5.31928e-18)
(0.976061 0.0893809 1.29767e-17)
(0.977183 0.0808736 -5.18716e-18)
(0.981705 0.0717501 4.97964e-17)
(0.994654 0.0632899 -2.18917e-17)
(0.983553 0.110606 3.57742e-20)
(0.983254 0.110554 3.69239e-20)
(0.982849 0.110332 1.4953e-19)
(0.982336 0.109996 1.2852e-19)
(0.981676 0.109515 -1.81889e-19)
(0.980843 0.108825 3.93114e-19)
(0.979819 0.107856 -3.29154e-19)
(0.978642 0.106418 -4.90141e-20)
(0.97721 0.1043 2.91037e-19)
(0.975506 0.101128 9.66627e-19)
(0.973701 0.0965456 4.47528e-18)
(0.972792 0.0894047 5.86547e-18)
(0.974201 0.079823 1.98647e-17)
(0.979494 0.0698036 -4.25406e-17)
(0.993827 0.0602859 3.41199e-17)
(0.98116 0.113506 -7.35966e-20)
(0.980905 0.113381 -1.70743e-20)
(0.980518 0.113094 1.99227e-19)
(0.979992 0.112688 -6.43205e-20)
(0.979286 0.112118 1.20025e-19)
(0.978362 0.111323 7.23737e-20)
(0.9772 0.110212 -5.14184e-19)
(0.975847 0.108586 2.05081e-19)
(0.974191 0.106192 -5.12487e-19)
(0.972233 0.102599 2.26129e-18)
(0.970177 0.0973929 -1.07562e-18)
(0.969192 0.089308 -9.87192e-18)
(0.970957 0.07852 -2.63115e-17)
(0.977196 0.067597 1.31959e-17)
(0.992948 0.057094 -4.62857e-18)
(0.978429 0.116601 3.53489e-20)
(0.978218 0.116459 3.95402e-20)
(0.977853 0.116115 -3.08491e-19)
(0.977324 0.115633 6.14867e-19)
(0.97658 0.114956 -2.02581e-19)
(0.975576 0.114027 1.6075e-19)
(0.974281 0.112743 -1.40478e-19)
(0.972728 0.110907 -5.55299e-19)
(0.970833 0.108198 2.30193e-18)
(0.968604 0.104121 -2.40291e-18)
(0.966291 0.0982058 2.26166e-18)
(0.96526 0.0890539 -3.23603e-18)
(0.967472 0.0769309 1.58006e-17)
(0.97484 0.0651297 -1.44663e-17)
(0.992028 0.0537326 -1.41264e-17)
(0.97538 0.119943 1.9579e-20)
(0.975209 0.119723 1.49761e-19)
(0.974864 0.119301 -2.52233e-19)
(0.974331 0.118735 1.22572e-19)
(0.973549 0.117951 -1.91747e-19)
(0.972463 0.116888 2.66969e-20)
(0.971026 0.115432 9.87832e-19)
(0.969264 0.113363 -1.66156e-18)
(0.967113 0.110291 -3.32589e-20)
(0.964594 0.105671 2.64208e-18)
(0.962021 0.0989556 -7.21435e-18)
(0.960978 0.0886163 1.63112e-18)
(0.963759 0.0750329 -3.31252e-19)
(0.972469 0.0624147 3.40154e-17)
(0.991115 0.0502312 -1.8438e-17)
(0.97197 0.123469 1.00159e-20)
(0.971825 0.123262 -5.21956e-22)
(0.971494 0.122769 -7.92414e-20)
(0.970957 0.122106 3.00522e-19)
(0.970141 0.121181 -2.28554e-19)
(0.968976 0.119951 1.19789e-19)
(0.967408 0.118279 1.9558e-19)
(0.965429 0.115929 -5.88445e-19)
(0.963003 0.112456 6.96486e-19)
(0.96018 0.107222 -4.65492e-18)
(0.95734 0.0996011 5.32616e-18)
(0.956334 0.0879315 2.12358e-18)
(0.959834 0.0727599 -3.04791e-18)
(0.970107 0.0594308 -1.42669e-17)
(0.990201 0.0465732 4.89496e-17)
(0.968229 0.127131 7.91891e-20)
(0.968092 0.126851 -1.74414e-19)
(0.967764 0.126276 1.53902e-19)
(0.967214 0.125522 8.26038e-20)
(0.966362 0.124478 -2.81449e-19)
(0.965121 0.123089 2.323e-19)
(0.963414 0.12121 -2.60034e-19)
(0.961206 0.11858 2.14771e-19)
(0.958482 0.114655 3.63688e-18)
(0.955323 0.108737 -2.22816e-18)
(0.952207 0.100096 -1.27776e-18)
(0.951304 0.086952 -1.40284e-18)
(0.955723 0.0700795 -1.02751e-18)
(0.967802 0.0561868 -1.82172e-17)
(0.989343 0.0427909 -2.71531e-17)
(0.964143 0.130847 8.2702e-21)
(0.964009 0.130574 6.09018e-20)
(0.963679 0.129937 -2.16188e-19)
(0.963113 0.129094 4.72892e-19)
(0.962217 0.12791 -1.69363e-19)
(0.960889 0.126354 2.71885e-19)
(0.959033 0.124244 1.64119e-19)
(0.956571 0.121291 6.54622e-19)
(0.953511 0.116881 -1.19419e-18)
(0.94998 0.11019 2.64223e-18)
(0.946598 0.100387 7.75488e-18)
(0.945889 0.0855897 9.05365e-18)
(0.951465 0.0669111 -1.66987e-17)
(0.965569 0.0526158 3.65947e-17)
(0.988502 0.0388276 -5.32097e-18)
(0.959703 0.134596 -6.37784e-20)
(0.959579 0.134241 5.87778e-20)
(0.959248 0.133553 -6.54859e-20)
(0.958658 0.13266 -1.34655e-19)
(0.957707 0.131384 2.84015e-19)
(0.956275 0.129671 -7.64695e-19)
(0.95424 0.127342 -4.1846e-19)
(0.9515 0.12407 2.01012e-19)
(0.94806 0.119107 9.60354e-20)
(0.944124 0.111538 1.34852e-18)
(0.940484 0.100418 -1.2987e-17)
(0.940077 0.0837855 -4.68285e-18)
(0.947103 0.0632315 1.21158e-17)
(0.963465 0.0487469 -2.75632e-17)
(0.987773 0.0346985 -1.0925e-17)
(0.95483 0.138483 5.32397e-20)
(0.954714 0.138156 -1.94673e-20)
(0.954384 0.1374 -2.09663e-19)
(0.953776 0.136429 1.84289e-19)
(0.952773 0.135017 4.98075e-19)
(0.951233 0.133133 -2.34835e-19)
(0.949015 0.130545 -5.54526e-20)
(0.945968 0.126895 -1.09152e-18)
(0.942107 0.121339 -1.02267e-18)
(0.937739 0.11277 5.76609e-19)
(0.93386 0.100137 1.04754e-17)
(0.933898 0.0814391 -8.0504e-19)
(0.942721 0.0589753 1.20243e-18)
(0.961526 0.0445384 1.24284e-17)
(0.987123 0.0304305 5.76968e-18)
(0.949647 0.142462 -5.92997e-21)
(0.949525 0.142006 3.82048e-20)
(0.949181 0.141171 -2.27629e-19)
(0.948536 0.140138 -1.54171e-19)
(0.947462 0.138639 -5.71089e-20)
(0.945796 0.136602 4.25571e-19)
(0.94336 0.13379 1.65978e-19)
(0.939976 0.129786 1.61861e-18)
(0.935649 0.123546 2.16151e-18)
(0.930805 0.113834 -8.66899e-19)
(0.926706 0.0994804 -8.20803e-19)
(0.927365 0.0784875 5.2302e-18)
(0.938404 0.0541618 6.87909e-18)
(0.959823 0.0400522 2.18142e-17)
(0.986648 0.0260351 1.02787e-18)
(0.944134 0.146631 9.48646e-21)
(0.94401 0.14617 2.82593e-20)
(0.943652 0.145239 3.02323e-20)
(0.942963 0.144102 -1.77448e-19)
(0.941801 0.14245 7.61651e-20)
(0.939977 0.140242 6.75214e-19)
(0.93729 0.137158 -1.18072e-18)
(0.933518 0.132724 -7.99592e-19)
(0.928664 0.125754 -1.76222e-19)
(0.9233 0.11473 -1.07173e-18)
(0.919025 0.0983882 -2.97126e-18)
(0.92054 0.0748074 -4.17829e-18)
(0.934263 0.0487318 9.59132e-18)
(0.95838 0.0352336 -1.26307e-17)
(0.986274 0.0215368 6.43642e-18)
(0.938304 0.150826 -7.98977e-21)
(0.938185 0.150233 3.21256e-20)
(0.937809 0.149248 -1.09359e-20)
(0.937063 0.14807 4.00216e-20)
(0.935787 0.146336 -3.9407e-20)
(0.93377 0.143967 -4.94629e-19)
(0.930777 0.140632 5.77824e-19)
(0.926582 0.135767 -8.72979e-20)
(0.921121 0.127925 -4.40764e-18)
(0.915192 0.115387 4.54083e-19)
(0.910785 0.0967638 -7.86932e-18)
(0.913454 0.0703191 -1.17445e-17)
(0.930408 0.0427535 -3.0645e-17)
(0.957269 0.0301754 1.8044e-19)
(0.986101 0.0169026 1.8424e-17)
(0.932026 0.155275 -1.11413e-20)
(0.931923 0.154726 -3.0487e-20)
(0.931538 0.153661 6.73017e-20)
(0.930736 0.152385 -3.24666e-19)
(0.92934 0.150493 3.1718e-19)
(0.927109 0.147936 -4.17757e-19)
(0.923795 0.144267 3.56614e-19)
(0.919107 0.13887 1.85474e-18)
(0.912968 0.13009 -1.74441e-19)
(0.906434 0.115788 2.57989e-18)
(0.901989 0.0945163 -3.77454e-18)
(0.906218 0.0648755 1.30164e-17)
(0.926999 0.0362128 1.32077e-17)
(0.956507 0.0248495 -2.98734e-17)
(0.986043 0.0121718 -1.54122e-17)
(0.925358 0.159788 -1.277e-21)
(0.92526 0.159125 -1.37903e-20)
(0.924853 0.158023 -6.68071e-20)
(0.923978 0.156713 -1.83187e-19)
(0.922441 0.154739 3.54093e-19)
(0.919974 0.151989 9.90388e-20)
(0.916278 0.148022 8.58603e-19)
(0.911054 0.142093 -3.36241e-18)
(0.904148 0.132164 1.34054e-18)
(0.896963 0.115809 -7.09532e-18)
(0.892598 0.0914866 5.54515e-18)
(0.898928 0.0584094 -1.08913e-17)
(0.924172 0.0292578 3.2211e-17)
(0.95614 0.0193579 3.45105e-17)
(0.98621 0.00730241 -1.53511e-17)
(0.918185 0.164631 5.34844e-21)
(0.918101 0.164014 -3.82583e-20)
(0.917683 0.162823 -8.97791e-20)
(0.916743 0.161402 1.46891e-20)
(0.915057 0.15925 2.5245e-19)
(0.912319 0.156298 -3.66992e-20)
(0.908196 0.151948 -1.03844e-18)
(0.90235 0.145364 1.89943e-18)
(0.894587 0.134184 1.58881e-18)
(0.886751 0.115434 4.30867e-18)
(0.882652 0.0875336 -8.14941e-19)
(0.89178 0.0507732 1.68866e-17)
(0.922082 0.0218884 -6.75552e-19)
(0.956135 0.0136433 2.19973e-17)
(0.986496 0.00240065 1.09963e-17)
(0.910636 0.169342 7.73222e-21)
(0.910564 0.168586 -9.31068e-20)
(0.910117 0.167434 -5.3118e-20)
(0.909071 0.166046 8.64587e-20)
(0.907185 0.16386 -4.00946e-19)
(0.904113 0.160726 -6.10196e-19)
(0.899478 0.156038 1.58339e-19)
(0.892961 0.148761 1.58904e-18)
(0.884239 0.136009 1.11758e-18)
(0.875734 0.114472 2.78901e-18)
(0.872146 0.0824472 4.6284e-18)
(0.884962 0.0419727 -1.6569e-18)
(0.920858 0.0143568 -3.52976e-17)
(0.95651 0.00780564 -1.54942e-17)
(0.987069 -0.0026143 -1.18633e-18)
(0.902478 0.174417 5.83435e-21)
(0.902433 0.17381 -1.37088e-19)
(0.901961 0.172637 -1.84453e-20)
(0.900811 0.171189 7.45981e-20)
(0.898708 0.168843 3.87705e-19)
(0.895271 0.165484 3.0488e-19)
(0.890096 0.160311 -3.10137e-19)
(0.882811 0.152182 -6.71185e-19)
(0.873064 0.137723 -1.12269e-18)
(0.863916 0.112912 -7.96126e-18)
(0.861205 0.0760481 2.35607e-19)
(0.878794 0.0319379 -1.66709e-17)
(0.920645 0.00673119 1.59921e-17)
(0.957189 0.00179342 1.52134e-17)
(0.987844 -0.0076176 -8.60512e-18)
(0.893798 0.179534 -8.74396e-21)
(0.893758 0.17885 -8.60169e-20)
(0.893238 0.177723 1.67179e-19)
(0.891954 0.176314 -8.10864e-20)
(0.889615 0.173928 2.93855e-19)
(0.885785 0.170344 -2.87798e-19)
(0.879999 0.164753 8.45877e-19)
(0.871929 0.155715 -1.30222e-18)
(0.861022 0.139097 5.25532e-19)
(0.851226 0.110481 -6.43532e-19)
(0.849902 0.068084 4.03481e-18)
(0.873561 0.0208288 -2.37982e-17)
(0.921498 -0.000652865 -1.24948e-17)
(0.95813 -0.00435238 7.55973e-18)
(0.988959 -0.0127328 5.85321e-18)
(0.884554 0.185187 -1.65964e-20)
(0.884529 0.184625 4.03341e-20)
(0.883967 0.183437 -1.71832e-19)
(0.882545 0.181918 -1.41379e-19)
(0.87994 0.179339 2.78469e-19)
(0.875677 0.175508 2.18691e-19)
(0.869247 0.169341 -1.51554e-18)
(0.86025 0.159241 1.45293e-18)
(0.848085 0.140298 -1.10483e-19)
(0.837715 0.107176 6.29875e-18)
(0.838484 0.0583505 -1.50166e-17)
(0.869651 0.00867964 3.26904e-17)
(0.923448 -0.00776536 -1.82974e-17)
(0.95921 -0.0106856 -4.28437e-17)
(0.990294 -0.0177128 3.07152e-18)
(0.874693 0.190736 -3.16853e-20)
(0.874703 0.190156 -9.8144e-21)
(0.874116 0.189025 5.20944e-20)
(0.872563 0.187538 2.5445e-19)
(0.869697 0.184893 -3.58277e-19)
(0.864978 0.180793 -8.64027e-19)
(0.857834 0.174154 1.18096e-18)
(0.847849 0.162901 -1.61318e-18)
(0.834226 0.141012 8.93832e-20)
(0.823315 0.102603 -5.36334e-18)
(0.827174 0.0466525 1.81528e-17)
(0.867398 -0.00409663 -8.90076e-18)
(0.926434 -0.0142269 -2.51284e-19)
(0.960371 -0.0172126 -1.26953e-17)
(0.991943 -0.0227347 1.90842e-17)
(0.864254 0.196486 -3.5411e-20)
(0.864323 0.196033 -2.14355e-20)
(0.863722 0.194925 -1.55723e-20)
(0.862043 0.193395 4.4275e-21)
(0.858901 0.190628 1.67408e-19)
(0.853705 0.186332 2.56811e-19)
(0.845775 0.179077 -4.9426e-19)
(0.834482 0.166503 8.74396e-19)
(0.819392 0.14154 4.45746e-18)
(0.808151 0.0967513 9.66881e-19)
(0.816434 0.0328715 -9.77419e-18)
(0.867214 -0.01725 -7.17464e-18)
(0.930376 -0.0200365 1.56653e-17)
(0.961476 -0.0239322 1.39839e-17)
(0.993864 -0.0274706 -7.63666e-18)
(0.853291 0.201951 1.4525e-20)
(0.85342 0.201555 -5.23241e-20)
(0.852796 0.200627 8.64859e-20)
(0.850966 0.199203 -2.80062e-19)
(0.847507 0.196433 8.73406e-20)
(0.841693 0.191924 8.66313e-19)
(0.832734 0.184266 4.29826e-19)
(0.820198 0.170222 3.29323e-19)
(0.803425 0.141192 -1.59063e-18)
(0.792164 0.0890016 4.24197e-18)
(0.806655 0.0169575 -1.18497e-17)
(0.869296 -0.0301803 4.21969e-17)
(0.935012 -0.0249427 2.92388e-18)
(0.962448 -0.0309691 1.43979e-17)
(0.996032 -0.0321676 -2.28729e-17)
(0.84151 0.207751 -8.26875e-21)
(0.841742 0.207574 1.86582e-20)
(0.841108 0.206684 -9.92017e-20)
(0.83909 0.205271 3.82213e-19)
(0.835175 0.202494 -1.94562e-19)
(0.828672 0.197907 -5.9328e-19)
(0.818669 0.189433 -2.90953e-20)
(0.804556 0.173565 7.2266e-20)
(0.786261 0.140395 -9.13263e-18)
(0.775572 0.0792337 1.04298e-17)
(0.798436 -0.00109579 1.14208e-17)
(0.873818 -0.0426405 -1.99892e-17)
(0.940105 -0.029157 7.52108e-18)
(0.963157 -0.0382446 1.69784e-17)
(0.998554 -0.0364045 1.25554e-17)
(0.828637 0.213335 -1.33375e-20)
(0.828986 0.213396 -3.78863e-20)
(0.828355 0.212784 6.89989e-20)
(0.826135 0.211599 -2.51771e-19)
(0.821858 0.208819 7.77167e-20)
(0.81458 0.203861 1.35202e-20)
(0.803368 0.194847 1.07519e-18)
(0.787874 0.176898 -2.66697e-18)
(0.767892 0.138147 9.2026e-18)
(0.758517 0.0667566 -7.70336e-18)
(0.792373 -0.0209081 9.34581e-18)
(0.880727 -0.0539312 -1.13674e-17)
(0.945271 -0.0325749 -1.56106e-19)
(0.96362 -0.0458667 1.96617e-17)
(1.00121 -0.0404069 2.60642e-18)
(0.815019 0.219408 -1.6895e-20)
(0.815505 0.219707 -1.95853e-20)
(0.814898 0.219242 1.2182e-19)
(0.812514 0.218039 -4.30776e-20)
(0.807754 0.215297 6.86592e-20)
(0.799643 0.210329 -4.54869e-19)
(0.787148 0.200158 -8.23267e-19)
(0.769946 0.179751 4.60804e-18)
(0.748358 0.135173 -3.95891e-18)
(0.741579 0.0517723 -8.76737e-18)
(0.7893 -0.0418845 -1.85712e-17)
(0.88998 -0.063704 2.04227e-17)
(0.95028 -0.0354453 1.22732e-17)
(0.963767 -0.0535532 -3.0868e-17)
(1.00434 -0.043383 -1.01002e-17)
(0.800914 0.225273 -1.85082e-20)
(0.80162 0.225883 5.35079e-20)
(0.801089 0.225728 -7.39173e-20)
(0.798514 0.224892 9.32902e-20)
(0.793187 0.222301 -5.62695e-20)
(0.783972 0.21701 2.95308e-19)
(0.770034 0.206063 -7.79859e-19)
(0.751129 0.182674 1.64533e-18)
(0.727728 0.130212 -6.48108e-18)
(0.725377 0.0338482 -1.48401e-18)
(0.789871 -0.0629176 -1.36944e-17)
(0.901204 -0.0712774 -4.24976e-18)
(0.954696 -0.0378085 -4.75106e-18)
(0.963743 -0.0613003 -2.41805e-17)
(1.00745 -0.045696 2.51496e-17)
(0.786464 0.231332 5.37633e-21)
(0.787493 0.232236 -2.07041e-20)
(0.787063 0.232509 8.45587e-21)
(0.784204 0.232086 -1.74463e-19)
(0.778114 0.229981 3.26673e-19)
(0.76775 0.224611 -4.50155e-19)
(0.752016 0.211958 8.10586e-19)
(0.73112 0.185215 -6.42302e-18)
(0.706028 0.124007 1.22388e-17)
(0.710614 0.0134296 1.14866e-18)
(0.794449 -0.0834043 1.96731e-17)
(0.913874 -0.076875 -2.36633e-18)
(0.958277 -0.0401883 -1.61687e-17)
(0.963433 -0.0688703 1.92364e-17)
(1.01115 -0.0466145 -2.75776e-17)
(0.771591 0.237268 6.03056e-21)
(0.773043 0.238735 -4.33954e-20)
(0.772736 0.239818 -5.24021e-20)
(0.769558 0.240264 4.06135e-19)
(0.762657 0.238507 -3.43079e-19)
(0.750727 0.232825 6.0907e-19)
(0.733128 0.218888 -1.35087e-18)
(0.7104 0.187988 1.06154e-18)
(0.683648 0.11538 2.93793e-18)
(0.698765 -0.00879405 3.01867e-17)
(0.80342 -0.101396 -1.67159e-18)
(0.92737 -0.0799741 1.17423e-17)
(0.960714 -0.0425636 -8.29577e-18)
(0.963198 -0.075897 2.19578e-17)
(1.01478 -0.046633 1.11543e-17)
(0.755722 0.243838 1.31119e-20)
(0.757877 0.246045 -5.66582e-21)
(0.757934 0.247966 -1.57561e-20)
(0.754521 0.249204 4.24968e-20)
(0.746662 0.248226 3.23415e-19)
(0.733089 0.242272 5.39328e-19)
(0.713384 0.225874 2.63032e-19)
(0.688832 0.190476 2.74364e-18)
(0.660955 0.105189 -5.28953e-18)
(0.691659 -0.0302874 -4.33376e-17)
(0.817279 -0.115399 2.01528e-17)
(0.941314 -0.0805831 -2.72559e-17)
(0.96208 -0.0450934 2.56215e-17)
(0.96285 -0.0820319 -3.60418e-17)
(1.01908 -0.0444659 7.00743e-18)
(0.738685 0.249976 -6.89865e-21)
(0.741983 0.253269 -4.23945e-20)
(0.7427 0.25658 4.45034e-20)
(0.739232 0.259265 -2.42851e-19)
(0.730328 0.259105 6.92368e-20)
(0.714791 0.252937 1.63591e-19)
(0.693148 0.234411 8.46969e-19)
(0.666732 0.192991 3.65757e-19)
(0.63965 0.0931167 -2.538e-18)
(0.690886 -0.0495522 6.77332e-18)
(0.834165 -0.124313 -1.93633e-17)
(0.954065 -0.0787763 2.29709e-18)
(0.962085 -0.0473077 -2.0748e-17)
(0.96298 -0.0861776 3.26436e-17)
(1.02324 -0.0407092 -7.77777e-18)
(0.721467 0.255022 -8.07303e-21)
(0.726195 0.259769 6.94859e-20)
(0.727774 0.265287 -1.80486e-19)
(0.724247 0.270121 1.74312e-19)
(0.714365 0.271767 -4.57187e-19)
(0.697254 0.265725 -3.2638e-20)
(0.672367 0.244089 -2.32512e-19)
(0.644844 0.19496 -3.23879e-18)
(0.620345 0.0794954 4.45163e-18)
(0.698879 -0.062515 2.21199e-17)
(0.855551 -0.131531 1.94549e-17)
(0.966314 -0.0785132 6.58903e-18)
(0.961013 -0.0509263 2.49514e-17)
(0.962826 -0.0893228 -1.90234e-17)
(1.02785 -0.0346683 9.74583e-19)
(0.704804 0.258885 -1.82554e-20)
(0.711407 0.2656 -9.37735e-21)
(0.71417 0.274336 1.35513e-19)
(0.710949 0.282133 -1.27083e-19)
(0.70014 0.285753 -4.94822e-19)
(0.679951 0.280826 5.23727e-19)
(0.651599 0.256056 -2.51908e-18)
(0.623918 0.197058 2.25074e-18)
(0.605921 0.0652599 -2.26244e-18)
(0.726938 -0.0570952 3.97224e-18)
(0.888987 -0.120592 2.78894e-18)
(0.981713 -0.0706314 1.23584e-19)
(0.961119 -0.0529162 -2.94823e-17)
(0.96479 -0.0900569 -1.711e-17)
(1.0334 -0.0283666 -3.66116e-18)
(0.689219 0.261089 1.77504e-20)
(0.698505 0.270331 -6.19122e-21)
(0.702791 0.283005 -4.06675e-20)
(0.699086 0.294648 1.05775e-19)
(0.686057 0.301696 3.85879e-19)
(0.662902 0.297637 -1.25827e-18)
(0.631625 0.269977 5.42584e-19)
(0.604354 0.198319 -8.01675e-19)
(0.603356 0.0511278 -6.22589e-18)
(0.788093 -0.0194317 9.05249e-18)
(0.922086 -0.0940778 -2.40006e-17)
(0.985987 -0.0545316 1.2988e-18)
(0.957837 -0.0479528 1.34216e-17)
(0.96717 -0.0846165 3.77844e-17)
(1.04024 -0.0170889 2.03618e-18)
(0.674803 0.260539 7.02676e-21)
(0.686701 0.273316 -4.23792e-21)
(0.691358 0.292369 -8.65573e-20)
(0.686436 0.309446 2.38098e-19)
(0.671003 0.319737 5.95686e-20)
(0.647197 0.317053 1.0297e-18)
(0.612466 0.282884 4.736e-19)
(0.592296 0.208078 8.19316e-20)
(0.625842 0.0558037 7.66408e-18)
(0.830925 0.0345323 -4.03768e-17)
(0.924019 -0.0841955 1.85012e-17)
(0.973586 -0.0444405 -3.74397e-18)
(0.947475 -0.0352925 1.38332e-18)
(0.966131 -0.0667405 -1.78839e-17)
(1.04311 0.00196005 -3.7349e-18)
(0.659958 0.25913 -5.7272e-22)
(0.67478 0.27788 7.59607e-21)
(0.680737 0.304741 -5.36843e-20)
(0.674351 0.328141 7.57468e-20)
(0.657047 0.33853 -1.83045e-19)
(0.629762 0.326036 -1.92136e-19)
(0.61192 0.316117 -1.07622e-18)
(0.614364 0.251244 -2.39096e-18)
(0.669651 0.0822996 9.7504e-18)
(0.7856 0.0812085 -9.77418e-18)
(0.873678 -0.128741 -9.78468e-18)
(0.976053 -0.0535949 2.76899e-18)
(0.949448 -0.020169 1.54158e-17)
(0.964235 -0.0383971 1.28622e-17)
(1.03856 0.0319157 5.47816e-18)
(0.645269 0.255125 -4.62269e-21)
(0.664069 0.280663 -3.49999e-21)
(0.668725 0.320599 4.45503e-20)
(0.659273 0.349642 -8.23575e-21)
(0.640176 0.357954 4.06012e-20)
(0.643061 0.374347 1.00336e-19)
(0.639975 0.378043 1.49681e-18)
(0.651134 0.316912 2.47665e-18)
(0.690878 0.15198 -2.26493e-17)
(0.866645 0.259123 6.86298e-19)
(0.861369 -0.121977 3.09635e-18)
(1.022 -0.052441 -2.99888e-19)
(0.989185 0.00195411 -1.14777e-17)
(0.983734 -0.00221848 -3.10938e-17)
(1.0384 0.0648078 -1.38089e-18)
(0.622141 0.249449 4.73013e-21)
(0.638837 0.288697 -1.36367e-22)
(0.646857 0.341966 1.06766e-20)
(0.65248 0.382593 -9.52776e-20)
(0.646255 0.370428 -3.6431e-20)
(0.655648 0.413736 4.95797e-19)
(0.643376 0.413403 5.21173e-19)
(0.699185 0.443138 6.63975e-19)
(1.03682 0.786829 1.6708e-17)
(1.15276 0.754813 -1.73344e-17)
(0.938791 0.00651886 -7.7101e-20)
(1.10472 -0.0158313 1.15184e-19)
(1.07828 0.0391775 -7.03173e-18)
(1.05105 0.0481947 1.78534e-18)
(1.0708 0.105149 -1.30018e-19)
(0.633837 0.257595 -1.05303e-21)
(0.704811 0.312067 7.64981e-21)
(0.734521 0.387039 3.23768e-20)
(0.670095 0.398104 -9.20634e-21)
(0.695522 0.377607 7.11324e-20)
(0.762501 0.453651 4.3811e-19)
(0.740891 0.487435 2.6044e-18)
(0.748622 0.626455 -3.40054e-18)
(1.54608 1.7887 -2.7842e-17)
(1.45825 1.40774 6.20599e-17)
(1.04777 0.218138 -1.11263e-18)
(1.1842 0.0545369 -3.53267e-19)
(1.17718 0.0960912 4.54682e-19)
(1.14575 0.114717 3.30229e-17)
(1.13317 0.151559 -4.1962e-19)
(0.715742 0.238272 6.77373e-20)
(0.688414 0.296867 4.33613e-21)
(0.662332 0.391564 -2.93139e-20)
(0.672159 0.397884 -8.0033e-19)
(0.835647 0.411892 8.41398e-19)
(1.13814 0.610585 -5.12068e-18)
(0.92676 0.648241 -2.17385e-18)
(0.942304 1.07596 2.10017e-18)
(1.68464 2.44903 5.18289e-17)
(1.58672 2.07808 -4.67074e-17)
(1.13541 0.42232 -6.36345e-19)
(1.24736 0.143624 -7.77108e-20)
(1.25911 0.171052 -4.54041e-18)
(1.22957 0.195826 -3.15434e-17)
(1.19396 0.207187 -6.16481e-19)
(0.524375 0.0501414 -2.54098e-20)
(0.444675 0.200285 4.54738e-20)
(0.399778 0.264454 2.3988e-19)
(0.456982 0.210232 1.12823e-18)
(0.792809 0.283024 1.37931e-19)
(1.46873 0.78072 6.37184e-18)
(1.01941 0.928422 -1.06482e-17)
(1.14904 1.6538 -1.17999e-18)
(1.68029 2.92608 -2.78542e-17)
(1.59247 2.47346 1.45022e-17)
(1.29871 0.722462 -1.69324e-18)
(1.28654 0.217826 5.26479e-19)
(1.31203 0.229858 -3.41853e-19)
(1.28757 0.232496 2.76627e-17)
(1.24015 0.228721 1.94388e-18)
(0.227747 -0.0326841 -1.60873e-19)
(0.175266 0.070205 -2.82154e-19)
(0.222559 0.0150128 -5.2667e-20)
(0.366013 -0.0462894 6.17441e-19)
(0.518125 0.0192718 -3.54637e-18)
(1.71178 1.16996 -1.52779e-18)
(1.18377 1.32918 -9.60282e-18)
(1.20002 2.00164 -3.09808e-18)
(1.35486 2.64946 6.76258e-18)
(1.35147 2.48726 9.18152e-19)
(0.921225 0.79992 -3.83562e-18)
(1.29925 0.282856 3.32413e-18)
(1.33196 0.27079 1.91117e-17)
(1.30705 0.246516 3.18029e-17)
(1.25838 0.230676 -1.68917e-19)
(0.13922 -0.162626 1.79315e-19)
(0.0381389 -0.0998588 -9.02171e-20)
(0.0509916 -0.260088 -8.73523e-20)
(0.447009 -0.168817 2.83031e-18)
(0.598637 0.162868 5.09382e-18)
(1.88238 1.52239 -1.62197e-17)
(1.39379 1.71068 6.16035e-18)
(1.10372 2.24072 2.85098e-17)
(0.420115 0.656041 8.60436e-18)
(0.623917 1.51071 1.45955e-17)
(0.00312452 -0.255656 7.66671e-18)
(1.23268 0.183759 7.89205e-18)
(1.29494 0.155018 -4.89972e-17)
(1.28689 0.125325 -6.49083e-17)
(1.25777 0.144142 4.61144e-18)
(-0.0316829 -0.284351 4.68222e-19)
(0.327826 -0.802941 2.77019e-18)
(0.181403 -0.554152 1.12127e-18)
(0.684297 -0.110787 -2.50403e-18)
(0.538937 0.189327 -5.60615e-18)
(1.68061 1.54925 6.13069e-17)
(0.285685 0.729846 1.23198e-17)
(-0.227022 0.318925 -2.53307e-17)
(-0.112101 -0.406969 -3.65323e-18)
(0.119384 -0.171964 -1.61376e-17)
(-0.530562 -1.59312 -1.77888e-18)
(0.92368 -0.363677 -3.31342e-17)
(1.16128 -0.185617 5.35345e-17)
(1.20208 -0.0869717 3.93886e-17)
(1.21863 0.00574142 -2.16981e-18)
(-0.558622 0.452977 1.85208e-19)
(-0.0552395 -0.00661707 -1.20347e-18)
(0.122125 -0.192989 -3.0502e-19)
(0.300695 -0.0950023 2.43883e-18)
(0.291474 0.108967 5.71418e-18)
(0.763607 0.911484 -5.19746e-17)
(-1.02351 -0.374646 1.02728e-17)
(-1.48572 -1.85542 9.44907e-18)
(-1.35892 -2.47833 8.10986e-18)
(-1.01118 -2.45159 -5.76088e-18)
(-0.99047 -2.79017 1.10651e-19)
(0.242611 -1.68487 5.13179e-17)
(0.855613 -0.840244 -7.34441e-17)
(1.01442 -0.515873 -3.63592e-17)
(1.12125 -0.251823 -1.74976e-19)
(-0.843397 1.23541 -1.90176e-19)
(-0.768733 0.731868 3.28258e-19)
(-0.693623 0.166484 -9.47098e-19)
(-0.515279 0.0854683 -4.95729e-18)
(-0.359079 -0.0589321 -5.19855e-18)
(-2.66267 -1.4161 2.10533e-17)
(-7.53478 -7.94627 -1.46846e-17)
(-4.30913 -4.12666 -4.38867e-18)
(-2.96111 -4.0952 9.55891e-18)
(-2.47583 -4.69116 -6.4524e-18)
(-1.77034 -4.04956 1.12276e-18)
(-0.304222 -2.568 -1.85122e-17)
(0.494775 -1.47197 6.49564e-17)
(0.734335 -1.0034 -9.04719e-18)
(0.949314 -0.532934 -3.74651e-18)
(-1.24094 1.83822 1.2186e-19)
(-1.60467 1.56539 1.16111e-18)
(-1.6279 1.05055 2.29591e-18)
(-1.51505 0.427462 3.16096e-18)
(-1.74066 -0.519109 -1.13241e-18)
(-4.97763 -4.06133 -1.38977e-17)
(-6.04609 -8.8181 -2.23204e-17)
(-5.01538 -5.75406 1.09364e-17)
(-3.58793 -4.99939 -1.47254e-17)
(-2.91809 -5.25985 1.34713e-17)
(-1.92343 -4.06338 2.13648e-17)
(-0.704907 -2.79733 -3.42635e-17)
(0.0685037 -2.0431 -1.38351e-17)
(0.367963 -1.45895 2.49167e-17)
(0.684609 -0.765831 -4.09824e-18)
(-1.08296 2.37226 -8.76103e-20)
(-1.69627 2.25141 -8.18378e-19)
(-2.04595 1.72448 -2.97289e-18)
(-2.27529 0.643725 3.53055e-18)
(-2.6734 -0.823282 5.96406e-18)
(-4.5695 -3.34314 1.20138e-17)
(-3.33698 -6.35437 -3.66348e-18)
(-4.48108 -6.52662 -1.40442e-17)
(-2.62932 -4.89327 -8.8423e-18)
(-1.88301 -4.42078 -6.16089e-18)
(-1.29009 -3.13136 -3.05789e-17)
(-0.668853 -2.20397 2.04478e-17)
(-0.123428 -1.72656 -3.86561e-18)
(0.135043 -1.21823 1.88941e-18)
(0.404088 -0.638666 -4.93755e-19)
(-0.719401 2.38423 5.75304e-20)
(-1.342 2.3414 -4.08931e-19)
(-1.86596 1.87825 -1.27426e-18)
(-2.42174 0.892421 -5.55913e-18)
(-2.92892 -0.371836 -1.53844e-18)
(-3.71897 -2.5987 -1.64874e-17)
(-3.03447 -3.57503 1.98596e-17)
(-2.01213 -4.3182 2.89294e-17)
(-0.59551 -2.94573 -3.9001e-17)
(-0.400589 -2.54599 1.66789e-17)
(-0.380154 -1.59331 -7.02762e-17)
(-0.244882 -0.852721 -9.67849e-18)