/*--------------------------------*- C++ -*----------------------------------*\
  =========                 |
  \\      /  F ield         | OpenFOAM: The Open Source CFD Toolbox
   \\    /   O peration     | Website:  https://openfoam.org
    \\  /    A nd           | Version:  6.0
     \\/     M anipulation  |
\*---------------------------------------------------------------------------*/
FoamFile
{
    version     2.0;
    format      ascii;
    class       surfaceScalarField;
    location    "3.75";
    object      phi;
}
// * * * * * * * * * * * * * * * * * * * * * * * * * * * * * * * * * * * * * //

dimensions      [0 3 -1 0 0 0 0];

internalField   nonuniform List<scalar> 
26699
(
2.0051e-05
0.005201
5.9952e-10
4.0126e-05
0.0051116
5.9639e-05
0.0049351
7.8187e-05
0.0046741
9.5415e-05
0.0043332
0.00011102
0.0039182
0.00012472
0.0034362
0.00013626
0.0028953
0.00014546
0.002305
0.00015181
0.0016755
0.00015717
0.0010154
0.00046503
3.4351e-05
2.0051e-05
0.0051809
1.8158e-09
4.0127e-05
0.0050916
5.964e-05
0.0049155
7.819e-05
0.0046556
9.5417e-05
0.004316
0.00011102
0.0039026
0.00012471
0.0034225
0.00013625
0.0028838
0.00014545
0.0022958
0.00015105
0.0016699
0.0001589
0.0010076
0.00055905
6.488e-05
2.0051e-05
0.0051609
3.1275e-09
4.0128e-05
0.0050715
5.9643e-05
0.004896
7.8193e-05
0.004637
9.542e-05
0.0042988
0.00011103
0.003887
0.00012471
0.0034088
0.00013623
0.0028723
0.00014547
0.0022865
0.00015029
0.0016651
0.00016016
0.00099768
0.00062922
8.9992e-05
2.0051e-05
0.0051408
4.4592e-09
4.013e-05
0.0050514
5.9645e-05
0.0048765
7.8196e-05
0.0046185
9.5423e-05
0.0042815
0.00011103
0.0038714
0.0001247
0.0033951
0.0001362
0.0028608
0.00014551
0.0022772
0.00014955
0.001661
0.00016089
0.00098633
0.00067994
0.00011018
2.0051e-05
0.0051208
5.7938e-09
4.0131e-05
0.0050313
5.9647e-05
0.004857
7.8199e-05
0.0045999
9.5427e-05
0.0042643
0.00011103
0.0038558
0.0001247
0.0033815
0.00013618
0.0028493
0.00014558
0.0022678
0.00014885
0.0016578
0.0001611
0.00097408
0.00071482
0.00012621
2.0051e-05
0.0051007
7.1314e-09
4.0132e-05
0.0050112
5.9649e-05
0.0048375
7.8202e-05
0.0045814
9.543e-05
0.0042471
0.00011103
0.0038402
0.0001247
0.0033678
0.00013615
0.0028378
0.00014567
0.0022583
0.00014822
0.0016552
0.00016086
0.00096145
0.00073691
0.00013877
2.0051e-05
0.0050807
8.472e-09
4.0133e-05
0.0049912
5.9652e-05
0.004818
7.8206e-05
0.0045628
9.5433e-05
0.0042299
0.00011103
0.0038246
0.0001247
0.0033541
0.00013612
0.0028264
0.00014578
0.0022486
0.00014768
0.0016533
0.00016025
0.00094888
0.00074875
0.00014841
2.005e-05
0.0050606
9.8156e-09
4.0134e-05
0.0049711
5.9654e-05
0.0047984
7.8209e-05
0.0045442
9.5436e-05
0.0042126
0.00011104
0.003809
0.0001247
0.0033405
0.00013608
0.002815
0.00014591
0.0022388
0.00014724
0.001652
0.00015938
0.00093675
0.00075251
0.00015562
2.005e-05
0.0050405
1.1162e-08
4.0135e-05
0.004951
5.9656e-05
0.0047789
7.8212e-05
0.0045257
9.5439e-05
0.0041954
0.00011104
0.0037934
0.0001247
0.0033268
0.00013604
0.0028037
0.00014604
0.0022288
0.00014691
0.0016511
0.00015832
0.00092534
0.00075
0.00016083
2.005e-05
0.0050205
1.2512e-08
4.0137e-05
0.0049309
5.9659e-05
0.0047594
7.8215e-05
0.0045071
9.5443e-05
0.0041782
0.00011104
0.0037778
0.0001247
0.0033132
0.00013599
0.0027924
0.00014618
0.0022186
0.00014669
0.0016506
0.00015715
0.00091487
0.00074273
0.00016442
2.005e-05
0.0050004
1.3865e-08
4.0138e-05
0.0049108
5.9661e-05
0.0047399
7.8218e-05
0.0044886
9.5446e-05
0.004161
0.00011104
0.0037622
0.0001247
0.0032995
0.00013595
0.0027812
0.00014632
0.0022082
0.00014657
0.0016504
0.00015595
0.00090549
0.00073196
0.00016672
2.005e-05
0.0049803
1.5222e-08
4.0139e-05
0.0048907
5.9663e-05
0.0047204
7.8221e-05
0.00447
9.545e-05
0.0041437
0.00011105
0.0037466
0.00012471
0.0032858
0.00013589
0.00277
0.00014646
0.0021977
0.00014656
0.0016503
0.00015476
0.0008973
0.00071871
0.00016801
2.005e-05
0.0049603
1.6581e-08
4.014e-05
0.0048706
5.9666e-05
0.0047008
7.8224e-05
0.0044515
9.5453e-05
0.0041265
0.00011105
0.003731
0.00012472
0.0032722
0.00013584
0.0027589
0.00014659
0.0021869
0.00014665
0.0016502
0.00015362
0.00089032
0.00070381
0.00016852
2.005e-05
0.0049402
1.7944e-08
4.0141e-05
0.0048506
5.9668e-05
0.0046813
7.8227e-05
0.0044329
9.5457e-05
0.0041093
0.00011105
0.0037154
0.00012472
0.0032585
0.00013578
0.0027478
0.00014671
0.002176
0.00014682
0.0016501
0.00015257
0.00088456
0.00068795
0.00016844
2.005e-05
0.0049201
1.9311e-08
4.0142e-05
0.0048305
5.9671e-05
0.0046618
7.823e-05
0.0044143
9.546e-05
0.004092
0.00011105
0.0036998
0.00012473
0.0032448
0.00013571
0.0027368
0.00014682
0.0021649
0.00014707
0.0016499
0.00015164
0.00087999
0.00067166
0.00016793
2.005e-05
0.0049001
2.0681e-08
4.0144e-05
0.0048104
5.9673e-05
0.0046422
7.8233e-05
0.0043958
9.5464e-05
0.0040748
0.00011105
0.0036842
0.00012474
0.0032311
0.00013565
0.0027259
0.00014692
0.0021536
0.00014738
0.0016494
0.00015083
0.00087654
0.00065536
0.00016713
2.005e-05
0.00488
2.2054e-08
4.0145e-05
0.0047903
5.9675e-05
0.0046227
7.8237e-05
0.0043772
9.5468e-05
0.0040576
0.00011106
0.0036686
0.00012476
0.0032174
0.00013558
0.0027151
0.000147
0.0021422
0.00014776
0.0016486
0.00015016
0.00087414
0.00063936
0.00016615
2.005e-05
0.0048599
2.3431e-08
4.0146e-05
0.0047702
5.9678e-05
0.0046032
7.824e-05
0.0043587
9.5471e-05
0.0040403
0.00011106
0.003653
0.00012477
0.0032037
0.00013551
0.0027044
0.00014706
0.0021306
0.00014817
0.0016475
0.00014963
0.00087269
0.00062392
0.00016507
2.005e-05
0.0048399
2.4812e-08
4.0147e-05
0.0047501
5.968e-05
0.0045837
7.8243e-05
0.0043401
9.5475e-05
0.0040231
0.00011106
0.0036375
0.00012479
0.00319
0.00013544
0.0026937
0.0001471
0.002119
0.00014862
0.001646
0.00014923
0.00087208
0.0006092
0.00016395
2.005e-05
0.0048198
2.6197e-08
4.0148e-05
0.00473
5.9682e-05
0.0045641
7.8246e-05
0.0043215
9.5479e-05
0.0040059
0.00011106
0.0036219
0.00012481
0.0031762
0.00013537
0.0026831
0.00014712
0.0021072
0.00014909
0.001644
0.00014897
0.00087221
0.0005953
0.00016286
2.005e-05
0.0047997
2.7585e-08
4.0149e-05
0.0047099
5.9685e-05
0.0045446
7.8249e-05
0.004303
9.5483e-05
0.0039886
0.00011106
0.0036063
0.00012483
0.0031625
0.00013531
0.0026727
0.00014712
0.0020954
0.00014958
0.0016416
0.00014883
0.00087295
0.00058232
0.00016182
2.005e-05
0.0047796
2.8977e-08
4.015e-05
0.0046898
5.9687e-05
0.004525
7.8253e-05
0.0042844
9.5487e-05
0.0039714
0.00011106
0.0035907
0.00012485
0.0031487
0.00013524
0.0026623
0.00014711
0.0020835
0.00015007
0.0016386
0.00014881
0.00087421
0.00057026
0.00016087
2.0049e-05
0.0047595
3.0373e-08
4.0152e-05
0.0046697
5.969e-05
0.0045055
7.8256e-05
0.0042658
9.5492e-05
0.0039542
0.00011106
0.0035752
0.00012488
0.0031348
0.00013518
0.002652
0.00014707
0.0020717
0.00015055
0.0016351
0.00014889
0.00087587
0.00055914
0.00016001
2.0049e-05
0.0047395
3.1773e-08
4.0153e-05
0.0046496
5.9692e-05
0.004486
7.8259e-05
0.0042473
9.5496e-05
0.0039369
0.00011106
0.0035596
0.00012491
0.003121
0.00013511
0.0026418
0.00014701
0.0020598
0.00015102
0.0016311
0.00014907
0.00087783
0.00054893
0.00015927
2.0049e-05
0.0047194
3.3177e-08
4.0154e-05
0.0046295
5.9694e-05
0.0044664
7.8262e-05
0.0042287
9.55e-05
0.0039197
0.00011106
0.003544
0.00012493
0.0031071
0.00013506
0.0026317
0.00014694
0.0020479
0.00015148
0.0016266
0.00014932
0.00087999
0.0005396
0.00015865
2.0049e-05
0.0046993
3.4585e-08
4.0155e-05
0.0046094
5.9697e-05
0.0044469
7.8266e-05
0.0042101
9.5505e-05
0.0039025
0.00011106
0.0035285
0.00012496
0.0030932
0.000135
0.0026216
0.00014685
0.002036
0.00015192
0.0016215
0.00014964
0.00088226
0.0005311
0.00015815
2.0049e-05
0.0046792
3.5997e-08
4.0156e-05
0.0045893
5.9699e-05
0.0044273
7.8269e-05
0.0041916
9.551e-05
0.0038852
0.00011106
0.0035129
0.000125
0.0030793
0.00013495
0.0026117
0.00014674
0.0020242
0.00015232
0.0016159
0.00015002
0.00088457
0.00052336
0.00015776
2.0049e-05
0.0046591
3.7414e-08
4.0157e-05
0.0045691
5.9702e-05
0.0044078
7.8272e-05
0.004173
9.5515e-05
0.003868
0.00011106
0.0034974
0.00012503
0.0030653
0.00013491
0.0026018
0.00014662
0.0020125
0.0001527
0.0016098
0.00015044
0.00088683
0.00051633
0.00015747
2.0049e-05
0.004639
3.8835e-08
4.0159e-05
0.004549
5.9704e-05
0.0043883
7.8276e-05
0.0041544
9.552e-05
0.0038507
0.00011106
0.0034818
0.00012506
0.0030513
0.00013487
0.002592
0.00014648
0.0020009
0.00015305
0.0016033
0.00015089
0.00088899
0.00050993
0.00015729
2.0049e-05
0.0046189
4.026e-08
4.016e-05
0.0045289
5.9707e-05
0.0043687
7.8279e-05
0.0041359
9.5525e-05
0.0038335
0.00011106
0.0034663
0.0001251
0.0030373
0.00013484
0.0025822
0.00014634
0.0019894
0.00015336
0.0015963
0.00015137
0.00089098
0.0005041
0.00015719
2.0049e-05
0.0045989
4.169e-08
4.0161e-05
0.0045088
5.9709e-05
0.0043492
7.8282e-05
0.0041173
9.553e-05
0.0038162
0.00011105
0.0034508
0.00012514
0.0030232
0.00013481
0.0025726
0.00014618
0.001978
0.00015363
0.0015888
0.00015185
0.00089276
0.00049878
0.00015718
2.0049e-05
0.0045788
4.3124e-08
4.0162e-05
0.0044887
5.9712e-05
0.0043296
7.8286e-05
0.0040987
9.5536e-05
0.003799
0.00011105
0.0034352
0.00012517
0.0030091
0.0001348
0.0025629
0.00014602
0.0019668
0.00015387
0.0015809
0.00015235
0.00089429
0.00049389
0.00015723
2.0049e-05
0.0045587
4.4564e-08
4.0163e-05
0.0044686
5.9714e-05
0.0043101
7.8289e-05
0.0040801
9.5542e-05
0.0037817
0.00011105
0.0034197
0.00012521
0.0029949
0.00013479
0.0025534
0.00014584
0.0019558
0.00015407
0.0015727
0.00015284
0.00089552
0.00048938
0.00015735
2.0048e-05
0.0045386
4.6007e-08
4.0164e-05
0.0044485
5.9717e-05
0.0042905
7.8293e-05
0.0040616
9.5548e-05
0.0037645
0.00011104
0.0034042
0.00012525
0.0029807
0.00013478
0.0025438
0.00014567
0.0019449
0.00015424
0.0015641
0.00015331
0.00089644
0.00048519
0.00015751
2.0048e-05
0.0045185
4.7456e-08
4.0166e-05
0.0044284
5.9719e-05
0.0042709
7.8296e-05
0.004043
9.5554e-05
0.0037472
0.00011104
0.0033888
0.00012529
0.0029665
0.00013479
0.0025343
0.00014549
0.0019342
0.00015436
0.0015553
0.00015378
0.00089703
0.00048126
0.0001577
2.0048e-05
0.0044984
4.8909e-08
4.0167e-05
0.0044082
5.9722e-05
0.0042514
7.8299e-05
0.0040244
9.556e-05
0.00373
0.00011103
0.0033733
0.00012532
0.0029522
0.0001348
0.0025248
0.0001453
0.0019237
0.00015446
0.0015461
0.00015422
0.00089727
0.00047755
0.00015793
2.0048e-05
0.0044783
5.0368e-08
4.0168e-05
0.0043881
5.9725e-05
0.0042318
7.8303e-05
0.0040058
9.5567e-05
0.0037127
0.00011103
0.0033578
0.00012536
0.0029378
0.00013483
0.0025154
0.00014512
0.0019134
0.00015452
0.0015367
0.00015464
0.00089715
0.00047401
0.00015818
2.0048e-05
0.0044582
5.1831e-08
4.0169e-05
0.004368
5.9727e-05
0.0042123
7.8306e-05
0.0039872
9.5574e-05
0.0036954
0.00011102
0.0033424
0.0001254
0.0029235
0.00013486
0.0025059
0.00014494
0.0019033
0.00015455
0.0015271
0.00015503
0.00089666
0.00047061
0.00015844
2.0048e-05
0.0044381
5.33e-08
4.017e-05
0.0043479
5.973e-05
0.0041927
7.831e-05
0.0039687
9.5581e-05
0.0036782
0.00011102
0.0033269
0.00012544
0.002909
0.0001349
0.0024965
0.00014477
0.0018934
0.00015454
0.0015173
0.00015539
0.00089581
0.0004673
0.0001587
2.0048e-05
0.004418
5.4774e-08
4.0172e-05
0.0043277
5.9733e-05
0.0041732
7.8313e-05
0.0039501
9.5588e-05
0.0036609
0.00011101
0.0033115
0.00012547
0.0028946
0.00013494
0.002487
0.0001446
0.0018838
0.00015451
0.0015074
0.00015572
0.0008946
0.00046406
0.00015897
2.0048e-05
0.0043979
5.6254e-08
4.0173e-05
0.0043076
5.9735e-05
0.0041536
7.8317e-05
0.0039315
9.5596e-05
0.0036436
0.000111
0.0032961
0.00012551
0.0028801
0.000135
0.0024775
0.00014443
0.0018743
0.00015446
0.0014974
0.00015602
0.00089304
0.00046085
0.00015923
2.0048e-05
0.0043778
5.7738e-08
4.0174e-05
0.0042875
5.9738e-05
0.004134
7.832e-05
0.0039129
9.5604e-05
0.0036263
0.00011099
0.0032807
0.00012554
0.0028655
0.00013506
0.002468
0.00014428
0.0018651
0.00015438
0.0014873
0.00015629
0.00089114
0.00045766
0.00015948
2.0048e-05
0.0043577
5.9229e-08
4.0175e-05
0.0042674
5.9741e-05
0.0041145
7.8324e-05
0.0038943
9.5612e-05
0.003609
0.00011098
0.0032654
0.00012557
0.0028509
0.00013513
0.0024584
0.00014413
0.0018561
0.00015429
0.0014771
0.00015652
0.00088891
0.00045447
0.00015971
2.0047e-05
0.0043376
6.0725e-08
4.0176e-05
0.0042472
5.9743e-05
0.0040949
7.8327e-05
0.0038758
9.5621e-05
0.0035917
0.00011098
0.00325
0.0001256
0.0028363
0.00013521
0.0024488
0.00014399
0.0018473
0.00015417
0.0014669
0.00015672
0.00088636
0.00045126
0.00015993
2.0047e-05
0.0043174
6.2227e-08
4.0178e-05
0.0042271
5.9746e-05
0.0040753
7.833e-05
0.0038572
9.5629e-05
0.0035744
0.00011097
0.0032347
0.00012563
0.0028216
0.00013529
0.0024392
0.00014386
0.0018388
0.00015405
0.0014568
0.00015689
0.00088352
0.00044801
0.00016014
2.0047e-05
0.0042973
6.3735e-08
4.0179e-05
0.004207
5.9749e-05
0.0040558
7.8334e-05
0.0038386
9.5639e-05
0.0035571
0.00011096
0.0032193
0.00012566
0.0028069
0.00013538
0.0024295
0.00014375
0.0018304
0.00015391
0.0014466
0.00015703
0.0008804
0.00044473
0.00016032
2.0047e-05
0.0042772
6.5248e-08
4.018e-05
0.0041868
5.9752e-05
0.0040362
7.8337e-05
0.00382
9.5648e-05
0.0035398
0.00011095
0.003204
0.00012568
0.0027922
0.00013548
0.0024197
0.00014365
0.0018222
0.00015376
0.0014365
0.00015714
0.00087701
0.00044139
0.00016048
2.0047e-05
0.0042571
6.6768e-08
4.0181e-05
0.0041667
5.9755e-05
0.0040166
7.8341e-05
0.0038014
9.5658e-05
0.0035225
0.00011094
0.0031888
0.0001257
0.0027774
0.00013558
0.0024098
0.00014356
0.0018143
0.0001536
0.0014265
0.00015723
0.00087338
0.00043799
0.00016062
2.0047e-05
0.004237
6.8294e-08
4.0183e-05
0.0041466
5.9757e-05
0.003997
7.8344e-05
0.0037828
9.5668e-05
0.0035052
0.00011093
0.0031735
0.00012572
0.0027627
0.00013569
0.0023998
0.00014348
0.0018065
0.00015344
0.0014165
0.00015729
0.00086953
0.00043453
0.00016075
2.0047e-05
0.0042169
6.9827e-08
4.0184e-05
0.0041264
5.976e-05
0.0039775
7.8348e-05
0.0037642
9.5679e-05
0.0034879
0.00011092
0.0031583
0.00012574
0.0027478
0.0001358
0.0023898
0.00014342
0.0017988
0.00015327
0.0014067
0.00015733
0.00086547
0.00043101
0.00016085
2.0047e-05
0.0041968
7.1366e-08
4.0185e-05
0.0041063
5.9763e-05
0.0039579
7.8351e-05
0.0037456
9.5689e-05
0.0034705
0.00011091
0.003143
0.00012575
0.002733
0.00013591
0.0023796
0.00014338
0.0017914
0.00015311
0.0013969
0.00015735
0.00086123
0.00042743
0.00016093
2.0047e-05
0.0041766
7.2911e-08
4.0187e-05
0.0040862
5.9766e-05
0.0039383
7.8354e-05
0.0037271
9.57e-05
0.0034532
0.0001109
0.0031278
0.00012576
0.0027181
0.00013603
0.0023693
0.00014335
0.001784
0.00015295
0.0013873
0.00015735
0.00085683
0.00042379
0.00016099
2.0047e-05
0.0041565
7.4463e-08
4.0188e-05
0.004066
5.9769e-05
0.0039187
7.8358e-05
0.0037085
9.5712e-05
0.0034358
0.0001109
0.0031126
0.00012577
0.0027033
0.00013615
0.0023589
0.00014333
0.0017769
0.00015279
0.0013779
0.00015733
0.00085229
0.00042008
0.00016104
2.0047e-05
0.0041364
7.6022e-08
4.0189e-05
0.0040459
5.9772e-05
0.0038991
7.8361e-05
0.0036899
9.5724e-05
0.0034185
0.00011089
0.0030975
0.00012577
0.0026884
0.00013627
0.0023485
0.00014333
0.0017698
0.00015264
0.0013686
0.00015731
0.00084762
0.00041632
0.00016107
2.0046e-05
0.0041163
7.7588e-08
4.019e-05
0.0040257
5.9775e-05
0.0038796
7.8364e-05
0.0036713
9.5736e-05
0.0034011
0.00011088
0.0030823
0.00012577
0.0026735
0.00013639
0.0023378
0.00014334
0.0017628
0.00015249
0.0013594
0.00015727
0.00084284
0.00041251
0.00016108
2.0046e-05
0.0040961
7.9161e-08
4.0192e-05
0.0040056
5.9778e-05
0.00386
7.8368e-05
0.0036527
9.5748e-05
0.0033837
0.00011087
0.0030672
0.00012577
0.0026586
0.00013651
0.0023271
0.00014337
0.001756
0.00015236
0.0013504
0.00015722
0.00083797
0.00040865
0.00016109
2.0046e-05
0.004076
8.0742e-08
4.0193e-05
0.0039854
5.9781e-05
0.0038404
7.8371e-05
0.0036341
9.5761e-05
0.0033663
0.00011087
0.0030521
0.00012577
0.0026437
0.00013664
0.0023162
0.00014341
0.0017492
0.00015223
0.0013416
0.00015717
0.00083303
0.00040475
0.00016108
2.0046e-05
0.0040559
8.2329e-08
4.0194e-05
0.0039653
5.9784e-05
0.0038208
7.8374e-05
0.0036155
9.5774e-05
0.0033489
0.00011086
0.003037
0.00012576
0.0026288
0.00013676
0.0023052
0.00014346
0.0017425
0.00015212
0.001333
0.00015712
0.00082803
0.0004008
0.00016106
2.0046e-05
0.0040358
8.3924e-08
4.0196e-05
0.0039451
5.9788e-05
0.0038012
7.8377e-05
0.0035969
9.5787e-05
0.0033315
0.00011086
0.0030219
0.00012575
0.0026139
0.00013688
0.0022941
0.00014353
0.0017359
0.00015201
0.0013245
0.00015706
0.00082299
0.00039683
0.00016103
2.0046e-05
0.0040156
8.5527e-08
4.0197e-05
0.003925
5.9791e-05
0.0037816
7.838e-05
0.0035783
9.58e-05
0.0033141
0.00011086
0.0030069
0.00012573
0.002599
0.00013699
0.0022828
0.00014361
0.0017292
0.00015192
0.0013162
0.000157
0.00081791
0.00039283
0.000161
2.0046e-05
0.0039955
8.7138e-08
4.0199e-05
0.0039048
5.9794e-05
0.003762
7.8384e-05
0.0035598
9.5814e-05
0.0032967
0.00011085
0.0029918
0.00012571
0.0025842
0.00013711
0.0022714
0.0001437
0.0017227
0.00015185
0.001308
0.00015694
0.00081282
0.00038881
0.00016096
2.0046e-05
0.0039754
8.8756e-08
4.02e-05
0.0038847
5.9797e-05
0.0037424
7.8387e-05
0.0035412
9.5828e-05
0.0032792
0.00011085
0.0029768
0.00012569
0.0025693
0.00013722
0.0022599
0.00014379
0.0017161
0.00015178
0.0013
0.00015688
0.00080772
0.00038477
0.00016092
2.0046e-05
0.0039552
9.0383e-08
4.0201e-05
0.0038645
5.9801e-05
0.0037228
7.839e-05
0.0035226
9.5842e-05
0.0032618
0.00011085
0.0029618
0.00012567
0.0025545
0.00013733
0.0022482
0.0001439
0.0017095
0.00015173
0.0012922
0.00015683
0.00080262
0.00038073
0.00016088
2.0046e-05
0.0039351
9.2017e-08
4.0203e-05
0.0038444
5.9804e-05
0.0037032
7.8393e-05
0.003504
9.5856e-05
0.0032443
0.00011085
0.0029468
0.00012564
0.0025397
0.00013743
0.0022365
0.00014402
0.0017029
0.0001517
0.0012845
0.00015678
0.00079753
0.00037668
0.00016083
2.0046e-05
0.0039149
9.366e-08
4.0204e-05
0.0038242
5.9807e-05
0.0036836
7.8396e-05
0.0034854
9.5871e-05
0.0032268
0.00011086
0.0029318
0.00012561
0.002525
0.00013753
0.0022245
0.00014414
0.0016963
0.00015167
0.001277
0.00015674
0.00079246
0.00037263
0.00016079
2.0045e-05
0.0038948
9.5312e-08
4.0206e-05
0.0038041
5.9811e-05
0.003664
7.8399e-05
0.0034668
9.5885e-05
0.0032093
0.00011086
0.0029169
0.00012558
0.0025103
0.00013762
0.0022125
0.00014427
0.0016897
0.00015166
0.0012696
0.00015671
0.00078741
0.00036859
0.00016075
2.0045e-05
0.0038747
9.6973e-08
4.0207e-05
0.0037839
5.9814e-05
0.0036444
7.8402e-05
0.0034482
9.59e-05
0.0031918
0.00011086
0.0029019
0.00012555
0.0024956
0.00013771
0.0022003
0.0001444
0.001683
0.00015167
0.0012623
0.00015668
0.0007824
0.00036457
0.00016071
2.0045e-05
0.0038545
9.8642e-08
4.0209e-05
0.0037637
5.9818e-05
0.0036248
7.8405e-05
0.0034296
9.5914e-05
0.0031743
0.00011087
0.0028869
0.00012552
0.0024809
0.00013779
0.0021881
0.00014454
0.0016762
0.00015168
0.0012552
0.00015666
0.00077742
0.00036056
0.00016067
2.0045e-05
0.0038344
1.0032e-07
4.021e-05
0.0037436
5.9821e-05
0.0036052
7.8408e-05
0.0034111
9.5929e-05
0.0031568
0.00011088
0.002872
0.00012548
0.0024663
0.00013787
0.0021757
0.00014468
0.0016694
0.00015171
0.0012481
0.00015665
0.00077248
0.00035657
0.00016063
2.0045e-05
0.0038142
1.0201e-07
4.0211e-05
0.0037234
5.9825e-05
0.0035856
7.8411e-05
0.0033925
9.5944e-05
0.0031393
0.00011089
0.002857
0.00012544
0.0024518
0.00013793
0.0021632
0.00014482
0.0016625
0.00015175
0.0012412
0.00015664
0.00076758
0.00035262
0.0001606
2.0045e-05
0.0037941
1.037e-07
4.0213e-05
0.0037032
5.9829e-05
0.0035659
7.8414e-05
0.0033739
9.5958e-05
0.0031217
0.0001109
0.0028421
0.0001254
0.0024373
0.000138
0.0021506
0.00014497
0.0016555
0.0001518
0.0012344
0.00015665
0.00076273
0.00034869
0.00016058
2.0045e-05
0.0037739
1.0541e-07
4.0215e-05
0.0036831
5.9833e-05
0.0035463
7.8417e-05
0.0033553
9.5973e-05
0.0031042
0.00011092
0.0028271
0.00012537
0.0024228
0.00013805
0.0021379
0.00014512
0.0016485
0.00015186
0.0012277
0.00015666
0.00075793
0.00034479
0.00016056
2.0045e-05
0.0037538
1.0713e-07
4.0216e-05
0.0036629
5.9836e-05
0.0035267
7.842e-05
0.0033367
9.5987e-05
0.0030866
0.00011093
0.0028122
0.00012533
0.0024084
0.0001381
0.0021251
0.00014526
0.0016413
0.00015192
0.001221
0.00015668
0.00075317
0.00034093
0.00016054
2.0045e-05
0.0037336
1.0885e-07
4.0218e-05
0.0036427
5.984e-05
0.0035071
7.8423e-05
0.0033181
9.6002e-05
0.003069
0.00011095
0.0027973
0.00012529
0.0023941
0.00013814
0.0021123
0.0001454
0.0016341
0.000152
0.0012144
0.00015671
0.00074846
0.00033711
0.00016053
2.0045e-05
0.0037135
1.1059e-07
4.0219e-05
0.0036225
5.9844e-05
0.0034875
7.8426e-05
0.0032995
9.6016e-05
0.0030514
0.00011097
0.0027823
0.00012525
0.0023798
0.00013818
0.0020993
0.00014555
0.0016267
0.00015208
0.0012079
0.00015675
0.00074379
0.00033333
0.00016052
2.0045e-05
0.0036933
1.1234e-07
4.0221e-05
0.0036024
5.9848e-05
0.0034678
7.8429e-05
0.003281
9.603e-05
0.0030338
0.00011099
0.0027673
0.00012521
0.0023656
0.00013821
0.0020863
0.00014569
0.0016192
0.00015217
0.0012014
0.00015679
0.00073918
0.0003296
0.00016052
2.0045e-05
0.0036732
1.1409e-07
4.0222e-05
0.0035822
5.9852e-05
0.0034482
7.8432e-05
0.0032624
9.6043e-05
0.0030162
0.00011101
0.0027524
0.00012517
0.0023514
0.00013823
0.0020733
0.00014582
0.0016116
0.00015227
0.0011949
0.00015684
0.0007346
0.00032591
0.00016053
2.0045e-05
0.003653
1.1586e-07
4.0224e-05
0.003562
5.9856e-05
0.0034286
7.8435e-05
0.0032438
9.6057e-05
0.0029986
0.00011104
0.0027374
0.00012513
0.0023373
0.00013825
0.0020601
0.00014595
0.0016039
0.00015236
0.0011885
0.00015689
0.00073007
0.00032227
0.00016054
2.0045e-05
0.0036328
1.1764e-07
4.0226e-05
0.0035418
5.986e-05
0.0034089
7.8438e-05
0.0032252
9.607e-05
0.002981
0.00011106
0.0027224
0.00012509
0.0023233
0.00013826
0.002047
0.00014608
0.0015961
0.00015247
0.0011821
0.00015696
0.00072558
0.00031868
0.00016055
2.0045e-05
0.0036127
1.1943e-07
4.0227e-05
0.0035216
5.9864e-05
0.0033893
7.8442e-05
0.0032066
9.6083e-05
0.0029633
0.00011109
0.0027074
0.00012505
0.0023093
0.00013827
0.0020338
0.0001462
0.0015882
0.00015257
0.0011758
0.00015702
0.00072113
0.00031513
0.00016057
2.0044e-05
0.0035925
1.2123e-07
4.0229e-05
0.0035015
5.9868e-05
0.0033697
7.8445e-05
0.0031881
9.6095e-05
0.0029457
0.00011112
0.0026924
0.00012502
0.0022954
0.00013827
0.0020205
0.00014632
0.0015801
0.00015268
0.0011694
0.00015709
0.00071671
0.00031164
0.00016059
2.0044e-05
0.0035723
1.2305e-07
4.0231e-05
0.0034813
5.9873e-05
0.00335
7.8448e-05
0.0031695
9.6107e-05
0.002928
0.00011115
0.0026773
0.00012499
0.0022816
0.00013827
0.0020072
0.00014643
0.001572
0.00015279
0.0011631
0.00015717
0.00071233
0.00030819
0.00016061
2.0044e-05
0.0035522
1.2487e-07
4.0233e-05
0.0034611
5.9877e-05
0.0033304
7.8452e-05
0.0031509
9.6119e-05
0.0029104
0.00011118
0.0026623
0.00012496
0.0022678
0.00013826
0.0019939
0.00014654
0.0015637
0.00015289
0.0011567
0.00015725
0.00070798
0.0003048
0.00016064
2.0044e-05
0.003532
1.2671e-07
4.0234e-05
0.0034409
5.9881e-05
0.0033107
7.8455e-05
0.0031323
9.613e-05
0.0028927
0.00011121
0.0026472
0.00012493
0.0022541
0.00013825
0.0019806
0.00014664
0.0015553
0.000153
0.0011503
0.00015733
0.00070365
0.00030145
0.00016068
2.0044e-05
0.0035118
1.2856e-07
4.0236e-05
0.0034207
5.9886e-05
0.0032911
7.8459e-05
0.0031138
9.6141e-05
0.002875
0.00011125
0.0026321
0.0001249
0.0022405
0.00013823
0.0019673
0.00014673
0.0015468
0.00015311
0.001144
0.00015741
0.00069935
0.00029815
0.00016071
2.0044e-05
0.0034916
1.3042e-07
4.0238e-05
0.0034005
5.989e-05
0.0032714
7.8463e-05
0.0030952
9.6152e-05
0.0028573
0.00011129
0.0026169
0.00012488
0.0022269
0.00013821
0.001954
0.00014682
0.0015382
0.00015321
0.0011376
0.0001575
0.00069507
0.00029489
0.00016075
2.0044e-05
0.0034715
1.323e-07
4.024e-05
0.0033803
5.9895e-05
0.0032518
7.8467e-05
0.0030766
9.6162e-05
0.0028396
0.00011132
0.0026018
0.00012486
0.0022133
0.00013819
0.0019406
0.0001469
0.0015295
0.00015332
0.0011312
0.00015758
0.00069081
0.00029169
0.00016079
2.0044e-05
0.0034513
1.3419e-07
4.0242e-05
0.0033601
5.9899e-05
0.0032321
7.8471e-05
0.0030581
9.6171e-05
0.0028219
0.00011136
0.0025866
0.00012484
0.0021999
0.00013816
0.0019273
0.00014698
0.0015206
0.00015342
0.0011247
0.00015767
0.00068656
0.00028853
0.00016083
2.0044e-05
0.0034311
1.3609e-07
4.0243e-05
0.0033399
5.9904e-05
0.0032125
7.8475e-05
0.0030395
9.618e-05
0.0028042
0.0001114
0.0025714
0.00012482
0.0021864
0.00013813
0.001914
0.00014705
0.0015117
0.00015352
0.0011182
0.00015776
0.00068232
0.00028541
0.00016087
2.0044e-05
0.0034109
1.38e-07
4.0245e-05
0.0033197
5.9908e-05
0.0031928
7.8479e-05
0.0030209
9.6189e-05
0.0027865
0.00011144
0.0025561
0.00012481
0.0021731
0.0001381
0.0019007
0.00014711
0.0015027
0.00015362
0.0011117
0.00015784
0.0006781
0.00028233
0.00016092
2.0044e-05
0.0033907
1.3993e-07
4.0247e-05
0.0032995
5.9913e-05
0.0031731
7.8484e-05
0.0030023
9.6197e-05
0.0027688
0.00011148
0.0025408
0.0001248
0.0021597
0.00013807
0.0018874
0.00014717
0.0014936
0.00015371
0.0011052
0.00015793
0.00067388
0.0002793
0.00016097
2.0044e-05
0.0033706
1.4188e-07
4.0249e-05
0.0032793
5.9918e-05
0.0031535
7.8488e-05
0.0029838
9.6204e-05
0.0027511
0.00011152
0.0025255
0.0001248
0.0021465
0.00013804
0.0018742
0.00014722
0.0014844
0.0001538
0.0010986
0.00015802
0.00066966
0.00027631
0.00016101
2.0044e-05
0.0033504
1.4384e-07
4.0251e-05
0.0032591
5.9923e-05
0.0031338
7.8493e-05
0.0029652
9.6211e-05
0.0027334
0.00011156
0.0025102
0.00012479
0.0021332
0.00013801
0.001861
0.00014727
0.0014752
0.00015389
0.001092
0.00015811
0.00066544
0.00027335
0.00016106
2.0044e-05
0.0033302
1.4581e-07
4.0253e-05
0.0032389
5.9927e-05
0.0031141
7.8498e-05
0.0029466
9.6218e-05
0.0027156
0.0001116
0.0024948
0.0001248
0.00212
0.00013797
0.0018478
0.00014731
0.0014658
0.00015397
0.0010853
0.00015819
0.00066122
0.00027044
0.00016111
2.0044e-05
0.00331
1.478e-07
4.0255e-05
0.0032187
5.9932e-05
0.0030944
7.8503e-05
0.0029281
9.6224e-05
0.0026979
0.00011164
0.0024794
0.0001248
0.0021069
0.00013794
0.0018347
0.00014735
0.0014564
0.00015405
0.0010786
0.00015828
0.000657
0.00026755
0.00016116
2.0044e-05
0.0032898
1.498e-07
4.0257e-05
0.0031985
5.9937e-05
0.0030748
7.8509e-05
0.0029095
9.623e-05
0.0026802
0.00011168
0.0024639
0.0001248
0.0020937
0.00013791
0.0018216
0.00014739
0.0014469
0.00015413
0.0010719
0.00015836
0.00065277
0.0002647
0.00016121
2.0044e-05
0.0032696
1.5182e-07
4.0259e-05
0.0031783
5.9942e-05
0.0030551
7.8514e-05
0.0028909
9.6235e-05
0.0026625
0.00011173
0.0024484
0.00012481
0.0020807
0.00013788
0.0018085
0.00014742
0.0014374
0.0001542
0.0010651
0.00015844
0.00064854
0.00026189
0.00016126
2.0044e-05
0.0032494
1.5386e-07
4.0261e-05
0.003158
5.9947e-05
0.0030354
7.852e-05
0.0028723
9.624e-05
0.0026447
0.00011177
0.0024329
0.00012483
0.0020676
0.00013785
0.0017955
0.00014744
0.0014278
0.00015427
0.0010583
0.00015852
0.00064429
0.0002591
0.00016131
2.0044e-05
0.0032292
1.5591e-07
4.0263e-05
0.0031378
5.9952e-05
0.0030157
7.8526e-05
0.0028538
9.6244e-05
0.002627
0.00011181
0.0024173
0.00012484
0.0020546
0.00013782
0.0017825
0.00014747
0.0014182
0.00015434
0.0010514
0.0001586
0.00064003
0.00025634
0.00016136
2.0044e-05
0.003209
1.5798e-07
4.0266e-05
0.0031176
5.9957e-05
0.002996
7.8532e-05
0.0028352
9.6248e-05
0.0026093
0.00011185
0.0024017
0.00012486
0.0020416
0.00013779
0.0017696
0.00014749
0.0014085
0.0001544
0.0010445
0.00015867
0.00063576
0.00025361
0.0001614
2.0044e-05
0.0031888
1.6006e-07
4.0268e-05
0.0030974
5.9963e-05
0.0029763
7.8539e-05
0.0028166
9.6252e-05
0.0025916
0.00011189
0.0023861
0.00012488
0.0020286
0.00013777
0.0017567
0.0001475
0.0013987
0.00015446
0.0010375
0.00015875
0.00063148
0.0002509
0.00016145
2.0044e-05
0.0031686
1.6217e-07
4.027e-05
0.0030771
5.9968e-05
0.0029566
7.8546e-05
0.002798
9.6256e-05
0.0025739
0.00011193
0.0023704
0.0001249
0.0020156
0.00013774
0.0017438
0.00014752
0.001389
0.00015452
0.0010305
0.00015882
0.00062718
0.00024822
0.0001615
2.0044e-05
0.0031484
1.6429e-07
4.0272e-05
0.0030569
5.9973e-05
0.0029369
7.8553e-05
0.0027795
9.6259e-05
0.0025562
0.00011197
0.0023547
0.00012493
0.0020026
0.00013772
0.0017311
0.00014753
0.0013791
0.00015457
0.0010235
0.00015889
0.00062286
0.00024556
0.00016155
2.0044e-05
0.0031282
1.6643e-07
4.0275e-05
0.0030367
5.9978e-05
0.0029172
7.856e-05
0.0027609
9.6262e-05
0.0025385
0.00011201
0.002339
0.00012496
0.0019897
0.0001377
0.0017183
0.00014754
0.0013693
0.00015462
0.0010164
0.00015896
0.00061852
0.00024292
0.0001616
2.0044e-05
0.003108
1.6859e-07
4.0277e-05
0.0030165
5.9984e-05
0.0028975
7.8567e-05
0.0027423
9.6264e-05
0.0025208
0.00011205
0.0023232
0.00012499
0.0019767
0.00013769
0.0017056
0.00014756
0.0013594
0.00015467
0.0010093
0.00015903
0.00061417
0.0002403
0.00016164
2.0044e-05
0.0030877
1.7077e-07
4.0279e-05
0.0029962
5.9989e-05
0.0028778
7.8575e-05
0.0027237
9.6267e-05
0.0025031
0.00011209
0.0023074
0.00012502
0.0019638
0.00013767
0.001693
0.00014756
0.0013495
0.00015472
0.0010021
0.00015909
0.0006098
0.0002377
0.00016169
2.0044e-05
0.0030675
1.7297e-07
4.0282e-05
0.002976
5.9995e-05
0.0028581
7.8583e-05
0.0027051
9.6269e-05
0.0024854
0.00011212
0.0022915
0.00012505
0.0019509
0.00013766
0.0016804
0.00014757
0.0013396
0.00015476
0.00099496
0.00015915
0.0006054
0.00023512
0.00016174
2.0044e-05
0.0030473
1.7518e-07
4.0284e-05
0.0029557
6e-05
0.0028384
7.8591e-05
0.0026865
9.6272e-05
0.0024677
0.00011216
0.0022756
0.00012509
0.0019379
0.00013765
0.0016678
0.00014758
0.0013297
0.0001548
0.00098773
0.00015922
0.00060099
0.00023255
0.00016178
2.0044e-05
0.0030271
1.7742e-07
4.0286e-05
0.0029355
6.0006e-05
0.0028186
7.8599e-05
0.0026679
9.6274e-05
0.0024501
0.00011219
0.0022597
0.00012513
0.001925
0.00013764
0.0016553
0.00014759
0.0013197
0.00015484
0.00098048
0.00015928
0.00059656
0.00023
0.00016183
2.0044e-05
0.0030069
1.7968e-07
4.0289e-05
0.0029153
6.0011e-05
0.0027989
7.8608e-05
0.0026493
9.6276e-05
0.0024324
0.00011223
0.0022437
0.00012517
0.0019121
0.00013764
0.0016428
0.00014759
0.0013098
0.00015488
0.00097319
0.00015933
0.00059211
0.00022746
0.00016187
2.0044e-05
0.0029866
1.8196e-07
4.0291e-05
0.002895
6.0017e-05
0.0027792
7.8616e-05
0.0026307
9.6278e-05
0.0024147
0.00011226
0.0022278
0.00012521
0.0018991
0.00013764
0.0016304
0.0001476
0.0012998
0.00015492
0.00096587
0.00015939
0.00058763
0.00022493
0.00016192
2.0044e-05
0.0029664
1.8426e-07
4.0294e-05
0.0028748
6.0023e-05
0.0027595
7.8625e-05
0.0026121
9.628e-05
0.0023971
0.0001123
0.0022117
0.00012525
0.0018862
0.00013764
0.001618
0.00014761
0.0012899