/*--------------------------------*- C++ -*----------------------------------*\
  =========                 |
  \\      /  F ield         | OpenFOAM: The Open Source CFD Toolbox
   \\    /   O peration     | Website:  https://openfoam.org
    \\  /    A nd           | Version:  6.0
     \\/     M anipulation  |
\*---------------------------------------------------------------------------*/
FoamFile
{
    version     2.0;
    format      ascii;
    class       surfaceScalarField;
    location    "1";
    object      phi;
}
// * * * * * * * * * * * * * * * * * * * * * * * * * * * * * * * * * * * * * //

dimensions      [0 3 -1 0 0 0 0];

internalField   nonuniform List<scalar> 
26699
(
2.0051e-05
0.005201
3.4748e-10
4.0126e-05
0.0051116
5.9638e-05
0.0049351
7.8187e-05
0.0046741
9.5415e-05
0.0043332
0.00011102
0.0039182
0.00012471
0.0034362
0.00013626
0.0028953
0.00014545
0.002305
0.00015185
0.0016755
0.00015717
0.0010154
0.00046498
3.4397e-05
2.0051e-05
0.0051809
1.0952e-09
4.0128e-05
0.0050916
5.964e-05
0.0049156
7.8191e-05
0.0046556
9.5416e-05
0.004316
0.00011102
0.0039026
0.00012471
0.0034225
0.00013625
0.0028838
0.00014542
0.0022958
0.00015119
0.0016697
0.00015894
0.0010077
0.00055898
6.4937e-05
2.0051e-05
0.0051609
1.9051e-09
4.0129e-05
0.0050715
5.9642e-05
0.004896
7.8194e-05
0.004637
9.5418e-05
0.0042988
0.00011103
0.003887
0.0001247
0.0034088
0.00013623
0.0028723
0.00014541
0.0022866
0.00015053
0.0016646
0.00016026
0.00099796
0.00062924
8.9997e-05
2.0052e-05
0.0051408
2.7209e-09
4.0131e-05
0.0050514
5.9644e-05
0.0048765
7.8197e-05
0.0046185
9.5421e-05
0.0042816
0.00011103
0.0038714
0.0001247
0.0033951
0.0001362
0.0028608
0.00014542
0.0022774
0.00014991
0.0016601
0.00016106
0.00098681
0.00068023
0.00011008
2.0052e-05
0.0051208
3.5376e-09
4.0132e-05
0.0050313
5.9646e-05
0.004857
7.8199e-05
0.0045999
9.5424e-05
0.0042643
0.00011103
0.0038558
0.0001247
0.0033815
0.00013618
0.0028493
0.00014545
0.0022681
0.00014936
0.0016562
0.00016137
0.0009748
0.00071563
0.00012598
2.0052e-05
0.0051007
4.3552e-09
4.0134e-05
0.0050112
5.9649e-05
0.0048375
7.8202e-05
0.0045814
9.5427e-05
0.0042471
0.00011103
0.0038402
0.00012469
0.0033678
0.00013616
0.0028378
0.00014549
0.0022588
0.0001489
0.0016528
0.00016126
0.00096244
0.00073852
0.00013837
2.0053e-05
0.0050807
5.1737e-09
4.0135e-05
0.0049912
5.9651e-05
0.004818
7.8205e-05
0.0045628
9.543e-05
0.0042299
0.00011103
0.0038246
0.00012469
0.0033541
0.00013614
0.0028264
0.00014554
0.0022494
0.00014853
0.0016498
0.00016081
0.00095015
0.0007515
0.00014783
2.0053e-05
0.0050606
5.9931e-09
4.0136e-05
0.0049711
5.9653e-05
0.0047985
7.8208e-05
0.0045442
9.5433e-05
0.0042127
0.00011103
0.003809
0.00012469
0.0033405
0.00013611
0.002815
0.00014558
0.0022399
0.00014826
0.0016471
0.00016013
0.00093828
0.00075677
0.00015487
2.0053e-05
0.0050405
6.8134e-09
4.0138e-05
0.004951
5.9656e-05
0.0047789
7.8211e-05
0.0045257
9.5436e-05
0.0041954
0.00011103
0.0037934
0.00012469
0.0033268
0.00013609
0.0028036
0.00014563
0.0022304
0.0001481
0.0016446
0.0001593
0.00092708
0.00075613
0.00015993
2.0054e-05
0.0050205
7.6348e-09
4.0139e-05
0.0049309
5.9658e-05
0.0047594
7.8214e-05
0.0045071
9.5439e-05
0.0041782
0.00011104
0.0037778
0.00012469
0.0033132
0.00013606
0.0027922
0.00014568
0.0022208
0.00014803
0.0016423
0.00015838
0.00091674
0.0007511
0.00016341
2.0054e-05
0.0050004
8.4572e-09
4.014e-05
0.0049108
5.9661e-05
0.0047399
7.8217e-05
0.0044886
9.5442e-05
0.004161
0.00011104
0.0037622
0.00012469
0.0032995
0.00013604
0.0027808
0.00014572
0.0022111
0.00014805
0.0016399
0.00015745
0.00090734
0.0007429
0.00016565
2.0054e-05
0.0049804
9.2807e-09
4.0142e-05
0.0048907
5.9663e-05
0.0047204
7.822e-05
0.00447
9.5445e-05
0.0041438
0.00011104
0.0037466
0.0001247
0.0032858
0.00013601
0.0027695
0.00014575
0.0022013
0.00014815
0.0016375
0.00015654
0.00089895
0.00073251
0.00016694
2.0054e-05
0.0049603
1.0105e-08
4.0143e-05
0.0048706
5.9665e-05
0.0047009
7.8223e-05
0.0044515
9.5448e-05
0.0041265
0.00011104
0.003731
0.0001247
0.0032722
0.00013599
0.0027582
0.00014578
0.0021915
0.00014831
0.001635
0.0001557
0.00089156
0.0007207
0.00016751
2.0055e-05
0.0049402
1.0931e-08
4.0144e-05
0.0048506
5.9668e-05
0.0046813
7.8226e-05
0.0044329
9.5452e-05
0.0041093
0.00011104
0.0037154
0.0001247
0.0032585
0.00013596
0.002747
0.00014579
0.0021817
0.00014852
0.0016323
0.00015495
0.00088514
0.00070807
0.00016758
2.0055e-05
0.0049202
1.1758e-08
4.0146e-05
0.0048305
5.967e-05
0.0046618
7.8229e-05
0.0044143
9.5455e-05
0.0040921
0.00011104
0.0036998
0.00012471
0.0032449
0.00013594
0.0027357
0.0001458
0.0021719
0.00014877
0.0016293
0.00015429
0.00087961
0.00069507
0.00016729
2.0055e-05
0.0049001
1.2586e-08
4.0147e-05
0.0048104
5.9673e-05
0.0046423
7.8232e-05
0.0043958
9.5459e-05
0.0040749
0.00011105
0.0036842
0.00012471
0.0032312
0.00013592
0.0027245
0.00014579
0.002162
0.00014903
0.0016261
0.00015375
0.00087489
0.00068205
0.00016678
2.0056e-05
0.00488
1.3416e-08
4.0149e-05
0.0047903
5.9675e-05
0.0046228
7.8235e-05
0.0043772
9.5463e-05
0.0040576
0.00011105
0.0036687
0.00012472
0.0032175
0.0001359
0.0027133
0.00014578
0.0021521
0.00014931
0.0016225
0.00015331
0.00087089
0.00066922
0.00016614
2.0056e-05
0.00486
1.4247e-08
4.015e-05
0.0047702
5.9678e-05
0.0046032
7.8238e-05
0.0043587
9.5466e-05
0.0040404
0.00011105
0.0036531
0.00012473
0.0032038
0.00013589
0.0027022
0.00014576
0.0021422
0.00014959
0.0016187
0.00015297
0.00086751
0.00065675
0.00016544
2.0056e-05
0.0048399
1.5079e-08
4.0151e-05
0.0047501
5.968e-05
0.0045837
7.8241e-05
0.0043401
9.547e-05
0.0040232
0.00011105
0.0036375
0.00012473
0.0031902
0.00013588
0.002691
0.00014574
0.0021324
0.00014986
0.0016146
0.00015273
0.00086464
0.00064473
0.00016475
2.0057e-05
0.0048198
1.5913e-08
4.0153e-05
0.00473
5.9683e-05
0.0045642
7.8244e-05
0.0043215
9.5475e-05
0.0040059
0.00011105
0.0036219
0.00012474
0.0031765
0.00013587
0.0026799
0.00014571
0.0021225
0.00015012
0.0016102
0.00015257
0.00086219
0.00063321
0.00016409
2.0057e-05
0.0047997
1.6748e-08
4.0154e-05
0.0047099
5.9685e-05
0.0045446
7.8247e-05
0.004303
9.5479e-05
0.0039887
0.00011105
0.0036063
0.00012475
0.0031628
0.00013586
0.0026688
0.00014568
0.0021127
0.00015037
0.0016055
0.00015249
0.00086008
0.0006222
0.0001635
2.0057e-05
0.0047797
1.7585e-08
4.0155e-05
0.0046898
5.9688e-05
0.0045251
7.825e-05
0.0042844
9.5483e-05
0.0039715
0.00011106
0.0035908
0.00012476
0.0031491
0.00013586
0.0026577
0.00014564
0.0021029
0.0001506
0.0016005
0.00015246
0.00085821
0.00061169
0.00016297
2.0058e-05
0.0047596
1.8423e-08
4.0157e-05
0.0046697
5.969e-05
0.0045056
7.8253e-05
0.0042659
9.5488e-05
0.0039542
0.00011106
0.0035752
0.00012477
0.0031354
0.00013586
0.0026466
0.00014561
0.0020932
0.0001508
0.0015953
0.00015248
0.00085653
0.00060166
0.00016251
2.0058e-05
0.0047395
1.9263e-08
4.0158e-05
0.0046496
5.9693e-05
0.004486
7.8256e-05
0.0042473
9.5493e-05
0.003937
0.00011106
0.0035596
0.00012478
0.0031216
0.00013586
0.0026355
0.00014558
0.0020835
0.00015099
0.0015899
0.00015255
0.00085498
0.00059208
0.00016213
2.0059e-05
0.0047194
2.0105e-08
4.016e-05
0.0046295
5.9696e-05
0.0044665
7.8259e-05
0.0042287
9.5498e-05
0.0039198
0.00011106
0.0035441
0.00012479
0.0031079
0.00013587
0.0026245
0.00014555
0.0020738
0.00015116
0.0015843
0.00015264
0.0008535
0.0005829
0.00016182
2.0059e-05
0.0046994
2.0948e-08
4.0161e-05
0.0046094
5.9699e-05
0.004447
7.8262e-05
0.0042102
9.5503e-05
0.0039025
0.00011106
0.0035285
0.0001248
0.0030942
0.00013588
0.0026134
0.00014552
0.0020641
0.00015131
0.0015785
0.00015275
0.00085205
0.00057409
0.00016156
2.0059e-05
0.0046793
2.1794e-08
4.0162e-05
0.0045893
5.9701e-05
0.0044274
7.8265e-05
0.0041916
9.5508e-05
0.0038853
0.00011106
0.003513
0.00012481
0.0030804
0.00013589
0.0026023
0.0001455
0.0020545
0.00015144
0.0015726
0.00015288
0.0008506
0.00056561
0.00016136
2.006e-05
0.0046592
2.2641e-08
4.0164e-05
0.0045692
5.9704e-05
0.0044079
7.8268e-05
0.004173
9.5514e-05
0.003868
0.00011107
0.0034974
0.00012483
0.0030667
0.0001359
0.0025912
0.00014548
0.0020449
0.00015156
0.0015665
0.00015302
0.00084913
0.00055743
0.00016121
2.006e-05
0.0046391
2.3489e-08
4.0165e-05
0.0045491
5.9707e-05
0.0043883
7.8271e-05
0.0041545
9.5519e-05
0.0038508
0.00011107
0.0034819
0.00012484
0.0030529
0.00013592
0.0025802
0.00014547
0.0020354
0.00015166
0.0015603
0.00015317
0.00084762
0.00054951
0.00016109
2.006e-05
0.004619
2.434e-08
4.0167e-05
0.004529
5.971e-05
0.0043688
7.8275e-05
0.0041359
9.5525e-05
0.0038335
0.00011107
0.0034663
0.00012485
0.0030391
0.00013594
0.0025691
0.00014545
0.0020259
0.00015175
0.001554
0.00015332
0.00084606
0.00054183
0.000161
2.0061e-05
0.0045989
2.5193e-08
4.0168e-05
0.0045089
5.9713e-05
0.0043493
7.8278e-05
0.0041174
9.5532e-05
0.0038163
0.00011108
0.0034508
0.00012486
0.0030253
0.00013596
0.002558
0.00014544
0.0020164
0.00015184
0.0015476
0.00015347
0.00084443
0.00053436
0.00016093
2.0061e-05
0.0045788
2.6048e-08
4.017e-05
0.0044888
5.9716e-05
0.0043297
7.8281e-05
0.0040988
9.5538e-05
0.003799
0.00011108
0.0034352
0.00012488
0.0030115
0.00013598
0.0025469
0.00014544
0.0020069
0.00015191
0.0015412
0.00015361
0.00084273
0.00052709
0.00016089
2.0062e-05
0.0045588
2.6905e-08
4.0171e-05
0.0044687
5.9719e-05
0.0043102
7.8285e-05
0.0040802
9.5545e-05
0.0037818
0.00011109
0.0034197
0.00012489
0.0029977
0.00013601
0.0025358
0.00014544
0.0019975
0.00015198
0.0015346
0.00015375
0.00084097
0.00051999
0.00016085
2.0062e-05
0.0045387
2.7764e-08
4.0173e-05
0.0044485
5.9722e-05
0.0042906
7.8288e-05
0.0040617
9.5552e-05
0.0037645
0.00011109
0.0034041
0.00012491
0.0029839
0.00013603
0.0025246
0.00014544
0.0019881
0.00015205
0.001528
0.00015389
0.00083912
0.00051306
0.00016082
2.0063e-05
0.0045186
2.8625e-08
4.0174e-05
0.0044284
5.9726e-05
0.0042711
7.8292e-05
0.0040431
9.556e-05
0.0037472
0.0001111
0.0033886
0.00012492
0.0029701
0.00013606
0.0025135
0.00014544
0.0019787
0.00015211
0.0015213
0.00015403
0.00083721
0.00050628
0.00016081
2.0063e-05
0.0044985
2.9488e-08
4.0176e-05
0.0044083
5.9729e-05
0.0042515
7.8296e-05
0.0040245
9.5567e-05
0.00373
0.00011111
0.0033731
0.00012494
0.0029563
0.00013609
0.0025023
0.00014545
0.0019694
0.00015217
0.0015146
0.00015416
0.00083522
0.00049964
0.00016079
2.0064e-05
0.0044784
3.0353e-08
4.0177e-05
0.0043882
5.9732e-05
0.004232
7.83e-05
0.004006
9.5575e-05
0.0037127
0.00011111
0.0033575
0.00012495
0.0029424
0.00013612
0.0024912
0.00014546
0.00196
0.00015222
0.0015079
0.00015428
0.00083316
0.00049314
0.00016078
2.0064e-05
0.0044583
3.122e-08
4.0179e-05
0.0043681
5.9736e-05
0.0042124
7.8304e-05
0.0039874
9.5584e-05
0.0036954
0.00011112
0.003342
0.00012497
0.0029286
0.00013615
0.00248
0.00014546
0.0019507
0.00015227
0.0015011
0.0001544
0.00083103
0.00048677
0.00016077
2.0065e-05
0.0044382
3.209e-08
4.0181e-05
0.004348
5.974e-05
0.0041928
7.8309e-05
0.0039688
9.5592e-05
0.0036781
0.00011113
0.0033264
0.00012498
0.0029147
0.00013618
0.0024688
0.00014548
0.0019414
0.00015232
0.0014942
0.00015452
0.00082883
0.00048052
0.00016077
2.0065e-05
0.0044181
3.2961e-08
4.0182e-05
0.0043279
5.9743e-05
0.0041733
7.8314e-05
0.0039502
9.5602e-05
0.0036608
0.00011114
0.0033109
0.000125
0.0029009
0.00013621
0.0024576
0.00014549
0.0019321
0.00015237
0.0014873
0.00015463
0.00082657
0.00047439
0.00016076
2.0066e-05
0.004398
3.3834e-08
4.0184e-05
0.0043077
5.9747e-05
0.0041537
7.8319e-05
0.0039317
9.5611e-05
0.0036435
0.00011116
0.0032953
0.00012501
0.002887
0.00013624
0.0024463
0.0001455
0.0019229
0.00015242
0.0014804
0.00015474
0.00082424
0.00046838
0.00016075
2.0066e-05
0.0043779
3.4709e-08
4.0186e-05
0.0042876
5.9751e-05
0.0041342
7.8324e-05
0.0039131
9.5621e-05
0.0036262
0.00011117
0.0032798
0.00012503
0.0028732
0.00013627
0.0024351
0.00014551
0.0019136
0.00015246
0.0014735
0.00015485
0.00082185
0.00046248
0.00016075
2.0067e-05
0.0043578
3.5585e-08
4.0188e-05
0.0042675
5.9756e-05
0.0041146
7.833e-05
0.0038945
9.5631e-05
0.0036089
0.00011118
0.0032642
0.00012505
0.0028593
0.0001363
0.0024239
0.00014553
0.0019044
0.0001525
0.0014665
0.00015495
0.00081941
0.00045669
0.00016074
2.0068e-05
0.0043377
3.6462e-08
4.019e-05
0.0042474
5.976e-05
0.004095
7.8336e-05
0.0038759
9.5642e-05
0.0035916
0.0001112
0.0032487
0.00012506
0.0028454
0.00013633
0.0024126
0.00014554
0.0018952
0.00015255
0.0014595
0.00015505
0.0008169
0.00045101
0.00016073
2.0068e-05
0.0043176
3.734e-08
4.0193e-05
0.0042273
5.9765e-05
0.0040754
7.8343e-05
0.0038574
9.5653e-05
0.0035743
0.00011121
0.0032331
0.00012508
0.0028316
0.00013636
0.0024013
0.00014555
0.001886
0.00015259
0.0014524
0.00015515
0.00081435
0.00044542
0.00016073
2.0069e-05
0.0042975
3.8219e-08
4.0195e-05
0.0042071
5.977e-05
0.0040559
7.8349e-05
0.0038388
9.5664e-05
0.003557
0.00011122
0.0032176
0.00012509
0.0028177
0.00013638
0.00239
0.00014557
0.0018768
0.00015263
0.0014454
0.00015524
0.00081174
0.00043994
0.00016072
2.007e-05
0.0042774
3.9098e-08
4.0197e-05
0.004187
5.9775e-05
0.0040363
7.8357e-05
0.0038202
9.5676e-05
0.0035397
0.00011124
0.003202
0.00012511
0.0028038
0.00013641
0.0023787
0.00014558
0.0018676
0.00015267
0.0014383
0.00015533
0.00080907
0.00043456
0.00016071
2.0071e-05
0.0042573
3.9975e-08
4.02e-05
0.0041669
5.978e-05
0.0040167
7.8364e-05
0.0038016
9.5688e-05
0.0035224
0.00011125
0.0031864
0.00012512
0.0027899
0.00013644
0.0023674
0.0001456
0.0018585
0.00015271
0.0014312
0.00015542
0.00080636
0.00042928
0.00016071
2.0072e-05
0.0042371
4.0852e-08
4.0203e-05
0.0041467
5.9786e-05
0.0039971
7.8372e-05
0.003783
9.57e-05
0.003505
0.00011127
0.0031709
0.00012514
0.0027761
0.00013646
0.0023561
0.00014561
0.0018493
0.00015275
0.0014241
0.00015551
0.0008036
0.00042408
0.0001607
2.0073e-05
0.004217
4.1727e-08
4.0206e-05
0.0041266
5.9791e-05
0.0039775
7.838e-05
0.0037645
9.5713e-05
0.0034877
0.00011129
0.0031553
0.00012515
0.0027622
0.00013649
0.0023447
0.00014563
0.0018402
0.00015279
0.0014169
0.00015559
0.00080079
0.00041898
0.00016069
2.0074e-05
0.0041969
4.2599e-08
4.0209e-05
0.0041065
5.9797e-05
0.003958
7.8389e-05
0.0037459
9.5725e-05
0.0034704
0.0001113
0.0031397
0.00012517
0.0027483
0.00013651
0.0023334
0.00014564
0.0018311
0.00015282
0.0014097
0.00015568
0.00079794
0.00041397
0.00016069
2.0075e-05
0.0041768
4.3467e-08
4.0212e-05
0.0040863
5.9803e-05
0.0039384
7.8398e-05
0.0037273
9.5738e-05
0.003453
0.00011132
0.0031241
0.00012518
0.0027345
0.00013654
0.002322
0.00014566
0.0018219
0.00015286
0.0014025
0.00015576
0.00079504
0.00040905
0.00016068
2.0076e-05
0.0041567
4.4331e-08
4.0215e-05
0.0040662
5.981e-05
0.0039188
7.8407e-05
0.0037087
9.575e-05
0.0034357
0.00011133
0.0031086
0.0001252
0.0027206
0.00013656
0.0023107
0.00014568
0.0018128
0.0001529
0.0013953
0.00015584
0.0007921
0.00040421
0.00016067
2.0078e-05
0.0041366
4.5189e-08
4.0219e-05
0.0040461
5.9816e-05
0.0038992
7.8416e-05
0.0036901
9.5763e-05
0.0034183
0.00011135
0.003093
0.00012521
0.0027068
0.00013658
0.0022993
0.00014569
0.0018037
0.00015293
0.0013881
0.00015591
0.00078912
0.00039946
0.00016067
2.0079e-05
0.0041164
4.6041e-08
4.0223e-05
0.0040259
5.9823e-05
0.0038796
7.8426e-05
0.0036715
9.5776e-05
0.003401
0.00011136
0.0030774
0.00012522
0.0026929
0.00013661
0.0022879
0.00014571
0.0017946
0.00015296
0.0013808
0.00015599
0.00078609
0.00039479
0.00016066
2.0081e-05
0.0040963
4.6885e-08
4.0226e-05
0.0040058
5.983e-05
0.00386
7.8436e-05
0.0036529
9.5788e-05
0.0033836
0.00011138
0.0030618
0.00012523
0.0026791
0.00013663
0.0022765
0.00014572
0.0017855
0.000153
0.0013735
0.00015606
0.00078303
0.00039019
0.00016066
2.0082e-05
0.0040762
4.772e-08
4.023e-05
0.0039856
5.9837e-05
0.0038404
7.8445e-05
0.0036343
9.58e-05
0.0033663
0.00011139
0.0030462
0.00012524
0.0026652
0.00013665
0.0022651
0.00014574
0.0017764
0.00015303
0.0013662
0.00015614
0.00077992
0.00038568
0.00016065
2.0084e-05
0.004056
4.8545e-08
4.0235e-05
0.0039655
5.9844e-05
0.0038207
7.8455e-05
0.0036156
9.5812e-05
0.0033489
0.00011141
0.0030306
0.00012525
0.0026514
0.00013667
0.0022537
0.00014576
0.0017673
0.00015307
0.0013589
0.00015621
0.00077678
0.00038124
0.00016065
2.0085e-05
0.0040359
4.9359e-08
4.0239e-05
0.0039453
5.9851e-05
0.0038011
7.8465e-05
0.003597
9.5824e-05
0.0033316
0.00011142
0.003015
0.00012527
0.0026375
0.00013669
0.0022423
0.00014577
0.0017583
0.0001531
0.0013516
0.00015628
0.0007736
0.00037687
0.00016064
2.0087e-05
0.0040158
5.0161e-08
4.0243e-05
0.0039252
5.9859e-05
0.0037815
7.8475e-05
0.0035784
9.5835e-05
0.0033142
0.00011143
0.0029994
0.00012528
0.0026237
0.00013671
0.0022308
0.00014579
0.0017492
0.00015313
0.0013443
0.00015634
0.00077039
0.00037258
0.00016064
2.0089e-05
0.0039956
5.0949e-08
4.0247e-05
0.003905
5.9866e-05
0.0037619
7.8485e-05
0.0035598
9.5846e-05
0.0032968
0.00011145
0.0029838
0.00012529
0.0026098
0.00013673
0.0022194
0.00014581
0.0017401
0.00015316
0.0013369
0.00015641
0.00076714
0.00036836
0.00016063
2.0091e-05
0.0039755
5.1723e-08
4.0252e-05
0.0038848
5.9873e-05
0.0037423
7.8494e-05
0.0035412
9.5857e-05
0.0032795
0.00011146
0.0029682
0.00012529
0.002596
0.00013675
0.0022079
0.00014582
0.001731
0.00015319
0.0013295
0.00015648
0.00076386
0.00036421
0.00016063
2.0093e-05
0.0039553
5.2482e-08
4.0256e-05
0.0038647
5.988e-05
0.0037227
7.8503e-05
0.0035225
9.5867e-05
0.0032621
0.00011147
0.0029526
0.0001253
0.0025822
0.00013677
0.0021965
0.00014584
0.001722
0.00015322
0.0013222
0.00015654
0.00076054
0.00036012
0.00016062
2.0094e-05
0.0039352
5.3225e-08
4.0261e-05
0.0038445
5.9887e-05
0.003703
7.8513e-05
0.0035039
9.5877e-05
0.0032448
0.00011148
0.002937
0.00012531
0.0025683
0.00013679
0.002185
0.00014586
0.0017129
0.00015325
0.0013148
0.0001566
0.00075719
0.0003561
0.00016062
2.0096e-05
0.003915
5.3951e-08
4.0265e-05
0.0038243
5.9894e-05
0.0036834
7.8521e-05
0.0034853
9.5887e-05
0.0032274
0.00011149
0.0029214
0.00012532
0.0025545
0.00013681
0.0021735
0.00014588
0.0017038
0.00015328
0.0013074
0.00015666
0.00075381
0.00035215
0.00016062
2.0098e-05
0.0038949
5.466e-08
4.027e-05
0.0038042
5.9901e-05
0.0036638
7.853e-05
0.0034667
9.5896e-05
0.00321
0.00011151
0.0029058
0.00012533
0.0025407
0.00013683
0.002162
0.0001459
0.0016948
0.00015331
0.0013
0.00015672
0.0007504
0.00034825
0.00016062
2.01e-05
0.0038747
5.5352e-08
4.0274e-05
0.003784
5.9908e-05
0.0036441
7.8538e-05
0.003448
9.5905e-05
0.0031927
0.00011152
0.0028902
0.00012534
0.0025269
0.00013685
0.0021505
0.00014592
0.0016857
0.00015334
0.0012925
0.00015678
0.00074696
0.00034442
0.00016061
2.0102e-05
0.0038546
5.6026e-08
4.0278e-05
0.0037638
5.9914e-05
0.0036245
7.8546e-05
0.0034294
9.5913e-05
0.0031753
0.00011153
0.0028746
0.00012535
0.002513
0.00013687
0.0021389
0.00014594
0.0016766
0.00015337
0.0012851
0.00015684
0.00074348
0.00034065
0.00016061
2.0104e-05
0.0038344
5.6682e-08
4.0283e-05
0.0037436
5.992e-05
0.0036049
7.8554e-05
0.0034108
9.5921e-05
0.0031579
0.00011154
0.0028589
0.00012536
0.0024992
0.00013689
0.0021274
0.00014595
0.0016676
0.0001534
0.0012777
0.0001569
0.00073998
0.00033693
0.00016061
2.0106e-05
0.0038143
5.732e-08
4.0287e-05
0.0037235
5.9926e-05
0.0035852
7.8561e-05
0.0033921
9.5929e-05
0.0031406
0.00011155
0.0028433
0.00012537
0.0024854
0.00013691
0.0021159
0.00014597
0.0016585
0.00015342
0.0012702
0.00015695
0.00073646
0.00033327
0.00016061
2.0107e-05
0.0037941
5.794e-08
4.0291e-05
0.0037033
5.9932e-05
0.0035656
7.8569e-05
0.0033735
9.5936e-05
0.0031232
0.00011156
0.0028277
0.00012537
0.0024716
0.00013693
0.0021043
0.00014599
0.0016494
0.00015345
0.0012628
0.00015701
0.0007329
0.00032967
0.00016061
2.0109e-05
0.0037739
5.8544e-08
4.0294e-05
0.0036831
5.9938e-05
0.0035459
7.8575e-05
0.0033549
9.5943e-05
0.0031058
0.00011157
0.0028121
0.00012538
0.0024578
0.00013695
0.0020927
0.00014601
0.0016404
0.00015348
0.0012553
0.00015706
0.00072932
0.00032612
0.00016061
2.0111e-05
0.0037537
5.9131e-08
4.0298e-05
0.0036629
5.9943e-05
0.0035263
7.8582e-05
0.0033362
9.595e-05
0.0030884
0.00011158
0.0027965
0.00012539
0.0024439
0.00013697
0.0020812
0.00014604
0.0016313
0.00015351
0.0012478
0.00015711
0.00072572
0.00032262
0.00016061
2.0112e-05
0.0037336
5.9702e-08
4.0302e-05
0.0036427
5.9948e-05
0.0035067
7.8588e-05
0.0033176
9.5957e-05
0.0030711
0.00011158
0.0027808
0.0001254
0.0024301
0.00013699
0.0020696
0.00014606
0.0016223
0.00015353
0.0012403
0.00015716
0.00072208
0.00031918
0.00016061
2.0114e-05
0.0037134
6.0258e-08
4.0305e-05
0.0036225
5.9953e-05
0.003487
7.8595e-05
0.0032989
9.5963e-05
0.0030537
0.00011159
0.0027652
0.00012541
0.0024163
0.00013701
0.002058
0.00014608
0.0016132
0.00015356
0.0012329
0.00015721
0.00071843
0.00031578
0.00016061
2.0115e-05
0.0036932
6.08e-08
4.0308e-05
0.0036023
5.9958e-05
0.0034674
7.86e-05
0.0032803
9.597e-05
0.0030363
0.0001116
0.0027496
0.00012542
0.0024025
0.00013703
0.0020464
0.0001461
0.0016041
0.00015358
0.0012254
0.00015726
0.00071475
0.00031243
0.00016061
2.0117e-05
0.003673
6.1329e-08
4.0312e-05
0.0035821
5.9962e-05
0.0034477
7.8606e-05
0.0032616
9.5976e-05
0.003019
0.00011161
0.0027339
0.00012543
0.0023887
0.00013705
0.0020347
0.00014612
0.001595
0.00015361
0.0012179
0.00015731
0.00071104
0.00030913
0.00016062
2.0118e-05
0.0036529
6.1846e-08
4.0315e-05
0.0035619
5.9966e-05
0.0034281
7.8612e-05
0.003243
9.5982e-05
0.0030016
0.00011162
0.0027183
0.00012544
0.0023749
0.00013707
0.0020231
0.00014614
0.001586
0.00015364
0.0012104
0.00015736
0.00070732
0.00030587
0.00016062
2.0119e-05
0.0036327
6.2352e-08
4.0318e-05
0.0035417
5.997e-05
0.0034084
7.8617e-05
0.0032244
9.5988e-05
0.0029842
0.00011163
0.0027026
0.00012544
0.0023611
0.00013709
0.0020115
0.00014616
0.0015769
0.00015366
0.0012029
0.00015741
0.00070357
0.00030266
0.00016062
2.0121e-05
0.0036125
6.2848e-08
4.032e-05
0.0035215
5.9974e-05
0.0033887
7.8622e-05
0.0032057
9.5994e-05
0.0029669
0.00011164
0.002687
0.00012545
0.0023473
0.00013711
0.0019998
0.00014619
0.0015678
0.00015369
0.0011954
0.00015746
0.0006998
0.00029949
0.00016062
2.0122e-05
0.0035923
6.3335e-08
4.0323e-05
0.0035013
5.9978e-05
0.0033691
7.8628e-05
0.0031871
9.6e-05
0.0029495
0.00011165
0.0026713
0.00012546
0.0023334
0.00013713
0.0019881
0.00014621
0.0015587
0.00015371
0.0011879
0.0001575
0.00069601
0.00029636
0.00016063
2.0123e-05
0.0035721
6.3815e-08
4.0326e-05
0.0034811
5.9982e-05
0.0033494
7.8633e-05
0.0031684
9.6006e-05
0.0029321
0.00011166
0.0026557
0.00012547
0.0023196
0.00013715
0.0019765
0.00014623
0.0015496
0.00015374
0.0011804
0.00015755
0.0006922
0.00029328
0.00016063
2.0124e-05
0.0035519
6.4289e-08
4.0328e-05
0.0034609
5.9986e-05
0.0033298
7.8638e-05
0.0031498
9.6012e-05
0.0029147
0.00011167
0.00264
0.00012548
0.0023058
0.00013717
0.0019648
0.00014625
0.0015406
0.00015376
0.0011729
0.00015759
0.00068837
0.00029024
0.00016064
2.0125e-05
0.0035318
6.4757e-08
4.0331e-05
0.0034407
5.9989e-05
0.0033101
7.8643e-05
0.0031311
9.6018e-05
0.0028974
0.00011168
0.0026244
0.00012549
0.002292
0.00013719
0.0019531
0.00014628
0.0015315
0.00015379
0.0011654
0.00015764
0.00068452
0.00028723
0.00016064
2.0126e-05
0.0035116
6.5222e-08
4.0333e-05
0.0034205
5.9992e-05
0.0032905
7.8648e-05
0.0031124
9.6024e-05
0.00288
0.00011169
0.0026087
0.0001255
0.0022782
0.00013721
0.0019414
0.0001463
0.0015224
0.00015381
0.0011579
0.00015768
0.00068065
0.00028426
0.00016065
2.0127e-05
0.0034914
6.5684e-08
4.0335e-05
0.0034003
5.9996e-05
0.0032708
7.8653e-05
0.0030938
9.603e-05
0.0028626
0.0001117
0.002593
0.00012551
0.0022644
0.00013723
0.0019297
0.00014632
0.0015133
0.00015383
0.0011503
0.00015772
0.00067676
0.00028133
0.00016065
2.0128e-05
0.0034712
6.6144e-08
4.0337e-05
0.0033801
5.9999e-05
0.0032511
7.8658e-05
0.0030751
9.6036e-05
0.0028452
0.00011171
0.0025774
0.00012552
0.0022506
0.00013725
0.001918
0.00014635
0.0015042
0.00015386
0.0011428
0.00015776
0.00067286
0.00027844
0.00016066
2.0129e-05
0.003451
6.6603e-08
4.0339e-05
0.0033599
6.0002e-05
0.0032315
7.8663e-05
0.0030565
9.6042e-05
0.0028279
0.00011172
0.0025617
0.00012554
0.0022367
0.00013727
0.0019062
0.00014637
0.0014951
0.00015388
0.0011353
0.0001578
0.00066893
0.00027558
0.00016066
2.013e-05
0.0034308
6.7062e-08
4.0342e-05
0.0033397
6.0006e-05
0.0032118
7.8668e-05
0.0030378
9.6048e-05
0.0028105
0.00011173
0.002546
0.00012555
0.0022229
0.00013729
0.0018945
0.00014639
0.001486
0.00015391
0.0011278
0.00015785
0.00066499
0.00027275
0.00016067
2.013e-05
0.0034106
6.7522e-08
4.0344e-05
0.0033195
6.0009e-05
0.0031921
7.8673e-05
0.0030191
9.6054e-05
0.0027931
0.00011174
0.0025303
0.00012556
0.0022091
0.00013731
0.0018827
0.00014642
0.0014769
0.00015393
0.0011203
0.00015789
0.00066104
0.00026996
0.00016068
2.0131e-05
0.0033904
6.7984e-08
4.0346e-05
0.0032992
6.0012e-05
0.0031725
7.8678e-05
0.0030005
9.6061e-05
0.0027757
0.00011175
0.0025146
0.00012557
0.0021953
0.00013733
0.001871
0.00014644
0.0014677
0.00015395
0.0011128
0.00015793
0.00065706
0.0002672
0.00016069
2.0132e-05
0.0033702
6.8448e-08
4.0348e-05
0.003279
6.0015e-05
0.0031528
7.8683e-05
0.0029818
9.6067e-05
0.0027583
0.00011176
0.0024989
0.00012558
0.0021815
0.00013735
0.0018592
0.00014647
0.0014586
0.00015398
0.0011053
0.00015796
0.00065308
0.00026447
0.00016069
2.0133e-05
0.00335
6.8916e-08
4.035e-05
0.0032588
6.0019e-05
0.0031331
7.8688e-05
0.0029631
9.6074e-05
0.0027409
0.00011178
0.0024832
0.00012559
0.0021677
0.00013737
0.0018474
0.00014649
0.0014495
0.000154
0.0010978
0.000158
0.00064907
0.00026177
0.0001607
2.0133e-05
0.0033298
6.9387e-08
4.0352e-05
0.0032386
6.0022e-05
0.0031135
7.8694e-05
0.0029445
9.608e-05
0.0027236
0.00011179
0.0024675
0.0001256
0.0021539
0.00013739
0.0018357
0.00014652
0.0014404
0.00015402
0.0010903
0.00015804
0.00064505
0.0002591
0.00016071
2.0134e-05
0.0033096
6.9863e-08
4.0354e-05
0.0032184
6.0025e-05
0.0030938
7.8699e-05
0.0029258
9.6087e-05
0.0027062
0.0001118
0.0024518
0.00012562
0.00214
0.00013741
0.0018239
0.00014654
0.0014312
0.00015405
0.0010828
0.00015808
0.00064102
0.00025646
0.00016072
2.0135e-05
0.0032894
7.0344e-08
4.0356e-05
0.0031982
6.0029e-05
0.0030741
7.8705e-05
0.0029071
9.6094e-05
0.0026888
0.00011181
0.0024361
0.00012563
0.0021262
0.00013743
0.0018121
0.00014657
0.0014221
0.00015407
0.0010753
0.00015812
0.00063697
0.00025385
0.00016073
2.0136e-05
0.0032692
7.083e-08
4.0358e-05
0.0031779
6.0032e-05
0.0030545
7.871e-05
0.0028884
9.6101e-05
0.0026714
0.00011182
0.0024204
0.00012564
0.0021124
0.00013745
0.0018003
0.00014659
0.0014129
0.00015409
0.0010678
0.00015815
0.00063291
0.00025126
0.00016074
2.0136e-05
0.003249
7.1322e-08
4.036e-05
0.0031577
6.0036e-05
0.0030348
7.8716e-05
0.0028698
9.6108e-05
0.002654
0.00011183
0.0024046
0.00012565
0.0020986
0.00013747
0.0017884
0.00014662
0.0014038
0.00015412
0.0010603
0.00015819
0.00062884
0.0002487
0.00016075
2.0137e-05
0.0032287
7.182e-08
4.0362e-05
0.0031375
6.0039e-05
0.0030151
7.8722e-05
0.0028511
9.6116e-05
0.0026366
0.00011185
0.0023889
0.00012567
0.0020848
0.00013749
0.0017766
0.00014665
0.0013946
0.00015414
0.0010528
0.00015823
0.00062475
0.00024617
0.00016076
2.0138e-05
0.0032085
7.2326e-08
4.0365e-05
0.0031173
6.0043e-05
0.0029954
7.8727e-05
0.0028324
9.6123e-05
0.0026192
0.00011186
0.0023732
0.00012568
0.0020709
0.00013751
0.0017648
0.00014667
0.0013855
0.00015416
0.0010453
0.00015826
0.00062065
0.00024366
0.00016077
2.0139e-05
0.0031883
7.2838e-08
4.0367e-05
0.003097
6.0046e-05
0.0029757
7.8733e-05
0.0028137
9.613e-05
0.0026018
0.00011187
0.0023574
0.00012569
0.0020571
0.00013753
0.0017529
0.0001467
0.0013763
0.00015419
0.0010378
0.0001583
0.00061654
0.00024117
0.00016078
2.014e-05
0.0031681
7.3358e-08
4.0369e-05
0.0030768
6.005e-05
0.0029561
7.8739e-05
0.002795
9.6138e-05
0.0025844
0.00011188
0.0023417
0.00012571
0.0020433
0.00013755
0.0017411
0.00014672
0.0013672
0.00015421
0.0010303
0.00015834
0.00061241
0.00023871
0.0001608
2.014e-05
0.0031479
7.3886e-08
4.0371e-05
0.0030566
6.0054e-05
0.0029364
7.8746e-05
0.0027763
9.6146e-05
0.002567
0.00011189
0.0023259
0.00012572
0.0020294
0.00013758
0.0017292
0.00014675
0.001358
0.00015423
0.0010228
0.00015837
0.00060828
0.00023627
0.00016081
2.0141e-05
0.0031277
7.4421e-08
4.0374e-05
0.0030363
6.0058e-05
0.0029167
7.8752e-05
0.0027576
9.6154e-05
0.0025496
0.00011191
0.0023102
0.00012574
0.0020156
0.0001376
0.0017174
0.00014678
0.0013488
0.00015426
0.0010153
0.00015841
0.00060413
0.00023386
0.00016082
2.0142e-05
0.0031075
7.4966e-08
4.0376e-05
0.0030161
6.0061e-05
0.002897
7.8758e-05
0.0027389
9.6162e-05
0.0025322
0.00011192
0.0022944
0.00012575
0.0020018
0.00013762
0.0017055
0.00014681
0.0013396
0.00015428
0.0010079
0.00015844
0.00059997
0.00023146
0.00016084
2.0143e-05
0.0030872
7.5518e-08
4.0378e-05
0.0029959
6.0065e-05
0.0028773
7.8765e-05
0.0027202
9.617e-05
0.0025148
0.00011193
0.0022787
0.00012577
0.001988
0.00013764
0.0016936
0.00014683
0.0013304
0.00015431
0.0010004
0.00015847
0.0005958
0.00022909
0.00016085
2.0144e-05
0.003067
7.608e-08
4.0381e-05
0.0029756
6.0069e-05
0.0028576
7.8771e-05
0.0027015
9.6178e-05
0.0024974
0.00011195
0.0022629
0.00012578
0.0019741
0.00013766
0.0016818
0.00014686
0.0013212
0.00015433
0.00099293
0.00015851
0.00059162
0.00022673
0.00016086
2.0144e-05
0.0030468
7.6651e-08
4.0383e-05
0.0029554
6.0073e-05
0.0028379
7.8778e-05
0.0026828
9.6187e-05
0.00248
0.00011196
0.0022471
0.0001258
0.0019603
0.00013768
0.0016699
0.00014689
0.001312
0.00015435
0.00098546
0.00015854
0.00058743
0.0002244
0.00016088
2.0145e-05
0.0030266
7.7231e-08
4.0386e-05
0.0029351
6.0078e-05
0.0028183
7.8785e-05
0.0026641
9.6196e-05
0.0024626
0.00011197
0.0022313
0.00012581
0.0019464
0.00013771
0.001658
0.00014692
0.0013028
0.00015438
0.000978
0.00015858
0.00058323
0.00022208
0.00016089
2.0146e-05
0.0030064
7.7821e-08
4.0389e-05
0.0029149
6.0082e-05
0.0027986
7.8792e-05
0.0026454
9.6204e-05
0.0024452
0.00011199
0.0022156
0.00012583
0.0019326
0.00013773
0.0016461
0.00014694
0.0012936
0.0001544
0.00097055
0.00015861
0.00057902
0.00021979
0.00016091
2.0147e-05
0.0029861
7.8421e-08
4.0391e-05
0.0028947
6.0086e-05
0.0027789
7.8799e-05
0.0026267
9.6213e-05
0.0024277
0.000112
0.0021998
0.00012584
0.0019188
0.00013775
0.0016342
0.00014697
0.0012844
0.00015443
0.00096309
0.00015865
0.0005748
0.00021751
0.00016092
2.0148e-05
0.0029659
7.9031e-08
4.0394e-05
0.0028744
6.0091e-05
0.0027592
7.8806e-05
0.002608
9.6222e-05
0.0024103
0.00011202
0.002184
0.00012586
0.0019049
0.00013777
0.0016223