/*--------------------------------*- C++ -*----------------------------------*\
  =========                 |
  \\      /  F ield         | OpenFOAM: The Open Source CFD Toolbox
   \\    /   O peration     | Website:  https://openfoam.org
    \\  /    A nd           | Version:  6.0
     \\/     M anipulation  |
\*---------------------------------------------------------------------------*/
FoamFile
{
    version     2.0;
    format      ascii;
    class       volVectorField;
    location    "17";
    object      U;
}
// * * * * * * * * * * * * * * * * * * * * * * * * * * * * * * * * * * * * * //

dimensions      [0 1 -1 0 0 0 0];

internalField   nonuniform List<vector> 
47000
(
(1 2.16104e-05 2.86956e-20)
(0.999992 6.90605e-05 5.59735e-20)
(0.999964 0.000103022 -4.23902e-19)
(0.99992 0.000107784 -8.04349e-19)
(0.999862 7.40779e-05 6.25418e-19)
(0.999795 1.97674e-06 -4.1693e-19)
(0.999727 -9.65371e-05 1.71511e-18)
(0.999663 -0.000205285 5.28961e-20)
(0.999607 -0.000308763 2.88552e-19)
(0.999561 -0.000397021 -2.2674e-18)
(0.999524 -0.000469412 1.46453e-18)
(0.999493 -0.000529443 4.94154e-19)
(0.999467 -0.000585024 7.35457e-19)
(0.999446 -0.000640226 8.97741e-19)
(0.99943 -0.000700183 -8.50287e-19)
(0.999419 -0.000764319 -4.22973e-19)
(0.999411 -0.000835717 -4.82964e-20)
(0.999406 -0.000914344 -5.2649e-19)
(0.999401 -0.00100634 -7.88575e-20)
(0.999398 -0.00111349 -1.52651e-19)
(0.999396 -0.00124297 -1.08376e-18)
(0.999397 -0.00139795 -4.3466e-19)
(0.999404 -0.00158572 -4.87414e-19)
(0.999418 -0.0018105 -7.3562e-20)
(0.999445 -0.00208477 3.36889e-19)
(0.999477 -0.00241636 -1.19643e-19)
(0.999563 -0.00287429 3.3393e-19)
(0.999443 -0.0034565 -2.10521e-19)
(1.00016 -0.00443284 3.70579e-20)
(0.993465 -0.00809286 -6.76879e-20)
(1.00002 0.000108654 -6.21946e-20)
(0.999984 0.000133326 -1.9359e-19)
(0.999912 0.00011359 -7.32613e-21)
(0.999809 2.6171e-05 1.03316e-18)
(0.999688 -0.000129797 -5.30122e-19)
(0.999565 -0.000331368 1.4465e-18)
(0.999452 -0.000540538 -1.13848e-18)
(0.999357 -0.000723217 3.39017e-19)
(0.999281 -0.000861085 -1.81809e-18)
(0.999219 -0.000953708 -1.44471e-19)
(0.999168 -0.00101739 -2.78496e-19)
(0.999125 -0.00106943 5.21464e-19)
(0.99909 -0.00112607 -1.12588e-18)
(0.999065 -0.00119144 8.85199e-20)
(0.99905 -0.00126749 3.12765e-19)
(0.999046 -0.00134958 -1.38276e-19)
(0.999046 -0.00143926 6.7694e-19)
(0.999049 -0.00153838 -4.30073e-19)
(0.99905 -0.00165789 -9.58128e-19)
(0.99905 -0.00180531 1.21547e-18)
(0.99905 -0.00199282 4.54379e-19)
(0.999054 -0.00222695 1.24487e-19)
(0.999067 -0.00251714 3.41947e-19)
(0.999095 -0.00286681 3.38914e-19)
(0.999147 -0.00328829 -1.78257e-19)
(0.9992 -0.00378482 -1.67987e-20)
(0.999357 -0.00441417 -1.35104e-19)
(0.999268 -0.00520285 -2.91097e-19)
(0.999173 -0.00621224 2.75679e-19)
(0.998239 -0.00844086 1.18134e-19)
(1.00002 0.000160922 7.23273e-20)
(0.999977 0.00010367 1.75033e-20)
(0.999889 -9.68495e-06 -2.58157e-20)
(0.999769 -0.000195175 -1.78271e-18)
(0.999635 -0.000438428 1.70368e-19)
(0.999507 -0.00069987 -1.26251e-18)
(0.999396 -0.000931646 1.14084e-18)
(0.999308 -0.00110024 -9.0521e-19)
(0.999239 -0.00119889 1.80775e-18)
(0.999183 -0.00124215 1.08393e-18)
(0.999136 -0.00126047 -4.21443e-19)
(0.999098 -0.0012779 -3.1245e-19)
(0.999071 -0.0013108 1.78684e-18)
(0.999057 -0.00135822 -5.15628e-19)
(0.999058 -0.00141513 3.27488e-19)
(0.999073 -0.00147188 1.92071e-19)
(0.999095 -0.00152624 -7.01311e-19)
(0.999119 -0.00158094 9.65431e-19)
(0.99914 -0.00164831 5.70348e-19)
(0.999158 -0.00174036 -1.02723e-20)
(0.999172 -0.00187182 1.0353e-18)
(0.999187 -0.00205298 9.75221e-19)
(0.999207 -0.00229461 7.14288e-19)
(0.999239 -0.0026017 2.01703e-19)
(0.999291 -0.00298344 -2.83789e-19)
(0.999333 -0.00344951 6.43765e-20)
(0.999452 -0.00402339 -4.06305e-19)
(0.999418 -0.00473961 3.5887e-19)
(0.999131 -0.00552834 -9.09075e-20)
(0.997948 -0.00695913 -1.62131e-19)
(1 0.000174008 -1.00841e-19)
(0.99995 2.53752e-05 4.39671e-20)
(0.999853 -0.0001751 4.22811e-19)
(0.999724 -0.000434439 1.33309e-18)
(0.999582 -0.000727451 1.26984e-19)
(0.999447 -0.00100886 1.70006e-19)
(0.99933 -0.00123307 -1.27584e-18)
(0.999235 -0.00137517 -5.05272e-20)
(0.999157 -0.00144153 -9.50008e-19)
(0.99909 -0.00145783 -3.44373e-19)
(0.999031 -0.0014623 4.97425e-19)
(0.99898 -0.00148076 -2.77287e-19)
(0.998941 -0.00152743 -7.6874e-19)
(0.998916 -0.00159688 4.68063e-19)
(0.998908 -0.00167899 1.94591e-20)
(0.998916 -0.0017605 1.08075e-18)
(0.998935 -0.00183609 -3.06746e-19)
(0.99896 -0.00190795 -5.16727e-19)
(0.998985 -0.00198814 -6.82907e-19)
(0.999012 -0.00209064 -1.75627e-18)
(0.999038 -0.00223146 -2.72442e-19)
(0.999066 -0.00242371 -8.84423e-19)
(0.999102 -0.0026802 -8.03515e-19)
(0.999147 -0.00300935 -6.16479e-19)
(0.999211 -0.00342002 8.32442e-19)
(0.999265 -0.00392989 -4.80756e-19)
(0.999359 -0.00455024 2.23828e-19)
(0.999369 -0.00529023 2.96972e-19)
(0.999126 -0.00601105 -2.77998e-19)
(0.998285 -0.00762003 9.045e-20)
(0.999952 0.000164025 1.91642e-20)
(0.999902 -5.80935e-05 -5.26773e-20)
(0.9998 -0.000319377 -4.36341e-20)
(0.999664 -0.000621779 -2.73109e-20)
(0.999514 -0.000935364 -7.3794e-19)
(0.999371 -0.00121627 1.89739e-19)
(0.999244 -0.00142596 -4.12191e-19)
(0.999138 -0.00154846 -6.40085e-19)
(0.999049 -0.00159924 1.25659e-18)
(0.998971 -0.00160919 -3.15764e-19)
(0.998901 -0.00161894 1.24046e-18)
(0.998837 -0.00165367 1.20722e-18)
(0.998783 -0.00172602 -1.00198e-18)
(0.99874 -0.00182898 -9.52251e-19)
(0.998712 -0.00195088 -1.4018e-18)
(0.998699 -0.00207769 -1.08662e-18)
(0.998699 -0.00220229 2.05986e-19)
(0.99871 -0.00232576 -4.04023e-19)
(0.998728 -0.00245785 1.87068e-18)
(0.998756 -0.00261135 3.42706e-19)
(0.998792 -0.00280007 -1.33129e-18)
(0.998839 -0.00303615 -4.35424e-19)
(0.9989 -0.00333053 2.27858e-19)
(0.998977 -0.00369086 3.20174e-19)
(0.999076 -0.00412161 -5.97259e-19)
(0.999171 -0.00463732 4.33596e-19)
(0.999291 -0.00523794 1.19541e-19)
(0.999364 -0.00589238 -5.80732e-19)
(0.999192 -0.00642586 1.31849e-19)
(0.998935 -0.00770516 2.40923e-20)
(0.999888 0.000144693 -2.03637e-20)
(0.999842 -0.000125389 8.04314e-20)
(0.999742 -0.000418798 -6.78724e-19)
(0.999607 -0.000737492 -2.8856e-19)
(0.999459 -0.00105119 4.73264e-19)
(0.999317 -0.00132059 1.37987e-18)
(0.999193 -0.00151442 1.44804e-18)
(0.999092 -0.00162268 9.59666e-20)
(0.999011 -0.0016643 1.56541e-19)
(0.998944 -0.00166975 1.16736e-18)
(0.998886 -0.00167772 -9.70433e-19)
(0.998834 -0.00171141 -1.43487e-18)
(0.998786 -0.00178306 4.07828e-19)
(0.998744 -0.00188728 1.55701e-18)
(0.99871 -0.00201472 3.01188e-18)
(0.998686 -0.00215399 -5.13515e-21)
(0.998671 -0.00229871 4.42142e-19)
(0.998667 -0.00244982 1.56351e-18)
(0.998675 -0.00261474 -1.57841e-18)
(0.998698 -0.00280374 1.02831e-18)
(0.998737 -0.00302692 1.27537e-18)
(0.998794 -0.00329332 7.22426e-19)
(0.998872 -0.00361035 5.3304e-19)
(0.998972 -0.00398309 -4.85718e-20)
(0.999097 -0.00441175 -1.68808e-19)
(0.999225 -0.00490638 5.32788e-19)
(0.999369 -0.0054633 2.23195e-19)
(0.999487 -0.00603103 2.99344e-19)
(0.999387 -0.00641331 1.22493e-19)
(0.999413 -0.00756442 -9.9837e-20)
(0.999817 0.000124617 3.00153e-20)
(0.999776 -0.000171281 1.39595e-19)
(0.999682 -0.000474605 3.52759e-19)
(0.999553 -0.000792252 3.42144e-19)
(0.999412 -0.00109656 1.13342e-18)
(0.999278 -0.00135387 -8.18552e-19)
(0.999164 -0.00153879 -1.0831e-18)
(0.999075 -0.00164375 6.76267e-19)
(0.999013 -0.00168629 -1.25285e-18)
(0.99897 -0.00169198 -4.40288e-19)
(0.998942 -0.00169442 -2.22714e-18)
(0.998918 -0.00171376 1.41738e-18)
(0.998897 -0.00176269 6.65994e-19)
(0.998873 -0.00183961 7.24109e-20)
(0.998849 -0.00194051 -1.70523e-18)
(0.998826 -0.00205958 2.68068e-19)
(0.998805 -0.00219396 -5.05614e-19)
(0.998791 -0.00234635 -1.85772e-18)
(0.998788 -0.00252329 -1.819e-20)
(0.9988 -0.0027333 -1.55449e-18)
(0.998832 -0.00298324 -1.43797e-18)
(0.998886 -0.00327932 -6.00265e-19)
(0.998965 -0.00362579 -4.53936e-19)
(0.999071 -0.00402578 -4.61527e-19)
(0.999202 -0.00447705 -2.31195e-19)
(0.999342 -0.00498667 -1.23941e-18)
(0.999496 -0.00555292 3.57743e-20)
(0.999633 -0.00611471 3.42636e-19)
(0.999603 -0.00645332 2.50846e-20)
(0.999844 -0.00757702 9.21149e-20)
(0.999746 0.000108254 1.12555e-19)
(0.999707 -0.000197193 -2.75828e-19)
(0.999616 -0.000496341 -4.08609e-19)
(0.99949 -0.000804804 -2.69745e-19)
(0.99935 -0.00109972 -3.37341e-19)
(0.999215 -0.00135334 -4.2619e-19)
(0.999099 -0.00154475 7.87643e-19)
(0.999013 -0.00166613 -1.74009e-18)
(0.998958 -0.00173031 -6.94172e-19)
(0.998931 -0.00175516 1.32316e-18)
(0.998923 -0.00176711 1.8612e-18)
(0.998925 -0.00178232 -7.66485e-19)
(0.998929 -0.00181388 -1.9604e-18)
(0.998927 -0.00186463 -7.49037e-19)
(0.998919 -0.00193703 4.05378e-20)
(0.998903 -0.0020321 6.68409e-20)
(0.998885 -0.00215196 2.30231e-19)
(0.998868 -0.00230227 -3.00493e-19)
(0.998859 -0.00248991 1.31411e-18)
(0.998866 -0.00272227 1.03902e-18)
(0.998894 -0.00300359 9.1563e-19)
(0.998947 -0.00333723 2.42217e-19)
(0.999028 -0.00372416 -4.98095e-19)
(0.99914 -0.0041646 -2.38391e-19)
(0.999281 -0.00465278 5.13636e-19)
(0.999436 -0.00519 7.9675e-19)
(0.999611 -0.005773 -6.8262e-19)
(0.999777 -0.00633041 -5.28817e-19)
(0.999807 -0.00661967 4.33408e-20)
(1.00037 -0.00759422 -3.99961e-20)
(0.99968 9.82819e-05 2.43038e-21)
(0.999637 -0.000205611 1.05818e-19)
(0.999544 -0.000492752 4.84855e-19)
(0.999412 -0.00078944 -9.51513e-21)
(0.99926 -0.00107914 -5.02414e-19)
(0.99911 -0.00133987 -6.02952e-20)
(0.998975 -0.00155402 -6.15394e-19)
(0.998871 -0.00171198 9.30709e-19)
(0.998803 -0.00182032 1.18137e-19)
(0.998768 -0.00188793 -1.37732e-18)
(0.998762 -0.00193325 -2.10015e-18)
(0.998772 -0.00196765 -1.05134e-18)
(0.998788 -0.00200394 1.68133e-18)
(0.998801 -0.00204862 1.31298e-18)
(0.998806 -0.00210992 -8.88874e-19)
(0.998804 -0.00219511 -1.86796e-18)
(0.998796 -0.00231099 2.55165e-19)
(0.99879 -0.00246603 1.37373e-18)
(0.998791 -0.00266746 -1.35157e-18)
(0.99881 -0.00292156 8.09449e-19)
(0.998852 -0.00322974 -7.2277e-19)
(0.998924 -0.00359211 -1.29622e-19)
(0.999028 -0.00400547 3.87635e-19)
(0.999166 -0.00446577 5.65226e-19)
(0.999337 -0.00496222 -9.16698e-20)
(0.999529 -0.00548824 -4.88037e-19)
(0.999749 -0.00603662 -5.9172e-20)
(0.999967 -0.00653097 2.90206e-20)
(1.00004 -0.00672043 -5.02322e-20)
(1.00096 -0.00747756 -9.70748e-21)
(0.999622 9.55408e-05 -2.47263e-20)
(0.999569 -0.000199707 6.23555e-20)
(0.99947 -0.000471084 -1.59902e-19)
(0.999327 -0.000755306 -7.35371e-20)
(0.999158 -0.00104291 -5.31893e-19)
(0.998983 -0.00131707 -1.5191e-19)
(0.998819 -0.00156267 8.54612e-20)
(0.998684 -0.00176776 -6.71365e-19)
(0.998586 -0.00193248 -3.62205e-19)
(0.998528 -0.00205708 2.34103e-19)
(0.998505 -0.00215216 4.91091e-19)
(0.998507 -0.00222416 1.06021e-18)
(0.998523 -0.00228475 7.67018e-20)
(0.998543 -0.00234265 -2.64436e-18)
(0.998561 -0.00241021 -5.49885e-19)
(0.998576 -0.0024992 2.3229e-19)
(0.99859 -0.00261972 1.11862e-18)
(0.998608 -0.00278203 -3.97532e-19)
(0.998638 -0.00299316 7.83682e-19)
(0.99869 -0.00325789 9.47608e-19)
(0.998769 -0.00357484 5.12874e-19)
(0.998882 -0.00394076 -2.71903e-19)
(0.99903 -0.00434855 -5.46636e-19)
(0.999217 -0.00479022 4.2537e-19)
(0.999437 -0.00525111 -3.343e-19)
(0.999681 -0.00571927 8.23159e-19)
(0.999956 -0.00618683 -2.44717e-20)
(1.00024 -0.0065827 6.90173e-20)
(1.00034 -0.00666948 -1.48715e-19)
(1.00152 -0.00726807 1.54051e-20)
(0.999569 9.93745e-05 -1.07604e-19)
(0.999505 -0.00018336 -4.50461e-20)
(0.999403 -0.000437872 -1.89918e-20)
(0.999252 -0.00070895 3.33943e-19)
(0.99907 -0.000994149 8.47606e-19)
(0.998874 -0.00128091 1.05862e-18)
(0.998684 -0.00155598 9.56617e-19)
(0.998518 -0.00180529 2.65058e-20)
(0.99839 -0.00202355 1.24251e-18)
(0.998303 -0.00220374 -3.24486e-19)
(0.998258 -0.00234991 -1.7737e-20)
(0.998245 -0.00246401 1.65814e-18)
(0.998256 -0.00255617 1.81815e-18)
(0.998279 -0.00263599 3.91792e-19)
(0.998309 -0.00271807 1.06535e-18)
(0.998345 -0.00281674 1.75379e-19)
(0.998387 -0.00294382 -6.01096e-19)
(0.99844 -0.00311014 9.50122e-19)
(0.998512 -0.00332204 3.05841e-19)
(0.998611 -0.00358277 -1.99815e-18)
(0.998741 -0.00388865 3.03618e-19)
(0.998906 -0.00423406 4.1734e-19)
(0.99911 -0.00460949 8.76792e-20)
(0.999351 -0.00500516 -6.31185e-19)
(0.999625 -0.00540571 2.77134e-19)
(0.999919 -0.00579854 -6.5118e-19)
(1.00024 -0.00617988 3.42823e-19)
(1.00057 -0.00649026 -7.33728e-20)
(1.00068 -0.00651774 -2.22115e-20)
(1.002 -0.00706801 2.60718e-21)
(0.999522 0.000107812 7.58663e-20)
(0.999449 -0.000161292 -1.03332e-19)
(0.999349 -0.000399779 2.48045e-19)
(0.999201 -0.000656808 -2.17105e-19)
(0.999017 -0.000936313 -7.94827e-19)
(0.998816 -0.00122896 -4.19445e-19)
(0.998614 -0.00152305 -1.86688e-18)
(0.998431 -0.00180309 1.02397e-18)
(0.998283 -0.00206002 -1.78288e-19)
(0.998175 -0.00228172 1.22877e-19)
(0.998112 -0.00246751 3.07998e-19)
(0.998085 -0.00261603 -2.20832e-18)
(0.99809 -0.00273587 -1.54014e-18)
(0.998115 -0.00283663 1.68206e-18)
(0.998158 -0.00293373 2.36202e-19)
(0.998214 -0.00304239 6.14288e-19)
(0.998287 -0.00317482 -1.1219e-18)
(0.998378 -0.00334154 -7.97954e-19)
(0.998494 -0.00354795 4.90551e-19)
(0.998641 -0.00379603 6.41694e-19)
(0.998823 -0.00408078 -7.20706e-19)
(0.999041 -0.0043956 -3.45052e-19)
(0.999295 -0.00473055 5.03665e-19)
(0.999585 -0.00507639 2.29075e-19)
(0.999901 -0.0054199 2.56439e-19)
(1.00023 -0.00575127 1.2117e-19)
(1.00058 -0.00607289 9.62971e-20)
(1.00095 -0.00633653 1.93488e-19)
(1.00106 -0.00635636 -2.57071e-21)
(1.00239 -0.00695218 4.82105e-21)
(0.999476 0.000118417 -2.29619e-20)
(0.999401 -0.000138005 3.29634e-19)
(0.999312 -0.000362778 2.14472e-19)
(0.999179 -0.000605139 -2.22179e-20)
(0.99901 -0.000874455 -3.83807e-20)
(0.998821 -0.00116374 5.42946e-19)
(0.998626 -0.00146264 7.62209e-19)
(0.998445 -0.00175527 -6.58988e-19)
(0.998293 -0.0020307 -7.82121e-19)
(0.998179 -0.00227404 -2.61565e-19)
(0.998106 -0.00248207 -1.06627e-19)
(0.998072 -0.00265146 1.3413e-18)
(0.998074 -0.00278979 -2.25249e-18)
(0.998102 -0.00290618 -3.6505e-19)
(0.998155 -0.00301592 -2.87528e-19)
(0.99823 -0.00313395 4.5311e-19)
(0.998329 -0.00327192 1.04887e-18)
(0.998453 -0.00343943 1.51194e-18)
(0.998607 -0.00364085 -1.85528e-18)
(0.998796 -0.00387734 1.18281e-19)
(0.99902 -0.00414338 7.97162e-19)
(0.99928 -0.00443258 5.13339e-19)
(0.999572 -0.00473592 5.51025e-23)
(0.999895 -0.00504618 1.49676e-19)
(1.00024 -0.00535341 3.11047e-19)
(1.00059 -0.00565147 1.9451e-19)
(1.00095 -0.00594817 2.44717e-19)
(1.00133 -0.00620243 -3.53342e-20)
(1.00144 -0.00624933 2.51327e-20)
(1.00271 -0.00694311 -4.78544e-21)
(0.999429 0.000128592 -3.69453e-20)
(0.999359 -0.000117541 -1.86092e-19)
(0.999289 -0.000331863 -3.17783e-19)
(0.999182 -0.00055977 3.07027e-20)
(0.999041 -0.000815019 5.03672e-19)
(0.998881 -0.00109225 1.51987e-19)
(0.998712 -0.00138254 -2.82021e-20)
(0.99855 -0.00167056 3.44129e-19)
(0.998411 -0.00194539 5.72963e-19)
(0.998303 -0.00219154 3.40327e-19)
(0.998232 -0.00240518 3.42708e-19)
(0.998198 -0.00258246 -9.08304e-20)
(0.998199 -0.00273044 7.78139e-19)
(0.998231 -0.00285769 2.88803e-19)
(0.998292 -0.00297876 6.56358e-19)
(0.998381 -0.00310756 -3.77736e-19)
(0.9985 -0.00325449 -5.06723e-20)
(0.998648 -0.00342787 -7.47032e-19)
(0.998831 -0.00363098 -2.44439e-19)
(0.999049 -0.00386438 -1.23984e-20)
(0.999303 -0.00412253 1.4405e-19)
(0.99959 -0.00439976 -3.81282e-19)
(0.999905 -0.00468853 -1.2049e-19)
(1.00025 -0.00498382 -1.24116e-19)
(1.0006 -0.00527864 -2.90824e-19)
(1.00095 -0.00556972 -1.07005e-19)
(1.00132 -0.0058682 -2.74658e-19)
(1.00169 -0.00613606 -3.91518e-20)
(1.0018 -0.00622321 1.12535e-20)
(1.00298 -0.00703049 -1.92181e-20)
(0.999379 0.000136328 -2.82825e-20)
(0.999322 -0.000102609 -1.54216e-19)
(0.999275 -0.000310153 -2.27394e-20)
(0.999201 -0.00052488 -3.62722e-19)
(0.999099 -0.000763896 2.69e-20)
(0.998977 -0.00102309 -1.26157e-19)
(0.998845 -0.00129501 1.48603e-19)
(0.998716 -0.00156584 2.7581e-19)
(0.998601 -0.00182609 -4.69637e-19)
(0.99851 -0.0020614 2.19635e-19)
(0.998449 -0.00226889 4.00227e-19)
(0.99842 -0.00244525 -3.9278e-19)
(0.998425 -0.00259758 1.08495e-18)
(0.99846 -0.00273384 -1.15044e-19)
(0.998527 -0.00286747 -1.14037e-18)
(0.998625 -0.00301087 -6.29795e-19)
(0.998756 -0.00317274 -3.05953e-19)
(0.998921 -0.0033598 -3.45046e-19)
(0.999121 -0.00357414 7.31167e-19)
(0.999359 -0.00381573 -2.91929e-20)
(0.99963 -0.00407906 -6.22306e-19)
(0.999932 -0.00435918 4.48858e-19)
(1.00026 -0.00464985 3.39233e-19)
(1.0006 -0.00494768 1.32732e-19)
(1.00096 -0.00524767 -9.60692e-20)
(1.00131 -0.00554808 -2.26685e-20)
(1.00167 -0.00586158 1.34779e-19)
(1.00204 -0.00615058 -2.22873e-22)
(1.00214 -0.00627466 1.36085e-20)
(1.00323 -0.00718616 2.20651e-20)
(0.999326 0.000140145 3.67732e-20)
(0.999286 -9.48781e-05 2.66076e-19)
(0.999265 -0.000299199 -1.55134e-19)
(0.999225 -0.000502979 2.96404e-19)
(0.999164 -0.000725707 -1.07925e-19)
(0.999086 -0.000964276 -8.8282e-19)
(0.998996 -0.00121294 1.40916e-19)
(0.998904 -0.00145994 -7.49338e-19)
(0.99882 -0.00169829 -2.0137e-19)
(0.998751 -0.00191588 -4.22293e-19)
(0.998706 -0.00211177 -9.50938e-19)
(0.998686 -0.00228388 -2.55835e-19)
(0.998697 -0.00243959 1.11909e-19)
(0.998736 -0.00258625 -2.1873e-19)
(0.998807 -0.00273592 1.57959e-18)
(0.998912 -0.00289913 2.22239e-19)
(0.999051 -0.00308261 1.30666e-19)
(0.999226 -0.00329123 2.3823e-19)
(0.999437 -0.00352574 -1.10299e-19)
(0.999685 -0.00378535 3.95147e-19)
(0.999966 -0.00406442 1.98716e-19)
(1.00027 -0.00435843 7.9653e-20)
(1.00061 -0.00466189 -3.10138e-19)
(1.00095 -0.00497237 3.39337e-20)
(1.0013 -0.00528579 4.85555e-20)
(1.00165 -0.00560093 -6.51575e-20)
(1.00199 -0.005931 -2.54432e-20)
(1.00236 -0.00623777 -9.03829e-21)
(1.00246 -0.00638673 -2.58478e-20)
(1.00346 -0.00738134 3.36437e-21)
(0.999269 0.00013948 -4.93983e-20)
(0.999249 -9.46092e-05 -9.16185e-20)
(0.999253 -0.000298825 3.84621e-19)
(0.999245 -0.000494559 -4.10782e-19)
(0.999223 -0.000702832 -1.46362e-19)
(0.999186 -0.00092152 3.8906e-19)
(0.999137 -0.00114664 -4.24395e-19)
(0.999083 -0.00136891 6.32395e-19)
(0.99903 -0.0015843 7.62377e-19)
(0.998986 -0.00178351 8.89773e-20)
(0.998958 -0.00196805 5.691e-19)
(0.998951 -0.00213727 -3.88536e-19)
(0.998968 -0.0022989 -5.63127e-19)
(0.999013 -0.00245956 -1.71373e-19)
(0.999089 -0.00262975 -1.94275e-19)
(0.999199 -0.00281788 5.99795e-19)
(0.999345 -0.00302853 -2.29787e-19)
(0.999527 -0.00326456 -4.96625e-19)
(0.999746 -0.00352525 6.61072e-20)
(1 -0.00380889 -5.32899e-19)
(1.00029 -0.00410945 1.57813e-20)
(1.0006 -0.00442245 -3.81531e-19)
(1.00093 -0.00474274 2.1853e-19)
(1.00128 -0.00506823 -9.62935e-20)
(1.00162 -0.00539511 -1.48937e-21)
(1.00196 -0.00572216 3.14612e-20)
(1.0023 -0.00606291 3.97708e-21)
(1.00265 -0.00637843 5.13509e-20)
(1.00276 -0.00653732 -1.59255e-20)
(1.00369 -0.00759026 -5.90129e-21)
(0.99921 0.00013431 3.82808e-20)
(0.99921 -0.000101386 -1.13981e-19)
(0.999234 -0.000307978 -7.39693e-21)
(0.999254 -0.0004989 6.49857e-19)
(0.999264 -0.000695983 3.88425e-19)
(0.999263 -0.00089805 -5.49983e-20)
(0.99925 -0.00110298 9.29355e-19)
(0.999229 -0.00130403 -2.91406e-19)
(0.999205 -0.0015002 -5.42952e-19)
(0.999185 -0.00168515 -1.62869e-19)
(0.999175 -0.00186273 -2.59827e-19)
(0.999181 -0.00203368 -2.30607e-19)
(0.999208 -0.00220591 3.1236e-19)
(0.99926 -0.00238511 5.22419e-19)
(0.999344 -0.00258004 -8.69135e-20)
(0.99946 -0.00279693 3.31735e-20)
(0.999613 -0.0030381 -1.11367e-19)
(0.999803 -0.00330437 2.22765e-19)
(1.00003 -0.00359347 -1.85895e-19)
(1.00029 -0.00390268 2.42153e-19)
(1.00058 -0.00422544 -4.58546e-20)
(1.0009 -0.00455707 2.04475e-20)
(1.00123 -0.00489243 -9.28311e-20)
(1.00158 -0.00522951 5.94019e-20)
(1.00192 -0.00556449 3.46982e-20)
(1.00225 -0.00589616 -2.54056e-22)
(1.00259 -0.00623848 1.64389e-20)
(1.00293 -0.00655223 -3.77694e-20)
(1.00303 -0.00670719 -3.20404e-20)
(1.00391 -0.00779564 -8.44997e-21)
(0.999149 0.00012528 -3.31515e-20)
(0.999167 -0.000113976 -8.10106e-20)
(0.999207 -0.000324855 -1.15423e-19)
(0.999247 -0.000514265 -3.42388e-19)
(0.999282 -0.000704283 -2.95996e-20)
(0.999309 -0.000894713 3.09753e-19)
(0.999324 -0.00108521 -6.2796e-19)
(0.99933 -0.00127146 1.58057e-19)
(0.999332 -0.00145523 3.4503e-19)
(0.999333 -0.00163283 2.70356e-19)
(0.99934 -0.00181014 2.37419e-19)
(0.99936 -0.00198895 6.78629e-20)
(0.9994 -0.00217707 1.36768e-20)
(0.999462 -0.00237905 -4.02348e-19)
(0.999555 -0.00260182 3.75064e-19)
(0.999682 -0.00284938 -1.53788e-19)
(0.999845 -0.00312185 -1.27468e-20)
(1.00004 -0.00341807 -1.17901e-19)
(1.00028 -0.0037343 1.14369e-19)
(1.00055 -0.0040668 -9.11696e-20)
(1.00085 -0.00440848 -7.20878e-20)
(1.00117 -0.00475439 7.73508e-20)
(1.00151 -0.00509933 -1.19768e-19)
(1.00185 -0.00544128 -3.73868e-20)
(1.0022 -0.00577653 6.14773e-21)
(1.00253 -0.00610401 1.86661e-20)
(1.00285 -0.0064385 3.27901e-20)
(1.00319 -0.00674088 -8.32164e-21)
(1.00329 -0.00688066 -1.72842e-21)
(1.00412 -0.00798555 4.01526e-20)
(0.999089 0.000113261 1.13386e-20)
(0.99912 -0.000131108 1.69511e-19)
(0.999171 -0.000347725 -2.96371e-19)
(0.999224 -0.000538803 2.89911e-19)
(0.999276 -0.000726279 -8.71885e-20)
(0.999322 -0.000910846 -6.3846e-19)
(0.999357 -0.00109387 1.82716e-19)
(0.999385 -0.00127313 -1.02805e-19)
(0.999406 -0.00145269 -1.12469e-19)
(0.999426 -0.00163102 -1.10494e-19)
(0.999451 -0.00181551 8.99453e-20)
(0.999486 -0.00200852 3.8841e-19)
(0.999539 -0.00221739 -2.10048e-19)
(0.999616 -0.00244537 2.16821e-19)
(0.999723 -0.00269751 -3.34075e-19)
(0.999863 -0.00297565 -8.94793e-20)
(1.00004 -0.00327787 1.28796e-19)
(1.00025 -0.00360122 9.1502e-20)
(1.0005 -0.00394064 -6.5734e-20)
(1.00078 -0.00429156 2.32211e-19)
(1.00109 -0.00464642 1.85142e-19)
(1.00142 -0.00500008 -4.66922e-20)
(1.00176 -0.00534738 6.67737e-20)
(1.00211 -0.00568646 2.84704e-20)
(1.00245 -0.00601385 1.00705e-20)
(1.00278 -0.00632897 -2.62062e-20)
(1.00311 -0.00664766 -1.01835e-19)
(1.00343 -0.00693121 -3.56472e-20)
(1.00353 -0.00704784 2.65067e-20)
(1.00433 -0.00815491 -2.95147e-20)
(0.99903 9.93622e-05 8.84608e-20)
(0.999069 -0.000151265 2.25498e-20)
(0.999125 -0.000374887 2.16084e-19)
(0.999186 -0.000570626 -2.67933e-19)
(0.999247 -0.000760103 1.42536e-19)
(0.999305 -0.00094481 -7.46972e-20)
(0.999354 -0.00112758 2.73031e-19)
(0.999397 -0.00130792 -7.95315e-20)
(0.999434 -0.00149159 -8.92848e-20)
(0.99947 -0.00167859 -1.10644e-19)
(0.999511 -0.00187722 -3.08677e-19)
(0.999563 -0.00208992 8.65025e-20)
(0.999633 -0.00232325 3.30666e-20)
(0.999727 -0.00257903 6.95788e-20)
(0.999851 -0.00286043 -1.63539e-20)
(1.00001 -0.00316732 1.0111e-19)
(1.0002 -0.00349597 -1.76333e-19)
(1.00043 -0.0038419 -1.68008e-19)
(1.0007 -0.00419902 -8.59578e-23)
(1.00099 -0.0045621 -1.1756e-19)
(1.00131 -0.00492335 -2.2344e-20)
(1.00165 -0.00527761 6.41063e-20)
(1.002 -0.00561994 -2.4052e-20)
(1.00235 -0.00594882 1.07909e-20)
(1.0027 -0.00626128 -1.86588e-21)
(1.00303 -0.00655743 1.16291e-20)
(1.00335 -0.00685439 1.35001e-19)
(1.00366 -0.00711394 9.65435e-20)
(1.00375 -0.00720225 -4.38639e-20)
(1.00452 -0.00830114 -3.77972e-20)
(0.998973 8.4569e-05 -6.24573e-20)
(0.999014 -0.000173321 6.17686e-20)
(0.999072 -0.000405187 -7.87299e-20)
(0.999135 -0.000608378 1.65694e-19)
(0.9992 -0.0008042 -1.90273e-19)
(0.999263 -0.000994716 -9.65272e-20)
(0.999321 -0.00118404 -3.75071e-19)
(0.999374 -0.00137293 3.61012e-19)
(0.999425 -0.00156826 4.3688e-19)
(0.999475 -0.00177091 9.30479e-20)
(0.999533 -0.00198948 7.21342e-20)
(0.999602 -0.00222607 -3.90574e-20)
(0.999691 -0.00248618 1.90108e-20)
(0.999805 -0.00277011 -1.87887e-20)
(0.999949 -0.00307929 1.35634e-19)
(1.00013 -0.00341183 4.97216e-20)
(1.00034 -0.00376249 5.34676e-20)
(1.00059 -0.00412558 1.75311e-20)
(1.00087 -0.00449426 7.64637e-20)
(1.00118 -0.00486297 4.80621e-20)
(1.00152 -0.00522388 -6.12752e-20)
(1.00187 -0.00557206 -7.33675e-21)
(1.00222 -0.00590295 8.39205e-22)
(1.00258 -0.00621562 7.61796e-21)
(1.00293 -0.00650774 1.30313e-21)
(1.00326 -0.00678031 9.70381e-21)
(1.00357 -0.00705171 -8.6956e-20)
(1.00387 -0.00728423 -5.40651e-20)
(1.00396 -0.00734148 2.03353e-19)
(1.0047 -0.00842554 3.25173e-21)
(0.998917 6.97828e-05 2.78202e-20)
(0.998955 -0.000196216 2.09705e-20)
(0.999013 -0.000437757 1.74097e-19)
(0.999073 -0.000651016 -7.96753e-20)
(0.999138 -0.000857175 -2.77658e-19)
(0.999204 -0.00105866 3.06797e-20)
(0.999266 -0.00126055 -3.62064e-19)
(0.999327 -0.00146445 7.11498e-20)
(0.999389 -0.00167771 -3.095e-19)
(0.999453 -0.00190153 -8.03564e-20)
(0.999527 -0.00214433 -4.03062e-20)
(0.999615 -0.00240746 5.81803e-20)
(0.999724 -0.00269522 -4.99722e-20)
(0.99986 -0.00300638 6.63154e-22)
(1.00003 -0.00334078 -3.99706e-20)
(1.00023 -0.00369506 -9.22719e-20)
(1.00047 -0.00406279 -1.04065e-20)
(1.00074 -0.0044374 5.08314e-20)
(1.00104 -0.00481165 -5.90166e-20)
(1.00136 -0.00517987 1.92716e-20)
(1.00171 -0.00553448 -3.66647e-20)
(1.00207 -0.00587094 2.60446e-20)
(1.00244 -0.00618529 1.00881e-20)
(1.0028 -0.00647729 -5.50209e-21)
(1.00315 -0.00674541 2.56284e-20)
(1.00347 -0.00699156 3.28663e-21)
(1.00378 -0.00723536 6.94455e-20)
(1.00407 -0.00743943 9.17463e-20)
(1.00415 -0.00746446 -1.01872e-19)
(1.00488 -0.00852936 -1.58972e-20)
(0.998863 5.56253e-05 -7.10369e-20)
(0.998894 -0.000219424 -2.40647e-19)
(0.998948 -0.000472276 -1.79517e-19)
(0.999005 -0.000698073 7.10854e-20)
(0.999067 -0.00091816 7.92713e-20)
(0.999132 -0.00113502 3.82554e-19)
(0.999197 -0.00135446 5.52014e-19)
(0.999264 -0.0015785 -5.49365e-19)
(0.999336 -0.00181452 6.99559e-20)
(0.999413 -0.0020635 -4.11807e-20)
(0.999504 -0.00233326 3.19445e-19)
(0.999611 -0.00262417 -1.04072e-19)
(0.999743 -0.0029392 -3.07933e-20)
(0.999901 -0.00327569 7.62663e-21)
(1.00009 -0.00363209 -1.26714e-19)
(1.00032 -0.00400387 4.25528e-20)
(1.00058 -0.00438372 1.81057e-20)
(1.00087 -0.00476453 3.08136e-21)
(1.00119 -0.00513893 5.49657e-21)
(1.00154 -0.00550145 -1.99448e-20)
(1.0019 -0.0058449 2.40528e-20)
(1.00227 -0.00616533 1.49198e-20)
(1.00264 -0.0064595 -2.02818e-20)
(1.003 -0.00672795 -4.71534e-20)
(1.00335 -0.00696999 -9.16753e-20)
(1.00367 -0.00718845 1.24307e-20)
(1.00398 -0.007404 -2.04068e-20)
(1.00426 -0.00757942 -8.65753e-22)
(1.00432 -0.00757232 4.73676e-20)
(1.00503 -0.00861593 3.49177e-20)
(0.998807 4.2512e-05 6.0249e-20)
(0.99883 -0.000242526 1.47773e-19)
(0.998879 -0.0005086 -1.73905e-20)
(0.998931 -0.000749272 4.17706e-20)
(0.998989 -0.000986431 -1.33303e-20)
(0.999053 -0.00122237 -2.41939e-19)
(0.99912 -0.0014633 -1.32628e-20)
(0.999193 -0.00171136 2.0957e-19)
(0.999274 -0.00197349 2.2832e-19)
(0.999365 -0.00225008 3.53966e-19)
(0.999472 -0.00254809 8.80759e-20)
(0.9996 -0.00286671 8.04276e-20)
(0.999754 -0.00320762 -6.18633e-20)
(0.999937 -0.00356683 -8.0083e-20)
(1.00015 -0.00394166 1.64713e-19)
(1.0004 -0.00432667 6.47931e-20)
(1.00069 -0.00471399 -8.78534e-20)
(1.001 -0.00509628 -4.00189e-20)
(1.00134 -0.00546628 -4.5144e-20)
(1.0017 -0.00581889 -1.2485e-20)
(1.00207 -0.00614753 7.22694e-21)
(1.00245 -0.00644893 -1.76799e-20)
(1.00283 -0.00672061 9.22269e-20)
(1.0032 -0.00696397 1.28599e-20)
(1.00355 -0.00717911 9.82313e-20)
(1.00386 -0.00736968 -4.1608e-20)
(1.00416 -0.00755728 1.28134e-19)
(1.00443 -0.00770463 1.51956e-19)
(1.00449 -0.00766609 -5.73096e-20)
(1.00517 -0.00868725 2.52746e-20)
(0.99875 3.05954e-05 9.24298e-21)
(0.998762 -0.000265565 1.00866e-19)
(0.998807 -0.000546913 1.18962e-19)
(0.998853 -0.000804663 -1.84239e-19)
(0.998908 -0.0010616 1.00888e-19)
(0.998971 -0.00131954 1.31238e-19)
(0.99904 -0.00158487 -1.74543e-19)
(0.999119 -0.00185955 1.49847e-19)
(0.999209 -0.00214982 1.27677e-20)
(0.999314 -0.00245518 -3.71534e-19)
(0.999439 -0.00278151 -1.29643e-19)
(0.999587 -0.00312684 -1.15696e-19)
(0.999764 -0.00349154 1.56867e-20)
(0.99997 -0.00387051 5.66221e-20)
(1.00021 -0.00426014 -8.59506e-20)
(1.00048 -0.00465437 -2.90781e-20)
(1.00079 -0.00504505 7.06629e-20)
(1.00112 -0.00542485 3.34836e-20)
(1.00148 -0.00578682 2.13967e-20)
(1.00185 -0.00612641 -1.19229e-20)
(1.00224 -0.00643773 2.22976e-20)
(1.00263 -0.00671826 -4.89953e-21)
(1.00301 -0.00696631 -1.72527e-19)
(1.00338 -0.0071841 9.33568e-20)
(1.00372 -0.00737247 3.94377e-20)
(1.00404 -0.0075358 6.55704e-20)
(1.00433 -0.00769639 4.10889e-20)
(1.00458 -0.00781675 -3.78076e-19)
(1.00463 -0.00774801 -8.39937e-20)
(1.0053 -0.00874674 -4.7954e-20)
(0.998688 1.98675e-05 -1.64449e-20)
(0.998692 -0.000288579 -1.49135e-19)
(0.998731 -0.000587367 -1.00697e-22)
(0.998773 -0.000864234 -6.50551e-20)
(0.998825 -0.00114322 -6.4799e-20)
(0.998888 -0.00142543 -1.63857e-19)
(0.99896 -0.00171716 -2.14657e-20)
(0.999045 -0.00202 -2.11919e-19)
(0.999146 -0.00233929 -3.21057e-19)
(0.999265 -0.00267346 2.00377e-19)
(0.999408 -0.00302725 -3.10802e-19)
(0.999576 -0.0033975 3.51224e-20)
(0.999775 -0.00378344 2.07148e-20)
(1 -0.00417901 3.10629e-20)
(1.00027 -0.00457993 -1.96682e-20)
(1.00056 -0.00497976 -4.85436e-21)
(1.00089 -0.00537031 -2.57197e-22)
(1.00124 -0.00574443 -1.85875e-20)
(1.00161 -0.00609566 -9.42861e-22)
(1.002 -0.00642008 -1.87583e-20)
(1.0024 -0.00671256 -6.81551e-21)
(1.00279 -0.00697132 -9.16866e-20)
(1.00317 -0.00719548 1.49626e-19)
(1.00354 -0.00738798 5.19915e-21)
(1.00389 -0.00755034 -3.51264e-20)
(1.0042 -0.00768753 7.80565e-20)
(1.00448 -0.00782241 -3.49272e-19)
(1.00472 -0.00791708 -1.67672e-20)
(1.00477 -0.00781944 7.97226e-20)
(1.00542 -0.00879601 2.71115e-20)
(0.998622 1.01818e-05 -3.80945e-20)
(0.998617 -0.000311906 1.43678e-21)
(0.998653 -0.000630219 7.0382e-20)
(0.998691 -0.000928057 -3.5086e-20)
(0.998741 -0.00123091 -1.07577e-20)
(0.998805 -0.00153898 -1.00824e-19)
(0.998881 -0.00185829 1.19478e-19)
(0.998974 -0.00218992 1.1703e-19)
(0.999086 -0.0025382 -1.0736e-19)
(0.999219 -0.00290039 6.13732e-20)
(0.999379 -0.0032801 4.00627e-19)
(0.999567 -0.00367306 6.9637e-20)
(0.999787 -0.00407749 -1.10025e-19)
(1.00004 -0.00448658 -3.37492e-20)
(1.00032 -0.00489559 3.11293e-20)
(1.00064 -0.00529791 4.63278e-21)
(1.00099 -0.00568548 -1.16859e-20)
(1.00135 -0.00605151 -1.86844e-20)
(1.00174 -0.0063901 -3.73202e-20)
(1.00214 -0.00669804 2.73303e-20)
(1.00254 -0.00697097 9.68317e-20)
(1.00294 -0.00720783 1.21949e-19)
(1.00333 -0.00740847 -1.5845e-21)
(1.0037 -0.00757653 -1.05517e-19)
(1.00404 -0.00771408 -1.58904e-19)
(1.00434 -0.00782654 7.42351e-21)
(1.00462 -0.0079372 -3.21436e-20)