/*--------------------------------*- C++ -*----------------------------------*\
  =========                 |
  \\      /  F ield         | OpenFOAM: The Open Source CFD Toolbox
   \\    /   O peration     | Website:  https://openfoam.org
    \\  /    A nd           | Version:  6.0
     \\/     M anipulation  |
\*---------------------------------------------------------------------------*/
FoamFile
{
    version     2.0;
    format      ascii;
    class       volScalarField;
    location    "450";
    object      nut;
}
// * * * * * * * * * * * * * * * * * * * * * * * * * * * * * * * * * * * * * //

dimensions      [0 2 -1 0 0 0 0];

internalField   nonuniform List<scalar> 
9800
(
0.140005
0.140007
0.139996
0.139987
0.139975
0.139964
0.139975
0.139995
0.140001
0.140006
0.14001
0.140014
0.140017
0.140021
0.140024
0.140029
0.140034
0.140039
0.140039
0.140039
0.140039
0.140036
0.140018
0.140017
0.140035
0.140039
0.140039
0.140038
0.140039
0.140035
0.14003
0.140025
0.140022
0.140018
0.140015
0.140011
0.140007
0.140002
0.139996
0.139982
0.139968
0.139975
0.139986
0.139995
0.140002
0.140009
0.140016
0.140024
0.140033
0.140044
0.140057
0.140072
0.140091
0.140113
0.140141
0.140175
0.140218
0.140273
0.140343
0.140436
0.140564
0.14074
0.14102
0.141396
0.142369
0.143572
0.144852
0.146291
0.146897
0.147509
0.147878
0.148142
0.148285
0.148338
0.148339
0.148337
0.148375
0.148475
0.148641
0.148855
0.149087
0.149299
0.149458
0.149541
0.149538
0.14945
0.149287
0.149063
0.148785
0.148513
0.14833
0.148246
0.148253
0.148338
0.148488
0.14869
0.148944
0.149642
0.163014
0.256735
0.140198
0.140167
0.140125
0.140095
0.140073
0.140063
0.140069
0.140075
0.140073
0.14007
0.140069
0.140069
0.140069
0.140069
0.140068
0.140061
0.140045
0.140024
0.140054
0.140072
0.140083
0.14008
0.140048
0.140046
0.140081
0.140085
0.140075
0.140059
0.140025
0.140042
0.140058
0.140066
0.140067
0.140066
0.140066
0.140067
0.140069
0.14007
0.140072
0.140068
0.14006
0.140064
0.140078
0.140098
0.140121
0.140145
0.14017
0.140197
0.140227
0.14026
0.140297
0.140339
0.140387
0.140442
0.140505
0.140579
0.140666
0.140768
0.140889
0.141034
0.14121
0.141424
0.141699
0.142026
0.142513
0.143044
0.143439
0.143744
0.143934
0.144109
0.144268
0.144408
0.144523
0.144611
0.14468
0.14474
0.144799
0.144862
0.144931
0.145002
0.145074
0.145136
0.145195
0.145288
0.145418
0.145581
0.145772
0.145983
0.146205
0.146429
0.146648
0.146854
0.147041
0.147206
0.147346
0.147461
0.147552
0.147623
0.147827
0.150922
0.140259
0.140216
0.140175
0.140148
0.140132
0.140125
0.140123
0.140119
0.140113
0.140108
0.140102
0.140093
0.140078
0.140054
0.140023
0.140017
0.140028
0.140039
0.140077
0.140107
0.140126
0.140121
0.140079
0.140076
0.14012
0.140128
0.140111
0.140082
0.140041
0.140023
0.140012
0.140025
0.140057
0.140079
0.140091
0.1401
0.140105
0.140109
0.140113
0.140115
0.140115
0.140117
0.140124
0.140138
0.140157
0.14018
0.140206
0.140235
0.140265
0.140297
0.140332
0.14037
0.140411
0.140456
0.140505
0.140559
0.140619
0.140684
0.140755
0.140832
0.140915
0.140997
0.141112
0.141251
0.141416
0.141605
0.141808
0.142033
0.142275
0.142529
0.142788
0.143043
0.143292
0.143536
0.143773
0.144006
0.144235
0.144462
0.144683
0.144897
0.145101
0.145293
0.14547
0.145628
0.145766
0.145881
0.145973
0.146042
0.146086
0.146108
0.14611
0.146093
0.146061
0.146018
0.145966
0.145911
0.145855
0.145802
0.145756
0.145737
0.140264
0.140224
0.14019
0.140167
0.14015
0.140137
0.140122
0.140104
0.140082
0.140057
0.140041
0.140031
0.140021
0.140017
0.140015
0.140022
0.140045
0.140078
0.140119
0.140154
0.140172
0.140158
0.14011
0.140104
0.140154
0.14017
0.140154
0.140121
0.140077
0.140039
0.140014
0.14
0.14
0.140013
0.140027
0.14004
0.140067
0.140091
0.140108
0.14012
0.140129
0.140135
0.140142
0.140152
0.140165
0.140182
0.140204
0.140228
0.140255
0.140285
0.140317
0.140351
0.140387
0.140425
0.140466
0.140509
0.140555
0.140604
0.140655
0.140708
0.140763
0.140817
0.140872
0.140931
0.140989
0.141049
0.141115
0.141192
0.141278
0.141372
0.141471
0.141571
0.141671
0.141768
0.141857
0.141937
0.142006
0.142063
0.142113
0.142156
0.142195
0.14223
0.142264
0.142298
0.142335
0.142375
0.142419
0.142466
0.142518
0.142572
0.142628
0.142687
0.142746
0.142807
0.142868
0.14293
0.142993
0.143056
0.143117
0.143211
0.140268
0.140235
0.140205
0.14018
0.140158
0.140136
0.140113
0.140088
0.140061
0.140032
0.140002
0.13997
0.139947
0.139953
0.139981
0.14003
0.140072
0.140118
0.140163
0.140198
0.140211
0.140188
0.140136
0.140127
0.140179
0.140204
0.140193
0.140159
0.140111
0.14006
0.139999
0.13995
0.139932
0.139947
0.139981
0.14001
0.14004
0.14007
0.140096
0.140117
0.140135
0.14015
0.140163
0.140175
0.140188
0.140203
0.14022
0.14024
0.140263
0.140289
0.140317
0.140348
0.14038
0.140414
0.14045
0.140488
0.140527
0.140568
0.14061
0.140653
0.140696
0.14074
0.140782
0.140822
0.140861
0.140896
0.140931
0.140966
0.141002
0.141043
0.141088
0.141137
0.141191
0.141247
0.141303
0.141358
0.14141
0.141459
0.141507
0.141554
0.141601
0.14165
0.141701
0.141754
0.141808
0.141863
0.141919
0.141976
0.142034
0.142092
0.14215
0.142207
0.142265
0.142323
0.142381
0.14244
0.142499
0.14256
0.142617
0.142693
0.14025
0.140223
0.140196
0.14017
0.140145
0.140118
0.140088
0.140053
0.140012
0.139962
0.139906
0.139874
0.139869
0.139898
0.139962
0.140046
0.140105
0.140159
0.140206
0.140238
0.140242
0.140211
0.140156
0.140143
0.140197
0.14023
0.140227
0.140196
0.140147
0.140086
0.140006
0.139916
0.139867
0.13986
0.139889
0.139941
0.139989
0.140032
0.140068
0.140098
0.140123
0.140144
0.140163
0.140179
0.140194
0.140209
0.140224
0.140241
0.140259
0.14028
0.140302
0.140327
0.140353
0.140381
0.140411
0.140442
0.140475
0.140509
0.140543
0.140579
0.140615
0.140652
0.140689
0.140726
0.140763
0.140799
0.140835
0.14087
0.140905
0.14094
0.140977
0.141016
0.141057
0.141102
0.141148
0.141196
0.141245
0.141295
0.141346
0.141396
0.141447
0.141499
0.141552
0.141606
0.14166
0.141715
0.14177
0.141825
0.14188
0.141935
0.141989
0.142042
0.142095
0.142148
0.1422
0.142253
0.142305
0.142357
0.142406
0.142465
0.140196
0.140168
0.140131
0.14009
0.140045
0.139994
0.13994
0.139896
0.139853
0.139813
0.139789
0.139796
0.139843
0.139924
0.140007
0.140089
0.140154
0.14021
0.140252
0.140274
0.140267
0.140226
0.140166
0.140148
0.140208
0.140251
0.140259
0.140236
0.140191
0.14013
0.140052
0.139958
0.139861
0.139797
0.13978
0.139797
0.139832
0.139873
0.139918
0.139974
0.140025
0.140069
0.140106
0.140136
0.140161
0.140182
0.140201
0.140218
0.140235
0.140253
0.140271
0.140291
0.140313
0.140336
0.140361
0.140387
0.140415
0.140444
0.140474
0.140505
0.140537
0.14057
0.140603
0.140637
0.140672
0.140708
0.140744
0.140781
0.140818
0.140855
0.140893
0.140931
0.14097
0.14101
0.141051
0.141094
0.141137
0.141182
0.141227
0.141272
0.141318
0.141364
0.14141
0.141456
0.141501
0.141547
0.141592
0.141637
0.141681
0.141725
0.141769
0.141812
0.141855
0.141897
0.141939
0.141981
0.142023
0.142065
0.142104
0.142144
0.140012
0.139983
0.139923
0.139867
0.13982
0.139776
0.139738
0.139712
0.1397
0.139708
0.139747
0.139822
0.139908
0.139997
0.140079
0.140153
0.140215
0.140264
0.140297
0.140305
0.140283
0.140229
0.140154
0.140112
0.1402
0.14026
0.140284
0.140275
0.14024
0.140186
0.140116
0.14003
0.139931
0.13983
0.139741
0.139693
0.139679
0.139688
0.139715
0.139754
0.1398
0.139848
0.139905
0.139964
0.140018
0.140066
0.140108
0.140144
0.140174
0.140199
0.140222
0.140243
0.140263
0.140284
0.140306
0.140328
0.140352
0.140377
0.140402
0.140429
0.140457
0.140486
0.140515
0.140546
0.140577
0.140609
0.140642
0.140676
0.140711
0.140746
0.140782
0.140818
0.140855
0.140892
0.140929
0.140967
0.141005
0.141044
0.141083
0.141122
0.14116
0.141199
0.141237
0.141275
0.141312
0.141348
0.141385
0.14142
0.141455
0.14149
0.141525
0.141559
0.141592
0.141626
0.141659
0.141693
0.141727
0.141761
0.141793
0.141823
0.139725
0.139686
0.139643
0.139609
0.139584
0.139573
0.139576
0.1396
0.139648
0.139724
0.139826
0.139919
0.140007
0.140089
0.140162
0.140226
0.140278
0.140315
0.140332
0.140322
0.140279
0.140201
0.140089
0.14006
0.140172
0.140253
0.140296
0.140305
0.140286
0.140245
0.140187
0.140112
0.140025
0.139925
0.139814
0.139702
0.139619
0.139568
0.139546
0.139546
0.139562
0.13959
0.139628
0.139674
0.139724
0.139776
0.139828
0.139885
0.139945
0.140003
0.140057
0.140105
0.140147
0.140184
0.140215
0.140244
0.14027
0.140295
0.14032
0.140345
0.14037
0.140396
0.140422
0.140449
0.140476
0.140505
0.140533
0.140563
0.140593
0.140623
0.140655
0.140686
0.140718
0.14075
0.140782
0.140814
0.140846
0.140878
0.14091
0.140942
0.140973
0.141004
0.141034
0.141064
0.141093
0.141122
0.14115
0.141178
0.141205
0.141232
0.141259
0.141285
0.141312
0.141339
0.141366
0.141393
0.14142
0.141448
0.141475
0.141496
0.139451
0.139424
0.139418
0.139428
0.139457
0.139508
0.139582
0.139671
0.139764
0.139862
0.139959
0.140043
0.14012
0.14019
0.140251
0.140302
0.140339
0.140358
0.140353
0.14032
0.140252
0.140144
0.140006
0.139993
0.14012
0.140224
0.14029
0.140321
0.140321
0.140298
0.140255
0.140195
0.140122
0.140036
0.139937
0.139826
0.13971
0.139596
0.139499
0.139433
0.139394
0.139378
0.13938
0.139395
0.139419
0.139452
0.139492
0.139538
0.139589
0.139644
0.139701
0.139756
0.139809
0.139865
0.139928
0.139992
0.140052
0.140107
0.140155
0.140198
0.140236
0.14027
0.140302
0.140331
0.14036
0.140387
0.140414
0.140441
0.140467
0.140494
0.14052
0.140546
0.140572
0.140597
0.140623
0.140648
0.140672
0.140697
0.14072
0.140744
0.140766
0.140788
0.14081
0.140831
0.140852
0.140872
0.140892
0.140912
0.140932
0.140951
0.140971
0.140991
0.141011
0.141031
0.141052
0.141073
0.141095
0.141118
0.141139
0.141154
0.139256
0.139255
0.139313
0.139398
0.139502
0.139611
0.139717
0.139819
0.139916
0.140006
0.14009
0.140164
0.14023
0.140287
0.140333
0.140367
0.140384
0.14038
0.14035
0.140289
0.140192
0.14006
0.13992
0.139916
0.140047
0.140174
0.140264
0.140318
0.140341
0.140338
0.140314
0.140271
0.140214
0.140143
0.14006
0.139965
0.139858
0.139741
0.139617
0.139493
0.139377
0.139286
0.139224
0.139187
0.13917
0.139166
0.139175
0.139193
0.139219
0.139252
0.139291
0.139334
0.13938
0.139429
0.139483
0.139539
0.139595
0.139649
0.139702
0.139759
0.139824
0.13989
0.139952
0.140009
0.140061
0.140107
0.140148
0.140185
0.140218
0.140248
0.140276
0.140301
0.140325
0.140348
0.140369
0.140388
0.140407
0.140425
0.140443
0.140459
0.140476
0.140491
0.140507
0.140522
0.140537
0.140552
0.140567
0.140583
0.140598
0.140614
0.140631
0.140648
0.140666
0.140684
0.140703
0.140723
0.140743
0.140763
0.140782
0.140793
0.139291
0.139354
0.139454
0.139567
0.139681
0.13979
0.139892
0.139986
0.140072
0.140151
0.140223
0.140285
0.140337
0.140379
0.140407
0.14042
0.140413
0.140383
0.140325
0.140235
0.14011
0.139954
0.139812
0.139793
0.139887
0.140052
0.140179
0.140265
0.140316
0.140337
0.140335
0.140312
0.140272
0.140217
0.140148
0.140067
0.139973
0.139866
0.139744
0.139609
0.139461
0.139308
0.139167
0.139056
0.138976
0.138921
0.138884
0.138863
0.138853
0.138853
0.138861
0.138876
0.138897
0.138923
0.138954
0.138989
0.139026
0.139063
0.139102
0.139142
0.139185
0.139228
0.139271
0.139312
0.139356
0.139405
0.139458
0.139511
0.139561
0.139607
0.139648
0.139685
0.139718
0.139748
0.139774
0.139797
0.139818
0.139837
0.139855
0.139872
0.139888
0.139904
0.13992
0.139936
0.139952
0.139969
0.139987
0.140006
0.140025
0.140044
0.140065
0.140085
0.140105
0.140125
0.140144
0.140163
0.140181
0.140198
0.140212
0.14021
0.139287
0.139371
0.139503
0.13964
0.139766
0.139878
0.139977
0.140066
0.140146
0.140216
0.140279
0.140329
0.140366
0.14039
0.140398
0.140387
0.140352
0.14029
0.140195
0.140062
0.139892
0.139715
0.139616
0.139611
0.139706
0.139898
0.140064
0.140184
0.140265
0.140312
0.140334
0.140331
0.140309
0.140271
0.140218
0.140152
0.140073
0.139981
0.139874
0.139751
0.139611
0.139454
0.139285
0.139114
0.138952
0.138812
0.138702
0.138618
0.138554
0.138505
0.13847
0.138444
0.138427
0.138417
0.138413
0.138413
0.138417
0.138424
0.138433
0.138444
0.138456
0.138469
0.138483
0.138496
0.138511
0.138525
0.13854
0.138555
0.13857
0.138584
0.138596
0.138606
0.138616
0.138625
0.138637
0.138653
0.138671
0.138692
0.138715
0.138739
0.138764
0.13879
0.138816
0.138844
0.138873
0.138903
0.138933
0.138965
0.138997
0.139029
0.139061
0.139092
0.139123
0.139152
0.139179
0.139204
0.139226
0.139245
0.139259
0.13925
0.139579
0.139682
0.139797
0.139911
0.140014
0.140107
0.140189
0.140261
0.140324
0.140376
0.140418
0.140446
0.140459
0.140457
0.140436
0.140394
0.140326
0.140228
0.140097
0.139932
0.139735
0.139527
0.139378
0.139325
0.139361
0.139466
0.13961
0.139781
0.139927
0.140034
0.140104
0.140139
0.140146
0.140128
0.14009
0.140033
0.139957
0.139861
0.139744
0.139605
0.13944
0.139262
0.139082
0.138907
0.13874
0.138585
0.138447
0.138327
0.138223
0.138135
0.13806
0.137996
0.137942
0.137895
0.137856
0.137821
0.137792
0.137768
0.137747
0.137728
0.137712
0.137697
0.137684
0.137671
0.137659
0.137648
0.137637
0.137624
0.137612
0.137599
0.137585
0.137571
0.137557
0.137543
0.137529
0.137514
0.1375
0.137486
0.137473
0.137461
0.13745
0.137441
0.137435
0.137434
0.13744
0.137452
0.137469
0.13749
0.137514
0.13754
0.137566
0.137592
0.137614
0.137634
0.137651
0.137664
0.137672
0.137676
0.13767
0.137611
0.139256
0.139268
0.13933
0.139402
0.139471
0.139533
0.139587
0.139634
0.139674
0.139708
0.139738
0.139753
0.139748
0.139714
0.139656
0.139576
0.13948
0.139373
0.139254
0.139125
0.138997
0.138888
0.138824
0.138827
0.138906
0.139071
0.139271
0.139468
0.139642
0.139786
0.139898
0.139975
0.140021
0.140042
0.140037
0.140011
0.139963
0.139895
0.139807
0.139701
0.139578
0.139441
0.139295
0.139143
0.138986
0.138826
0.138664
0.138502
0.138343
0.138194
0.138058
0.137937
0.137827
0.137728
0.137638
0.137555
0.137479
0.137408
0.137342
0.137279
0.137219
0.137161
0.137105
0.137052
0.137
0.136949
0.1369
0.136852
0.136804
0.136757
0.136711
0.136665
0.13662
0.136575
0.136531
0.136488
0.136446
0.136405
0.136364
0.136325
0.136285
0.136246
0.136207
0.136167
0.136129
0.13609
0.136052
0.136015
0.135978
0.135945
0.13592
0.135907
0.135901
0.135899
0.135899
0.135899
0.135899
0.135895
0.135884
0.135813
0.1395
0.139498
0.139511
0.13953
0.139548
0.139563
0.139572
0.139575
0.13957
0.139557
0.139535
0.139501
0.139451
0.139384
0.139301
0.139205
0.139097
0.138979
0.138854
0.138724
0.138591
0.138457
0.138324
0.1382
0.13812
0.138124
0.138181
0.138265
0.13836
0.138457
0.138547
0.138626
0.138687
0.138732
0.13876
0.138771
0.138766
0.138746
0.138711
0.138662
0.138601
0.138529
0.138447
0.138356
0.138257
0.138151
0.138039
0.137922
0.137802
0.13768
0.137558
0.137437
0.137318
0.137201
0.137086
0.136973
0.136863
0.136754
0.136649
0.136546
0.136445
0.136347
0.136252
0.13616
0.136071
0.135986
0.135903
0.135824
0.135748
0.135675
0.135604
0.135536
0.13547
0.135407
0.135344
0.135283
0.135224
0.135165
0.135107
0.135049
0.134992
0.134934
0.134875
0.134816
0.134755
0.134693
0.13463
0.134565
0.134499
0.134431
0.134361
0.134291
0.13422
0.134146
0.134069
0.133991
0.133909
0.133825
0.133738
0.133654
0.138313
0.13839
0.138463
0.138483
0.138468
0.13844
0.138406
0.138371
0.13833
0.138273
0.138191
0.138119
0.138048
0.137978
0.13791
0.137846
0.137792
0.137749
0.137718
0.137699
0.137691
0.137691
0.137697
0.137713
0.13774
0.137782
0.137838
0.137905
0.137978
0.138055
0.138132
0.138203
0.138269
0.138326
0.138375
0.138414
0.138443
0.13846
0.138467
0.138464
0.13845
0.138427
0.138394
0.138352
0.138301
0.138242
0.138176
0.138102
0.138021
0.137933
0.137839
0.137738
0.137632
0.13752
0.137404
0.137282
0.137156
0.137026
0.136891
0.136754
0.136616
0.136477
0.136335
0.136187
0.136031
0.135869
0.135702
0.135533
0.135367
0.135208
0.135056
0.134911
0.134772
0.13464
0.134512
0.134388
0.134268
0.13415
0.134034
0.133918
0.133805
0.133693
0.13358
0.133468
0.133355
0.133242
0.133129
0.133015
0.132901
0.132788
0.132676
0.132564
0.132452
0.132339
0.132224
0.132108
0.13199
0.131872
0.131753
0.13164
0.138268
0.13825
0.138221
0.138183
0.138139
0.138093
0.138047
0.138002
0.137957
0.137913
0.137869
0.137828
0.137788
0.137748
0.13771
0.137675
0.137642
0.137613
0.137588
0.137567
0.137548
0.137532
0.137517
0.137502
0.137487
0.13747
0.137451
0.13743
0.137407
0.13738
0.137353
0.13733
0.137313
0.137301
0.137291
0.137281
0.137267
0.137249
0.137228
0.137203
0.137176
0.137143
0.137104
0.137059
0.137009
0.136955
0.136896
0.136834
0.136767
0.136694
0.136617
0.136535
0.136449
0.136359
0.136265
0.136168
0.136068
0.135965
0.135858
0.135749
0.135636
0.135522
0.135408
0.135295
0.135184
0.135069
0.134953
0.134837
0.134723
0.134611
0.134499
0.134389
0.134283
0.134177
0.134073
0.133969
0.133868
0.13377
0.133672
0.133575
0.13348
0.133385
0.133288
0.133191
0.133093
0.132995
0.132895
0.132795
0.132694
0.132592
0.132489
0.132386
0.13228
0.132173
0.132063
0.131946
0.131814
0.131664
0.13149
0.131316
0.140108
0.140396
0.140624
0.140792
0.140911
0.14099
0.141038
0.141059
0.141054
0.141023
0.141001
0.140971
0.140936
0.1409
0.140862
0.140825
0.140788
0.140751
0.140716
0.140682
0.140648
0.140614
0.140579
0.140544
0.140508
0.140471
0.140431
0.14039
0.140344
0.140293
0.140237
0.140208
0.140167
0.140125
0.140083
0.140039
0.139993
0.139946
0.139897
0.139845
0.13979
0.139733
0.139674
0.139612
0.139549
0.139481
0.13941
0.139335
0.139259
0.139177
0.13909
0.138999
0.138903
0.138803
0.138698
0.138589
0.138478
0.138363
0.138248
0.138132
0.138012
0.137893
0.137786
0.137662
0.137534
0.137398
0.137255
0.137106
0.136949
0.136782
0.136607
0.136417
0.136213
0.135994
0.135763
0.135512
0.135251
0.134974
0.134686
0.134393
0.1341
0.133809
0.13352
0.133233
0.132947
0.132663
0.132379
0.132096
0.131814
0.13153
0.131246
0.130961
0.130672
0.130381
0.130087
0.129791
0.129496
0.129207
0.128942
0.128737
0.126877
0.125802
0.125327
0.125165
0.125156
0.125195
0.125132
0.124902
0.124517
0.12406
0.124272
0.123635
0.122935
0.12229
0.121687
0.121116
0.120568
0.120038
0.119524
0.119022
0.118534
0.118061
0.117606
0.11717
0.116757
0.116365
0.115995
0.115646
0.115313
0.115003
0.114828
0.115284
0.114984
0.114682
0.114373
0.114055
0.11373
0.113398
0.113058
0.112713
0.112363
0.112009
0.111651
0.11129
0.110926
0.110559
0.110189
0.109817
0.109442
0.109066
0.108687
0.108306
0.107923
0.107538
0.107153
0.106769
0.106387
0.106007
0.105629
0.105253
0.104879
0.104693
0.104876
0.104615
0.104333
0.104038
0.103732
0.103416
0.10309
0.102755
0.102411
0.102059
0.101699
0.101332
0.100958
0.100577
0.10019
0.0997974
0.0993994
0.0989966
0.0985897
0.098179
0.0977647
0.0973473
0.0969268
0.0965034
0.0960772
0.0956483
0.0952173
0.0947852
0.0943535
0.0939243
0.0935009
0.0930883
0.0926946
0.0923322
0.0920211
0.0917928
0.0916981
0.0918228
0.375477
0.391134
0.405875
0.419757
0.432875
0.44531
0.457128
0.468385
0.47913
0.489406
0.499249
0.508692
0.517764
0.52649
0.534893
0.542993
0.550827
0.55837
0.565659
0.572715
0.579551
0.58618
0.592611
0.598857
0.604925
0.610825
0.616567
0.622157
0.627605
0.632917
0.638101
0.643164
0.648039
0.652715
0.657449
0.662092
0.666648
0.671121
0.675519
0.679847
0.684111
0.688317
0.69247
0.696577
0.700644
0.704677
0.708682
0.71247
0.716157
0.720143
0.724128
0.728117
0.732113
0.736124
0.740155
0.744211
0.748299
0.752423
0.75659
0.760388
0.764277
0.768723
0.773229
0.777793
0.782417
0.787103
0.791853
0.79553
0.801122
0.806022
0.15377
0.154414
0.155152
0.155963
0.156839
0.157774
0.158762
0.159801
0.160888
0.162023
0.163203
0.164428
0.165696
0.167006
0.168358
0.169751
0.171189
0.172659
0.174167
0.175714
0.177299
0.178923
0.180584
0.182281
0.184014
0.185783
0.187586
0.189424
0.191295
0.193201
0.195141
0.197114
0.199089
0.20106
0.203139
0.205251
0.207394
0.209565
0.211765
0.213992
0.216246
0.218527
0.220835
0.223171
0.225535
0.227929
0.230355
0.232717
0.235087
0.237677
0.240314
0.242995
0.245725
0.24851
0.251357
0.254276
0.257278
0.260377
0.263588
0.26669
0.270018
0.273866
0.277912
0.282171
0.286676
0.291458
0.296552
0.3013
0.30782
0.314159
0.1457
0.145706
0.145721
0.14574
0.145759
0.145776
0.14579
0.145801
0.145808
0.145814
0.145819
0.145824
0.14583
0.145837
0.145846
0.145857
0.145871
0.145887
0.145905
0.145925
0.145947
0.145972
0.145998
0.146026
0.146055
0.146086
0.146117
0.146148
0.146178
0.146208
0.146234
0.146258
0.146276
0.146287
0.146305
0.146324
0.146343
0.146363
0.146383
0.146405
0.146428
0.146454
0.146481
0.146511
0.146544
0.14658
0.14662
0.146646
0.146669
0.146725
0.14679
0.146862
0.146941
0.147029
0.147125
0.147232
0.14735
0.14748
0.147626
0.147736
0.147876
0.148113
0.148388
0.148703
0.149067
0.149494
0.149999
0.150421
0.151321
0.15225
0.143076
0.143035
0.142994
0.142956
0.142922
0.142891
0.142863
0.142835
0.142808
0.142779
0.14275
0.14272
0.14269
0.14266
0.142631
0.142602
0.142574
0.142547
0.14252
0.142495
0.14247
0.142446
0.142422
0.142399
0.142376
0.142354
0.142333
0.142312
0.142291
0.14227
0.14225
0.14223
0.142209
0.142188
0.142167
0.142146
0.142124
0.142101
0.142077
0.142052
0.142026
0.141999
0.141971
0.141943
0.141913
0.141882
0.14185
0.141815
0.141779
0.141742
0.141705
0.141668
0.141629
0.14159
0.141551
0.14151
0.141469
0.141427
0.141384
0.141335
0.141285
0.141239
0.141193
0.141149
0.141107
0.141068
0.141032
0.140988
0.140975
0.140968
0.14262
0.142591
0.142559
0.142526
0.142493
0.14246
0.142427
0.142396
0.142366
0.142336
0.142305
0.142274
0.142243
0.142212
0.142182
0.142152
0.142124
0.142097
0.14207
0.142043
0.142017
0.14199
0.141964
0.141938
0.141913
0.141887
0.141862
0.141837
0.141812
0.141788
0.141764
0.14174
0.141717
0.141694
0.141671
0.141648
0.141626
0.141604
0.141583
0.141562
0.141541
0.14152
0.1415
0.141481
0.141462
0.141443
0.141425
0.141408
0.14139
0.141372
0.141354
0.141337
0.141319
0.141301
0.141284
0.141266
0.141248
0.141231
0.141214
0.141197
0.14118
0.141162
0.141145
0.141128
0.141112
0.141099
0.141087
0.141079
0.141075
0.141076
0.142419
0.142398
0.142374
0.142348
0.14232
0.142291
0.142261
0.142231
0.142203
0.142174
0.142145
0.142116
0.142087
0.142057
0.142027
0.141998
0.14197
0.141944
0.141918
0.141892
0.141866
0.141841
0.141815
0.141789
0.141763
0.141738
0.141713
0.141687
0.141662
0.141637
0.141613
0.141589
0.141565
0.141542
0.141518
0.141495
0.141472
0.14145
0.141427
0.141405
0.141384
0.141363
0.141343
0.141323
0.141303
0.141285
0.141267
0.14125
0.141232
0.141215
0.141198
0.141181
0.141164
0.141148
0.141131
0.141115
0.141099
0.141083
0.141068
0.141054
0.141038
0.141023
0.141008
0.140993
0.14098
0.140968
0.14096
0.140953
0.140951
0.140954
0.142114
0.1421
0.142082
0.142062
0.14204
0.142015
0.141989
0.141962
0.141936
0.14191
0.141885
0.141859
0.141832
0.141805
0.141778
0.141751
0.141724
0.141698
0.141674
0.14165
0.141627
0.141603
0.14158
0.141556
0.141532
0.141508
0.141484
0.141459
0.141435
0.141411
0.141388
0.141364
0.141341
0.141317
0.141294
0.14127
0.141247
0.141223
0.1412
0.141177
0.141154
0.141132
0.14111
0.141089
0.141069
0.14105
0.141032
0.141015
0.140999
0.140983
0.140967
0.140952
0.140937
0.140922
0.140907
0.140893
0.140879
0.140865
0.140852
0.140838
0.140825
0.14081
0.140796
0.140782
0.140768
0.140757
0.140748
0.14074
0.140737
0.140739
0.141802
0.141791
0.141778
0.141762
0.141743
0.141721
0.141699
0.141675
0.141652
0.14163
0.141608
0.141584
0.14156
0.141535
0.14151
0.141484
0.141458
0.141431
0.141404
0.141378
0.141352
0.141327
0.141303
0.141279
0.141256
0.141233
0.141211
0.141189
0.141167
0.141146
0.141125
0.141104
0.141084
0.141064
0.141045
0.141025
0.141006
0.140986
0.140967
0.140948
0.140929
0.14091
0.140891
0.140872
0.140853
0.140834
0.140815
0.140795
0.140775
0.140754
0.140733
0.140712
0.14069
0.140669
0.140647
0.140626
0.140606
0.140586
0.140567
0.140549
0.14053
0.140512
0.140494
0.140478
0.140463
0.140451
0.140443
0.140437
0.140434
0.140436
0.141482
0.141475
0.141465
0.141452
0.141436
0.141418
0.141398
0.141377
0.141357
0.141338
0.141319
0.141299
0.141278
0.141256
0.141234
0.141211
0.141188
0.141165
0.141142
0.14112
0.141097
0.141075
0.141054
0.141033
0.141013
0.140994
0.140976
0.140959
0.140942
0.140926
0.14091
0.140894
0.140878
0.140863
0.140848
0.140834
0.14082
0.140807
0.140795
0.140782
0.140769
0.140755
0.140741
0.140726
0.140711
0.140695
0.140679
0.140663
0.140646
0.140628
0.14061
0.140592
0.140573
0.140554
0.140534
0.140514
0.140494
0.140474
0.140454
0.140434
0.140413
0.140392
0.140371
0.140351
0.140331
0.140313
0.140298
0.140285
0.140279
0.140278
0.141142
0.141137
0.141128
0.141116
0.141101
0.141084
0.141065
0.141046
0.14103
0.141014
0.140998
0.140981
0.140963
0.140945
0.140926
0.140908
0.140889
0.140871
0.140853
0.140835
0.140818
0.140802
0.140786
0.14077
0.140755
0.14074
0.140726
0.140712
0.140697
0.140683
0.140669
0.140655
0.140642
0.140628
0.140615
0.140601
0.140588
0.140575
0.140561
0.140548
0.140534
0.140521
0.140507
0.140493
0.140478
0.140464
0.140449
0.140435
0.14042
0.140404
0.140388
0.140372
0.140356
0.140339
0.140322
0.140304
0.140287
0.14027
0.140253
0.140237
0.140219
0.140201
0.140182
0.140164
0.140145
0.140128
0.140113
0.140098
0.140089
0.140087
0.140774
0.140767
0.140757
0.140743
0.140726
0.140707
0.140686
0.140668
0.140653
0.140638
0.140622
0.140606
0.14059
0.140573
0.140555
0.140538
0.14052
0.140502
0.140485
0.140468
0.140452
0.140436
0.14042
0.140405
0.14039
0.140375
0.14036
0.140345
0.140331
0.140316
0.140302
0.140287
0.140273
0.140259
0.140245
0.14023
0.140216
0.140202
0.140187
0.140173
0.140158
0.140143
0.140128
0.140113
0.140098
0.140082
0.140067
0.140051
0.140036
0.140019
0.140003
0.139986
0.139968
0.139951
0.139933
0.139915
0.139897
0.139879
0.139862
0.139845
0.139827
0.139809
0.13979
0.139771
0.139752
0.139734
0.139719
0.139702
0.139691
0.139688
0.140172
0.140158
0.140141
0.14012
0.140097
0.140074
0.140052
0.140034
0.140019
0.140004
0.139988
0.139972
0.139956
0.139939
0.139922
0.139905
0.139887
0.13987
0.139852
0.139835
0.139818
0.139801
0.139785
0.139768
0.139752
0.139736
0.13972
0.139704
0.139688
0.139672
0.139657
0.139641
0.139626
0.13961
0.139595
0.13958
0.139564
0.139549
0.139534
0.139518
0.139503
0.139487
0.139471
0.139455
0.139439
0.139423
0.139408
0.139392
0.139376
0.13936
0.139343
0.139327
0.13931
0.139293
0.139275
0.139258
0.13924
0.139223
0.139207
0.139191
0.139174
0.139156
0.139139
0.139121
0.139103
0.139086
0.139071
0.139054
0.139041
0.139036
0.139186
0.139165
0.139141
0.139115
0.13909
0.139067
0.139047
0.13903
0.139017
0.139003
0.138989
0.138974
0.138959
0.138943
0.138926
0.13891
0.138893
0.138877
0.13886
0.138844
0.138828
0.138812
0.138797
0.138782
0.138768
0.138754
0.138739
0.138726
0.138712
0.138698
0.138685
0.138671
0.138658
0.138645
0.138632
0.13862
0.138607
0.138595
0.138582
0.13857
0.138558
0.138545
0.138533
0.13852
0.138508
0.138495
0.138483
0.138471
0.138458
0.138446
0.138433
0.138421
0.138408
0.138395
0.138382
0.138369
0.138356
0.138343
0.138331
0.138319
0.138306
0.138293
0.13828
0.138267
0.138253
0.13824
0.138228
0.138213
0.138201
0.138197
0.137532
0.137514
0.137497
0.137481
0.137468
0.137458
0.137451
0.137447
0.137444
0.13744
0.137435
0.137429
0.137421
0.137412
0.137402
0.137392
0.137382
0.137372
0.137362
0.137352
0.137343
0.137334
0.137326
0.137318
0.137311
0.137304
0.137297
0.137291
0.137285
0.137279
0.137272
0.137266
0.13726
0.137254
0.137248
0.137243
0.137237
0.137232
0.137227
0.137222
0.137217
0.137212
0.137206
0.137201
0.137195
0.137189
0.137183
0.137176
0.137169
0.137162
0.137156
0.13715
0.137144
0.137137
0.137131
0.137124
0.137117
0.13711
0.137103
0.137095
0.137087
0.137081
0.137074
0.137067
0.13706
0.137051
0.137042
0.137028
0.137016
0.137007
0.13573
0.135718
0.135709
0.135702
0.135699
0.135697
0.135697
0.135698
0.1357
0.1357
0.1357
0.135697
0.13569
0.135681
0.135669
0.135655
0.13564
0.135625
0.13561
0.135597
0.135584
0.135572
0.135562
0.135552
0.135543
0.135535
0.135527
0.13552
0.135514
0.135508
0.135502
0.135497
0.13549
0.135483
0.135477
0.135472
0.135467
0.135464
0.135461
0.13546
0.13546
0.13546
0.135461
0.135461
0.13546
0.135457
0.135453
0.135447
0.135439
0.135433
0.135429
0.135426
0.135424
0.135422
0.135421
0.135419
0.135417
0.135413
0.135408
0.1354
0.135392
0.135388
0.135386
0.135384
0.135381
0.135375
0.135368
0.135354
0.135346
0.135337
0.133579
0.133574
0.133572
0.13357
0.133569
0.133568
0.133567
0.133566
0.133565
0.133564
0.133562
0.133559
0.133557
0.133554
0.13355
0.133547
0.133543
0.133539
0.133535
0.133531
0.133527
0.133523
0.133519
0.133516
0.133512
0.133509
0.133506
0.133503
0.1335
0.133497
0.133494
0.133491
0.133487
0.133483
0.133479
0.133475
0.133471
0.133468
0.133465
0.133462
0.13346
0.133458
0.133456
0.133454
0.133453
0.133451
0.133448
0.133444
0.133439
0.133435
0.133432
0.13343
0.133428
0.133427
0.133426
0.133426
0.133426
0.133426
0.133425
0.13342
0.133415
0.133414
0.133413
0.133415
0.133416
0.133417
0.133417
0.133406
0.133402
0.133392
0.13156
0.131541
0.131526
0.13151
0.131496
0.131481
0.131467
0.131453
0.13144
0.131426
0.131413
0.1314
0.131387
0.131373
0.13136
0.131348
0.131335
0.131322
0.131309
0.131296
0.131283
0.13127
0.131257
0.131244
0.131232
0.13122
0.131208
0.131197
0.131186
0.131175
0.131164
0.131153
0.131141
0.131128
0.131115
0.131102
0.13109
0.131078
0.131067
0.131056
0.131046
0.131037
0.131028
0.13102
0.131013
0.131005
0.130997
0.130986
0.130973
0.130962
0.130952
0.130943
0.130936
0.13093
0.130925
0.130921
0.130918
0.130915
0.13091
0.130901
0.130889
0.130882
0.130878
0.130876
0.130875
0.130874
0.13087
0.130851
0.130841
0.130823
0.131149
0.131085
0.131022
0.130959
0.130896
0.130832
0.130769
0.130706
0.130643
0.130579
0.130516
0.130453
0.13039
0.130327
0.130264
0.130201
0.130138
0.130075
0.130012
0.129949
0.129886
0.129823
0.129761
0.129699
0.129638
0.129577
0.129516
0.129457
0.129398
0.129339
0.129281
0.129224
0.129165
0.129104
0.129042
0.128981
0.12892
0.128861
0.128802
0.128744
0.128687
0.128632
0.128577
0.128524
0.128472
0.128421
0.128371
0.128317
0.128257
0.128197
0.12814
0.128085
0.128032
0.127982
0.127935
0.12789
0.127847
0.127806
0.127765
0.127715
0.127658
0.127606
0.12756
0.127519
0.127483
0.127451
0.12742
0.127361
0.127322
0.127282
0.127623
0.127447
0.12733
0.127216
0.127099
0.126981
0.12686
0.126737
0.126612
0.126485
0.126357
0.126228
0.126097
0.125965
0.125832
0.125699
0.125567
0.125433
0.125297
0.125161
0.125025
0.124889
0.124753
0.124617
0.124481
0.124345
0.124209
0.124074
0.123941
0.123809
0.123678
0.123549
0.123414
0.123267
0.123126