/*--------------------------------*- C++ -*----------------------------------*\
  =========                 |
  \\      /  F ield         | OpenFOAM: The Open Source CFD Toolbox
   \\    /   O peration     | Website:  https://openfoam.org
    \\  /    A nd           | Version:  6.0
     \\/     M anipulation  |
\*---------------------------------------------------------------------------*/
FoamFile
{
    version     2.0;
    format      ascii;
    class       volScalarField;
    location    "450";
    object      p;
}
// * * * * * * * * * * * * * * * * * * * * * * * * * * * * * * * * * * * * * //

dimensions      [0 2 -2 0 0 0 0];

internalField   nonuniform List<scalar> 
9800
(
143.425
141.332
139.862
138.766
137.875
137.096
136.37
135.664
134.962
134.253
133.511
132.739
131.939
131.109
130.251
129.366
128.457
127.533
126.604
125.694
124.837
124.095
123.59
123.598
124.122
124.893
125.781
126.723
127.684
128.641
129.58
130.488
131.365
132.208
133.015
133.784
134.515
135.204
135.853
136.46
137.024
137.543
138.017
138.442
138.818
139.14
139.406
139.613
139.755
139.829
139.827
139.746
139.578
139.318
138.962
138.513
137.975
137.376
136.757
136.226
135.938
136.212
137.57
140.779
147.461
157.969
176.176
186.279
201.701
207.69
212.162
217.659
222.957
227.36
231.295
235.242
239.227
243.059
246.618
249.921
253.044
256.055
258.991
261.868
264.686
267.444
270.138
272.762
275.307
277.767
280.14
282.428
284.639
286.781
288.864
290.895
292.878
294.818
296.649
298.501
223.025
223.674
224.067
224.37
224.634
224.887
225.133
225.367
225.584
225.786
225.967
226.119
226.241
226.334
226.399
226.442
226.467
226.483
226.5
226.532
226.59
226.665
226.708
226.727
226.726
226.697
226.686
226.699
226.725
226.75
226.762
226.754
226.711
226.631
226.508
226.341
226.124
225.858
225.537
225.163
224.73
224.238
223.682
223.062
222.372
221.61
220.77
219.85
218.841
217.74
216.539
215.232
213.808
212.262
210.578
208.748
206.752
204.574
202.18
199.534
196.582
193.241
189.448
185.049
180.259
175.118
173.396
177.612
186.158
196.815
205.374
211.762
217.336
222.73
227.885
232.63
236.936
240.858
244.46
247.801
250.937
253.909
256.748
259.47
262.086
264.605
267.029
269.354
271.579
273.699
275.715
277.63
279.444
281.16
282.771
284.27
285.64
286.861
287.873
288.575
142.093
144.27
146.107
147.695
149.112
150.419
151.662
152.872
154.066
155.258
156.477
157.733
159.017
160.33
161.668
163.029
164.401
165.77
167.111
168.387
169.544
170.505
171.117
171.161
170.627
169.728
168.619
167.385
166.077
164.736
163.383
162.044
160.728
159.435
158.167
156.927
155.716
154.535
153.383
152.262
151.17
150.11
149.08
148.085
147.123
146.201
145.319
144.484
143.7
142.976
142.322
141.751
141.276
140.921
140.708
140.672
140.854
141.306
142.102
143.326
145.107
147.586
150.975
155.476
161.389
168.798
177.93
187.487
196.333
203.813
209.984
215.416
220.541
225.346
229.702
233.609
237.185
240.535
243.722
246.774
249.701
252.506
255.194
257.772
260.25
262.63
264.91
267.082
269.144
271.094
272.936
274.67
276.295
277.807
279.197
280.453
281.56
282.494
283.242
283.723
154.742
153.13
151.897
150.922
150.128
149.465
148.896
148.403
147.971
147.59
147.251
146.952
146.691
146.469
146.28
146.122
145.989
145.875
145.774
145.678
145.586
145.512
145.489
145.52
145.602
145.731
145.879
146.03
146.185
146.353
146.537
146.746
146.984
147.256
147.564
147.912
148.301
148.733
149.21
149.734
150.307
150.931
151.608
152.344
153.14
154.002
154.935
155.946
157.042
158.231
159.523
160.93
162.463
164.138
165.969
167.972
170.166
172.565
175.186
178.034
181.118
184.416
187.911
191.536
195.236
198.902
202.472
205.92
209.368
212.941
216.683
220.477
224.187
227.718
231.063
234.251
237.332
240.329
243.246
246.063
248.764
251.344
253.809
256.161
258.406
260.539
262.558
264.46
266.249
267.928
269.504
270.976
272.345
273.602
274.742
275.757
276.638
277.372
277.964
278.35
177.739
177.029
176.286
175.547
174.829
174.139
173.476
172.841
172.232
171.645
171.06
170.473
169.889
169.307
168.725
168.146
167.572
167.009
166.469
165.968
165.528
165.181
164.985
165.013
165.268
165.682
166.195
166.77
167.385
168.023
168.672
169.317
169.955
170.589
171.219
171.844
172.465
173.085
173.703
174.323
174.946
175.575
176.213
176.862
177.526
178.208
178.912
179.641
180.4
181.194
182.027
182.904
183.832
184.816
185.862
186.975
188.165
189.434
190.797
192.254
193.824
195.511
197.343
199.333
201.527
203.954
206.658
209.642
212.872
216.236
219.615
222.904
226.077
229.131
232.092
234.965
237.753
240.449
243.049
245.548
247.946
250.244
252.444
254.542
256.537
258.425
260.209
261.889
263.475
264.968
266.374
267.689
268.911
270.036
271.058
271.975
272.784
273.479
274.073
274.505
182.555
182.294
182.047
181.816
181.6
181.401
181.221
181.061
180.924
180.812
180.712
180.626
180.558
180.507
180.47
180.447
180.439
180.445
180.466
180.502
180.552
180.609
180.663
180.713
180.758
180.798
180.843
180.899
180.968
181.048
181.139
181.237
181.341
181.455
181.582
181.722
181.876
182.048
182.239
182.451
182.689
182.955
183.253
183.586
183.959
184.376
184.84
185.358
185.935
186.575
187.286
188.073
188.945
189.906
190.967
192.133
193.416
194.821
196.359
198.035
199.861
201.834
203.963
206.235
208.651
211.183
213.809
216.479
219.158
221.803
224.405
226.954
229.463
231.927
234.348
236.714
239.02
241.258
243.429
245.529
247.56
249.513
251.387
253.174
254.875
256.488
258.022
259.476
260.856
262.159
263.388
264.536
265.604
266.587
267.484
268.292
269.012
269.637
270.182
270.588
189.14
188.391
187.726
187.138
186.621
186.169
185.777
185.442
185.163
184.936
184.75
184.604
184.501
184.438
184.413
184.423
184.464
184.533
184.623
184.728
184.841
184.951
185.045
185.106
185.133
185.139
185.139
185.142
185.157
185.189
185.245
185.324
185.431
185.57
185.745
185.957
186.206
186.496
186.827
187.201
187.619
188.084
188.596
189.159
189.773
190.442
191.166
191.95
192.794
193.701
194.675
195.716
196.828
198.011
199.269
200.601
202.01
203.494
205.055
206.687
208.392
210.159
211.986
213.859
215.779
217.731
219.713
221.713
223.733
225.761
227.803
229.844
231.881
233.899
235.894
237.852
239.775
241.652
243.485
245.263
246.987
248.648
250.245
251.776
253.245
254.65
255.998
257.285
258.513
259.677
260.778
261.812
262.78
263.678
264.508
265.268
265.96
266.579
267.141
267.59
197.024
196.297
195.607
194.959
194.354
193.792
193.273
192.798
192.369
191.985
191.632
191.311
191.026
190.776
190.56
190.377
190.225
190.105
190.014
189.952
189.92
189.918
189.95
190.015
190.113
190.241
190.399
190.583
190.793
191.029
191.291
191.575
191.882
192.216
192.579
192.97
193.391
193.841
194.323
194.836
195.382
195.96
196.573
197.221
197.906
198.627
199.388
200.188
201.03
201.914
202.842
203.815
204.834
205.899
207.014
208.175
209.388
210.647
211.958
213.314
214.72
216.168
217.66
219.187
220.754
222.353
223.985
225.64
227.317
229.005
230.701
232.392
234.079
235.747
237.4
239.027
240.629
242.195
243.728
245.216
246.664
248.065
249.423
250.735
252.005
253.229
254.409
255.541
256.624
257.656
258.636
259.562
260.435
261.253
262.016
262.723
263.377
263.973
264.526
264.983
203.609
202.959
202.348
201.775
201.239
200.742
200.281
199.857
199.473
199.128
198.806
198.511
198.245
198.01
197.804
197.627
197.478
197.359
197.269
197.208
197.178
197.18
197.216
197.288
197.396
197.535
197.704
197.899
198.12
198.366
198.636
198.923
199.228
199.555
199.907
200.281
200.68
201.104
201.554
202.029
202.534
203.065
203.628
204.22
204.845
205.502
206.195
206.921
207.685
208.485
209.324
210.201
211.118
212.074
213.071
214.107
215.184
216.297
217.451
218.639
219.863
221.117
222.4
223.705
225.036
226.385
227.753
229.131
230.52
231.911
233.305
234.694
236.079
237.452
238.813
240.155
241.479
242.776
244.05
245.294
246.512
247.699
248.859
249.987
251.086
252.149
253.179
254.171
255.125
256.039
256.914
257.746
258.538
259.287
259.994
260.659
261.282
261.861
262.41
262.877
209.091
208.508
207.959
207.443
206.964
206.52
206.112
205.74
205.409
205.115
204.846
204.603
204.392
204.211
204.059
203.937
203.843
203.777
203.738
203.726
203.739
203.777
203.838
203.921
204.024
204.148
204.293
204.458
204.647
204.857
205.091
205.343
205.613
205.907
206.228
206.573
206.944
207.342
207.767
208.218
208.699
209.207
209.746
210.313
210.911
211.538
212.197
212.885
213.606
214.356
215.138
215.949
216.792
217.662
218.564
219.491
220.447
221.427
222.435
223.462
224.515
225.583
226.671
227.769
228.884
230.01
231.148
232.292
233.445
234.598
235.754
236.905
238.053
239.192
240.322
241.439
242.543
243.631
244.705
245.759
246.798
247.817
248.816
249.791
250.745
251.671
252.571
253.443
254.285
255.097
255.879
256.628
257.347
258.033
258.687
259.309
259.9
260.458
260.993
261.46
214.856
214.281
213.74
213.233
212.761
212.324
211.921
211.554
211.225
210.935
210.668
210.427
210.217
210.036
209.885
209.762
209.668
209.601
209.561
209.548
209.561
209.6
209.664
209.752
209.863
209.996
210.151
210.328
210.526
210.747
210.99
211.25
211.527
211.826
212.149
212.495
212.865
213.257
213.675
214.115
214.58
215.069
215.582
216.119
216.681
217.265
217.875
218.507
219.164
219.842
220.544
221.267
222.013
222.778
223.565
224.37
225.195
226.036
226.896
227.77
228.661
229.562
230.475
231.394
232.325
233.262
234.208
235.156
236.109
237.06
238.014
238.963
239.911
240.851
241.788
242.716
243.638
244.549
245.453
246.343
247.223
248.088
248.938
249.77
250.586
251.381
252.157
252.911
253.644
254.354
255.042
255.706
256.348
256.966
257.561
258.133
258.683
259.207
259.716
260.168
218.437
218.05
217.68
217.33
217.001
216.696
216.414
216.158
215.931
215.734
215.551
215.387
215.245
215.128
215.034
214.962
214.914
214.889
214.887
214.906
214.949
215.013
215.101
215.21
215.341
215.491
215.662
215.851
216.061
216.29
216.54
216.802
217.079
217.375
217.692
218.029
218.386
218.763
219.161
219.578
220.017
220.474
220.952
221.45
221.968
222.504
223.06
223.634
224.227
224.837
225.465
226.109
226.771
227.446
228.138
228.842
229.562
230.292
231.036
231.788
232.553
233.324
234.103
234.883
235.672
236.464
237.262
238.061
238.865
239.667
240.472
241.275
242.079
242.879
243.678
244.472
245.262
246.046
246.824
247.591
248.351
249.099
249.837
250.56
251.272
251.968
252.65
253.316
253.967
254.602
255.221
255.823
256.408
256.977
257.529
258.063
258.581
259.08
259.569
260.009
224.843
224.358
223.905
223.482
223.089
222.727
222.395
222.093
221.826
221.591
221.379
221.189
221.026
220.889
220.777
220.691
220.629
220.592
220.578
220.588
220.622
220.678
220.757
220.859
220.983
221.127
221.291
221.472
221.672
221.891
222.128
222.376
222.636
222.913
223.21
223.523
223.854
224.202
224.568
224.95
225.349
225.764
226.196
226.642
227.105
227.581
228.073
228.577
229.096
229.626
230.17
230.724
231.292
231.868
232.456
233.051
233.657
234.27
234.892
235.52
236.156
236.794
237.438
238.082
238.732
239.384
240.042
240.7
241.363
242.026
242.692
243.356
244.022
244.685
245.348
246.006
246.663
247.312
247.958
248.596
249.229
249.852
250.469
251.075
251.674
252.262
252.841
253.409
253.968
254.516
255.053
255.578
256.093
256.595
257.087
257.566
258.034
258.49
258.939
259.348
224.1
224.017
223.936
223.86
223.793
223.736
223.691
223.661
223.65
223.658
223.665
223.678
223.705
223.745
223.8
223.869
223.953
224.051
224.164
224.29
224.43
224.584
224.752
224.932
225.124
225.328
225.544
225.772
226.014
226.27
226.54
226.816
227.101
227.399
227.714
228.041
228.384
228.74
229.11
229.493
229.89
230.298
230.72
231.153
231.598
232.053
232.52
232.996
233.484
233.979
234.484
234.997
235.52
236.048
236.586
237.129
237.68
238.235
238.798
239.365
239.938
240.513
241.092
241.67
242.253
242.838
243.428
244.018
244.611
245.204
245.799
246.391
246.985
247.575
248.165
248.75
249.333
249.912
250.486
251.055
251.62
252.178
252.73
253.276
253.815
254.347
254.871
255.387
255.896
256.395
256.887
257.368
257.841
258.304
258.758
259.201
259.636
260.059
260.476
260.857
235.98
235.488
235.031
234.605
234.207
233.839
233.498
233.185
232.9
232.645
232.419
232.218
232.042
231.89
231.762
231.657
231.576
231.518
231.484
231.472
231.484
231.517
231.574
231.652
231.755
231.877
232.02
232.181
232.358
232.552
232.761
232.979
233.205
233.443
233.694
233.957
234.233
234.519
234.817
235.123
235.441
235.768
236.105
236.449
236.804
237.165
237.536
237.913
238.298
238.69
239.089
239.494
239.907
240.324
240.748
241.177
241.612
242.051
242.496
242.944
243.397
243.852
244.308
244.764
245.224
245.685
246.15
246.615
247.084
247.551
248.021
248.49
248.96
249.429
249.897
250.364
250.83
251.293
251.755
252.213
252.67
253.123
253.573
254.019
254.462
254.899
255.333
255.762
256.186
256.605
257.018
257.427
257.829
258.227
258.618
259.004
259.384
259.758
260.126
260.469
222.493
222.884
223.263
223.636
224.009
224.383
224.762
225.149
225.553
225.967
226.351
226.719
227.089
227.462
227.84
228.22
228.604
228.991
229.381
229.773
230.168
230.565
230.964
231.365
231.767
232.168
232.571
232.975
233.383
233.794
234.208
234.614
235.017
235.425
235.838
236.256
236.681
237.109
237.544
237.983
238.428
238.878
239.333
239.791
240.256
240.723
241.196
241.672
242.153
242.636
243.124
243.614
244.108
244.603
245.102
245.602
246.105
246.608
247.113
247.618
248.125
248.629
249.132
249.631
250.13
250.626
251.124
251.619
252.113
252.605
253.095
253.582
254.067
254.547
255.026
255.499
255.969
256.434
256.895
257.35
257.801
258.245
258.684
259.117
259.544
259.964
260.378
260.785
261.185
261.578
261.963
262.342
262.712
263.075
263.431
263.778
264.117
264.447
264.769
265.072
255.281
254.57
253.896
253.255
252.641
252.05
251.479
250.925
250.381
249.856
249.402
248.982
248.589
248.219
247.875
247.555
247.261
246.991
246.748
246.53
246.338
246.172
246.032
245.917
245.829
245.765
245.727
245.709
245.714
245.737
245.779
245.839
245.904
245.982
246.074
246.179
246.296
246.425
246.566
246.717
246.88
247.053
247.236
247.429
247.632
247.843
248.064
248.293
248.53
248.775
249.027
249.286
249.553
249.826
250.105
250.39
250.68
250.975
251.276
251.58
251.89
252.2
252.512
252.824
253.137
253.453
253.774
254.096
254.422
254.748
255.078
255.409
255.742
256.075
256.41
256.744
257.08
257.415
257.751
258.086
258.42
258.753
259.086
259.417
259.747
260.074
260.401
260.724
261.046
261.365
261.681
261.994
262.304
262.611
262.914
263.213
263.509
263.8
264.084
264.368
201.571
202.897
204.209
205.502
206.793
208.089
209.398
210.732
212.113
213.514
214.775
215.975
217.165
218.35
219.532
220.707
221.877
223.038
224.191
225.334
226.468
227.589
228.699
229.795
230.878
231.947
233.001
234.041
235.068
236.081
237.074
238.011
238.927
239.83
240.722
241.604
242.477
243.34
244.193
245.037
245.872
246.697
247.513
248.319
249.116
249.904
250.683
251.451
252.211
252.961
253.702
254.432
255.154
255.864
256.566
257.257
257.938
258.609
259.27
259.919
260.559
261.184
261.794
262.395
262.984
263.56
264.128
264.685
265.233
265.769
266.296
266.812
267.318
267.813
268.298
268.771
269.234
269.686
270.127
270.556
270.975
271.382
271.778
272.163
272.536
272.898
273.249
273.588
273.915
274.231
274.536
274.829
275.111
275.382
275.641
275.889
276.126
276.351
276.557
276.782
302.779
301.415
299.864
298.321
296.812
295.314
293.816
292.306
290.736
289.074
287.808
286.571
285.319
284.099
282.918
281.774
280.668
279.602
278.578
277.597
276.659
275.767
274.918
274.112
273.352
272.636
271.966
271.34
270.76
270.214
269.684
269.259
268.835
268.406
268.008
267.642
267.308
267.001
266.724
266.474
266.253
266.056
265.886
265.741
265.62
265.521
265.445
265.39
265.356
265.341
265.345
265.366
265.404
265.458
265.527
265.61
265.706
265.815
265.936
266.068
266.205
266.338
266.492
266.671
266.827
266.988
267.162
267.348
267.543
267.747
267.959
268.178
268.405
268.638
268.877
269.121
269.371
269.625
269.883
270.144
270.409
270.677
270.946
271.218
271.492
271.766
272.042
272.318
272.595
272.871
273.147
273.422
273.696
273.97
274.241
274.511
274.778
275.036
275.283
275.819
122.076
128.431
132.845
137.941
143.456
149.155
155.084
161.554
167.577
169.482
170.999
174.968
179.196
183.208
187.167
191.093
194.983
198.822
202.611
206.341
210.013
213.62
217.163
220.636
224.041
227.369
230.617
233.825
237.055
240.003
241.906
243.802
246.499
248.968
251.342
253.669
255.955
258.192
260.381
262.52
264.612
266.654
268.649
270.593
272.49
274.337
276.138
277.888
279.592
281.248
282.857
284.418
285.933
287.401
288.827
290.21
291.546
292.835
294.086
295.3
296.432
297.364
298.29
299.494
300.506
301.438
302.348
303.232
304.085
304.906
305.697
306.458
307.189
307.89
308.564
309.209
309.827
310.417
310.982
311.52
312.034
312.523
312.989
313.432
313.852
314.251
314.63
314.987
315.326
315.646
315.948
316.232
316.5
316.752
316.99
317.216
317.42
317.553
317.649
318.867
299.032
298.783
298.7
298.711
298.752
298.815
298.902
299.014
299.151
299.31
299.491
299.693
299.914
300.153
300.409
300.686
300.97
301.263
301.577
301.909
302.252
302.608
302.974
303.353
303.741
304.14
304.549
304.968
305.397
305.838
306.286
306.707
307.101
307.603
308.154
308.646
309.132
309.632
310.139
310.655
311.175
311.705
312.239
312.785
313.342
313.9
314.354
314.789
315.479
316.23
316.822
317.403
317.999
318.609
319.224
319.856
320.509
321.148
321.543
321.998
322.983
323.979
324.668
325.356
326.102
326.747
326.825
328.076
329.585
329.385
288.057
288.11
288.503
288.923
289.311
289.692
290.075
290.46
290.844
291.23
291.616
292.004
292.392
292.783
293.175
293.571
293.969
294.37
294.773
295.181
295.59
296.004
296.419
296.84
297.262
297.689
298.119
298.554
298.991
299.435
299.881
300.331
300.781
301.239
301.702
302.167
302.632
303.105
303.58
304.061
304.544
305.035
305.528
306.028
306.531
307.042
307.55
308.061
308.584
309.119
309.643
310.174
310.71
311.256
311.805
312.364
312.929
313.505
314.069
314.639
315.246
315.863
316.46
317.071
317.7
318.339
318.943
319.645
320.435
320.829
284.095
284.348
284.828
285.311
285.771
286.228
286.685
287.143
287.599
288.055
288.51
288.965
289.417
289.87
290.321
290.771
291.22
291.669
292.115
292.562
293.006
293.45
293.892
294.335
294.776
295.217
295.656
296.097
296.535
296.974
297.412
297.851
298.286
298.722
299.155
299.589
300.02
300.453
300.884
301.316
301.747
302.179
302.61
303.042
303.473
303.907
304.337
304.766
305.191
305.618
306.039
306.463
306.885
307.31
307.733
308.159
308.584
309.013
309.438
309.858
310.274
310.692
311.105
311.522
311.943
312.369
312.79
313.207
313.665
313.98
278.731
279.024
279.533
280.037
280.517
280.995
281.474
281.953
282.432
282.912
283.391
283.87
284.347
284.825
285.301
285.777
286.252
286.726
287.199
287.672
288.143
288.614
289.083
289.553
290.02
290.489
290.956
291.424
291.89
292.357
292.823
293.29
293.753
294.217
294.679
295.14
295.598
296.057
296.515
296.974
297.432
297.891
298.349
298.808
299.266
299.727
300.184
300.64
301.092
301.545
301.99
302.438
302.885
303.334
303.783
304.235
304.685
305.141
305.591
306.036
306.48
306.921
307.354
307.792
308.235
308.685
309.123
309.566
310.041
310.367
274.959
275.268
275.784
276.293
276.78
277.265
277.751
278.239
278.726
279.214
279.7
280.187
280.671
281.156
281.638
282.121
282.601
283.082
283.56
284.038
284.514
284.99
285.464
285.938
286.41
286.883
287.353
287.825
288.295
288.767
289.237
289.708
290.175
290.642
291.106
291.568
292.029
292.491
292.951
293.413
293.873
294.335
294.796
295.259
295.721
296.186
296.648
297.107
297.562
298.017
298.465
298.915
299.365
299.819
300.272
300.729
301.186
301.649
302.107
302.559
303.007
303.453
303.891
304.337
304.788
305.249
305.699
306.152
306.639
306.977
271.036
271.36
271.884
272.397
272.886
273.375
273.865
274.356
274.848
275.34
275.832
276.324
276.815
277.306
277.796
278.286
278.774
279.263
279.749
280.237
280.721
281.207
281.69
282.175
282.657
283.141
283.622
284.106
284.587
285.071
285.553
286.037
286.517
286.997
287.473
287.948
288.421
288.896
289.369
289.845
290.319
290.795
291.27
291.748
292.225
292.706
293.184
293.659
294.129
294.597
295.057
295.522
295.986
296.455
296.923
297.396
297.869
298.347
298.823
299.291
299.752
300.208
300.659
301.117
301.584
302.06
302.528
302.994
303.489
303.843
268.076
268.409
268.934
269.448
269.938
270.429
270.922
271.416
271.91
272.404
272.898
273.391
273.883
274.375
274.865
275.356
275.844
276.333
276.82
277.307
277.792
278.278
278.761
279.246
279.728
280.212
280.694
281.178
281.66
282.144
282.627
283.113
283.594
284.075
284.551
285.027
285.501
285.977
286.452
286.929
287.405
287.883
288.361
288.841
289.321
289.806
290.288
290.767
291.239
291.708
292.171
292.638
293.106
293.579
294.051
294.528
295.007
295.492
295.974
296.448
296.913
297.371
297.824
298.288
298.761
299.245
299.721
300.193
300.691
301.053
265.473
265.812
266.334
266.845
267.332
267.821
268.312
268.806
269.299
269.793
270.285
270.779
271.27
271.763
272.253
272.744
273.233
273.723
274.212
274.7
275.186
275.673
276.157
276.643
277.127
277.612
278.096
278.581
279.065
279.55
280.036
280.523
281.006
281.487
281.964
282.44
282.915
283.391
283.867
284.344
284.821
285.299
285.778
286.259
286.74
287.225
287.709
288.189
288.662
289.129
289.591
290.058
290.526
290.998
291.471
291.95
292.43
292.917
293.403
293.88
294.345
294.801
295.255
295.722
296.198
296.687
297.17
297.647
298.146
298.517
263.371
263.713
264.234
264.741
265.227
265.715
266.206
266.697
267.188
267.679
268.169
268.659
269.147
269.636
270.123
270.61
271.096
271.582
272.067
272.552
273.034
273.517
273.998
274.48
274.961
275.443
275.923
276.405
276.886
277.369
277.851
278.336
278.817
279.296
279.77
280.242
280.714
281.188
281.661
282.136
282.611
283.088
283.565
284.045
284.525
285.009
285.493
285.972
286.443
286.907
287.367
287.832
288.298
288.769
289.241
289.719
290.199
290.686
291.172
291.65
292.112
292.564
293.015
293.48
293.956
294.447
294.931
295.409
295.905
296.279
261.954
262.298
262.809
263.306
263.782
264.26
264.74
265.222
265.701
266.182
266.66
267.14
267.618
268.097
268.574
269.052
269.529
270.006
270.482
270.958
271.432
271.907
272.381
272.855
273.328
273.802
274.276
274.751
275.225
275.702
276.179
276.658
277.133
277.607
278.074
278.541
279.007
279.476
279.944
280.415
280.885
281.358
281.831
282.307
282.784
283.266
283.747
284.224
284.69
285.15
285.605
286.066
286.529
286.997
287.465
287.94
288.417
288.902
289.386
289.861
290.317
290.762
291.207
291.666
292.137
292.624
293.105
293.578
294.063
294.434
260.65
260.998
261.505
261.997
262.469
262.942
263.416
263.892
264.365
264.839
265.311
265.784
266.255
266.727
267.197
267.668
268.138
268.608
269.077
269.546
270.013
270.48
270.946
271.413
271.879
272.346
272.812
273.28
273.747
274.217
274.687
275.159
275.628
276.095
276.555
277.014
277.474
277.936
278.397
278.861
279.325
279.792
280.259
280.729
281.201
281.677
282.153
282.626
283.086
283.539
283.988
284.444
284.901
285.363
285.828
286.297
286.77
287.252
287.733
288.204
288.656
289.093
289.533
289.988
290.456
290.94
291.419
291.891
292.369
292.741
260.483
260.828
261.319
261.796
262.253
262.711
263.17
263.63
264.088
264.547
265.004
265.463
265.92
266.377
266.833
267.291
267.747
268.203
268.659
269.114
269.567
270.021
270.474
270.927
271.379
271.832
272.285
272.739
273.193
273.649
274.106
274.564
275.02
275.472
275.917
276.361
276.806
277.253
277.699
278.148
278.597
279.048
279.5
279.955
280.412
280.873
281.335
281.792
282.237
282.672
283.104
283.544
283.986
284.432
284.882
285.337
285.796
286.265
286.734
287.194
287.63
288.052
288.478
288.92
289.376
289.852
290.323
290.786
291.25
291.614
259.794
260.139
260.622
261.09
261.539
261.99
262.441
262.892
263.342
263.792
264.241
264.691
265.139
265.588
266.035
266.483
266.929
267.377
267.823
268.269
268.713
269.157
269.6
270.044
270.486
270.93
271.374
271.819
272.263
272.71
273.158
273.608
274.055
274.498
274.934
275.37
275.806
276.244
276.683
277.123
277.564
278.007
278.452
278.899
279.349
279.803
280.258
280.708
281.146
281.573
281.998
282.43
282.865
283.305
283.748
284.196
284.649
285.112
285.576
286.03
286.459
286.874
287.292
287.729
288.18
288.651
289.117
289.577
290.034
290.398
261.282
261.61
262.063
262.503
262.926
263.349
263.773
264.199
264.623
265.047
265.47
265.894
266.317
266.74
267.163
267.585
268.007
268.43
268.852
269.273
269.692
270.112
270.53
270.949
271.368
271.787
272.207
272.627
273.048
273.471
273.895
274.322
274.746
275.165
275.576
275.987
276.399
276.814
277.228
277.644
278.062
278.482
278.903
279.328
279.755
280.187
280.62
281.049
281.462
281.864
282.264
282.672
283.082
283.498
283.917
284.342
284.772
285.212
285.655
286.085
286.487
286.871
287.262
287.671
288.096
288.543
288.987
289.422
289.846
290.184
260.855
261.169
261.608
262.038
262.451
262.865
263.279
263.694
264.108
264.522
264.936
265.349
265.762
266.175
266.587
267
267.412
267.825
268.236
268.647
269.056
269.465
269.874
270.283
270.692
271.102
271.511
271.922
272.334
272.748
273.162
273.58
273.994
274.404
274.806
275.208
275.611
276.017
276.422
276.83
277.239
277.651
278.064
278.481
278.9
279.324
279.75
280.171
280.577
280.971
281.364
281.765
282.17
282.579
282.992
283.411
283.835
284.269
284.706
285.132
285.53
285.91
286.298
286.704
287.126
287.569
288.01
288.444
288.867
289.211
265.434
265.718
266.113
266.504
266.88
267.255
267.631
268.007
268.381
268.755
269.127
269.499
269.87
270.24
270.609
270.978
271.346
271.714
272.08
272.445
272.808
273.171
273.532
273.894
274.255
274.616
274.977
275.339
275.701
276.065
276.43
276.798
277.163
277.521
277.87
278.218
278.567
278.919
279.271
279.624
279.979
280.337
280.696
281.058
281.424
281.794
282.167
282.534
282.883
283.216
283.549
283.89
284.236
284.587
284.942
285.304
285.672
286.052
286.437
286.807
287.142
287.455
287.78
288.126
288.491
288.881
289.274
289.652
290.007
290.295
264.692
264.891
265.25
265.628
265.986
266.339
266.694
267.048
267.402
267.755
268.107
268.46
268.811
269.162
269.512
269.862
270.211
270.561
270.91
271.257
271.603
271.949
272.294
272.639
272.984
273.329
273.675
274.022
274.37
274.72
275.071
275.426
275.778
276.123
276.459
276.796
277.135
277.476
277.818
278.162
278.508
278.856
279.208
279.563
279.921
280.285
280.652
281.014
281.359
281.689
282.021
282.362
282.708
283.058
283.414
283.777
284.146
284.527
284.911
285.285
285.627
285.95
286.284
286.639
287.012
287.408
287.805
288.195
288.567
288.878
277.107
277.206
277.467
277.763
278.039
278.305
278.569
278.831
279.089
279.344
279.596
279.845
280.091
280.334
280.574
280.812
281.047
281.281
281.511
281.737
281.96
282.181
282.399
282.615
282.829
283.043
283.256
283.469
283.681
283.895
284.11
284.327
284.54
284.742
284.93
285.116
285.305
285.495
285.685
285.877
286.071
286.268
286.467
286.671
286.879
287.094
287.314
287.525
287.707
287.867
288.03
288.204
288.385
288.572
288.768
288.973
289.189
289.42
289.66
289.881
290.047
290.187
290.347
290.537
290.755
291.008
291.275
291.509
291.708
291.872
276.217
275.318
275.369
275.729
275.998
276.213
276.428
276.647
276.863
277.074
277.282
277.487
277.688
277.887
278.083
278.275
278.466
278.656
278.842
279.025
279.204
279.382
279.558
279.732
279.905
280.078
280.251
280.424
280.597
280.772
280.949
281.129
281.307
281.471
281.62
281.772
281.927
282.084
282.243
282.404
282.569
282.737
282.909
283.087
283.269
283.459
283.655
283.844
284.006
284.147
284.297
284.459
284.628
284.805
284.992
285.188
285.396
285.618
285.849
286.065
286.24
286.396
286.574
286.778
287.007
287.267
287.535
287.781
288.023
288.196
320.419
317.095
316.03
315.951
315.693
315.283
314.876
314.488
314.1
313.708
313.313
312.917
312.519
312.119
311.717
311.314
310.909
310.506
310.098
309.688
309.275
308.86
308.444
308.028
307.612
307.196
306.782
306.369
305.959
305.551
305.147
304.748
304.343
303.906
303.438
302.972
302.507
302.043
301.579
301.117
300.657
300.202
299.751
299.306
298.867
298.438
298.018
297.577
297.054
296.473
295.901
295.339
294.784
294.238
293.705
293.187
292.686
292.207
291.754
291.242
290.56
289.802
289.093
288.441
287.849
287.325
286.882
286.242
285.491
284.87
324.706
317.276
311.864
307.98
305.062
302.819
301.077
299.704
298.598
297.689
296.928
296.282
295.727
295.245
294.824
294.453
294.126
293.837
293.579
293.351
293.147
292.965
292.802
292.658
292.528
292.413
292.311
292.22
292.139
292.067
292.003
291.947
291.898
291.855
291.817
291.784
291.756
291.732
291.711
291.694
291.679
291.667
291.658
291.65
291.644
291.64
291.637
291.636
291.635
291.635
291.636
291.637
291.639
291.642
291.644
291.647
291.649
291.652
291.654
291.656
291.658
291.66
291.661
291.661
291.661
291.661
291.66
291.659
291.657
291.656
291.654
291.652
291.651
291.649
291.644
319.948
315.879
312.142
309.111
306.506
304.269
302.413
300.893
299.643
298.606
297.739
297.007
296.381
295.841
295.371
294.959
294.596
294.273
293.987
293.732
293.505
293.302
293.12
292.958
292.812
292.682
292.566
292.462
292.369
292.286
292.212
292.147
292.088
292.036
291.991
291.95
291.914
291.883
291.856
291.832
291.812
291.794
291.779
291.767
291.756
291.747
291.74
291.734
291.729
291.725
291.722
291.72
291.719
291.718
291.717
291.717
291.716
291.716
291.715
291.715
291.714
291.713
291.712
291.71
291.708
291.705
291.702
291.698
291.694
291.689
291.684
291.679
291.674
291.667
291.652
314.247
312.005
309.655
307.849
306.22
304.604
303.08
301.707
300.486
299.41
298.474
297.666
296.97
296.371
295.853
295.403
295.009
294.662
294.354
294.081
293.837
293.619
293.424
293.248
293.09
292.948
292.82
292.705
292.603
292.51
292.428
292.354
292.288
292.228
292.176
292.128
292.086
292.049
292.016
291.987
291.961
291.938
291.918
291.901
291.885
291.872
291.86
291.85
291.841
291.834
291.827
291.822
291.817
291.812
291.808
291.805
291.801
291.798
291.795
291.792
291.788
291.784
291.78
291.776
291.771
291.765
291.759
291.752
291.745
291.736
291.726
291.716
291.705
291.691
291.663
310.93
309.565
307.866
306.454
305.155
303.874
302.679
301.604
300.63
299.735
298.914
298.168
297.494
296.89
296.35
295.87
295.444
295.067
294.733
294.436
294.173
293.939
293.731
293.544
293.377
293.226
293.09
292.967
292.856
292.755
292.665
292.583
292.51
292.444
292.384
292.331
292.283
292.24
292.201
292.167
292.136
292.108
292.083
292.061
292.041
292.023
292.007
291.993
291.98
291.969
291.959
291.949
291.941
291.933
291.926
291.919
291.913
291.906
291.9
291.894
291.888
291.881
291.874
291.867
291.859
291.85
291.841
291.83
291.818
291.805
291.79
291.773
291.754
291.731
291.686
307.739
306.724
305.501
304.618
303.796
302.89
301.965
301.088
300.268
299.504
298.8
298.162