/*--------------------------------*- C++ -*----------------------------------*\
  =========                 |
  \\      /  F ield         | OpenFOAM: The Open Source CFD Toolbox
   \\    /   O peration     | Website:  https://openfoam.org
    \\  /    A nd           | Version:  6.0
     \\/     M anipulation  |
\*---------------------------------------------------------------------------*/
FoamFile
{
    version     2.0;
    format      ascii;
    class       surfaceScalarField;
    location    "450";
    object      phi;
}
// * * * * * * * * * * * * * * * * * * * * * * * * * * * * * * * * * * * * * //

dimensions      [0 3 -1 0 0 0 0];

internalField   nonuniform List<scalar> 
19165
(
-0.0393141
0.0215007
0.04068
-0.0378101
0.0219246
-0.0362075
0.022322
-0.034542
0.022701
-0.032835
0.0230585
-0.0310988
0.023394
-0.0293412
0.0237074
-0.0275671
0.0239991
-0.0257799
0.0242694
-0.0239819
0.0245186
-0.0221573
0.0247307
-0.0203207
0.0249358
-0.0184753
0.0251226
-0.0166221
0.0252891
-0.0147623
0.0254352
-0.0128971
0.0255605
-0.011028
0.0256645
-0.00915727
0.0257465
-0.00728848
0.0258058
-0.00542732
0.0258414
-0.00358379
0.0258526
-0.00177655
0.0258411
-4.42479e-05
0.0258167
0.00168647
0.0258143
0.00349159
0.025836
0.00533446
0.025847
0.0071958
0.0258354
0.00906549
0.0257996
0.0109376
0.0257401
0.0128086
0.025658
0.0146767
0.0255534
0.0165457
0.0254237
0.0184092
0.0252784
0.0202662
0.0251132
0.0221157
0.0249282
0.0239568
0.0247236
0.0257888
0.0244997
0.0276112
0.0242562
0.029423
0.0239933
0.0312237
0.0237107
0.0330126
0.0234084
0.0347891
0.0230859
0.0365524
0.0227431
0.0383021
0.0223796
0.0400374
0.0219949
0.0417578
0.0215884
0.0434624
0.0211596
0.045151
0.0207077
0.0468225
0.0202319
0.0484768
0.0197312
0.0501126
0.0192043
0.0517297
0.0186497
0.0533265
0.0180659
0.0549021
0.0174507
0.0564539
0.0168015
0.057979
0.0161155
0.0594714
0.0153888
0.0609223
0.0146168
0.0623149
0.0137938
0.0636229
0.0129125
0.0647974
0.0119634
0.0657572
0.0109328
0.0663589
0.00980518
0.0663342
0.00852529
0.0652689
0.00712772
0.0618828
0.0049394
0.0621563
0.00258139
0.0541244
0.000755786
0.0523259
-0.000459599
0.0506067
-0.00081747
0.0490701
-0.00107952
0.0476257
-0.00131796
0.0462793
-0.00152945
0.0450347
-0.00173093
0.0438995
-0.00192092
0.0428445
-0.00209495
0.0418605
-0.00225344
0.0409273
-0.00240097
0.0400442
-0.00254156
0.0391943
-0.0026773
0.0383731
-0.00280816
0.0375624
-0.00293295
0.0367571
-0.0030494
0.0359421
-0.0031548
0.0351154
-0.00324611
0.0342672
-0.00332038
0.033399
-0.00337484
0.0325051
-0.00340713
0.0315898
-0.00341523
0.0306507
-0.00339763
0.0296932
-0.00335308
0.028717
-0.00328057
0.0277275
-0.00317902
0.0267255
-0.00304713
0.0257147
-0.00288313
0.0246963
-0.00268454
0.0236728
-0.00244804
0.0226476
-0.00216806
0.0216652
-0.0018203
-0.000866912
0.0214356
-0.0381058
0.0200221
0.0395831
-0.0365888
0.0204073
-0.0350245
0.0207571
-0.0334164
0.0210925
-0.0317707
0.0214121
-0.0300928
0.0217157
-0.0283884
0.0220025
-0.0266618
0.0222722
-0.0249171
0.0225243
-0.0231575
0.0227588
-0.0213701
0.022943
-0.0195695
0.0231349
-0.01776
0.0233128
-0.0159437
0.0234725
-0.0141233
0.0236144
-0.0123016
0.0237386
-0.0104829
0.0238454
-0.00867207
0.0239354
-0.00687621
0.0240095
-0.00510416
0.024069
-0.0033683
0.0241163
-0.00168325
0.0241557
-6.66805e-05
0.0241996
0.00154667
0.0242007
0.00322653
0.0241557
0.00496014
0.0241131
0.00673165
0.0240635
0.00852914
0.0240019
0.0103428
0.023926
0.0121662
0.0238344
0.0139943
0.0237249
0.0158288
0.0235891
0.0176613
0.0234455
0.01949
0.0232844
0.0213124
0.0231054
0.0231278
0.0229082
0.0249343
0.0226928
0.0267315
0.022459
0.028518
0.0222065
0.0302935
0.0219353
0.0320566
0.0216449
0.0338074
0.0213352
0.0355445
0.0210058
0.0372679
0.0206562
0.0389765
0.0202861
0.0406703
0.0198947
0.0423483
0.0194815
0.0440104
0.0190458
0.0456557
0.0185866
0.0472842
0.0181028
0.048895
0.0175934
0.0504881
0.0170568
0.0520626
0.0164914
0.0536181
0.0158952
0.0551538
0.0152659
0.0566688
0.0146006
0.0581615
0.0138961
0.0596307
0.0131482
0.0610727
0.0123522
0.0624843
0.011502
0.063858
0.0105906
0.0651823
0.00960934
0.066439
0.00855021
0.0675661
0.00739796
0.0685305
0.00616561
0.0686599
0.00480831
0.0675704
0.00367326
0.0656366
0.00268708
0.0631768
0.00200245
0.06087
0.00148694
0.0587542
0.00103835
0.0568128
0.000621345
0.0550368
0.000248575
0.0533811
-7.70715e-05
0.0518262
-0.000364264
0.0503535
-0.000623866
0.0489628
-0.000861084
0.0476385
-0.00107813
0.046375
-0.00127656
0.0451543
-0.00145788
0.0439704
-0.00162292
0.0428081
-0.00177183
0.0416644
-0.00190441
0.0405288
-0.00202019
0.0394024
-0.00211864
0.0382803
-0.00219909
0.0371673
-0.0022609
0.0360629
-0.0023035
0.034975
-0.00232645
0.0339062
-0.00232937
0.0328657
-0.00231198
0.0318587
-0.00227397
0.0308951
-0.00221499
0.0299823
-0.00213457
0.0291315
-0.00203218
0.0283539
-0.0019071
0.0276648
-0.00175869
0.0270825
-0.00158575
0.0266524
-0.00138993
-0.00115687
0.0269423
-0.0386457
0.0183014
0.0403659
-0.036939
0.0187005
-0.0352521
0.0190698
-0.0335726
0.0194129
-0.0318933
0.0197325
-0.0302087
0.0200309
-0.028516
0.0203096
-0.0268135
0.0205695
-0.025101
0.0208115
-0.0233786
0.0210363
-0.0216326
0.0211967
-0.0198752
0.0213775
-0.0181099
0.0215471
-0.0163374
0.0217
-0.0145594
0.0218362
-0.0127768
0.0219559
-0.010991
0.0220593
-0.0092021
0.0221464
-0.00740998
0.022217
-0.0056121
0.022271
-0.00380395
0.0223077
-0.00197618
0.0223277
-0.000111138
0.0223342
0.00175621
0.0223331
0.00358771
0.0223238
0.00539995
0.0223007
0.00720229
0.0222608
0.0090002
0.0222038
0.0107958
0.02213
0.0125903
0.0220398
0.0143834
0.0219315
0.0161777
0.0217946
0.0179677
0.0216553
0.0197523
0.0214996
0.0215301
0.0213273
0.0233002
0.0211381
0.025061
0.0209318
0.0268118
0.0207082
0.0285511
0.020467
0.0302783
0.0202081
0.0319918
0.0199312
0.033691
0.0196361
0.0353745
0.0193223
0.0370412
0.0189896
0.0386897
0.0186375
0.0403189
0.0182656
0.0419271
0.0178734
0.0435127
0.0174603
0.0450738
0.0170256
0.0466081
0.0165686
0.0481131
0.0160885
0.0495854
0.0155845
0.0510213
0.0150557
0.0524157
0.0145009
0.0537626
0.0139192
0.0550541
0.0133095
0.0562798
0.0126708
0.0574262
0.0120023
0.0584755
0.0113035
0.0594036
0.0105744
0.0601794
0.00981589
0.0607583
0.00903031
0.0610874
0.00822254
0.0610856
0.00739867
0.060683
0.00656964
0.059737
0.00575228
0.0584479
0.00496386
0.0569107
0.00422179
0.0553697
0.00354506
0.0539124
0.00294176
0.052537
0.00241547
0.0512039
0.00195217
0.0499152
0.00153904
0.0486692
0.00116699
0.0474764
0.000830324
0.0463258
0.000525029
0.0452184
0.000248079
0.0441421
-3.27227e-06
0.0430985
-0.000231205
0.042077
-0.000437667
0.04108
-0.000624285
0.0400994
-0.000792378
0.0391394
-0.000942827
0.0381944
-0.00107616
0.0372699
-0.00119273
0.0363628
-0.00129279
0.0354797
-0.00137653
0.0346196
-0.00144412
0.03379
-0.00149575
0.0329916
-0.00153157
0.0322323
-0.00155177
0.0315145
-0.00155654
0.0308462
-0.00154614
0.0302323
-0.00152091
0.0296818
-0.00148135
0.0292027
-0.0014282
0.0288069
-0.00136251
0.028507
-0.00128586
0.028318
-0.00120057
-0.0011072
0.0282682
-0.0370816
0.0169093
0.0384734
-0.0356278
0.0172467
-0.0341277
0.0175694
-0.0325915
0.0178766
-0.0310269
0.0181677
-0.0294391
0.0184429
-0.0278318
0.0187021
-0.0262078
0.0189454
-0.0245696
0.0191731
-0.0229187
0.0193853
-0.0212422
0.01952
-0.019552
0.0196872
-0.0178508
0.0198459
-0.0161392
0.0199882
-0.0144176
0.0201143
-0.0126856
0.0202238
-0.0109429
0.0203163
-0.00918799
0.0203912
-0.00741884
0.0204476
-0.00563238
0.0204842
-0.00382531
0.0205003
-0.00199457
0.0204966
-0.000137879
0.0204771
0.00172165
0.0204732
0.00355792
0.0204872
0.00537094
0.0204873
0.00716393
0.0204675
0.00894032
0.020427
0.0107033
0.0203668
0.012455
0.0202878
0.0141973
0.0201888
0.0159339
0.0200576
0.0176612
0.0199278
0.0193787
0.0197817
0.0210861
0.0196196
0.0227823
0.0194415
0.0244665
0.0192474
0.0261372
0.0190371
0.0277934
0.0188105
0.0294335
0.0185676
0.0310562
0.0183082
0.0326597
0.0180322
0.0342425
0.0177392
0.0358023
0.0174293
0.0373376
0.0171021
0.0388454
0.0167573
0.0403239
0.0163947
0.0417696
0.0160141
0.0431799
0.0156151
0.0445505
0.0151975
0.045878
0.0147609
0.0471569
0.0143052
0.0483825
0.01383
0.0495477
0.0133352
0.0506462
0.0128207
0.0516687
0.0122866
0.0526065
0.0117329
0.0534483
0.0111603
0.0541827
0.0105693
0.0547959
0.00996103
0.0552752
0.00933718
0.0556054
0.00869982
0.0557766
0.00805228
0.0557747
0.00739989
0.0555985
0.00674735
0.0552457
0.00610398
0.0547338
0.00547751
0.054073
0.00488117
0.0532945
0.00432545
0.0524202
0.00381444
0.0514912
0.00334635
0.0505267
0.00291515
0.0495514
0.00251618
0.0485698
0.00214709
0.0475955
0.00180646
0.0466265
0.00149257
0.0456727
0.00120365
0.0447302
0.000937931
0.0438068
0.000693916
0.0428981
0.00046991
0.0420108
0.000264571
0.0411405
7.68161e-05
0.0402933
-9.41345e-05
0.0394652
-0.000248996
0.0386622
-0.000388431
0.0378816
-0.000513048
0.0371297
-0.000623361
0.0364046
-0.000719868
0.0357129
-0.000803023
0.035054
-0.000873285
0.0344342
-0.000931119
0.0338543
-0.000977056
0.0333204
-0.00101171
0.032835
-0.00103582
0.0324043
-0.0010503
0.0320322
-0.00105624
0.0317249
-0.00105496
0.0314873
-0.00104815
0.0313248
-0.00103785
-0.00102189
0.0312395
-0.0355581
0.0155452
0.0369221
-0.0341616
0.0158502
-0.0327319
0.0161396
-0.0312708
0.0164155
-0.0297812
0.016678
-0.0282654
0.0169272
-0.0267265
0.0171631
-0.0251667
0.0173858
-0.0235887
0.0175951
-0.0219941
0.0177909
-0.0203711
0.0178971
-0.0187318
0.0180481
-0.0170793
0.0181935
-0.0154147
0.0183239
-0.0137393
0.0184391
-0.012054
0.0185387
-0.01036
0.0186226
-0.00865857
0.0186901
-0.00695148
0.0187408
-0.00524152
0.0187745
-0.00353262
0.0187918
-0.0018309
0.0187951
-0.000143238
0.0187899
0.00154363
0.0187866
0.0032454
0.0187859
0.00495562
0.0187773
0.00666868
0.0187549
0.00837978
0.0187162
0.0100867
0.0186604
0.0117869
0.0185878
0.0134802
0.0184961
0.0151685
0.0183696
0.0168474
0.0182496
0.018515
0.0181144
0.0201711
0.0179642
0.0218138
0.0177992
0.0234425
0.0176193
0.0250551
0.0174248
0.0266509
0.0172154
0.0282275
0.0169913
0.0297842
0.0167523
0.0313183
0.0164985
0.0328287
0.0162296
0.0343126
0.0159458
0.0357686
0.0156469
0.0371933
0.0153329
0.0385853
0.0150037
0.0399405
0.0146593
0.041257
0.0142995
0.0425304
0.0139246
0.0437579
0.0135344
0.0449345
0.0131291
0.0460566
0.0127088
0.0471185
0.0122739
0.0481157
0.0118246
0.0490415
0.0113615
0.0498904
0.0108852
0.0506547
0.0103966
0.0513283
0.00989697
0.0519019
0.00938774
0.0523696
0.00887088
0.0527211
0.00834824
0.0529521
0.00782276
0.0530513
0.00730013
0.0530171
0.00678291
0.0528443
0.00627575
0.0525401
0.00578303
0.0521116
0.00530818
0.051585
0.00485333
0.0509785
0.00441931
0.0503195
0.00400654
0.0496178
0.00361528
0.0488894
0.00324573
0.0481371
0.00289781
0.0473737
0.00257108
0.0466001
0.00226475
0.045827
0.00197794
0.0450538
0.00170979
0.0442895
0.00145953
0.0435318
0.00122639
0.042788
0.00100964
0.0420553
0.000808502
0.0413402
0.000622225
0.0406402
0.000450055
0.0399617
0.000291302
0.0393025
0.000145333
0.0386686
1.15873e-05
0.0380585
-0.000110448
0.0374779
-0.000221297
0.0369256
-0.000321519
0.036407
-0.000411704
0.0359221
-0.000492501
0.0354757
-0.000564643
0.0350686
-0.000628934
0.0347049
-0.000686258
0.0343862
-0.000737611
0.0341157
-0.000784055
0.0338944
-0.000826869
0.0337244
-0.000867463
-0.000904298
0.0336066
-0.0344737
0.0142174
0.0358013
-0.0331119
0.0144882
-0.03172
0.0147476
-0.0303007
0.014996
-0.0288558
0.015233
-0.0273874
0.0154587
-0.0258973
0.0156728
-0.0243871
0.0158754
-0.0228583
0.0160662
-0.0213125
0.0162449
-0.0197385
0.016323
-0.0181478
0.0164572
-0.0165432
0.0165889
-0.0149266
0.0167071
-0.0132994
0.0168118
-0.0116634
0.0169027
-0.0100204
0.0169796
-0.00837288
0.0170424
-0.00672295
0.017091
-0.00507418
0.0171256
-0.00342955
0.0171474
-0.001793
0.0171585
-0.000165424
0.0171627
0.00146107
0.01716
0.00309733
0.01715
0.00474178
0.0171328
0.00639224
0.0171049
0.00804415
0.0170642
0.00969553
0.0170096
0.0113426
0.0169407
0.0129849
0.0168544
0.0146225
0.0167319
0.016251
0.0166216
0.0178676
0.0164978
0.0194718
0.0163606
0.0210608
0.0162101
0.0226344
0.0160464
0.0241896
0.0158696
0.0257261
0.0156797
0.0272407
0.0154767
0.0287331
0.0152607
0.0301999
0.0150317
0.0316405
0.0147898
0.0330514
0.014535
0.0344317
0.0142674
0.0357777
0.0139871
0.0370882
0.0136941
0.0383589
0.0133887
0.0395885
0.0130709
0.0407723
0.0127411
0.0419082
0.0123994
0.0429916
0.0120462
0.0440196
0.0116818
0.0449872
0.0113068
0.0458909
0.0109218
0.0467255
0.0105275
0.047487
0.0101246
0.04817
0.00971415
0.0487707
0.00929733
0.0492834
0.00887545
0.0497055
0.00844998
0.0500323
0.00802172
0.0502644
0.00759206
0.0503977
0.00716688
0.0504367
0.00674549
0.0503823
0.0063299
0.050245
0.00592201
0.0500291
0.00552357
0.0497479
0.00513625
0.0494048
0.00476157
0.0490122
0.00440076
0.0485719
0.00405462
0.0480957
0.0037235
0.0475851
0.00340739
0.0470515
0.00310618
0.0464956
0.00281958
0.0459277
0.00254737
0.0453472
0.00228922
0.0447634
0.00204484
0.0441749
0.00181384
0.0435901
0.00159581
0.0430075
0.00139023
0.0424343
0.00119663
0.0418691
0.00101448
0.0413182
0.000843313
0.0407801
0.000682642
0.0402608
0.000532008
0.0397587
0.000390919
0.0392794
0.000258863
0.0388221
0.000135268
0.0383916
1.95626e-05
0.0379875
-8.88616e-05
0.037614
-0.000190642
0.0372714
-0.000286496
0.0369625
-0.000377145
0.0366883
-0.000463402
0.0364506
-0.000546123
0.0362502
-0.000626249
0.0360878
-0.000704882
-0.000780032
0.0359635
-0.0331298
0.0129831
0.0343644
-0.0318583
0.0132167
-0.0305524
0.013442
-0.0292152
0.013659
-0.0278492
0.0138672
-0.0264568
0.0140665
-0.0250401
0.0142565
-0.0236014
0.0144369
-0.0221423
0.0146073
-0.0206647
0.0147676
-0.0191585
0.0148172
-0.0176346
0.0149336
-0.0160957
0.0150505
-0.0145435
0.0151553
-0.0129791
0.015248
-0.0114043
0.0153284
-0.00982007
0.0153962
-0.00822846
0.0154514
-0.00663044
0.015494
-0.00502841
0.0155243
-0.00342318
0.0155434
-0.00181676
0.0155529
-0.000207893
0.0155553
0.00140081
0.0155522
0.00300888
0.0155435
0.00461497
0.0155275
0.00621948
0.0155019
0.00781943
0.015465
0.00941462
0.0154159
0.011002
0.0153541
0.0125819
0.015276
0.0141546
0.01516
0.0157163
0.0150614
0.0172642
0.0149507
0.0187983
0.0148281
0.0203155
0.0146937
0.0218158
0.0145477
0.0232961
0.0143901
0.0247562
0.0142211
0.0261929
0.0140408
0.0276059
0.0138493
0.0289918
0.0136467
0.0303501
0.0134331
0.0316774
0.0132086
0.032973
0.0129735
0.0342332
0.0127278
0.0354571
0.0124718
0.0366411
0.0122057
0.0377838
0.0119298
0.0388816
0.0116443
0.0399328
0.0113497
0.0409338
0.0110463
0.0418827
0.0107345
0.0427758
0.0104149
0.0436112
0.0100881
0.0443852
0.00975458
0.0450963
0.0094152
0.0457407
0.00907073
0.0463178
0.00872204
0.0468239
0.0083701
0.0472599
0.00801596
0.0476227
0.00765931
0.0479162
0.00730061
0.048136
0.00694711
0.0482873
0.00659611
0.0483681
0.00624884
0.0483853
0.00590656
0.0483379
0.00557043
0.0482342
0.00524154
0.0480742
0.00492079
0.0478676
0.00460891
0.0476149
0.00430639
0.0473262
0.00401358
0.0470019
0.00373072
0.0466514
0.00345798
0.0462746
0.00319543
0.0458801
0.0029431
0.0454675
0.00270095
0.0450447
0.00246886
0.044611
0.00224666
0.0441739
0.00203413
0.0437324
0.00183103
0.0432931
0.0016371
0.0428549
0.00145204
0.0424238
0.00127556
0.0419986
0.00110732
0.0415847
0.000946939
0.0411812
0.00079403
0.0407929
0.000648167
0.040419
0.000508905
0.0400636
0.000375779
0.0397264
0.000248317
0.0394104
0.000126002
0.0391157
8.29741e-06
0.0388444
-0.000105348
0.0385967
-0.000215549
0.0383739
-0.000322916
0.038176
-0.000428155
0.0380034
-0.000531993
-0.000633289
0.0378567
-0.0317372
0.0118073
0.0329131
-0.030528
0.0120075
-0.0292872
0.0122013
-0.028017
0.0123887
-0.0267189
0.0125693
-0.025395
0.0127426
-0.0240469
0.0129085
-0.0226765
0.0130665
-0.0212852
0.0132163
-0.0198752
0.0133576
-0.0184367
0.013379
-0.0169802
0.0134772
-0.0155081
0.0135786
-0.0140222
0.0136695
-0.0125234
0.0137496
-0.0110136
0.0138187
-0.00949367
0.0138767
-0.00796577
0.0139236
-0.00643081
0.0139596
-0.00489138
0.0139851
-0.00334817
0.014001
-0.00180356
0.0140085
-0.000256881
0.0140095
0.00128951
0.014006
0.00283571
0.0139982
0.00437939
0.013984
0.00592087
0.0139614
0.00745685
0.0139292
0.00898733
0.0138864
0.0105089
0.0138327
0.0120222
0.0137637
0.0135273
0.0136551
0.0150207
0.013569
0.0164994
0.0134722
0.0179637
0.0133648
0.0194104
0.0132472
0.0208399
0.0131193
0.0222488
0.0129814
0.0236374
0.0128337
0.0250022
0.0126762
0.0263435
0.0125092
0.0276576
0.0123328
0.0289446
0.0121472
0.0302011
0.0119525
0.0314267
0.011749
0.032618
0.0115368
0.0337746
0.0113163
0.0348932
0.0110876
0.0359731
0.010851
0.0370109
0.0106069
0.0380061
0.0103557
0.0389552
0.0100976
0.0398577
0.00983315
0.0407103
0.00956279
0.0415124
0.009287
0.0422611
0.00900634
0.042956
0.00872138
0.0435945
0.00843277
0.0441766
0.00814114
0.0447
0.00784723
0.0451656
0.00755176
0.0455718
0.00725357
0.0459217
0.0069523
0.0462119
0.00665717
0.0464463
0.00636355
0.046623
0.00607222
0.0467474
0.00578393
0.0468182
0.00549935
0.0468423
0.00521913
0.0468189
0.00494382
0.0467554
0.00467394
0.0466513
0.0044099
0.0465143
0.0041521
0.0463434
0.00390082
0.0461465
0.00365632
0.0459224
0.00341873
0.0456786
0.00318819
0.045414
0.00296471
0.0451357
0.00274831
0.0448426
0.00253894
0.0445413
0.00233655
0.0442305
0.00214103
0.0439163
0.00195226
0.0435976
0.00177006
0.0432798
0.00159425
0.0429618
0.00142458
0.0426487
0.00126082
0.0423394
0.00110267
0.0420383
0.00094986
0.0417446
0.000802058
0.0414619
0.000658944
0.0411897
0.000520151
0.0409307
0.000385317
0.0406847
0.000254035
0.0404537
0.000125914
0.0402376
5.13536e-07
0.0400374
-0.00012258
0.0398533
-0.000243839
0.0396851
-0.000363749
-0.000481581
0.0395336
-0.0303998
0.0106851
0.031522
-0.0292457
0.0108533
-0.0280612
0.0110169
-0.0268483
0.0111758
-0.0256085
0.0113295
-0.0243436
0.0114777
-0.0230551
0.0116201
-0.0217448
0.0117562
-0.0204141
0.0118857
-0.0190649
0.0120083
-0.0176882
0.0120025
-0.016294
0.0120829
-0.0148845
0.0121694
-0.0134616
0.0122466
-0.0120264
0.0123146
-0.010581
0.0123733
-0.00912643
0.0124225
-0.00766517
0.0124624
-0.00619834
0.0124932
-0.00472871
0.0125154
-0.00325698
0.0125298
-0.00178565
0.0125372
-0.000314186
0.0125387
0.00115645
0.0125352
0.00262848
0.0125269
0.00409957
0.0125127
0.00557012
0.0124916
0.00703655
0.0124625
0.00849892
0.0124248
0.00995336
0.012378
0.0114005
0.0123173
0.0128398
0.0122155
0.0142682
0.0121414
0.0156819
0.0120582
0.0170816
0.0119659
0.0184637
0.0118647
0.0198289
0.0117549
0.0211735
0.0116365
0.0224982
0.0115097
0.0237994
0.0113747
0.0250777
0.0112317
0.0263294
0.0110808
0.0275551
0.0109222
0.0287511
0.0107562
0.0299179
0.0105829
0.031052
0.0104025
0.0321536
0.0102153
0.0332193
0.0100216
0.0342495
0.00982152
0.0352407
0.00961547
0.0361934
0.00940371
0.0371041
0.00918661
0.0379734
0.0089645
0.0387981
0.00873777
0.0395789
0.00850682
0.0403127
0.00827209
0.0410007
0.008034
0.0416399
0.00779303
0.0422321
0.00754966
0.0427743
0.0073044
0.043269
0.00705775
0.0437141
0.00680771
0.0441139
0.00655325
0.0444643
0.0063059
0.0447695
0.00605917
0.0450272
0.00581357
0.0452423
0.00556959
0.0454129
0.00532769
0.0455445
0.00508829
0.0456354
0.00485182
0.0456915
0.00461863
0.0457112
0.00438904
0.0457007
0.00416336
0.0456585
0.00394181
0.0455909
0.00372461
0.0454966
0.0035119
0.0453816
0.00330382
0.0452448
0.00310046
0.0450918
0.00290189
0.0449216
0.00270813
0.0447395
0.0025192
0.0445445
0.00233506
0.0443416
0.00215566
0.0441299
0.00198091
0.0439139
0.0018107
0.0436928
0.00164491
0.0434706
0.00148338
0.0432466
0.00132595
0.0430244
0.00117243
0.0428033
0.00102261
0.0425862
0.000876276
0.0423727
0.000733186
0.0421651
0.000593093
0.0419631
0.000455725
0.0417682
0.000320814
0.0415805
0.000188063
0.0414008
5.72205e-05
0.0412289
-7.20452e-05
0.0410652
-0.000199999
-0.000326132
0.0409097
-0.0291428
0.00960817
0.0302198
-0.0280366
0.00974705
-0.0269026
0.009883
-0.0257422
0.0100155
-0.0245568
0.0101442
-0.0233478
0.0102687
-0.0221165
0.0103888
-0.0208644
0.0105041
-0.019593
0.0106143
-0.0183037
0.0107191
-0.0169886
0.0106875
-0.0156567
0.010751
-0.0143103
0.0108231
-0.0129512
0.0108874
-0.0115804
0.010944
-0.0101999
0.0109928
-0.00881094
0.0110337
-0.00741572
0.0110671
-0.0060153
0.0110931
-0.00461204
0.0111121
-0.00320644
0.0111246
-0.00180059
0.0111312
-0.000394014
0.0111325
0.00101175
0.0111292
0.00241794
0.0111212
0.00382235
0.011108
0.00522553
0.011089
0.00662436
0.0110634
0.00801906
0.0110307
0.00940604
0.0109906
0.010786
0.0109379
0.0121584
0.0108427
0.0135202
0.0107802
0.0148679
0.0107101
0.0162021
0.0106324
0.0175191
0.0105472
0.0188199
0.0104548
0.0201008
0.0103551
0.0213628
0.0102485
0.0226021
0.0101349
0.0238198
0.0100147
0.0250122
0.00988794
0.0261803
0.00975483
0.0273205
0.00961555
0.0284339
0.00947028
0.0295167
0.00931924
0.0305702
0.00916263
0.0315906
0.00900067
0.0325793
0.00883359
0.0335326
0.00866166
0.034452
0.00848511
0.0353338
0.00830424
0.0361798
0.00811931
0.0369864
0.00793064
0.0377555
0.00773853
0.0384836
0.0075433
0.0391732
0.00734528
0.0398207
0.00714482
0.0404289
0.00694226
0.0409946
0.00673796
0.0415209
0.00653228
0.0420053
0.00632243
0.0424527
0.00610678
0.0428581
0.00589946
0.0432261
0.00569212
0.0435535
0.00548511
0.0438453
0.00527875
0.0440985
0.00507338
0.0443184
0.00486928
0.0445024
0.00466673
0.044656
0.004466
0.0447766
0.00426731
0.0448699
0.00407088
0.0449338
0.00387689
0.0449737
0.00368553
0.0449877
0.00349694
0.044981
0.00331124
0.044952
0.00312853
0.0449057
0.00294889
0.0448406
0.00277238
0.0447614
0.00259904
0.0446669
0.00242886
0.0445613
0.00226184
0.0444435
0.00209796
0.0443175
0.00193717
0.0441825
0.00177941
0.0440417
0.0016246
0.0438945
0.00147265
0.0437439
0.00132344
0.0435893
0.00117687
0.0434331
0.00103279
0.043275
0.000891056
0.0431168
0.000751519
0.0429584
0.000614012
0.042801
0.000478362
0.0426448
0.000344392
0.04249
0.000211922
0.0423373
8.07435e-05
0.0421865
-4.92928e-05
-0.000178084
0.0420387
-0.0278689
0.00857812
0.0288989
-0.026812
0.00869025
-0.0257295
0.00880043
-0.0246223
0.00890837
-0.0234919
0.00901372
-0.0223393
0.0091162
-0.021166
0.0092155
-0.0199731
0.00931132
-0.0187622
0.00940336
-0.0175344
0.00949133
-0.0162824
0.0094355
-0.0150145
0.00948319
-0.0137332
0.00954181
-0.0124399
0.00959407
-0.0111357
0.00963997
-0.00982255
0.00967952
-0.00850146
0.00971279
-0.00717434
0.00973992
-0.00584221
0.00976112
-0.00450694
0.00977667
-0.00316904
0.00978692
-0.00183029
0.00979224
-0.000490492
0.00979307
0.000848695
0.0097898
0.00218784
0.00978249
0.00352481
0.00977079
0.00485999
0.00975423
0.00619068
0.00973232
0.00751713
0.00970474
0.00883619
0.00967119
0.0101486
0.00962609
0.0114541
0.0095368
0.0127498
0.00948514
0.0140322
0.00942722
0.0153021
0.00936308
0.0165561
0.00929279
0.0177951
0.00921645
0.0190155
0.00913418
0.0202186
0.00904608
0.0214007
0.00895231
0.022563
0.008853
0.0237022
0.00874828
0.0248194
0.00863833
0.0259111
0.00852329
0.0269788
0.00840333
0.0280188
0.00827863
0.0290328
0.00814937
0.0300171
0.00801572
0.0309736
0.00787788
0.0318986
0.00773604
0.0327941
0.00759043
0.0336563
0.00744124
0.0344878
0.0072887
0.0352846
0.00713304
0.0360495
0.00697448
0.0367788
0.00681327
0.0374753
0.00664966
0.0381353
0.00648388
0.0387623
0.0063162
0.0393525
0.00614685
0.0399096
0.0059761
0.0404307
0.00580038
0.0409209
0.0056175
0.041375
0.00544437
0.0417973
0.00527076
0.0421845
0.00509691
0.0425412
0.00492305
0.0428641
0.00474939
0.0431582
0.00457615
0.0434204
0.00440352
0.0436556
0.0042317
0.0438611
0.00406085
0.0440417
0.00389115
0.0441949
0.00372274
0.0443255
0.00355576
0.0444313
0.00339033
0.0445167
0.00322656
0.0445799
0.00306453
0.0446252
0.00290433
0.0446509
0.00274601
0.0446609
0.00258962
0.044654
0.00243519
0.0446337
0.00228273
0.0445988
0.00213227
0.0445527
0.00198378
0.0444944
0.00183726
0.0444268
0.00169266
0.0443491
0.00154995
0.0442638
0.00140909
0.0441704
0.00126999
0.0440709
0.00113261
0.043965
0.000996849
0.043854
0.000862638
0.0437381
0.000729879
0.0436181
0.000598478
0.0434942
0.000468331
0.0433668
0.000339344
0.0432362
0.000211381
0.0431025
8.44104e-05
-4.12124e-05
0.0429657
-0.0268489
0.00757244
0.0278547
-0.0258199
0.00766129
-0.024769
0.0077496
-0.0236971
0.00783654
-0.0226052
0.00792183
-0.0214941
0.00800521
-0.0203651
0.00808646
-0.019219
0.00816531
-0.0180572
0.00824153
-0.0168807
0.00831489
-0.0156828
0.00823755
-0.0144709
0.00827136
-0.0132473
0.00831828
-0.0120133
0.00836006
-0.01077
0.00839672
-0.00951887
0.00842832
-0.00826092
0.00845492
-0.00699771
0.00847665
-0.00573015
0.00849367
-0.00445975
0.00850616
-0.003187
0.00851434
-0.00191337
0.00851845
-0.000638861
0.00851878
0.000635006
0.0085157
0.00190834
0.00850944
0.00317919
0.00849966
0.00444787
0.00848586
0.00571214
0.00846773
0.00697223
0.00844502
0.0082255
0.00841756
0.00947263
0.00837937
0.0107139
0.00829513
0.0119462
0.00825324
0.0131667
0.00820633
0.0143759
0.00815441
0.0155707
0.00809753
0.0167519
0.00803573
0.0179165
0.00796911
0.0190655
0.00789775
0.0201955
0.00782174
0.0213079
0.00774121
0.0223994
0.00765626
0.0234714
0.00756701
0.0245206
0.00747359
0.0255485
0.00737614
0.0265517
0.0072748
0.0275322
0.0071697
0.0284863
0.007061
0.0294161
0.00694884
0.0303181
0.00683338
0.0311946
0.00671477
0.032042
0.00659319
0.0328628
0.00646878
0.0336534
0.00634173
0.0344166
0.0062122
0.0351487
0.00608037
0.035853
0.00594641
0.0365256
0.0058105
0.03717
0.00567282
0.0377825
0.00553354
0.0383667
0.00539285
0.0389199
0.00524641
0.0394469
0.00509148
0.0399425
0.00494794
0.0404107
0.00480362
0.0408482
0.00465868
0.041259
0.00451329
0.04164
0.0043676
0.0419954
0.00422176
0.0423222
0.00407592
0.0426247
0.00393022
0.0429001
0.00378479
0.0431524
0.00363974
0.0433793
0.0034952
0.0435848
0.00335126
0.0437665
0.00320802
0.0439284
0.00306558
0.0440684
0.00292399
0.0441902
0.00278333
0.0442921
0.00264367
0.0443775
0.00250504
0.0444448
0.00236749
0.0444972
0.00223105
0.0445334
0.00209574
0.0445563
0.00196158
0.0445648
0.00182857
0.0445613
0.00169672
0.0445451
0.00156601
0.0445183
0.00143644
0.0444803
0.00130797
0.0444328
0.00118058
0.0443755
0.00105424
0.0443096
0.000928907
0.0442352
0.000804539
0.0441529
0.000681091
0.0440631
0.000558513
0.0439658
0.000436755
0.0438618
0.000315751
0.0437507
0.000195503
7.57697e-05
0.043634
-0.0256277
0.00661265
0.0265877
-0.0246472
0.00668089
-0.0236462
0.00674867
-0.0226256
0.00681605
-0.0215865
0.00688274
-0.0205297
0.00694856
-0.0194565
0.00701327
-0.0183677
0.00707669
-0.0172647
0.00713857
-0.0161485
0.00719874
-0.0150117
0.00710074
-0.0138622
0.00712195
-0.0127023
0.00715846
-0.0115332
0.00719094
-0.0103559
0.00721944
-0.00917159
0.007244
-0.00798132
0.00726469
-0.00678632
0.00728161
-0.00558744
0.00729485
-0.00438594
0.00730455
-0.00318234
0.00731084
-0.00197796
0.00731391
-0.000772962
0.00731392
0.000431426
0.00731106
0.00163578
0.00730529
0.00283857
0.00729656
0.00403991
0.00728475
0.00523767
0.0072696
0.00643207
0.00725092
0.00762064
0.00722858
0.00880419
0.00719616
0.00998335
0.0071155
0.011155
0.00708198
0.0123163
0.00704454
0.013468
0.00700317
0.0146071
0.00695789
0.0157346
0.00690873
0.0168474
0.00685574
0.0179467
0.00679896
0.0190293
0.00673847
0.0200968
0.00667435
0.0211457
0.00660666
0.0221778
0.0065355
0.0231897
0.00646097
0.0241834
0.00638315
0.0251552
0.00630216
0.0261076
0.0062181
0.0270367
0.00613108
0.027945
0.00604122
0.0288289
0.00594863
0.0296911
0.00585342
0.0305277
0.00575571
0.0313417
0.00565563
0.0321292
0.0055533
0.0328934
0.00544883
0.0336305
0.00534236
0.0343437
0.00523402
0.0350294
0.00512391
0.0356909
0.00501219
0.0363245
0.00489896
0.0369339
0.00478435
0.0375161
0.00466328
0.038076
0.00453245
0.0386082
0.00441484
0.0391164
0.00429628
0.0395973
0.00417689
0.0400546
0.00405679
0.0404853
0.00393608
0.040893
0.00381489
0.0412748
0.0036933
0.0416344
0.00357142
0.0419691
0.00344935
0.0422824
0.00332718
0.0425719
0.00320498
0.0428411
0.00308284
0.0430876
0.00296083
0.0433148
0.00283902
0.0435207
0.00271747
0.0437085
0.00259625
0.0438762
0.0024754
0.0440268
0.00235497
0.0441589
0.002235
0.0442749
0.00211554
0.0443737
0.0019966
0.0444575
0.00187821
0.0445253
0.0017604
0.0445793
0.00164319
0.0446185
0.00152657
0.0446447
0.00141056
0.0446574
0.00129517
0.0446578
0.00118039
0.0446458
0.00106622
0.0446222
0.000952646
0.0445871
0.000839668
0.0445411
0.000727272
0.0444842
0.000615445
0.0444168
0.000504177
0.0443392
0.000393439
0.0442514
0.000283271
0.000173971
0.0441533
-0.0251494
0.00565605
0.0261062
-0.0241746
0.00570628
-0.023184
0.00575814
-0.022178
0.00581024
-0.0211576
0.00586235
-0.0201232
0.0059143
-0.0190758
0.00596595
-0.0180162
0.00601715
-0.0169453
0.00606776
-0.0158642
0.00611769
-0.0147668
0.00600336
-0.0136595
0.00601467
-0.0125439
0.00604297
-0.0114211
0.00606813
-0.0102918
0.00609017
-0.00915689
0.00610915
-0.00801723
0.00612511
-0.00687375
0.00613812
-0.00572706
0.00614825
-0.00457814
0.00615559
-0.00342736
0.00616022
-0.0022758
0.00616226
-0.00112353
0.00616184
2.82738e-05
0.00615911
0.00117918
0.00615463
0.00232723
0.00614833
0.00347271
0.00613955
0.00461399
0.00612808
0.00575145
0.0061138
0.00688312
0.00609663
0.00800988
0.00606977
0.00913273
0.00599232
0.0102488
0.00596632
0.0113557
0.00593726
0.0124542
0.00590515
0.0135417
0.00587
0.0146191
0.00583181
0.0156838
0.00579062
0.0167368
0.00574646
0.0177754
0.00569938
0.018801
0.00564942
0.0198104
0.00559664
0.0208055
0.0055411
0.021783
0.00548286
0.0227449
0.005422
0.0236878
0.00535859
0.0246139
0.0052927
0.02552
0.00522441
0.0264082
0.0051538
0.0272752
0.00508095
0.0281234
0.00500595
0.0289496
0.00492887
0.0297562
0.00484982
0.0305399
0.00476887
0.0313035
0.0046861
0.0320435
0.00460162
0.0327629
0.0045155
0.0334582
0.00442783
0.0341326
0.00433871
0.0347826
0.00424821
0.0354114
0.00415643
0.0360165
0.00405751
0.0366022
0.00394761
0.0371634
0.00385291
0.0377034
0.00375719
0.038219
0.00366056
0.0387136
0.00356308
0.0391842
0.00346484
0.039634
0.00336591
0.0400603
0.00326637
0.0404663
0.00316628
0.0408494
0.00306572
0.0412125
0.00296474
0.0415536
0.00286341
0.0418754
0.0027618
0.0421758
0.00265995
0.0424576
0.00255793
0.0427189
0.00245577
0.0429622
0.00235354
0.043186
0.00225127
0.0433926
0.002149
0.0435805
0.00204677
0.043752
0.00194462
0.0439058
0.00184258
0.0440438
0.00174067
0.0441651
0.00163893
0.0442713
0.00153738
0.0443618
0.00143603
0.0444378
0.00133491
0.044499
0.00123403