/*--------------------------------*- C++ -*----------------------------------*\
  =========                 |
  \\      /  F ield         | OpenFOAM: The Open Source CFD Toolbox
   \\    /   O peration     | Website:  https://openfoam.org
    \\  /    A nd           | Version:  6.0
     \\/     M anipulation  |
\*---------------------------------------------------------------------------*/
FoamFile
{
    version     2.0;
    format      ascii;
    class       volScalarField;
    location    "4";
    object      p;
}
// * * * * * * * * * * * * * * * * * * * * * * * * * * * * * * * * * * * * * //

dimensions      [0 2 -2 0 0 0 0];

internalField   nonuniform List<scalar> 
15000
(
0.77436
0.776448
0.780409
0.786186
0.793141
0.801072
0.80762
0.813967
0.813188
0.809636
0.766701
0.642804
0.774133
0.77449
0.775111
0.776174
0.777339
0.778765
0.778088
0.776833
0.766414
0.751681
0.681486
0.500769
0.774205
0.775289
0.777298
0.7803
0.783838
0.787981
0.790314
0.792237
0.785546
0.774981
0.713669
0.572399
0.774262
0.775966
0.77915
0.783757
0.789186
0.795402
0.799927
0.804012
0.799697
0.791591
0.735967
0.622913
0.774227
0.775862
0.778902
0.783273
0.788324
0.794035
0.797892
0.801142
0.795535
0.785783
0.726637
0.614676
0.774167
0.775584
0.778214
0.782007
0.786287
0.791088
0.793877
0.795944
0.788702
0.777046
0.713846
0.600258
0.774119
0.775455
0.777943
0.781551
0.78556
0.790021
0.792379
0.793948
0.785932
0.773367
0.708508
0.598882
0.774076
0.775395
0.777863
0.781458
0.785407
0.789752
0.791911
0.793197
0.784671
0.771468
0.705788
0.601339
0.774026
0.775301
0.777697
0.781205
0.785011
0.789145
0.790988
0.791859
0.782677
0.768689
0.702072
0.601355
0.773968
0.775173
0.777447
0.780795
0.784385
0.788235
0.789688
0.790072
0.780172
0.765358
0.69788
0.600102
0.773907
0.775042
0.777191
0.780374
0.783751
0.787337
0.788429
0.78836
0.777805
0.762251
0.69421
0.599336
0.773843
0.774918
0.776956
0.779984
0.783168
0.786518
0.787289
0.786811
0.775668
0.759456
0.691113
0.599095
0.773776
0.774799
0.776733
0.779607
0.782596
0.785713
0.786174
0.785305
0.773612
0.756786
0.688319
0.598948
0.773707
0.774682
0.776518
0.779238
0.782023
0.784898
0.785048
0.783792
0.771577
0.754177
0.685738
0.598803
0.773634
0.774568
0.776313
0.778885
0.781467
0.784095
0.783934
0.7823
0.769593
0.751663
0.683397
0.598743
0.773559
0.774455
0.776118
0.778554
0.780941
0.783326
0.78286
0.780856
0.76769
0.749273
0.681307
0.598803
0.77348
0.774341
0.775927
0.778239
0.780442
0.78259
0.781826
0.779461
0.765863
0.746998
0.67944
0.598956
0.773398
0.774224
0.775734
0.777929
0.779956
0.781875
0.78082
0.778102
0.764097
0.744817
0.677761
0.599177
0.773313
0.7741
0.775533
0.777613
0.77947
0.781166
0.779827
0.776764
0.762376
0.742714
0.676242
0.599454
0.773224
0.77397
0.775321
0.777284
0.778974
0.780452
0.778837
0.775439
0.760692
0.740681
0.674872
0.599795
0.773132
0.773833
0.7751
0.776941
0.778464
0.779728
0.777845
0.774123
0.759045
0.738719
0.673642
0.600207
0.773037
0.773693
0.774873
0.776588
0.777944
0.778997
0.776857
0.772823
0.757439
0.736834
0.672555
0.600702
0.772939
0.773549
0.774643
0.776232
0.777419
0.778266
0.775876
0.771543
0.755883
0.735032
0.671607
0.601285
0.772838
0.773404
0.774415
0.775878
0.7769
0.777542
0.774911
0.770293
0.754381
0.733317
0.670794
0.601956
0.772735
0.773259
0.77419
0.775531
0.776389
0.77683
0.773966
0.769073
0.752934
0.731688
0.670107
0.602709
0.77263
0.773113
0.773968
0.775193
0.775892
0.776136
0.773045
0.767887
0.751543
0.730139
0.669535
0.603537
0.772523
0.772966
0.773749
0.774862
0.775408
0.775458
0.772145
0.766732
0.750202
0.728665
0.669064
0.604431
0.772413
0.772817
0.773529
0.774536
0.774933
0.774794
0.771267
0.765606
0.748908
0.72726
0.668684
0.605386
0.772302
0.772665
0.773306
0.774209
0.774463
0.774139
0.770403
0.764504
0.747655
0.725915
0.668385
0.606395
0.772189
0.77251
0.773079
0.773878
0.773992
0.773489
0.769552
0.763422
0.74644
0.72463
0.668161
0.607457
0.772074
0.772351
0.772846
0.773541
0.773517
0.772838
0.768708
0.762358
0.74526
0.723399
0.668004
0.608568
0.771958
0.772191
0.772609
0.773198
0.773038
0.772187
0.767871
0.761312
0.744116
0.722224
0.667914
0.609729
0.771841
0.772029
0.77237
0.772852
0.772555
0.771537
0.767042
0.760284
0.743008
0.721104
0.667886
0.610936
0.771723
0.771868
0.772132
0.772505
0.772073
0.770891
0.766225
0.75928
0.74194
0.720043
0.667921
0.612189
0.771604
0.771707
0.771898
0.772163
0.771596
0.770253
0.765424
0.7583
0.740914
0.71904
0.668013
0.613484
0.771484
0.771548
0.771668
0.771828
0.771129
0.769628
0.764642
0.75735
0.739931
0.718096
0.66816
0.614816
0.771363
0.77139
0.771443
0.771501
0.770675
0.76902
0.763882
0.756429
0.738991
0.717207
0.668356
0.616181
0.771241
0.771234
0.771223
0.771184
0.770233
0.768428
0.763144
0.755539
0.738092
0.716371
0.668597
0.617575
0.771118
0.771078
0.771006
0.770873
0.769802
0.76785
0.762426
0.754675
0.737231
0.715584
0.668875
0.61899
0.770995
0.770922
0.77079
0.770567
0.76938
0.767286
0.761726
0.753836
0.736404
0.714842
0.669189
0.620427
0.77087
0.770764
0.770573
0.770262
0.768962
0.766729
0.76104
0.753018
0.735609
0.714141
0.669531
0.621879
0.770744
0.770606
0.770356
0.769958
0.768547
0.76618
0.760367
0.75222
0.734845
0.713481
0.669903
0.623345
0.770617
0.770445
0.770136
0.769651
0.768133
0.765635
0.759703
0.75144
0.734108
0.712859
0.670299
0.624824
0.770489
0.770284
0.769916
0.769345
0.767721
0.765095
0.759052
0.750679
0.733401
0.712276
0.670721
0.626314
0.770361
0.770122
0.769695
0.769038
0.767311
0.764561
0.758411
0.749938
0.732722
0.711731
0.671165
0.627811
0.770232
0.76996
0.769474
0.768734
0.766905
0.764036
0.757785
0.749217
0.732073
0.711224
0.671632
0.629315
0.770103
0.769798
0.769255
0.768433
0.766505
0.763519
0.757172
0.748517
0.731453
0.710754
0.672117
0.630823
0.769973
0.769636
0.769038
0.768136
0.766112
0.763014
0.756576
0.74784
0.730862
0.710319
0.672621
0.632332
0.769844
0.769475
0.768823
0.767843
0.765726
0.762518
0.755994
0.747182
0.730297
0.709917
0.673139
0.633841
0.769714
0.769315
0.76861
0.767555
0.765348
0.762034
0.755427
0.746545
0.729759
0.709546
0.673672
0.635347
0.769585
0.769155
0.768398
0.767268
0.764974
0.761557
0.754873
0.745926
0.729245
0.709205
0.674214
0.636848
0.769456
0.768995
0.768187
0.766985
0.764606
0.761089
0.754332
0.745325
0.728753
0.708892
0.674768
0.638345
0.769327
0.768837
0.767977
0.766703
0.76424
0.760627
0.7538
0.74474
0.728283
0.708605
0.67533
0.639834
0.769199
0.768679
0.767769
0.766423
0.763879
0.760172
0.75328
0.744171
0.727834
0.708346
0.675901
0.641317
0.769072
0.768522
0.767561
0.766146
0.763521
0.759723
0.75277
0.743618
0.727407
0.708111
0.67648
0.64279
0.768946
0.768367
0.767357
0.765872
0.763169
0.759282
0.752273
0.743083
0.727001
0.707903
0.677067
0.644255
0.76882
0.768214
0.767155
0.765602
0.762823
0.758851
0.751788
0.742565
0.726617
0.70772
0.677661
0.645709
0.768696
0.768063
0.766957
0.765338
0.762485
0.75843
0.751318
0.742066
0.726255
0.707562
0.678261
0.647152
0.768572
0.767914
0.766763
0.765079
0.762154
0.758019
0.750861
0.741585
0.725913
0.707426
0.678865
0.648582
0.76845
0.767768
0.766573
0.764827
0.761833
0.75762
0.750419
0.741122
0.725592
0.707313
0.679473
0.649999
0.768329
0.767623
0.766386
0.76458
0.761518
0.757231
0.74999
0.740675
0.725289
0.70722
0.680084
0.651402
0.76821
0.76748
0.766203
0.764338
0.761211
0.756851
0.749574
0.740246
0.725005
0.707146
0.680697
0.65279
0.768091
0.767339
0.766021
0.7641
0.760909
0.75648
0.749169
0.73983
0.724736
0.70709
0.68131
0.654161
0.767974
0.767199
0.765843
0.763865
0.760613
0.756117
0.748775
0.739428
0.724483
0.707051
0.681924
0.655518
0.767858
0.767061
0.765665
0.763633
0.760322
0.755761
0.748391
0.73904
0.724245
0.707027
0.682537
0.656857
0.767743
0.766925
0.765491
0.763405
0.760035
0.755412
0.748016
0.738665
0.724021
0.70702
0.68315
0.65818
0.76763
0.76679
0.765318
0.763179
0.759753
0.755069
0.747651
0.738303
0.723811
0.707026
0.683761
0.659485
0.767519
0.766657
0.765148
0.762957
0.759476
0.754735
0.747297
0.737954
0.723616
0.707048
0.684372
0.660773
0.767409
0.766526
0.76498
0.762738
0.759204
0.754408
0.746952
0.737618
0.723433
0.707082
0.684981
0.662043
0.767302
0.766397
0.764815
0.762525
0.758939
0.754089
0.746618
0.737295
0.723264
0.70713
0.685588
0.663296
0.767196
0.76627
0.764653
0.762315
0.758679
0.753778
0.746294
0.736984
0.723107
0.70719
0.686191
0.664529
0.767093
0.766147
0.764495
0.76211
0.758426
0.753476
0.745981
0.736687
0.722963
0.707261
0.686792
0.665745
0.766991
0.766025
0.76434
0.761908
0.758177
0.75318
0.745676
0.736399
0.722829
0.707343
0.687389
0.666941
0.766893
0.765907
0.764188
0.761712
0.757935
0.752893
0.745382
0.736125
0.722707
0.707435
0.687983
0.668119
0.766796
0.765791
0.76404
0.761519
0.757698
0.752612
0.745095
0.73586
0.722595
0.707536
0.688572
0.669277
0.766702
0.765678
0.763895
0.761331
0.757467
0.752339
0.744818
0.735607
0.722494
0.707647
0.689158
0.670417
0.76661
0.765567
0.763753
0.761147
0.757241
0.752073
0.74455
0.735364
0.722402
0.707766
0.689738
0.671538
0.766522
0.765461
0.763616
0.760969
0.757022
0.751815
0.744291
0.735132
0.722321
0.707895
0.690316
0.67264
0.766435
0.765357
0.763482
0.760795
0.756808
0.751565
0.744041
0.734911
0.722248
0.70803
0.690887
0.673722
0.766352
0.765257
0.763353
0.760628
0.756602
0.751323
0.743801
0.734701
0.722187
0.708175
0.691455
0.674787
0.766271
0.765159
0.763227
0.760464
0.756401
0.751089
0.74357
0.734502
0.722133
0.708325
0.692016
0.675831
0.766193
0.765066
0.763107
0.760308
0.756208
0.750864
0.743349
0.734313
0.722089
0.708483
0.692573
0.676857
0.766118
0.764975
0.76299
0.760155
0.756021
0.750646
0.743136
0.734134
0.722053
0.708645
0.693123
0.677862
0.766046
0.764888
0.762877
0.760009
0.755841
0.750436
0.742933
0.733965
0.722025
0.708814
0.693668
0.67885
0.765976
0.764804
0.762768
0.759867
0.755665
0.750233
0.742736
0.733803
0.722003
0.708986
0.694205
0.679817
0.765909
0.764724
0.762664
0.75973
0.755497
0.750038
0.742548
0.733652
0.721989
0.709164
0.694737
0.680766
0.765846
0.764646
0.762562
0.759597
0.755332
0.749848
0.742367
0.733508
0.72198
0.709344
0.695261
0.681694
0.765785
0.764573
0.762465
0.75947
0.755174
0.749666
0.742194
0.733373
0.721979
0.709529
0.695779
0.682605
0.765727
0.764501
0.762371
0.759346
0.755021
0.749489
0.742027
0.733244
0.721982
0.709715
0.696288
0.683496
0.765673
0.764435
0.762282
0.759227
0.754873
0.74932
0.741869
0.733125
0.721992
0.709905
0.696792
0.684369
0.765621
0.764371
0.762195
0.759112
0.754731
0.749157
0.741716
0.733011
0.722005
0.710097
0.697287
0.685222
0.765573
0.764312
0.762114
0.759003
0.754595
0.749002
0.741572
0.732907
0.722026
0.710292
0.697776
0.686058
0.765528
0.764255
0.762036
0.758898
0.754464
0.748852
0.741434
0.732808
0.72205
0.710487
0.698255
0.686873
0.765487
0.764203
0.761964
0.758799
0.75434
0.74871
0.741304
0.732718
0.72208
0.710684
0.698729
0.687672
0.765449
0.764155
0.761895
0.758705
0.754221
0.748574
0.74118
0.732634
0.722113
0.710882
0.699192
0.688451
0.765415
0.764112
0.761831
0.758617
0.754109
0.748445
0.741064
0.732557
0.722151
0.711081
0.69965
0.689213
0.765384
0.764071
0.761772
0.758533
0.754002
0.748322
0.740953
0.732486
0.722191
0.711279
0.700097
0.689956
0.765358
0.764036
0.761718
0.758455
0.753902
0.748208
0.740851
0.732422
0.722237
0.711479
0.700539
0.690682
0.765335
0.764005
0.761668
0.758382
0.753807
0.748098
0.740753
0.732362
0.722285
0.711677
0.70097
0.691388
0.765316
0.763979
0.761623
0.758316
0.75372
0.747997
0.740664
0.73231
0.722337
0.711877
0.701395
0.692079
0.7653
0.763956
0.761583
0.758254
0.753638
0.7479
0.740579
0.732262
0.722391
0.712074
0.701809
0.69275
0.765289
0.763939
0.761549
0.758199
0.753563
0.747812
0.740502
0.732221
0.722449
0.712271
0.702217
0.693406
0.765282
0.763925
0.761519
0.758149
0.753494
0.747729
0.74043
0.732184
0.722508
0.712466
0.702614
0.694042
0.765279
0.763917
0.761495
0.758105
0.753432
0.747653
0.740365
0.732153
0.72257
0.712661
0.703004
0.694663
0.76528
0.763913
0.761475
0.758066
0.753374
0.747582
0.740303
0.732125
0.722633
0.712852
0.703383
0.695264
0.765286
0.763914
0.761461
0.758034
0.753324
0.747519
0.740249
0.732104
0.722699
0.713043
0.703756
0.695851
0.765296
0.763919
0.761451
0.758006
0.753279
0.747459
0.740199
0.732084
0.722764
0.713229
0.704117
0.696419
0.76531
0.76393
0.761447
0.757985
0.75324
0.747407
0.740155
0.73207
0.722832
0.713414
0.704471
0.696971
0.765329
0.763945
0.761447
0.757968
0.753206
0.747359
0.740113
0.732057
0.722899
0.713595
0.704814
0.697505
0.765352
0.763966
0.761454
0.757958
0.753179
0.747318
0.740078
0.73205
0.722968
0.713774
0.705149
0.698024
0.76538
0.76399
0.761465
0.757952
0.753155
0.74728
0.740046
0.732044
0.723036
0.713948
0.705473
0.698525
0.765413
0.764021
0.761482
0.757953
0.753139
0.747249
0.74002
0.732042
0.723106
0.714121
0.70579
0.699012
0.76545
0.764056
0.761503
0.757959
0.753127
0.747222
0.739996
0.732042
0.723173
0.714288
0.706095
0.69948
0.765493
0.764097
0.761531
0.757971
0.753122
0.747202
0.739978
0.732047
0.723243
0.714453
0.706393
0.699934
0.76554
0.764142
0.761564
0.757988
0.753121
0.747185
0.739963
0.732052
0.72331
0.714612
0.70668
0.70037
0.765593
0.764194
0.761603
0.758012
0.753127
0.747175
0.739953
0.732061
0.723379
0.714769
0.706959
0.700792
0.765651
0.764251
0.761647
0.758041
0.753138
0.747168
0.739946
0.732071
0.723446
0.71492
0.707226
0.701197
0.765714
0.764314
0.761698
0.758077
0.753155
0.747169
0.739944
0.732085
0.723513
0.715069
0.707486
0.701588
0.765783
0.764382
0.761754
0.758118
0.753178
0.747173
0.739944
0.732099
0.723578
0.71521
0.707734
0.701961
0.765857
0.764457
0.761818
0.758166
0.753207
0.747184
0.73995
0.732117
0.723643
0.715349
0.707974
0.70232
0.765937
0.764537
0.761886
0.75822
0.753241
0.747197
0.739958
0.732134
0.723705
0.715481
0.708202
0.702662
0.766023
0.764624
0.761962
0.758281
0.753282
0.747218
0.739971
0.732155
0.723768
0.71561
0.708423
0.702991
0.766114
0.764716
0.762042
0.758347
0.753327
0.747242
0.739985
0.732176
0.723827
0.715732
0.708631
0.703302
0.766212
0.764815
0.762131
0.75842
0.75338
0.747273
0.740005
0.7322
0.723886
0.71585
0.708832
0.7036
0.766315
0.76492
0.762225
0.758499
0.753437
0.747307
0.740026
0.732223
0.723941
0.715961
0.70902
0.703881
0.766424
0.765032
0.762326
0.758585
0.753502
0.747348
0.740052
0.732248
0.723996
0.716068
0.7092
0.704148
0.76654
0.765149
0.762433
0.758677
0.753571
0.747391
0.740079
0.732273
0.724046
0.716166
0.709367
0.704399
0.766662
0.765274
0.762548
0.758776
0.753647
0.747441
0.740111
0.732299
0.724096
0.716261
0.709527
0.704636
0.76679
0.765405
0.762669
0.758881
0.753728
0.747493
0.740144
0.732325
0.724141
0.716347
0.709673
0.704856
0.766925
0.765544
0.762798
0.758994
0.753816
0.747553
0.740181
0.732352
0.724185
0.716429
0.709811
0.705063
0.767066
0.765688
0.762932
0.759112
0.753908
0.747614
0.740218
0.732377
0.724224
0.716502
0.709937
0.705254
0.767214
0.765841
0.763075
0.759238
0.754008
0.747682
0.74026
0.732404
0.724262
0.71657
0.710054
0.705431
0.767369
0.765999
0.763224
0.75937
0.754112
0.747752
0.740302
0.732429
0.724294
0.71663
0.710157
0.705591
0.767531
0.766167
0.763381
0.75951
0.754224
0.747829
0.740348
0.732455
0.724324
0.716684
0.710252
0.705738
0.7677
0.76634
0.763545
0.759656
0.75434
0.747908
0.740395
0.732478
0.724349
0.716729
0.710334
0.705868
0.767876
0.766522
0.763718
0.75981
0.754464
0.747994
0.740445
0.732503
0.724371
0.716768
0.710407
0.705985
0.768059
0.766711
0.763897
0.759971
0.754593
0.748082
0.740495
0.732525
0.724388
0.716798
0.710467
0.706086
0.768251
0.766909
0.764086
0.76014
0.75473
0.748176
0.74055
0.732548
0.724402
0.716823
0.710517
0.706173
0.768449
0.767114
0.764281
0.760315
0.754871
0.748273
0.740604
0.732568
0.724409
0.716837
0.710554
0.706243
0.768656
0.767328
0.764486
0.7605
0.75502
0.748376
0.740661
0.732588
0.724414
0.716845
0.710581
0.7063
0.76887
0.76755
0.764698
0.760691
0.755174
0.748481
0.740718
0.732605
0.724412
0.716843
0.710594
0.70634
0.769093
0.767781
0.76492
0.760891
0.755336
0.748593
0.740779
0.732622
0.724407
0.716834
0.710598
0.706367
0.769323
0.76802
0.765149
0.761098
0.755503
0.748706
0.740839
0.732635
0.724395
0.716815
0.710588
0.706377
0.769563
0.768269
0.765389
0.761315
0.755679
0.748827
0.740902
0.732648
0.724379
0.716789
0.710567
0.706373
0.76981
0.768526
0.765636
0.761538
0.755859
0.748949
0.740964
0.732657
0.724355
0.716751
0.710532
0.706352
0.770067
0.768794
0.765894
0.761772
0.756048
0.749077
0.741029
0.732665
0.724327
0.716706
0.710487
0.706318
0.770332
0.769069
0.76616
0.762012
0.756242
0.749208
0.741093
0.732669
0.724291
0.71665
0.710427
0.706266
0.770607
0.769356
0.766437
0.762263
0.756445
0.749344
0.74116
0.732671
0.72425
0.716586
0.710356
0.7062
0.77089
0.769651
0.766722
0.762521
0.756653
0.749483
0.741224
0.732668
0.724201
0.716509
0.71027
0.706117
0.771184
0.769958
0.767019
0.76279
0.756869
0.749627
0.741291
0.732664
0.724146
0.716424
0.710173
0.706019
0.771487
0.770273
0.767324
0.763067
0.757091
0.749773
0.741357
0.732654
0.724082
0.716327
0.71006
0.705904
0.7718
0.770601
0.767642
0.763354
0.757322
0.749925
0.741424
0.732642
0.724012
0.716221
0.709935
0.705774
0.772123
0.770938
0.767968
0.76365
0.757558
0.750079
0.741488
0.732623
0.723932
0.716101
0.709795
0.705627
0.772457
0.771288
0.768308
0.763956
0.757803
0.750239
0.741555
0.732603
0.723846
0.715972
0.709643
0.705465
0.772801
0.771647
0.768656
0.764272
0.758054
0.7504
0.741618
0.732575
0.72375
0.715829
0.709474
0.705284
0.773157
0.77202
0.769018
0.764599
0.758314
0.750567
0.741683
0.732544
0.723646
0.715676
0.709293
0.705089
0.773523
0.772403
0.76939
0.764935
0.75858
0.750735
0.741745
0.732505
0.723531
0.715509
0.709095
0.704875
0.773901
0.772799
0.769776
0.765283
0.758856
0.750909
0.741807
0.732463
0.723408
0.715331
0.708883
0.704645
0.77429
0.773207
0.770172
0.76564
0.759137
0.751084
0.741866
0.732413
0.723274
0.715138
0.708655
0.704397
0.774692
0.773629
0.770583
0.76601
0.759428
0.751264
0.741925
0.732358
0.723131
0.714933
0.708412
0.704132
0.775106
0.774063
0.771005
0.76639
0.759725
0.751446
0.74198
0.732295
0.722975
0.714712
0.708152
0.703849
0.775533
0.774512
0.771442
0.766784
0.760033
0.751632
0.742035
0.732226
0.72281
0.714479
0.707877
0.703549
0.775973
0.774973
0.771891
0.767187
0.760346
0.75182
0.742084
0.732147
0.722631
0.71423
0.707584
0.70323
0.776426
0.77545
0.772355
0.767605
0.76067
0.752012
0.742133
0.732062
0.722442
0.713968
0.707275
0.702893
0.776893
0.77594
0.772833
0.768033
0.761
0.752205
0.742177
0.731967
0.722238
0.713688
0.706947
0.702537
0.777375
0.776447
0.773327
0.768476
0.76134
0.752403
0.742218
0.731864
0.722023
0.713394
0.706603
0.702163
0.77787
0.776968
0.773835
0.76893
0.761687
0.7526
0.742254
0.73175
0.721793
0.713081
0.70624
0.701769
0.778381
0.777506
0.77436
0.7694
0.762045
0.752802
0.742286
0.731627
0.72155
0.712754
0.705859
0.701356
0.778906
0.77806
0.774899
0.769881
0.762409
0.753003
0.742312
0.731492
0.72129
0.712407
0.705458
0.700922
0.779448
0.778631
0.775457
0.770378
0.762784
0.753208
0.742334
0.731347
0.721016
0.712043
0.705039
0.700469
0.780006
0.779219
0.776031
0.770888
0.763165
0.753412
0.742347
0.731188
0.720725
0.71166
0.704599
0.699995
0.78058
0.779826
0.776624
0.771415
0.763558
0.753619
0.742356
0.731018
0.720418
0.711259
0.70414
0.699501
0.781172
0.78045
0.777233
0.771955
0.763957
0.753825
0.742356
0.730832
0.720092
0.710836
0.703659
0.698985
0.781782
0.781095
0.777863
0.772513
0.764367
0.754033
0.742349
0.730634
0.719749
0.710395
0.703157
0.698448
0.782409
0.781758
0.778511
0.773084
0.764785
0.754239
0.742332
0.73042
0.719386
0.709931
0.702633
0.697889
0.783057
0.782443
0.779181
0.773674
0.765213
0.754446
0.742307
0.73019
0.719004
0.709446
0.702087
0.697307
0.783723
0.783148
0.77987
0.774279
0.765647
0.75465
0.742269
0.729942
0.7186
0.708938
0.701517
0.696703
0.784409
0.783876
0.780582
0.774904
0.766093
0.754854
0.742223
0.729678
0.718175
0.708407
0.700924
0.696076
0.785116
0.784625
0.781314
0.775544
0.766546
0.755053
0.742162
0.729394
0.717727
0.707851
0.700307
0.695425
0.785845
0.785399
0.782072
0.776204
0.767009
0.755252
0.74209
0.72909
0.717256
0.707272
0.699665
0.69475
0.786596
0.786196
0.782851
0.776882
0.767478
0.755445
0.742001
0.728765
0.71676
0.706666
0.698998
0.69405
0.78737
0.787019
0.783657
0.77758
0.767958
0.755635
0.741899
0.728418
0.716239
0.706034
0.698305
0.693326
0.788167
0.787867
0.784487
0.778296
0.768444
0.755817
0.741779
0.728046
0.71569
0.705373
0.697584
0.692575
0.78899
0.788743
0.785345
0.779034
0.76894
0.755995
0.741642
0.72765
0.715114
0.704685
0.696836
0.691799
0.789837
0.789647
0.786229
0.779791
0.769441
0.756164
0.741483
0.727226
0.714507
0.703967
0.69606
0.690996
0.790712
0.79058
0.787143
0.780571
0.769951
0.756325
0.741306
0.726776
0.713871
0.70322
0.695255
0.690166
0.791613
0.791543
0.788085
0.781371
0.770466
0.756475
0.741103
0.726294
0.713203
0.70244
0.69442
0.689308
0.792543
0.792539
0.78906
0.782195
0.770989
0.756614
0.740878
0.725783
0.712502
0.701628
0.693555
0.688422
0.793502
0.793566
0.790065
0.783039
0.771515
0.756739
0.740624
0.725237
0.711765
0.700782
0.692658
0.687507
0.794493
0.794629
0.791106
0.783909
0.772047
0.75685
0.740344
0.724657
0.710993
0.699902
0.691729
0.686562
0.795515
0.795726
0.792179
0.7848
0.772581
0.756942
0.74003
0.724039
0.710181
0.698985
0.690766
0.685588
0.796571
0.796862
0.79329
0.785716
0.773118
0.757017
0.739685
0.723383
0.709332
0.698032
0.68977
0.684582
0.79766
0.798036
0.794437
0.786655
0.773656
0.757068
0.739303
0.722684
0.70844
0.69704
0.688738
0.683544
0.798787
0.799251
0.795624
0.78762
0.774194
0.757097
0.738883
0.721942
0.707506
0.696008
0.687671
0.682475
0.79995
0.800508
0.796852
0.788608
0.774729
0.757098
0.73842
0.721153
0.706527
0.694935
0.686567
0.681372
0.801153
0.801811
0.798122
0.789623
0.775262
0.75707
0.737913
0.720317
0.705501
0.693821
0.685426
0.680236
0.802396
0.80316
0.799436
0.790661
0.775787
0.757006
0.737357
0.719427
0.704426
0.692662
0.684245
0.679065
0.803683
0.804559
0.800797
0.791725
0.776305
0.756907
0.73675
0.718484
0.703301
0.691458
0.683025
0.677859
0.805014
0.806008
0.802205
0.792811
0.77681
0.756766
0.736086
0.717483
0.702123
0.690208
0.681763
0.676618
0.806392
0.807513
0.803665
0.793923
0.777302
0.75658
0.735364
0.716423
0.70089
0.68891
0.680461
0.675339
0.807819
0.809073
0.805175
0.795057
0.777774
0.756341
0.734576
0.715298
0.6996
0.687562
0.679115
0.674024
0.809298
0.810695
0.80674
0.796215
0.778226
0.756049
0.73372
0.714106
0.698251
0.686164
0.677726
0.672669
0.810829
0.81238
0.808361
0.797391
0.778648
0.755693
0.732789
0.712843
0.69684
0.684713
0.676291
0.671276
0.812419
0.814132
0.810042
0.798589
0.77904
0.75527
0.731781
0.711507
0.695365
0.683209
0.674811
0.669843
0.814066
0.815955
0.811783
0.799802
0.779392
0.754771
0.730686
0.710093
0.693824
0.681649
0.673284
0.66837
0.815778
0.817853
0.813587
0.801031
0.779701
0.75419
0.729502
0.708597
0.692214
0.680033
0.671709
0.666854
0.817555
0.81983
0.815456
0.80227
0.779956
0.753518
0.728221
0.707016
0.690533
0.678358
0.670086
0.665297
0.819402
0.821892
0.817394
0.803518
0.78015
0.752747
0.726838
0.705345
0.68878
0.676624
0.668412
0.663696
0.821322
0.824043
0.819399
0.804766
0.780273
0.751867
0.725344
0.703581
0.68695
0.674829
0.666688
0.662051
0.823322
0.82629
0.821477
0.806012
0.780316
0.750868
0.723734
0.70172
0.685043
0.672972
0.664912
0.660361
0.825403
0.828637
0.823626
0.807247
0.780264
0.749738
0.722
0.699757
0.683056
0.671051
0.663083
0.658626
0.827573
0.831093
0.82585
0.808464
0.780107
0.748468
0.720135
0.697689
0.680987
0.669066
0.661202
0.656843
0.829835
0.833663
0.828147
0.809651
0.779827
0.747043
0.718131
0.695511
0.678834
0.667015
0.659266
0.655014
0.832198
0.836355
0.830518
0.810799
0.779411
0.745451
0.715981
0.69322
0.676595
0.664897
0.657276
0.653137
0.834665
0.839177
0.832962
0.811892
0.778837
0.743676
0.713676
0.690812
0.674268
0.662711
0.655231
0.651211
0.837249
0.842139
0.835476
0.812917
0.778088
0.741706
0.71121
0.688284
0.671852
0.660457
0.653129
0.649235
0.839952
0.845249
0.838057
0.813852
0.777139
0.739524
0.708575
0.685632
0.669345
0.658135
0.650972
0.647209
0.842789
0.848516
0.8407
0.814678
0.775969
0.737114
0.705762
0.682854
0.666747
0.655743
0.648757
0.645133
0.845765
0.851951
0.843395
0.815368
0.774548
0.73446
0.702766
0.679948
0.664056
0.653282
0.646486
0.643005
0.848896
0.855564
0.846134
0.815894
0.77285
0.731546
0.699581
0.67691
0.661272
0.650751
0.644158
0.640824
0.852191
0.859366
0.848902
0.816223
0.770842
0.728353
0.696199
0.673741
0.658396
0.648151
0.641773
0.638591
0.855668
0.863366
0.851683
0.816317
0.768492
0.724867
0.692616
0.670438
0.655427
0.645483
0.639331
0.636303
0.859339
0.867576
0.854452
0.816131
0.765763
0.72107
0.688829
0.667003
0.652366
0.642748
0.636833
0.633962
0.863227
0.872003
0.857182
0.815619
0.762618
0.716948
0.684835
0.663435
0.649215
0.639946
0.634279
0.631565
0.867349
0.876656
0.859839
0.814723
0.759018
0.712487
0.680633
0.659737
0.645976
0.63708
0.63167
0.629113
0.871732
0.881541
0.862378
0.813382
0.754923
0.707676
0.676224
0.65591
0.64265
0.634151
0.629005
0.626604
0.876399
0.886659
0.864746
0.811527
0.750292
0.702505
0.671611
0.651959
0.639242
0.631163
0.626288
0.624038
0.881383
0.892009
0.866881
0.809082
0.745084
0.696968
0.666798
0.647889
0.635756
0.628117
0.623517
0.621413
0.886716
0.897583
0.868706
0.805962
0.739261
0.691066
0.661794
0.643705
0.632195
0.625017
0.620695
0.618729
0.892438
0.903365
0.870129
0.802078
0.732787
0.6848
0.656608
0.639414
0.628566
0.621867
0.617822
0.615984
0.898591
0.909327
0.871042
0.797333
0.72563
0.67818
0.651253
0.635024
0.624875
0.618671
0.6149
0.613178
0.905224
0.915431
0.871321
0.791625
0.717768
0.671223
0.645745
0.630546
0.621129
0.615434
0.61193
0.610308
0.91239
0.921618
0.870817
0.784849
0.709184
0.663952
0.640101
0.62599
0.617338
0.612162
0.608913
0.607373
0.920149
0.927808
0.869363
0.7769
0.699878
0.656399
0.634343
0.62137
0.61351
0.608859
0.605849
0.604371
0.928562
0.933896
0.866766
0.767675
0.689862
0.648603
0.628494
0.616697
0.609658
0.605532
0.602741
0.6013
0.937698
0.939739
0.862809
0.75708
0.67917
0.640614
0.622579
0.61199
0.605791
0.602186
0.599586
0.598158
0.947625
0.945157
0.857253
0.745037
0.667857
0.632488
0.616625
0.607263
0.601924
0.598827
0.596386
0.594943
0.958411
0.949915
0.849835
0.731489
0.656003
0.624288
0.61066
0.602538
0.598071
0.59546
0.593139
0.591657
0.970118
0.95372
0.840272
0.716415
0.643718
0.616083
0.604714
0.597835
0.594245
0.592089
0.589842
0.588298
0.982793
0.956203
0.828271
0.699842
0.63114
0.607945
0.598816
0.593177
0.590463
0.588718
0.586494
0.584866
0.996458
0.95691
0.813534
0.681857
0.618433
0.599945
0.592999
0.588589
0.586738
0.585348
0.583095
0.581364
1.0111
0.955278
0.795777
0.662628
0.60579
0.592156
0.587297
0.584101
0.583083
0.581972
0.579632
0.577794
1.02662
0.950621
0.774754
0.642417
0.593407
0.584632
0.581738
0.579741
0.579521
0.578619
0.576148
0.574192
1.04286
0.942102
0.750298
0.621609
0.581519
0.577453
0.576354
0.575493
0.575963
0.575139
0.572487
0.570437
1.05946
0.928709
0.72238
0.600651
0.570264
0.570657
0.571295
0.571619
0.57277
0.571919
0.569014
0.566761
1.0759
0.909246
0.691324
0.580334
0.559934
0.564049
0.56601
0.567307
0.569009
0.568179
0.565202
0.562855
1.09115
0.882201
0.65754
0.560987
0.55118
0.559069
0.562422
0.564564
0.566332
0.565076
0.561792
0.559137
1.10405
0.846589
0.624022
0.542816
0.541086
0.551505
0.5563
0.55979
0.562163
0.560905
0.5577
0.55501
1.11082
0.797797
0.595144
0.534843
0.540204
0.550941
0.555182
0.558398
0.560321
0.558523
0.555323
0.552895
1.11317
0.721286
0.541084
0.507726
0.5275
0.544687
0.55207
0.556916
0.559502
0.558015
0.555139
0.552899
-0.0564854
-0.0461517
-0.0240849
-0.0136209
-0.00729444
-0.00251825
0.000775825
0.00273429
0.00362982
0.00397676
0.00416307
0.00418813
-0.0601519
-0.0501429
-0.0186648
-0.00586729
0.000828593
0.0064383
0.0103187
0.0122746
0.0127552
0.0125521
0.0122717
0.0117906
0.0581749
0.0246218
0.0295395
0.0272968
0.0238412
0.0231806
0.0232553
0.0228057
0.0219719
0.0211831
0.0207743
0.0204789
0.122511
0.0638544
0.0546319
0.0466744
0.0388858
0.0353878
0.0341307
0.0331889
0.0323276
0.0317859
0.0317691
0.0320539
0.146098
0.0869657
0.075942
0.0674938
0.0580631
0.0527581
0.0503557
0.048731
0.0474381
0.0466436
0.0465181
0.0469851
0.176963
0.119855
0.105393
0.0942207
0.0820207
0.0740526
0.0697191
0.0668117
0.0646625
0.0633922
0.0631241
0.0637544
0.21422
0.154934
0.134984
0.120559
0.106018
0.0959174
0.0900417
0.0861861
0.0834589
0.0818742
0.081456
0.0820479
0.246355
0.185565
0.162032
0.145766
0.129933
0.1184
0.111325
0.106641
0.103315
0.101272
0.100503
0.100875
0.272899
0.21328
0.188197
0.170819
0.154023
0.141264
0.133037
0.127485
0.12351
0.120973
0.11984
0.119983
0.29695
0.239587
0.213606
0.195229
0.177602
0.163832
0.15461
0.14828
0.143717
0.140717
0.13922
0.139091
0.319378
0.264223
0.237604
0.218458
0.200278
0.185792
0.175779
0.168772
0.163663
0.160213
0.158351
0.157941
0.339869
0.286905
0.260044
0.240462
0.221977
0.206985
0.19632
0.188711
0.183105
0.179249
0.177067
0.176398
0.358427
0.307782
0.281043
0.261259
0.242612
0.22725
0.216057
0.207941
0.201919
0.19773
0.195278
0.194365
0.375363
0.327085
0.300669
0.280815
0.262108
0.246506
0.23492
0.22641
0.220063
0.215606
0.212919
0.211769
0.390933
0.344947
0.318955
0.299132
0.280466
0.264753
0.252906
0.244109
0.237516
0.232842
0.229945
0.228565
0.405273
0.361466
0.335964
0.316271
0.297747
0.28204
0.270047
0.261053
0.254277
0.249422
0.246331
0.244734
0.418482
0.376747
0.351797
0.332324
0.314033
0.298429
0.286383
0.27726
0.27035
0.26534
0.262074
0.26028
0.430667
0.390914
0.36657
0.347397
0.329412
0.313985
0.301954
0.292757
0.285746
0.280606
0.277187
0.275224
0.441946
0.404094
0.3804
0.361589
0.343962
0.328765
0.316798
0.307566
0.300486
0.295241
0.291694
0.289596
0.452435
0.416408
0.393393
0.374986
0.35775
0.342816
0.33095
0.321718
0.314596
0.309273
0.305631
0.303435
0.462238
0.427957
0.405636
0.387654
0.370826
0.356178
0.344442
0.335243
0.328107
0.322738
0.319036
0.316776
0.47144
0.438824
0.417194
0.399649
0.383237
0.368893
0.357313
0.348177
0.341059
0.335676
0.331947
0.329655
0.480102
0.449069
0.428122
0.411015
0.395025
0.380998
0.3696
0.360559
0.353487
0.348124
0.344398
0.342098
0.488273
0.45874
0.438463
0.421795
0.406229
0.392536
0.381342
0.372426
0.365431
0.360116
0.356419
0.354126
0.495988