/*--------------------------------*- C++ -*----------------------------------*\
  =========                 |
  \\      /  F ield         | OpenFOAM: The Open Source CFD Toolbox
   \\    /   O peration     | Website:  https://openfoam.org
    \\  /    A nd           | Version:  6.0
     \\/     M anipulation  |
\*---------------------------------------------------------------------------*/
FoamFile
{
    version     2.0;
    format      ascii;
    class       surfaceScalarField;
    location    "4";
    object      phi;
}
// * * * * * * * * * * * * * * * * * * * * * * * * * * * * * * * * * * * * * //

dimensions      [0 3 -1 0 0 0 0];

internalField   nonuniform List<scalar> 
29696
(
2.98001e-05
0.00388714
-3.41865e-09
5.98322e-05
0.00382921
8.91091e-05
0.00371585
0.000116986
0.00354942
0.00014292
0.00333413
0.00016646
0.00307568
0.000187136
0.00278405
0.000204695
0.00246982
0.00021863
0.0021608
0.000229322
0.0018729
0.000235776
0.00172869
0.00185252
0.000263049
2.95804e-05
0.00385757
-5.55662e-09
5.93976e-05
0.00379939
8.84797e-05
0.00368677
0.000116191
0.00352172
0.000142
0.00330833
0.00016546
0.00305223
0.00018613
0.00276339
0.000203784
0.00245218
0.000218147
0.00214645
0.000230125
0.00186094
0.000244871
0.00171396
0.00181383
0.000283579
2.93759e-05
0.0038282
-7.25018e-09
5.89857e-05
0.00376978
8.7867e-05
0.0036579
0.000115393
0.00349419
0.000141045
0.00328269
0.000164389
0.00302889
0.000185026
0.00274276
0.000202759
0.00243445
0.000217615
0.0021316
0.000230885
0.00184767
0.000251024
0.00169382
0.00176568
0.000299162
2.91736e-05
0.00379904
-8.69113e-09
5.85772e-05
0.00374038
8.72579e-05
0.00362922
0.000114598
0.00346686
0.000140093
0.0032572
0.000163318
0.00300567
0.000183913
0.00272217
0.000201712
0.00241666
0.000216969
0.00211635
0.000231108
0.00183354
0.000255385
0.00166956
0.0017092
0.000311877
2.8969e-05
0.00377008
-9.86977e-09
5.81657e-05
0.00371118
8.66481e-05
0.00360074
0.000113808
0.0034397
0.000139153
0.00323186
0.000162267
0.00298255
0.00018282
0.00270162
0.000200674
0.0023988
0.00021626
0.00210076
0.00023094
0.00181886
0.000258452
0.00164204
0.00164739
0.000320258
2.87649e-05
0.00374133
-1.07753e-08
5.7756e-05
0.00368219
8.60425e-05
0.00357246
0.000113026
0.00341272
0.000138224
0.00320667
0.00016123
0.00295956
0.000181741
0.00268111
0.000199643
0.00238091
0.000215535
0.00208488
0.000230621
0.00180378
0.000260296
0.00161237
0.00158314
0.000324562
2.8563e-05
0.00371277
-1.11797e-08
5.7351e-05
0.0036534
8.54442e-05
0.00354437
0.000112253
0.00338591
0.000137305
0.00318162
0.000160202
0.00293666
0.000180669
0.00266064
0.000198612
0.00236296
0.000214795
0.00206869
0.000230221
0.00178835
0.000261045
0.00158154
0.00151801
0.000326157
2.83631e-05
0.00368442
-1.12009e-08
5.69504e-05
0.00362482
8.48526e-05
0.00351647
0.000111489
0.00335927
0.000136395
0.00315671
0.000159182
0.00291388
0.000179604
0.00264023
0.000197581
0.00234499
0.000214031
0.00205225
0.000229739
0.00177266
0.000260973
0.00155032
0.0014531
0.000325899
2.81645e-05
0.00365627
-1.08798e-08
5.65534e-05
0.00359643
8.4267e-05
0.00348876
0.000110732
0.00333281
0.000135495
0.00313195
0.000158174
0.0028912
0.000178547
0.00261985
0.000196551
0.00232699
0.000213242
0.00203556
0.000229188
0.0017567
0.000260334
0.00151916
0.00138929
0.000324133
2.79673e-05
0.00362831
-1.01768e-08
5.61598e-05
0.00356824
8.36873e-05
0.00346123
0.000109984
0.00330651
0.000134604
0.00310734
0.000157175
0.00286863
0.000177499
0.00259953
0.000195523
0.00230897
0.000212429
0.00201866
0.000228597
0.00174054
0.000259294
0.00148847
0.00132742
0.000321177
2.77717e-05
0.00360055
-9.02687e-09
5.577e-05
0.00354024
8.31137e-05
0.00343389
0.000109243
0.00328038
0.000133723
0.00308286
0.000156186
0.00284617
0.000176459
0.00257926
0.000194497
0.00229093
0.000211594
0.00200156
0.000227979
0.00172415
0.000257973
0.00145847
0.00126798
0.000317404
2.75777e-05
0.00357298
-7.39085e-09
5.53841e-05
0.00351243
8.25462e-05
0.00340673
0.000108511
0.00325442
0.000132851
0.00305852
0.000155206
0.00282382
0.000175426
0.00255904
0.000193473
0.00227289
0.000210736
0.0019843
0.00022734
0.00170756
0.000256476
0.00142934
0.00121132
0.000313139
2.73853e-05
0.0035456
-5.30346e-09
5.50021e-05
0.00348482
8.19848e-05
0.00337975
0.000107787
0.00322862
0.000131987
0.00303432
0.000154235
0.00280157
0.000174401
0.00253887
0.00019245
0.00225484
0.000209854
0.00196689
0.00022668
0.00169072
0.000254886
0.00140113
0.00115758
0.000308615
2.71948e-05
0.00351841
-2.76354e-09
5.46241e-05
0.00345739
8.14292e-05
0.00335294
0.000107069
0.00320298
0.000131132
0.00301026
0.000153273
0.00277943
0.000173383
0.00251877
0.00019143
0.00223679
0.000208949
0.00194938
0.000225998
0.00167368
0.000253258
0.00137387
0.00110685
0.000304
2.7006e-05
0.0034914
2.29069e-10
5.42501e-05
0.00343014
8.08795e-05
0.00332631
0.00010636
0.0031775
0.000130285
0.00298633
0.000152319
0.00275739
0.000172371
0.00249871
0.000190412
0.00221875
0.000208022
0.00193176
0.000225291
0.0016564
0.00025163
0.00134752
0.00105904
0.000299422
2.6819e-05
0.00346458
3.63428e-09
5.388e-05
0.00340309
8.03355e-05
0.00329986
0.000105657
0.00315218
0.000129447
0.00296255
0.000151374
0.00273547
0.000171366
0.00247873
0.000189396
0.00220072
0.000207074
0.00191409
0.000224555
0.00163893
0.000250022
0.00132206
0.0010141
0.000294969
2.66338e-05
0.00343794
7.37486e-09
5.35137e-05
0.0033762
7.97971e-05
0.00327358
0.000104961
0.00312702
0.000128615
0.00293889
0.000150437
0.00271365
0.000170367
0.00245879
0.000188383
0.0021827
0.000206106
0.00189636
0.000223785
0.00162124
0.000248446
0.00129739
0.000971841
0.000290696
2.64505e-05
0.00341148
1.13746e-08
5.31513e-05
0.00334951
7.92642e-05
0.00324747
0.000104272
0.00310201
0.000127792
0.00291537
0.000149507
0.00269194
0.000169375
0.00243893
0.000187372
0.00216471
0.000205119
0.00187862
0.00022298
0.00160339
0.000246904
0.00127347
0.000932121
0.00028663
2.6269e-05
0.0033852
1.55598e-08
5.27926e-05
0.00332298
7.87366e-05
0.00322152
0.00010359
0.00307716
0.000126976
0.00289199
0.000148585
0.00267032
0.000168388
0.00241912
0.000186364
0.00214673
0.000204116
0.00186086
0.000222135
0.00158536
0.000245393
0.0012502
0.000894722
0.000282779
2.60893e-05
0.00335909
1.98375e-08
5.24375e-05
0.00329664
7.82143e-05
0.00319575
0.000102914
0.00305246
0.000126167
0.00286874
0.000147671
0.00264882
0.000167407
0.00239939
0.000185358
0.00212878
0.000203097
0.00184313
0.000221249
0.00156721
0.000243907
0.00122755
0.000859497
0.000279138
2.59113e-05
0.00333315
2.41008e-08
5.20859e-05
0.00327046
7.7697e-05
0.00317014
0.000102244
0.00302791
0.000125366
0.00284561
0.000146764
0.00262742
0.000166432
0.00237972
0.000184355
0.00211086
0.000202065
0.00182541
0.000220321
0.00154895
0.000242437
0.00120542
0.00082623
0.000275691
2.57352e-05
0.00330739
2.8253e-08
5.17377e-05
0.00324446
7.71847e-05
0.00314469
0.000101581
0.00300352
0.000124571
0.00282262
0.000145864
0.00260613
0.000165462
0.00236013
0.000183354
0.00209297
0.000201021
0.00180775
0.000219352
0.00153062
0.000240976
0.0011838
0.000794796
0.000272417
2.55608e-05
0.0032818
3.22128e-08
5.13928e-05
0.00321863
7.66771e-05
0.0031194
0.000100924
0.00297927
0.000123784
0.00279976
0.000144972
0.00258494
0.000164498
0.0023406
0.000182356
0.00207511
0.000199968
0.00179013
0.000218342
0.00151224
0.000239514
0.00116262
0.000765003
0.000269294
2.53881e-05
0.00325637
3.59072e-08
5.10513e-05
0.00319297
7.61743e-05
0.00309428
0.000100272
0.00295517
0.000123003
0.00277703
0.000144086
0.00256386
0.000163539
0.00232115
0.00018136
0.00205729
0.000198906
0.00177259
0.000217294
0.00149386
0.000238046
0.00114187
0.000736755
0.0002663
2.52172e-05
0.00323112
3.92734e-08
5.07131e-05
0.00316747
7.56761e-05
0.00306932
9.96266e-05
0.00293122
0.000122228
0.00275443
0.000143207
0.00254288
0.000162585
0.00230177
0.000180367
0.0020395
0.000197837
0.00175512
0.00021621
0.00147547
0.000236565
0.0011215
0.000709893
0.000263414
2.50481e-05
0.00320603
4.22682e-08
5.03781e-05
0.00314214
7.51824e-05
0.00304452
9.89868e-05
0.00290742
0.000121461
0.00273196
0.000142335
0.00252201
0.000161637
0.00228247
0.000179376
0.00202177
0.000196763
0.00173773
0.000215093
0.00145715
0.000235068
0.00110153
0.000684349
0.000260618
2.48806e-05
0.0031811
4.48662e-08
5.00462e-05
0.00311698
7.46932e-05
0.00301987
9.83526e-05
0.00288376
0.000120699
0.00270961
0.000141469
0.00250124
0.000160693
0.00226324
0.000178388
0.00200407
0.000195684
0.00172043
0.000213945
0.00143888
0.000233552
0.00108191
0.00065999
0.000257897
2.47149e-05
0.00315634
4.70563e-08
4.97175e-05
0.00309197
7.42085e-05
0.00299538
9.7724e-05
0.00286024
0.000119944
0.00268739
0.00014061
0.00248058
0.000159754
0.0022441
0.000177401
0.00198643
0.000194602
0.00170324
0.000212771
0.00142071
0.000232018
0.00106267
0.000636776
0.000255239
2.45508e-05
0.00313174
4.88373e-08
4.93919e-05
0.00306713
7.37282e-05
0.00297104
9.71009e-05
0.00283687
0.000119195
0.0026653
0.000139757
0.00246001
0.00015882
0.00222503
0.000176417
0.00196882
0.000193517
0.00168613
0.000211573
0.00140265
0.000230464
0.00104377
0.000614592
0.000252634
2.43885e-05
0.0031073
5.02187e-08
4.90694e-05
0.00304245
7.32522e-05
0.00294686
9.64832e-05
0.00281364
0.000118453
0.00264333
0.00013891
0.00243956
0.000157891
0.00220605
0.000175434
0.00195128
0.000192431
0.00166913
0.000210355
0.00138473
0.000228894
0.00102524
0.000593417
0.000250076
2.42277e-05
0.00308302
5.12161e-08
4.87498e-05
0.00301793
7.27806e-05
0.00292283
9.5871e-05
0.00279055
0.000117716
0.00262148
0.000138069
0.0024192
0.000156966
0.00218715
0.000174453
0.00193379
0.000191344
0.00165224
0.00020912
0.00136695
0.000227308
0.00100704
0.000573152
0.000247558
2.40686e-05
0.0030589
5.18493e-08
4.84333e-05
0.00299357
7.23132e-05
0.00289895
9.52641e-05
0.0027676
0.000116985
0.00259976
0.000137235
0.00239895
0.000156046
0.00216835
0.000173474
0.00191637
0.000190257
0.00163546
0.000207871
0.00134934
0.000225709
0.000989203
0.00055379
0.000245079
2.39111e-05
0.00303494
5.21394e-08
4.81196e-05
0.00296936
7.185e-05
0.00287522
9.46623e-05
0.00274478
0.00011626
0.00257816
0.000136406
0.0023788
0.00015513
0.00214962
0.000172497
0.001899
0.00018917
0.00161878
0.00020661
0.00133189
0.0002241
0.000971702
0.00053524
0.000242635
2.37553e-05
0.00301113
5.21099e-08
4.78089e-05
0.00294531
7.13909e-05
0.00285164
9.40658e-05
0.00272211
0.000115541
0.00255669
0.000135583
0.00235877
0.000154219
0.00213099
0.000171521
0.0018817
0.000188083
0.00160222
0.00020534
0.00131464
0.000222484
0.000954563
0.000517506
0.000240226
2.3601e-05
0.00298748
5.17851e-08
4.75011e-05
0.00292141
7.09359e-05
0.0028282
9.34743e-05
0.00269957
0.000114828
0.00253533
0.000134765
0.00233882
0.000153312
0.00211243
0.000170547
0.00186446
0.000186996
0.00158576
0.000204063
0.00129756
0.000220862
0.000937753
0.000500502
0.000237851
2.34483e-05
0.00296398
5.11914e-08
4.71962e-05
0.00289766
7.04849e-05
0.00280491
9.28879e-05
0.00267717
0.00011412
0.0025141
0.000133953
0.00231899
0.00015241
0.00209398
0.000169574
0.0018473
0.000185911
0.00156943
0.000202781
0.00128069
0.000219238
0.000921301
0.000484238
0.00023551
2.32971e-05
0.00294063
5.0355e-08
4.68941e-05
0.00287406
7.0038e-05
0.00278177
9.23063e-05
0.0026549
0.000113417
0.00249299
0.000133146
0.00229926
0.000151511
0.00207561
0.000168604
0.0018302
0.000184826
0.0015532
0.000201496
0.00126402
0.000217614
0.000905173
0.000468633
0.000233204
2.31475e-05
0.00291744
4.93047e-08
4.65948e-05
0.00285062
6.95949e-05
0.00275877
9.17295e-05
0.00263277
0.00011272
0.002472
0.000132345
0.00227964
0.000150618
0.00205734
0.000167634
0.00181319
0.000183742
0.0015371
0.000200208
0.00124756
0.000215991
0.000889394
0.0004537
0.000230932
2.29994e-05
0.00289439
4.80683e-08
4.62982e-05
0.00282732
6.91557e-05
0.00273591
9.11575e-05
0.00261076
0.000112028
0.00245113
0.000131549
0.00226011
0.000149728
0.00203916
0.000166667
0.00179624
0.00018266
0.0015211
0.000198919
0.00123129
0.000214372
0.000873931
0.000439362
0.000228695
2.28527e-05
0.00287149
4.66747e-08
4.60043e-05
0.00280417
6.87202e-05
0.0027132
9.05901e-05
0.0025889
0.000111341
0.00243038
0.000130758
0.0022407
0.000148842
0.00202108
0.0001657
0.00177939
0.000181578
0.00150523
0.00019763
0.00121524
0.000212758
0.000858808
0.000425636
0.000226492
2.27075e-05
0.00284874
4.5151e-08
4.57131e-05
0.00278116
6.82885e-05
0.00269062
9.00273e-05
0.00256715
0.000110659
0.00240975
0.000129971
0.00222138
0.000147961
0.00200309
0.000164736
0.00176261
0.000180498
0.00148946
0.000196342
0.00119939
0.000211151
0.000843989
0.000412446
0.000224325
2.25637e-05
0.00282613
4.35241e-08
4.54244e-05
0.0027583
6.78604e-05
0.00266818
8.94689e-05
0.00254555
0.000109981
0.00238924
0.00012919
0.00220218
0.000147083
0.0019852
0.000163774
0.00174592
0.000179419
0.00147382
0.000195055
0.00118376
0.000209551
0.000829499
0.000399814
0.000222192
2.24212e-05
0.00280367
4.18187e-08
4.51382e-05
0.00273558
6.74358e-05
0.00264589
8.89149e-05
0.00252407
0.000109309
0.00236884
0.000128414
0.00218307
0.00014621
0.0019674
0.000162813
0.00172931
0.000178341
0.00145828
0.000193771
0.00116832
0.00020796
0.0008153
0.000387664
0.000220093
2.228e-05
0.00278135
4.00595e-08
4.48545e-05
0.00271301
6.70147e-05
0.00262373
8.83651e-05
0.00250272
0.000108642
0.00234857
0.000127642
0.00216407
0.00014534
0.0019497
0.000161854
0.0017128
0.000177265
0.00144287
0.000192489
0.0011531
0.000206377
0.000801417
0.000376023
0.000218027
2.21401e-05
0.00275917
3.82695e-08
4.45732e-05
0.00269058
6.6597e-05
0.0026017
8.78195e-05
0.00248149
0.000107979
0.0023284
0.000126874
0.00214517
0.000144475
0.0019321
0.000160897
0.00169638
0.000176191
0.00142757
0.00019121
0.00113807
0.000204804
0.000787811
0.000364817
0.000215993
2.20014e-05
0.00273713
3.64726e-08
4.42942e-05
0.00266829
6.61826e-05
0.00257981
8.72779e-05
0.0024604
0.00010732
0.00230836
0.000126112
0.00212638
0.000143614
0.0019146
0.000159943
0.00168005
0.000175118
0.0014124
0.000189934
0.00112326
0.000203242
0.000774509
0.000354076
0.000213992
2.18639e-05
0.00271523
3.46916e-08
4.40175e-05
0.00264613
6.57714e-05
0.00255806
8.67404e-05
0.00243943
0.000106666
0.00228843
0.000125353
0.00210769
0.000142756
0.00189719
0.00015899
0.00166381
0.000174047
0.00139734
0.000188662
0.00110864
0.000201689
0.000761471
0.000343726
0.000212021
2.17276e-05
0.00269347
3.29506e-08
4.3743e-05
0.00262412
6.53634e-05
0.00253644
8.62068e-05
0.00241859
0.000106016
0.00226863
0.000124599
0.00208911
0.000141903
0.00187989
0.00015804
0.00164768
0.000172977
0.00138241
0.000187393
0.00109423
0.000200147
0.000748723
0.000333802
0.000210081
2.15924e-05
0.00267185
3.12729e-08
4.34707e-05
0.00260224
6.49584e-05
0.00251495
8.5677e-05
0.00239786
0.000105371
0.00224893
0.00012385
0.00207063
0.000141054
0.00186268
0.000157093
0.00163163
0.00017191
0.00136758
0.000186129
0.00108
0.000198616
0.000736225
0.000324229
0.00020817
2.14583e-05
0.00265036
2.96824e-08
4.32005e-05
0.0025805
6.45565e-05
0.00249359
8.5151e-05
0.00237727
0.00010473
0.00222935
0.000123104
0.00205226
0.000140208
0.00184558
0.000156148
0.0016157
0.000170845
0.00135289
0.000184869
0.00106598
0.000197095
0.000724004
0.000315046
0.000206287
2.13252e-05
0.002629
2.8201e-08
4.29324e-05
0.00255889
6.41576e-05
0.00247237
8.46287e-05
0.0023568
0.000104093
0.00220989
0.000122363
0.00203399
0.000139367
0.00182857
0.000155205
0.00159985
0.000169782
0.00133831
0.000183613
0.00105214
0.000195586
0.000712021
0.00030618
0.000204432
2.11931e-05
0.00260778
2.68504e-08
4.26663e-05
0.00253742
6.37616e-05
0.00245127
8.411e-05
0.00233645
0.00010346
0.00219054
0.000121627
0.00201582
0.000138529
0.00181167
0.000154266
0.00158412
0.000168721
0.00132386
0.000182363
0.00103851
0.000194087
0.000700303
0.000297672
0.000202604
2.10619e-05
0.0025867
2.56495e-08
4.24021e-05
0.00251608
6.33685e-05
0.0024303
8.35949e-05
0.00231622
0.000102831
0.0021713
0.000120894
0.00199776
0.000137696
0.00179487
0.000153329
0.00156848
0.000167664
0.00130952
0.000181117
0.00102505
0.000192599
0.000688809
0.000289448
0.000200802
2.09317e-05
0.00256574
2.46156e-08
4.21399e-05
0.00249487
6.29781e-05
0.00240947
8.30834e-05
0.00229612
0.000102206
0.00215218
0.000120165
0.0019798
0.000136866
0.00177817
0.000152396
0.00155296
0.000166608
0.00129531
0.000179876
0.00101178
0.000191122
0.000677569
0.000281554
0.000199025
2.08024e-05
0.00254491
2.37631e-08
4.18796e-05
0.00247379
6.25905e-05
0.00238875
8.25753e-05
0.00227613
0.000101586
0.00213317
0.000119441
0.00196194
0.00013604
0.00176157
0.000151466
0.00153753
0.000165556
0.00128121
0.00017864
0.000998691
0.000189656
0.000666542
0.000273916
0.000197272
2.0674e-05
0.00252422
2.31045e-08
4.16211e-05
0.00245285
6.22057e-05
0.00236817
8.20706e-05
0.00225627
0.000100969
0.00211427
0.00011872
0.00194419
0.000135219
0.00174507
0.000150538
0.00152221
0.000164507
0.00126725
0.00017741
0.000985793
0.000188201
0.000655757
0.000266583
0.000195543
2.05465e-05
0.00250364
2.26489e-08
4.13644e-05
0.00243203
6.18234e-05
0.00234771
8.15693e-05
0.00223652
0.000100356
0.00209548
0.000118004
0.00192654
0.000134401
0.00172867
0.000149615
0.00150699
0.000163461
0.00125339
0.000176186
0.00097306
0.000186757
0.000645173
0.00025948
0.000193836
2.04198e-05
0.0024832
2.2403e-08
4.11096e-05
0.00241134
6.14439e-05
0.00232738
8.10714e-05
0.0022169
9.97463e-05
0.00207681
0.000117291
0.001909
0.000133587
0.00171238
0.000148695
0.00149189
0.000162419
0.00123967
0.000174967
0.000960516
0.000185324
0.000634821
0.000252661
0.000192152
2.02939e-05
0.00246289
2.23702e-08
4.08564e-05
0.00239077
6.10669e-05
0.00230716
8.05768e-05
0.00219738
9.91408e-05
0.00205824
0.000116582
0.00189155
0.000132778
0.00169618
0.000147778
0.00147688
0.00016138
0.00122607
0.000173754
0.000948134
0.000183902
0.000624661
0.000246048
0.00019049
2.01688e-05
0.00244269
2.25505e-08
4.0605e-05
0.00237034
6.06925e-05
0.00228708
8.00854e-05
0.00217799
9.85391e-05
0.00203979
0.000115878
0.00187422
0.000131972
0.00168009
0.000146865
0.00146199
0.000160345
0.00121259
0.000172547
0.000935936
0.000182491
0.000614722
0.000239699
0.000188849
2.00445e-05
0.00242263
2.29398e-08
4.03554e-05
0.00235003
6.03206e-05
0.00226711
7.95973e-05
0.00215871
9.79411e-05
0.00202144
0.000115177
0.00185698
0.00013117
0.00166409
0.000145956
0.0014472
0.000159313
0.00119923
0.000171347
0.000923893
0.000181092
0.000604964
0.000233535
0.000187229
1.9921e-05
0.00240268
2.35302e-08
4.01074e-05
0.00232984
5.99513e-05
0.00224727
7.91123e-05
0.00213956
9.73468e-05
0.00200321
0.00011448
0.00183985
0.000130372
0.0016482
0.00014505
0.00143253
0.000158286
0.00118599
0.000170153
0.000912031
0.000179703
0.000595419
0.000227617
0.000185629
1.97982e-05
0.00238286
2.43094e-08
3.98611e-05
0.00230978
5.95845e-05
0.00222754
7.86306e-05
0.00212051
9.67562e-05
0.00198508
0.000113787
0.00182281
0.000129578
0.0016324
0.000144148
0.00141795
0.000157263
0.00117287
0.000168965
0.000900319
0.000178325
0.000586044
0.000221865
0.000184049
1.96762e-05
0.00236316
2.5261e-08
3.96164e-05
0.00228984
5.92201e-05
0.00220794
7.8152e-05
0.00210158
9.61692e-05
0.00196707
0.000113098
0.00180589
0.000128789
0.00161672
0.000143251
0.0014035
0.000156244
0.00115988
0.000167784
0.000888783
0.000176959
0.000576874
0.000216344
0.000182488
1.95549e-05
0.00234357
2.63652e-08
3.93734e-05
0.00227002
5.88581e-05
0.00218845
7.76765e-05
0.00208276
9.55859e-05
0.00194916
0.000112413
0.00178906
0.000128003
0.00160112
0.000142357
0.00138914
0.000155229
0.001147
0.00016661
0.000877392
0.000175604
0.000567865
0.000210969
0.000180947
1.94344e-05
0.00232411
2.75987e-08
3.91319e-05
0.00225032
5.84986e-05
0.00216909
7.7204e-05
0.00206405
9.50061e-05
0.00193136
0.000111731
0.00177233
0.000127221
0.00158564
0.000141467
0.00137489
0.000154219
0.00113426
0.000165443
0.000866173
0.00017426
0.000559053
0.000205813
0.000179425
1.93146e-05
0.00230477
2.89364e-08
3.88921e-05
0.00223074
5.81414e-05
0.00214984
7.67347e-05
0.00204546
9.44298e-05
0.00191366
0.000111054
0.00175571
0.000126443
0.00157024
0.000140582
0.00136075
0.000153214
0.00112162
0.000164283
0.000855094
0.000172928
0.000550392
0.000200786
0.00017792
1.91956e-05
0.00228554
3.03512e-08
3.86539e-05
0.00221129
5.77867e-05
0.00213071
7.62683e-05
0.00202698
9.38571e-05
0.00189607
0.00011038
0.00173919
0.000125669
0.00155496
0.0001397
0.00134672
0.000152214
0.00110911
0.00016313
0.000844181
0.000171606
0.00054192
0.000195967
0.000176434
1.90773e-05
0.00226643
3.1816e-08
3.84173e-05
0.00219195
5.74343e-05
0.00211169
7.5805e-05
0.0020086
9.32879e-05
0.00187859
0.000109709
0.00172276
0.000124898
0.00153977
0.000138823
0.00133279
0.000151218
0.0010967
0.000161984
0.000833404
0.000170296
0.00053359
0.000191261
0.000174966
1.89597e-05
0.00224744
3.33037e-08
3.81822e-05
0.00217273
5.70842e-05
0.00209279
7.53447e-05
0.00199035
9.27221e-05
0.00186121
0.000109043
0.00170644
0.000124132
0.00152468
0.00013795
0.00131898
0.000150227
0.00108443
0.000160846
0.000822789
0.000168998
0.000525443
0.000186751
0.000173516
1.88429e-05
0.00222856
3.47883e-08
3.79487e-05
0.00215362
5.67365e-05
0.002074
7.48873e-05
0.00197219
9.21598e-05
0.00184394
0.00010838
0.00169022
0.00012337
0.00150969
0.000137081
0.00130526
0.000149241
0.00107226
0.000159715
0.000812303
0.00016771
0.000517429
0.000182342
0.000172082
1.87269e-05
0.0022098
3.62454e-08
3.77168e-05
0.00213463
5.6391e-05
0.00205532
7.44328e-05
0.00195415
9.16009e-05
0.00182677
0.000107721
0.0016741
0.000122612
0.0014948
0.000136217
0.00129166
0.000148261
0.00106022
0.000158592
0.000801976
0.000166434
0.000509591
0.000178119
0.000170666
1.86116e-05
0.00219115
3.76527e-08
3.74864e-05
0.00211575
5.60478e-05
0.00203676
7.39813e-05
0.00193622
9.10454e-05
0.00180971
0.000107066
0.00165808
0.000121858
0.00148
0.000135357
0.00127815
0.000147285
0.00104829
0.000157476
0.000791773
0.000165169
0.000501877
0.000173982
0.000169267
1.8497e-05
0.00217261
3.89903e-08
3.72575e-05
0.002097
5.5707e-05
0.00201831
7.35326e-05
0.0019184
9.04933e-05
0.00179275
0.000106414
0.00164216
0.000121107
0.00146531
0.000134501
0.00126476
0.000146315
0.00103648
0.000156367
0.000781725
0.000163915
0.000494333
0.000170024
0.000167884
1.83832e-05
0.00215419
4.02411e-08
3.70302e-05
0.00207835
5.53683e-05
0.00199997
7.30868e-05
0.00190067
8.99445e-05
0.00177589
0.000105766
0.00162633
0.000120361
0.00145071
0.00013365
0.00125147
0.00014535
0.00102477
0.000155266
0.000771795
0.000162673
0.000486905
0.000166139
0.000166517
1.82702e-05
0.00213588
4.13905e-08
3.68044e-05
0.00205982
5.50319e-05
0.00198175
7.26439e-05
0.00188306
8.93991e-05
0.00175914
0.000105122
0.00161062
0.000119618
0.00143622
0.000132803
0.00123829
0.00014439
0.00101318
0.000154173
0.000762015
0.000161441
0.000479642
0.000162426
0.000165166
1.81579e-05
0.00211768
4.24274e-08
3.65801e-05
0.00204139
5.46977e-05
0.00196363
7.22037e-05
0.00186556
8.88569e-05
0.00174248
0.000104481
0.00159499
0.00011888
0.00142182
0.00013196
0.0012252
0.000143436
0.0010017
0.000153088
0.000752349
0.000160221
0.000472486
0.000158775
0.000163831
1.80464e-05
0.00209959
4.3343e-08
3.63573e-05
0.00202308
5.43657e-05
0.00194562
7.17664e-05
0.00184816
8.8318e-05
0.00172593
0.000103844
0.00157946
0.000118145
0.00140752
0.000131122
0.00121223
0.000142487
0.000990338
0.00015201
0.00074283
0.000159012
0.000465489
0.000155288
0.000162511
1.79357e-05
0.00208161
4.41321e-08
3.6136e-05
0.00200488
5.40359e-05
0.00192772
7.13318e-05
0.00183086
8.77824e-05
0.00170948
0.00010321
0.00156403
0.000117414
0.00139331
0.000130288
0.00119934
0.000141543
0.000979073
0.00015094
0.000733418
0.000157814
0.000458593
0.000151853
0.000161206
1.78258e-05
0.00206374
4.47915e-08
3.59162e-05
0.00198679
5.37083e-05
0.00190993
7.09e-05
0.00181367
8.725e-05
0.00169313
0.00010258
0.00154871
0.000116687
0.00137921
0.000129459
0.00118658
0.000140605
0.000967931
0.000149878
0.00072415
0.000156627
0.000451849
0.000148576
0.000159917
1.77166e-05
0.00204597
4.53212e-08
3.56979e-05
0.00196881
5.33828e-05
0.00189224
7.04709e-05
0.00179658
8.67208e-05
0.00167688
0.000101954
0.00153347
0.000115964
0.00136519
0.000128635
0.0011739
0.000139673
0.000956883
0.000148823
0.000714984
0.00015545
0.000445199
0.00014534
0.000158642
1.76082e-05
0.00202832
4.57228e-08
3.54811e-05
0.00195094
5.30595e-05
0.00187466
7.00445e-05
0.0017796
8.61948e-05
0.00166073
0.000101331
0.00151834
0.000115246
0.00135128
0.000127815
0.00116133
0.000138746
0.000945956
0.000147777
0.000705958
0.000154284
0.000438696
0.000142258
0.000157382
1.75006e-05
0.00201077
4.60005e-08
3.52658e-05
0.00193317
5.27383e-05
0.00185719
6.96208e-05
0.00176271
8.5672e-05
0.00164467
0.000100711
0.00150329
0.00011453
0.00133745
0.000126999
0.00114886
0.000137824
0.000935121
0.000146737
0.000697029
0.00015313
0.00043228
0.000139207
0.000156136
1.73937e-05
0.00199333
4.61595e-08
3.50519e-05
0.00191552
5.24192e-05
0.00183982
6.91998e-05
0.00174593
8.51523e-05
0.00162873
0.000100095
0.00148835
0.000113819
0.00132373
0.000126188
0.00113649
0.000136909
0.000924405
0.000145706
0.000688237
0.000151985
0.000426007
0.000136304
0.000154904
1.72877e-05
0.001976
4.6207e-08
3.48394e-05
0.00189796
5.21021e-05
0.00182256
6.87814e-05
0.00172925
8.46357e-05
0.00161287
9.94831e-05
0.0014735
0.000113112
0.0013101
0.000125382
0.00112421
0.000135998
0.000913777
0.000144682
0.000679537
0.000150851
0.000419814
0.000133425
0.000153686
1.71824e-05
0.00195877
4.61508e-08
3.46284e-05
0.00188052
5.17872e-05
0.0018054
6.83656e-05
0.00171268
8.41222e-05
0.00159711
9.88743e-05
0.00145875
0.000112409
0.00129657
0.00012458
0.00111205
0.000135094
0.000903268
0.000143666
0.000670969
0.000149728
0.000413759
0.000130689
0.000152481
1.70779e-05
0.00194164
4.59999e-08
3.44189e-05
0.00186318
5.14743e-05
0.00178834
6.79524e-05
0.0016962
8.36118e-05
0.00158145
9.82689e-05
0.00144409
0.000111709
0.00128312
0.000123783
0.00109997
0.000134195
0.000892844
0.000142658
0.00066249
0.000148615
0.000407777
0.000127968
0.00015129
1.69741e-05
0.00192462
4.57637e-08
3.42107e-05
0.00184594
5.11634e-05
0.00177139
6.75418e-05
0.00167982
8.31044e-05
0.00156589
9.76669e-05
0.00142953
0.000111013
0.00126978
0.00012299
0.00108799
0.000133302
0.000882537
0.000141657
0.00065414
0.000147512
0.000401929
0.000125386
0.000150113
1.68711e-05
0.00190771
4.54526e-08
3.40039e-05
0.00182881
5.08545e-05
0.00175454
6.71337e-05
0.00166354
8.26001e-05
0.00155042
9.70684e-05
0.00141506
0.000110322
0.00125652
0.000122202
0.00107611
0.000132414
0.000872313
0.000140664
0.000645873
0.00014642
0.000396148
0.000122813
0.000148948
1.67688e-05
0.00189089
4.50768e-08
3.37986e-05
0.00181178
5.05476e-05
0.00173779
6.67281e-05
0.00164736
8.20987e-05
0.00153506
9.64732e-05
0.00140069
0.000109634
0.00124336
0.000121418
0.00106433
0.000131532
0.000862204
0.000139679
0.000637732
0.000145338
0.000390497
0.000120374
0.000147796
1.66673e-05
0.00187418
4.46475e-08
3.35946e-05
0.00179485
5.02427e-05
0.00172114
6.63251e-05
0.00163127
8.16004e-05
0.00151978
9.58815e-05
0.0013864
0.00010895
0.00123029
0.000120639
0.00105263
0.000130655
0.000852176
0.000138701
0.000629671
0.000144265
0.000384908
0.000117937
0.000146657
1.65665e-05
0.00185757
4.41757e-08
3.33919e-05
0.00177803
4.99398e-05
0.0017046
6.59245e-05
0.00161529
8.11049e-05
0.0015046
9.52932e-05
0.00137222
0.00010827
0.00121732
0.000119864
0.00104104
0.000129785
0.000842261
0.00013773
0.000621731
0.000143203
0.000379443
0.00011563
0.00014553
1.64664e-05
0.00184106
4.36729e-08
3.31906e-05
0.00176131
4.96388e-05
0.00168814
6.55264e-05
0.0015994
8.06125e-05
0.00148951
9.47082e-05
0.00135812
0.000107593
0.00120443
0.000119094
0.00102953
0.00012892
0.000832424
0.000136767
0.000613868
0.00014215
0.000374036
0.000113321
0.000144415
1.6367e-05
0.00182465
4.31502e-08
3.29907e-05
0.00174469
4.93397e-05
0.0016718
6.51307e-05
0.00158361
8.01229e-05
0.00147452
9.41266e-05
0.00134412
0.000106921
0.00119164
0.000118329
0.00101813
0.00012806
0.000822698
0.000135811
0.000606123
0.000141107
0.000368749
0.000111136
0.000143312
1.62683e-05
0.00180833
4.26193e-08
3.2792e-05
0.00172816
4.90425e-05
0.00165554
6.47374e-05
0.00156792
7.96362e-05
0.00145962
9.35483e-05
0.0013302
0.000106252
0.00117893
0.000117568
0.0010068
0.000127206
0.000813048
0.000134863
0.00059845
0.000140074
0.000363515
0.000108945
0.000142221
1.61703e-05
0.00179212
4.20911e-08
3.25947e-05
0.00171174
4.87471e-05
0.0016394
6.43465e-05
0.00155232
7.91524e-05
0.00144482
9.29734e-05
0.00131638
0.000105587
0.00116632
0.000116812
0.000995585
0.000126358
0.000803507
0.000133922
0.000590892
0.00013905
0.000358397
0.000106874
0.000141142
1.6073e-05
0.00177601
4.15769e-08
3.23986e-05
0.00169541
4.84536e-05
0.00162334
6.3958e-05
0.00153681
7.86714e-05
0.0014301
9.24017e-05
0.00130265
0.000104926
0.00115379
0.00011606
0.000984444
0.000125516
0.00079404
0.000132989
0.000583403
0.000138035
0.000353328
0.000104791
0.000140074
1.59764e-05
0.00175999
4.10868e-08
3.22038e-05
0.00167919
4.8162e-05
0.00160738
6.35718e-05
0.0015214
7.81932e-05
0.00141548
9.18334e-05
0.00128901
0.000104269
0.00114135
0.000115313
0.000973406
0.000124679
0.00078468
0.000132063
0.000576026
0.00013703
0.00034837
0.000102826
0.000139018
1.58804e-05
0.00174407
4.06312e-08
3.20103e-05
0.00166306
4.78721e-05
0.00159152
6.31879e-05
0.00150609
7.77179e-05
0.00140095
9.12683e-05
0.00127546
0.000103616
0.001129
0.00011457
0.000962443
0.000123847
0.000775392
0.000131144
0.000568714
0.000136034
0.000343456
0.000100845
0.000137972
1.5785e-05
0.00172824
4.02192e-08
3.1818e-05
0.00164703
4.7584e-05
0.00157575
6.28064e-05
0.00149087
7.72453e-05
0.00138651
9.07065e-05
0.001262
0.000102966
0.00111675
0.000113832
0.000951583
0.000123021
0.000766209
0.000130232
0.000561511
0.000135047
0.000338651
9.89768e-05
0.000136938
1.56903e-05
0.00171251
3.98597e-08
3.16269e-05
0.00163109
4.72977e-05
0.00156008
6.24271e-05
0.00147573
7.67755e-05
0.00137216
9.01479e-05
0.00124862
0.00010232
0.00110457
0.000113099
0.000940797
0.000122201
0.000757095
0.000129327
0.00055437
0.00013407
0.000333886
9.70898e-05
0.000135914
1.55961e-05
0.00169687
3.95599e-08
3.1437e-05
0.00161525
4.70132e-05
0.00154451
6.205e-05
0.0014607
7.63084e-05
0.0013579
8.95925e-05
0.00123534
0.000101678
0.00109248
0.00011237
0.000930111
0.000121387
0.000748083
0.00012843
0.000547334
0.000133101
0.000329226
9.53121e-05
0.000134902