/*--------------------------------*- C++ -*----------------------------------*\
  =========                 |
  \\      /  F ield         | OpenFOAM: The Open Source CFD Toolbox
   \\    /   O peration     | Website:  https://openfoam.org
    \\  /    A nd           | Version:  6.0
     \\/     M anipulation  |
\*---------------------------------------------------------------------------*/
FoamFile
{
    version     2.0;
    format      ascii;
    class       volVectorField;
    location    "4";
    object      U;
}
// * * * * * * * * * * * * * * * * * * * * * * * * * * * * * * * * * * * * * //

dimensions      [0 1 -1 0 0 0 0];

internalField   nonuniform List<vector> 
15000
(
(1.0002 4.32484e-05 -6.12216e-17)
(1.00179 0.000458738 8.358e-17)
(1.00482 0.00181155 -1.46664e-16)
(1.00905 0.00470911 1.65471e-16)
(1.01412 0.00975528 -7.98621e-16)
(1.01961 0.0175502 -4.6606e-16)
(1.02524 0.0291145 4.67947e-16)
(1.03036 0.0454641 -1.0121e-15)
(1.03504 0.0702505 2.88036e-16)
(1.03766 0.105329 -1.8833e-16)
(1.0397 0.170962 -1.37428e-16)
(1.06154 0.288724 -5.8288e-17)
(1.00037 7.14718e-05 8.97195e-17)
(1.00328 0.000817635 -1.23143e-16)
(1.00885 0.00327331 2.72784e-16)
(1.01658 0.00853169 -6.74712e-17)
(1.02585 0.0176596 3.51319e-16)
(1.03589 0.031672 4.65776e-16)
(1.04621 0.0524016 -2.57417e-16)
(1.05584 0.0814584 1.03301e-15)
(1.06497 0.125374 -1.99791e-16)
(1.07242 0.186518 1.04019e-17)
(1.08296 0.300785 2.83837e-17)
(1.14753 0.508027 2.39646e-17)
(1.00035 9.05982e-05 -6.83341e-17)
(1.00297 0.00082623 1.65961e-16)
(1.00798 0.00309489 -9.42671e-17)
(1.01496 0.00786728 3.44697e-16)
(1.02334 0.0160827 1.90339e-16)
(1.03247 0.0285638 1.7496e-16)
(1.04196 0.0469832 3.81461e-16)
(1.05122 0.0725426 -4.55078e-16)
(1.06052 0.111223 -2.36184e-16)
(1.07131 0.164022 -7.3034e-17)
(1.08914 0.262478 -9.33408e-18)
(1.19762 0.435577 6.35931e-17)
(1.00032 0.00012651 -2.91806e-17)
(1.00254 0.000866517 -1.57163e-16)
(1.00682 0.00291124 -2.42453e-16)
(1.01281 0.00707992 -1.71109e-16)
(1.02006 0.0141822 -9.97111e-17)
(1.02807 0.0248653 -6.81929e-16)
(1.03654 0.0406497 -1.05455e-15)
(1.04529 0.0624067 1.15953e-16)
(1.05462 0.095556 2.89469e-17)
(1.06819 0.140027 3.54929e-16)
(1.08975 0.222256 -1.51965e-16)
(1.23444 0.358583 -8.45632e-17)
(1.00034 0.000169868 5.19823e-17)
(1.00253 0.00100178 2.5395e-17)
(1.00676 0.00312389 1.22933e-16)
(1.01272 0.00733275 -5.79513e-17)
(1.01997 0.0144494 1.58185e-16)
(1.02809 0.0250944 1.4182e-16)
(1.03678 0.0408483 1.06672e-15)
(1.04609 0.0624838 -6.73157e-17)
(1.05627 0.0955747 -1.78092e-16)
(1.07257 0.139448 3.95419e-17)
(1.09556 0.21934 1.05874e-16)
(1.26551 0.347622 -2.12309e-17)
(1.00038 0.000211326 3.00665e-18)
(1.00265 0.00115179 -1.45697e-17)
(1.00703 0.00342837 -1.63546e-17)
(1.01322 0.00784302 -2.94299e-18)
(1.02078 0.0152593 -6.55219e-16)
(1.02931 0.0262971 7.92186e-16)
(1.0385 0.0426222 1.96688e-17)
(1.04857 0.06492 1.01861e-16)
(1.05968 0.0990027 4.4276e-16)
(1.07861 0.143631 -1.86324e-16)
(1.10207 0.223219 1.87848e-16)
(1.28814 0.34926 5.32511e-17)
(1.00042 0.000251187 -2.7228e-18)
(1.0027 0.00128102 1.57339e-16)
(1.00711 0.00365086 -1.59277e-16)
(1.01334 0.00813739 -7.74037e-17)
(1.02098 0.0156195 3.36639e-16)
(1.02967 0.0266891 -1.63767e-16)
(1.03909 0.0430441 -4.4119e-16)
(1.04967 0.0652289 -2.18808e-16)
(1.06147 0.099103 7.73821e-17)
(1.08286 0.142851 3.24625e-16)
(1.10629 0.218759 -4.449e-16)
(1.30175 0.336222 4.90176e-17)
(1.00045 0.000292136 -4.0195e-17)
(1.00271 0.0014016 6.08915e-17)
(1.00706 0.0038292 1.83546e-16)
(1.01322 0.00831077 3.46211e-16)
(1.02082 0.0157282 1.83015e-16)
(1.02954 0.026639 -2.00532e-16)
(1.03906 0.0427546 -2.12118e-16)
(1.05005 0.0644731 -9.70548e-17)
(1.0624 0.0976129 3.02334e-17)
(1.08614 0.13989 -7.13509e-17)
(1.10919 0.210845 3.83304e-16)
(1.30874 0.317324 -8.73794e-17)
(1.00049 0.000334803 1.58256e-17)
(1.00274 0.00152519 -1.49534e-16)
(1.00706 0.00401669 1.12055e-17)
(1.01318 0.00850867 -5.5325e-17)
(1.02076 0.0158898 5.52964e-17)
(1.02954 0.0266923 -4.5839e-17)
(1.03921 0.0426493 3.74231e-17)
(1.05063 0.0640312 3.88239e-16)
(1.06351 0.0966113 -4.42466e-17)
(1.08948 0.137767 -4.24827e-16)
(1.11201 0.204321 -3.2414e-16)
(1.31131 0.301435 1.60097e-16)
(1.00054 0.000378621 5.62305e-17)
(1.00279 0.00165058 3.74112e-18)
(1.0071 0.00421436 1.41296e-16)
(1.01323 0.00873896 -3.69067e-16)
(1.02084 0.0161216 -8.73926e-17)
(1.02972 0.026873 3.89661e-16)
(1.03956 0.0427522 -3.2182e-16)
(1.05143 0.0639133 -4.63931e-16)
(1.06482 0.0960709 1.28603e-16)
(1.09286 0.136367 1.10211e-16)
(1.11497 0.198943 2.43084e-16)
(1.31062 0.288052 -2.33794e-17)
(1.00059 0.000423185 -7.71164e-17)
(1.00284 0.0017735 -1.77326e-17)
(1.00716 0.00440648 -1.6835e-16)
(1.01329 0.00896334 2.7981e-17)
(1.02093 0.0163466 1.26468e-16)
(1.0299 0.0270421 -2.69219e-16)
(1.03991 0.0428297 1.96815e-16)
(1.05221 0.0637529 5.21299e-16)
(1.06605 0.0954338 -3.53702e-16)
(1.09602 0.134869 1.19361e-16)
(1.11792 0.193475 -3.14983e-16)
(1.30749 0.274868 -1.57347e-16)
(1.00065 0.000468421 5.00837e-18)
(1.00289 0.00189235 1.47294e-16)
(1.00721 0.00458722 -1.47345e-16)
(1.01335 0.00916867 1.13532e-16)
(1.021 0.0165412 -3.45736e-16)
(1.03006 0.0271618 -1.52001e-16)
(1.04021 0.0428235 4.83253e-17)
(1.05291 0.0634657 -2.09304e-16)
(1.06714 0.0945856 -2.46625e-16)
(1.09888 0.133126 1.92319e-16)
(1.12087 0.187778 1.08104e-16)
(1.30275 0.261659 1.85179e-18)
(1.0007 0.000514256 1.88327e-17)
(1.00295 0.00200717 -1.4734e-17)
(1.00726 0.00475781 4.05935e-16)
(1.0134 0.00935965 1.16555e-16)
(1.02108 0.0167189 1.976e-16)
(1.03021 0.0272603 -2.17429e-16)
(1.04049 0.0427842 -1.06472e-16)
(1.05357 0.0631336 8.27295e-17)
(1.06815 0.0936536 2.91804e-16)
(1.10149 0.131321 -6.47343e-16)
(1.12391 0.182178 -1.82216e-16)
(1.29713 0.249041 1.0036e-16)
(1.00077 0.000560533 -5.81449e-17)
(1.00301 0.0021179 -5.17027e-17)
(1.00731 0.00491899 -3.20705e-16)
(1.01346 0.00953854 -2.52181e-16)
(1.02116 0.0168858 -1.7504e-16)
(1.03038 0.0273522 2.71066e-16)
(1.04079 0.0427387 1.81267e-16)
(1.05423 0.0627991 -1.90087e-16)
(1.06913 0.0927018 -2.31221e-16)
(1.10389 0.129533 -6.92139e-17)
(1.12705 0.176806 2.62867e-16)
(1.29114 0.23721 -9.19456e-17)
(1.00083 0.000607059 3.12996e-17)
(1.00307 0.00222429 2.46963e-17)
(1.00736 0.00507016 3.78951e-17)
(1.01352 0.00970286 6.01792e-17)
(1.02124 0.0170365 6.20719e-17)
(1.03054 0.0274288 -1.10059e-16)
(1.04108 0.0426756 5.73958e-18)
(1.05488 0.0624476 -2.62232e-16)
(1.07006 0.0917117 2.26344e-16)
(1.10605 0.127725 7.31108e-16)
(1.13023 0.171613 -7.77653e-17)
(1.28514 0.226039 1.31939e-16)
(1.0009 0.000653653 -3.02051e-17)
(1.00312 0.00232631 1.12861e-18)
(1.0074 0.00521126 1.12973e-16)
(1.01357 0.00985101 1.58929e-16)
(1.02132 0.0171657 1.74164e-16)
(1.0307 0.02748 -1.11291e-16)
(1.04136 0.0425799 -1.73627e-16)
(1.05549 0.0620593 4.04835e-16)
(1.07093 0.0906605 8.91233e-17)
(1.10797 0.125862 -7.8657e-16)
(1.13341 0.166556 9.08846e-17)
(1.27936 0.215436 4.50224e-18)
(1.00097 0.000700119 6.91135e-17)
(1.00319 0.00242418 2.53411e-17)
(1.00745 0.00534344 -2.44057e-16)
(1.01362 0.0099845 1.04728e-16)
(1.02139 0.0172738 -4.22079e-17)
(1.03085 0.0275048 2.71796e-16)
(1.04162 0.0424492 4.48949e-16)
(1.05608 0.0616322 7.1608e-17)
(1.07175 0.0895508 3.16652e-16)
(1.10966 0.123943 6.53745e-16)
(1.13654 0.161643 5.52982e-16)
(1.27395 0.2054 -1.11528e-16)
(1.00105 0.00074624 2.6555e-17)
(1.00325 0.00251822 -2.10381e-17)
(1.0075 0.0054683 2.32096e-16)
(1.01367 0.0101067 -2.10536e-16)
(1.02145 0.0173655 2.94903e-16)
(1.03098 0.0275081 2.78988e-18)
(1.04187 0.0422898 -2.91425e-16)
(1.05664 0.061175 8.69412e-17)
(1.07253 0.0883984 -2.74686e-16)
(1.11112 0.121988 -1.14497e-16)
(1.13957 0.156894 -2.24093e-16)
(1.269 0.19594 -2.28044e-17)
(1.00113 0.000791764 -3.18436e-17)
(1.00332 0.00260861 -1.76973e-16)
(1.00756 0.00558719 -9.65422e-17)
(1.01372 0.0102208 1.17823e-16)
(1.02152 0.0174459 -2.13338e-17)
(1.03112 0.0274967 -1.93571e-16)
(1.04211 0.0421101 -3.89233e-17)
(1.05718 0.0606982 -2.34653e-17)
(1.07327 0.0872196 -3.28536e-16)
(1.11238 0.120011 -2.05136e-16)
(1.14245 0.15232 -6.73565e-16)
(1.26451 0.187036 2.25118e-16)
(1.00121 0.000836437 -3.033e-17)
(1.0034 0.00269538 1.84191e-16)
(1.00762 0.00570089 -1.3099e-16)
(1.01378 0.0103292 5.81008e-17)
(1.02159 0.0175188 -1.41334e-16)
(1.03126 0.0274757 -3.14311e-16)
(1.04235 0.0419163 3.88407e-17)
(1.0577 0.0602091 -4.7323e-17)
(1.07398 0.0860251 1.78068e-16)
(1.11346 0.11802 2.35246e-16)
(1.14515 0.147915 6.07186e-16)
(1.26048 0.178648 -2.23509e-16)
(1.00129 0.000880006 2.18151e-17)
(1.00348 0.00277843 -8.5887e-18)
(1.0077 0.00580952 2.08363e-17)
(1.01386 0.0104326 -4.82408e-17)
(1.02167 0.0175861 -1.77315e-16)
(1.03141 0.0274479 -6.67834e-18)
(1.04259 0.0417117 -8.93033e-17)
(1.05821 0.0597106 -4.54447e-16)
(1.07467 0.0848194 2.49407e-16)
(1.11435 0.116015 1.14781e-16)
(1.14763 0.143664 2.55974e-17)
(1.25684 0.170723 5.15081e-17)
(1.00138 0.000922254 2.4943e-17)
(1.00356 0.00285762 -2.01944e-16)
(1.00777 0.00591276 3.94001e-16)
(1.01393 0.0105305 3.72155e-17)
(1.02176 0.0176475 1.07492e-16)
(1.03157 0.0274133 6.3995e-16)
(1.04283 0.0414961 5.09679e-16)
(1.0587 0.0592016 2.45309e-16)
(1.07534 0.0836019 -5.91961e-16)
(1.11509 0.113993 -1.47882e-16)
(1.14986 0.139549 3.66185e-17)
(1.25354 0.163206 -7.95437e-18)
(1.00147 0.000962992 -4.67311e-17)
(1.00365 0.00293281 8.04401e-17)
(1.00785 0.0060101 -5.31578e-17)
(1.01402 0.0106218 -6.70495e-17)
(1.02186 0.0177013 -1.90973e-16)
(1.03173 0.0273698 -3.71329e-16)
(1.04307 0.0412674 -1.95613e-16)
(1.05917 0.0586788 -1.47246e-17)
(1.07598 0.0823698 1.72162e-16)
(1.11568 0.111947 -1.39925e-16)
(1.15183 0.13555 -6.27801e-16)
(1.25049 0.156053 1.9322e-16)
(1.00156 0.00100208 3.41143e-17)
(1.00374 0.00300393 4.86107e-18)
(1.00794 0.00610106 -1.44465e-16)
(1.01411 0.0107052 -1.0975e-16)
(1.02196 0.0177453 -6.00685e-17)
(1.03188 0.027315 -8.73015e-17)
(1.0433 0.0410227 -1.54351e-16)
(1.05961 0.0581388 -1.56231e-16)
(1.07659 0.0811212 -4.10754e-17)
(1.11614 0.109874 -1.29601e-16)
(1.15352 0.131653 3.7993e-17)
(1.24764 0.149229 -3.92234e-17)
(1.00165 0.00103941 1.16883e-17)
(1.00383 0.00307099 1.14194e-16)
(1.00802 0.00618541 3.11306e-17)
(1.01419 0.0107795 -1.18472e-17)
(1.02206 0.0177776 7.40155e-17)
(1.03204 0.0272464 2.03824e-16)
(1.04353 0.0407599 7.5945e-17)
(1.06004 0.0575796 1.8047e-16)
(1.07717 0.0798563 1.93564e-16)
(1.11647 0.107777 -1.61267e-16)
(1.15494 0.127851 4.0901e-16)
(1.24491 0.142713 -1.59063e-16)
(1.00175 0.0010749 -1.58479e-17)
(1.00392 0.0031341 -1.49495e-17)
(1.0081 0.00626321 -1.12438e-16)
(1.01428 0.0108442 -7.34517e-17)
(1.02215 0.0177969 -2.592e-17)
(1.03219 0.0271625 -1.31133e-16)
(1.04375 0.0404778 7.34988e-18)
(1.06044 0.0570008 -2.09558e-16)
(1.07773 0.0785774 -1.64606e-17)
(1.1167 0.105661 5.5691e-16)
(1.1561 0.124142 2.03323e-16)
(1.24227 0.136489 1.38056e-17)
(1.00185 0.00110847 -7.53636e-18)
(1.00401 0.00319338 -8.75989e-17)
(1.00819 0.00633482 -3.84102e-17)
(1.01436 0.0108996 -5.69536e-17)
(1.02224 0.0178032 4.16025e-16)
(1.03234 0.0270629 -9.44783e-17)
(1.04396 0.0401766 1.08839e-16)
(1.06081 0.0564033 -1.07119e-16)
(1.07826 0.0772885 -1.56813e-16)
(1.11684 0.103531 -1.40896e-16)
(1.157 0.120526 -8.25297e-18)
(1.23967 0.130544 -5.39593e-17)
(1.00195 0.00114005 2.60908e-17)
(1.00411 0.00324901 -3.11885e-17)
(1.00827 0.00640074 1.30521e-16)
(1.01445 0.0109466 2.61629e-16)
(1.02233 0.0177972 -3.93107e-16)
(1.03248 0.0269487 3.64934e-16)
(1.04415 0.0398578 -1.95321e-16)
(1.06116 0.0557893 -9.62945e-17)
(1.07877 0.075994 -1.18906e-16)
(1.1169 0.101396 -1.8853e-16)
(1.15766 0.117003 -6.27504e-17)
(1.23709 0.124867 -3.32691e-17)
(1.00205 0.00116955 -4.45767e-18)
(1.00421 0.00330105 -1.19455e-17)
(1.00836 0.00646148 -1.19971e-17)
(1.01453 0.0109861 -2.53047e-16)
(1.02242 0.0177807 -1.07174e-16)
(1.03261 0.0268217 -9.71956e-18)
(1.04435 0.0395237 -2.75272e-16)
(1.06149 0.0551615 4.82322e-16)
(1.07925 0.0746988 -2.9377e-18)
(1.11689 0.099263 1.33559e-16)
(1.1581 0.113574 7.44113e-17)
(1.2345 0.119446 -1.80879e-18)
(1.00215 0.00119691 -1.44513e-17)
(1.00431 0.00334955 8.23381e-17)
(1.00845 0.00651741 2.44062e-17)
(1.01462 0.0110194 3.47645e-16)
(1.02251 0.0177554 1.87469e-16)
(1.03275 0.0266842 -3.08243e-16)
(1.04453 0.0391773 1.35674e-16)
(1.06179 0.054523 -2.53686e-16)
(1.0797 0.073407 8.05995e-16)
(1.11683 0.0971375 -5.42827e-17)
(1.15834 0.110237 9.43791e-18)
(1.23188 0.114266 -4.05603e-17)
(1.00226 0.00122203 -1.5072e-17)
(1.00441 0.00339441 5.74868e-17)
(1.00854 0.00656864 -6.87544e-17)
(1.01471 0.011047 -3.37184e-16)
(1.02261 0.0177229 3.44694e-16)
(1.03288 0.0265385 1.97716e-16)
(1.04471 0.038821 2.41972e-16)
(1.06208 0.0538763 1.02939e-16)
(1.08014 0.0721216 -6.75437e-17)
(1.11672 0.0950238 2.91881e-16)
(1.1584 0.10699 -4.21896e-16)
(1.22924 0.109313 3.27249e-16)
(1.00237 0.00124484 2.09992e-17)
(1.00452 0.0034355 -1.10003e-16)
(1.00864 0.00661502 -6.39025e-17)
(1.01481 0.0110693 -2.01162e-17)
(1.02271 0.017684 -1.31878e-16)
(1.03302 0.0263858 -3.75284e-18)
(1.04489 0.0384567 -1.98581e-16)
(1.06235 0.0532228 -1.42567e-16)
(1.08055 0.0708439 -7.40168e-16)
(1.11657 0.0929239 -2.1308e-16)
(1.15829 0.103827 -1.09569e-16)
(1.22657 0.104571 -8.68722e-18)
(1.00248 0.00126529 8.04894e-18)
(1.00463 0.00347265 -9.0279e-18)
(1.00875 0.00665614 -3.2288e-17)
(1.01491 0.0110857 2.45048e-16)
(1.02281 0.0176385 -4.10553e-16)
(1.03316 0.0262264 -2.98593e-16)
(1.04507 0.0380847 2.48209e-16)
(1.0626 0.0525626 -1.52789e-17)
(1.08093 0.0695736 4.54328e-17)
(1.11639 0.090838 2.25721e-16)
(1.15805 0.100743 -7.28161e-17)
(1.22388 0.100024 9.28559e-17)
(1.00259 0.00128337 -1.15933e-17)
(1.00474 0.00350568 1.29602e-16)
(1.00885 0.00669152 2.18804e-16)
(1.01501 0.0110955 -7.23192e-17)
(1.02292 0.0175857 3.25104e-17)
(1.0333 0.0260594 1.32687e-16)
(1.04524 0.0377043 -2.95957e-16)
(1.06283 0.0518946 2.96144e-16)
(1.08129 0.0683093 2.12304e-16)
(1.11617 0.0887655 -1.53017e-16)
(1.15767 0.0977316 1.41789e-18)
(1.22116 0.0956583 -5.42611e-18)
(1.0027 0.00129908 -3.27939e-18)
(1.00485 0.00353449 -1.88206e-16)
(1.00896 0.00672071 -3.67798e-17)
(1.01512 0.0110978 4.35624e-17)
(1.02303 0.0175242 4.83691e-16)
(1.03344 0.0258835 3.78879e-17)
(1.04541 0.0373143 2.7467e-16)
(1.06304 0.0512171 -4.82926e-16)
(1.08162 0.0670493 2.23656e-16)
(1.11593 0.0867057 -2.35575e-16)
(1.15718 0.0947877 4.11214e-16)
(1.21842 0.0914639 -1.47465e-16)
(1.00281 0.00131245 1.63883e-17)
(1.00496 0.00355905 8.34286e-17)
(1.00906 0.00674342 -8.81401e-17)
(1.01523 0.0110918 3.59733e-17)
(1.02313 0.0174528 -2.90794e-16)
(1.03357 0.0256972 -1.00207e-16)
(1.04557 0.0369132 1.58414e-17)
(1.06323 0.0505289 3.46268e-16)
(1.08192 0.0657924 1.92366e-16)
(1.11566 0.084659 -1.15291e-17)
(1.15659 0.0919087 5.46231e-16)
(1.21568 0.0874327 -1.97318e-16)
(1.00293 0.00132355 1.0989e-18)
(1.00507 0.00357942 9.10006e-17)
(1.00916 0.00675959 9.04569e-17)
(1.01533 0.0110771 -1.08327e-17)
(1.02324 0.0173708 2.12453e-16)
(1.0337 0.0254994 2.69134e-16)
(1.04572 0.0365001 -7.94795e-17)
(1.0634 0.0498292 3.47195e-16)
(1.08219 0.0645382 -7.35629e-16)
(1.11537 0.0826269 -7.17018e-17)
(1.15592 0.0890936 -7.92221e-16)
(1.21293 0.0835593 4.61993e-17)
(1.00305 0.00133246 -4.74996e-17)
(1.00519 0.00359574 5.65787e-17)
(1.00927 0.0067694 -1.6102e-17)
(1.01543 0.0110539 1.16345e-16)
(1.02334 0.0172782 -1.58133e-16)
(1.03382 0.02529 -3.77323e-16)
(1.04586 0.0360751 -2.80754e-17)
(1.06354 0.0491185 -2.47611e-16)
(1.08243 0.0632878 7.84121e-16)
(1.11506 0.0806122 -2.31201e-17)
(1.15517 0.0863426 1.71308e-16)
(1.21019 0.0798392 2.36601e-16)
(1.00316 0.00133925 1.18141e-17)
(1.0053 0.00360818 -2.42565e-16)
(1.00937 0.00677324 8.31424e-17)
(1.01553 0.0110226 -3.82409e-16)
(1.02343 0.0171754 1.88671e-16)
(1.03394 0.0250697 6.11876e-16)
(1.04599 0.0356391 -1.53384e-16)
(1.06367 0.048398 -3.45329e-16)
(1.08264 0.0620427 -2.4981e-16)
(1.11472 0.078618 -4.34333e-17)
(1.15436 0.0836565 1.7906e-16)
(1.20747 0.0762679 -2.20223e-16)
(1.00328 0.00134403 2.70739e-17)
(1.00541 0.00361694 7.04671e-17)
(1.00947 0.00677157 -2.52435e-16)
(1.01563 0.010984 3.46641e-16)
(1.02353 0.0170636 -5.13926e-16)
(1.03405 0.0248397 -5.02842e-16)
(1.04612 0.0351939 1.85476e-16)
(1.06377 0.0476697 6.2004e-16)
(1.08281 0.0608053 -3.2317e-16)
(1.11437 0.0766477 1.15685e-16)
(1.1535 0.0810358 -7.77789e-17)
(1.20477 0.0728403 2.09277e-17)
(1.0034 0.00134688 -4.61029e-18)
(1.00553 0.00362221 1.5197e-16)
(1.00958 0.00676485 2.01327e-16)
(1.01573 0.0109391 -2.37535e-16)
(1.02362 0.0169442 1.14123e-16)
(1.03415 0.0246016 3.0946e-16)
(1.04623 0.0347413 1.00623e-16)
(1.06386 0.0469358 -6.45433e-17)
(1.08296 0.0595773 4.53495e-16)
(1.114 0.0747036 2.05273e-16)
(1.15259 0.07848 3.23885e-17)
(1.20209 0.0695504 2.2542e-17)
(1.00352 0.00134789 1.03582e-17)
(1.00564 0.00362416 -1.69472e-16)
(1.00969 0.00675346 -4.45396e-17)
(1.01583 0.0108886 9.30051e-17)
(1.02372 0.0168182 5.5419e-16)
(1.03426 0.0243569 -2.78345e-16)
(1.04634 0.0342831 -2.29403e-16)
(1.06393 0.046198 -4.98418e-17)
(1.08308 0.0583601 -4.48707e-16)
(1.11362 0.0727875 2.32432e-16)
(1.15164 0.0759877 -2.72759e-17)
(1.19945 0.0663912 1.36994e-16)
(1.00365 0.00134716 -8.21831e-18)
(1.00576 0.00362289 1.06073e-16)
(1.00979 0.00673765 -7.27754e-17)
(1.01593 0.010833 2.70629e-16)
(1.02381 0.0166865 -5.20358e-16)
(1.03436 0.0241066 3.57847e-16)
(1.04645 0.0338204 -3.35696e-17)
(1.06399 0.0454575 -3.3705e-17)
(1.08318 0.0571543 4.64644e-16)
(1.11321 0.0708996 -1.60266e-16)
(1.15066 0.0735566 -1.10923e-16)
(1.19683 0.0633554 -3.48888e-17)
(1.00377 0.00134478 1.15551e-18)
(1.00588 0.00361854 -1.9768e-17)
(1.0099 0.00671755 8.86504e-17)
(1.01604 0.0107725 -3.00106e-16)
(1.02391 0.0165495 2.56763e-16)
(1.03446 0.0238513 8.38686e-17)
(1.04655 0.0333538 1.17279e-16)
(1.06403 0.0447148 -5.82434e-16)
(1.08324 0.0559597 -2.27197e-16)
(1.1128 0.0690398 -7.31332e-16)
(1.14964 0.0711839 -3.25409e-16)
(1.19425 0.060436 -2.66412e-16)
(1.00389 0.00134088 -1.5003e-17)
(1.006 0.00361119 1.36875e-17)
(1.01001 0.00669322 -1.66013e-16)
(1.01614 0.0107072 1.08373e-17)
(1.024 0.0164071 -6.52004e-17)
(1.03455 0.0235908 3.53864e-18)
(1.04664 0.0328834 2.16306e-16)
(1.06406 0.0439696 7.87393e-16)
(1.08328 0.0547755 6.36329e-17)
(1.11236 0.0672074 4.58209e-16)
(1.1486 0.0688669 -5.77232e-17)
(1.19171 0.0576266 4.91784e-16)
(1.00402 0.00133558 1.44312e-17)
(1.00612 0.00360097 8.3013e-18)
(1.01012 0.00666469 2.2428e-16)
(1.01624 0.0106369 -1.29915e-16)
(1.0241 0.0162592 -1.49964e-16)
(1.03464 0.0233248 -1.69777e-16)
(1.04673 0.0324086 -9.96748e-17)
(1.06407 0.0432217 -3.15868e-16)
(1.08329 0.053601 5.2797e-17)
(1.11191 0.0654018 4.56272e-16)
(1.14754 0.0666036 3.80059e-16)
(1.1892 0.0549221 -4.43674e-16)
(1.00414 0.00132902 -1.4726e-17)
(1.00624 0.00358802 -1.81603e-16)
(1.01023 0.00663204 -9.61405e-17)
(1.01635 0.0105615 2.18892e-17)
(1.02419 0.0161055 3.75792e-16)
(1.03473 0.0230528 -2.91698e-16)
(1.04681 0.0319291 -2.5193e-16)
(1.06407 0.0424706 -2.96777e-16)
(1.08328 0.0524355 -3.31582e-16)
(1.11144 0.0636226 -9.88959e-16)
(1.14645 0.0643924 -2.85296e-16)
(1.18673 0.0523179 2.28771e-16)
(1.00427 0.00132134 7.36934e-18)
(1.00636 0.0035725 1.51635e-16)
(1.01034 0.00659541 4.54564e-17)
(1.01645 0.0104811 2.77864e-16)
(1.02428 0.0159457 -4.3351e-16)
(1.03481 0.0227746 4.13535e-16)
(1.04688 0.0314446 -4.62397e-18)
(1.06406 0.0417164 6.9945e-16)
(1.08324 0.0512789 2.35678e-16)
(1.11095 0.0618702 1.29383e-15)
(1.14534 0.0622326 1.59554e-16)
(1.18429 0.0498108 2.17205e-16)
(1.00439 0.0013127 -1.50336e-17)
(1.00648 0.00355459 3.25499e-17)
(1.01045 0.00655502 7.0462e-17)
(1.01655 0.0103958 -1.08635e-16)
(1.02437 0.0157801 3.70192e-16)
(1.03489 0.0224901 -4.36152e-16)
(1.04694 0.0309554 3.85506e-16)
(1.06403 0.0409595 -9.47576e-17)
(1.08317 0.0501315 1.43783e-16)
(1.11045 0.0601451 -9.46547e-16)
(1.14422 0.0601238 4.88977e-16)
(1.18189 0.0473974 -4.90926e-16)
(1.00452 0.00130324 1.61693e-17)
(1.0066 0.00353452 -9.00837e-17)
(1.01056 0.00651116 -1.30205e-16)
(1.01665 0.010306 -1.27471e-16)
(1.02445 0.0156089 3.82221e-17)
(1.03496 0.0221999 -1.14613e-16)
(1.047 0.0304619 -2.09966e-16)
(1.06398 0.0402006 -4.44592e-16)
(1.08308 0.0489941 -1.48817e-16)
(1.10992 0.0584484 2.21988e-16)
(1.14308 0.0580658 -4.83715e-16)
(1.17952 0.0450746 2.88378e-16)
(1.00465 0.00129309 3.89357e-17)
(1.00672 0.00351244 1.09613e-17)
(1.01067 0.00646412 -3.46147e-17)
(1.01675 0.0102122 9.26282e-17)
(1.02453 0.0154328 -5.04885e-16)
(1.03503 0.0219046 8.37813e-17)
(1.04705 0.0299651 3.50934e-16)
(1.06393 0.0394409 -1.8697e-16)
(1.08297 0.0478674 5.87783e-17)
(1.10939 0.0567807 -6.99652e-17)
(1.14193 0.0560581 1.11163e-16)
(1.17719 0.0428388 -2.20563e-16)
(1.00477 0.00128242 -2.54142e-17)
(1.00684 0.00348857 5.56327e-17)
(1.01078 0.00641419 -1.01141e-16)
(1.01685 0.0101147 -6.00098e-17)
(1.02461 0.0152523 3.75465e-16)
(1.03509 0.0216049 1.52019e-16)
(1.04709 0.0294658 -1.5558e-16)
(1.06386 0.0386814 3.04475e-16)
(1.08283 0.0467522 9.37413e-17)
(1.10884 0.0551426 1.68735e-16)
(1.14076 0.0540999 -1.53059e-16)
(1.17489 0.0406864 -4.90376e-18)
(1.0049 0.00127133 -3.88956e-17)
(1.00696 0.00346301 -2.0183e-17)
(1.01089 0.00636157 1.04288e-16)
(1.01694 0.0100139 9.12779e-17)
(1.02469 0.015068 1.16897e-16)
(1.03515 0.0213015 3.09556e-16)
(1.04713 0.0289647 -1.34733e-16)
(1.06379 0.037923 -5.73742e-17)
(1.08268 0.0456489 -1.14014e-16)
(1.10827 0.0535339 -3.81775e-18)
(1.13958 0.0521898 3.13026e-18)
(1.17262 0.0386131 1.66244e-16)
(1.00502 0.00125996 6.54132e-17)
(1.00707 0.00343591 -1.05701e-17)
(1.011 0.00630639 1.20447e-16)
(1.01704 0.00990994 -5.44856e-17)
(1.02477 0.0148802 -1.02996e-16)
(1.0352 0.0209947 -4.07523e-16)
(1.04716 0.0284624 -2.39074e-16)
(1.0637 0.037166 1.48786e-16)
(1.0825 0.0445573 2.19692e-17)
(1.10769 0.0519541 3.06006e-17)
(1.1384 0.0503261 4.18102e-17)
(1.17039 0.0366149 1.52529e-17)
(1.00514 0.00124842 -6.52199e-17)
(1.00719 0.00340735 9.94623e-17)
(1.0111 0.0062487 -1.77239e-16)
(1.01713 0.0098029 1.20774e-16)
(1.02485 0.0146889 -2.81025e-18)
(1.03525 0.0206846 2.76447e-16)
(1.04718 0.0279589 2.33327e-16)
(1.06361 0.0364105 -1.49026e-16)
(1.08231 0.0434772 2.30074e-16)
(1.1071 0.0504024 -1.3676e-16)
(1.1372 0.0485068 3.63494e-16)
(1.16818 0.0346876 3.20855e-16)
(1.00527 0.00123683 4.99615e-17)
(1.00731 0.00337742 -7.19868e-17)
(1.01121 0.00618852 -3.00143e-17)
(1.01723 0.00969269 8.98128e-17)
(1.02492 0.0144939 -1.11155e-16)
(1.0353 0.020371 -1.69245e-16)
(1.0472 0.0274539 2.50403e-16)
(1.06351 0.0356563 -1.4031e-16)
(1.0821 0.0424077 -2.80666e-16)
(1.10649 0.0488779 1.38662e-16)
(1.136 0.0467302 -2.09983e-16)
(1.166 0.0328279 -2.53676e-16)
(1.00539 0.00122528 2.07551e-17)
(1.00743 0.00334618 -7.65053e-17)
(1.01131 0.00612581 3.10728e-16)
(1.01732 0.00957912 -1.50408e-16)
(1.02499 0.014295 6.05481e-17)
(1.03534 0.0200535 -1.37449e-16)
(1.04722 0.026947 -3.2923e-16)
(1.0634 0.034903 2.73672e-16)
(1.08187 0.0413484 2.96608e-16)
(1.10588 0.0473795 -3.44672e-16)
(1.13479 0.0449948 -1.20634e-16)
(1.16385 0.0310325 -8.05271e-17)
(1.00551 0.00121388 -5.94904e-17)
(1.00754 0.00331373 2.31123e-17)
(1.01142 0.00606058 -1.40612e-16)
(1.01741 0.00946205 1.90361e-17)
(1.02506 0.014092 8.34918e-17)
(1.03538 0.0197318 3.33873e-16)
(1.04722 0.0264378 3.5206e-18)
(1.06327 0.0341503 -1.62582e-17)
(1.08163 0.0402986 -4.08495e-16)
(1.10524 0.0459066 5.53451e-17)
(1.13357 0.0432995 -7.02156e-17)
(1.16173 0.0292992 3.35833e-17)
(1.00563 0.00120271 -9.59692e-18)
(1.00765 0.00328014 -1.76009e-17)
(1.01152 0.00599285 -2.05037e-16)
(1.0175 0.00934141 -3.71062e-17)
(1.02513 0.0138845 -1.31426e-16)
(1.03541 0.0194056 -9.31743e-17)
(1.04722 0.0259262 -9.20478e-17)
(1.06314 0.0333982 1.08301e-16)
(1.08137 0.0392582 1.1503e-16)
(1.1046 0.044459 1.81863e-16)
(1.13235 0.0416436 2.31227e-16)
(1.15963 0.0276259 -1.06833e-16)
(1.00575 0.00119185 2.32132e-17)
(1.00777 0.00324551 1.20349e-17)
(1.01162 0.00592269 1.95719e-16)
(1.01758 0.00921721 -3.89181e-17)
(1.02519 0.0136727 -7.0743e-17)
(1.03544 0.0190749 -1.0679e-16)
(1.04721 0.0254121 3.07149e-16)
(1.063 0.0326467 -1.97558e-16)
(1.0811 0.0382272 6.5838e-17)
(1.10395 0.0430366 2.37576e-16)
(1.13113 0.0400267 -1.36931e-16)
(1.15756 0.0260108 -1.92715e-17)
(1.00586 0.00118135 -3.17187e-17)
(1.00788 0.00320991 3.27148e-17)
(1.01172 0.00585022 6.66516e-17)
(1.01766 0.00908958 1.40613e-16)
(1.02525 0.0134566 2.49676e-16)
(1.03546 0.0187399 -1.81924e-16)
(1.0472 0.0248959 -1.17215e-16)
(1.06286 0.0318964 1.18425e-17)
(1.08081 0.0372061 -1.95657e-16)
(1.10329 0.0416396 -2.61207e-16)
(1.1299 0.0384483 3.16215e-16)
(1.15552 0.0244522 1.20027e-16)
(1.00598 0.00117127 5.10392e-17)
(1.00799 0.00317343 6.21315e-17)
(1.01181 0.00577558 -6.33139e-17)
(1.01774 0.00895871 -1.27474e-16)
(1.0253 0.0132366 3.25794e-17)
(1.03548 0.0184009 2.97853e-16)
(1.04718 0.0243779 -2.06368e-16)
(1.0627 0.0311479 -7.16646e-18)
(1.08051 0.0361953 2.50042e-16)
(1.10262 0.0402682 -2.27711e-16)
(1.12868 0.0369082 -2.70118e-16)
(1.1535 0.0229483 -6.27966e-17)
(1.00609 0.0011616 6.30747e-18)
(1.00809 0.00313612 6.34618e-18)
(1.0119 0.00569887 -2.08154e-16)
(1.01782 0.00882481 -1.68066e-16)
(1.02535 0.0130129 -2.7875e-16)
(1.03549 0.0180583 3.71005e-17)
(1.04715 0.0238587 5.92358e-17)
(1.06254 0.0304018 -3.9538e-17)
(1.0802 0.0351953 -2.05705e-16)
(1.10194 0.0389223 4.29036e-16)
(1.12745 0.0354057 2.03175e-16)
(1.15151 0.021497 -5.72995e-17)
(1.0062 0.00115238 -2.99579e-17)
(1.0082 0.00309804 -5.81862e-17)
(1.012 0.00562021 2.77415e-16)
(1.01789 0.00868808 2.50156e-16)
(1.0254 0.0127859 -5.38368e-18)
(1.0355 0.0177127 5.15513e-17)
(1.04711 0.0233388 -7.78248e-17)
(1.06237 0.0296587 5.49601e-17)
(1.07988 0.0342064 2.19248e-16)
(1.10126 0.037602 -1.06253e-16)
(1.12622 0.03394 6.9595e-17)
(1.14955 0.0200962 1.07843e-16)
(1.00632 0.00114357 -1.8721e-18)
(1.00831 0.00305918 4.02331e-17)
(1.01209 0.00553964 -1.21404e-16)
(1.01796 0.00854863 -2.36271e-16)
(1.02545 0.0125557 1.41024e-16)
(1.03551 0.0173642 -3.16771e-16)
(1.04708 0.0228185 9.09836e-17)
(1.0622 0.028919 -1.29769e-16)
(1.07954 0.0332285 1.94185e-17)
(1.10057 0.0363067 1.09343e-16)
(1.125 0.0325102 -8.65008e-17)
(1.14761 0.0187436 -2.4287e-16)
(1.00642 0.00113515 1.73029e-17)
(1.00841 0.00301955 -1.11669e-16)
(1.01218 0.00545719 1.24496e-16)
(1.01803 0.00840652 2.07055e-16)
(1.0255 0.0123226 -2.62358e-16)
(1.03551 0.0170131 -2.16847e-17)
(1.04703 0.0222981 1.51994e-16)
(1.06202 0.0281828 -1.76344e-16)
(1.0792 0.0322618 -2.02926e-16)
(1.09988 0.035036 5.37271e-17)
(1.12378 0.0311151 -1.51813e-16)
(1.1457 0.0174374 2.16179e-16)
(1.00653 0.00112708 1.1363e-17)
(1.00851 0.0029791 5.88458e-17)
(1.01227 0.00537281 -5.7762e-17)
(1.0181 0.00826172 1.74337e-16)
(1.02554 0.0120865 1.27522e-16)
(1.03551 0.0166594 1.05191e-16)
(1.04698 0.0217775 -1.71887e-16)
(1.06184 0.0274502 2.52092e-16)
(1.07885 0.0313059 -2.11349e-18)
(1.09918 0.0337891 -4.27105e-16)
(1.12256 0.0297538 7.55732e-17)
(1.14381 0.0161756 -1.36252e-17)
(1.00664 0.00111931 -1.81148e-17)
(1.00861 0.00293783 6.07472e-17)
(1.01235 0.00528647 -2.01056e-16)
(1.01817 0.00811417 -1.46072e-16)
(1.02558 0.0118474 2.93204e-17)
(1.0355 0.016303 1.10517e-16)
(1.04693 0.0212567 1.79505e-16)
(1.06165 0.026721 2.35811e-17)
(1.0785 0.0303606 1.77565e-17)
(1.09848 0.0325656 2.85247e-16)
(1.12135 0.0284252 8.06142e-17)
(1.14195 0.0149567 -1.20609e-16)
(1.00674 0.00111176 -1.431e-17)
(1.00871 0.00289565 -1.68587e-17)
(1.01244 0.00519812 2.13051e-16)
(1.01823 0.00796379 3.35008e-18)
(1.02562 0.0116052 1.7906e-16)
(1.03549 0.0159439 -1.65406e-16)
(1.04687 0.0207355 -1.05316e-16)
(1.06145 0.0259952 -3.0127e-17)
(1.07813 0.0294256 3.461e-18)
(1.09777 0.0313648 1.73826e-16)
(1.12014 0.0271285 -2.52057e-16)
(1.14012 0.0137788 -1.40372e-16)
(1.00684 0.00110439 3.90305e-18)
(1.00881 0.00285256 -5.91679e-17)
(1.01252 0.0051077 -2.05965e-16)
(1.01829 0.00781052 3.63266e-17)
(1.02565 0.0113597 1.66813e-17)
(1.03548 0.0155819 2.1287e-18)
(1.04681 0.0202138 -5.56212e-17)
(1.06125 0.0252728 2.33029e-16)
(1.07776 0.0285008 2.43455e-16)
(1.09707 0.0301865 -1.52536e-16)
(1.11894 0.0258632 3.84065e-16)
(1.13831 0.012641 3.33949e-16)
(1.00694 0.00109709 2.58041e-17)
(1.0089 0.00280848 4.28611e-17)
(1.0126 0.00501517 3.59648e-16)
(1.01835 0.00765432 3.82928e-18)
(1.02568 0.011111 -8.58489e-17)
(1.03546 0.0152172 6.24858e-18)
(1.04674 0.0196918 -1.61608e-16)
(1.06104 0.0245539 -1.2203e-16)
(1.07738 0.0275863 -2.29293e-16)
(1.09636 0.0290303 1.60878e-16)
(1.11774 0.0246285 -2.40405e-16)
(1.13652 0.0115416 -1.04608e-16)
(1.00704 0.00108981 -3.04837e-17)
(1.00899 0.00276339 -6.37434e-17)
(1.01268 0.00492053 -3.52893e-16)
(1.01841 0.00749522 -5.67132e-17)
(1.02571 0.0108592 -2.56352e-17)
(1.03544 0.0148497 8.67602e-17)
(1.04666 0.0191695 1.0969e-16)
(1.06083 0.0238387 5.30709e-17)
(1.077 0.0266821 -2.29471e-16)
(1.09565 0.027896 -6.01916e-17)
(1.11655 0.0234241 7.2684e-17)
(1.13477 0.0104797 7.22641e-17)
(1.00713 0.00108243 -1.60987e-17)
(1.00908 0.0027172 8.71247e-17)
(1.01275 0.00482375 2.44448e-16)
(1.01847 0.00733323 -2.60953e-16)
(1.02574 0.0106044 -2.40604e-17)
(1.03542 0.0144797 6.24136e-17)
(1.04658 0.0186472 3.19137e-18)
(1.06062 0.0231275 1.34006e-17)
(1.07661 0.0257883 3.41684e-16)
(1.09494 0.0267833 -6.38391e-18)
(1.11537 0.0222491 -2.06232e-16)
(1.13304 0.00945365 -2.22417e-16)
(1.00722 0.0010749 2.59394e-17)
(1.00917 0.00266989 -3.42801e-17)
(1.01283 0.00472482 2.83554e-17)
(1.01852 0.00716841 4.06627e-16)
(1.02576 0.0103466 -2.49659e-17)
(1.03539 0.0141073 -9.31943e-17)
(1.0465 0.0181251 3.07264e-16)
(1.0604 0.0224204 -2.3663e-16)
(1.07621 0.0249051 -4.28949e-16)
(1.09423 0.025692 9.44902e-18)
(1.1142 0.0211029 2.76507e-16)
(1.13133 0.0084623 8.07031e-17)
(1.00731 0.00106709 -3.14982e-18)
(1.00926 0.00262137 4.8816e-17)
(1.0129 0.00462372 -5.92405e-17)
(1.01857 0.00700076 -2.23993e-16)
(1.02578 0.010086 -1.36726e-16)
(1.03536 0.0137328 2.47251e-16)
(1.04641 0.0176033 -1.32382e-16)
(1.06018 0.0217177 8.70155e-17)
(1.07581 0.0240322 1.01075e-16)
(1.09352 0.0246214 -2.36095e-16)
(1.11304 0.0199846 -2.45759e-16)
(1.12966 0.00750395 1.2854e-16)
(1.0074 0.00105895 -3.3515e-18)
(1.00934 0.0025716 -1.15879e-17)
(1.01297 0.00452042 -7.33446e-17)
(1.01861 0.0068303 9.28165e-17)