/*--------------------------------*- C++ -*----------------------------------*\
  =========                 |
  \\      /  F ield         | OpenFOAM: The Open Source CFD Toolbox
   \\    /   O peration     | Website:  https://openfoam.org
    \\  /    A nd           | Version:  6.0
     \\/     M anipulation  |
\*---------------------------------------------------------------------------*/
FoamFile
{
    version     2.0;
    format      ascii;
    class       volScalarField;
    location    "16";
    object      p;
}
// * * * * * * * * * * * * * * * * * * * * * * * * * * * * * * * * * * * * * //

dimensions      [0 2 -2 0 0 0 0];

internalField   nonuniform List<scalar> 
62000
(
0.0130961
0.0131479
0.0131976
0.0132395
0.0132762
0.0133034
0.0133244
0.0133349
0.0133375
0.0133264
0.0133054
0.013269
0.0132238
0.0131628
0.0130938
0.0130074
0.0129112
0.012794
0.0126636
0.0125084
0.012336
0.0121345
0.0119112
0.0116541
0.0113696
0.011046
0.0106882
0.0102852
0.00983962
0.00934228
0.00879467
0.00819037
0.0075273
0.00679395
0.00598183
0.00508825
0.00411311
0.00305325
0.00190494
0.000665762
-0.000663829
-0.00207971
-0.00357261
-0.00512683
-0.00671984
-0.00831895
-0.00988395
-0.0113672
-0.0127139
-0.0138772
-0.0148013
-0.0154531
-0.0157811
-0.0157472
-0.0153075
-0.0143645
-0.0129477
-0.0108759
-0.0121678
-0.0217408
0.0126759
0.0127294
0.0127825
0.0128303
0.0128756
0.0129136
0.0129495
0.0129815
0.0130131
0.0130361
0.013049
0.013042
0.0130183
0.0129727
0.0129135
0.0128356
0.0127467
0.0126389
0.0125179
0.0123747
0.0122136
0.0120259
0.0118153
0.0115731
0.0113022
0.0109942
0.0106503
0.0102635
0.00983224
0.00935116
0.00881804
0.00822993
0.00758145
0.00686167
0.00606045
0.00517421
0.00420082
0.00313521
0.00197111
0.00070304
-0.000672363
-0.00215548
-0.00374205
-0.00542176
-0.00717713
-0.00897898
-0.0107885
-0.0125552
-0.0142169
-0.0157147
-0.0169737
-0.0179407
-0.0185323
-0.0186826
-0.0183131
-0.0172753
-0.0155828
-0.0131032
-0.0125275
-0.0125183
0.0121698
0.0122076
0.0122457
0.0122821
0.0123181
0.0123461
0.01237
0.0123922
0.0124225
0.0124566
0.0124914
0.0125099
0.0125079
0.0124749
0.0124183
0.0123355
0.0122372
0.0121187
0.0119871
0.0118343
0.0116643
0.0114685
0.0112499
0.0110004
0.0107223
0.0104084
0.0100591
0.00966878
0.00923548
0.00875547
0.00822637
0.00764719
0.00701298
0.00631293
0.00553869
0.00468676
0.00375598
0.00274198
0.00163939
0.000443588
-0.000848235
-0.00223649
-0.00371794
-0.00528439
-0.00692128
-0.00860286
-0.0102936
-0.0119453
-0.0134963
-0.0148881
-0.0160448
-0.0169198
-0.0174441
-0.0175916
-0.0173517
-0.0166914
-0.0157613
-0.0146424
-0.0158839
-0.0197858
0.0117457
0.0117677
0.0117937
0.0118241
0.0118599
0.0118871
0.0119033
0.0119096
0.011923
0.0119488
0.0119893
0.0120255
0.0120455
0.0120298
0.0119804
0.0118932
0.0117814
0.0116442
0.0114916
0.0113177
0.011127
0.0109109
0.0106717
0.0104013
0.0101014
0.00976513
0.00939295
0.00897959
0.00852332
0.00802105
0.00747081
0.00687282
0.00622221
0.00550971
0.00472647
0.00387014
0.00293964
0.00193089
0.000839006
-0.000340007
-0.00160864
-0.00296788
-0.00441647
-0.00595002
-0.00755951
-0.00922625
-0.010923
-0.0126092
-0.0142301
-0.0157302
-0.0170344
-0.0180951
-0.0188442
-0.0192717
-0.0193959
-0.0192314
-0.0189136
-0.0185375
-0.0198225
-0.0231639
0.0113548
0.011361
0.0113716
0.0113918
0.0114264
0.0114584
0.0114763
0.0114748
0.0114721
0.0114823
0.0115166
0.0115606
0.0115982
0.0116024
0.0115662
0.0114808
0.0113582
0.0112006
0.0110215
0.0108183
0.0105972
0.0103506
0.0100804
0.0097781
0.00944511
0.0090741
0.00866552
0.00821414
0.00771826
0.00717498
0.0065827
0.00594191
0.00524881
0.00449336
0.0036682
0.00277025
0.00179867
0.000749271
-0.000382352
-0.00159932
-0.0029033
-0.00429507
-0.00577451
-0.00734019
-0.00898805
-0.0107065
-0.012477
-0.0142687
-0.0160348
-0.0177242
-0.0192592
-0.0205823
-0.0216075
-0.0223067
-0.0226779
-0.0227199
-0.0225139
-0.0220665
-0.022997
-0.0271055
0.0109755
0.0109734
0.0109711
0.0109763
0.0110026
0.0110359
0.0110588
0.0110576
0.0110468
0.0110439
0.0110689
0.0111139
0.0111647
0.0111893
0.0111732
0.0110999
0.0109778
0.010808
0.0106068
0.0103744
0.0101202
0.00983797
0.00953061
0.00918952
0.0088159
0.00840216
0.0079485
0.00744968
0.00690381
0.00630816
0.00566096
0.00496352
0.00421154
0.00339685
0.00251088
0.00155152
0.000517892
-0.000593871
-0.00178697
-0.00306244
-0.00441944
-0.00585618
-0.00737064
-0.00896087
-0.0106238
-0.0123512
-0.0141306
-0.0159388
-0.017739
-0.0194875
-0.0211119
-0.0225521
-0.0237144
-0.0245627
-0.0250903
-0.0253026
-0.0252971
-0.0251053
-0.026569
-0.0315049
0.0105065
0.0105139
0.0105111
0.0105051
0.0105194
0.0105469
0.0105704
0.0105693
0.0105527
0.0105376
0.0105492
0.0105869
0.0106412
0.0106804
0.0106854
0.0106342
0.0105288
0.0103679
0.0101668
0.00992728
0.00965997
0.00936054
0.00903237
0.0086672
0.00826606
0.00782116
0.00733252
0.00679479
0.00620596
0.00556306
0.00486446
0.00411102
0.00329965
0.00242079
0.00146766
0.000437004
-0.000671822
-0.00186247
-0.00313697
-0.00449403
-0.00592958
-0.00743786
-0.00901281
-0.0106489
-0.0123404
-0.014078
-0.0158512
-0.0176422
-0.0194231
-0.0211618
-0.0227987
-0.0242858
-0.02554
-0.026539
-0.0272944
-0.0278405
-0.0282903
-0.0287023
-0.0308836
-0.0359076
0.00984709
0.00988255
0.0098962
0.00989061
0.00989719
0.00991747
0.00993733
0.00993341
0.00990952
0.00987984
0.00987164
0.00988914
0.00992884
0.00996195
0.00997018
0.0099282
0.00983537
0.00968679
0.00949667
0.00926624
0.00900678
0.00871407
0.00839157
0.00803029
0.00763049
0.00718343
0.00668834
0.00613938
0.00553383
0.00486848
0.00414072
0.00335168
0.00249665
0.00156763
0.000555422
-0.000543124
-0.00172991
-0.00300954
-0.00438414
-0.0058515
-0.00740556
-0.00903749
-0.0107374
-0.0124957
-0.0143021
-0.0161437
-0.0180083
-0.0198785
-0.0217321
-0.023545
-0.0252711
-0.0268749
-0.0282879
-0.0295025
-0.0305449
-0.0314545
-0.0323012
-0.0330947
-0.0355673
-0.0400198
0.00900017
0.00907115
0.00911002
0.00911414
0.00911876
0.00913254
0.00914628
0.00913672
0.00910392
0.00905885
0.00902757
0.0090169
0.00902646
0.00903177
0.00901588
0.00895501
0.00884703
0.00868731
0.00848911
0.00825477
0.00799568
0.00770855
0.00739633
0.00704927
0.00666611
0.0062364
0.00575768
0.00522266
0.00462734
0.00396717
0.00323866
0.00244105
0.00156992
0.000614102
-0.000434786
-0.00158298
-0.00283427
-0.00419566
-0.00567131
-0.00726028
-0.00895686
-0.0107514
-0.0126323
-0.0145869
-0.016601
-0.0186568
-0.0207373
-0.0228214
-0.0248853
-0.0269058
-0.0288406
-0.0306577
-0.0322913
-0.0337321
-0.0349973
-0.0361016
-0.0370448
-0.0377892
-0.0401207
-0.0437024
0.00800369
0.00810628
0.00817093
0.00819022
0.00819954
0.00821173
0.00822247
0.00821007
0.00817277
0.00811838
0.00807117
0.00803724
0.0080177
0.00798898
0.00793628
0.00783587
0.00768707
0.00748522
0.00724577
0.00697243
0.00667942
0.00636534
0.00603471
0.00567803
0.00529351
0.00486925
0.00440093
0.00387948
0.00329882
0.00265297
0.00193605
0.00114648
0.000276577
-0.000684133
-0.00174814
-0.00292285
-0.00421531
-0.00563605
-0.00719268
-0.00888745
-0.0107173
-0.0126743
-0.0147473
-0.0169232
-0.0191853
-0.0215113
-0.0238782
-0.0262576
-0.0286187
-0.0309297
-0.0331426
-0.0352147
-0.0370688
-0.0386776
-0.040035
-0.0411225
-0.0418966
-0.0423332
-0.0443328
-0.0470741
0.00692079
0.00704229
0.00712461
0.00715713
0.0071727
0.0071855
0.00719539
0.00718259
0.00714511
0.00708862
0.00703554
0.00699066
0.00695417
0.00690242
0.00681968
0.00668234
0.0064886
0.00623465
0.00593632
0.00559991
0.00524209
0.00486521
0.00447668
0.00406959
0.00364359
0.00318713
0.00269547
0.00215849
0.0015688
0.000918669
0.000200903
-0.000588725
-0.00145813
-0.00242188
-0.00349192
-0.0046794
-0.00599392
-0.00744982
-0.00905872
-0.010827
-0.0127557
-0.0148403
-0.0170721
-0.0194394
-0.0219252
-0.0245041
-0.0271478
-0.0298194
-0.0324778
-0.0350786
-0.0375601
-0.0398624
-0.041888
-0.0435857
-0.0449257
-0.0458726
-0.0463846
-0.0464949
-0.0481765
-0.0502532
0.00579178
0.00591858
0.00600884
0.00605019
0.0060712
0.00608567
0.00609615
0.00608484
0.00605006
0.00599644
0.0059455
0.00590055
0.00586129
0.00580211
0.00570663
0.00554853
0.00532515
0.00503027
0.00467999
0.00428038
0.0038504
0.00339489
0.00292483
0.00243667
0.00193323
0.00140518
0.000849276
0.000256232
-0.000381462
-0.00107147
-0.00182249
-0.00263865
-0.00353098
-0.00451251
-0.00559906
-0.00680213
-0.00813377
-0.00961168
-0.011251
-0.013062
-0.0150504
-0.0172156
-0.0195526
-0.0220528
-0.0247004
-0.0274693
-0.0303275
-0.0332311
-0.0361294
-0.0389641
-0.0416599
-0.0441367
-0.046278
-0.0480115
-0.0492952
-0.0500962
-0.0504053
-0.0503093
-0.0517792
-0.0534037
0.00465849
0.0047782
0.00486596
0.00490896
0.00493079
0.00494383
0.00495227
0.00494018
0.0049063
0.00485535
0.00480798
0.00476761
0.00473257
0.00467721
0.00458275
0.00442198
0.00418881
0.00387561
0.00349538
0.00305355
0.00256803
0.00204496
0.00149684
0.00092303
0.000329365
-0.000290444
-0.00093684
-0.00161689
-0.00233621
-0.00310152
-0.00392033
-0.00479749
-0.00574228
-0.00677052
-0.00789567
-0.00913131
-0.0104901
-0.0119918
-0.0136541
-0.0154904
-0.0175102
-0.019717
-0.0221093
-0.0246824
-0.0274232
-0.0303069
-0.0332999
-0.0363542
-0.0394122
-0.0424053
-0.0452465
-0.047841
-0.0500576
-0.0518117
-0.0530595
-0.0537854
-0.0540185
-0.0538672
-0.0552446
-0.0565886
0.0035283
0.00363238
0.00371026
0.00374932
0.00376824
0.00377752
0.00378229
0.00376786
0.00373353
0.0036839
0.00363982
0.00360423
0.00357589
0.00352805
0.0034419
0.00328802
0.00305936
0.00274512
0.00235664
0.00189627
0.00138065
0.000814438
0.000210188
-0.000432004
-0.00110463
-0.00181177
-0.00255133
-0.00332762
-0.00414398
-0.00500436
-0.00591512
-0.0068783
-0.00790406
-0.0090041
-0.0101938
-0.0114846
-0.012889
-0.0144278
-0.0161195
-0.0179793
-0.0200196
-0.0222469
-0.0246631
-0.027267
-0.0300494
-0.0329877
-0.0360496
-0.0391859
-0.0423357
-0.0454242
-0.0483589
-0.0510346
-0.0533136
-0.0551056
-0.0563735
-0.0571216
-0.0574062
-0.0573202
-0.0586974
-0.0598876
0.00241844
0.00250004
0.00256128
0.00259005
0.00260079
0.00260188
0.00259931
0.00257904
0.002541
0.00248966
0.0024459
0.00241276
0.00238881
0.00234766
0.00226975
0.00212575
0.00190691
0.00160167
0.00121873
0.000758784
0.000235636
-0.000347795
-0.000980879
-0.00166426
-0.00239067
-0.00316353
-0.00397939
-0.0048408
-0.00574864
-0.00670489
-0.00771284
-0.00877345
-0.00989274
-0.0110833
-0.0123556
-0.0137211
-0.0151902
-0.016783
-0.018518
-0.0204108
-0.0224752
-0.0247197
-0.0271484
-0.0297635
-0.0325593
-0.0355166
-0.0386056
-0.0417786
-0.044975
-0.0481183
-0.0511144
-0.0538551
-0.056201
-0.058062
-0.0594097
-0.0602645
-0.0606929
-0.0607446
-0.0621808
-0.0632885
0.00132929
0.00138526
0.00142633
0.00144106
0.00144005
0.00142996
0.00141723
0.00138843
0.00134387
0.00128787
0.00124157
0.0012076
0.00118513
0.00114703
0.00107463
0.000937513
0.00072768
0.000431972
5.89729e-05
-0.000392813
-0.000910785
-0.0014945
-0.00213514
-0.00283532
-0.00358922
-0.00440109
-0.00526774
-0.00619114
-0.00717129
-0.00820812
-0.0093037
-0.0104556
-0.0116697
-0.0129529
-0.0143164
-0.0157673
-0.0173142
-0.0189759
-0.0207692
-0.0227092
-0.0248099
-0.0270806
-0.0295269
-0.0321534
-0.0349574
-0.0379233
-0.041025
-0.0442175
-0.0474434
-0.0506271
-0.0536782
-0.0564873
-0.0589187
-0.0608842
-0.0623632
-0.0633845
-0.0640089
-0.0642285
-0.0657539
-0.066821
0.000267216
0.000295777
0.000314162
0.000311607
0.000295329
0.000270419
0.000243626
0.000202334
0.000147063
8.25255e-05
2.94775e-05
-8.95539e-06
-3.43852e-05
-7.31253e-05
-0.000144808
-0.000278698
-0.0004838
-0.000772287
-0.00113683
-0.00157884
-0.00208739
-0.00266307
-0.00329915
-0.00399992
-0.00476156
-0.00558991
-0.00648301
-0.00744369
-0.00847181
-0.00956735
-0.0107306
-0.011959
-0.0132544
-0.0146247
-0.0160753
-0.0176128
-0.0192426
-0.0209813
-0.022844
-0.0248442
-0.0269954
-0.0293068
-0.0317843
-0.0344341
-0.0372558
-0.040237
-0.0433553
-0.0465695
-0.0498262
-0.0530533
-0.0561649
-0.0590549
-0.0615915
-0.0636895
-0.0653327
-0.0665518
-0.0673902
-0.0677788
-0.0694061
-0.0704455
-0.00078575
-0.000784338
-0.000788883
-0.000809545
-0.000842072
-0.000882679
-0.000924375
-0.000979244
-0.0010464
-0.00112113
-0.00118241
-0.00122761
-0.00125797
-0.00130072
-0.00137472
-0.00151017
-0.00171488
-0.00200175
-0.00236242
-0.00279905
-0.00330044
-0.0038683
-0.00449671
-0.00519149
-0.00595048
-0.00678123
-0.00768354
-0.0086616
-0.00971655
-0.0108486
-0.0120587
-0.0133429
-0.014704
-0.0161451
-0.0176731
-0.0192902
-0.0210002
-0.0228174
-0.024755
-0.0268245
-0.0290385
-0.0314052
-0.0339305
-0.0366209
-0.0394782
-0.0424921
-0.0456438
-0.0488956
-0.052199
-0.0554854
-0.0586754
-0.061665
-0.0643285
-0.0665811
-0.0684088
-0.0698375
-0.0708871
-0.0714313
-0.0731619
-0.0741814
-0.00183023
-0.00185641
-0.0018848
-0.00192507
-0.00197531
-0.00203313
-0.00209103
-0.00216089
-0.00224127
-0.00232755
-0.00239864
-0.00245205
-0.00248952
-0.00253818
-0.00261763
-0.00275736
-0.00296577
-0.0032547
-0.0036162
-0.0040516
-0.00455012
-0.00511328
-0.00573591
-0.00642443
-0.00717793
-0.00800525
-0.00890771
-0.0098912
-0.010958
-0.0121101
-0.0133486
-0.0146713
-0.0160786
-0.0175763
-0.0191668
-0.0208524
-0.0226348
-0.0245265
-0.0265388
-0.0286816
-0.0309661
-0.0333996
-0.035987
-0.0387351
-0.0416465
-0.0447129
-0.0479179
-0.0512273
-0.0545966
-0.057961
-0.0612465
-0.0643529
-0.0671582
-0.0695777
-0.071596
-0.0732315
-0.0744785
-0.075159
-0.0769911
-0.0779874
-0.00287483
-0.00292728
-0.00297868
-0.00303824
-0.00310617
-0.00318103
-0.00325509
-0.0033399
-0.00343372
-0.00353195
-0.00361325
-0.00367575
-0.00372097
-0.00377723
-0.00386351
-0.00401047
-0.00422532
-0.00452066
-0.00488723
-0.0053268
-0.0058276
-0.00639146
-0.007013
-0.00769906
-0.00844929
-0.00927339
-0.0101739
-0.0111579
-0.0122293
-0.0133911
-0.0146465
-0.015993
-0.017434
-0.018972
-0.0206121
-0.0223542
-0.0241991
-0.0261583
-0.0282415
-0.0304576
-0.0328163
-0.035324
-0.0379847
-0.0408049
-0.0437876
-0.0469256
-0.0502045
-0.0535927
-0.0570495
-0.0605124
-0.0639131
-0.0671528
-0.0701134
-0.0727084
-0.0749189
-0.0767536
-0.0781813
-0.0789803
-0.0809104
-0.0818857
-0.00391613
-0.00399366
-0.00406738
-0.00414605
-0.00423185
-0.0043243
-0.00441549
-0.00451643
-0.00462515
-0.00473656
-0.00482967
-0.00490227
-0.00495698
-0.0050217
-0.00511676
-0.00527196
-0.00549557
-0.00579896
-0.00617355
-0.00662006
-0.00712705
-0.00769572
-0.00832087
-0.00900913
-0.00976044
-0.0105849
-0.0114856
-0.0124706
-0.0135448
-0.014713
-0.0159786
-0.017342
-0.0188053
-0.0203751
-0.0220533
-0.0238413
-0.0257393
-0.027758
-0.0299066
-0.0321929
-0.0346261
-0.0372113
-0.039952
-0.0428542
-0.0459206
-0.0491449
-0.0525138
-0.0559979
-0.0595587
-0.0631361
-0.0666653
-0.0700494
-0.0731725
-0.0759447
-0.078343
-0.0803659
-0.0819582
-0.0828606
-0.0848873
-0.0858396
-0.00497045
-0.00507088
-0.005165
-0.00526116
-0.0053633
-0.00547171
-0.00557838
-0.00569402
-0.0058163
-0.00594009
-0.00604404
-0.00612657
-0.00619013
-0.00626393
-0.00636782
-0.00653285
-0.00676628
-0.00708032
-0.00746525
-0.00792224
-0.00843896
-0.00901678
-0.00965008
-0.0103455
-0.0111029
-0.0119326
-0.0128379
-0.0138274
-0.0149068
-0.0160815
-0.0173569
-0.0187332
-0.0202162
-0.0218096
-0.0235197
-0.025346
-0.0272896
-0.0293611
-0.0315693
-0.0339221
-0.036428
-0.0390917
-0.0419161
-0.0449066
-0.0480659
-0.0513878
-0.0548599
-0.0584541
-0.0621339
-0.0658399
-0.0695106
-0.073049
-0.076341
-0.0792926
-0.0818755
-0.0840776
-0.085822
-0.086818
-0.0889407
-0.0898743
-0.00603287
-0.0061556
-0.00626967
-0.00638317
-0.00650129
-0.00662534
-0.00674688
-0.00687667
-0.00701185
-0.00714734
-0.00726169
-0.00735356
-0.00742608
-0.00750861
-0.00762199
-0.00779681
-0.0080411
-0.00836618
-0.00876281
-0.00923141
-0.00975992
-0.0103492
-0.0109938
-0.0117001
-0.012468
-0.0133075
-0.0142223
-0.015221
-0.0163095
-0.0174944
-0.018781
-0.0201721
-0.021672
-0.0232891
-0.0250268
-0.0268871
-0.0288714
-0.0309904
-0.0332535
-0.0356689
-0.0382449
-0.040986
-0.0438948
-0.0469766
-0.0502336
-0.0536595
-0.0572427
-0.0609557
-0.0647634
-0.0686062
-0.0724249
-0.0761225
-0.0795856
-0.0827148
-0.0854768
-0.0878499
-0.0897371
-0.0908197
-0.09304
-0.0939569
-0.00710783
-0.00725088
-0.00738324
-0.00751263
-0.0076455
-0.0077837
-0.00791869
-0.00806111
-0.00820783
-0.00835382
-0.00847731
-0.00857772
-0.00865808
-0.00874921
-0.00887146
-0.00905681
-0.00931218
-0.00964982
-0.0100593
-0.0105415
-0.0110837
-0.011687
-0.0123456
-0.0130659
-0.0138477
-0.0147012
-0.0156298
-0.0166423
-0.0177449
-0.0189438
-0.0202461
-0.0216537
-0.0231744
-0.0248137
-0.0265794
-0.0284722
-0.0304947
-0.0326585
-0.0349735
-0.0374485
-0.0400923
-0.0429095
-0.0459028
-0.0490771
-0.0524347
-0.0559693
-0.0596694
-0.0635081
-0.067451
-0.071438
-0.0754114
-0.0792731
-0.0829102
-0.0862177
-0.0891566
-0.0916961
-0.0937201
-0.0948869
-0.0972074
-0.0981143
-0.00818515
-0.00834705
-0.00849652
-0.00864093
-0.00878793
-0.00894004
-0.00908861
-0.00924394
-0.00940269
-0.00955934
-0.00969247
-0.00980126
-0.00989
-0.00998927
-0.010121
-0.0103162
-0.0105832
-0.010933
-0.0113558
-0.0118518
-0.0124086
-0.0130268
-0.013701
-0.0144373
-0.0152358
-0.0161065
-0.0170526
-0.018083
-0.0192037
-0.0204217
-0.0217431
-0.0231724
-0.0247149
-0.0263811
-0.0281755
-0.0301013
-0.0321618
-0.0343692
-0.0367342
-0.0392669
-0.0419765
-0.044868
-0.0479446
-0.0512112
-0.0546699
-0.0583144
-0.0621336
-0.0661006
-0.0701816
-0.0743154
-0.0784455
-0.0824725
-0.0862838
-0.0897678
-0.0928803
-0.0955821
-0.0977397
-0.0989892
-0.101414
-0.102315
-0.00927797
-0.00945627
-0.0096205
-0.00977774
-0.00993672
-0.0101005
-0.0102603
-0.0104264
-0.0105951
-0.0107608
-0.0109018
-0.0110179
-0.0111135
-0.0112206
-0.0113608
-0.0115665
-0.011845
-0.0122081
-0.012645
-0.0131564
-0.0137289
-0.0143638
-0.0150553
-0.0158098
-0.0166271
-0.0175175
-0.0184841
-0.0195358
-0.0206787
-0.0219192
-0.0232647
-0.0247183
-0.0262888
-0.0279826
-0.0298092
-0.0317699
-0.0338694
-0.0361208
-0.0385358
-0.0411255
-0.0438999
-0.0468651
-0.0500242
-0.053383
-0.056943
-0.0606989
-0.0646387
-0.0687371
-0.0729587
-0.0772436
-0.0815328
-0.0857286
-0.0897155
-0.0933771
-0.0966634
-0.0995264
-0.101816
-0.10315
-0.105683
-0.106587
-0.0103736
-0.0105676
-0.010746
-0.0109155
-0.0110858
-0.0112605
-0.0114307
-0.0116067
-0.0117844
-0.0119582
-0.0121064
-0.012229
-0.0123313
-0.0124456
-0.0125945
-0.0128102
-0.0131006
-0.0134768
-0.0139283
-0.0144551
-0.0150442
-0.0156964
-0.0164063
-0.0171802
-0.0180181
-0.0189301
-0.0199197
-0.0209954
-0.0221632
-0.0234301
-0.0248026
-0.0262855
-0.027885
-0.0296125
-0.0314731
-0.0334712
-0.0356116
-0.0379081
-0.0403736
-0.0430202
-0.0458592
-0.048897
-0.0521377
-0.0555876
-0.0592483
-0.0631148
-0.0671753
-0.0714047
-0.0757674
-0.0802028
-0.0846521
-0.0890162
-0.0931786
-0.0970171
-0.100476
-0.103499
-0.105921
-0.107341
-0.109986
-0.110899
-0.011474
-0.0116814
-0.0118718
-0.0120518
-0.0122316
-0.0124154
-0.0125941
-0.0127783
-0.0129633
-0.013144
-0.0132979
-0.0134264
-0.0135342
-0.0136557
-0.0138127
-0.0140393
-0.0143419
-0.0147326
-0.0151996
-0.0157434
-0.0163504
-0.0170215
-0.0177511
-0.0185459
-0.0194059
-0.0203414
-0.0213558
-0.0224576
-0.0236532
-0.0249487
-0.0263519
-0.0278658
-0.0295
-0.0312614
-0.0331601
-0.035198
-0.0373815
-0.0397249
-0.0422424
-0.0449468
-0.0478509
-0.0509616
-0.0542841
-0.057825
-0.0615865
-0.0655641
-0.0697458
-0.0741075
-0.0786124
-0.0832013
-0.0878119
-0.092347
-0.0966867
-0.100704
-0.104337
-0.107522
-0.110077
-0.111586
-0.114348
-0.115277
-0.0125635
-0.0127827
-0.0129838
-0.0131732
-0.0133618
-0.0135544
-0.0137419
-0.0139346
-0.0141279
-0.0143158
-0.0144765
-0.014611
-0.0147255
-0.014854
-0.0150203
-0.0152573
-0.0155729
-0.0159779
-0.0164611
-0.0170221
-0.0176475
-0.0183381
-0.0190886
-0.0199054
-0.0207888
-0.0217492
-0.02279
-0.02392
-0.025145
-0.0264719
-0.0279073
-0.0294562
-0.031125
-0.0329258
-0.0348637
-0.0369441
-0.0391724
-0.0415648
-0.0441353
-0.0468988
-0.0498683
-0.0530522
-0.0564561
-0.0600875
-0.0639492
-0.068037
-0.0723394
-0.0768326
-0.0814795
-0.086221
-0.0909939
-0.0956997
-0.100217
-0.104413
-0.108221
-0.111568
-0.114256
-0.115857
-0.118738
-0.119693
-0.0136578
-0.0138863
-0.0140955
-0.0142917
-0.0144866
-0.0146855
-0.0148792
-0.0150782
-0.0152775
-0.0154712
-0.0156371
-0.0157769
-0.0158969
-0.0160327
-0.0162077
-0.0164563
-0.0167852
-0.0172062
-0.0177066
-0.0182866
-0.0189321
-0.0196439
-0.0204167
-0.021257
-0.0221653
-0.0231521
-0.0242209
-0.0253805
-0.026637
-0.0279965
-0.0294668
-0.0310512
-0.0327596
-0.0345986
-0.0365791
-0.0387036
-0.040979
-0.043422
-0.0460477
-0.0488716
-0.051908
-0.0551661
-0.0586522
-0.0623749
-0.0663371
-0.0705361
-0.0749596
-0.0795857
-0.0843755
-0.0892727
-0.0942092
-0.099089
-0.103785
-0.108162
-0.112147
-0.115658
-0.118481
-0.120178
-0.123183
-0.124169
-0.0147432
-0.0149806
-0.0151976
-0.0154004
-0.0156011
-0.0158059
-0.0160052
-0.0162099
-0.0164145
-0.0166134
-0.016784
-0.0169286
-0.0170544
-0.0171972
-0.0173817
-0.0176417
-0.0179849
-0.0184217
-0.0189402
-0.0195396
-0.0202058
-0.0209396
-0.0217357
-0.0226007
-0.0235351
-0.0245497
-0.0256479
-0.0268386
-0.0281277
-0.0295219
-0.0310279
-0.0326509
-0.0343974
-0.0362792
-0.0383029
-0.040473
-0.0427973
-0.0452922
-0.0479745
-0.0508599
-0.0539644
-0.0572971
-0.060866
-0.0646797
-0.0687425
-0.0730519
-0.0775967
-0.0823549
-0.0872881
-0.0923403
-0.0974423
-0.102496
-0.107371
-0.111929
-0.116091
-0.119767
-0.122727
-0.124521
-0.127653
-0.128677
-0.0158243
-0.0160686
-0.0162917
-0.0164994
-0.0167045
-0.0169135
-0.0171169
-0.0173257
-0.0175344
-0.0177374
-0.0179118
-0.0180609
-0.0181916
-0.0183419
-0.0185355
-0.0188083
-0.0191662
-0.0196208
-0.0201584
-0.0207791
-0.0214675
-0.022225
-0.0230457
-0.0239367
-0.0248985
-0.0259421
-0.027071
-0.028294
-0.0296173
-0.0310469
-0.0325907
-0.034252
-0.0360405
-0.0379638
-0.0400326
-0.0422501
-0.0446243
-0.0471731
-0.0499133
-0.0528622
-0.056036
-0.0594451
-0.0630978
-0.0670039
-0.0711681
-0.0755895
-0.0802561
-0.0851484
-0.0902259
-0.0954369
-0.100706
-0.105936
-0.110992
-0.115734
-0.120076
-0.123918
-0.127016
-0.12891
-0.132172
-0.133239
-0.016889
-0.0171392
-0.0173674
-0.0175796
-0.0177888
-0.0180023
-0.0182106
-0.0184247
-0.0186388
-0.018847
-0.0190266
-0.0191807
-0.0193177
-0.0194755
-0.0196795
-0.0199647
-0.0203381
-0.0208101
-0.0213675
-0.0220093
-0.0227206
-0.023502
-0.0243483
-0.0252663
-0.0262566
-0.0273303
-0.0284909
-0.0297475
-0.0311058
-0.0325725
-0.0341544
-0.0358565
-0.0376855
-0.0396539
-0.0417683
-0.0440343
-0.0464595
-0.0490632
-0.0518624
-0.0548757
-0.0581198
-0.0616061
-0.0653431
-0.0693419
-0.0736076
-0.0781408
-0.0829297
-0.0879558
-0.0931787
-0.0985484
-0.103987
-0.109395
-0.114631
-0.119555
-0.124077
-0.128086
-0.131322
-0.133317
-0.136711
-0.137826
-0.0179542
-0.0182083
-0.0184398
-0.0186545
-0.0188662
-0.0190824
-0.0192938
-0.0195115
-0.0197294
-0.0199417
-0.0201252
-0.020284
-0.0204265
-0.0205923
-0.0208062
-0.021105
-0.0214944
-0.0219855
-0.0225638
-0.0232286
-0.0239641
-0.0247713
-0.0256444
-0.0265907
-0.0276107
-0.0287156
-0.0299093
-0.0312003
-0.032595
-0.0340993
-0.0357211
-0.0374635
-0.0393368
-0.0413488
-0.0435109
-0.0458261
-0.0483035
-0.0509628
-0.0538225
-0.0569014
-0.0602174
-0.0637821
-0.067605
-0.0716978
-0.0760666
-0.0807129
-0.0856256
-0.0907874
-0.0961574
-0.101689
-0.107299
-0.112887
-0.118306
-0.123415
-0.128116
-0.132292
-0.135666
-0.137767
-0.141295
-0.142461
-0.0190053
-0.0192631
-0.0194979
-0.0197154
-0.0199297
-0.020149
-0.0203637
-0.0205854
-0.0208075
-0.0210243
-0.0212125
-0.0213765
-0.0215256
-0.0216998
-0.0219252
-0.0222378
-0.0226444
-0.0231549
-0.023755
-0.0244431
-0.0252036
-0.026037
-0.0269378
-0.0279131
-0.0289637
-0.0301008
-0.0313283
-0.0326549
-0.0340866
-0.03563
-0.0372919
-0.0390773
-0.0409934
-0.0430526
-0.0452621
-0.0476274
-0.0501575
-0.0528733
-0.055794
-0.0589393
-0.0623278
-0.0659716
-0.0698808
-0.074068
-0.0785402
-0.0832998
-0.0883367
-0.0936344
-0.0991526
-0.104846
-0.110629
-0.116398
-0.121999
-0.127291
-0.132172
-0.136513
-0.140026
-0.142231
-0.145893
-0.147116
-0.0200653
-0.0203225
-0.0205566
-0.0207733
-0.020987
-0.0212069
-0.0214232
-0.0216479
-0.021874
-0.022096
-0.0222894
-0.0224597
-0.0226157
-0.0227995
-0.0230365
-0.0233645
-0.0237887
-0.0243201
-0.0249427
-0.0256556
-0.0264421
-0.0273028
-0.0282322
-0.0292373
-0.0303191
-0.0314891
-0.032751
-0.0341138
-0.0355836
-0.0371665
-0.0388703
-0.0406983
-0.0426607
-0.0447656
-0.0470242
-0.0494402
-0.0520236
-0.0547967
-0.0577793
-0.060992
-0.0644542
-0.0681783
-0.0721753
-0.0764583
-0.0810354
-0.08591
-0.0910727
-0.0965081
-0.102176
-0.108035
-0.113993
-0.119944
-0.12573
-0.131204
-0.136264
-0.140771
-0.144421
-0.146734
-0.150531
-0.151811
-0.0211759
-0.0214336
-0.0216657
-0.0218781
-0.022086
-0.0223008
-0.0225136
-0.0227376
-0.0229645
-0.0231887
-0.0233853
-0.0235601
-0.0237223
-0.0239141
-0.0241621
-0.0245035
-0.0249447
-0.0254951
-0.0261396
-0.0268759
-0.0276878
-0.0285753
-0.0295331
-0.030568
-0.0316812
-0.0328841
-0.0341809
-0.0355803
-0.0370885
-0.0387121
-0.0404578
-0.0423305
-0.0443376
-0.0464913
-0.0487989
-0.0512664
-0.053904
-0.0567348
-0.0597798
-0.0630603
-0.0665966
-0.0704015
-0.0744866
-0.0788657
-0.083548
-0.0885378
-0.0938267
-0.0994002
-0.105219
-0.111242
-0.117377
-0.123511
-0.129479
-0.135135
-0.140372
-0.145041
-0.148827
-0.151246
-0.155176
-0.15652
-0.0223054
-0.022565
-0.0227985
-0.0230114
-0.0232198
-0.0234337
-0.0236448
-0.0238665
-0.0240915
-0.0243147
-0.024511
-0.0246873
-0.0248525
-0.0250503
-0.0253068
-0.0256604
-0.0261165
-0.0266852
-0.0273502
-0.0281095
-0.0289461
-0.02986
-0.0308457
-0.03191
-0.0330543
-0.0342899
-0.0356213
-0.0370572
-0.0386041
-0.0402681
-0.0420569
-0.0439736
-0.0460284
-0.0482293
-0.0505877
-0.0531075
-0.0557999
-0.0586894
-0.0617977
-0.065147
-0.0687584
-0.0726453
-0.0768197
-0.0812964
-0.0860854
-0.091192
-0.0966086
-0.102322
-0.108293
-0.114483
-0.120796
-0.127113
-0.133265
-0.139103
-0.144514
-0.149346
-0.153266
-0.155794
-0.159856
-0.161263
-0.0235132
-0.0237784
-0.0240147
-0.0242276
-0.024433
-0.0246429
-0.024849
-0.0250655
-0.0252852
-0.0255032
-0.0256951
-0.0258683
-0.0260328
-0.0262325
-0.0264945
-0.0268566
-0.0273248
-0.0279082
-0.0285906
-0.0293696
-0.0302282
-0.0311659
-0.0321775
-0.0332696
-0.0344434
-0.0357106
-0.0370756
-0.0385474
-0.0401322
-0.0418367
-0.0436679
-0.0456301
-0.0477309
-0.0499823
-0.0523913
-0.0549643
-0.0577126
-0.0606615
-0.0638337
-0.0672523
-0.0709391
-0.0749083
-0.0791724
-0.0837469
-0.0886427
-0.0938664
-0.099411
-0.105264
-0.111387
-0.117744
-0.124235
-0.130736
-0.13707
-0.143086
-0.14867
-0.15366
-0.157713
-0.160346
-0.164537
-0.166013
-0.0247415
-0.0250133
-0.0252562
-0.0254749
-0.0256857
-0.0258989
-0.0261063
-0.026322
-0.0265392
-0.0267534
-0.0269406
-0.0271094
-0.0272702
-0.0274689
-0.0277324
-0.0280998
-0.0285761
-0.0291712
-0.0298676
-0.0306635
-0.0315409
-0.0324997
-0.0335345
-0.0346518
-0.035853
-0.0371498
-0.0385468
-0.0400529
-0.0416748
-0.0434187
-0.0452925
-0.0472991
-0.0494486
-0.0517483
-0.0542098
-0.0568369
-0.059642
-0.0626515
-0.0658888
-0.0693778
-0.0731413
-0.0771939
-0.0815488
-0.0862226
-0.0912268
-0.096569
-0.102243
-0.108237
-0.114514
-0.121038
-0.127707
-0.134392
-0.140909
-0.147104
-0.152858
-0.158005
-0.162189
-0.16493
-0.169247
-0.170792
-0.0260704
-0.0263502
-0.0265989
-0.0268211
-0.027033
-0.0272465
-0.0274531
-0.0276674
-0.0278816
-0.0280913
-0.0282724
-0.028434
-0.0285881
-0.0287811
-0.0290416
-0.0294085
-0.0298878
-0.0304884
-0.0311937
-0.0320007
-0.0328923
-0.0338678
-0.0349219
-0.036061
-0.0372866
-0.0386104
-0.040037
-0.0415756
-0.0432328
-0.0450154
-0.0469303
-0.0489821
-0.0511777
-0.0535288
-0.0560423
-0.0587245
-0.0615875
-0.0646587
-0.067962
-0.0715221
-0.0753628
-0.0794993
-0.0839455
-0.0887186
-0.0938315
-0.0992923
-0.105096
-0.111231
-0.117661
-0.124352
-0.131198
-0.138065
-0.144763
-0.151134
-0.157056
-0.162356
-0.166668
-0.169514
-0.173953
-0.175574
-0.0273987
-0.0276923
-0.0279544
-0.0281894
-0.0284133
-0.0286361
-0.028849
-0.029066
-0.02928
-0.0294866
-0.0296619
-0.0298162
-0.0299621
-0.0301484
-0.0304036
-0.0307684
-0.0312479
-0.0318523
-0.0325634
-0.0333792
-0.0342818
-0.0352708
-0.0363409
-0.0374986
-0.0387455
-0.0400935
-0.0415472
-0.0431161
-0.0448069
-0.0466262
-0.0485818
-0.0506766
-0.0529206
-0.0553205
-0.0578877
-0.0606259
-0.063548
-0.0666822
-0.070053
-0.0736856
-0.0776049
-0.0818267
-0.0863654
-0.0912396
-0.0964624
-0.102043
-0.107977
-0.114255
-0.120839
-0.127696
-0.13472
-0.141769
-0.148648
-0.155194
-0.161282
-0.166734
-0.171173
-0.174124
-0.178684
-0.18038
-0.0287794
-0.0290884
-0.0293654
-0.0296145
-0.0298505
-0.0300834
-0.0303033
-0.0305245
-0.0307389
-0.0309427
-0.0311118
-0.0312577
-0.0313944
-0.0315717
-0.0318199
-0.0321797
-0.0326573
-0.0332621
-0.0339764
-0.0347977
-0.0357083
-0.0367075
-0.0377906
-0.0389639
-0.0402293
-0.0415987
-0.0430771
-0.044674
-0.0463962
-0.0482509
-0.0502453
-0.0523836
-0.0546729
-0.0571247
-0.0597447
-0.0625396
-0.0655218
-0.0687201
-0.0721594
-0.0758655
-0.0798642
-0.0841719
-0.0888038
-0.0937792
-0.0991124
-0.104813
-0.110878
-0.117297
-0.124034
-0.131057
-0.138257
-0.145487
-0.152544
-0.159264
-0.165514
-0.171116
-0.175677
-0.178731
-0.183406
-0.185183
-0.0301557
-0.0304796
-0.0307719
-0.0310356
-0.0312859
-0.031532
-0.0317633
-0.0319933
-0.0322129
-0.0324177
-0.0325837
-0.0327234
-0.0328519
-0.0330215
-0.0332628
-0.0336187
-0.0340946
-0.0347008
-0.0354183
-0.0362452
-0.0371631
-0.0381717
-0.0392663
-0.0404534
-0.0417351
-0.0431239
-0.0446249
-0.0462478
-0.048
-0.0498882
-0.0519208
-0.0541004
-0.0564373
-0.0589374
-0.0616118
-0.064464
-0.0675071
-0.0707708
-0.0742802
-0.0780614
-0.0821411
-0.0865364
-0.0912631
-0.0963414
-0.101786
-0.107609
-0.113805
-0.120367
-0.127258
-0.134446
-0.141821
-0.14923
-0.156467
-0.163358
-0.169771
-0.175519
-0.180203
-0.183361
-0.188148
-0.190007
-0.0315286
-0.0318643
-0.0321691
-0.0324463
-0.0327105
-0.032971
-0.033216
-0.0334584
-0.0336878
-0.0338988
-0.0340669
-0.0342047
-0.0343292
-0.0344931
-0.0347297
-0.0350818
-0.0355565
-0.0361632
-0.0368838
-0.0377153
-0.03864
-0.039657
-0.0407621
-0.041962
-0.043259
-0.0446659
-0.0461881
-0.0478358
-0.0496163
-0.0515373
-0.0536063
-0.0558278
-0.0582088
-0.0607602
-0.0634876
-0.0663974
-0.0695023
-0.0728322
-0.0764126
-0.08027
-0.0844317
-0.0889155
-0.0937377
-0.0989194
-0.104477
-0.110421
-0.116749