/*--------------------------------*- C++ -*----------------------------------*\
  =========                 |
  \\      /  F ield         | OpenFOAM: The Open Source CFD Toolbox
   \\    /   O peration     | Website:  https://openfoam.org
    \\  /    A nd           | Version:  6.0
     \\/     M anipulation  |
\*---------------------------------------------------------------------------*/
FoamFile
{
    version     2.0;
    format      ascii;
    class       volScalarField;
    location    "1.63";
    object      p;
}
// * * * * * * * * * * * * * * * * * * * * * * * * * * * * * * * * * * * * * //

dimensions      [0 2 -2 0 0 0 0];

internalField   nonuniform List<scalar> 
13500
(
0.099576
0.099598
0.099098
0.098683
0.097811
0.097316
0.096817
0.09718
0.099003
0.10297
0.12442
0.16885
0.099576
0.099598
0.099098
0.098683
0.097811
0.097316
0.096816
0.09718
0.098999
0.10303
0.12373
0.1638
0.099576
0.099599
0.099098
0.098684
0.097811
0.097316
0.096815
0.097178
0.098991
0.10307
0.12285
0.15933
0.099577
0.0996
0.099099
0.098685
0.097811
0.097316
0.096813
0.097174
0.098977
0.1031
0.12187
0.15585
0.099578
0.099602
0.0991
0.098686
0.09781
0.097315
0.09681
0.097168
0.098958
0.1031
0.12082
0.15292
0.099579
0.099603
0.0991
0.098688
0.09781
0.097315
0.096806
0.097162
0.098934
0.1031
0.11975
0.15031
0.099581
0.099605
0.099102
0.098689
0.09781
0.097314
0.096802
0.097154
0.098906
0.10308
0.11866
0.14795
0.099583
0.099608
0.099103
0.098691
0.09781
0.097313
0.096798
0.097145
0.098873
0.10305
0.11757
0.14579
0.099586
0.099611
0.099105
0.098693
0.09781
0.097312
0.096792
0.097134
0.098835
0.103
0.11651
0.14379
0.099588
0.099614
0.099107
0.098695
0.09781
0.097311
0.096786
0.097122
0.098792
0.10294
0.11548
0.14192
0.099591
0.099617
0.099109
0.098698
0.097809
0.097309
0.09678
0.097109
0.098744
0.10287
0.11449
0.14017
0.099595
0.099621
0.099112
0.0987
0.097809
0.097307
0.096772
0.097094
0.098692
0.10279
0.11354
0.13851
0.099599
0.099625
0.099115
0.098703
0.097809
0.097305
0.096765
0.097078
0.098635
0.1027
0.11262
0.13694
0.099603
0.099629
0.099118
0.098706
0.09781
0.097303
0.096756
0.09706
0.098573
0.1026
0.11174
0.13545
0.099607
0.099634
0.099121
0.098709
0.09781
0.097301
0.096747
0.097041
0.098506
0.10249
0.11091
0.13403
0.099612
0.099639
0.099125
0.098712
0.09781
0.097298
0.096737
0.097021
0.098435
0.10238
0.1101
0.13267
0.099618
0.099644
0.099129
0.098716
0.09781
0.097295
0.096727
0.096999
0.098359
0.10226
0.10933
0.13137
0.099623
0.09965
0.099133
0.09872
0.09781
0.097292
0.096716
0.096976
0.09828
0.10214
0.10859
0.13012
0.099629
0.099656
0.099138
0.098723
0.09781
0.097289
0.096704
0.096951
0.098196
0.10202
0.10787
0.12892
0.099636
0.099662
0.099143
0.098728
0.097811
0.097285
0.096692
0.096925
0.098108
0.10189
0.10717
0.12776
0.099642
0.099669
0.099148
0.098732
0.097811
0.097282
0.09668
0.096898
0.098017
0.10177
0.1065
0.12664
0.09965
0.099676
0.099153
0.098736
0.097812
0.097278
0.096666
0.096869
0.097922
0.10165
0.10584
0.12556
0.099657
0.099684
0.099159
0.098741
0.097812
0.097274
0.096652
0.096839
0.097824
0.10153
0.1052
0.12451
0.099665
0.099692
0.099165
0.098746
0.097813
0.09727
0.096638
0.096807
0.097724
0.1014
0.10458
0.12349
0.099674
0.0997
0.099172
0.098751
0.097813
0.097265
0.096622
0.096775
0.09762
0.10128
0.10396
0.1225
0.099682
0.099709
0.099178
0.098757
0.097814
0.097261
0.096607
0.096741
0.097515
0.10116
0.10336
0.12153
0.099692
0.099718
0.099185
0.098763
0.097815
0.097256
0.09659
0.096706
0.097407
0.10104
0.10277
0.12059
0.099701
0.099727
0.099193
0.098768
0.097815
0.097251
0.096573
0.09667
0.097297
0.10092
0.10218
0.11968
0.099711
0.099737
0.099201
0.098775
0.097816
0.097246
0.096556
0.096633
0.097185
0.1008
0.10161
0.11879
0.099722
0.099747
0.099209
0.098781
0.097817
0.09724
0.096537
0.096594
0.097071
0.10068
0.10104
0.11791
0.099733
0.099758
0.099217
0.098788
0.097818
0.097235
0.096519
0.096555
0.096956
0.10056
0.10048
0.11706
0.099744
0.099769
0.099226
0.098795
0.097819
0.097229
0.096499
0.096515
0.09684
0.10044
0.09993
0.11622
0.099756
0.09978
0.099235
0.098802
0.09782
0.097223
0.096479
0.096474
0.096722
0.10032
0.099386
0.11541
0.099768
0.099792
0.099245
0.098809
0.097821
0.097217
0.096459
0.096432
0.096602
0.1002
0.09885
0.11461
0.099781
0.099804
0.099255
0.098817
0.097823
0.097211
0.096437
0.096389
0.096481
0.10007
0.098321
0.11382
0.099794
0.099817
0.099265
0.098825
0.097824
0.097204
0.096416
0.096346
0.09636
0.09995
0.097799
0.11306
0.099807
0.09983
0.099275
0.098833
0.097825
0.097198
0.096393
0.096302
0.096236
0.099825
0.097285
0.1123
0.099821
0.099844
0.099286
0.098841
0.097827
0.097191
0.09637
0.096257
0.096112
0.099698
0.096778
0.11156
0.099836
0.099858
0.099298
0.09885
0.097829
0.097184
0.096347
0.096212
0.095986
0.09957
0.096279
0.11084
0.099851
0.099873
0.09931
0.098859
0.09783
0.097177
0.096323
0.096166
0.09586
0.09944
0.095787
0.11013
0.099866
0.099888
0.099322
0.098868
0.097832
0.09717
0.096298
0.09612
0.095732
0.099308
0.095302
0.10943
0.099882
0.099903
0.099334
0.098878
0.097834
0.097163
0.096272
0.096073
0.095603
0.099174
0.094826
0.10875
0.099899
0.099919
0.099347
0.098888
0.097836
0.097156
0.096246
0.096025
0.095472
0.099039
0.094356
0.10808
0.099916
0.099935
0.09936
0.098898
0.097838
0.097148
0.09622
0.095977
0.095341
0.098902
0.093894
0.10742
0.099933
0.099952
0.099374
0.098908
0.097841
0.097141
0.096193
0.095929
0.095209
0.098764
0.09344
0.10677
0.099951
0.099969
0.099388
0.098919
0.097843
0.097133
0.096165
0.09588
0.095075
0.098624
0.092993
0.10613
0.09997
0.099987
0.099403
0.09893
0.097846
0.097125
0.096137
0.09583
0.094941
0.098482
0.092553
0.10551
0.099989
0.10001
0.099418
0.098942
0.097848
0.097117
0.096108
0.095781
0.094805
0.098338
0.092121
0.10489
0.10001
0.10002
0.099433
0.098953
0.097851
0.097109
0.096079
0.095731
0.094669
0.098193
0.091697
0.10428
0.10003
0.10004
0.099449
0.098965
0.097854
0.097101
0.096049
0.09568
0.094531
0.098046
0.091279
0.10369
0.10005
0.10006
0.099465
0.098978
0.097857
0.097093
0.096018
0.095629
0.094393
0.097897
0.090869
0.1031
0.10007
0.10008
0.099482
0.09899
0.097861
0.097085
0.095987
0.095578
0.094253
0.097747
0.090466
0.10252
0.10009
0.1001
0.099499
0.099003
0.097864
0.097077
0.095956
0.095527
0.094113
0.097595
0.09007
0.10196
0.10011
0.10013
0.099517
0.099017
0.097868
0.097068
0.095924
0.095475
0.093972
0.097442
0.08968
0.1014
0.10014
0.10015
0.099535
0.09903
0.097871
0.09706
0.095891
0.095423
0.093831
0.097287
0.089298
0.10084
0.10016
0.10017
0.099553
0.099045
0.097875
0.097051
0.095858
0.095371
0.093688
0.097131
0.088922
0.1003
0.10018
0.10019
0.099573
0.099059
0.097879
0.097043
0.095824
0.095318
0.093545
0.096974
0.088553
0.099766
0.10021
0.10022
0.099592
0.099074
0.097884
0.097034
0.09579
0.095265
0.093401
0.096815
0.088191
0.099239
0.10023
0.10024
0.099612
0.099089
0.097888
0.097025
0.095756
0.095212
0.093257
0.096655
0.087835
0.098719
0.10026
0.10027
0.099633
0.099104
0.097893
0.097017
0.095721
0.095159
0.093112
0.096493
0.087485
0.098206
0.10028
0.10029
0.099654
0.09912
0.097898
0.097008
0.095685
0.095105
0.092967
0.096331
0.087141
0.0977
0.10031
0.10032
0.099675
0.099136
0.097903
0.096999
0.095649
0.095051
0.092822
0.096167
0.086803
0.097201
0.10034
0.10034
0.099697
0.099153
0.097909
0.096991
0.095612
0.094997
0.092676
0.096002
0.086472
0.096709
0.10037
0.10037
0.09972
0.09917
0.097914
0.096982
0.095576
0.094943
0.092529
0.095836
0.086146
0.096224
0.1004
0.1004
0.099743
0.099187
0.09792
0.096973
0.095538
0.094889
0.092383
0.095668
0.085826
0.095745
0.10043
0.10043
0.099767
0.099205
0.097926
0.096964
0.0955
0.094834
0.092236
0.0955
0.085511
0.095272
0.10046
0.10045
0.099791
0.099223
0.097933
0.096956
0.095462
0.094779
0.092089
0.09533
0.085202
0.094805
0.10049
0.10048
0.099816
0.099242
0.09794
0.096947
0.095424
0.094724
0.091942
0.09516
0.084899
0.094344
0.10052
0.10051
0.099841
0.099261
0.097946
0.096938
0.095385
0.094668
0.091795
0.094988
0.0846
0.093888
0.10055
0.10054
0.099867
0.09928
0.097954
0.09693
0.095345
0.094613
0.091647
0.094816
0.084307
0.093439
0.10058
0.10058
0.099893
0.0993
0.097961
0.096921
0.095306
0.094557
0.0915
0.094643
0.084019
0.092995
0.10062
0.10061
0.09992
0.09932
0.097969
0.096913
0.095265
0.094501
0.091353
0.094468
0.083736
0.092556
0.10065
0.10064
0.099948
0.099341
0.097977
0.096904
0.095225
0.094445
0.091205
0.094293
0.083458
0.092123
0.10068
0.10067
0.099976
0.099362
0.097985
0.096896
0.095184
0.094389
0.091058
0.094117
0.083184
0.091694
0.10072
0.10071
0.10001
0.099383
0.097994
0.096888
0.095143
0.094332
0.090911
0.093941
0.082915
0.091271
0.10076
0.10074
0.10003
0.099405
0.098003
0.09688
0.095101
0.094275
0.090764
0.093763
0.08265
0.090852
0.10079
0.10078
0.10007
0.099428
0.098012
0.096872
0.09506
0.094218
0.090618
0.093585
0.08239
0.090439
0.10083
0.10081
0.1001
0.099451
0.098022
0.096865
0.095018
0.094161
0.090471
0.093406
0.082135
0.09003
0.10087
0.10085
0.10013
0.099474
0.098032
0.096857
0.094975
0.094103
0.090325
0.093226
0.081883
0.089625
0.10091
0.10089
0.10016
0.099498
0.098042
0.09685
0.094933
0.094046
0.090179
0.093046
0.081635
0.089225
0.10095
0.10093
0.10019
0.099522
0.098053
0.096842
0.09489
0.093988
0.090034
0.092865
0.081392
0.08883
0.10099
0.10096
0.10023
0.099547
0.098064
0.096835
0.094847
0.09393
0.089889
0.092683
0.081152
0.088438
0.10103
0.101
0.10026
0.099573
0.098075
0.096829
0.094803
0.093871
0.089744
0.092501
0.080917
0.088051
0.10107
0.10104
0.1003
0.099599
0.098087
0.096822
0.09476
0.093813
0.089599
0.092318
0.080684
0.087668
0.10111
0.10109
0.10033
0.099625
0.098099
0.096816
0.094716
0.093754
0.089455
0.092135
0.080456
0.087289
0.10116
0.10113
0.10037
0.099653
0.098112
0.09681
0.094672
0.093695
0.089312
0.091951
0.080231
0.086914
0.1012
0.10117
0.10041
0.09968
0.098124
0.096804
0.094628
0.093636
0.089168
0.091766
0.080009
0.086542
0.10125
0.10121
0.10044
0.099708
0.098138
0.096798
0.094584
0.093576
0.089026
0.091581
0.079791
0.086174
0.1013
0.10126
0.10048
0.099737
0.098151
0.096793
0.09454
0.093516
0.088884
0.091396
0.079576
0.08581
0.10134
0.1013
0.10052
0.099767
0.098165
0.096788
0.094495
0.093456
0.088742
0.09121
0.079364
0.08545
0.10139
0.10135
0.10056
0.099797
0.09818
0.096784
0.094451
0.093396
0.088601
0.091023
0.079155
0.085092
0.10144
0.1014
0.1006
0.099828
0.098195
0.096779
0.094406
0.093336
0.08846
0.090836
0.078948
0.084739
0.10149
0.10145
0.10065
0.099859
0.09821
0.096775
0.094361
0.093275
0.08832
0.090649
0.078745
0.084388
0.10154
0.10149
0.10069
0.099891
0.098226
0.096772
0.094317
0.093214
0.088181
0.090461
0.078545
0.08404
0.10159
0.10154
0.10073
0.099924
0.098243
0.096769
0.094272
0.093153
0.088042
0.090273
0.078347
0.083696
0.10165
0.1016
0.10078
0.099958
0.09826
0.096766
0.094227
0.093091
0.087904
0.090085
0.078152
0.083355
0.1017
0.10165
0.10082
0.099992
0.098277
0.096763
0.094183
0.09303
0.087766
0.089896
0.077959
0.083016
0.10176
0.1017
0.10087
0.10003
0.098295
0.096761
0.094138
0.092968
0.087629
0.089706
0.077768
0.082681
0.10181
0.10175
0.10092
0.10006
0.098313
0.09676
0.094093
0.092905
0.087493
0.089517
0.07758
0.082348
0.10187
0.10181
0.10097
0.1001
0.098332
0.096758
0.094049
0.092843
0.087358
0.089327
0.077394
0.082018
0.10193
0.10186
0.10102
0.10014
0.098352
0.096758
0.094004
0.09278
0.087223
0.089136
0.077211
0.08169
0.10199
0.10192
0.10107
0.10018
0.098372
0.096757
0.09396
0.092718
0.087088
0.088946
0.077029
0.081365
0.10205
0.10198
0.10112
0.10021
0.098393
0.096758
0.093915
0.092654
0.086955
0.088755
0.076849
0.081043
0.10211
0.10204
0.10117
0.10025
0.098414
0.096758
0.093871
0.092591
0.086822
0.088563
0.076671
0.080723
0.10217
0.1021
0.10122
0.1003
0.098436
0.09676
0.093827
0.092527
0.086689
0.088372
0.076495
0.080405
0.10224
0.10216
0.10128
0.10034
0.098459
0.096761
0.093784
0.092464
0.086558
0.08818
0.07632
0.080089
0.1023
0.10222
0.10133
0.10038
0.098482
0.096764
0.09374
0.0924
0.086427
0.087988
0.076148
0.079775
0.10237
0.10229
0.10139
0.10042
0.098507
0.096767
0.093697
0.092335
0.086297
0.087795
0.075976
0.079464
0.10244
0.10235
0.10145
0.10047
0.098532
0.09677
0.093654
0.092271
0.086167
0.087602
0.075806
0.079154
0.1025
0.10242
0.10151
0.10051
0.098557
0.096774
0.093611
0.092206
0.086039
0.087409
0.075638
0.078846
0.10258
0.10249
0.10157
0.10056
0.098584
0.096779
0.093568
0.092141
0.085911
0.087216
0.075471
0.07854
0.10265
0.10256
0.10163
0.10061
0.098611
0.096784
0.093526
0.092076
0.085783
0.087022
0.075305
0.078236
0.10272
0.10263
0.1017
0.10066
0.098639
0.09679
0.093485
0.092011
0.085657
0.086828
0.07514
0.077933
0.1028
0.1027
0.10176
0.10071
0.098668
0.096797
0.093443
0.091945
0.085531
0.086633
0.074976
0.077632
0.10287
0.10277
0.10183
0.10076
0.098698
0.096805
0.093402
0.09188
0.085406
0.086439
0.074813
0.077333
0.10295
0.10285
0.1019
0.10082
0.098729
0.096813
0.093362
0.091814
0.085282
0.086244
0.074651
0.077034
0.10303
0.10292
0.10196
0.10087
0.098761
0.096822
0.093322
0.091748
0.085158
0.086048
0.07449
0.076737
0.10311
0.103
0.10204
0.10093
0.098795
0.096832
0.093282
0.091681
0.085035
0.085853
0.074329
0.076441
0.10319
0.10308
0.10211
0.10098
0.098829
0.096842
0.093244
0.091615
0.084913
0.085657
0.07417
0.076147
0.10328
0.10316
0.10218
0.10104
0.098864
0.096854
0.093205
0.091549
0.084791
0.085461
0.07401
0.075853
0.10337
0.10325
0.10226
0.1011
0.0989
0.096867
0.093168
0.091482
0.08467
0.085264
0.073851
0.07556
0.10345
0.10333
0.10234
0.10116
0.098938
0.09688
0.093131
0.091416
0.08455
0.085067
0.073693
0.075268
0.10354
0.10342
0.10241
0.10123
0.098977
0.096895
0.093094
0.091349
0.084431
0.08487
0.073535
0.074977
0.10364
0.10351
0.1025
0.10129
0.099017
0.09691
0.093059
0.091282
0.084312
0.084673
0.073377
0.074686
0.10373
0.1036
0.10258
0.10136
0.099059
0.096927
0.093024
0.091215
0.084194
0.084475
0.073219
0.074396
0.10383
0.1037
0.10266
0.10143
0.099102
0.096945
0.09299
0.091148
0.084077
0.084277
0.073062
0.074107
0.10393
0.10379
0.10275
0.1015
0.099147
0.096964
0.092957
0.091081
0.08396
0.084078
0.072904
0.073818
0.10403
0.10389
0.10284
0.10157
0.099193
0.096984
0.092925
0.091015
0.083845
0.083879
0.072746
0.073529
0.10413
0.10399
0.10293
0.10165
0.099241
0.097005
0.092894
0.090948
0.08373
0.08368
0.072588
0.07324
0.10424
0.10409
0.10303
0.10172
0.099291
0.097028
0.092864
0.090881
0.083615
0.08348
0.07243
0.072951
0.10435
0.1042
0.10312
0.1018
0.099342
0.097053
0.092835
0.090814
0.083502
0.08328
0.072272
0.072663
0.10446
0.10431
0.10322
0.10189
0.099396
0.097078
0.092807
0.090748
0.083389
0.08308
0.072113
0.072374
0.10457
0.10442
0.10332
0.10197
0.099451
0.097106
0.09278
0.090681
0.083276
0.082879
0.071954
0.072085
0.10469
0.10453
0.10343
0.10206
0.099508
0.097135
0.092755
0.090615
0.083165
0.082677
0.071794
0.071796
0.10481
0.10465
0.10353
0.10214
0.099568
0.097165
0.092731
0.090549
0.083054
0.082476
0.071633
0.071506
0.10493
0.10477
0.10364
0.10224
0.099629
0.097197
0.092708
0.090484
0.082944
0.082273
0.071472
0.071216
0.10505
0.10489
0.10376
0.10233
0.099693
0.097232
0.092687
0.090418
0.082835
0.082071
0.07131
0.070925
0.10518
0.10502
0.10387
0.10243
0.09976
0.097268
0.092668
0.090353
0.082726
0.081868
0.071147
0.070633
0.10531
0.10515
0.10399
0.10253
0.099829
0.097306
0.09265
0.090289
0.082618
0.081664
0.070983
0.07034
0.10545
0.10528
0.10411
0.10263
0.0999
0.097346
0.092634
0.090225
0.082511
0.08146
0.070818
0.070047
0.10559
0.10542
0.10424
0.10274
0.099975
0.097389
0.092619
0.090161
0.082405
0.081256
0.070651
0.069752
0.10573
0.10556
0.10437
0.10285
0.10005
0.097434
0.092607
0.090098
0.082299
0.081051
0.070484
0.069456
0.10588
0.1057
0.1045
0.10296
0.10013
0.097481
0.092596
0.090036
0.082194
0.080845
0.070315
0.069158
0.10603
0.10585
0.10464
0.10308
0.10022
0.097531
0.092588
0.089974
0.08209
0.080639
0.070145
0.068859
0.10618
0.106
0.10478
0.1032
0.1003
0.097583
0.092582
0.089913
0.081987
0.080433
0.069973
0.068559
0.10634
0.10616
0.10493
0.10333
0.10039
0.097638
0.092578
0.089853
0.081885
0.080226
0.0698
0.068257
0.10651
0.10632
0.10508
0.10346
0.10049
0.097696
0.092576
0.089793
0.081783
0.080018
0.069625
0.067952
0.10667
0.10649
0.10523
0.10359
0.10059
0.097758
0.092577
0.089735
0.081683
0.07981
0.069448
0.067646
0.10685
0.10666
0.10539
0.10373
0.10069
0.097822
0.092581
0.089678
0.081583
0.079601
0.06927
0.067338
0.10702
0.10683
0.10556
0.10387
0.10079
0.097889
0.092588
0.089622
0.081484
0.079392
0.069089
0.067027
0.10721
0.10702
0.10573
0.10402
0.1009
0.097961
0.092597
0.089567
0.081386
0.079182
0.068906
0.066713
0.1074
0.1072
0.1059
0.10417
0.10102
0.098035
0.092609
0.089513
0.081289
0.078971
0.068721
0.066397
0.10759
0.10739
0.10608
0.10433
0.10114
0.098114
0.092625
0.089461
0.081193
0.07876
0.068534
0.066079
0.10779
0.10759
0.10627
0.1045
0.10126
0.098196
0.092643
0.08941
0.081098
0.078548
0.068345
0.065757
0.108
0.1078
0.10646
0.10467
0.10139
0.098283
0.092666
0.089361
0.081003
0.078336
0.068153
0.065432
0.10821
0.10801
0.10666
0.10484
0.10153
0.098374
0.092691
0.089313
0.08091
0.078122
0.067958
0.065104
0.10843
0.10823
0.10686
0.10502
0.10167
0.098469
0.092721
0.089267
0.080818
0.077908
0.067761
0.064772
0.10865
0.10845
0.10707
0.10521
0.10181
0.098569
0.092754
0.089223
0.080727
0.077694
0.067561
0.064437
0.10888
0.10868
0.10729
0.10541
0.10196
0.098674
0.092792
0.089181
0.080637
0.077478
0.067358
0.064097
0.10912
0.10892
0.10752
0.10561
0.10212
0.098784
0.092833
0.089142
0.080548
0.077262
0.067152
0.063754
0.10937
0.10917
0.10775
0.10582
0.10229
0.098899
0.092879
0.089104
0.080461
0.077045
0.066942
0.063406
0.10962
0.10943
0.10799
0.10603
0.10246
0.099019
0.092929
0.089068
0.080374
0.076826
0.066729
0.063054
0.10989
0.10969
0.10824
0.10626
0.10263
0.099146
0.092985
0.089035
0.080288
0.076607
0.066513
0.062697
0.11016
0.10996
0.1085
0.10649
0.10282
0.099278
0.093045
0.089004
0.080204
0.076387
0.066293
0.062335
0.11044
0.11024
0.10877
0.10673
0.10301
0.099416
0.09311
0.088976
0.080121
0.076166
0.066069
0.061968
0.11072
0.11053
0.10904
0.10698
0.10321
0.099561
0.09318
0.088951
0.080039
0.075944
0.065841
0.061596
0.11102
0.11083
0.10933
0.10724
0.10342
0.099712
0.093255
0.088928
0.079958
0.075721
0.065609
0.061218
0.11133
0.11114
0.10962
0.1075
0.10364
0.09987
0.093336
0.088908
0.079878
0.075496
0.065373
0.060833
0.11164
0.11145
0.10992
0.10778
0.10387
0.10003
0.093423
0.088892
0.0798
0.07527
0.065132
0.060443
0.11197
0.11178
0.11024
0.10807
0.1041
0.10021
0.093516
0.088878
0.079722
0.075042
0.064886
0.060046
0.1123
0.11212
0.11056
0.10836
0.10435
0.10039
0.093615
0.088867
0.079646
0.074813
0.064635
0.059642
0.11265
0.11247
0.1109
0.10867
0.1046
0.10057
0.09372
0.08886
0.07957
0.074582
0.064379
0.05923
0.11301
0.11284
0.11125
0.10899
0.10486
0.10077
0.093831
0.088856
0.079495
0.074349
0.064117
0.058811
0.11338
0.11321
0.11161
0.10932
0.10514
0.10097
0.093949
0.088855
0.079422
0.074114
0.063849
0.058384
0.11376
0.1136
0.11198
0.10966
0.10542
0.10119
0.094074
0.088858
0.079349
0.073877
0.063575
0.057949
0.11415
0.11399
0.11236
0.11001
0.10572
0.10141
0.094206
0.088864
0.079277
0.073638
0.063295
0.057505
0.11456
0.11441
0.11276
0.11038
0.10602
0.10164
0.094344
0.088873
0.079205
0.073396
0.063008
0.057052
0.11497
0.11483
0.11317
0.11076
0.10634
0.10188
0.09449
0.088886
0.079134
0.073151
0.062714
0.056589
0.11541
0.11527
0.11359
0.11115
0.10667
0.10212
0.094643
0.088902
0.079063
0.072902
0.062412
0.056115
0.11585
0.11572
0.11403
0.11155
0.10702
0.10238
0.094804
0.088922
0.078992
0.072651
0.062102
0.055631
0.11631
0.11619
0.11448
0.11197
0.10737
0.10265
0.094972
0.088945
0.078921
0.072395
0.061784
0.055136
0.11678
0.11667
0.11495
0.1124
0.10774
0.10293
0.095148
0.088972
0.07885
0.072136
0.061457
0.054629
0.11727
0.11717
0.11543
0.11285
0.10812
0.10322
0.095332
0.089002
0.078778
0.071872
0.061121
0.05411
0.11777
0.11768
0.11593
0.11331
0.10852
0.10352
0.095524
0.089036
0.078706
0.071603
0.060774
0.053578
0.11829
0.11821
0.11645
0.11379
0.10893
0.10383
0.095723
0.089072
0.078632
0.071328
0.060418
0.053032
0.11883
0.11876
0.11698
0.11429
0.10936
0.10415
0.095931
0.089112
0.078557
0.071048
0.06005
0.052471
0.11938
0.11933
0.11754
0.1148
0.1098
0.10449
0.096148
0.089154
0.078481
0.070762
0.05967
0.051896
0.11995
0.11991
0.11811
0.11533
0.11025
0.10483
0.096372
0.0892
0.078402
0.070469
0.059278
0.051304
0.12054
0.12051
0.1187
0.11588
0.11073
0.10519
0.096606
0.089248
0.078321
0.070169
0.058872
0.050696
0.12115
0.12114
0.11931
0.11645
0.11122
0.10556
0.096848
0.089299
0.078237
0.06986
0.058453
0.05007
0.12178
0.12178
0.11994
0.11704
0.11173
0.10594
0.097098
0.089352
0.07815
0.069543
0.058019
0.049426
0.12243
0.12245
0.1206
0.11764
0.11225
0.10634
0.097358
0.089408
0.078059
0.069217
0.05757
0.048762
0.1231
0.12314
0.12127
0.11827
0.1128
0.10675
0.097627
0.089466
0.077964
0.068881
0.057103
0.048078
0.1238
0.12385
0.12198
0.11893
0.11337
0.10718
0.097905
0.089526
0.077864
0.068534
0.05662
0.047373
0.12451
0.12459
0.1227
0.1196
0.11396
0.10762
0.098193
0.089587
0.077759
0.068175
0.056118
0.046644
0.12526
0.12535
0.12346
0.12031
0.11457
0.10808
0.09849
0.089651
0.077648
0.067804
0.055597
0.045892
0.12603
0.12615
0.12424
0.12104
0.1152
0.10856
0.098798
0.089715
0.07753
0.06742
0.055055
0.045115
0.12683
0.12697
0.12506
0.12179
0.11586
0.10905
0.099116
0.089781
0.077406
0.067022
0.054491
0.044312
0.12766
0.12783
0.1259
0.12258
0.11654
0.10956
0.099445
0.089849
0.077274
0.066608
0.053905
0.043481
0.12852
0.12871
0.12678
0.1234
0.11726
0.11009
0.099785
0.089917
0.077134
0.066179
0.053294
0.04262
0.12941
0.12964
0.1277
0.12425
0.118
0.11064
0.10014
0.089986
0.076985
0.065732
0.052657
0.041729
0.13035
0.1306
0.12866
0.12514
0.11877
0.11122
0.1005
0.090056
0.076826
0.065266
0.051994
0.040806
0.13132
0.13161
0.12966
0.12607
0.11958
0.11182
0.10088
0.090126
0.076656
0.064781
0.051302
0.039849
0.13233
0.13266
0.1307
0.12705
0.12042
0.11244
0.10127
0.090197
0.076475
0.064275
0.05058
0.038855
0.13338
0.13375
0.1318
0.12806
0.1213
0.11309
0.10167
0.090268
0.076282
0.063747
0.049826
0.037824
0.13449
0.1349
0.13294
0.12913
0.12223
0.11377
0.10209
0.090339
0.076075
0.063194
0.049038
0.036753
0.13564
0.1361
0.13414
0.13025
0.12319
0.11448
0.10253
0.090409
0.075852
0.062615
0.048213
0.03564
0.13686
0.13736
0.13541
0.13142
0.12421
0.11522
0.10297
0.090477
0.075613
0.062009
0.047351
0.034482
0.13812
0.13869
0.13673
0.13266
0.12527
0.11599
0.10344
0.090543
0.075356
0.061371
0.046447
0.033277
0.13946
0.14008
0.13813
0.13396
0.12639
0.1168
0.10392
0.090606
0.075078
0.060701
0.045499
0.032022
0.14085
0.14154
0.1396
0.13533
0.12756
0.11765
0.10442
0.090664
0.074777
0.059994
0.044504
0.030713
0.14232
0.14309
0.14115
0.13678
0.1288
0.11854
0.10493
0.090716
0.07445
0.059248
0.043458
0.029348
0.14387
0.14471
0.14279
0.1383
0.1301
0.11947
0.10546
0.090758
0.074092
0.058457
0.042357
0.027922
0.14549
0.14643
0.14451
0.13991
0.13146
0.12044
0.106
0.090789
0.0737
0.057618
0.041196
0.026431
0.1472
0.14824
0.14634
0.14161
0.1329
0.12146
0.10655
0.090804
0.073269
0.056724
0.039969
0.024871
0.149
0.15014
0.14827
0.14341
0.13441
0.12252
0.10712
0.090799
0.072793
0.055769
0.038671
0.023235
0.15089
0.15216
0.15031
0.1453
0.13599
0.12362
0.10769
0.090768
0.072265
0.054746
0.037293
0.021519
0.15288
0.15429
0.15246
0.14731
0.13766
0.12477
0.10826
0.090706
0.071676
0.053646
0.035829
0.019713
0.15497
0.15654
0.15474
0.14943
0.13941
0.12596
0.10883
0.090603
0.071017
0.052461
0.034269
0.017812
0.15718
0.15891
0.15715
0.15166
0.14124
0.12718
0.10938
0.090452
0.070279
0.051179
0.032603
0.015807
0.15949
0.16142
0.15971
0.15403
0.14316
0.12845
0.10992
0.090241
0.069449
0.049789
0.030821
0.013687
0.16193
0.16408
0.16241
0.15652
0.14516
0.12974
0.11044
0.089959
0.068514
0.048279
0.028911
0.011442
0.16449
0.16688
0.16527
0.15915
0.14726
0.13106
0.11091
0.08959
0.067459
0.046633
0.026859
0.009061
0.16718
0.16986
0.16831
0.16194
0.14944
0.1324
0.11134
0.08912
0.066267
0.044837
0.024653
0.0065318
0.17002
0.173
0.17154
0.16488
0.15172
0.13374
0.11169
0.088528
0.064919
0.042874
0.022276
0.0038416
0.17301
0.17635
0.17497
0.16799
0.15409
0.13508
0.11196
0.087792
0.063394
0.040725
0.019714
0.00097699
0.17617
0.1799
0.17863
0.17128
0.15654
0.13641
0.11212
0.086885
0.061666
0.038369
0.016949
-0.0020757
0.1795
0.1837
0.18254
0.17476
0.15908
0.13769
0.11214
0.085777
0.059708
0.035781
0.013962
-0.0053304
0.18303
0.18775
0.18674
0.17846
0.1617
0.13891
0.11198
0.084428
0.057484
0.032935
0.010733
-0.0088019
0.18678
0.19211
0.19125
0.18238
0.16439
0.14002
0.1116
0.082792
0.054954
0.029797
0.007236
-0.012505
0.19075
0.19679
0.19611
0.18653
0.16712
0.141
0.11094
0.080812
0.052068
0.026329
0.0034448
-0.016457
0.19497
0.20184
0.20136
0.19092
0.16986
0.14176
0.10993
0.07842
0.048769
0.022487
-0.00067293
-0.020674
0.19944
0.2073
0.20702
0.19554
0.17257
0.14224
0.10849
0.075534
0.044988
0.018216
-0.0051541
-0.025176
0.20419
0.2132
0.21313
0.20038
0.17515
0.14233
0.1065
0.072057
0.040648
0.013459
-0.010039
-0.029984
0.20919
0.21958
0.21969
0.20538
0.17752
0.1419
0.10383
0.067879
0.035663
0.0081537
-0.015368
-0.035117
0.21445
0.22646
0.22671
0.21045
0.1795
0.14076
0.10032
0.062876
0.029945
0.0022394
-0.021179
-0.040587
0.21994
0.23385
0.23411
0.21544
0.18088
0.1387
0.095792
0.056918
0.023408
-0.004334
-0.027495
-0.046396
0.22561
0.24172
0.24179
0.22012
0.18138
0.13545
0.090043
0.049871
0.015978
-0.011597
-0.034318
-0.052525
0.23142
0.25
0.24951
0.22412
0.1806
0.13069
0.08285
0.041611
0.0076055
-0.01955
-0.041615
-0.058924
0.23735
0.25851
0.25687
0.2269
0.17802
0.12404
0.073986
0.032037
-0.001726
-0.028152
-0.049313
-0.065508
0.24338
0.26694
0.26316
0.22763
0.17298
0.11507
0.063246
0.021092
-0.011982
-0.037317
-0.057295
-0.072154
0.24956
0.27468
0.2672
0.2251
0.1646
0.10332
0.050481
0.0087974
-0.023059
-0.046907
-0.065406
-0.078717
0.25605
0.28067
0.26711
0.21761
0.15185
0.088384
0.035653
-0.004707
-0.034764
-0.056727
-0.073463
-0.085041
0.26319
0.28316
0.26007
0.20285
0.13349
0.069904
0.018885
-0.019136
-0.046799
-0.066527
-0.08127
-0.090987
0.27155
0.27968
0.24231
0.178
0.10827
0.047673
0.0004515
-0.034083
-0.058787
-0.076024
-0.088635
-0.096447
0.28186
0.26739
0.20981
0.14028
0.075096
0.021635
-0.019305
-0.049127
-0.070361
-0.084955
-0.095406
-0.10137
0.29422
0.24283
0.15966
0.088229
0.033564
-0.008088
-0.040105
-0.063988
-0.081291
-0.093173
-0.10152
-0.10578
0.30847
0.19957
0.088257
0.021135
-0.016537
-0.041761
-0.062212
-0.078897
-0.091784
-0.10088
-0.1072
-0.10995
0.33425
0.13809
-0.0046283
-0.059736
-0.074824
-0.080206
-0.086894
-0.095118
-0.10297
-0.10903
-0.11327
-0.11465
0.38319
0.075843
-0.10381
-0.14325
-0.13418
-0.11987
-0.1129
-0.11249
-0.11508
-0.11795
-0.12006
-0.12005
0.1043
0.065065
0.054898
0.048733
0.044349
0.040914
0.038037
0.035412
0.033123
0.030667
0.028919
0.025707
0.12393
0.080614
0.067987
0.059816
0.054089
0.049671
0.046018
0.04271
0.039857
0.036774
0.034657
0.030744
0.11112
0.075336
0.063906
0.055882
0.050257
0.04595
0.042422
0.039242
0.036538
0.03357
0.031632
0.027739
0.10604
0.074968
0.063863
0.055751
0.049997
0.045585
0.041984
0.03874
0.036007
0.032972
0.031048
0.026935
0.10542
0.077158
0.065887
0.057554
0.051551
0.046926
0.04315
0.039747
0.036894
0.033705
0.031706
0.027328
0.1048
0.07899
0.067642
0.059169
0.052964
0.048155
0.044224
0.040679
0.037715
0.03439
0.032316
0.027736
0.10371
0.080281
0.069003
0.060474
0.05412
0.049162
0.045102
0.041438
0.038381
0.034949
0.032808
0.028091
0.10255
0.081341
0.070222
0.061689
0.055221
0.050132
0.045955
0.042185
0.039043
0.035524
0.033321
0.028525
0.10146
0.082258
0.071368
0.062876
0.056324
0.051121
0.046839
0.042972
0.039753
0.036164
0.033905
0.029086
0.10042
0.083023
0.072426
0.064021
0.057422
0.052126
0.047751
0.0438
0.040512
0.036873
0.034568
0.029781
0.099411
0.083638
0.073387
0.065111
0.058502
0.053139
0.048687
0.044666
0.041322
0.037652
0.035313
0.03061
0.098435
0.084115
0.074248
0.066139
0.059557
0.054153
0.049644
0.04557
0.042181
0.038502
0.036141
0.031571
0.097492
0.084471
0.075011
0.067098
0.060577
0.05516
0.050615
0.046506
0.043087
0.039419
0.037048
0.032654
0.096584
0.084722
0.07568
0.067986
0.061554
0.056151
0.05159
0.047466
0.044031
0.040392
0.038024
0.033841
0.095712
0.084885
0.076258
0.068799
0.062483
0.057116
0.052561
0.048438
0.045002
0.041412
0.039058
0.035114
0.094877
0.084972
0.076754
0.069539
0.063357
0.058049
0.053518
0.049414
0.045991
0.042464
0.040133
0.036448
0.09408
0.084998
0.077173
0.070207
0.064174
0.058943
0.054452
0.050383
0.046985
0.043535
0.041235
0.03782
0.093321
0.084972
0.077525
0.070808
0.064934
0.059795
0.055358
0.051337
0.047974
0.044614
0.042348
0.039207
0.092599
0.084905
0.077817
0.071345
0.065637
0.060601
0.05623
0.052269
0.048949
0.045686
0.043459
0.040588
0.091913
0.084805
0.078055
0.071824
0.066284
0.06136
0.057064
0.053173
0.049903
0.046744
0.044555
0.041945
0.091262
0.084678
0.078246
0.072249
0.066879
0.062073
0.057859
0.054044
0.05083
0.047777
0.045627
0.043263
0.090644
0.084531
0.078397
0.072625
0.067424
0.062739
0.058612
0.05488
0.051724
0.048779
0.046666
0.044531
0.090057
0.084367
0.078511
0.072957
0.067922
0.063361
0.059324
0.055679
0.052583
0.049744
0.047667
0.045739
0.089498
0.084191
0.078595
0.073249
0.068377
0.06394
0.059996
0.056439
0.053403
0.050669
0.048625
0.046882
0.088967
0.084005
0.078652
0.073504
0.06879
0.064478
0.060627
0.057159
0.054185
0.051552
0.049538
0.047957
0.088461
0.083811
0.078686
0.073727
0.069166
0.064977
0.061219
0.057841
0.054928
0.05239
0.050405
0.048963
0.087978
0.083612
0.078699
0.07392
0.069508
0.065439
0.061773
0.058484
0.055631
0.053183
0.051223
0.0499
0.087516
0.08341
0.078695
0.074086
0.069817
0.065866
0.062292
0.05909
0.056295
0.053932
0.051995
0.05077
0.087074
0.083204
0.078675
0.074229
0.070096
0.066261
0.062776
0.059659
0.056922
0.054636
0.052721
0.051576
0.086651
0.082997
0.078641
0.074349
0.070348
0.066625
0.063227
0.060194
0.057511
0.055298
0.053403
0.05232
0.086244
0.082788
0.078596
0.07445
0.070575
0.066959
0.063647
0.060694
0.058066
0.055918
0.054041
0.053007
0.085854
0.082579
0.07854
0.074532
0.070778
0.067267
0.064038
0.061161
0.058585
0.056498
0.054638
0.05364
0.085478
0.082371
0.078474
0.074598
0.07096
0.067549
0.0644
0.061598
0.059072
0.05704
0.055196
0.054223
0.085115
0.082163
0.078401
0.074649
0.071121
0.067807
0.064736
0.062005
0.059528
0.057546
0.055716
0.05476