/*--------------------------------*- C++ -*----------------------------------*\
  =========                 |
  \\      /  F ield         | OpenFOAM: The Open Source CFD Toolbox
   \\    /   O peration     | Website:  https://openfoam.org
    \\  /    A nd           | Version:  6.0
     \\/     M anipulation  |
\*---------------------------------------------------------------------------*/
FoamFile
{
    version     2.0;
    format      ascii;
    class       volScalarField;
    location    "11";
    object      p;
}
// * * * * * * * * * * * * * * * * * * * * * * * * * * * * * * * * * * * * * //

dimensions      [0 2 -2 0 0 0 0];

internalField   nonuniform List<scalar> 
62000
(
0.0224141
0.0221482
0.0218998
0.0216718
0.021458
0.0212638
0.0210821
0.0209182
0.0207645
0.0206272
0.0204975
0.020383
0.0202738
0.0201792
0.0200884
0.0200123
0.0199397
0.0198825
0.0198299
0.0197943
0.0197654
0.0197569
0.0197583
0.0197854
0.0198266
0.0199012
0.019997
0.020135
0.0203055
0.02053
0.0207999
0.021133
0.021535
0.0220414
0.0226888
0.0234973
0.0244835
0.0256739
0.0271066
0.0288399
0.0309407
0.0334773
0.0364998
0.0400286
0.0440218
0.0483367
0.0527403
0.0568333
0.0602544
0.0625966
0.063798
0.0640839
0.0639047
0.0640148
0.0644683
0.0651632
0.0651031
0.0631987
0.0627357
0.0658765
0.0221848
0.0219903
0.0217942
0.0216038
0.0214131
0.0212296
0.0210491
0.0208792
0.0207148
0.0205641
0.0204204
0.0202922
0.0201711
0.0200667
0.0199688
0.0198874
0.0198124
0.0197541
0.0197029
0.0196693
0.019645
0.0196405
0.0196486
0.0196804
0.0197296
0.0198082
0.0199121
0.0200524
0.0202292
0.0204521
0.0207246
0.0210534
0.0214533
0.0219585
0.0226011
0.0234027
0.024382
0.0255639
0.0269885
0.0287155
0.030817
0.0333659
0.036422
0.0400187
0.0441313
0.0486377
0.0533223
0.0577949
0.0616846
0.0645551
0.0663052
0.0671278
0.067497
0.0682675
0.0696536
0.0716621
0.0733109
0.073036
0.0756866
0.0782312
0.0221508
0.0220525
0.0219292
0.0217922
0.0216367
0.0214699
0.0212901
0.0211053
0.0209135
0.0207244
0.0205343
0.0203548
0.0201796
0.0200215
0.019871
0.0197416
0.0196221
0.0195256
0.0194408
0.0193802
0.0193337
0.019313
0.0193097
0.0193354
0.0193834
0.0194651
0.019577
0.0197284
0.0199207
0.0201596
0.0204496
0.0207943
0.0212124
0.0217362
0.0223985
0.0232159
0.0242011
0.0253758
0.0267767
0.0284636
0.0305064
0.032977
0.0359362
0.0394202
0.0434109
0.0477928
0.0523532
0.0566927
0.0604022
0.0629824
0.0642312
0.0642275
0.0633659
0.0625201
0.0621008
0.0624336
0.0629501
0.0621571
0.0649329
0.0651342
0.022123
0.0219882
0.0218391
0.0216844
0.0215198
0.0213502
0.0211727
0.0209937
0.0208094
0.0206282
0.0204454
0.020271
0.0200988
0.0199404
0.0197874
0.0196522
0.0195252
0.0194187
0.0193232
0.0192505
0.0191918
0.0191588
0.0191434
0.0191579
0.0191952
0.0192675
0.0193713
0.0195163
0.0197041
0.0199392
0.0202249
0.020564
0.0209756
0.0214984
0.022162
0.0229801
0.0239586
0.0251156
0.0264884
0.0281376
0.0301347
0.0325542
0.0354642
0.0389122
0.0428974
0.0473265
0.0520068
0.0565517
0.0605323
0.0633934
0.0648306
0.0647574
0.0634158
0.061585
0.0597889
0.0586008
0.0579026
0.0564038
0.0583593
0.0589402
0.0215813
0.0213281
0.0210804
0.0208448
0.0206178
0.0204043
0.0202007
0.0200121
0.0198338
0.0196723
0.0195209
0.019388
0.0192646
0.019161
0.0190659
0.0189911
0.0189238
0.0188765
0.0188365
0.0188164
0.0188048
0.0188142
0.018835
0.01888
0.0189417
0.0190326
0.0191495
0.0193027
0.0194942
0.0197287
0.0200084
0.0203356
0.0207326
0.0212374
0.0218854
0.0226851
0.0236395
0.0247676
0.0261085
0.0277251
0.0296931
0.0320941
0.0350089
0.0385046
0.0426098
0.0472689
0.0523333
0.0574569
0.0622255
0.0660613
0.0685777
0.0695287
0.0689445
0.0674284
0.0654446
0.0636743
0.0622267
0.0599784
0.0606577
0.0617636
0.0206338
0.0202998
0.019978
0.0196738
0.0193854
0.0191182
0.0188698
0.0186466
0.0184445
0.0182706
0.018119
0.0179971
0.0178966
0.0178259
0.0177741
0.0177502
0.0177419
0.0177585
0.0177875
0.0178387
0.0179002
0.0179823
0.0180743
0.0181876
0.018313
0.0184624
0.0186313
0.0188299
0.0190601
0.0193265
0.0196303
0.0199728
0.0203746
0.0208787
0.0215164
0.0222976
0.0232244
0.024317
0.0256149
0.0271804
0.0290903
0.0314304
0.0342917
0.03776
0.0418936
0.0466805
0.0520261
0.0576465
0.0631713
0.0680362
0.0718129
0.0741233
0.0748028
0.0742287
0.0727259
0.0708966
0.0689452
0.0657529
0.0648596
0.0648246
0.0195651
0.0192139
0.0188714
0.0185431
0.0182274
0.0179301
0.0176503
0.0173942
0.0171598
0.0169547
0.0167749
0.0166289
0.0165097
0.0164273
0.016371
0.0163518
0.0163566
0.0163962
0.0164567
0.0165486
0.0166582
0.0167957
0.0169485
0.017127
0.0173203
0.0175387
0.0177761
0.0180415
0.0183361
0.0186631
0.0190223
0.0194117
0.0198514
0.0203782
0.0210259
0.0218006
0.0227044
0.0237575
0.0249957
0.0264752
0.028268
0.030458
0.0331391
0.0364078
0.0403451
0.0449765
0.0502606
0.0559809
0.0618287
0.0672825
0.0719086
0.0752536
0.0769954
0.0773155
0.0763674
0.0746211
0.0722629
0.0681391
0.0656743
0.0634184
0.0185917
0.0182657
0.0179432
0.0176288
0.0173207
0.0170241
0.0167382
0.0164695
0.0162166
0.0159876
0.0157796
0.0156018
0.0154494
0.0153324
0.0152433
0.0151926
0.0151708
0.0151884
0.0152343
0.0153189
0.0154306
0.0155792
0.0157528
0.0159613
0.0161933
0.0164581
0.0167482
0.0170716
0.0174281
0.0178196
0.0182435
0.0186943
0.0191856
0.0197536
0.0204235
0.0212007
0.0220848
0.0230931
0.0242534
0.0256104
0.0272255
0.0291739
0.0315452
0.0344376
0.0379452
0.0421214
0.0469703
0.0523407
0.0579927
0.0634673
0.0683602
0.0721883
0.0745436
0.0754459
0.0749158
0.0732513
0.0706317
0.0657875
0.0620277
0.0576282
0.0178228
0.0175303
0.0172364
0.0169463
0.0166574
0.0163751
0.016098
0.0158322
0.0155762
0.0153379
0.0151145
0.0149157
0.0147366
0.0145888
0.0144648
0.0143773
0.014317
0.0142967
0.0143058
0.0143572
0.01444
0.0145659
0.014724
0.0149255
0.0151594
0.0154355
0.015746
0.0160989
0.0164934
0.0169304
0.0174047
0.0179069
0.018447
0.0190513
0.0197433
0.0205215
0.0213823
0.0223377
0.0234047
0.0246129
0.0260102
0.0276597
0.0296415
0.0320492
0.0349812
0.0385085
0.0426706
0.0473724
0.0524408
0.0574872
0.0621546
0.065975
0.0684938
0.0696362
0.0693192
0.0677161
0.0649769
0.0597416
0.0550323
0.0492294
0.017225
0.0169707
0.0167122
0.0164539
0.016193
0.0159344
0.0156762
0.0154245
0.0151774
0.0149424
0.0147169
0.01451
0.0143175
0.0141502
0.0140019
0.0138846
0.0137908
0.0137329
0.0137027
0.013713
0.0137552
0.0138419
0.0139641
0.0141342
0.0143427
0.0146005
0.0149007
0.0152518
0.0156536
0.0161066
0.0166044
0.0171346
0.0177004
0.0183261
0.0190255
0.0197933
0.0206209
0.0215135
0.0224756
0.023521
0.0246829
0.026011
0.0275738
0.0294564
0.0317553
0.0345515
0.0379089
0.0417794
0.0460485
0.0503979
0.0545295
0.0580101
0.0603883
0.0615265
0.0612833
0.0597254
0.0570106
0.0516477
0.0463072
0.0399173
0.0167615
0.0165423
0.0163174
0.0160911
0.0158601
0.0156289
0.0153954
0.0151648
0.0149351
0.014713
0.0144956
0.0142917
0.0140969
0.013922
0.0137606
0.0136254
0.0135084
0.0134232
0.0133613
0.0133367
0.0133409
0.013388
0.0134696
0.0135997
0.0137698
0.0139922
0.0142613
0.0145868
0.0149695
0.0154105
0.0159028
0.0164316
0.0169984
0.0176191
0.0183058
0.019046
0.0198266
0.0206457
0.0214963
0.0223772
0.0233078
0.0243262
0.025489
0.0268711
0.0285639
0.0306512
0.0332131
0.0362359
0.0396539
0.0432117
0.0466675
0.049639
0.0516894
0.052661
0.0523768
0.0508456
0.0482194
0.0429095
0.0371361
0.0307796
0.0163949
0.0162116
0.0160222
0.01583
0.0156315
0.0154306
0.0152248
0.0150189
0.0148107
0.0146063
0.014403
0.0142088
0.0140194
0.013845
0.0136798
0.0135353
0.0134047
0.0133007
0.0132159
0.0131637
0.0131368
0.013149
0.0131931
0.0132833
0.0134122
0.0135928
0.0138207
0.0141065
0.0144523
0.0148601
0.0153232
0.0158259
0.016366
0.0169594
0.0176107
0.0183049
0.0190243
0.0197606
0.0204967
0.0212184
0.0219337
0.0226701
0.0234738
0.0244098
0.0255618
0.0270131
0.0288522
0.0310906
0.0336999
0.0364786
0.0392376
0.0416438
0.0432984
0.0440302
0.0436492
0.0421174
0.0396053
0.0343999
0.0283148
0.0223374
0.0161689
0.0160114
0.0158465
0.0156785
0.0155034
0.0153254
0.0151418
0.0149571
0.0147685
0.014582
0.0143941
0.0142124
0.0140323
0.0138637
0.0137002
0.0135536
0.0134165
0.0133019
0.013202
0.0131306
0.0130801
0.0130648
0.0130772
0.0131321
0.0132223
0.0133612
0.0135451
0.0137852
0.0140847
0.0144463
0.0148638
0.0153209
0.015816
0.0163599
0.0169575
0.0175894
0.018235
0.0188813
0.0195032
0.0200765
0.0206003
0.0210941
0.0215956
0.0221602
0.0228641
0.0237861
0.0250179
0.026587
0.0284923
0.030575
0.0326873
0.0345476
0.0357848
0.036236
0.0357033
0.0341299
0.0316863
0.0265725
0.0202035
0.0147381
0.01601
0.0158782
0.0157386
0.0155949
0.0154432
0.0152874
0.0151248
0.0149599
0.0147897
0.0146202
0.0144476
0.0142793
0.0141103
0.01395
0.013792
0.0136472
0.0135086
0.0133883
0.0132789
0.0131938
0.0131255
0.0130881
0.0130745
0.0130989
0.0131546
0.0132547
0.0133957
0.0135892
0.0138388
0.0141477
0.0145103
0.0149106
0.015345
0.0158266
0.016356
0.0169132
0.0174759
0.0180274
0.018537
0.0189733
0.0193285
0.0196164
0.0198674
0.020129
0.020469
0.0209611
0.0216959
0.0227107
0.0240226
0.0255065
0.0270489
0.0284094
0.0292548
0.0294231
0.0287135
0.027052
0.024621
0.0195225
0.0128752
0.0079054
0.0159026
0.0157922
0.0156737
0.0155512
0.0154206
0.0152857
0.0151439
0.0149989
0.0148481
0.0146966
0.0145406
0.0143869
0.0142304
0.0140803
0.0139297
0.0137895
0.0136521
0.0135299
0.013415
0.0133205
0.0132391
0.0131844
0.0131492
0.0131478
0.013173
0.0132379
0.0133388
0.0134872
0.0136868
0.0139412
0.0142446
0.0145813
0.014949
0.015358
0.0158106
0.0162851
0.0167586
0.0172128
0.0176135
0.0179246
0.018134
0.018251
0.018301
0.0183241
0.0183808
0.0185378
0.0188823
0.0194557
0.0202871
0.0212756
0.0223308
0.0232512
0.0237261
0.0236039
0.0226805
0.0208778
0.0183729
0.0132074
0.00624795
0.00168543
0.0158142
0.0157271
0.0156325
0.0155336
0.0154262
0.0153137
0.0151931
0.0150684
0.0149364
0.0148026
0.0146628
0.0145239
0.0143806
0.0142416
0.0141
0.0139661
0.0138323
0.0137105
0.0135928
0.0134918
0.0134002
0.0133315
0.0132781
0.0132542
0.0132524
0.0132854
0.0133492
0.0134549
0.0136063
0.0138066
0.0140503
0.0143219
0.014618
0.0149516
0.0153225
0.0157101
0.0160917
0.0164479
0.0167431
0.0169382
0.0170183
0.0169895
0.0168732
0.0167032
0.0165327
0.0164218
0.0164525
0.0166678
0.0171025
0.0176746
0.0183111
0.0188394
0.0189775
0.0185734
0.0174174
0.015426
0.012779
0.00745397
0.000165112
-0.00411096
0.0158153
0.0157421
0.0156607
0.0155754
0.0154817
0.0153834
0.0152775
0.0151679
0.0150513
0.0149324
0.0148074
0.0146823
0.0145518
0.014424
0.014292
0.0141655
0.0140367
0.0139172
0.0137988
0.0136938
0.0135947
0.0135145
0.0134459
0.0134023
0.0133764
0.0133802
0.0134097
0.0134756
0.013581
0.0137293
0.0139145
0.0141211
0.0143468
0.0146028
0.0148911
0.0151905
0.0154793
0.0157383
0.0159313
0.0160185
0.0159833
0.0158296
0.0155754
0.0152494
0.0148981
0.0145746
0.0143552
0.0142812
0.0143909
0.0146145
0.0148878
0.0150669
0.014882
0.0141884
0.0127687
0.0105418
0.00767807
0.00212202
-0.00552833
-0.00963737
0.0158404
0.0157826
0.015717
0.0156468
0.015568
0.0154841
0.0153919
0.0152957
0.0151919
0.0150859
0.0149732
0.0148602
0.0147411
0.0146239
0.0145013
0.0143826
0.0142598
0.0141438
0.0140263
0.0139191
0.0138145
0.0137252
0.0136434
0.0135825
0.0135349
0.0135122
0.01351
0.0135384
0.0136006
0.0136992
0.0138283
0.0139722
0.0141279
0.0143086
0.0145149
0.014727
0.0149241
0.0150872
0.0151806
0.0151647
0.0150218
0.0147539
0.0143765
0.0139134
0.013405
0.0128981
0.0124629
0.0121385
0.0119633
0.0118772
0.0118228
0.0116759
0.0111866
0.0102064
0.00850707
0.00601002
0.00288209
-0.00296711
-0.0109843
-0.0150327
0.0158974
0.0158517
0.015798
0.0157404
0.0156745
0.0156037
0.0155252
0.0154425
0.0153525
0.0152595
0.0151597
0.0150586
0.0149506
0.0148436
0.0147298
0.0146186
0.0145014
0.0143893
0.0142732
0.0141649
0.014056
0.0139591
0.0138661
0.0137899
0.0137227
0.0136755
0.0136439
0.0136375
0.0136588
0.0137105
0.0137859
0.0138694
0.0139587
0.0140656
0.0141922
0.0143189
0.0144259
0.0144949
0.014491
0.0143757
0.014131
0.0137572
0.0132675
0.0126817
0.0120345
0.0113665
0.0107421
0.0101975
0.00976995
0.00940577
0.00904778
0.00859337
0.00779944
0.00651923
0.00451528
0.00171551
-0.00172421
-0.00790715
-0.0163073
-0.0203838
0.0159669
0.0159366
0.0158992
0.0158576
0.0158074
0.0157518
0.0156874
0.0156182
0.0155406
0.0154597
0.0153708
0.0152803
0.015182
0.015084
0.0149782
0.0148739
0.0147623
0.014654
0.0145397
0.0144307
0.0143185
0.0142153
0.0141123
0.0140224
0.0139373
0.0138676
0.0138087
0.0137695
0.0137525
0.0137596
0.0137843
0.0138106
0.0138353
0.0138719
0.0139214
0.0139653
0.0139844
0.013961
0.013861
0.0136474
0.0133018
0.0128227
0.0122216
0.0115141
0.0107301
0.0099047
0.00909671
0.00833962
0.00766853
0.00703522
0.00638297
0.00562389
0.00453021
0.0029479
0.000627473
-0.00249533
-0.00627003
-0.0128172
-0.0215918
-0.025765
0.0161281
0.0161043
0.0160726
0.0160373
0.0159936
0.0159452
0.015889
0.0158283
0.01576
0.0156882
0.015609
0.0155275
0.0154381
0.015348
0.0152497
0.0151515
0.0150448
0.0149399
0.0148274
0.0147179
0.0146029
0.0144939
0.014382
0.0142796
0.0141782
0.0140878
0.0140033
0.0139335
0.0138803
0.0138455
0.0138218
0.0137933
0.0137573
0.0137259
0.0137011
0.0136645
0.0135978
0.0134835
0.0132884
0.0129771
0.0125313
0.0119475
0.0112356
0.0104077
0.00948885
0.00850943
0.00752317
0.00656091
0.00565523
0.00476218
0.00381978
0.00275977
0.00135634
-0.000543703
-0.00319974
-0.00666558
-0.0108008
-0.0177292
-0.0268835
-0.0312094
0.0163199
0.0163053
0.0162831
0.0162567
0.0162217
0.0161813
0.0161324
0.0160788
0.016017
0.015952
0.015879
0.0158042
0.015721
0.0156373
0.0155447
0.0154519
0.0153495
0.0152478
0.0151369
0.0150273
0.0149099
0.014796
0.0146762
0.0145625
0.0144461
0.0143364
0.0142282
0.0141296
0.0140424
0.0139677
0.0138982
0.0138178
0.0137228
0.0136266
0.0135301
0.0134157
0.0132652
0.0130612
0.0127709
0.0123608
0.0118118
0.0111189
0.0102898
0.0093338
0.00827138
0.00712911
0.00595549
0.00478006
0.00363189
0.00247248
0.00123511
-0.000134274
-0.00184911
-0.00407131
-0.00707145
-0.0108903
-0.0153931
-0.0227128
-0.0322319
-0.0367489
0.0165493
0.0165409
0.0165249
0.0165053
0.0164773
0.0164444
0.0164035
0.0163578
0.0163043
0.016247
0.0161817
0.0161137
0.016037
0.015959
0.0158714
0.0157828
0.0156836
0.0155842
0.0154742
0.0153638
0.0152438
0.015125
0.0149977
0.0148734
0.0147429
0.0146152
0.0144847
0.014359
0.0142395
0.014127
0.0140137
0.0138834
0.0137327
0.0135737
0.0134078
0.0132175
0.0129847
0.0126918
0.0123064
0.0117964
0.0111425
0.0103373
0.00938744
0.00829845
0.0070878
0.0057773
0.00441279
0.00302036
0.00162854
0.000200988
-0.00133445
-0.00301787
-0.00505824
-0.0076189
-0.0109775
-0.0151611
-0.0200441
-0.0277601
-0.0376451
-0.0423882
0.0168009
0.016803
0.0167986
0.0167901
0.0167729
0.01675
0.016718
0.0166806
0.016634
0.0165835
0.0165238
0.0164614
0.0163894
0.016316
0.0162321
0.0161469
0.01605
0.0159522
0.0158424
0.0157311
0.0156081
0.0154844
0.0153497
0.0152151
0.0150713
0.0149263
0.0147746
0.0146231
0.014473
0.0143244
0.0141695
0.0139915
0.0137865
0.0135671
0.013334
0.0130696
0.012756
0.0123747
0.0118935
0.0112814
0.0105181
0.00959425
0.00851447
0.00728212
0.00591035
0.00441886
0.00284814
0.00122535
-0.000425468
-0.00213267
-0.00397805
-0.00598739
-0.00835847
-0.0112626
-0.0149858
-0.0195384
-0.0248007
-0.032913
-0.0431481
-0.0481377
0.017152
0.0171563
0.017153
0.0171463
0.017131
0.0171109
0.0170827
0.0170494
0.017008
0.0169622
0.016908
0.0168504
0.0167832
0.0167137
0.0166333
0.0165504
0.0164553
0.0163579
0.0162475
0.0161339
0.0160074
0.0158781
0.0157356
0.0155908
0.0154338
0.0152722
0.0151002
0.0149241
0.0147445
0.0145615
0.0143664
0.0141425
0.0138856
0.0136076
0.0133088
0.0129718
0.0125781
0.0121089
0.0115313
0.0108155
0.00994003
0.0088935
0.0076788
0.00629657
0.00475717
0.00307658
0.0012936
-0.000567633
-0.00248154
-0.00447479
-0.00663309
-0.00897698
-0.0116951
-0.0149578
-0.0190569
-0.0239861
-0.0296344
-0.0381441
-0.0487301
-0.0539909
0.0175511
0.0175608
0.0175634
0.0175618
0.0175512
0.0175351
0.0175099
0.0174795
0.0174399
0.0173965
0.0173439
0.0172884
0.0172228
0.0171552
0.0170761
0.0169944
0.0168996
0.0168021
0.0166903
0.0165743
0.0164436
0.0163085
0.0161582
0.0160031
0.0158331
0.0156554
0.0154637
0.0152638
0.0150562
0.0148398
0.0146064
0.0143383
0.0140311
0.013696
0.0133333
0.0129249
0.0124521
0.011895
0.0112201
0.0103981
0.00940553
0.00822968
0.00687054
0.00532811
0.0036075
0.00172477
-0.000287308
-0.00240155
-0.0045954
-0.00688801
-0.00937241
-0.0120646
-0.0151352
-0.0187621
-0.0232427
-0.0285503
-0.0345809
-0.0434832
-0.0544054
-0.0599477
0.0180047
0.0180174
0.0180226
0.0180242
0.018017
0.0180046
0.0179835
0.017957
0.0179218
0.0178818
0.0178327
0.0177796
0.017716
0.0176495
0.017571
0.0174889
0.017393
0.0172934
0.0171787
0.0170585
0.0169225
0.0167805
0.0166215
0.0164557
0.0162725
0.0160787
0.0158677
0.0156448
0.0154098
0.0151618
0.014891
0.0145805
0.0142245
0.0138343
0.0134088
0.01293
0.0123787
0.0117335
0.0109607
0.0100304
0.00891845
0.00760879
0.00610082
0.0043913
0.00248346
0.000389986
-0.00185726
-0.00423365
-0.00671201
-0.00931167
-0.0121231
-0.0151753
-0.0186155
-0.0226207
-0.0274917
-0.0331835
-0.0396008
-0.0488963
-0.0601566
-0.0660003
0.0185084
0.0185289
0.0185426
0.0185518
0.0185516
0.0185451
0.0185284
0.0185054
0.0184719
0.0184336
0.0183845
0.0183317
0.0182671
0.0181999
0.0181195
0.0180357
0.0179368
0.0178341
0.0177149
0.0175897
0.0174472
0.0172975
0.0171289
0.0169518
0.016755
0.016545
0.0163149
0.0160693
0.015808
0.0155289
0.0152227
0.014871
0.0144681
0.0140239
0.0135374
0.0129892
0.0123601
0.0116266
0.010755
0.00971359
0.00847765
0.00702756
0.00536228
0.00347569
0.00136824
-0.000948517
-0.00344731
-0.00609967
-0.00887984
-0.0117993
-0.014953
-0.0183756
-0.0221938
-0.0265838
-0.0318508
-0.0379279
-0.0447271
-0.0544089
-0.065994
-0.0721438
0.0191314
0.0191509
0.0191621
0.0191693
0.0191668
0.0191587
0.0191412
0.0191176
0.0190844
0.0190457
0.018997
0.0189434
0.0188784
0.0188093
0.0187269
0.0186396
0.018537
0.0184291
0.0183042
0.0181719
0.0180215
0.0178625
0.0176833
0.0174939
0.017283
0.0170565
0.0168074
0.0165397
0.0162526
0.015944
0.0156031
0.0152121
0.0147637
0.0142681
0.0137212
0.0131052
0.0123976
0.0115763
0.0106041
0.00945087
0.00808754
0.00649414
0.00466664
0.00259754
0.000284448
-0.00226346
-0.00501956
-0.00795724
-0.0110436
-0.0142918
-0.0177876
-0.0215946
-0.025807
-0.0305939
-0.0362643
-0.0427315
-0.0499163
-0.0599858
-0.0718978
-0.078372
0.0198204
0.0198426
0.0198565
0.0198651
0.0198632
0.0198545
0.0198348
0.0198087
0.0197716
0.0197294
0.019676
0.0196185
0.0195487
0.0194754
0.0193881
0.0192962
0.0191879
0.0190745
0.0189428
0.0188032
0.0186442
0.0184756
0.0182854
0.0180833
0.0178581
0.0176151
0.0173472
0.0170577
0.0167459
0.0164084
0.0160349
0.0156059
0.0151144
0.0145679
0.0139629
0.0132795
0.0124948
0.0115847
0.0105114
0.00924302
0.00774849
0.00600542
0.00400823
0.00174744
-0.000782663
-0.00357328
-0.00660223
-0.00983807
-0.0132481
-0.016838
-0.0206929
-0.0248934
-0.0295078
-0.0346995
-0.0407794
-0.0476378
-0.0552024
-0.0656508
-0.0778774
-0.0846769
0.0205652
0.0205878
0.0206012
0.0206097
0.0206073
0.0205982
0.0205786
0.0205518
0.0205142
0.0204704
0.0204153
0.0203548
0.0202814
0.0202035
0.0201109
0.0200129
0.0198978
0.0197768
0.019637
0.0194882
0.0193193
0.0191398
0.0189375
0.0187222
0.0184822
0.0182225
0.0179358
0.0176252
0.0172893
0.0169245
0.0165191
0.0160542
0.0155209
0.0149255
0.0142644
0.0135141
0.0126532
0.0116536
0.0104786
0.00909321
0.00746551
0.00556932
0.00339882
0.000940814
-0.0018115
-0.00485254
-0.00815994
-0.0117032
-0.0154425
-0.0193842
-0.0236002
-0.0282087
-0.033239
-0.0388456
-0.0453409
-0.0525941
-0.0605417
-0.0713708
-0.0839141
-0.0910564
0.0213561
0.0213844
0.021404
0.0214173
0.0214188
0.0214122
0.0213928
0.0213654
0.0213249
0.021278
0.0212179
0.0211527
0.0210731
0.0209895
0.0208899
0.0207852
0.0206622
0.0205333
0.0203844
0.0202263
0.0200466
0.0198558
0.0196407
0.0194115
0.0191562
0.0188795
0.0185744
0.018243
0.0178839
0.0174924
0.0170572
0.0165577
0.0159838
0.0153424
0.0146255
0.0138112
0.0128738
0.0117858
0.0105072
0.00900292
0.00723733
0.00518333
0.00283184
0.000168853
-0.00281673
-0.00611882
-0.00971921
-0.0135828
-0.0176684
-0.0219773
-0.0265724
-0.0315947
-0.0370503
-0.0430804
-0.0499971
-0.0576456
-0.0659692
-0.0771685
-0.0900161
-0.0974992
0.0222581
0.0222833
0.0222975
0.022306
0.0223021
0.0222907
0.0222673
0.0222358
0.0221923
0.0221415
0.0220784
0.0220086
0.0219249
0.0218353
0.0217296
0.021617
0.021486
0.0213474
0.0211884
0.0210189
0.0208273
0.0206235
0.0203947
0.0201508
0.0198798
0.0195862
0.0192626
0.018911
0.0185293
0.0181128
0.0176485
0.0171159
0.0165042
0.0158177
0.0150479
0.0141705
0.0131576
0.011981
0.0105984
0.00897388
0.00706857
0.00485381
0.00231782
-0.000555261
-0.00377945
-0.00734995
-0.0112496
-0.0154427
-0.019882
-0.0245696
-0.0295493
-0.0349998
-0.0408908
-0.0473514
-0.0546935
-0.0627393
-0.0714413
-0.0830124
-0.0961659
-0.104007
0.0232072
0.0232339
0.0232498
0.0232585
0.0232538
0.0232404
0.0232131
0.0231772
0.0231274
0.0230707
0.0230001
0.0229234
0.0228314
0.0227343
0.0226199
0.0224989
0.0223582
0.02221
0.0220401
0.0218594
0.0216555
0.0214387
0.021196
0.0209374
0.0206509
0.0203406
0.0199993
0.0196282
0.0192252
0.0187844
0.018293
0.0177291
0.017081
0.0163517
0.0155312
0.0145916
0.013505
0.0122397
0.0107529
0.00900542
0.00695742
0.00457646
0.00184986
-0.00124176
-0.00471412
-0.0085642
-0.0127762
-0.0173124
-0.0221224
-0.0272052
-0.0325887
-0.0384721
-0.0448071
-0.0517067
-0.0594798
-0.0679219
-0.0769937
-0.0889235
-0.10237
-0.110565
0.0242149
0.024242
0.024257
0.0242649
0.024259
0.0242439
0.0242151
0.0241765
0.0241239
0.0240626
0.0239867
0.023903
0.0238031
0.0236965
0.0235717
0.0234391
0.0232863
0.0231252
0.0229422
0.0227478
0.0225301
0.0222993
0.0220422
0.0217688
0.0214672
0.021141
0.0207827
0.0203934
0.0199701
0.0195069
0.0189898
0.0183963
0.0177139
0.0169439
0.0160739
0.0150742
0.0139146
0.0125615
0.0109699
0.00909899
0.00690626
0.00435672
0.00143548
-0.00187946
-0.00560608
-0.00974285
-0.0142747
-0.0191629
-0.0243534
-0.029843
-0.0356401
-0.0419687
-0.0487548
-0.0560979
-0.0643031
-0.0731412
-0.0825842
-0.094874
-0.108615
-0.117178
0.0253284
0.0253596
0.0253782
0.0253864
0.0253788
0.0253588
0.0253222
0.0252739
0.0252089
0.0251348
0.0250438
0.0249458
0.0248299
0.0247087
0.0245682
0.0244215
0.0242536
0.0240789
0.0238817
0.0236739
0.0234425
0.0231983
0.0229276
0.0226405
0.022325
0.021984
0.0216106
0.0212044
0.020763
0.020279
0.0197381
0.0191171
0.0184018
0.0175933
0.0166755
0.0156174
0.0143861
0.0129458
0.0112489
0.00925287
0.00691219
0.0041892
0.00106693
-0.00247942
-0.00646996
-0.0109045
-0.015769
-0.0210231
-0.0266105
-0.0325238
-0.0387535
-0.0455324
-0.0527775
-0.0605718
-0.0692132
-0.0784444
-0.0882478
-0.100882
-0.114904
-0.123831
0.0266079
0.0266184
0.0266082
0.0265873
0.0265491
0.026502
0.0264404
0.0263711
0.0262879
0.0261985
0.0260942
0.0259846
0.0258579
0.0257262
0.0255756
0.025418
0.0252397
0.0250537
0.0248455
0.0246261
0.0243834
0.0241276
0.0238455
0.0235468
0.0232197
0.0228665
0.02248
0.0220598
0.0216021
0.0211
0.0205375
0.0198909
0.0191456
0.0182995
0.0173359
0.0162204
0.0149183
0.0133913
0.0115894
0.00946741
0.00697693
0.00407756
0.000750011
-0.00303313
-0.00729417
-0.012034
-0.0172394
-0.0228688
-0.0288635
-0.0352123
-0.0418852
-0.0491255
-0.0568344
-0.0650818
-0.0741575
-0.0837792
-0.0939429
-0.106923
-0.121224
-0.130526
0.0273148
0.0273564
0.0273874
0.0274072
0.0274101
0.0273982
0.0273672
0.0273216
0.0272563
0.0271794
0.027083
0.0269776
0.0268522
0.0267196
0.0265662
0.0264048
0.0262213
0.0260298
0.0258153
0.0255895
0.02534
0.0250772
0.024788
0.0244818
0.024147
0.0237852
0.0233894
0.0229582
0.022488
0.0219703
0.0213891
0.0207196
0.0199454
0.0190642
0.0180558
0.0168839
0.0155118
0.0138985
0.0119908
0.00974097
0.0070973
0.00401643
0.000476898
-0.00355141
-0.00809278
-0.0131492
-0.0187082
-0.0247266
-0.0311439
-0.0379442
-0.0450774
-0.0527856
-0.0609657
-0.069673
-0.0791851
-0.0891924
-0.0997034
-0.113012
-0.127579
-0.13725
0.0284982
0.0285159
0.0285139
0.0285011
0.0284708
0.0284313
0.0283765
0.0283139
0.0282359
0.0281516
0.0280507
0.027944
0.0278183
0.0276867
0.0275342
0.0273739
0.0271909
0.0269996
0.0267847
0.026558
0.0263072
0.0260428
0.0257516
0.0254431
0.0251054
0.0247397
0.0243389
0.023901
0.0234218
0.0228923
0.0222953
0.0216053
0.0208051
0.0198895
0.0188369
0.0176089
0.0161669
0.0144672
0.0124532
0.0100743
0.00727499
0.00400893
0.000252457
-0.00402716
-0.00885612
-0.0142374
-0.0201587
-0.0265758
-0.0334258
-0.0406886
-0.0482924
-0.0564784
-0.0651337
-0.0743007
-0.0842448
-0.094633
-0.10549
-0.119128
-0.133956
-0.144005
0.0290854
0.0291348
0.0291749
0.0292044
0.0292173
0.0292155
0.0291946
0.0291592
0.0291039
0.0290374
0.0289512
0.0288563
0.0287408
0.028618
0.0284735
0.0283205
0.028144
0.0279591
0.0277499
0.0275287
0.027283
0.0270232
0.0267361
0.0264309
0.0260959
0.0257315
0.0253307
0.0248906
0.0244069
0.0238692
0.0232599
0.0225522
0.0217271
0.0207786
0.0196823
0.0183982
0.016886
0.015099
0.0129773
0.0104669
0.00750785
0.0040508
7.00332e-05
-0.00446975
-0.00959657
-0.0153143
-0.0216104
-0.0284396
-0.0357362
-0.0434753
-0.0515642
-0.0602363
-0.0693744
-0.0790069
-0.0893838
-0.100146
-0.111335
-0.125283
-0.140359
-0.15078
0.0301377
0.0301595
0.0301641
0.0301599
0.0301406
0.030114
0.030074
0.0300276
0.029967
0.0299014
0.0298196
0.0297332
0.0296275
0.0295168
0.0293844
0.0292445
0.0290809
0.028909
0.0287124
0.0285035
0.0282695
0.0280209
0.0277442
0.0274486
0.027122
0.0267645
0.0263688
0.0259315
0.0254472
0.0249056
0.0242871
0.0235642
0.0227166
0.0217359
0.0205958
0.0192551
0.0176718
0.0157962
0.0135651
0.0109208
0.00779846
0.00414561
-6.53715e-05
-0.00487235
-0.010305
-0.0163679
-0.0230482
-0.030299
-0.0380516
-0.0462773
-0.0548602
-0.0640268
-0.0736508
-0.0837473
-0.0945507
-0.105681
-0.117199
-0.131457
-0.146777
-0.157576
0.0304727
0.0305288
0.0305814
0.0306287
0.0306641
0.030689
0.0306981
0.0306955
0.0306749
0.0306447
0.0305954
0.030538
0.0304596
0.0303739
0.0302654
0.0301481
0.030006
0.0298549
0.0296782
0.0294885
0.0292729
0.0290419
0.0287819
0.0285017
0.0281894
0.0278442
0.0274587
0.0270286
0.0265487
0.0260064
0.0253823
0.0246469
0.0237783
0.0227661
0.0215826
0.0201846
0.0185288
0.0165627
0.0142196
0.0114376
0.00814644
0.00429098
-0.000158395
-0.00524206
-0.0109914
-0.0174112
-0.0244883
-0.0321733
-0.0403948
-0.0491184
-0.0582078
-0.0678775
-0.077995
-0.0885609
-0.0997911
-0.11128
-0.123112
-0.137663
-0.153212
-0.164389
0.0312668
0.031315
0.031358
0.0313978
0.0314278
0.0314519
0.0314638
0.0314684
0.031458
0.0314412
0.0314073
0.0313678
0.031308
0.0312429
0.0311555
0.0310605
0.0309413
0.0308137
0.0306609
0.0304949
0.030303
0.0300949
0.0298571
0.029598
0.0293053
0.0289776
0.0286072
0.0281891
0.027717
0.0271784
0.0265514
0.025806
0.024918
0.0238758
0.0226482
0.0211918
0.0194616
0.0174023
0.014944
0.0120205
0.0085555
0.00449138
-0.000203345
-0.00557165
-0.0116463
-0.0184325
-0.0259159
-0.0340449
-0.0427439
-0.0519751
-0.0615788
-0.071758
-0.082372
-0.0934051
-0.105055
-0.116896
-0.12904
-0.143883
-0.159656
-0.171218
0.0320475
0.032093
0.0321331
0.0321708
0.0321987
0.0322226
0.0322352
0.0322438
0.0322397
0.0322336
0.0322135
0.0321914
0.0321525
0.0321108
0.0320491
0.0319813
0.0318905
0.0317919
0.0316683
0.0315317
0.0313688
0.0311891
0.0309789
0.030746
0.030478
0.0301726
0.029822
0.0294199
0.02896
0.0284277
0.0278012
0.027048
0.0261426
0.02507
0.0237988
0.0222828
0.020476
0.0183201
0.0157427
0.0126726
0.00902707
0.00474644
-0.0002027
-0.00586584
-0.0122772
-0.0194418
-0.0273441
-0.0359294
-0.0451177
-0.0548662
-0.0649948
-0.0756923
-0.0868103
-0.0983159
-0.110385
-0.122569
-0.135008
-0.150127
-0.166112
-0.178061
0.0327249
0.0327764
0.0328255
0.0328737
0.0329161
0.0329556
0.0329872
0.0330148
0.0330319
0.0330467
0.0330486
0.0330492
0.0330336
0.0330166
0.0329807
0.0329404
0.0328786
0.0328105
0.0327186
0.0326142
0.032484
0.0323368
0.0321584
0.0319562
0.0317173
0.0314385
0.0311115
0.0307295
0.0302847
0.0297625
0.0291384
0.0283796
0.0274576
0.0263564
0.0250403
0.0234632
0.0215772
0.0193212
0.0166203
0.0133982
0.00956568
0.00506132
-0.000150215
-0.00611707
-0.0128745
-0.0204276
-0.0287588
-0.0378104
-0.047496
-0.0577711
-0.0684312
-0.079652
-0.0912761
-0.103252
-0.115732
-0.128252
-0.140983
-0.156378
-0.172573
-0.184918
0.0333369
0.0334014
0.0334657
0.0335314
0.0335919
0.0336516
0.0337038
0.0337547
0.0337963
0.0338382
0.0338693
0.0339009
0.0339183
0.0339356
0.0339352
0.0339311
0.0339061
0.0338752
0.0338205
0.0337535
0.0336605
0.03355
0.0334075
0.0332399
0.0330338
0.0327852
0.0324855
0.0321265
0.0317002
0.0311898
0.0305709
0.0298077
0.0288708
0.0277398
0.0263791
0.0247394
0.0227716
0.0204116
0.0175819
0.0142014
0.0101741
0.0054372
-4.65906e-05
-0.00632814
-0.0134435
-0.0213978
-0.0301704
-0.0397004
-0.0498944
-0.0607048
-0.0719056
-0.0836583
-0.0957957
-0.108246
-0.121137
-0.133983
-0.14699
-0.162647
-0.179044
-0.19179
0.0339799
0.0340599
0.0341424
0.0342277
0.0343113
0.0343953
0.0344752
0.0345541
0.034626
0.0346981
0.0347608
0.0348244
0.0348748
0.0349258
0.0349603
0.034992
0.0350042
0.0350112
0.0349957
0.0349679
0.0349147
0.0348435
0.0347399
0.0346099
0.0344396
0.0342242
0.0339542
0.033621
0.0332148
0.0327188
0.0321058
0.0313397
0.0303875
0.0292285
0.0278212
0.0261171
0.0240643
0.0215959
0.0186322
0.0150867
0.0108569
0.0058794
0.000114173
-0.00649154
-0.0139756
-0.0223414
-0.0315667
-0.0415844
-0.0522952
-0.0636475
-0.0753961
-0.0876851
-0.100338
-0.113261
-0.126553
-0.139716
-0.152999
-0.168919
-0.185517
-0.198673
0.0346548
0.0347543
0.0348584
0.0349675
0.035075
0.035185
0.0352909
0.0353982
0.0354992
0.0356034
0.0356996
0.0357991
0.035887
0.0359773
0.0360523
0.0361255
0.0361798
0.0362296
0.0362568
0.0362721
0.0362616
0.0362325
0.0361702
0.0360799
0.0359476
0.0357671
0.035529
0.0352227
0.0348386
0.0343574
0.0337517
0.0329827
0.0320163
0.0308267
0.0293729
0.0276021
0.0254611
0.0228797
0.0197762
0.0160583
0.0116177
0.00638982
0.000332865
-0.00660918
-0.0144739
-0.023265
-0.0329551
-0.0434738
-0.0547102
-0.0666136
-0.0789174
-0.0917518
-0.104927
-0.118326
-0.132018
-0.145489
-0.159032
-0.175203
-0.192
-0.205573
0.0354128
0.0355324
0.0356596
0.0357938
0.0359304
0.0360709
0.0362106
0.036352
0.0364889
0.0366287
0.0367615
0.0368976
0.0370226
0.0371504
0.0372638
0.0373761
0.0374708
0.0375617