/*--------------------------------*- C++ -*----------------------------------*\
  =========                 |
  \\      /  F ield         | OpenFOAM: The Open Source CFD Toolbox
   \\    /   O peration     | Website:  https://openfoam.org
    \\  /    A nd           | Version:  6.0
     \\/     M anipulation  |
\*---------------------------------------------------------------------------*/
FoamFile
{
    version     2.0;
    format      ascii;
    class       volVectorField;
    location    "11";
    object      U;
}
// * * * * * * * * * * * * * * * * * * * * * * * * * * * * * * * * * * * * * //

dimensions      [0 1 -1 0 0 0 0];

internalField   nonuniform List<vector> 
62000
(
(0.965478 0.25938 -3.01963e-21)
(0.965448 0.259295 2.55358e-21)
(0.965428 0.25925 2.59912e-21)
(0.96542 0.259195 -1.14447e-20)
(0.965424 0.259134 -1.30426e-20)
(0.96544 0.25907 4.59262e-20)
(0.965465 0.259003 -5.08742e-20)
(0.965498 0.258934 2.99547e-20)
(0.965537 0.258864 -1.4091e-20)
(0.96558 0.258797 -7.25819e-20)
(0.965624 0.258732 -8.8477e-21)
(0.965668 0.258671 1.04646e-19)
(0.96571 0.258616 2.14148e-20)
(0.965749 0.258568 -7.63655e-20)
(0.965783 0.258528 1.20673e-19)
(0.965814 0.258496 -6.51779e-20)
(0.96584 0.258473 6.7958e-20)
(0.965862 0.258458 -8.11657e-20)
(0.96588 0.25845 4.03658e-20)
(0.965894 0.25845 -1.26387e-19)
(0.965905 0.258456 1.6753e-19)
(0.965914 0.258469 4.98403e-20)
(0.965921 0.258487 7.27491e-20)
(0.965926 0.258509 -3.36973e-19)
(0.965928 0.258536 1.25275e-19)
(0.965931 0.258567 -7.81921e-20)
(0.965931 0.2586 -6.82516e-22)
(0.965931 0.258638 -6.49556e-20)
(0.965928 0.258677 2.05435e-19)
(0.965927 0.258717 -1.17011e-19)
(0.965923 0.258756 2.85883e-19)
(0.965919 0.258798 -6.00194e-19)
(0.965912 0.258846 5.67291e-20)
(0.9659 0.258909 -2.13636e-19)
(0.965885 0.258976 -7.29579e-20)
(0.965868 0.259039 -2.35708e-19)
(0.96585 0.259099 -8.17164e-20)
(0.965828 0.259163 -9.04717e-20)
(0.965798 0.259242 2.42132e-19)
(0.965755 0.259338 1.20401e-18)
(0.965694 0.259449 -3.04118e-19)
(0.965611 0.259569 -1.84974e-18)
(0.9655 0.259685 -3.15692e-18)
(0.965355 0.259775 1.85143e-18)
(0.965173 0.259808 5.74458e-19)
(0.96495 0.259744 -3.10818e-18)
(0.964692 0.259535 8.51852e-19)
(0.964402 0.259145 -1.45604e-18)
(0.96409 0.258551 -7.3137e-18)
(0.963759 0.257767 -1.70994e-18)
(0.963398 0.256833 -8.97523e-19)
(0.962991 0.255777 -1.23467e-17)
(0.962489 0.254584 1.37173e-18)
(0.961856 0.253087 1.46368e-17)
(0.961099 0.25099 4.10684e-18)
(0.960295 0.247846 1.4358e-17)
(0.959684 0.243117 -1.94859e-18)
(0.959392 0.23646 -3.45706e-18)
(0.960129 0.224403 7.31686e-18)
(0.931301 0.194267 1.47144e-18)
(0.965442 0.262131 -8.01802e-22)
(0.965328 0.261976 7.71644e-21)
(0.965211 0.261878 3.15343e-21)
(0.965093 0.261796 -1.39648e-20)
(0.964984 0.261706 5.83169e-21)
(0.964889 0.261617 -4.03718e-20)
(0.964815 0.261522 3.75596e-20)
(0.964765 0.261419 2.17363e-20)
(0.964741 0.261307 -4.12108e-20)
(0.964742 0.261186 1.94737e-21)
(0.964768 0.261055 4.07243e-20)
(0.964815 0.260915 -5.4295e-23)
(0.96488 0.260768 1.18313e-20)
(0.964958 0.260617 -1.0392e-19)
(0.965046 0.260465 2.11283e-19)
(0.965139 0.260314 -1.89552e-19)
(0.965234 0.260167 9.00523e-20)
(0.965327 0.260028 -1.92723e-20)
(0.965416 0.259896 -5.31372e-20)
(0.965499 0.259776 1.48647e-19)
(0.965574 0.259667 -2.38314e-19)
(0.965643 0.259572 1.40592e-19)
(0.965703 0.25949 -1.81169e-19)
(0.965755 0.259423 1.09753e-19)
(0.9658 0.25937 1.03268e-19)
(0.965838 0.259334 -6.89521e-20)
(0.965868 0.259313 -6.04354e-22)
(0.965894 0.25931 7.89707e-20)
(0.965912 0.259324 6.75942e-20)
(0.965926 0.259359 -1.43508e-19)
(0.965933 0.259411 2.95509e-19)
(0.965933 0.259484 6.32348e-20)
(0.965921 0.259588 1.96622e-19)
(0.965894 0.259727 1.87279e-20)
(0.965854 0.259898 6.16139e-20)
(0.9658 0.260095 -6.60362e-20)
(0.965728 0.260317 -2.21773e-19)
(0.965637 0.260571 -1.0367e-19)
(0.96552 0.260853 -6.52669e-19)
(0.965369 0.261149 -7.97177e-19)
(0.965177 0.261435 6.33926e-19)
(0.964942 0.261675 4.03426e-19)
(0.964663 0.261819 3.28298e-18)
(0.964344 0.261806 2.13931e-19)
(0.963994 0.261569 -5.89733e-18)
(0.963626 0.261048 2.54984e-18)
(0.963259 0.26021 2.34382e-18)
(0.962903 0.259074 2.91376e-18)
(0.962561 0.257725 6.95129e-19)
(0.962198 0.256296 1.47254e-19)
(0.961741 0.254921 5.52843e-18)
(0.961085 0.253626 1.52703e-17)
(0.960104 0.252197 -1.04602e-17)
(0.958774 0.250139 -2.56083e-17)
(0.957158 0.246692 -6.34651e-18)
(0.955516 0.241076 -5.04856e-18)
(0.954366 0.23226 -1.1208e-17)
(0.953491 0.220524 -6.07499e-18)
(0.955854 0.200099 9.79808e-18)
(0.917772 0.15755 3.99218e-18)
(0.965982 0.261957 -3.92907e-21)
(0.966012 0.261919 -5.40977e-22)
(0.965998 0.261888 6.46733e-22)
(0.965934 0.261907 2.87119e-21)
(0.965829 0.261933 8.12224e-21)
(0.965692 0.261976 -7.80993e-21)
(0.965534 0.262031 4.1631e-20)
(0.965368 0.262093 -2.03469e-20)
(0.965205 0.262158 -1.09803e-20)
(0.965054 0.26222 -6.69369e-20)
(0.964925 0.262275 5.73147e-20)
(0.964823 0.262316 4.19494e-21)
(0.964751 0.262343 -1.32181e-20)
(0.964711 0.262351 3.54139e-20)
(0.964701 0.262339 -6.12358e-20)
(0.96472 0.262308 5.91202e-22)
(0.964763 0.262258 -2.84447e-20)
(0.964825 0.262191 8.80664e-22)
(0.964903 0.262108 6.81957e-20)
(0.96499 0.262014 -1.04926e-19)
(0.965083 0.26191 6.64442e-20)
(0.965177 0.261802 2.61168e-19)
(0.96527 0.261691 -3.60416e-20)
(0.965359 0.261581 -3.74959e-19)
(0.965442 0.261477 1.96141e-19)
(0.965517 0.261381 -1.07677e-19)
(0.965585 0.261295 1.78836e-19)
(0.965643 0.261226 -1.10683e-19)
(0.965693 0.261174 -2.24768e-19)
(0.965736 0.261145 2.43035e-19)
(0.965768 0.261138 -1.76444e-19)
(0.965789 0.261159 2.43952e-19)
(0.965793 0.261217 -6.93622e-19)
(0.965775 0.261318 6.39919e-19)
(0.965736 0.261462 -3.536e-19)
(0.965674 0.261642 1.48423e-19)
(0.965588 0.261859 1.13824e-19)
(0.965471 0.262119 -1.8544e-20)
(0.96532 0.262386 -4.71653e-20)
(0.96513 0.262639 7.92922e-19)
(0.964898 0.262842 -3.41138e-19)
(0.964627 0.262945 5.58367e-19)
(0.964322 0.262888 -2.10756e-18)
(0.963997 0.262603 -1.11715e-18)
(0.963673 0.262028 1.33626e-18)
(0.963374 0.261133 -4.82491e-18)
(0.963129 0.259933 7.00912e-19)
(0.96295 0.258529 -4.87384e-18)
(0.962831 0.257105 7.19748e-18)
(0.962719 0.255881 1.93449e-18)
(0.962515 0.255055 1.04505e-18)
(0.962089 0.254657 -3.2367e-19)
(0.961305 0.254389 4.35442e-18)
(0.960164 0.253652 9.42282e-19)
(0.958749 0.251532 -8.72501e-18)
(0.957301 0.247219 -5.50625e-18)
(0.956393 0.239572 -3.1405e-18)
(0.954901 0.22951 -1.27373e-17)
(0.958158 0.212791 -1.61906e-18)
(0.929972 0.183731 1.20531e-18)
(0.966092 0.262126 -3.91638e-21)
(0.966364 0.262114 1.20672e-20)
(0.966592 0.262084 -1.90829e-21)
(0.966761 0.262096 -1.2557e-20)
(0.966861 0.262121 1.89769e-20)
(0.966891 0.262169 3.2658e-20)
(0.96685 0.262243 -4.33079e-20)
(0.966746 0.26234 4.66456e-21)
(0.966589 0.262459 1.49576e-20)
(0.96639 0.262597 3.10726e-20)
(0.966165 0.262749 -5.86316e-20)
(0.965929 0.262908 -1.78205e-20)
(0.965694 0.263069 -1.9906e-20)
(0.965473 0.263225 9.27911e-20)
(0.965275 0.26337 -6.24997e-20)
(0.965108 0.263499 1.46043e-19)
(0.964976 0.263607 -1.78906e-19)
(0.964879 0.263692 -2.57061e-20)
(0.964818 0.26375 1.90611e-19)
(0.96479 0.263782 -6.75182e-20)
(0.964792 0.263787 -2.48079e-20)
(0.964817 0.263768 -2.67549e-20)
(0.964863 0.263727 -2.44927e-19)
(0.964923 0.263668 1.43991e-19)
(0.964993 0.263594 -6.50224e-20)
(0.965068 0.263511 1.07724e-19)
(0.965145 0.263423 5.06184e-20)
(0.965221 0.263335 2.55736e-19)
(0.965294 0.263251 -1.63053e-19)
(0.965363 0.263179 -2.17633e-19)
(0.965425 0.26312 3.48969e-19)
(0.965476 0.26308 -2.91912e-19)
(0.965508 0.263071 5.54934e-19)
(0.965517 0.263096 -3.49061e-19)
(0.965499 0.263156 1.4495e-19)
(0.965454 0.263246 2.61769e-19)
(0.965382 0.263365 -1.17297e-19)
(0.965264 0.263519 1.6178e-19)
(0.965105 0.263646 -7.04932e-20)
(0.964904 0.26373 2.46428e-19)
(0.964658 0.263731 -7.0891e-19)
(0.96437 0.263598 2.06473e-19)
(0.964047 0.263272 4.86316e-19)
(0.963701 0.262695 1.26361e-18)
(0.963353 0.261819 1.82549e-18)
(0.963026 0.260638 4.72435e-19)
(0.962749 0.2592 3.35208e-18)
(0.96253 0.257644 3.9168e-18)
(0.962366 0.2562 4.91013e-18)
(0.962211 0.255112 -3.69057e-18)
(0.961987 0.25459 -4.98156e-18)
(0.96159 0.254665 3.45041e-18)
(0.960934 0.255021 4.69279e-18)
(0.960058 0.255054 1.04217e-17)
(0.959053 0.253828 6.69351e-18)
(0.95807 0.250546 1.12951e-17)
(0.957712 0.244013 2.09122e-17)
(0.955929 0.235272 -8.1297e-19)
(0.959672 0.221887 -1.17691e-17)
(0.938764 0.198588 -8.85845e-18)
(0.965418 0.264923 7.31338e-21)
(0.965758 0.26483 -2.5287e-21)
(0.966109 0.264732 4.02936e-21)
(0.966451 0.264642 -5.87202e-21)
(0.966763 0.264551 1.2878e-20)
(0.967027 0.264467 -6.55964e-21)
(0.967226 0.264398 3.3464e-21)
(0.967349 0.264347 -5.15527e-20)
(0.967391 0.26432 4.35656e-20)
(0.967352 0.26432 -8.65777e-20)
(0.967239 0.264346 9.62743e-20)
(0.967062 0.264398 -1.16354e-20)
(0.966834 0.264474 -2.56928e-20)
(0.96657 0.264569 -1.18657e-20)
(0.966288 0.264678 -2.39318e-21)
(0.966003 0.264794 -1.21186e-19)
(0.965728 0.264911 6.25102e-21)
(0.965475 0.265024 1.35373e-19)
(0.965253 0.265125 -4.39521e-20)
(0.965066 0.265211 -4.68997e-20)
(0.964919 0.265276 8.04746e-20)
(0.964811 0.265319 -4.00718e-20)
(0.964741 0.265339 1.69871e-19)
(0.964705 0.265335 9.35963e-20)
(0.964699 0.265309 7.19977e-20)
(0.964718 0.265266 -2.29737e-19)
(0.964756 0.265205 -3.25287e-20)
(0.96481 0.265132 -1.84462e-19)
(0.964874 0.265051 3.54628e-20)
(0.964946 0.264967 -6.45766e-20)
(0.965019 0.264885 -2.4873e-20)
(0.965089 0.264813 2.14872e-19)
(0.965144 0.264759 -5.50838e-19)
(0.965176 0.264729 -2.34054e-20)
(0.965181 0.26472 -3.00737e-19)
(0.965157 0.264724 -1.52238e-19)
(0.965103 0.264742 5.2639e-20)
(0.964986 0.264778 -5.2256e-19)
(0.964812 0.26476 8.21052e-19)
(0.964588 0.264678 1.23552e-19)
(0.964306 0.264493 9.51995e-19)
(0.963966 0.264156 -7.40594e-19)
(0.963567 0.263614 -5.2166e-19)
(0.963116 0.262813 -2.27244e-19)
(0.962625 0.261714 1.35699e-18)
(0.962106 0.260316 2.12598e-18)
(0.961579 0.258672 5.85999e-19)
(0.961051 0.256919 1.08637e-18)
(0.960522 0.255276 -1.57119e-18)
(0.959968 0.25396 9.64282e-18)
(0.959348 0.253151 2.55236e-18)
(0.958622 0.252861 -2.31441e-18)
(0.957778 0.252775 1.56515e-18)
(0.956918 0.252319 8.8327e-18)
(0.956177 0.250609 -9.41826e-19)
(0.955629 0.246877 -8.69442e-18)
(0.955972 0.239957 -2.16481e-17)
(0.954453 0.230714 1.96925e-17)
(0.958528 0.217896 -1.17698e-17)
(0.941504 0.192721 1.01055e-17)
(0.964297 0.269237 -2.62348e-21)
(0.964507 0.269084 1.05617e-20)
(0.964779 0.268938 -1.73657e-20)
(0.965104 0.268775 1.29654e-20)
(0.965464 0.268593 8.22548e-21)
(0.965838 0.268394 -8.92941e-21)
(0.966201 0.268188 7.11974e-22)
(0.966532 0.267978 -6.62204e-21)
(0.966811 0.267773 -2.22579e-20)
(0.96702 0.267579 4.30994e-20)
(0.967151 0.267402 -6.69601e-20)
(0.967197 0.267247 5.92777e-20)
(0.967161 0.267118 5.22559e-20)
(0.967049 0.267016 -8.17318e-20)
(0.966873 0.266942 -2.67702e-20)
(0.966648 0.266894 1.02213e-19)
(0.966387 0.266868 -1.2498e-19)
(0.966109 0.26686 1.74636e-19)
(0.965829 0.266865 -3.36813e-20)
(0.96556 0.266876 1.91112e-20)
(0.965313 0.266889 -3.16598e-20)
(0.965096 0.266897 -4.01048e-20)
(0.964915 0.266897 -7.70062e-20)
(0.964772 0.266886 1.33366e-19)
(0.964668 0.26686 -9.28616e-20)
(0.9646 0.266821 -9.24892e-20)
(0.964566 0.266766 1.93103e-19)
(0.964561 0.266698 -1.86332e-19)
(0.964581 0.266617 3.06654e-19)
(0.964621 0.266527 -1.65095e-19)
(0.964675 0.266432 1.30983e-19)
(0.964734 0.26634 -2.22289e-19)
(0.964786 0.266261 2.50059e-19)
(0.964822 0.266198 -1.85139e-20)
(0.964833 0.266144 -1.19496e-20)
(0.964817 0.266087 -4.1041e-21)
(0.964769 0.266029 -1.47336e-19)
(0.964643 0.265974 4.63089e-19)
(0.964443 0.265849 -3.6491e-19)
(0.964183 0.265651 -2.1329e-18)
(0.963851 0.265345 -9.3092e-19)
(0.963443 0.264885 7.08122e-19)
(0.962949 0.264221 -7.95261e-19)
(0.962369 0.263306 -1.00074e-18)
(0.9617 0.262098 -9.93934e-20)
(0.960946 0.260594 2.88258e-18)
(0.960115 0.258831 -4.61051e-18)
(0.959208 0.256918 -5.08419e-18)
(0.958229 0.255036 -3.68039e-18)
(0.957174 0.253347 -6.60736e-18)
(0.956047 0.251979 4.62436e-18)
(0.954869 0.25091 -1.74938e-18)
(0.953715 0.249837 -1.51469e-17)
(0.952755 0.248238 3.40056e-18)
(0.952185 0.24533 4.20225e-18)
(0.95204 0.240431 -8.75366e-18)
(0.953137 0.232527 5.54019e-18)
(0.95228 0.222294 5.97872e-18)
(0.956508 0.209311 1.91076e-17)
(0.943253 0.182919 -2.19517e-19)
(0.96323 0.273472 2.90094e-21)
(0.963233 0.273319 -1.30295e-20)
(0.963316 0.273175 6.45311e-21)
(0.963481 0.273007 1.17026e-20)
(0.963724 0.272809 -2.49967e-20)
(0.964035 0.272581 2.1001e-20)
(0.964395 0.272326 -1.3845e-20)
(0.964784 0.272048 1.1809e-20)
(0.96518 0.271751 1.85277e-20)
(0.965557 0.271441 -4.50696e-20)
(0.965895 0.271127 6.51116e-20)
(0.966175 0.270814 2.72461e-20)
(0.966382 0.27051 -1.11228e-19)
(0.96651 0.270222 -2.03482e-20)
(0.966556 0.269956 6.0231e-20)
(0.966526 0.269714 3.90085e-20)
(0.966426 0.269499 -4.7814e-20)
(0.966269 0.269311 4.29709e-20)
(0.966071 0.269149 6.67754e-20)
(0.965845 0.26901 -3.30782e-20)
(0.965608 0.268889 -1.93174e-20)
(0.965373 0.268784 6.98994e-20)
(0.965152 0.268688 1.46965e-19)
(0.964953 0.268599 -1.07801e-19)
(0.964783 0.26851 -1.22383e-19)
(0.964646 0.268423 1.38022e-19)
(0.964543 0.26833 -1.08282e-19)
(0.964472 0.268232 -4.70071e-20)
(0.964433 0.268125 3.83416e-19)
(0.964421 0.26801 -1.70173e-19)
(0.964429 0.26789 -1.379e-19)
(0.964451 0.267775 1.86002e-19)
(0.964474 0.267673 1.32462e-19)
(0.964488 0.267585 -1.16433e-19)
(0.964484 0.267498 -8.42842e-20)
(0.964456 0.2674 2.87205e-19)
(0.964397 0.267289 7.6621e-20)
(0.964251 0.267171 9.83628e-20)
(0.964019 0.266982 -5.66015e-19)
(0.963723 0.266722 -5.57804e-19)
(0.96335 0.266362 1.14142e-18)
(0.962889 0.265859 9.7456e-19)
(0.962328 0.26517 1.77061e-18)
(0.961656 0.264249 -1.64383e-18)
(0.960864 0.263055 -1.96873e-18)
(0.959943 0.261575 -1.53291e-18)
(0.958893 0.259826 4.04583e-18)
(0.957707 0.257879 4.24807e-18)
(0.956392 0.255865 -5.22403e-18)
(0.95496 0.253885 -8.08704e-18)
(0.953446 0.25201 -1.74078e-18)
(0.951928 0.250184 1.83182e-18)
(0.950548 0.24812 2.07408e-19)
(0.949535 0.245364 -5.67993e-18)
(0.949137 0.241262 5.11799e-18)
(0.949369 0.235255 2.99154e-18)
(0.951151 0.226573 4.44742e-18)
(0.951063 0.215799 -1.78457e-17)
(0.955232 0.203174 -1.24339e-18)
(0.946774 0.178649 -5.50462e-20)
(0.962501 0.276937 -4.61043e-21)
(0.962321 0.276815 -3.57379e-21)
(0.962208 0.276703 5.07052e-21)
(0.962171 0.276572 1.73659e-20)
(0.962222 0.27641 -3.73139e-20)
(0.96236 0.276216 4.25748e-20)
(0.962584 0.275988 -2.21133e-21)
(0.962881 0.275726 -2.86269e-21)
(0.963237 0.27543 -1.51023e-20)
(0.963632 0.275104 3.60183e-20)
(0.964043 0.274751 -5.60296e-20)
(0.964446 0.274377 2.13274e-20)
(0.964819 0.27399 -6.19302e-22)
(0.965144 0.273598 3.33353e-20)
(0.965405 0.273207 1.57844e-20)
(0.965595 0.272826 -8.54862e-20)
(0.965709 0.27246 7.50162e-20)
(0.965749 0.272116 2.98845e-20)
(0.965722 0.271794 -8.75544e-20)
(0.965639 0.271498 4.32188e-20)
(0.965512 0.271227 2.06773e-20)
(0.965354 0.270981 -1.42192e-20)
(0.96518 0.270757 1.81072e-20)
(0.965002 0.270551 -1.06628e-20)
(0.96483 0.270362 -1.22959e-19)
(0.964673 0.270186 8.33675e-20)
(0.964537 0.270019 -1.30543e-19)
(0.964426 0.269857 2.42169e-19)
(0.96434 0.269695 -4.89537e-20)
(0.964279 0.269531 -2.79107e-20)
(0.964239 0.269369 -7.80248e-21)
(0.964213 0.269217 2.90888e-19)
(0.964193 0.269084 -1.17179e-19)
(0.96417 0.268967 -6.76988e-20)
(0.964136 0.268851 2.03517e-19)
(0.964082 0.268719 1.82886e-19)
(0.963997 0.268572 -3.17585e-19)
(0.963825 0.268412 5.74184e-20)
(0.963564 0.268192 6.66475e-19)
(0.96324 0.267913 -2.75843e-20)
(0.962843 0.267549 4.30737e-19)
(0.962358 0.267065 -6.89581e-19)
(0.961771 0.266421 1.02343e-18)
(0.961066 0.265576 2.54894e-18)
(0.96023 0.264488 9.32198e-19)
(0.959245 0.263135 -1.14934e-18)
(0.958104 0.261513 -3.98017e-18)
(0.956795 0.259655 5.94544e-19)
(0.955322 0.257644 1.62974e-18)
(0.95371 0.255525 4.04272e-18)
(0.952013 0.253315 -7.36158e-19)
(0.950348 0.250932 -7.25378e-18)
(0.948904 0.248105 6.56808e-18)
(0.947945 0.244453 -4.62633e-18)
(0.947753 0.239454 9.07895e-18)
(0.948326 0.232684 2.4273e-18)
(0.950649 0.223638 1.04635e-17)
(0.951244 0.212877 1.37733e-17)
(0.955167 0.201174 1.78011e-18)
(0.952053 0.180156 2.04334e-18)
(0.962126 0.279655 -2.13484e-21)
(0.961823 0.279567 1.85115e-21)
(0.961561 0.279491 9.07464e-21)
(0.961353 0.279402 1.40982e-20)
(0.961216 0.279288 -4.22533e-20)
(0.96116 0.279147 2.42631e-20)
(0.961194 0.278974 -4.26317e-20)
(0.961318 0.278767 6.68321e-20)
(0.961529 0.278521 -3.13754e-20)
(0.961818 0.278238 5.45049e-21)
(0.962169 0.277916 5.9072e-20)
(0.962562 0.277558 -1.35296e-19)
(0.962975 0.277169 9.25306e-20)
(0.963387 0.276754 1.27097e-20)
(0.963776 0.27632 2.04999e-20)
(0.964124 0.275876 -8.85508e-20)
(0.964416 0.275428 4.38343e-20)
(0.964644 0.274985 -5.47917e-20)
(0.964805 0.274552 1.08761e-19)
(0.964898 0.274137 -1.4246e-20)
(0.96493 0.273741 -1.41534e-19)
(0.964909 0.273369 5.79659e-20)
(0.964847 0.27302 -3.18597e-21)
(0.964753 0.272696 -2.20466e-19)
(0.964642 0.272395 1.6558e-19)
(0.964522 0.272117 1.27184e-19)
(0.964402 0.271857 8.83696e-20)
(0.96429 0.271613 -1.19084e-19)
(0.964189 0.271376 -1.37152e-19)
(0.964102 0.271147 6.56664e-20)
(0.964028 0.270926 9.52165e-20)
(0.963964 0.270724 -1.25399e-19)
(0.963904 0.270548 -1.91763e-19)
(0.963844 0.270395 4.05384e-19)
(0.963775 0.270246 5.10535e-20)
(0.96369 0.270083 -6.73128e-19)
(0.963576 0.269908 6.50518e-20)
(0.963378 0.269722 4.80816e-19)
(0.963093 0.269494 3.30323e-20)
(0.962752 0.26922 6.72175e-19)
(0.962346 0.268883 -9.9105e-19)
(0.961863 0.268452 -5.72009e-20)
(0.961285 0.267891 -7.21128e-19)
(0.960597 0.267164 1.74823e-19)
(0.959781 0.266226 1.336e-18)
(0.958816 0.265049 4.12171e-18)
(0.95769 0.26361 9.49977e-19)
(0.956389 0.261911 -3.43799e-18)
(0.954915 0.259991 2.659e-18)
(0.953299 0.257845 1.08056e-17)
(0.951606 0.255453 -9.30066e-18)
(0.949973 0.25271 1.18017e-17)
(0.948616 0.249366 -7.80749e-18)
(0.947811 0.245105 -3.63653e-18)
(0.947851 0.239527 -1.80684e-17)
(0.948719 0.232327 -9.32323e-19)
(0.951424 0.223237 -6.16478e-18)
(0.952541 0.212828 -6.26113e-18)
(0.95609 0.202261 2.98492e-18)
(0.958009 0.184791 -9.60304e-19)
(0.961996 0.281784 2.85608e-21)
(0.961627 0.281721 9.48065e-22)
(0.961274 0.281672 -1.02719e-20)
(0.96095 0.281619 9.77242e-21)
(0.960671 0.281547 -4.31686e-21)
(0.960452 0.281455 7.57856e-21)
(0.960308 0.281339 2.46004e-21)
(0.960248 0.281193 -3.75156e-20)
(0.960279 0.281012 1.66062e-20)
(0.960401 0.280793 -1.07483e-20)
(0.96061 0.280534 6.9542e-21)
(0.960896 0.280232 2.57944e-20)
(0.961242 0.27989 -4.89515e-21)
(0.961631 0.279509 1.5527e-20)
(0.962041 0.279095 -6.6055e-20)
(0.962451 0.278651 2.5935e-20)
(0.962841 0.278186 1.14886e-20)
(0.963195 0.277708 -3.06161e-20)
(0.9635 0.277223 6.15078e-20)
(0.963749 0.27674 2.0426e-20)
(0.963936 0.276264 -2.18542e-21)
(0.964065 0.275803 -2.19112e-20)
(0.964139 0.275359 9.25563e-20)
(0.964166 0.274937 -2.5914e-19)
(0.964154 0.274538 1.34779e-19)
(0.964113 0.274165 5.83671e-20)
(0.964051 0.273813 -1.03311e-19)
(0.963977 0.273484 1.86231e-19)
(0.963897 0.273168 -9.1579e-20)
(0.963815 0.272865 -4.99011e-20)
(0.963732 0.272578 -1.05895e-19)
(0.963651 0.272317 -4.14611e-20)
(0.963567 0.272091 1.21254e-19)
(0.96348 0.271895 -3.84529e-19)
(0.963385 0.271709 7.46902e-19)
(0.963274 0.271514 -4.66275e-20)
(0.963134 0.271312 4.30175e-19)
(0.962916 0.271108 -1.10533e-18)
(0.962616 0.270882 -3.65682e-19)
(0.962268 0.270625 -2.25375e-20)
(0.961866 0.270324 -2.51708e-19)
(0.961399 0.269953 -2.74821e-20)
(0.960851 0.269481 -1.01239e-18)
(0.960206 0.268874 2.08716e-19)
(0.959447 0.268087 5.08799e-19)
(0.958551 0.267085 -3.66694e-18)
(0.957506 0.265828 4.75967e-18)
(0.956297 0.264293 8.18631e-19)
(0.954924 0.262485 -1.67948e-19)
(0.953423 0.260362 -6.50309e-18)
(0.95186 0.257872 2.9917e-18)
(0.950382 0.254901 -6.06486e-18)
(0.949216 0.251217 1.05128e-17)
(0.948631 0.246561 3.37729e-18)
(0.948915 0.240637 -7.75994e-18)
(0.950032 0.233231 3.49097e-18)
(0.952986 0.224265 -9.39338e-18)
(0.954469 0.214323 -1.63434e-18)
(0.957576 0.204806 -1.26587e-17)
(0.963619 0.190117 -3.79502e-18)
(0.962011 0.283504 -6.11928e-22)
(0.961618 0.283454 -2.38476e-21)
(0.961222 0.283422 -2.02801e-21)
(0.960832 0.28339 1.99561e-20)
(0.960464 0.283346 -1.1194e-20)
(0.960132 0.283289 -1.3151e-20)
(0.959851 0.283215 -4.74182e-21)
(0.959635 0.283118 -1.97708e-20)
(0.959498 0.282995 1.3003e-20)
(0.959447 0.28284 2.14797e-21)
(0.959488 0.282649 9.41743e-22)
(0.959619 0.282417 5.26765e-20)
(0.959834 0.282142 -3.75451e-20)
(0.960121 0.281825 -4.49021e-21)
(0.960466 0.281465 4.24857e-20)
(0.960849 0.281065 -2.36433e-20)
(0.96125 0.28063 -8.88871e-21)
(0.96165 0.280167 1.47639e-20)
(0.962032 0.279681 4.70546e-20)
(0.962381 0.279181 2.56583e-20)
(0.962686 0.278673 9.3086e-21)
(0.96294 0.278167 -6.69184e-20)
(0.963141 0.277666 3.40078e-20)
(0.963289 0.277178 6.77329e-20)
(0.96339 0.276707 -1.41739e-19)
(0.963447 0.276259 4.63713e-20)
(0.963469 0.275831 -1.88287e-19)
(0.963461 0.275427 1.56234e-19)
(0.963429 0.275037 1.42346e-19)
(0.96338 0.274664 -2.25477e-19)
(0.963316 0.274311 -1.08212e-19)
(0.96324 0.273991 1.51355e-19)
(0.963153 0.273711 5.19364e-20)
(0.963058 0.273468 -1.56073e-19)
(0.962951 0.27324 -1.98519e-19)
(0.962826 0.27301 -2.49041e-19)
(0.962669 0.272782 1.56673e-19)
(0.962441 0.272562 3.96939e-19)
(0.962136 0.272338 1.39379e-19)
(0.961788 0.272096 -1.47932e-19)
(0.961397 0.271826 1.4773e-18)
(0.960953 0.271505 -1.13111e-19)
(0.960442 0.271105 1.65059e-18)
(0.959849 0.270595 -3.04133e-18)
(0.959159 0.269926 3.42435e-19)
(0.958351 0.269058 1.43381e-19)
(0.957414 0.267942 -6.07296e-19)
(0.956335 0.266532 -2.81803e-18)
(0.955115 0.264806 -5.32971e-18)
(0.953792 0.262697 5.03542e-18)
(0.952429 0.260135 7.06077e-18)
(0.951174 0.256998 3.65382e-18)
(0.950254 0.253076 -9.2685e-18)
(0.949923 0.248158 4.98734e-18)
(0.950445 0.242032 1.36316e-17)
(0.95177 0.234546 3.72519e-18)
(0.954876 0.225763 9.15304e-18)
(0.956604 0.216274 3.88452e-18)
(0.959252 0.207587 9.0087e-18)
(0.968296 0.194814 -5.20641e-18)
(0.962105 0.284913 7.68508e-22)
(0.961714 0.284871 -2.30707e-21)
(0.961306 0.284847 8.19411e-21)
(0.960889 0.284827 2.04499e-21)
(0.960475 0.284799 -1.12608e-20)
(0.960076 0.284764 -1.27419e-20)
(0.959704 0.284719 3.03765e-20)
(0.959376 0.284659 -3.29658e-20)
(0.959105 0.284579 -7.72706e-21)
(0.958906 0.284476 2.04237e-20)
(0.958788 0.284344 1.85353e-20)
(0.958758 0.284177 5.56351e-20)
(0.958817 0.283972 -3.23698e-20)
(0.958964 0.283725 -5.40595e-20)
(0.95919 0.283435 1.19888e-20)
(0.959482 0.283101 -4.33781e-20)
(0.959824 0.282725 3.32416e-20)
(0.960199 0.28231 -5.46254e-20)
(0.960588 0.28186 9.60461e-21)
(0.960974 0.281383 -1.74015e-20)
(0.96134 0.280884 -1.08483e-20)
(0.961676 0.280372 -4.99329e-20)
(0.961971 0.279853 4.89527e-21)
(0.96222 0.279335 1.10937e-19)
(0.962422 0.278824 -3.79983e-20)
(0.962577 0.278328 1.22582e-20)
(0.962688 0.277847 3.54968e-20)
(0.962758 0.277386 -4.98975e-20)
(0.962792 0.276937 -1.04493e-20)
(0.962795 0.276505 7.40731e-20)
(0.96277 0.276094 8.57928e-20)
(0.962722 0.275717 -6.72357e-20)
(0.962653 0.275386 -2.14053e-19)
(0.962568 0.275095 -3.10762e-19)
(0.962466 0.274824 5.05858e-19)
(0.96234 0.274559 1.37931e-19)
(0.962181 0.274302 8.57772e-20)
(0.961954 0.274064 4.69918e-19)
(0.961653 0.273836 -4.54272e-19)
(0.96131 0.273599 2.76744e-19)
(0.960933 0.273344 -2.53067e-20)
(0.960511 0.273051 5.74612e-20)
(0.960035 0.272692 -5.89318e-19)
(0.959491 0.272237 1.31128e-18)
(0.958866 0.271636 -1.70701e-18)
(0.958144 0.270846 1.04163e-18)
(0.957316 0.269806 -3.28167e-18)
(0.956374 0.268456 1.32271e-18)
(0.955319 0.266756 2.65561e-18)
(0.954194 0.26462 -4.63005e-18)
(0.953057 0.26197 -2.05565e-18)
(0.952048 0.258683 -1.13985e-18)
(0.95139 0.254571 -7.99261e-19)
(0.951316 0.24946 -3.98915e-18)
(0.952061 0.243205 4.56387e-19)
(0.95356 0.235696 1.83105e-18)
(0.956756 0.227092 -3.20973e-18)
(0.958645 0.217986 -9.75971e-19)
(0.960859 0.20988 -1.8738e-18)
(0.971842 0.198288 3.10355e-18)
(0.96222 0.286114 1.4011e-21)
(0.961844 0.286075 -1.19688e-21)
(0.961445 0.286054 1.0725e-21)
(0.961027 0.28604 6.88034e-21)
(0.960599 0.28602 9.90733e-21)
(0.960169 0.285996 -3.91714e-20)
(0.959749 0.285967 2.83556e-20)
(0.95935 0.285928 5.72235e-21)
(0.958988 0.285878 -1.94742e-21)
(0.958676 0.28581 -1.27171e-20)
(0.958429 0.285722 3.82969e-20)
(0.958257 0.285606 -1.29934e-20)
(0.958168 0.28546 -1.75047e-20)
(0.958166 0.285278 -5.10411e-20)
(0.958253 0.285056 1.02235e-19)
(0.95842 0.284792 -2.18769e-20)
(0.958659 0.284484 -1.80765e-20)
(0.958957 0.284133 -5.2145e-20)
(0.959297 0.283742 5.79538e-20)
(0.959662 0.283313 3.17675e-20)
(0.960035 0.282852 -1.48836e-20)
(0.960402 0.282367 2.52326e-20)
(0.960748 0.281861 -1.08755e-19)
(0.961063 0.281345 7.60747e-21)
(0.961341 0.280825 6.15751e-20)
(0.961577 0.280309 -1.20145e-20)
(0.961768 0.2798 -1.94145e-19)
(0.961915 0.279305 1.68719e-20)
(0.962018 0.278816 1.79532e-19)
(0.962082 0.27834 -4.79504e-20)
(0.962109 0.277883 -9.83835e-20)
(0.962103 0.277461 5.56958e-20)
(0.962068 0.277084 1.79257e-19)
(0.962009 0.276748 4.41628e-19)
(0.961926 0.276436 -7.26845e-20)
(0.961815 0.276134 9.41506e-20)
(0.961666 0.275846 -7.70479e-19)
(0.961452 0.275586 -2.45414e-19)
(0.961162 0.275346 1.51632e-19)
(0.960829 0.2751 -6.10968e-19)
(0.960465 0.27484 -1.52669e-19)
(0.960063 0.274546 2.98218e-19)
(0.959614 0.274193 1.87464e-19)
(0.959108 0.273748 6.14152e-19)
(0.958537 0.27316 2.18689e-18)
(0.957887 0.272384 -1.78301e-18)
(0.957155 0.27135 2.88383e-18)
(0.956338 0.26999 2.42062e-18)
(0.95544 0.26825 5.5287e-20)
(0.954507 0.266036 3.33198e-18)
(0.953591 0.263265 -5.17652e-18)
(0.952825 0.25982 -6.37274e-18)
(0.952421 0.255533 5.08103e-18)
(0.952588 0.25026 4.39116e-18)
(0.953532 0.243912 -1.50286e-18)
(0.955178 0.236402 -1.0673e-17)
(0.958426 0.227951 2.73044e-18)
(0.960423 0.219152 -1.61068e-18)
(0.962252 0.211421 -2.41626e-18)
(0.974317 0.200521 8.52822e-19)
(0.96232 0.287136 -1.48145e-21)
(0.961965 0.2871 1.63579e-21)
(0.961585 0.287082 1.10334e-20)
(0.961181 0.28707 -1.45002e-20)
(0.960759 0.287055 2.61676e-20)
(0.960324 0.287037 -3.85761e-20)
(0.959885 0.287017 1.10183e-20)
(0.959452 0.286991 -4.53764e-22)
(0.959036 0.286958 2.39898e-20)
(0.958651 0.286914 -1.27829e-20)
(0.958311 0.286855 3.65036e-21)
(0.958029 0.286777 3.68225e-21)
(0.957816 0.286676 -5.91529e-20)
(0.957681 0.286546 1.82863e-20)
(0.957631 0.286383 4.09685e-20)
(0.957666 0.286183 1.00759e-21)
(0.957783 0.285942 -6.74994e-20)
(0.957973 0.28566 2.79718e-20)
(0.958226 0.285334 1.27512e-19)
(0.958528 0.284968 -8.43013e-20)
(0.958862 0.284563 -6.31345e-20)
(0.959215 0.284125 5.38217e-20)
(0.959569 0.283657 3.41577e-20)
(0.959912 0.283168 3.82028e-20)
(0.960234 0.282664 -7.48584e-20)
(0.960523 0.282154 -1.62776e-19)
(0.960776 0.281642 1.24392e-19)
(0.960986 0.281134 1.80862e-19)
(0.961154 0.280626 5.03635e-20)
(0.961278 0.280124 -9.8227e-20)
(0.961361 0.279636 4.7937e-20)
(0.961404 0.27918 7.89202e-20)
(0.961412 0.278767 -1.43044e-19)
(0.96139 0.278393 -2.61393e-20)
(0.961338 0.278042 -2.76166e-19)
(0.961252 0.277705 -8.58205e-20)
(0.961126 0.277385 -6.97429e-20)
(0.960934 0.277099 2.15796e-19)
(0.960662 0.276836 -2.87846e-19)
(0.96034 0.276566 9.301e-20)
(0.959988 0.276279 1.28928e-19)
(0.9596 0.275957 2.79397e-20)
(0.95917 0.275572 -8.94421e-19)
(0.958691 0.275094 -1.21693e-18)
(0.958159 0.274469 -1.15358e-18)
(0.957564 0.273647 2.13861e-18)
(0.956909 0.272558 -2.29522e-19)
(0.956197 0.271123 -9.97913e-19)
(0.955435 0.269284 4.92691e-19)
(0.954674 0.266943 -3.39232e-18)
(0.953958 0.264017 1.81945e-18)
(0.953413 0.260399 4.99481e-18)
(0.953238 0.255938 -8.23304e-19)
(0.953622 0.250518 -4.42208e-18)
(0.954735 0.244089 2.31405e-18)
(0.956504 0.236583 2.19753e-18)
(0.959784 0.228256 1.96042e-18)
(0.961856 0.219701 3.61883e-18)
(0.963358 0.212186 1.8751e-18)
(0.975899 0.201661 -1.74948e-18)
(0.962406 0.288034 -1.23502e-21)
(0.962073 0.287997 1.79313e-21)
(0.961713 0.287978 3.64594e-22)
(0.961328 0.287966 6.77358e-21)
(0.960922 0.28795 -1.03602e-20)
(0.960498 0.287934 -2.10559e-20)
(0.96006 0.287917 7.76352e-21)
(0.959616 0.287897 -9.8434e-21)
(0.959175 0.287873 2.1984e-20)
(0.95875 0.287842 -4.34799e-21)
(0.958351 0.287802 -1.42388e-20)
(0.957991 0.287749 1.20586e-20)
(0.957684 0.28768 1.91689e-20)
(0.957442 0.287589 5.22438e-20)
(0.957273 0.287473 -9.56928e-20)
(0.957184 0.287326 4.86597e-20)
(0.957177 0.287144 7.00204e-21)
(0.95725 0.286925 -4.75388e-20)
(0.957397 0.286666 -2.9048e-20)
(0.957609 0.286365 9.61123e-20)
(0.957873 0.286023 -1.00237e-19)
(0.958176 0.285644 3.05276e-20)
(0.958502 0.285228 -7.98959e-20)
(0.958837 0.284784 1.34644e-19)
(0.959169 0.284316 -2.73884e-20)
(0.959483 0.283832 -7.64446e-20)
(0.959773 0.283337 6.22624e-20)
(0.960029 0.282836 1.1744e-19)
(0.960246 0.282327 -1.12707e-19)
(0.960422 0.281817 7.06301e-20)
(0.960557 0.281314 -2.40855e-19)
(0.96065 0.280837 -2.82251e-20)
(0.960704 0.280398 1.09429e-19)
(0.960724 0.279993 -6.50898e-20)
(0.96071 0.27961 -1.35211e-19)
(0.960658 0.279241 -3.39294e-19)
(0.960562 0.278889 4.47099e-19)
(0.960399 0.278572 -1.69213e-19)
(0.960147 0.278277 1.43222e-19)
(0.959837 0.27797 2.69894e-19)
(0.959494 0.277636 1.93741e-19)
(0.959115 0.277261 -1.25645e-19)
(0.958697 0.276814 4.61565e-19)
(0.958233 0.276265 8.57738e-19)
(0.957726 0.275559 -8.46327e-20)
(0.95717 0.274645 -1.18386e-18)
(0.956573 0.273449 -1.63477e-18)
(0.955945 0.27189 -1.34631e-19)
(0.955296 0.269905 1.05485e-18)
(0.954681 0.267398 5.271e-20)
(0.954139 0.264292 2.0444e-18)
(0.953786 0.260489 -3.83241e-18)
(0.953809 0.255854 -2.20885e-18)
(0.954377 0.250295 -2.15995e-19)
(0.955631 0.243794 -1.50463e-18)
(0.957501 0.236291 9.49515e-19)
(0.960801 0.228065 -1.38502e-18)
(0.962924 0.219711 -3.22623e-18)
(0.964161 0.212314 -1.80805e-18)
(0.976794 0.202003 4.1079e-19)
(0.962487 0.288818 -1.83352e-21)
(0.962173 0.28878 1.49335e-21)
(0.961834 0.28876 1.1729e-21)
(0.96147 0.288746 -8.37101e-21)
(0.961083 0.288729 8.69608e-21)
(0.960675 0.288713 -4.26606e-21)
(0.960249 0.288696 1.38781e-20)
(0.959809 0.288677 -2.06741e-20)
(0.959362 0.288657 1.289e-21)
(0.958918 0.288633 1.69678e-21)
(0.958486 0.288603 -1.50328e-20)