/*--------------------------------*- C++ -*----------------------------------*\
  =========                 |
  \\      /  F ield         | OpenFOAM: The Open Source CFD Toolbox
   \\    /   O peration     | Website:  https://openfoam.org
    \\  /    A nd           | Version:  6.0
     \\/     M anipulation  |
\*---------------------------------------------------------------------------*/
FoamFile
{
    version     2.0;
    format      ascii;
    class       surfaceScalarField;
    location    "7";
    object      phi;
}
// * * * * * * * * * * * * * * * * * * * * * * * * * * * * * * * * * * * * * //

dimensions      [0 3 -1 0 0 0 0];

internalField   nonuniform List<scalar> 
93586
(
2.34542e-05
0.00154654
8.11458e-08
4.7307e-05
0.00154181
7.12895e-05
0.00153288
9.5207e-05
0.00151986
0.000118902
0.0015028
0.000142271
0.00148178
0.000165238
0.00145682
0.000187756
0.00142794
0.000209782
0.00139511
0.000231278
0.00135836
0.000252191
0.0013177
0.000272464
0.00127323
0.000292032
0.00122508
0.000310828
0.00117344
0.000328786
0.0011185
0.000345846
0.00106049
0.00036195
0.000999601
0.000377051
0.000936039
0.000391103
0.000869991
0.000404066
0.00080164
0.000415905
0.000731159
0.000426587
0.000658723
0.000436083
0.000584505
0.000444368
0.000508676
0.000451418
0.000431405
0.000457217
0.000352853
0.000461729
0.00027316
0.000465125
0.00019234
0.000466928
0.000110316
2.85955e-05
0.000463769
2.31942e-05
0.00152334
1.68159e-08
4.66889e-05
0.00151832
7.02727e-05
0.0015093
9.37578e-05
0.00149639
0.000117004
0.00147957
0.000139931
0.00145887
0.000162482
0.00143429
0.000184621
0.00140582
0.00020631
0.00137345
0.000227505
0.00133719
0.000248145
0.00129708
0.000268165
0.00125323
0.000287492
0.00120578
0.000306052
0.0011549
0.000323779
0.0011008
0.000340611
0.00104368
0.000356493
0.000983743
0.000371378
0.000921179
0.000385224
0.000856172
0.000397993
0.000788898
0.000409651
0.000719529
0.000420169
0.000648235
0.000429518
0.000575187
0.000437675
0.000500552
0.000444618
0.000424498
0.00045033
0.000347178
0.000454767
0.000268764
0.000457993
0.000189159
0.000459822
0.000108535
2.90441e-05
0.00045944
2.28167e-05
0.00150055
-3.18007e-08
4.58726e-05
0.00149527
6.90148e-05
0.00148616
9.20692e-05
0.00147334
0.00011491
0.00145673
0.000137466
0.00143633
0.000159684
0.00141207
0.000181525
0.00138399
0.000202943
0.00135203
0.000223885
0.00131625
0.000244281
0.00127669
0.00026406
0.00123346
0.000283144
0.0011867
0.000301463
0.00113658
0.000318948
0.00108332
0.000335542
0.00102709
0.000351191
0.000968094
0.000365851
0.000906518
0.000379484
0.000842538
0.000392052
0.000776327
0.000403525
0.000708053
0.000413874
0.000637883
0.000423071
0.000565984
0.000431094
0.000492523
0.000437919
0.000417665
0.000443529
0.000341558
0.00044789
0.000264391
0.000450949
0.000186086
0.000452769
0.0001067
2.86013e-05
0.000453179
2.24112e-05
0.0014782
-5.63334e-08
4.5036e-05
0.00147265
6.77586e-05
0.00146345
9.04167e-05
0.00145069
0.000112893
0.00143427
0.000135118
0.00141412
0.000157036
0.00139017
0.000178601
0.00136244
0.000199758
0.00133089
0.000220445
0.00129558
0.000240587
0.00125657
0.000260112
0.00121395
0.00027894
0.00116789
0.000297003
0.00111854
0.000314235
0.0010661
0.00033058
0.00101076
0.00034599
0.000952705
0.000360421
0.000892108
0.000373836
0.000829145
0.000386201
0.000763985
0.000397486
0.000696792
0.000407662
0.000627731
0.000416705
0.000556969
0.000424588
0.000484668
0.000431291
0.000410992
0.000436791
0.000336091
0.000441062
0.000260154
0.000444031
0.000183156
0.000445725
0.000105048
2.82647e-05
0.000446122
2.20176e-05
0.00145625
-6.57896e-08
4.42412e-05
0.00145043
6.65758e-05
0.00144111
8.88677e-05
0.0014284
0.000111004
0.00141213
0.000132916
0.00139221
0.000154542
0.00136855
0.00017583
0.00134116
0.000196718
0.00131
0.000217138
0.00127516
0.000237014
0.00123669
0.00025627
0.0011947
0.00027483
0.00114932
0.000292627
0.00110074
0.000309599
0.00104913
0.000325691
0.000994668
0.000340857
0.000937534
0.000355057
0.000877903
0.000368254
0.000815942
0.000380416
0.000751816
0.000391514
0.000685687
0.000401518
0.000617717
0.000410405
0.000548071
0.00041815
0.000476911
0.000424731
0.000404398
0.000430122
0.000330684
0.000434303
0.000255957
0.000437208
0.000180231
0.000438823
0.000103411
2.78956e-05
0.000439152
2.1641e-05
0.00143469
-6.86361e-08
4.34902e-05
0.00142858
6.54624e-05
0.00141915
8.74101e-05
0.00140647
0.000109223
0.00139033
0.00013083
0.00137062
0.000152167
0.00134722
0.000173173
0.00132017
0.000193784
0.00128941
0.000213927
0.00125504
0.000233525
0.00121711
0.000252503
0.00117573
0.000270787
0.00113106
0.000288313
0.00108323
0.00030502
0.00103244
0.000320857
0.000978848
0.00033578
0.00092263
0.000349749
0.000863952
0.00036273
0.00080298
0.000374691
0.000739875
0.000385603
0.000674796
0.000395439
0.000607904
0.000404174
0.000539361
0.000411783
0.000469327
0.000418244
0.000397964
0.000423532
0.000325424
0.000427627
0.000251894
0.000430475
0.000177418
0.000432046
0.000101879
2.7653e-05
0.000432346
2.12814e-05
0.00141348
-7.31426e-08
4.27786e-05
0.00140709
6.44092e-05
0.00139752
8.60293e-05
0.00138485
0.00010753
0.00136883
0.000128838
0.00134931
0.000149884
0.00132617
0.000170604
0.00129945
0.00019093
0.00126908
0.000210788
0.00123518
0.0002301
0.00119779
0.000248794
0.00115704
0.000266798
0.00111305
0.000284048
0.00106598
0.00030049
0.00101599
0.000316072
0.000963259
0.000330753
0.000907941
0.000344494
0.000850203
0.000357262
0.000790204
0.000369025
0.000728102
0.000379755
0.000664055
0.000389426
0.000598221
0.000398011
0.000530762
0.000405488
0.000461835
0.000411834
0.000391602
0.000417025
0.000320215
0.000421039
0.000247859
0.000423833
0.000174601
0.000425374
0.000100312
2.73173e-05
0.000425665
2.09377e-05
0.00139261
-6.20634e-08
4.21024e-05
0.00138593
6.34079e-05
0.00137622
8.47127e-05
0.00136355
0.000105909
0.00134764
0.000126919
0.00132831
0.000147673
0.00130543
0.000168104
0.00127903
0.000188139
0.00124906
0.000207705
0.00121563
0.000226726
0.00117879
0.000245132
0.00113865
0.000262852
0.00109534
0.000279828
0.00104902
0.000296005
0.000999833
0.000311334
0.000947946
0.000325776
0.000893517
0.000339292
0.000836704
0.000351851
0.000777664
0.00036342
0.000716552
0.000373972
0.000653523
0.000383481
0.000588733
0.000391922
0.000522343
0.00039927
0.00045451
0.000405505
0.000385393
0.000410602
0.000315146
0.00041454
0.000243951
0.000417282
0.000171892
0.000418799
9.88324e-05
2.70761e-05
0.000419095
2.06083e-05
0.00137204
-4.30629e-08
4.14561e-05
0.00136508
6.24491e-05
0.00135522
8.34474e-05
0.00134256
0.000104343
0.00132674
0.000125058
0.0013076
0.000145518
0.00128497
0.000165654
0.00125889
0.000185394
0.00122931
0.000204666
0.00119635
0.000223393
0.00116005
0.000241509
0.00112053
0.000258947
0.0010779
0.000275649
0.00103231
0.000291563
0.000983911
0.000306643
0.000932857
0.000320849
0.000879302
0.000334145
0.000823398
0.000346498
0.0007653
0.000357877
0.000705161
0.000368255
0.000643132
0.000377607
0.000579368
0.000385906
0.000514028
0.000393131
0.000447269
0.000399258
0.000379247
0.000404265
0.000310119
0.000408131
0.000240062
0.000410824
0.000169173
0.000412321
9.73072e-05
2.6727e-05
0.000412623
2.0291e-05
0.00135178
-2.4353e-08
4.08336e-05
0.00134455
6.15232e-05
0.00133454
8.22211e-05
0.00132187
0.00010282
0.00130616
0.000123238
0.00128719
0.000143403
0.00126482
0.000163242
0.00123907
0.000182685
0.00120988
0.00020166
0.00117739
0.000220094
0.00114163
0.00023792
0.00110272
0.000255077
0.00106076
0.000271508
0.00101589
0.000287164
0.000968271
0.000301998
0.000918038
0.000315973
0.000865343
0.000329052
0.000810336
0.000341204
0.000753166
0.000352398
0.000693985
0.000362608
0.000632942
0.000371805
0.00057019
0.000379968
0.000505887
0.000387072
0.000440188
0.000393095
0.000373248
0.000398015
0.000305225
0.000401813
0.000236294
0.00040446
0.000166558
0.000405938
9.58646e-05
2.64695e-05
0.000406249
1.99838e-05
0.0013318
-8.86709e-09
4.02295e-05
0.0013243
6.06221e-05
0.00131415
8.10237e-05
0.00130146
0.000101327
0.00128585
0.00012145
0.00126707
0.000141318
0.00124494
0.00016086
0.00121952
0.000180005
0.00119073
0.000198683
0.00115871
0.000216824
0.00112349
0.000234364
0.00108517
0.000251243
0.00104387
0.000267407
0.000999721
0.000282808
0.000952862
0.000297402
0.000903435
0.00031115
0.000851585
0.000324018
0.000797457
0.000335973
0.000741199
0.000346986
0.000682958
0.00035703
0.000622884
0.000366078
0.000561126
0.000374108
0.000497842
0.000381094
0.000433183
0.000387017
0.000367306
0.000391854
0.000300366
0.000395587
0.000232537
0.00039819
0.000163927
0.000399651
9.43739e-05
2.61045e-05
0.000399967
1.96844e-05
0.00131212
6.5614e-09
3.96393e-05
0.00130435
5.97393e-05
0.00129405
7.98473e-05
0.00128137
9.98563e-05
0.00126585
0.000119684
0.00124725
0.000139255
0.00122538
0.0001585
0.00120029
0.000177348
0.0011719
0.000195731
0.00114034
0.000213582
0.00110565
0.000230839
0.00106792
0.000247445
0.00102728
0.000263347
0.000983834
0.000278498
0.000937726
0.000292855
0.000889092
0.000306382
0.000838073
0.000319043
0.000784812
0.000330806
0.000729452
0.000341643
0.000672139
0.000351525
0.00061302
0.000360428
0.000552242
0.000368327
0.000489963
0.0003752
0.000426332
0.000381026
0.000361504
0.000385783
0.000295634
0.000389453
0.000228895
0.000392015
0.000161395
0.000393458
9.29653e-05
2.5834e-05
0.00039378
1.93913e-05
0.0012927
2.02692e-08
3.90596e-05
0.00128468
5.88699e-05
0.00127424
7.86863e-05
0.00126155
9.84023e-05
0.00124613
0.000117935
0.00122772
0.000137211
0.0012061
0.000156159
0.00118134
0.000174712
0.00115334
0.000192804
0.00112224
0.000210368
0.00108808
0.000227347
0.00105094
0.000243684
0.00101093
0.000259328
0.00096818
0.000274235
0.00092281
0.000288361
0.000874955
0.000301671
0.000824753
0.000314129
0.000772342
0.000325705
0.000717864
0.000336369
0.000661462
0.000346094
0.00060328
0.000354855
0.000543465
0.000362628
0.000482173
0.00036939
0.000419551
0.000375121
0.000355753
0.0003798
0.000290931
0.000383411
0.000225259
0.000385934
0.000158844
0.000387359
9.1508e-05
2.54588e-05
0.000387684
1.9103e-05
0.00127358
2.91642e-08
3.84877e-05
0.0012653
5.80105e-05
0.00125472
7.75369e-05
0.00124203
9.69611e-05
0.00122671
0.000116201
0.00120849
0.000135182
0.00118713
0.000153836
0.0011627
0.000172098
0.00113509
0.000189901
0.00110445
0.000207183
0.00107081
0.000223888
0.00103425
0.000239961
0.000994873
0.000255353
0.000952802
0.00027002
0.000908157
0.000283921
0.000861069
0.000297018
0.00081167
0.000309279
0.000760096
0.000320671
0.000706487
0.000331166
0.000650983
0.000340738
0.000593726
0.00034936
0.000534862
0.00035701
0.000474543
0.000363664
0.000412917
0.000369303
0.000350136
0.000373908
0.000286351
0.000377461
0.000221733
0.000379945
0.00015639
0.000381353
9.01331e-05
2.51807e-05
0.000381682
1.88189e-05
0.00125472
3.44517e-08
3.79219e-05
0.00124619
5.71591e-05
0.00123548
7.63969e-05
0.00122279
9.55309e-05
0.00120757
0.000114479
0.00118954
0.000133168
0.00116844
0.000151531
0.00114433
0.000169504
0.00111711
0.000187023
0.00108693
0.000204029
0.0010538
0.000220465
0.0010178
0.000236279
0.00097905
0.000251424
0.000937647
0.000265857
0.000893715
0.000279536
0.000847379
0.000292426
0.000798768
0.000304493
0.000748017
0.000315706
0.00069526
0.000326036
0.000640638
0.000335458
0.00058429
0.000343944
0.000526358
0.000351473
0.000466996
0.000358022
0.000406348
0.000363572
0.000344565
0.000368104
0.000281796
0.000371601
0.00021821
0.000374048
0.000153913
0.000375439
8.87094e-05
2.48e-05
0.000375769
1.85381e-05
0.00123615
3.79764e-08
3.73612e-05
0.00122738
5.63144e-05
0.00121654
7.52654e-05
0.00120385
9.41108e-05
0.00118874
0.000112769
0.00117089
0.000131169
0.00115005
0.000149245
0.00112627
0.000166933
0.00109943
0.000184173
0.0010697
0.000200906
0.00103708
0.000217078
0.00100164
0.00023264
0.000963501
0.000247543
0.000922757
0.000261746
0.000879525
0.000275208
0.00083393
0.000287895
0.000786096
0.000299772
0.000736154
0.000310811
0.000684238
0.000320979
0.000630485
0.000330253
0.000575033
0.000338607
0.000518022
0.000346018
0.000459604
0.000352465
0.000399922
0.000357928
0.000339124
0.000362388
0.000277359
0.000365832
0.000214793
0.000368243
0.00015153
0.000369616
8.73683e-05
2.4518e-05
0.000369947
1.82603e-05
0.00121785
4.03467e-08
3.68052e-05
0.00120883
5.5476e-05
0.00119786
7.4142e-05
0.00118518
9.27011e-05
0.00117017
0.000111072
0.00115251
0.000129187
0.00113193
0.000146978
0.00110847
0.000164387
0.00108202
0.000181352
0.00105273
0.000197818
0.0010206
0.000213732
0.000985721
0.000229045
0.000948179
0.000243711
0.00090808
0.000257689
0.000865537
0.000270939
0.000820667
0.000283427
0.000773596
0.000295119
0.000724449
0.000305985
0.000673359
0.000315995
0.000620459
0.000325125
0.000565887
0.000333349
0.00050978
0.000340645
0.000452289
0.000346991
0.000393555
0.000352369
0.000333724
0.000356761
0.000272943
0.000360151
0.000211375
0.000362527
0.000149124
0.000363883
8.59784e-05
2.4135e-05
0.000364214
1.79851e-05
0.00119983
4.12421e-08
3.62535e-05
0.00119057
5.46439e-05
0.00117948
7.3027e-05
0.0011668
9.13023e-05
0.00115191
0.00010939
0.00113444
0.000127222
0.0011141
0.000144733
0.00109097
0.000161866
0.00106489
0.000178562
0.00103604
0.000194765
0.00100441
0.000210426
0.000970072
0.000225496
0.000933122
0.000239929
0.000893659
0.000253687
0.000851792
0.00026673
0.000807638
0.000279023
0.000761317
0.000290532
0.000712953
0.00030123
0.000662676
0.000311085
0.000610619
0.000320074
0.000556915
0.00032817
0.0005017
0.000335354
0.000445125
0.000341601
0.000387327
0.000346896
0.000328451
0.000351219
0.000268643
0.000354558
0.000208062
0.0003569
0.000146811
0.000358238
8.4671e-05
2.38516e-05
0.00035857
1.77126e-05
0.00118207
4.15518e-08
3.57064e-05
0.00117257
5.38185e-05
0.00116136
7.19212e-05
0.00114869
8.99155e-05
0.00113391
0.000107722
0.00111662
0.000125276
0.00109654
0.000142511
0.00107373
0.000159373
0.00104802
0.000175804
0.0010196
0.00019175
0.000988455
0.000207162
0.000954651
0.000221994
0.000918281
0.0002362
0.000879442
0.000249742
0.00083824
0.00026258
0.000794787
0.000274682
0.000749203
0.000286013
0.000701608
0.000296545
0.00065213
0.000306248
0.0006009
0.000315098
0.000548048
0.00032307
0.00049371
0.000330142
0.000438033
0.000336294
0.000381154
0.000341507
0.000323215
0.000345764
0.00026436
0.000349053
0.000204746
0.00035136
0.000144472
0.000352682
8.33149e-05
2.34685e-05
0.000353011
1.74427e-05
0.00116459
4.19209e-08
3.5164e-05
0.00115485
5.30002e-05
0.00114353
7.08252e-05
0.00113088
8.85416e-05
0.0011162
0.000106071
0.0010991
0.00012335
0.00107927
0.000140314
0.00105677
0.00015691
0.00103144
0.00017308
0.00100344
0.000188774
0.000972772
0.000203942
0.000939494
0.00021854
0.000903695
0.000232523
0.00086547
0.000245853
0.000824922
0.000258491
0.000782161
0.000270405
0.000737303
0.000281561
0.000690466
0.00029193
0.000641776
0.000301484
0.000591361
0.000310198
0.000539351
0.000318047
0.000485878
0.000325011
0.000431088
0.000331068
0.000375116
0.000336201
0.000318103
0.000340393
0.00026019
0.000343632
0.000201532
0.000345906
0.000142226
0.000347211
8.20412e-05
2.31854e-05
0.000347541
1.71755e-05
0.00114736
4.23645e-08
3.46268e-05
0.0011374
5.21897e-05
0.00112596
6.974e-05
0.00111332
8.71818e-05
0.00109875
0.000104438
0.00108184
0.000121446
0.00106226
0.000138143
0.00104007
0.000154477
0.0010151
0.000170392
0.000987521
0.000185838
0.000957318
0.000200767
0.000924556
0.000215135
0.000889318
0.000228899
0.000851695
0.000242021
0.000811789
0.000254463
0.000769707
0.000266193
0.000725561
0.000277176
0.000679468
0.000287386
0.000631552
0.000296792
0.000581937
0.000305373
0.000530754
0.000313101
0.00047813
0.000319959
0.000424212
0.000325923
0.00036913
0.000330977
0.000313025
0.000335106
0.000256036
0.000338297
0.000198313
0.000340538
0.000139953
0.000341825
8.07187e-05
2.28038e-05
0.000342153
1.69111e-05
0.00113042
4.28034e-08
3.4095e-05
0.00112022
5.13876e-05
0.00110868
6.86663e-05
0.00109605
8.58371e-05
0.00108159
0.000102824
0.00106486
0.000119565
0.00104553
0.000136
0.00102364
0.000152076
0.000999031
0.00016774
0.000971867
0.000182943
0.000942126
0.000197637
0.000909873
0.00021178
0.000875187
0.000225329
0.000838158
0.000238247
0.000798884
0.000250496
0.00075747
0.000262044
0.000714026
0.000272858
0.000668667
0.000282911
0.000621514
0.000292173
0.000572689
0.000300622
0.000522321
0.000308232
0.000470536
0.000314984
0.000417478
0.000320857
0.000363276
0.000325835
0.000308068
0.000329901
0.000251991
0.000333044
0.000195194
0.000335253
0.000137771
0.000336523
7.94784e-05
2.25223e-05
0.000336851
1.66498e-05
0.00111372
4.33434e-08
3.3569e-05
0.00110329
5.05944e-05
0.00109164
6.76049e-05
0.00107903
8.45083e-05
0.00106468
0.00010123
0.00104813
0.000117708
0.00102904
0.000133885
0.00100746
0.000149708
0.000983199
0.000165126
0.000956441
0.000180089
0.000927154
0.000194553
0.000895399
0.000208475
0.000861255
0.000221812
0.000824809
0.000234529
0.000786156
0.000246589
0.000745398
0.000257959
0.000702643
0.000268606
0.000658005
0.000278505
0.0006116
0.000287625
0.000563552
0.000295945
0.000513984
0.000303439
0.000463023
0.000310088
0.000410809
0.000315871
0.000357471
0.000320773
0.000303143
0.000324777
0.00024796
0.000327874
0.00019207
0.000330051
0.000135561
0.000331304
7.81894e-05
2.21433e-05
0.000331629
1.63915e-05
0.00109729
4.3977e-08
3.30492e-05
0.00108664
4.98106e-05
0.00107489
6.65565e-05
0.00106229
8.31962e-05
0.00104805
9.96558e-05
0.00103168
0.000115876
0.00101283
0.000131798
0.000991544
0.000147373
0.000967634
0.000162548
0.000941275
0.000177278
0.000912435
0.000191515
0.000881172
0.000205219
0.000847562
0.000218349
0.00081169
0.000230869
0.000773648
0.000242742
0.000733537
0.000253936
0.000691461
0.00026442
0.000647533
0.000274167
0.000601868
0.000283148
0.000554585
0.00029134
0.000505808
0.000298719
0.000455659
0.000305267
0.000404279
0.000310962
0.000351794
0.00031579
0.000298336
0.000319734
0.000244037
0.000322784
0.000189043
0.00032493
0.000133442
0.000326166
7.69821e-05
2.18643e-05
0.00032649
1.61365e-05
0.0010811
4.46584e-08
3.25358e-05
0.00107024
4.90367e-05
0.00105838
6.55216e-05
0.0010458
8.19013e-05
0.00103166
9.81033e-05
0.00101547
0.000114069
0.000996857
0.000129742
0.000975864
0.000145072
0.000952295
0.000160009
0.000926329
0.000174508
0.000897928
0.000188522
0.000867148
0.000202013
0.000834061
0.000214939
0.000798752
0.000227265
0.00076131
0.000238954
0.000721834
0.000249977
0.000680426
0.000260299
0.000637195
0.000269897
0.000592256
0.00027874
0.000545725
0.000286807
0.000497723
0.000294074
0.000448373
0.000300522
0.000397811
0.00030613
0.000346163
0.000310884
0.000293558
0.000314769
0.000240126
0.000317774
0.00018601
0.000319889
0.000131295
0.000321108
7.57261e-05
2.14889e-05
0.000321429
1.58848e-05
0.00106518
4.52671e-08
3.20291e-05
0.0010541
4.8273e-05
0.00104215
6.45006e-05
0.00102958
8.06242e-05
0.00101554
9.65724e-05
0.000999533
0.000112288
0.00098115
0.000127715
0.000960446
0.000142805
0.000937215
0.000157508
0.000911636
0.00017178
0.000883667
0.000185575
0.000853362
0.000198856
0.000820792
0.000211581
0.000786037
0.000223717
0.000749187
0.000235226
0.000710336
0.000246079
0.000669586
0.000256243
0.000627043
0.000265693
0.000582819
0.000274401
0.00053703
0.000282345
0.000489795
0.000289501
0.000441232
0.000295851
0.000391479
0.000301374
0.000340657
0.000306056
0.000288895
0.000309882
0.00023632
0.000312843
0.000183073
0.000314926
0.000129236
0.000316129
7.45516e-05
2.1213e-05
0.000316449
1.56366e-05
0.00104949
4.5861e-08
3.15293e-05
0.0010382
4.75198e-05
0.00102615
6.34937e-05
0.0010136
7.93652e-05
0.000999664
9.50637e-05
0.000983827
0.000110533
0.000965673
0.000125718
0.000945253
0.000140572
0.000922352
0.000155045
0.000897154
0.000169094
0.000869609
0.000182674
0.000839771
0.000195749
0.000807707
0.000208277
0.000773498
0.000220225
0.000737228
0.000231556
0.000698991
0.000242242
0.000658887
0.00025225
0.000617019
0.000261556
0.000573499
0.000270131
0.000528438
0.000277953
0.000481955
0.000285
0.000434166
0.000291253
0.000385206
0.000296692
0.000335195
0.000301303
0.00028426
0.000305072
0.000232525
0.000307988
0.000180128
0.000310042
0.00012715
0.000311229
7.33282e-05
2.08419e-05
0.000311545
1.53918e-05
0.00103406
4.63374e-08
3.10365e-05
0.00102256
4.67772e-05
0.00101042
6.25014e-05
0.000997885
7.81245e-05
0.000984049
9.35771e-05
0.000968382
0.000108804
0.000950454
0.000123751
0.000930314
0.000138373
0.00090774
0.00015262
0.000882916
0.000166449
0.00085579
0.000179819
0.000826411
0.00019269
0.000794847
0.000205023
0.000761174
0.000216787
0.000725476
0.000227944
0.000687845
0.000238465
0.000648378
0.00024832
0.000607177
0.000257483
0.000564349
0.000265927
0.000520008
0.00027363
0.000474267
0.000280569
0.000427242
0.000286727
0.000379066
0.000292083
0.000329856
0.000296625
0.000279737
0.000300337
0.000228833
0.00030321
0.000177278
0.000305234
0.000125151
0.000306404
7.21857e-05
2.05698e-05
0.00030672
1.51507e-05
0.00101885
4.67643e-08
3.05509e-05
0.00100715
4.60455e-05
0.000994913
6.15236e-05
0.000982399
7.69022e-05
0.000968663
9.21128e-05
0.000953163
0.000107102
0.000935457
0.000121815
0.000915592
0.000136208
0.000893339
0.000150232
0.000868882
0.000163846
0.000842166
0.000177007
0.000813239
0.000189679
0.000782165
0.000201822
0.000749019
0.000213404
0.000713883
0.000224388
0.000676847
0.000234748
0.000638005
0.000244452
0.000597458
0.000253475
0.000555311
0.000261789
0.000511676
0.000269375
0.000466664
0.000276208
0.000420388
0.000282272
0.000372981
0.000287547
0.000324558
0.00029202
0.00027524
0.000295677
0.00022515
0.000298507
0.000174418
0.000300501
0.000123123
0.000301656
7.09944e-05
2.02033e-05
0.000301967
1.49131e-05
0.0010039
4.70384e-08
3.00724e-05
0.000991999
4.53246e-05
0.000979669
6.05604e-05
0.00096717
7.56984e-05
0.000953533
9.06709e-05
0.000938198
0.000105425
0.00092071
0.000119908
0.000901118
0.000134076
0.00087918
0.000147882
0.000855085
0.000161284
0.000828774
0.000174241
0.000800292
0.000186716
0.000769701
0.00019867
0.000737074
0.000210074
0.000702492
0.000220889
0.000666042
0.00023109
0.000627816
0.000240644
0.000587915
0.000249529
0.00054644
0.000257717
0.000503501
0.000265187
0.000459209
0.000271916
0.000413674
0.000277887
0.000367027
0.000283082
0.00031938
0.000287488
0.000270854
0.000291089
0.000221569
0.000293877
0.000171653
0.000295843
0.000121182
0.000296981
6.98835e-05
1.99354e-05
0.000297291
1.46791e-05
0.000989165
4.72614e-08
2.96011e-05
0.000977069
4.46146e-05
0.000964648
5.96119e-05
0.000952164
7.45129e-05
0.000938624
8.92512e-05
0.000923452
0.000103775
0.000906178
0.000118031
0.000886852
0.000131979
0.000865224
0.000145569
0.000841486
0.000158762
0.000815572
0.000171518
0.000787526
0.0001838
0.000757409
0.000195569
0.000725292
0.000206796
0.000691254
0.000217445
0.000655379
0.000227489
0.000617759
0.000236897
0.000578491
0.000245646
0.000537676
0.000253708
0.000495421
0.000261064
0.000451835
0.000267691
0.000407027
0.000273571
0.000361125
0.000278688
0.00031424
0.000283026
0.000266491
0.000286574
0.000217994
0.00028932
0.000168876
0.000291257
0.000119212
0.00029238
6.87238e-05
1.95741e-05
0.000292686
1.44487e-05
0.000974675
4.73322e-08
2.9137e-05
0.000962387
4.39154e-05
0.000949877
5.8678e-05
0.000937409
7.33459e-05
0.000923963
8.78535e-05
0.000908952
0.00010215
0.00089189
0.000116184
0.000872826
0.000129914
0.000851503
0.000143292
0.000828115
0.000156281
0.000802593
0.000168838
0.000774977
0.000180929
0.000745328
0.000192517
0.000713714
0.000203571
0.000680211
0.000214056
0.000644904
0.000223946
0.000607881
0.000233209
0.000569238
0.000241824
0.000529075
0.000249763
0.000487495
0.000257007
0.000444606
0.000263532
0.000400516
0.000269324
0.000355351
0.000274362
0.000309219
0.000278635
0.000262237
0.000282129
0.00021452
0.000284835
0.000166193
0.000286743
0.000117327
0.00028785
6.76438e-05
1.93106e-05
0.000288155
1.42219e-05
0.000960398
4.73639e-08
2.86801e-05
0.000947921
4.32271e-05
0.000935322
5.77586e-05
0.000922869
7.2197e-05
0.000909517
8.64777e-05
0.000894662
0.000100551
0.000877808
0.000114366
0.000859002
0.000127881
0.000837979
0.000141051
0.000814936
0.000153838
0.000789797
0.0001662
0.000762604
0.000178105
0.000733413
0.000189513
0.000702293
0.000200397
0.000669316
0.00021072
0.000634566
0.000220458
0.00059813
0.00022958
0.000560101
0.000238063
0.000520576
0.00024588
0.000479659
0.000253013
0.000437455
0.000259439
0.000394069
0.000265142
0.000349627
0.000270104
0.000304233
0.000274313
0.000258004
0.000277754
0.000211051
0.00028042
0.000163498
0.0002823
0.000115413
0.000283392
6.6515e-05
1.89547e-05
0.000283693
1.39986e-05
0.000946358
4.72537e-08
2.82303e-05
0.000933696
4.25495e-05
0.00092101
5.68536e-05
0.000908572
7.10661e-05
0.000895312
8.51236e-05
0.000880612
9.89772e-05
0.000863962
0.000112576
0.00084541
0.000125881
0.000824683
0.000138846
0.000801978
0.000151435
0.000777219
0.000163605
0.000750442
0.000175325
0.000721704
0.000186557
0.000691069
0.000197273
0.000658612
0.000207438
0.000624412
0.000217026
0.000588554
0.000226008
0.00055113
0.000234361
0.000512237
0.000242059
0.000471974
0.000249083
0.000430446
0.000255411
0.000387756
0.000261027
0.000344027
0.000265914
0.000299363
0.000270059
0.000253878
0.000273448
0.000207681
0.000276074
0.000160894
0.000277927
0.000113583
0.000279003
6.54653e-05
1.86959e-05
0.000279303
1.37789e-05
0.000932525
4.71225e-08
2.77875e-05
0.000919678
4.18826e-05
0.000906907
5.59628e-05
0.000894483
6.99531e-05
0.000881314
8.3791e-05
0.000866765
9.74283e-05
0.000850317
0.000110815
0.000832014
0.000123913
0.000811577
0.000136677
0.000789205
0.000149069
0.000764817
0.000161051
0.000738449
0.00017259
0.000710155
0.000183649
0.000679998
0.000194199
0.00064805
0.000204207
0.000614389
0.000213648
0.000579099
0.000222492
0.00054227
0.000230717
0.000503996
0.000238297
0.000464376
0.000245214
0.000423511
0.000251446
0.000381503
0.000256977
0.000338475
0.000261789
0.000294527
0.000265871
0.000249771
0.00026921
0.000204315
0.000271796
0.000158277
0.000273622
0.000111723
0.000274683
6.43669e-05
1.83457e-05
0.000274979
1.35626e-05
0.000918922
4.68637e-08
2.73518e-05
0.000905896
4.12262e-05
0.00089304
5.50861e-05
0.000880631
6.88577e-05
0.000867549
8.24794e-05
0.000853151
9.5904e-05
0.0008369
0.000109082
0.000818843
0.000121976
0.000798691
0.000134541
0.000776648
0.000146742
0.000752626
0.000158538
0.000726661
0.000169898
0.000698805
0.000180786
0.000669119
0.000191174
0.000637674
0.000201028
0.000604545
0.000210324
0.000569816
0.000219032
0.000533573
0.000227132
0.00049591
0.000234596
0.000456924
0.000241407
0.000416714
0.000247543
0.000375381
0.00025299
0.000333044
0.000257729
0.000289804
0.00026175
0.000245769
0.000265038
0.000201046
0.000267586
0.00015575
0.000269385
0.000109947
0.000270431
6.33468e-05
1.80916e-05
0.000270725
1.33498e-05
0.000905518
4.66028e-08
2.6923e-05
0.000892314
4.05802e-05
0.000879374
5.42233e-05
0.000866979
6.77798e-05
0.000853985
8.11887e-05
0.000839733
9.4404e-05
0.000823676
0.000107377
0.00080586
0.00012007
0.00078599
0.00013244
0.000764268
0.000144451
0.000740606
0.000156065
0.000715036
0.00016725
0.00068761
0.000177969
0.000658386
0.000188197
0.000627434
0.000197899
0.000594828
0.000207053
0.000560649
0.000215627
0.000524982
0.000223602
0.000487919
0.000230952
0.000449555
0.00023766
0.000409989
0.000243702
0.000369317
0.000249066
0.000327659
0.000253734
0.000285113
0.000257693
0.000241785
0.000260932
0.000197779
0.000263442
0.00015321
0.000265215
0.00010814
0.000266246
6.22781e-05
1.77473e-05
0.000266536
1.31404e-05
0.000892337
4.62288e-08
2.6501e-05
0.00087896
3.99445e-05
0.000865938
5.33742e-05
0.000853556
6.67189e-05
0.000840648
7.99186e-05
0.00082654
9.29278e-05
0.000810674
0.000105699
0.000793096
0.000118195
0.000773502
0.000130372
0.000752098
0.000142198
0.000728791
0.000153631
0.000703611
0.000164643
0.000676608
0.000175197
0.000647841
0.000185267
0.000617375
0.00019482
0.000585285
0.000203833
0.000551648
0.000212276
0.00051655
0.000220129
0.000480079
0.000227367
0.00044233
0.000233971
0.000403399
0.000239922
0.00036338
0.000245204
0.000322393
0.000249801
0.000280532
0.0002537
0.000237903
0.000256891
0.000194608
0.000259363
0.000150759
0.00026111
0.000106416
0.000262126
6.1287e-05
1.74982e-05
0.000262414
1.29344e-05
0.00087935
4.58681e-08
2.60857e-05
0.0008658
3.93189e-05
0.000852697
5.25387e-05
0.000840327
6.5675e-05
0.000827503
7.86687e-05
0.000813537
9.14753e-05
0.000797859
0.000104047
0.000780514
0.000116349
0.000761192
0.000128338
0.000740099
0.00013998
0.00071714
0.000151236
0.000692343
0.000162078
0.000665756
0.000172469
0.000637436
0.000182384
0.000607448
0.00019179
0.000575864
0.000200665
0.00054276
0.000208978
0.00050822
0.000216711
0.000472331
0.000223837
0.000435185
0.000230342
0.000396876
0.000236201
0.000357499
0.000241403
0.00031717
0.00024593
0.000275982
0.000249771
0.000234038
0.000252913
0.000191438
0.000255348
0.000148293
0.000257069
0.000104661
0.000258071
6.02473e-05
1.71598e-05
0.000258355
1.27316e-05
0.000866579
4.54057e-08
2.5677e-05
0.000852861
3.87033e-05
0.000839678
5.17165e-05
0.000827321
6.46477e-05
0.000814579
7.74388e-05
0.000800753
9.00459e-05
0.00078526
0.000102422
0.000768144
0.000114533
0.000749089
0.000126336
0.000728304
0.000137797
0.000705688
0.000148879
0.000681269
0.000159554
0.000655092
0.000169784
0.000627214
0.000179547
0.000597697
0.000188808
0.000566612
0.000197546
0.000534034
0.000205732
0.000500045
0.000213347
0.000464729
0.000220364
0.000428179
0.000226769
0.000390486
0.000232539
0.000351743
0.000237662
0.000312063
0.00024212
0.00027154
0.000245903
0.000230273
0.000248997
0.000188362
0.000251396
0.000145915
0.000253092
0.000102988
0.000254079
5.92844e-05
1.69157e-05
0.000254362
1.25321e-05
0.000853994
4.49691e-08
2.52749e-05
0.000840109
3.80975e-05
0.000826847
5.09074e-05
0.000814502
6.36368e-05
0.000801841
7.62285e-05
0.000788152
8.86393e-05
0.000772841
0.000100823
0.000755951
0.000112746
0.000737158
0.000124365
0.000716675
0.000135649
0.000694396
0.00014656
0.000670346
0.00015707
0.000644572
0.000167143
0.000617127
0.000176755
0.000588073
0.000185874
0.000557478
0.000194478
0.000525416
0.000202538
0.000491967
0.000210036
0.000457216
0.000216946
0.00042125
0.000223253
0.000384161
0.000228935
0.000346039
0.00023398
0.000306997
0.00023837
0.000267125
0.000242095
0.000226523
0.000245143
0.000185286