/*--------------------------------*- C++ -*----------------------------------*\
  =========                 |
  \\      /  F ield         | OpenFOAM: The Open Source CFD Toolbox
   \\    /   O peration     | Website:  https://openfoam.org
    \\  /    A nd           | Version:  6.0
     \\/     M anipulation  |
\*---------------------------------------------------------------------------*/
FoamFile
{
    version     2.0;
    format      ascii;
    class       volVectorField;
    location    "7";
    object      U;
}
// * * * * * * * * * * * * * * * * * * * * * * * * * * * * * * * * * * * * * //

dimensions      [0 1 -1 0 0 0 0];

internalField   nonuniform List<vector> 
47000
(
(0.999981 -8.52214e-05 6.46253e-20)
(0.999966 -0.000289295 1.15712e-19)
(0.999945 -0.000456296 -7.6192e-19)
(0.999924 -0.000557984 -1.22554e-18)
(0.999904 -0.000576431 8.09954e-19)
(0.999882 -0.000515983 -4.56368e-19)
(0.999846 -0.000403176 1.75334e-18)
(0.999784 -0.000278895 2.51346e-20)
(0.999688 -0.000188681 2.95093e-19)
(0.999556 -0.000168363 -2.86842e-18)
(0.999394 -0.000237964 2.14784e-18)
(0.999215 -0.000398336 8.54353e-19)
(0.999038 -0.000635241 1.44906e-18)
(0.998878 -0.000925067 1.94764e-18)
(0.998749 -0.00124169 -1.96682e-18)
(0.998658 -0.00156137 -1.03796e-18)
(0.998609 -0.00186613 -1.18707e-19)
(0.998601 -0.00214428 -1.30704e-18)
(0.998629 -0.00239033 -1.89798e-19)
(0.998689 -0.0026035 -3.61368e-19)
(0.998774 -0.00278701 -2.38636e-18)
(0.998879 -0.00294663 -8.89876e-19)
(0.998998 -0.00309032 -9.27961e-19)
(0.999128 -0.00322793 -1.31911e-19)
(0.999267 -0.00337233 5.34367e-19)
(0.999412 -0.00354038 -1.76686e-19)
(0.999592 -0.00376615 4.52503e-19)
(0.999572 -0.00406263 -2.67254e-19)
(1.00068 -0.00480729 4.30717e-20)
(0.995693 -0.00586433 -5.71553e-20)
(0.999879 -0.000308799 -1.37436e-19)
(0.999891 -0.000604182 -4.00629e-19)
(0.999914 -0.00076368 -2.05849e-20)
(0.999946 -0.00074864 1.58456e-18)
(0.999971 -0.00056357 -6.79759e-19)
(0.999964 -0.00026592 1.58135e-18)
(0.999902 5.13269e-05 -1.14226e-18)
(0.999765 0.00029115 2.31089e-19)
(0.999549 0.000372637 -1.90398e-18)
(0.999265 0.000254492 -4.70804e-20)
(0.998939 -6.525e-05 -4.83982e-19)
(0.998603 -0.000553634 7.83333e-19)
(0.998292 -0.00115732 -1.96651e-18)
(0.998034 -0.00181658 1.01576e-19)
(0.997846 -0.00247704 8.13243e-19)
(0.99774 -0.0030964 -2.70912e-19)
(0.997712 -0.00364698 1.55864e-18)
(0.997759 -0.00411426 -9.17939e-19)
(0.99787 -0.00449444 -2.25467e-18)
(0.998033 -0.00479098 2.76235e-18)
(0.998237 -0.00501209 1.0255e-18)
(0.998472 -0.00516831 2.5748e-19)
(0.998729 -0.0052709 6.59874e-19)
(0.999003 -0.00533135 5.74898e-19)
(0.999289 -0.00536133 -2.80118e-19)
(0.999579 -0.0053742 -2.54237e-20)
(0.999919 -0.0053804 -1.87696e-19)
(0.999975 -0.00546723 -3.54457e-19)
(1.00085 -0.00575269 3.1787e-19)
(0.999715 -0.0052336 1.12759e-19)
(0.999793 -0.000369238 1.61894e-19)
(0.999849 -0.000513533 3.41178e-20)
(0.999944 -0.000494525 -4.22773e-20)
(1.00007 -0.000287997 -2.76e-18)
(1.00019 7.73526e-05 2.13345e-19)
(1.00028 0.000517994 -1.35762e-18)
(1.00031 0.000919522 1.06927e-18)
(1.00026 0.00117702 -9.00061e-19)
(1.00012 0.00121445 1.65289e-18)
(0.999905 0.00100625 1.21512e-18)
(0.999643 0.000571372 -5.64347e-19)
(0.999366 -3.70264e-05 -5.37328e-19)
(0.999107 -0.00074863 2.81612e-18)
(0.998893 -0.0014925 -9.37102e-19)
(0.998744 -0.00220799 7.06905e-19)
(0.998667 -0.0028512 4.4744e-19)
(0.998663 -0.00339518 -1.57195e-18)
(0.998726 -0.00382804 2.21068e-18)
(0.998847 -0.00414868 1.27587e-18)
(0.999016 -0.00436348 -3.12153e-19)
(0.99922 -0.00448259 1.88129e-18)
(0.999451 -0.00451799 1.58956e-18)
(0.9997 -0.00448134 1.1339e-18)
(0.999959 -0.00438403 2.13146e-19)
(1.00022 -0.00423713 -3.48977e-19)
(1.00048 -0.00405538 7.68124e-20)
(1.00075 -0.00383856 -4.76311e-19)
(1.0008 -0.00371902 4.42676e-19)
(1.0011 -0.00379894 -9.81183e-20)
(1.00084 -0.00246863 -1.78251e-19)
(0.999755 -0.000357968 -2.2993e-19)
(0.999846 -0.00033703 9.28072e-20)
(0.999994 -0.000162349 8.0043e-19)
(1.00019 0.000174712 2.08121e-18)
(1.0004 0.000632314 1.50904e-19)
(1.0006 0.00112205 1.66565e-19)
(1.00076 0.00153174 -1.18141e-18)
(1.00084 0.00176648 -6.69463e-20)
(1.00084 0.00176415 -8.411e-19)
(1.00076 0.00151323 -2.81235e-19)
(1.00063 0.00104448 4.13534e-19)
(1.00046 0.000418086 -3.40392e-19)
(1.00029 -0.000292157 -1.08523e-18)
(1.00015 -0.00101558 6.28031e-19)
(1.00004 -0.00169351 5.48525e-20)
(0.999982 -0.00228547 1.56147e-18)
(0.999976 -0.00276776 -4.22253e-19)
(1.00002 -0.00313181 -7.83316e-19)
(1.00011 -0.00337916 -1.00654e-18)
(1.00023 -0.00351881 -2.76696e-18)
(1.00038 -0.00356314 -6.62841e-19)
(1.00055 -0.00352665 -1.46689e-18)
(1.00073 -0.00342399 -1.138e-18)
(1.00091 -0.00327089 -8.07447e-19)
(1.00108 -0.00308471 9.66829e-19)
(1.00124 -0.00289099 -5.25193e-19)
(1.00138 -0.00269926 2.62093e-19)
(1.00134 -0.00265758 3.64709e-19)
(1.00137 -0.00292141 -3.66384e-19)
(1.00061 -0.00197897 1.04096e-19)
(0.999756 -0.000335335 4.16429e-20)
(0.999866 -0.000201854 -1.15526e-19)
(1.00004 6.33128e-05 -6.42518e-20)
(1.00028 0.000456801 -3.49333e-20)
(1.00054 0.000930928 -1.03659e-18)
(1.00081 0.00140133 1.83981e-19)
(1.00105 0.00176613 -4.14168e-19)
(1.00124 0.00194491 -5.33083e-19)
(1.00135 0.00188996 1.02286e-18)
(1.00138 0.00160051 -2.57348e-19)
(1.00136 0.00111367 1.04947e-18)
(1.00129 0.000490679 1.16685e-18)
(1.0012 -0.000196898 -1.06621e-18)
(1.00111 -0.000882873 -1.13073e-18)
(1.00104 -0.00151357 -1.71163e-18)
(1.00099 -0.00205345 -1.54917e-18)
(1.00098 -0.00248287 3.21619e-19)
(1.001 -0.00279667 -4.61487e-19)
(1.00106 -0.00299901 2.52411e-18)
(1.00113 -0.00310117 5.6744e-19)
(1.00123 -0.0031177 -1.67369e-18)
(1.00133 -0.00306548 -5.13974e-19)
(1.00144 -0.00296209 2.66904e-19)
(1.00154 -0.00282683 3.63869e-19)
(1.00163 -0.00268144 -6.56661e-19)
(1.00169 -0.00255656 4.71079e-19)
(1.00172 -0.00246423 1.27096e-19)
(1.0016 -0.00253248 -7.74215e-19)
(1.00157 -0.00294183 1.75341e-19)
(1.00046 -0.00218441 5.02702e-20)
(0.999784 -0.000313206 -5.10868e-20)
(0.999898 -0.000116678 1.79732e-19)
(1.00008 0.00018409 -1.36433e-18)
(1.00032 0.000577201 -4.8111e-19)
(1.0006 0.00101348 6.23413e-19)
(1.00089 0.00141691 1.68291e-18)
(1.00117 0.00169941 1.44579e-18)
(1.00141 0.00179634 5.82169e-20)
(1.00159 0.00167383 3.07894e-19)
(1.00171 0.00133972 9.81582e-19)
(1.00176 0.000834397 -7.77721e-19)
(1.00177 0.000217152 -1.40376e-18)
(1.00174 -0.000445346 4.0998e-19)
(1.0017 -0.0010933 1.83003e-18)
(1.00167 -0.00167929 3.77738e-18)
(1.00164 -0.00217313 -1.24787e-20)
(1.00163 -0.00255937 5.93606e-19)
(1.00164 -0.00283587 2.09955e-18)
(1.00166 -0.00300883 -2.06186e-18)
(1.0017 -0.00309098 1.32405e-18)
(1.00176 -0.00309796 1.58405e-18)
(1.00181 -0.0030476 8.99773e-19)
(1.00187 -0.00295829 6.71853e-19)
(1.00191 -0.00284982 -2.73124e-20)
(1.00194 -0.00274356 -2.58186e-19)
(1.00194 -0.00266771 7.85737e-19)
(1.00191 -0.00262836 3.4437e-19)
(1.00175 -0.00272337 4.68383e-19)
(1.0017 -0.00314539 2.79995e-19)
(1.0005 -0.00236774 -2.42842e-19)
(0.999828 -0.00029582 6.86296e-20)
(0.999933 -7.6408e-05 3.30302e-19)
(1.0001 0.000217512 7.18528e-19)
(1.00032 0.000569724 6.40202e-19)
(1.00059 0.00093275 1.79325e-18)
(1.00088 0.00124113 -9.85557e-19)
(1.00117 0.00142184 -1.23118e-18)
(1.00144 0.00142564 7.27474e-19)
(1.00166 0.00123111 -1.00893e-18)
(1.00183 0.000852628 -4.08824e-19)
(1.00194 0.000331674 -2.22555e-18)
(1.002 -0.000276214 1.55017e-18)
(1.00203 -0.00091058 7.75227e-19)
(1.00203 -0.00151878 1.97064e-19)
(1.00203 -0.00205987 -2.18885e-18)
(1.00202 -0.00250892 3.85363e-19)
(1.00202 -0.0028542 -7.40686e-19)
(1.00202 -0.00309601 -2.73677e-18)
(1.00204 -0.00324184 -7.30856e-20)
(1.00206 -0.003305 -2.32597e-18)
(1.00209 -0.00330109 -2.10489e-18)
(1.00211 -0.0032476 -8.1363e-19)
(1.00214 -0.00316209 -5.79192e-19)
(1.00215 -0.00306283 -6.78076e-19)
(1.00214 -0.0029684 -4.66066e-19)
(1.00211 -0.00290212 -2.00103e-18)
(1.00203 -0.00286337 1.45658e-19)
(1.00185 -0.00292723 8.28377e-19)
(1.0018 -0.00330119 1.4701e-19)
(1.0006 -0.00245231 2.71384e-19)
(0.999877 -0.000285954 2.8168e-19)
(0.999967 -7.64465e-05 -6.60588e-19)
(1.00011 0.000178293 -9.303e-19)
(1.00031 0.000462623 -5.15534e-19)
(1.00055 0.000732716 -4.67958e-19)
(1.00082 0.00093429 -6.20325e-19)
(1.00111 0.00100887 9.91345e-19)
(1.00138 0.00092109 -2.03064e-18)
(1.00162 0.000659887 -7.00257e-19)
(1.00182 0.000244053 1.51848e-18)
(1.00198 -0.000285434 2.08578e-18)
(1.00209 -0.000877878 -8.57599e-19)
(1.00216 -0.00147948 -2.61047e-18)
(1.0022 -0.00204478 -9.85049e-19)
(1.00223 -0.00253899 5.22746e-20)
(1.00224 -0.00294198 1.3573e-19)
(1.00225 -0.00324513 3.2484e-19)
(1.00226 -0.00345061 -6.97641e-19)
(1.00228 -0.00356655 2.22552e-18)
(1.00229 -0.00360623 1.54239e-18)
(1.0023 -0.00358457 1.37168e-18)
(1.00232 -0.00351804 3.70675e-19)
(1.00232 -0.0034227 -8.69066e-19)
(1.00231 -0.00331473 -5.12982e-19)
(1.00228 -0.00320969 8.20323e-19)
(1.00223 -0.00312662 1.47394e-18)
(1.00213 -0.00306051 -1.55281e-18)
(1.00193 -0.00307251 -1.35404e-18)
(1.00189 -0.00338597 3.02939e-19)
(1.00074 -0.00246097 -1.58826e-19)
(0.999916 -0.000284956 1.31171e-20)
(0.999992 -0.000109972 2.57449e-19)
(1.00012 8.33766e-05 1.10658e-18)
(1.00029 0.000284206 -1.34592e-20)
(1.0005 0.000453581 -8.62753e-19)
(1.00075 0.000547947 -1.28433e-19)
(1.00102 0.000521941 -8.57507e-19)
(1.00129 0.000351831 1.12989e-18)
(1.00154 3.46731e-05 1.58649e-19)
(1.00176 -0.000408192 -1.61842e-18)
(1.00195 -0.000937504 -2.67093e-18)
(1.00209 -0.00150792 -1.45816e-18)
(1.0022 -0.00207223 2.28875e-18)
(1.00228 -0.00259181 2.04506e-18)
(1.00233 -0.00303743 -1.45758e-18)
(1.00237 -0.00339316 -3.19164e-18)
(1.00239 -0.00365291 4.31347e-19)
(1.00242 -0.00382022 2.32816e-18)
(1.00243 -0.00390346 -2.34601e-18)
(1.00245 -0.0039155 1.47357e-18)
(1.00246 -0.00387032 -1.37095e-18)
(1.00246 -0.00378316 -2.55705e-19)
(1.00246 -0.00366852 6.68733e-19)
(1.00244 -0.00354065 1.01166e-18)
(1.0024 -0.00341269 -2.34861e-19)
(1.00233 -0.00330062 -1.15658e-18)
(1.00222 -0.00319702 -4.02792e-19)
(1.00201 -0.00315485 -1.66919e-20)
(1.00197 -0.00341172 4.04447e-20)
(1.00087 -0.00241551 -1.05765e-19)
(0.999939 -0.000292058 -5.82093e-20)
(1.00001 -0.000168801 1.62735e-19)
(1.00011 -5.00479e-05 -3.95125e-19)
(1.00026 6.05489e-05 -1.75671e-19)
(1.00045 0.000129668 -1.08887e-18)
(1.00067 0.000123438 -3.25886e-19)
(1.00093 7.71826e-06 1.1928e-19)
(1.00119 -0.000231899 -1.07612e-18)
(1.00145 -0.000592377 -5.06497e-19)
(1.00168 -0.00105139 3.12469e-19)
(1.00189 -0.00157218 5.63382e-19)
(1.00206 -0.00211492 1.46241e-18)
(1.0022 -0.00263864 1.35281e-19)
(1.0023 -0.00311094 -4.25835e-18)
(1.00238 -0.0035075 -1.0368e-18)
(1.00244 -0.00381596 2.9113e-19)
(1.00249 -0.00403229 2.11477e-18)
(1.00252 -0.00416098 -8.02203e-19)
(1.00255 -0.00421035 1.53435e-18)
(1.00257 -0.00419274 1.99379e-18)
(1.00258 -0.0041211 9.3068e-19)
(1.00258 -0.00400951 -6.31451e-19)
(1.00257 -0.00387104 -1.22367e-18)
(1.00255 -0.00371841 1.00433e-18)
(1.0025 -0.00356296 -9.81297e-19)
(1.00243 -0.00341862 2.38317e-18)
(1.00231 -0.0032767 -4.89535e-19)
(1.00209 -0.00318522 1.63513e-19)
(1.00206 -0.00339392 -7.46778e-19)
(1.00101 -0.00233513 9.9475e-20)
(0.999943 -0.000305904 -2.96e-19)
(1 -0.000245343 -1.2332e-19)
(1.00009 -0.000207104 -6.51183e-20)
(1.00022 -0.000187104 8.26776e-19)
(1.00039 -0.000212568 1.86235e-18)
(1.0006 -0.000308998 2.09624e-18)
(1.00084 -0.000501315 1.78713e-18)
(1.0011 -0.000796764 -1.29944e-19)
(1.00136 -0.00118819 2.00938e-18)
(1.0016 -0.00165348 -5.156e-19)
(1.00183 -0.00215888 -1.29443e-19)
(1.00202 -0.00266993 2.73724e-18)
(1.00218 -0.00315144 3.14672e-18)
(1.00231 -0.00357652 4.81748e-19)
(1.00241 -0.00392508 1.7973e-18)
(1.00249 -0.00418779 1.92241e-19)
(1.00255 -0.00436221 -1.05183e-18)
(1.0026 -0.00445349 1.91292e-18)
(1.00264 -0.00446974 7.89412e-19)
(1.00266 -0.0044227 -4.21057e-18)
(1.00268 -0.00432432 6.73598e-19)
(1.00269 -0.00418764 8.84976e-19)
(1.00268 -0.00402453 1.43427e-20)
(1.00265 -0.0038465 -1.68116e-18)
(1.0026 -0.00366352 5.62245e-19)
(1.00252 -0.00348818 -2.15436e-18)
(1.00239 -0.00331101 1.08936e-18)
(1.00217 -0.00317691 -7.28944e-19)
(1.00214 -0.0033462 -2.77041e-19)
(1.00113 -0.00223219 1.25217e-20)
(0.999926 -0.000324327 2.19893e-19)
(0.999987 -0.000332506 -3.09546e-19)
(1.00006 -0.000375391 6.96127e-19)
(1.00018 -0.00044201 -5.41123e-19)
(1.00033 -0.000553412 -1.88034e-18)
(1.00053 -0.000728115 -8.18074e-19)
(1.00076 -0.000983701 -3.7525e-18)
(1.00101 -0.00132214 1.8322e-18)
(1.00127 -0.00173367 -1.29483e-19)
(1.00153 -0.00219725 1.75786e-19)
(1.00176 -0.00268232 4.3377e-19)
(1.00197 -0.00315956 -3.77172e-18)
(1.00215 -0.00359891 -2.52559e-18)
(1.0023 -0.00397834 3.11417e-18)
(1.00243 -0.00428136 3.88992e-19)
(1.00252 -0.00450111 1.1576e-18)
(1.0026 -0.0046364 -2.47245e-18)
(1.00266 -0.00469282 -1.79077e-18)
(1.00271 -0.00467816 1.53178e-18)
(1.00275 -0.00460352 1.41653e-18)
(1.00277 -0.00447997 -1.93884e-18)
(1.00278 -0.00431957 -1.04376e-18)
(1.00277 -0.00413323 1.35253e-18)
(1.00274 -0.00393143 5.45308e-19)
(1.00269 -0.00372315 8.58205e-19)
(1.00261 -0.00351994 3.96469e-19)
(1.00247 -0.00331181 3.323e-19)
(1.00225 -0.00314165 1.69825e-18)
(1.00221 -0.00327899 -5.82194e-19)
(1.00125 -0.00211663 -2.57702e-19)
(0.999888 -0.000345519 -6.49763e-20)
(0.999951 -0.000424833 1.00892e-18)
(1.00002 -0.000545625 6.93612e-19)
(1.00013 -0.000692264 -6.05823e-20)
(1.00028 -0.000879644 -1.93237e-19)
(1.00046 -0.00112062 1.46469e-18)
(1.00069 -0.00142711 1.54043e-18)
(1.00094 -0.00179734 -1.44614e-18)
(1.0012 -0.00222014 -1.53265e-18)
(1.00146 -0.00267608 -6.08257e-19)
(1.00171 -0.00313785 -2.92234e-19)
(1.00193 -0.00358083 2.76564e-18)
(1.00213 -0.00397952 -4.90856e-18)
(1.00229 -0.00431608 -6.99223e-19)
(1.00243 -0.00457701 -8.18845e-19)
(1.00255 -0.00475752 1.11608e-18)
(1.00264 -0.00485732 2.55503e-18)
(1.00272 -0.00488227 4.1523e-18)
(1.00278 -0.00483979 -4.81816e-18)
(1.00282 -0.00474035 2.9949e-19)
(1.00285 -0.00459417 2.36657e-18)
(1.00286 -0.00441248 1.65883e-18)
(1.00286 -0.00420533 4.43535e-20)
(1.00283 -0.00398235 5.32934e-19)
(1.00277 -0.00375169 1.8859e-18)
(1.00269 -0.00352409 1.43181e-18)
(1.00255 -0.00328912 2.61306e-18)
(1.00233 -0.00308831 -1.19577e-19)
(1.00229 -0.00319965 9.192e-19)
(1.00136 -0.00199342 2.20683e-19)
(0.99983 -0.000367628 -1.16378e-19)
(0.999897 -0.000517808 -5.76324e-19)
(0.999963 -0.000710913 -9.72333e-19)
(1.00007 -0.000929549 1.11652e-19)
(1.00021 -0.00118269 1.45481e-18)
(1.0004 -0.00147872 7.42203e-19)
(1.00062 -0.00182528 -1.74722e-19)
(1.00087 -0.00221812 7.80719e-19)
(1.00113 -0.00264546 1.41255e-18)
(1.0014 -0.00308982 7.21677e-19)
(1.00165 -0.00352702 7.90863e-19)
(1.00189 -0.00393669 1.29671e-19)
(1.0021 -0.00429729 1.30901e-18)
(1.00228 -0.00459454 8.38547e-19)
(1.00244 -0.00481746 1.60985e-18)
(1.00257 -0.00496288 -1.02395e-18)
(1.00268 -0.00503123 9.9225e-20)
(1.00277 -0.00502847 -1.80778e-18)
(1.00284 -0.00496161 -1.17202e-18)
(1.00289 -0.0048405 -5.89416e-20)
(1.00292 -0.00467459 8.43941e-19)
(1.00294 -0.00447436 -1.71693e-18)
(1.00294 -0.00424908 -6.0312e-19)
(1.00291 -0.00400766 -8.85612e-19)
(1.00285 -0.00375749 -1.72322e-18)
(1.00277 -0.00350869 -6.59888e-19)
(1.00263 -0.00325042 -4.25845e-18)
(1.0024 -0.00302331 -1.83558e-18)
(1.00236 -0.00311312 -2.57907e-19)
(1.00148 -0.00186707 3.27029e-19)
(0.999754 -0.000389426 -9.73208e-20)
(0.999825 -0.000608402 -5.33278e-19)
(0.99989 -0.000866866 -8.02327e-20)
(0.999994 -0.00114902 -1.26103e-18)
(1.00014 -0.00145819 1.47087e-19)
(1.00032 -0.00179928 -2.6003e-20)
(1.00055 -0.00217684 3.75106e-19)
(1.0008 -0.00258503 8.73565e-19)
(1.00107 -0.00301207 -1.38156e-18)
(1.00134 -0.00344258 7.0357e-19)
(1.0016 -0.00385527 1.39888e-18)
(1.00185 -0.00423357 -8.10754e-19)
(1.00207 -0.00455931 3.12062e-18)
(1.00227 -0.00482125 -2.43707e-19)
(1.00244 -0.00501046 -4.36461e-18)
(1.00258 -0.00512508 -2.59751e-18)
(1.0027 -0.00516606 -9.94204e-19)
(1.0028 -0.00513935 -1.00898e-18)
(1.00288 -0.00505154 2.93772e-18)
(1.00295 -0.00491187 -2.08928e-19)
(1.00299 -0.00472907 -3.18504e-18)
(1.00301 -0.00451294 2.62266e-18)
(1.00301 -0.00427205 2.55696e-18)
(1.00298 -0.00401464 9.29091e-19)
(1.00293 -0.00374746 -1.22566e-18)
(1.00284 -0.00348005 -4.46732e-20)
(1.0027 -0.00320124 3.62848e-18)
(1.00248 -0.00295104 2.58525e-18)
(1.00244 -0.00302262 -2.46411e-19)
(1.00158 -0.00173896 -3.33812e-19)
(0.999663 -0.000409786 1.24271e-19)
(0.999738 -0.000694176 9.61234e-19)
(0.999804 -0.0010107 -6.01519e-19)
(0.999911 -0.00134801 1.07613e-18)
(1.00006 -0.00170429 -3.61013e-19)
(1.00025 -0.00208185 -3.09721e-18)
(1.00047 -0.00248303 5.01292e-19)
(1.00073 -0.00290109 -2.8457e-18)
(1.001 -0.00332464 -9.90518e-19)
(1.00128 -0.00374036 -1.54762e-18)
(1.00155 -0.00412958 -3.42055e-18)
(1.00181 -0.00447907 -7.31339e-19)
(1.00204 -0.00477355 7.66962e-19)
(1.00225 -0.00500429 -8.88579e-19)
(1.00243 -0.00516406 6.30713e-18)
(1.00259 -0.00525203 3.26006e-19)
(1.00272 -0.00526951 7.78925e-19)
(1.00284 -0.00522236 1.77215e-18)
(1.00293 -0.00511675 -4.54874e-19)
(1.003 -0.00496134 2.69823e-18)
(1.00305 -0.00476419 1.10285e-18)
(1.00307 -0.00453447 1.32825e-18)
(1.00308 -0.0042801 -2.68621e-18)
(1.00305 -0.00400874 5.08098e-19)
(1.003 -0.00372653 2.88474e-19)
(1.00291 -0.00344255 -2.04185e-18)
(1.00277 -0.00314532 -9.35437e-19)
(1.00255 -0.00287451 -5.10147e-19)
(1.00251 -0.00293023 5.25689e-19)
(1.00168 -0.00161126 -3.44168e-20)
(0.999557 -0.00042825 -1.84742e-19)
(0.999635 -0.000773964 -3.32133e-19)
(0.999705 -0.00114128 1.54127e-18)
(0.999817 -0.00152594 -1.74494e-18)
(0.99997 -0.0019215 -6.38166e-19)
(1.00016 -0.00232834 1.72615e-18)
(1.00039 -0.00274732 -1.95833e-18)
(1.00065 -0.00317126 2.57595e-18)
(1.00093 -0.00358936 3.30994e-18)
(1.00122 -0.00399031 2.34938e-19)
(1.00149 -0.00435775 2.51958e-18)
(1.00176 -0.00468132 -1.94503e-18)
(1.002 -0.0049482 -2.69112e-18)
(1.00222 -0.00515174 -1.21321e-18)
(1.00242 -0.00528609 -9.14338e-19)
(1.00259 -0.00535123 3.36563e-18)
(1.00274 -0.00534872 -1.2724e-18)
(1.00286 -0.00528429 -3.2155e-18)
(1.00296 -0.00516365 7.65122e-19)
(1.00304 -0.00499493 -4.66315e-18)
(1.0031 -0.00478558 6.67402e-20)
(1.00313 -0.00454417 -4.10411e-18)
(1.00314 -0.00427804 3.41753e-18)
(1.00312 -0.0039943 -1.84994e-18)
(1.00307 -0.00369855 -6.80968e-19)
(1.00298 -0.00339948 9.36297e-19)
(1.00284 -0.00308537 -4.36295e-19)
(1.00262 -0.00279562 -1.78478e-18)
(1.00258 -0.00283722 2.14959e-19)
(1.00178 -0.00148384 7.1439e-20)
(0.999439 -0.000444426 1.40855e-19)
(0.99952 -0.000846898 -4.67094e-19)
(0.999594 -0.0012583 3.59618e-20)
(0.999712 -0.00168324 2.91806e-18)
(0.999872 -0.00211132 1.86906e-18)
(1.00007 -0.00254157 -9.74614e-20)
(1.00031 -0.00297386 4.81722e-18)
(1.00057 -0.0034009 -1.59619e-18)
(1.00086 -0.00381259 -3.05173e-18)
(1.00115 -0.00419946 -1.09276e-18)
(1.00143 -0.00454717 -1.67189e-18)
(1.00171 -0.00484784 -2.01017e-18)
(1.00196 -0.00509065 2.20194e-18)
(1.00219 -0.00527074 3.75301e-18)
(1.0024 -0.00538335 -7.40868e-19)
(1.00258 -0.00542907 5.26007e-19)
(1.00274 -0.00540964 -9.49974e-19)
(1.00288 -0.00533061 2.30516e-18)
(1.00299 -0.00519728 -1.9075e-18)
(1.00308 -0.00501726 2.35229e-18)
(1.00314 -0.00479742 -7.14763e-19)
(1.00319 -0.00454579 -3.77567e-19)
(1.0032 -0.0042692 -8.98935e-19)
(1.00318 -0.00397423 1.36456e-18)
(1.00313 -0.00366602 1.02632e-18)
(1.00305 -0.00335294 1.04152e-18)
(1.00291 -0.00302307 -5.57861e-19)
(1.00269 -0.00271569 1.07934e-18)
(1.00265 -0.00274434 4.23657e-19)
(1.00188 -0.00135793 9.63729e-20)
(0.999309 -0.000458425 -1.40403e-19)
(0.999392 -0.000913024 -3.80213e-19)
(0.999471 -0.00136242 -4.85558e-19)
(0.999596 -0.00182144 -1.61478e-18)
(0.999764 -0.00227638 -3.02846e-20)
(0.99997 -0.00272533 2.00493e-18)
(1.00021 -0.00316755 -3.52828e-18)
(1.00049 -0.00359586 8.88722e-19)
(1.00077 -0.00400087 2.10062e-18)
(1.00107 -0.00437477 1.94055e-18)
(1.00137 -0.00470493 1.64252e-18)
(1.00165 -0.00498562 -2.28915e-19)
(1.00191 -0.00520768 5.99315e-19)
(1.00216 -0.00536771 -3.87034e-18)
(1.00238 -0.00546182 4.23748e-18)
(1.00257 -0.00549111 -1.65197e-18)
(1.00274 -0.00545738 -1.57673e-19)
(1.00289 -0.00536602 -1.25668e-18)
(1.00301 -0.00522191 1.74058e-18)
(1.00311 -0.00503217 -2.10643e-18)
(1.00319 -0.00480317 -1.87015e-18)
(1.00323 -0.00454244 1.20559e-18)
(1.00325 -0.00425631 -3.55839e-18)
(1.00324 -0.00395091 -2.39443e-18)
(1.0032 -0.00363098 9.86705e-19)
(1.00312 -0.00330459 -1.96578e-18)
(1.00298 -0.00295968 -7.93975e-19)
(1.00277 -0.00263549 2.16736e-19)
(1.00273 -0.00265203 -2.65272e-20)
(1.00198 -0.00123282 -4.5407e-19)
(0.99917 -0.000470289 3.92289e-20)
(0.999253 -0.000972353 7.50631e-19)
(0.999339 -0.00145452 -1.46898e-18)
(0.999472 -0.00194232 1.58383e-18)
(0.999647 -0.00241943 -4.0534e-19)
(0.999861 -0.00288337 -3.76053e-18)
(1.00011 -0.00333305 1.244e-18)
(1.00039 -0.00376152 -8.28973e-19)
(1.00069 -0.00416006 -1.01443e-18)
(1.00099 -0.00452234 -8.53511e-19)
(1.00129 -0.00483717 9.56657e-19)
(1.00159 -0.00510063 3.79306e-18)
(1.00186 -0.00530495 -2.02758e-18)
(1.00211 -0.00544791 2.36671e-18)
(1.00235 -0.00552634 -4.21759e-18)
(1.00255 -0.00554171 -1.7839e-18)
(1.00274 -0.00549588 2.49103e-18)
(1.0029 -0.00539401 2.10688e-18)
(1.00303 -0.00524063 -1.16167e-18)
(1.00314 -0.00504241 5.22924e-18)
(1.00322 -0.00480522 5.09631e-18)
(1.00328 -0.00453615 -2.48464e-18)
(1.00331 -0.00424111 3.13368e-18)
(1.0033 -0.00392581 1.14165e-18)
(1.00326 -0.00359461 -2.33367e-18)
(1.00318 -0.00325539 1.58826e-18)
(1.00305 -0.00289597 3.10924e-18)
(1.00284 -0.00255561 6.60125e-19)
(1.0028 -0.00256058 -3.86334e-19)
(1.00208 -0.00110944 3.24672e-19)
(0.999023 -0.000480414 3.96291e-19)
(0.999105 -0.00102559 1.09993e-19)
(0.999197 -0.00153602 1.09975e-18)
(0.999339 -0.00204815 -1.46613e-18)
(0.999522 -0.00254365 9.82676e-19)
(0.999745 -0.00301971 -5.59265e-19)
(1 -0.00347511 2.23797e-18)
(1.00029 -0.00390315 -7.97e-19)
(1.00059 -0.00429573 -1.07684e-18)
(1.00091 -0.00464782 -1.21929e-18)
(1.00122 -0.00494944 -3.81172e-18)
(1.00152 -0.00519817 1.28884e-18)
(1.0018 -0.00538739 7.57051e-19)
(1.00207 -0.0055159 1.24283e-18)
(1.00231 -0.00558104 -5.74793e-19)
(1.00253 -0.00558462 1.637e-18)
(1.00273 -0.00552846 -3.70692e-18)
(1.0029 -0.00541756 -3.92737e-18)
(1.00305 -0.00525608 7.24671e-20)
(1.00317 -0.00505027 -3.6582e-18)
(1.00326 -0.00480559 2.287e-19)
(1.00332 -0.00452869 2.21709e-18)
(1.00336 -0.00422512 -1.57215e-18)
(1.00336 -0.0039002 8.68858e-20)
(1.00332 -0.00355798 1.01348e-18)
(1.00325 -0.00320617 -5.86716e-19)
(1.00312 -0.00283251 -3.42909e-18)
(1.00291 -0.0024763 -1.69542e-18)
(1.00287 -0.00247007 5.26716e-19)
(1.00217 -0.000986847 3.90922e-19)
(0.998867 -0.000489019 -2.89068e-19)
(0.99895 -0.00107318 3.2591e-19)
(0.999048 -0.00160823 -4.47392e-19)
(0.999198 -0.00214101 1.02929e-18)
(0.99939 -0.00265186 -1.16724e-18)
(0.999621 -0.00313788 -8.25394e-19)
(0.999888 -0.0035978 -2.97352e-18)
(1.00018 -0.00402521 3.3978e-18)
(1.00049 -0.00441253 4.63632e-18)
(1.00081 -0.00475589 1.04933e-18)
(1.00113 -0.00504624 6.49318e-19)
(1.00144 -0.0052825 -4.56335e-19)
(1.00174 -0.00545895 7.10136e-19)
(1.00202 -0.00557522 -1.56945e-19)
(1.00227 -0.0056291 3.12375e-18)
(1.00251 -0.0056226 1.19842e-18)
(1.00271 -0.00555755 1.48095e-18)
(1.0029 -0.00543875 1.83238e-19)
(1.00306 -0.00527003 3.34504e-18)
(1.00319 -0.00505727 1.90598e-18)
(1.00329 -0.00480553 -2.69547e-18)
(1.00336 -0.00452111 -2.08312e-18)
(1.00341 -0.00420919 1.39301e-18)
(1.00341 -0.00387477 2.40858e-19)
(1.00338 -0.00352163 2.1829e-19)
(1.00332 -0.00315735 -2.46409e-19)
(1.00319 -0.00276964 2.01266e-18)
(1.00298 -0.00239784 8.98019e-19)
(1.00295 -0.00238058 -2.43327e-18)
(1.00227 -0.000865886 -4.00578e-20)
(0.998705 -0.000496569 1.37685e-19)
(0.998786 -0.00111609 1.39754e-19)
(0.998892 -0.0016727 1.02756e-18)
(0.99905 -0.00222316 -4.80708e-19)
(0.999251 -0.00274702 -1.95868e-18)
(0.999491 -0.00324139 1.23925e-19)
(0.999766 -0.00370507 -3.37273e-18)
(1.00007 -0.00413192 9.19956e-19)
(1.00039 -0.00451478 -3.57866e-18)
(1.00072 -0.00485076 -1.17904e-18)
(1.00104 -0.00513162 -9.14238e-19)
(1.00137 -0.00535736 1.22027e-18)
(1.00167 -0.00552303 -7.5289e-19)
(1.00196 -0.00562893 1.85728e-19)
(1.00223 -0.0056732 -7.84872e-19)
(1.00248 -0.00565803 -3.22839e-18)
(1.0027 -0.00558522 -2.48548e-19)
(1.00289 -0.00545939 2.12981e-18)
(1.00306 -0.00528406 -2.25595e-18)
(1.00321 -0.00506478 1.73689e-18)
(1.00332 -0.00480623 -4.03457e-18)
(1.0034 -0.00451441 2.08557e-18)
(1.00346 -0.00419418 -3.01634e-18)
(1.00347 -0.00385024 9.72552e-19)
(1.00344 -0.00348615 -8.66447e-19)
(1.00338 -0.00310938 -8.09071e-21)
(1.00327 -0.00270762 -1.28268e-18)
(1.00306 -0.00232026 -1.28394e-18)
(1.00302 -0.00229205 1.20959e-18)
(1.00237 -0.000745517 1.448e-19)
(0.998536 -0.000503292 -3.75286e-19)
(0.998617 -0.00115487 -1.36456e-18)
(0.99873 -0.0017307 -1.1035e-18)
(0.998896 -0.00229649 5.09218e-19)
(0.999106 -0.00283153 5.58447e-19)
(0.999354 -0.00333312 3.22809e-18)
(0.999638 -0.00380011 5.28715e-18)
(0.999949 -0.00422663 -6.06678e-18)
(1.00028 -0.00460586 8.88013e-19)
(1.00062 -0.00493577 -7.7185e-19)
(1.00095 -0.00520871 5.68227e-18)
(1.00128 -0.00542564 -2.05214e-18)
(1.0016 -0.00558222 -5.25573e-19)
(1.0019 -0.00567931 4.11974e-19)
(1.00219 -0.00571534 -4.42063e-18)
(1.00244 -0.00569262 1.19865e-18)
(1.00268 -0.00561291 9.3029e-19)
(1.00289 -0.00548068 6.55478e-19)
(1.00307 -0.00529917 9.85554e-19)
(1.00323 -0.00507359 -9.36142e-19)
(1.00335 -0.00480835 1.00796e-18)
(1.00344 -0.00450912 -2.0501e-18)
(1.0035 -0.0041805 2.71559e-18)
(1.00353 -0.00382694 2.44419e-18)
(1.00351 -0.00345178 3.16435e-18)
(1.00345 -0.00306243 -2.00499e-19)
(1.00334 -0.0026466 4.53088e-19)
(1.00314 -0.00224375 1.11513e-19)
(1.0031 -0.00220456 -4.97227e-19)
(1.00247 -0.000626646 -3.35286e-19)
(0.998362 -0.000509604 3.22471e-19)
(0.998442 -0.00119049 8.60077e-19)
(0.998563 -0.00178365 -1.3613e-19)
(0.998737 -0.00236294 3.59612e-19)
(0.998956 -0.00290783 -1.34235e-19)
(0.999213 -0.00341586 -2.16962e-18)
(0.999506 -0.00388596 -2.57538e-20)
(0.999825 -0.00431251 2.32646e-18)
(1.00016 -0.00468892 3.30411e-18)
(1.00051 -0.00501391 5.79036e-18)
(1.00086 -0.00528032 2.05404e-18)
(1.0012 -0.00548989 1.93119e-18)
(1.00153 -0.00563879 -1.71097e-18)
(1.00184 -0.00572837 -2.77436e-18)
(1.00214 -0.00575724 6.91261e-18)
(1.00241 -0.00572785 3.28147e-18)
(1.00266 -0.0056419 -5.97318e-18)
(1.00288 -0.00550372 -3.13887e-18)
(1.00308 -0.00531629 -5.46553e-18)
(1.00324 -0.00508454 -2.26843e-18)
(1.00338 -0.00481259 2.42212e-18)
(1.00348 -0.00450584 3.90194e-18)
(1.00355 -0.00416868 -5.59204e-18)
(1.00358 -0.0038053 -9.63857e-19)
(1.00357 -0.00341887 -2.79642e-18)
(1.00352 -0.00301678 8.75151e-19)
(1.00341 -0.00258673 -1.83556e-18)
(1.00321 -0.00216822 -1.75007e-18)
(1.00318 -0.00211797 6.01738e-19)
(1.00257 -0.000508173 -2.26325e-19)
(0.998182 -0.00051567 5.60656e-20)
(0.998262 -0.00122344 6.54732e-19)
(0.99839 -0.00183261 8.07514e-19)
(0.998574 -0.002424 -1.37752e-18)
(0.998801 -0.00297776 8.3752e-19)
(0.999067 -0.00349173 1.26318e-18)
(0.999369 -0.00396492 -1.8532e-18)
(0.999698 -0.00439192 1.85384e-18)
(1.00005 -0.00476631 4.47627e-19)
(1.0004 -0.00508744 -6.61567e-18)
(1.00076 -0.00534851 -2.45162e-18)
(1.00111 -0.00555198 -3.01639e-18)
(1.00146 -0.00569438 4.17413e-19)
(1.00178 -0.0057775 2.20564e-18)
(1.00209 -0.0058001 -3.86775e-18)
(1.00238 -0.00576472 -1.71549e-18)
(1.00264 -0.00567302 5.36143e-18)
(1.00287 -0.00552918 5.49325e-18)
(1.00308 -0.00533596 6.64705e-19)
(1.00326 -0.00509804 4.02612e-18)
(1.00341 -0.00481927 -2.13981e-18)
(1.00352 -0.00450482 2.24676e-19)
(1.0036 -0.00415889 8.29618e-18)
(1.00364 -0.00378545 -2.91369e-18)
(1.00364 -0.00338752 -7.01218e-19)
(1.00359 -0.00297248 -1.17783e-18)
(1.00349 -0.00252805 -3.62275e-19)
(1.00329 -0.00209382 4.49237e-18)
(1.00326 -0.00203232 8.12601e-19)
(1.00268 -0.000391031 4.22384e-19)
(0.997998 -0.000521819 -9.82097e-20)
(0.998078 -0.00125459 -9.69035e-19)
(0.998214 -0.00187871 4.09699e-21)
(0.998405 -0.00248122 -5.26249e-19)
(0.998641 -0.00304319 -5.85658e-19)
(0.998917 -0.00356283 -1.67784e-18)
(0.999228 -0.00403923 -2.80049e-19)
(0.999567 -0.00446713 -2.93592e-18)
(0.999924 -0.00484023 -5.00931e-18)
(1.00029 -0.00515843 3.75971e-18)
(1.00066 -0.00541519 -7.59696e-18)
(1.00103 -0.00561359 9.20945e-19)
(1.00138 -0.00575048 7.84884e-19)
(1.00172 -0.005828 1.96255e-18)
(1.00204 -0.00584503 -1.48192e-18)
(1.00234 -0.00580418 -5.99741e-19)
(1.00262 -0.00570706 6.86988e-19)
(1.00287 -0.00555774 -5.73286e-18)
(1.00309 -0.00535877 3.67274e-18)
(1.00328 -0.00511459 -3.15882e-19)
(1.00344 -0.00482883 1.38581e-18)
(1.00356 -0.00450645 3.78447e-18)
(1.00365 -0.00415147 -5.58787e-18)
(1.0037 -0.00376767 1.88283e-19)
(1.0037 -0.00335795 9.11047e-19)
(1.00366 -0.00292969 -1.14427e-18)
(1.00357 -0.00247064 4.67741e-18)
(1.00338 -0.0020204 8.74981e-20)
(1.00335 -0.00194749 -7.56893e-19)
(1.00278 -0.000274076 -2.31374e-19)
(0.997809 -0.000528136 -2.50265e-19)
(0.99789 -0.00128431 1.12735e-20)
(0.998033 -0.00192278 5.61416e-19)
(0.998234 -0.00253569 -3.39263e-19)
(0.998478 -0.00310543 -1.29837e-19)
(0.998763 -0.00363064 -1.17499e-18)
(0.999084 -0.00411044 1.51093e-18)
(0.999432 -0.00453974 1.58857e-18)
(0.9998 -0.00491223 -1.98576e-18)
(1.00018 -0.00522834 1.49751e-18)
(1.00056 -0.0054817 1.07154e-17)
(1.00094 -0.00567592 2.45434e-18)
(1.0013 -0.00580811 -5.5536e-18)
(1.00166 -0.00588072 -1.44315e-18)
(1.00199 -0.00589272 3.16582e-18)
(1.00231 -0.00584678 1.04791e-18)
(1.0026 -0.00574446 3.2538e-18)
(1.00286 -0.00558975 4.10971e-18)
(1.00309 -0.00538498 3.18306e-18)
(1.0033 -0.0051344 -3.09628e-18)
(1.00347 -0.00484142 -3.96277e-18)
(1.00361 -0.00451083 -5.27728e-18)
(1.0037 -0.00414648 3.57582e-19)
(1.00376 -0.003752 2.46928e-18)
(1.00377 -0.00333019 2.79796e-18)
(1.00374 -0.00288844 5.88338e-20)
(1.00365 -0.00241453 3.15645e-19)
(1.00346 -0.00194813 4.67287e-19)
(1.00343 -0.00186353 -1.80506e-19)
(1.00289 -0.000158347 1.26806e-19)
(0.997616 -0.000534864 3.7731e-19)
(0.997698 -0.00131332 -4.13755e-19)
(0.997849 -0.00196568 3.90702e-21)
(0.998058 -0.00258857 1.55089e-18)
(0.998311 -0.00316588 1.14037e-18)
(0.998606 -0.00369669 2.90862e-18)
(0.998936 -0.00418017 -3.92057e-18)
(0.999295 -0.00461134 3.64726e-18)
(0.999673 -0.00498385 -2.89837e-18)