/*--------------------------------*- C++ -*----------------------------------*\
  =========                 |
  \\      /  F ield         | OpenFOAM: The Open Source CFD Toolbox
   \\    /   O peration     | Website:  https://openfoam.org
    \\  /    A nd           | Version:  6.0
     \\/     M anipulation  |
\*---------------------------------------------------------------------------*/
FoamFile
{
    version     2.0;
    format      ascii;
    class       surfaceScalarField;
    location    "1.47";
    object      phi;
}
// * * * * * * * * * * * * * * * * * * * * * * * * * * * * * * * * * * * * * //

dimensions      [0 3 -1 0 0 0 0];

internalField   nonuniform List<scalar> 
26699
(
2.0051e-05
0.005201
3.9825e-10
4.0126e-05
0.0051116
5.9639e-05
0.0049351
7.8186e-05
0.0046741
9.5416e-05
0.0043332
0.00011102
0.0039182
0.00012472
0.0034362
0.00013626
0.0028953
0.00014546
0.002305
0.00015182
0.0016755
0.00015719
0.0010154
0.00046491
3.4483e-05
2.0051e-05
0.0051809
1.2344e-09
4.0127e-05
0.0050916
5.9641e-05
0.0049155
7.819e-05
0.0046556
9.5418e-05
0.004316
0.00011102
0.0039026
0.00012471
0.0034225
0.00013624
0.0028838
0.00014544
0.0022958
0.00015109
0.0016698
0.00015897
0.0010075
0.0005587
6.5178e-05
2.0052e-05
0.0051609
2.1273e-09
4.0129e-05
0.0050715
5.9643e-05
0.004896
7.8192e-05
0.004637
9.5421e-05
0.0042988
0.00011102
0.003887
0.00012471
0.0034088
0.00013622
0.0028723
0.00014545
0.0022865
0.00015035
0.0016649
0.00016029
0.00099758
0.0006286
9.0395e-05
2.0052e-05
0.0051408
3.0271e-09
4.013e-05
0.0050514
5.9645e-05
0.0048765
7.8195e-05
0.0046185
9.5423e-05
0.0042815
0.00011102
0.0038714
0.0001247
0.0033951
0.00013619
0.0028608
0.00014548
0.0022773
0.00014964
0.0016608
0.00016109
0.00098614
0.00067904
0.00011065
2.0052e-05
0.0051208
3.9277e-09
4.0131e-05
0.0050313
5.9648e-05
0.004857
7.8198e-05
0.0045999
9.5426e-05
0.0042643
0.00011103
0.0038558
0.0001247
0.0033814
0.00013617
0.0028493
0.00014553
0.0022679
0.00014898
0.0016573
0.00016137
0.00097375
0.00071369
0.00012672
2.0052e-05
0.0051007
4.829e-09
4.0133e-05
0.0050112
5.965e-05
0.0048375
7.8201e-05
0.0045814
9.5429e-05
0.0042471
0.00011103
0.0038402
0.0001247
0.0033678
0.00013614
0.0028379
0.0001456
0.0022584
0.0001484
0.0016545
0.00016122
0.00096093
0.0007356
0.00013931
2.0053e-05
0.0050807
5.7311e-09
4.0134e-05
0.0049912
5.9652e-05
0.004818
7.8204e-05
0.0045628
9.5432e-05
0.0042299
0.00011103
0.0038246
0.0001247
0.0033541
0.00013611
0.0028265
0.00014568
0.0022489
0.00014791
0.0016523
0.00016072
0.00094812
0.00074735
0.00014897
2.0053e-05
0.0050606
6.634e-09
4.0136e-05
0.0049711
5.9654e-05
0.0047985
7.8207e-05
0.0045443
9.5435e-05
0.0042126
0.00011103
0.003809
0.0001247
0.0033404
0.00013608
0.0028151
0.00014577
0.0022392
0.00014752
0.0016505
0.00015997
0.00093567
0.00075111
0.0001562
2.0053e-05
0.0050405
7.5377e-09
4.0137e-05
0.004951
5.9657e-05
0.0047789
7.821e-05
0.0045257
9.5438e-05
0.0041954
0.00011103
0.0037934
0.0001247
0.0033268
0.00013605
0.0028037
0.00014586
0.0022294
0.00014723
0.0016492
0.00015904
0.00092386
0.0007487
0.00016145
2.0053e-05
0.0050205
8.4424e-09
4.0138e-05
0.0049309
5.9659e-05
0.0047594
7.8213e-05
0.0045072
9.5441e-05
0.0041782
0.00011103
0.0037778
0.0001247
0.0033131
0.00013601
0.0027924
0.00014596
0.0022194
0.00014706
0.0016481
0.00015803
0.00091289
0.00074163
0.00016509
2.0054e-05
0.0050004
9.3481e-09
4.014e-05
0.0049108
5.9661e-05
0.0047399
7.8216e-05
0.0044886
9.5444e-05
0.004161
0.00011104
0.0037622
0.0001247
0.0032994
0.00013597
0.0027812
0.00014605
0.0022094
0.00014699
0.0016471
0.00015698
0.0009029
0.00073116
0.00016746
2.0054e-05
0.0049804
1.0255e-08
4.0141e-05
0.0048907
5.9664e-05
0.0047204
7.8219e-05
0.00447
9.5447e-05
0.0041437
0.00011104
0.0037466
0.0001247
0.0032858
0.00013594
0.0027699
0.00014613
0.0021992
0.00014701
0.0016462
0.00015596
0.00089395
0.0007183
0.00016882
2.0054e-05
0.0049603
1.1163e-08
4.0142e-05
0.0048707
5.9666e-05
0.0047008
7.8222e-05
0.0044515
9.545e-05
0.0041265
0.00011104
0.0037311
0.0001247
0.0032721
0.0001359
0.0027587
0.0001462
0.0021889
0.00014712
0.0016453
0.00015499
0.00088608
0.00070386
0.00016942
2.0054e-05
0.0049402
1.2071e-08
4.0144e-05
0.0048506
5.9668e-05
0.0046813
7.8225e-05
0.0044329
9.5453e-05
0.0041093
0.00011104
0.0037155
0.00012471
0.0032584
0.00013586
0.0027476
0.00014626
0.0021785
0.0001473
0.0016443
0.00015411
0.00087927
0.00068852
0.00016945
2.0054e-05
0.0049202
1.2981e-08
4.0145e-05
0.0048305
5.9671e-05
0.0046618
7.8229e-05
0.0044144
9.5456e-05
0.004092
0.00011104
0.0036999
0.00012471
0.0032448
0.00013582
0.0027365
0.0001463
0.002168
0.00014754
0.001643
0.00015334
0.00087348
0.00067278
0.00016907
2.0055e-05
0.0049001
1.3893e-08
4.0147e-05
0.0048104
5.9673e-05
0.0046423
7.8232e-05
0.0043958
9.5459e-05
0.0040748
0.00011105
0.0036843
0.00012472
0.0032311
0.00013579
0.0027254
0.00014633
0.0021574
0.00014784
0.0016415
0.00015268
0.00086863
0.00065705
0.00016842
2.0055e-05
0.00488
1.4805e-08
4.0148e-05
0.0047903
5.9675e-05
0.0046227
7.8235e-05
0.0043773
9.5462e-05
0.0040576
0.00011105
0.0036687
0.00012473
0.0032174
0.00013575
0.0027144
0.00014635
0.0021468
0.00014816
0.0016397
0.00015214
0.00086465
0.00064161
0.00016758
2.0055e-05
0.0048599
1.5719e-08
4.0149e-05
0.0047702
5.9678e-05
0.0046032
7.8238e-05
0.0043587
9.5466e-05
0.0040404
0.00011105
0.0036531
0.00012474
0.0032037
0.00013572
0.0027034
0.00014635
0.0021362
0.00014851
0.0016376
0.00015172
0.00086144
0.00062668
0.00016665
2.0055e-05
0.0048399
1.6635e-08
4.0151e-05
0.0047501
5.968e-05
0.0045837
7.8241e-05
0.0043401
9.5469e-05
0.0040231
0.00011105
0.0036375
0.00012474
0.00319
0.00013569
0.0026924
0.00014633
0.0021256
0.00014888
0.001635
0.00015142
0.00085891
0.0006124
0.00016569
2.0056e-05
0.0048198
1.7551e-08
4.0152e-05
0.00473
5.9682e-05
0.0045642
7.8244e-05
0.0043216
9.5473e-05
0.0040059
0.00011105
0.003622
0.00012475
0.0031763
0.00013567
0.0026815
0.0001463
0.0021149
0.00014924
0.0016321
0.00015121
0.00085694
0.00059887
0.00016474
2.0056e-05
0.0047997
1.847e-08
4.0153e-05
0.0047099
5.9685e-05
0.0045446
7.8247e-05
0.004303
9.5476e-05
0.0039887
0.00011106
0.0036064
0.00012476
0.0031626
0.00013565
0.0026706
0.00014626
0.0021043
0.0001496
0.0016287
0.0001511
0.00085543
0.00058614
0.00016384
2.0056e-05
0.0047797
1.939e-08
4.0155e-05
0.0046898
5.9687e-05
0.0045251
7.825e-05
0.0042844
9.548e-05
0.0039714
0.00011106
0.0035908
0.00012477
0.0031489
0.00013563
0.0026598
0.0001462
0.0020938
0.00014995
0.001625
0.00015108
0.00085431
0.0005742
0.00016301
2.0056e-05
0.0047596
2.0311e-08
4.0156e-05
0.0046697
5.9689e-05
0.0045056
7.8254e-05
0.0042659
9.5484e-05
0.0039542
0.00011106
0.0035752
0.00012478
0.0031352
0.00013561
0.002649
0.00014614
0.0020832
0.00015028
0.0016208
0.00015112
0.00085347
0.00056306
0.00016226
2.0057e-05
0.0047395
2.1234e-08
4.0157e-05
0.0046496
5.9692e-05
0.004486
7.8257e-05
0.0042473
9.5488e-05
0.003937
0.00011106
0.0035597
0.00012479
0.0031215
0.0001356
0.0026381
0.00014607
0.0020728
0.00015059
0.0016163
0.00015122
0.00085284
0.00055267
0.00016161
2.0057e-05
0.0047194
2.2159e-08
4.0159e-05
0.0046295
5.9694e-05
0.0044665
7.826e-05
0.0042287
9.5492e-05
0.0039197
0.00011106
0.0035441
0.0001248
0.0031077
0.0001356
0.0026274
0.000146
0.0020624
0.00015087
0.0016114
0.00015136
0.00085235
0.00054299
0.00016104
2.0057e-05
0.0046993
2.3086e-08
4.016e-05
0.0046094
5.9697e-05
0.0044469
7.8263e-05
0.0042102
9.5496e-05
0.0039025
0.00011106
0.0035285
0.00012482
0.003094
0.00013559
0.0026166
0.00014592
0.002052
0.00015112
0.0016062
0.00015154
0.00085193
0.00053396
0.00016056
2.0057e-05
0.0046793
2.4014e-08
4.0162e-05
0.0045893
5.9699e-05
0.0044274
7.8266e-05
0.0041916
9.55e-05
0.0038853
0.00011107
0.0035129
0.00012483
0.0030802
0.0001356
0.0026058
0.00014584
0.0020418
0.00015135
0.0016007
0.00015175
0.00085154
0.00052554
0.00016017
2.0058e-05
0.0046592
2.4945e-08
4.0163e-05
0.0045692
5.9702e-05
0.0044079
7.827e-05
0.004173
9.5504e-05
0.003868
0.00011107
0.0034974
0.00012484
0.0030664
0.0001356
0.002595
0.00014576
0.0020316
0.00015156
0.0015949
0.00015197
0.00085113
0.00051766
0.00015985
2.0058e-05
0.0046391
2.5877e-08
4.0164e-05
0.0045491
5.9704e-05
0.0043883
7.8273e-05
0.0041545
9.5508e-05
0.0038508
0.00011107
0.0034818
0.00012485
0.0030527
0.00013561
0.0025843
0.00014568
0.0020216
0.00015173
0.0015889
0.0001522
0.00085066
0.00051025
0.0001596
2.0058e-05
0.004619
2.6812e-08
4.0166e-05
0.004529
5.9707e-05
0.0043688
7.8276e-05
0.0041359
9.5513e-05
0.0038336
0.00011107
0.0034663
0.00012486
0.0030389
0.00013562
0.0025735
0.0001456
0.0020116
0.00015189
0.0015826
0.00015244
0.00085011
0.00050327
0.00015941
2.0058e-05
0.0045989
2.7749e-08
4.0167e-05
0.0045089
5.9709e-05
0.0043492
7.8279e-05
0.0041173
9.5517e-05
0.0038163
0.00011107
0.0034507
0.00012487
0.0030251
0.00013564
0.0025628
0.00014552
0.0020017
0.00015202
0.0015761
0.00015267
0.00084946
0.00049667
0.00015928
2.0059e-05
0.0045788
2.8688e-08
4.0169e-05
0.0044888
5.9712e-05
0.0043297
7.8283e-05
0.0040988
9.5522e-05
0.0037991
0.00011108
0.0034352
0.00012488
0.0030113
0.00013566
0.002552
0.00014546
0.0019919
0.00015213
0.0015694
0.0001529
0.00084869
0.00049039
0.00015918
2.0059e-05
0.0045587
2.9629e-08
4.017e-05
0.0044686
5.9714e-05
0.0043102
7.8286e-05
0.0040802
9.5527e-05
0.0037819
0.00011108
0.0034196
0.00012489
0.0029974
0.00013568
0.0025412
0.00014539
0.0019822
0.00015222
0.0015626
0.00015313
0.00084778
0.00048439
0.00015912
2.0059e-05
0.0045387
3.0573e-08
4.0171e-05
0.0044485
5.9717e-05
0.0042906
7.8289e-05
0.0040616
9.5532e-05
0.0037646
0.00011108
0.0034041
0.00012491
0.0029836
0.0001357
0.0025304
0.00014533
0.0019726
0.0001523
0.0015556
0.00015334
0.00084675
0.00047864
0.00015909
2.0059e-05
0.0045186
3.1519e-08
4.0173e-05
0.0044284
5.9719e-05
0.0042711
7.8293e-05
0.004043
9.5537e-05
0.0037474
0.00011108
0.0033885
0.00012492
0.0029698
0.00013573
0.0025196
0.00014528
0.001963
0.00015237
0.0015485
0.00015355
0.00084557
0.0004731
0.00015909
2.006e-05
0.0044985
3.2467e-08
4.0174e-05
0.0044083
5.9722e-05
0.0042515
7.8296e-05
0.0040245
9.5543e-05
0.0037301
0.00011108
0.003373
0.00012493
0.0029559
0.00013575
0.0025088
0.00014524
0.0019535
0.00015243
0.0015413
0.00015374
0.00084426
0.00046774
0.0001591
2.006e-05
0.0044784
3.3418e-08
4.0176e-05
0.0043882
5.9725e-05
0.004232
7.8299e-05
0.0040059
9.5548e-05
0.0037129
0.00011108
0.0033574
0.00012494
0.0029421
0.00013578
0.0024979
0.0001452
0.0019441
0.00015248
0.0015341
0.00015393
0.00084281
0.00046255
0.00015912
2.006e-05
0.0044583
3.4372e-08
4.0177e-05
0.0043681
5.9727e-05
0.0042124
7.8303e-05
0.0039873
9.5554e-05
0.0036956
0.00011109
0.0033419
0.00012495
0.0029282
0.00013581
0.0024871
0.00014517
0.0019348
0.00015252
0.0015267
0.0001541
0.00084123
0.00045749
0.00015916
2.006e-05
0.0044382
3.5328e-08
4.0178e-05
0.004348
5.973e-05
0.0041929
7.8306e-05
0.0039687
9.556e-05
0.0036784
0.00011109
0.0033264
0.00012496
0.0029144
0.00013584
0.0024762
0.00014514
0.0019255
0.00015256
0.0015193
0.00015426
0.00083952
0.00045255
0.0001592
2.0061e-05
0.0044181
3.6287e-08
4.018e-05
0.0043278
5.9733e-05
0.0041733
7.8309e-05
0.0039502
9.5566e-05
0.0036611
0.00011109
0.0033109
0.00012497
0.0029005
0.00013587
0.0024653
0.00014512
0.0019162
0.00015259
0.0015118
0.00015442
0.00083769
0.00044772
0.00015925
2.0061e-05
0.004398
3.7249e-08
4.0181e-05
0.0043077
5.9736e-05
0.0041538
7.8313e-05
0.0039316
9.5572e-05
0.0036439
0.00011109
0.0032953
0.00012497
0.0028866
0.00013591
0.0024543
0.00014511
0.001907
0.00015262
0.0015043
0.00015456
0.00083575
0.00044299
0.0001593
2.0061e-05
0.0043779
3.8214e-08
4.0183e-05
0.0042876
5.9738e-05
0.0041342
7.8316e-05
0.003913
9.5578e-05
0.0036266
0.00011109
0.0032798
0.00012498
0.0028727
0.00013594
0.0024434
0.0001451
0.0018978
0.00015265
0.0014968
0.0001547
0.00083369
0.00043835
0.00015935
2.0062e-05
0.0043578
3.9182e-08
4.0184e-05
0.0042675
5.9741e-05
0.0041146
7.8319e-05
0.0038944
9.5585e-05
0.0036093
0.0001111
0.0032643
0.00012499
0.0028588
0.00013598
0.0024324
0.0001451
0.0018887
0.00015268
0.0014892
0.00015483
0.00083154
0.00043378
0.0001594
2.0062e-05
0.0043377
4.0153e-08
4.0185e-05
0.0042473
5.9744e-05
0.0040951
7.8323e-05
0.0038759
9.5592e-05
0.0035921
0.0001111
0.0032488
0.000125
0.0028449
0.00013601
0.0024214
0.0001451
0.0018796
0.0001527
0.0014816
0.00015496
0.00082928
0.00042929
0.00015945
2.0062e-05
0.0043176
4.1127e-08
4.0187e-05
0.0042272
5.9747e-05
0.0040755
7.8326e-05
0.0038573
9.5598e-05
0.0035748
0.0001111
0.0032333
0.00012501
0.002831
0.00013605
0.0024103
0.0001451
0.0018706
0.00015273
0.001474
0.00015508
0.00082694
0.00042487
0.0001595
2.0062e-05
0.0042975
4.2104e-08
4.0188e-05
0.0042071
5.975e-05
0.004056
7.833e-05
0.0038387
9.5606e-05
0.0035575
0.00011111
0.0032178
0.00012502
0.0028171
0.00013608
0.0023993
0.00014511
0.0018615
0.00015276
0.0014663
0.00015519
0.00082451
0.00042051
0.00015955
2.0063e-05
0.0042774
4.3085e-08
4.019e-05
0.004187
5.9753e-05
0.0040364
7.8333e-05
0.0038201
9.5613e-05
0.0035402
0.00011111
0.0032023
0.00012503
0.0028032
0.00013612
0.0023882
0.00014513
0.0018525
0.00015279
0.0014586
0.0001553
0.000822
0.00041621
0.00015959
2.0063e-05
0.0042573
4.4069e-08
4.0191e-05
0.0041668
5.9756e-05
0.0040168
7.8336e-05
0.0038015
9.562e-05
0.0035229
0.00011112
0.0031868
0.00012503
0.0027893
0.00013615
0.0023771
0.00014514
0.0018435
0.00015282
0.001451
0.0001554
0.00081942
0.00041198
0.00015964
2.0063e-05
0.0042372
4.5057e-08
4.0193e-05
0.0041467
5.9759e-05
0.0039973
7.834e-05
0.003783
9.5628e-05
0.0035057
0.00011112
0.0031713
0.00012504
0.0027753
0.00013619
0.0023659
0.00014516
0.0018346
0.00015285
0.0014433
0.0001555
0.00081676
0.0004078
0.00015968
2.0064e-05
0.0042171
4.6048e-08
4.0194e-05
0.0041266
5.9763e-05
0.0039777
7.8343e-05
0.0037644
9.5635e-05
0.0034884
0.00011113
0.0031558
0.00012505
0.0027614
0.00013623
0.0023547
0.00014518
0.0018256
0.00015288
0.0014356
0.0001556
0.00081404
0.00040367
0.00015973
2.0064e-05
0.0041969
4.7042e-08
4.0196e-05
0.0041065
5.9766e-05
0.0039581
7.8347e-05
0.0037458
9.5643e-05
0.0034711
0.00011113
0.0031403
0.00012506
0.0027475
0.00013626
0.0023435
0.0001452
0.0018167
0.00015291
0.0014279
0.0001557
0.00081125
0.0003996
0.00015977
2.0064e-05
0.0041768
4.8041e-08
4.0197e-05
0.0040863
5.9769e-05
0.0039386
7.8351e-05
0.0037272
9.5651e-05
0.0034538
0.00011114
0.0031248
0.00012507
0.0027336
0.0001363
0.0023323
0.00014522
0.0018078
0.00015294
0.0014202
0.00015579
0.0008084
0.00039558
0.00015981
2.0065e-05
0.0041567
4.9043e-08
4.0199e-05
0.0040662
5.9772e-05
0.003919
7.8354e-05
0.0037086
9.5659e-05
0.0034365
0.00011115
0.0031093
0.00012508
0.0027196
0.00013634
0.0023211
0.00014525
0.0017989
0.00015297
0.0014124
0.00015588
0.00080549
0.00039161
0.00015984
2.0065e-05
0.0041366
5.0049e-08
4.02e-05
0.004046
5.9776e-05
0.0038994
7.8358e-05
0.0036901
9.5667e-05
0.0034192
0.00011115
0.0030939
0.00012509
0.0027057
0.00013637
0.0023098
0.00014527
0.00179
0.000153
0.0014047
0.00015596
0.00080252
0.0003877
0.00015988
2.0066e-05
0.0041165
5.1059e-08
4.0202e-05
0.0040259
5.9779e-05
0.0038798
7.8362e-05
0.0036715
9.5675e-05
0.0034018
0.00011116
0.0030784
0.0001251
0.0026918
0.00013641
0.0022985
0.0001453
0.0017811
0.00015303
0.001397
0.00015605
0.0007995
0.00038383
0.00015992
2.0066e-05
0.0040964
5.2073e-08
4.0203e-05
0.0040058
5.9783e-05
0.0038603
7.8366e-05
0.0036529
9.5684e-05
0.0033845
0.00011117
0.0030629
0.00012511
0.0026778
0.00013644
0.0022871
0.00014533
0.0017722
0.00015306
0.0013892
0.00015613
0.00079643
0.00038001
0.00015995
2.0066e-05
0.0040762
5.3091e-08
4.0205e-05
0.0039856
5.9786e-05
0.0038407
7.837e-05
0.0036343
9.5692e-05
0.0033672
0.00011118
0.0030474
0.00012512
0.0026639
0.00013648
0.0022758
0.00014536
0.0017633
0.00015309
0.0013815
0.00015621
0.00079332
0.00037624
0.00015998
2.0067e-05
0.0040561
5.4114e-08
4.0207e-05
0.0039655
5.979e-05
0.0038211
7.8374e-05
0.0036157
9.5701e-05
0.0033499
0.00011119
0.0030319
0.00012513
0.00265
0.00013651
0.0022644
0.00014538
0.0017544
0.00015312
0.0013738
0.00015629
0.00079015
0.00037252
0.00016001
2.0067e-05
0.004036
5.5141e-08
4.0208e-05
0.0039454
5.9794e-05
0.0038015
7.8378e-05
0.0035971
9.5709e-05
0.0033325
0.0001112
0.0030164
0.00012514
0.002636
0.00013655
0.002253
0.00014541
0.0017456
0.00015315
0.001366
0.00015637
0.00078694
0.00036884
0.00016005
2.0068e-05
0.0040159
5.6172e-08
4.021e-05
0.0039252
5.9798e-05
0.0037819
7.8382e-05
0.0035786
9.5718e-05
0.0033152
0.00011122
0.0030009
0.00012515
0.0026221
0.00013658
0.0022415
0.00014544
0.0017367
0.00015319
0.0013583
0.00015644
0.00078368
0.0003652
0.00016008
2.0068e-05
0.0039958
5.7207e-08
4.0212e-05
0.0039051
5.9801e-05
0.0037623
7.8387e-05
0.00356
9.5727e-05
0.0032979
0.00011123
0.0029854
0.00012516
0.0026081
0.00013662
0.0022301
0.00014547
0.0017279
0.00015322
0.0013505
0.00015652
0.00078038
0.00036162
0.00016011
2.0068e-05
0.0039756
5.8247e-08
4.0213e-05
0.0038849
5.9805e-05
0.0037427
7.8391e-05
0.0035414
9.5736e-05
0.0032805
0.00011124
0.0029699
0.00012517
0.0025942
0.00013665
0.0022186
0.0001455
0.001719
0.00015325
0.0013428
0.00015659
0.00077703
0.00035807
0.00016014
2.0069e-05
0.0039555
5.9291e-08
4.0215e-05
0.0038648
5.9809e-05
0.0037231
7.8396e-05
0.0035228
9.5746e-05
0.0032632
0.00011126
0.0029544
0.00012519
0.0025803
0.00013668
0.0022071
0.00014553
0.0017102
0.00015328
0.001335
0.00015666
0.00077365
0.00035456
0.00016016
2.0069e-05
0.0039354
6.034e-08
4.0217e-05
0.0038446
5.9814e-05
0.0037035
7.8401e-05
0.0035042
9.5755e-05
0.0032458
0.00011127
0.0029389
0.0001252
0.0025664
0.00013672
0.0021956
0.00014556
0.0017013
0.00015331
0.0013273
0.00015673
0.00077023
0.0003511
0.00016019
2.007e-05
0.0039152
6.1394e-08
4.0219e-05
0.0038245
5.9818e-05
0.0036839
7.8407e-05
0.0034856
9.5765e-05
0.0032285
0.00011129
0.0029234
0.00012521
0.0025524
0.00013675
0.002184
0.00014559
0.0016925
0.00015333
0.0013196
0.0001568
0.00076677
0.00034768
0.00016022
2.0071e-05
0.0038951
6.2452e-08
4.0221e-05
0.0038043
5.9822e-05
0.0036643
7.8412e-05
0.003467
9.5775e-05
0.0032111
0.0001113
0.0029078
0.00012523
0.0025385
0.00013678
0.0021725
0.00014562
0.0016836
0.00015336
0.0013118
0.00015686
0.00076327
0.0003443
0.00016025
2.0071e-05
0.003875
6.3514e-08
4.0223e-05
0.0037842
5.9827e-05
0.0036447
7.8418e-05
0.0034484
9.5785e-05
0.0031937
0.00011132
0.0028923
0.00012524
0.0025246
0.00013681
0.0021609
0.00014565
0.0016748
0.00015339
0.0013041
0.00015693
0.00075974
0.00034095
0.00016027
2.0072e-05
0.0038548
6.4581e-08
4.0225e-05
0.003764
5.9831e-05
0.0036251
7.8424e-05
0.0034298
9.5795e-05
0.0031764
0.00011133
0.0028768
0.00012525
0.0025107
0.00013684
0.0021493
0.00014568
0.001666
0.00015342
0.0012963
0.00015699
0.00075617
0.00033765
0.0001603
2.0072e-05
0.0038347
6.5653e-08
4.0227e-05
0.0037439
5.9836e-05
0.0036055
7.843e-05
0.0034113
9.5805e-05
0.003159
0.00011135
0.0028612
0.00012527
0.0024967
0.00013687
0.0021377
0.00014571
0.0016571
0.00015345
0.0012886
0.00015705
0.00075256
0.00033438
0.00016032
2.0073e-05
0.0038146
6.6728e-08
4.0229e-05
0.0037237
5.984e-05
0.0035859
7.8437e-05
0.0033927
9.5816e-05
0.0031416
0.00011137
0.0028457
0.00012528
0.0024828
0.0001369
0.0021261
0.00014573
0.0016483
0.00015348
0.0012808
0.00015711
0.00074893
0.00033114
0.00016035
2.0074e-05
0.0037944
6.7808e-08
4.0231e-05
0.0037036
5.9845e-05
0.0035663
7.8444e-05
0.0033741
9.5827e-05
0.0031242
0.00011139
0.0028301
0.0001253
0.0024689
0.00013693
0.0021145
0.00014576
0.0016395
0.00015351
0.0012731
0.00015717
0.00074526
0.00032794
0.00016037
2.0074e-05
0.0037743
6.8892e-08
4.0233e-05
0.0036834
5.985e-05
0.0035467
7.8451e-05
0.0033555
9.5838e-05
0.0031068
0.0001114
0.0028145
0.00012531
0.002455
0.00013696
0.0021028
0.00014579
0.0016306
0.00015353
0.0012653
0.00015723
0.00074156
0.00032478
0.0001604
2.0075e-05
0.0037541
6.9979e-08
4.0236e-05
0.0036632
5.9855e-05
0.0035271
7.8458e-05
0.0033369
9.5849e-05
0.0030894
0.00011142
0.002799
0.00012533
0.0024411
0.00013699
0.0020912
0.00014582
0.0016218
0.00015356
0.0012576
0.00015729
0.00073782
0.00032165
0.00016042
2.0076e-05
0.003734
7.1071e-08
4.0238e-05
0.0036431
5.9861e-05
0.0035074
7.8466e-05
0.0033182
9.586e-05
0.0030721
0.00011144
0.0027834
0.00012534
0.0024272
0.00013702
0.0020795
0.00014585
0.001613
0.00015359
0.0012499
0.00015735
0.00073406
0.00031855
0.00016045
2.0077e-05
0.0037138
7.2165e-08
4.0241e-05
0.0036229
5.9866e-05
0.0034878
7.8474e-05
0.0032996
9.5872e-05
0.0030547
0.00011146
0.0027678
0.00012536
0.0024133
0.00013704
0.0020678
0.00014588
0.0016041
0.00015361
0.0012421
0.0001574
0.00073027
0.00031549
0.00016047
2.0077e-05
0.0036937
7.3262e-08
4.0243e-05
0.0036027
5.9872e-05
0.0034682
7.8482e-05
0.003281
9.5883e-05
0.0030373
0.00011148
0.0027522
0.00012537
0.0023994
0.00013707
0.0020561
0.00014591
0.0015953
0.00015364
0.0012344
0.00015746
0.00072646
0.00031245
0.00016049
2.0078e-05
0.0036735
7.4362e-08
4.0246e-05
0.0035826
5.9877e-05
0.0034486
7.8491e-05
0.0032624
9.5895e-05
0.0030198
0.0001115
0.0027366
0.00012539
0.0023855
0.0001371
0.0020444
0.00014594
0.0015864
0.00015367
0.0012267
0.00015751
0.00072261
0.00030945
0.00016052
2.0079e-05
0.0036534
7.5464e-08
4.0249e-05
0.0035624
5.9883e-05
0.0034289
7.8499e-05
0.0032438
9.5907e-05
0.0030024
0.00011151
0.002721
0.0001254
0.0023716
0.00013712
0.0020327
0.00014597
0.0015776
0.00015369
0.001219
0.00015756
0.00071874
0.00030647
0.00016054
2.008e-05
0.0036332
7.6568e-08
4.0252e-05
0.0035422
5.9889e-05
0.0034093
7.8508e-05
0.0032252
9.5919e-05
0.002985
0.00011153
0.0027054
0.00012541
0.0023578
0.00013715
0.002021
0.000146
0.0015687
0.00015372
0.0012112
0.00015762
0.00071485
0.00030353
0.00016056
2.0081e-05
0.0036131
7.7673e-08
4.0255e-05
0.0035221
5.9895e-05
0.0033896
7.8518e-05
0.0032066
9.5931e-05
0.0029676
0.00011155
0.0026897
0.00012543
0.0023439
0.00013717
0.0020092
0.00014603
0.0015599
0.00015375
0.0012035
0.00015767
0.00071093
0.00030061
0.00016058
2.0082e-05
0.0035929
7.8778e-08
4.0258e-05
0.0035019
5.9901e-05
0.00337
7.8527e-05
0.0031879
9.5943e-05
0.0029502
0.00011157
0.0026741
0.00012544
0.00233
0.0001372
0.0019975
0.00014606
0.001551
0.00015377
0.0011958
0.00015772
0.00070698
0.00029772
0.00016061
2.0083e-05
0.0035727
7.9884e-08
4.0262e-05
0.0034817
5.9908e-05
0.0033504
7.8537e-05
0.0031693
9.5955e-05
0.0029328
0.00011159
0.0026585
0.00012546
0.0023161
0.00013722
0.0019857
0.00014609
0.0015422
0.0001538
0.0011881
0.00015777
0.00070301
0.00029486
0.00016063
2.0084e-05
0.0035526
8.0989e-08
4.0265e-05
0.0034615
5.9914e-05
0.0033307
7.8546e-05
0.0031507
9.5967e-05
0.0029154
0.00011161
0.0026429
0.00012547
0.0023023
0.00013725
0.0019739
0.00014612
0.0015333
0.00015383
0.0011804
0.00015782
0.00069902
0.00029202
0.00016065
2.0086e-05
0.0035324
8.2093e-08
4.0269e-05
0.0034413
5.9921e-05
0.0033111
7.8556e-05
0.003132
9.5979e-05
0.0028979
0.00011162
0.0026272
0.00012548
0.0022884
0.00013727
0.0019621
0.00014615
0.0015244
0.00015385
0.0011727
0.00015786
0.00069501
0.00028921
0.00016067
2.0087e-05
0.0035122
8.3195e-08
4.0272e-05
0.0034212
5.9928e-05
0.0032914
7.8566e-05
0.0031134
9.5991e-05
0.0028805
0.00011164
0.0026116
0.0001255
0.0022746
0.0001373
0.0019503
0.00014618
0.0015155
0.00015388
0.001165
0.00015791
0.00069097
0.00028643
0.0001607
2.0088e-05
0.0034921
8.4295e-08
4.0276e-05
0.003401
5.9934e-05
0.0032717
7.8576e-05
0.0030948
9.6003e-05
0.0028631
0.00011166
0.0025959
0.00012551
0.0022607
0.00013732
0.0019385
0.00014621
0.0015066
0.0001539
0.0011573
0.00015796
0.00068692
0.00028367
0.00016072
2.009e-05
0.0034719
8.5392e-08
4.028e-05
0.0033808
5.9941e-05
0.0032521
7.8586e-05
0.0030761
9.6015e-05
0.0028457
0.00011167
0.0025802
0.00012552
0.0022469
0.00013734
0.0019267
0.00014624
0.0014978
0.00015393
0.0011496
0.000158
0.00068285
0.00028093
0.00016074
2.0091e-05
0.0034517
8.6484e-08
4.0284e-05
0.0033606
5.9948e-05
0.0032324
7.8596e-05
0.0030575
9.6027e-05
0.0028282
0.00011169
0.0025646
0.00012554
0.002233
0.00013737
0.0019149
0.00014627
0.0014888
0.00015396
0.0011419
0.00015805
0.00067875
0.00027821
0.00016076
2.0092e-05
0.0034315
8.7573e-08
4.0288e-05
0.0033404
5.9955e-05
0.0032127
7.8607e-05
0.0030388
9.6039e-05
0.0028108
0.00011171
0.0025489
0.00012555
0.0022192
0.00013739
0.001903
0.0001463
0.0014799
0.00015398
0.0011342
0.00015809
0.00067464
0.00027552
0.00016079
2.0094e-05
0.0034113
8.8656e-08
4.0292e-05
0.0033202
5.9962e-05
0.0031931
7.8617e-05
0.0030202
9.605e-05
0.0027934
0.00011172
0.0025332
0.00012557
0.0022053
0.00013741
0.0018912
0.00014633
0.001471
0.00015401
0.0011266
0.00015814
0.00067051
0.00027285
0.00016081
2.0095e-05
0.0033912
8.9734e-08
4.0296e-05
0.0033
5.9969e-05
0.0031734
7.8627e-05
0.0030015
9.6061e-05
0.0027759
0.00011174
0.0025176
0.00012558
0.0021915
0.00013744
0.0018793
0.00014636
0.0014621
0.00015403
0.0011189
0.00015818
0.00066636
0.0002702
0.00016083
2.0097e-05
0.003371
9.0805e-08
4.03e-05
0.0032798
5.9976e-05
0.0031537
7.8637e-05
0.0029828
9.6073e-05
0.0027585
0.00011176
0.0025019
0.00012559
0.0021777
0.00013746
0.0018675
0.00014639
0.0014532
0.00015406
0.0011112
0.00015822
0.0006622
0.00026757
0.00016085
2.0098e-05
0.0033508
9.187e-08
4.0305e-05
0.0032596
5.9983e-05
0.0031341
7.8647e-05
0.0029642
9.6084e-05
0.0027411
0.00011177
0.0024862
0.00012561
0.0021638
0.00013748
0.0018556
0.00014642
0.0014442
0.00015409
0.0011036
0.00015827
0.00065802
0.00026497
0.00016087
2.01e-05
0.0033306
9.2927e-08
4.0309e-05
0.0032394
5.999e-05
0.0031144
7.8657e-05
0.0029455
9.6094e-05
0.0027236
0.00011179
0.0024705
0.00012562
0.00215
0.00013751
0.0018437
0.00014646
0.0014353
0.00015411
0.0010959
0.00015831
0.00065382
0.00026238
0.0001609
2.0102e-05
0.0033104
9.3977e-08
4.0313e-05
0.0032192
5.9997e-05
0.0030947
7.8667e-05
0.0029268
9.6105e-05
0.0027062
0.0001118
0.0024548
0.00012563
0.0021362
0.00013753
0.0018318
0.00014649
0.0014263
0.00015414
0.0010883
0.00015835
0.00064961
0.00025981
0.00016092
2.0103e-05
0.0032902
9.5019e-08
4.0317e-05
0.0031989
6.0004e-05
0.003075
7.8677e-05
0.0029082
9.6116e-05
0.0026887
0.00011182
0.0024391
0.00012565
0.0021223
0.00013755
0.0018199
0.00014652
0.0014173
0.00015416
0.0010806
0.00015839
0.00064538
0.00025726
0.00016094
2.0105e-05
0.00327
9.6054e-08
4.0322e-05
0.0031787
6.0011e-05
0.0030553
7.8686e-05
0.0028895
9.6126e-05
0.0026713
0.00011184
0.0024234
0.00012566
0.0021085
0.00013757
0.001808
0.00014655
0.0014084
0.00015419
0.001073
0.00015843
0.00064114
0.00025473
0.00016096
2.0106e-05
0.0032498
9.7079e-08
4.0326e-05
0.0031585
6.0017e-05
0.0030356
7.8696e-05
0.0028708
9.6136e-05
0.0026539
0.00011185
0.0024077
0.00012567
0.0020947
0.0001376
0.001796
0.00014658
0.0013994
0.00015422
0.0010653
0.00015847
0.00063688
0.00025221
0.00016099
2.0108e-05
0.0032296
9.8097e-08
4.033e-05
0.0031383
6.0024e-05
0.0030159
7.8705e-05
0.0028521
9.6146e-05
0.0026364
0.00011187
0.0023919
0.00012569
0.0020809
0.00013762
0.0017841
0.00014662
0.0013904
0.00015424
0.0010577
0.00015851
0.00063262
0.00024972
0.00016101
2.011e-05
0.0032094
9.9106e-08
4.0335e-05
0.0031181
6.0031e-05
0.0029962
7.8715e-05
0.0028334
9.6156e-05
0.002619
0.00011188
0.0023762
0.0001257
0.002067
0.00013764
0.0017722
0.00014665
0.0013814
0.00015427
0.0010501
0.00015855
0.00062833
0.00024724
0.00016103
2.0111e-05
0.0031892
1.0011e-07
4.0339e-05
0.0030978
6.0037e-05
0.0029765
7.8724e-05
0.0028148
9.6166e-05
0.0026015
0.0001119
0.0023605
0.00012572
0.0020532
0.00013767
0.0017602
0.00014668
0.0013724
0.0001543
0.0010425
0.00015859
0.00062404
0.00024477
0.00016105
2.0113e-05
0.0031689
1.011e-07
4.0343e-05
0.0030776
6.0044e-05
0.0029568
7.8733e-05
0.0027961
9.6176e-05
0.0025841
0.00011191
0.0023447
0.00012573
0.0020394
0.00013769
0.0017483
0.00014671
0.0013634
0.00015432
0.0010348
0.00015863
0.00061973
0.00024232
0.00016108
2.0115e-05
0.0031487
1.0209e-07
4.0347e-05
0.0030574
6.005e-05
0.0029371
7.8742e-05
0.0027774
9.6186e-05
0.0025666
0.00011193
0.002329
0.00012575
0.0020256
0.00013771
0.0017363
0.00014675
0.0013543
0.00015435
0.0010272
0.00015867
0.00061542
0.00023989
0.0001611
2.0116e-05
0.0031285
1.0307e-07
4.0351e-05
0.0030371
6.0056e-05
0.0029174
7.8751e-05
0.0027587
9.6195e-05
0.0025492
0.00011194
0.0023133
0.00012576
0.0020118
0.00013774
0.0017243
0.00014678
0.0013453
0.00015438
0.0010196
0.00015871
0.00061109
0.00023747
0.00016112
2.0118e-05
0.0031083
1.0404e-07
4.0355e-05
0.0030169
6.0063e-05
0.0028977
7.876e-05
0.00274
9.6205e-05
0.0025318
0.00011196
0.0022975
0.00012578
0.001998
0.00013776
0.0017123
0.00014681
0.0013362
0.00015441
0.001012
0.00015875
0.00060675
0.00023507
0.00016115
2.0119e-05
0.0030881
1.0501e-07
4.0359e-05
0.0029967
6.0069e-05
0.002878
7.8768e-05
0.0027213
9.6215e-05
0.0025143
0.00011197
0.0022817
0.00012579
0.0019841
0.00013778
0.0017003
0.00014684
0.0013272
0.00015443
0.0010045
0.00015878
0.0006024
0.00023268
0.00016117
2.0121e-05
0.0030678
1.0597e-07
4.0363e-05
0.0029764
6.0075e-05
0.0028583
7.8777e-05
0.0027026
9.6224e-05
0.0024969
0.00011199
0.002266
0.00012581
0.0019703
0.0001378
0.0016884
0.00014688
0.0013181
0.00015446
0.00099688
0.00015882
0.00059804
0.00023031
0.00016119
2.0122e-05
0.0030476
1.0692e-07
4.0367e-05
0.0029562
6.008e-05
0.0028386
7.8786e-05
0.0026839
9.6234e-05
0.0024794
0.00011201
0.0022502
0.00012582
0.0019565
0.00013783
0.0016763
0.00014691
0.001309
0.00015449
0.0009893
0.00015886
0.00059367
0.00022795
0.00016122
2.0124e-05
0.0030274
1.0788e-07
4.0371e-05
0.0029359
6.0086e-05
0.0028189
7.8794e-05
0.0026652
9.6243e-05
0.002462
0.00011202
0.0022344
0.00012584
0.0019427
0.00013785
0.0016643
0.00014694
0.0012999
0.00015452
0.00098173
0.0001589
0.00058929
0.0002256
0.00016124
2.0125e-05
0.0030071
1.0883e-07
4.0375e-05
0.0029157
6.0092e-05
0.0027992
7.8803e-05
0.0026465
9.6253e-05
0.0024445
0.00011204
0.0022186
0.00012586
0.0019289
0.00013787
0.0016523
0.00014698
0.0012908
0.00015454
0.00097416
0.00015893
0.0005849
0.00022327
0.00016127
2.0127e-05
0.0029869
1.0977e-07
4.0379e-05
0.0028954
6.0098e-05
0.0027794
7.8811e-05
0.0026277
9.6262e-05
0.0024271
0.00011205
0.0022028
0.00012587
0.0019151
0.0001379
0.0016403
0.00014701
0.0012817
0.00015457
0.0009666
0.00015897
0.00058051
0.00022094
0.00016129
2.0128e-05
0.0029667
1.1072e-07
4.0383e-05
0.0028752
6.0103e-05
0.0027597
7.882e-05
0.002609
9.6272e-05
0.0024096
0.00011207
0.002187
0.00012589
0.0019012
0.00013792
0.0016283