/*--------------------------------*- C++ -*----------------------------------*\
  =========                 |
  \\      /  F ield         | OpenFOAM: The Open Source CFD Toolbox
   \\    /   O peration     | Website:  https://openfoam.org
    \\  /    A nd           | Version:  6.0
     \\/     M anipulation  |
\*---------------------------------------------------------------------------*/
FoamFile
{
    version     2.0;
    format      ascii;
    class       volScalarField;
    location    "2";
    object      p;
}
// * * * * * * * * * * * * * * * * * * * * * * * * * * * * * * * * * * * * * //

dimensions      [0 2 -2 0 0 0 0];

internalField   nonuniform List<scalar> 
17000
(
0.10036
0.10014
0.099497
0.098636
0.097528
0.096408
0.095503
0.095286
0.096335
0.099892
0.12083
0.1649
0.10036
0.10014
0.099497
0.098636
0.097528
0.096408
0.095503
0.095286
0.096331
0.099955
0.12015
0.15983
0.10036
0.10014
0.099498
0.098637
0.097529
0.096408
0.095502
0.095285
0.096322
0.1
0.11926
0.15533
0.10036
0.10014
0.099499
0.098638
0.097529
0.096408
0.0955
0.095281
0.096307
0.10002
0.11828
0.15182
0.10037
0.10014
0.0995
0.098639
0.09753
0.096407
0.095497
0.095276
0.096287
0.10003
0.11724
0.14885
0.10037
0.10015
0.099501
0.09864
0.09753
0.096406
0.095494
0.09527
0.096261
0.10002
0.11616
0.1462
0.10037
0.10015
0.099503
0.098641
0.097531
0.096405
0.09549
0.095263
0.096231
0.10001
0.11506
0.14379
0.10037
0.10015
0.099505
0.098643
0.097531
0.096404
0.095486
0.095254
0.096196
0.099974
0.11398
0.14158
0.10037
0.10015
0.099507
0.098645
0.097532
0.096403
0.09548
0.095244
0.096156
0.099928
0.11292
0.13953
0.10038
0.10016
0.09951
0.098646
0.097532
0.096401
0.095475
0.095233
0.096111
0.099868
0.11189
0.13762
0.10038
0.10016
0.099512
0.098649
0.097533
0.096399
0.095468
0.09522
0.096061
0.099796
0.1109
0.13582
0.10038
0.10016
0.099515
0.098651
0.097533
0.096397
0.095461
0.095206
0.096005
0.099712
0.10994
0.13412
0.10039
0.10017
0.099519
0.098653
0.097534
0.096395
0.095453
0.09519
0.095945
0.099618
0.10903
0.1325
0.10039
0.10017
0.099522
0.098656
0.097535
0.096392
0.095445
0.095173
0.095879
0.099515
0.10816
0.13097
0.1004
0.10017
0.099526
0.098659
0.097535
0.09639
0.095436
0.095154
0.095808
0.099404
0.10732
0.1295
0.1004
0.10018
0.09953
0.098662
0.097536
0.096387
0.095426
0.095134
0.095731
0.099288
0.10652
0.1281
0.10041
0.10018
0.099534
0.098665
0.097537
0.096383
0.095416
0.095113
0.09565
0.099166
0.10575
0.12675
0.10041
0.10019
0.099539
0.098668
0.097537
0.09638
0.095405
0.09509
0.095564
0.099041
0.10501
0.12546
0.10042
0.1002
0.099543
0.098672
0.097538
0.096376
0.095393
0.095065
0.095473
0.098914
0.1043
0.12421
0.10042
0.1002
0.099548
0.098676
0.097539
0.096372
0.095381
0.095039
0.095377
0.098786
0.10361
0.12301
0.10043
0.10021
0.099554
0.09868
0.09754
0.096368
0.095368
0.095012
0.095278
0.098657
0.10293
0.12185
0.10044
0.10022
0.099559
0.098684
0.097541
0.096364
0.095355
0.094982
0.095174
0.098528
0.10228
0.12072
0.10045
0.10022
0.099565
0.098688
0.097542
0.096359
0.095341
0.094952
0.095066
0.0984
0.10164
0.11962
0.10045
0.10023
0.099572
0.098693
0.097543
0.096354
0.095326
0.09492
0.094955
0.098272
0.10101
0.11856
0.10046
0.10024
0.099578
0.098698
0.097544
0.096349
0.095311
0.094886
0.094841
0.098146
0.1004
0.11752
0.10047
0.10025
0.099585
0.098703
0.097545
0.096344
0.095295
0.094851
0.094724
0.098021
0.099793
0.11651
0.10048
0.10026
0.099592
0.098708
0.097546
0.096339
0.095279
0.094815
0.094604
0.097896
0.099196
0.11552
0.10049
0.10027
0.0996
0.098714
0.097547
0.096333
0.095261
0.094777
0.094483
0.097773
0.098607
0.11456
0.1005
0.10028
0.099608
0.09872
0.097548
0.096327
0.095244
0.094738
0.094359
0.097651
0.098026
0.11362
0.10051
0.10029
0.099616
0.098726
0.097549
0.096321
0.095226
0.094697
0.094234
0.097529
0.097451
0.1127
0.10052
0.1003
0.099624
0.098732
0.09755
0.096314
0.095207
0.094655
0.094107
0.097407
0.096883
0.11179
0.10053
0.10031
0.099633
0.098739
0.097552
0.096308
0.095187
0.094613
0.093979
0.097285
0.096322
0.11091
0.10054
0.10032
0.099642
0.098745
0.097553
0.096301
0.095167
0.094569
0.093849
0.097163
0.095766
0.11005
0.10055
0.10033
0.099651
0.098752
0.097555
0.096294
0.095147
0.094524
0.093719
0.097041
0.095217
0.1092
0.10057
0.10034
0.099661
0.09876
0.097556
0.096287
0.095126
0.094478
0.093588
0.096918
0.094674
0.10837
0.10058
0.10035
0.099671
0.098767
0.097558
0.09628
0.095104
0.094432
0.093456
0.096794
0.094137
0.10755
0.10059
0.10037
0.099682
0.098775
0.09756
0.096272
0.095081
0.094384
0.093323
0.096669
0.093607
0.10675
0.10061
0.10038
0.099692
0.098783
0.097561
0.096265
0.095058
0.094336
0.09319
0.096542
0.093084
0.10597
0.10062
0.10039
0.099704
0.098792
0.097563
0.096257
0.095035
0.094287
0.093056
0.096414
0.092567
0.1052
0.10064
0.10041
0.099715
0.0988
0.097565
0.096249
0.09501
0.094238
0.092922
0.096284
0.092057
0.10445
0.10065
0.10042
0.099727
0.098809
0.097567
0.096241
0.094986
0.094188
0.092787
0.096152
0.091554
0.10371
0.10067
0.10044
0.099739
0.098818
0.097569
0.096233
0.09496
0.094138
0.092651
0.096019
0.091058
0.10298
0.10068
0.10045
0.099752
0.098828
0.097572
0.096224
0.094934
0.094087
0.092515
0.095883
0.090569
0.10227
0.1007
0.10047
0.099765
0.098838
0.097574
0.096216
0.094907
0.094036
0.092378
0.095746
0.090087
0.10157
0.10072
0.10049
0.099778
0.098848
0.097576
0.096207
0.09488
0.093985
0.092241
0.095606
0.089613
0.10089
0.10073
0.1005
0.099792
0.098859
0.097579
0.096199
0.094852
0.093934
0.092103
0.095465
0.089146
0.10021
0.10075
0.10052
0.099806
0.098869
0.097581
0.09619
0.094824
0.093882
0.091964
0.095321
0.088687
0.099551
0.10077
0.10054
0.099821
0.09888
0.097584
0.096181
0.094795
0.09383
0.091825
0.095176
0.088234
0.098901
0.10079
0.10056
0.099836
0.098892
0.097587
0.096172
0.094765
0.093778
0.091685
0.095028
0.08779
0.098263
0.10081
0.10058
0.099852
0.098904
0.09759
0.096163
0.094735
0.093725
0.091544
0.094879
0.087352
0.097636
0.10083
0.1006
0.099867
0.098916
0.097593
0.096154
0.094704
0.093673
0.091403
0.094727
0.086922
0.09702
0.10085
0.10062
0.099884
0.098928
0.097596
0.096145
0.094673
0.093621
0.091261
0.094574
0.0865
0.096415
0.10087
0.10064
0.0999
0.098941
0.0976
0.096136
0.094641
0.093568
0.091118
0.094418
0.086084
0.09582
0.10089
0.10066
0.099918
0.098954
0.097603
0.096127
0.094608
0.093515
0.090975
0.094261
0.085676
0.095236
0.10091
0.10068
0.099935
0.098968
0.097607
0.096118
0.094575
0.093463
0.090831
0.094102
0.085274
0.094661
0.10094
0.1007
0.099953
0.098982
0.097611
0.096109
0.094541
0.09341
0.090687
0.093942
0.08488
0.094095
0.10096
0.10073
0.099972
0.098996
0.097615
0.0961
0.094507
0.093357
0.090541
0.093779
0.084493
0.093539
0.10098
0.10075
0.099991
0.099011
0.097619
0.096091
0.094472
0.093304
0.090396
0.093616
0.084113
0.092992
0.10101
0.10077
0.10001
0.099026
0.097623
0.096082
0.094437
0.093251
0.09025
0.09345
0.083739
0.092454
0.10103
0.1008
0.10003
0.099041
0.097628
0.096073
0.094401
0.093198
0.090103
0.093283
0.083372
0.091924
0.10106
0.10082
0.10005
0.099057
0.097632
0.096064
0.094365
0.093145
0.089956
0.093115
0.083011
0.091402
0.10108
0.10085
0.10007
0.099074
0.097637
0.096055
0.094328
0.093091
0.089809
0.092945
0.082657
0.090889
0.10111
0.10088
0.10009
0.09909
0.097642
0.096047
0.09429
0.093038
0.089661
0.092774
0.08231
0.090384
0.10114
0.1009
0.10012
0.099107
0.097648
0.096038
0.094253
0.092985
0.089513
0.092602
0.081968
0.089886
0.10117
0.10093
0.10014
0.099125
0.097653
0.096029
0.094214
0.092931
0.089365
0.092429
0.081633
0.089396
0.1012
0.10096
0.10016
0.099143
0.097659
0.096021
0.094176
0.092878
0.089216
0.092254
0.081303
0.088913
0.10123
0.10099
0.10018
0.099162
0.097665
0.096012
0.094137
0.092824
0.089068
0.092078
0.08098
0.088437
0.10126
0.10102
0.10021
0.099181
0.097671
0.096004
0.094097
0.09277
0.088919
0.091902
0.080662
0.087968
0.10129
0.10105
0.10023
0.0992
0.097678
0.095996
0.094057
0.092716
0.08877
0.091724
0.08035
0.087506
0.10132
0.10108
0.10026
0.09922
0.097684
0.095988
0.094017
0.092663
0.088621
0.091545
0.080043
0.08705
0.10135
0.10111
0.10029
0.09924
0.097691
0.09598
0.093976
0.092609
0.088473
0.091365
0.079742
0.086601
0.10138
0.10114
0.10031
0.099261
0.097699
0.095972
0.093935
0.092555
0.088324
0.091185
0.079446
0.086159
0.10142
0.10118
0.10034
0.099282
0.097706
0.095965
0.093893
0.092501
0.088176
0.091004
0.079155
0.085722
0.10145
0.10121
0.10037
0.099304
0.097714
0.095958
0.093851
0.092447
0.088028
0.090822
0.078869
0.085291
0.10149
0.10124
0.1004
0.099327
0.097723
0.09595
0.093809
0.092392
0.08788
0.090639
0.078589
0.084867
0.10152
0.10128
0.10042
0.09935
0.097731
0.095943
0.093767
0.092338
0.087732
0.090455
0.078313
0.084448
0.10156
0.10132
0.10045
0.099373
0.09774
0.095937
0.093724
0.092284
0.087584
0.090271
0.078042
0.084034
0.1016
0.10135
0.10048
0.099397
0.097749
0.09593
0.093681
0.092229
0.087437
0.090086
0.077776
0.083626
0.10163
0.10139
0.10052
0.099422
0.097759
0.095924
0.093638
0.092175
0.087291
0.089901
0.077514
0.083224
0.10167
0.10143
0.10055
0.099447
0.097769
0.095918
0.093594
0.09212
0.087145
0.089715
0.077257
0.082826
0.10171
0.10147
0.10058
0.099473
0.09778
0.095912
0.093551
0.092065
0.086999
0.089529
0.077004
0.082434
0.10175
0.10151
0.10061
0.099499
0.097791
0.095907
0.093507
0.092011
0.086854
0.089342
0.076755
0.082046
0.1018
0.10155
0.10065
0.099526
0.097802
0.095902
0.093463
0.091956
0.086709
0.089155
0.076511
0.081663
0.10184
0.10159
0.10068
0.099554
0.097814
0.095897
0.093418
0.091901
0.086565
0.088967
0.07627
0.081285
0.10188
0.10163
0.10072
0.099582
0.097826
0.095893
0.093374
0.091846
0.086422
0.088779
0.076034
0.080912
0.10193
0.10168
0.10075
0.099611
0.097839
0.095889
0.09333
0.091791
0.086279
0.08859
0.075801
0.080543
0.10197
0.10172
0.10079
0.09964
0.097852
0.095885
0.093285
0.091735
0.086137
0.088402
0.075572
0.080179
0.10202
0.10176
0.10083
0.09967
0.097865
0.095882
0.09324
0.09168
0.085995
0.088213
0.075347
0.079818
0.10206
0.10181
0.10087
0.099701
0.09788
0.095879
0.093196
0.091625
0.085855
0.088024
0.075126
0.079462
0.10211
0.10186
0.10091
0.099733
0.097894
0.095877
0.093151
0.091569
0.085715
0.087834
0.074908
0.07911
0.10216
0.10191
0.10095
0.099766
0.09791
0.095875
0.093106
0.091514
0.085576
0.087645
0.074693
0.078762
0.10221
0.10196
0.10099
0.099799
0.097925
0.095874
0.093061
0.091458
0.085438
0.087455
0.074482
0.078418
0.10226
0.10201
0.10104
0.099833
0.097942
0.095873
0.093017
0.091403
0.085301
0.087265
0.074274
0.078078
0.10232
0.10206
0.10108
0.099868
0.097959
0.095873
0.092972
0.091347
0.085164
0.087075
0.074069
0.077741
0.10237
0.10211
0.10112
0.099903
0.097977
0.095873
0.092928
0.091291
0.085029
0.086885
0.073867
0.077408
0.10242
0.10216
0.10117
0.09994
0.097995
0.095874
0.092883
0.091235
0.084894
0.086695
0.073669
0.077078
0.10248
0.10222
0.10122
0.099977
0.098014
0.095875
0.092839
0.091179
0.08476
0.086505
0.073473
0.076752
0.10254
0.10227
0.10127
0.10002
0.098034
0.095877
0.092795
0.091123
0.084628
0.086315
0.07328
0.076429
0.1026
0.10233
0.10132
0.10006
0.098054
0.09588
0.092752
0.091067
0.084496
0.086125
0.07309
0.076109
0.10266
0.10239
0.10137
0.1001
0.098076
0.095883
0.092708
0.091011
0.084365
0.085935
0.072902
0.075792
0.10272
0.10245
0.10142
0.10014
0.098098
0.095887
0.092665
0.090955
0.084236
0.085745
0.072717
0.075478
0.10278
0.10251
0.10147
0.10018
0.09812
0.095892
0.092622
0.090899
0.084107
0.085555
0.072535
0.075168
0.10284
0.10257
0.10152
0.10022
0.098144
0.095898
0.09258
0.090843
0.08398
0.085365
0.072355
0.07486
0.10291
0.10263
0.10158
0.10027
0.098169
0.095904
0.092538
0.090787
0.083853
0.085175
0.072177
0.074555
0.10297
0.1027
0.10164
0.10031
0.098194
0.095912
0.092496
0.090731
0.083728
0.084986
0.072002
0.074253
0.10304
0.10276
0.1017
0.10036
0.09822
0.09592
0.092455
0.090675
0.083604
0.084797
0.071829
0.073953
0.10311
0.10283
0.10176
0.10041
0.098248
0.095929
0.092414
0.090619
0.083481
0.084607
0.071658
0.073656
0.10318
0.1029
0.10182
0.10046
0.098276
0.095939
0.092374
0.090563
0.083359
0.084419
0.071489
0.073361
0.10326
0.10297
0.10188
0.10051
0.098306
0.09595
0.092335
0.090507
0.083239
0.08423
0.071322
0.073069
0.10333
0.10304
0.10194
0.10056
0.098336
0.095961
0.092296
0.090451
0.083119
0.084041
0.071157
0.072779
0.10341
0.10312
0.10201
0.10061
0.098368
0.095974
0.092258
0.090395
0.083001
0.083853
0.070994
0.072492
0.10348
0.10319
0.10208
0.10067
0.0984
0.095988
0.092221
0.09034
0.082884
0.083665
0.070833
0.072206
0.10356
0.10327
0.10215
0.10072
0.098434
0.096004
0.092184
0.090284
0.082768
0.083478
0.070674
0.071923
0.10365
0.10335
0.10222
0.10078
0.09847
0.09602
0.092149
0.090229
0.082654
0.083291
0.070516
0.071641
0.10373
0.10343
0.10229
0.10084
0.098506
0.096037
0.092114
0.090174
0.082541
0.083104
0.07036
0.071362
0.10381
0.10352
0.10237
0.1009
0.098544
0.096056
0.09208
0.090119
0.082429
0.082917
0.070206
0.071084
0.1039
0.1036
0.10244
0.10097
0.098584
0.096076
0.092047
0.090065
0.082318
0.082731
0.070053
0.070808
0.10399
0.10369
0.10252
0.10103
0.098624
0.096097
0.092015
0.09001
0.082209
0.082545
0.069901
0.070534
0.10408
0.10378
0.1026
0.1011
0.098667
0.09612
0.091985
0.089957
0.082101
0.08236
0.069751
0.070262
0.10418
0.10387
0.10268
0.10117
0.098711
0.096144
0.091955
0.089903
0.081995
0.082175
0.069602
0.069991
0.10427
0.10396
0.10277
0.10124
0.098757
0.09617
0.091927
0.08985
0.08189
0.081991
0.069455
0.069722
0.10437
0.10406
0.10286
0.10131
0.098804
0.096197
0.0919
0.089797
0.081786
0.081807
0.069308
0.069454
0.10447
0.10416
0.10295
0.10139
0.098853
0.096226
0.091875
0.089745
0.081684
0.081623
0.069163
0.069188
0.10458
0.10426
0.10304
0.10146
0.098905
0.096257
0.09185
0.089693
0.081583
0.08144
0.069019
0.068923
0.10468
0.10436
0.10313
0.10154
0.098958
0.096289
0.091828
0.089642
0.081484
0.081258
0.068876
0.068659
0.10479
0.10447
0.10323
0.10163
0.099013
0.096323
0.091807
0.089591
0.081387
0.081076
0.068734
0.068396
0.1049
0.10458
0.10333
0.10171
0.09907
0.096359
0.091787
0.089541
0.081291
0.080894
0.068593
0.068134
0.10502
0.10469
0.10343
0.1018
0.09913
0.096397
0.09177
0.089492
0.081196
0.080714
0.068453
0.067874
0.10513
0.1048
0.10354
0.10189
0.099192
0.096437
0.091754
0.089444
0.081103
0.080533
0.068313
0.067614
0.10525
0.10492
0.10365
0.10198
0.099256
0.096479
0.09174
0.089396
0.081012
0.080354
0.068175
0.067355
0.10538
0.10504
0.10376
0.10208
0.099323
0.096523
0.091727
0.089349
0.080922
0.080175
0.068037
0.067097
0.10551
0.10517
0.10387
0.10217
0.099393
0.096569
0.091717
0.089303
0.080834
0.079996
0.0679
0.06684
0.10564
0.10529
0.10399
0.10228
0.099465
0.096618
0.091709
0.089258
0.080748
0.079819
0.067763
0.066584
0.10577
0.10542
0.10411
0.10238
0.09954
0.096669
0.091704
0.089214
0.080663
0.079642
0.067627
0.066328
0.10591
0.10556
0.10424
0.10249
0.099618
0.096723
0.0917
0.089172
0.08058
0.079465
0.067492
0.066072
0.10605
0.1057
0.10437
0.1026
0.099699
0.096779
0.091699
0.08913
0.080499
0.07929
0.067357
0.065818
0.10619
0.10584
0.1045
0.10272
0.099783
0.096838
0.091701
0.089089
0.08042
0.079115
0.067222
0.065563
0.10634
0.10599
0.10464
0.10284
0.09987
0.0969
0.091705
0.08905
0.080342
0.078941
0.067088
0.065309
0.10649
0.10614
0.10478
0.10296
0.099961
0.096965
0.091712
0.089013
0.080267
0.078767
0.066955
0.065055
0.10665
0.10629
0.10492
0.10309
0.10006
0.097033
0.091721
0.088976
0.080193
0.078595
0.066821
0.064801
0.10681
0.10645
0.10507
0.10322
0.10015
0.097104
0.091734
0.088942
0.080122
0.078423
0.066688
0.064547
0.10698
0.10661
0.10522
0.10335
0.10026
0.097178
0.091749
0.088909
0.080052
0.078252
0.066555
0.064293
0.10715
0.10678
0.10538
0.10349
0.10036
0.097256
0.091768
0.088877
0.079984
0.078082
0.066422
0.064039
0.10732
0.10695
0.10554
0.10364
0.10047
0.097337
0.09179
0.088848
0.079919
0.077912
0.066289
0.063785
0.1075
0.10713
0.10571
0.10378
0.10058
0.097422
0.091815
0.08882
0.079855
0.077744
0.066156
0.063531
0.10769
0.10731
0.10588
0.10394
0.1007
0.097511
0.091844
0.088794
0.079794
0.077576
0.066023
0.063276
0.10788
0.1075
0.10606
0.1041
0.10083
0.097603
0.091876
0.08877
0.079735
0.07741
0.06589
0.063021
0.10807
0.1077
0.10624
0.10426
0.10095
0.0977
0.091912
0.088749
0.079678
0.077244
0.065757
0.062766
0.10827
0.1079
0.10643
0.10443
0.10109
0.097801
0.091952
0.088729
0.079623
0.077079
0.065624
0.06251
0.10848
0.1081
0.10662
0.10461
0.10122
0.097906
0.091996
0.088712
0.07957
0.076915
0.06549
0.062253
0.10869
0.10831
0.10682
0.10479
0.10137
0.098015
0.092045
0.088698
0.07952
0.076752
0.065356
0.061995
0.10891
0.10853
0.10703
0.10497
0.10152
0.098129
0.092097
0.088686
0.079472
0.07659
0.065222
0.061736
0.10914
0.10875
0.10724
0.10517
0.10167
0.098248
0.092154
0.088676
0.079426
0.076429
0.065087
0.061477
0.10937
0.10898
0.10746
0.10537
0.10183
0.098372
0.092215
0.088669
0.079383
0.076268
0.064952
0.061216
0.1096
0.10922
0.10769
0.10557
0.102
0.098501
0.092281
0.088665
0.079343
0.076109
0.064816
0.060954
0.10985
0.10946
0.10792
0.10578
0.10217
0.098635
0.092351
0.088664
0.079304
0.07595
0.064679
0.060691
0.1101
0.10972
0.10816
0.106
0.10235
0.098775
0.092427
0.088666
0.079268
0.075793
0.064542
0.060426
0.11036
0.10997
0.10841
0.10623
0.10253
0.09892
0.092507
0.08867
0.079235
0.075636
0.064403
0.060159
0.11062
0.11024
0.10866
0.10646
0.10272
0.099071
0.092593
0.088678
0.079204
0.07548
0.064264
0.059891
0.1109
0.11051
0.10892
0.1067
0.10292
0.099227
0.092684
0.08869
0.079176
0.075325
0.064123
0.059621
0.11118
0.1108
0.10919
0.10695
0.10313
0.09939
0.092781
0.088704
0.07915
0.07517
0.063982
0.059348
0.11147
0.11109
0.10947
0.10721
0.10334
0.099559
0.092883
0.088722
0.079126
0.075016
0.063839
0.059074
0.11177
0.11138
0.10976
0.10748
0.10356
0.099734
0.092991
0.088743
0.079105
0.074863
0.063694
0.058797
0.11207
0.11169
0.11005
0.10775
0.10379
0.099916
0.093104
0.088768
0.079087
0.074711
0.063548
0.058517
0.11239
0.11201
0.11036
0.10803
0.10403
0.1001
0.093224
0.088797
0.079071
0.074559
0.0634
0.058235
0.11271
0.11233
0.11067
0.10832
0.10427
0.1003
0.093349
0.088829
0.079057
0.074407
0.06325
0.057949
0.11304
0.11267
0.11099
0.10862
0.10452
0.1005
0.093481
0.088865
0.079046
0.074256
0.063098
0.057661
0.11338
0.11301
0.11132
0.10893
0.10479
0.10071
0.093619
0.088905
0.079037
0.074105
0.062944
0.057368
0.11373
0.11337
0.11167
0.10925
0.10506
0.10093
0.093763
0.088948
0.07903
0.073954
0.062788
0.057072
0.1141
0.11373
0.11202
0.10958
0.10534
0.10115
0.093914
0.088996
0.079026
0.073803
0.062628
0.056773
0.11447
0.11411
0.11238
0.10992
0.10562
0.10139
0.094072
0.089047
0.079023
0.073652
0.062466
0.056468
0.11485
0.11449
0.11275
0.11027
0.10592
0.10163
0.094236
0.089102
0.079023
0.073501
0.0623
0.05616
0.11524
0.11489
0.11314
0.11063
0.10623
0.10188
0.094407
0.089161
0.079025
0.073349
0.062132
0.055846
0.11564
0.1153
0.11353
0.111
0.10655
0.10213
0.094585
0.089225
0.079028
0.073196
0.061959
0.055527
0.11606
0.11572
0.11394
0.11139
0.10688
0.1024
0.09477
0.089292
0.079033
0.073043
0.061782
0.055202
0.11648
0.11615
0.11436
0.11178
0.10722
0.10267
0.094962
0.089363
0.07904
0.072889
0.061602
0.054872
0.11692
0.1166
0.11479
0.11219
0.10757
0.10296
0.095162
0.089438
0.079048
0.072733
0.061416
0.054535
0.11737
0.11706
0.11524
0.11261
0.10793
0.10325
0.095368
0.089517
0.079057
0.072576
0.061226
0.054192
0.11783
0.11753
0.1157
0.11304
0.10831
0.10355
0.095582
0.0896
0.079067
0.072417
0.06103
0.053841
0.11831
0.11801
0.11617
0.11348
0.10869
0.10386
0.095804
0.089687
0.079079
0.072256
0.060828
0.053482
0.1188
0.11851
0.11665
0.11394
0.10909
0.10418
0.096033
0.089778
0.079091
0.072093
0.06062
0.053116
0.1193
0.11902
0.11715
0.11442
0.1095
0.10451
0.09627
0.089873
0.079103
0.071926
0.060406
0.05274
0.11982
0.11955
0.11767
0.1149
0.10993
0.10485
0.096515
0.089971
0.079116
0.071757
0.060184
0.052356
0.12035
0.1201
0.1182
0.11541
0.11037
0.10521
0.096768
0.090074
0.079128
0.071585
0.059955
0.051961
0.1209
0.12066
0.11875
0.11593
0.11082
0.10557
0.097028
0.09018
0.079141
0.071409
0.059718
0.051557
0.12146
0.12124
0.11931
0.11646
0.11128
0.10595
0.097298
0.09029
0.079153
0.071228
0.059473
0.051141
0.12204
0.12183
0.1199
0.11701
0.11177
0.10633
0.097575
0.090404
0.079165
0.071043
0.059218
0.050713
0.12264
0.12245
0.1205
0.11758
0.11226
0.10673
0.097862
0.090521
0.079175
0.070854
0.058953
0.050273
0.12326
0.12308
0.12112
0.11817
0.11278
0.10714
0.098157
0.090642
0.079184
0.070658
0.058678
0.04982
0.12389
0.12374
0.12176
0.11878
0.11331
0.10757
0.098462
0.090767
0.079192
0.070457
0.058392
0.049354
0.12455
0.12441
0.12242
0.11941
0.11386
0.10801
0.098777
0.090896
0.079198
0.07025
0.058094
0.048872
0.12523
0.12511
0.12311
0.12006
0.11443
0.10846
0.099101
0.091029
0.079202
0.070036
0.057784
0.048375
0.12593
0.12583
0.12382
0.12073
0.11502
0.10893
0.099436
0.091166
0.079204
0.069815
0.05746
0.047862
0.12665
0.12658
0.12456
0.12143
0.11564
0.10942
0.099781
0.091306
0.079203
0.069585
0.057123
0.047332
0.12741
0.12736
0.12532
0.12216
0.11627
0.10992
0.10014
0.091451
0.079199
0.069348
0.056771
0.046783
0.12818
0.12816
0.12611
0.12291
0.11693
0.11044
0.10051
0.0916
0.079192
0.069101
0.056404
0.046215
0.12899
0.129
0.12694
0.12369
0.11762
0.11098
0.10089
0.091753
0.079182
0.068845
0.056019
0.045626
0.12983
0.12987
0.12779
0.1245
0.11833
0.11154
0.10128
0.091911
0.079168
0.068578
0.055618
0.045017
0.1307
0.13077
0.12868
0.12535
0.11908
0.11213
0.10169
0.092073
0.079149
0.068301
0.055198
0.044384
0.1316
0.13171
0.12961
0.12623
0.11985
0.11273
0.10211
0.092239
0.079126
0.068011
0.054758
0.043728
0.13254
0.13268
0.13058
0.12715
0.12066
0.11336
0.10255
0.09241
0.079097
0.067709
0.054298
0.043046
0.13352
0.1337
0.1316
0.1281
0.1215
0.11402
0.103
0.092586
0.079063
0.067393
0.053815
0.042337
0.13454
0.13477
0.13266
0.12911
0.12238
0.1147
0.10347
0.092766
0.079022
0.067062
0.053309
0.0416
0.13561
0.13588
0.13376
0.13015
0.1233
0.11541
0.10396
0.092951
0.078974
0.066714
0.052777
0.040832
0.13672
0.13704
0.13492
0.13125
0.12426
0.11615
0.10447
0.093139
0.078917
0.066349
0.052219
0.040033
0.13788
0.13826
0.13614
0.1324
0.12527
0.11693
0.10499
0.093331
0.07885
0.065964
0.051631
0.039199
0.13909
0.13953
0.13741
0.1336
0.12632
0.11773
0.10553
0.093525
0.078772
0.065557
0.051011
0.038329
0.14036
0.14086
0.13875
0.13486
0.12743
0.11857
0.10609
0.093722
0.078681
0.065127
0.050358
0.037421
0.14169
0.14225
0.14015
0.13618
0.12859
0.11945
0.10667
0.093919
0.078575
0.064669
0.049668
0.03647
0.14308
0.14372
0.14162
0.13757
0.1298
0.12037
0.10727
0.094115
0.078451
0.064182
0.048937
0.035475
0.14453
0.14525
0.14317
0.13902
0.13107
0.12132
0.10789
0.094308
0.078307
0.063661
0.048163
0.034431
0.14605
0.14685
0.14479
0.14055
0.1324
0.12231
0.10852
0.094495
0.078138
0.063103
0.047341
0.033336
0.14764
0.14854
0.1465
0.14216
0.1338
0.12334
0.10917
0.094674
0.077942
0.062502
0.046466
0.032185
0.1493
0.1503
0.14829
0.14384
0.13525
0.12441
0.10984
0.094842
0.077712
0.061855
0.045533
0.030972
0.15104
0.15215
0.15018
0.14561
0.13678
0.12553
0.11051
0.094993
0.077444
0.061154
0.044537
0.029694
0.15286
0.15409
0.15216
0.14746
0.13837
0.12668
0.11119
0.095123
0.077132
0.060395
0.043472
0.028343
0.15477
0.15613
0.15424
0.14941
0.14004
0.12787
0.11188
0.095228
0.07677
0.059568
0.042329
0.026914
0.15676
0.15827
0.15643
0.15146
0.14178
0.12909
0.11257
0.095299
0.076349
0.058668
0.041103
0.0254
0.15884
0.16051
0.15873
0.15361
0.1436
0.13036
0.11326
0.095331
0.075861
0.057685
0.039785
0.023793
0.16101
0.16287
0.16116
0.15587
0.14549
0.13166
0.11393
0.095314
0.075298
0.056611
0.038366
0.022085
0.16329
0.16534
0.16371
0.15824
0.14746
0.13299
0.11459
0.09524
0.074648
0.055434
0.036837
0.020268
0.16568
0.16795
0.16641
0.16074
0.14952
0.13435
0.11522
0.095097
0.073899
0.054144
0.035189
0.018332
0.16818
0.17071
0.16927
0.16338
0.15167
0.13574
0.11581
0.094872
0.073038
0.052729
0.033409
0.016269
0.17081
0.17362
0.17229
0.16617
0.1539
0.13714
0.11636
0.094551
0.07205
0.051175
0.031488
0.014067
0.17357
0.1767
0.17551
0.16912
0.15623
0.13856
0.11684
0.094114
0.070915
0.049465
0.02941
0.011717
0.17647
0.17998
0.17893
0.17225
0.15866
0.13998
0.11724
0.093542
0.069613
0.047582
0.027161
0.0092065
0.17953
0.18347
0.18258
0.17556
0.16117
0.1414
0.11753
0.092805
0.068117
0.045502
0.024725
0.0065243
0.18276
0.18719
0.1865
0.17908
0.16379
0.14278
0.11769
0.091873
0.066397
0.043201
0.022079
0.003656
0.18617
0.19118
0.19069
0.18283
0.16649
0.1441
0.11768
0.090705
0.064415
0.040646
0.019201
0.00058577
0.18977
0.19546
0.19521
0.1868
0.16926
0.14533
0.11745
0.089253
0.062127
0.037803
0.016062
-0.002705
0.19355
0.20004
0.20006
0.19102
0.17208
0.14643
0.11694
0.08746
0.059483
0.034628
0.01263
-0.0062374
0.19752
0.20497
0.20529
0.19547
0.17491
0.14732
0.11609
0.085258
0.056424
0.031076
0.008869
-0.010035
0.20168
0.21025
0.2109
0.20014
0.1777
0.14793
0.1148
0.082569
0.052885
0.027094
0.0047402
-0.014122
0.20599
0.2159
0.21692
0.205
0.18036
0.14815
0.11298
0.079302
0.048796
0.022632
0.00020647
-0.018522
0.21044
0.22194
0.22334
0.20998
0.18279
0.14784
0.11049
0.075357
0.044084
0.017638
-0.0047652
-0.023251
0.21497
0.22835
0.23013
0.21501
0.18483
0.14685
0.10719
0.070624
0.038675
0.012068
-0.010198
-0.028317
0.21954
0.23513
0.23724
0.21993
0.18627
0.14496
0.10292
0.064982
0.032495
0.0058849
-0.016101
-0.033706
0.22406
0.24222
0.24455
0.22451
0.18685
0.14191
0.097472
0.058306
0.025478
-0.00093211
-0.022463
-0.039388
0.22846
0.24953
0.25181
0.22842
0.18619
0.1374
0.090638
0.050471
0.017569
-0.0083878
-0.029251
-0.045303
0.23263
0.25683
0.2586
0.23109
0.18378
0.13107
0.082195
0.04137
0.0087398
-0.016461
-0.036406
-0.051372
0.23648
0.26371
0.26415
0.2317
0.17896
0.12249
0.071939
0.030942
-0.00099158
-0.025091
-0.04384
-0.057495
0.23996
0.26944
0.26715
0.22897
0.17085
0.11121
0.059727
0.019212
-0.011526
-0.034161
-0.051432
-0.063557
0.24309
0.27276
0.26557
0.22108
0.15837
0.09682
0.045532
0.0063354
-0.022656
-0.043472
-0.059015
-0.069434
0.24611
0.27172
0.25636
0.20555
0.1402
0.078931
0.029465
-0.0073972
-0.034066
-0.052759
-0.066389
-0.075001
0.24956
0.2637
0.23552
0.17937
0.11491
0.057233
0.011732
-0.021629
-0.045403
-0.061735
-0.073355
-0.080152
0.25435
0.24585
0.19886
0.13948
0.08117
0.031456
-0.0074813
-0.036061
-0.056387
-0.070183
-0.079773
-0.084833
0.26093
0.21504
0.14342
0.084115
0.038198
0.0014383
-0.028082
-0.050546
-0.066895
-0.078024
-0.085611
-0.089079
0.26966
0.16526
0.065525
0.012044
-0.014783
-0.033466
-0.050522
-0.0654
-0.077185
-0.085497
-0.091106
-0.093155
0.29078
0.098066
-0.033963
-0.074881
-0.077292
-0.074173
-0.076135
-0.081886
-0.088361
-0.093555
-0.097089
-0.097817
0.33603
0.031528
-0.13822
-0.16356
-0.14065
-0.11624
-0.10327
-0.099682
-0.10058
-0.10247
-0.10386
-0.10323
0.10206
0.062576
0.052348
0.046206
0.041916
0.038667
0.036011
0.033729
0.031691
0.029802
0.028034
0.026159
0.12125
0.077675
0.064978
0.056832
0.051213
0.047018
0.043629
0.040746
0.038195
0.035848
0.033666
0.031549
0.10865
0.072656
0.061173
0.053177
0.047652
0.043556
0.04027
0.037502
0.03507
0.032851
0.030798
0.028842
0.10358
0.072319
0.061176
0.053099
0.047449
0.043253
0.039893
0.037075
0.03461
0.032374
0.030306
0.028327
0.10288
0.074431
0.063132
0.054844
0.048953
0.044556
0.041032
0.038081
0.035503
0.033176
0.031021
0.028968
0.10216
0.076186
0.064816
0.056397
0.050312
0.045743
0.042072
0.039001
0.03632
0.03391
0.031673
0.029565
0.10099
0.077407
0.066113
0.057646
0.051416
0.046705
0.04291
0.039736
0.036966
0.034487
0.032181
0.030034
0.09974
0.078397
0.067266
0.0588
0.052456
0.047619
0.043709
0.040438
0.037582
0.035041
0.032668
0.030496
0.098565
0.079241
0.068341
0.059917
0.053488
0.048537
0.044517
0.041152
0.038212
0.035611
0.033173
0.030987
0.097443
0.079932
0.069325
0.060985
0.054504
0.049454
0.045332
0.041877
0.038857
0.036198
0.033699
0.031509
0.096355
0.08047
0.070207
0.061993
0.055492
0.050365
0.046152
0.042613
0.039515
0.036802
0.034246
0.032062
0.095297
0.080869
0.070987
0.062932
0.056446
0.051263
0.046972
0.043358
0.040187
0.037426
0.034816
0.032645
0.094273
0.081146
0.071666
0.063798
0.057357
0.052141
0.047789
0.044109
0.040873
0.038068
0.035409
0.033256
0.093283
0.081317
0.072246
0.064586
0.058218
0.052992
0.048595
0.044861
0.041568
0.038724
0.036021
0.03389
0.09233
0.081396
0.072734
0.065296
0.059023
0.053809
0.049383
0.045608
0.042266
0.03939
0.036648
0.034537
0.091414
0.081399
0.073136
0.065928
0.059768
0.054584
0.050147
0.046342
0.042962
0.040059
0.037284
0.03519
0.090536
0.081338
0.07346
0.066486
0.060453
0.055315
0.05088
0.047059
0.043649
0.040725
0.037922
0.03584
0.089696
0.081224
0.073713
0.066972
0.061076
0.055999
0.05158
0.047752
0.044322
0.041382
0.038558
0.03648
0.088893
0.081068
0.073904
0.067392
0.061639
0.056633
0.052241
0.048417
0.044976
0.042026
0.039185
0.037104
0.088125
0.080877
0.07404
0.067752
0.062145
0.057219
0.052864
0.049053
0.045608
0.042651
0.039799
0.037706
0.087392
0.080659
0.074128
0.068057
0.062597
0.057757
0.053447
0.049656
0.046215
0.043254
0.040397
0.038283
0.086691
0.080418
0.074173
0.068311
0.062999
0.058248
0.05399
0.050225
0.046795
0.043833
0.040975
0.038833
0.086021
0.080161
0.074182
0.06852
0.063353
0.058696
0.054495
0.050761
0.047347
0.044387
0.041531
0.039356
0.085381
0.079891
0.07416
0.068689
0.063665
0.059102
0.054961
0.051263
0.04787
0.044913
0.042066
0.039852
0.084767
0.079611
0.074111
0.068821
0.063937
0.059469
0.055392
0.051733
0.048365
0.045413
0.042577
0.040322
0.084178
0.079323
0.074039
0.068922
0.064172
0.0598
0.055789
0.052171
0.048832
0.045886
0.043065
0.040767
0.083613
0.079031
0.073947
0.068994
0.064375
0.060097
0.056154
0.052579
0.049271
0.046334
0.043531
0.04119
0.08307
0.078735
0.073838
0.069041
0.064548
0.060363
0.056488
0.052958
0.049684
0.046757
0.043975
0.041593
0.082548
0.078437
0.073715
0.069065
0.064694
0.060601
0.056794
0.05331
0.050072
0.047156
0.044397
0.041978
0.082044
0.078138
0.073579
0.06907
0.064816
0.060812
0.057074
0.053636
0.050436
0.047532
0.044798
0.042347
0.081558
0.077839
0.073433
0.069057
0.064915
0.060998
0.057329
0.053938
0.050778
0.047888
0.04518
0.0427
0.081089
0.077542
0.073278
0.069028
0.064994
0.061163
0.057561
0.054217
0.051097
0.048223
0.045543
0.04304
0.080636
0.077246
0.073116
0.068985
0.065055
0.061306
0.057771
0.054476
0.051396
0.04854
0.045889
0.043367
0.080197
0.076952
0.072948
0.06893
0.065099
0.061431
0.057962
0.054714
0.051676
0.048839
0.046217
0.043684
0.079772
0.07666
0.072775
0.068864
0.065129