/*--------------------------------*- C++ -*----------------------------------*\
  =========                 |
  \\      /  F ield         | OpenFOAM: The Open Source CFD Toolbox
   \\    /   O peration     | Website:  https://openfoam.org
    \\  /    A nd           | Version:  6.0
     \\/     M anipulation  |
\*---------------------------------------------------------------------------*/
FoamFile
{
    version     2.0;
    format      ascii;
    class       volScalarField;
    location    "2";
    object      p;
}
// * * * * * * * * * * * * * * * * * * * * * * * * * * * * * * * * * * * * * //

dimensions      [0 2 -2 0 0 0 0];

internalField   nonuniform List<scalar> 
14500
(
0.060712
0.060557
0.060223
0.059614
0.05916
0.058389
0.058514
0.058563
0.060749
0.065094
0.082796
0.11952
0.060712
0.060558
0.060223
0.059614
0.05916
0.058388
0.058514
0.058561
0.060747
0.065119
0.082248
0.11627
0.060713
0.060558
0.060223
0.059614
0.059161
0.058387
0.058514
0.058557
0.06074
0.065128
0.081473
0.11291
0.060713
0.060559
0.060224
0.059614
0.059162
0.058385
0.058513
0.058551
0.060728
0.065118
0.080593
0.10998
0.060714
0.060559
0.060225
0.059614
0.059163
0.058383
0.058512
0.058543
0.060711
0.065092
0.079661
0.10743
0.060716
0.06056
0.060227
0.059614
0.059163
0.05838
0.05851
0.058534
0.06069
0.065053
0.078707
0.10512
0.060717
0.060562
0.060228
0.059614
0.059164
0.058377
0.058507
0.058524
0.060665
0.064998
0.077759
0.10295
0.060719
0.060563
0.060229
0.059615
0.059165
0.058374
0.058504
0.058511
0.060635
0.064928
0.076834
0.1009
0.06072
0.060565
0.060231
0.059615
0.059165
0.05837
0.0585
0.058498
0.0606
0.064841
0.075946
0.098972
0.060723
0.060566
0.060233
0.059615
0.059166
0.058366
0.058495
0.058483
0.06056
0.06474
0.075102
0.097158
0.060725
0.060568
0.060235
0.059616
0.059166
0.058362
0.05849
0.058466
0.060515
0.064625
0.074303
0.095452
0.060727
0.060571
0.060237
0.059616
0.059166
0.058357
0.058484
0.058448
0.060464
0.0645
0.07355
0.093847
0.06073
0.060573
0.060239
0.059616
0.059167
0.058352
0.058478
0.058428
0.060408
0.064365
0.072839
0.092334
0.060733
0.060576
0.060241
0.059617
0.059167
0.058346
0.058471
0.058406
0.060347
0.064225
0.072167
0.090906
0.060736
0.060578
0.060244
0.059618
0.059167
0.058341
0.058463
0.058383
0.06028
0.064079
0.071527
0.089555
0.060739
0.060581
0.060246
0.059618
0.059167
0.058334
0.058455
0.058358
0.060207
0.063932
0.070915
0.088273
0.060743
0.060585
0.060249
0.059619
0.059167
0.058328
0.058446
0.058332
0.060129
0.063785
0.070326
0.087053
0.060747
0.060588
0.060252
0.05962
0.059167
0.058321
0.058436
0.058303
0.060047
0.063638
0.069756
0.085888
0.060751
0.060592
0.060255
0.05962
0.059167
0.058314
0.058426
0.058273
0.059959
0.063494
0.0692
0.084771
0.060755
0.060596
0.060259
0.059621
0.059167
0.058306
0.058415
0.058241
0.059868
0.063353
0.068656
0.083698
0.06076
0.0606
0.060262
0.059622
0.059167
0.058298
0.058404
0.058208
0.059773
0.063215
0.068121
0.082664
0.060765
0.060604
0.060266
0.059623
0.059167
0.05829
0.058392
0.058172
0.059674
0.06308
0.067593
0.081664
0.06077
0.060609
0.06027
0.059625
0.059166
0.058281
0.05838
0.058135
0.059573
0.062949
0.067071
0.080695
0.060775
0.060613
0.060274
0.059626
0.059166
0.058272
0.058366
0.058096
0.05947
0.062822
0.066552
0.079754
0.060781
0.060618
0.060278
0.059627
0.059166
0.058263
0.058353
0.058056
0.059364
0.062697
0.066038
0.078839
0.060787
0.060624
0.060282
0.059628
0.059165
0.058253
0.058338
0.058014
0.059257
0.062575
0.065526
0.077949
0.060793
0.060629
0.060287
0.05963
0.059165
0.058243
0.058323
0.057971
0.059149
0.062454
0.065017
0.077081
0.060799
0.060635
0.060292
0.059631
0.059164
0.058233
0.058308
0.057926
0.05904
0.062334
0.064511
0.076234
0.060806
0.060641
0.060297
0.059633
0.059164
0.058222
0.058291
0.05788
0.058931
0.062215
0.064008
0.075407
0.060813
0.060647
0.060302
0.059635
0.059163
0.058211
0.058275
0.057832
0.058821
0.062097
0.063509
0.074599
0.06082
0.060654
0.060307
0.059637
0.059162
0.0582
0.058257
0.057784
0.058711
0.061978
0.063013
0.07381
0.060828
0.060661
0.060313
0.059639
0.059162
0.058188
0.058239
0.057735
0.0586
0.061858
0.062521
0.073039
0.060836
0.060668
0.060319
0.059641
0.059161
0.058176
0.05822
0.057685
0.05849
0.061737
0.062034
0.072286
0.060844
0.060675
0.060325
0.059643
0.05916
0.058164
0.058201
0.057634
0.058379
0.061615
0.061551
0.071549
0.060852
0.060683
0.060331
0.059645
0.05916
0.058151
0.058181
0.057583
0.058267
0.061491
0.061073
0.070829
0.060861
0.060691
0.060338
0.059648
0.059159
0.058138
0.058161
0.057531
0.058156
0.061365
0.0606
0.070124
0.06087
0.060699
0.060344
0.05965
0.059158
0.058125
0.058139
0.057479
0.058043
0.061237
0.060133
0.069435
0.06088
0.060708
0.060351
0.059653
0.059157
0.058111
0.058117
0.057426
0.057931
0.061107
0.059672
0.06876
0.060889
0.060717
0.060358
0.059656
0.059156
0.058098
0.058095
0.057373
0.057817
0.060974
0.059217
0.0681
0.060899
0.060726
0.060366
0.059659
0.059155
0.058084
0.058071
0.05732
0.057703
0.06084
0.058768
0.067454
0.06091
0.060735
0.060373
0.059662
0.059155
0.058069
0.058047
0.057267
0.057588
0.060703
0.058326
0.066821
0.060921
0.060745
0.060381
0.059665
0.059154
0.058055
0.058023
0.057214
0.057471
0.060564
0.05789
0.066201
0.060932
0.060755
0.060389
0.059669
0.059153
0.05804
0.057997
0.057161
0.057354
0.060423
0.05746
0.065594
0.060943
0.060766
0.060398
0.059672
0.059152
0.058025
0.057971
0.057107
0.057235
0.060279
0.057037
0.064999
0.060955
0.060776
0.060407
0.059676
0.059151
0.05801
0.057945
0.057054
0.057116
0.060134
0.056621
0.064415
0.060967
0.060788
0.060415
0.05968
0.05915
0.057995
0.057917
0.057
0.056995
0.059987
0.056211
0.063842
0.06098
0.060799
0.060425
0.059684
0.059149
0.05798
0.057889
0.056946
0.056873
0.059837
0.055808
0.06328
0.060993
0.060811
0.060434
0.059689
0.059148
0.057964
0.05786
0.056893
0.05675
0.059686
0.055411
0.062729
0.061006
0.060823
0.060444
0.059693
0.059147
0.057949
0.057831
0.056839
0.056625
0.059533
0.055021
0.062188
0.06102
0.060836
0.060454
0.059698
0.059146
0.057933
0.057801
0.056785
0.0565
0.059379
0.054637
0.061656
0.061034
0.060849
0.060465
0.059703
0.059145
0.057917
0.05777
0.05673
0.056373
0.059222
0.054259
0.061133
0.061048
0.060862
0.060475
0.059708
0.059145
0.057901
0.057738
0.056676
0.056245
0.059065
0.053888
0.06062
0.061063
0.060876
0.060486
0.059713
0.059144
0.057885
0.057706
0.056622
0.056116
0.058906
0.053523
0.060115
0.061079
0.06089
0.060498
0.059719
0.059143
0.057869
0.057673
0.056567
0.055987
0.058745
0.053164
0.059619
0.061094
0.060905
0.060509
0.059725
0.059142
0.057853
0.057639
0.056512
0.055856
0.058583
0.052811
0.059131
0.061111
0.060919
0.060521
0.059731
0.059142
0.057837
0.057605
0.056457
0.055724
0.05842
0.052464
0.058651
0.061127
0.060935
0.060534
0.059737
0.059141
0.057821
0.05757
0.056402
0.055592
0.058256
0.052122
0.058179
0.061144
0.060951
0.060546
0.059744
0.05914
0.057804
0.057534
0.056347
0.055458
0.058091
0.051787
0.057714
0.061162
0.060967
0.06056
0.059751
0.05914
0.057788
0.057498
0.056291
0.055324
0.057924
0.051457
0.057256
0.06118
0.060984
0.060573
0.059758
0.059139
0.057772
0.057461
0.056236
0.05519
0.057757
0.051133
0.056805
0.061198
0.061001
0.060587
0.059765
0.059139
0.057756
0.057424
0.05618
0.055055
0.057588
0.050814
0.056362
0.061217
0.061019
0.060601
0.059773
0.059138
0.057739
0.057386
0.056124
0.054919
0.057419
0.0505
0.055924
0.061237
0.061037
0.060616
0.059781
0.059138
0.057723
0.057347
0.056067
0.054782
0.057249
0.050192
0.055494
0.061257
0.061055
0.060631
0.059789
0.059138
0.057707
0.057308
0.056011
0.054646
0.057078
0.049889
0.055069
0.061277
0.061074
0.060646
0.059798
0.059138
0.057691
0.057268
0.055954
0.054508
0.056906
0.049591
0.054651
0.061299
0.061094
0.060662
0.059807
0.059138
0.057675
0.057228
0.055897
0.054371
0.056733
0.049298
0.054238
0.06132
0.061114
0.060678
0.059816
0.059138
0.057659
0.057188
0.05584
0.054233
0.05656
0.04901
0.053832
0.061342
0.061135
0.060695
0.059826
0.059139
0.057643
0.057146
0.055783
0.054095
0.056386
0.048727
0.053431
0.061365
0.061156
0.060712
0.059836
0.059139
0.057627
0.057105
0.055726
0.053957
0.056211
0.048448
0.053035
0.061388
0.061178
0.06073
0.059847
0.05914
0.057611
0.057062
0.055668
0.053818
0.056036
0.048174
0.052645
0.061412
0.0612
0.060748
0.059857
0.059141
0.057595
0.05702
0.05561
0.05368
0.05586
0.047904
0.05226
0.061437
0.061223
0.060767
0.059869
0.059142
0.05758
0.056977
0.055553
0.053541
0.055684
0.047639
0.051881
0.061462
0.061247
0.060786
0.05988
0.059143
0.057564
0.056933
0.055495
0.053403
0.055507
0.047378
0.051506
0.061487
0.061271
0.060806
0.059892
0.059145
0.057549
0.05689
0.055437
0.053264
0.05533
0.047121
0.051136
0.061514
0.061295
0.060826
0.059905
0.059146
0.057534
0.056845
0.055378
0.053126
0.055152
0.046868
0.050771
0.061541
0.061321
0.060847
0.059917
0.059148
0.057519
0.056801
0.05532
0.052988
0.054974
0.04662
0.05041
0.061568
0.061347
0.060868
0.059931
0.059151
0.057504
0.056756
0.055261
0.052849
0.054796
0.046375
0.050054
0.061597
0.061373
0.06089
0.059944
0.059153
0.05749
0.05671
0.055203
0.052712
0.054617
0.046134
0.049702
0.061626
0.061401
0.060912
0.059959
0.059156
0.057475
0.056665
0.055144
0.052574
0.054438
0.045897
0.049355
0.061656
0.061429
0.060935
0.059973
0.059159
0.057461
0.056619
0.055085
0.052437
0.054258
0.045664
0.049011
0.061686
0.061457
0.060959
0.059989
0.059162
0.057448
0.056573
0.055026
0.0523
0.054079
0.045434
0.048672
0.061717
0.061487
0.060984
0.060004
0.059166
0.057434
0.056526
0.054967
0.052163
0.053899
0.045208
0.048337
0.061749
0.061517
0.061009
0.06002
0.05917
0.057421
0.056479
0.054908
0.052027
0.053719
0.044985
0.048006
0.061782
0.061548
0.061034
0.060037
0.059175
0.057408
0.056432
0.054849
0.051891
0.053538
0.044766
0.047678
0.061815
0.061579
0.061061
0.060055
0.059179
0.057395
0.056385
0.05479
0.051756
0.053358
0.044549
0.047354
0.06185
0.061612
0.061088
0.060072
0.059184
0.057383
0.056338
0.054731
0.051621
0.053177
0.044336
0.047034
0.061885
0.061645
0.061116
0.060091
0.05919
0.057371
0.05629
0.054671
0.051487
0.052997
0.044127
0.046718
0.061921
0.061679
0.061144
0.06011
0.059196
0.057359
0.056242
0.054612
0.051353
0.052816
0.04392
0.046404
0.061958
0.061714
0.061174
0.06013
0.059202
0.057348
0.056194
0.054552
0.05122
0.052635
0.043716
0.046095
0.061995
0.061749
0.061204
0.06015
0.059209
0.057337
0.056146
0.054493
0.051088
0.052454
0.043515
0.045788
0.062034
0.061786
0.061235
0.060171
0.059217
0.057326
0.056098
0.054433
0.050956
0.052274
0.043316
0.045485
0.062073
0.061823
0.061267
0.060193
0.059224
0.057316
0.05605
0.054374
0.050824
0.052093
0.043121
0.045185
0.062114
0.061862
0.061299
0.060215
0.059233
0.057307
0.056002
0.054314
0.050694
0.051912
0.042928
0.044887
0.062155
0.061901
0.061333
0.060238
0.059241
0.057298
0.055954
0.054254
0.050564
0.051731
0.042738
0.044593
0.062198
0.061941
0.061367
0.060262
0.059251
0.057289
0.055906
0.054195
0.050435
0.051551
0.04255
0.044302
0.062241
0.061982
0.061403
0.060287
0.059261
0.057281
0.055858
0.054135
0.050307
0.05137
0.042364
0.044013
0.062286
0.062025
0.061439
0.060312
0.059271
0.057274
0.05581
0.054075
0.050179
0.05119
0.042181
0.043728
0.062331
0.062068
0.061476
0.060338
0.059282
0.057267
0.055762
0.054015
0.050052
0.051009
0.042001
0.043445
0.062378
0.062112
0.061515
0.060366
0.059294
0.057261
0.055714
0.053956
0.049926
0.050829
0.041822
0.043164
0.062425
0.062157
0.061554
0.060394
0.059306
0.057255
0.055667
0.053896
0.049801
0.050649
0.041646
0.042886
0.062474
0.062204
0.061594
0.060422
0.059319
0.05725
0.05562
0.053836
0.049676
0.050469
0.041471
0.042611
0.062524
0.062251
0.061636
0.060452
0.059332
0.057246
0.055573
0.053776
0.049553
0.05029
0.041299
0.042338
0.062575
0.0623
0.061678
0.060483
0.059346
0.057242
0.055526
0.053717
0.04943
0.05011
0.041129
0.042067
0.062628
0.06235
0.061722
0.060515
0.059361
0.057239
0.05548
0.053657
0.049308
0.049931
0.04096
0.041799
0.062682
0.062401
0.061766
0.060548
0.059377
0.057237
0.055434
0.053597
0.049187
0.049752
0.040794
0.041532
0.062736
0.062454
0.061812
0.060581
0.059393
0.057236
0.055388
0.053538
0.049067
0.049573
0.040629
0.041268
0.062793
0.062507
0.06186
0.060616
0.05941
0.057235
0.055343
0.053478
0.048948
0.049395
0.040465
0.041006
0.06285
0.062562
0.061908
0.060652
0.059428
0.057235
0.055298
0.053419
0.048829
0.049217
0.040304
0.040746
0.062909
0.062618
0.061958
0.060689
0.059447
0.057236
0.055254
0.053359
0.048712
0.049039
0.040144
0.040488
0.06297
0.062676
0.062009
0.060728
0.059466
0.057238
0.05521
0.0533
0.048595
0.048861
0.039985
0.040231
0.063031
0.062735
0.062061
0.060767
0.059487
0.057241
0.055167
0.053241
0.04848
0.048684
0.039828
0.039977
0.063095
0.062796
0.062115
0.060808
0.059508
0.057245
0.055124
0.053182
0.048365
0.048507
0.039672
0.039724
0.06316
0.062858
0.06217
0.06085
0.059531
0.057249
0.055082
0.053123
0.048252
0.048331
0.039518
0.039473
0.063226
0.062921
0.062227
0.060893
0.059554
0.057255
0.055041
0.053064
0.048139
0.048154
0.039364
0.039223
0.063294
0.062987
0.062285
0.060938
0.059579
0.057262
0.055
0.053005
0.048027
0.047979
0.039212
0.038975
0.063364
0.063053
0.062344
0.060984
0.059605
0.057269
0.05496
0.052947
0.047917
0.047803
0.039061
0.038729
0.063435
0.063122
0.062406
0.061032
0.059631
0.057278
0.054921
0.052889
0.047807
0.047628
0.038911
0.038483
0.063508
0.063192
0.062469
0.061081
0.059659
0.057288
0.054883
0.052831
0.047698
0.047453
0.038762
0.038239
0.063583
0.063264
0.062533
0.061131
0.059688
0.057299
0.054845
0.052773
0.047591
0.047278
0.038614
0.037997
0.063659
0.063337
0.062599
0.061184
0.059719
0.057311
0.054808
0.052715
0.047484
0.047104
0.038467
0.037756
0.063738
0.063413
0.062667
0.061238
0.05975
0.057324
0.054773
0.052658
0.047378
0.04693
0.038321
0.037515
0.063818
0.06349
0.062737
0.061293
0.059783
0.057339
0.054738
0.052601
0.047274
0.046757
0.038175
0.037276
0.0639
0.06357
0.062808
0.06135
0.059818
0.057355
0.054704
0.052544
0.04717
0.046584
0.03803
0.037038
0.063985
0.063651
0.062882
0.061409
0.059854
0.057372
0.054671
0.052488
0.047068
0.046411
0.037886
0.036801
0.064071
0.063734
0.062957
0.06147
0.059891
0.05739
0.054639
0.052432
0.046966
0.046239
0.037742
0.036564
0.06416
0.06382
0.063035
0.061533
0.05993
0.05741
0.054608
0.052376
0.046866
0.046067
0.037599
0.036329
0.064251
0.063907
0.063114
0.061598
0.05997
0.057431
0.054579
0.052321
0.046766
0.045895
0.037456
0.036094
0.064344
0.063997
0.063196
0.061664
0.060012
0.057454
0.05455
0.052266
0.046668
0.045724
0.037313
0.03586
0.064439
0.064089
0.06328
0.061733
0.060056
0.057478
0.054523
0.052212
0.04657
0.045553
0.037171
0.035626
0.064536
0.064184
0.063366
0.061804
0.060102
0.057504
0.054497
0.052158
0.046474
0.045383
0.037029
0.035393
0.064637
0.064281
0.063454
0.061877
0.060149
0.057531
0.054472
0.052104
0.046379
0.045213
0.036888
0.03516
0.064739
0.064381
0.063545
0.061953
0.060198
0.05756
0.054449
0.052051
0.046285
0.045043
0.036746
0.034928
0.064844
0.064483
0.063639
0.062031
0.06025
0.05759
0.054427
0.051999
0.046191
0.044873
0.036605
0.034696
0.064952
0.064587
0.063734
0.062111
0.060303
0.057622
0.054407
0.051947
0.046099
0.044704
0.036463
0.034464
0.065063
0.064695
0.063833
0.062193
0.060358
0.057656
0.054388
0.051896
0.046008
0.044535
0.036322
0.034232
0.065176
0.064805
0.063934
0.062279
0.060415
0.057692
0.054371
0.051845
0.045918
0.044366
0.03618
0.034001
0.065292
0.064918
0.064038
0.062366
0.060475
0.05773
0.054355
0.051795
0.045829
0.044198
0.036038
0.033769
0.065411
0.065034
0.064145
0.062457
0.060537
0.057769
0.054341
0.051746
0.045741
0.04403
0.035896
0.033537
0.065534
0.065153
0.064254
0.06255
0.060601
0.057811
0.054328
0.051697
0.045654
0.043862
0.035754
0.033305
0.065659
0.065276
0.064367
0.062646
0.060668
0.057854
0.054318
0.051649
0.045568
0.043695
0.035611
0.033073
0.065787
0.065401
0.064483
0.062746
0.060737
0.0579
0.054309
0.051602
0.045483
0.043528
0.035468
0.03284
0.065919
0.06553
0.064602
0.062848
0.060809
0.057948
0.054302
0.051556
0.045399
0.04336
0.035324
0.032607
0.066055
0.065663
0.064724
0.062953
0.060883
0.057998
0.054297
0.05151
0.045316
0.043194
0.035179
0.032374
0.066194
0.065799
0.06485
0.063062
0.06096
0.058051
0.054295
0.051466
0.045234
0.043027
0.035034
0.032139
0.066336
0.065938
0.064979
0.063174
0.061041
0.058106
0.054294
0.051422
0.045153
0.04286
0.034888
0.031904
0.066483
0.066082
0.065112
0.06329
0.061124
0.058163
0.054295
0.051379
0.045073
0.042694
0.034742
0.031668
0.066633
0.066229
0.065249
0.063409
0.06121
0.058223
0.054299
0.051337
0.044994
0.042528
0.034594
0.031431
0.066787
0.066381
0.06539
0.063532
0.061299
0.058286
0.054305
0.051296
0.044916
0.042361
0.034446
0.031194
0.066945
0.066536
0.065534
0.063658
0.061392
0.058351
0.054313
0.051257
0.044839
0.042195
0.034296
0.030955
0.067108
0.066696
0.065683
0.063789
0.061488
0.058419
0.054323
0.051218
0.044762
0.042029
0.034145
0.030714
0.067275
0.066861
0.065836
0.063923
0.061588
0.05849
0.054336
0.05118
0.044687
0.041863
0.033993
0.030472
0.067446
0.06703
0.065994
0.064062
0.061691
0.058564
0.054352
0.051144
0.044613
0.041697
0.03384
0.030229
0.067623
0.067203
0.066156
0.064205
0.061798
0.058641
0.05437
0.051109
0.044539
0.04153
0.033685
0.029984
0.067804
0.067382
0.066323
0.064353
0.061909
0.058721
0.054391
0.051075
0.044467
0.041364
0.033529
0.029738
0.06799
0.067566
0.066494
0.064505
0.062024
0.058804
0.054415
0.051042
0.044395
0.041197
0.033371
0.029489
0.068181
0.067755
0.066671
0.064662
0.062143
0.058891
0.054442
0.051011
0.044324
0.041031
0.033211
0.029239
0.068378
0.067949
0.066853
0.064825
0.062267
0.058981
0.054471
0.050981
0.044255
0.040864
0.03305
0.028986
0.06858
0.068149
0.067041
0.064992
0.062395
0.059075
0.054504
0.050952
0.044186
0.040696
0.032886
0.028731
0.068787
0.068355
0.067234
0.065164
0.062528
0.059173
0.05454
0.050925
0.044117
0.040529
0.032721
0.028473
0.069001
0.068566
0.067432
0.065342
0.062665
0.059275
0.054579
0.0509
0.04405
0.040361
0.032553
0.028213
0.069221
0.068784
0.067637
0.065526
0.062808
0.05938
0.054622
0.050876
0.043983
0.040192
0.032383
0.02795
0.069447
0.069009
0.067848
0.065716
0.062956
0.05949
0.054667
0.050854
0.043918
0.040023
0.032211
0.027684
0.06968
0.06924
0.068065
0.065911
0.063109
0.059604
0.054717
0.050833
0.043852
0.039854
0.032036
0.027415
0.069919
0.069477
0.068289
0.066113
0.063267
0.059723
0.05477
0.050814
0.043788
0.039684
0.031859
0.027143
0.070166
0.069722
0.06852
0.066322
0.063432
0.059846
0.054827
0.050797
0.043725
0.039513
0.031678
0.026867
0.070419
0.069975
0.068759
0.066537
0.063602
0.059973
0.054888
0.050782
0.043662
0.039341
0.031495
0.026588
0.070681
0.070235
0.069004
0.06676
0.063779
0.060106
0.054952
0.050769
0.043599
0.039168
0.031309
0.026304
0.07095
0.070503
0.069257
0.066989
0.063962
0.060244
0.055021
0.050757
0.043538
0.038995
0.031119
0.026017
0.071227
0.070779
0.069519
0.067227
0.064152
0.060387
0.055095
0.050748
0.043477
0.03882
0.030926
0.025725
0.071513
0.071064
0.069788
0.067472
0.064349
0.060536
0.055172
0.050741
0.043416
0.038645
0.030729
0.025428
0.071807
0.071358
0.070067
0.067725
0.064553
0.06069
0.055254
0.050736
0.043356
0.038468
0.030529
0.025127
0.072111
0.071661
0.070354
0.067987
0.064764
0.06085
0.055341
0.050734
0.043296
0.038289
0.030324
0.024821
0.072423
0.071974
0.070651
0.068257
0.064983
0.061017
0.055432
0.050733
0.043237
0.038109
0.030115
0.024509
0.072746
0.072296
0.070957
0.068537
0.065211
0.061189
0.055529
0.050735
0.043179
0.037928
0.029902
0.024191
0.073079
0.072629
0.071273
0.068826
0.065447
0.061369
0.055631
0.05074
0.04312
0.037745
0.029684
0.023868
0.073423
0.072973
0.0716
0.069126
0.065691
0.061555
0.055737
0.050746
0.043062
0.03756
0.029462
0.023538
0.073777
0.073328
0.071938
0.069435
0.065945
0.061748
0.05585
0.050756
0.043004
0.037372
0.029234
0.023202
0.074143
0.073695
0.072287
0.069755
0.066208
0.061949
0.055968
0.050768
0.042946
0.037183
0.029
0.022859
0.074521
0.074074
0.072649
0.070087
0.066481
0.062157
0.056091
0.050783
0.042888
0.036991
0.028761
0.022509
0.074911
0.074465
0.073022
0.07043
0.066764
0.062373
0.056221
0.0508
0.042831
0.036797
0.028516
0.02215
0.075315
0.07487
0.073409
0.070785
0.067058
0.062598
0.056357
0.050821
0.042773
0.0366
0.028265
0.021784
0.075732
0.075289
0.073809
0.071153
0.067363
0.062831
0.0565
0.050844
0.042714
0.0364
0.028007
0.02141
0.076163
0.075722
0.074223
0.071534
0.06768
0.063074
0.056648
0.050871
0.042656
0.036197
0.027742
0.021026
0.076608
0.076171
0.074651
0.071928
0.068009
0.063325
0.056804
0.0509
0.042597
0.03599
0.02747
0.020633
0.07707
0.076635
0.075095
0.072337
0.068351
0.063587
0.056967
0.050932
0.042538
0.035779
0.027189
0.02023
0.077547
0.077115
0.075556
0.072762
0.068705
0.063858
0.057137
0.050968
0.042477
0.035565
0.026901
0.019816
0.078041
0.077613
0.076033
0.073202
0.069074
0.06414
0.057314
0.051007
0.042416
0.035346
0.026604
0.019392
0.078553
0.078128
0.076527
0.073658
0.069457
0.064434
0.0575
0.051049
0.042354
0.035122
0.026297
0.018955
0.079083
0.078663
0.07704
0.074131
0.069855
0.064738
0.057693
0.051094
0.042291
0.034893
0.025981
0.018507
0.079632
0.079217
0.077573
0.074623
0.070269
0.065055
0.057894
0.051142
0.042226
0.034659
0.025655
0.018045
0.080202
0.079792
0.078125
0.075133
0.070699
0.065384
0.058104
0.051194
0.042159
0.034419
0.025318
0.01757
0.080793
0.080389
0.078699
0.075664
0.071147
0.065726
0.058323
0.05125
0.04209
0.034172
0.024969
0.017081
0.081406
0.081009
0.079295
0.076215
0.071613
0.066082
0.05855
0.051308
0.042019
0.033919
0.024608
0.016576
0.082043
0.081652
0.079915
0.076787
0.072097
0.066452
0.058788
0.05137
0.041946
0.033658
0.024234
0.016055
0.082704
0.082321
0.080559
0.077383
0.072602
0.066837
0.059034
0.051435
0.041869
0.033389
0.023846
0.015517
0.083391
0.083016
0.08123
0.078003
0.073127
0.067237
0.059291
0.051504
0.041789
0.033111
0.023444
0.014961
0.084105
0.083739
0.081927
0.078648
0.073674
0.067654
0.059558
0.051575
0.041705
0.032824
0.023026
0.014386
0.084848
0.084492
0.082654
0.07932
0.074244
0.068087
0.059835
0.05165
0.041617
0.032526
0.022591
0.01379
0.085622
0.085276
0.083411
0.080019
0.074838
0.068538
0.060123
0.051727
0.041524
0.032217
0.022139
0.013173
0.086427
0.086092
0.0842
0.080749
0.075457
0.069008
0.060422
0.051808
0.041425
0.031896
0.021667
0.012533
0.087266
0.086943
0.085023
0.081509
0.076103
0.069497
0.060733
0.05189
0.041319
0.031562
0.021176
0.011869
0.08814
0.087831
0.085881
0.082303
0.076777
0.070006
0.061055
0.051975
0.041207
0.031214
0.020663
0.01118
0.089053
0.088757
0.086778
0.083131
0.07748
0.070536
0.061388
0.052061
0.041086
0.03085
0.020126
0.010462
0.090005
0.089725
0.087715
0.083996
0.078214
0.071088
0.061734
0.052149
0.040957
0.030469
0.019565
0.0097159
0.090999
0.090736
0.088694
0.0849
0.078981
0.071663
0.062093
0.052238
0.040817
0.030069
0.018977
0.0089384
0.092039
0.091793
0.089719
0.085845
0.079782
0.072262
0.062463
0.052327
0.040665
0.029648
0.018361
0.0081276
0.093126
0.092899
0.090792
0.086834
0.08062
0.072886
0.062846
0.052415
0.0405
0.029206
0.017713
0.0072814
0.094264
0.094058
0.091916
0.08787
0.081496
0.073537
0.063242
0.052502
0.040321
0.028739
0.017033
0.0063973
0.095457
0.095273
0.093094
0.088954
0.082412
0.074214
0.06365
0.052586
0.040125
0.028244
0.016316
0.0054725
0.096707
0.096546
0.094331
0.090092
0.083371
0.07492
0.064071
0.052667
0.03991
0.027721
0.015561
0.0045041
0.098019
0.097884
0.095629
0.091285
0.084375
0.075655
0.064503
0.052742
0.039674
0.027164
0.014763
0.0034891
0.099396
0.099289
0.096994
0.092537
0.085427
0.076421
0.064947
0.05281
0.039413
0.026572
0.01392
0.0024238
0.10084
0.10077
0.09843
0.093854
0.086529
0.077219
0.065402
0.052868
0.039126
0.02594
0.013027
0.0013045
0.10237
0.10232
0.099942
0.095237
0.087684
0.078049
0.065867
0.052915
0.038807
0.025264
0.01208
0.00012705
0.10398
0.10396
0.10154
0.096694
0.088896
0.078913
0.06634
0.052947
0.038453
0.02454
0.011075
-0.0011132
0.10567
0.10569
0.10322
0.098227
0.090167
0.079812
0.066821
0.052961
0.038059
0.023761
0.010006
-0.0024213
0.10746
0.10752
0.10499
0.099844
0.0915
0.080745
0.067307
0.052952
0.03762
0.022922
0.0088661
-0.0038027
0.10935
0.10946
0.10687
0.10155
0.092901
0.081715
0.067795
0.052916
0.037128
0.022016
0.0076501
-0.0052636
0.11135
0.1115
0.10886
0.10335
0.094371
0.082719
0.068282
0.052847
0.036578
0.021035
0.0063499
-0.0068107
0.11347
0.11368
0.11097
0.10525
0.095914
0.08376
0.068764
0.052737
0.035959
0.019971
0.0049575
-0.0084514
0.11572
0.11598
0.1132
0.10727
0.097535
0.084834
0.069236
0.052578
0.035263
0.018814
0.0034635
-0.010194
0.11811
0.11843
0.11558
0.1094
0.099237
0.085941
0.069691
0.052361
0.034478
0.017551
0.0018576
-0.012047
0.12066
0.12105
0.11811
0.11166
0.10102
0.087077
0.07012
0.052073
0.033591
0.01617
0.00012823
-0.014022
0.12338
0.12383
0.12081
0.11406
0.1029
0.08824
0.070513
0.0517
0.032586
0.014657
-0.0017377
-0.016128
0.12629
0.12681
0.12369
0.1166
0.10486
0.089421
0.070857
0.051226
0.031445
0.012994
-0.0037549
-0.018379
0.1294
0.13001
0.12677
0.1193
0.10691
0.090614
0.071137
0.05063
0.030148
0.011162
-0.0059396
-0.020789
0.13274
0.13343
0.13007
0.12217
0.10906
0.091806
0.07133
0.049887
0.028669
0.0091384
-0.0083105
-0.023371
0.13633
0.13712
0.13361
0.12523
0.1113
0.092982
0.071413
0.048968
0.02698
0.0068988
-0.010888
-0.026142
0.1402
0.1411
0.13742
0.12848
0.11362
0.094121
0.071353
0.047838
0.025048
0.0044139
-0.013696
-0.029122
0.14439
0.14539
0.14152
0.13194
0.11602
0.095194
0.07111
0.046453
0.022832
0.0016507
-0.01676
-0.03233
0.14893
0.15005
0.14594
0.13561
0.11848
0.096164
0.070635
0.044763
0.020288
-0.0014286
-0.020109
-0.035787
0.15387
0.15512
0.15073
0.13951
0.12097
0.09698
0.069864
0.042704
0.01736
-0.0048667
-0.023776
-0.039519
0.15927
0.16065
0.15591
0.14364
0.12346
0.097575
0.068719
0.040202
0.013986
-0.0087121
-0.027797
-0.04355
0.16518
0.16671
0.16152
0.14799
0.1259
0.097862
0.067101
0.037168
0.010093
-0.01302
-0.032212
-0.047908
0.17168
0.17336
0.16762
0.15255
0.1282
0.097721
0.064886
0.033492
0.0055975
-0.01785
-0.037064
-0.052622
0.17888
0.1807
0.17424
0.15728
0.13025
0.096996
0.06192
0.029047
0.00040265
-0.023272
-0.042399
-0.05772
0.18689
0.18884
0.18142
0.16209
0.13187
0.095482
0.058012
0.023682
-0.0055998
-0.029357
-0.048266
-0.06323
0.19584
0.1979
0.18918
0.16686
0.13282
0.092908
0.052926
0.017222
-0.012529
-0.036181
-0.054711
-0.069174
0.20593
0.20803
0.1975
0.17137
0.13277
0.088924
0.046378
0.009467
-0.020511
-0.043819
-0.061775
-0.075563
0.2174
0.2194
0.2063
0.17525
0.13122
0.083081
0.038035
0.0002038
-0.029671
-0.052334
-0.069481
-0.082387
0.23056
0.23218
0.21536
0.17794
0.12751
0.074821
0.027521
-0.010781
-0.040108
-0.061757
-0.077819
-0.089599
0.24583
0.24651
0.2242
0.17856
0.12075
0.063486
0.014454
-0.023659
-0.051865
-0.072057
-0.086715
-0.097098
0.26382
0.26242
0.23193
0.1758
0.10979
0.048371
-0.0014737
-0.038482
-0.064859
-0.083091
-0.095997
-0.10471
0.28533
0.27953
0.23692
0.16781
0.093349
0.02889
-0.020332
-0.055055
-0.078791
-0.094546
-0.10536
-0.11216
0.3114
0.29663
0.23645
0.1522
0.070245
0.004913
-0.041698
-0.072778
-0.093066
-0.1059
-0.11438
-0.11913
0.34298
0.31104
0.22668
0.12658
0.040119
-0.02271
-0.064368
-0.090532
-0.10678
-0.11648
-0.12254
-0.12527
0.37953
0.31748
0.20349
0.090236
0.0045618
-0.051692
-0.086316
-0.10682
-0.11889
-0.12558
-0.1294
-0.13036
0.41645
0.30648
0.16295
0.045442
-0.032506
-0.078854
-0.10549
-0.12045
-0.12877
-0.13292
-0.13487
-0.13444
0.4517
0.27133
0.10272
-0.0051245
-0.068063
-0.10278
-0.1217
-0.13182
-0.13703
-0.13913
-0.13957
-0.13811
0.49303
0.22533
0.033882
-0.05694
-0.10103
-0.1238
-0.13579
-0.14182
-0.14444
-0.14484
-0.14402
-0.14172
0.11518
0.062832
0.045437
0.036478
0.029939
0.024949
0.020892
0.017298
0.014137
0.011055
0.0083172
0.0054274
0.099282
0.055335
0.041087
0.03316
0.02721
0.022691
0.019027
0.015786
0.012948
0.01018
0.007733
0.0051571
0.078024
0.045643
0.034545
0.027959
0.022902
0.019084
0.016013
0.013306
0.010958
0.0086712
0.0066673
0.0045464
0.074583
0.04664
0.035249
0.028528
0.023352
0.019444
0.016319
0.013575
0.011209
0.0089113
0.006905
0.0047818
0.075432
0.04951
0.03731
0.030222
0.024747
0.020594
0.017289
0.014395
0.011908
0.0095002
0.0073993
0.0051832
0.075183
0.05129
0.038787
0.031502
0.025824
0.021484
0.018042
0.015038
0.012462
0.0099799
0.0078131
0.005542
0.074127
0.052456
0.039997
0.032603
0.026781
0.022284
0.018721
0.015622
0.012972
0.010432
0.0082124
0.0059134
0.072967
0.053439
0.041186
0.033719
0.02778
0.023134
0.01945
0.016254
0.013525
0.010927
0.0086528
0.0063391
0.071842
0.05425
0.042325
0.034831
0.028809
0.024033
0.02023
0.016937
0.014126
0.011473
0.009142
0.0068251
0.070708
0.054844
0.043352
0.035888
0.029826
0.024948
0.02104
0.017657
0.014767
0.012061
0.0096761
0.0073677
0.069551
0.055226
0.044245
0.036864
0.030803
0.025856
0.02186
0.018399
0.015436
0.012686
0.010249
0.0079593
0.068389
0.055429
0.045003
0.037747
0.031723
0.02674
0.022676
0.019152
0.016124
0.013337
0.010854
0.0085883
0.067242
0.055486
0.045629
0.038532
0.032575
0.027584
0.023473
0.019901
0.016818
0.014004
0.011481
0.0092407
0.066125
0.055424
0.046132
0.039218
0.033351
0.028379
0.02424
0.020636
0.017509
0.014676
0.012118
0.009902
0.065045
0.055268
0.046523
0.039808
0.034049
0.029117
0.024968
0.021347
0.018186
0.015342
0.012755
0.010559
0.064008
0.05504
0.046815
0.040308
0.034671
0.029797
0.025653
0.022027
0.018842
0.015994
0.013385
0.011202
0.063015
0.054756
0.04702
0.040727
0.035221
0.030416
0.026291
0.022672
0.019472
0.016625
0.014
0.011823
0.062068
0.054431
0.047151
0.041072
0.035702
0.030978
0.026883
0.02328
0.020074
0.017231
0.014596
0.012418
0.061165
0.054076
0.047218
0.041352
0.036121
0.031485
0.027428
0.023849
0.020644
0.01781
0.01517
0.012985
0.060305
0.0537
0.047232
0.041574
0.036483
0.031941
0.02793
0.024381
0.021184
0.01836
0.01572
0.013523
0.059484
0.053308
0.047201
0.041745
0.036794
0.032349
0.02839
0.024876
0.021693
0.018881
0.016247
0.014034
0.0587
0.052907
0.047131
0.041871
0.037059
0.032712
0.028811
0.025336
0.022173
0.019373
0.016749
0.014519
0.057951
0.0525
0.04703
0.041957
0.037282
0.033036
0.029196
0.025762
0.022623
0.019838
0.017227
0.014981
0.057234
0.052091
0.046902
0.04201
0.037469
0.033322
0.029547
0.026157
0.023046
0.020277
0.017682
0.015422
0.056546
0.051681
0.046752
0.042033
0.037623
0.033575
0.029866
0.026522
0.023443
0.020691
0.018115