/*--------------------------------*- C++ -*----------------------------------*\
  =========                 |
  \\      /  F ield         | OpenFOAM: The Open Source CFD Toolbox
   \\    /   O peration     | Website:  https://openfoam.org
    \\  /    A nd           | Version:  6.0
     \\/     M anipulation  |
\*---------------------------------------------------------------------------*/
FoamFile
{
    version     2.0;
    format      ascii;
    class       surfaceScalarField;
    location    "2";
    object      phi;
}
// * * * * * * * * * * * * * * * * * * * * * * * * * * * * * * * * * * * * * //

dimensions      [0 3 -1 0 0 0 0];

internalField   nonuniform List<scalar> 
33692
(
2.0052e-05
0.005201
2.9571e-10
4.0126e-05
0.0051116
5.964e-05
0.0049351
7.8187e-05
0.0046741
9.5418e-05
0.0043332
0.00011102
0.0039182
0.00012472
0.0034362
0.00013626
0.0028953
0.00014546
0.002305
0.00015182
0.0016755
0.00015717
0.0010154
0.00046497
3.4407e-05
2.0053e-05
0.0051809
8.3571e-10
4.0128e-05
0.0050916
5.9644e-05
0.0049155
7.8191e-05
0.0046556
9.5423e-05
0.004316
0.00011103
0.0039026
0.00012472
0.0034225
0.00013625
0.0028838
0.00014546
0.0022958
0.00015107
0.0016699
0.00015892
0.0010076
0.00055885
6.5043e-05
2.0054e-05
0.0051609
1.3654e-09
4.0131e-05
0.0050715
5.9647e-05
0.004896
7.8196e-05
0.004637
9.5428e-05
0.0042988
0.00011103
0.003887
0.00012472
0.0034088
0.00013623
0.0028723
0.00014547
0.0022865
0.00015032
0.001665
0.00016021
0.00099766
0.00062881
9.0252e-05
2.0055e-05
0.0051408
1.9041e-09
4.0133e-05
0.0050514
5.9651e-05
0.0048765
7.8201e-05
0.0046185
9.5433e-05
0.0042815
0.00011103
0.0038714
0.00012472
0.0033951
0.00013621
0.0028608
0.00014552
0.0022772
0.00014958
0.001661
0.00016096
0.00098628
0.00067924
0.00011052
2.0055e-05
0.0051208
2.4438e-09
4.0136e-05
0.0050313
5.9655e-05
0.004857
7.8206e-05
0.0045999
9.5438e-05
0.0042643
0.00011104
0.0038558
0.00012472
0.0033814
0.00013618
0.0028493
0.00014559
0.0022678
0.0001489
0.0016577
0.00016119
0.00097399
0.0007138
0.00012664
2.0056e-05
0.0051007
2.9845e-09
4.0138e-05
0.0050112
5.9658e-05
0.0048375
7.8211e-05
0.0045814
9.5444e-05
0.0042471
0.00011104
0.0038402
0.00012472
0.0033677
0.00013616
0.0028379
0.00014568
0.0022583
0.00014828
0.0016551
0.00016098
0.00096129
0.0007355
0.00013927
2.0057e-05
0.0050807
3.5262e-09
4.014e-05
0.0049912
5.9662e-05
0.004818
7.8215e-05
0.0045628
9.5449e-05
0.0042298
0.00011105
0.0038246
0.00012472
0.0033541
0.00013613
0.0028265
0.00014579
0.0022486
0.00014775
0.0016531
0.0001604
0.00094864
0.00074693
0.00014897
2.0058e-05
0.0050606
4.0689e-09
4.0143e-05
0.0049711
5.9666e-05
0.0047984
7.822e-05
0.0045443
9.5454e-05
0.0042126
0.00011105
0.003809
0.00012473
0.0033404
0.0001361
0.0028151
0.00014591
0.0022388
0.00014732
0.0016517
0.00015956
0.0009364
0.00075025
0.00015625
2.0059e-05
0.0050405
4.6126e-09
4.0145e-05
0.004951
5.967e-05
0.0047789
7.8225e-05
0.0045257
9.546e-05
0.0041954
0.00011106
0.0037934
0.00012473
0.0033267
0.00013606
0.0028038
0.00014604
0.0022288
0.000147
0.0016508
0.00015855
0.00092485
0.00074727
0.00016152
2.006e-05
0.0050205
5.1573e-09
4.0148e-05
0.0049309
5.9673e-05
0.0047594
7.823e-05
0.0045071
9.5465e-05
0.0041781
0.00011106
0.0037778
0.00012474
0.003313
0.00013602
0.0027925
0.00014618
0.0022186
0.00014679
0.0016501
0.00015743
0.00091421
0.00073952
0.00016518
2.0061e-05
0.0050004
5.703e-09
4.015e-05
0.0049108
5.9677e-05
0.0047399
7.8235e-05
0.0044886
9.5471e-05
0.0041609
0.00011106
0.0037622
0.00012475
0.0032994
0.00013598
0.0027813
0.00014631
0.0022083
0.00014668
0.0016498
0.00015627
0.00090462
0.00072824
0.00016755
2.0062e-05
0.0049803
6.2497e-09
4.0152e-05
0.0048907
5.9681e-05
0.0047203
7.824e-05
0.00447
9.5476e-05
0.0041437
0.00011107
0.0037466
0.00012475
0.0032857
0.00013593
0.0027701
0.00014643
0.0021978
0.00014667
0.0016495
0.00015514
0.00089616
0.00071447
0.0001689
2.0063e-05
0.0049603
6.7975e-09
4.0155e-05
0.0048706
5.9685e-05
0.0047008
7.8245e-05
0.0044515
9.5482e-05
0.0041264
0.00011107
0.003731
0.00012476
0.003272
0.00013589
0.002759
0.00014655
0.0021872
0.00014676
0.0016493
0.00015406
0.00088886
0.00069905
0.00016949
2.0064e-05
0.0049402
7.3462e-09
4.0157e-05
0.0048505
5.9688e-05
0.0046813
7.825e-05
0.0044329
9.5487e-05
0.0041092
0.00011108
0.0037155
0.00012477
0.0032583
0.00013584
0.0027479
0.00014666
0.0021763
0.00014693
0.001649
0.00015307
0.00088272
0.00068264
0.00016948
2.0065e-05
0.0049201
7.896e-09
4.016e-05
0.0048304
5.9692e-05
0.0046617
7.8255e-05
0.0044143
9.5493e-05
0.0040919
0.00011108
0.0036999
0.00012479
0.0032446
0.00013579
0.0027369
0.00014675
0.0021654
0.00014718
0.0016486
0.0001522
0.00087769
0.00066577
0.00016906
2.0066e-05
0.0049
8.4468e-09
4.0162e-05
0.0048103
5.9696e-05
0.0046422
7.826e-05
0.0043958
9.5498e-05
0.0040747
0.00011109
0.0036843
0.0001248
0.0032309
0.00013574
0.002726
0.00014682
0.0021543
0.00014748
0.001648
0.00015145
0.00087372
0.00064888
0.00016835
2.0067e-05
0.00488
8.9987e-09
4.0165e-05
0.0047903
5.97e-05
0.0046227
7.8265e-05
0.0043772
9.5504e-05
0.0040575
0.00011109
0.0036687
0.00012481
0.0032172
0.00013569
0.0027151
0.00014688
0.0021431
0.00014783
0.001647
0.00015084
0.00087071
0.00063226
0.00016745
2.0068e-05
0.0048599
9.5515e-09
4.0167e-05
0.0047702
5.9703e-05
0.0046031
7.827e-05
0.0043586
9.551e-05
0.0040402
0.0001111
0.0036531
0.00012483
0.0032034
0.00013564
0.0027043
0.00014693
0.0021318
0.00014822
0.0016457
0.00015036
0.00086857
0.00061617
0.00016646
2.0068e-05
0.0048398
1.0105e-08
4.0169e-05
0.0047501
5.9707e-05
0.0045836
7.8275e-05
0.0043401
9.5516e-05
0.004023
0.0001111
0.0036375
0.00012485
0.0031897
0.00013559
0.0026935
0.00014695
0.0021205
0.00014863
0.001644
0.00015001
0.0008672
0.00060076
0.00016542
2.0069e-05
0.0048197
1.066e-08
4.0172e-05
0.0047299
5.9711e-05
0.004564
7.828e-05
0.0043215
9.5522e-05
0.0040057
0.00011111
0.0036219
0.00012486
0.0031759
0.00013555
0.0026829
0.00014695
0.0021091
0.00014906
0.0016419
0.00014979
0.00086647
0.00058614
0.0001644
2.007e-05
0.0047996
1.1216e-08
4.0174e-05
0.0047098
5.9715e-05
0.0045445
7.8285e-05
0.0043029
9.5528e-05
0.0039885
0.00011111
0.0036063
0.00012488
0.0031621
0.00013551
0.0026722
0.00014694
0.0020976
0.0001495
0.0016394
0.00014968
0.00086629
0.00057239
0.00016343
2.0071e-05
0.0047796
1.1773e-08
4.0177e-05
0.0046897
5.9718e-05
0.004525
7.829e-05
0.0042844
9.5534e-05
0.0039713
0.00011112
0.0035908
0.0001249
0.0031484
0.00013547
0.0026617
0.00014691
0.0020862
0.00014993
0.0016363
0.00014967
0.00086655
0.00055953
0.00016253
2.0072e-05
0.0047595
1.2332e-08
4.0179e-05
0.0046696
5.9722e-05
0.0045054
7.8295e-05
0.0042658
9.554e-05
0.003954
0.00011112
0.0035752
0.00012492
0.0031346
0.00013544
0.0026512
0.00014686
0.0020748
0.00015035
0.0016329
0.00014975
0.00086715
0.00054756
0.00016172
2.0073e-05
0.0047394
1.2891e-08
4.0181e-05
0.0046495
5.9726e-05
0.0044859
7.83e-05
0.0042472
9.5546e-05
0.0039368
0.00011112
0.0035596
0.00012494
0.0031207
0.00013541
0.0026407
0.0001468
0.0020634
0.00015075
0.0016289
0.00014991
0.00086799
0.00053647
0.000161
2.0074e-05
0.0047193
1.3451e-08
4.0184e-05
0.0046294
5.973e-05
0.0044663
7.8305e-05
0.0042286
9.5552e-05
0.0039195
0.00011113
0.003544
0.00012497
0.0031069
0.00013539
0.0026303
0.00014672
0.002052
0.00015113
0.0016245
0.00015013
0.00086898
0.00052622
0.00016039
2.0075e-05
0.0046992
1.4012e-08
4.0186e-05
0.0046093
5.9734e-05
0.0044468
7.831e-05
0.0042101
9.5559e-05
0.0039023
0.00011113
0.0035285
0.00012499
0.003093
0.00013537
0.0026199
0.00014663
0.0020408
0.00015148
0.0016197
0.00015041
0.00087005
0.00051676
0.00015987
2.0076e-05
0.0046791
1.4575e-08
4.0189e-05
0.0045892
5.9737e-05
0.0044272
7.8315e-05
0.0041915
9.5565e-05
0.003885
0.00011113
0.0035129
0.00012501
0.0030792
0.00013536
0.0026095
0.00014654
0.0020296
0.0001518
0.0016144
0.00015072
0.00087113
0.00050803
0.00015945
2.0077e-05
0.004659
1.5138e-08
4.0191e-05
0.0045691
5.9741e-05
0.0044077
7.8321e-05
0.0041729
9.5572e-05
0.0038678
0.00011114
0.0034973
0.00012503
0.0030653
0.00013536
0.0025992
0.00014643
0.0020185
0.0001521
0.0016087
0.00015106
0.00087217
0.00049998
0.00015912
2.0078e-05
0.0046389
1.5703e-08
4.0194e-05
0.004549
5.9745e-05
0.0043881
7.8326e-05
0.0041543
9.5578e-05
0.0038505
0.00011114
0.0034818
0.00012505
0.0030514
0.00013536
0.0025889
0.00014632
0.0020076
0.00015236
0.0016027
0.00015143
0.0008731
0.00049254
0.00015886
2.0079e-05
0.0046188
1.6268e-08
4.0196e-05
0.0045288
5.9749e-05
0.0043686
7.8331e-05
0.0041358
9.5585e-05
0.0038333
0.00011115
0.0034662
0.00012508
0.0030374
0.00013537
0.0025786
0.00014621
0.0019967
0.00015258
0.0015963
0.0001518
0.00087388
0.00048566
0.00015868
2.008e-05
0.0045987
1.6835e-08
4.0199e-05
0.0045087
5.9753e-05
0.004349
7.8336e-05
0.0041172
9.5592e-05
0.003816
0.00011115
0.0034506
0.0001251
0.0030235
0.00013538
0.0025683
0.00014609
0.001986
0.00015278
0.0015896
0.00015217
0.00087449
0.00047927
0.00015856
2.008e-05
0.0045787
1.7403e-08
4.0201e-05
0.0044886
5.9757e-05
0.0043295
7.8342e-05
0.0040986
9.5599e-05
0.0037987
0.00011115
0.0034351
0.00012512
0.0030095
0.0001354
0.002558
0.00014597
0.0019754
0.00015295
0.0015827
0.00015254
0.0008749
0.00047332
0.00015849
2.0081e-05
0.0045586
1.7972e-08
4.0204e-05
0.0044685
5.9761e-05
0.0043099
7.8347e-05
0.00408
9.5606e-05
0.0037815
0.00011116
0.0034195
0.00012514
0.0029955
0.00013543
0.0025477
0.00014586
0.001965
0.00015308
0.0015754
0.0001529
0.00087508
0.00046775
0.00015847
2.0082e-05
0.0045385
1.8542e-08
4.0206e-05
0.0044484
5.9765e-05
0.0042904
7.8352e-05
0.0040614
9.5613e-05
0.0037642
0.00011116
0.003404
0.00012516
0.0029815
0.00013546
0.0025374
0.00014574
0.0019547
0.00015319
0.001568
0.00015325
0.00087503
0.00046251
0.00015848
2.0083e-05
0.0045183
1.9114e-08
4.0209e-05
0.0044282
5.9769e-05
0.0042708
7.8358e-05
0.0040428
9.562e-05
0.003747
0.00011116
0.0033884
0.00012517
0.0029675
0.0001355
0.0025271
0.00014563
0.0019446
0.00015328
0.0015603
0.00015358
0.00087472
0.00045756
0.00015853
2.0084e-05
0.0044982
1.9686e-08
4.0211e-05
0.0044081
5.9772e-05
0.0042512
7.8363e-05
0.0040242
9.5627e-05
0.0037297
0.00011117
0.0033729
0.00012519
0.0029535
0.00013554
0.0025168
0.00014553
0.0019346
0.00015334
0.0015525
0.00015389
0.00087417
0.00045286
0.00015859
2.0085e-05
0.0044781
2.026e-08
4.0214e-05
0.004388
5.9776e-05
0.0042317
7.8368e-05
0.0040056
9.5635e-05
0.0037124
0.00011117
0.0033574
0.00012521
0.0029395
0.00013558
0.0025064
0.00014543
0.0019248
0.00015338
0.0015446
0.00015418
0.00087337
0.00044837
0.00015867
2.0086e-05
0.004458
2.0835e-08
4.0216e-05
0.0043678
5.978e-05
0.0042121
7.8374e-05
0.003987
9.5642e-05
0.0036952
0.00011118
0.0033418
0.00012522
0.0029254
0.00013563
0.002496
0.00014534
0.001915
0.00015341
0.0015365
0.00015445
0.00087233
0.00044406
0.00015877
2.0087e-05
0.0044379
2.1411e-08
4.0219e-05
0.0043477
5.9784e-05
0.0041925
7.8379e-05
0.0039685
9.565e-05
0.0036779
0.00011118
0.0033263
0.00012524
0.0029114
0.00013568
0.0024855
0.00014526
0.0019055
0.00015342
0.0015284
0.0001547
0.00087104
0.00043989
0.00015887
2.0088e-05
0.0044178
2.1989e-08
4.0221e-05
0.0043276
5.9788e-05
0.004173
7.8385e-05
0.0039499
9.5658e-05
0.0036606
0.00011118
0.0033108
0.00012525
0.0028973
0.00013574
0.0024751
0.00014519
0.001896
0.00015342
0.0015201
0.00015494
0.00086953
0.00043585
0.00015898
2.0089e-05
0.0043977
2.2567e-08
4.0224e-05
0.0043074
5.9792e-05
0.0041534
7.839e-05
0.0039313
9.5666e-05
0.0036433
0.00011119
0.0032953
0.00012527
0.0028832
0.00013579
0.0024645
0.00014512
0.0018867
0.00015341
0.0015119
0.00015515
0.00086779
0.00043191
0.00015909
2.009e-05
0.0043776
2.3147e-08
4.0226e-05
0.0042873
5.9797e-05
0.0041338
7.8396e-05
0.0039127
9.5674e-05
0.0036261
0.00011119
0.0032797
0.00012528
0.0028691
0.00013585
0.002454
0.00014507
0.0018775
0.0001534
0.0015035
0.00015534
0.00086584
0.00042806
0.0001592
2.0091e-05
0.0043575
2.3729e-08
4.0229e-05
0.0042672
5.9801e-05
0.0041143
7.8401e-05
0.0038941
9.5682e-05
0.0036088
0.0001112
0.0032642
0.00012529
0.002855
0.00013591
0.0024433
0.00014502
0.0018683
0.00015338
0.0014952
0.00015552
0.00086369
0.00042427
0.00015931
2.0092e-05
0.0043374
2.4311e-08
4.0231e-05
0.004247
5.9805e-05
0.0040947
7.8407e-05
0.0038755
9.569e-05
0.0035915
0.0001112
0.0032487
0.0001253
0.0028409
0.00013597
0.0024327
0.00014498
0.0018593
0.00015335
0.0014868
0.00015569
0.00086136
0.00042055
0.00015941
2.0093e-05
0.0043172
2.4895e-08
4.0234e-05
0.0042269
5.9809e-05
0.0040751
7.8412e-05
0.0038569
9.5699e-05
0.0035742
0.00011121
0.0032332
0.00012531
0.0028268
0.00013603
0.002422
0.00014495
0.0018504
0.00015333
0.0014784
0.00015583
0.00085885
0.00041687
0.00015951
2.0094e-05
0.0042971
2.548e-08
4.0236e-05
0.0042067
5.9813e-05
0.0040555
7.8418e-05
0.0038382
9.5707e-05
0.0035569
0.00011121
0.0032177
0.00012532
0.0028127
0.00013609
0.0024112
0.00014493
0.0018416
0.0001533
0.0014701
0.00015597
0.00085619
0.00041323
0.00015961
2.0095e-05
0.004277
2.6067e-08
4.0239e-05
0.0041866
5.9817e-05
0.004036
7.8424e-05
0.0038196
9.5716e-05
0.0035396
0.00011122
0.0032022
0.00012532
0.0027986
0.00013614
0.0024004
0.00014492
0.0018328
0.00015328
0.0014617
0.0001561
0.00085337
0.00040962
0.00015971
2.0096e-05
0.0042569
2.6655e-08
4.0242e-05
0.0041665
5.9821e-05
0.0040164
7.8429e-05
0.003801
9.5725e-05
0.0035223
0.00011122
0.0031867
0.00012533
0.0027845
0.0001362
0.0023895
0.00014491
0.0018241
0.00015326
0.0014533
0.00015621
0.00085042
0.00040604
0.0001598
2.0097e-05
0.0042368
2.7245e-08
4.0244e-05
0.0041463
5.9826e-05
0.0039968
7.8435e-05
0.0037824
9.5734e-05
0.003505
0.00011123
0.0031712
0.00012534
0.0027704
0.00013626
0.0023786
0.00014491
0.0018154
0.00015324
0.001445
0.00015632
0.00084733
0.00040248
0.00015988
2.0098e-05
0.0042166
2.7836e-08
4.0247e-05
0.0041262
5.983e-05
0.0039772
7.844e-05
0.0037638
9.5743e-05
0.0034877
0.00011124
0.0031557
0.00012534
0.0027563
0.00013632
0.0023676
0.00014492
0.0018068
0.00015323
0.0014367
0.00015642
0.00084414
0.00039894
0.00015996
2.0099e-05
0.0041965
2.8428e-08
4.0249e-05
0.004106
5.9834e-05
0.0039576
7.8446e-05
0.0037452
9.5752e-05
0.0034704
0.00011124
0.0031402
0.00012535
0.0027422
0.00013637
0.0023566
0.00014493
0.0017983
0.00015322
0.0014284
0.00015652
0.00084083
0.00039542
0.00016004
2.01e-05
0.0041764
2.9022e-08
4.0252e-05
0.0040859
5.9838e-05
0.003938
7.8452e-05
0.0037266
9.5761e-05
0.0034531
0.00011125
0.0031247
0.00012535
0.0027281
0.00013643
0.0023455
0.00014494
0.0017898
0.00015321
0.0014201
0.00015661
0.00083743
0.00039192
0.00016011
2.0101e-05
0.0041562
2.9618e-08
4.0255e-05
0.0040657
5.9843e-05
0.0039185
7.8457e-05
0.003708
9.5771e-05
0.0034358
0.00011126
0.0031092
0.00012536
0.002714
0.00013648
0.0023344
0.00014496
0.0017813
0.0001532
0.0014119
0.0001567
0.00083394
0.00038843
0.00016018
2.0102e-05
0.0041361
3.0215e-08
4.0257e-05
0.0040456
5.9847e-05
0.0038989
7.8463e-05
0.0036894
9.578e-05
0.0034185
0.00011126
0.0030937
0.00012536
0.0026999
0.00013653
0.0023232
0.00014499
0.0017728
0.00015321
0.0014037
0.00015678
0.00083037
0.00038496
0.00016025
2.0103e-05
0.004116
3.0814e-08
4.026e-05
0.0040254
5.9852e-05
0.0038793
7.8469e-05
0.0036707
9.579e-05
0.0034012
0.00011127
0.0030783
0.00012537
0.0026858
0.00013658
0.002312
0.00014502
0.0017644
0.00015321
0.0013955
0.00015686
0.00082672
0.00038151
0.00016031
2.0104e-05
0.0040958
3.1414e-08
4.0263e-05
0.0040052
5.9856e-05
0.0038597
7.8474e-05
0.0036521
9.58e-05
0.0033838
0.00011128
0.0030628
0.00012537
0.0026717
0.00013663
0.0023007
0.00014505
0.0017559
0.00015322
0.0013873
0.00015693
0.00082301
0.00037807
0.00016037
2.0105e-05
0.0040757
3.2017e-08
4.0265e-05
0.0039851
5.986e-05
0.0038401
7.848e-05
0.0036335
9.581e-05
0.0033665
0.00011129
0.0030473
0.00012538
0.0026576
0.00013668
0.0022894
0.00014509
0.0017475
0.00015323
0.0013792
0.00015701
0.00081923
0.00037465
0.00016043
2.0106e-05
0.0040556
3.2621e-08
4.0268e-05
0.0039649
5.9865e-05
0.0038205
7.8486e-05
0.0036149
9.5821e-05
0.0033492
0.0001113
0.0030318
0.00012538
0.0026435
0.00013672
0.0022781
0.00014513
0.0017391
0.00015325
0.0013711
0.00015708
0.0008154
0.00037125
0.00016049
2.0107e-05
0.0040354
3.3227e-08
4.0271e-05
0.0039447
5.987e-05
0.0038009
7.8491e-05
0.0035963
9.5831e-05
0.0033318
0.00011131
0.0030164
0.00012538
0.0026295
0.00013677
0.0022667
0.00014516
0.0017307
0.00015327
0.001363
0.00015715
0.00081151
0.00036786
0.00016054
2.0108e-05
0.0040153
3.3834e-08
4.0273e-05
0.0039246
5.9874e-05
0.0037813
7.8497e-05
0.0035776
9.5842e-05
0.0033145
0.00011131
0.0030009
0.00012539
0.0026154
0.00013681
0.0022553
0.00014521
0.0017223
0.00015329
0.0013549
0.00015723
0.00080757
0.00036449
0.00016059
2.0109e-05
0.0039951
3.4444e-08
4.0276e-05
0.0039044
5.9879e-05
0.0037617
7.8503e-05
0.003559
9.5852e-05
0.0032971
0.00011132
0.0029854
0.00012539
0.0026013
0.00013685
0.0022438
0.00014525
0.0017139
0.00015331
0.0013468
0.00015729
0.00080359
0.00036114
0.00016064
2.011e-05
0.003975
3.5055e-08
4.0279e-05
0.0038842
5.9884e-05
0.0037421
7.8509e-05
0.0035404
9.5863e-05
0.0032798
0.00011133
0.0029699
0.00012539
0.0025873
0.00013689
0.0022323
0.00014529
0.0017055
0.00015334
0.0013388
0.00015736
0.00079957
0.00035781
0.00016069
2.0111e-05
0.0039548
3.5669e-08
4.0281e-05
0.0038641
5.9888e-05
0.0037225
7.8514e-05
0.0035218
9.5874e-05
0.0032624
0.00011134
0.0029545
0.0001254
0.0025732
0.00013693
0.0022208
0.00014534
0.0016971
0.00015337
0.0013307
0.00015743
0.00079551
0.0003545
0.00016074
2.0112e-05
0.0039347
3.6285e-08
4.0284e-05
0.0038439
5.9893e-05
0.0037029
7.852e-05
0.0035031
9.5885e-05
0.0032451
0.00011136
0.002939
0.0001254
0.0025592
0.00013697
0.0022092
0.00014539
0.0016887
0.0001534
0.0013227
0.0001575
0.00079141
0.00035121
0.00016079
2.0113e-05
0.0039146
3.6902e-08
4.0287e-05
0.0038237
5.9898e-05
0.0036833
7.8526e-05
0.0034845
9.5896e-05
0.0032277
0.00011137
0.0029235
0.00012541
0.0025451
0.00013701
0.0021976
0.00014543
0.0016803
0.00015343
0.0013147
0.00015756
0.00078728
0.00034794
0.00016083
2.0114e-05
0.0038944
3.7522e-08
4.029e-05
0.0038036
5.9903e-05
0.0036636
7.8531e-05
0.0034659
9.5907e-05
0.0032103
0.00011138
0.0029081
0.00012541
0.0025311
0.00013705
0.002186
0.00014548
0.0016719
0.00015346
0.0013067
0.00015762
0.00078312
0.00034468
0.00016088
2.0115e-05
0.0038742
3.8144e-08
4.0293e-05
0.0037834
5.9908e-05
0.003644
7.8537e-05
0.0034472
9.5919e-05
0.0031929
0.00011139
0.0028926
0.00012542
0.0025171
0.00013709
0.0021743
0.00014553
0.0016634
0.0001535
0.0012988
0.00015769
0.00077892
0.00034145
0.00016092
2.0117e-05
0.0038541
3.8769e-08
4.0295e-05
0.0037632
5.9913e-05
0.0036244
7.8543e-05
0.0034286
9.593e-05
0.0031756
0.0001114
0.0028771
0.00012542
0.002503
0.00013713
0.0021626
0.00014558
0.001655
0.00015353
0.0012908
0.00015775
0.0007747
0.00033824
0.00016096
2.0118e-05
0.0038339
3.9396e-08
4.0298e-05
0.003743
5.9918e-05
0.0036048
7.8549e-05
0.00341
9.5941e-05
0.0031582
0.00011142
0.0028616
0.00012543
0.002489
0.00013716
0.0021509
0.00014562
0.0016465
0.00015357
0.0012829
0.00015781
0.00077046
0.00033505
0.000161
2.0119e-05
0.0038138
4.0025e-08
4.0301e-05
0.0037228
5.9923e-05
0.0035852
7.8554e-05
0.0033914
9.5953e-05
0.0031408
0.00011143
0.0028462
0.00012543
0.002475
0.0001372
0.0021391
0.00014567
0.001638
0.0001536
0.001275
0.00015787
0.00076619
0.00033188
0.00016104
2.012e-05
0.0037936
4.0657e-08
4.0304e-05
0.0037027
5.9928e-05
0.0035655
7.856e-05
0.0033727
9.5964e-05
0.0031234
0.00011144
0.0028307
0.00012544
0.002461
0.00013723
0.0021273
0.00014572
0.0016296
0.00015364
0.001267
0.00015793
0.00076189
0.00032873
0.00016108
2.0121e-05
0.0037735
4.1291e-08
4.0307e-05
0.0036825
5.9934e-05
0.0035459
7.8566e-05
0.0033541
9.5976e-05
0.0031059
0.00011146
0.0028152
0.00012544
0.0024471
0.00013727
0.0021155
0.00014577
0.0016211
0.00015367
0.0012591
0.00015799
0.00075758
0.0003256
0.00016112
2.0122e-05
0.0037533
4.1928e-08
4.031e-05
0.0036623
5.9939e-05
0.0035263
7.8572e-05
0.0033355
9.5987e-05
0.0030885
0.00011147
0.0027997
0.00012545
0.0024331
0.0001373
0.0021036
0.00014582
0.0016125
0.00015371
0.0012512
0.00015805
0.00075324
0.00032249
0.00016116
2.0124e-05
0.0037331
4.2568e-08
4.0312e-05
0.0036421
5.9944e-05
0.0035067
7.8578e-05
0.0033168
9.5999e-05
0.0030711
0.00011149
0.0027842
0.00012546
0.0024191
0.00013733
0.0020918
0.00014587
0.001604
0.00015375
0.0012434
0.0001581
0.00074888
0.0003194
0.00016119
2.0125e-05
0.003713
4.3211e-08
4.0315e-05
0.0036219
5.995e-05
0.003487
7.8584e-05
0.0032982
9.601e-05
0.0030537
0.0001115
0.0027687
0.00012547
0.0024051
0.00013737
0.0020799
0.00014591
0.0015955
0.00015378
0.0012355
0.00015816
0.0007445
0.00031633
0.00016123
2.0126e-05
0.0036928
4.3856e-08
4.0318e-05
0.0036017
5.9955e-05
0.0034674
7.859e-05
0.0032796
9.6022e-05
0.0030363
0.00011152
0.0027532
0.00012547
0.0023912
0.0001374
0.0020679
0.00014596
0.0015869
0.00015382
0.0012276
0.00015822
0.00074011
0.00031328
0.00016127
2.0127e-05
0.0036726
4.4504e-08
4.0321e-05
0.0035815
5.9961e-05
0.0034477
7.8596e-05
0.0032609
9.6033e-05
0.0030188
0.00011154
0.0027377
0.00012548
0.0023773
0.00013743
0.002056
0.00014601
0.0015783
0.00015386
0.0012198
0.00015827
0.00073569
0.00031025
0.0001613
2.0128e-05
0.0036524
4.5156e-08
4.0324e-05
0.0035613
5.9967e-05
0.0034281
7.8602e-05
0.0032423
9.6045e-05
0.0030014
0.00011156
0.0027222
0.00012549
0.0023633
0.00013746
0.002044
0.00014606
0.0015697
0.00015389
0.001212
0.00015832
0.00073126
0.00030724
0.00016133
2.013e-05
0.0036323
4.581e-08
4.0327e-05
0.0035411
5.9972e-05
0.0034085
7.8608e-05
0.0032237
9.6056e-05
0.0029839
0.00011157
0.0027067
0.0001255
0.0023494
0.00013749
0.002032
0.0001461
0.0015611
0.00015393
0.0012041
0.00015837
0.00072682
0.00030425
0.00016137
2.0131e-05
0.0036121
4.6468e-08
4.033e-05
0.0035209
5.9978e-05
0.0033888
7.8615e-05
0.003205
9.6067e-05
0.0029665
0.00011159
0.0026912
0.00012551
0.0023355
0.00013753
0.00202
0.00014615
0.0015525
0.00015396
0.0011963
0.00015843
0.00072235
0.00030127
0.0001614
2.0132e-05
0.0035919
4.7129e-08
4.0333e-05
0.0035007
5.9984e-05
0.0033692
7.8621e-05
0.0031864
9.6079e-05
0.002949
0.00011161
0.0026756
0.00012553
0.0023216
0.00013756
0.002008
0.0001462
0.0015438
0.000154
0.0011885
0.00015848
0.00071788
0.00029832
0.00016143
2.0133e-05
0.0035717
4.7794e-08
4.0336e-05
0.0034805
5.999e-05
0.0033495
7.8628e-05
0.0031677
9.609e-05
0.0029316
0.00011163
0.0026601
0.00012554
0.0023076
0.00013759
0.0019959
0.00014625
0.0015352
0.00015404
0.0011807
0.00015853
0.00071338
0.00029538
0.00016147
2.0135e-05
0.0035515
4.8462e-08
4.0339e-05
0.0034603
5.9996e-05
0.0033298
7.8635e-05
0.0031491
9.6101e-05
0.0029141
0.00011165
0.0026446
0.00012555
0.0022937
0.00013762
0.0019839
0.00014629
0.0015265
0.00015407
0.0011729
0.00015858
0.00070888
0.00029246
0.0001615
2.0136e-05
0.0035314
4.9133e-08
4.0342e-05
0.0034401
6.0002e-05
0.0033102
7.8641e-05
0.0031305
9.6112e-05
0.0028966
0.00011167
0.002629
0.00012556
0.0022799
0.00013765
0.0019718
0.00014634
0.0015178
0.00015411
0.0011652
0.00015862
0.00070436
0.00028955
0.00016153
2.0137e-05
0.0035112
4.9809e-08
4.0345e-05
0.0034199
6.0008e-05
0.0032905
7.8649e-05
0.0031118
9.6123e-05
0.0028791
0.00011169
0.0026134
0.00012558
0.002266
0.00013768
0.0019597
0.00014638
0.0015091
0.00015414
0.0011574
0.00015867
0.00069983
0.00028667
0.00016156
2.0139e-05
0.003491
5.0488e-08
4.0348e-05
0.0033997
6.0014e-05
0.0032709
7.8656e-05
0.0030932
9.6134e-05
0.0028617
0.00011171
0.0025978
0.00012559
0.0022521
0.00013771
0.0019476
0.00014643
0.0015004
0.00015418
0.0011497
0.00015872
0.00069529
0.00028379
0.00016159
2.014e-05
0.0034708
5.1171e-08
4.0351e-05
0.0033795
6.002e-05
0.0032512
7.8663e-05
0.0030745
9.6146e-05
0.0028442
0.00011173
0.0025823
0.00012561
0.0022382
0.00013774
0.0019354
0.00014647
0.0014917
0.00015421
0.0011419
0.00015877
0.00069074
0.00028094
0.00016162
2.0141e-05
0.0034506
5.1858e-08
4.0355e-05
0.0033593
6.0027e-05
0.0032315
7.8671e-05
0.0030559
9.6157e-05
0.0028267
0.00011176
0.0025667
0.00012563
0.0022243
0.00013777
0.0019233
0.00014652
0.0014829
0.00015425
0.0011342
0.00015881
0.00068617
0.0002781
0.00016165
2.0143e-05
0.0034304
5.2549e-08
4.0358e-05
0.0033391
6.0033e-05
0.0032118
7.8678e-05
0.0030372
9.6168e-05
0.0028092
0.00011178
0.002551
0.00012564
0.0022105
0.0001378
0.0019111
0.00014656
0.0014742
0.00015428
0.0011265
0.00015886
0.0006816
0.00027528
0.00016168
2.0144e-05
0.0034102
5.3245e-08
4.0361e-05
0.0033188
6.0039e-05
0.0031922
7.8686e-05
0.0030186
9.6179e-05
0.0027917
0.0001118
0.0025354
0.00012566
0.0021966
0.00013783
0.001899
0.00014661
0.0014654
0.00015432
0.0011188
0.0001589
0.00067701
0.00027248
0.00016171
2.0146e-05
0.00339
5.3945e-08
4.0364e-05
0.0032986
6.0046e-05
0.0031725
7.8694e-05
0.003
9.619e-05
0.0027742
0.00011182
0.0025198
0.00012568
0.0021828
0.00013786
0.0018868
0.00014665
0.0014566
0.00015435
0.0011111
0.00015895
0.00067242
0.00026968
0.00016174
2.0147e-05
0.0033698
5.4649e-08
4.0368e-05
0.0032784
6.0052e-05
0.0031528
7.8703e-05
0.0029813
9.6201e-05
0.0027567
0.00011185
0.0025041
0.0001257
0.0021689
0.00013789
0.0018746
0.0001467
0.0014478
0.00015439
0.0011034
0.00015899
0.00066782
0.00026691
0.00016177
2.0149e-05
0.0033496
5.5358e-08
4.0371e-05
0.0032582
6.0059e-05
0.0031331
7.8711e-05
0.0029626
9.6213e-05
0.0027392
0.00011187
0.0024885
0.00012572
0.0021551
0.00013791
0.0018624
0.00014674
0.0014389
0.00015442
0.0010957
0.00015903
0.00066321
0.00026415
0.00016179
2.015e-05
0.0033294
5.6072e-08
4.0374e-05
0.0032379
6.0065e-05
0.0031134
7.872e-05
0.002944
9.6224e-05
0.0027217
0.00011189
0.0024728
0.00012573
0.0021412
0.00013794
0.0018502
0.00014678
0.0014301
0.00015446
0.001088
0.00015908
0.00065859
0.0002614
0.00016182
2.0152e-05
0.0033092
5.6791e-08
4.0378e-05
0.0032177
6.0072e-05
0.0030937
7.8729e-05
0.0029253
9.6236e-05
0.0027042
0.00011192
0.0024571
0.00012575
0.0021274
0.00013797
0.001838
0.00014683
0.0014212
0.00015449
0.0010804
0.00015912
0.00065396
0.00025867
0.00016185
2.0153e-05
0.003289
5.7515e-08
4.0381e-05
0.0031975
6.0079e-05
0.003074
7.8738e-05
0.0029067
9.6247e-05
0.0026867
0.00011194
0.0024415
0.00012577
0.0021135
0.000138
0.0018257
0.00014687
0.0014124
0.00015453
0.0010727
0.00015916
0.00064933
0.00025595
0.00016188
2.0155e-05
0.0032688
5.8244e-08
4.0385e-05
0.0031773
6.0086e-05
0.0030543
7.8748e-05
0.002888
9.6259e-05
0.0026692
0.00011196
0.0024258
0.00012579
0.0020997
0.00013803
0.0018135
0.00014691
0.0014035
0.00015456
0.0010651
0.0001592
0.00064469
0.00025325
0.00016191
2.0156e-05
0.0032485
5.8978e-08
4.0388e-05
0.003157
6.0093e-05
0.0030346
7.8757e-05
0.0028694
9.6271e-05
0.0026517
0.00011199
0.00241
0.00012581
0.0020859
0.00013805
0.0018013
0.00014696
0.0013946
0.0001546
0.0010574
0.00015924
0.00064004
0.00025056
0.00016193
2.0158e-05
0.0032283
5.9717e-08
4.0392e-05
0.0031368
6.01e-05
0.0030149
7.8767e-05
0.0028507
9.6283e-05
0.0026342
0.00011201
0.0023943
0.00012584
0.0020721
0.00013808
0.001789
0.000147
0.0013857
0.00015463
0.0010498
0.00015928
0.00063538
0.00024788
0.00016196
2.0159e-05
0.0032081
6.0463e-08
4.0396e-05
0.0031166
6.0107e-05
0.0029952
7.8778e-05
0.002832
9.6295e-05
0.0026166
0.00011203
0.0023786
0.00012586
0.0020582
0.00013811
0.0017768
0.00014704
0.0013767
0.00015466
0.0010422
0.00015932
0.00063072
0.00024522
0.00016199
2.0161e-05
0.0031879
6.1213e-08
4.04e-05
0.0030963
6.0114e-05
0.0029755
7.8788e-05
0.0028133
9.6308e-05
0.0025991
0.00011206
0.0023628
0.00012588
0.0020444
0.00013813
0.0017645
0.00014708
0.0013678
0.0001547
0.0010346
0.00015936
0.00062606
0.00024256
0.00016202
2.0163e-05
0.0031677
6.197e-08
4.0403e-05
0.0030761
6.0121e-05
0.0029558
7.8799e-05
0.0027947
9.632e-05
0.0025816
0.00011208
0.0023471
0.0001259
0.0020306
0.00013816
0.0017523
0.00014713
0.0013588
0.00015473
0.001027
0.0001594
0.00062139
0.00023993
0.00016204
2.0164e-05
0.0031474
6.2732e-08
4.0407e-05
0.0030558
6.0128e-05
0.002936
7.8809e-05
0.002776
9.6333e-05
0.0025641
0.00011211
0.0023313
0.00012592
0.0020168
0.00013819
0.00174
0.00014717
0.0013498
0.00015477
0.0010194
0.00015944
0.00061671
0.0002373
0.00016207
2.0166e-05
0.0031272
6.3501e-08
4.0411e-05
0.0030356
6.0136e-05
0.0029163
7.8821e-05
0.0027573
9.6346e-05
0.0025465
0.00011213
0.0023155
0.00012594
0.002003
0.00013821
0.0017277
0.00014721
0.0013408
0.0001548
0.0010118
0.00015948
0.00061203
0.00023469
0.0001621
2.0168e-05
0.003107
6.4275e-08
4.0415e-05
0.0030153
6.0143e-05
0.0028966
7.8832e-05
0.0027386
9.6359e-05
0.002529
0.00011215
0.0022997
0.00012596
0.0019892
0.00013824
0.0017154
0.00014725
0.0013318
0.00015484
0.0010042
0.00015952
0.00060735
0.00023209
0.00016212
2.017e-05
0.0030867
6.5055e-08
4.042e-05
0.0029951
6.0151e-05
0.0028769
7.8843e-05
0.0027199
9.6372e-05
0.0025115
0.00011218
0.0022839
0.00012599
0.0019754
0.00013826
0.0017032
0.00014729
0.0013228
0.00015487
0.00099659
0.00015956
0.00060266
0.0002295
0.00016215
2.0171e-05
0.0030665
6.5842e-08
4.0424e-05
0.0029748
6.0158e-05
0.0028571
7.8855e-05
0.0027012
9.6386e-05
0.002494
0.0001122
0.0022681
0.00012601
0.0019615
0.00013829
0.0016909
0.00014733
0.0013138
0.00015491
0.00098901
0.0001596
0.00059796
0.00022692
0.00016218
2.0173e-05
0.0030463
6.6635e-08
4.0428e-05
0.0029546
6.0166e-05
0.0028374
7.8867e-05
0.0026825
9.6399e-05
0.0024764
0.00011223
0.0022523
0.00012603
0.0019477
0.00013832
0.0016786
0.00014737
0.0013047
0.00015494
0.00098144
0.00015964
0.00059327
0.00022435
0.00016221
2.0175e-05
0.003026
6.7434e-08
4.0433e-05
0.0029343
6.0174e-05
0.0028177
7.8879e-05
0.0026638
9.6413e-05
0.0024589
0.00011225
0.0022364
0.00012605
0.0019339
0.00013834
0.0016663
0.00014741
0.0012956
0.00015498
0.00097388
0.00015968
0.00058857
0.0002218
0.00016223
2.0177e-05
0.0030058
6.824e-08
4.0437e-05
0.0029141
6.0182e-05
0.0027979
7.8892e-05
0.0026451
9.6427e-05
0.0024414
0.00011227
0.0022206
0.00012608
0.0019201
0.00013837
0.001654
0.00014745
0.0012865
0.00015501
0.00096632
0.00015972
0.00058386
0.00021925
0.00016226
2.0179e-05
0.0029855
6.9052e-08
4.0442e-05
0.0028938
6.019e-05
0.0027782
7.8904e-05
0.0026264
9.6441e-05
0.0024238
0.0001123
0.0022047
0.0001261
0.0019063
0.00013839
0.0016417
0.00014749
0.0012774
0.00015505
0.00095876
0.00015975
0.00057916
0.00021672
0.00016229
2.0181e-05
0.0029653
6.987e-08
4.0446e-05
0.0028735
6.0198e-05
0.0027584
7.8917e-05
0.0026077
9.6455e-05
0.0024063
0.00011232
0.0021888
0.00012612
0.0018925
0.00013842
0.0016294
0.00014754