/*--------------------------------*- C++ -*----------------------------------*\
  =========                 |
  \\      /  F ield         | OpenFOAM: The Open Source CFD Toolbox
   \\    /   O peration     | Website:  https://openfoam.org
    \\  /    A nd           | Version:  6.0
     \\/     M anipulation  |
\*---------------------------------------------------------------------------*/
FoamFile
{
    version     2.0;
    format      ascii;
    class       surfaceScalarField;
    location    "2";
    object      phi;
}
// * * * * * * * * * * * * * * * * * * * * * * * * * * * * * * * * * * * * * //

dimensions      [0 3 -1 0 0 0 0];

internalField   nonuniform List<scalar> 
26699
(
2.0051e-05
0.005201
4.0686e-10
4.0126e-05
0.0051116
5.9639e-05
0.0049351
7.8186e-05
0.0046741
9.5416e-05
0.0043332
0.00011102
0.0039182
0.00012472
0.0034362
0.00013626
0.0028953
0.00014546
0.002305
0.00015182
0.0016755
0.00015718
0.0010154
0.0004649
3.4484e-05
2.0051e-05
0.0051809
1.3173e-09
4.0127e-05
0.0050916
5.9641e-05
0.0049155
7.8189e-05
0.0046556
9.5419e-05
0.004316
0.00011102
0.0039026
0.00012471
0.0034225
0.00013624
0.0028838
0.00014545
0.0022958
0.00015106
0.0016699
0.00015892
0.0010075
0.00055862
6.5206e-05
2.0052e-05
0.0051609
2.3161e-09
4.0128e-05
0.0050715
5.9644e-05
0.004896
7.8192e-05
0.004637
9.5422e-05
0.0042988
0.00011102
0.003887
0.00012471
0.0034088
0.00013622
0.0028723
0.00014546
0.0022865
0.0001503
0.001665
0.00016021
0.00099764
0.00062836
9.0459e-05
2.0052e-05
0.0051408
3.3213e-09
4.013e-05
0.0050514
5.9646e-05
0.0048765
7.8195e-05
0.0046185
9.5425e-05
0.0042815
0.00011102
0.0038714
0.0001247
0.0033951
0.00013619
0.0028608
0.0001455
0.0022772
0.00014956
0.001661
0.00016095
0.00098625
0.00067857
0.00011074
2.0052e-05
0.0051208
4.3277e-09
4.0131e-05
0.0050313
5.9648e-05
0.004857
7.8198e-05
0.0045999
9.5428e-05
0.0042643
0.00011103
0.0038558
0.0001247
0.0033814
0.00013616
0.0028494
0.00014556
0.0022678
0.00014887
0.0016577
0.00016117
0.00097395
0.00071289
0.00012685
2.0052e-05
0.0051007
5.3351e-09
4.0133e-05
0.0050112
5.9651e-05
0.0048375
7.8201e-05
0.0045814
9.5431e-05
0.0042471
0.00011103
0.0038402
0.0001247
0.0033678
0.00013613
0.0028379
0.00014565
0.0022583
0.00014825
0.0016551
0.00016095
0.00096125
0.00073439
0.00013945
2.0052e-05
0.0050807
6.3436e-09
4.0134e-05
0.0049912
5.9653e-05
0.004818
7.8204e-05
0.0045628
9.5434e-05
0.0042298
0.00011103
0.0038246
0.0001247
0.0033541
0.0001361
0.0028265
0.00014575
0.0022486
0.00014771
0.0016531
0.00016036
0.0009486
0.00074563
0.00014912
2.0052e-05
0.0050606
7.3531e-09
4.0135e-05
0.0049711
5.9655e-05
0.0047984
7.8207e-05
0.0045443
9.5437e-05
0.0042126
0.00011103
0.003809
0.0001247
0.0033404
0.00013606
0.0028152
0.00014587
0.0022388
0.00014728
0.0016517
0.00015952
0.00093637
0.00074879
0.00015636
2.0053e-05
0.0050405
8.3638e-09
4.0137e-05
0.004951
5.9658e-05
0.0047789
7.821e-05
0.0045257
9.544e-05
0.0041954
0.00011103
0.0037934
0.0001247
0.0033267
0.00013602
0.0028038
0.00014599
0.0022289
0.00014695
0.0016507
0.00015849
0.00092483
0.00074569
0.00016159
2.0053e-05
0.0050205
9.3757e-09
4.0138e-05
0.0049309
5.966e-05
0.0047594
7.8213e-05
0.0045072
9.5443e-05
0.0041782
0.00011103
0.0037778
0.0001247
0.0033131
0.00013598
0.0027926
0.00014612
0.0022187
0.00014673
0.0016501
0.00015736
0.00091419
0.00073783
0.00016521
2.0053e-05
0.0050004
1.0389e-08
4.0139e-05
0.0049108
5.9662e-05
0.0047399
7.8216e-05
0.0044886
9.5447e-05
0.0041609
0.00011104
0.0037623
0.00012471
0.0032994
0.00013593
0.0027813
0.00014624
0.0022084
0.00014661
0.0016498
0.0001562
0.00090461
0.00072649
0.00016755
2.0053e-05
0.0049804
1.1403e-08
4.0141e-05
0.0048907
5.9665e-05
0.0047204
7.822e-05
0.0044701
9.545e-05
0.0041437
0.00011104
0.0037467
0.00012471
0.0032857
0.00013588
0.0027702
0.00014636
0.0021979
0.0001466
0.0016495
0.00015505
0.00089615
0.00071267
0.00016887
2.0053e-05
0.0049603
1.2419e-08
4.0142e-05
0.0048707
5.9667e-05
0.0047008
7.8223e-05
0.0044515
9.5453e-05
0.0041265
0.00011104
0.0037311
0.00012472
0.0032721
0.00013583
0.0027591
0.00014647
0.0021873
0.00014668
0.0016493
0.00015397
0.00088887
0.00069721
0.00016942
2.0054e-05
0.0049402
1.3437e-08
4.0143e-05
0.0048506
5.9669e-05
0.0046813
7.8226e-05
0.0044329
9.5456e-05
0.0041092
0.00011104
0.0037155
0.00012472
0.0032584
0.00013578
0.002748
0.00014657
0.0021765
0.00014684
0.0016491
0.00015297
0.00088273
0.00068079
0.00016939
2.0054e-05
0.0049202
1.4455e-08
4.0145e-05
0.0048305
5.9672e-05
0.0046618
7.8229e-05
0.0044144
9.546e-05
0.004092
0.00011104
0.0036999
0.00012473
0.0032447
0.00013572
0.002737
0.00014666
0.0021656
0.00014708
0.0016486
0.00015209
0.00087772
0.00066393
0.00016895
2.0054e-05
0.0049001
1.5476e-08
4.0146e-05
0.0048104
5.9674e-05
0.0046422
7.8232e-05
0.0043958
9.5463e-05
0.0040748
0.00011104
0.0036843
0.00012474
0.003231
0.00013567
0.0027261
0.00014673
0.0021545
0.00014737
0.001648
0.00015133
0.00087376
0.00064705
0.00016822
2.0054e-05
0.00488
1.6498e-08
4.0147e-05
0.0047903
5.9676e-05
0.0046227
7.8235e-05
0.0043773
9.5467e-05
0.0040575
0.00011105
0.0036688
0.00012475
0.0032173
0.00013561
0.0027152
0.00014679
0.0021433
0.00014771
0.0016471
0.00015071
0.00087076
0.00063046
0.0001673
2.0054e-05
0.0048599
1.7521e-08
4.0149e-05
0.0047702
5.9679e-05
0.0046032
7.8239e-05
0.0043587
9.547e-05
0.0040403
0.00011105
0.0036532
0.00012477
0.0032036
0.00013556
0.0027044
0.00014682
0.0021321
0.00014809
0.0016458
0.00015022
0.00086863
0.00061439
0.00016629
2.0054e-05
0.0048399
1.8546e-08
4.015e-05
0.0047501
5.9681e-05
0.0045837
7.8242e-05
0.0043401
9.5474e-05
0.0040231
0.00011105
0.0036376
0.00012478
0.0031898
0.00013551
0.0026937
0.00014684
0.0021207
0.0001485
0.0016441
0.00014986
0.00086726
0.00059902
0.00016524
2.0055e-05
0.0048198
1.9573e-08
4.0152e-05
0.00473
5.9684e-05
0.0045641
7.8245e-05
0.0043216
9.5477e-05
0.0040058
0.00011105
0.003622
0.00012479
0.0031761
0.00013546
0.002683
0.00014684
0.0021093
0.00014892
0.0016421
0.00014963
0.00086655
0.00058445
0.0001642
2.0055e-05
0.0047997
2.0602e-08
4.0153e-05
0.0047099
5.9686e-05
0.0045446
7.8248e-05
0.004303
9.5481e-05
0.0039886
0.00011105
0.0036065
0.00012481
0.0031623
0.00013542
0.0026724
0.00014682
0.0020979
0.00014935
0.0016395
0.00014951
0.00086639
0.00057074
0.00016321
2.0055e-05
0.0047796
2.1632e-08
4.0154e-05
0.0046898
5.9688e-05
0.0045251
7.8252e-05
0.0042845
9.5485e-05
0.0039714
0.00011105
0.0035909
0.00012482
0.0031486
0.00013537
0.0026619
0.00014678
0.0020865
0.00014977
0.0016365
0.00014949
0.00086667
0.00055793
0.0001623
2.0055e-05
0.0047596
2.2664e-08
4.0156e-05
0.0046697
5.9691e-05
0.0045055
7.8255e-05
0.0042659
9.5489e-05
0.0039541
0.00011106
0.0035753
0.00012484
0.0031348
0.00013534
0.0026514
0.00014673
0.0020751
0.00015018
0.0016331
0.00014956
0.00086728
0.00054602
0.00016147
2.0055e-05
0.0047395
2.3698e-08
4.0157e-05
0.0046496
5.9693e-05
0.004486
7.8258e-05
0.0042473
9.5493e-05
0.0039369
0.00011106
0.0035598
0.00012486
0.003121
0.0001353
0.0026409
0.00014666
0.0020638
0.00015057
0.0016292
0.00014971
0.00086814
0.00053498
0.00016075
2.0055e-05
0.0047194
2.4734e-08
4.0158e-05
0.0046295
5.9696e-05
0.0044664
7.8262e-05
0.0042288
9.5497e-05
0.0039197
0.00011106
0.0035442
0.00012488
0.0031071
0.00013528
0.0026305
0.00014658
0.0020525
0.00015094
0.0016248
0.00014992
0.00086916
0.00052479
0.00016012
2.0056e-05
0.0046993
2.5772e-08
4.016e-05
0.0046094
5.9698e-05
0.0044469
7.8265e-05
0.0042102
9.5501e-05
0.0039024
0.00011106
0.0035286
0.0001249
0.0030933
0.00013526
0.0026202
0.00014649
0.0020412
0.00015129
0.00162
0.00015019
0.00087027
0.00051539
0.00015959
2.0056e-05
0.0046792
2.6812e-08
4.0161e-05
0.0045893
5.97e-05
0.0044274
7.8268e-05
0.0041916
9.5505e-05
0.0038852
0.00011106
0.0035131
0.00012491
0.0030795
0.00013524
0.0026098
0.00014639
0.0020301
0.00015161
0.0016148
0.00015049
0.00087138
0.00050672
0.00015916
2.0056e-05
0.0046592
2.7854e-08
4.0162e-05
0.0045692
5.9703e-05
0.0044078
7.8272e-05
0.0041731
9.5509e-05
0.003868
0.00011106
0.0034975
0.00012493
0.0030656
0.00013523
0.0025995
0.00014628
0.0020191
0.00015189
0.0016092
0.00015083
0.00087245
0.00049874
0.00015881
2.0056e-05
0.0046391
2.8898e-08
4.0164e-05
0.0045491
5.9705e-05
0.0043883
7.8275e-05
0.0041545
9.5514e-05
0.0038507
0.00011106
0.003482
0.00012495
0.0030517
0.00013523
0.0025893
0.00014616
0.0020081
0.00015215
0.0016032
0.00015118
0.00087342
0.00049137
0.00015855
2.0056e-05
0.004619
2.9944e-08
4.0165e-05
0.004529
5.9708e-05
0.0043687
7.8279e-05
0.0041359
9.5518e-05
0.0038335
0.00011106
0.0034664
0.00012497
0.0030378
0.00013524
0.002579
0.00014604
0.0019973
0.00015237
0.0015969
0.00015154
0.00087424
0.00048455
0.00015835
2.0056e-05
0.0045989
3.0993e-08
4.0167e-05
0.0045089
5.971e-05
0.0043492
7.8282e-05
0.0041173
9.5523e-05
0.0038162
0.00011106
0.0034509
0.00012499
0.0030239
0.00013525
0.0025687
0.00014592
0.0019866
0.00015256
0.0015903
0.0001519
0.0008749
0.00047824
0.00015822
2.0057e-05
0.0045788
3.2044e-08
4.0168e-05
0.0044887
5.9713e-05
0.0043297
7.8286e-05
0.0040988
9.5527e-05
0.003799
0.00011106
0.0034354
0.000125
0.0030099
0.00013526
0.0025585
0.0001458
0.0019761
0.00015272
0.0015833
0.00015226
0.00087535
0.00047236
0.00015814
2.0057e-05
0.0045587
3.3097e-08
4.0169e-05
0.0044686
5.9715e-05
0.0043101
7.8289e-05
0.0040802
9.5532e-05
0.0037818
0.00011106
0.0034198
0.00012502
0.002996
0.00013528
0.0025482
0.00014568
0.0019657
0.00015285
0.0015762
0.00015261
0.00087558
0.00046687
0.00015811
2.0057e-05
0.0045386
3.4153e-08
4.0171e-05
0.0044485
5.9718e-05
0.0042906
7.8293e-05
0.0040616
9.5537e-05
0.0037645
0.00011107
0.0034043
0.00012504
0.002982
0.00013531
0.0025379
0.00014556
0.0019555
0.00015295
0.0015688
0.00015295
0.00087558
0.00046171
0.00015811
2.0057e-05
0.0045185
3.5211e-08
4.0172e-05
0.0044284
5.972e-05
0.004271
7.8296e-05
0.004043
9.5542e-05
0.0037473
0.00011107
0.0033888
0.00012505
0.002968
0.00013534
0.0025276
0.00014544
0.0019454
0.00015303
0.0015612
0.00015327
0.00087533
0.00045684
0.00015814
2.0057e-05
0.0044984
3.6272e-08
4.0174e-05
0.0044083
5.9723e-05
0.0042515
7.83e-05
0.0040245
9.5547e-05
0.00373
0.00011107
0.0033733
0.00012507
0.002954
0.00013538
0.0025173
0.00014534
0.0019354
0.00015308
0.0015534
0.00015358
0.00087484
0.00045222
0.0001582
2.0058e-05
0.0044783
3.7335e-08
4.0175e-05
0.0043882
5.9725e-05
0.0042319
7.8303e-05
0.0040059
9.5552e-05
0.0037128
0.00011107
0.0033577
0.00012508
0.00294
0.00013542
0.002507
0.00014523
0.0019256
0.00015312
0.0015456
0.00015386
0.0008741
0.00044782
0.00015827
2.0058e-05
0.0044582
3.8401e-08
4.0176e-05
0.004368
5.9728e-05
0.0042124
7.8307e-05
0.0039873
9.5558e-05
0.0036955
0.00011107
0.0033422
0.00012509
0.002926
0.00013547
0.0024966
0.00014514
0.0019159
0.00015314
0.0015376
0.00015413
0.00087311
0.00044359
0.00015835
2.0058e-05
0.0044382
3.9471e-08
4.0178e-05
0.0043479
5.973e-05
0.0041928
7.8311e-05
0.0039687
9.5563e-05
0.0036783
0.00011107
0.0033267
0.0001251
0.0029119
0.00013551
0.0024862
0.00014505
0.0019064
0.00015315
0.0015295
0.00015437
0.00087189
0.00043952
0.00015845
2.0058e-05
0.0044181
4.0543e-08
4.0179e-05
0.0043278
5.9733e-05
0.0041733
7.8314e-05
0.0039502
9.5569e-05
0.003661
0.00011107
0.0033112
0.00012511
0.0028979
0.00013556
0.0024757
0.00014497
0.001897
0.00015314
0.0015213
0.0001546
0.00087043
0.00043557
0.00015855
2.0058e-05
0.004398
4.1618e-08
4.0181e-05
0.0043077
5.9736e-05
0.0041537
7.8318e-05
0.0039316
9.5574e-05
0.0036438
0.00011107
0.0032957
0.00012512
0.0028839
0.00013561
0.0024653
0.0001449
0.0018877
0.00015313
0.0015131
0.0001548
0.00086876
0.00043173
0.00015865
2.0058e-05
0.0043779
4.2696e-08
4.0182e-05
0.0042876
5.9738e-05
0.0041341
7.8322e-05
0.003913
9.558e-05
0.0036265
0.00011108
0.0032802
0.00012513
0.0028698
0.00013567
0.0024547
0.00014484
0.0018785
0.00015311
0.0015048
0.00015499
0.00086688
0.00042797
0.00015875
2.0059e-05
0.0043577
4.3777e-08
4.0184e-05
0.0042674
5.9741e-05
0.0041146
7.8325e-05
0.0038944
9.5586e-05
0.0036092
0.00011108
0.0032647
0.00012514
0.0028557
0.00013572
0.0024441
0.00014479
0.0018694
0.00015308
0.0014965
0.00015517
0.00086479
0.00042428
0.00015885
2.0059e-05
0.0043376
4.4862e-08
4.0185e-05
0.0042473
5.9744e-05
0.004095
7.8329e-05
0.0038758
9.5592e-05
0.003592
0.00011108
0.0032492
0.00012514
0.0028417
0.00013578
0.0024335
0.00014475
0.0018605
0.00015306
0.0014882
0.00015532
0.00086253
0.00042066
0.00015895
2.0059e-05
0.0043175
4.595e-08
4.0187e-05
0.0042272
5.9746e-05
0.0040755
7.8333e-05
0.0038572
9.5598e-05
0.0035747
0.00011108
0.0032338
0.00012515
0.0028276
0.00013583
0.0024228
0.00014471
0.0018516
0.00015303
0.0014799
0.00015547
0.00086009
0.00041708
0.00015904
2.0059e-05
0.0042974
4.7041e-08
4.0188e-05
0.0042071
5.9749e-05
0.0040559
7.8337e-05
0.0038386
9.5605e-05
0.0035574
0.00011109
0.0032183
0.00012516
0.0028135
0.00013589
0.0024121
0.00014469
0.0018428
0.000153
0.0014716
0.0001556
0.00085749
0.00041354
0.00015914
2.0059e-05
0.0042773
4.8136e-08
4.019e-05
0.0041869
5.9752e-05
0.0040363
7.834e-05
0.0038201
9.5611e-05
0.0035402
0.00011109
0.0032028
0.00012516
0.0027995
0.00013594
0.0024013
0.00014467
0.0018341
0.00015297
0.0014633
0.00015572
0.00085474
0.00041003
0.00015922
2.0059e-05
0.0042572
4.9235e-08
4.0191e-05
0.0041668
5.9755e-05
0.0040168
7.8344e-05
0.0038015
9.5618e-05
0.0035229
0.00011109
0.0031873
0.00012516
0.0027854
0.000136
0.0023905
0.00014466
0.0018254
0.00015294
0.001455
0.00015583
0.00085186
0.00040656
0.00015931
2.006e-05
0.0042371
5.0337e-08
4.0193e-05
0.0041467
5.9757e-05
0.0039972
7.8348e-05
0.0037829
9.5624e-05
0.0035056
0.00011109
0.0031719
0.00012517
0.0027713
0.00013605
0.0023796
0.00014465
0.0018168
0.00015292
0.0014467
0.00015593
0.00084884
0.0004031
0.00015939
2.006e-05
0.004217
5.1444e-08
4.0194e-05
0.0041265
5.976e-05
0.0039777
7.8352e-05
0.0037643
9.5631e-05
0.0034883
0.0001111
0.0031564
0.00012517
0.0027573
0.0001361
0.0023687
0.00014465
0.0018082
0.0001529
0.0014385
0.00015603
0.00084572
0.00039967
0.00015946
2.006e-05
0.0041969
5.2554e-08
4.0196e-05
0.0041064
5.9763e-05
0.0039581
7.8356e-05
0.0037457
9.5638e-05
0.0034711
0.0001111
0.0031409
0.00012517
0.0027432
0.00013615
0.0023577
0.00014466
0.0017997
0.00015289
0.0014302
0.00015612
0.00084248
0.00039626
0.00015953
2.006e-05
0.0041768
5.3668e-08
4.0197e-05
0.0040863
5.9766e-05
0.0039385
7.836e-05
0.0037271
9.5646e-05
0.0034538
0.00011111
0.0031255
0.00012518
0.0027291
0.0001362
0.0023467
0.00014467
0.0017913
0.00015288
0.001422
0.00015621
0.00083915
0.00039287
0.0001596
2.0061e-05
0.0041567
5.4787e-08
4.0199e-05
0.0040661
5.9769e-05
0.0039189
7.8363e-05
0.0037085
9.5653e-05
0.0034365
0.00011111
0.00311
0.00012518
0.002715
0.00013625
0.0023356
0.00014469
0.0017828
0.00015287
0.0014138
0.00015629
0.00083573
0.00038949
0.00015967
2.0061e-05
0.0041365
5.5909e-08
4.02e-05
0.004046
5.9772e-05
0.0038994
7.8367e-05
0.0036899
9.566e-05
0.0034192
0.00011112
0.0030946
0.00012518
0.002701
0.0001363
0.0023245
0.00014471
0.0017744
0.00015287
0.0014057
0.00015637
0.00083223
0.00038613
0.00015973
2.0061e-05
0.0041164
5.7037e-08
4.0202e-05
0.0040258
5.9775e-05
0.0038798
7.8371e-05
0.0036713
9.5668e-05
0.0034019
0.00011112
0.0030791
0.00012518
0.0026869
0.00013635
0.0023133
0.00014474
0.001766
0.00015287
0.0013976
0.00015644
0.00082865
0.00038278
0.00015979
2.0061e-05
0.0040963
5.8168e-08
4.0203e-05
0.0040057
5.9778e-05
0.0038602
7.8375e-05
0.0036527
9.5676e-05
0.0033846
0.00011113
0.0030637
0.00012518
0.0026729
0.00013639
0.0023021
0.00014476
0.0017577
0.00015287
0.0013895
0.00015652
0.00082501
0.00037946
0.00015984
2.0061e-05
0.0040762
5.9304e-08
4.0205e-05
0.0039855
5.9781e-05
0.0038407
7.8379e-05
0.0036341
9.5684e-05
0.0033673
0.00011113
0.0030482
0.00012518
0.0026588
0.00013643
0.0022908
0.0001448
0.0017493
0.00015288
0.0013814
0.00015659
0.0008213
0.00037615
0.0001599
2.0062e-05
0.0040561
6.0445e-08
4.0206e-05
0.0039654
5.9784e-05
0.0038211
7.8383e-05
0.0036155
9.5692e-05
0.00335
0.00011114
0.0030328
0.00012518
0.0026448
0.00013648
0.0022795
0.00014483
0.0017409
0.00015289
0.0013733
0.00015666
0.00081754
0.00037285
0.00015995
2.0062e-05
0.0040359
6.1591e-08
4.0208e-05
0.0039453
5.9787e-05
0.0038015
7.8387e-05
0.0035969
9.57e-05
0.0033327
0.00011114
0.0030173
0.00012518
0.0026307
0.00013652
0.0022682
0.00014487
0.0017326
0.00015291
0.0013653
0.00015672
0.00081372
0.00036958
0.00016
2.0062e-05
0.0040158
6.2742e-08
4.021e-05
0.0039251
5.9791e-05
0.0037819
7.8391e-05
0.0035783
9.5709e-05
0.0033154
0.00011115
0.0030019
0.00012518
0.0026167
0.00013656
0.0022568
0.0001449
0.0017243
0.00015293
0.0013572
0.00015679
0.00080985
0.00036632
0.00016005
2.0062e-05
0.0039957
6.3897e-08
4.0211e-05
0.003905
5.9794e-05
0.0037623
7.8395e-05
0.0035597
9.5717e-05
0.003298
0.00011116
0.0029864
0.00012519
0.0026027
0.0001366
0.0022454
0.00014494
0.0017159
0.00015295
0.0013492
0.00015686
0.00080594
0.00036308
0.0001601
2.0063e-05
0.0039756
6.5058e-08
4.0213e-05
0.0038848
5.9797e-05
0.0037427
7.8399e-05
0.0035411
9.5726e-05
0.0032807
0.00011116
0.002971
0.00012519
0.0025886
0.00013664
0.002234
0.00014498
0.0017076
0.00015297
0.0013412
0.00015692
0.00080199
0.00035986
0.00016014
2.0063e-05
0.0039554
6.6225e-08
4.0214e-05
0.0038647
5.98e-05
0.0037232
7.8403e-05
0.0035225
9.5735e-05
0.0032634
0.00011117
0.0029556
0.00012519
0.0025746
0.00013667
0.0022225
0.00014503
0.0016992
0.000153
0.0013333
0.00015699
0.000798
0.00035666
0.00016019
2.0063e-05
0.0039353
6.7396e-08
4.0216e-05
0.0038445
5.9804e-05
0.0037036
7.8407e-05
0.0035039
9.5744e-05
0.003246
0.00011118
0.0029401
0.00012519
0.0025606
0.00013671
0.002211
0.00014507
0.0016909
0.00015302
0.0013253
0.00015705
0.00079398
0.00035348
0.00016023
2.0063e-05
0.0039152
6.8573e-08
4.0218e-05
0.0038244
5.9807e-05
0.003684
7.8411e-05
0.0034853
9.5753e-05
0.0032287
0.00011119
0.0029247
0.00012519
0.0025466
0.00013675
0.0021994
0.00014511
0.0016825
0.00015305
0.0013174
0.00015711
0.00078992
0.00035032
0.00016027
2.0064e-05
0.003895
6.9756e-08
4.0219e-05
0.0038042
5.9811e-05
0.0036644
7.8415e-05
0.0034667
9.5762e-05
0.0032113
0.0001112
0.0029093
0.00012519
0.0025326
0.00013678
0.0021878
0.00014516
0.0016741
0.00015308
0.0013095
0.00015717
0.00078583
0.00034717
0.00016031
2.0064e-05
0.0038749
7.0945e-08
4.0221e-05
0.003784
5.9814e-05
0.0036448
7.8419e-05
0.0034481
9.5771e-05
0.003194
0.00011121
0.0028938
0.00012519
0.0025186
0.00013682
0.0021762
0.0001452
0.0016657
0.00015311
0.0013015
0.00015723
0.00078171
0.00034405
0.00016035
2.0064e-05
0.0038548
7.214e-08
4.0223e-05
0.0037639
5.9818e-05
0.0036252
7.8423e-05
0.0034295
9.578e-05
0.0031766
0.00011122
0.0028784
0.0001252
0.0025047
0.00013685
0.0021645
0.00014525
0.0016573
0.00015314
0.0012937
0.00015729
0.00077756
0.00034095
0.00016039
2.0064e-05
0.0038346
7.3341e-08
4.0224e-05
0.0037437
5.9822e-05
0.0036056
7.8427e-05
0.0034109
9.579e-05
0.0031593
0.00011123
0.0028629
0.0001252
0.0024907
0.00013688
0.0021529
0.00014529
0.0016489
0.00015318
0.0012858
0.00015735
0.00077339
0.00033787
0.00016043
2.0065e-05
0.0038145
7.4548e-08
4.0226e-05
0.0037236
5.9825e-05
0.003586
7.8431e-05
0.0033923
9.5799e-05
0.0031419
0.00011124
0.0028475
0.0001252
0.0024767
0.00013691
0.0021411
0.00014534
0.0016405
0.00015321
0.0012779
0.00015741
0.00076919
0.00033481
0.00016047
2.0065e-05
0.0037943
7.5761e-08
4.0228e-05
0.0037034
5.9829e-05
0.0035664
7.8435e-05
0.0033737
9.5809e-05
0.0031245
0.00011125
0.0028321
0.0001252
0.0024628
0.00013695
0.0021294
0.00014538
0.0016321
0.00015324
0.00127
0.00015746
0.00076497
0.00033177
0.0001605
2.0065e-05
0.0037742
7.6981e-08
4.023e-05
0.0036832
5.9833e-05
0.0035468
7.8439e-05
0.0033551
9.5818e-05
0.0031072
0.00011126
0.0028166
0.00012521
0.0024488
0.00013698
0.0021176
0.00014543
0.0016236
0.00015328
0.0012622
0.00015752
0.00076073
0.00032875
0.00016054
2.0066e-05
0.0037541
7.8208e-08
4.0231e-05
0.0036631
5.9837e-05
0.0035272
7.8443e-05
0.0033365
9.5828e-05
0.0030898
0.00011128
0.0028012
0.00012521
0.0024349
0.00013701
0.0021058
0.00014548
0.0016151
0.00015331
0.0012544
0.00015758
0.00075647
0.00032575
0.00016058
2.0066e-05
0.0037339
7.9441e-08
4.0233e-05
0.0036429
5.9841e-05
0.0035076
7.8447e-05
0.0033179
9.5837e-05
0.0030724
0.00011129
0.0027857
0.00012522
0.002421
0.00013704
0.002094
0.00014552
0.0016067
0.00015335
0.0012465
0.00015763
0.00075218
0.00032277
0.00016061
2.0066e-05
0.0037138
8.0681e-08
4.0235e-05
0.0036227
5.9845e-05
0.003488
7.8452e-05
0.0032993
9.5847e-05
0.003055
0.0001113
0.0027702
0.00012522
0.0024071
0.00013707
0.0020822
0.00014557
0.0015982
0.00015338
0.0012387
0.00015768
0.00074788
0.00031981
0.00016064
2.0067e-05
0.0036936
8.1929e-08
4.0237e-05
0.0036026
5.9849e-05
0.0034684
7.8456e-05
0.0032806
9.5856e-05
0.0030376
0.00011132
0.0027548
0.00012523
0.0023932
0.0001371
0.0020703
0.00014561
0.0015897
0.00015341
0.0012309
0.00015774
0.00074356
0.00031687
0.00016068
2.0067e-05
0.0036735
8.3184e-08
4.0239e-05
0.0035824
5.9853e-05
0.0034487
7.846e-05
0.003262
9.5866e-05
0.0030202
0.00011133
0.0027393
0.00012523
0.0023793
0.00013713
0.0020584
0.00014566
0.0015811
0.00015345
0.0012231
0.00015779
0.00073922
0.00031395
0.00016071
2.0068e-05
0.0036533
8.4446e-08
4.024e-05
0.0035622
5.9858e-05
0.0034291
7.8465e-05
0.0032434
9.5875e-05
0.0030028
0.00011135
0.0027238
0.00012524
0.0023654
0.00013716
0.0020465
0.0001457
0.0015726
0.00015348
0.0012153
0.00015784
0.00073486
0.00031104
0.00016074
2.0068e-05
0.0036332
8.5716e-08
4.0242e-05
0.003542
5.9862e-05
0.0034095
7.847e-05
0.0032248
9.5885e-05
0.0029854
0.00011136
0.0027084
0.00012525
0.0023515
0.00013719
0.0020345
0.00014575
0.001564
0.00015352
0.0012076
0.00015789
0.00073049
0.00030816
0.00016077
2.0068e-05
0.003613
8.6993e-08
4.0244e-05
0.0035219
5.9866e-05
0.0033899
7.8474e-05
0.0032062
9.5894e-05
0.0029679
0.00011138
0.0026929
0.00012526
0.0023376
0.00013722
0.0020226
0.0001458
0.0015555
0.00015355
0.0011998
0.00015794
0.0007261
0.00030529
0.00016081
2.0069e-05
0.0035928
8.8279e-08
4.0246e-05
0.0035017
5.9871e-05
0.0033703
7.8479e-05
0.0031876
9.5903e-05
0.0029505
0.0001114
0.0026774
0.00012527
0.0023237
0.00013725
0.0020106
0.00014584
0.0015469
0.00015359
0.0011921
0.00015799
0.0007217
0.00030244
0.00016084
2.0069e-05
0.0035727
8.9573e-08
4.0248e-05
0.0034815
5.9876e-05
0.0033506
7.8484e-05
0.003169
9.5913e-05
0.0029331
0.00011142
0.0026619
0.00012528
0.0023099
0.00013728
0.0019986
0.00014589
0.0015383
0.00015362
0.0011843
0.00015804
0.00071729
0.00029961
0.00016087
2.007e-05
0.0035525
9.0875e-08
4.025e-05
0.0034613
5.988e-05
0.003331
7.8489e-05
0.0031504
9.5922e-05
0.0029156
0.00011143
0.0026464
0.00012529
0.002296
0.00013731
0.0019866
0.00014593
0.0015296
0.00015365
0.0011766
0.00015808
0.00071286
0.00029679
0.0001609
2.007e-05
0.0035324
9.2185e-08
4.0252e-05
0.0034411
5.9885e-05
0.0033114
7.8495e-05
0.0031318
9.5931e-05
0.0028982
0.00011145
0.0026309
0.0001253
0.0022822
0.00013734
0.0019745
0.00014597
0.001521
0.00015369
0.0011689
0.00015813
0.00070842
0.00029399
0.00016093
2.007e-05
0.0035122
9.3504e-08
4.0254e-05
0.003421
5.989e-05
0.0032917
7.85e-05
0.0031132
9.5941e-05
0.0028808
0.00011147
0.0026153
0.00012531
0.0022683
0.00013737
0.0019625
0.00014602
0.0015123
0.00015372
0.0011612
0.00015817
0.00070396
0.00029121
0.00016096
2.0071e-05
0.003492
9.4832e-08
4.0256e-05
0.0034008
5.9894e-05
0.0032721
7.8506e-05
0.0030946
9.595e-05
0.0028633
0.00011149
0.0025998
0.00012533
0.0022545
0.00013739
0.0019504
0.00014606
0.0015037
0.00015375
0.0011535
0.00015822
0.0006995
0.00028845
0.00016099
2.0071e-05
0.0034719
9.6168e-08
4.0258e-05
0.0033806
5.9899e-05
0.0032525
7.8511e-05
0.0030759
9.5959e-05
0.0028459
0.00011151
0.0025842
0.00012534
0.0022406
0.00013742
0.0019383
0.00014611
0.001495
0.00015379
0.0011458
0.00015827
0.00069502
0.0002857
0.00016101
2.0072e-05
0.0034517
9.7514e-08
4.026e-05
0.0033604
5.9904e-05
0.0032328
7.8517e-05
0.0030573
9.5969e-05
0.0028284
0.00011153
0.0025687
0.00012536
0.0022268
0.00013745
0.0019262
0.00014615
0.0014863
0.00015382
0.0011382
0.00015831
0.00069053
0.00028296
0.00016104
2.0072e-05
0.0034315
9.887e-08
4.0262e-05
0.0033402
5.9909e-05
0.0032132
7.8523e-05
0.0030387
9.5978e-05
0.002811
0.00011155
0.0025531
0.00012537
0.002213
0.00013748
0.0019141
0.00014619
0.0014776
0.00015385
0.0011305
0.00015835
0.00068603
0.00028024
0.00016107
2.0073e-05
0.0034114
1.0023e-07
4.0264e-05
0.00332
5.9914e-05
0.0031935
7.853e-05
0.0030201
9.5987e-05
0.0027935
0.00011157
0.0025375
0.00012539
0.0021992
0.00013751
0.001902
0.00014624
0.0014688
0.00015389
0.0011228
0.0001584
0.00068153
0.00027754
0.0001611
2.0074e-05
0.0033912
1.0161e-07
4.0266e-05
0.0032998
5.9919e-05
0.0031739
7.8536e-05
0.0030015
9.5997e-05
0.0027761
0.00011159
0.0025219
0.0001254
0.0021854
0.00013753
0.0018899
0.00014628
0.0014601
0.00015392
0.0011152
0.00015844
0.00067701
0.00027485
0.00016113
2.0074e-05
0.003371
1.0299e-07
4.0268e-05
0.0032796
5.9925e-05
0.0031542
7.8543e-05
0.0029829
9.6007e-05
0.0027586
0.00011161
0.0025063
0.00012542
0.0021716
0.00013756
0.0018777
0.00014632
0.0014513
0.00015395
0.0011076
0.00015848
0.00067248
0.00027218
0.00016115
2.0075e-05
0.0033508
1.0439e-07
4.027e-05
0.0032594
5.993e-05
0.0031345
7.855e-05
0.0029642
9.6016e-05
0.0027411
0.00011163
0.0024907
0.00012544
0.0021578
0.00013759
0.0018656
0.00014636
0.0014426
0.00015399
0.0011
0.00015852
0.00066795
0.00026952
0.00016118
2.0075e-05
0.0033306
1.0579e-07
4.0273e-05
0.0032392
5.9935e-05
0.0031149
7.8558e-05
0.0029456
9.6026e-05
0.0027237
0.00011165
0.0024751
0.00012545
0.002144
0.00013762
0.0018534
0.00014641
0.0014338
0.00015402
0.0010923
0.00015856
0.0006634
0.00026687
0.00016121
2.0076e-05
0.0033105
1.0721e-07
4.0275e-05
0.003219
5.9941e-05
0.0030952
7.8565e-05
0.002927
9.6036e-05
0.0027062
0.00011168
0.0024594
0.00012547
0.0021302
0.00013764
0.0018412
0.00014645
0.001425
0.00015405
0.0010847
0.0001586
0.00065885
0.00026424
0.00016124
2.0076e-05
0.0032903
1.0863e-07
4.0277e-05
0.0031988
5.9946e-05
0.0030755
7.8573e-05
0.0029084
9.6046e-05
0.0026887
0.0001117
0.0024438
0.00012549
0.0021164
0.00013767
0.0018291
0.00014649
0.0014161
0.00015409
0.0010771
0.00015865
0.0006543
0.00026162
0.00016126
2.0077e-05
0.0032701
1.1007e-07
4.028e-05
0.0031786
5.9952e-05
0.0030559
7.8581e-05
0.0028897
9.6056e-05
0.0026712
0.00011172
0.0024281
0.00012551
0.0021026
0.0001377
0.0018169
0.00014653
0.0014073
0.00015412
0.0010695
0.00015869
0.00064973
0.00025902
0.00016129
2.0078e-05
0.0032499
1.1151e-07
4.0282e-05
0.0031584
5.9957e-05
0.0030362
7.8589e-05
0.0028711
9.6067e-05
0.0026538
0.00011174
0.0024125
0.00012553
0.0020888
0.00013772
0.0018047
0.00014657
0.0013985
0.00015415
0.001062
0.00015873
0.00064516
0.00025643
0.00016132
2.0078e-05
0.0032297
1.1297e-07
4.0285e-05
0.0031382
5.9963e-05
0.0030165
7.8598e-05
0.0028525
9.6077e-05
0.0026363
0.00011176
0.0023968
0.00012555
0.002075
0.00013775
0.0017925
0.00014662
0.0013896
0.00015419
0.0010544
0.00015876
0.00064058
0.00025385
0.00016134
2.0079e-05
0.0032095
1.1444e-07
4.0287e-05
0.003118
5.9969e-05
0.0029968
7.8606e-05
0.0028338
9.6088e-05
0.0026188
0.00011179
0.0023811
0.00012557
0.0020612
0.00013777
0.0017803
0.00014666
0.0013807
0.00015422
0.0010468
0.0001588
0.000636
0.00025128
0.00016137
2.008e-05
0.0031893
1.1592e-07
4.029e-05
0.0030978
5.9975e-05
0.0029772
7.8615e-05
0.0028152
9.6099e-05
0.0026013
0.00011181
0.0023654
0.00012559
0.0020474
0.0001378
0.0017681
0.0001467
0.0013718
0.00015425
0.0010393
0.00015884
0.00063141
0.00024873
0.0001614
2.0081e-05
0.0031691
1.1741e-07
4.0293e-05
0.0030776
5.9981e-05
0.0029575
7.8625e-05
0.0027966
9.6111e-05
0.0025838
0.00011183
0.0023496
0.00012561
0.0020337
0.00013782
0.0017558
0.00014674
0.0013629
0.00015429
0.0010317
0.00015888
0.00062681
0.00024619
0.00016142
2.0081e-05
0.0031489
1.1891e-07
4.0296e-05
0.0030574
5.9987e-05
0.0029378
7.8634e-05
0.0027779
9.6122e-05
0.0025663
0.00011185
0.0023339
0.00012563
0.0020199
0.00013785
0.0017436
0.00014678
0.001354
0.00015432
0.0010242
0.00015892
0.00062221
0.00024366
0.00016145
2.0082e-05
0.0031287
1.2042e-07
4.0299e-05
0.0030372
5.9993e-05
0.0029181
7.8644e-05
0.0027593
9.6134e-05
0.0025488
0.00011188
0.0023182
0.00012565
0.0020061
0.00013788
0.0017314
0.00014682
0.001345
0.00015435
0.0010166
0.00015896
0.00061761
0.00024114
0.00016148
2.0083e-05
0.0031085
1.2195e-07
4.0302e-05
0.003017
5.9999e-05
0.0028984
7.8654e-05
0.0027406
9.6145e-05
0.0025314
0.0001119
0.0023024
0.00012567
0.0019923
0.0001379
0.0017192
0.00014686
0.0013361
0.00015439
0.0010091
0.000159
0.000613
0.00023864
0.0001615
2.0084e-05
0.0030883
1.2348e-07
4.0305e-05
0.0029967
6.0005e-05
0.0028787
7.8664e-05
0.0027219
9.6157e-05
0.0025139
0.00011192
0.0022866
0.00012569
0.0019786
0.00013792
0.0017069
0.0001469
0.0013271
0.00015442
0.0010016
0.00015904
0.00060839
0.00023615
0.00016153
2.0085e-05
0.0030681
1.2503e-07
4.0308e-05
0.0029765
6.0012e-05
0.002859
7.8675e-05
0.0027033
9.617e-05
0.0024964
0.00011195
0.0022709
0.00012571
0.0019648
0.00013795
0.0016947
0.00014694
0.0013181
0.00015446
0.00099408
0.00015907
0.00060377
0.00023366
0.00016156
2.0086e-05
0.0030479
1.2659e-07
4.0311e-05
0.0029563
6.0018e-05
0.0028393
7.8686e-05
0.0026846
9.6182e-05
0.0024789
0.00011197
0.0022551
0.00012573
0.001951
0.00013797
0.0016825
0.00014698
0.0013091
0.00015449
0.00098657
0.00015911
0.00059915
0.00023119
0.00016158
2.0087e-05
0.0030277
1.2816e-07
4.0315e-05
0.0029361
6.0025e-05
0.0028196
7.8697e-05
0.0026659
9.6195e-05
0.0024614
0.00011199
0.0022393
0.00012576
0.0019373
0.000138
0.0016702
0.00014702
0.0013001
0.00015452
0.00097907
0.00015915
0.00059453
0.00022873
0.00016161
2.0088e-05
0.0030074
1.2974e-07
4.0318e-05
0.0029158
6.0032e-05
0.0027999
7.8708e-05
0.0026473
9.6207e-05
0.0024439
0.00011202
0.0022235
0.00012578
0.0019235
0.00013802
0.001658
0.00014706
0.001291
0.00015456
0.00097157
0.00015919
0.0005899
0.00022628
0.00016164
2.0089e-05
0.0029872
1.3133e-07
4.0322e-05
0.0028956
6.0039e-05
0.0027801
7.8719e-05
0.0026286
9.622e-05
0.0024264
0.00011204
0.0022076
0.0001258
0.0019098
0.00013805
0.0016457
0.0001471
0.001282
0.00015459
0.00096408
0.00015922
0.00058527
0.00022384
0.00016166
2.009e-05
0.002967
1.3293e-07
4.0325e-05
0.0028754
6.0046e-05
0.0027604
7.8731e-05
0.0026099
9.6233e-05
0.0024089
0.00011206
0.0021918
0.00012582
0.001896
0.00013807