/*--------------------------------*- C++ -*----------------------------------*\
  =========                 |
  \\      /  F ield         | OpenFOAM: The Open Source CFD Toolbox
   \\    /   O peration     | Website:  https://openfoam.org
    \\  /    A nd           | Version:  6.0
     \\/     M anipulation  |
\*---------------------------------------------------------------------------*/
FoamFile
{
    version     2.0;
    format      ascii;
    class       surfaceScalarField;
    location    "2";
    object      phi;
}
// * * * * * * * * * * * * * * * * * * * * * * * * * * * * * * * * * * * * * //

dimensions      [0 3 -1 0 0 0 0];

internalField   nonuniform List<scalar> 
28697
(
2.0052e-05
0.005201
2.1734e-10
4.0125e-05
0.0051116
5.9639e-05
0.0049351
7.8185e-05
0.0046741
9.5417e-05
0.0043332
0.00011102
0.0039182
0.00012472
0.0034362
0.00013626
0.0028953
0.00014546
0.002305
0.00015182
0.0016755
0.0001576
0.001015
0.00046364
3.6166e-05
2.0052e-05
0.0051809
6.5273e-10
4.0127e-05
0.0050916
5.9642e-05
0.0049155
7.8188e-05
0.0046556
9.5421e-05
0.004316
0.00011102
0.0039026
0.00012472
0.0034225
0.00013624
0.0028838
0.00014544
0.0022958
0.00015098
0.0016699
0.0001601
0.0010059
0.00055273
7.1005e-05
2.0053e-05
0.0051609
1.088e-09
4.0128e-05
0.0050715
5.9644e-05
0.004896
7.8191e-05
0.004637
9.5423e-05
0.0042988
0.00011102
0.003887
0.00012471
0.0034088
0.00013622
0.0028723
0.00014545
0.0022865
0.00015005
0.0016653
0.00016185
0.00099407
0.00061501
9.9571e-05
2.0053e-05
0.0051408
1.5245e-09
4.013e-05
0.0050514
5.9647e-05
0.0048765
7.8194e-05
0.0046185
9.5426e-05
0.0042815
0.00011102
0.0038714
0.00012471
0.0033951
0.00013619
0.0028608
0.00014551
0.0022772
0.0001491
0.0016618
0.0001627
0.00098046
0.00065595
0.00012176
2.0054e-05
0.0051208
1.9621e-09
4.0132e-05
0.0050313
5.9649e-05
0.004857
7.8197e-05
0.0045999
9.5429e-05
0.0042643
0.00011102
0.0038558
0.00012471
0.0033814
0.00013617
0.0028494
0.0001456
0.0022678
0.00014819
0.0016592
0.00016269
0.00096596
0.00068003
0.00013861
2.0055e-05
0.0051007
2.4007e-09
4.0133e-05
0.0050113
5.9651e-05
0.0048375
7.8199e-05
0.0045814
9.5432e-05
0.0042471
0.00011102
0.0038402
0.0001247
0.0033677
0.00013614
0.0028379
0.00014573
0.0022582
0.00014737
0.0016575
0.00016196
0.00095137
0.00069097
0.00015102
2.0055e-05
0.0050807
2.8405e-09
4.0135e-05
0.0049912
5.9654e-05
0.004818
7.8202e-05
0.0045628
9.5434e-05
0.0042298
0.00011102
0.0038247
0.0001247
0.003354
0.0001361
0.0028265
0.00014589
0.0022484
0.00014668
0.0016567
0.00016071
0.00093734
0.00069192
0.00015976
2.0056e-05
0.0050606
3.2814e-09
4.0136e-05
0.0049711
5.9656e-05
0.0047984
7.8205e-05
0.0045443
9.5437e-05
0.0042126
0.00011103
0.0038091
0.0001247
0.0033404
0.00013606
0.0028152
0.00014606
0.0022384
0.00014616
0.0016566
0.00015913
0.00092437
0.00068553
0.00016552
2.0056e-05
0.0050405
3.7234e-09
4.0138e-05
0.004951
5.9659e-05
0.0047789
7.8208e-05
0.0045257
9.544e-05
0.0041954
0.00011103
0.0037935
0.0001247
0.0033267
0.00013601
0.0028039
0.00014624
0.0022282
0.00014581
0.0016571
0.00015738
0.0009128
0.00067397
0.00016894
2.0057e-05
0.0050205
4.1665e-09
4.014e-05
0.0049309
5.9661e-05
0.0047594
7.8211e-05
0.0045072
9.5443e-05
0.0041781
0.00011103
0.0037779
0.00012471
0.003313
0.00013596
0.0027926
0.00014643
0.0022177
0.00014563
0.0016579
0.00015559
0.00090283
0.00065897
0.0001706
2.0057e-05
0.0050004
4.6107e-09
4.0141e-05
0.0049108
5.9663e-05
0.0047399
7.8215e-05
0.0044886
9.5446e-05
0.0041609
0.00011103
0.0037623
0.00012471
0.0032993
0.0001359
0.0027814
0.00014661
0.002207
0.00014562
0.0016589
0.00015388
0.00089457
0.0006419
0.00017095
2.0058e-05
0.0049804
5.0561e-09
4.0143e-05
0.0048908
5.9666e-05
0.0047204
7.8218e-05
0.0044701
9.5449e-05
0.0041437
0.00011103
0.0037467
0.00012472
0.0032856
0.00013584
0.0027703
0.00014678
0.002196
0.00014577
0.0016599
0.00015232
0.00088802
0.00062382
0.0001704
2.0058e-05
0.0049603
5.5026e-09
4.0144e-05
0.0048707
5.9668e-05
0.0047008
7.8221e-05
0.0044515
9.5452e-05
0.0041264
0.00011103
0.0037311
0.00012472
0.003272
0.00013577
0.0027593
0.00014693
0.0021849
0.00014606
0.0016607
0.00015097
0.00088312
0.00060555
0.00016925
2.0059e-05
0.0049402
5.9502e-09
4.0146e-05
0.0048506
5.967e-05
0.0046813
7.8224e-05
0.004433
9.5455e-05
0.0041092
0.00011104
0.0037156
0.00012473
0.0032583
0.0001357
0.0027483
0.00014706
0.0021735
0.00014647
0.0016613
0.00014986
0.00087973
0.00058765
0.00016775
2.006e-05
0.0049202
6.399e-09
4.0147e-05
0.0048305
5.9673e-05
0.0046618
7.8227e-05
0.0044144
9.5459e-05
0.004092
0.00011104
0.0037
0.00012474
0.0032445
0.00013563
0.0027374
0.00014717
0.002162
0.00014698
0.0016615
0.00014901
0.0008777
0.00057056
0.0001661
2.006e-05
0.0049001
6.8489e-09
4.0149e-05
0.0048104
5.9675e-05
0.0046423
7.823e-05
0.0043959
9.5462e-05
0.0040747
0.00011104
0.0036844
0.00012476
0.0032308
0.00013556
0.0027266
0.00014724
0.0021503
0.00014755
0.0016612
0.0001484
0.00087684
0.00055453
0.00016443
2.0061e-05
0.00488
7.3e-09
4.0151e-05
0.0047903
5.9678e-05
0.0046227
7.8233e-05
0.0043773
9.5465e-05
0.0040575
0.00011104
0.0036688
0.00012477
0.0032171
0.00013549
0.0027159
0.00014728
0.0021385
0.00014817
0.0016603
0.00014804
0.00087697
0.00053972
0.00016285
2.0061e-05
0.00486
7.7522e-09
4.0152e-05
0.0047702
5.968e-05
0.0046032
7.8236e-05
0.0043588
9.5468e-05
0.0040403
0.00011104
0.0036533
0.00012479
0.0032034
0.00013542
0.0027052
0.00014729
0.0021266
0.00014881
0.0016588
0.0001479
0.00087788
0.00052622
0.00016141
2.0062e-05
0.0048399
8.2056e-09
4.0154e-05
0.0047501
5.9682e-05
0.0045837
7.8239e-05
0.0043402
9.5472e-05
0.004023
0.00011104
0.0036377
0.0001248
0.0031896
0.00013536
0.0026947
0.00014727
0.0021147
0.00014946
0.0016566
0.00014796
0.00087938
0.00051402
0.00016016
2.0062e-05
0.0048198
8.6602e-09
4.0155e-05
0.00473
5.9685e-05
0.0045641
7.8243e-05
0.0043216
9.5475e-05
0.0040058
0.00011104
0.0036221
0.00012482
0.0031758
0.0001353
0.0026842
0.00014722
0.0021028
0.00015009
0.0016537
0.00014817
0.0008813
0.00050308
0.00015911
2.0063e-05
0.0047997
9.1159e-09
4.0157e-05
0.00471
5.9687e-05
0.0045446
7.8246e-05
0.0043031
9.5479e-05
0.0039886
0.00011104
0.0036065
0.00012484
0.003162
0.00013524
0.0026738
0.00014713
0.0020909
0.0001507
0.0016502
0.00014852
0.00088348
0.00049334
0.00015826
2.0063e-05
0.0047797
9.5728e-09
4.0159e-05
0.0046899
5.969e-05
0.0045251
7.8249e-05
0.0042845
9.5482e-05
0.0039714
0.00011105
0.003591
0.00012486
0.0031482
0.0001352
0.0026635
0.00014702
0.0020791
0.00015126
0.0016459
0.00014896
0.00088577
0.0004847
0.00015761
2.0064e-05
0.0047596
1.0031e-08
4.016e-05
0.0046698
5.9692e-05
0.0045055
7.8252e-05
0.004266
9.5486e-05
0.0039541
0.00011105
0.0035754
0.00012488
0.0031344
0.00013516
0.0026532
0.00014689
0.0020674
0.00015176
0.0016411
0.00014948
0.00088805
0.00047705
0.00015713
2.0065e-05
0.0047395
1.049e-08
4.0162e-05
0.0046497
5.9695e-05
0.004486
7.8256e-05
0.0042474
9.549e-05
0.0039369
0.00011105
0.0035599
0.0001249
0.0031205
0.00013513
0.002643
0.00014673
0.0020558
0.00015221
0.0016356
0.00015004
0.00089023
0.00047028
0.0001568
2.0065e-05
0.0047194
1.0951e-08
4.0163e-05
0.0046296
5.9697e-05
0.0044665
7.8259e-05
0.0042288
9.5494e-05
0.0039196
0.00011105
0.0035443
0.00012492
0.0031066
0.00013511
0.0026328
0.00014656
0.0020443
0.00015259
0.0016296
0.00015061
0.00089221
0.00046429
0.00015661
2.0066e-05
0.0046994
1.1413e-08
4.0165e-05
0.0046095
5.9699e-05
0.0044469
7.8262e-05
0.0042103
9.5498e-05
0.0039024
0.00011105
0.0035288
0.00012494
0.0030927
0.00013511
0.0026226
0.00014638
0.0020331
0.00015291
0.001623
0.00015119
0.00089393
0.00045896
0.00015652
2.0066e-05
0.0046793
1.1876e-08
4.0167e-05
0.0045894
5.9702e-05
0.0044274
7.8266e-05
0.0041917
9.5502e-05
0.0038852
0.00011105
0.0035132
0.00012496
0.0030788
0.00013511
0.0026125
0.00014618
0.002022
0.00015316
0.001616
0.00015175
0.00089534
0.00045419
0.00015651
2.0067e-05
0.0046592
1.234e-08
4.0168e-05
0.0045693
5.9704e-05
0.0044079
7.8269e-05
0.0041731
9.5506e-05
0.0038679
0.00011105
0.0034977
0.00012498
0.0030649
0.00013512
0.0026023
0.00014599
0.0020111
0.00015335
0.0016087
0.00015227
0.00089642
0.0004499
0.00015657
2.0067e-05
0.0046391
1.2805e-08
4.017e-05
0.0045492
5.9707e-05
0.0043883
7.8272e-05
0.0041546
9.551e-05
0.0038507
0.00011105
0.0034821
0.000125
0.0030509
0.00013515
0.0025922
0.0001458
0.0020005
0.00015348
0.001601
0.00015276
0.00089714
0.00044599
0.00015667
2.0068e-05
0.0046191
1.3272e-08
4.0172e-05
0.0045291
5.9709e-05
0.0043688
7.8276e-05
0.004136
9.5514e-05
0.0038335
0.00011105
0.0034666
0.00012502
0.003037
0.00013518
0.002582
0.00014561
0.00199
0.00015356
0.001593
0.00015321
0.0008975
0.0004424
0.0001568
2.0069e-05
0.004599
1.374e-08
4.0173e-05
0.004509
5.9712e-05
0.0043493
7.8279e-05
0.0041174
9.5519e-05
0.0038162
0.00011105
0.0034511
0.00012504
0.003023
0.00013522
0.0025718
0.00014543
0.0019798
0.0001536
0.0015849
0.00015361
0.00089749
0.00043905
0.00015695
2.0069e-05
0.0045789
1.4209e-08
4.0175e-05
0.0044888
5.9714e-05
0.0043297
7.8283e-05
0.0040989
9.5523e-05
0.003799
0.00011105
0.0034356
0.00012505
0.003009
0.00013527
0.0025616
0.00014526
0.0019698
0.00015359
0.0015765
0.00015396
0.00089713
0.0004359
0.00015711
2.007e-05
0.0045588
1.468e-08
4.0176e-05
0.0044687
5.9717e-05
0.0043102
7.8286e-05
0.0040803
9.5528e-05
0.0037817
0.00011105
0.00342
0.00012506
0.002995
0.00013533
0.0025513
0.00014511
0.0019601
0.00015355
0.0015681
0.00015426
0.00089642
0.00043289
0.00015728
2.007e-05
0.0045387
1.5152e-08
4.0178e-05
0.0044486
5.9719e-05
0.0042906
7.829e-05
0.0040617
9.5533e-05
0.0037645
0.00011105
0.0034045
0.00012507
0.0029809
0.00013539
0.002541
0.00014497
0.0019505
0.00015349
0.0015596
0.00015453
0.00089538
0.00042998
0.00015744
2.0071e-05
0.0045186
1.5625e-08
4.018e-05
0.0044285
5.9722e-05
0.0042711
7.8293e-05
0.0040432
9.5537e-05
0.0037473
0.00011105
0.003389
0.00012508
0.0029669
0.00013546
0.0025306
0.00014484
0.0019411
0.00015341
0.001551
0.00015475
0.00089404
0.00042714
0.00015759
2.0071e-05
0.0044985
1.61e-08
4.0181e-05
0.0044084
5.9725e-05
0.0042516
7.8297e-05
0.0040246
9.5542e-05
0.00373
0.00011105
0.0033735
0.00012509
0.0029529
0.00013553
0.0025202
0.00014474
0.0019319
0.00015332
0.0015424
0.00015494
0.00089242
0.00042434
0.00015774
2.0072e-05
0.0044785
1.6576e-08
4.0183e-05
0.0043883
5.9727e-05
0.004232
7.83e-05
0.004006
9.5547e-05
0.0037128
0.00011105
0.003358
0.00012509
0.0029388
0.0001356
0.0025097
0.00014465
0.0019229
0.00015322
0.0015339
0.0001551
0.00089053
0.00042156
0.00015787
2.0073e-05
0.0044584
1.7053e-08
4.0185e-05
0.0043682
5.973e-05
0.0042125
7.8304e-05
0.0039875
9.5552e-05
0.0036955
0.00011105
0.0033425
0.00012509
0.0029248
0.00013567
0.0024991
0.00014457
0.0019139
0.00015311
0.0015253
0.00015524
0.00088841
0.0004188
0.000158
2.0073e-05
0.0044383
1.7532e-08
4.0186e-05
0.0043481
5.9732e-05
0.0041929
7.8307e-05
0.0039689
9.5557e-05
0.0036783
0.00011106
0.003327
0.00012509
0.0029108
0.00013574
0.0024885
0.00014452
0.0019052
0.00015301
0.0015168
0.00015535
0.00088607
0.00041603
0.00015812
2.0074e-05
0.0044182
1.8012e-08
4.0188e-05
0.004328
5.9735e-05
0.0041734
7.8311e-05
0.0039503
9.5562e-05
0.003661
0.00011106
0.0033115
0.00012509
0.0028967
0.00013581
0.0024778
0.00014447
0.0018965
0.00015292
0.0015084
0.00015545
0.00088354
0.00041324
0.00015824
2.0074e-05
0.0043981
1.8494e-08
4.019e-05
0.0043078
5.9738e-05
0.0041538
7.8315e-05
0.0039317
9.5568e-05
0.0036438
0.00011106
0.003296
0.00012509
0.0028827
0.00013588
0.002467
0.00014444
0.0018879
0.00015283
0.0015
0.00015554
0.00088083
0.00041044
0.00015834
2.0075e-05
0.004378
1.8977e-08
4.0191e-05
0.0042877
5.974e-05
0.0041343
7.8318e-05
0.0039131
9.5573e-05
0.0036265
0.00011107
0.0032805
0.00012509
0.0028687
0.00013594
0.0024561
0.00014443
0.0018795
0.00015276
0.0014917
0.00015562
0.00087797
0.00040762
0.00015844
2.0075e-05
0.0043579
1.9461e-08
4.0193e-05
0.0042676
5.9743e-05
0.0041147
7.8322e-05
0.0038946
9.5578e-05
0.0036092
0.00011107
0.003265
0.00012509
0.0028547
0.000136
0.0024452
0.00014442
0.001871
0.00015269
0.0014834
0.00015569
0.00087497
0.00040478
0.00015853
2.0076e-05
0.0043378
1.9947e-08
4.0195e-05
0.0042475
5.9746e-05
0.0040952
7.8325e-05
0.003876
9.5584e-05
0.003592
0.00011107
0.0032495
0.00012508
0.0028406
0.00013606
0.0024342
0.00014442
0.0018627
0.00015263
0.0014752
0.00015576
0.00087184
0.00040192
0.00015862
2.0077e-05
0.0043177
2.0435e-08
4.0197e-05
0.0042274
5.9749e-05
0.0040756
7.8329e-05
0.0038574
9.5589e-05
0.0035747
0.00011108
0.003234
0.00012508
0.0028266
0.00013612
0.0024232
0.00014443
0.0018544
0.00015258
0.001467
0.00015582
0.0008686
0.00039904
0.0001587
2.0077e-05
0.0042976
2.0924e-08
4.0198e-05
0.0042073
5.9751e-05
0.0040561
7.8333e-05
0.0038388
9.5595e-05
0.0035575
0.00011108
0.0032186
0.00012508
0.0028126
0.00013617
0.0024121
0.00014445
0.0018461
0.00015255
0.0014589
0.00015588
0.00086527
0.00039614
0.00015878
2.0078e-05
0.0042775
2.1415e-08
4.02e-05
0.0041871
5.9754e-05
0.0040365
7.8337e-05
0.0038202
9.5601e-05
0.0035402
0.00011109
0.0032031
0.00012508
0.0027986
0.00013622
0.002401
0.00014447
0.0018378
0.00015252
0.0014509
0.00015595
0.00086185
0.00039323
0.00015886
2.0079e-05
0.0042574
2.1908e-08
4.0202e-05
0.004167
5.9757e-05
0.004017
7.834e-05
0.0038017
9.5607e-05
0.0035229
0.00011109
0.0031876
0.00012507
0.0027847
0.00013626
0.0023898
0.00014449
0.0018296
0.00015251
0.0014429
0.00015601
0.00085835
0.0003903
0.00015893
2.0079e-05
0.0042373
2.2402e-08
4.0204e-05
0.0041469
5.976e-05
0.0039974
7.8344e-05
0.0037831
9.5613e-05
0.0035057
0.0001111
0.0031721
0.00012507
0.0027707
0.0001363
0.0023785
0.00014452
0.0018214
0.0001525
0.0014349
0.00015607
0.00085477
0.00038736
0.000159
2.008e-05
0.0042172
2.2898e-08
4.0205e-05
0.0041268
5.9763e-05
0.0039778
7.8348e-05
0.0037645
9.5619e-05
0.0034884
0.0001111
0.0031566
0.00012507
0.0027567
0.00013634
0.0023673
0.00014455
0.0018132
0.00015249
0.0014269
0.00015613
0.00085114
0.00038442
0.00015907
2.008e-05
0.0041971
2.3395e-08
4.0207e-05
0.0041066
5.9766e-05
0.0039583
7.8352e-05
0.0037459
9.5625e-05
0.0034711
0.00011111
0.0031411
0.00012507
0.0027428
0.00013637
0.002356
0.00014458
0.001805
0.0001525
0.001419
0.00015619
0.00084744
0.00038148
0.00015914
2.0081e-05
0.004177
2.3894e-08
4.0209e-05
0.0040865
5.9769e-05
0.0039387
7.8356e-05
0.0037273
9.5631e-05
0.0034538
0.00011111
0.0031257
0.00012507
0.0027288
0.00013641
0.0023446
0.00014462
0.0017967
0.00015251
0.0014111
0.00015626
0.0008437
0.00037853
0.0001592
2.0082e-05
0.0041569
2.4395e-08
4.0211e-05
0.0040664
5.9771e-05
0.0039192
7.8359e-05
0.0037087
9.5637e-05
0.0034366
0.00011112
0.0031102
0.00012507
0.0027149
0.00013644
0.0023333
0.00014465
0.0017885
0.00015252
0.0014033
0.00015632
0.0008399
0.00037558
0.00015927
2.0082e-05
0.0041368
2.4898e-08
4.0212e-05
0.0040462
5.9774e-05
0.0038996
7.8363e-05
0.0036901
9.5644e-05
0.0034193
0.00011112
0.0030947
0.00012507
0.0027009
0.00013647
0.0023218
0.00014469
0.0017803
0.00015254
0.0013954
0.00015638
0.00083606
0.00037264
0.00015933
2.0083e-05
0.0041167
2.5403e-08
4.0214e-05
0.0040261
5.9777e-05
0.00388
7.8367e-05
0.0036716
9.5651e-05
0.003402
0.00011113
0.0030792
0.00012507
0.002687
0.0001365
0.0023104
0.00014473
0.0017721
0.00015256
0.0013876
0.00015644
0.00083218
0.00036969
0.00015939
2.0084e-05
0.0040966
2.5909e-08
4.0216e-05
0.004006
5.9781e-05
0.0038605
7.8371e-05
0.003653
9.5658e-05
0.0033847
0.00011114
0.0030637
0.00012507
0.0026731
0.00013653
0.002299
0.00014476
0.0017638
0.00015259
0.0013798
0.00015651
0.00082827
0.00036676
0.00015944
2.0084e-05
0.0040765
2.6418e-08
4.0218e-05
0.0039858
5.9784e-05
0.0038409
7.8375e-05
0.0036344
9.5665e-05
0.0033674
0.00011114
0.0030483
0.00012507
0.0026591
0.00013655
0.0022875
0.0001448
0.0017556
0.00015261
0.0013719
0.00015657
0.00082431
0.00036383
0.0001595
2.0085e-05
0.0040563
2.6928e-08
4.0219e-05
0.0039657
5.9787e-05
0.0038213
7.8379e-05
0.0036158
9.5672e-05
0.0033501
0.00011115
0.0030328
0.00012507
0.0026452
0.00013658
0.002276
0.00014484
0.0017473
0.00015264
0.0013641
0.00015663
0.00082033
0.0003609
0.00015955
2.0086e-05
0.0040362
2.744e-08
4.0221e-05
0.0039456
5.979e-05
0.0038018
7.8382e-05
0.0035972
9.5679e-05
0.0033328
0.00011115
0.0030173
0.00012507
0.0026313
0.0001366
0.0022644
0.00014488
0.0017391
0.00015267
0.0013563
0.00015669
0.00081631
0.00035799
0.00015961
2.0086e-05
0.0040161
2.7955e-08
4.0223e-05
0.0039254
5.9793e-05
0.0037822
7.8386e-05
0.0035786
9.5687e-05
0.0033155
0.00011116
0.0030018
0.00012507
0.0026174
0.00013663
0.0022529
0.00014492
0.0017308
0.0001527
0.0013486
0.00015675
0.00081226
0.00035508
0.00015966
2.0087e-05
0.003996
2.8471e-08
4.0225e-05
0.0039053
5.9796e-05
0.0037626
7.839e-05
0.00356
9.5694e-05
0.0032982
0.00011117
0.0029864
0.00012507
0.0026035
0.00013665
0.0022413
0.00014496
0.0017225
0.00015274
0.0013408
0.00015681
0.00080819
0.00035219
0.00015971
2.0088e-05
0.0039759
2.899e-08
4.0227e-05
0.0038852
5.98e-05
0.0037431
7.8394e-05
0.0035414
9.5702e-05
0.0032809
0.00011118
0.0029709
0.00012508
0.0025896
0.00013668
0.0022297
0.000145
0.0017142
0.00015277
0.001333
0.00015687
0.00080409
0.0003493
0.00015976
2.0088e-05
0.0039558
2.9511e-08
4.0229e-05
0.003865
5.9803e-05
0.0037235
7.8398e-05
0.0035228
9.571e-05
0.0032636
0.00011118
0.0029554
0.00012508
0.0025757
0.0001367
0.0022181
0.00014504
0.0017058
0.0001528
0.0013252
0.00015693
0.00079997
0.00034642
0.0001598
2.0089e-05
0.0039356
3.0033e-08
4.0231e-05
0.0038449
5.9806e-05
0.0037039
7.8402e-05
0.0035042
9.5718e-05
0.0032463
0.00011119
0.0029399
0.00012508
0.0025618
0.00013672
0.0022064
0.00014508
0.0016975
0.00015284
0.0013175
0.00015698
0.00079582
0.00034356
0.00015985
2.009e-05
0.0039155
3.0558e-08
4.0232e-05
0.0038247
5.981e-05
0.0036843
7.8405e-05
0.0034856
9.5726e-05
0.003229
0.0001112
0.0029245
0.00012508
0.0025479
0.00013675
0.0021948
0.00014512
0.0016891
0.00015287
0.0013097
0.00015704
0.00079165
0.0003407
0.00015989
2.009e-05
0.0038954
3.1086e-08
4.0234e-05
0.0038046
5.9813e-05
0.0036648
7.8409e-05
0.003467
9.5734e-05
0.0032117
0.00011121
0.002909
0.00012508
0.002534
0.00013677
0.0021831
0.00014516
0.0016807
0.0001529
0.001302
0.00015709
0.00078746
0.00033786
0.00015994
2.0091e-05
0.0038753
3.1615e-08
4.0236e-05
0.0037845
5.9817e-05
0.0036452
7.8413e-05
0.0034484
9.5742e-05
0.0031943
0.00011122
0.0028935
0.00012508
0.0025202
0.00013679
0.0021713
0.0001452
0.0016723
0.00015294
0.0012942
0.00015715
0.00078325
0.00033503
0.00015998
2.0092e-05
0.0038552
3.2147e-08
4.0238e-05
0.0037643
5.982e-05
0.0036256
7.8417e-05
0.0034298
9.5751e-05
0.003177
0.00011123
0.002878
0.00012508
0.0025063
0.00013682
0.0021596
0.00014524
0.0016639
0.00015297
0.0012865
0.0001572
0.00077902
0.00033221
0.00016002
2.0093e-05
0.003835
3.2682e-08
4.024e-05
0.0037442
5.9824e-05
0.003606
7.8421e-05
0.0034112
9.5759e-05
0.0031597
0.00011124
0.0028626
0.00012508
0.0024925
0.00013684
0.0021479
0.00014529
0.0016554
0.00015301
0.0012788
0.00015725
0.00077478
0.0003294
0.00016006
2.0093e-05
0.0038149
3.3219e-08
4.0242e-05
0.003724
5.9827e-05
0.0035864
7.8424e-05
0.0033926
9.5768e-05
0.0031423
0.00011125
0.0028471
0.00012509
0.0024786
0.00013686
0.0021361
0.00014533
0.001647
0.00015304
0.0012711
0.00015731
0.00077051
0.00032661
0.0001601
2.0094e-05
0.0037948
3.3758e-08
4.0244e-05
0.0037039
5.9831e-05
0.0035668
7.8428e-05
0.003374
9.5776e-05
0.003125
0.00011126
0.0028316
0.00012509
0.0024648
0.00013688
0.0021243
0.00014537
0.0016385
0.00015307
0.0012634
0.00015736
0.00076623
0.00032382
0.00016014
2.0095e-05
0.0037747
3.43e-08
4.0246e-05
0.0036837
5.9835e-05
0.0035472
7.8432e-05
0.0033554
9.5785e-05
0.0031076
0.00011127
0.0028161
0.00012509
0.002451
0.0001369
0.0021125
0.00014541
0.00163
0.00015311
0.0012557
0.00015741
0.00076193
0.00032105
0.00016018
2.0096e-05
0.0037545
3.4844e-08
4.0248e-05
0.0036636
5.9839e-05
0.0035277
7.8436e-05
0.0033368
9.5793e-05
0.0030903
0.00011128
0.0028006
0.00012509
0.0024372
0.00013693
0.0021006
0.00014545
0.0016214
0.00015314
0.001248
0.00015746
0.00075761
0.00031829
0.00016022
2.0096e-05
0.0037344
3.5392e-08
4.025e-05
0.0036434
5.9843e-05
0.0035081
7.844e-05
0.0033182
9.5802e-05
0.0030729
0.00011129
0.0027852
0.0001251
0.0024234
0.00013695
0.0020888
0.00014549
0.0016129
0.00015317
0.0012403
0.0001575
0.00075329
0.00031554
0.00016025
2.0097e-05
0.0037143
3.5941e-08
4.0252e-05
0.0036232
5.9847e-05
0.0034885
7.8444e-05
0.0032996
9.581e-05
0.0030555
0.0001113
0.0027697
0.0001251
0.0024096
0.00013697
0.0020769
0.00014554
0.0016043
0.00015321
0.0012326
0.00015755
0.00074894
0.0003128
0.00016029
2.0098e-05
0.0036941
3.6494e-08
4.0254e-05
0.0036031
5.9851e-05
0.0034689
7.8448e-05
0.0032811
9.5818e-05
0.0030382
0.00011132
0.0027542
0.00012511
0.0023958
0.000137
0.002065
0.00014558
0.0015957
0.00015324
0.001225
0.0001576
0.00074458
0.00031008
0.00016032
2.0099e-05
0.003674
3.705e-08
4.0256e-05
0.0035829
5.9855e-05
0.0034493
7.8452e-05
0.0032625
9.5826e-05
0.0030208
0.00011133
0.0027387
0.00012511
0.002382
0.00013702
0.0020531
0.00014562
0.0015871
0.00015327
0.0012173
0.00015764
0.00074021
0.00030736
0.00016036
2.01e-05
0.0036538
3.7608e-08
4.0258e-05
0.0035628
5.9859e-05
0.0034297
7.8456e-05
0.0032439
9.5835e-05
0.0030034
0.00011134
0.0027232
0.00012512
0.0023682
0.00013704
0.0020412
0.00014566
0.0015785
0.0001533
0.0012097
0.00015769
0.00073583
0.00030466
0.00016039
2.01e-05
0.0036337
3.8169e-08
4.026e-05
0.0035426
5.9863e-05
0.0034101
7.846e-05
0.0032253
9.5843e-05
0.002986
0.00011135
0.0027076
0.00012513
0.0023544
0.00013707
0.0020293
0.0001457
0.0015699
0.00015334
0.0012021
0.00015773
0.00073143
0.00030197
0.00016042
2.0101e-05
0.0036136
3.8734e-08
4.0262e-05
0.0035225
5.9867e-05
0.0033905
7.8464e-05
0.0032067
9.585e-05
0.0029686
0.00011137
0.0026921
0.00012514
0.0023407
0.00013709
0.0020173
0.00014574
0.0015612
0.00015337
0.0011944
0.00015778
0.00072702
0.00029929
0.00016046
2.0102e-05
0.0035934
3.9301e-08
4.0264e-05
0.0035023
5.9871e-05
0.0033709
7.8469e-05
0.0031881
9.5858e-05
0.0029512
0.00011138
0.0026766
0.00012515
0.0023269
0.00013712
0.0020053
0.00014579
0.0015526
0.0001534
0.0011868
0.00015782
0.0007226
0.00029662
0.00016049
2.0103e-05
0.0035733
3.9872e-08
4.0266e-05
0.0034821
5.9876e-05
0.0033512
7.8473e-05
0.0031695
9.5866e-05
0.0029338
0.0001114
0.0026611
0.00012516
0.0023131
0.00013714
0.0019934
0.00014583
0.0015439
0.00015343
0.0011792
0.00015786
0.00071817
0.00029396
0.00016052
2.0104e-05
0.0035531
4.0445e-08
4.0268e-05
0.003462
5.988e-05
0.0033316
7.8478e-05
0.0031509
9.5873e-05
0.0029165
0.00011141
0.0026455
0.00012517
0.0022994
0.00013717
0.0019814
0.00014587
0.0015352
0.00015346
0.0011716
0.0001579
0.00071373
0.00029132
0.00016055
2.0105e-05
0.003533
4.1023e-08
4.027e-05
0.0034418
5.9884e-05
0.003312
7.8483e-05
0.0031323
9.588e-05
0.0028991
0.00011142
0.00263
0.00012518
0.0022856
0.00013719
0.0019693
0.00014591
0.0015265
0.00015349
0.001164
0.00015795
0.00070928
0.00028868
0.00016058
2.0106e-05
0.0035128
4.1603e-08
4.0272e-05
0.0034216
5.9889e-05
0.0032924
7.8488e-05
0.0031137
9.5887e-05
0.0028817
0.00011144
0.0026144
0.00012519
0.0022719
0.00013722
0.0019573
0.00014595
0.0015177
0.00015353
0.0011564
0.00015799
0.00070482
0.00028606
0.00016061
2.0107e-05
0.0034927
4.2187e-08
4.0274e-05
0.0034015
5.9893e-05
0.0032728
7.8493e-05
0.0030951
9.5894e-05
0.0028643
0.00011145
0.0025989
0.00012521
0.0022581
0.00013724
0.0019453
0.00014599
0.001509
0.00015356
0.0011489
0.00015803
0.00070034
0.00028345
0.00016064
2.0107e-05
0.0034725
4.2775e-08
4.0276e-05
0.0033813
5.9898e-05
0.0032532
7.8498e-05
0.0030765
9.5901e-05
0.0028468
0.00011147
0.0025833
0.00012522
0.0022444
0.00013727
0.0019332
0.00014603
0.0015002
0.00015359
0.0011413
0.00015807
0.00069586
0.00028084
0.00016067
2.0108e-05
0.0034524
4.3366e-08
4.0278e-05
0.0033611
5.9902e-05
0.0032335
7.8504e-05
0.0030579
9.5908e-05
0.0028294
0.00011149
0.0025677
0.00012524
0.0022306
0.00013729
0.0019212
0.00014607
0.0014915
0.00015362
0.0011338
0.00015811
0.00069137
0.00027825
0.0001607
2.0109e-05
0.0034322
4.396e-08
4.0281e-05
0.003341
5.9907e-05
0.0032139
7.8509e-05
0.0030393
9.5915e-05
0.002812
0.0001115
0.0025521
0.00012525
0.0022168
0.00013732
0.0019091
0.00014611
0.0014827
0.00015365
0.0011262
0.00015815
0.00068688
0.00027567
0.00016073
2.011e-05
0.0034121
4.4559e-08
4.0283e-05
0.0033208
5.9911e-05
0.0031943
7.8515e-05
0.0030207
9.5922e-05
0.0027946
0.00011152
0.0025365
0.00012527
0.0022031
0.00013734
0.001897
0.00014614
0.0014739
0.00015368
0.0011187
0.00015819
0.00068237
0.0002731
0.00016076
2.0111e-05
0.0033919
4.5162e-08
4.0285e-05
0.0033006
5.9916e-05
0.0031746
7.8521e-05
0.0030021
9.5928e-05
0.0027772
0.00011153
0.0025209
0.00012529
0.0021893
0.00013737
0.001885
0.00014618
0.0014651
0.00015371
0.0011112
0.00015823
0.00067786
0.00027055
0.00016078
2.0112e-05
0.0033718
4.5768e-08
4.0287e-05
0.0032804
5.9921e-05
0.003155
7.8527e-05
0.0029835
9.5935e-05
0.0027598
0.00011155
0.0025053
0.00012531
0.0021756
0.00013739
0.0018729
0.00014622
0.0014562
0.00015374
0.0011036
0.00015826
0.00067333
0.000268
0.00016081
2.0113e-05
0.0033516
4.6379e-08
4.029e-05
0.0032603
5.9925e-05
0.0031354
7.8533e-05
0.0029648
9.5942e-05
0.0027424
0.00011157
0.0024897
0.00012532
0.0021618
0.00013742
0.0018608
0.00014626
0.0014474
0.00015377
0.0010961
0.0001583
0.00066881
0.00026546
0.00016084
2.0114e-05
0.0033315
4.6993e-08
4.0292e-05
0.0032401
5.993e-05
0.0031157
7.854e-05
0.0029462
9.5949e-05
0.002725
0.00011158
0.0024741
0.00012534
0.0021481
0.00013744
0.0018487
0.0001463
0.0014385
0.0001538
0.0010886
0.00015834
0.00066427
0.00026293
0.00016087
2.0115e-05
0.0033113
4.7612e-08
4.0294e-05
0.0032199
5.9935e-05
0.0030961
7.8546e-05
0.0029276
9.5957e-05
0.0027076
0.0001116
0.0024584
0.00012536
0.0021343
0.00013747
0.0018366
0.00014633
0.0014297
0.00015383
0.0010811
0.00015838
0.00065973
0.00026042
0.00016089
2.0116e-05
0.0032911
4.8236e-08
4.0297e-05
0.0031997
5.9939e-05
0.0030765
7.8553e-05
0.002909
9.5964e-05
0.0026902
0.00011162
0.0024428
0.00012538
0.0021205
0.00013749
0.0018245
0.00014637
0.0014208
0.00015386
0.0010736
0.00015841
0.00065518
0.00025791
0.00016092
2.0117e-05
0.003271
4.8864e-08
4.0299e-05
0.0031795
5.9944e-05
0.0030568
7.856e-05
0.0028904
9.5972e-05
0.0026728
0.00011164
0.0024271
0.0001254
0.0021068
0.00013751
0.0018124
0.00014641
0.0014119
0.0001539
0.0010661
0.00015845
0.00065063
0.00025541
0.00016095
2.0118e-05
0.0032508
4.9496e-08
4.0302e-05
0.0031594
5.9949e-05
0.0030372
7.8566e-05
0.0028718
9.598e-05
0.0026553
0.00011166
0.0024114
0.00012542
0.002093
0.00013754
0.0018002
0.00014645
0.001403
0.00015393
0.0010587
0.00015849
0.00064607
0.00025293
0.00016097
2.0119e-05
0.0032306
5.0134e-08
4.0304e-05
0.0031392
5.9954e-05
0.0030175
7.8574e-05
0.0028532
9.5989e-05
0.0026379
0.00011168
0.0023957
0.00012544
0.0020793
0.00013756
0.0017881
0.00014648
0.0013941
0.00015396
0.0010512
0.00015852
0.0006415
0.00025045
0.000161
2.0121e-05
0.0032105
5.0776e-08
4.0307e-05
0.003119
5.9959e-05
0.0029979
7.8581e-05
0.0028345
9.5998e-05
0.0026205
0.0001117
0.00238
0.00012546
0.0020655
0.00013758
0.001776
0.00014652
0.0013851
0.00015399
0.0010437
0.00015856
0.00063693
0.00024798
0.00016102
2.0122e-05
0.0031903
5.1423e-08
4.0309e-05
0.0030988
5.9963e-05
0.0029782
7.8588e-05
0.0028159
9.6007e-05
0.0026031
0.00011172
0.0023643
0.00012548
0.0020517
0.00013761
0.0017639
0.00014656
0.0013762
0.00015402
0.0010363
0.00015859
0.00063235
0.00024552
0.00016105
2.0123e-05
0.0031701
5.2075e-08
4.0312e-05
0.0030786
5.9968e-05
0.0029586
7.8596e-05
0.0027973
9.6017e-05
0.0025857
0.00011174
0.0023486
0.0001255
0.002038
0.00013763
0.0017517
0.00014659
0.0013672
0.00015405
0.0010288
0.00015863
0.00062777
0.00024308
0.00016108
2.0124e-05
0.0031499
5.2733e-08
4.0315e-05
0.0030584
5.9973e-05
0.0029389
7.8603e-05
0.0027787
9.6027e-05
0.0025683
0.00011176
0.0023329
0.00012552
0.0020242
0.00013765
0.0017396
0.00014663
0.0013582
0.00015408
0.0010213
0.00015866
0.00062319
0.00024064
0.0001611
2.0125e-05
0.0031297
5.3396e-08
4.0318e-05
0.0030382
5.9978e-05
0.0029192
7.8611e-05
0.00276
9.6038e-05
0.0025508
0.00011178
0.0023171
0.00012554
0.0020104
0.00013767
0.0017275
0.00014666
0.0013492
0.00015411
0.0010139
0.0001587
0.0006186
0.00023821
0.00016113
2.0126e-05
0.0031096
5.4064e-08
4.032e-05
0.003018
5.9983e-05
0.0028996
7.8619e-05
0.0027414
9.6049e-05
0.0025334
0.0001118
0.0023014
0.00012556
0.0019967
0.00013769
0.0017154
0.0001467
0.0013402
0.00015414
0.0010065
0.00015873
0.00061401
0.00023579
0.00016115
2.0127e-05
0.0030894
5.4739e-08
4.0323e-05
0.0029978
5.9989e-05
0.0028799
7.8628e-05
0.0027227
9.6061e-05
0.002516
0.00011182
0.0022856
0.00012558
0.0019829
0.00013772
0.0017032
0.00014674
0.0013312
0.00015417
0.00099903
0.00015877
0.00060941
0.00023338
0.00016118
2.0128e-05
0.0030692
5.5419e-08
4.0326e-05
0.0029776
5.9994e-05
0.0028602
7.8636e-05
0.0027041
9.6073e-05
0.0024985
0.00011184
0.0022698
0.0001256
0.0019692
0.00013774
0.0016911
0.00014677
0.0013222
0.0001542
0.00099159
0.0001588
0.00060481
0.00023098
0.0001612
2.013e-05
0.003049
5.6105e-08
4.0329e-05
0.0029574
5.9999e-05
0.0028406
7.8645e-05
0.0026855
9.6085e-05
0.0024811
0.00011186
0.0022541
0.00012562
0.0019554
0.00013776
0.001679
0.00014681
0.0013131
0.00015423
0.00098417
0.00015884
0.00060021
0.00022859
0.00016123
2.0131e-05
0.0030288
5.6797e-08
4.0332e-05
0.0029372
6.0005e-05
0.0028209
7.8655e-05
0.0026668
9.6098e-05
0.0024636
0.00011189
0.0022383
0.00012564
0.0019416
0.00013778
0.0016668
0.00014684
0.0013041
0.00015427
0.00097674
0.00015887
0.0005956
0.0002262
0.00016126
2.0132e-05
0.0030086
5.7495e-08
4.0336e-05
0.002917
6.001e-05
0.0028012
7.8665e-05
0.0026482
9.6111e-05
0.0024462
0.00011191
0.0022225
0.00012566
0.0019279
0.0001378
0.0016547
0.00014688
0.001295
0.0001543
0.00096932
0.00015891
0.00059099
0.00022383
0.00016128
2.0133e-05
0.0029884
5.82e-08
4.0339e-05
0.0028968
6.0016e-05
0.0027815
7.8675e-05
0.0026295
9.6124e-05
0.0024287
0.00011193
0.0022067
0.00012568
0.0019141
0.00013782
0.0016425
0.00014691
0.0012859
0.00015433
0.00096191
0.00015894
0.00058638
0.00022146
0.00016131
2.0134e-05
0.0029683
5.8911e-08
4.0342e-05
0.0028766
6.0022e-05
0.0027619
7.8685e-05
0.0026108
9.6138e-05
0.0024113
0.00011195
0.0021909
0.0001257
0.0019004
0.00013784
0.0016304
0.00014695
0.0012768
0.00015436
0.0009545
0.00015898