/*--------------------------------*- C++ -*----------------------------------*\
  =========                 |
  \\      /  F ield         | OpenFOAM: The Open Source CFD Toolbox
   \\    /   O peration     | Website:  https://openfoam.org
    \\  /    A nd           | Version:  6.0
     \\/     M anipulation  |
\*---------------------------------------------------------------------------*/
FoamFile
{
    version     2.0;
    format      ascii;
    class       surfaceScalarField;
    location    "2";
    object      phi;
}
// * * * * * * * * * * * * * * * * * * * * * * * * * * * * * * * * * * * * * //

dimensions      [0 3 -1 0 0 0 0];

internalField   nonuniform List<scalar> 
38687
(
2.0052e-05
0.005201
1.2373e-10
4.0126e-05
0.0051116
5.964e-05
0.0049351
7.8187e-05
0.0046741
9.5417e-05
0.0043332
0.00011102
0.0039182
0.00012472
0.0034362
0.00013626
0.0028953
0.00014546
0.002305
0.00015181
0.0016755
0.00015714
0.0010154
0.00046526
3.408e-05
2.0053e-05
0.0051809
3.2822e-10
4.0129e-05
0.0050916
5.9644e-05
0.0049155
7.8191e-05
0.0046556
9.5422e-05
0.004316
0.00011102
0.0039026
0.00012471
0.0034225
0.00013624
0.0028838
0.00014544
0.0022958
0.00015104
0.0016699
0.00015882
0.0010076
0.00055978
6.43e-05
2.0054e-05
0.0051609
5.2167e-10
4.0131e-05
0.0050715
5.9647e-05
0.004896
7.8196e-05
0.004637
9.5426e-05
0.0042988
0.00011103
0.003887
0.00012471
0.0034088
0.00013622
0.0028723
0.00014545
0.0022865
0.00015026
0.0016651
0.00016006
0.00099785
0.00063059
8.925e-05
2.0055e-05
0.0051408
7.2349e-10
4.0134e-05
0.0050514
5.9651e-05
0.0048765
7.82e-05
0.0046185
9.5431e-05
0.0042815
0.00011103
0.0038714
0.00012471
0.0033951
0.00013619
0.0028608
0.00014549
0.0022772
0.0001495
0.0016611
0.00016078
0.00098657
0.00068199
0.00010939
2.0057e-05
0.0051208
9.2612e-10
4.0136e-05
0.0050313
5.9655e-05
0.004857
7.8205e-05
0.0045999
9.5436e-05
0.0042643
0.00011103
0.0038558
0.00012471
0.0033814
0.00013617
0.0028494
0.00014556
0.0022678
0.0001488
0.0016579
0.00016099
0.00097438
0.00071752
0.00012545
2.0058e-05
0.0051007
1.1295e-09
4.0139e-05
0.0050112
5.9658e-05
0.0048375
7.8209e-05
0.0045814
9.5441e-05
0.0042471
0.00011104
0.0038402
0.00012471
0.0033678
0.00013614
0.0028379
0.00014565
0.0022583
0.00014817
0.0016553
0.00016076
0.00096179
0.00074018
0.0001381
2.0059e-05
0.0050807
1.3336e-09
4.0141e-05
0.0049912
5.9662e-05
0.004818
7.8214e-05
0.0045628
9.5445e-05
0.0042298
0.00011104
0.0038246
0.00012471
0.0033541
0.0001361
0.0028265
0.00014575
0.0022487
0.00014762
0.0016535
0.00016017
0.00094924
0.00075249
0.00014786
2.006e-05
0.0050606
1.5383e-09
4.0144e-05
0.0049711
5.9666e-05
0.0047984
7.8219e-05
0.0045443
9.545e-05
0.0042126
0.00011104
0.003809
0.00012471
0.0033404
0.00013607
0.0028152
0.00014587
0.0022389
0.00014718
0.0016522
0.00015932
0.00093709
0.00075661
0.00015521
2.0061e-05
0.0050405
1.7437e-09
4.0146e-05
0.004951
5.967e-05
0.0047789
7.8223e-05
0.0045257
9.5455e-05
0.0041954
0.00011105
0.0037934
0.00012472
0.0033267
0.00013603
0.0028039
0.00014599
0.0022289
0.00014684
0.0016513
0.0001583
0.00092563
0.00075433
0.00016058
2.0062e-05
0.0050205
1.9498e-09
4.0149e-05
0.0049309
5.9673e-05
0.0047594
7.8228e-05
0.0045072
9.546e-05
0.0041781
0.00011105
0.0037778
0.00012472
0.0033131
0.00013599
0.0027926
0.00014612
0.0022188
0.00014661
0.0016508
0.00015717
0.00091508
0.00074717
0.00016432
2.0064e-05
0.0050004
2.1565e-09
4.0151e-05
0.0049108
5.9677e-05
0.0047399
7.8233e-05
0.0044886
9.5465e-05
0.0041609
0.00011105
0.0037623
0.00012473
0.0032994
0.00013594
0.0027814
0.00014624
0.0022085
0.0001465
0.0016506
0.000156
0.00090557
0.0007364
0.00016678
2.0065e-05
0.0049803
2.3639e-09
4.0154e-05
0.0048907
5.9681e-05
0.0047203
7.8237e-05
0.00447
9.547e-05
0.0041437
0.00011106
0.0037467
0.00012473
0.0032857
0.00013589
0.0027702
0.00014637
0.002198
0.00014648
0.0016504
0.00015485
0.0008972
0.00072304
0.00016821
2.0066e-05
0.0049603
2.5721e-09
4.0157e-05
0.0048706
5.9684e-05
0.0047008
7.8242e-05
0.0044515
9.5475e-05
0.0041264
0.00011106
0.0037311
0.00012474
0.0032721
0.00013584
0.0027591
0.00014648
0.0021874
0.00014656
0.0016504
0.00015376
0.00089
0.00070794
0.00016885
2.0067e-05
0.0049402
2.7811e-09
4.0159e-05
0.0048506
5.9688e-05
0.0046813
7.8247e-05
0.0044329
9.548e-05
0.0041092
0.00011107
0.0037155
0.00012475
0.0032584
0.00013579
0.0027481
0.00014658
0.0021766
0.00014672
0.0016502
0.00015276
0.00088397
0.0006918
0.0001689
2.0068e-05
0.0049201
2.9909e-09
4.0162e-05
0.0048305
5.9692e-05
0.0046617
7.8252e-05
0.0044144
9.5485e-05
0.004092
0.00011107
0.0036999
0.00012476
0.0032447
0.00013574
0.0027371
0.00014667
0.0021656
0.00014696
0.0016499
0.00015187
0.00087906
0.00067515
0.00016852
2.0069e-05
0.0049001
3.2017e-09
4.0164e-05
0.0048104
5.9696e-05
0.0046422
7.8256e-05
0.0043958
9.5491e-05
0.0040747
0.00011107
0.0036843
0.00012477
0.003231
0.00013568
0.0027262
0.00014674
0.0021546
0.00014726
0.0016494
0.0001511
0.00087522
0.00065841
0.00016784
2.0071e-05
0.00488
3.4135e-09
4.0167e-05
0.0047903
5.9699e-05
0.0046227
7.8261e-05
0.0043772
9.5496e-05
0.0040575
0.00011108
0.0036688
0.00012478
0.0032173
0.00013563
0.0027154
0.0001468
0.0021434
0.00014761
0.0016486
0.00015048
0.00087235
0.00064193
0.00016696
2.0072e-05
0.0048599
3.6263e-09
4.0169e-05
0.0047702
5.9703e-05
0.0046031
7.8266e-05
0.0043587
9.5501e-05
0.0040403
0.00011108
0.0036532
0.0001248
0.0032035
0.00013558
0.0027046
0.00014684
0.0021322
0.000148
0.0016474
0.00014998
0.00087037
0.00062593
0.00016598
2.0073e-05
0.0048398
3.8402e-09
4.0172e-05
0.0047501
5.9707e-05
0.0045836
7.8271e-05
0.0043401
9.5507e-05
0.004023
0.00011108
0.0036376
0.00012481
0.0031898
0.00013553
0.0026939
0.00014685
0.0021208
0.00014841
0.0016459
0.00014962
0.00086916
0.00061061
0.00016495
2.0074e-05
0.0048197
4.0551e-09
4.0174e-05
0.00473
5.9711e-05
0.0045641
7.8276e-05
0.0043216
9.5512e-05
0.0040058
0.00011109
0.003622
0.00012483
0.0031761
0.00013548
0.0026832
0.00014686
0.0021095
0.00014884
0.0016439
0.00014938
0.00086861
0.00059607
0.00016393
2.0075e-05
0.0047997
4.2711e-09
4.0177e-05
0.0047099
5.9715e-05
0.0045445
7.828e-05
0.004303
9.5518e-05
0.0039886
0.00011109
0.0036065
0.00012485
0.0031623
0.00013544
0.0026726
0.00014684
0.0020981
0.00014927
0.0016415
0.00014926
0.00086861
0.00058238
0.00016295
2.0076e-05
0.0047796
4.4883e-09
4.018e-05
0.0046898
5.9718e-05
0.004525
7.8285e-05
0.0042844
9.5523e-05
0.0039713
0.00011109
0.0035909
0.00012487
0.0031485
0.0001354
0.0026621
0.0001468
0.0020867
0.0001497
0.0016386
0.00014925
0.00086907
0.00056959
0.00016204
2.0078e-05
0.0047595
4.7066e-09
4.0182e-05
0.0046697
5.9722e-05
0.0045055
7.829e-05
0.0042659
9.5529e-05
0.0039541
0.0001111
0.0035753
0.00012489
0.0031348
0.00013537
0.0026516
0.00014675
0.0020753
0.00015012
0.0016352
0.00014933
0.00086986
0.00055769
0.00016122
2.0079e-05
0.0047394
4.926e-09
4.0185e-05
0.0046496
5.9726e-05
0.0044859
7.8295e-05
0.0042473
9.5535e-05
0.0039369
0.0001111
0.0035597
0.00012491
0.0031209
0.00013534
0.0026412
0.00014669
0.0020639
0.00015052
0.0016314
0.00014948
0.0008709
0.00054667
0.0001605
2.008e-05
0.0047193
5.1465e-09
4.0187e-05
0.0046294
5.973e-05
0.0044664
7.83e-05
0.0042287
9.5541e-05
0.0039196
0.0001111
0.0035442
0.00012493
0.0031071
0.00013531
0.0026308
0.00014661
0.0020526
0.0001509
0.0016271
0.0001497
0.00087211
0.00053649
0.00015988
2.0081e-05
0.0046992
5.3682e-09
4.019e-05
0.0046093
5.9734e-05
0.0044468
7.8305e-05
0.0042101
9.5547e-05
0.0039024
0.00011111
0.0035286
0.00012495
0.0030933
0.00013529
0.0026205
0.00014652
0.0020414
0.00015126
0.0016223
0.00014998
0.00087339
0.00052711
0.00015936
2.0082e-05
0.0046792
5.591e-09
4.0192e-05
0.0045892
5.9737e-05
0.0044273
7.831e-05
0.0041916
9.5553e-05
0.0038851
0.00011111
0.0035131
0.00012497
0.0030794
0.00013528
0.0026101
0.00014642
0.0020303
0.00015158
0.0016172
0.00015029
0.00087468
0.00051847
0.00015893
2.0084e-05
0.0046591
5.8149e-09
4.0195e-05
0.0045691
5.9741e-05
0.0044077
7.8315e-05
0.004173
9.5559e-05
0.0038679
0.00011111
0.0034975
0.00012499
0.0030655
0.00013528
0.0025999
0.00014631
0.0020192
0.00015188
0.0016116
0.00015064
0.00087592
0.00051051
0.0001586
2.0085e-05
0.004639
6.0401e-09
4.0198e-05
0.004549
5.9745e-05
0.0043882
7.832e-05
0.0041544
9.5565e-05
0.0038506
0.00011112
0.003482
0.00012501
0.0030517
0.00013528
0.0025896
0.00014619
0.0020083
0.00015214
0.0016057
0.000151
0.00087706
0.00050317
0.00015834
2.0086e-05
0.0046189
6.2664e-09
4.02e-05
0.0045289
5.9749e-05
0.0043686
7.8325e-05
0.0041358
9.5571e-05
0.0038334
0.00011112
0.0034664
0.00012503
0.0030377
0.00013528
0.0025793
0.00014608
0.0019975
0.00015237
0.0015994
0.00015138
0.00087805
0.00049638
0.00015816
2.0087e-05
0.0045988
6.4939e-09
4.0203e-05
0.0045088
5.9753e-05
0.0043491
7.8331e-05
0.0041173
9.5578e-05
0.0038161
0.00011112
0.0034509
0.00012505
0.0030238
0.0001353
0.0025691
0.00014596
0.0019869
0.00015256
0.0015928
0.00015175
0.00087886
0.00049009
0.00015804
2.0088e-05
0.0045787
6.7226e-09
4.0205e-05
0.0044887
5.9757e-05
0.0043295
7.8336e-05
0.0040987
9.5585e-05
0.0037989
0.00011112
0.0034353
0.00012507
0.0030099
0.00013532
0.0025588
0.00014584
0.0019764
0.00015273
0.0015859
0.00015213
0.00087946
0.00048424
0.00015798
2.0089e-05
0.0045586
6.9525e-09
4.0208e-05
0.0044685
5.9761e-05
0.00431
7.8341e-05
0.0040801
9.5591e-05
0.0037816
0.00011113
0.0034198
0.00012509
0.0029959
0.00013534
0.0025486
0.00014572
0.001966
0.00015287
0.0015787
0.0001525
0.00087984
0.00047877
0.00015796
2.0091e-05
0.0045385
7.1836e-09
4.0211e-05
0.0044484
5.9765e-05
0.0042904
7.8346e-05
0.0040615
9.5598e-05
0.0037644
0.00011113
0.0034043
0.00012511
0.0029819
0.00013537
0.0025383
0.0001456
0.0019557
0.00015298
0.0015713
0.00015285
0.00087996
0.00047363
0.00015799
2.0092e-05
0.0045184
7.416e-09
4.0213e-05
0.0044283
5.9769e-05
0.0042709
7.8351e-05
0.0040429
9.5605e-05
0.0037471
0.00011113
0.0033887
0.00012512
0.0029679
0.00013541
0.002528
0.00014549
0.0019457
0.00015306
0.0015638
0.00015319
0.00087984
0.00046878
0.00015804
2.0093e-05
0.0044983
7.6497e-09
4.0216e-05
0.0044082
5.9773e-05
0.0042513
7.8357e-05
0.0040244
9.5612e-05
0.0037299
0.00011114
0.0033732
0.00012514
0.0029539
0.00013545
0.0025177
0.00014539
0.0019357
0.00015313
0.001556
0.00015351
0.00087946
0.00046418
0.00015811
2.0094e-05
0.0044782
7.8847e-09
4.0219e-05
0.0043881
5.9777e-05
0.0042318
7.8362e-05
0.0040058
9.5619e-05
0.0037126
0.00011114
0.0033577
0.00012516
0.0029399
0.00013549
0.0025074
0.00014529
0.0019259
0.00015317
0.0015481
0.00015381
0.00087882
0.00045978
0.00015821
2.0095e-05
0.0044581
8.1209e-09
4.0221e-05
0.0043679
5.9781e-05
0.0042122
7.8367e-05
0.0039872
9.5626e-05
0.0036954
0.00011114
0.0033422
0.00012517
0.0029259
0.00013554
0.002497
0.0001452
0.0019163
0.0001532
0.0015402
0.00015409
0.00087793
0.00045555
0.00015831
2.0097e-05
0.004438
8.3585e-09
4.0224e-05
0.0043478
5.9785e-05
0.0041926
7.8373e-05
0.0039686
9.5634e-05
0.0036781
0.00011115
0.0033267
0.00012519
0.0029118
0.00013559
0.0024866
0.00014511
0.0019068
0.00015321
0.0015321
0.00015435
0.00087679
0.00045147
0.00015843
2.0098e-05
0.0044179
8.5974e-09
4.0227e-05
0.0043277
5.9789e-05
0.0041731
7.8378e-05
0.00395
9.5641e-05
0.0036608
0.00011115
0.0033111
0.0001252
0.0028978
0.00013565
0.0024762
0.00014504
0.0018974
0.00015321
0.0015239
0.00015459
0.00087541
0.0004475
0.00015855
2.0099e-05
0.0043978
8.8376e-09
4.0229e-05
0.0043075
5.9793e-05
0.0041535
7.8383e-05
0.0039314
9.5649e-05
0.0036436
0.00011115
0.0032956
0.00012521
0.0028837
0.0001357
0.0024657
0.00014497
0.0018881
0.0001532
0.0015157
0.00015481
0.0008738
0.00044364
0.00015867
2.01e-05
0.0043777
9.0793e-09
4.0232e-05
0.0042874
5.9797e-05
0.004134
7.8389e-05
0.0039128
9.5657e-05
0.0036263
0.00011116
0.0032801
0.00012522
0.0028697
0.00013576
0.0024551
0.00014492
0.0018789
0.00015319
0.0015074
0.00015501
0.00087198
0.00043985
0.0001588
2.0101e-05
0.0043576
9.3223e-09
4.0235e-05
0.0042673
5.9801e-05
0.0041144
7.8394e-05
0.0038942
9.5665e-05
0.003609
0.00011116
0.0032646
0.00012523
0.0028556
0.00013582
0.0024446
0.00014487
0.0018699
0.00015317
0.0014991
0.00015519
0.00086995
0.00043613
0.00015892
2.0103e-05
0.0043374
9.5667e-09
4.0237e-05
0.0042471
5.9805e-05
0.0040948
7.84e-05
0.0038756
9.5673e-05
0.0035918
0.00011117
0.0032491
0.00012524
0.0028415
0.00013587
0.0024339
0.00014483
0.0018609
0.00015314
0.0014908
0.00015536
0.00086773
0.00043245
0.00015904
2.0104e-05
0.0043173
9.8126e-09
4.024e-05
0.004227
5.981e-05
0.0040753
7.8405e-05
0.003857
9.5681e-05
0.0035745
0.00011117
0.0032337
0.00012525
0.0028275
0.00013593
0.0024232
0.0001448
0.0018521
0.00015312
0.0014825
0.00015552
0.00086533
0.00042882
0.00015915
2.0105e-05
0.0042972
1.006e-08
4.0243e-05
0.0042069
5.9814e-05
0.0040557
7.8411e-05
0.0038385
9.5689e-05
0.0035572
0.00011118
0.0032182
0.00012526
0.0028134
0.00013599
0.0024125
0.00014478
0.0018433
0.0001531
0.0014741
0.00015567
0.00086276
0.00042522
0.00015926
2.0106e-05
0.0042771
1.0309e-08
4.0246e-05
0.0041867
5.9818e-05
0.0040361
7.8416e-05
0.0038199
9.5697e-05
0.0035399
0.00011118
0.0032027
0.00012526
0.0027993
0.00013605
0.0024017
0.00014476
0.0018346
0.00015307
0.0014658
0.0001558
0.00086003
0.00042165
0.00015937
2.0108e-05
0.004257
1.0559e-08
4.0248e-05
0.0041666
5.9822e-05
0.0040165
7.8422e-05
0.0038013
9.5706e-05
0.0035226
0.00011119
0.0031872
0.00012527
0.0027852
0.00013611
0.0023909
0.00014475
0.0018259
0.00015305
0.0014575
0.00015592
0.00085716
0.0004181
0.00015947
2.0109e-05
0.0042369
1.0811e-08
4.0251e-05
0.0041464
5.9827e-05
0.003997
7.8427e-05
0.0037827
9.5715e-05
0.0035054
0.00011119
0.0031717
0.00012528
0.0027711
0.00013616
0.00238
0.00014475
0.0018173
0.00015304
0.0014492
0.00015604
0.00085416
0.00041456
0.00015957
2.011e-05
0.0042167
1.1064e-08
4.0254e-05
0.0041263
5.9831e-05
0.0039774
7.8433e-05
0.0037641
9.5724e-05
0.0034881
0.0001112
0.0031562
0.00012528
0.0027571
0.00013622
0.0023691
0.00014476
0.0018088
0.00015302
0.001441
0.00015615
0.00085104
0.00041104
0.00015967
2.0111e-05
0.0041966
1.1319e-08
4.0257e-05
0.0041062
5.9835e-05
0.0039578
7.8438e-05
0.0037454
9.5733e-05
0.0034708
0.00011121
0.0031408
0.00012529
0.002743
0.00013628
0.0023581
0.00014477
0.0018003
0.00015301
0.0014327
0.00015625
0.0008478
0.00040754
0.00015975
2.0113e-05
0.0041765
1.1575e-08
4.026e-05
0.004086
5.984e-05
0.0039382
7.8444e-05
0.0037268
9.5742e-05
0.0034535
0.00011121
0.0031253
0.00012529
0.0027289
0.00013633
0.002347
0.00014479
0.0017918
0.00015301
0.0014245
0.00015634
0.00084446
0.00040404
0.00015984
2.0114e-05
0.0041564
1.1833e-08
4.0262e-05
0.0040659
5.9844e-05
0.0039186
7.845e-05
0.0037082
9.5751e-05
0.0034362
0.00011122
0.0031098
0.0001253
0.0027148
0.00013638
0.0023359
0.00014481
0.0017834
0.000153
0.0014163
0.00015644
0.00084103
0.00040056
0.00015992
2.0115e-05
0.0041362
1.2093e-08
4.0265e-05
0.0040457
5.9849e-05
0.0038991
7.8455e-05
0.0036896
9.5761e-05
0.0034189
0.00011123
0.0030944
0.0001253
0.0027007
0.00013643
0.0023248
0.00014484
0.001775
0.00015301
0.0014082
0.00015653
0.00083751
0.00039708
0.00016
2.0116e-05
0.0041161
1.2354e-08
4.0268e-05
0.0040256
5.9853e-05
0.0038795
7.8461e-05
0.003671
9.5771e-05
0.0034016
0.00011123
0.0030789
0.0001253
0.0026867
0.00013648
0.0023136
0.00014487
0.0017666
0.00015301
0.0014
0.00015661
0.00083391
0.00039362
0.00016007
2.0118e-05
0.004096
1.2617e-08
4.0271e-05
0.0040054
5.9858e-05
0.0038599
7.8467e-05
0.0036524
9.578e-05
0.0033842
0.00011124
0.0030634
0.00012531
0.0026726
0.00013653
0.0023024
0.0001449
0.0017583
0.00015303
0.0013919
0.0001567
0.00083024
0.00039017
0.00016015
2.0119e-05
0.0040759
1.2882e-08
4.0274e-05
0.0039852
5.9862e-05
0.0038403
7.8472e-05
0.0036338
9.579e-05
0.0033669
0.00011125
0.003048
0.00012531
0.0026585
0.00013658
0.0022911
0.00014494
0.0017499
0.00015304
0.0013838
0.00015678
0.00082651
0.00038673
0.00016022
2.012e-05
0.0040557
1.3148e-08
4.0277e-05
0.0039651
5.9867e-05
0.0038207
7.8478e-05
0.0036152
9.5801e-05
0.0033496
0.00011126
0.0030325
0.00012532
0.0026445
0.00013663
0.0022798
0.00014498
0.0017416
0.00015306
0.0013757
0.00015686
0.00082271
0.00038331
0.00016028
2.0122e-05
0.0040356
1.3416e-08
4.0279e-05
0.0039449
5.9871e-05
0.0038011
7.8484e-05
0.0035966
9.5811e-05
0.0033323
0.00011127
0.0030171
0.00012532
0.0026304
0.00013667
0.0022685
0.00014502
0.0017332
0.00015308
0.0013676
0.00015693
0.00081886
0.00037989
0.00016035
2.0123e-05
0.0040154
1.3686e-08
4.0282e-05
0.0039248
5.9876e-05
0.0037815
7.8489e-05
0.003578
9.5821e-05
0.0033149
0.00011128
0.0030016
0.00012532
0.0026164
0.00013671
0.0022571
0.00014506
0.0017249
0.0001531
0.0013596
0.00015701
0.00081495
0.00037649
0.00016041
2.0124e-05
0.0039953
1.3957e-08
4.0285e-05
0.0039046
5.9881e-05
0.0037619
7.8495e-05
0.0035594
9.5832e-05
0.0032976
0.00011129
0.0029862
0.00012533
0.0026023
0.00013676
0.0022457
0.0001451
0.0017165
0.00015313
0.0013516
0.00015709
0.000811
0.00037311
0.00016047
2.0126e-05
0.0039752
1.423e-08
4.0288e-05
0.0038844
5.9886e-05
0.0037423
7.8501e-05
0.0035407
9.5843e-05
0.0032803
0.0001113
0.0029707
0.00012533
0.0025883
0.0001368
0.0022342
0.00014515
0.0017082
0.00015316
0.0013436
0.00015716
0.000807
0.00036974
0.00016053
2.0127e-05
0.003955
1.4505e-08
4.0291e-05
0.0038643
5.9891e-05
0.0037227
7.8507e-05
0.0035221
9.5854e-05
0.0032629
0.00011131
0.0029552
0.00012533
0.0025743
0.00013684
0.0022227
0.0001452
0.0016998
0.00015319
0.0013356
0.00015723
0.00080296
0.00036639
0.00016059
2.0128e-05
0.0039349
1.4782e-08
4.0294e-05
0.0038441
5.9896e-05
0.0037031
7.8512e-05
0.0035035
9.5865e-05
0.0032456
0.00011132
0.0029398
0.00012534
0.0025603
0.00013688
0.0022111
0.00014525
0.0016914
0.00015323
0.0013276
0.0001573
0.00079888
0.00036305
0.00016064
2.013e-05
0.0039147
1.506e-08
4.0297e-05
0.003824
5.9901e-05
0.0036835
7.8518e-05
0.0034849
9.5876e-05
0.0032282
0.00011133
0.0029243
0.00012534
0.0025462
0.00013692
0.0021996
0.00014529
0.0016831
0.00015326
0.0013196
0.00015738
0.00079476
0.00035973
0.0001607
2.0131e-05
0.0038946
1.5341e-08
4.03e-05
0.0038038
5.9906e-05
0.0036639
7.8524e-05
0.0034663
9.5887e-05
0.0032108
0.00011134
0.0029089
0.00012535
0.0025322
0.00013696
0.002188
0.00014534
0.0016747
0.0001533
0.0013117
0.00015745
0.00079061
0.00035643
0.00016075
2.0132e-05
0.0038744
1.5623e-08
4.0303e-05
0.0037836
5.9911e-05
0.0036443
7.853e-05
0.0034477
9.5898e-05
0.0031935
0.00011135
0.0028934
0.00012535
0.0025182
0.000137
0.0021763
0.00014539
0.0016663
0.00015333
0.0013037
0.00015752
0.00078643
0.00035315
0.0001608
2.0134e-05
0.0038543
1.5907e-08
4.0306e-05
0.0037634
5.9916e-05
0.0036247
7.8536e-05
0.003429
9.591e-05
0.0031761
0.00011136
0.002878
0.00012536
0.0025042
0.00013703
0.0021646
0.00014544
0.0016579
0.00015337
0.0012958
0.00015758
0.00078222
0.00034988
0.00016085
2.0135e-05
0.0038341
1.6194e-08
4.0309e-05
0.0037433
5.9921e-05
0.0036051
7.8541e-05
0.0034104
9.5921e-05
0.0031587
0.00011138
0.0028625
0.00012536
0.0024903
0.00013707
0.0021529
0.00014549
0.0016495
0.00015341
0.0012879
0.00015765
0.00077798
0.00034663
0.0001609
2.0137e-05
0.003814
1.6482e-08
4.0312e-05
0.0037231
5.9926e-05
0.0035855
7.8547e-05
0.0033918
9.5933e-05
0.0031413
0.00011139
0.0028471
0.00012537
0.0024763
0.00013711
0.0021412
0.00014554
0.001641
0.00015345
0.00128
0.00015772
0.00077371
0.0003434
0.00016095
2.0138e-05
0.0037938
1.6771e-08
4.0315e-05
0.0037029
5.9932e-05
0.0035659
7.8553e-05
0.0033732
9.5944e-05
0.0031239
0.00011141
0.0028316
0.00012537
0.0024623
0.00013714
0.0021294
0.00014559
0.0016326
0.00015349
0.0012721
0.00015778
0.00076941
0.00034019
0.00016099
2.0139e-05
0.0037737
1.7063e-08
4.0318e-05
0.0036827
5.9937e-05
0.0035462
7.8559e-05
0.0033545
9.5956e-05
0.0031066
0.00011142
0.0028161
0.00012538
0.0024484
0.00013718
0.0021176
0.00014564
0.0016241
0.00015353
0.0012642
0.00015785
0.00076509
0.000337
0.00016104
2.0141e-05
0.0037535
1.7357e-08
4.0321e-05
0.0036626
5.9943e-05
0.0035266
7.8565e-05
0.0033359
9.5967e-05
0.0030891
0.00011144
0.0028007
0.00012539
0.0024344
0.00013721
0.0021058
0.0001457
0.0016156
0.00015357
0.0012563
0.00015791
0.00076075
0.00033382
0.00016109
2.0142e-05
0.0037334
1.7653e-08
4.0324e-05
0.0036424
5.9948e-05
0.003507
7.8571e-05
0.0033173
9.5979e-05
0.0030717
0.00011145
0.0027852
0.0001254
0.0024205
0.00013725
0.0020939
0.00014575
0.0016071
0.00015361
0.0012485
0.00015797
0.00075639
0.00033066
0.00016113
2.0144e-05
0.0037132
1.7951e-08
4.0328e-05
0.0036222
5.9954e-05
0.0034874
7.8577e-05
0.0032987
9.5991e-05
0.0030543
0.00011147
0.0027697
0.0001254
0.0024065
0.00013728
0.0020821
0.0001458
0.0015986
0.00015365
0.0012406
0.00015803
0.000752
0.00032752
0.00016117
2.0145e-05
0.003693
1.8251e-08
4.0331e-05
0.003602
5.996e-05
0.0034677
7.8584e-05
0.0032801
9.6002e-05
0.0030369
0.00011148
0.0027542
0.00012541
0.0023926
0.00013731
0.0020702
0.00014585
0.0015901
0.00015369
0.0012328
0.0001581
0.00074759
0.0003244
0.00016122
2.0147e-05
0.0036729
1.8553e-08
4.0334e-05
0.0035818
5.9965e-05
0.0034481
7.859e-05
0.0032614
9.6014e-05
0.0030195
0.0001115
0.0027388
0.00012542
0.0023787
0.00013735
0.0020582
0.0001459
0.0015815
0.00015373
0.0012249
0.00015816
0.00074317
0.0003213
0.00016126
2.0148e-05
0.0036527
1.8857e-08
4.0337e-05
0.0035616
5.9971e-05
0.0034285
7.8596e-05
0.0032428
9.6026e-05
0.0030021
0.00011152
0.0027233
0.00012543
0.0023648
0.00013738
0.0020463
0.00014595
0.0015729
0.00015377
0.0012171
0.00015821
0.00073872
0.00031821
0.0001613
2.015e-05
0.0036325
1.9163e-08
4.034e-05
0.0035414
5.9977e-05
0.0034088
7.8603e-05
0.0032242
9.6037e-05
0.0029846
0.00011154
0.0027078
0.00012544
0.0023509
0.00013741
0.0020343
0.000146
0.0015644
0.00015381
0.0012093
0.00015827
0.00073426
0.00031514
0.00016134
2.0152e-05
0.0036124
1.9472e-08
4.0344e-05
0.0035212
5.9983e-05
0.0033892
7.8609e-05
0.0032056
9.6049e-05
0.0029672
0.00011156
0.0026922
0.00012546
0.002337
0.00013745
0.0020223
0.00014605
0.0015558
0.00015385
0.0012015
0.00015833
0.00072978
0.00031209
0.00016138
2.0153e-05
0.0035922
1.9782e-08
4.0347e-05
0.0035011
5.9989e-05
0.0033696
7.8616e-05
0.0031869
9.606e-05
0.0029497
0.00011158
0.0026767
0.00012547
0.0023231
0.00013748
0.0020103
0.0001461
0.0015471
0.00015389
0.0011937
0.00015839
0.00072528
0.00030905
0.00016142
2.0155e-05
0.003572
2.0095e-08
4.035e-05
0.0034809
5.9995e-05
0.0033499
7.8623e-05
0.0031683
9.6072e-05
0.0029323
0.0001116
0.0026612
0.00012548
0.0023092
0.00013751
0.0019983
0.00014615
0.0015385
0.00015393
0.0011859
0.00015844
0.00072077
0.00030603
0.00016146
2.0156e-05
0.0035518
2.0409e-08
4.0353e-05
0.0034607
6.0002e-05
0.0033303
7.863e-05
0.0031497
9.6083e-05
0.0029148
0.00011162
0.0026457
0.0001255
0.0022953
0.00013754
0.0019863
0.00014619
0.0015299
0.00015397
0.0011781
0.0001585
0.00071625
0.00030303
0.0001615
2.0158e-05
0.0035317
2.0726e-08
4.0357e-05
0.0034405
6.0008e-05
0.0033106
7.8637e-05
0.003131
9.6095e-05
0.0028974
0.00011164
0.0026301
0.00012551
0.0022814
0.00013758
0.0019742
0.00014624
0.0015212
0.00015401
0.0011704
0.00015855
0.0007117
0.00030004
0.00016154
2.016e-05
0.0035115
2.1046e-08
4.036e-05
0.0034203
6.0014e-05
0.003291
7.8644e-05
0.0031124
9.6106e-05
0.0028799
0.00011166
0.0026146
0.00012553
0.0022676
0.00013761
0.0019621
0.00014629
0.0015125
0.00015405
0.0011626
0.0001586
0.00070715
0.00029707
0.00016157
2.0161e-05
0.0034913
2.1367e-08
4.0364e-05
0.0034001
6.0021e-05
0.0032713
7.8652e-05
0.0030938
9.6118e-05
0.0028625
0.00011168
0.002599
0.00012554
0.0022537
0.00013764
0.00195
0.00014634
0.0015038
0.00015409
0.0011549
0.00015866
0.00070258
0.00029411
0.00016161
2.0163e-05
0.0034711
2.1691e-08
4.0367e-05
0.0033799
6.0027e-05
0.0032516
7.866e-05
0.0030751
9.6129e-05
0.002845
0.0001117
0.0025834
0.00012556
0.0022398
0.00013767
0.0019379
0.00014639
0.0014951
0.00015413
0.0011471
0.00015871
0.000698
0.00029118
0.00016165
2.0165e-05
0.0034509
2.2016e-08
4.037e-05
0.0033596
6.0034e-05
0.003232
7.8667e-05
0.0030565
9.6141e-05
0.0028275
0.00011173
0.0025679
0.00012558
0.002226
0.0001377
0.0019258
0.00014644
0.0014864
0.00015417
0.0011394
0.00015876
0.00069341
0.00028825
0.00016168
2.0166e-05
0.0034307
2.2345e-08
4.0374e-05
0.0033394
6.004e-05
0.0032123
7.8676e-05
0.0030379
9.6152e-05
0.00281
0.00011175
0.0025523
0.00012559
0.0022121
0.00013773
0.0019136
0.00014648
0.0014776
0.0001542
0.0011317
0.00015881
0.0006888
0.00028534
0.00016172
2.0168e-05
0.0034105
2.2675e-08
4.0377e-05
0.0033192
6.0047e-05
0.0031926
7.8684e-05
0.0030192
9.6164e-05
0.0027926
0.00011177
0.0025367
0.00012561
0.0021983
0.00013776
0.0019015
0.00014653
0.0014688
0.00015424
0.001124
0.00015886
0.00068418
0.00028245
0.00016175
2.017e-05
0.0033904
2.3008e-08
4.0381e-05
0.003299
6.0054e-05
0.003173
7.8692e-05
0.0030006
9.6175e-05
0.0027751
0.00011179
0.002521
0.00012563
0.0021845
0.0001378
0.0018893
0.00014658
0.0014601
0.00015428
0.0011163
0.00015891
0.00067956
0.00027957
0.00016179
2.0172e-05
0.0033702
2.3343e-08
4.0385e-05
0.0032788
6.0061e-05
0.0031533
7.8701e-05
0.002982
9.6187e-05
0.0027576
0.00011182
0.0025054
0.00012565
0.0021706
0.00013783
0.0018771
0.00014663
0.0014513
0.00015432
0.0011086
0.00015896
0.00067492
0.0002767
0.00016182
2.0173e-05
0.00335
2.3681e-08
4.0388e-05
0.0032586
6.0068e-05
0.0031336
7.871e-05
0.0029633
9.6199e-05
0.0027401
0.00011184
0.0024898
0.00012567
0.0021568
0.00013786
0.001865
0.00014667
0.0014424
0.00015436
0.0011009
0.00015901
0.00067027
0.00027385
0.00016186
2.0175e-05
0.0033298
2.4021e-08
4.0392e-05
0.0032384
6.0075e-05
0.0031139
7.8719e-05
0.0029447
9.6211e-05
0.0027226
0.00011187
0.0024741
0.00012569
0.002143
0.00013789
0.0018528
0.00014672
0.0014336
0.0001544
0.0010932
0.00015906
0.00066562
0.00027101
0.00016189
2.0177e-05
0.0033096
2.4363e-08
4.0396e-05
0.0032182
6.0082e-05
0.0030942
7.8729e-05
0.002926
9.6223e-05
0.0027051
0.00011189
0.0024584
0.00012571
0.0021292
0.00013792
0.0018406
0.00014677
0.0014248
0.00015444
0.0010855
0.0001591
0.00066095
0.00026819
0.00016193
2.0179e-05
0.0032894
2.4708e-08
4.04e-05
0.0031979
6.0089e-05
0.0030745
7.8738e-05
0.0029074
9.6235e-05
0.0026876
0.00011191
0.0024428
0.00012573
0.0021153
0.00013795
0.0018283
0.00014681
0.0014159
0.00015448
0.0010779
0.00015915
0.00065628
0.00026538
0.00016196
2.0181e-05
0.0032692
2.5056e-08
4.0404e-05
0.0031777
6.0096e-05
0.0030549
7.8748e-05
0.0028887
9.6248e-05
0.0026701
0.00011194
0.0024271
0.00012576
0.0021015
0.00013798
0.0018161
0.00014686
0.001407
0.00015452
0.0010702
0.0001592
0.0006516
0.00026259
0.00016199
2.0183e-05
0.0032489
2.5406e-08
4.0408e-05
0.0031575
6.0104e-05
0.0030352
7.8758e-05
0.0028701
9.626e-05
0.0026526
0.00011196
0.0024114
0.00012578
0.0020877
0.00013801
0.0018039
0.0001469
0.0013981
0.00015455
0.0010626
0.00015924
0.00064691
0.0002598
0.00016203
2.0185e-05
0.0032287
2.5758e-08
4.0412e-05
0.0031373
6.0111e-05
0.0030155
7.8769e-05
0.0028514
9.6273e-05
0.0026351
0.00011199
0.0023957
0.0001258
0.0020739
0.00013804
0.0017917
0.00014695
0.0013892
0.00015459
0.0010549
0.00015929
0.00064221
0.00025703
0.00016206
2.0187e-05
0.0032085
2.6114e-08
4.0416e-05
0.003117
6.0118e-05
0.0029958
7.878e-05
0.0028328
9.6286e-05
0.0026176
0.00011201
0.0023799
0.00012582
0.0020601
0.00013806
0.0017794
0.00014699
0.0013803
0.00015463
0.0010473
0.00015933
0.00063751
0.00025427
0.00016209
2.0189e-05
0.0031883
2.6471e-08
4.042e-05
0.0030968
6.0126e-05
0.0029761
7.8791e-05
0.0028141
9.6299e-05
0.0026001
0.00011204
0.0023642
0.00012585
0.0020463
0.00013809
0.0017672
0.00014704
0.0013713
0.00015467
0.0010397
0.00015938
0.0006328
0.00025153
0.00016212
2.0191e-05
0.0031681
2.6832e-08
4.0424e-05
0.0030766
6.0134e-05
0.0029563
7.8802e-05
0.0027954
9.6312e-05
0.0025826
0.00011206
0.0023484
0.00012587
0.0020325
0.00013812
0.0017549
0.00014708
0.0013624
0.00015471
0.001032
0.00015942
0.00062809
0.0002488
0.00016216
2.0193e-05
0.0031479
2.7195e-08
4.0429e-05
0.0030563
6.0141e-05
0.0029366
7.8813e-05
0.0027768
9.6326e-05
0.0025651
0.00011209
0.0023327
0.00012589
0.0020187
0.00013815
0.0017427
0.00014713
0.0013534
0.00015475
0.0010244
0.00015947
0.00062336
0.00024608
0.00016219
2.0195e-05
0.0031276
2.7561e-08
4.0433e-05
0.0030361
6.0149e-05
0.0029169
7.8825e-05
0.0027581
9.634e-05
0.0025476
0.00011211
0.0023169
0.00012591
0.0020049
0.00013818
0.0017304
0.00014717
0.0013444
0.00015479
0.0010168
0.00015951
0.00061864
0.00024337
0.00016222
2.0197e-05
0.0031074
2.7929e-08
4.0438e-05
0.0030159
6.0157e-05
0.0028972
7.8837e-05
0.0027394
9.6354e-05
0.00253
0.00011214
0.0023011
0.00012594
0.0019911
0.00013821
0.0017181
0.00014722
0.0013354
0.00015483
0.0010092
0.00015956
0.0006139
0.00024067
0.00016225
2.02e-05
0.0030872
2.83e-08
4.0442e-05
0.0029956
6.0165e-05
0.0028775
7.8849e-05
0.0027207
9.6368e-05
0.0025125
0.00011216
0.0022853
0.00012596
0.0019773
0.00013823
0.0017058
0.00014726
0.0013264
0.00015486
0.0010016
0.0001596
0.00060917
0.00023799
0.00016229
2.0202e-05
0.003067
2.8674e-08
4.0447e-05
0.0029754
6.0173e-05
0.0028577
7.8861e-05
0.002702
9.6382e-05
0.002495
0.00011219
0.0022695
0.00012599
0.0019635
0.00013826
0.0016936
0.00014731
0.0013173
0.0001549
0.00099399
0.00015965
0.00060443
0.00023532
0.00016232
2.0204e-05
0.0030467
2.905e-08
4.0452e-05
0.0029551
6.0182e-05
0.002838
7.8874e-05
0.0026833
9.6396e-05
0.0024775
0.00011221
0.0022537
0.00012601
0.0019497
0.00013829
0.0016813
0.00014735
0.0013083
0.00015494
0.0009864
0.00015969
0.00059968
0.00023265
0.00016235
2.0206e-05
0.0030265
2.943e-08
4.0457e-05
0.0029349
6.019e-05
0.0028183
7.8887e-05
0.0026646
9.6411e-05
0.00246
0.00011224
0.0022379
0.00012603
0.0019359
0.00013832
0.001669
0.00014739
0.0012992
0.00015498
0.00097881
0.00015973
0.00059493
0.00023
0.00016238
2.0209e-05
0.0030063
2.9811e-08
4.0462e-05
0.0029146
6.0198e-05
0.0027985
7.89e-05
0.0026459
9.6426e-05
0.0024424
0.00011226
0.002222
0.00012606
0.0019221
0.00013834
0.0016567
0.00014744
0.0012901
0.00015502
0.00097123
0.00015978
0.00059017
0.00022737
0.00016241
2.0211e-05
0.002986
3.0196e-08
4.0467e-05
0.0028944
6.0207e-05
0.0027788
7.8913e-05
0.0026272
9.6441e-05
0.0024249
0.00011229
0.0022062
0.00012608
0.0019083
0.00013837
0.0016444
0.00014748
0.001281
0.00015506
0.00096365
0.00015982
0.00058542
0.00022474
0.00016245
2.0213e-05
0.0029658
3.0583e-08
4.0472e-05
0.0028741
6.0216e-05
0.0027591
7.8927e-05
0.0026085
9.6456e-05
0.0024074
0.00011231
0.0021903
0.00012611
0.0018945
0.0001384
0.0016321
0.00014753