/*--------------------------------*- C++ -*----------------------------------*\
  =========                 |
  \\      /  F ield         | OpenFOAM: The Open Source CFD Toolbox
   \\    /   O peration     | Website:  https://openfoam.org
    \\  /    A nd           | Version:  6.0
     \\/     M anipulation  |
\*---------------------------------------------------------------------------*/
FoamFile
{
    version     2.0;
    format      ascii;
    class       volVectorField;
    location    "2";
    object      U;
}
// * * * * * * * * * * * * * * * * * * * * * * * * * * * * * * * * * * * * * //

dimensions      [0 1 -1 0 0 0 0];

internalField   nonuniform List<vector> 
14500
(
(1 -3.4779e-07 -6.5059e-19)
(1 -3.4492e-06 4.3596e-19)
(1 -6.6626e-06 -1.855e-18)
(1 -7.6086e-06 -1.2599e-18)
(1 -8.7269e-06 2.3457e-18)
(1 -4.9412e-06 4.2575e-18)
(1 1.0523e-06 3.6409e-18)
(0.99998 1.4713e-05 -5.7289e-19)
(0.9999 4.5518e-05 2.1237e-18)
(0.99972 9.4886e-05 4.6076e-19)
(0.99584 0.00069381 4.1295e-18)
(1.0239 0.010386 1.1831e-18)
(1 -1.0257e-06 3.0001e-19)
(1 -1.0396e-05 -9.8766e-19)
(1 -2.0076e-05 6.6351e-19)
(1 -2.2841e-05 -3.7412e-20)
(1 -2.6553e-05 -4.7469e-20)
(1 -1.4473e-05 -3.9193e-18)
(1 2.3694e-06 -4.864e-18)
(0.99993 4.5179e-05 -2.5645e-18)
(0.99971 0.00014116 -1.6794e-18)
(0.99967 0.00023084 -1.8282e-19)
(0.98516 0.0021713 -1.5928e-18)
(1.07 0.02888 -5.919e-19)
(1 -1.6916e-06 -3.875e-19)
(1 -1.7408e-05 1.9623e-18)
(1 -3.3597e-05 3.4513e-19)
(1 -3.8126e-05 1.0943e-18)
(1 -4.4727e-05 -4.1048e-19)
(1 -2.3649e-05 3.1394e-18)
(1 3.2579e-06 -6.8478e-19)
(0.9999 7.6991e-05 5.8258e-19)
(0.9995 0.00024347 -2.0372e-18)
(1.0002 0.00036652 2.7781e-18)
(0.97272 0.003388 -8.2967e-19)
(1.1074 0.041614 2.0721e-19)
(1 -2.3449e-06 1.013e-18)
(1 -2.4487e-05 -1.9024e-18)
(1 -4.7205e-05 -1.636e-18)
(1 -5.3499e-05 -7.6766e-20)
(1 -6.3128e-05 6.337e-19)
(1 -3.267e-05 -8.7203e-20)
(1 3.9536e-06 6.7464e-18)
(0.99987 0.00010935 1.0494e-18)
(0.99925 0.00035197 2.409e-18)
(1.0014 0.00051267 -1.0067e-18)
(0.95933 0.0043048 4.0279e-18)
(1.1329 0.050259 -9.414e-19)
(1 -2.9802e-06 -7.1179e-19)
(1 -3.1623e-05 1.6442e-18)
(1 -6.0858e-05 1.3927e-18)
(1 -6.8958e-05 1.4005e-18)
(1.0001 -8.1637e-05 3.1074e-19)
(1 -4.1717e-05 2.3071e-18)
(1 4.4887e-06 -3.0127e-18)
(0.99985 0.00014138 2.1304e-19)
(0.99895 0.00046494 -1.4769e-18)
(1.0031 0.00067491 -2.4048e-19)
(0.94582 0.0049533 -1.0512e-18)
(1.1469 0.055967 2.6205e-19)
(1 -3.5951e-06 7.2035e-19)
(1 -3.881e-05 -6.8163e-19)
(1 -7.4542e-05 4.2533e-19)
(1 -8.4498e-05 -2.7742e-18)
(1.0001 -0.00010023 -9.0897e-21)
(1.0001 -5.083e-05 -4.5674e-18)
(1 4.8204e-06 1.1561e-19)
(0.99984 0.00017283 -1.7106e-18)
(0.99858 0.00058087 5.625e-19)
(1.0054 0.00086395 -2.4161e-18)
(0.93295 0.0053681 -2.5061e-18)
(1.1508 0.059451 2.5127e-19)
(1 -4.1892e-06 -1.1924e-19)
(1 -4.6051e-05 -8.1523e-19)
(1 -8.826e-05 -3.4567e-19)
(1 -0.00010012 2.0939e-18)
(1.0001 -0.00011893 -2.8781e-18)
(1.0001 -5.9996e-05 1.7475e-18)
(1 4.9172e-06 2.0151e-18)
(0.99984 0.00020371 6.0184e-19)
(0.99813 0.00069833 1.2571e-18)
(1.0081 0.0010909 1.3005e-18)
(0.92131 0.0055757 1.074e-18)
(1.1467 0.061265 3.9977e-19)
(0.99999 -4.763e-06 -2.4612e-19)
(1 -5.335e-05 -1.6037e-19)
(1 -0.00010202 -2.9779e-18)
(1.0001 -0.00011583 -9.9985e-19)
(1.0001 -0.00013775 8.0554e-19)
(1.0001 -6.921e-05 2.8635e-18)
(1 4.7677e-06 1.2826e-18)
(0.99986 0.00023404 5.3711e-19)
(0.99758 0.00081576 -8.2154e-19)
(1.0112 0.0013636 1.8188e-18)
(0.91135 0.0056008 8.6217e-19)
(1.1364 0.061827 -1.2647e-18)
(0.99999 -5.3163e-06 -7.6404e-19)
(1 -6.0708e-05 6.8947e-19)
(1 -0.00011582 5.007e-18)
(1.0001 -0.00013164 -1.1992e-18)
(1.0001 -0.00015669 3.0167e-18)
(1.0001 -7.8482e-05 -5.6536e-18)
(1 4.3654e-06 -4.2726e-18)
(0.99989 0.00026383 1.0434e-18)
(0.99694 0.00093139 -6.1676e-19)
(1.0145 0.0016864 -1.0037e-18)
(0.90338 0.0054693 -1.5983e-18)
(1.1218 0.061458 1.6493e-18)
(0.99999 -5.8489e-06 5.0337e-19)
(1 -6.813e-05 2.5952e-19)
(1 -0.00012967 -4.2412e-18)
(1.0001 -0.00014754 1.7067e-18)
(1.0001 -0.00017577 -1.3155e-18)
(1.0001 -8.7824e-05 2.411e-18)
(1 3.6995e-06 1.5183e-18)
(0.99995 0.00029314 2.6353e-19)
(0.99619 0.0010433 5.8502e-20)
(1.0181 0.0020613 1.5794e-19)
(0.89755 0.0052082 5.0556e-19)
(1.1046 0.060415 -8.8908e-20)
(0.99999 -6.3605e-06 -2.7637e-19)
(1 -7.5616e-05 -8.5113e-19)
(1 -0.00014356 1.0397e-18)
(1.0001 -0.00016355 -3.0112e-19)
(1.0001 -0.00019498 2.0308e-19)
(1.0001 -9.7249e-05 -2.6421e-18)
(1 2.7541e-06 -3.497e-18)
(1 0.00032208 -3.3495e-18)
(0.99534 0.0011496 1.7237e-18)
(1.0216 0.0024876 2.0489e-19)
(0.89389 0.0048447 -1.2825e-18)
(1.0861 0.058906 -7.0464e-19)
(0.99999 -6.8508e-06 3.8147e-19)
(1 -8.3169e-05 3.2149e-19)
(1 -0.0001575 5.0105e-19)
(1.0001 -0.00017967 -2.3997e-19)
(1.0001 -0.00021432 -6.0873e-19)
(1.0001 -0.00010677 9.9935e-19)
(1 1.5082e-06 2.0243e-18)
(1.0001 0.00035082 2.069e-18)
(0.9944 0.0012481 1.1069e-18)
(1.0252 0.0029635 -2.597e-18)
(0.89235 0.0044051 1.4432e-20)
(1.0673 0.057094 -8.0847e-19)
(0.99998 -7.3196e-06 -3.8141e-19)
(1 -9.0792e-05 6.322e-19)
(1 -0.00017149 9.0845e-19)
(1.0001 -0.00019591 6.2662e-19)
(1.0002 -0.00023381 -5.6461e-19)
(1.0001 -0.0001164 4.9124e-19)
(1.0001 -6.4786e-08 4.6158e-19)
(1.0003 0.00037959 -1.8476e-19)
(0.99336 0.0013366 -1.7893e-18)
(1.0286 0.003486 2.4062e-18)
(0.89277 0.003914 1.2801e-20)
(1.0492 0.055105 1.764e-19)
(0.99998 -7.7667e-06 5.8001e-19)
(1 -9.8486e-05 -4.9349e-19)
(1 -0.00018553 7.9534e-20)
(1.0001 -0.00021227 -5.2269e-19)
(1.0002 -0.00025344 1.2823e-18)
(1.0002 -0.00012614 5.9927e-19)
(1.0001 -1.9985e-06 1.8572e-18)
(1.0004 0.00040869 -6.8578e-19)
(0.99225 0.0014129 -2.1808e-20)
(1.0317 0.0040514 5.8885e-19)
(0.89497 0.0033943 1.936e-18)
(1.0325 0.053033 1.126e-19)
(0.99998 -8.1917e-06 1.3989e-19)
(1 -0.00010625 1.0952e-18)
(1 -0.00019962 1.5191e-18)
(1.0001 -0.00022876 -5.2111e-19)
(1.0002 -0.00027322 9.285e-19)
(1.0002 -0.00013602 -2.7976e-19)
(1.0001 -4.3352e-06 -3.2528e-18)
(1.0006 0.00043851 2.1703e-18)
(0.99107 0.0014745 -2.0155e-18)
(1.0346 0.0046558 -3.3998e-18)
(0.89872 0.0028662 -4.2622e-19)
(1.0174 0.050951 1.0357e-19)
(0.99998 -8.5946e-06 -3.5689e-19)
(1 -0.0001141 -1.1648e-18)
(1.0001 -0.00021376 -3.6462e-18)
(1.0001 -0.00024539 8.7801e-19)
(1.0002 -0.00029316 -1.409e-18)
(1.0002 -0.00014604 8.9676e-19)
(1.0001 -7.1275e-06 -3.0429e-19)
(1.0008 0.00046947 -1.3064e-18)
(0.98985 0.001519 4.4329e-19)
(1.0372 0.0052953 2.0292e-18)
(0.90375 0.0023477 -8.9046e-19)
(1.0043 0.04891 1.4018e-18)
(0.99997 -8.9752e-06 3.7552e-20)
(1 -0.00012202 8.7113e-19)
(1.0001 -0.00022796 2.5173e-18)
(1.0001 -0.00026215 -1.9772e-19)
(1.0002 -0.00031326 -1.3998e-18)
(1.0002 -0.00015621 -1.6711e-18)
(1.0001 -1.044e-05 1.1625e-18)
(1.0011 0.00050212 7.4873e-19)
(0.98859 0.0015438 2.5565e-18)
(1.0393 0.0059659 -2.8355e-19)
(0.90981 0.0018539 2.2052e-19)
(0.99331 0.04695 -5.5956e-19)
(0.99997 -9.3332e-06 -2.1068e-19)
(0.99999 -0.00013003 -1.0555e-18)
(1.0001 -0.00024221 -1.1359e-18)
(1.0001 -0.00027906 6.6074e-19)
(1.0002 -0.00033351 -7.8615e-19)
(1.0002 -0.00016655 -1.3401e-18)
(1.0001 -1.4349e-05 1.13e-18)
(1.0013 0.00053702 -5.0816e-19)
(0.98732 0.0015465 -3.1616e-18)
(1.041 0.0066638 -1.5869e-18)
(0.91664 0.0013977 9.5571e-19)
(0.98437 0.045095 -6.0261e-19)
(0.99997 -9.6685e-06 -3.0168e-19)
(0.99999 -0.00013812 -3.9894e-19)
(1.0001 -0.00025652 -8.4174e-20)
(1.0001 -0.00029613 -2.8933e-18)
(1.0002 -0.00035394 6.5964e-19)
(1.0002 -0.00017706 5.8374e-19)
(1 -1.8948e-05 -2.1472e-18)
(1.0017 0.00057485 -1.7335e-18)
(0.98607 0.0015245 4.6334e-19)
(1.0422 0.0073851 -1.1732e-19)
(0.924 0.00098933 -1.1043e-18)
(0.97739 0.043362 1.1439e-19)
(0.99996 -9.9809e-06 3.9239e-19)
(0.99999 -0.00014629 1.8289e-18)
(1.0001 -0.0002709 2.1677e-18)
(1.0001 -0.00031335 2.7256e-19)
(1.0002 -0.00037453 1.8234e-18)
(1.0003 -0.00018775 1.0226e-18)
(1 -2.4343e-05 3.0998e-19)
(1.002 0.00061631 1.8969e-18)
(0.98485 0.0014757 2.2958e-18)
(1.043 0.0081262 1.8934e-18)
(0.93165 0.00063723 8.2126e-19)
(0.97223 0.041761 1.3471e-19)
(0.99996 -1.027e-05 -1.8703e-19)
(0.99999 -0.00015456 -4.3881e-19)
(1.0001 -0.00028533 -2.3094e-18)
(1.0001 -0.00033074 -2.5788e-19)
(1.0003 -0.0003953 -1.382e-18)
(1.0003 -0.00019864 -5.5308e-19)
(1 -3.0656e-05 -1.9882e-19)
(1.0023 0.00066216 -1.7145e-18)
(0.98368 0.0013978 -2.1933e-18)
(1.0433 0.0088828 9.6869e-19)
(0.93939 0.00034764 5.4668e-20)
(0.96867 0.040296 7.6883e-20)
(0.99995 -1.0537e-05 4.9576e-19)
(0.99998 -0.00016292 -5.7329e-19)
(1.0001 -0.00029982 -2.166e-18)
(1.0001 -0.00034831 4.9043e-18)
(1.0003 -0.00041625 2.0047e-18)
(1.0003 -0.00020972 -1.3532e-18)
(0.99998 -3.8026e-05 2.6738e-18)
(1.0027 0.00071315 2.3164e-18)
(0.98258 0.0012893 3.5574e-18)
(1.0431 0.0096508 -3.5479e-18)
(0.94704 0.00012493 -1.5055e-18)
(0.96651 0.038966 2.0077e-20)
(0.99995 -1.078e-05 -3.6288e-19)
(0.99998 -0.00017137 -1.1504e-19)
(1.0001 -0.00031438 3.6979e-18)
(1.0002 -0.00036605 -3.7072e-18)
(1.0003 -0.00043738 -1.9299e-19)
(1.0003 -0.00022101 4.4839e-18)
(0.99995 -4.6606e-05 8.2847e-19)
(1.0031 0.00077008 -3.5811e-19)
(0.98158 0.0011488 -2.2054e-18)
(1.0425 0.010425 4.179e-18)
(0.95445 -2.8301e-05 -6.3498e-19)
(0.9655 0.037768 -3.2166e-20)
(0.99994 -1.0999e-05 -1.8499e-19)
(0.99998 -0.00017992 -2.2923e-19)
(1.0001 -0.00032901 1.9256e-19)
(1.0002 -0.00038399 3.8566e-18)
(1.0003 -0.00045869 -1.088e-18)
(1.0004 -0.00023249 -3.3138e-18)
(0.99991 -5.6564e-05 -2.1125e-18)
(1.0036 0.00083371 -3.8532e-19)
(0.98068 0.00097564 6.968e-19)
(1.0415 0.011202 -3.5221e-18)
(0.9615 -0.00011116 1.065e-18)
(0.96543 0.036695 3.4532e-19)
(0.99994 -1.1195e-05 3.0571e-19)
(0.99997 -0.00018856 1.5955e-18)
(1.0001 -0.0003437 -1.4202e-18)
(1.0002 -0.00040212 -4.0387e-19)
(1.0003 -0.0004802 -2.088e-18)
(1.0004 -0.00024419 3.6046e-18)
(0.99987 -6.808e-05 -1.8542e-18)
(1.004 0.00090475 1.5948e-18)
(0.97991 0.00076968 -2.1478e-19)
(1.0402 0.011974 3.3e-18)
(0.96808 -0.00012437 -1.0351e-18)
(0.96609 0.035741 -5.7569e-19)
(0.99993 -1.1368e-05 -5.8634e-20)
(0.99997 -0.00019732 -9.176e-19)
(1.0001 -0.00035846 -1.9886e-18)
(1.0002 -0.00042045 -1.1065e-18)
(1.0003 -0.0005019 2.0252e-18)
(1.0004 -0.00025609 -4.596e-18)
(0.99983 -8.1344e-05 -2.8595e-19)
(1.0044 0.00098385 -2.155e-18)
(0.97928 0.00053151 3.4632e-19)
(1.0385 0.012737 -9.5165e-19)
(0.97413 -7.0228e-05 1.1018e-18)
(0.96728 0.034896 2.4359e-19)
(0.99993 -1.1517e-05 3.0716e-19)
(0.99997 -0.00020617 -9.829e-19)
(1.0001 -0.0003733 -1.9646e-19)
(1.0002 -0.00043899 2.6879e-19)
(1.0003 -0.00052379 6.4096e-19)
(1.0004 -0.0002682 1.328e-18)
(0.99978 -9.6552e-05 4.6903e-18)
(1.0048 0.0010716 2.573e-19)
(0.97879 0.00026245 5.6388e-19)
(1.0366 0.013485 1.0468e-18)
(0.9796 4.7586e-05 -9.3843e-19)
(0.96886 0.034151 1.8591e-19)
(0.99992 -1.1643e-05 -1.7613e-19)
(0.99996 -0.00021513 9.8199e-19)
(1.0001 -0.00038821 2.8267e-18)
(1.0002 -0.00045775 -2.7086e-18)
(1.0004 -0.00054589 -9.9699e-19)
(1.0005 -0.0002805 -2.3347e-19)
(0.99972 -0.0001139 -1.546e-18)
(1.0053 0.0011683 1.9943e-19)
(0.97845 -3.5459e-05 -9.7753e-19)
(1.0344 0.01421 -3.8557e-19)
(0.98447 0.0002241 -2.4459e-20)
(0.97067 0.033495 -2.2732e-19)
(0.99991 -1.1745e-05 -1.8931e-19)
(0.99996 -0.00022421 5.8778e-19)
(1.0001 -0.00040319 -6.8366e-20)
(1.0002 -0.00047674 8.9816e-19)
(1.0004 -0.0005682 -1.8395e-18)
(1.0005 -0.000293 2.6429e-18)
(0.99966 -0.00013359 7.7086e-19)
(1.0057 0.0012744 -1.903e-18)
(0.97825 -0.00035945 -1.2521e-18)
(1.0322 0.014908 -1.5222e-18)
(0.98874 0.00045325 1.5022e-19)
(0.97261 0.032918 -4.1401e-19)
(0.99991 -1.1824e-05 6.5786e-20)
(0.99995 -0.0002334 -1.4037e-18)
(1.0001 -0.00041825 1.7504e-18)
(1.0002 -0.00049596 2.4839e-18)
(1.0004 -0.00059072 3.6056e-18)
(1.0005 -0.00030568 -1.9408e-18)
(0.9996 -0.0001558 -1.9168e-18)
(1.0061 0.0013898 3.8661e-19)
(0.9782 -0.0007061 1.1731e-18)
(1.0297 0.015572 1.1905e-18)
(0.99242 0.00072812 6.8955e-19)
(0.97459 0.03241 4.1147e-19)
(0.9999 -1.1879e-05 1.2607e-19)
(0.99995 -0.0002427 1.1162e-18)
(1.0001 -0.00043338 -4.0215e-18)
(1.0002 -0.00051543 -3.5995e-19)
(1.0004 -0.00061345 -2.995e-18)
(1.0006 -0.00031854 -1.2221e-18)
(0.99953 -0.00018072 2.7063e-21)
(1.0065 0.0015147 -4.4083e-19)
(0.9783 -0.0010714 -2.3091e-18)
(1.0273 0.016196 -1.8993e-18)
(0.99554 0.0010411 -9.3681e-19)
(0.97654 0.031961 -2.0161e-19)
(0.99989 -1.191e-05 -8.1713e-20)
(0.99994 -0.00025213 -7.2594e-19)
(1.0001 -0.0004486 3.1642e-18)
(1.0002 -0.00053514 -3.4338e-18)
(1.0004 -0.0006364 -2.2521e-19)
(1.0006 -0.00033157 2.6024e-18)
(0.99946 -0.00020849 7.6685e-20)
(1.0069 0.0016486 4.2131e-19)
(0.97852 -0.0014509 2.0215e-18)
(1.0248 0.016777 2.4673e-18)
(0.99815 0.0013844 5.3734e-19)
(0.97841 0.031561 -1.1166e-19)
(0.99988 -1.1918e-05 -2.1273e-19)
(0.99993 -0.00026167 -2.6771e-19)
(1.0001 -0.0004639 -1.4027e-18)
(1.0002 -0.00055512 1.7106e-18)
(1.0004 -0.00065958 3.2916e-18)
(1.0006 -0.00034476 -1.15e-18)
(0.99939 -0.00023923 2.3863e-18)
(1.0072 0.0017911 3.1563e-19)
(0.97887 -0.0018397 -2.286e-19)
(1.0224 0.01731 1.1139e-18)
(1.0003 0.0017499 -5.95e-19)
(0.98017 0.031202 -7.7091e-20)
(0.99988 -1.1903e-05 5.3202e-20)
(0.99993 -0.00027134 -7.0797e-19)
(1.0001 -0.00047929 5.251e-19)
(1.0002 -0.00057536 -1.7432e-18)
(1.0004 -0.00068298 -3.4814e-18)
(1.0007 -0.0003581 7.2451e-19)
(0.99932 -0.00027306 -3.4424e-18)
(1.0075 0.0019415 -7.1982e-19)
(0.97933 -0.0022328 7.4191e-19)
(1.0201 0.017791 -3.4985e-18)
(1.002 0.0021298 4.0997e-19)
(0.98182 0.030875 2.2071e-19)
(0.99987 -1.1865e-05 9.3429e-20)
(0.99992 -0.00028114 1.9181e-18)
(1.0001 -0.00049476 8.7921e-19)
(1.0002 -0.00059588 7.1014e-19)
(1.0004 -0.00070662 2.7838e-18)
(1.0007 -0.00037159 2.1589e-19)
(0.99925 -0.00031001 2.3767e-18)
(1.0078 0.0020989 5.17e-19)
(0.97988 -0.0026252 -2.2531e-18)
(1.0179 0.018219 1.2038e-18)
(1.0034 0.0025167 2.7649e-19)
(0.98333 0.030573 2.2754e-19)
(0.99986 -1.1804e-05 -3.2623e-19)
(0.99992 -0.00029107 -6.3138e-19)
(1.0001 -0.00051032 -7.7247e-19)
(1.0002 -0.00061669 1.1661e-18)
(1.0005 -0.00073049 1.3447e-18)
(1.0007 -0.00038523 -4.3018e-19)
(0.99918 -0.0003501 -1.9962e-18)
(1.0081 0.0022623 2.3502e-18)
(0.98051 -0.0030118 4.1804e-19)
(1.0158 0.018592 -3.6313e-19)
(1.0044 0.0029036 1.1349e-18)
(0.98472 0.030291 -1.5753e-19)
(0.99985 -1.1721e-05 6.7036e-19)
(0.99991 -0.00030114 7.5611e-19)
(1.0001 -0.00052596 -8.2112e-19)
(1.0002 -0.0006378 -7.2631e-19)
(1.0005 -0.0007546 -1.9297e-18)
(1.0008 -0.00039902 -7.3855e-19)
(0.99911 -0.0003933 9.8413e-19)
(1.0083 0.0024304 -3.7678e-18)
(0.9812 -0.0033879 1.0211e-18)
(1.0138 0.018911 -4.2856e-19)
(1.0052 0.0032847 -1.1994e-18)
(0.98598 0.030021 4.5611e-19)
(0.99984 -1.1614e-05 -2.9586e-19)
(0.9999 -0.00031134 -1.3285e-18)
(1 -0.00054171 -7.958e-19)
(1.0002 -0.00065921 -1.3782e-18)
(1.0005 -0.00077895 -5.8912e-19)
(1.0008 -0.00041298 2.1711e-18)
(0.99904 -0.00043952 -9.6657e-19)
(1.0085 0.0026019 4.1899e-18)
(0.98194 -0.0037491 9.6187e-19)
(1.012 0.019176 1.3007e-18)
(1.0058 0.0036545 5.0486e-19)
(0.98714 0.029761 -7.3822e-19)
(0.99983 -1.1486e-05 -1.5693e-19)
(0.99989 -0.00032168 9.8797e-19)
(1 -0.00055754 1.5768e-18)
(1.0002 -0.00068094 3.7158e-18)
(1.0005 -0.00080355 7.8093e-19)
(1.0009 -0.0004271 -1.4892e-18)
(0.99897 -0.00048861 4.6646e-19)
(1.0087 0.0027752 -4.5053e-18)
(0.98271 -0.0040915 -1.1658e-18)
(1.0104 0.019388 -7.2273e-19)
(1.0062 0.0040088 4.9295e-19)
(0.9882 0.029505 7.4045e-19)
(0.99982 -1.1336e-05 1.201e-19)
(0.99989 -0.00033217 2.3388e-19)
(1 -0.00057347 -1.5485e-18)
(1.0002 -0.000703 -6.1897e-19)
(1.0005 -0.00082839 9.9149e-19)
(1.0009 -0.00044143 1.7817e-18)
(0.99891 -0.00054039 1.6215e-18)
(1.0088 0.0029489 4.4686e-19)
(0.98349 -0.0044117 1.3038e-18)
(1.009 0.01955 -3.3419e-19)
(1.0065 0.0043444 -8.7895e-19)
(0.98917 0.029251 -1.9112e-19)
(0.99981 -1.1164e-05 -4.9177e-21)
(0.99988 -0.0003428 2.6655e-19)
(1 -0.0005895 3.4608e-19)
(1.0002 -0.00072539 -8.0345e-19)
(1.0005 -0.00085348 9.1828e-21)
(1.001 -0.00045598 -1.6156e-18)
(0.99885 -0.00059461 -1.0968e-18)
(1.009 0.0031213 3.2967e-18)
(0.98429 -0.0047071 -1.9688e-18)
(1.0078 0.019664 1.2975e-18)
(1.0068 0.0046586 4.6346e-19)
(0.99007 0.028996 -5.3627e-19)
(0.9998 -1.097e-05 -3.7202e-19)
(0.99987 -0.00035358 -1.2501e-18)
(1 -0.00060563 8.8356e-19)
(1.0002 -0.00074814 -2.1941e-18)
(1.0005 -0.00087882 -2.5072e-18)
(1.001 -0.00047081 -2.231e-18)
(0.99879 -0.00065099 -2.2346e-18)
(1.0091 0.0032909 -3.3781e-19)
(0.98507 -0.0049757 1.7203e-18)
(1.0067 0.019735 -1.1123e-18)
(1.0069 0.00495 4.5732e-20)
(0.99091 0.02874 5.0435e-19)
(0.99979 -1.0756e-05 7.1804e-19)
(0.99986 -0.00036452 1.3065e-18)
(1 -0.00062186 -1.4249e-18)
(1.0002 -0.00077124 1.8014e-18)
(1.0005 -0.00090441 -2.9393e-19)
(1.0011 -0.00048596 1.4623e-18)
(0.99874 -0.00070919 2.6859e-18)
(1.0092 0.0034561 -2.5547e-18)
(0.98584 -0.0052161 -8.7142e-19)
(1.0057 0.019765 1.1729e-18)
(1.007 0.0052176 3.976e-19)
(0.99171 0.028479 -2.3791e-19)
(0.99978 -1.0522e-05 -5.3879e-19)
(0.99985 -0.00037561 -3.8611e-19)
(1 -0.0006382 -2.9793e-19)
(1.0002 -0.00079471 2.061e-18)
(1.0006 -0.00093023 -6.2928e-19)
(1.0011 -0.0005015 -1.8479e-20)
(0.99868 -0.00076886 -5.2553e-19)
(1.0092 0.0036157 2.046e-18)
(0.98659 -0.0054276 -8.2632e-19)
(1.0049 0.019758 -8.0528e-19)
(1.0071 0.0054613 -1.1745e-18)
(0.99246 0.028215 2.7569e-19)
(0.99977 -1.0268e-05 3.6625e-19)
(0.99984 -0.00038686 -4.8958e-19)
(1 -0.00065464 6.8204e-19)
(1.0002 -0.00081857 -3.127e-18)
(1.0006 -0.0009563 4.2637e-18)
(1.0012 -0.00051749 6.0555e-19)
(0.99863 -0.00082962 2.0726e-18)
(1.0093 0.0037682 -1.2651e-18)
(0.9873 -0.0056103 1.1925e-20)
(1.0043 0.019718 5.9749e-19)
(1.0072 0.0056814 -2.2618e-19)
(0.99317 0.027947 -1.0384e-19)
(0.99976 -9.9946e-06 -1.0477e-19)
(0.99983 -0.00039827 9.57e-20)
(1 -0.0006712 1.6618e-18)
(1.0002 -0.00084282 8.5249e-19)
(1.0006 -0.0009826 -2.1315e-18)
(1.0012 -0.00053402 -1.1858e-18)
(0.99859 -0.00089108 3.6139e-19)
(1.0094 0.0039126 -6.1429e-19)
(0.98798 -0.0057647 1.3824e-18)
(1.0037 0.019649 -3.9259e-19)
(1.0073 0.0058786 1.0956e-18)
(0.99386 0.027674 -3.7657e-19)
(0.99974 -9.7027e-06 -1.8238e-19)
(0.99982 -0.00040985 -9.2251e-19)
(1 -0.00068786 -4.941e-19)
(1.0002 -0.00086748 3.423e-18)
(1.0006 -0.0010091 -1.8988e-18)
(1.0013 -0.00055118 -1.0027e-19)
(0.99854 -0.00095286 -5.4105e-18)
(1.0094 0.004048 6.0474e-19)
(0.98863 -0.0058919 -2.5813e-18)
(1.0033 0.019554 -8.4566e-19)
(1.0074 0.0060541 -1.0914e-18)
(0.99453 0.027397 2.2368e-19)
(0.99973 -9.3928e-06 -7.8737e-20)
(0.99981 -0.00042159 5.7154e-19)
(1 -0.00070464 -2.0396e-19)
(1.0002 -0.00089257 -1.9931e-18)
(1.0006 -0.0010359 2.7287e-18)
(1.0014 -0.00056907 -2.4662e-19)
(0.9985 -0.0010146 2.8657e-18)
(1.0095 0.0041738 -3.7069e-19)
(0.98924 -0.0059935 1.2544e-18)
(1.0029 0.019437 1.0568e-18)
(1.0075 0.006209 8.9998e-19)
(0.99518 0.027115 -5.3599e-20)
(0.99972 -9.0658e-06 4.4633e-19)
(0.9998 -0.00043351 -3.4197e-19)
(1 -0.00072154 -7.1355e-19)
(1.0003 -0.00091809 2.175e-18)
(1.0006 -0.0010628 2.0018e-19)
(1.0014 -0.00058778 3.0594e-18)
(0.99846 -0.0010759 4.9413e-19)
(1.0095 0.0042895 1.7732e-18)
(0.98981 -0.0060713 4.7056e-19)
(1.0027 0.019299 -3.419e-19)
(1.0077 0.0063448 1.1659e-19)
(0.99581 0.026831 4.8882e-20)
(0.9997 -8.7223e-06 1.2727e-19)
(0.99979 -0.00044561 1.3981e-19)
(1 -0.00073856 -6.4702e-19)
(1.0003 -0.00094405 -4.3315e-18)
(1.0006 -0.00109 6.0629e-19)
(1.0015 -0.00060743 2.6494e-19)
(0.99842 -0.0011365 -2.1423e-18)
(1.0096 0.0043949 2.4807e-20)
(0.99035 -0.0061275 1.3831e-18)
(1.0025 0.019145 -2.1939e-19)
(1.0078 0.0064629 -5.6644e-19)
(0.99643 0.026543 2.8576e-19)
(0.99969 -8.3634e-06 -5.45e-19)
(0.99978 -0.00045788 5.9263e-19)
(0.99999 -0.0007557 1.0665e-19)
(1.0003 -0.00097049 2.4051e-18)
(1.0006 -0.0011173 -2.7658e-18)
(1.0015 -0.00062811 -1.1718e-18)
(0.99838 -0.0011961 2.1909e-18)
(1.0096 0.00449 -1.1998e-18)
(0.99086 -0.0061644 -2.1838e-18)
(1.0023 0.018976 -1.0819e-18)
(1.008 0.0065649 7.2054e-19)
(0.99703 0.026252 9.4457e-20)
(0.99968 -7.9898e-06 -5.7676e-20)
(0.99977 -0.00047034 -5.9636e-19)
(0.99999 -0.00077296 1.136e-18)
(1.0003 -0.0009974 1.0663e-18)
(1.0006 -0.0011448 3.4159e-18)
(1.0016 -0.00064995 4.4978e-19)
(0.99834 -0.0012546 1.9451e-18)
(1.0097 0.0045752 3.0405e-18)
(0.99133 -0.0061844 -9.4941e-20)
(1.0023 0.018794 1.9024e-18)
(1.0082 0.006652 -7.6545e-20)
(0.99762 0.025959 -2.7726e-19)
(0.99966 -7.6026e-06 5.59e-19)
(0.99975 -0.00048298 -8.6828e-19)
(0.99998 -0.00079035 -1.7242e-18)
(1.0003 -0.0010248 -2.8352e-19)
(1.0006 -0.0011724 -3.7072e-18)
(1.0017 -0.00067302 -1.3388e-18)
(0.9983 -0.0013118 -6.7563e-19)
(1.0097 0.0046507 2.1813e-20)
(0.99178 -0.0061899 2.8385e-18)
(1.0022 0.018601 4.3671e-19)
(1.0084 0.0067256 -9.8348e-19)
(0.9982 0.025664 1.6535e-19)
(0.99965 -7.2029e-06 -6.2671e-19)
(0.99974 -0.00049581 1.0846e-18)
(0.99997 -0.00080787 9.0257e-19)
(1.0003 -0.0010527 -5.6482e-19)
(1.0006 -0.0012002 2.9811e-18)
(1.0017 -0.00069744 1.601e-18)
(0.99825 -0.0013677 -5.3393e-19)
(1.0098 0.0047173 -3.062e-18)
(0.99221 -0.0061831 -9.7198e-20)
(1.0022 0.018399 -1.2504e-18)
(1.0086 0.006787 1.163e-18)
(0.99876 0.025368 -2.1663e-19)
(0.99963 -6.7918e-06 3.7659e-19)
(0.99973 -0.00050884 -2.0756e-19)
(0.99996 -0.00082553 1.1951e-18)
(1.0003 -0.0010812 -2.3759e-18)
(1.0006 -0.0012281 9.7324e-19)
(1.0018 -0.00072329 -5.7537e-19)
(0.99821 -0.0014222 -1.1495e-18)
(1.0098 0.0047756 -2.4524e-19)
(0.99262 -0.0061665 -3.4185e-18)
(1.0022 0.018189 8.2316e-19)
(1.0088 0.0068372 -1.0618e-18)
(0.99932 0.025071 7.1975e-20)
(0.99962 -6.3705e-06 2.9779e-20)
(0.99971 -0.00052206 -6.5296e-19)
(0.99995 -0.00084332 6.7867e-19)
(1.0003 -0.0011102 3.127e-18)
(1.0006 -0.0012561 -2.3183e-18)
(1.0019 -0.00075062 1.8492e-18)
(0.99817 -0.0014755 -6.6439e-19)
(1.0099 0.0048264 5.6901e-19)
(0.99301 -0.0061419 4.0592e-18)
(1.0023 0.017972 -1.5271e-18)
(1.009 0.0068773 1.6197e-18)
(0.99986 0.024773 2.0286e-19)
(0.9996 -5.9404e-06 5.345e-20)
(0.9997 -0.00053548 -1.3516e-19)
(0.99995 -0.00086125 -9.7635e-19)
(1.0003 -0.0011397 -4.7081e-19)
(1.0006 -0.0012842 2.0202e-18)
(1.0019 -0.00077952 1.415e-20)
(0.99813 -0.0015277 -1.3053e-18)
(1.0099 0.0048706 -1.3564e-18)
(0.99338 -0.0061114 -1.6981e-18)
(1.0024 0.01775 -1.4305e-19)
(1.0092 0.0069082 2.9367e-19)
(1.0004 0.024474 2.0581e-20)
(0.99958 -5.5028e-06 -8.6003e-20)
(0.99969 -0.0005491 1.6082e-18)
(0.99994 -0.00087932 -6.5121e-19)
(1.0003 -0.0011698 -2.6601e-18)
(1.0006 -0.0013124 9.3112e-19)
(1.002 -0.00081001 -4.7109e-18)
(0.99808 -0.001579 6.5151e-19)
(1.01 0.0049089 8.547e-19)
(0.99375 -0.0060765 7.8905e-20)
(1.0025 0.017522 1.5475e-18)
(1.0094 0.0069308 -1.0116e-19)
(1.0009 0.024176 -5.6512e-19)
(0.99957 -5.0592e-06 -2.2704e-20)
(0.99967 -0.00056294 -3.1551e-20)
(0.99993 -0.00089754 8.7666e-19)
(1.0003 -0.0012006 1.6423e-18)
(1.0006 -0.0013406 -3.7003e-18)
(1.0021 -0.00084214 2.0376e-19)
(0.99804 -0.0016295 1.166e-18)
(1.01 0.0049422 1.3372e-18)
(0.99411 -0.0060387 -1.071e-18)
(1.0026 0.017289 -1.5047e-18)
(1.0096 0.0069456 -1.5973e-18)
(1.0014 0.023878 5.9527e-19)
(0.99955 -4.6111e-06 -1.4859e-19)
(0.99966 -0.00057698 4.4956e-20)
(0.99992 -0.00091591 -4.2269e-19)
(1.0003 -0.0012319 -1.0965e-18)
(1.0006 -0.0013688 2.051e-18)
(1.0022 -0.0008759 2.5277e-18)
(0.998 -0.0016797 3.3987e-19)
(1.0101 0.0049711 6.7695e-19)
(0.99446 -0.0059994 1.7078e-18)
(1.0027 0.017053 2.5382e-19)
(1.0099 0.0069533 1.1777e-18)
(1.0019 0.02358 -3.6077e-19)
(0.99953 -4.1604e-06 2.7351e-19)
(0.99964 -0.00059123 8.2879e-20)
(0.99991 -0.00093443 -6.0408e-19)
(1.0003 -0.0012639 1.6199e-19)
(1.0006 -0.0013971 -1.112e-18)
(1.0023 -0.00091131 -6.0633e-19)
(0.99796 -0.0017297 -1.2572e-19)
(1.0101 0.0049963 -3.0564e-18)
(0.9948 -0.0059595 3.3421e-19)
(1.0028 0.016814 -5.1128e-19)
(1.0101 0.0069545 -4.7903e-19)
(1.0024 0.023282 -4.3274e-19)
(0.99951 -3.7086e-06 -5.582e-19)
(0.99962 -0.00060571 1.0828e-19)
(0.9999 -0.00095312 3.2043e-19)
(1.0003 -0.0012965 -2.0352e-18)
(1.0006 -0.0014255 -1.2675e-18)
(1.0023 -0.00094834 -2.8135e-18)
(0.99792 -0.0017798 6.0582e-19)
(1.0102 0.0050181 1.2483e-18)
(0.99514 -0.00592 -3.5869e-18)
(1.003 0.016572 2.3594e-18)
(1.0103 0.0069497 -5.158e-19)
(1.0029 0.022985 2.7965e-19)
(0.99949 -3.2577e-06 5.1242e-19)
(0.99961 -0.0006204 2.4232e-19)
(0.99988 -0.00097196 1.2321e-19)
(1.0003 -0.0013298 6.4553e-19)
(1.0006 -0.0014538 -2.7988e-19)
(1.0024 -0.00098697 5.4524e-18)
(0.99788 -0.0018302 2.1745e-18)
(1.0102 0.005037 -1.9388e-18)
(0.99548 -0.0058816 3.4507e-18)
(1.0031 0.016328 -8.8023e-19)
(1.0106 0.0069392 -3.3852e-19)
(1.0034 0.022689 -1.3807e-19)
(0.99947 -2.8096e-06 1.257e-19)
(0.99959 -0.00063532 -1.5344e-18)
(0.99987 -0.00099097 2.4663e-19)
(1.0003 -0.0013638 2.8986e-18)
(1.0006 -0.0014822 2.1664e-18)
(1.0025 -0.0010272 -8.8562e-20)
(0.99784 -0.0018813 -3.0129e-18)
(1.0102 0.0050531 5.8821e-19)
(0.99582 -0.0058448 -7.7759e-19)
(1.0032 0.016083 -1.2152e-18)
(1.0108 0.0069234 8.6235e-19)
(1.0038 0.022393 1.2971e-19)
(0.99945 -2.3664e-06 -4.9718e-19)
(0.99957 -0.00065046 -5.1157e-19)
(0.99986 -0.0010101 -1.336e-18)
(1.0003 -0.0013985 -2.4309e-18)
(1.0006 -0.0015107 -2.1797e-18)
(1.0026 -0.0010688 -2.4773e-18)
(0.99781 -0.0019332 5.56e-19)
(1.0103 0.0050664 4.5618e-18)
(0.99615 -0.0058101 3.3831e-19)
(1.0034 0.015835 -1.0494e-19)
(1.011 0.0069026 -3.0381e-19)
(1.0043 0.022098 -3.4489e-19)
(0.99943 -1.9303e-06 3.6895e-19)
(0.99956 -0.00066584 4.7517e-19)
(0.99985 -0.0010295 2.0589e-18)
(1.0003 -0.0014339 1.6836e-18)
(1.0006 -0.0015392 2.1205e-18)
(1.0027 -0.001112 -9.2128e-20)
(0.99778 -0.001986 -3.0973e-18)
(1.0103 0.0050768 -2.4651e-18)
(0.99649 -0.005778 8.3838e-19)
(1.0035 0.015587 4.206e-19)
(1.0112 0.0068771 6.8279e-19)
(1.0047 0.021804 2.6767e-19)
(0.99941 -1.5036e-06 -2.6057e-19)
(0.99954 -0.00068145 7.455e-19)
(0.99983 -0.001049 -1.3622e-18)
(1.0003 -0.00147 2.4366e-19)
(1.0006 -0.0015678 9.8571e-19)
(1.0028 -0.0011564 -2.4212e-19)
(0.99775 -0.0020399 6.9594e-19)
(1.0103 0.0050842 6.8399e-19)
(0.99682 -0.0057485 2.7466e-19)
(1.0037 0.015338 1.0363e-18)
(1.0114 0.006847 -8.2052e-19)
(1.0051 0.021511 5.4384e-20)
(0.99939 -1.0887e-06 3.9344e-19)
(0.99952 -0.00069729 4.6207e-20)
(0.99982 -0.0010688 -6.3768e-19)
(1.0003 -0.0015069 9.6959e-20)
(1.0006 -0.0015965 -1.621e-19)
(1.0029 -0.0012022 -2.3904e-18)
(0.99773 -0.0020951 1.9409e-18)
(1.0103 0.0050881 2.426e-18)
(0.99715 -0.005722 -1.3729e-18)
(1.0039 0.015088 -1.4399e-18)
(1.0116 0.0068126 -2.3856e-19)
(1.0056 0.021218 4.5636e-19)
(0.99937 -6.8801e-07 -2.8581e-19)
(0.9995 -0.00071338 -3.5585e-20)
(0.9998 -0.0010887 7.9285e-19)
(1.0003 -0.0015445 -1.8629e-18)
(1.0005 -0.0016253 -1.4643e-18)
(1.003 -0.0012491 3.0177e-18)
(0.99771 -0.0021516 -2.9668e-19)
(1.0103 0.0050882 -2.5691e-18)
(0.99748 -0.0056985 3.4903e-19)
(1.004 0.014838 1.3546e-18)
(1.0118 0.006774 8.0947e-19)
(1.006 0.020927 -1.6447e-19)
(0.99934 -3.0429e-07 2.8405e-20)
(0.99948 -0.00072971 2.6069e-19)
(0.99979 -0.0011088 4.3321e-19)
(1.0003 -0.0015829 9.63e-19)
(1.0005 -0.0016543 2.8696e-18)
(1.0031 -0.001297 7.0319e-19)
(0.99769 -0.0022094 -2.582e-18)
(1.0103 0.005084 2.4031e-19)
(0.99781 -0.005678 8.9793e-19)
(1.0042 0.014588 -1.2185e-18)
(1.012 0.0067314 -5.4629e-19)
(1.0064 0.020636 -1.8932e-19)
(0.99932 5.9724e-08 8.0659e-20)
(0.99946 -0.00074629 -4.5333e-20)
(0.99977 -0.0011291 -1.1431e-18)
(1.0003 -0.0016221 -2.0706e-20)
(1.0005 -0.0016836 -5.6735e-18)
(1.0032 -0.0013459 8.668e-19)
(0.99768 -0.0022687 2.5364e-18)
(1.0103 0.0050751 -6.91e-19)
(0.99814 -0.0056607 -9.4107e-19)
(1.0043 0.014338 2.021e-18)
(1.0122 0.0066849 6.5196e-19)
(1.0068 0.020346 4.895e-19)
(0.9993 4.0115e-07 8.6653e-20)
(0.99944 -0.00076312 -9.4095e-20)
(0.99976 -0.0011497 2.0674e-18)
(1.0003 -0.001662 4.4414e-19)
(1.0005 -0.0017132 5.0273e-18)
(1.0033 -0.0013954 -3.0558e-18)
(0.99767 -0.0023295 -8.4872e-19)
(1.0103 0.0050609 6.498e-19)
(0.99847 -0.0056465 3.2314e-19)
(1.0045 0.014088 -1.1367e-18)
(1.0124 0.0066346 -1.0615e-19)
(1.0072 0.020057 -3.6069e-19)
(0.99927 7.1699e-07 -3.3863e-19)
(0.99942 -0.0007802 1.5802e-19)
(0.99974 -0.0011705 -1.2152e-18)
(1.0003 -0.0017028 5.8401e-19)
(1.0005 -0.0017433 -1.9102e-18)
(1.0034 -0.0014456 4.1439e-19)
(0.99767 -0.0023919 3.3977e-18)
(1.0103 0.005041 -2.4312e-18)
(0.99879 -0.0056353 -1.1886e-18)
(1.0047 0.013838 -1.1217e-18)
(1.0126 0.0065805 -5.168e-19)
(1.0075 0.019769 -9.8552e-20)
(0.99925 1.0041e-06 4.2184e-19)
(0.9994 -0.00079754 -3.7528e-19)
(0.99972 -0.0011915 -1.1793e-18)
(1.0003 -0.0017443 -9.313e-19)
(1.0004 -0.0017738 -3.1226e-18)
(1.0035 -0.0014961 -1.9211e-18)
(0.99767 -0.0024559 -2.0832e-18)
(1.0103 0.0050151 2.2601e-18)
(0.99911 -0.005627 1.1509e-18)
(1.0048 0.013589 1.6976e-18)
(1.0128 0.0065229 -2.0133e-19)
(1.0079 0.019482 4.7489e-19)
(0.99922 1.2592e-06 -6.7803e-19)
(0.99937 -0.00081513 6.0813e-19)
(0.9997 -0.0012127 2.8877e-18)
(1.0003 -0.0017866 -2.1964e-19)
(1.0004 -0.0018049 3.4547e-18)
(1.0036 -0.0015468 1.452e-19)
(0.99768 -0.0025218 -1.9938e-18)
(1.0103 0.0049826 8.8358e-19)
(0.99944 -0.0056215 -4.1513e-19)
(1.005 0.01334 -3.556e-19)
(1.013 0.0064616 6.537e-19)
(1.0083 0.019196 -3.2109e-19)
(0.99919 1.4789e-06 5.5567e-19)
(0.99935 -0.00083299 -8.265e-19)
(0.99968 -0.0012343 -3.3669e-18)
(1.0003 -0.0018297 1.4369e-18)
(1.0004 -0.0018368 -2.4611e-18)
(1.0037 -0.0015973 2.6551e-18)
(0.99769 -0.0025896 6.5026e-19)
(1.0103 0.0049435 -8.4157e-19)
(0.99975 -0.0056187 -1.9897e-19)
(1.0052 0.013091 -8.8777e-19)
(1.0132 0.0063969 -1.0631e-18)
(1.0086 0.01891 4.4138e-19)
(0.99917 1.6598e-06 -4.0934e-19)
(0.99933 -0.0008511 2.7484e-19)
(0.99966 -0.0012561 2.0459e-18)
(1.0003 -0.0018736 -1.8942e-18)
(1.0004 -0.0018696 3.9596e-18)
(1.0038 -0.0016475 -2.0602e-18)
(0.99771 -0.0026597 3.7897e-19)
(1.0103 0.0048973 -1.3287e-18)
(1.0001 -0.0056185 6.4797e-19)
(1.0053 0.012844 -1.2327e-19)
(1.0134 0.0063287 4.5543e-19)
(1.009 0.018625 -1.9705e-19)
(0.99914 1.7981e-06 5.0209e-19)
(0.9993 -0.00086948 2.14e-19)
(0.99964 -0.0012781 -1.3641e-18)
(1.0003 -0.0019182 -3.8523e-20)
(1.0003 -0.0019034 -1.7496e-19)
(1.0039 -0.0016972 4.9839e-19)
(0.99773 -0.0027321 3.5936e-18)
(1.0103 0.004844 9.087e-19)
(1.0004 -0.0056207 -1.9195e-18)
(1.0055 0.012596 -6.4102e-19)
(1.0135 0.0062571 -4.2554e-19)
(1.0093 0.018341 2.0457e-19)
(0.99911 1.8901e-06 -5.7555e-19)
(0.99928 -0.00088813 -7.9309e-19)
(0.99962 -0.0013005 5.7228e-19)
(1.0003 -0.0019635 1.639e-18)