/*--------------------------------*- C++ -*----------------------------------*\
  =========                 |
  \\      /  F ield         | OpenFOAM: The Open Source CFD Toolbox
   \\    /   O peration     | Website:  https://openfoam.org
    \\  /    A nd           | Version:  6.0
     \\/     M anipulation  |
\*---------------------------------------------------------------------------*/
FoamFile
{
    version     2.0;
    format      ascii;
    class       volVectorField;
    location    "2";
    object      U;
}
// * * * * * * * * * * * * * * * * * * * * * * * * * * * * * * * * * * * * * //

dimensions      [0 1 -1 0 0 0 0];

internalField   nonuniform List<vector> 
19500
(
(1 -1.5622e-06 -3.7092e-18)
(1 -6.5461e-06 2.5008e-18)
(1 -1.049e-05 -1.0727e-17)
(1 -1.3265e-05 -7.3752e-18)
(1 -1.4011e-05 1.3853e-17)
(1 -1.1627e-05 2.5551e-17)
(1 -3.6007e-06 2.1954e-17)
(0.99998 1.1853e-05 -3.5141e-18)
(0.9999 4.673e-05 1.3002e-17)
(0.9998 7.5224e-05 2.8192e-18)
(0.99559 0.00078107 2.5329e-17)
(1.0188 0.010875 7.3434e-18)
(1 -4.5892e-06 2.298e-18)
(1 -1.9164e-05 -7.5949e-18)
(1 -3.0169e-05 5.1225e-18)
(1 -3.829e-05 -2.9079e-19)
(1 -3.9672e-05 -3.6944e-19)
(1 -3.2175e-05 -3.0723e-17)
(1 -7.749e-06 -3.7919e-17)
(0.99995 3.8501e-05 -2.0106e-17)
(0.99969 0.00015111 -1.2976e-17)
(0.99983 0.00018628 -1.3949e-18)
(0.98582 0.0022661 -1.1993e-17)
(1.0529 0.030779 -4.4458e-18)
(1 -7.593e-06 -2.9681e-18)
(1 -3.1906e-05 1.5089e-17)
(1 -5.0025e-05 2.6644e-18)
(1 -6.3575e-05 8.5034e-18)
(1 -6.5729e-05 -3.1944e-18)
(1 -5.3003e-05 2.461e-17)
(1 -1.2159e-05 -5.3379e-18)
(0.99992 6.4927e-05 4.5673e-18)
(0.99946 0.00026304 -1.5741e-17)
(1.0003 0.00031641 2.1187e-17)
(0.97543 0.003399 -6.2593e-18)
(1.0813 0.045461 1.5515e-18)
(1 -1.0595e-05 7.7592e-18)
(1 -4.4838e-05 -1.4629e-17)
(1 -7.0215e-05 -1.263e-17)
(1 -8.9288e-05 -5.9654e-19)
(1.0001 -9.2395e-05 4.9313e-18)
(1.0001 -7.4322e-05 -6.8318e-19)
(1 -1.7093e-05 5.2592e-17)
(0.9999 9.0654e-05 8.2284e-18)
(0.9992 0.00038095 1.8614e-17)
(1.0013 0.00047143 -7.6742e-18)
(0.96482 0.0042014 3.044e-17)
(1.1026 0.056167 -7.0592e-18)
(1 -1.3583e-05 -5.4521e-18)
(1 -5.7835e-05 1.2644e-17)
(1 -9.0469e-05 1.0751e-17)
(1.0001 -0.0001151 1.0883e-17)
(1.0001 -0.00011921 2.418e-18)
(1.0001 -9.5692e-05 1.8087e-17)
(1 -2.2178e-05 -2.3485e-17)
(0.99989 0.00011576 1.671e-18)
(0.99889 0.00050315 -1.1412e-17)
(1.0026 0.00065437 -1.8313e-18)
(0.95437 0.0047197 -7.9176e-18)
(1.1168 0.064014 1.9618e-18)
(1 -1.6558e-05 5.5175e-18)
(1 -7.0897e-05 -5.2416e-18)
(1 -0.00011079 3.2836e-18)
(1.0001 -0.000141 -2.1558e-17)
(1.0001 -0.00014616 -7.0805e-20)
(1.0001 -0.00011713 -3.5807e-17)
(1.0001 -2.7433e-05 9.012e-19)
(0.99989 0.00014013 -1.3414e-17)
(0.99853 0.00062779 4.3462e-18)
(1.0043 0.00087282 -1.8451e-17)
(0.94445 0.0049941 -1.8976e-17)
(1.1245 0.069604 1.8884e-18)
(1 -1.9522e-05 -9.1332e-19)
(1 -8.4022e-05 -6.2689e-18)
(1 -0.00013118 -2.6686e-18)
(1.0001 -0.00016701 1.6272e-17)
(1.0001 -0.00017328 -2.2396e-17)
(1.0001 -0.00013865 1.37e-17)
(1.0001 -3.2858e-05 1.5708e-17)
(0.99991 0.00016379 4.7195e-18)
(0.99811 0.00075304 9.7139e-18)
(1.0063 0.0011342 9.9328e-18)
(0.93533 0.0050609 8.1531e-18)
(1.1265 0.073358 3.0192e-18)
(0.99999 -2.2479e-05 -1.8851e-18)
(1 -9.721e-05 -1.2332e-18)
(1 -0.00015166 -2.2989e-17)
(1.0001 -0.00019312 -7.7698e-18)
(1.0001 -0.00020057 6.2685e-18)
(1.0002 -0.00016027 2.2451e-17)
(1.0001 -3.8462e-05 9.9977e-18)
(0.99994 0.00018678 4.2128e-18)
(0.99763 0.00087693 -6.3485e-18)
(1.0086 0.0014435 1.391e-17)
(0.92726 0.004955 6.5614e-18)
(1.124 0.075634 -9.5794e-18)
(0.99999 -2.5433e-05 -5.8521e-18)
(1 -0.00011046 5.3019e-18)
(1.0001 -0.00017222 3.8654e-17)
(1.0001 -0.00021934 -9.3194e-18)
(1.0002 -0.00022803 2.3475e-17)
(1.0002 -0.00018199 -4.4326e-17)
(1.0001 -4.4262e-05 -3.3305e-17)
(0.99998 0.00020919 8.1853e-18)
(0.99708 0.00099748 -4.7668e-18)
(1.0111 0.0018031 -7.6728e-18)
(0.92039 0.0047102 -1.2147e-17)
(1.1178 0.076737 1.2516e-17)
(0.99999 -2.8386e-05 3.8556e-18)
(1 -0.00012377 1.9956e-18)
(1.0001 -0.00019287 -3.2742e-17)
(1.0001 -0.00024567 1.3263e-17)
(1.0002 -0.00025567 -1.0237e-17)
(1.0002 -0.00020384 1.8904e-17)
(1.0001 -5.0282e-05 1.1835e-17)
(1 0.00023112 2.0684e-18)
(0.99646 0.0011126 4.5128e-19)
(1.0136 0.0022135 1.2141e-18)
(0.91481 0.0043582 3.8492e-18)
(1.1089 0.076919 -6.6403e-19)
(0.99999 -3.1343e-05 -2.1169e-18)
(1 -0.00013714 -6.5449e-18)
(1.0001 -0.00021362 8.0261e-18)
(1.0001 -0.00027212 -2.3401e-18)
(1.0002 -0.0002835 1.5802e-18)
(1.0002 -0.00022584 -2.0717e-17)
(1.0001 -5.6549e-05 -2.7259e-17)
(1.0001 0.00025277 -2.6279e-17)
(0.99578 0.0012205 1.3323e-17)
(1.0163 0.0026739 1.5766e-18)
(0.91059 0.0039282 -9.7635e-18)
(1.098 0.076388 -5.3734e-18)
(0.99998 -3.4304e-05 2.9219e-18)
(1 -0.00015057 2.4721e-18)
(1.0001 -0.00023447 3.868e-18)
(1.0001 -0.0002987 -1.8649e-18)
(1.0002 -0.00031152 -4.7367e-18)
(1.0002 -0.00024799 7.8359e-18)
(1.0001 -6.3098e-05 1.5779e-17)
(1.0002 0.00027435 1.6233e-17)
(0.99503 0.0013189 8.5577e-18)
(1.019 0.0031818 -1.9924e-17)
(0.9077 0.003447 1.0912e-19)
(1.086 0.075315 -6.1946e-18)
(0.99998 -3.7272e-05 -2.9214e-18)
(1 -0.00016407 4.8614e-18)
(1.0001 -0.00025542 7.013e-18)
(1.0001 -0.00032542 4.8697e-18)
(1.0002 -0.00033973 -4.3933e-18)
(1.0003 -0.00027031 3.852e-18)
(1.0002 -6.9969e-05 3.598e-18)
(1.0004 0.00029611 -1.4497e-18)
(0.99423 0.0014062 -1.3832e-17)
(1.0216 0.0037338 1.8472e-17)
(0.90611 0.0029382 9.7344e-20)
(1.0733 0.073841 1.3391e-18)
(0.99998 -4.0245e-05 4.4425e-18)
(1 -0.00017763 -3.7948e-18)
(1.0001 -0.00027646 6.1396e-19)
(1.0002 -0.00035228 -4.0622e-18)
(1.0002 -0.00036814 9.9775e-18)
(1.0003 -0.00029281 4.6996e-18)
(1.0002 -7.7211e-05 1.4477e-17)
(1.0005 0.00031838 -5.3826e-18)
(0.99337 0.0014806 -1.6885e-19)
(1.0242 0.0043257 4.5328e-18)
(0.90574 0.0024229 1.4745e-17)
(1.0606 0.072081 8.5504e-19)
(0.99997 -4.3224e-05 1.0715e-18)
(1 -0.00019127 8.422e-18)
(1.0001 -0.0002976 1.1727e-17)
(1.0002 -0.0003793 -4.05e-18)
(1.0003 -0.00039675 7.2246e-18)
(1.0003 -0.00031552 -2.1939e-18)
(1.0002 -8.488e-05 -2.5355e-17)
(1.0007 0.00034149 1.7036e-17)
(0.99248 0.0015402 -1.559e-17)
(1.0266 0.0049529 -2.6151e-17)
(0.90648 0.0019187 -3.2466e-18)
(1.0481 0.070129 7.8942e-19)
(0.99997 -4.6204e-05 -2.7335e-18)
(1 -0.00020499 -8.9567e-18)
(1.0001 -0.00031885 -2.8147e-17)
(1.0002 -0.00040648 6.8236e-18)
(1.0003 -0.00042558 -1.0964e-17)
(1.0003 -0.00033844 7.0335e-18)
(1.0002 -9.3039e-05 -2.3719e-18)
(1.0009 0.0003658 -1.0255e-17)
(0.99154 0.0015836 3.4259e-18)
(1.0288 0.0056104 1.5614e-17)
(0.90823 0.0014407 -6.781e-18)
(1.0362 0.06806 1.081e-17)
(0.99997 -4.9185e-05 2.8762e-19)
(1 -0.00021879 6.6988e-18)
(1.0001 -0.00034019 1.9433e-17)
(1.0002 -0.00043383 -1.5367e-18)
(1.0003 -0.00045461 -1.0892e-17)
(1.0004 -0.00036158 -1.3107e-17)
(1.0002 -0.00010176 9.0613e-18)
(1.0011 0.00039174 5.8796e-18)
(0.99058 0.0016093 1.978e-17)
(1.0308 0.0062931 -2.1849e-18)
(0.91085 0.001001 1.6791e-18)
(1.0252 0.065934 -4.3141e-18)
(0.99996 -5.2163e-05 -1.6136e-18)
(1 -0.00023267 -8.1168e-18)
(1.0001 -0.00036162 -8.7688e-18)
(1.0002 -0.00046137 5.1353e-18)
(1.0003 -0.00048386 -6.117e-18)
(1.0004 -0.00038497 -1.0512e-17)
(1.0002 -0.00011112 8.8084e-18)
(1.0013 0.00041971 -3.9895e-18)
(0.9896 0.0016161 -2.4471e-17)
(1.0326 0.0069958 -1.2239e-17)
(0.91422 0.0006089 7.2767e-18)
(1.0152 0.063801 -4.6594e-18)
(0.99996 -5.5136e-05 -2.3106e-18)
(1 -0.00024666 -3.0677e-18)
(1.0001 -0.00038316 -6.4979e-19)
(1.0002 -0.0004891 -2.2487e-17)
(1.0003 -0.00051334 5.1326e-18)
(1.0004 -0.00040861 4.5782e-18)
(1.0002 -0.00012122 -1.6737e-17)
(1.0016 0.00045016 -1.3616e-17)
(0.98862 0.0016027 3.5825e-18)
(1.0341 0.0077134 -9.1395e-19)
(0.91821 0.00027135 -8.4081e-18)
(1.0063 0.061696 8.8346e-19)
(0.99995 -5.8099e-05 3.0054e-18)
(1 -0.00026074 1.4063e-17)
(1.0001 -0.00040479 1.6733e-17)
(1.0002 -0.00051703 2.118e-18)
(1.0004 -0.00054305 1.4188e-17)
(1.0005 -0.00043251 8.0217e-18)
(1.0002 -0.00013214 2.4162e-18)
(1.0019 0.00048353 1.4901e-17)
(0.98765 0.0015683 1.7776e-17)
(1.0354 0.0084412 1.461e-17)
(0.92268 -7.0326e-06 6.2544e-18)
(0.99846 0.059647 1.0432e-18)
(0.99994 -6.105e-05 -1.4325e-18)
(0.99999 -0.00027494 -3.3743e-18)
(1.0001 -0.00042652 -1.7828e-17)
(1.0002 -0.00054517 -2.0047e-18)
(1.0004 -0.00057299 -1.0753e-17)
(1.0005 -0.00045668 -4.3394e-18)
(1.0002 -0.00014399 -1.5499e-18)
(1.0022 0.00052026 -1.3472e-17)
(0.9867 0.0015122 -1.699e-17)
(1.0364 0.0091743 7.4822e-18)
(0.92751 -0.00022363 4.1814e-19)
(0.99179 0.057676 5.9666e-19)
(0.99994 -6.3988e-05 3.7971e-18)
(0.99999 -0.00028924 -4.4084e-18)
(1.0001 -0.00044835 -1.6721e-17)
(1.0002 -0.00057353 3.8119e-17)
(1.0004 -0.00060318 1.5598e-17)
(1.0005 -0.00048114 -1.0618e-17)
(1.0002 -0.00015687 2.0842e-17)
(1.0025 0.00056078 1.8204e-17)
(0.98577 0.0014338 2.7563e-17)
(1.0371 0.0099085 -2.7414e-17)
(0.9326 -0.00037754 -1.1468e-17)
(0.98624 0.055796 1.5647e-19)
(0.99993 -6.6909e-05 -2.7793e-18)
(0.99999 -0.00030366 -8.8463e-19)
(1.0001 -0.00047028 2.8546e-17)
(1.0002 -0.00060211 -2.8815e-17)
(1.0004 -0.00063362 -1.5016e-18)
(1.0006 -0.0005059 3.5182e-17)
(1.0002 -0.00017092 6.458e-18)
(1.0028 0.00060552 -2.813e-18)
(0.98488 0.001333 -1.7091e-17)
(1.0376 0.010639 3.2298e-17)
(0.93783 -0.00046936 -4.8416e-18)
(0.98173 0.054017 -2.4984e-19)
(0.99992 -6.9812e-05 -1.4169e-18)
(0.99998 -0.0003182 -1.7627e-18)
(1.0001 -0.00049232 1.4865e-18)
(1.0003 -0.00063093 2.9977e-17)
(1.0004 -0.00066431 -8.4655e-18)
(1.0006 -0.00053097 -2.6003e-17)
(1.0002 -0.00018623 -1.6467e-17)
(1.0032 0.00065483 -3.0279e-18)
(0.98405 0.0012096 5.4021e-18)
(1.0377 0.011363 -2.7233e-17)
(0.94312 -0.00050087 8.1182e-18)
(0.9782 0.052345 2.6901e-18)
(0.99992 -7.2695e-05 2.3414e-18)
(0.99998 -0.00033287 1.2269e-17)
(1.0001 -0.00051446 -1.0963e-17)
(1.0003 -0.00066 -3.139e-18)
(1.0005 -0.00069527 -1.6246e-17)
(1.0006 -0.00055635 2.8287e-17)
(1.0002 -0.00020295 -1.4454e-17)
(1.0036 0.00070907 1.2544e-17)
(0.98327 0.0010641 -1.665e-18)
(1.0377 0.012075 2.5523e-17)
(0.94838 -0.00047487 -7.898e-18)
(0.97556 0.050781 -4.4857e-18)
(0.99991 -7.5558e-05 -4.4908e-19)
(0.99997 -0.00034767 -7.0561e-18)
(1.0001 -0.0005367 -1.5351e-17)
(1.0003 -0.00068932 -8.6006e-18)
(1.0005 -0.00072649 1.5758e-17)
(1.0007 -0.00058206 -3.6069e-17)
(1.0001 -0.00022118 -2.2292e-18)
(1.004 0.00076852 -1.6948e-17)
(0.98255 0.000897 2.6869e-18)
(1.0374 0.012773 -7.3608e-18)
(0.95355 -0.00039493 8.4072e-18)
(0.97372 0.049324 1.8997e-18)
(0.9999 -7.8399e-05 2.3525e-18)
(0.99997 -0.0003626 -7.5582e-18)
(1.0001 -0.00055906 -1.5165e-18)
(1.0003 -0.00071891 2.0896e-18)
(1.0005 -0.00075799 4.9872e-18)
(1.0007 -0.0006081 1.0422e-17)
(1.0001 -0.00024105 3.6562e-17)
(1.0043 0.00083343 2.0246e-18)
(0.98191 0.00070907 4.3763e-18)
(1.0368 0.013452 8.1032e-18)
(0.95856 -0.00026521 -7.1694e-18)
(0.97257 0.047973 1.4529e-18)
(0.99989 -8.1217e-05 -1.349e-18)
(0.99996 -0.00037767 7.5512e-18)
(1.0001 -0.00058153 2.182e-17)
(1.0003 -0.00074877 -2.1055e-17)
(1.0005 -0.00078977 -7.7574e-18)
(1.0007 -0.00063448 -1.8331e-18)
(1.0001 -0.00026269 -1.2052e-17)
(1.0047 0.00090395 1.57e-18)
(0.98134 0.00050146 -7.5851e-18)
(1.0361 0.01411 -2.9821e-18)
(0.96336 -9.0287e-05 -1.9191e-19)
(0.97203 0.046722 -1.7759e-18)
(0.99989 -8.4012e-05 -1.4499e-18)
(0.99996 -0.00039288 4.5198e-18)
(1.0001 -0.00060412 -5.2774e-19)
(1.0003 -0.00077891 6.9818e-18)
(1.0005 -0.00082184 -1.4313e-17)
(1.0008 -0.00066122 2.0746e-17)
(1.0001 -0.00028621 6.0094e-18)
(1.0052 0.00098019 -1.498e-17)
(0.98086 0.00027552 -9.7195e-18)
(1.0352 0.014744 -1.1786e-17)
(0.96793 0.00012496 1.1439e-18)
(0.97201 0.045567 -3.2407e-18)
(0.99988 -8.6784e-05 5.0383e-19)
(0.99995 -0.00040824 -1.0794e-17)
(1.0001 -0.00062682 1.3511e-17)
(1.0003 -0.00080935 1.931e-17)
(1.0005 -0.0008542 2.8054e-17)
(1.0008 -0.00068832 -1.5236e-17)
(1 -0.00031172 -1.4942e-17)
(1.0056 0.0010622 3.0414e-18)
(0.98046 3.2853e-05 9.1067e-18)
(1.0341 0.015352 9.2205e-18)
(0.97223 0.00037551 5.2751e-18)
(0.9724 0.044501 3.2209e-18)
(0.99987 -8.9531e-05 9.6556e-19)
(0.99994 -0.00042374 8.5836e-18)
(1.0001 -0.00064964 -3.1043e-17)
(1.0003 -0.00084009 -2.7979e-18)
(1.0006 -0.00088686 -2.3304e-17)
(1.0009 -0.00071579 -9.5955e-18)
(0.99998 -0.00033931 2.1095e-20)
(1.006 0.0011498 -3.4738e-18)
(0.98015 -0.00022473 -1.7931e-17)
(1.0329 0.015929 -1.4714e-17)
(0.97623 0.00065629 -7.1797e-18)
(0.97314 0.043517 -1.5811e-18)
(0.99986 -9.2254e-05 -6.2581e-19)
(0.99994 -0.0004394 -5.5823e-18)
(1.0001 -0.00067259 2.4425e-17)
(1.0003 -0.00087115 -2.6695e-17)
(1.0006 -0.00091982 -1.7523e-18)
(1.0009 -0.00074364 2.0433e-17)
(0.99993 -0.00036908 5.9781e-19)
(1.0064 0.001243 3.3161e-18)
(0.97993 -0.00049522 1.5698e-17)
(1.0316 0.016475 1.912e-17)
(0.97994 0.00096224 4.1146e-18)
(0.97415 0.04261 -8.7771e-19)
(0.99985 -9.4951e-05 -1.6292e-18)
(0.99993 -0.00045522 -2.0586e-18)
(1.0001 -0.00069566 -1.0828e-17)
(1.0003 -0.00090253 1.3299e-17)
(1.0006 -0.00095309 2.5611e-17)
(1.0009 -0.00077188 -9.0301e-18)
(0.99988 -0.0004011 1.8604e-17)
(1.0068 0.0013415 2.485e-18)
(0.97979 -0.0007765 -1.7762e-18)
(1.0302 0.016987 8.6384e-18)
(0.98335 0.0012884 -4.5701e-18)
(0.97536 0.041771 -6.0763e-19)
(0.99984 -9.7624e-05 4.0745e-19)
(0.99992 -0.0004712 -5.4441e-18)
(1.0001 -0.00071886 4.0532e-18)
(1.0003 -0.00093425 -1.3553e-17)
(1.0006 -0.00098668 -2.7089e-17)
(1.001 -0.00080053 5.6899e-18)
(0.99983 -0.00043543 -2.6838e-17)
(1.0072 0.001445 -5.6748e-18)
(0.97973 -0.0010663 5.7633e-18)
(1.0288 0.017464 -2.7124e-17)
(0.98645 0.0016301 3.1424e-18)
(0.97672 0.040994 1.7328e-18)
(0.99983 -0.00010027 7.1552e-19)
(0.99992 -0.00048735 1.475e-17)
(1.0001 -0.00074219 6.7866e-18)
(1.0003 -0.00096632 5.5209e-18)
(1.0006 -0.0010206 2.166e-17)
(1.001 -0.0008296 1.6961e-18)
(0.99977 -0.00047211 1.853e-17)
(1.0076 0.0015532 4.0729e-18)
(0.97976 -0.0013623 -1.7507e-17)
(1.0273 0.017905 9.335e-18)
(0.98926 0.0019826 2.1212e-18)
(0.97819 0.040273 1.7893e-18)
(0.99981 -0.00010289 -2.4984e-18)
(0.99991 -0.00050367 -4.8551e-18)
(1.0001 -0.00076566 -5.9627e-18)
(1.0003 -0.00099875 9.0661e-18)
(1.0006 -0.0010548 1.0463e-17)
(1.0011 -0.00085911 -3.3784e-18)
(0.99971 -0.00051119 -1.5564e-17)
(1.008 0.0016655 1.853e-17)
(0.97986 -0.0016622 3.2464e-18)
(1.0258 0.018307 -2.8176e-18)
(0.99178 0.0023419 8.7292e-18)
(0.9797 0.039601 -1.2401e-18)
(0.9998 -0.00010549 5.1338e-18)
(0.9999 -0.00052016 5.8142e-18)
(1.0001 -0.00078926 -6.3382e-18)
(1.0004 -0.0010315 -5.6473e-18)
(1.0007 -0.0010894 -1.5015e-17)
(1.0011 -0.00088909 -5.8016e-18)
(0.99965 -0.00055265 7.6731e-18)
(1.0083 0.0017816 -2.9714e-17)
(0.98003 -0.0019636 7.9345e-18)
(1.0243 0.018671 -3.3276e-18)
(0.99404 0.0027037 -9.2312e-18)
(0.98125 0.038972 3.5937e-18)
(0.99979 -0.00010806 -2.2658e-18)
(0.99989 -0.00053683 -1.0215e-17)
(1.0001 -0.000813 -6.1427e-18)
(1.0004 -0.0010647 -1.0716e-17)
(1.0007 -0.0011243 -4.584e-18)
(1.0012 -0.00091955 1.7057e-17)
(0.99958 -0.0005965 -7.5366e-18)
(1.0087 0.0019007 3.3049e-17)
(0.98027 -0.0022643 7.476e-18)
(1.0228 0.018997 1.0099e-17)
(0.99604 0.0030645 3.8876e-18)
(0.98279 0.038381 -5.8195e-18)
(0.99978 -0.0001106 -1.2018e-18)
(0.99988 -0.00055369 7.5971e-18)
(1.0001 -0.00083688 1.2171e-17)
(1.0004 -0.0010983 2.8893e-17)
(1.0007 -0.0011595 6.0764e-18)
(1.0012 -0.00095052 -1.1699e-17)
(0.99952 -0.00064271 3.6371e-18)
(1.009 0.0020223 -3.5546e-17)
(0.98058 -0.0025621 -9.0632e-18)
(1.0213 0.019283 -5.6128e-18)
(0.99781 0.003421 3.8019e-18)
(0.98431 0.037823 5.8411e-18)
(0.99976 -0.00011312 9.1975e-19)
(0.99987 -0.00057073 1.7984e-18)
(1.0001 -0.00086091 -1.1952e-17)
(1.0004 -0.0011323 -4.8128e-18)
(1.0007 -0.0011951 7.7149e-18)
(1.0013 -0.00098203 1.4001e-17)
(0.99945 -0.00069123 1.2644e-17)
(1.0094 0.0021458 3.5222e-18)
(0.98093 -0.002855 1.0137e-17)
(1.0199 0.01953 -2.5977e-18)
(0.99936 0.0037703 -6.781e-18)
(0.98579 0.037292 -1.5073e-18)
(0.99975 -0.00011561 -3.7659e-20)
(0.99986 -0.00058797 2.0497e-18)
(1.0001 -0.00088509 2.6713e-18)
(1.0004 -0.0011667 -6.2476e-18)
(1.0007 -0.001231 7.1493e-20)
(1.0014 -0.0010141 -1.2695e-17)
(0.99938 -0.000742 -8.5528e-18)
(1.0097 0.0022704 2.602e-17)
(0.98134 -0.0031411 -1.531e-17)
(1.0186 0.019739 1.0087e-17)
(1.0007 0.0041096 3.5776e-18)
(0.98722 0.036785 -4.2364e-18)
(0.99974 -0.00011807 -2.8488e-18)
(0.99985 -0.00060541 -9.6128e-18)
(1.0001 -0.00090941 6.8199e-18)
(1.0004 -0.0012016 -1.7062e-17)
(1.0007 -0.0012672 -1.9509e-17)
(1.0014 -0.0010468 -1.7534e-17)
(0.99931 -0.00079494 -1.7427e-17)
(1.01 0.0023955 -2.6655e-18)
(0.98178 -0.0034188 1.3378e-17)
(1.0173 0.01991 -8.6491e-18)
(1.0019 0.0044367 3.54e-19)
(0.9886 0.036298 3.9859e-18)
(0.99972 -0.00012051 5.4986e-18)
(0.99984 -0.00062305 1.0046e-17)
(1.0001 -0.00093389 -1.0998e-17)
(1.0004 -0.0012369 1.4009e-17)
(1.0008 -0.0013038 -2.2872e-18)
(1.0015 -0.0010802 1.1493e-17)
(0.99924 -0.00084997 2.0946e-17)
(1.0103 0.0025205 -2.0173e-17)
(0.98226 -0.0036866 -6.7784e-18)
(1.0161 0.020045 9.126e-18)
(1.003 0.0047499 3.0761e-18)
(0.98991 0.035828 -1.8814e-18)
(0.99971 -0.00012291 -4.1259e-18)
(0.99982 -0.0006409 -2.969e-18)
(1.0001 -0.00095853 -2.2995e-18)
(1.0004 -0.0012727 1.6028e-17)
(1.0008 -0.0013408 -4.8967e-18)
(1.0016 -0.0011143 -1.4547e-19)
(0.99917 -0.00090697 -4.0985e-18)
(1.0105 0.0026445 1.6157e-17)
(0.98278 -0.0039432 -6.4299e-18)
(1.015 0.020145 -6.2661e-18)
(1.0039 0.0050475 -9.0887e-18)
(0.99115 0.035371 2.1819e-18)
(0.99969 -0.00012529 2.8046e-18)
(0.99981 -0.00065896 -3.7646e-18)
(1.0001 -0.00098333 5.2643e-18)
(1.0004 -0.001309 -2.4319e-17)
(1.0008 -0.0013781 3.3177e-17)
(1.0016 -0.0011491 4.7605e-18)
(0.9991 -0.00096584 1.6166e-17)
(1.0108 0.002767 -9.9937e-18)
(0.98331 -0.0041878 9.0471e-20)
(1.014 0.02021 4.654e-18)
(1.0047 0.0053283 -1.7555e-18)
(0.99234 0.034926 -8.2164e-19)
(0.99968 -0.00012765 -8.0231e-19)
(0.9998 -0.00067725 7.3586e-19)
(1 -0.0010083 1.2827e-17)
(1.0004 -0.0013458 6.6298e-18)
(1.0008 -0.0014157 -1.6586e-17)
(1.0017 -0.0011847 -9.3236e-18)
(0.99902 -0.0010265 2.82e-18)
(1.011 0.0028873 -4.8553e-18)
(0.98387 -0.0044194 1.0757e-17)
(1.0131 0.020243 -3.0567e-18)
(1.0054 0.0055914 8.4873e-18)
(0.99346 0.03449 -2.9837e-18)
(0.99966 -0.00012997 -1.3965e-18)
(0.99979 -0.00069575 -7.0935e-18)
(1 -0.0010334 -3.8137e-18)
(1.0004 -0.001383 2.6622e-17)
(1.0008 -0.0014537 -1.4775e-17)
(1.0018 -0.0012212 -7.8913e-19)
(0.99895 -0.0010887 -4.2204e-17)
(1.0113 0.0030048 4.7766e-18)
(0.98444 -0.0046375 -2.0095e-17)
(1.0122 0.020246 -6.5916e-18)
(1.006 0.0058362 -8.4642e-18)
(0.99452 0.034061 1.7723e-18)
(0.99964 -0.00013227 -6.0289e-19)
(0.99977 -0.00071449 4.3948e-18)
(1 -0.0010587 -1.5742e-18)
(1.0004 -0.0014209 -1.5501e-17)
(1.0008 -0.001492 2.1233e-17)
(1.0018 -0.0012586 -1.9403e-18)
(0.99887 -0.0011525 2.2354e-17)
(1.0115 0.003119 -2.9316e-18)
(0.98502 -0.0048419 9.7623e-18)
(1.0115 0.02022 8.2401e-18)
(1.0065 0.0060623 6.9804e-18)
(0.99553 0.033638 -4.2543e-19)
(0.99962 -0.00013453 3.4176e-18)
(0.99976 -0.00073346 -2.6295e-18)
(1 -0.0010842 -5.5073e-18)
(1.0004 -0.0014592 1.6917e-17)
(1.0008 -0.0015306 1.5578e-18)
(1.0019 -0.001297 2.4062e-17)
(0.9988 -0.0012176 3.855e-18)
(1.0117 0.0032294 1.4016e-17)
(0.98561 -0.0050324 3.6623e-18)
(1.0108 0.020167 -2.6661e-18)
(1.007 0.0062696 9.0548e-19)
(0.99648 0.033219 3.8755e-19)
(0.99961 -0.00013677 9.7447e-19)
(0.99974 -0.00075268 1.0751e-18)
(1 -0.0011098 -4.9937e-18)
(1.0004 -0.0014982 -3.369e-17)
(1.0008 -0.0015696 4.718e-18)
(1.002 -0.0013364 2.0854e-18)
(0.99873 -0.0012841 -1.6714e-17)
(1.0119 0.0033354 1.965e-19)
(0.9862 -0.0052091 1.0772e-17)
(1.0102 0.020088 -1.7121e-18)
(1.0074 0.0064582 -4.4011e-18)
(0.99739 0.032804 2.269e-18)
(0.99959 -0.00013898 -4.1729e-18)
(0.99973 -0.00077214 4.5568e-18)
(1 -0.0011356 8.2321e-19)
(1.0004 -0.0015377 1.8708e-17)
(1.0008 -0.0016089 -2.1523e-17)
(1.0021 -0.0013769 -9.217e-18)
(0.99865 -0.0013517 1.7094e-17)
(1.0121 0.0034368 -9.4874e-18)
(0.98679 -0.0053724 -1.7016e-17)
(1.0096 0.019987 -8.4508e-18)
(1.0079 0.0066284 5.6005e-18)
(0.99825 0.032392 7.5132e-19)
(0.99957 -0.00014116 -4.4158e-19)
(0.99971 -0.00079185 -4.5855e-18)
(1 -0.0011616 8.7674e-18)
(1.0004 -0.0015778 8.2947e-18)
(1.0009 -0.0016485 2.6582e-17)
(1.0022 -0.0014186 3.5393e-18)
(0.99858 -0.0014204 1.5178e-17)
(1.0122 0.0035332 2.4047e-17)
(0.98737 -0.0055225 -7.4358e-19)
(1.0092 0.019864 1.4862e-17)
(1.0082 0.0067805 -5.9431e-19)
(0.99907 0.031982 -2.2027e-18)
(0.99955 -0.00014331 4.2799e-18)
(0.9997 -0.00081182 -6.6762e-18)
(0.99999 -0.0011878 -1.3307e-17)
(1.0004 -0.0016186 -2.2049e-18)
(1.0009 -0.0016884 -2.8849e-17)
(1.0023 -0.0014615 -1.0533e-17)
(0.99851 -0.0014901 -5.2711e-18)
(1.0124 0.0036242 1.7548e-19)
(0.98795 -0.00566 2.2125e-17)
(1.0088 0.019722 3.4172e-18)
(1.0086 0.006915 -7.6554e-18)
(0.99986 0.031574 1.3152e-18)
(0.99953 -0.00014543 -4.7983e-18)
(0.99968 -0.00083206 8.3396e-18)
(0.99998 -0.0012142 6.9657e-18)
(1.0004 -0.00166 -4.3933e-18)
(1.0009 -0.0017286 2.3199e-17)
(1.0023 -0.0015057 1.2599e-17)
(0.99844 -0.0015608 -4.166e-18)
(1.0125 0.0037096 -2.4224e-17)
(0.98853 -0.0057857 -7.5592e-19)
(1.0085 0.019562 -9.7758e-18)
(1.0089 0.0070327 9.0558e-18)
(1.0006 0.031167 -1.7228e-18)
(0.99951 -0.00014752 2.8832e-18)
(0.99966 -0.00085257 -1.5959e-18)
(0.99997 -0.0012408 9.2231e-18)
(1.0004 -0.001702 -1.8482e-17)
(1.0009 -0.0017691 7.5741e-18)
(1.0024 -0.0015512 -4.5267e-18)
(0.99836 -0.0016325 -8.9714e-18)
(1.0127 0.0037893 -1.9419e-18)
(0.9891 -0.0059001 -2.6663e-17)
(1.0082 0.019387 6.4416e-18)
(1.0093 0.0071341 -8.2737e-18)
(1.0013 0.030761 5.7293e-19)
(0.99949 -0.00014958 2.2797e-19)
(0.99965 -0.00087335 -5.0204e-18)
(0.99995 -0.0012675 5.2374e-18)
(1.0004 -0.0017448 2.4326e-17)
(1.0009 -0.00181 -1.8041e-17)
(1.0025 -0.001598 1.4556e-17)
(0.99829 -0.0017051 -5.1858e-18)
(1.0128 0.0038631 4.5019e-18)
(0.98966 -0.0060042 3.1666e-17)
(1.008 0.019197 -1.1954e-17)
(1.0096 0.00722 1.2628e-17)
(1.002 0.030356 1.6158e-18)
(0.99947 -0.00015161 4.0918e-19)
(0.99963 -0.00089442 -1.0391e-18)
(0.99994 -0.0012945 -7.5349e-18)
(1.0004 -0.0017883 -3.6622e-18)
(1.0009 -0.0018511 1.5722e-17)
(1.0026 -0.0016463 1.1382e-19)
(0.99822 -0.0017786 -1.019e-17)
(1.013 0.0039309 -1.0738e-17)
(0.99021 -0.0060988 -1.325e-17)
(1.0078 0.018994 -1.1233e-18)
(1.0099 0.0072913 2.2955e-18)
(1.0027 0.029952 1.6503e-19)
(0.99944 -0.00015361 -6.5842e-19)
(0.99961 -0.00091578 1.2365e-17)
(0.99993 -0.0013217 -5.0255e-18)
(1.0004 -0.0018324 -2.0695e-17)
(1.0009 -0.0018925 7.2466e-18)
(1.0027 -0.001696 -3.7083e-17)
(0.99816 -0.001853 5.085e-18)
(1.0131 0.0039927 6.7643e-18)
(0.99075 -0.0061846 6.1556e-19)
(1.0077 0.01878 1.2124e-17)
(1.0102 0.0073486 -7.8444e-19)
(1.0034 0.029549 -4.5039e-18)
(0.99942 -0.00015558 -1.7382e-19)
(0.99959 -0.00093744 -2.426e-19)
(0.99992 -0.001349 6.7651e-18)
(1.0004 -0.0018774 1.2776e-17)
(1.0009 -0.0019342 -2.8797e-17)
(1.0028 -0.0017471 1.6029e-18)
(0.99809 -0.0019285 9.1035e-18)
(1.0132 0.0040483 1.0587e-17)
(0.99129 -0.0062627 -8.3642e-18)
(1.0076 0.018555 -1.1795e-17)
(1.0106 0.0073929 -1.2471e-17)
(1.004 0.029147 4.7467e-18)
(0.9994 -0.00015753 -1.1375e-18)
(0.99957 -0.0009594 3.456e-19)
(0.9999 -0.0013766 -3.2618e-18)
(1.0005 -0.0019231 -8.5303e-18)
(1.0009 -0.0019763 1.5962e-17)
(1.0029 -0.0017998 1.9901e-17)
(0.99803 -0.002005 2.654e-18)
(1.0133 0.0040977 5.362e-18)
(0.99181 -0.0063337 1.3338e-17)
(1.0076 0.018322 1.9878e-18)
(1.0109 0.0074247 9.2017e-18)
(1.0046 0.028747 -2.8775e-18)
(0.99937 -0.00015944 2.0937e-18)
(0.99955 -0.00098167 6.3715e-19)
(0.99989 -0.0014044 -4.6614e-18)
(1.0005 -0.0019696 1.2602e-18)
(1.0009 -0.0020186 -8.6541e-18)
(1.003 -0.0018539 -4.7738e-18)
(0.99796 -0.0020828 -9.8145e-19)
(1.0134 0.004141 -2.421e-17)
(0.99233 -0.0063987 2.6127e-18)
(1.0076 0.018081 -4.0148e-18)
(1.0112 0.0074449 -3.7427e-18)
(1.0052 0.028347 -3.4548e-18)
(0.99935 -0.00016133 -4.2728e-18)
(0.99953 -0.0010043 8.3241e-19)
(0.99987 -0.0014325 2.4726e-18)
(1.0005 -0.002017 -1.5834e-17)
(1.0009 -0.0020612 -9.8646e-18)
(1.0031 -0.0019095 -2.2157e-17)
(0.9979 -0.0021618 4.7319e-18)
(1.0135 0.0041782 9.887e-18)
(0.99284 -0.0064583 -2.8035e-17)
(1.0076 0.017833 1.8521e-17)
(1.0115 0.0074542 -4.0344e-18)
(1.0058 0.027948 2.2317e-18)
(0.99932 -0.00016318 3.9223e-18)
(0.99951 -0.0010272 1.8628e-18)
(0.99986 -0.0014607 9.5075e-19)
(1.0005 -0.0020651 5.0222e-18)
(1.0009 -0.0021042 -2.1783e-18)
(1.0033 -0.0019665 4.2942e-17)
(0.99784 -0.0022422 1.6986e-17)
(1.0136 0.0042092 -1.5365e-17)
(0.99333 -0.0065133 2.6974e-17)
(1.0076 0.017579 -6.9099e-18)
(1.0118 0.0074533 -2.6508e-18)
(1.0063 0.027551 -1.104e-18)
(0.99929 -0.00016501 9.621e-19)
(0.99949 -0.0010504 -1.1796e-17)
(0.99984 -0.0014892 1.903e-18)
(1.0005 -0.0021142 2.2553e-17)
(1.0008 -0.0021475 1.6861e-17)
(1.0034 -0.002025 -6.9537e-19)
(0.99779 -0.0023243 -2.3534e-17)
(1.0136 0.004234 4.6578e-18)
(0.99383 -0.0065644 -6.0799e-18)
(1.0076 0.017321 -9.5489e-18)
(1.0121 0.0074428 6.7506e-18)
(1.0069 0.027156 1.0357e-18)
(0.99927 -0.00016682 -3.8053e-18)
(0.99946 -0.001074 -3.9326e-18)
(0.99982 -0.0015179 -1.0309e-17)
(1.0005 -0.0021641 -1.8914e-17)
(1.0008 -0.0021912 -1.6964e-17)
(1.0035 -0.0020849 -1.9513e-17)
(0.99774 -0.002408 4.344e-18)
(1.0137 0.0042528 3.6158e-17)
(0.99431 -0.0066123 2.6467e-18)
(1.0077 0.017057 -8.2821e-19)
(1.0124 0.0074233 -2.3794e-18)
(1.0074 0.026761 -2.7593e-18)
(0.99924 -0.0001686 2.8238e-18)
(0.99944 -0.0010979 3.6529e-18)
(0.99981 -0.0015469 1.5886e-17)
(1.0005 -0.0022149 1.31e-17)
(1.0008 -0.0022353 1.6503e-17)
(1.0036 -0.0021461 -7.2546e-19)
(0.99769 -0.0024937 -2.42e-17)
(1.0138 0.0042654 -1.9541e-17)
(0.99479 -0.0066576 6.5622e-18)
(1.0078 0.016791 3.3052e-18)
(1.0127 0.0073952 5.352e-18)
(1.008 0.026369 2.1399e-18)
(0.99921 -0.00017036 -1.9942e-18)
(0.99941 -0.0011222 5.7307e-18)
(0.99979 -0.0015761 -1.051e-17)
(1.0005 -0.0022667 1.8959e-18)
(1.0008 -0.0022798 7.6719e-18)
(1.0037 -0.0022086 -1.9073e-18)
(0.99764 -0.0025815 5.4361e-18)
(1.0138 0.0042719 5.4236e-18)
(0.99526 -0.0067007 2.1531e-18)
(1.0079 0.016521 8.1538e-18)
(1.0131 0.0073593 -6.4327e-18)
(1.0085 0.025978 4.3426e-19)
(0.99918 -0.00017209 3.011e-18)
(0.99939 -0.0011468 3.5519e-19)
(0.99977 -0.0016055 -4.9197e-18)
(1.0005 -0.0023194 7.5461e-19)
(1.0008 -0.0023248 -1.2614e-18)
(1.0038 -0.0022724 -1.8836e-17)
(0.9976 -0.0026715 1.5167e-17)
(1.0139 0.0042723 1.9242e-17)
(0.99572 -0.0067422 -1.0748e-17)
(1.008 0.016248 -1.1336e-17)
(1.0134 0.0073158 -1.8725e-18)
(1.009 0.025588 3.6543e-18)
(0.99915 -0.0001738 -2.1873e-18)
(0.99936 -0.0011718 -2.7353e-19)
(0.99975 -0.0016353 6.117e-18)
(1.0005 -0.0023731 -1.4495e-17)
(1.0008 -0.0023703 -1.1397e-17)
(1.004 -0.0023373 2.3779e-17)
(0.99757 -0.002764 -2.3188e-18)
(1.014 0.0042665 -2.0376e-17)
(0.99618 -0.0067826 2.7344e-18)
(1.0081 0.015973 1.0668e-17)
(1.0137 0.0072652 6.3525e-18)
(1.0095 0.0252 -1.3172e-18)
(0.99912 -0.0001755 2.1736e-19)
(0.99934 -0.0011972 2.0037e-18)
(0.99973 -0.0016653 3.3421e-18)
(1.0005 -0.0024277 7.4933e-18)
(1.0007 -0.0024163 2.2335e-17)
(1.0041 -0.0024034 5.5427e-18)
(0.99754 -0.0028591 -2.0183e-17)
(1.014 0.0042546 1.9072e-18)
(0.99663 -0.0068221 7.0374e-18)
(1.0082 0.015696 -9.6017e-18)
(1.014 0.0072078 -4.289e-18)
(1.01 0.024814 -1.5176e-18)
(0.99909 -0.00017718 6.1717e-19)
(0.99931 -0.0012229 -3.4851e-19)
(0.99971 -0.0016956 -8.8186e-18)
(1.0005 -0.0024834 -1.6116e-19)
(1.0007 -0.002463 -4.4158e-17)
(1.0042 -0.0024704 6.8331e-18)
(0.99751 -0.0029571 1.9827e-17)
(1.014 0.0042365 -5.4825e-18)
(0.99707 -0.0068611 -7.3736e-18)
(1.0083 0.015418 1.5933e-17)
(1.0143 0.0071441 5.1219e-18)
(1.0104 0.02443 3.9257e-18)
(0.99906 -0.00017884 6.6297e-19)
(0.99928 -0.001249 -7.2324e-19)
(0.99968 -0.0017261 1.5948e-17)
(1.0005 -0.00254 3.456e-18)
(1.0007 -0.0025104 3.9129e-17)
(1.0043 -0.0025384 -2.4086e-17)
(0.99749 -0.003058 -6.6362e-18)
(1.0141 0.0042122 5.1572e-18)
(0.99751 -0.0068999 2.5346e-18)
(1.0085 0.015138 -8.9627e-18)
(1.0146 0.0070742 -8.3277e-19)
(1.0109 0.024047 -2.8931e-18)
(0.99902 -0.0001805 -2.5909e-18)
(0.99926 -0.0012755 1.2144e-18)
(0.99966 -0.001757 -9.3738e-18)
(1.0005 -0.0025977 4.5445e-18)
(1.0007 -0.0025586 -1.4867e-17)
(1.0045 -0.0026073 3.2663e-18)
(0.99747 -0.0031621 2.6568e-17)
(1.0141 0.0041816 -1.9298e-17)
(0.99795 -0.0069388 -9.3212e-18)
(1.0086 0.014858 -8.8525e-18)
(1.0149 0.0069986 -4.0628e-18)
(1.0114 0.023667 -7.912e-19)
(0.99899 -0.00018214 3.2274e-18)
(0.99923 -0.0013025 -2.8842e-18)
(0.99963 -0.0017882 -9.0967e-18)
(1.0005 -0.0026565 -7.2469e-18)
(1.0007 -0.0026076 -2.4304e-17)
(1.0046 -0.0026769 -1.5145e-17)
(0.99746 -0.0032694 -1.629e-17)
(1.0141 0.0041449 1.7941e-17)
(0.99838 -0.0069779 9.0292e-18)
(1.0088 0.014576 1.3401e-17)
(1.0152 0.0069173 -1.5845e-18)
(1.0118 0.023287 3.814e-18)
(0.99896 -0.00018378 -5.1872e-18)
(0.9992 -0.0013298 4.6733e-18)
(0.99961 -0.0018197 2.2273e-17)
(1.0005 -0.0027163 -1.7092e-18)
(1.0006 -0.0026576 2.6889e-17)
(1.0047 -0.0027473 1.1435e-18)
(0.99746 -0.0033802 -1.5595e-17)
(1.0142 0.0041018 7.0172e-18)
(0.9988 -0.0070174 -3.2567e-18)
(1.0089 0.014294 -2.8066e-18)
(1.0154 0.0068306 5.144e-18)
(1.0122 0.02291 -2.5789e-18)
(0.99892 -0.00018542 4.2509e-18)
(0.99917 -0.0013575 -6.3513e-18)
(0.99958 -0.0018516 -2.5969e-17)
(1.0005 -0.0027771 1.1182e-17)
(1.0006 -0.0027086 -1.9155e-17)
(1.0048 -0.0028183 2.0934e-17)
(0.99746 -0.0034946 5.0849e-18)
(1.0142 0.0040525 -6.6822e-18)
(0.99922 -0.0070575 -1.5616e-18)
(1.0091 0.014011 -7.0153e-18)
(1.0157 0.0067388 -8.3698e-18)
(1.0127 0.022534 3.5489e-18)
(0.99888 -0.00018707 -3.1312e-18)
(0.99914 -0.0013857 2.112e-18)
(0.99955 -0.0018838 1.5779e-17)
(1.0005 -0.0028391 -1.474e-17)
(1.0006 -0.0027608 3.0819e-17)
(1.0049 -0.0028899 -1.6246e-17)
(0.99747 -0.0036126 2.9637e-18)
(1.0142 0.0039969 -1.0554e-17)
(0.99963 -0.0070983 5.0893e-18)
(1.0092 0.013728 -9.7681e-19)
(1.016 0.0066419 3.5849e-18)
(1.0131 0.02216 -1.5832e-18)
(0.99885 -0.00018872 3.8405e-18)
(0.9991 -0.0014142 1.6443e-18)
(0.99953 -0.0019164 -1.052e-17)
(1.0005 -0.0029021 -2.9981e-19)
(1.0005 -0.0028141 -1.3618e-18)
(1.0051 -0.0029621 3.9296e-18)
(0.99748 -0.0037343 2.8118e-17)
(1.0142 0.0039351 7.2185e-18)
(1 -0.00714 -1.5079e-17)
(1.0094 0.013445 -5.0735e-18)
(1.0163 0.0065401 -3.3546e-18)
(1.0135 0.021787 1.6475e-18)
(0.99881 -0.00019038 -4.402e-18)
(0.99907 -0.0014432 -6.0936e-18)