/*--------------------------------*- C++ -*----------------------------------*\
  =========                 |
  \\      /  F ield         | OpenFOAM: The Open Source CFD Toolbox
   \\    /   O peration     | Website:  https://openfoam.org
    \\  /    A nd           | Version:  6.0
     \\/     M anipulation  |
\*---------------------------------------------------------------------------*/
FoamFile
{
    version     2.0;
    format      ascii;
    class       volVectorField;
    location    "2";
    object      U;
}
// * * * * * * * * * * * * * * * * * * * * * * * * * * * * * * * * * * * * * //

dimensions      [0 1 -1 0 0 0 0];

internalField   nonuniform List<vector> 
17000
(
(1 -5.5669e-07 -4.3667e-18)
(1 -5.9394e-06 2.9475e-18)
(1 -1.0357e-05 -1.266e-17)
(1 -1.3574e-05 -8.7177e-18)
(1 -1.5148e-05 1.6398e-17)
(1 -1.3533e-05 3.0265e-17)
(1 -6.9115e-06 2.5999e-17)
(0.99999 6.959e-06 -4.1466e-18)
(0.99992 3.8446e-05 1.5237e-17)
(0.99983 6.3912e-05 3.2534e-18)
(0.99571 0.00075481 2.8197e-17)
(1.0191 0.010835 7.7531e-18)
(1 -1.7816e-06 2.7053e-18)
(1 -1.7094e-05 -8.9513e-18)
(1 -2.9696e-05 6.0455e-18)
(1 -3.9053e-05 -3.4373e-19)
(1 -4.2816e-05 -4.3732e-19)
(1 -3.7678e-05 -3.6392e-17)
(1 -1.7527e-05 -4.4905e-17)
(0.99997 2.4081e-05 -2.3726e-17)
(0.99974 0.0001261 -1.5207e-17)
(0.99992 0.00015275 -1.6089e-18)
(0.98618 0.0021852 -1.3353e-17)
(1.0538 0.030619 -4.6943e-18)
(1 -3.0013e-06 -3.4942e-18)
(1 -2.8371e-05 1.7784e-17)
(1 -4.9233e-05 3.1445e-18)
(1 -6.4823e-05 1.0051e-17)
(1 -7.0924e-05 -3.7814e-18)
(1.0001 -6.2186e-05 2.9151e-17)
(1 -2.8529e-05 -6.3216e-18)
(0.99995 4.0817e-05 5.3893e-18)
(0.99954 0.00022088 -1.8448e-17)
(1.0005 0.00025963 2.4442e-17)
(0.97601 0.0032598 -6.9795e-18)
(1.0825 0.045128 1.6464e-18)
(1 -4.1959e-06 9.1347e-18)
(1 -3.9876e-05 -1.7242e-17)
(1 -6.9134e-05 -1.4906e-17)
(1 -9.1065e-05 -7.0515e-19)
(1.0001 -9.9713e-05 5.8376e-18)
(1.0001 -8.7269e-05 -8.0919e-19)
(1.0001 -4.0156e-05 6.2282e-17)
(0.99995 5.6705e-05 9.7096e-18)
(0.99931 0.00032139 2.1815e-17)
(1.0014 0.00039042 -8.8534e-18)
(0.9656 0.0040025 3.398e-17)
(1.104 0.05564 -7.4936e-18)
(1 -5.3835e-06 -6.4185e-18)
(1 -5.1446e-05 1.4902e-17)
(1 -8.9108e-05 1.2689e-17)
(1.0001 -0.00011742 1.2864e-17)
(1.0001 -0.00012866 2.8624e-18)
(1.0001 -0.00011243 2.1425e-17)
(1.0001 -5.1973e-05 -2.7813e-17)
(0.99995 7.1909e-05 1.972e-18)
(0.99903 0.00042607 -1.3376e-17)
(1.0028 0.0005483 -2.1124e-18)
(0.95534 0.004462 -8.8166e-18)
(1.1183 0.063289 2.078e-18)
(1 -6.5628e-06 6.4956e-18)
(1 -6.3079e-05 -6.1776e-18)
(1 -0.00010915 3.8752e-18)
(1.0001 -0.00014388 -2.5482e-17)
(1.0001 -0.00015776 -8.3789e-20)
(1.0001 -0.00013769 -4.2414e-17)
(1.0001 -6.3995e-05 1.0674e-18)
(0.99997 8.6337e-05 -1.583e-17)
(0.9987 0.00053311 5.0935e-18)
(1.0046 0.00074088 -2.1287e-17)
(0.94559 0.0046796 -2.1211e-17)
(1.1259 0.068685 2.0082e-18)
(0.99999 -7.7333e-06 -1.0752e-18)
(1 -7.478e-05 -7.3884e-18)
(1 -0.00012927 -3.1494e-18)
(1.0001 -0.00017046 1.9234e-17)
(1.0001 -0.00018702 -2.6512e-17)
(1.0001 -0.00016306 1.6228e-17)
(1.0001 -7.6227e-05 1.8603e-17)
(0.99999 0.0001 5.5692e-18)
(0.99831 0.00064069 1.1387e-17)
(1.0066 0.00097552 1.146e-17)
(0.93665 0.0046923 9.1345e-18)
(1.1279 0.072258 3.2236e-18)
(0.99999 -8.8947e-06 -2.2193e-18)
(1 -8.6553e-05 -1.4534e-18)
(1 -0.00014947 -2.7131e-17)
(1.0001 -0.00019717 -9.1842e-18)
(1.0001 -0.00021647 7.4204e-18)
(1.0002 -0.00018855 2.6595e-17)
(1.0001 -8.868e-05 1.1841e-17)
(1 0.00011294 4.9716e-18)
(0.99785 0.0007469 -7.4425e-18)
(1.0089 0.0012571 1.6052e-17)
(0.92873 0.0045355 7.3731e-18)
(1.1253 0.074367 -1.025e-17)
(0.99999 -1.0046e-05 -6.8894e-18)
(1 -9.8401e-05 6.2487e-18)
(1 -0.00016974 4.5618e-17)
(1.0001 -0.00022401 -1.1016e-17)
(1.0002 -0.00024609 2.7789e-17)
(1.0002 -0.00021417 -5.2508e-17)
(1.0002 -0.00010137 -3.9445e-17)
(1.0001 0.00012525 9.6602e-18)
(0.99733 0.00084977 -5.5897e-18)
(1.0114 0.001588 -8.853e-18)
(0.922 0.0042432 -1.3627e-17)
(1.1191 0.07532 1.3408e-17)
(0.99999 -1.1187e-05 4.539e-18)
(1 -0.00011033 2.352e-18)
(1.0001 -0.0001901 -3.8642e-17)
(1.0001 -0.00025098 1.5678e-17)
(1.0002 -0.0002759 -1.2118e-17)
(1.0002 -0.00023995 2.2394e-17)
(1.0002 -0.00011432 1.4018e-17)
(1.0002 0.00013703 2.4416e-18)
(0.99674 0.00094732 5.279e-19)
(1.014 0.0019688 1.4026e-18)
(0.91656 0.0038471 4.3327e-18)
(1.1102 0.075369 -7.0288e-19)
(0.99998 -1.2317e-05 -2.4921e-18)
(1 -0.00012233 -7.7137e-18)
(1.0001 -0.00021054 9.4723e-18)
(1.0001 -0.00027811 -2.7661e-18)
(1.0002 -0.0003059 1.8706e-18)
(1.0002 -0.00026588 -2.4542e-17)
(1.0002 -0.00012755 -3.2286e-17)
(1.0002 0.00014846 -3.1016e-17)
(0.99608 0.0010376 1.5624e-17)
(1.0167 0.0023985 1.8218e-18)
(0.91245 0.0033763 -1.099e-17)
(1.0994 0.074721 -5.7767e-18)
(0.99998 -1.3435e-05 3.4397e-18)
(1 -0.00013442 2.9136e-18)
(1.0001 -0.00023106 4.565e-18)
(1.0001 -0.00030538 -2.2044e-18)
(1.0002 -0.0003361 -5.6074e-18)
(1.0003 -0.00029199 9.2824e-18)
(1.0002 -0.00014109 1.8689e-17)
(1.0004 0.00015976 1.916e-17)
(0.99536 0.0011187 1.0039e-17)
(1.0194 0.0028749 -2.3005e-17)
(0.90966 0.0028569 1.1657e-19)
(1.0874 0.073547 -6.6854e-18)
(0.99998 -1.4541e-05 -3.4391e-18)
(1 -0.0001466 5.7296e-18)
(1.0001 -0.00025167 8.2766e-18)
(1.0001 -0.00033281 5.7562e-18)
(1.0002 -0.00036651 -5.2009e-18)
(1.0003 -0.00031828 4.5632e-18)
(1.0002 -0.00015499 4.2617e-18)
(1.0005 0.00017119 -1.7111e-18)
(0.99458 0.0011887 -1.6225e-17)
(1.022 0.0033946 2.1333e-17)
(0.90815 0.0023123 1.0395e-19)
(1.0748 0.071985 1.4327e-18)
(0.99997 -1.5633e-05 5.2298e-18)
(1 -0.00015887 -4.4724e-18)
(1.0001 -0.00027237 7.2457e-19)
(1.0002 -0.00036041 -4.8017e-18)
(1.0003 -0.00039713 1.1812e-17)
(1.0003 -0.00034478 5.5674e-18)
(1.0003 -0.00016928 1.7148e-17)
(1.0006 0.00018305 -6.3541e-18)
(0.99375 0.0012459 -1.9823e-19)
(1.0246 0.0039535 5.2392e-18)
(0.90783 0.0017628 1.6666e-17)
(1.0622 0.07015 9.14e-19)
(0.99997 -1.6711e-05 1.2613e-18)
(1 -0.00017123 9.9259e-18)
(1.0001 -0.00029317 1.384e-17)
(1.0002 -0.00038817 -4.7873e-18)
(1.0003 -0.00042796 8.5529e-18)
(1.0004 -0.0003715 -2.5991e-18)
(1.0003 -0.00018402 -3.0034e-17)
(1.0008 0.00019568 2.0112e-17)
(0.99287 0.0012887 -1.8296e-17)
(1.027 0.0045472 -3.022e-17)
(0.90862 0.0012258 -3.6607e-18)
(1.0499 0.068133 8.4657e-19)
(0.99997 -1.7775e-05 -3.2179e-18)
(1 -0.00018369 -1.0556e-17)
(1.0001 -0.00031405 -3.3219e-17)
(1.0002 -0.00041612 8.0659e-18)
(1.0003 -0.00045901 -1.2979e-17)
(1.0004 -0.00039844 8.3327e-18)
(1.0003 -0.00019927 -2.8104e-18)
(1.001 0.00020945 -1.2107e-17)
(0.99196 0.0013154 4.0177e-18)
(1.0292 0.0051706 1.8046e-17)
(0.9104 0.00071578 -7.6757e-18)
(1.0382 0.066009 1.1744e-17)
(0.99996 -1.8824e-05 3.3858e-19)
(1 -0.00019624 7.8949e-18)
(1.0001 -0.00033503 2.2934e-17)
(1.0002 -0.00044425 -1.8165e-18)
(1.0003 -0.00049029 -1.2894e-17)
(1.0004 -0.00042563 -1.5528e-17)
(1.0003 -0.0002151 1.0734e-17)
(1.0012 0.00022475 6.9425e-18)
(0.99102 0.0013247 2.322e-17)
(1.0312 0.005819 -2.5265e-18)
(0.91304 0.00024431 1.906e-18)
(1.0273 0.063835 -4.6855e-18)
(0.99996 -1.9857e-05 -1.8996e-18)
(0.99999 -0.0002089 -9.5661e-18)
(1.0001 -0.00035611 -1.0349e-17)
(1.0002 -0.00047256 6.0702e-18)
(1.0003 -0.00052181 -7.2419e-18)
(1.0004 -0.00045308 -1.2455e-17)
(1.0003 -0.00023158 1.0436e-17)
(1.0015 0.00024202 -4.7101e-18)
(0.99006 0.0013152 -2.8735e-17)
(1.033 0.0064871 -1.4159e-17)
(0.91641 -0.00017958 8.2696e-18)
(1.0175 0.061658 -5.0795e-18)
(0.99995 -2.0873e-05 -2.72e-18)
(0.99999 -0.00022167 -3.6155e-18)
(1.0001 -0.00037729 -7.6688e-19)
(1.0002 -0.00050108 -2.6581e-17)
(1.0004 -0.00055356 6.0763e-18)
(1.0005 -0.00048079 5.4238e-18)
(1.0003 -0.00024879 -1.983e-17)
(1.0017 0.00026168 -1.6079e-17)
(0.9891 0.0012859 4.2032e-18)
(1.0346 0.0071702 -1.0632e-18)
(0.92038 -0.00054931 -9.5505e-18)
(1.0087 0.059515 9.6108e-19)
(0.99994 -2.1874e-05 3.538e-18)
(0.99999 -0.00023454 1.6574e-17)
(1.0001 -0.00039857 1.9748e-17)
(1.0002 -0.00052981 2.5036e-18)
(1.0004 -0.00058556 1.6797e-17)
(1.0005 -0.00050878 9.5041e-18)
(1.0003 -0.00026684 2.8622e-18)
(1.002 0.00028418 1.7598e-17)
(0.98814 0.0012359 2.0881e-17)
(1.0359 0.0078635 1.6907e-17)
(0.92482 -0.00086049 7.123e-18)
(1.0011 0.057432 1.1396e-18)
(0.99994 -2.2857e-05 -1.6863e-18)
(0.99998 -0.00024753 -3.9768e-18)
(1.0001 -0.00041995 -2.104e-17)
(1.0002 -0.00055875 -2.3699e-18)
(1.0004 -0.00061781 -1.2731e-17)
(1.0005 -0.00053706 -5.1418e-18)
(1.0003 -0.00028582 -1.8371e-18)
(1.0023 0.00030996 -1.5912e-17)
(0.9872 0.0011643 -1.9966e-17)
(1.0369 0.0085623 8.6645e-18)
(0.92962 -0.0011106 4.8616e-19)
(0.99455 0.055428 6.5382e-19)
(0.99993 -2.3823e-05 4.4698e-18)
(0.99998 -0.00026063 -5.1955e-18)
(1.0001 -0.00044144 -1.9733e-17)
(1.0002 -0.00058791 4.506e-17)
(1.0004 -0.00065031 1.8467e-17)
(1.0006 -0.00056565 -1.2582e-17)
(1.0003 -0.00030584 2.4697e-17)
(1.0027 0.00033946 2.1504e-17)
(0.98629 0.0010708 3.2397e-17)
(1.0376 0.0092624 -3.1755e-17)
(0.93467 -0.0012989 -1.3078e-17)
(0.98912 0.053517 1.723e-19)
(0.99992 -2.4771e-05 -3.2717e-18)
(0.99998 -0.00027385 -1.0426e-18)
(1.0001 -0.00046304 3.3689e-17)
(1.0002 -0.00061731 -3.4062e-17)
(1.0004 -0.00068308 -1.7777e-18)
(1.0006 -0.00059455 4.1688e-17)
(1.0003 -0.000327 7.6539e-18)
(1.003 0.00037308 -3.3221e-18)
(0.98542 0.00095501 -2.0092e-17)
(1.0381 0.0099596 3.7421e-17)
(0.93986 -0.001426 -5.536e-18)
(0.98472 0.051709 -2.7403e-19)
(0.99992 -2.57e-05 -1.6679e-18)
(0.99997 -0.0002872 -2.0774e-18)
(1.0001 -0.00048475 1.7542e-18)
(1.0002 -0.00064694 3.5436e-17)
(1.0004 -0.00071611 -1.0023e-17)
(1.0006 -0.00062377 -3.0812e-17)
(1.0003 -0.00034944 -1.9515e-17)
(1.0034 0.00041121 -3.5766e-18)
(0.98459 0.00081702 6.3532e-18)
(1.0383 0.01065 -3.1566e-17)
(0.9451 -0.0014936 9.2745e-18)
(0.98129 0.050007 2.9667e-18)
(0.99991 -2.6612e-05 2.7562e-18)
(0.99997 -0.00030067 1.4459e-17)
(1.0001 -0.00050657 -1.2938e-17)
(1.0003 -0.00067683 -3.7105e-18)
(1.0005 -0.00074942 -1.9236e-17)
(1.0007 -0.00065332 3.3521e-17)
(1.0003 -0.00037326 -1.7131e-17)
(1.0038 0.00045419 1.4824e-17)
(0.98382 0.00065707 -1.958e-18)
(1.0382 0.01133 2.9594e-17)
(0.95031 -0.0015045 -9.0446e-18)
(0.97872 0.048414 -4.9496e-18)
(0.9999 -2.7504e-05 -5.2863e-19)
(0.99996 -0.00031427 -8.3157e-18)
(1.0001 -0.00052851 -1.8116e-17)
(1.0003 -0.00070697 -1.0167e-17)
(1.0005 -0.00078301 1.8657e-17)
(1.0007 -0.00068321 -4.2744e-17)
(1.0003 -0.00039859 -2.6435e-18)
(1.0041 0.00050231 -2.0028e-17)
(0.98312 0.00047571 3.1627e-18)
(1.0379 0.011995 -8.5355e-18)
(0.95542 -0.0014621 9.6274e-18)
(0.97693 0.046928 2.099e-18)
(0.99989 -2.8378e-05 2.7692e-18)
(0.99995 -0.000328 -8.9074e-18)
(1.0001 -0.00055057 -1.7896e-18)
(1.0003 -0.00073738 2.4702e-18)
(1.0005 -0.00081688 5.905e-18)
(1.0007 -0.00071344 1.2351e-17)
(1.0003 -0.00042555 4.3339e-17)
(1.0045 0.00055581 2.3931e-18)
(0.98248 0.00027375 5.1536e-18)
(1.0374 0.012643 9.4063e-18)
(0.96038 -0.0013704 -8.2288e-18)
(0.97582 0.045548 1.6108e-18)
(0.99988 -2.9232e-05 -1.5879e-18)
(0.99995 -0.00034187 8.8992e-18)
(1.0001 -0.00057274 2.5751e-17)
(1.0003 -0.00076806 -2.489e-17)
(1.0005 -0.00085104 -9.1852e-18)
(1.0008 -0.00074403 -2.1729e-18)
(1.0002 -0.00045425 -1.4285e-17)
(1.0049 0.00061487 1.8564e-18)
(0.98192 5.2288e-05 -8.9296e-18)
(1.0367 0.013271 -3.4577e-18)
(0.96513 -0.0012339 -2.3011e-19)
(0.9753 0.044268 -1.9684e-18)
(0.99987 -3.0066e-05 -1.7067e-18)
(0.99994 -0.00035588 5.3266e-18)
(1.0001 -0.00059504 -6.2284e-19)
(1.0003 -0.00079903 8.2533e-18)
(1.0005 -0.00088549 -1.6948e-17)
(1.0008 -0.00077499 2.4588e-17)
(1.0002 -0.00048482 7.1253e-18)
(1.0054 0.00067958 -1.7711e-17)
(0.98145 -0.00018734 -1.145e-17)
(1.0358 0.013874 -1.3686e-17)
(0.96965 -0.0010573 1.306e-18)
(0.97527 0.043083 -3.604e-18)
(0.99986 -3.088e-05 5.9306e-19)
(0.99993 -0.00037004 -1.2721e-17)
(1.0001 -0.00061747 1.5945e-17)
(1.0003 -0.0008303 2.2827e-17)
(1.0006 -0.00092024 3.3219e-17)
(1.0009 -0.00080632 -1.8058e-17)
(1.0002 -0.00051735 -1.7715e-17)
(1.0058 0.00074998 3.5946e-18)
(0.98105 -0.00044355 1.0728e-17)
(1.0348 0.014452 1.0713e-17)
(0.97389 -0.00084544 6.0678e-18)
(0.97566 0.041987 3.5821e-18)
(0.99985 -3.1673e-05 1.1365e-18)
(0.99993 -0.00038435 1.0116e-17)
(1.0001 -0.00064002 -3.6635e-17)
(1.0003 -0.00086188 -3.3075e-18)
(1.0006 -0.0009553 -2.7595e-17)
(1.0009 -0.00083803 -1.1374e-17)
(1.0001 -0.00055194 2.488e-20)
(1.0062 0.00082601 -4.1099e-18)
(0.98074 -0.00071456 -2.1139e-17)
(1.0336 0.015001 -1.7103e-17)
(0.97785 -0.0006033 -8.2809e-18)
(0.97637 0.040974 -1.7641e-18)
(0.99984 -3.2445e-05 -7.3664e-19)
(0.99992 -0.00039881 -6.5786e-18)
(1.0001 -0.0006627 2.8825e-17)
(1.0003 -0.00089378 -3.1558e-17)
(1.0006 -0.00099067 -2.0754e-18)
(1.0009 -0.00087013 2.4221e-17)
(1.0001 -0.00058868 7.0879e-19)
(1.0066 0.00090755 3.9204e-18)
(0.98052 -0.00099839 1.8505e-17)
(1.0323 0.015519 2.2231e-17)
(0.98151 -0.00033575 4.7393e-18)
(0.97734 0.040037 -9.8419e-19)
(0.99983 -3.3195e-05 -1.9176e-18)
(0.99991 -0.00041342 -2.426e-18)
(1.0001 -0.00068552 -1.2778e-17)
(1.0003 -0.000926 1.5721e-17)
(1.0006 -0.0010264 3.0328e-17)
(1.001 -0.00090264 -1.0704e-17)
(1 -0.00062764 2.2064e-17)
(1.007 0.00099436 2.9384e-18)
(0.98038 -0.0012929 -2.0962e-18)
(1.0309 0.016004 1.0055e-17)
(0.98487 -4.7614e-05 -5.2894e-18)
(0.97851 0.039169 -6.8502e-19)
(0.99982 -3.3924e-05 4.796e-19)
(0.9999 -0.0004282 -6.4156e-18)
(1.0001 -0.00070847 4.7834e-18)
(1.0003 -0.00095856 -1.6022e-17)
(1.0006 -0.0010624 -3.2078e-17)
(1.001 -0.00093556 6.7453e-18)
(0.99997 -0.00066889 -3.183e-17)
(1.0074 0.0010862 -6.716e-18)
(0.98033 -0.0015959 6.7999e-18)
(1.0295 0.016455 -3.1562e-17)
(0.98793 0.00025648 3.6248e-18)
(0.97981 0.038364 1.9374e-18)
(0.99981 -3.463e-05 8.422e-19)
(0.99989 -0.00044315 1.7382e-17)
(1.0001 -0.00073155 8.0091e-18)
(1.0003 -0.00099148 6.5265e-18)
(1.0006 -0.0010987 2.5651e-17)
(1.0011 -0.00096891 2.0111e-18)
(0.99991 -0.00071246 2.1979e-17)
(1.0078 0.0011826 4.8179e-18)
(0.98035 -0.0019051 -2.0667e-17)
(1.028 0.016869 1.0866e-17)
(0.9907 0.00057209 2.4504e-18)
(0.98121 0.037614 2.0075e-18)
(0.9998 -3.5314e-05 -2.9407e-18)
(0.99988 -0.00045826 -5.7214e-18)
(1.0001 -0.00075478 -7.0368e-18)
(1.0003 -0.0010248 1.0718e-17)
(1.0007 -0.0011354 1.2392e-17)
(1.0011 -0.0010027 -4.0051e-18)
(0.99985 -0.00075837 -1.8462e-17)
(1.0082 0.0012832 2.1932e-17)
(0.98045 -0.0022181 3.8272e-18)
(1.0265 0.017247 -3.2821e-18)
(0.99318 0.00089503 1.0125e-17)
(0.98267 0.036915 -1.3946e-18)
(0.99978 -3.5974e-05 6.0425e-18)
(0.99987 -0.00047355 6.8516e-18)
(1.0001 -0.00077814 -7.4799e-18)
(1.0003 -0.0010584 -6.6763e-18)
(1.0007 -0.0011723 -1.7782e-17)
(1.0012 -0.001037 -6.8787e-18)
(0.99979 -0.00080664 9.1028e-18)
(1.0085 0.0013875 -3.5176e-17)
(0.98062 -0.0025327 9.3688e-18)
(1.025 0.017587 -3.8794e-18)
(0.9954 0.0012214 -1.0718e-17)
(0.98414 0.036259 4.0493e-18)
(0.99977 -3.661e-05 -2.6669e-18)
(0.99986 -0.00048902 -1.2038e-17)
(1.0001 -0.00080165 -7.2491e-18)
(1.0003 -0.0010925 -1.2669e-17)
(1.0007 -0.0012097 -5.4291e-18)
(1.0012 -0.0010717 2.0225e-17)
(0.99973 -0.00085726 -8.9422e-18)
(1.0089 0.001495 3.913e-17)
(0.98085 -0.0028465 8.8341e-18)
(1.0236 0.017888 1.1772e-17)
(0.99737 0.0015476 4.5172e-18)
(0.98561 0.035641 -6.5653e-18)
(0.99976 -3.7221e-05 -1.4145e-18)
(0.99985 -0.00050467 8.9525e-18)
(1.0001 -0.00082531 1.4363e-17)
(1.0003 -0.0011269 3.4158e-17)
(1.0007 -0.0012473 7.1965e-18)
(1.0013 -0.001107 -1.3873e-17)
(0.99966 -0.0009102 4.3152e-18)
(1.0092 0.0016049 -4.2095e-17)
(0.98115 -0.0031575 -1.0715e-17)
(1.0221 0.018152 -6.5453e-18)
(0.99911 0.0018705 4.429e-18)
(0.98705 0.035057 6.6002e-18)
(0.99974 -3.7807e-05 1.0825e-18)
(0.99984 -0.00052052 2.1192e-18)
(1 -0.00084911 -1.4105e-17)
(1.0003 -0.0011617 -5.6897e-18)
(1.0007 -0.0012853 9.1374e-18)
(1.0013 -0.0011428 1.6603e-17)
(0.9996 -0.0009654 1.5006e-17)
(1.0096 0.0017168 4.1674e-18)
(0.9815 -0.0034636 1.1987e-17)
(1.0207 0.018377 -3.0325e-18)
(1.0006 0.002187 -7.9048e-18)
(0.98845 0.034502 -1.7021e-18)
(0.99973 -3.8367e-05 -4.4328e-20)
(0.99983 -0.00053656 2.4152e-18)
(1 -0.00087306 3.1525e-18)
(1.0004 -0.001197 -7.3861e-18)
(1.0007 -0.0013237 8.4951e-20)
(1.0014 -0.0011793 -1.5054e-17)
(0.99953 -0.0010228 -1.015e-17)
(1.0099 0.0018298 3.0824e-17)
(0.9819 -0.003763 -1.8115e-17)
(1.0194 0.018565 1.1776e-17)
(1.002 0.0024946 4.1741e-18)
(0.98981 0.033972 -4.8048e-18)
(0.99971 -3.8901e-05 -3.3529e-18)
(0.99981 -0.00055279 -1.1327e-17)
(1 -0.00089717 8.0482e-18)
(1.0004 -0.0012327 -2.0172e-17)
(1.0007 -0.0013624 -2.3108e-17)
(1.0015 -0.0012163 -2.0796e-17)
(0.99945 -0.0010824 -2.0686e-17)
(1.0102 0.0019435 -3.1568e-18)
(0.98234 -0.004054 1.5831e-17)
(1.0182 0.018716 -1.0101e-17)
(1.0031 0.0027912 4.1463e-19)
(0.9911 0.033462 4.5251e-18)
(0.9997 -3.9408e-05 6.4714e-18)
(0.9998 -0.00056923 1.1838e-17)
(1 -0.00092143 -1.2979e-17)
(1.0004 -0.0012689 1.6561e-17)
(1.0008 -0.0014014 -2.7096e-18)
(1.0015 -0.001254 1.3631e-17)
(0.99938 -0.0011439 2.4865e-17)
(1.0105 0.0020569 -2.3908e-17)
(0.98281 -0.0043352 -8.0269e-18)
(1.017 0.018831 1.0665e-17)
(1.0042 0.0030748 3.604e-18)
(0.99233 0.03297 -2.1401e-18)
(0.99968 -3.9888e-05 -4.8558e-18)
(0.99979 -0.00058589 -3.4986e-18)
(1 -0.00094585 -2.7136e-18)
(1.0004 -0.0013056 1.8949e-17)
(1.0008 -0.0014407 -5.8008e-18)
(1.0016 -0.0012924 -1.7271e-19)
(0.99931 -0.0012074 -4.8655e-18)
(1.0107 0.0021696 1.9151e-17)
(0.98331 -0.0046052 -7.6206e-18)
(1.0159 0.018911 -7.3234e-18)
(1.005 0.0033439 -1.0653e-17)
(0.9935 0.032494 2.4869e-18)
(0.99966 -4.0339e-05 3.3007e-18)
(0.99978 -0.00060275 -4.436e-18)
(1 -0.00097043 6.2125e-18)
(1.0004 -0.0013427 -2.8751e-17)
(1.0008 -0.0014804 3.93e-17)
(1.0017 -0.0013315 5.6471e-18)
(0.99923 -0.0012728 1.9197e-17)
(1.011 0.0022808 -1.185e-17)
(0.98384 -0.0048632 1.0146e-19)
(1.0148 0.018958 5.4453e-18)
(1.0058 0.0035974 -2.0699e-18)
(0.99461 0.032029 -9.358e-19)
(0.99965 -4.0761e-05 -9.4424e-19)
(0.99976 -0.00061984 8.6708e-19)
(1 -0.00099518 1.5137e-17)
(1.0004 -0.0013803 7.8382e-18)
(1.0008 -0.0015205 -1.9647e-17)
(1.0017 -0.0013715 -1.1061e-17)
(0.99916 -0.0013398 3.3517e-18)
(1.0112 0.00239 -5.7603e-18)
(0.98439 -0.0051083 1.275e-17)
(1.0139 0.018973 -3.5748e-18)
(1.0065 0.0038343 9.9697e-18)
(0.99566 0.031575 -3.4133e-18)
(0.99963 -4.1154e-05 -1.6435e-18)
(0.99975 -0.00063715 -8.3583e-18)
(1 -0.0010201 -4.5005e-18)
(1.0004 -0.0014185 3.1475e-17)
(1.0008 -0.0015608 -1.7504e-17)
(1.0018 -0.0014123 -9.368e-19)
(0.99908 -0.0014084 -5.0126e-17)
(1.0115 0.0024965 5.6628e-18)
(0.98495 -0.00534 -2.3839e-17)
(1.0131 0.018959 -7.7186e-18)
(1.0071 0.004054 -9.9652e-18)
(0.99664 0.031129 2.0269e-18)
(0.99961 -4.1517e-05 -7.0948e-19)
(0.99973 -0.00065469 5.1784e-18)
(0.99999 -0.0010452 -1.8578e-18)
(1.0004 -0.0014572 -1.8327e-17)
(1.0008 -0.0016015 2.5154e-17)
(1.0019 -0.0014541 -2.3028e-18)
(0.99901 -0.0014785 2.6551e-17)
(1.0117 0.0025997 -3.4806e-18)
(0.98552 -0.005558 1.1575e-17)
(1.0123 0.018916 9.6531e-18)
(1.0076 0.0042561 8.22e-18)
(0.99758 0.03069 -4.897e-19)
(0.99959 -4.185e-05 4.0218e-18)
(0.99972 -0.00067247 -3.0982e-18)
(0.99998 -0.0010704 -6.499e-18)
(1.0004 -0.0014964 2.0002e-17)
(1.0008 -0.0016425 1.8458e-18)
(1.0019 -0.0014968 2.8551e-17)
(0.99893 -0.0015499 4.5801e-18)
(1.0119 0.0026993 1.663e-17)
(0.9861 -0.0057621 4.3427e-18)
(1.0116 0.018847 -3.1233e-18)
(1.0081 0.0044405 1.069e-18)
(0.99846 0.030257 4.4367e-19)
(0.99957 -4.2152e-05 1.1467e-18)
(0.9997 -0.00069049 1.2668e-18)
(0.99997 -0.0010958 -5.8929e-18)
(1.0004 -0.0015362 -3.9833e-17)
(1.0008 -0.0016839 5.5899e-18)
(1.002 -0.0015405 2.476e-18)
(0.99886 -0.0016226 -1.986e-17)
(1.0121 0.0027947 2.3384e-19)
(0.98668 -0.0059524 1.2793e-17)
(1.011 0.018753 -2.0077e-18)
(1.0085 0.0046072 -5.2029e-18)
(0.99929 0.029829 2.6129e-18)
(0.99955 -4.2422e-05 -4.9106e-18)
(0.99968 -0.00070876 5.3691e-18)
(0.99996 -0.0011214 9.7151e-19)
(1.0004 -0.0015766 2.2119e-17)
(1.0008 -0.0017255 -2.55e-17)
(1.0021 -0.0015854 -1.0937e-17)
(0.99878 -0.0016964 2.0312e-17)
(1.0123 0.0028855 -1.1263e-17)
(0.98726 -0.0061292 -2.0221e-17)
(1.0105 0.018637 -9.9196e-18)
(1.0089 0.0047566 6.6256e-18)
(1.0001 0.029404 8.7026e-19)
(0.99953 -4.2661e-05 -5.196e-19)
(0.99967 -0.00072729 -5.4027e-18)
(0.99995 -0.0011472 1.0346e-17)
(1.0004 -0.0016176 9.8073e-18)
(1.0008 -0.0017674 3.1494e-17)
(1.0022 -0.0016314 4.2014e-18)
(0.9987 -0.0017712 1.8041e-17)
(1.0124 0.0029715 2.8555e-17)
(0.98784 -0.0062928 -8.9176e-19)
(1.01 0.0185 1.7448e-17)
(1.0092 0.0048889 -7.0134e-19)
(1.0008 0.028982 -2.5415e-18)
(0.99951 -4.2868e-05 5.0363e-18)
(0.99965 -0.00074607 -7.8658e-18)
(0.99993 -0.0011732 -1.5703e-17)
(1.0004 -0.0016592 -2.6068e-18)
(1.0008 -0.0018097 -3.4182e-17)
(1.0023 -0.0016786 -1.2501e-17)
(0.99863 -0.001847 -6.2625e-18)
(1.0126 0.0030523 2.1305e-19)
(0.98841 -0.0064438 2.6311e-17)
(1.0096 0.018345 4.0196e-18)
(1.0096 0.0050047 -9.0876e-18)
(1.0016 0.028564 1.5233e-18)
(0.99949 -4.3042e-05 -5.6461e-18)
(0.99963 -0.00076512 9.8258e-18)
(0.99992 -0.0011993 8.22e-18)
(1.0004 -0.0017014 -5.1943e-18)
(1.0008 -0.0018522 2.7488e-17)
(1.0023 -0.001727 1.4955e-17)
(0.99855 -0.0019237 -4.9504e-18)
(1.0127 0.0031277 -2.8775e-17)
(0.98898 -0.0065828 -8.9527e-19)
(1.0093 0.018172 -1.1488e-17)
(1.0099 0.0051046 1.0757e-17)
(1.0022 0.028147 -1.9953e-18)
(0.99947 -4.3183e-05 3.3927e-18)
(0.99961 -0.00078444 -1.8802e-18)
(0.99991 -0.0012256 1.0884e-17)
(1.0004 -0.0017444 -2.1853e-17)
(1.0008 -0.001895 8.9754e-18)
(1.0024 -0.0017768 -5.3726e-18)
(0.99848 -0.0020014 -1.0666e-17)
(1.0129 0.0031975 -2.3096e-18)
(0.98953 -0.0067105 -3.1745e-17)
(1.009 0.017984 7.578e-18)
(1.0102 0.0051893 -9.8467e-18)
(1.0029 0.027733 6.6533e-19)
(0.99945 -4.3291e-05 2.6822e-19)
(0.99959 -0.00080404 -5.9147e-18)
(0.9999 -0.0012522 6.1803e-18)
(1.0004 -0.001788 2.8763e-17)
(1.0008 -0.0019381 -2.1378e-17)
(1.0025 -0.001828 1.7282e-17)
(0.9984 -0.0020799 -6.1671e-18)
(1.013 0.0032616 5.3486e-18)
(0.99009 -0.0068277 3.7712e-17)
(1.0088 0.017782 -1.4067e-17)
(1.0105 0.0052594 1.5048e-17)
(1.0035 0.027321 1.8815e-18)
(0.99942 -4.3367e-05 4.8142e-19)
(0.99957 -0.00082393 -1.224e-18)
(0.99988 -0.0012789 -8.8914e-18)
(1.0004 -0.0018323 -4.33e-18)
(1.0008 -0.0019814 1.8631e-17)
(1.0026 -0.0018805 1.3743e-19)
(0.99833 -0.0021592 -1.2122e-17)
(1.0131 0.0033199 -1.2768e-17)
(0.99063 -0.0069353 -1.5785e-17)
(1.0086 0.017567 -1.3274e-18)
(1.0108 0.0053157 2.7525e-18)
(1.0042 0.026911 1.9631e-19)
(0.9994 -4.3409e-05 -7.7473e-19)
(0.99955 -0.0008441 1.4567e-17)
(0.99987 -0.0013058 -5.9302e-18)
(1.0004 -0.0018773 -2.447e-17)
(1.0008 -0.0020251 8.5886e-18)
(1.0027 -0.0019344 -4.4032e-17)
(0.99826 -0.0022395 6.0468e-18)
(1.0133 0.0033723 8.0397e-18)
(0.99116 -0.0070339 7.3323e-19)
(1.0084 0.017342 1.4285e-17)
(1.0111 0.0053589 -9.2225e-19)
(1.0047 0.026502 -5.2553e-18)
(0.99937 -4.3419e-05 -2.0454e-19)
(0.99953 -0.00086457 -2.8587e-19)
(0.99985 -0.0013329 7.9829e-18)
(1.0004 -0.0019231 1.5107e-17)
(1.0008 -0.002069 -3.4128e-17)
(1.0028 -0.0019898 1.9021e-18)
(0.99818 -0.0023207 1.083e-17)
(1.0134 0.0034187 1.2591e-17)
(0.99168 -0.0071246 -9.9797e-18)
(1.0083 0.017107 -1.3907e-17)
(1.0114 0.0053899 -1.4918e-17)
(1.0053 0.026096 5.5479e-18)
(0.99935 -4.3395e-05 -1.3383e-18)
(0.99951 -0.00088534 4.0707e-19)
(0.99984 -0.0013602 -3.849e-18)
(1.0004 -0.0019696 -1.0087e-17)
(1.0008 -0.0021131 1.8918e-17)
(1.0029 -0.0020466 2.3634e-17)
(0.99811 -0.002403 3.1584e-18)
(1.0135 0.0034592 6.3802e-18)
(0.9922 -0.0072081 1.5916e-17)
(1.0083 0.016864 2.341e-18)
(1.0117 0.0054094 1.1026e-17)
(1.0059 0.025691 -3.3669e-18)
(0.99932 -4.3339e-05 2.4632e-18)
(0.99948 -0.00090643 7.5051e-19)
(0.99982 -0.0013877 -5.5005e-18)
(1.0004 -0.002017 1.4901e-18)
(1.0008 -0.0021576 -1.0257e-17)
(1.003 -0.0021049 -5.6692e-18)
(0.99805 -0.0024864 -1.1675e-18)
(1.0136 0.0034937 -2.881e-17)
(0.9927 -0.0072852 3.123e-18)
(1.0082 0.016613 -4.7444e-18)
(1.012 0.005418 -4.4846e-18)
(1.0064 0.025289 -4.0558e-18)
(0.99929 -4.3251e-05 -5.0269e-18)
(0.99946 -0.00092782 9.8051e-19)
(0.9998 -0.0014154 2.9177e-18)
(1.0004 -0.0020652 -1.8724e-17)
(1.0008 -0.0022023 -1.1692e-17)
(1.0031 -0.0021646 -2.6319e-17)
(0.99798 -0.002571 5.6334e-18)
(1.0136 0.0035223 1.1764e-17)
(0.9932 -0.0073567 -3.3495e-17)
(1.0082 0.016356 2.1878e-17)
(1.0123 0.0054165 -4.8477e-18)
(1.0069 0.024888 2.6163e-18)
(0.99927 -4.3132e-05 4.6144e-18)
(0.99944 -0.00094954 2.1943e-18)
(0.99978 -0.0014434 1.1219e-18)
(1.0004 -0.0021141 5.9384e-18)
(1.0008 -0.0022474 -2.5824e-18)
(1.0032 -0.0022257 5.1011e-17)
(0.99792 -0.002657 2.0225e-17)
(1.0137 0.0035449 -1.8296e-17)
(0.99369 -0.0074234 3.2236e-17)
(1.0082 0.016094 -8.1625e-18)
(1.0126 0.0054054 -3.1955e-18)
(1.0075 0.024489 -1.3034e-18)
(0.99924 -4.2981e-05 1.1318e-18)
(0.99941 -0.00097159 -1.3895e-17)
(0.99977 -0.0014716 2.2455e-18)
(1.0004 -0.002164 2.6668e-17)
(1.0008 -0.0022927 1.9986e-17)
(1.0033 -0.0022883 -8.2353e-19)
(0.99786 -0.0027446 -2.802e-17)
(1.0138 0.0035616 5.5405e-18)
(0.99417 -0.0074858 -7.2692e-18)
(1.0083 0.015827 -1.1296e-17)
(1.0128 0.0053855 8.1307e-18)
(1.008 0.024093 1.2164e-18)
(0.99921 -4.2799e-05 -4.4766e-18)
(0.99939 -0.00099397 -4.6322e-18)
(0.99975 -0.0014999 -1.2164e-17)
(1.0004 -0.0022147 -2.2366e-17)
(1.0008 -0.0023384 -2.011e-17)
(1.0034 -0.0023522 -2.3182e-17)
(0.9978 -0.0028338 5.174e-18)
(1.0139 0.0035723 4.3069e-17)
(0.99464 -0.0075448 3.1674e-18)
(1.0083 0.015556 -9.8591e-19)
(1.0131 0.0053573 -2.87e-18)
(1.0084 0.023698 -3.2641e-18)
(0.99918 -4.2589e-05 3.3218e-18)
(0.99936 -0.0010167 4.3031e-18)
(0.99973 -0.0015286 1.8744e-17)
(1.0004 -0.0022663 1.549e-17)
(1.0008 -0.0023845 1.9564e-17)
(1.0036 -0.0024174 -8.6161e-19)
(0.99774 -0.0029248 -2.8828e-17)
(1.0139 0.0035772 -2.328e-17)
(0.9951 -0.0076007 7.8598e-18)
(1.0084 0.015281 3.9098e-18)
(1.0134 0.0053212 6.4695e-18)
(1.0089 0.023306 2.5239e-18)
(0.99915 -4.235e-05 -2.3459e-18)
(0.99934 -0.0010398 6.7503e-18)
(0.9997 -0.0015574 -1.2402e-17)
(1.0004 -0.0023189 2.242e-18)
(1.0007 -0.0024309 9.0957e-18)
(1.0037 -0.0024838 -2.2663e-18)
(0.99769 -0.0030178 6.4728e-18)
(1.014 0.0035761 6.4641e-18)
(0.99556 -0.0076543 2.5856e-18)
(1.0084 0.015004 9.6633e-18)
(1.0137 0.0052778 -7.7801e-18)
(1.0094 0.022917 5.1023e-19)
(0.99912 -4.2083e-05 3.5418e-18)
(0.99931 -0.0010632 4.1835e-19)
(0.99968 -0.0015865 -5.8049e-18)
(1.0004 -0.0023724 8.9239e-19)
(1.0007 -0.0024778 -1.4949e-18)
(1.0038 -0.0025514 -2.2387e-17)
(0.99765 -0.0031131 1.8071e-17)
(1.014 0.0035691 2.2942e-17)
(0.99601 -0.0077059 -1.2878e-17)
(1.0085 0.014724 -1.3445e-17)
(1.014 0.0052275 -2.2732e-18)
(1.0098 0.022529 4.3365e-18)
(0.99909 -4.1792e-05 -2.5729e-18)
(0.99928 -0.001087 -3.222e-19)
(0.99966 -0.0016159 7.2175e-18)
(1.0004 -0.0024268 -1.7141e-17)
(1.0007 -0.0025252 -1.3512e-17)
(1.0039 -0.0026202 2.8263e-17)
(0.9976 -0.0032107 -2.7635e-18)
(1.0141 0.0035562 -2.4291e-17)
(0.99646 -0.0077559 3.2801e-18)
(1.0086 0.014443 1.2658e-17)
(1.0143 0.0051706 7.7063e-18)
(1.0103 0.022144 -1.5636e-18)
(0.99905 -4.1476e-05 2.5566e-19)
(0.99925 -0.0011111 2.36e-18)
(0.99964 -0.0016455 3.9434e-18)
(1.0004 -0.0024822 8.8613e-18)
(1.0007 -0.0025731 2.6483e-17)
(1.004 -0.00269 6.5895e-18)
(0.99757 -0.0033109 -2.4062e-17)
(1.0141 0.0035373 2.2761e-18)
(0.9969 -0.0078048 8.4482e-18)
(1.0087 0.01416 -1.1404e-17)
(1.0145 0.0051076 -5.2097e-18)
(1.0107 0.021761 -1.8078e-18)
(0.99902 -4.1138e-05 7.2589e-19)
(0.99922 -0.0011356 -4.1052e-19)
(0.99961 -0.0016753 -1.0405e-17)
(1.0004 -0.0025386 -1.9057e-19)
(1.0007 -0.0026216 -5.2359e-17)
(1.0041 -0.0027607 8.1249e-18)
(0.99753 -0.0034138 2.3637e-17)
(1.0142 0.0035125 -6.54e-18)
(0.99733 -0.0078528 -8.8477e-18)
(1.0088 0.013876 1.8937e-17)
(1.0148 0.0050388 6.2327e-18)
(1.0111 0.02138 4.6843e-18)
(0.99899 -4.078e-05 7.7972e-19)
(0.99919 -0.0011605 -8.5185e-19)
(0.99959 -0.0017055 1.8817e-17)
(1.0004 -0.002596 4.0871e-18)
(1.0006 -0.0026707 4.6398e-17)
(1.0043 -0.0028323 -2.8635e-17)
(0.99751 -0.0035197 -7.9149e-18)
(1.0142 0.0034817 6.1552e-18)
(0.99775 -0.0079003 3.0476e-18)
(1.0089 0.013591 -1.0655e-17)
(1.0151 0.0049643 -1.0093e-18)
(1.0116 0.021002 -3.4539e-18)
(0.99895 -4.0404e-05 -3.0472e-18)
(0.99916 -0.0011858 1.4302e-18)
(0.99956 -0.0017359 -1.106e-17)
(1.0004 -0.0026543 5.3743e-18)
(1.0006 -0.0027206 -1.763e-17)
(1.0044 -0.0029047 3.8832e-18)
(0.99748 -0.0036285 3.169e-17)
(1.0142 0.0034449 -2.3038e-17)
(0.99818 -0.0079474 -1.1203e-17)
(1.009 0.013305 -1.0539e-17)
(1.0153 0.0048846 -4.9551e-18)
(1.012 0.020625 -9.4794e-19)
(0.99892 -4.0013e-05 3.7957e-18)
(0.99913 -0.0012115 -3.3967e-18)
(0.99953 -0.0017666 -1.0733e-17)
(1.0004 -0.0027138 -8.57e-18)
(1.0006 -0.0027713 -2.8823e-17)
(1.0045 -0.0029778 -1.8011e-17)
(0.99747 -0.0037406 -1.9431e-17)
(1.0142 0.0034021 2.1421e-17)
(0.99859 -0.0079945 1.0859e-17)
(1.0092 0.013019 1.5959e-17)
(1.0156 0.0047997 -1.9392e-18)
(1.0124 0.020251 4.5749e-18)
(0.99888 -3.961e-05 -6.1003e-18)
(0.9991 -0.0012375 5.5035e-18)
(0.9995 -0.0017976 2.6279e-17)
(1.0004 -0.0027742 -2.0213e-18)
(1.0005 -0.0028229 3.1889e-17)
(1.0046 -0.0030516 1.3579e-18)
(0.99746 -0.003856 -1.861e-17)
(1.0143 0.0033532 8.3833e-18)
(0.999 -0.0080416 -3.9162e-18)
(1.0093 0.012732 -3.3417e-18)
(1.0159 0.0047099 6.2918e-18)
(1.0128 0.019879 -3.0937e-18)
(0.99884 -3.9199e-05 4.9991e-18)
(0.99907 -0.001264 -7.4795e-18)
(0.99947 -0.001829 -3.0638e-17)
(1.0004 -0.0028357 1.3223e-17)
(1.0005 -0.0028754 -2.2718e-17)
(1.0047 -0.0031259 2.4898e-17)
(0.99745 -0.0039749 6.0659e-18)
(1.0143 0.0032983 -7.9807e-18)
(0.99941 -0.008089 -1.8795e-18)
(1.0094 0.012446 -8.3682e-18)
(1.0161 0.0046154 -1.0256e-17)
(1.0132 0.01951 4.2738e-18)
(0.9988 -3.8782e-05 -3.6822e-18)
(0.99903 -0.0012909 2.4871e-18)
(0.99944 -0.0018607 1.8616e-17)
(1.0004 -0.0028982 -1.7432e-17)
(1.0005 -0.0029291 3.6553e-17)
(1.0049 -0.0032007 -1.9325e-17)
(0.99745 -0.0040972 3.536e-18)
(1.0143 0.0032373 -1.2613e-17)
(0.99981 -0.0081367 6.1333e-18)
(1.0095 0.012159 -1.1704e-18)
(1.0164 0.0045164 4.3901e-18)
(1.0135 0.019142 -1.9012e-18)
(0.99876 -3.8363e-05 4.5161e-18)
(0.999 -0.0013182 1.9363e-18)
(0.99941 -0.0018927 -1.2411e-17)
(1.0004 -0.0029617 -3.5456e-19)
(1.0004 -0.0029839 -1.6142e-18)
(1.005 -0.003276 4.6736e-18)
(0.99746 -0.0042232 3.3574e-17)
(1.0143 0.0031704 8.6278e-18)
(1.0002 -0.0081848 -1.8179e-17)
(1.0097 0.011872 -6.0677e-18)
(1.0166 0.0044128 -4.1278e-18)
(1.0139 0.018776 1.9954e-18)
(0.99872 -3.7948e-05 -5.1762e-18)