/*--------------------------------*- C++ -*----------------------------------*\
  =========                 |
  \\      /  F ield         | OpenFOAM: The Open Source CFD Toolbox
   \\    /   O peration     | Website:  https://openfoam.org
    \\  /    A nd           | Version:  6.0
     \\/     M anipulation  |
\*---------------------------------------------------------------------------*/
FoamFile
{
    version     2.0;
    format      ascii;
    class       volScalarField;
    location    "6";
    object      p;
}
// * * * * * * * * * * * * * * * * * * * * * * * * * * * * * * * * * * * * * //

dimensions      [0 2 -2 0 0 0 0];

internalField   nonuniform List<scalar> 
13500
(
0.10464
0.10487
0.10407
0.10385
0.1022
0.10184
0.10015
0.10034
0.10107
0.10309
0.12584
0.16555
0.10464
0.10487
0.10407
0.10385
0.1022
0.10184
0.10015
0.10034
0.10107
0.10315
0.12516
0.1605
0.10464
0.10487
0.10407
0.10385
0.1022
0.10184
0.10015
0.10034
0.10106
0.10319
0.12429
0.15601
0.10464
0.10487
0.10407
0.10385
0.1022
0.10184
0.10015
0.10034
0.10105
0.10321
0.12332
0.15252
0.10464
0.10488
0.10407
0.10385
0.1022
0.10184
0.10015
0.10033
0.10103
0.10321
0.12228
0.14957
0.10465
0.10488
0.10407
0.10386
0.1022
0.10184
0.10014
0.10033
0.10101
0.10321
0.12121
0.14694
0.10465
0.10488
0.10408
0.10386
0.1022
0.10185
0.10014
0.10033
0.10098
0.10319
0.12013
0.14455
0.10465
0.10489
0.10408
0.10387
0.1022
0.10185
0.10013
0.10032
0.10095
0.10315
0.11906
0.14237
0.10466
0.10489
0.10408
0.10387
0.1022
0.10185
0.10013
0.10032
0.10091
0.1031
0.11802
0.14035
0.10466
0.1049
0.10409
0.10388
0.10221
0.10186
0.10013
0.10031
0.10087
0.10304
0.117
0.13847
0.10467
0.10491
0.10409
0.10388
0.10221
0.10186
0.10012
0.1003
0.10082
0.10297
0.11602
0.1367
0.10467
0.10491
0.1041
0.10389
0.10221
0.10186
0.10011
0.1003
0.10077
0.10288
0.11509
0.13504
0.10468
0.10492
0.1041
0.1039
0.10221
0.10187
0.10011
0.10029
0.10071
0.10279
0.1142
0.13346
0.10469
0.10493
0.10411
0.10391
0.10222
0.10187
0.1001
0.10028
0.10065
0.10268
0.11335
0.13196
0.1047
0.10494
0.10412
0.10391
0.10222
0.10187
0.1001
0.10027
0.10059
0.10257
0.11254
0.13053
0.10471
0.10495
0.10412
0.10392
0.10223
0.10188
0.10009
0.10026
0.10051
0.10246
0.11177
0.12917
0.10472
0.10496
0.10413
0.10393
0.10223
0.10188
0.10008
0.10025
0.10044
0.10233
0.11103
0.12786
0.10473
0.10497
0.10414
0.10394
0.10224
0.10189
0.10008
0.10023
0.10035
0.10221
0.11032
0.12661
0.10474
0.10498
0.10415
0.10395
0.10224
0.10189
0.10007
0.10022
0.10027
0.10208
0.10964
0.1254
0.10475
0.10499
0.10416
0.10396
0.10225
0.1019
0.10006
0.10021
0.10017
0.10195
0.10899
0.12424
0.10476
0.10501
0.10418
0.10398
0.10226
0.1019
0.10005
0.10019
0.10008
0.10182
0.10835
0.12312
0.10478
0.10502
0.10419
0.10399
0.10226
0.10191
0.10005
0.10017
0.099978
0.1017
0.10774
0.12203
0.10479
0.10504
0.1042
0.104
0.10227
0.10192
0.10004
0.10016
0.099873
0.10157
0.10714
0.12098
0.10481
0.10505
0.10422
0.10402
0.10228
0.10192
0.10003
0.10014
0.099764
0.10144
0.10655
0.11996
0.10482
0.10507
0.10423
0.10403
0.10229
0.10193
0.10002
0.10012
0.099652
0.10132
0.10598
0.11896
0.10484
0.10508
0.10425
0.10404
0.1023
0.10194
0.10001
0.1001
0.099537
0.1012
0.10541
0.11799
0.10486
0.1051
0.10426
0.10406
0.10231
0.10194
0.1
0.10008
0.099419
0.10108
0.10485
0.11704
0.10488
0.10512
0.10428
0.10408
0.10232
0.10195
0.099994
0.10006
0.099299
0.10097
0.1043
0.11611
0.1049
0.10514
0.1043
0.10409
0.10233
0.10196
0.099985
0.10003
0.099178
0.10085
0.10376
0.11521
0.10492
0.10516
0.10432
0.10411
0.10234
0.10197
0.099975
0.10001
0.099054
0.10074
0.10322
0.11432
0.10494
0.10518
0.10433
0.10413
0.10236
0.10198
0.099965
0.099981
0.098929
0.10063
0.10269
0.11345
0.10496
0.1052
0.10435
0.10415
0.10237
0.10199
0.099954
0.099953
0.098804
0.10052
0.10216
0.1126
0.10498
0.10522
0.10438
0.10417
0.10238
0.10199
0.099944
0.099925
0.098678
0.10041
0.10164
0.11176
0.10501
0.10524
0.1044
0.10419
0.10239
0.102
0.099933
0.099895
0.098551
0.1003
0.10112
0.11094
0.10503
0.10527
0.10442
0.10421
0.10241
0.10201
0.099922
0.099864
0.098425
0.10019
0.10061
0.11014
0.10506
0.10529
0.10444
0.10423
0.10242
0.10202
0.09991
0.099832
0.098299
0.10008
0.1001
0.10935
0.10508
0.10532
0.10447
0.10425
0.10244
0.10203
0.099899
0.099799
0.098174
0.09997
0.099598
0.10857
0.10511
0.10534
0.10449
0.10427
0.10245
0.10204
0.099887
0.099765
0.098049
0.099861
0.0991
0.10781
0.10514
0.10537
0.10452
0.1043
0.10247
0.10206
0.099875
0.09973
0.097925
0.09975
0.098606
0.10706
0.10517
0.1054
0.10454
0.10432
0.10249
0.10207
0.099862
0.099695
0.097802
0.099638
0.098118
0.10633
0.10519
0.10542
0.10457
0.10434
0.10251
0.10208
0.099849
0.099658
0.097681
0.099525
0.097635
0.1056
0.10522
0.10545
0.1046
0.10437
0.10252
0.10209
0.099836
0.099621
0.09756
0.09941
0.097158
0.1049
0.10526
0.10548
0.10463
0.10439
0.10254
0.1021
0.099822
0.099584
0.097441
0.099294
0.096688
0.1042
0.10529
0.10551
0.10465
0.10442
0.10256
0.10212
0.099808
0.099546
0.097323
0.099176
0.096223
0.10352
0.10532
0.10554
0.10468
0.10445
0.10258
0.10213
0.099794
0.099508
0.097207
0.099056
0.095765
0.10285
0.10535
0.10558
0.10472
0.10448
0.1026
0.10214
0.099779
0.09947
0.097092
0.098934
0.095314
0.10219
0.10539
0.10561
0.10475
0.1045
0.10262
0.10215
0.099764
0.099431
0.096978
0.098811
0.09487
0.10154
0.10542
0.10564
0.10478
0.10453
0.10264
0.10217
0.099749
0.099393
0.096865
0.098685
0.094432
0.10091
0.10546
0.10568
0.10481
0.10456
0.10266
0.10218
0.099733
0.099355
0.096753
0.098557
0.094002
0.10029
0.1055
0.10571
0.10485
0.10459
0.10269
0.1022
0.099716
0.099317
0.096643
0.098427
0.093578
0.099679
0.10553
0.10575
0.10488
0.10462
0.10271
0.10221
0.0997
0.099279
0.096533
0.098295
0.093162
0.09908
0.10557
0.10578
0.10492
0.10466
0.10273
0.10223
0.099683
0.099242
0.096424
0.098162
0.092754
0.098494
0.10561
0.10582
0.10495
0.10469
0.10275
0.10224
0.099665
0.099205
0.096317
0.098026
0.092352
0.097918
0.10565
0.10586
0.10499
0.10472
0.10278
0.10226
0.099647
0.099169
0.096209
0.097888
0.091958
0.097353
0.10569
0.1059
0.10503
0.10476
0.1028
0.10227
0.099629
0.099134
0.096102
0.097749
0.091571
0.096799
0.10573
0.10594
0.10507
0.10479
0.10283
0.10229
0.099611
0.099099
0.095996
0.097608
0.091191
0.096256
0.10578
0.10598
0.1051
0.10483
0.10285
0.1023
0.099592
0.099065
0.09589
0.097466
0.090819
0.095723
0.10582
0.10602
0.10514
0.10486
0.10288
0.10232
0.099573
0.099033
0.095784
0.097321
0.090453
0.0952
0.10586
0.10606
0.10518
0.1049
0.10291
0.10234
0.099553
0.099001
0.095678
0.097176
0.090095
0.094686
0.10591
0.1061
0.10523
0.10493
0.10294
0.10236
0.099533
0.09897
0.095573
0.097029
0.089743
0.094183
0.10595
0.10615
0.10527
0.10497
0.10296
0.10237
0.099514
0.09894
0.095467
0.096881
0.089398
0.093688
0.106
0.10619
0.10531
0.10501
0.10299
0.10239
0.099493
0.09891
0.095361
0.096731
0.08906
0.093203
0.10605
0.10624
0.10535
0.10505
0.10302
0.10241
0.099473
0.098882
0.095255
0.09658
0.088729
0.092726
0.10609
0.10628
0.1054
0.10509
0.10305
0.10242
0.099453
0.098855
0.095149
0.096429
0.088404
0.092258
0.10614
0.10633
0.10544
0.10513
0.10308
0.10244
0.099432
0.098829
0.095043
0.096276
0.088085
0.091798
0.10619
0.10638
0.10549
0.10517
0.10311
0.10246
0.099412
0.098803
0.094936
0.096123
0.087772
0.091346
0.10624
0.10642
0.10554
0.10521
0.10314
0.10248
0.099391
0.098778
0.094829
0.095968
0.087466
0.090902
0.10629
0.10647
0.10558
0.10525
0.10317
0.1025
0.099371
0.098754
0.094721
0.095813
0.087165
0.090465
0.10634
0.10652
0.10563
0.10529
0.1032
0.10252
0.099351
0.098731
0.094614
0.095657
0.08687
0.090035
0.1064
0.10657
0.10568
0.10534
0.10323
0.10253
0.09933
0.098709
0.094506
0.095501
0.08658
0.089613
0.10645
0.10662
0.10573
0.10538
0.10327
0.10255
0.09931
0.098687
0.094397
0.095344
0.086295
0.089197
0.1065
0.10667
0.10578
0.10542
0.1033
0.10257
0.09929
0.098665
0.094288
0.095186
0.086016
0.088788
0.10656
0.10673
0.10583
0.10547
0.10333
0.10259
0.099271
0.098644
0.094179
0.095028
0.085742
0.088386
0.10661
0.10678
0.10588
0.10551
0.10337
0.10261
0.099251
0.098624
0.09407
0.09487
0.085473
0.087989
0.10667
0.10683
0.10593
0.10556
0.1034
0.10263
0.099232
0.098603
0.093961
0.094711
0.085209
0.087599
0.10672
0.10689
0.10598
0.10561
0.10343
0.10265
0.099214
0.098583
0.093851
0.094552
0.084949
0.087214
0.10678
0.10694
0.10603
0.10565
0.10347
0.10267
0.099195
0.098563
0.093741
0.094392
0.084693
0.086835
0.10684
0.107
0.10609
0.1057
0.1035
0.10269
0.099177
0.098543
0.093631
0.094233
0.084442
0.086461
0.1069
0.10705
0.10614
0.10575
0.10354
0.10271
0.09916
0.098523
0.093522
0.094073
0.084196
0.086093
0.10696
0.10711
0.1062
0.1058
0.10357
0.10273
0.099142
0.098503
0.093412
0.093914
0.083953
0.085729
0.10702
0.10717
0.10625
0.10585
0.10361
0.10275
0.099126
0.098483
0.093302
0.093754
0.083714
0.085371
0.10708
0.10722
0.10631
0.10589
0.10365
0.10277
0.099109
0.098462
0.093192
0.093594
0.083479
0.085017
0.10714
0.10728
0.10636
0.10594
0.10368
0.10279
0.099094
0.098441
0.093082
0.093434
0.083248
0.084668
0.1072
0.10734
0.10642
0.10599
0.10372
0.10281
0.099078
0.098419
0.092972
0.093274
0.083021
0.084324
0.10726
0.1074
0.10648
0.10604
0.10376
0.10283
0.099063
0.098397
0.092863
0.093115
0.082797
0.083984
0.10732
0.10746
0.10653
0.1061
0.10379
0.10285
0.099049
0.098375
0.092754
0.092955
0.082576
0.083648
0.10739
0.10752
0.10659
0.10615
0.10383
0.10287
0.099035
0.098352
0.092645
0.092796
0.082359
0.083316
0.10745
0.10758
0.10665
0.1062
0.10387
0.10289
0.099021
0.098328
0.092536
0.092637
0.082145
0.082988
0.10751
0.10764
0.10671
0.10625
0.10391
0.10291
0.099008
0.098303
0.092428
0.092478
0.081934
0.082665
0.10758
0.10771
0.10677
0.1063
0.10394
0.10293
0.098995
0.098278
0.09232
0.092319
0.081726
0.082345
0.10764
0.10777
0.10683
0.10636
0.10398
0.10295
0.098983
0.098252
0.092212
0.09216
0.081521
0.082029
0.10771
0.10783
0.10689
0.10641
0.10402
0.10297
0.098971
0.098225
0.092105
0.092002
0.081319
0.081717
0.10777
0.1079
0.10695
0.10646
0.10406
0.10299
0.098959
0.098197
0.091998
0.091844
0.08112
0.081408
0.10784
0.10796
0.10701
0.10652
0.1041
0.10301
0.098947
0.098168
0.091892
0.091687
0.080924
0.081103
0.10791
0.10802
0.10707
0.10657
0.10413
0.10303
0.098936
0.098139
0.091786
0.091529
0.080731
0.080801
0.10797
0.10809
0.10713
0.10662
0.10417
0.10306
0.098925
0.098108
0.091681
0.091372
0.08054
0.080503
0.10804
0.10816
0.10719
0.10668
0.10421
0.10308
0.098914
0.098077
0.091576
0.091216
0.080351
0.080208
0.10811
0.10822
0.10725
0.10673
0.10425
0.1031
0.098903
0.098044
0.091472
0.091059
0.080165
0.079917
0.10818
0.10829
0.10732
0.10679
0.10429
0.10312
0.098893
0.098011
0.091368
0.090903
0.079982
0.079628
0.10824
0.10836
0.10738
0.10684
0.10433
0.10315
0.098882
0.097976
0.091264
0.090748
0.079801
0.079343
0.10831
0.10842
0.10744
0.1069
0.10436
0.10317
0.098872
0.097941
0.091161
0.090592
0.079622
0.079061
0.10838
0.10849
0.1075
0.10696
0.1044
0.10319
0.098861
0.097904
0.091059
0.090437
0.079446
0.078783
0.10845
0.10856
0.10757
0.10701
0.10444
0.10321
0.09885
0.097867
0.090957
0.090283
0.079272
0.078507
0.10852
0.10863
0.10763
0.10707
0.10448
0.10324
0.098839
0.097829
0.090855
0.090128
0.0791
0.078234
0.10859
0.1087
0.1077
0.10713
0.10452
0.10326
0.098828
0.097789
0.090754
0.089974
0.07893
0.077964
0.10866
0.10877
0.10776
0.10718
0.10455
0.10329
0.098817
0.097749
0.090654
0.089821
0.078762
0.077697
0.10874
0.10884
0.10783
0.10724
0.10459
0.10331
0.098806
0.097708
0.090554
0.089667
0.078596
0.077433
0.10881
0.10891
0.10789
0.1073
0.10463
0.10333
0.098794
0.097666
0.090454
0.089514
0.078432
0.077171
0.10888
0.10898
0.10796
0.10736
0.10467
0.10336
0.098782
0.097623
0.090355
0.089361
0.078269
0.076912
0.10895
0.10905
0.10802
0.10742
0.10471
0.10338
0.09877
0.097579
0.090256
0.089208
0.078109
0.076656
0.10903
0.10912
0.10809
0.10747
0.10474
0.10341
0.098758
0.097534
0.090158
0.089056
0.07795
0.076403
0.1091
0.1092
0.10816
0.10753
0.10478
0.10344
0.098745
0.097488
0.09006
0.088903
0.077794
0.076152
0.10917
0.10927
0.10822
0.10759
0.10482
0.10346
0.098732
0.097442
0.089963
0.088751
0.077638
0.075903
0.10925
0.10935
0.10829
0.10765
0.10486
0.10349
0.098719
0.097394
0.089866
0.088599
0.077485
0.075657
0.10932
0.10942
0.10836
0.10771
0.1049
0.10351
0.098705
0.097346
0.089769
0.088447
0.077333
0.075414
0.1094
0.1095
0.10843
0.10777
0.10493
0.10354
0.098691
0.097297
0.089673
0.088295
0.077182
0.075172
0.10947
0.10957
0.1085
0.10783
0.10497
0.10357
0.098677
0.097247
0.089577
0.088143
0.077033
0.074933
0.10955
0.10965
0.10857
0.10789
0.10501
0.10359
0.098662
0.097197
0.089482
0.087991
0.076885
0.074696
0.10963
0.10973
0.10864
0.10796
0.10505
0.10362
0.098647
0.097146
0.089387
0.08784
0.076738
0.074461
0.10971
0.1098
0.10871
0.10802
0.10509
0.10365
0.098632
0.097094
0.089292
0.087688
0.076593
0.074229
0.10979
0.10988
0.10878
0.10808
0.10513
0.10368
0.098617
0.097042
0.089198
0.087536
0.076449
0.073998
0.10987
0.10996
0.10885
0.10815
0.10517
0.10371
0.098602
0.096989
0.089104
0.087384
0.076306
0.073769
0.10995
0.11005
0.10892
0.10821
0.10521
0.10374
0.098586
0.096935
0.08901
0.087232
0.076164
0.073542
0.11003
0.11013
0.109
0.10828
0.10525
0.10377
0.098571
0.096881
0.088917
0.087081
0.076024
0.073317
0.11011
0.11021
0.10907
0.10834
0.10529
0.10379
0.098556
0.096827
0.088824
0.086929
0.075884
0.073093
0.1102
0.1103
0.10915
0.10841
0.10533
0.10382
0.09854
0.096772
0.088732
0.086777
0.075745
0.072872
0.11028
0.11038
0.10923
0.10848
0.10537
0.10386
0.098525
0.096717
0.08864
0.086625
0.075607
0.072651
0.11037
0.11047
0.1093
0.10855
0.10542
0.10389
0.09851
0.096661
0.088549
0.086473
0.07547
0.072433
0.11045
0.11056
0.10938
0.10862
0.10546
0.10392
0.098495
0.096606
0.088458
0.08632
0.075334
0.072215
0.11054
0.11065
0.10947
0.10869
0.1055
0.10395
0.098481
0.09655
0.088368
0.086168
0.075198
0.071999
0.11063
0.11074
0.10955
0.10876
0.10555
0.10398
0.098467
0.096494
0.088278
0.086016
0.075063
0.071784
0.11073
0.11084
0.10963
0.10884
0.1056
0.10402
0.098454
0.096438
0.088189
0.085864
0.074929
0.071571
0.11082
0.11093
0.10972
0.10891
0.10565
0.10405
0.098442
0.096383
0.0881
0.085712
0.074795
0.071358
0.11092
0.11103
0.10981
0.10899
0.1057
0.10409
0.098431
0.096327
0.088013
0.085559
0.074663
0.071147
0.11102
0.11113
0.1099
0.10907
0.10575
0.10412
0.09842
0.096272
0.087926
0.085407
0.07453
0.070936
0.11112
0.11123
0.10999
0.10915
0.10581
0.10416
0.098411
0.096218
0.08784
0.085255
0.074398
0.070727
0.11122
0.11134
0.11008
0.10924
0.10586
0.1042
0.098403
0.096164
0.087754
0.085104
0.074267
0.070518
0.11132
0.11145
0.11018
0.10932
0.10592
0.10424
0.098396
0.096111
0.08767
0.084952
0.074136
0.07031
0.11143
0.11156
0.11028
0.10941
0.10598
0.10428
0.098391
0.096059
0.087587
0.084801
0.074006
0.070103
0.11154
0.11167
0.11039
0.10951
0.10605
0.10433
0.098388
0.096008
0.087505
0.08465
0.073876
0.069896
0.11166
0.11179
0.11049
0.1096
0.10611
0.10437
0.098387
0.095958
0.087425
0.084499
0.073746
0.06969
0.11178
0.11191
0.1106
0.1097
0.10618
0.10442
0.098388
0.095909
0.087346
0.084349
0.073617
0.069484
0.1119
0.11204
0.11072
0.1098
0.10626
0.10447
0.098391
0.095862
0.087268
0.0842
0.073489
0.069279
0.11202
0.11217
0.11084
0.10991
0.10633
0.10452
0.098397
0.095816
0.087192
0.084051
0.07336
0.069074
0.11215
0.1123
0.11096
0.11002
0.10641
0.10458
0.098405
0.095773
0.087118
0.083903
0.073233
0.068869
0.11229
0.11244
0.11109
0.11014
0.1065
0.10464
0.098417
0.095731
0.087046
0.083756
0.073106
0.068665
0.11243
0.11259
0.11122
0.11026
0.10659
0.1047
0.098432
0.095692
0.086975
0.083609
0.072979
0.068461
0.11257
0.11273
0.11135
0.11038
0.10668
0.10477
0.09845
0.095656
0.086907
0.083464
0.072853
0.068257
0.11272
0.11289
0.1115
0.11051
0.10678
0.10483
0.098472
0.095622
0.086842
0.08332
0.072727
0.068053
0.11287
0.11305
0.11164
0.11065
0.10688
0.10491
0.098498
0.095591
0.086779
0.083178
0.072602
0.067849
0.11303
0.11321
0.1118
0.11079
0.10699
0.10499
0.098528
0.095563
0.086719
0.083037
0.072477
0.067645
0.1132
0.11338
0.11196
0.11094
0.1071
0.10507
0.098563
0.095539
0.086662
0.082897
0.072353
0.067441
0.11337
0.11356
0.11212
0.1111
0.10722
0.10516
0.098603
0.095518
0.086607
0.082759
0.07223
0.067237
0.11355
0.11375
0.1123
0.11126
0.10735
0.10525
0.098648
0.095502
0.086557
0.082623
0.072107
0.067033
0.11373
0.11394
0.11248
0.11143
0.10749
0.10535
0.098698
0.09549
0.08651
0.08249
0.071986
0.066829
0.11392
0.11414
0.11267
0.1116
0.10763
0.10545
0.098755
0.095482
0.086466
0.082358
0.071864
0.066624
0.11412
0.11435
0.11286
0.11179
0.10778
0.10556
0.098817
0.095479
0.086427
0.082229
0.071744
0.066419
0.11433
0.11456
0.11307
0.11198
0.10793
0.10568
0.098886
0.095482
0.086391
0.082102
0.071625
0.066214
0.11454
0.11479
0.11328
0.11219
0.1081
0.10581
0.098962
0.095489
0.08636
0.081978
0.071506
0.066008
0.11477
0.11502
0.1135
0.1124
0.10827
0.10594
0.099044
0.095502
0.086334
0.081856
0.071388
0.065802
0.115
0.11527
0.11373
0.11262
0.10846
0.10608
0.099135
0.095522
0.086313
0.081738
0.071271
0.065596
0.11524
0.11552
0.11398
0.11285
0.10865
0.10623
0.099233
0.095547
0.086296
0.081623
0.071155
0.065388
0.11549
0.11578
0.11423
0.11309
0.10885
0.10639
0.099339
0.095579
0.086285
0.081511
0.07104
0.06518
0.11575
0.11605
0.11449
0.11335
0.10907
0.10656
0.099454
0.095617
0.086279
0.081402
0.070926
0.064972
0.11602
0.11634
0.11476
0.11361
0.10929
0.10674
0.099577
0.095663
0.086278
0.081296
0.070813
0.064762
0.1163
0.11663
0.11505
0.11389
0.10953
0.10692
0.09971
0.095716
0.086284
0.081195
0.070701
0.064551
0.11659
0.11693
0.11534
0.11417
0.10977
0.10712
0.099852
0.095776
0.086295
0.081096
0.07059
0.064339
0.11689
0.11725
0.11565
0.11447
0.11003
0.10733
0.1
0.095844
0.086312
0.081002
0.070479
0.064126
0.1172
0.11758
0.11597
0.11479
0.1103
0.10755
0.10017
0.095919
0.086335
0.08091
0.07037
0.063912
0.11752
0.11791
0.1163
0.11511
0.11058
0.10778
0.10034
0.096003
0.086365
0.080823
0.07026
0.063696
0.11785
0.11826
0.11665
0.11545
0.11088
0.10802
0.10052
0.096095
0.086401
0.080739
0.070152
0.063478
0.11819
0.11863
0.117
0.1158
0.11119
0.10827
0.10071
0.096195
0.086443
0.080659
0.070043
0.063257
0.11854
0.119
0.11737
0.11616
0.11151
0.10854
0.10092
0.096303
0.086491
0.080583
0.069935
0.063035
0.11891
0.11938
0.11776
0.11654
0.11185
0.10882
0.10113
0.09642
0.086545
0.080509
0.069827
0.06281
0.11928
0.11978
0.11815
0.11693
0.11219
0.1091
0.10136
0.096544
0.086606
0.080439
0.069718
0.062582
0.11967
0.12019
0.11856
0.11733
0.11256
0.10941
0.1016
0.096678
0.086672
0.080372
0.069609
0.06235
0.12006
0.12061
0.11898
0.11775
0.11293
0.10972
0.10184
0.096819
0.086745
0.080307
0.069498
0.062115
0.12047
0.12105
0.11942
0.11818
0.11332
0.11005
0.1021
0.096968
0.086822
0.080245
0.069387
0.061876
0.12089
0.12149
0.11987
0.11862
0.11373
0.11038
0.10237
0.097125
0.086905
0.080185
0.069273
0.061631
0.12131
0.12195
0.12033
0.11908
0.11415
0.11074
0.10266
0.09729
0.086993
0.080127
0.069157
0.061382
0.12175
0.12241
0.1208
0.11955
0.11458
0.1111
0.10295
0.097462
0.087086
0.080069
0.069038
0.061127
0.1222
0.12289
0.12129
0.12003
0.11503
0.11147
0.10325
0.097641
0.087182
0.080012
0.068916
0.060865
0.12265
0.12338
0.12179
0.12053
0.11549
0.11186
0.10356
0.097826
0.087282
0.079955
0.068789
0.060597
0.12312
0.12388
0.1223
0.12104
0.11596
0.11226
0.10389
0.098017
0.087385
0.079897
0.068658
0.06032
0.12359
0.12439
0.12282
0.12156
0.11645
0.11267
0.10422
0.098214
0.08749
0.079838
0.068521
0.060035
0.12408
0.12491
0.12336
0.12209
0.11695
0.11309
0.10456
0.098415
0.087597
0.079776
0.068378
0.059741
0.12457
0.12544
0.1239
0.12264
0.11746
0.11352
0.10492
0.098621
0.087704
0.079711
0.068227
0.059436
0.12506
0.12598
0.12446
0.12319
0.11799
0.11396
0.10528
0.098831
0.087812
0.079642
0.068068
0.059121
0.12557
0.12652
0.12503
0.12376
0.11853
0.11441
0.10565
0.099044
0.08792
0.079569
0.067899
0.058793
0.12608
0.12708
0.12561
0.12434
0.11909
0.11487
0.10602
0.099259
0.088026
0.079489
0.06772
0.058452
0.1266
0.12764
0.12621
0.12493
0.11965
0.11534
0.10641
0.099477
0.08813
0.079403
0.067531
0.058097
0.12712
0.12821
0.12681
0.12553
0.12023
0.11582
0.1068
0.099695
0.088231
0.079309
0.067328
0.057726
0.12766
0.12879
0.12743
0.12615
0.12083
0.11631
0.1072
0.099915
0.088329
0.079206
0.067112
0.057339
0.1282
0.12938
0.12806
0.12677
0.12144
0.11681
0.10761
0.10013
0.088422
0.079093
0.066882
0.056935
0.12874
0.12998
0.12871
0.12741
0.12206
0.11732
0.10802
0.10035
0.08851
0.07897
0.066636
0.056512
0.1293
0.13059
0.12936
0.12807
0.1227
0.11784
0.10845
0.10057
0.088593
0.078835
0.066374
0.056069
0.12986
0.13121
0.13004
0.12874
0.12335
0.11837
0.10888
0.10079
0.08867
0.078688
0.066093
0.055605
0.13044
0.13184
0.13073
0.12943
0.12403
0.11892
0.10931
0.10101
0.088741
0.078528
0.065794
0.055119
0.13103
0.13249
0.13144
0.13013
0.12472
0.11948
0.10976
0.10123
0.088805
0.078354
0.065476
0.054609
0.13163
0.13316
0.13218
0.13086
0.12544
0.12005
0.11022
0.10145
0.088862
0.078166
0.065137
0.054074
0.13224
0.13384
0.13294
0.13161
0.12618
0.12064
0.11069
0.10167
0.088913
0.077964
0.064777
0.053513
0.13288
0.13455
0.13373
0.13239
0.12695
0.12126
0.11117
0.10189
0.088958
0.077746
0.064395
0.052925
0.13353
0.13528
0.13455
0.13321
0.12775
0.12189
0.11167
0.10212
0.088997
0.077514
0.06399
0.052308
0.13421
0.13604
0.1354
0.13406
0.12858
0.12255
0.11218
0.10235
0.08903
0.077266
0.063563
0.051661
0.13492
0.13683
0.1363
0.13495
0.12946
0.12324
0.11272
0.10258
0.089058
0.077003
0.063111
0.050983
0.13565
0.13766
0.13725
0.13589
0.13038
0.12397
0.11327
0.10282
0.089082
0.076724
0.062634
0.050273
0.13642
0.13854
0.13825
0.13688
0.13135
0.12473
0.11386
0.10307
0.089101
0.076429
0.062133
0.04953
0.13723
0.13946
0.1393
0.13794
0.13238
0.12554
0.11446
0.10333
0.089117
0.076118
0.061605
0.048751
0.13808
0.14043
0.14042
0.13906
0.13346
0.12639
0.1151
0.1036
0.089128
0.07579
0.061049
0.047937
0.13897
0.14147
0.14162
0.14025
0.13462
0.1273
0.11577
0.10389
0.089136
0.075443
0.060465
0.047084
0.13991
0.14256
0.14289
0.14153
0.13584
0.12826
0.11647
0.10418
0.089137
0.075075
0.059849
0.046192
0.1409
0.14373
0.14424
0.14289
0.13714
0.12928
0.11721
0.10449
0.089131
0.074685
0.059199
0.045258
0.14193
0.14496
0.14567
0.14435
0.13853
0.13036
0.11798
0.10481
0.089115
0.074268
0.058512
0.044279
0.14301
0.14626
0.14721
0.14591
0.14
0.13151
0.11879
0.10514
0.089084
0.07382
0.057782
0.043251
0.14414
0.14764
0.14883
0.14757
0.14156
0.13273
0.11964
0.10548
0.089034
0.073334
0.057004
0.042172
0.14531
0.1491
0.15056
0.14934
0.14322
0.13402
0.12051
0.10582
0.088958
0.072805
0.056172
0.041034
0.1465
0.15062
0.15238
0.15123
0.14497
0.13538
0.12142
0.10615
0.088849
0.072223
0.055275
0.039832
0.14772
0.15222
0.1543
0.15323
0.14681
0.1368
0.12235
0.10648
0.088697
0.071579
0.054306
0.038557
0.14895
0.15387
0.15632
0.15534
0.14875
0.13829
0.12329
0.10679
0.088491
0.070861
0.053253
0.037201
0.15018
0.15558
0.15843
0.15757
0.15078
0.13984
0.12425
0.10707
0.088221
0.070058
0.052104
0.035751
0.15138
0.15733
0.16063
0.15991
0.1529
0.14145
0.12521
0.10731
0.087874
0.069158
0.050847
0.034196
0.15253
0.15911
0.16292
0.16236
0.1551
0.1431
0.12615
0.10751
0.087439
0.068149
0.049468
0.032524
0.15361
0.1609
0.16529
0.16493
0.1574
0.14479
0.12708
0.10764
0.086903
0.067019
0.047957
0.030719
0.15459
0.16271
0.16775
0.16762
0.15978
0.14652
0.12799
0.1077
0.086254
0.065757
0.0463
0.02877
0.15544
0.16451
0.1703
0.17043
0.16226
0.14828
0.12885
0.10768
0.08548
0.064354
0.044489
0.026664
0.15615
0.1663
0.17295
0.17338
0.16483
0.15006
0.12967
0.10755
0.084571
0.062801
0.042516
0.024393
0.15666
0.16808
0.17573
0.17648
0.16752
0.15186
0.13042
0.10731
0.083513
0.06109
0.040374
0.02195
0.15695
0.16984
0.17866
0.17977
0.17033
0.15368
0.1311
0.10694
0.082289
0.059209
0.038058
0.01933
0.15696
0.17157
0.18177
0.18327
0.17328
0.15552
0.13169
0.10641
0.080878
0.057144
0.035559
0.016534
0.15665
0.1733
0.18511
0.18704
0.1764
0.15735
0.13215
0.10568
0.079249
0.054873
0.032866
0.01356
0.15593
0.17499
0.18872
0.1911
0.17969
0.15916
0.13245
0.10471
0.077357
0.052362
0.02996
0.010406
0.15469
0.17665
0.19265
0.19552
0.18316
0.16091
0.13254
0.10343
0.075144
0.049562
0.026809
0.0070639
0.15276
0.17821
0.19693
0.2003
0.1868
0.16257
0.13233
0.10177
0.072534
0.04641
0.023368
0.0035147
0.14991
0.1796
0.20155
0.20547
0.19057
0.16406
0.13175
0.099616
0.069441
0.042828
0.019579
-0.00027186
0.14582
0.18065
0.20648
0.21099
0.19441
0.16528
0.13067
0.09688
0.06577
0.038735
0.015374
-0.0043364
0.14003
0.18113
0.21161
0.21679
0.1982
0.1661
0.12899
0.093453
0.061437
0.034057
0.010694
-0.0087223
0.13197
0.18068
0.21673
0.22271
0.20178
0.16637
0.12656
0.089246
0.05638
0.028751
0.0055008
-0.013461
0.12085
0.17877
0.2215
0.22849
0.20492
0.16592
0.12326
0.08419
0.050572
0.022814
-0.00019883
-0.01855
0.10575
0.17463
0.22537
0.23371
0.2073
0.16452
0.11898
0.078239
0.044024
0.016298
-0.0063406
-0.023938
0.085511
0.16719
0.2274
0.23767
0.20848
0.16192
0.11358
0.071365
0.036773
0.0092905
-0.012807
-0.029516
0.058851
0.15483
0.22605
0.23922
0.20774
0.15775
0.10692
0.063541
0.028859
0.0018907
-0.019453
-0.035133
0.024431
0.13526
0.21874
0.23637
0.20394
0.1515
0.098837
0.054738
0.02031
-0.0058253
-0.026148
-0.040632
-0.018891
0.10519
0.20131
0.22585
0.19518
0.14232
0.089063
0.044932
0.011167
-0.013799
-0.0328
-0.045896
-0.071579
0.060283
0.16748
0.20249
0.17844
0.12886
0.0772
0.034129
0.0015398
-0.021938
-0.039337
-0.05086
-0.13257
-0.0042182
0.1089
0.15889
0.14913
0.10895
0.062506
0.022272
-0.0083878
-0.030065
-0.045662
-0.055495
-0.19836
-0.09176
0.016994
0.086229
0.10118
0.079327
0.043577
0.0089923
-0.018517
-0.037985
-0.051654
-0.059786
-0.26295
-0.20287
-0.11361
-0.023058
0.027952
0.035669
0.018141
-0.006668
-0.029089
-0.04566
-0.057262
-0.06377
-0.31824
-0.33962
-0.28911
-0.17678
-0.078277
-0.027758
-0.017243
-0.026514
-0.040975
-0.053508
-0.062746
-0.067713
-0.3423
-0.48318
-0.49301
-0.36441
-0.21453
-0.11219
-0.064767
-0.052488
-0.055702
-0.062703
-0.069028
-0.072407
-0.32042
-0.6012
-0.68106
-0.54205
-0.34849
-0.19953
-0.11644
-0.08181
-0.072688
-0.073382
-0.076413
-0.078026
0.10386
0.064627
0.054625
0.048708
0.044659
0.041658
0.039284
0.037263
0.035554
0.033826
0.032482
0.030167
0.12342
0.08009
0.067652
0.059764
0.054422
0.05051
0.047444
0.044853
0.042685
0.040495
0.038846
0.036159
0.11067
0.074855
0.06359
0.055814
0.050529
0.046675
0.043672
0.041147
0.039059
0.03694
0.035408
0.03279
0.10561
0.074493
0.063546
0.055672
0.050244
0.046274
0.043182
0.040587
0.038455
0.036286
0.034751
0.032001
0.10499
0.076672
0.065559
0.057467
0.051794
0.047619
0.044361
0.041626
0.039385
0.037105
0.035504
0.032596
0.10437
0.078495
0.067305
0.059077
0.053205
0.048852
0.045446
0.042586
0.040246
0.037869
0.036202
0.033181
0.10327
0.07978
0.068659
0.060377
0.054357
0.049858
0.046327
0.043359
0.040932
0.038477
0.036753
0.033662
0.1021
0.080833
0.069871
0.061587
0.055451
0.050823
0.047175
0.044108
0.0416
0.039079
0.037299
0.034178
0.101
0.081743
0.071008
0.062765
0.056543
0.0518
0.048043
0.044881
0.042296
0.039718
0.037886
0.034772
0.099948
0.0825
0.072056
0.063898
0.057624
0.052783
0.048927
0.045678
0.043018
0.040393
0.038515
0.035443
0.098931
0.083104
0.073003
0.064972
0.058681
0.053764
0.049821
0.046492
0.043764
0.041102
0.039183
0.036187
0.097944
0.083568
0.073848
0.065979
0.059705
0.054735
0.050721
0.047323
0.044533
0.041844
0.039892
0.037001
0.096987
0.083908
0.07459
0.066911
0.060687
0.055689
0.05162
0.048165
0.045322
0.042616
0.040638
0.037875
0.096064
0.084141
0.075234
0.067766
0.061619
0.056617
0.052509
0.049011
0.046124
0.04341
0.041414
0.038795
0.095176
0.084282
0.075783
0.068541
0.062494
0.057509
0.053381
0.049852
0.046932
0.04422
0.04221
0.039747
0.094323
0.084344
0.076245
0.069236
0.063307
0.058359
0.054228
0.050682
0.047738
0.045035
0.043018
0.040712
0.093507
0.084341
0.076627
0.069854
0.064057
0.059162
0.055042
0.051491
0.048534
0.045846
0.043827
0.041674
0.092727
0.084284
0.076936
0.0704
0.064744
0.059914
0.055819
0.052275
0.049312
0.046646
0.044627
0.042617
0.091982
0.084183
0.077181
0.070877
0.065368
0.060615
0.056556
0.053028
0.050067
0.047426
0.045409
0.043528
0.091272
0.084045
0.077369
0.07129
0.065931
0.061264
0.057249
0.053746
0.050794
0.048181
0.046167
0.044396
0.090595
0.083879
0.077508
0.071647
0.066438
0.061861
0.057898
0.054426
0.051489
0.048904
0.046894
0.045213
0.08995
0.083689
0.077602
0.07195
0.066891
0.062409
0.058503
0.055068
0.05215
0.049593
0.047587
0.045973
0.089333
0.083481
0.077658
0.072206
0.067294
0.062908
0.059064
0.05567
0.052774
0.050245
0.048243
0.046674
0.088745
0.083258
0.077681
0.07242
0.067651
0.063363
0.059583
0.056232
0.053363
0.050858
0.04886
0.047315
0.088182
0.083024
0.077676
0.072595
0.067966
0.063775
0.060062
0.056757
0.053914
0.051433
0.049438
0.047898
0.087643
0.082781
0.077645
0.072737
0.068242
0.064148
0.060502
0.057243
0.05443
0.051968
0.049978
0.048426
0.087126
0.082531
0.077593
0.072847
0.068482
0.064484
0.060905
0.057694
0.054911
0.052467
0.05048
0.048902
0.08663
0.082276
0.077523
0.07293
0.06869
0.064785
0.061274
0.05811
0.055359
0.052929
0.050947
0.049331
0.086152
0.082018
0.077436
0.072989
0.068869
0.065055
0.061611
0.058494
0.055775
0.053357
0.051379
0.049718
0.085691
0.081758
0.077336
0.073026
0.069021
0.065295
0.061918
0.058847
0.05616
0.053753
0.05178
0.050067
0.085247
0.081496
0.077223
0.073044
0.069148
0.065508
0.062196
0.059171
0.056516
0.054119
0.052151
0.050383
0.084817
0.081233
0.0771
0.073044
0.069254
0.065696
0.062449
0.059469
0.056846
0.054456
0.052494
0.050671
0.084402
0.08097
0.076969
0.073029
0.069339
0.065862
0.062677
0.05974
0.057149
0.054767
0.052811
0.050935
0.083999
0.080707
0.076829
0.073
0.069406
0.066006
0.062882
0.059988
0.057429
0.055054
0.053105
0.051177
0.083608
0.080446
0.076683
0.072958
0.069456
0.06613
0.063066
0.060214
0.057687
0.055319
0.053377
0.051403
0.083229
0.080185
0.076531
0.072906
0.069491
0.066237
0.063231
0.06042
0.057924
0.055563
0.053629
0.051613
0.08286
0.079926
0.076375
0.072843
0.069511
0.066327
0.063377
0.060606
0.058141
0.055789
0.053862
0.05181
0.082501
0.079669
0.076214
0.072771
0.069519
0.066401
0.063506
0.060774
0.058339
0.055997
0.054079
0.051996
0.082151
0.079413
0.076049
0.072691
0.069515
0.066461
0.06362
0.060926
0.058521
0.056189
0.05428
0.052173
0.08181
0.07916
0.075882
0.072603
0.069501
0.066508
0.063718
0.061062
0.058686
0.056366
0.054466
0.052341
0.081478
0.078909
0.075712
0.072509
0.069476
0.066543
0.063803