/*--------------------------------*- C++ -*----------------------------------*\
  =========                 |
  \\      /  F ield         | OpenFOAM: The Open Source CFD Toolbox
   \\    /   O peration     | Website:  https://openfoam.org
    \\  /    A nd           | Version:  6.0
     \\/     M anipulation  |
\*---------------------------------------------------------------------------*/
FoamFile
{
    version     2.0;
    format      ascii;
    class       surfaceScalarField;
    location    "6";
    object      phi;
}
// * * * * * * * * * * * * * * * * * * * * * * * * * * * * * * * * * * * * * //

dimensions      [0 3 -1 0 0 0 0];

internalField   nonuniform List<scalar> 
26699
(
2.0051e-05
0.005201
6.2681e-10
4.0126e-05
0.0051116
5.9638e-05
0.0049351
7.8187e-05
0.0046741
9.5416e-05
0.0043332
0.00011102
0.0039182
0.00012472
0.0034362
0.00013626
0.0028953
0.00014546
0.002305
0.00015181
0.0016755
0.00015718
0.0010154
0.00046498
3.44e-05
2.005e-05
0.0051809
1.9253e-09
4.0128e-05
0.0050916
5.964e-05
0.0049156
7.8191e-05
0.0046556
9.5417e-05
0.004316
0.00011102
0.0039026
0.00012471
0.0034225
0.00013625
0.0028838
0.00014546
0.0022958
0.00015106
0.0016699
0.00015892
0.0010075
0.00055892
6.4988e-05
2.005e-05
0.0051609
3.4168e-09
4.0129e-05
0.0050715
5.9642e-05
0.004896
7.8194e-05
0.004637
9.542e-05
0.0042988
0.00011103
0.003887
0.00012471
0.0034088
0.00013623
0.0028723
0.00014547
0.0022865
0.0001503
0.0016651
0.00016019
0.00099764
0.00062897
9.0133e-05
2.005e-05
0.0051408
4.9526e-09
4.013e-05
0.0050514
5.9644e-05
0.0048765
7.8197e-05
0.0046185
9.5423e-05
0.0042815
0.00011103
0.0038714
0.0001247
0.0033951
0.0001362
0.0028608
0.00014552
0.0022772
0.00014955
0.001661
0.00016092
0.00098627
0.00067956
0.00011033
2.0049e-05
0.0051208
6.4967e-09
4.0131e-05
0.0050313
5.9646e-05
0.004857
7.82e-05
0.0045999
9.5427e-05
0.0042643
0.00011103
0.0038558
0.0001247
0.0033815
0.00013618
0.0028493
0.00014559
0.0022678
0.00014886
0.0016578
0.00016113
0.000974
0.00071432
0.00012637
2.0049e-05
0.0051007
8.0484e-09
4.0132e-05
0.0050112
5.9648e-05
0.0048375
7.8203e-05
0.0045813
9.543e-05
0.0042471
0.00011103
0.0038402
0.0001247
0.0033678
0.00013615
0.0028379
0.00014568
0.0022583
0.00014823
0.0016552
0.00016089
0.00096134
0.00073628
0.00013892
2.0049e-05
0.0050807
9.607e-09
4.0133e-05
0.0049912
5.9651e-05
0.004818
7.8206e-05
0.0045628
9.5433e-05
0.0042299
0.00011104
0.0038246
0.0001247
0.0033541
0.00013612
0.0028264
0.0001458
0.0022486
0.00014769
0.0016533
0.00016028
0.00094875
0.00074801
0.00014855
2.0049e-05
0.0050606
1.1172e-08
4.0134e-05
0.0049711
5.9653e-05
0.0047985
7.8209e-05
0.0045442
9.5436e-05
0.0042126
0.00011104
0.003809
0.0001247
0.0033405
0.00013608
0.0028151
0.00014592
0.0022387
0.00014725
0.001652
0.00015941
0.00093659
0.00075167
0.00015575
2.0049e-05
0.0050405
1.2742e-08
4.0135e-05
0.004951
5.9655e-05
0.0047789
7.8212e-05
0.0045257
9.544e-05
0.0041954
0.00011104
0.0037934
0.0001247
0.0033268
0.00013604
0.0028037
0.00014606
0.0022287
0.00014692
0.0016511
0.00015835
0.00092516
0.00074907
0.00016095
2.0048e-05
0.0050205
1.4318e-08
4.0136e-05
0.0049309
5.9657e-05
0.0047594
7.8215e-05
0.0045071
9.5443e-05
0.0041782
0.00011104
0.0037778
0.0001247
0.0033131
0.000136
0.0027924
0.0001462
0.0022185
0.0001467
0.0016506
0.00015719
0.00091467
0.00074172
0.00016454
2.0048e-05
0.0050004
1.5899e-08
4.0137e-05
0.0049108
5.9659e-05
0.0047399
7.8218e-05
0.0044886
9.5446e-05
0.004161
0.00011105
0.0037622
0.00012471
0.0032995
0.00013595
0.0027812
0.00014634
0.0022081
0.00014658
0.0016504
0.00015598
0.00090527
0.00073087
0.00016683
2.0048e-05
0.0049804
1.7485e-08
4.0138e-05
0.0048907
5.9662e-05
0.0047204
7.8222e-05
0.00447
9.545e-05
0.0041437
0.00011105
0.0037466
0.00012471
0.0032858
0.0001359
0.00277
0.00014648
0.0021975
0.00014657
0.0016503
0.00015479
0.00089704
0.00071756
0.00016811
2.0047e-05
0.0049603
1.9077e-08
4.0139e-05
0.0048706
5.9664e-05
0.0047008
7.8225e-05
0.0044514
9.5453e-05
0.0041265
0.00011105
0.003731
0.00012472
0.0032721
0.00013584
0.0027589
0.00014662
0.0021868
0.00014665
0.0016503
0.00015366
0.00089004
0.0007026
0.00016861
2.0047e-05
0.0049402
2.0674e-08
4.014e-05
0.0048505
5.9666e-05
0.0046813
7.8228e-05
0.0044329
9.5457e-05
0.0041093
0.00011105
0.0037154
0.00012473
0.0032585
0.00013578
0.0027478
0.00014674
0.0021758
0.00014683
0.0016502
0.00015261
0.00088426
0.00068668
0.00016853
2.0047e-05
0.0049201
2.2276e-08
4.0141e-05
0.0048304
5.9668e-05
0.0046618
7.8231e-05
0.0044143
9.546e-05
0.004092
0.00011106
0.0036998
0.00012474
0.0032448
0.00013572
0.0027369
0.00014685
0.0021647
0.00014708
0.00165
0.00015167
0.00087966
0.00067033
0.00016802
2.0047e-05
0.0049001
2.3884e-08
4.0142e-05
0.0048103
5.967e-05
0.0046423
7.8234e-05
0.0043958
9.5464e-05
0.0040748
0.00011106
0.0036842
0.00012475
0.0032311
0.00013565
0.002726
0.00014695
0.0021534
0.00014739
0.0016495
0.00015086
0.00087619
0.00065397
0.00016722
2.0046e-05
0.00488
2.5499e-08
4.0143e-05
0.0047902
5.9673e-05
0.0046227
7.8237e-05
0.0043772
9.5467e-05
0.0040576
0.00011106
0.0036686
0.00012477
0.0032174
0.00013558
0.0027151
0.00014703
0.0021419
0.00014776
0.0016488
0.00015019
0.00087377
0.00063792
0.00016624
2.0046e-05
0.0048599
2.712e-08
4.0144e-05
0.0047701
5.9675e-05
0.0046032
7.8241e-05
0.0043586
9.5471e-05
0.0040404
0.00011106
0.003653
0.00012478
0.0032037
0.00013552
0.0027044
0.0001471
0.0021303
0.00014818
0.0016477
0.00014966
0.00087229
0.00062241
0.00016516
2.0046e-05
0.0048399
2.8747e-08
4.0145e-05
0.00475
5.9677e-05
0.0045837
7.8244e-05
0.0043401
9.5475e-05
0.0040231
0.00011106
0.0036374
0.0001248
0.0031899
0.00013545
0.0026937
0.00014714
0.0021186
0.00014863
0.0016462
0.00014926
0.00087166
0.00060762
0.00016405
2.0045e-05
0.0048198
3.0381e-08
4.0146e-05
0.0047299
5.9679e-05
0.0045641
7.8247e-05
0.0043215
9.5479e-05
0.0040059
0.00011107
0.0036218
0.00012482
0.0031762
0.00013538
0.0026832
0.00014716
0.0021069
0.0001491
0.0016443
0.000149
0.00087176
0.00059366
0.00016296
2.0045e-05
0.0047997
3.2023e-08
4.0147e-05
0.0047098
5.9682e-05
0.0045446
7.825e-05
0.0043029
9.5483e-05
0.0039887
0.00011107
0.0036062
0.00012484
0.0031624
0.00013531
0.0026727
0.00014717
0.002095
0.00014959
0.0016419
0.00014886
0.00087249
0.0005806
0.00016193
2.0045e-05
0.0047796
3.3671e-08
4.0148e-05
0.0046897
5.9684e-05
0.0045251
7.8254e-05
0.0042843
9.5487e-05
0.0039714
0.00011107
0.0035907
0.00012486
0.0031486
0.00013524
0.0026623
0.00014715
0.0020831
0.00015008
0.0016389
0.00014884
0.00087373
0.00056846
0.00016098
2.0045e-05
0.0047595
3.5326e-08
4.0149e-05
0.0046696
5.9686e-05
0.0045055
7.8257e-05
0.0042658
9.5491e-05
0.0039542
0.00011107
0.0035751
0.00012489
0.0031348
0.00013518
0.0026521
0.00014712
0.0020711
0.00015056
0.0016355
0.00014893
0.00087536
0.00055726
0.00016013
2.0044e-05
0.0047395
3.6989e-08
4.015e-05
0.0046495
5.9688e-05
0.004486
7.826e-05
0.0042472
9.5495e-05
0.003937
0.00011107
0.0035595
0.00012492
0.0031209
0.00013511
0.0026419
0.00014707
0.0020592
0.00015104
0.0016315
0.0001491
0.0008773
0.00054696
0.0001594
2.0044e-05
0.0047194
3.866e-08
4.0151e-05
0.0046294
5.969e-05
0.0044665
7.8263e-05
0.0042286
9.5499e-05
0.0039197
0.00011107
0.0035439
0.00012494
0.0031071
0.00013506
0.0026317
0.00014699
0.0020473
0.0001515
0.001627
0.00014936
0.00087944
0.00053754
0.00015878
2.0044e-05
0.0046993
4.0338e-08
4.0152e-05
0.0046093
5.9693e-05
0.0044469
7.8267e-05
0.0042101
9.5504e-05
0.0039025
0.00011107
0.0035284
0.00012497
0.0030932
0.000135
0.0026217
0.0001469
0.0020354
0.00015194
0.001622
0.00014969
0.00088169
0.00052894
0.00015829
2.0043e-05
0.0046792
4.2023e-08
4.0153e-05
0.0045892
5.9695e-05
0.0044274
7.827e-05
0.0041915
9.5508e-05
0.0038852
0.00011107
0.0035128
0.00012501
0.0030792
0.00013495
0.0026118
0.0001468
0.0020235
0.00015235
0.0016164
0.00015007
0.00088398
0.00052111
0.0001579
2.0043e-05
0.0046591
4.3716e-08
4.0154e-05
0.0045691
5.9697e-05
0.0044078
7.8273e-05
0.0041729
9.5513e-05
0.003868
0.00011107
0.0034972
0.00012504
0.0030653
0.00013491
0.0026019
0.00014668
0.0020117
0.00015273
0.0016104
0.00015049
0.00088621
0.00051397
0.00015763
2.0043e-05
0.004639
4.5417e-08
4.0155e-05
0.004549
5.97e-05
0.0043883
7.8277e-05
0.0041543
9.5518e-05
0.0038508
0.00011107
0.0034817
0.00012507
0.0030513
0.00013487
0.0025921
0.00014654
0.0020001
0.00015308
0.0016038
0.00015095
0.00088834
0.00050746
0.00015746
2.0042e-05
0.0046189
4.7125e-08
4.0156e-05
0.0045289
5.9702e-05
0.0043687
7.828e-05
0.0041358
9.5523e-05
0.0038335
0.00011107
0.0034662
0.00012511
0.0030372
0.00013483
0.0025824
0.0001464
0.0019885
0.00015339
0.0015968
0.00015143
0.0008903
0.00050152
0.00015737
2.0042e-05
0.0045989
4.8842e-08
4.0157e-05
0.0045088
5.9704e-05
0.0043492
7.8284e-05
0.0041172
9.5528e-05
0.0038163
0.00011106
0.0034506
0.00012515
0.0030231
0.00013481
0.0025727
0.00014624
0.0019771
0.00015367
0.0015894
0.00015192
0.00089205
0.00049608
0.00015737
2.0041e-05
0.0045788
5.0566e-08
4.0158e-05
0.0044886
5.9706e-05
0.0043296
7.8287e-05
0.0040986
9.5533e-05
0.003799
0.00011106
0.0034351
0.00012518
0.003009
0.00013479
0.0025631
0.00014607
0.0019658
0.00015391
0.0015816
0.00015242
0.00089354
0.00049107
0.00015743
2.0041e-05
0.0045587
5.2298e-08
4.0159e-05
0.0044685
5.9709e-05
0.0043101
7.829e-05
0.00408
9.5538e-05
0.0037818
0.00011106
0.0034196
0.00012522
0.0029948
0.00013478
0.0025536
0.0001459
0.0019547
0.00015411
0.0015734
0.00015292
0.00089474
0.00048643
0.00015756
2.0041e-05
0.0045386
5.4039e-08
4.016e-05
0.0044484
5.9711e-05
0.0042905
7.8294e-05
0.0040614
9.5544e-05
0.0037645
0.00011105
0.0034041
0.00012526
0.0029806
0.00013478
0.002544
0.00014572
0.0019437
0.00015428
0.0015648
0.0001534
0.00089561
0.0004821
0.00015773
2.004e-05
0.0045185
5.5787e-08
4.0161e-05
0.0044283
5.9713e-05
0.004271
7.8297e-05
0.0040428
9.555e-05
0.0037473
0.00011105
0.0033886
0.0001253
0.0029664
0.00013478
0.0025346
0.00014554
0.0019329
0.00015441
0.0015559
0.00015387
0.00089615
0.00047804
0.00015793
2.004e-05
0.0044984
5.7544e-08
4.0162e-05
0.0044082
5.9716e-05
0.0042514
7.8301e-05
0.0040243
9.5556e-05
0.00373
0.00011104
0.0033731
0.00012534
0.0029521
0.00013479
0.0025251
0.00014536
0.0019224
0.0001545
0.0015468
0.00015432
0.00089633
0.00047418
0.00015817
2.004e-05
0.0044783
5.9309e-08
4.0163e-05
0.004388
5.9718e-05
0.0042319
7.8304e-05
0.0040057
9.5562e-05
0.0037128
0.00011104
0.0033576
0.00012538
0.0029377
0.00013482
0.0025157
0.00014518
0.001912
0.00015456
0.0015374
0.00015474
0.00089615
0.0004705
0.00015843
2.0039e-05
0.0044582
6.1083e-08
4.0164e-05
0.0043679
5.972e-05
0.0042123
7.8308e-05
0.0039871
9.5569e-05
0.0036955
0.00011103
0.0033421
0.00012542
0.0029234
0.00013485
0.0025062
0.00014499
0.0019019
0.00015459
0.0015278
0.00015514
0.00089561
0.00046694
0.00015869
2.0039e-05
0.0044381
6.2865e-08
4.0165e-05
0.0043478
5.9723e-05
0.0041928
7.8311e-05
0.0039685
9.5575e-05
0.0036782
0.00011103
0.0033267
0.00012545
0.0029089
0.00013488
0.0024968
0.00014481
0.0018919
0.00015458
0.0015181
0.0001555
0.00089469
0.00046348
0.00015896
2.0038e-05
0.004418
6.4656e-08
4.0166e-05
0.0043277
5.9725e-05
0.0041732
7.8315e-05
0.0039499
9.5582e-05
0.003661
0.00011102
0.0033112
0.00012549
0.0028945
0.00013493
0.0024874
0.00014464
0.0018822
0.00015455
0.0015081
0.00015583
0.00089341
0.00046007
0.00015923
2.0038e-05
0.0043979
6.6456e-08
4.0167e-05
0.0043075
5.9728e-05
0.0041536
7.8318e-05
0.0039313
9.559e-05
0.0036437
0.00011101
0.0032958
0.00012553
0.00288
0.00013499
0.0024779
0.00014447
0.0018727
0.00015449
0.0014981
0.00015613
0.00089178
0.00045671
0.0001595
2.0038e-05
0.0043778
6.8264e-08
4.0168e-05
0.0042874
5.973e-05
0.0041341
7.8322e-05
0.0039127
9.5597e-05
0.0036264
0.00011101
0.0032804
0.00012556
0.0028654
0.00013505
0.0024684
0.00014431
0.0018635
0.00015441
0.001488
0.00015639
0.0008898
0.00045335
0.00015975
2.0037e-05
0.0043577
7.0082e-08
4.0169e-05
0.0042673
5.9732e-05
0.0041145
7.8325e-05
0.0038941
9.5605e-05
0.0036092
0.000111
0.003265
0.0001256
0.0028508
0.00013512
0.0024589
0.00014416
0.0018544
0.00015431
0.0014779
0.00015662
0.00088749
0.00045
0.00015998
2.0037e-05
0.0043376
7.191e-08
4.017e-05
0.0042471
5.9735e-05
0.004095
7.8329e-05
0.0038755
9.5613e-05
0.0035919
0.00011099
0.0032496
0.00012563
0.0028362
0.00013519
0.0024493
0.00014402
0.0018456
0.00015419
0.0014677
0.00015682
0.00088486
0.00044662
0.0001602
2.0037e-05
0.0043174
7.3747e-08
4.0171e-05
0.004227
5.9737e-05
0.0040754
7.8332e-05
0.0038569
9.5622e-05
0.0035746
0.00011098
0.0032343
0.00012566
0.0028215
0.00013528
0.0024397
0.00014388
0.001837
0.00015405
0.0014575
0.00015698
0.00088193
0.00044321
0.00016039
2.0036e-05
0.0042973
7.5593e-08
4.0172e-05
0.0042069
5.974e-05
0.0040558
7.8336e-05
0.0038383
9.563e-05
0.0035573
0.00011097
0.0032189
0.00012568
0.0028068
0.00013537
0.00243
0.00014376
0.0018286
0.0001539
0.0014474
0.00015711
0.00087872
0.00043975
0.00016057
2.0036e-05
0.0042772
7.7449e-08
4.0173e-05
0.0041867
5.9742e-05
0.0040363
7.8339e-05
0.0038198
9.5639e-05
0.00354
0.00011096
0.0032036
0.00012571
0.002792
0.00013547
0.0024203
0.00014366
0.0018204
0.00015374
0.0014373
0.00015721
0.00087525
0.00043625
0.00016072
2.0035e-05
0.0042571
7.9315e-08
4.0174e-05
0.0041666
5.9745e-05
0.0040167
7.8343e-05
0.0038012
9.5649e-05
0.0035227
0.00011095
0.0031883
0.00012573
0.0027773
0.00013557
0.0024104
0.00014356
0.0018124
0.00015358
0.0014273
0.00015729
0.00087154
0.0004327
0.00016084
2.0035e-05
0.004237
8.1191e-08
4.0175e-05
0.0041464
5.9747e-05
0.0039971
7.8346e-05
0.0037826
9.5658e-05
0.0035054
0.00011094
0.003173
0.00012575
0.0027624
0.00013568
0.0024005
0.00014348
0.0018046
0.0001534
0.0014174
0.00015733
0.00086761
0.00042908
0.00016094
2.0034e-05
0.0042169
8.3077e-08
4.0176e-05
0.0041263
5.975e-05
0.0039775
7.835e-05
0.003764
9.5668e-05
0.003488
0.00011094
0.0031577
0.00012577
0.0027476
0.00013579
0.0023905
0.00014342
0.001797
0.00015323
0.0014076
0.00015735
0.00086348
0.00042542
0.00016102
2.0034e-05
0.0041968
8.4973e-08
4.0177e-05
0.0041062
5.9752e-05
0.003958
7.8353e-05
0.0037454
9.5679e-05
0.0034707
0.00011093
0.0031425
0.00012579
0.0027327
0.0001359
0.0023804
0.00014337
0.0017895
0.00015305
0.0013979
0.00015735
0.00085918
0.00042169
0.00016108
2.0034e-05
0.0041766
8.688e-08
4.0178e-05
0.004086
5.9755e-05
0.0039384
7.8356e-05
0.0037268
9.5689e-05
0.0034534
0.00011092
0.0031273
0.0001258
0.0027179
0.00013602
0.0023702
0.00014333
0.0017822
0.00015287
0.0013883
0.00015733
0.00085472
0.00041791
0.00016111
2.0033e-05
0.0041565
8.8798e-08
4.0179e-05
0.0040659
5.9758e-05
0.0039188
7.836e-05
0.0037082
9.57e-05
0.003436
0.00011091
0.0031121
0.00012581
0.002703
0.00013615
0.0023598
0.00014331
0.0017751
0.0001527
0.0013789
0.0001573
0.00085012
0.00041409
0.00016113
2.0033e-05
0.0041364
9.0726e-08
4.018e-05
0.0040457
5.976e-05
0.0038992
7.8363e-05
0.0036895
9.5712e-05
0.0034187
0.0001109
0.0030969
0.00012582
0.002688
0.00013627
0.0023494
0.0001433
0.001768
0.00015253
0.0013697
0.00015725
0.00084541
0.00041021
0.00016112
2.0032e-05
0.0041163
9.2665e-08
4.0181e-05
0.0040256
5.9763e-05
0.0038796
7.8367e-05
0.0036709
9.5724e-05
0.0034013
0.00011089
0.0030817
0.00012582
0.0026731
0.0001364
0.0023388
0.00014331
0.0017611
0.00015237
0.0013606
0.00015718
0.0008406
0.0004063
0.0001611
2.0032e-05
0.0040961
9.4616e-08
4.0182e-05
0.0040054
5.9766e-05
0.0038601
7.837e-05
0.0036523
9.5736e-05
0.003384
0.00011088
0.0030666
0.00012582
0.0026582
0.00013652
0.0023281
0.00014333
0.0017543
0.00015222
0.0013518
0.00015711
0.00083571
0.00040235
0.00016106
2.0031e-05
0.004076
9.6578e-08
4.0184e-05
0.0039853
5.9769e-05
0.0038405
7.8373e-05
0.0036337
9.5748e-05
0.0033666
0.00011087
0.0030514
0.00012582
0.0026432
0.00013665
0.0023173
0.00014337
0.0017476
0.00015208
0.001343
0.00015703
0.00083076
0.00039837
0.00016101
2.0031e-05
0.0040559
9.8551e-08
4.0185e-05
0.0039651
5.9771e-05
0.0038209
7.8376e-05
0.0036151
9.5761e-05
0.0033492
0.00011087
0.0030363
0.00012581
0.0026283
0.00013678
0.0023063
0.00014342
0.001741
0.00015195
0.0013345
0.00015695
0.00082577
0.00039437
0.00016095
2.0031e-05
0.0040357
1.0054e-07
4.0186e-05
0.003945
5.9774e-05
0.0038013
7.838e-05
0.0035965
9.5774e-05
0.0033318
0.00011086
0.0030212
0.00012581
0.0026133
0.0001369
0.0022952
0.00014348
0.0017344
0.00015184
0.0013262
0.00015686
0.00082075
0.00039036
0.00016088
2.003e-05
0.0040156
1.0253e-07
4.0187e-05
0.0039248
5.9777e-05
0.0037817
7.8383e-05
0.0035779
9.5787e-05
0.0033144
0.00011085
0.0030062
0.00012579
0.0025984
0.00013703
0.002284
0.00014356
0.0017278
0.00015173
0.001318
0.00015677
0.00081571
0.00038633
0.0001608
2.003e-05
0.0039955
1.0454e-07
4.0188e-05
0.0039046
5.978e-05
0.0037621
7.8386e-05
0.0035593
9.5801e-05
0.003297
0.00011085
0.0029911
0.00012578
0.0025835
0.00013715
0.0022726
0.00014365
0.0017214
0.00015165
0.00131
0.00015668
0.00081067
0.0003823
0.00016071
2.0029e-05
0.0039753
1.0656e-07
4.0189e-05
0.0038845
5.9783e-05
0.0037425
7.8389e-05
0.0035407
9.5815e-05
0.0032796
0.00011084
0.0029761
0.00012576
0.0025685
0.00013727
0.0022611
0.00014375
0.0017149
0.00015157
0.0013022
0.0001566
0.00080564
0.00037827
0.00016063
2.0029e-05
0.0039552
1.0859e-07
4.019e-05
0.0038643
5.9786e-05
0.0037229
7.8392e-05
0.0035221
9.583e-05
0.0032621
0.00011084
0.0029611
0.00012574
0.0025536
0.00013739
0.0022494
0.00014386
0.0017084
0.00015151
0.0012945
0.00015652
0.00080063
0.00037426
0.00016054
2.0028e-05
0.0039351
1.1064e-07
4.0191e-05
0.0038442
5.9789e-05
0.0037033
7.8395e-05
0.0035035
9.5844e-05
0.0032447
0.00011084
0.0029461
0.00012571
0.0025388
0.0001375
0.0022376
0.00014398
0.0017019
0.00015147
0.001287
0.00015645
0.00079565
0.00037026
0.00016045
2.0028e-05
0.0039149
1.127e-07
4.0192e-05
0.003824
5.9792e-05
0.0036837
7.8398e-05
0.0034849
9.5859e-05
0.0032272
0.00011084
0.0029311
0.00012569
0.0025239
0.00013761
0.0022257
0.00014411
0.0016954
0.00015144
0.0012797
0.00015639
0.00079071
0.00036628
0.00016037
2.0027e-05
0.0038948
1.1477e-07
4.0193e-05
0.0038038
5.9795e-05
0.0036641
7.8401e-05
0.0034663
9.5875e-05
0.0032098
0.00011084
0.0029162
0.00012566
0.0025091
0.00013771
0.0022137
0.00014425
0.0016889
0.00015143
0.0012725
0.00015633
0.00078581
0.00036232
0.00016028
2.0027e-05
0.0038746
1.1685e-07
4.0195e-05
0.0037837
5.9798e-05
0.0036445
7.8404e-05
0.0034477
9.589e-05
0.0031923
0.00011084
0.0029012
0.00012563
0.0024943
0.00013781
0.0022015
0.00014439
0.0016823
0.00015144
0.0012654
0.00015629
0.00078096
0.0003584
0.00016021
2.0026e-05
0.0038545
1.1895e-07
4.0196e-05
0.0037635
5.9801e-05
0.0036249
7.8406e-05
0.0034291
9.5906e-05
0.0031748
0.00011084
0.0028863
0.00012559
0.0024795
0.00013791
0.0021892
0.00014454
0.0016757
0.00015146
0.0012585
0.00015625
0.00077617
0.00035451
0.00016014
2.0026e-05
0.0038343
1.2106e-07
4.0197e-05
0.0037433
5.9804e-05
0.0036053
7.8409e-05
0.0034105
9.5922e-05
0.0031573
0.00011084
0.0028714
0.00012556
0.0024648
0.000138
0.0021767
0.00014469
0.001669
0.00015149
0.0012517
0.00015623
0.00077143
0.00035067
0.00016007
2.0026e-05
0.0038142
1.2319e-07
4.0198e-05
0.0037231
5.9808e-05
0.0035857
7.8412e-05
0.0033919
9.5938e-05
0.0031397
0.00011085
0.0028565
0.00012552
0.0024502
0.00013808
0.0021642
0.00014485
0.0016622
0.00015154
0.001245
0.00015622
0.00076675
0.00034687
0.00016002
2.0025e-05
0.003794
1.2533e-07
4.0199e-05
0.003703
5.9811e-05
0.0035661
7.8414e-05
0.0033733
9.5954e-05
0.0031222
0.00011085
0.0028416
0.00012548
0.0024355
0.00013815
0.0021515
0.00014501
0.0016554
0.0001516
0.0012385
0.00015622
0.00076213
0.00034311
0.00015998
2.0025e-05
0.0037739
1.2748e-07
4.02e-05
0.0036828
5.9814e-05
0.0035465
7.8417e-05
0.0033547
9.5971e-05
0.0031046
0.00011086
0.0028267
0.00012543
0.002421
0.00013822
0.0021387
0.00014518
0.0016484
0.00015168
0.001232
0.00015623
0.00075757
0.0003394
0.00015994
2.0024e-05
0.0037537
1.2965e-07
4.0202e-05
0.0036626
5.9818e-05
0.0035269
7.8419e-05
0.0033361
9.5988e-05
0.0030871
0.00011087
0.0028118
0.00012539
0.0024065
0.00013829
0.0021258
0.00014534
0.0016413
0.00015176
0.0012255
0.00015626
0.00075308
0.00033575
0.00015992
2.0024e-05
0.0037336
1.3183e-07
4.0203e-05
0.0036424
5.9821e-05
0.0035072
7.8422e-05
0.0033175
9.6004e-05
0.0030695
0.00011088
0.0027969
0.00012534
0.002392
0.00013834
0.0021128
0.00014551
0.0016342
0.00015186
0.0012192
0.0001563
0.00074864
0.00033215
0.0001599
2.0023e-05
0.0037134
1.3402e-07
4.0204e-05
0.0036223
5.9825e-05
0.0034876
7.8424e-05
0.0032989
9.6021e-05
0.0030519
0.0001109
0.002782
0.0001253
0.0023776
0.00013839
0.0020997
0.00014567
0.0016269
0.00015197
0.0012129
0.00015635
0.00074426
0.0003286
0.0001599
2.0023e-05
0.0036933
1.3623e-07
4.0205e-05
0.0036021
5.9828e-05
0.003468
7.8426e-05
0.0032803
9.6038e-05
0.0030343
0.00011091
0.0027672
0.00012525
0.0023633
0.00013843
0.0020865
0.00014584
0.0016195
0.00015209
0.0012066
0.00015642
0.00073993
0.00032511
0.00015991
2.0022e-05
0.0036731
1.3846e-07
4.0207e-05
0.0035819
5.9832e-05
0.0034484
7.8428e-05
0.0032617
9.6055e-05
0.0030166
0.00011093
0.0027523
0.0001252
0.002349
0.00013847
0.0020733
0.000146
0.001612
0.00015222
0.0012004
0.00015649
0.00073565
0.00032167
0.00015993
2.0022e-05
0.0036529
1.407e-07
4.0208e-05
0.0035617
5.9836e-05
0.0034287
7.8431e-05
0.0032431
9.6071e-05
0.002999
0.00011095
0.0027374
0.00012516
0.0023348
0.00013849
0.0020599
0.00014615
0.0016043
0.00015235
0.0011942
0.00015658
0.00073142
0.00031829
0.00015996
2.0021e-05
0.0036328
1.4296e-07
4.0209e-05
0.0035415
5.9839e-05
0.0034091
7.8433e-05
0.0032245
9.6088e-05
0.0029813
0.00011097
0.0027225
0.00012511
0.0023206
0.00013851
0.0020465
0.00014631
0.0015965
0.00015249
0.001188
0.00015668
0.00072724
0.00031496
0.00016001
2.0021e-05
0.0036126
1.4524e-07
4.021e-05
0.0035213
5.9843e-05
0.0033895
7.8435e-05
0.0032059
9.6105e-05
0.0029637
0.00011099
0.0027076
0.00012506
0.0023065
0.00013853
0.0020331
0.00014646
0.0015886
0.00015264
0.0011818
0.00015679
0.00072309
0.00031169
0.00016006
2.002e-05
0.0035924
1.4753e-07
4.0212e-05
0.0035011
5.9847e-05
0.0033698
7.8437e-05
0.0031873
9.6121e-05
0.002946
0.00011101
0.0026928
0.00012501
0.0022925
0.00013853
0.0020196
0.0001466
0.0015805
0.00015279
0.0011757
0.0001569
0.00071897
0.00030847
0.00016012
2.002e-05
0.0035723
1.4983e-07
4.0213e-05
0.0034809
5.9851e-05
0.0033502
7.8439e-05
0.0031687
9.6138e-05
0.0029283
0.00011104
0.0026779
0.00012497
0.0022786
0.00013853
0.002006
0.00014674
0.0015723
0.00015294
0.0011695
0.00015702
0.00071489
0.0003053
0.00016019
2.0019e-05
0.0035521
1.5216e-07
4.0214e-05
0.0034608
5.9855e-05
0.0033306
7.844e-05
0.0031501
9.6154e-05
0.0029106
0.00011107
0.0026629
0.00012492
0.0022648
0.00013852
0.0019924
0.00014687
0.001564
0.00015309
0.0011632
0.00015716
0.00071082
0.00030218
0.00016027
2.0019e-05
0.0035319
1.545e-07
4.0215e-05
0.0034406
5.9859e-05
0.0033109
7.8442e-05
0.0031315
9.617e-05
0.0028929
0.0001111
0.002648
0.00012488
0.002251
0.00013851
0.0019788
0.00014699
0.0015555
0.00015325
0.001157
0.00015729
0.00070678
0.00029911
0.00016036
2.0018e-05
0.0035118
1.5686e-07
4.0217e-05
0.0034204
5.9863e-05
0.0032913
7.8444e-05
0.003113
9.6186e-05
0.0028751
0.00011113
0.0026331
0.00012484
0.0022373
0.00013849
0.0019651
0.00014711
0.0015469
0.0001534
0.0011507
0.00015743
0.00070275
0.00029609
0.00016046
2.0018e-05
0.0034916
1.5924e-07
4.0218e-05
0.0034002
5.9868e-05
0.0032716
7.8446e-05
0.0030944
9.6201e-05
0.0028574
0.00011116
0.0026181
0.00012479
0.0022236
0.00013847
0.0019514
0.00014722
0.0015381
0.00015356
0.0011443
0.00015758
0.00069873
0.00029311
0.00016056
2.0017e-05
0.0034714
1.6163e-07
4.0219e-05
0.00338
5.9872e-05
0.003252
7.8448e-05
0.0030758
9.6216e-05
0.0028396
0.0001112
0.0026031
0.00012476
0.0022101
0.00013844
0.0019377
0.00014732
0.0015292
0.00015371
0.0011379
0.00015773
0.0006947
0.00029017
0.00016067
2.0017e-05
0.0034512
1.6404e-07
4.0221e-05
0.0033598
5.9876e-05
0.0032323
7.8449e-05
0.0030572
9.6231e-05
0.0028218
0.00011123
0.0025881
0.00012472
0.0021966
0.0001384
0.0019241
0.00014741
0.0015202
0.00015386
0.0011315
0.00015788
0.00069068
0.00028727
0.00016078
2.0016e-05
0.003431
1.6648e-07
4.0222e-05
0.0033395
5.9881e-05
0.0032127
7.8451e-05
0.0030387
9.6246e-05
0.002804
0.00011127
0.0025731
0.00012469
0.0021832
0.00013836
0.0019104
0.00014749
0.0015111
0.000154
0.001125
0.00015803
0.00068665
0.00028441
0.00016089
2.0016e-05
0.0034109
1.6893e-07
4.0224e-05
0.0033193
5.9886e-05
0.003193
7.8453e-05
0.0030201
9.626e-05
0.0027862
0.00011131
0.0025581
0.00012465
0.0021698
0.00013832
0.0018967
0.00014757
0.0015019
0.00015414
0.0011184
0.00015819
0.00068261
0.00028159
0.00016101
2.0015e-05
0.0033907
1.714e-07
4.0225e-05
0.0032991
5.989e-05
0.0031733
7.8454e-05
0.0030015
9.6273e-05
0.0027684
0.00011136
0.002543
0.00012463
0.0021566
0.00013827
0.0018831
0.00014763
0.0014925
0.00015428
0.0011118
0.00015834
0.00067854
0.00027879
0.00016113
2.0015e-05
0.0033705
1.7389e-07
4.0226e-05
0.0032789
5.9895e-05
0.0031537
7.8456e-05
0.002983
9.6286e-05
0.0027506
0.0001114
0.0025279
0.0001246
0.0021434
0.00013822
0.0018695
0.00014769
0.001483
0.00015441
0.001105
0.00015849
0.00067446
0.00027602
0.00016125
2.0014e-05
0.0033503
1.764e-07
4.0228e-05
0.0032587
5.99e-05
0.003134
7.8458e-05
0.0029644
9.6298e-05
0.0027327
0.00011144
0.0025127
0.00012458
0.0021302
0.00013816
0.0018559
0.00014774
0.0014734
0.00015453
0.0010982
0.00015864
0.00067036
0.00027328
0.00016138
2.0014e-05
0.0033301
1.7893e-07
4.0229e-05
0.0032385
5.9905e-05
0.0031143
7.846e-05
0.0029459
9.631e-05
0.0027149
0.00011149
0.0024975
0.00012456
0.0021172
0.0001381
0.0018423
0.00014778
0.0014638
0.00015465
0.0010914
0.00015878
0.00066622
0.00027057
0.0001615
2.0013e-05
0.0033099
1.8148e-07
4.0231e-05
0.0032183
5.991e-05
0.0030946
7.8461e-05
0.0029273
9.6321e-05
0.002697
0.00011154
0.0024823
0.00012454
0.0021042
0.00013804
0.0018288
0.00014781
0.001454
0.00015475
0.0010844
0.00015892
0.00066206
0.00026787
0.00016161
2.0013e-05
0.0032897
1.8406e-07
4.0232e-05
0.0031981
5.9915e-05
0.003075
7.8463e-05
0.0029088
9.6332e-05
0.0026791
0.00011159
0.0024671
0.00012453
0.0020912
0.00013798
0.0018154
0.00014783
0.0014441
0.00015485
0.0010774
0.00015905
0.00065785
0.0002652
0.00016173
2.0012e-05
0.0032695
1.8665e-07
4.0233e-05
0.0031778
5.992e-05
0.0030553
7.8465e-05
0.0028902
9.6342e-05
0.0026613
0.00011164
0.0024518
0.00012453
0.0020783
0.00013792
0.001802
0.00014785
0.0014342
0.00015494
0.0010703
0.00015918
0.00065362
0.00026254
0.00016184
2.0012e-05
0.0032493
1.8927e-07
4.0235e-05
0.0031576
5.9926e-05
0.0030356
7.8467e-05
0.0028717
9.6351e-05
0.0026434
0.00011169
0.0024364
0.00012452
0.0020655
0.00013786
0.0017887
0.00014786
0.0014242
0.00015503
0.0010632
0.00015931
0.00064934
0.00025989
0.00016195
2.0012e-05
0.0032291
1.9191e-07
4.0236e-05
0.0031374
5.9931e-05
0.0030159
7.8469e-05
0.0028531
9.636e-05
0.0026255
0.00011174
0.002421
0.00012452
0.0020527
0.00013779
0.0017754
0.00014786
0.0014142
0.0001551
0.0010559
0.00015942
0.00064502
0.00025725
0.00016206
2.0011e-05
0.0032089
1.9457e-07
4.0238e-05
0.0031172
5.9937e-05
0.0029962
7.8471e-05
0.0028346
9.6368e-05
0.0026076
0.0001118
0.0024056
0.00012453
0.00204
0.00013773
0.0017622
0.00014785
0.001404
0.00015517
0.0010486
0.00015953
0.00064065
0.00025463
0.00016216
2.001e-05
0.0031887
1.9726e-07
4.0239e-05
0.0030969
5.9942e-05
0.0029765
7.8474e-05
0.0028161
9.6375e-05
0.0025897
0.00011185
0.0023901
0.00012454
0.0020273
0.00013767
0.001749
0.00014784
0.0013939
0.00015523
0.0010412
0.00015963
0.00063625
0.00025201
0.00016225
2.001e-05
0.0031685
1.9997e-07
4.0241e-05
0.0030767
5.9948e-05
0.0029568
7.8476e-05
0.0027975
9.6381e-05
0.0025718
0.0001119
0.0023746
0.00012455
0.0020147
0.00013761
0.001736
0.00014782
0.0013837
0.00015527
0.0010338
0.00015973
0.0006318
0.0002494
0.00016234
2.0009e-05
0.0031483
2.027e-07
4.0242e-05
0.0030565
5.9954e-05
0.0029371
7.8479e-05
0.002779
9.6387e-05
0.0025539
0.00011196
0.002359
0.00012457
0.002002
0.00013755
0.001723
0.0001478
0.0013734
0.00015531
0.0010262
0.00015981
0.0006273
0.00024679
0.00016242
2.0009e-05
0.003128
2.0546e-07
4.0244e-05
0.0030362
5.996e-05
0.0029173
7.8481e-05
0.0027605
9.6391e-05
0.002536
0.00011201
0.0023434
0.00012459
0.0019895
0.00013749
0.0017101
0.00014777
0.0013631
0.00015535
0.0010187
0.00015989
0.00062276
0.00024419
0.00016249
2.0008e-05
0.0031078
2.0824e-07
4.0245e-05
0.003016
5.9966e-05
0.0028976
7.8484e-05
0.002742
9.6395e-05
0.0025181
0.00011207
0.0023277
0.00012462
0.0019769
0.00013744
0.0016973
0.00014773
0.0013528
0.00015537
0.001011
0.00015996
0.00061817
0.00024158
0.00016256
2.0008e-05
0.0030876
2.1105e-07
4.0247e-05
0.0029958
5.9972e-05
0.0028779
7.8487e-05
0.0027235
9.6398e-05
0.0025001
0.00011213
0.002312
0.00012465
0.0019644
0.00013739
0.0016845
0.0001477
0.0013425
0.00015539
0.0010033
0.00016002
0.00061354
0.00023898
0.00016262
2.0007e-05
0.0030674
2.1389e-07
4.0249e-05
0.0029755
5.9978e-05
0.0028582
7.8491e-05
0.0027049
9.64e-05
0.0024822
0.00011218
0.0022962
0.00012469
0.0019519
0.00013734
0.0016719
0.00014766
0.0013322
0.00015539
0.00099559
0.00016007
0.00060886
0.00023638
0.00016267
2.0007e-05
0.0030472
2.1675e-07
4.025e-05
0.0029553
5.9985e-05
0.0028384
7.8494e-05
0.0026864
9.6402e-05
0.0024643
0.00011224
0.0022804
0.00012473
0.0019394
0.0001373
0.0016593
0.00014761
0.0013219
0.0001554
0.00098781
0.00016011
0.00060414
0.00023377
0.00016272
2.0006e-05
0.0030269
2.1964e-07
4.0252e-05
0.002935
5.9991e-05
0.0028187
7.8498e-05
0.0026679
9.6402e-05
0.0024464
0.00011229
0.0022645
0.00012477
0.0019269
0.00013726
0.0016468
0.00014757
0.0013116
0.00015539
0.00097998
0.00016015
0.00059938
0.00023116
0.00016276
2.0006e-05
0.0030067
2.2256e-07
4.0253e-05
0.0029148
5.9998e-05
0.002799
7.8502e-05
0.0026494
9.6402e-05
0.0024285
0.00011234
0.0022486
0.00012482
0.0019144
0.00013722
0.0016344
0.00014752
0.0013013
0.00015538
0.00097213
0.00016018
0.00059458
0.00022855
0.00016279
2.0005e-05
0.0029865
2.255e-07
4.0255e-05
0.0028945
6.0004e-05
0.0027792
7.8506e-05
0.0026309
9.64e-05
0.0024106
0.0001124
0.0022326
0.00012487
0.001902
0.00013719
0.0016221
0.00014747
0.001291
0.00015536
0.00096424
0.0001602
0.00058975
0.00022594
0.00016281
2.0005e-05
0.0029662
2.2848e-07
4.0256e-05
0.0028743
6.0011e-05
0.0027595
7.8511e-05
0.0026124
9.6398e-05
0.0023927
0.00011245
0.0022165
0.00012493
0.0018895
0.00013717
0.0016099
0.00014743
0.0012808
0.00015534
0.00095633