/*--------------------------------*- C++ -*----------------------------------*\
  =========                 |
  \\      /  F ield         | OpenFOAM: The Open Source CFD Toolbox
   \\    /   O peration     | Website:  https://openfoam.org
    \\  /    A nd           | Version:  6.0
     \\/     M anipulation  |
\*---------------------------------------------------------------------------*/
FoamFile
{
    version     2.0;
    format      ascii;
    class       volVectorField;
    location    "6";
    object      U;
}
// * * * * * * * * * * * * * * * * * * * * * * * * * * * * * * * * * * * * * //

dimensions      [0 1 -1 0 0 0 0];

internalField   nonuniform List<vector> 
13500
(
(1 3.6766e-06 -4.5529e-18)
(1 -3.3637e-06 3.0867e-18)
(1 -6.4348e-06 -1.3241e-17)
(1 -1.1347e-05 -9.1782e-18)
(1 -1.1988e-05 1.7184e-17)
(1 -1.0865e-05 3.197e-17)
(1 -5.7803e-06 2.7265e-17)
(0.99998 1.2461e-05 -4.3666e-18)
(0.99993 3.2291e-05 1.5986e-17)
(0.99981 7.085e-05 3.3576e-18)
(0.99573 0.000754 2.9368e-17)
(1.0191 0.010837 7.7845e-18)
(1 1.0961e-05 2.8207e-18)
(1 -6.9318e-06 -9.374e-18)
(1 -1.4898e-05 6.3233e-18)
(1 -2.722e-05 -3.6209e-19)
(1 -2.6596e-05 -4.583e-19)
(1 -2.3731e-05 -3.8442e-17)
(1 -5.0437e-06 -4.7092e-17)
(0.99993 4.6971e-05 -2.4984e-17)
(0.99977 0.00011402 -1.5954e-17)
(0.99985 0.00017919 -1.66e-18)
(0.98619 0.0021853 -1.3908e-17)
(1.0536 0.030633 -4.7134e-18)
(1 1.82e-05 -3.6432e-18)
(1 -1.073e-05 1.8624e-17)
(1 -2.3529e-05 3.289e-18)
(1 -4.3912e-05 1.0582e-17)
(1 -4.1625e-05 -3.9627e-18)
(1 -3.7838e-05 3.0793e-17)
(1 -4.8579e-06 -6.6291e-18)
(0.99989 8.0251e-05 5.6752e-18)
(0.99958 0.00020241 -1.9356e-17)
(1.0003 0.00030312 2.5222e-17)
(0.97599 0.0032653 -7.2745e-18)
(1.0822 0.045167 1.6538e-18)
(1 2.548e-05 9.524e-18)
(1 -1.5239e-05 -1.8057e-17)
(1 -3.2887e-05 -1.5591e-17)
(1 -6.2174e-05 -7.4254e-19)
(1 -5.8107e-05 6.1172e-18)
(1 -5.3732e-05 -8.5446e-19)
(1 -6.2166e-06 6.5314e-17)
(0.99986 0.00011165 1.0225e-17)
(0.99936 0.00029667 2.2888e-17)
(1.0013 0.00044652 -9.1361e-18)
(0.96551 0.0040212 3.5432e-17)
(1.1035 0.055715 -7.5283e-18)
(1 3.2816e-05 -6.6921e-18)
(1 -1.9828e-05 1.5606e-17)
(1 -4.2218e-05 1.3272e-17)
(1 -8.0588e-05 1.3544e-17)
(1.0001 -7.4642e-05 2.9995e-18)
(1.0001 -6.9744e-05 2.2633e-17)
(1 -7.5831e-06 -2.9166e-17)
(0.99984 0.00014218 2.0769e-18)
(0.99909 0.00039662 -1.4034e-17)
(1.0027 0.00061179 -2.1798e-18)
(0.95515 0.0045036 -9.1847e-18)
(1.1175 0.06341 2.0868e-18)
(0.99999 4.0205e-05 6.7725e-18)
(1 -2.4482e-05 -6.4696e-18)
(1 -5.1549e-05 4.0533e-18)
(1 -9.9119e-05 -2.683e-17)
(1.0001 -9.1256e-05 -8.7827e-20)
(1.0001 -8.5864e-05 -4.4807e-17)
(1 -8.9605e-06 1.1193e-18)
(0.99982 0.00017169 -1.6671e-17)
(0.99876 0.00050086 5.3441e-18)
(1.0044 0.00080562 -2.1964e-17)
(0.94527 0.0047548 -2.213e-17)
(1.125 0.068864 2.0181e-18)
(0.99999 4.765e-05 -1.121e-18)
(1 -2.9199e-05 -7.7379e-18)
(1 -6.0889e-05 -3.2941e-18)
(1.0001 -0.00011777 2.0251e-17)
(1.0001 -0.00010795 -2.7782e-17)
(1.0001 -0.00010212 1.7145e-17)
(1.0001 -1.0311e-05 1.9509e-17)
(0.99982 0.00020011 5.8651e-18)
(0.99837 0.00060802 1.1948e-17)
(1.0065 0.0010344 1.1824e-17)
(0.93614 0.0048125 9.5384e-18)
(1.1268 0.072505 3.2406e-18)
(0.99999 5.5149e-05 -2.3139e-18)
(1 -3.3972e-05 -1.5224e-18)
(1 -7.0254e-05 -2.8378e-17)
(1.0001 -0.00013653 -9.6705e-18)
(1.0001 -0.00012473 7.7757e-18)
(1.0001 -0.00011854 2.8098e-17)
(1.0001 -1.1622e-05 1.2418e-17)
(0.99984 0.00022736 5.2362e-18)
(0.9979 0.00071675 -7.81e-18)
(1.0089 0.001302 1.6562e-17)
(0.92801 0.004713 7.7082e-18)
(1.124 0.074694 -1.0307e-17)
(0.99999 6.2698e-05 -7.1834e-18)
(1 -3.8795e-05 6.5444e-18)
(1 -7.9658e-05 4.7716e-17)
(1.0001 -0.00015541 -1.16e-17)
(1.0001 -0.00014161 2.912e-17)
(1.0001 -0.00013513 -5.5475e-17)
(1.0001 -1.2897e-05 -4.1365e-17)
(0.99987 0.00025342 1.0175e-17)
(0.99736 0.00082568 -5.8665e-18)
(1.0115 0.0016099 -9.1344e-18)
(0.92103 0.0044907 -1.4238e-17)
(1.1176 0.075734 1.3486e-17)
(0.99999 7.0292e-05 4.7327e-18)
(0.99999 -4.3659e-05 2.4634e-18)
(1 -8.9114e-05 -4.0419e-17)
(1.0001 -0.0001744 1.6509e-17)
(1.0001 -0.00015861 -1.2699e-17)
(1.0001 -0.00015191 2.3661e-17)
(1.0001 -1.4143e-05 1.4701e-17)
(0.99991 0.00027825 2.5727e-18)
(0.99673 0.0009335 5.5339e-19)
(1.0143 0.0019576 1.4472e-18)
(0.9153 0.0041776 4.5327e-18)
(1.1083 0.07588 -7.0573e-19)
(0.99998 7.7928e-05 -2.5985e-18)
(0.99999 -4.8561e-05 -8.0795e-18)
(1 -9.8628e-05 9.9077e-18)
(1.0001 -0.00019349 -2.913e-18)
(1.0001 -0.00017572 1.9604e-18)
(1.0002 -0.00016887 -2.5932e-17)
(1.0001 -1.5366e-05 -3.3859e-17)
(0.99998 0.00030189 -3.2672e-17)
(0.99601 0.001039 1.6399e-17)
(1.0172 0.0023433 1.8798e-18)
(0.91088 0.0038028 -1.1498e-17)
(1.0972 0.075338 -5.8137e-18)
(0.99998 8.5603e-05 3.5867e-18)
(0.99999 -5.3499e-05 3.0516e-18)
(1 -0.00010821 4.775e-18)
(1.0001 -0.0002127 -2.3218e-18)
(1.0001 -0.00019296 -5.8764e-18)
(1.0002 -0.00018605 9.8079e-18)
(1.0001 -1.6574e-05 1.96e-17)
(1.0001 0.00032436 2.0184e-17)
(0.99521 0.001141 1.0538e-17)
(1.0201 0.0027639 -2.3737e-17)
(0.90776 0.0033923 1.1904e-19)
(1.0848 0.074277 -6.7328e-18)
(0.99998 9.3318e-05 -3.5862e-18)
(0.99999 -5.8476e-05 6.0015e-18)
(1 -0.00011785 8.6579e-18)
(1.0001 -0.00023203 6.062e-18)
(1.0002 -0.00021033 -5.4506e-18)
(1.0002 -0.00020345 4.8219e-18)
(1.0001 -1.7778e-05 4.4696e-18)
(1.0002 0.00034574 -1.8025e-18)
(0.99433 0.0012385 -1.7031e-17)
(1.0231 0.0032152 2.2012e-17)
(0.90591 0.002969 1.0591e-19)
(1.0719 0.072836 1.4403e-18)
(0.99997 0.00010107 5.4537e-18)
(0.99998 -6.3494e-05 -4.685e-18)
(1 -0.00012755 7.5818e-19)
(1.0001 -0.00025149 -5.0574e-18)
(1.0002 -0.00022783 1.2379e-17)
(1.0002 -0.00022109 5.8839e-18)
(1.0001 -1.899e-05 1.7986e-17)
(1.0003 0.0003661 -6.6952e-18)
(0.99337 0.0013306 -2.0814e-19)
(1.026 0.0036925 5.4063e-18)
(0.90527 0.0025525 1.7468e-17)
(1.0588 0.071129 9.186e-19)
(0.99997 0.00010887 1.3155e-18)
(0.99998 -6.856e-05 1.0398e-17)
(1 -0.00013732 1.4479e-17)
(1.0001 -0.00027109 -5.0429e-18)
(1.0002 -0.00024547 8.9643e-18)
(1.0002 -0.00023899 -2.7467e-18)
(1.0001 -2.0228e-05 -3.1501e-17)
(1.0005 0.00038556 2.1193e-17)
(0.99233 0.0014164 -1.921e-17)
(1.0288 0.0041907 -3.1183e-17)
(0.90575 0.0021594 -3.8322e-18)
(1.0461 0.069246 8.5141e-19)
(0.99996 0.00011671 -3.3558e-18)
(0.99998 -7.3677e-05 -1.1059e-17)
(1 -0.00014714 -3.4753e-17)
(1.0001 -0.00029084 8.4956e-18)
(1.0002 -0.00026326 -1.3603e-17)
(1.0002 -0.00025717 8.808e-18)
(1.0001 -2.151e-05 -2.9484e-18)
(1.0007 0.00040423 -1.2758e-17)
(0.99122 0.0014954 4.217e-18)
(1.0315 0.0047045 1.8621e-17)
(0.90724 0.0018029 -8.051e-18)
(1.0339 0.067263 1.1842e-17)
(0.99996 0.0001246 3.5315e-19)
(0.99997 -7.8854e-05 8.2711e-18)
(1 -0.00015702 2.3994e-17)
(1.0001 -0.00031075 -1.9137e-18)
(1.0002 -0.00028119 -1.3516e-17)
(1.0003 -0.00027564 -1.6414e-17)
(1.0002 -2.286e-05 1.1259e-17)
(1.0009 0.00042226 7.318e-18)
(0.99005 0.0015668 2.4381e-17)
(1.034 0.0052286 -2.6071e-18)
(0.90964 0.0014934 2.0019e-18)
(1.0226 0.065236 -4.7245e-18)
(0.99995 0.00013254 -1.9812e-18)
(0.99997 -8.4095e-05 -1.0022e-17)
(1 -0.00016696 -1.0827e-17)
(1.0001 -0.00033082 6.3948e-18)
(1.0002 -0.00029927 -7.5917e-18)
(1.0003 -0.00029441 -1.3167e-17)
(1.0001 -2.4306e-05 1.0947e-17)
(1.0012 0.00043982 -4.9639e-18)
(0.98881 0.0016301 -3.0175e-17)
(1.0364 0.005758 -1.4612e-17)
(0.91282 0.0012383 8.6922e-18)
(1.0122 0.063212 -5.1259e-18)
(0.99995 0.00014053 -2.8372e-18)
(0.99996 -8.9404e-05 -3.7886e-18)
(1 -0.00017695 -8.0244e-19)
(1.0001 -0.00035108 -2.8005e-17)
(1.0002 -0.00031751 6.3684e-18)
(1.0003 -0.00031351 5.7327e-18)
(1.0001 -2.588e-05 -2.0803e-17)
(1.0015 0.00045706 -1.6951e-17)
(0.98753 0.0016849 4.4127e-18)
(1.0385 0.0062878 -1.0979e-18)
(0.91667 0.0010426 -1.0036e-17)
(1.003 0.061227 9.6915e-19)
(0.99994 0.00014857 3.6903e-18)
(0.99996 -9.4786e-05 1.7367e-17)
(1 -0.000187 2.0665e-17)
(1.0001 -0.00037151 2.636e-18)
(1.0002 -0.00033591 1.7608e-17)
(1.0003 -0.00033295 1.0048e-17)
(1.0001 -2.762e-05 3.0019e-18)
(1.0018 0.00047419 1.8554e-17)
(0.98621 0.0017309 2.1931e-17)
(1.0404 0.0068136 1.7448e-17)
(0.92108 0.00090896 7.4963e-18)
(0.99501 0.059306 1.1505e-18)
(0.99994 0.00015667 -1.7591e-18)
(0.99995 -0.00010024 -4.1669e-18)
(1 -0.0001971 -2.2016e-17)
(1.0001 -0.00039213 -2.4989e-18)
(1.0003 -0.00035449 -1.3347e-17)
(1.0003 -0.00035275 -5.4379e-18)
(1.0001 -2.9568e-05 -1.9281e-18)
(1.0022 0.00049138 -1.678e-17)
(0.98485 0.0017678 -2.0972e-17)
(1.0421 0.0073314 8.943e-18)
(0.92592 0.00083816 5.1794e-19)
(0.98816 0.057469 6.6048e-19)
(0.99993 0.00016482 4.663e-18)
(0.99995 -0.00010578 -5.4446e-18)
(1 -0.00020727 -2.0651e-17)
(1.0001 -0.00041295 4.7482e-17)
(1.0003 -0.00037325 1.9362e-17)
(1.0004 -0.00037292 -1.3308e-17)
(1.0001 -3.1772e-05 2.5913e-17)
(1.0026 0.00050885 2.268e-17)
(0.98348 0.0017953 3.4032e-17)
(1.0435 0.0078377 -3.2777e-17)
(0.93109 0.0008292 -1.3774e-17)
(0.98249 0.055728 1.741e-19)
(0.99992 0.00017302 -3.4133e-18)
(0.99994 -0.0001114 -1.0928e-18)
(1 -0.00021751 3.5257e-17)
(1.0001 -0.00043396 -3.5896e-17)
(1.0003 -0.00039219 -1.8633e-18)
(1.0004 -0.00039348 4.4092e-17)
(1.0001 -3.4286e-05 8.0322e-18)
(1.0031 0.00052681 -3.5025e-18)
(0.98209 0.0018133 -2.1107e-17)
(1.0446 0.0083291 3.8626e-17)
(0.9365 0.00087972 -5.8401e-18)
(0.97794 0.054093 -2.7682e-19)
(0.99992 0.00018128 -1.7403e-18)
(0.99994 -0.00011709 -2.1776e-18)
(1 -0.00022782 1.8371e-18)
(1.0001 -0.00045519 3.7347e-17)
(1.0003 -0.00041133 -1.051e-17)
(1.0004 -0.00041444 -3.2593e-17)
(1 -3.7167e-05 -2.0477e-17)
(1.0036 0.00054546 -3.772e-18)
(0.9807 0.0018217 6.6751e-18)
(1.0455 0.0088032 -3.2586e-17)
(0.94206 0.00098629 9.779e-18)
(0.97446 0.052566 3.0021e-18)
(0.99991 0.00018958 2.8759e-18)
(0.99993 -0.00012287 1.5155e-17)
(1 -0.0002382 -1.3542e-17)
(1.0002 -0.00047662 -3.9091e-18)
(1.0003 -0.00043068 -2.0173e-17)
(1.0004 -0.00043582 3.5463e-17)
(0.99998 -4.0477e-05 -1.7979e-17)
(1.0041 0.00056501 1.5644e-17)
(0.97931 0.0018205 -2.0571e-18)
(1.0461 0.0092576 3.0551e-17)
(0.94767 0.0011446 -9.5509e-18)
(0.97196 0.051149 -5.0098e-18)
(0.9999 0.00019794 -5.5159e-19)
(0.99992 -0.00012873 -8.7165e-18)
(1 -0.00024866 -1.8965e-17)
(1.0002 -0.00049827 -1.0716e-17)
(1.0003 -0.00045024 1.9566e-17)
(1.0005 -0.00045762 -4.5225e-17)
(0.99992 -4.4286e-05 -2.7759e-18)
(1.0046 0.00058568 -2.1135e-17)
(0.97795 0.0018096 3.3238e-18)
(1.0464 0.0096905 -8.8117e-18)
(0.95328 0.0013498 1.0166e-17)
(0.97037 0.04984 2.1251e-18)
(0.99989 0.00020634 2.8901e-18)
(0.99992 -0.00013467 -9.3381e-18)
(1 -0.0002592 -1.8751e-18)
(1.0002 -0.00052014 2.6051e-18)
(1.0003 -0.00047002 6.1935e-18)
(1.0005 -0.00047987 1.3068e-17)
(0.99985 -4.8664e-05 4.5489e-17)
(1.0052 0.00060766 2.5263e-18)
(0.97662 0.0017891 5.4165e-18)
(1.0464 0.0101 9.7132e-18)
(0.95881 0.0015966 -8.7013e-18)
(0.96958 0.048636 1.6321e-18)
(0.99989 0.00021479 -1.6571e-18)
(0.99991 -0.0001407 9.3296e-18)
(1 -0.00026984 2.6961e-17)
(1.0002 -0.00054223 -2.6242e-17)
(1.0003 -0.00049003 -9.6351e-18)
(1.0005 -0.00050257 -2.301e-18)
(0.99977 -5.3689e-05 -1.4994e-17)
(1.0059 0.00063116 1.9605e-18)
(0.97532 0.0017591 -9.3844e-18)
(1.0462 0.010486 -3.5694e-18)
(0.96421 0.0018794 -2.4967e-19)
(0.96951 0.047531 -1.9947e-18)
(0.99988 0.00022329 -1.7813e-18)
(0.9999 -0.0001468 5.5852e-18)
(1 -0.00028057 -6.5148e-19)
(1.0002 -0.00056457 8.7014e-18)
(1.0003 -0.00051028 -1.7781e-17)
(1.0006 -0.00052574 2.6027e-17)
(0.99969 -5.944e-05 7.4812e-18)
(1.0065 0.00065634 -1.8701e-17)
(0.97408 0.0017198 -1.2035e-17)
(1.0457 0.010847 -1.4135e-17)
(0.96942 0.0021928 1.3767e-18)
(0.97006 0.046519 -3.6553e-18)
(0.99987 0.00023183 6.1907e-19)
(0.99989 -0.000153 -1.3339e-17)
(1 -0.0002914 1.6699e-17)
(1.0002 -0.00058714 2.4072e-17)
(1.0004 -0.00053078 3.4851e-17)
(1.0006 -0.00054938 -1.9116e-17)
(0.99958 -6.6002e-05 -1.8598e-17)
(1.0072 0.00068339 3.7941e-18)
(0.97289 0.0016713 1.1277e-17)
(1.045 0.011182 1.1066e-17)
(0.97442 0.0025312 6.4242e-18)
(0.97112 0.045594 3.6329e-18)
(0.99986 0.00024041 1.1866e-18)
(0.99989 -0.00015928 1.0608e-17)
(1 -0.00030234 -3.8367e-17)
(1.0002 -0.00060996 -3.4866e-18)
(1.0004 -0.00055154 -2.8955e-17)
(1.0007 -0.00057351 -1.2044e-17)
(0.99947 -7.3462e-05 2.599e-20)
(1.0079 0.00071247 -4.3433e-18)
(0.97177 0.0016139 -2.2223e-17)
(1.0441 0.011491 -1.7669e-17)
(0.97916 0.0028891 -8.7809e-18)
(0.97263 0.044749 -1.7903e-18)
(0.99985 0.00024903 -7.69e-19)
(0.99988 -0.00016564 -6.8995e-18)
(0.99999 -0.00031338 3.0191e-17)
(1.0002 -0.00063303 -3.3287e-17)
(1.0004 -0.00057256 -2.1801e-18)
(1.0007 -0.00059814 2.5648e-17)
(0.99934 -8.1909e-05 7.4417e-19)
(1.0087 0.0007437 4.1395e-18)
(0.97072 0.0015479 1.9454e-17)
(1.043 0.011775 2.297e-17)
(0.98362 0.0032616 5.0216e-18)
(0.97448 0.043975 -1.0003e-18)
(0.99984 0.0002577 -2.0024e-18)
(0.99987 -0.0001721 -2.545e-18)
(0.99999 -0.00032453 -1.3384e-17)
(1.0002 -0.00065636 1.6583e-17)
(1.0004 -0.00059386 3.1828e-17)
(1.0007 -0.00062326 -1.1336e-17)
(0.9992 -9.1436e-05 2.3172e-17)
(1.0095 0.00077721 3.1033e-18)
(0.96976 0.0014737 -2.2044e-18)
(1.0416 0.012033 1.0394e-17)
(0.98778 0.0036436 -5.619e-18)
(0.9766 0.043266 -6.9702e-19)
(0.99983 0.00026641 5.0073e-19)
(0.99986 -0.00017864 -6.7307e-18)
(0.99998 -0.0003358 5.0117e-18)
(1.0002 -0.00067997 -1.6905e-17)
(1.0004 -0.00061545 -3.3671e-17)
(1.0008 -0.0006489 7.1458e-18)
(0.99905 -0.00010214 -3.3431e-17)
(1.0103 0.00081309 -7.0995e-18)
(0.96889 0.0013916 7.1504e-18)
(1.0401 0.012265 -3.2621e-17)
(0.99161 0.0040308 3.8437e-18)
(0.97892 0.042614 1.9672e-18)
(0.99982 0.00027516 8.7955e-19)
(0.99985 -0.00018528 1.8235e-17)
(0.99998 -0.00034719 8.3928e-18)
(1.0002 -0.00070385 6.8845e-18)
(1.0004 -0.00063733 2.6925e-17)
(1.0008 -0.00067505 2.1318e-18)
(0.99888 -0.00011411 2.3088e-17)
(1.0111 0.00085142 5.0904e-18)
(0.96811 0.001302 -2.1737e-17)
(1.0385 0.012472 1.1232e-17)
(0.99512 0.0044189 2.6003e-18)
(0.98138 0.042012 2.04e-18)
(0.9998 0.00028396 -3.0718e-18)
(0.99984 -0.00019202 -6.0027e-18)
(0.99997 -0.0003587 -7.3721e-18)
(1.0002 -0.00072802 1.1309e-17)
(1.0004 -0.00065951 1.3011e-17)
(1.0009 -0.00070173 -4.2431e-18)
(0.9987 -0.00012745 -1.9395e-17)
(1.0119 0.00089225 2.3187e-17)
(0.96744 0.0012055 4.0232e-18)
(1.0367 0.012655 -3.3939e-18)
(0.9983 0.0048042 1.0767e-17)
(0.9839 0.041454 -1.4181e-18)
(0.99979 0.0002928 6.3123e-18)
(0.99983 -0.00019886 7.1898e-18)
(0.99997 -0.00037034 -7.8383e-18)
(1.0002 -0.00075248 -7.0469e-18)
(1.0004 -0.00068201 -1.867e-17)
(1.001 -0.00072893 -7.2904e-18)
(0.9985 -0.00014225 9.5637e-18)
(1.0128 0.00093561 -3.7195e-17)
(0.96687 0.0011025 9.8542e-18)
(1.0347 0.012813 -4.013e-18)
(1.0011 0.0051832 -1.1404e-17)
(0.98645 0.040934 4.1186e-18)
(0.99978 0.00030168 -2.786e-18)
(0.99982 -0.00020581 -1.2633e-17)
(0.99996 -0.00038211 -7.5985e-18)
(1.0002 -0.00077725 -1.3375e-17)
(1.0004 -0.00070484 -5.7021e-18)
(1.001 -0.00075666 2.144e-17)
(0.99828 -0.00015861 -9.3967e-18)
(1.0136 0.0009815 4.1381e-17)
(0.96641 0.00099364 9.2945e-18)
(1.0327 0.012948 1.2177e-17)
(1.0037 0.0055529 4.8074e-18)
(0.98897 0.040444 -6.6794e-18)
(0.99977 0.00031061 -1.4781e-18)
(0.99981 -0.00021286 9.3959e-18)
(0.99995 -0.000394 1.5056e-17)
(1.0002 -0.00080233 3.606e-17)
(1.0004 -0.000728 7.558e-18)
(1.0011 -0.00078492 -1.4706e-17)
(0.99805 -0.00017664 4.5344e-18)
(1.0145 0.0010299 -4.4526e-17)
(0.96607 0.00087944 -1.1276e-17)
(1.0306 0.013061 -6.7716e-18)
(1.0058 0.0059107 4.7187e-18)
(0.99142 0.039981 6.7166e-18)
(0.99975 0.00031959 1.1312e-18)
(0.99979 -0.00022002 2.225e-18)
(0.99995 -0.00040604 -1.4788e-17)
(1.0002 -0.00082773 -6.0059e-18)
(1.0004 -0.00075151 9.5992e-18)
(1.0012 -0.00081372 1.7609e-17)
(0.99781 -0.00019643 1.5773e-17)
(1.0153 0.0010807 4.4047e-18)
(0.96585 0.00076055 1.2617e-17)
(1.0284 0.013152 -3.139e-18)
(1.0077 0.0062542 -8.4252e-18)
(0.99378 0.039538 -1.7322e-18)
(0.99974 0.00032862 -4.6322e-20)
(0.99978 -0.0002273 2.5363e-18)
(0.99994 -0.00041821 3.3048e-18)
(1.0002 -0.00085346 -7.7992e-18)
(1.0005 -0.00077539 9.0723e-20)
(1.0013 -0.00084305 -1.5965e-17)
(0.99755 -0.00021806 -1.0669e-17)
(1.0162 0.001134 3.2613e-17)
(0.96574 0.0006376 -1.9072e-17)
(1.0262 0.013222 1.2189e-17)
(1.0093 0.0065816 4.4502e-18)
(0.99601 0.039112 -4.8931e-18)
(0.99973 0.00033769 -3.505e-18)
(0.99977 -0.0002347 -1.1893e-17)
(0.99993 -0.00043053 8.4402e-18)
(1.0002 -0.00087952 -2.1306e-17)
(1.0005 -0.00079964 -2.4281e-17)
(1.0013 -0.00087292 -2.2063e-17)
(0.99727 -0.00024165 -2.175e-17)
(1.0171 0.0011895 -3.3393e-18)
(0.96575 0.00051125 1.6668e-17)
(1.0239 0.013272 -1.0457e-17)
(1.0105 0.006891 4.4234e-19)
(0.9981 0.038698 4.6087e-18)
(0.99971 0.00034682 6.7654e-18)
(0.99976 -0.00024223 1.2431e-17)
(0.99992 -0.00044299 -1.3613e-17)
(1.0002 -0.00090593 1.7492e-17)
(1.0005 -0.00082427 -2.8501e-18)
(1.0014 -0.00090332 1.4462e-17)
(0.99698 -0.00026729 2.6144e-17)
(1.0179 0.0012471 -2.5306e-17)
(0.96588 0.00038218 -8.4549e-18)
(1.0217 0.013303 1.1045e-17)
(1.0115 0.0071814 3.8489e-18)
(1 0.038294 -2.1806e-18)
(0.9997 0.000356 -5.077e-18)
(0.99974 -0.00024988 -3.6733e-18)
(0.99991 -0.00045561 -2.8481e-18)
(1.0002 -0.0009327 2.002e-17)
(1.0005 -0.00084931 -6.1006e-18)
(1.0015 -0.00093425 -1.8386e-19)
(0.99668 -0.00029506 -5.1161e-18)
(1.0187 0.0013068 2.0271e-17)
(0.96613 0.00025106 -8.0313e-18)
(1.0194 0.013316 -7.5846e-18)
(1.0123 0.0074515 -1.138e-17)
(1.0018 0.037895 2.5345e-18)
(0.99968 0.00036523 3.4516e-18)
(0.99973 -0.00025766 -4.6589e-18)
(0.9999 -0.00046838 6.5168e-18)
(1.0002 -0.00095983 -3.038e-17)
(1.0005 -0.00087476 4.1315e-17)
(1.0016 -0.0009657 5.9947e-18)
(0.99636 -0.00032505 2.0193e-17)
(1.0196 0.0013684 -1.2547e-17)
(0.9665 0.00011859 1.0253e-19)
(1.0172 0.013312 5.6424e-18)
(1.0128 0.0077007 -2.2158e-18)
(1.0033 0.037499 -9.5352e-19)
(0.99967 0.00037451 -9.8737e-19)
(0.99971 -0.00026557 9.1095e-19)
(0.99989 -0.00048131 1.5884e-17)
(1.0002 -0.00098734 8.2821e-18)
(1.0005 -0.00090064 -2.0657e-17)
(1.0018 -0.00099767 -1.1745e-17)
(0.99602 -0.00035736 3.5293e-18)
(1.0204 0.0014315 -6.1021e-18)
(0.96698 -1.4566e-05 1.3438e-17)
(1.015 0.013291 -3.7034e-18)
(1.013 0.0079284 1.0658e-17)
(1.0047 0.037104 -3.4812e-18)
(0.99965 0.00038385 -1.7191e-18)
(0.9997 -0.00027362 -8.7816e-18)
(0.99988 -0.0004944 -4.7219e-18)
(1.0002 -0.0010152 3.3271e-17)
(1.0005 -0.00092696 -1.841e-17)
(1.0019 -0.0010302 -9.9689e-19)
(0.99568 -0.00039207 -5.2738e-17)
(1.0212 0.0014962 5.9952e-18)
(0.96758 -0.00014773 -2.5144e-17)
(1.0129 0.013255 -8.0015e-18)
(1.0131 0.0081343 -1.0662e-17)
(1.0059 0.036707 2.0668e-18)
(0.99963 0.00039324 -7.4245e-19)
(0.99968 -0.00028181 5.4405e-18)
(0.99987 -0.00050766 -1.9492e-18)
(1.0002 -0.0010435 -1.9371e-17)
(1.0005 -0.00095374 2.6456e-17)
(1.002 -0.0010631 -2.4486e-18)
(0.99532 -0.00042927 2.7937e-17)
(1.0219 0.0015621 -3.6891e-18)
(0.96828 -0.00028025 1.2203e-17)
(1.0108 0.013205 1.0009e-17)
(1.013 0.0083183 8.7948e-18)
(1.0069 0.036308 -5.001e-19)
(0.99961 0.00040269 4.2083e-18)
(0.99967 -0.00029015 -3.2564e-18)
(0.99986 -0.0005211 -6.8227e-18)
(1.0002 -0.0010722 2.1152e-17)
(1.0005 -0.000981 1.9431e-18)
(1.0021 -0.0010966 3.0336e-17)
(0.99494 -0.00046902 4.8207e-18)
(1.0227 0.001629 1.7618e-17)
(0.96909 -0.0004115 4.5784e-18)
(1.0088 0.013141 -3.2383e-18)
(1.0127 0.0084805 1.1446e-18)
(1.0077 0.035904 4.5226e-19)
(0.9996 0.00041219 1.2005e-18)
(0.99965 -0.00029864 1.3308e-18)
(0.99985 -0.00053472 -6.1886e-18)
(1.0002 -0.0011013 -4.2123e-17)
(1.0004 -0.0010088 5.8836e-18)
(1.0023 -0.0011306 2.6358e-18)
(0.99456 -0.00051141 -2.0905e-17)
(1.0234 0.0016966 2.4833e-19)
(0.97 -0.00054087 1.3504e-17)
(1.0069 0.013065 -2.0827e-18)
(1.0123 0.0086211 -5.5748e-18)
(1.0084 0.035495 2.6676e-18)
(0.99958 0.00042175 -5.1396e-18)
(0.99963 -0.00030728 5.6437e-18)
(0.99984 -0.00054852 1.019e-18)
(1.0002 -0.0011308 2.3395e-17)
(1.0004 -0.001037 -2.6836e-17)
(1.0024 -0.0011651 -1.1622e-17)
(0.99417 -0.00055651 2.1383e-17)
(1.024 0.0017647 -1.1938e-17)
(0.97101 -0.00066781 -2.1359e-17)
(1.0051 0.012976 -1.0295e-17)
(1.0118 0.0087406 7.1006e-18)
(1.0089 0.035079 8.8936e-19)
(0.99956 0.00043136 -5.4419e-19)
(0.99962 -0.00031607 -5.6803e-18)
(0.99982 -0.00056251 1.0867e-17)
(1.0002 -0.0011607 1.0378e-17)
(1.0004 -0.0010658 3.3152e-17)
(1.0026 -0.0012 4.4698e-18)
(0.99376 -0.00060439 1.8998e-17)
(1.0247 0.0018331 3.0271e-17)
(0.9721 -0.00079177 -9.5005e-19)
(1.0034 0.012878 1.8109e-17)
(1.0111 0.0088394 -7.5102e-19)
(1.0092 0.034657 -2.5959e-18)
(0.99954 0.00044103 5.2731e-18)
(0.9996 -0.00032502 -8.272e-18)
(0.99981 -0.00057669 -1.6498e-17)
(1.0002 -0.0011911 -2.7544e-18)
(1.0004 -0.0010952 -3.5987e-17)
(1.0027 -0.0012354 -1.3293e-17)
(0.99335 -0.00065512 -6.5915e-18)
(1.0252 0.0019014 2.3013e-19)
(0.97328 -0.00091228 2.7811e-17)
(1.0019 0.012769 4.1758e-18)
(1.0104 0.0089182 -9.751e-18)
(1.0094 0.034228 1.5569e-18)
(0.99952 0.00045075 -5.9124e-18)
(0.99958 -0.00033413 1.0332e-17)
(0.9998 -0.00059108 8.6355e-18)
(1.0002 -0.0012219 -5.4941e-18)
(1.0004 -0.0011251 2.8946e-17)
(1.0029 -0.0012712 1.5911e-17)
(0.99293 -0.00070876 -5.2115e-18)
(1.0258 0.0019694 -3.0514e-17)
(0.97453 -0.0010289 -9.4249e-19)
(1.0004 0.012651 -1.1928e-17)
(1.0097 0.0089777 1.1544e-17)
(1.0095 0.033791 -2.0398e-18)
(0.9995 0.00046053 3.5532e-18)
(0.99956 -0.00034341 -1.978e-18)
(0.99978 -0.00060567 1.1438e-17)
(1.0002 -0.0012532 -2.3131e-17)
(1.0004 -0.0011556 9.4568e-18)
(1.0031 -0.0013074 -5.7132e-18)
(0.9925 -0.00076536 -1.1235e-17)
(1.0263 0.0020368 -2.4519e-18)
(0.97586 -0.0011412 -3.3591e-17)
(0.99913 0.012526 7.8723e-18)
(1.0088 0.0090187 -1.0575e-17)
(1.0094 0.033348 6.8027e-19)
(0.99948 0.00047036 2.8116e-19)
(0.99954 -0.00035285 -6.2231e-18)
(0.99977 -0.00062048 6.4981e-18)
(1.0002 -0.0012849 3.0451e-17)
(1.0004 -0.0011867 -2.2519e-17)
(1.0033 -0.001344 1.8399e-17)
(0.99206 -0.00082499 -6.4979e-18)
(1.0267 0.0021032 5.6725e-18)
(0.97725 -0.0012489 3.9917e-17)
(0.99796 0.012393 -1.4616e-17)
(1.008 0.009042 1.6167e-17)
(1.0093 0.032897 1.9256e-18)
(0.99946 0.00048025 5.0464e-19)
(0.99952 -0.00036247 -1.2895e-18)
(0.99975 -0.0006355 -9.3462e-18)
(1.0002 -0.0013172 -4.5814e-18)
(1.0003 -0.0012185 1.9633e-17)
(1.0035 -0.0013811 1.5382e-19)
(0.99163 -0.00088769 -1.2776e-17)
(1.0271 0.0021685 -1.3552e-17)
(0.97869 -0.0013517 -1.6714e-17)
(0.99692 0.012253 -1.3818e-18)
(1.0071 0.0090486 2.9634e-18)
(1.0091 0.03244 2.0157e-19)
(0.99943 0.00049019 -8.1159e-19)
(0.9995 -0.00037226 1.5328e-17)
(0.99974 -0.00065075 -6.2356e-18)
(1.0002 -0.0013499 -2.5915e-17)
(1.0003 -0.0012509 9.0568e-18)
(1.0037 -0.0014185 -4.6885e-17)
(0.99119 -0.00095351 6.3707e-18)
(1.0275 0.0022324 8.5298e-18)
(0.98019 -0.0014493 7.7622e-19)
(0.99603 0.012108 1.485e-17)
(1.0063 0.0090394 -9.8641e-19)
(1.0088 0.031976 -5.3803e-18)
(0.99941 0.00050019 -2.1422e-19)
(0.99948 -0.00038224 -3.0031e-19)
(0.99972 -0.00066623 8.3963e-18)
(1.0002 -0.0013831 1.6003e-17)
(1.0003 -0.001284 -3.5973e-17)
(1.0039 -0.0014562 2.0218e-18)
(0.99074 -0.0010225 1.1416e-17)
(1.0278 0.0022945 1.3366e-17)
(0.98172 -0.0015416 -1.0583e-17)
(0.99528 0.011958 -1.4462e-17)
(1.0055 0.0090154 -1.6049e-17)
(1.0084 0.031506 5.6818e-18)
(0.99939 0.00051025 -1.4029e-18)
(0.99946 -0.00039239 4.2908e-19)
(0.99971 -0.00068195 -4.0482e-18)
(1.0002 -0.0014168 -1.0687e-17)
(1.0003 -0.0013178 1.9947e-17)
(1.0041 -0.0014943 2.5179e-17)
(0.9903 -0.0010947 3.3306e-18)
(1.028 0.0023545 6.7769e-18)
(0.98329 -0.0016285 1.6881e-17)
(0.99467 0.011804 2.4332e-18)
(1.0047 0.0089776 1.1869e-17)
(1.008 0.031031 -3.4493e-18)
(0.99936 0.00052036 2.5827e-18)
(0.99944 -0.00040274 7.9083e-19)
(0.99969 -0.00069791 -5.7875e-18)
(1.0002 -0.001451 1.5783e-18)
(1.0002 -0.0013523 -1.0815e-17)
(1.0043 -0.0015328 -6.0396e-18)
(0.98986 -0.0011701 -1.2305e-18)
(1.0282 0.0024123 -3.0604e-17)
(0.98489 -0.0017099 3.3179e-18)
(0.99419 0.011646 -4.9387e-18)
(1.0039 0.0089271 -4.8276e-18)
(1.0076 0.030552 -4.1585e-18)
(0.99934 0.00053052 -5.2715e-18)
(0.99941 -0.00041327 1.0333e-18)
(0.99967 -0.00071412 3.0699e-18)
(1.0002 -0.0014857 -1.9848e-17)
(1.0002 -0.0013876 -1.2335e-17)
(1.0046 -0.0015715 -2.8057e-17)
(0.98942 -0.0012488 5.943e-18)
(1.0284 0.0024676 1.2495e-17)
(0.9865 -0.0017857 -3.5571e-17)
(0.99386 0.011485 2.2769e-17)
(1.0032 0.0088648 -5.2234e-18)
(1.0071 0.030068 2.6816e-18)
(0.99931 0.00054074 4.8395e-18)
(0.99939 -0.000424 2.312e-18)
(0.99965 -0.00073058 1.181e-18)
(1.0002 -0.001521 6.2917e-18)
(1.0002 -0.0014237 -2.7273e-18)
(1.0048 -0.0016105 5.4391e-17)
(0.98899 -0.0013307 2.1341e-17)
(1.0284 0.00252 -1.9451e-17)
(0.98813 -0.0018561 3.4242e-17)
(0.99366 0.011323 -8.4953e-18)
(1.0026 0.0087917 -3.4474e-18)
(1.0067 0.029581 -1.3386e-18)
(0.99929 0.00055102 1.1876e-18)
(0.99936 -0.00043493 -1.4636e-17)
(0.99963 -0.00074731 2.3643e-18)
(1.0002 -0.0015568 2.8277e-17)
(1.0001 -0.0014606 2.1091e-17)
(1.0051 -0.0016497 -8.7055e-19)
(0.98856 -0.001416 -2.9563e-17)
(1.0284 0.0025694 5.8826e-18)
(0.98976 -0.001921 -7.7252e-18)
(0.99359 0.011158 -1.1763e-17)
(1.002 0.0087089 8.7681e-18)
(1.0062 0.029092 1.2473e-18)
(0.99926 0.00056135 -4.6967e-18)
(0.99934 -0.00044606 -4.8814e-18)
(0.99961 -0.00076431 -1.2809e-17)
(1.0002 -0.0015932 -2.372e-17)
(1.0001 -0.0014983 -2.1228e-17)
(1.0054 -0.0016892 -2.4725e-17)
(0.98814 -0.0015046 5.4614e-18)
(1.0284 0.0026154 4.5803e-17)
(0.99139 -0.0019807 3.3691e-18)
(0.99364 0.010993 -1.0299e-18)
(1.0015 0.0086172 -3.0969e-18)
(1.0058 0.0286 -3.3538e-18)
(0.99923 0.00057174 3.4858e-18)
(0.99931 -0.0004574 4.5324e-18)
(0.99959 -0.00078159 1.9741e-17)
(1.0002 -0.0016301 1.6431e-17)
(1 -0.001537 2.0655e-17)
(1.0056 -0.0017289 -9.1824e-19)
(0.98773 -0.0015965 -3.0433e-17)
(1.0283 0.002658 -2.4761e-17)
(0.99301 -0.0020353 8.3674e-18)
(0.99382 0.010827 4.0714e-18)
(1.0012 0.0085177 6.9853e-18)
(1.0054 0.028108 2.5908e-18)
(0.9992 0.00058218 -2.4621e-18)
(0.99929 -0.00046895 7.113e-18)
(0.99957 -0.00079916 -1.3063e-17)
(1.0002 -0.0016677 2.3799e-18)
(0.99996 -0.0015765 9.6084e-18)
(1.0059 -0.0017688 -2.418e-18)
(0.98733 -0.0016918 6.8297e-18)
(1.0282 0.0026968 6.8794e-18)
(0.99461 -0.002085 2.7596e-18)
(0.99411 0.01066 1.0071e-17)
(1.0008 0.0084111 -8.4021e-18)
(1.0051 0.027616 5.2328e-19)
(0.99917 0.00059268 3.7181e-18)
(0.99926 -0.00048072 4.41e-19)
(0.99955 -0.00081701 -6.1174e-18)
(1.0002 -0.0017058 9.4862e-19)
(0.9999 -0.001617 -1.5753e-18)
(1.0062 -0.0018089 -2.3903e-17)
(0.98694 -0.0017904 1.9083e-17)
(1.028 0.0027316 2.4428e-17)
(0.99619 -0.0021302 -1.3714e-17)
(0.9945 0.010494 -1.4018e-17)
(1.0006 0.0082984 -2.4585e-18)
(1.0048 0.027124 4.4592e-18)
(0.99915 0.00060323 -2.7011e-18)
(0.99923 -0.0004927 -3.3958e-19)
(0.99952 -0.00083517 7.6049e-18)
(1.0002 -0.0017445 -1.8195e-17)
(0.99983 -0.0016584 -1.4274e-17)
(1.0065 -0.0018491 3.0181e-17)
(0.98657 -0.0018923 -2.9191e-18)
(1.0277 0.0027622 -2.5861e-17)
(0.99775 -0.0021709 3.4969e-18)
(0.995 0.010329 1.32e-17)
(1.0005 0.0081805 8.3315e-18)
(1.0045 0.026633 -1.6079e-18)
(0.99911 0.00061384 2.6851e-19)
(0.99921 -0.00050492 2.4884e-18)
(0.9995 -0.00085363 4.1567e-18)
(1.0002 -0.0017838 9.4065e-18)
(0.99977 -0.0017009 2.7991e-17)
(1.0068 -0.0018895 7.0422e-18)
(0.98621 -0.0019975 -2.5425e-17)
(1.0274 0.0027885 2.4266e-18)
(0.99926 -0.0022077 9.0135e-18)
(0.99558 0.010164 -1.1898e-17)
(1.0005 0.0080579 -5.6351e-18)
(1.0043 0.026143 -1.8614e-18)
(0.99908 0.00062451 7.6254e-19)
(0.99918 -0.00051736 -4.3249e-19)
(0.99948 -0.00087241 -1.097e-17)
(1.0002 -0.0018237 -2.0258e-19)
(0.99969 -0.0017444 -5.5347e-17)
(1.0071 -0.0019301 8.6865e-18)
(0.98586 -0.002106 2.4975e-17)
(1.027 0.0028103 -6.9681e-18)
(1.0007 -0.0022408 -9.4358e-18)
(0.99626 0.010001 1.9762e-17)
(1.0005 0.0079316 6.7453e-18)
(1.0042 0.025657 4.8249e-18)
(0.99905 0.00063523 8.1938e-19)
(0.99915 -0.00053004 -8.9811e-19)
(0.99945 -0.00089152 1.9843e-17)
(1.0002 -0.0018642 4.3412e-18)
(0.99961 -0.001789 4.9057e-17)
(1.0075 -0.0019707 -3.0602e-17)
(0.98554 -0.0022178 -8.3677e-18)
(1.0266 0.0028273 6.5626e-18)
(1.0022 -0.0022707 3.2562e-18)
(0.997 0.0098391 -1.112e-17)
(1.0007 0.0078021 -1.0908e-18)
(1.0041 0.025173 -3.5581e-18)
(0.99902 0.00064601 -3.2017e-18)
(0.99912 -0.00054295 1.509e-18)
(0.99942 -0.00091095 -1.1664e-17)
(1.0002 -0.0019054 5.7105e-18)
(0.99953 -0.0018347 -1.8642e-17)
(1.0078 -0.0020115 4.1502e-18)
(0.98524 -0.0023329 3.3507e-17)
(1.0261 0.0028395 -2.457e-17)
(1.0035 -0.0022976 -1.1965e-17)
(0.99782 0.0096786 -1.1006e-17)
(1.001 0.0076701 -5.3671e-18)
(1.0041 0.024693 -9.7782e-19)
(0.99899 0.00065684 3.9889e-18)
(0.99909 -0.00055612 -3.5834e-18)
(0.9994 -0.00093073 -1.1323e-17)
(1.0002 -0.0019472 -9.1049e-18)
(0.99944 -0.0018816 -3.0493e-17)
(1.0081 -0.0020523 -1.9263e-17)
(0.98495 -0.0024511 -2.0546e-17)
(1.0256 0.0028466 2.2849e-17)
(1.0049 -0.002322 1.1605e-17)
(0.9987 0.0095198 1.667e-17)
(1.0013 0.007536 -2.1027e-18)
(1.0042 0.024217 4.7203e-18)
(0.99895 0.00066773 -6.4119e-18)
(0.99905 -0.00056953 5.8076e-18)
(0.99937 -0.00095085 2.7728e-17)
(1.0002 -0.0019897 -2.1486e-18)
(0.99935 -0.0019297 3.3739e-17)
(1.0084 -0.0020932 1.447e-18)
(0.98469 -0.0025724 -1.9687e-17)
(1.025 0.0028485 8.9503e-18)
(1.0061 -0.0023444 -4.1848e-18)
(0.99963 0.0093627 -3.4902e-18)
(1.0017 0.0074005 6.8212e-18)
(1.0044 0.023746 -3.1922e-18)
(0.99892 0.00067868 5.2551e-18)
(0.99902 -0.0005832 -7.8933e-18)
(0.99934 -0.00097133 -3.2334e-17)
(1.0002 -0.0020328 1.4057e-17)
(0.99925 -0.001979 -2.4045e-17)
(1.0088 -0.0021343 2.6636e-17)
(0.98446 -0.0026969 6.4145e-18)
(1.0244 0.0028452 -8.517e-18)
(1.0073 -0.0023651 -2.0101e-18)
(1.0006 0.0092073 -8.7479e-18)
(1.0022 0.007264 -1.1127e-17)
(1.0046 0.02328 4.4148e-18)
(0.99888 0.00068969 -3.8716e-18)
(0.99899 -0.00059712 2.625e-18)
(0.99931 -0.00099218 1.9649e-17)
(1.0002 -0.0020766 -1.8533e-17)
(0.99915 -0.0020295 3.8696e-17)
(1.0091 -0.0021754 -2.0682e-17)
(0.98425 -0.0028244 3.7399e-18)
(1.0238 0.0028363 -1.3472e-17)
(1.0085 -0.0023846 6.5663e-18)
(1.0016 0.0090537 -1.2262e-18)
(1.0028 0.0071269 4.7619e-18)
(1.0049 0.02282 -1.962e-18)
(0.99884 0.00070075 4.7492e-18)
(0.99895 -0.00061132 2.0442e-18)
(0.99928 -0.0010134 -1.3104e-17)
(1.0002 -0.0021211 -3.7838e-19)
(0.99904 -0.0020814 -1.7043e-18)
(1.0095 -0.0022166 4.9998e-18)
(0.98406 -0.0029548 3.5547e-17)
(1.0231 0.0028219 9.2169e-18)
(1.0095 -0.0024033 -1.9468e-17)
(1.0026 0.0089017 -6.351e-18)
(1.0035 0.0069894 -4.4845e-18)
(1.0053 0.022365 2.065e-18)
(0.99881 0.00071187 -5.4444e-18)