/*--------------------------------*- C++ -*----------------------------------*\
  =========                 |
  \\      /  F ield         | OpenFOAM: The Open Source CFD Toolbox
   \\    /   O peration     | Website:  https://openfoam.org
    \\  /    A nd           | Version:  6.0
     \\/     M anipulation  |
\*---------------------------------------------------------------------------*/
FoamFile
{
    version     2.0;
    format      ascii;
    class       volScalarField;
    location    "3";
    object      p;
}
// * * * * * * * * * * * * * * * * * * * * * * * * * * * * * * * * * * * * * //

dimensions      [0 2 -2 0 0 0 0];

internalField   nonuniform List<scalar> 
62000
(
0.15452
0.155758
0.157025
0.158378
0.159767
0.161248
0.162769
0.164387
0.166048
0.167813
0.169618
0.17153
0.173477
0.175534
0.17762
0.179814
0.182033
0.184354
0.186696
0.189132
0.191587
0.19413
0.196687
0.199328
0.201977
0.204711
0.207446
0.210263
0.213078
0.215963
0.218829
0.221729
0.224613
0.227599
0.23074
0.234037
0.237472
0.241082
0.244939
0.249136
0.253778
0.258995
0.264872
0.271409
0.27843
0.285472
0.291815
0.296221
0.297543
0.294041
0.285432
0.270278
0.250136
0.225206
0.196605
0.168811
0.140402
0.11743
0.0965707
0.0853013
0.152917
0.154606
0.156292
0.15803
0.159771
0.161573
0.163385
0.165264
0.167161
0.169135
0.171135
0.173222
0.17534
0.177551
0.179793
0.182129
0.184493
0.186943
0.189413
0.191958
0.194514
0.197132
0.199752
0.202422
0.205088
0.20779
0.210483
0.213199
0.215902
0.218611
0.2213
0.223959
0.226594
0.229287
0.23211
0.235073
0.238178
0.241477
0.245064
0.249048
0.253566
0.258785
0.264839
0.27178
0.279498
0.287616
0.295504
0.302019
0.30607
0.305913
0.301189
0.290208
0.274355
0.253399
0.228035
0.202671
0.175449
0.153205
0.132011
0.120542
0.149894
0.151882
0.153845
0.155836
0.157813
0.159823
0.161826
0.163871
0.165914
0.168013
0.170115
0.172288
0.174467
0.176732
0.179007
0.181377
0.18376
0.18624
0.188732
0.191311
0.193901
0.196563
0.199229
0.20195
0.204667
0.207419
0.210163
0.212919
0.215664
0.218399
0.221114
0.223784
0.226422
0.229103
0.231896
0.234819
0.237882
0.241144
0.2447
0.248664
0.253178
0.258424
0.264548
0.271613
0.27954
0.287997
0.296425
0.303763
0.309012
0.310469
0.307779
0.299139
0.285805
0.26732
0.244099
0.220451
0.194221
0.172573
0.151322
0.138906
0.14745
0.149574
0.151676
0.153804
0.155915
0.158053
0.160176
0.162329
0.164472
0.166652
0.168829
0.171054
0.17328
0.175567
0.177862
0.180227
0.182604
0.185058
0.187524
0.190069
0.192627
0.195257
0.197899
0.200604
0.203314
0.20607
0.208829
0.21161
0.21439
0.217171
0.219945
0.222681
0.225388
0.22814
0.230998
0.233985
0.237113
0.24044
0.24406
0.248077
0.25263
0.257903
0.264039
0.271096
0.279005
0.287468
0.295979
0.303564
0.309306
0.31159
0.31009
0.302949
0.291444
0.274877
0.253461
0.231194
0.20601
0.184946
0.16382
0.150742
0.145632
0.147811
0.149965
0.152142
0.154299
0.156482
0.158649
0.160845
0.163026
0.165247
0.167452
0.169709
0.171951
0.174258
0.176552
0.178921
0.181283
0.183723
0.186162
0.188679
0.191199
0.193793
0.196394
0.199062
0.201738
0.204469
0.207212
0.209989
0.212781
0.215588
0.218406
0.221202
0.223986
0.226819
0.229769
0.232851
0.236076
0.239502
0.243215
0.247307
0.251911
0.257208
0.263327
0.270316
0.278107
0.286424
0.294809
0.302358
0.308245
0.31093
0.310145
0.304009
0.293784
0.278654
0.25866
0.237624
0.213412
0.193032
0.172221
0.158675
0.143593
0.145815
0.148013
0.150237
0.152443
0.154674
0.156889
0.15913
0.161356
0.163617
0.165863
0.168153
0.17043
0.172759
0.175078
0.177457
0.179827
0.182263
0.184692
0.187189
0.189684
0.192246
0.194813
0.197445
0.200086
0.202785
0.205502
0.208263
0.21105
0.213869
0.216714
0.219557
0.222401
0.225314
0.22835
0.231528
0.234856
0.238386
0.242196
0.246366
0.251019
0.256328
0.26241
0.269295
0.276913
0.285006
0.29315
0.300515
0.306347
0.309203
0.308861
0.30345
0.294321
0.280485
0.261845
0.241893
0.218751
0.199042
0.178658
0.164969
0.141614
0.143857
0.146076
0.148321
0.150547
0.1528
0.155037
0.157304
0.159554
0.161841
0.164112
0.166426
0.168724
0.171075
0.173409
0.175803
0.178182
0.180625
0.183055
0.18555
0.188037
0.190587
0.193136
0.195747
0.198365
0.201042
0.203739
0.206484
0.209265
0.212087
0.214951
0.217826
0.220722
0.223695
0.226809
0.230074
0.233495
0.237121
0.241021
0.245262
0.249957
0.255273
0.261311
0.268085
0.275522
0.283372
0.29125
0.298379
0.304087
0.307001
0.306962
0.302112
0.293829
0.281054
0.263554
0.244657
0.222484
0.203521
0.183617
0.169881
0.139457
0.14172
0.143961
0.146229
0.14848
0.150757
0.153019
0.155308
0.157583
0.159891
0.162185
0.164519
0.166841
0.169209
0.171565
0.173974
0.176371
0.178823
0.181264
0.183762
0.186252
0.1888
0.191345
0.193948
0.196556
0.199223
0.201909
0.204648
0.207425
0.210253
0.213132
0.216035
0.218967
0.221995
0.225171
0.228509
0.232012
0.235721
0.239699
0.244
0.248729
0.254043
0.26003
0.266687
0.273936
0.28154
0.28914
0.296016
0.301553
0.304466
0.30464
0.300252
0.292804
0.281074
0.264731
0.246792
0.225689
0.207424
0.188066
0.174458
0.137397
0.139666
0.14191
0.14418
0.146433
0.148713
0.150977
0.15327
0.155549
0.157864
0.160163
0.162506
0.164832
0.167211
0.169574
0.171994
0.174398
0.176863
0.179313
0.181822
0.18432
0.186875
0.189424
0.192031
0.194641
0.197308
0.199995
0.202734
0.205516
0.208352
0.211247
0.214173
0.217141
0.22021
0.223441
0.226841
0.230412
0.234191
0.238234
0.242587
0.247343
0.252653
0.258592
0.265145
0.272229
0.279614
0.286968
0.293617
0.299008
0.301919
0.302289
0.298323
0.291568
0.280742
0.265409
0.248432
0.228279
0.210757
0.191926
0.178439
0.135119
0.137397
0.139652
0.141934
0.144199
0.146491
0.148768
0.151073
0.153363
0.155688
0.158
0.160353
0.162692
0.165081
0.167456
0.169886
0.172303
0.174777
0.177237
0.179754
0.182262
0.184824
0.187382
0.189996
0.192613
0.195286
0.19798
0.200727
0.203519
0.206368
0.209281
0.212232
0.215228
0.218337
0.221614
0.225067
0.228695
0.232534
0.236631
0.241026
0.245802
0.251102
0.256993
0.263446
0.270375
0.277558
0.284685
0.291125
0.296371
0.299277
0.299811
0.296233
0.290212
0.280316
0.266026
0.24994
0.230827
0.213993
0.19574
0.182458
0.132822
0.135102
0.137359
0.139644
0.141911
0.144207
0.146487
0.148798
0.151094
0.153426
0.155743
0.158103
0.160449
0.162845
0.165226
0.167663
0.170086
0.172567
0.175035
0.177561
0.180077
0.182649
0.185216
0.18784
0.190467
0.193151
0.195856
0.198616
0.201421
0.204287
0.20722
0.210195
0.213223
0.216365
0.219683
0.223181
0.226859
0.230748
0.234892
0.239322
0.244116
0.24941
0.255261
0.261634
0.268437
0.275458
0.282406
0.288687
0.293841
0.296775
0.297503
0.294316
0.288932
0.279861
0.266501
0.25132
0.233121
0.217004
0.199277
0.186152
0.130375
0.132662
0.134926
0.137219
0.139494
0.141798
0.144086
0.146404
0.148707
0.151045
0.15337
0.155736
0.158089
0.160491
0.16288
0.165322
0.167754
0.170241
0.172717
0.17525
0.177774
0.180354
0.182932
0.185565
0.188203
0.1909
0.193618
0.196393
0.199215
0.2021
0.205055
0.208055
0.21111
0.214287
0.217641
0.22118
0.224901
0.228834
0.233018
0.237479
0.242287
0.247572
0.253386
0.259685
0.266377
0.273255
0.280046
0.286193
0.291267
0.294243
0.29515
0.292341
0.287653
0.279448
0.267057
0.252723
0.235523
0.220072
0.20292
0.190001
0.127946
0.130232
0.132493
0.134782
0.137054
0.139354
0.141639
0.143955
0.146255
0.148593
0.150916
0.153283
0.155635
0.158039
0.160428
0.162875
0.165308
0.167801
0.170282
0.172822
0.175354
0.177943
0.180529
0.183173
0.185824
0.188533
0.191266
0.194056
0.196896
0.199801
0.202778
0.205803
0.208889
0.212095
0.215484
0.21906
0.22282
0.226792
0.231012
0.235501
0.240325
0.245608
0.251397
0.257644
0.264255
0.27103
0.277715
0.283778
0.288832
0.291893
0.293025
0.290616
0.286548
0.279125
0.267612
0.254138
0.237815
0.223046
0.206403
0.193634
0.125346
0.127635
0.129901
0.132194
0.13447
0.136774
0.139063
0.141382
0.143686
0.146026
0.148353
0.150722
0.153078
0.155485
0.157878
0.160327
0.162765
0.165261
0.167746
0.170291
0.172828
0.175424
0.178018
0.180671
0.183332
0.186053
0.1888
0.191606
0.194463
0.197388
0.200388
0.203439
0.20655
0.209788
0.213209
0.21682
0.220615
0.224623
0.228876
0.233392
0.23823
0.243512
0.249279
0.255481
0.262023
0.268714
0.275311
0.281315
0.28636
0.289521
0.290866
0.288852
0.285464
0.278865
0.268265
0.255608
0.240238
0.226115
0.210037
0.197449
0.122673
0.124963
0.127228
0.129523
0.131798
0.134104
0.136394
0.138715
0.141021
0.143364
0.145692
0.148064
0.150421
0.15283
0.155225
0.157677
0.160117
0.162616
0.165105
0.167653
0.170196
0.172797
0.175398
0.178059
0.18073
0.183462
0.186221
0.189042
0.191917
0.194861
0.197882
0.200957
0.204096
0.207361
0.210814
0.214457
0.218286
0.222328
0.226613
0.231156
0.236014
0.241302
0.247063
0.253241
0.259744
0.266386
0.272942
0.278933
0.284028
0.287333
0.288945
0.287354
0.284582
0.278736
0.268975
0.257145
0.242616
0.229147
0.21356
0.201103
0.119868
0.122162
0.124431
0.12673
0.12901
0.13132
0.133614
0.135939
0.138248
0.140594
0.142926
0.1453
0.147661
0.150072
0.15247
0.154924
0.157367
0.159868
0.16236
0.164911
0.167458
0.170064
0.172671
0.175339
0.178018
0.18076
0.183532
0.186366
0.189256
0.192218
0.195261
0.198359
0.201523
0.204817
0.208299
0.211973
0.215834
0.219909
0.224225
0.228796
0.233674
0.238971
0.244727
0.250888
0.257362
0.263971
0.270502
0.276501
0.281652
0.285116
0.28698
0.285807
0.283709
0.278661
0.269772
0.258737
0.245123
0.232282
0.217249
0.204947
0.117016
0.11931
0.121577
0.123875
0.126153
0.128462
0.130754
0.133078
0.135387
0.137733
0.140064
0.142438
0.144799
0.147211
0.149609
0.152064
0.154509
0.157013
0.159507
0.162062
0.164613
0.167224
0.169837
0.172511
0.175198
0.17795
0.180732
0.183579
0.186484
0.189463
0.192524
0.195644
0.198834
0.202153
0.205664
0.209369
0.213261
0.217368
0.221716
0.226318
0.231221
0.236536
0.242304
0.248468
0.25494
0.26155
0.268097
0.274146
0.279408
0.283072
0.285246
0.284522
0.283044
0.278733
0.270657
0.260424
0.24762
0.23541
0.220851
0.208662
0.114031
0.116328
0.118599
0.120899
0.123181
0.125492
0.127786
0.130112
0.132422
0.134769
0.137102
0.139478
0.14184
0.144253
0.146653
0.149109
0.151555
0.15406
0.156556
0.159113
0.161667
0.164281
0.166899
0.169578
0.172272
0.175031
0.177823
0.180681
0.1836
0.186594
0.189674
0.192814
0.196026
0.199372
0.20291
0.206644
0.210567
0.214708
0.219088
0.223721
0.228651
0.233986
0.239768
0.245942
0.252421
0.259043
0.26562
0.271735
0.277112
0.280988
0.283452
0.283174
0.282371
0.278838
0.271602
0.262149
0.250226
0.238633
0.224619
0.21256
0.11094
0.113239
0.115511
0.117814
0.120097
0.12241
0.124707
0.127035
0.129348
0.131698
0.134033
0.13641
0.138774
0.141189
0.143591
0.146049
0.148496
0.151003
0.153501
0.156061
0.158617
0.161234
0.163855
0.16654
0.169239
0.172005
0.174805
0.177674
0.180605
0.183614
0.186709
0.189869
0.193105
0.196473
0.200039
0.203801
0.207755
0.211928
0.216343
0.221011
0.225975
0.231341
0.237152
0.243354
0.249865
0.256531
0.263173
0.269392
0.274936
0.279062
0.281877
0.282077
0.281901
0.279095
0.27265
0.263984
0.252846
0.241867
0.228314
0.216351
0.107737
0.11004
0.112317
0.114624
0.116911
0.119228
0.121529
0.12386
0.126176
0.128528
0.130866
0.133246
0.135612
0.138028
0.140431
0.142889
0.145337
0.147845
0.150344
0.152904
0.155462
0.158081
0.160706
0.163395
0.166099
0.168871
0.171679
0.174557
0.177499
0.18052
0.183632
0.18681
0.190065
0.193459
0.19705
0.200841
0.204826
0.209032
0.213482
0.218187
0.223186
0.228585
0.234428
0.240664
0.247215
0.253934
0.260652
0.266989
0.2727
0.277086
0.280228
0.2809
0.281405
0.279364
0.273738
0.265843
0.255559
0.24519
0.232174
0.220323
0.104447
0.106751
0.109028
0.111336
0.113624
0.115943
0.118244
0.120577
0.122894
0.125248
0.127586
0.129968
0.132334
0.134753
0.137156
0.139617
0.142067
0.144577
0.147077
0.14964
0.152201
0.154822
0.15745
0.160142
0.162851
0.165629
0.168444
0.17133
0.174282
0.177316
0.180441
0.183637
0.186914
0.190328
0.193946
0.197764
0.20178
0.206021
0.210508
0.215254
0.220296
0.225738
0.231627
0.237915
0.244529
0.251327
0.258155
0.264644
0.27057
0.275253
0.278784
0.279964
0.281105
0.27979
0.274944
0.267823
0.258304
0.248535
0.235967
0.224201
0.101056
0.103365
0.105646
0.107957
0.110247
0.112568
0.114871
0.117205
0.119524
0.121879
0.124219
0.126601
0.128969
0.131387
0.133791
0.136251
0.138701
0.141211
0.143711
0.146275
0.148836
0.151459
0.154089
0.156783
0.159496
0.162279
0.1651
0.167993
0.170954
0.173999
0.177139
0.180351
0.183645
0.187084
0.190725
0.194572
0.198619
0.202895
0.207421
0.212209
0.217295
0.222782
0.22872
0.235066
0.241748
0.248637
0.255582
0.262235
0.268373
0.273363
0.277252
0.278934
0.280766
0.280207
0.276163
0.26981
0.261123
0.251959
0.239922
0.22825
0.0975333
0.0998453
0.10213
0.104444
0.106739
0.109063
0.11137
0.113708
0.11603
0.118388
0.12073
0.123114
0.125484
0.127905
0.13031
0.132772
0.135223
0.137734
0.140236
0.1428
0.145363
0.147987
0.150619
0.153316
0.156032
0.158819
0.161645
0.164545
0.167515
0.170571
0.173722
0.17695
0.180264
0.183722
0.187389
0.191264
0.195342
0.199655
0.204223
0.209057
0.214195
0.219737
0.225738
0.232157
0.238931
0.245933
0.253027
0.259872
0.266271
0.271597
0.275917
0.278129
0.280613
0.280779
0.27751
0.271923
0.263987
0.255412
0.243813
0.232214
0.093911
0.0962286
0.098518
0.100837
0.103136
0.105464
0.107775
0.110116
0.112441
0.114801
0.117146
0.119532
0.121903
0.124325
0.12673
0.129192
0.131643
0.134153
0.136655
0.139219
0.141781
0.144407
0.14704
0.149739
0.152458
0.155248
0.158079
0.160986
0.163963
0.167028
0.170193
0.173435
0.176766
0.180247
0.183938
0.187841
0.191951
0.196302
0.200912
0.205794
0.210985
0.216585
0.222651
0.229149
0.236019
0.243144
0.250391
0.257442
0.264097
0.269773
0.274479
0.27722
0.280408
0.281326
0.278851
0.274031
0.26691
0.258937
0.247863
0.236343
0.0901646
0.092485
0.0947773
0.0970999
0.0994019
0.101734
0.104047
0.106392
0.10872
0.111084
0.113431
0.11582
0.118193
0.120617
0.123025
0.125489
0.127941
0.130454
0.132957
0.135523
0.138087
0.140713
0.143349
0.14605
0.148771
0.151565
0.154401
0.157313
0.160298
0.163373
0.166547
0.169804
0.173154
0.176654
0.18037
0.184301
0.188444
0.192833
0.197489
0.202425
0.207676
0.213343
0.219488
0.226081
0.233068
0.240336
0.247768
0.255049
0.262006
0.268055
0.273231
0.27652
0.28038
0.282032
0.280329
0.276272
0.26989
0.262494
0.251848
0.240393
0.0863381
0.0886638
0.0909602
0.0932862
0.0955909
0.0979247
0.10024
0.102586
0.104916
0.107281
0.109629
0.112019
0.114393
0.116817
0.119224
0.121687
0.124139
0.126651
0.129153
0.131718
0.134282
0.136909
0.139545
0.142247
0.144971
0.147768
0.150608
0.153526
0.156518
0.159601
0.162788
0.166058
0.169424
0.172946
0.176686
0.180645
0.184822
0.189252
0.193954
0.198945
0.204257
0.209995
0.216219
0.222915
0.23002
0.237446
0.245059
0.25259
0.259836
0.266283
0.271856
0.275722
0.280294
0.282697
0.28178
0.278492
0.27291
0.266116
0.255989
0.244597
0.0823545
0.0846852
0.0869864
0.0893178
0.0916276
0.0939668
0.0962869
0.0986379
0.100971
0.10334
0.105691
0.108084
0.11046
0.112887
0.115296
0.117761
0.120215
0.122728
0.125231
0.127797
0.130362
0.132989
0.135627
0.13833
0.141056
0.143855
0.1467
0.149623
0.152621
0.155714
0.15891
0.162195
0.165578
0.169119
0.172885
0.176872
0.181083
0.185554
0.190307
0.195358
0.20074
0.206556
0.212875
0.219686
0.226932
0.23453
0.242359
0.250158
0.257742
0.264602
0.270671
0.275112
0.280375
0.283517
0.283374
0.280848
0.275994
0.269771
0.26006
0.248724
0.0782771
0.080614
0.0829207
0.0852572
0.0875714
0.0899144
0.0922383
0.0945926
0.0969295
0.0993014
0.101655
0.10405
0.106427
0.108855
0.111264
0.113729
0.116181
0.118694
0.121196
0.123761
0.126326
0.128953
0.131591
0.134296
0.137023
0.139825
0.142673
0.145601
0.148607
0.151707
0.154916
0.158213
0.161612
0.165174
0.168964
0.172981
0.177229
0.181742
0.186549
0.191659
0.197114
0.20301
0.209428
0.216357
0.223749
0.23153
0.239575
0.247658
0.25557
0.262857
0.269343
0.27442
0.280395
0.284284
0.284926
0.283171
0.279106
0.273483
0.264284
0.252999
0.0740448
0.0763859
0.0786971
0.0810385
0.0833581
0.0857068
0.0880362
0.090396
0.0927377
0.0951144
0.0974722
0.099871
0.102252
0.104683
0.107095
0.109563
0.112018
0.114533
0.117036
0.119603
0.122168
0.124797
0.127435
0.130141
0.13287
0.135676
0.138527
0.141461
0.144473
0.147582
0.150799
0.154111
0.157527
0.161109
0.164923
0.168973
0.173254
0.177817
0.182675
0.187856
0.193388
0.199376
0.205902
0.212967
0.220523
0.228504
0.236794
0.24518
0.253464
0.261196
0.268204
0.273893
0.28057
0.285208
0.286628
0.285635
0.282289
0.277227
0.268432
0.257194
0.0697475
0.0720943
0.0744098
0.0767547
0.0790769
0.0814275
0.0837586
0.08612
0.0884633
0.0908414
0.0932005
0.0956002
0.0979814
0.100413
0.102824
0.105291
0.107744
0.110258
0.11276
0.115326
0.117891
0.120519
0.123158
0.125865
0.128596
0.131404
0.13426
0.137198
0.140217
0.143333
0.146563
0.149885
0.153319
0.156922
0.160762
0.164843
0.169164
0.173773
0.17869
0.183939
0.189552
0.195634
0.202273
0.209478
0.217201
0.225393
0.233929
0.242633
0.251277
0.259461
0.266917
0.273301
0.280688
0.286066
0.28827
0.288051
0.285486
0.281023
0.272729
0.261528
0.0652698
0.0676229
0.0699445
0.0722964
0.074625
0.0769825
0.0793195
0.0816868
0.0840349
0.0864176
0.0887803
0.0911833
0.0935678
0.0960015
0.0984158
0.100884
0.10334
0.105855
0.108358
0.110924
0.113489
0.116118
0.118758
0.121466
0.124198
0.127009
0.129868
0.132811
0.135836
0.138961
0.142198
0.145535
0.148986
0.152605
0.156478
0.160589
0.164953
0.169611
0.174591
0.179913
0.185617
0.191801
0.198567
0.205923
0.213835
0.222252
0.231064
0.240101
0.249149
0.257805
0.265813
0.272843
0.280945
0.287078
0.290065
0.290609
0.288756
0.284847
0.276943
0.265779
0.0606947
0.0630545
0.0653816
0.0677386
0.0700716
0.072433
0.0747738
0.0771448
0.0794966
0.0818829
0.0842485
0.0866544
0.0890402
0.0914756
0.0938896
0.0963587
0.098813
0.101328
0.10383
0.106396
0.10896
0.111589
0.114229
0.116939
0.119673
0.122486
0.125349
0.128297
0.131327
0.134458
0.137706
0.141054
0.144516
0.148164
0.15206
0.156212
0.160618
0.165331
0.170373
0.175774
0.181568
0.18786
0.194753
0.202269
0.21037
0.219025
0.228111
0.237497
0.246935
0.256068
0.264559
0.272346
0.281146
0.288013
0.291786
0.293109
0.29203
0.288718
0.281305
0.270163
0.0559312
0.0582968
0.0606304
0.0629949
0.065336
0.0677059
0.0700551
0.0724342
0.0747937
0.0771868
0.0795589
0.0819701
0.0843618
0.0868012
0.08922
0.0916918
0.0941495
0.0966658
0.0991694
0.101736
0.104302
0.106931
0.109572
0.112282
0.115018
0.117834
0.1207
0.123651
0.126685
0.129822
0.133076
0.136435
0.139917
0.143582
0.147514
0.151707
0.156158
0.160928
0.166038
0.171524
0.177417
0.183826
0.190859
0.198548
0.206856
0.215765
0.225151
0.234905
0.244769
0.254406
0.263471
0.271956
0.281473
0.289105
0.293667
0.295753
0.295379
0.29261
0.285575
0.274459
0.0511118
0.053483
0.0558204
0.0581879
0.0605309
0.0629023
0.0652528
0.0676334
0.0699945
0.0723896
0.0747632
0.0771762
0.0795682
0.0820092
0.0844274
0.0868998
0.0893566
0.0918732
0.0943762
0.0969433
0.0995089
0.102139
0.104781
0.107492
0.11023
0.113048
0.115916
0.118869
0.121907
0.125049
0.128312
0.131682
0.135178
0.138872
0.142838
0.147068
0.15157
0.156397
0.16158
0.167151
0.173149
0.179677
0.186855
0.19472
0.203243
0.212411
0.222104
0.23223
0.24252
0.252649
0.262255
0.271533
0.281742
0.290107
0.295458
0.298328
0.298723
0.296548
0.289988
0.278882
0.0460794
0.0484579
0.0508025
0.0531785
0.0555295
0.0579097
0.0602678
0.062656
0.0650237
0.0674247
0.0698038
0.0722215
0.074619
0.0770638
0.0794872
0.0819626
0.0844237
0.0869424
0.089448
0.092016
0.094583
0.097213
0.0998564
0.102568
0.105308
0.108126
0.110996
0.113952
0.116993
0.12014
0.123409
0.126791
0.130308
0.134022
0.138024
0.142296
0.146847
0.151737
0.156997
0.162664
0.168774
0.175432
0.182765
0.19082
0.199574
0.209018
0.219041
0.229561
0.240306
0.250962
0.261179
0.271189
0.282123
0.291262
0.297409
0.301045
0.302138
0.3005
0.294304
0.283212
0.0409477
0.0433316
0.045681
0.0480619
0.0504179
0.0528025
0.0551658
0.0575591
0.0599325
0.0623394
0.0647238
0.0671467
0.0695478
0.0719968
0.0744223
0.0769001
0.0793618
0.0818816
0.0843871
0.0869553
0.0895223
0.0921521
0.0947959
0.0975074
0.100247
0.103065
0.105937
0.108894
0.111938
0.11509
0.118368
0.121761
0.12529
0.129037
0.133068
0.137383
0.141986
0.146943
0.152283
0.158048
0.164275
0.171066
0.178557
0.186808
0.195799
0.205528
0.215885
0.226804
0.238006
0.24918
0.259993
0.270811
0.28244
0.292317
0.299259
0.303686
0.305543
0.304496
0.298761
0.287671
0.0354604
0.0378568
0.0402251
0.0426299
0.0450132
0.0474237
0.0498117
0.0522297
0.0546253
0.0570524
0.0594532
0.0618925
0.0643078
0.0667693
0.0692059
0.0716915
0.0741601
0.0766835
0.0791917
0.0817601
0.0843271
0.0869552
0.0895978
0.0923072
0.0950458
0.0978626
0.100734
0.103691
0.106737
0.109894
0.113178
0.116583
0.120135
0.123897
0.127966
0.132325
0.136983
0.14201
0.147437
0.153308
0.159661
0.166594
0.174256
0.182716
0.191959
0.201989
0.212703
0.224043
0.23573
0.247459
0.258918
0.270491
0.282862
0.293528
0.301274
0.306468
0.309017
0.308497
0.303118
0.292039
0.0305802
0.0329703
0.0353178
0.0376928
0.0400389
0.0424108
0.044759
0.0471407
0.0495015
0.0518986
0.0542708
0.0566865
0.0590791
0.0615218
0.06394
0.0664105
0.0688653
0.0713776
0.073876
0.0764366
0.0789972
0.0816194
0.0842575
0.0869622
0.0896974
0.0925111
0.0953804
0.0983375
0.101385
0.104545
0.107838
0.111255
0.114819
0.118615
0.122715
0.127118
0.131834
0.136934
0.142451
0.14843
0.154911
0.161991
0.169829
0.178504
0.188006
0.198346
0.209424
0.22119
0.233366
0.245645
0.257746
0.270134
0.283214
0.294627
0.303176
0.309167
0.312477
0.312544
0.30761
0.296533
0.0246688
0.0270774
0.0294588
0.0318746
0.0342685
0.0366864
0.0390804
0.0415021
0.0438992
0.0463264
0.0487245
0.0511606
0.05357
0.0560262
0.0584546
0.0609328
0.0633919
0.0659066
0.0684043
0.0709627
0.0735192
0.0761364
0.078769
0.0814677
0.0841976
0.0870063
0.0898724
0.092828
0.0958761
0.0990408
0.102341
0.10577
0.109358
0.113171
0.117309
0.121758
0.126534
0.131712
0.137323
0.143419
0.150037
0.157274
0.165299
0.174203
0.18398
0.194645
0.206108
0.218323
0.231014
0.243879
0.256657
0.269821
0.283664
0.29588
0.305242
0.312003
0.316001
0.316588
0.312
0.300945
0.0195699
0.0219698
0.0243262
0.0267071
0.0290583
0.0314331
0.0337832
0.0361654
0.0385252
0.0409204
0.0432878
0.0456984
0.0480826
0.0505177
0.0529243
0.0553843
0.0578252
0.0603251
0.0628082
0.0653544
0.0678995
0.0705062
0.0731294
0.0758193
0.0785417
0.081344
0.0842057
0.087159
0.0902079
0.0933756
0.0966846
0.100126
0.103727
0.107573
0.111745
0.116242
0.121079
0.126337
0.132046
0.13826
0.145018
0.152416
0.160635
0.169775
0.179834
0.190834
0.202688
0.21536
0.228574
0.242024
0.255483
0.269466
0.284038
0.297014
0.307186
0.314753
0.319509
0.320677
0.316522
0.305488
0.0133549
0.015778
0.0181734
0.0206009
0.0230049
0.0254301
0.0278293
0.0302536
0.0326512
0.0350765
0.0374699
0.0398993
0.0422994
0.0447451
0.0471602
0.0496238
0.0520663
0.0545639
0.0570424
0.0595815
0.0621182
0.0647153
0.067329
0.0700093
0.0727231
0.0755181
0.0783744
0.0813247
0.0843727
0.0875443
0.0908592
0.0943135
0.0979386
0.101805
0.106016
0.110563
0.115464
0.120806
0.126619
0.13296
0.139867
0.147437
0.155861
0.165249
0.175604
0.186956
0.199222
0.212372
0.226133
0.240201
0.254368
0.269148
0.284508
0.298304
0.309299
0.317638
0.323076
0.324756
0.320942
0.309953
0.00805898
0.0104703
0.0128348
0.0152194
0.0175713
0.0199435
0.0222882
0.0246632
0.0270133
0.0293975
0.0317512
0.0341478
0.0365153
0.0389344
0.0413221
0.0437638
0.0461841
0.0486642
0.0511253
0.05365
0.056173
0.0587577
0.06136
0.0640297
0.0667342
0.0695212
0.0723714
0.0753177
0.0783653
0.0815388
0.0848627
0.0883298
0.0919712
0.0958717
0.10012
0.104717
0.109686
0.115113
0.121033
0.127503
0.134563
0.142309
0.150944
0.160588
0.171248
0.18296
0.195648
0.209286
0.223603
0.238294
0.253177
0.268785
0.284897
0.299467
0.311282
0.320435
0.326628
0.328881
0.325483
0.31454
0.00164715
0.00407291
0.00646259
0.00887798
0.0112641
0.01367
0.0160466
0.0184503
0.0208254
0.0232312
0.0256032
0.0280142
0.0303941
0.0328221
0.035217
0.0376617
0.040083
0.0425603
0.0450163
0.0475333
0.0500473
0.0526218
0.0552139
0.0578732
0.0605682
0.0633468
0.0661905
0.0691328
0.0721789
0.0753562
0.0786861
0.082168
0.0858342
0.0897579
0.094049
0.0986991
0.103737
0.109256
0.115288
0.121895
0.129117
0.13705
0.145907
0.15582
0.1668
0.17889
0.192019
0.206165
0.221062
0.236404
0.252027
0.268453
0.285379
0.300786
0.313432
0.323362
0.330231
0.332989
0.329924
0.319044
-0.00452666
-0.00209788
0.000293886
0.00270847
0.00509448
0.00749964
0.00987617
0.0122798
0.0146536
0.0170575
0.0194234
0.0218289
0.0241975
0.0266156
0.0289951
0.031427
0.033832
0.0362961
0.0387372
0.0412416
0.0437425
0.046305
0.0488855
0.0515338
0.0542189
0.0569886
0.0598257
0.0627634
0.0658089
0.0689879
0.0723275
0.0758224
0.0795071
0.0834672
0.0877983
0.0925045
0.0976151
0.103227
0.109374
0.116122
0.12351
0.131634
0.140719
0.150908
0.162218
0.174695
0.188275
0.202941
0.21843
0.234436
0.250808
0.268075
0.285775
0.301971
0.31545
0.326201
0.333823
0.337141
0.334476
0.323658
-0.0109363
-0.00850454
-0.00611234
-0.00369627
-0.001312
0.00109085
0.00346255
0.00586087
0.00822913
0.0106274
0.0129898
0.0153902
0.0177574
0.0201717
0.0225501
0.024977
0.0273781
0.0298344
0.0322672
0.0347606
0.0372504
0.0398005
0.0423691
0.0450054
0.0476797
0.0504399
0.0532694
0.0562024
0.0592456
0.0624285
0.065774
0.0692853
0.0729966
0.0769842
0.0813622
0.0861267
0.0913131
0.0970238
0.103292
0.110188
0.117752
0.126078
0.135403
0.145882
0.157536
0.170418
0.184469
0.199675
0.215778
0.232471
0.249614
0.267725
0.286268
0.303317
0.317636
0.329167
0.337461
0.341274
0.33893
0.328184
-0.0174101
-0.0149749
-0.012581
-0.0101661
-0.00778386
-0.00538411
-0.00301662
-0.000622831
0.00173799
0.00412843
0.00647732
0.00886581
0.0112145
0.013613
0.0159699
0.0183791
0.0207594
0.0231991
0.0256137
0.0280918
0.0305661
0.0331018
0.0356567
0.03828
0.0409425
0.0436923
0.0465138
0.0494411
0.0524834
0.0556682
0.0590249
0.0625511
0.0662854
0.0703128
0.0747362
0.079562
0.0848272
0.0906389
0.0970316
0.104079
0.111822
0.120356
0.129928
0.140705
0.152713
0.16601
0.180543
0.196303
0.213036
0.23043
0.248361
0.267328
0.286669
0.304524
0.319689
0.33205
0.341089
0.345448
0.343478
0.332798
-0.0242047
-0.0217665
-0.0193714
-0.0169541
-0.0145719
-0.0121731
-0.00980851
-0.00741875
-0.00506191
-0.00267654
-0.000330359
0.00205266
0.00439951
0.00679275
0.00914716
0.011549
0.0139231
0.016352
0.0187557
0.0212199
0.0236804
0.0262009
0.0287415
0.0313506
0.0340003
0.0367391
0.0395521
0.0424746
0.0455152
0.0487052
0.0520698
0.0556157
0.0593793
0.0634384
0.0679137
0.0728031
0.0781509
0.0840692
0.0905928
0.0977992
0.105731
0.114484
0.124316
0.135405
0.147781
0.161512
0.176546
0.192882
0.210263
0.228385
0.247117
0.266957
0.287167
0.305893
0.32191
0.335053
0.34476
0.3496
0.347931
0.337321
-0.031054
-0.0286137
-0.0262182
-0.0238037
-0.021425
-0.0190308
-0.0166719
-0.0142882
-0.0119404
-0.00956445
-0.00723358
-0.00486421
-0.00253785
-0.00016213
0.00216873
0.00455119
0.00690248
0.00931291
0.0116965
0.0141433
0.0165862
0.0190904
0.0216154
0.0242099
0.0268466
0.0295743
0.0323793
0.0352967
0.0383376
0.041531
0.0449089
0.0484718
0.0522614
0.0563644
0.0608896
0.0658465
0.07128
0.0773075
0.0839648
0.0913332
0.0994577
0.108436
0.118537
0.129945
0.142701
0.156876
0.172426
0.18935
0.2074
0.226267
0.245822
0.266539
0.287569
0.30712
0.323996
0.337979
0.348423
0.35379
0.352466
0.341919
-0.0382265
-0.0357844
-0.033389
-0.0309736
-0.028597
-0.0262058
-0.0238526
-0.0214754
-0.0191345
-0.0167662
-0.014441
-0.0120796
-0.00975784
-0.00738992
-0.00506407
-0.00269155
-0.0003488
0.0020484
0.0044189
0.0068495
0.00927672
0.0117641
0.0142734
0.0168528
0.0194763
0.022193
0.0249898
0.0279031
0.0309429
0.0341427
0.0375299
0.0411148
0.0449368
0.0490758
0.0536583
0.0586854
0.0642085
0.0703507
0.0771487
0.0846874
0.093015
0.10223
0.112611
0.124354
0.137504
0.152143
0.168227
0.185764
0.204501
0.224139
0.244526
0.266147
0.288074
0.308515
0.326252
0.341022
0.352127
0.35796
0.356912
0.346426
-0.045492
-0.0430495
-0.0406551
-0.0382437
-0.0358714
-0.0334856
-0.0311387
-0.0287681
-0.0264369
-0.0240785
-0.0217694
-0.0194222
-0.0171219
-0.0147722
-0.012471
-0.0101188
-0.00780004
-0.00542249
-0.00307346
-0.000661537
0.00174698
0.00421693
0.00670995
0.00927411
0.0118843
0.0145897
0.0173784
0.0202867
0.0233272
0.0265313
0.0299334
0.0335375
0.0373896
0.0415771
0.046215
0.0513151
0.0569309
0.0631901
0.0701325
0.0778441
0.0863818
0.0958385
0.10651
0.118591
0.132153
0.147262
0.163901
0.182061
0.201511
0.221937
0.243188
0.265709
0.288481
0.309767
0.328379
0.343995
0.355826
0.362164
0.361422
0.350989
-0.0531011
-0.0506585
-0.0482653
-0.0458537
-0.0434834
-0.0411005
-0.038758
-0.0363933
-0.0340674
-0.0317162
-0.0294112
-0.0270723
-0.0247758
-0.0224348
-0.0201388
-0.0177981
-0.0154889
-0.0131264
-0.0107919
-0.00839772
-0.0060062
-0.00355435
-0.00107802
0.00147018
0.00406632
0.00676009
0.00954007
0.0124439
0.0154838
0.0186952
0.022108
0.0257369
0.0296246
0.0338516
0.0385519
0.0437282
0.0494399
0.0558237
0.0629161
0.070812
0.079568
0.0892818
0.100253
0.112692
0.126676
0.142281
0.159489
0.178302
0.198481
0.219725
0.241842
0.265296
0.288992
0.311188
0.330674
0.347083
0.359565
0.366349
0.36585
0.355465
-0.0607885
-0.0583471
-0.0559564
-0.0535504
-0.0511861
-0.0488102
-0.0464757
-0.0441192
-0.0418046
-0.0394649
-0.0371775
-0.0348545
-0.0325809
-0.0302598
-0.0279898
-0.0256712
-0.0233875
-0.0210463
-0.0187345
-0.0163605
-0.0139888
-0.0115556
-0.00909658
-0.00656471
-0.00398285
-0.00130139
0.00146973
0.0043681
0.00740851
0.0106243
0.0140532
0.0177029
0.0216227
0.0259029
0.0306624
0.0359186
0.0417289
0.0482405
0.0554859
0.0635713
0.0725511
0.0825292
0.093808
0.106613
0.121035
0.137144
0.154946
0.174423
0.19536
0.217437
0.240465
0.264839
0.289404
0.312467
0.332846
0.350105
0.3633
0.370564
0.370331
0.359984
-0.0688142
-0.0663741
-0.0639864
-0.0615824
-0.0592226
-0.0568526
-0.0545257
-0.0521785
-0.0498725
-0.0475434
-0.0452634
-0.0429515
-0.0406844
-0.0383744
-0.0361118
-0.0338063
-0.0315338
-0.0292088
-0.0269127
-0.0245576
-0.0222041
-0.0197902
-0.0173493
-0.014835
-0.0122688
-0.00960064
-0.0068398
-0.00394724
-0.000908815
0.00231383
0.00575369
0.00942974
0.0133888
0.0177103
0.0225395
0.0278751
0.0337926
0.0404348
0.047846
0.0561268
0.0653459
0.0755992
0.087201
0.100389
0.115264
0.131903
0.150313
0.170486
0.192196
0.215143
0.239078
0.264412
0.289928
0.31392
0.335188
0.353242
0.367078
0.374766
0.374739