/*--------------------------------*- C++ -*----------------------------------*\
  =========                 |
  \\      /  F ield         | OpenFOAM: The Open Source CFD Toolbox
   \\    /   O peration     | Website:  https://openfoam.org
    \\  /    A nd           | Version:  6.0
     \\/     M anipulation  |
\*---------------------------------------------------------------------------*/
FoamFile
{
    version     2.0;
    format      ascii;
    class       volVectorField;
    location    "2.49";
    object      U;
}
// * * * * * * * * * * * * * * * * * * * * * * * * * * * * * * * * * * * * * //

dimensions      [0 1 -1 0 0 0 0];

internalField   nonuniform List<vector> 
13500
(
(1 1.7228e-06 -4.2506e-18)
(1 -2.931e-06 2.8756e-18)
(1 -6.4274e-06 -1.2374e-17)
(1 -9.4076e-06 -8.5517e-18)
(1 -9.4306e-06 1.6115e-17)
(1 -8.3492e-06 2.9935e-17)
(1 4.0969e-07 2.573e-17)
(0.99998 1.3614e-05 -4.1465e-18)
(0.99991 4.3063e-05 1.5227e-17)
(0.99981 7.2141e-05 3.2733e-18)
(0.99571 0.00075646 2.8524e-17)
(1.019 0.01084 7.7594e-18)
(1 5.1402e-06 2.6334e-18)
(1 -7.9586e-06 -8.733e-18)
(1 -1.8011e-05 5.909e-18)
(1 -2.6139e-05 -3.3723e-19)
(1 -2.5781e-05 -4.2974e-19)
(1 -2.2269e-05 -3.5995e-17)
(1 5.0628e-06 -4.4441e-17)
(0.99994 4.2945e-05 -2.3725e-17)
(0.99971 0.00014138 -1.5197e-17)
(0.99986 0.00017499 -1.6188e-18)
(0.98616 0.0021928 -1.3508e-17)
(1.0535 0.030632 -4.6981e-18)
(1 8.5541e-06 -3.4012e-18)
(1 -1.3114e-05 1.7351e-17)
(1 -2.9699e-05 3.0735e-18)
(1 -4.3205e-05 9.8599e-18)
(1 -4.2331e-05 -3.7161e-18)
(1 -3.6643e-05 2.8833e-17)
(0.99999 9.88e-06 -6.2558e-18)
(0.99991 7.155e-05 5.3893e-18)
(0.99949 0.00024833 -1.8435e-17)
(1.0004 0.00029298 2.4592e-17)
(0.97594 0.0032796 -7.0621e-18)
(1.082 0.04515 1.6479e-18)
(1 1.1963e-05 8.8916e-18)
(1 -1.8488e-05 -1.6822e-17)
(1 -4.1694e-05 -1.4569e-17)
(1 -6.0791e-05 -6.9176e-19)
(1 -5.9389e-05 5.7366e-18)
(1 -5.161e-05 -8.0033e-19)
(0.99999 1.4404e-05 6.1637e-17)
(0.99988 9.913e-05 9.7096e-18)
(0.99923 0.00036257 2.18e-17)
(1.0013 0.00043114 -8.9075e-18)
(0.96546 0.0040427 3.4388e-17)
(1.1032 0.055674 -7.5011e-18)
(1 1.5362e-05 -6.2477e-18)
(1 -2.3886e-05 1.4538e-17)
(1 -5.3763e-05 1.2402e-17)
(1 -7.8431e-05 1.2619e-17)
(1.0001 -7.6574e-05 2.8129e-18)
(1.0001 -6.6604e-05 2.1192e-17)
(1 1.8914e-05 -2.7524e-17)
(0.99987 0.00012585 1.9721e-18)
(0.99892 0.00048268 -1.3366e-17)
(1.0027 0.00059189 -2.1253e-18)
(0.95511 0.004532 -8.9193e-18)
(1.1172 0.063338 2.0797e-18)
(1 1.8753e-05 6.3227e-18)
(1 -2.9311e-05 -6.027e-18)
(1 -6.5905e-05 3.7877e-18)
(1 -9.6124e-05 -2.4997e-17)
(1.0001 -9.389e-05 -8.2342e-20)
(1.0001 -8.1636e-05 -4.1953e-17)
(1 2.3393e-05 1.0562e-18)
(0.99986 0.00015155 -1.583e-17)
(0.99856 0.00060711 5.09e-18)
(1.0045 0.00078215 -2.1417e-17)
(0.94524 0.00479 -2.147e-17)
(1.1245 0.068755 2.0105e-18)
(0.99999 2.2136e-05 -1.0466e-18)
(1 -3.4764e-05 -7.2084e-18)
(1 -7.8121e-05 -3.0783e-18)
(1.0001 -0.00011388 1.8868e-17)
(1.0001 -0.00011134 -2.6053e-17)
(1.0001 -9.6724e-05 1.6052e-17)
(1 2.7864e-05 1.841e-17)
(0.99987 0.0001762 5.5695e-18)
(0.99813 0.0007344 1.1378e-17)
(1.0065 0.0010086 1.153e-17)
(0.93614 0.0048547 9.2492e-18)
(1.1263 0.072354 3.228e-18)
(0.99999 2.5511e-05 -2.1603e-18)
(1 -4.025e-05 -1.418e-18)
(1 -9.0415e-05 -2.6518e-17)
(1.0001 -0.00013171 -9.0094e-18)
(1.0001 -0.00012893 7.2921e-18)
(1.0001 -0.00011188 2.6306e-17)
(1 3.2326e-05 1.1718e-17)
(0.9999 0.00019975 4.9721e-18)
(0.99762 0.00086298 -7.4372e-18)
(1.0089 0.0012755 1.6151e-17)
(0.92803 0.0047624 7.4692e-18)
(1.1233 0.074496 -1.0266e-17)
(0.99999 2.8877e-05 -6.7062e-18)
(1 -4.577e-05 6.0964e-18)
(1 -0.00010279 4.4588e-17)
(1.0001 -0.00014961 -1.0806e-17)
(1.0001 -0.00014667 2.7308e-17)
(1.0001 -0.00012712 -5.1937e-17)
(1 3.6767e-05 -3.9034e-17)
(0.99994 0.00022223 9.6614e-18)
(0.99705 0.00099124 -5.5855e-18)
(1.0115 0.0015848 -8.9075e-18)
(0.92109 0.0045478 -1.3801e-17)
(1.1168 0.075488 1.3431e-17)
(0.99999 3.2236e-05 4.4182e-18)
(1 -5.1325e-05 2.2947e-18)
(1 -0.00011524 -3.7769e-17)
(1.0001 -0.00016759 1.5379e-17)
(1.0001 -0.00016456 -1.1909e-17)
(1.0001 -0.00014245 2.2151e-17)
(1 4.1171e-05 1.3872e-17)
(1 0.00024367 2.4423e-18)
(0.99639 0.0011176 5.2759e-19)
(1.0142 0.0019363 1.4113e-18)
(0.91539 0.0042428 4.3906e-18)
(1.1075 0.075581 -7.0316e-19)
(0.99998 3.5587e-05 -2.4258e-18)
(1 -5.6917e-05 -7.5259e-18)
(1 -0.00012778 9.2582e-18)
(1.0001 -0.00018565 -2.7135e-18)
(1.0001 -0.00018261 1.8383e-18)
(1.0002 -0.00015787 -2.4276e-17)
(1 4.5521e-05 -3.1949e-17)
(1.0001 0.00026417 -3.102e-17)
(0.99565 0.0012405 1.5612e-17)
(1.017 0.0023289 1.8332e-18)
(0.911 0.0038767 -1.1137e-17)
(1.0963 0.074983 -5.7887e-18)
(0.99998 3.8931e-05 3.3483e-18)
(1 -6.2547e-05 2.8427e-18)
(1 -0.00014041 4.4619e-18)
(1.0001 -0.00020379 -2.1625e-18)
(1.0001 -0.00020084 -5.5104e-18)
(1.0002 -0.00017341 9.1816e-18)
(1 4.9792e-05 1.8494e-17)
(1.0002 0.00028385 1.9164e-17)
(0.99483 0.0013584 1.0031e-17)
(1.0199 0.0027598 -2.3149e-17)
(0.90792 0.0034755 1.1687e-19)
(1.0839 0.073865 -6.7025e-18)
(0.99998 4.2266e-05 -3.3477e-18)
(0.99999 -6.8219e-05 5.5901e-18)
(1 -0.00015313 8.0897e-18)
(1.0001 -0.00022203 5.6467e-18)
(1.0001 -0.00021925 -5.111e-18)
(1.0002 -0.00018906 4.5137e-18)
(1 5.3957e-05 4.2173e-18)
(1.0003 0.00030288 -1.7113e-18)
(0.99393 0.0014699 -1.6213e-17)
(1.0228 0.0032254 2.1467e-17)
(0.90609 0.0030621 1.0406e-19)
(1.0709 0.072363 1.4346e-18)
(0.99998 4.5595e-05 5.0908e-18)
(0.99999 -7.3932e-05 -4.3636e-18)
(1 -0.00016594 7.0825e-19)
(1.0001 -0.00024037 -4.7105e-18)
(1.0002 -0.00023784 1.1607e-17)
(1.0002 -0.00020485 5.5072e-18)
(1 5.798e-05 1.6969e-17)
(1.0005 0.00032148 -6.3557e-18)
(0.99297 0.0015735 -1.9809e-19)
(1.0256 0.0037217 5.2724e-18)
(0.90546 0.002656 1.6904e-17)
(1.0579 0.070593 9.1502e-19)
(0.99997 4.8916e-05 1.2278e-18)
(0.99999 -7.9691e-05 9.6844e-18)
(1 -0.00017884 1.3528e-17)
(1.0001 -0.0002588 -4.6965e-18)
(1.0002 -0.00025663 8.4051e-18)
(1.0002 -0.00022078 -2.5709e-18)
(1 6.1819e-05 -2.9721e-17)
(1.0006 0.00033988 2.0117e-17)
(0.99194 0.001668 -1.8281e-17)
(1.0283 0.0042441 -3.0411e-17)
(0.90594 0.0022737 -3.7106e-18)
(1.0452 0.068644 8.4786e-19)
(0.99997 5.223e-05 -3.1324e-18)
(0.99999 -8.5495e-05 -1.0299e-17)
(1 -0.00019185 -3.247e-17)
(1.0001 -0.00027734 7.9127e-18)
(1.0002 -0.00027563 -1.2755e-17)
(1.0003 -0.00023686 8.2427e-18)
(1 6.5425e-05 -2.7809e-18)
(1.0009 0.00035837 -1.211e-17)
(0.99084 0.001752 4.0146e-18)
(1.0309 0.0047879 1.816e-17)
(0.90741 0.0019285 -7.7879e-18)
(1.0331 0.066591 1.1785e-17)
(0.99996 5.5538e-05 3.2959e-19)
(0.99998 -9.1349e-05 7.703e-18)
(1 -0.00020495 2.2417e-17)
(1.0001 -0.00029599 -1.7821e-18)
(1.0002 -0.00029483 -1.2672e-17)
(1.0003 -0.0002531 -1.536e-17)
(1 6.8737e-05 1.0622e-17)
(1.0011 0.00037728 6.9452e-18)
(0.9897 0.0018244 2.32e-17)
(1.0333 0.0053483 -2.5427e-18)
(0.90977 0.0016307 1.9353e-18)
(1.0218 0.064491 -4.7018e-18)
(0.99996 5.8838e-05 -1.8492e-18)
(0.99998 -9.7253e-05 -9.3336e-18)
(1 -0.00021816 -1.0115e-17)
(1.0001 -0.00031475 5.9551e-18)
(1.0002 -0.00031426 -7.1169e-18)
(1.0003 -0.00026951 -1.232e-17)
(1 7.1688e-05 1.0326e-17)
(1.0014 0.00039697 -4.7117e-18)
(0.98851 0.0018838 -2.8709e-17)
(1.0355 0.0059207 -1.425e-17)
(0.91289 0.0013877 8.3995e-18)
(1.0116 0.06239 -5.1003e-18)
(0.99995 6.2133e-05 -2.6478e-18)
(0.99998 -0.00010321 -3.5277e-18)
(1 -0.00023147 -7.4963e-19)
(1.0001 -0.00033364 -2.6077e-17)
(1.0002 -0.00033391 5.9712e-18)
(1.0003 -0.00028609 5.3652e-18)
(0.99998 7.42e-05 -1.9623e-17)
(1.0017 0.00041783 -1.6086e-17)
(0.9873 0.0019293 4.2e-18)
(1.0374 0.006501 -1.0707e-18)
(0.91665 0.0012047 -9.6992e-18)
(1.0025 0.060323 9.6462e-19)
(0.99995 6.5422e-05 3.4441e-18)
(0.99997 -0.00010922 1.6172e-17)
(1 -0.0002449 1.9304e-17)
(1.0001 -0.00035266 2.4559e-18)
(1.0002 -0.0003538 1.6507e-17)
(1.0003 -0.00030285 9.4016e-18)
(0.99997 7.6183e-05 2.8322e-18)
(1.002 0.00044029 1.7606e-17)
(0.98606 0.0019598 2.0861e-17)
(1.0392 0.007085 1.7016e-17)
(0.92093 0.0010844 7.2395e-18)
(0.99457 0.058318 1.1447e-18)
(0.99994 6.8706e-05 -1.6416e-18)
(0.99997 -0.0001153 -3.8802e-18)
(1 -0.00025843 -2.0566e-17)
(1.0001 -0.0003718 -2.3252e-18)
(1.0002 -0.00037394 -1.2511e-17)
(1.0004 -0.00031981 -5.0866e-18)
(0.99994 7.7539e-05 -1.8179e-18)
(1.0024 0.00046479 -1.592e-17)
(0.98481 0.0019741 -1.9946e-17)
(1.0406 0.0076691 8.7211e-18)
(0.92562 0.0010278 4.9726e-19)
(0.98779 0.056392 6.5708e-19)
(0.99994 7.1984e-05 4.3513e-18)
(0.99996 -0.00012143 -5.0695e-18)
(1 -0.00027208 -1.9289e-17)
(1.0002 -0.00039109 4.4207e-17)
(1.0003 -0.00039434 1.8149e-17)
(1.0004 -0.00033695 -1.2447e-17)
(0.99991 7.8156e-05 2.4439e-17)
(1.0028 0.00049182 2.1515e-17)
(0.98356 0.0019715 3.2363e-17)
(1.0418 0.00825 -3.1964e-17)
(0.93062 0.001034 -1.3297e-17)
(0.98217 0.054561 1.7329e-19)
(0.99993 7.5259e-05 -3.185e-18)
(0.99996 -0.00012763 -1.0173e-18)
(1 -0.00028584 3.2931e-17)
(1.0002 -0.00041053 -3.3417e-17)
(1.0003 -0.000415 -1.747e-18)
(1.0004 -0.00035428 4.124e-17)
(0.99987 7.7912e-05 7.5739e-18)
(1.0032 0.00052186 -3.3235e-18)
(0.98233 0.0019511 -2.007e-17)
(1.0427 0.0088246 3.7668e-17)
(0.93582 0.001101 -5.6334e-18)
(0.97764 0.052831 -2.7543e-19)
(0.99992 7.8529e-05 -1.6237e-18)
(0.99995 -0.00013389 -2.0271e-18)
(1 -0.00029972 1.715e-18)
(1.0002 -0.00043011 3.4766e-17)
(1.0003 -0.00043594 -9.8504e-18)
(1.0005 -0.00037182 -3.0482e-17)
(0.99983 7.6673e-05 -1.9311e-17)
(1.0036 0.00055542 -3.5785e-18)
(0.98112 0.0019122 6.3459e-18)
(1.0433 0.0093904 -3.1776e-17)
(0.94114 0.0012257 9.4353e-18)
(0.97414 0.051208 2.985e-18)
(0.99992 8.1796e-05 2.6833e-18)
(0.99995 -0.00014022 1.4109e-17)
(1 -0.00031373 -1.2647e-17)
(1.0002 -0.00044986 -3.6401e-18)
(1.0003 -0.00045716 -1.8905e-17)
(1.0005 -0.00038954 3.3161e-17)
(0.99978 7.4293e-05 -1.6952e-17)
(1.0041 0.00059301 1.4834e-17)
(0.97995 0.001854 -1.9558e-18)
(1.0437 0.0099449 2.9792e-17)
(0.94649 0.001404 -9.2082e-18)
(0.97158 0.049693 -4.9808e-18)
(0.99991 8.506e-05 -5.1464e-19)
(0.99994 -0.00014663 -8.1143e-18)
(1 -0.00032786 -1.771e-17)
(1.0002 -0.00046976 -9.9745e-18)
(1.0003 -0.00047868 1.8337e-17)
(1.0005 -0.00040746 -4.2286e-17)
(0.99972 7.0616e-05 -2.6159e-18)
(1.0046 0.00063515 -2.0042e-17)
(0.97882 0.0017761 3.1585e-18)
(1.0438 0.010486 -8.5928e-18)
(0.9518 0.0016315 9.8013e-18)
(0.96987 0.048286 2.1127e-18)
(0.9999 8.8322e-05 2.6961e-18)
(0.99994 -0.00015311 -8.6919e-18)
(1 -0.00034211 -1.7499e-18)
(1.0002 -0.00048985 2.4237e-18)
(1.0003 -0.00050051 5.8037e-18)
(1.0006 -0.00042556 1.2219e-17)
(0.99966 6.5474e-05 4.2886e-17)
(1.0051 0.00068234 2.395e-18)
(0.97775 0.0016781 5.1462e-18)
(1.0436 0.011012 9.4707e-18)
(0.95701 0.0019032 -8.3831e-18)
(0.96892 0.046983 1.6223e-18)
(0.9999 9.1583e-05 -1.5459e-18)
(0.99993 -0.00015967 8.6839e-18)
(1 -0.00035649 2.5174e-17)
(1.0002 -0.0005101 -2.442e-17)
(1.0003 -0.00052265 -9.0279e-18)
(1.0006 -0.00044384 -2.1498e-18)
(0.99959 5.8692e-05 -1.4136e-17)
(1.0057 0.00073507 1.8579e-18)
(0.97675 0.0015598 -8.9175e-18)
(1.0432 0.011522 -3.4808e-18)
(0.96206 0.002214 -2.3732e-19)
(0.96862 0.045781 -1.9824e-18)
(0.99989 9.4843e-05 -1.6616e-18)
(0.99992 -0.00016632 5.1979e-18)
(1 -0.00037101 -6.0877e-19)
(1.0002 -0.00053055 8.0975e-18)
(1.0003 -0.00054513 -1.6658e-17)
(1.0006 -0.0004623 2.4326e-17)
(0.99951 5.0083e-05 7.051e-18)
(1.0062 0.00079381 -1.7725e-17)
(0.97583 0.0014212 -1.1433e-17)
(1.0425 0.012013 -1.3781e-17)
(0.96692 0.0025584 1.3286e-18)
(0.96889 0.044675 -3.632e-18)
(0.99988 9.8102e-05 5.7742e-19)
(0.99992 -0.00017304 -1.2414e-17)
(1 -0.00038566 1.5589e-17)
(1.0002 -0.00055118 2.2397e-17)
(1.0004 -0.00056794 3.2651e-17)
(1.0007 -0.00048092 -1.7865e-17)
(0.99942 3.9453e-05 -1.753e-17)
(1.0068 0.000859 3.5973e-18)
(0.975 0.0012624 1.0712e-17)
(1.0416 0.012484 1.0788e-17)
(0.97155 0.0029312 6.1853e-18)
(0.96962 0.043658 3.6098e-18)
(0.99987 0.00010136 1.1066e-18)
(0.99991 -0.00017986 9.8714e-18)
(1 -0.00040045 -3.5817e-17)
(1.0002 -0.00057202 -3.245e-18)
(1.0004 -0.00059111 -2.7124e-17)
(1.0007 -0.00049968 -1.1253e-17)
(0.99933 2.6602e-05 2.4632e-20)
(1.0074 0.00093103 -4.1137e-18)
(0.97425 0.0010837 -2.1103e-17)
(1.0406 0.012935 -1.7224e-17)
(0.97592 0.0033273 -8.4474e-18)
(0.97074 0.042725 -1.7787e-18)
(0.99986 0.00010462 -7.1722e-19)
(0.9999 -0.00018677 -6.4199e-18)
(1 -0.00041538 2.8182e-17)
(1.0002 -0.00059306 -3.0964e-17)
(1.0004 -0.00061465 -2.0405e-18)
(1.0008 -0.00051858 2.3963e-17)
(0.99922 1.1325e-05 7.0142e-19)
(1.008 0.0010103 3.9236e-18)
(0.97361 0.00088574 1.8474e-17)
(1.0393 0.013364 2.2391e-17)
(0.98001 0.0037415 4.8329e-18)
(0.97216 0.041869 -9.9324e-19)
(0.99985 0.00010789 -1.8672e-18)
(0.99989 -0.00019378 -2.3676e-18)
(1 -0.00043046 -1.2493e-17)
(1.0002 -0.00061431 1.5425e-17)
(1.0004 -0.00063857 2.9811e-17)
(1.0008 -0.0005376 -1.059e-17)
(0.99911 -6.5857e-06 2.1834e-17)
(1.0086 0.001097 2.9409e-18)
(0.97307 0.00066921 -2.0923e-18)
(1.0379 0.01377 1.013e-17)
(0.9838 0.004169 -5.4001e-18)
(0.9738 0.041082 -6.9192e-19)
(0.99984 0.00011115 4.6697e-19)
(0.99989 -0.00020088 -6.2612e-18)
(1 -0.00044568 4.677e-18)
(1.0002 -0.00063579 -1.5721e-17)
(1.0004 -0.00066287 -3.1533e-17)
(1.0008 -0.00055671 6.6738e-18)
(0.999 -2.734e-05 -3.1499e-17)
(1.0092 0.0011914 -6.7222e-18)
(0.97263 0.00043508 6.7874e-18)
(1.0364 0.014153 -3.1794e-17)
(0.98729 0.0046053 3.6978e-18)
(0.97562 0.04036 1.9542e-18)
(0.99983 0.00011442 8.2007e-19)
(0.99988 -0.00020808 1.6963e-17)
(1 -0.00046106 7.8313e-18)
(1.0002 -0.00065749 6.4037e-18)
(1.0004 -0.00068759 2.5215e-17)
(1.0009 -0.0005759 1.9898e-18)
(0.99887 -5.1145e-05 2.1751e-17)
(1.0097 0.0012938 4.8222e-18)
(0.97231 0.00018451 -2.0627e-17)
(1.0347 0.014511 1.0946e-17)
(0.99047 0.0050461 2.5005e-18)
(0.97754 0.039695 2.026e-18)
(0.99982 0.00011769 -2.8635e-18)
(0.99987 -0.00021539 -5.5838e-18)
(1 -0.00047659 -6.8802e-18)
(1.0002 -0.00067943 1.0517e-17)
(1.0004 -0.00071273 1.2182e-17)
(1.001 -0.00059515 -3.9627e-18)
(0.99874 -7.8207e-05 -1.8271e-17)
(1.0103 0.0014042 2.1952e-17)
(0.9721 -8.1139e-05 3.8206e-18)
(1.033 0.014844 -3.3071e-18)
(0.99335 0.0054872 1.0341e-17)
(0.97951 0.039081 -1.4081e-18)
(0.99981 0.00012097 5.8841e-18)
(0.99986 -0.00022281 6.687e-18)
(1 -0.00049228 -7.3139e-18)
(1.0002 -0.00070161 -6.5511e-18)
(1.0004 -0.0007383 -1.748e-17)
(1.001 -0.00061443 -6.8059e-18)
(0.9986 -0.00010872 9.0084e-18)
(1.0109 0.0015226 -3.5209e-17)
(0.972 -0.00036033 9.3503e-18)
(1.0312 0.015151 -3.9097e-18)
(0.99594 0.005925 -1.095e-17)
(0.98151 0.038512 4.0894e-18)
(0.9998 0.00012426 -2.597e-18)
(0.99985 -0.00023035 -1.1749e-17)
(1 -0.00050813 -7.0887e-18)
(1.0002 -0.00072405 -1.2432e-17)
(1.0004 -0.00076432 -5.3375e-18)
(1.0011 -0.00063371 2.0011e-17)
(0.99846 -0.00014288 -8.8496e-18)
(1.0115 0.001649 3.9167e-17)
(0.97201 -0.00065137 8.8156e-18)
(1.0293 0.015432 1.1864e-17)
(0.99823 0.0063562 4.6153e-18)
(0.98348 0.037983 -6.6316e-18)
(0.99979 0.00012755 -1.3775e-18)
(0.99984 -0.000238 8.7376e-18)
(1 -0.00052414 1.4045e-17)
(1.0002 -0.00074674 3.3518e-17)
(1.0004 -0.00079081 7.075e-18)
(1.0011 -0.00065298 -1.3726e-17)
(0.99831 -0.00018087 4.2706e-18)
(1.012 0.0017832 -4.2135e-17)
(0.97213 -0.00095241 -1.0692e-17)
(1.0274 0.015686 -6.5967e-18)
(1.0003 0.0067775 4.5272e-18)
(0.98541 0.037489 6.6684e-18)
(0.99978 0.00013085 1.0542e-18)
(0.99983 -0.00024577 2.0685e-18)
(0.99999 -0.00054033 -1.3794e-17)
(1.0002 -0.0007697 -5.583e-18)
(1.0005 -0.00081777 8.9838e-18)
(1.0012 -0.0006722 1.6428e-17)
(0.99816 -0.00022284 1.4851e-17)
(1.0125 0.001925 4.1714e-18)
(0.97235 -0.0012615 1.1961e-17)
(1.0255 0.015913 -3.057e-18)
(1.002 0.0071863 -8.0814e-18)
(0.98727 0.037024 -1.7196e-18)
(0.99976 0.00013416 -4.3172e-20)
(0.99982 -0.00025367 2.3575e-18)
(0.99999 -0.00055668 3.0827e-18)
(1.0002 -0.00079294 -7.248e-18)
(1.0005 -0.00084524 8.3874e-20)
(1.0013 -0.00069136 -1.4895e-17)
(0.998 -0.00026895 -1.0045e-17)
(1.013 0.0020741 3.0853e-17)
(0.97267 -0.0015766 -1.8075e-17)
(1.0236 0.016113 1.1871e-17)
(1.0035 0.0075799 4.2678e-18)
(0.98904 0.036584 -4.8571e-18)
(0.99975 0.00013748 -3.2655e-18)
(0.99981 -0.00026169 -1.1056e-17)
(0.99998 -0.00057321 7.8709e-18)
(1.0002 -0.00081647 -1.9795e-17)
(1.0005 -0.00087321 -2.272e-17)
(1.0013 -0.00071042 -2.0577e-17)
(0.99784 -0.00031933 -2.0473e-17)
(1.0135 0.0022301 -3.1598e-18)
(0.97308 -0.0018955 1.5796e-17)
(1.0217 0.016286 -1.0183e-17)
(1.0048 0.0079564 4.2407e-19)
(0.99071 0.036165 4.575e-18)
(0.99974 0.00014081 6.3028e-18)
(0.9998 -0.00026985 1.1555e-17)
(0.99997 -0.00058992 -1.2694e-17)
(1.0002 -0.00084029 1.6252e-17)
(1.0005 -0.00090171 -2.6649e-18)
(1.0014 -0.00072937 1.3487e-17)
(0.99768 -0.00037408 2.4609e-17)
(1.014 0.0023925 -2.3931e-17)
(0.97359 -0.0022162 -8.0089e-18)
(1.0199 0.016432 1.0754e-17)
(1.0059 0.0083138 3.6874e-18)
(0.99228 0.035764 -2.1643e-18)
(0.99972 0.00014415 -4.7294e-18)
(0.99978 -0.00027814 -3.4149e-18)
(0.99997 -0.00060682 -2.6544e-18)
(1.0002 -0.00086441 1.8596e-17)
(1.0005 -0.00093076 -5.7047e-18)
(1.0015 -0.00074818 -1.7091e-19)
(0.99751 -0.0004333 -4.8155e-18)
(1.0144 0.0025608 1.9169e-17)
(0.97417 -0.0025365 -7.6035e-18)
(1.0181 0.01655 -7.3847e-18)
(1.0068 0.0086504 -1.0901e-17)
(0.99374 0.035376 2.5157e-18)
(0.99971 0.0001475 3.2149e-18)
(0.99977 -0.00028658 -4.3301e-18)
(0.99996 -0.0006239 6.0761e-18)
(1.0002 -0.00088884 -2.8216e-17)
(1.0005 -0.00096036 3.8646e-17)
(1.0016 -0.00076684 5.5877e-18)
(0.99735 -0.00049703 1.9001e-17)
(1.0148 0.0027344 -1.186e-17)
(0.97483 -0.0028542 1.0116e-19)
(1.0164 0.016643 5.4923e-18)
(1.0076 0.0089651 -2.1197e-18)
(0.9951 0.034999 -9.4653e-19)
(0.99969 0.00015087 -9.1969e-19)
(0.99976 -0.00029516 8.4643e-19)
(0.99995 -0.00064117 1.4805e-17)
(1.0002 -0.0009136 7.6921e-18)
(1.0005 -0.00099054 -1.9321e-17)
(1.0016 -0.00078533 -1.0945e-17)
(0.99719 -0.00056531 3.3179e-18)
(1.0152 0.0029125 -5.7656e-18)
(0.97556 -0.0031674 1.2721e-17)
(1.0148 0.016709 -3.6053e-18)
(1.0082 0.0092568 1.0204e-17)
(0.99634 0.034631 -3.4547e-18)
(0.99968 0.00015426 -1.6009e-18)
(0.99974 -0.0003039 -8.1593e-18)
(0.99995 -0.00065863 -4.4019e-18)
(1.0002 -0.00093869 3.089e-17)
(1.0005 -0.0010213 -1.7214e-17)
(1.0017 -0.00080363 -9.2702e-19)
(0.99702 -0.00063814 -4.9615e-17)
(1.0155 0.0030944 5.668e-18)
(0.97634 -0.003474 -2.3787e-17)
(1.0132 0.01675 -7.7863e-18)
(1.0086 0.0095246 -1.0203e-17)
(0.99749 0.034268 2.0514e-18)
(0.99966 0.00015766 -6.9115e-19)
(0.99973 -0.00031278 5.055e-18)
(0.99994 -0.0006763 -1.8171e-18)
(1.0002 -0.00096412 -1.7986e-17)
(1.0005 -0.0010527 2.4738e-17)
(1.0018 -0.00082175 -2.2788e-18)
(0.99686 -0.00071551 2.6281e-17)
(1.0158 0.0032793 -3.4838e-18)
(0.97718 -0.0037723 1.155e-17)
(1.0118 0.016767 9.7388e-18)
(1.009 0.0097682 8.4159e-18)
(0.99853 0.033909 -4.9609e-19)
(0.99965 0.00016108 3.9179e-18)
(0.99972 -0.00032183 -3.0246e-18)
(0.99993 -0.00069417 -6.3574e-18)
(1.0002 -0.00098991 1.9631e-17)
(1.0005 -0.0010847 1.8156e-18)
(1.0019 -0.00083967 2.8252e-17)
(0.9967 -0.00079734 4.5337e-18)
(1.0161 0.0034663 1.6645e-17)
(0.97806 -0.0040604 4.3329e-18)
(1.0104 0.016761 -3.151e-18)
(1.0093 0.0099871 1.0948e-18)
(0.99949 0.033552 4.4905e-19)
(0.99963 0.00016451 1.1172e-18)
(0.9997 -0.00033104 1.2366e-18)
(0.99992 -0.00071224 -5.7651e-18)
(1.0002 -0.0010161 -3.9094e-17)
(1.0005 -0.0011173 5.4985e-18)
(1.002 -0.00085741 2.4502e-18)
(0.99654 -0.00088356 -1.9659e-17)
(1.0163 0.0036546 2.3409e-19)
(0.97897 -0.0043369 1.2766e-17)
(1.0091 0.016732 -2.0259e-18)
(1.0095 0.010181 -5.3296e-18)
(1.0004 0.033195 2.647e-18)
(0.99961 0.00016797 -4.7839e-18)
(0.99969 -0.00034041 5.2417e-18)
(0.99991 -0.00073053 9.5016e-19)
(1.0002 -0.0010426 2.1709e-17)
(1.0005 -0.0011506 -2.5082e-17)
(1.0021 -0.00087496 -1.0822e-17)
(0.99639 -0.00097405 2.0107e-17)
(1.0165 0.0038433 -1.1274e-17)
(0.97992 -0.0046004 -2.0179e-17)
(1.008 0.016682 -1.0011e-17)
(1.0096 0.010351 6.7875e-18)
(1.0011 0.032838 8.8235e-19)
(0.9996 0.00017144 -5.0627e-19)
(0.99967 -0.00034996 -5.2747e-18)
(0.9999 -0.00074903 1.0122e-17)
(1.0002 -0.0010695 9.6261e-18)
(1.0005 -0.0011846 3.098e-17)
(1.0022 -0.00089235 4.1575e-18)
(0.99624 -0.0010687 1.786e-17)
(1.0167 0.0040314 2.8582e-17)
(0.98088 -0.0048496 -8.9082e-19)
(1.0069 0.016611 1.7609e-17)
(1.0097 0.010496 -7.183e-19)
(1.0019 0.032479 -2.5755e-18)
(0.99958 0.00017493 4.9068e-18)
(0.99966 -0.00035969 -7.6798e-18)
(0.99989 -0.00076776 -1.5364e-17)
(1.0002 -0.0010968 -2.5582e-18)
(1.0005 -0.0012192 -3.3625e-17)
(1.0023 -0.0009096 -1.237e-17)
(0.99609 -0.0011672 -6.199e-18)
(1.0169 0.0042181 2.1359e-19)
(0.98185 -0.0050837 2.626e-17)
(1.006 0.016523 4.0579e-18)
(1.0097 0.010618 -9.3133e-18)
(1.0025 0.032118 1.5445e-18)
(0.99956 0.00017845 -5.5012e-18)
(0.99964 -0.00036959 9.5933e-18)
(0.99988 -0.00078671 8.0423e-18)
(1.0002 -0.0011245 -5.0981e-18)
(1.0005 -0.0012545 2.7042e-17)
(1.0024 -0.00092674 1.4799e-17)
(0.99595 -0.0012696 -4.9004e-18)
(1.017 0.0044024 -2.8803e-17)
(0.98284 -0.0053017 -8.9306e-19)
(1.0051 0.016416 -1.1596e-17)
(1.0097 0.010716 1.1025e-17)
(1.0031 0.031754 -2.0232e-18)
(0.99954 0.00018198 3.3057e-18)
(0.99962 -0.00037968 -1.8358e-18)
(0.99987 -0.00080589 1.0649e-17)
(1.0002 -0.0011527 -2.145e-17)
(1.0005 -0.0012905 8.8308e-18)
(1.0025 -0.00094381 -5.3165e-18)
(0.99582 -0.0013754 -1.0559e-17)
(1.0171 0.0045834 -2.3121e-18)
(0.98382 -0.0055031 -3.1687e-17)
(1.0044 0.016294 7.6505e-18)
(1.0097 0.010792 -1.0094e-17)
(1.0037 0.031386 6.7483e-19)
(0.99952 0.00018553 2.614e-19)
(0.9996 -0.00038996 -5.7753e-18)
(0.99986 -0.00082531 6.048e-18)
(1.0002 -0.0011812 2.8233e-17)
(1.0005 -0.0013272 -2.1032e-17)
(1.0026 -0.00096084 1.7102e-17)
(0.99569 -0.0014846 -6.1057e-18)
(1.0172 0.0047602 5.3538e-18)
(0.9848 -0.0056875 3.7645e-17)
(1.0037 0.016157 -1.4202e-17)
(1.0097 0.010846 1.5428e-17)
(1.0042 0.031014 1.9092e-18)
(0.9995 0.00018911 4.6917e-19)
(0.99959 -0.00040044 -1.1955e-18)
(0.99985 -0.00084496 -8.7005e-18)
(1.0002 -0.0012103 -4.25e-18)
(1.0005 -0.0013646 1.8332e-17)
(1.0027 -0.0009779 1.3619e-19)
(0.99556 -0.0015969 -1.2002e-17)
(1.0172 0.0049321 -1.2782e-17)
(0.98577 -0.0058547 -1.5758e-17)
(1.0032 0.016007 -1.3407e-18)
(1.0097 0.010879 2.8238e-18)
(1.0047 0.030639 1.998e-19)
(0.99948 0.00019271 -7.5491e-19)
(0.99957 -0.00041111 1.4224e-17)
(0.99983 -0.00086486 -5.8033e-18)
(1.0002 -0.0012398 -2.402e-17)
(1.0005 -0.0014027 8.4521e-18)
(1.0028 -0.00099505 -4.3573e-17)
(0.99544 -0.0017119 5.9866e-18)
(1.0172 0.0050983 8.0479e-18)
(0.98672 -0.0060047 7.3198e-19)
(1.0027 0.015845 1.4424e-17)
(1.0097 0.010893 -9.443e-19)
(1.0052 0.03026 -5.3344e-18)
(0.99946 0.00019633 -1.993e-19)
(0.99955 -0.00042199 -2.7906e-19)
(0.99982 -0.00088501 7.8127e-18)
(1.0002 -0.0012698 1.483e-17)
(1.0005 -0.0014416 -3.3581e-17)
(1.0029 -0.0010123 1.8822e-18)
(0.99533 -0.0018294 1.0723e-17)
(1.0172 0.005258 1.2605e-17)
(0.98766 -0.0061377 -9.9648e-18)
(1.0023 0.015672 -1.4044e-17)
(1.0097 0.010888 -1.5301e-17)
(1.0056 0.029877 5.6328e-18)
(0.99944 0.00019997 -1.3043e-18)
(0.99953 -0.00043308 3.9761e-19)
(0.99981 -0.00090541 -3.7669e-18)
(1.0002 -0.0013002 -9.9017e-18)
(1.0005 -0.0014812 1.8616e-17)
(1.003 -0.0010299 2.3389e-17)
(0.99523 -0.0019491 3.1275e-18)
(1.0172 0.0054106 6.3878e-18)
(0.98858 -0.0062539 1.5893e-17)
(1.002 0.01549 2.3636e-18)
(1.0097 0.010866 1.1311e-17)
(1.006 0.029491 -3.419e-18)
(0.99942 0.00020364 2.4007e-18)
(0.99951 -0.00044438 7.3303e-19)
(0.99979 -0.00092607 -5.3837e-18)
(1.0002 -0.0013312 1.4628e-18)
(1.0005 -0.0015215 -1.0093e-17)
(1.0031 -0.0010477 -5.6102e-18)
(0.99513 -0.0020708 -1.1559e-18)
(1.0172 0.0055554 -2.8845e-17)
(0.98947 -0.0063539 3.1193e-18)
(1.0017 0.015299 -4.7921e-18)
(1.0098 0.010827 -4.6005e-18)
(1.0064 0.029101 -4.1207e-18)
(0.9994 0.00020733 -4.8995e-18)
(0.99949 -0.00045591 9.5772e-19)
(0.99978 -0.00094699 2.8557e-18)
(1.0002 -0.0013627 -1.8382e-17)
(1.0005 -0.0015625 -1.1508e-17)
(1.0032 -0.0010659 -2.6046e-17)
(0.99503 -0.0021941 5.5787e-18)
(1.0172 0.005692 1.1778e-17)
(0.99034 -0.0064383 -3.3452e-17)
(1.0015 0.015102 2.2097e-17)
(1.0098 0.010772 -4.9743e-18)
(1.0068 0.028709 2.6576e-18)
(0.99937 0.00021105 4.4976e-18)
(0.99947 -0.00046766 2.1432e-18)
(0.99976 -0.00096818 1.0982e-18)
(1.0002 -0.0013948 5.8296e-18)
(1.0005 -0.0016043 -2.5423e-18)
(1.0034 -0.0010846 5.0482e-17)
(0.99495 -0.0023188 2.003e-17)
(1.0171 0.0058199 -1.8321e-17)
(0.99118 -0.0065077 3.2196e-17)
(1.0014 0.014898 -8.2444e-18)
(1.0099 0.010704 -3.28e-18)
(1.0072 0.028314 -1.3255e-18)
(0.99935 0.00021479 1.1033e-18)
(0.99945 -0.00047964 -1.3571e-17)
(0.99975 -0.00098964 2.1982e-18)
(1.0002 -0.0014275 2.6182e-17)
(1.0005 -0.0016468 1.9672e-17)
(1.0035 -0.0011039 -8.1471e-19)
(0.99487 -0.0024446 -2.7749e-17)
(1.017 0.0059387 5.5467e-18)
(0.99199 -0.006563 -7.2606e-18)
(1.0013 0.014689 -1.141e-17)
(1.01 0.010622 8.3448e-18)
(1.0075 0.027917 1.2359e-18)
(0.99932 0.00021855 -4.3637e-18)
(0.99942 -0.00049186 -4.5244e-18)
(0.99973 -0.0010114 -1.1908e-17)
(1.0002 -0.0014607 -2.1959e-17)
(1.0004 -0.00169 -1.9795e-17)
(1.0036 -0.0011238 -2.2942e-17)
(0.99479 -0.0025713 5.1243e-18)
(1.0169 0.006048 4.313e-17)
(0.99278 -0.0066051 3.1643e-18)
(1.0013 0.014475 -9.9632e-19)
(1.0101 0.010528 -2.9461e-18)
(1.0079 0.027517 -3.3204e-18)
(0.9993 0.00022234 3.2382e-18)
(0.9994 -0.00050433 4.2026e-18)
(0.99972 -0.0010334 1.8351e-17)
(1.0002 -0.0014945 1.5209e-17)
(1.0004 -0.0017339 1.9259e-17)
(1.0037 -0.0011445 -8.5267e-19)
(0.99472 -0.0026986 -2.8552e-17)
(1.0169 0.0061477 -2.3313e-17)
(0.99354 -0.0066348 7.8527e-18)
(1.0013 0.014258 3.9495e-18)
(1.0102 0.010423 6.6418e-18)
(1.0083 0.027117 2.5661e-18)
(0.99927 0.00022616 -2.2869e-18)
(0.99938 -0.00051704 6.5932e-18)
(0.9997 -0.0010557 -1.2142e-17)
(1.0002 -0.001529 2.2014e-18)
(1.0004 -0.0017785 8.9551e-18)
(1.0038 -0.0011661 -2.2428e-18)
(0.99466 -0.0028263 6.4102e-18)
(1.0168 0.0062375 6.4741e-18)
(0.99427 -0.0066533 2.5842e-18)
(1.0014 0.014038 9.7627e-18)
(1.0103 0.010307 -7.9878e-18)
(1.0086 0.026715 5.1846e-19)
(0.99925 0.00023 3.4529e-18)
(0.99935 -0.00053002 4.0864e-19)
(0.99968 -0.0010783 -5.6839e-18)
(1.0002 -0.0015641 8.7635e-19)
(1.0004 -0.0018238 -1.4709e-18)
(1.0039 -0.0011886 -2.2156e-17)
(0.9946 -0.0029542 1.7899e-17)
(1.0167 0.0063174 2.2979e-17)
(0.99497 -0.0066616 -1.2867e-17)
(1.0015 0.013816 -1.3584e-17)
(1.0105 0.010182 -2.3347e-18)
(1.0089 0.026312 4.4133e-18)
(0.99922 0.00023387 -2.5083e-18)
(0.99933 -0.00054325 -3.1472e-19)
(0.99966 -0.0011011 7.0668e-18)
(1.0002 -0.0015998 -1.6831e-17)
(1.0004 -0.0018697 -1.3303e-17)
(1.0041 -0.0012123 2.7971e-17)
(0.99455 -0.0030821 -2.7373e-18)
(1.0165 0.0063873 -2.433e-17)
(0.99564 -0.0066606 3.2779e-18)
(1.0016 0.013591 1.279e-17)
(1.0106 0.010049 7.914e-18)
(1.0093 0.025909 -1.5913e-18)
(0.99919 0.00023778 2.4927e-19)
(0.9993 -0.00055676 2.3053e-18)
(0.99965 -0.0011243 3.8615e-18)
(1.0002 -0.0016363 8.7008e-18)
(1.0004 -0.0019164 2.6077e-17)
(1.0042 -0.0012371 6.5219e-18)
(0.99451 -0.0032098 -2.3836e-17)
(1.0164 0.0064472 2.2804e-18)
(0.99629 -0.0066515 8.4433e-18)
(1.0017 0.013366 -1.1523e-17)
(1.0108 0.0099081 -5.3507e-18)
(1.0096 0.025506 -1.841e-18)
(0.99916 0.00024171 7.078e-19)
(0.99928 -0.00057054 -4.0094e-19)
(0.99963 -0.0011478 -1.0189e-17)
(1.0002 -0.0016735 -1.8713e-19)
(1.0003 -0.0019637 -5.1558e-17)
(1.0043 -0.0012631 8.0417e-18)
(0.99447 -0.0033374 2.3414e-17)
(1.0163 0.0064971 -6.5514e-18)
(0.99691 -0.0066352 -8.8419e-18)
(1.0019 0.013139 1.9135e-17)
(1.011 0.0097603 6.402e-18)
(1.01 0.025103 4.7714e-18)
(0.99913 0.00024567 7.6036e-19)
(0.99925 -0.00058461 -8.3212e-19)
(0.99961 -0.0011716 1.8428e-17)
(1.0002 -0.0017115 4.0134e-18)
(1.0003 -0.0020117 4.569e-17)
(1.0044 -0.0012905 -2.8341e-17)
(0.99443 -0.0034646 -7.8411e-18)
(1.0162 0.0065372 6.1667e-18)
(0.9975 -0.0066128 3.0464e-18)
(1.0021 0.012911 -1.0766e-17)
(1.0112 0.0096063 -1.0364e-18)
(1.0103 0.0247 -3.5184e-18)
(0.9991 0.00024966 -2.9714e-18)
(0.99922 -0.00059897 1.3972e-18)
(0.99958 -0.0011957 -1.0831e-17)
(1.0002 -0.0017502 5.2776e-18)
(1.0003 -0.0020603 -1.7361e-17)
(1.0046 -0.0013193 3.8434e-18)
(0.9944 -0.0035913 3.1396e-17)
(1.0161 0.0065675 -2.3082e-17)
(0.99808 -0.0065853 -1.1198e-17)
(1.0023 0.012683 -1.065e-17)
(1.0114 0.0094466 -5.0906e-18)
(1.0106 0.024298 -9.6622e-19)
(0.99907 0.00025368 3.7015e-18)
(0.99919 -0.00061364 -3.3184e-18)
(0.99956 -0.0012201 -1.0512e-17)
(1.0002 -0.0017897 -8.4157e-18)
(1.0003 -0.0021096 -2.8387e-17)
(1.0047 -0.0013496 -1.7827e-17)
(0.99438 -0.0037176 -1.9251e-17)
(1.0159 0.0065883 2.1462e-17)
(0.99863 -0.0065535 1.0855e-17)
(1.0025 0.012454 1.6128e-17)
(1.0116 0.0092819 -1.9926e-18)
(1.011 0.023897 4.6639e-18)
(0.99904 0.00025774 -5.9492e-18)
(0.99916 -0.0006286 5.377e-18)
(0.99954 -0.0012448 2.5739e-17)
(1.0002 -0.00183 -1.9851e-18)
(1.0002 -0.0021595 3.1408e-17)
(1.0048 -0.0013815 1.3437e-18)
(0.99436 -0.0038434 -1.8438e-17)
(1.0158 0.0065997 8.4009e-18)
(0.99916 -0.0065185 -3.9149e-18)
(1.0027 0.012226 -3.3771e-18)
(1.0119 0.0091126 6.4649e-18)
(1.0113 0.023497 -3.154e-18)
(0.99901 0.00026183 4.8754e-18)
(0.99913 -0.00064389 -7.3076e-18)
(0.99952 -0.0012698 -3.0011e-17)
(1.0002 -0.0018711 1.2986e-17)
(1.0002 -0.00221 -2.2378e-17)
(1.0049 -0.001415 2.4644e-17)
(0.99435 -0.0039687 6.0097e-18)
(1.0157 0.0066019 -7.9969e-18)
(0.99967 -0.006481 -1.8789e-18)
(1.003 0.011997 -8.4571e-18)
(1.0121 0.0089393 -1.0539e-17)
(1.0116 0.023098 4.3597e-18)
(0.99898 0.00026596 -3.5913e-18)
(0.9991 -0.00065949 2.43e-18)
(0.99949 -0.0012952 1.8236e-17)
(1.0002 -0.0019132 -1.7119e-17)
(1.0002 -0.0022612 3.6007e-17)
(1.0051 -0.0014502 -1.9129e-17)
(0.99434 -0.0040935 3.5034e-18)
(1.0155 0.0065951 -1.2641e-17)
(1.0002 -0.0064419 6.133e-18)
(1.0032 0.011768 -1.183e-18)
(1.0123 0.0087624 4.5113e-18)
(1.0119 0.022701 -1.9385e-18)
(0.99894 0.00027012 4.4048e-18)
(0.99907 -0.00067543 1.8919e-18)
(0.99947 -0.0013209 -1.2158e-17)
(1.0002 -0.0019561 -3.4834e-19)
(1.0001 -0.002313 -1.5891e-18)
(1.0052 -0.0014871 4.6259e-18)
(0.99434 -0.0042179 3.3269e-17)
(1.0154 0.0065796 8.6468e-18)
(1.0006 -0.0064019 -1.8178e-17)
(1.0035 0.011539 -6.1328e-18)
(1.0126 0.0085822 -4.2429e-18)
(1.0122 0.022306 2.0374e-18)
(0.99891 0.00027432 -5.0489e-18)
(0.99904 -0.00069171 -7.0112e-18)
(0.99944 -0.0013469 5.1008e-18)
(1.0002 -0.002 1.4814e-17)
(1.0001 -0.0023654 -3.2665e-17)
(1.0053 -0.0015258 1.5544e-17)
(0.99434 -0.0043419 -3.2033e-17)
(1.0153 0.0065555 1.0374e-17)