/*--------------------------------*- C++ -*----------------------------------*\
  =========                 |
  \\      /  F ield         | OpenFOAM: The Open Source CFD Toolbox
   \\    /   O peration     | Website:  https://openfoam.org
    \\  /    A nd           | Version:  6.0
     \\/     M anipulation  |
\*---------------------------------------------------------------------------*/
FoamFile
{
    version     2.0;
    format      ascii;
    class       volScalarField;
    location    "3";
    object      p;
}
// * * * * * * * * * * * * * * * * * * * * * * * * * * * * * * * * * * * * * //

dimensions      [0 2 -2 0 0 0 0];

internalField   nonuniform List<scalar> 
13500
(
0.097496
0.097551
0.097041
0.096637
0.09555
0.095238
0.094082
0.095044
0.095813
0.099637
0.12207
0.1641
0.097496
0.097551
0.097041
0.096637
0.095549
0.095239
0.094081
0.095045
0.095809
0.099698
0.12139
0.15904
0.097496
0.097552
0.097042
0.096638
0.095549
0.09524
0.094078
0.095045
0.0958
0.099742
0.12052
0.15455
0.097497
0.097553
0.097042
0.09664
0.095548
0.095241
0.094074
0.095043
0.095784
0.099763
0.11954
0.15104
0.097498
0.097554
0.097043
0.096641
0.095547
0.095242
0.094069
0.095041
0.095763
0.099769
0.11851
0.14807
0.0975
0.097556
0.097045
0.096643
0.095547
0.095243
0.094064
0.095038
0.095737
0.099763
0.11743
0.14543
0.097502
0.097559
0.097046
0.096645
0.095547
0.095244
0.094058
0.095034
0.095706
0.099744
0.11635
0.14303
0.097505
0.097561
0.097048
0.096647
0.095547
0.095244
0.094052
0.095028
0.09567
0.099711
0.11528
0.14082
0.097508
0.097564
0.097051
0.09665
0.095547
0.095245
0.094045
0.095022
0.095629
0.099665
0.11423
0.13879
0.097511
0.097568
0.097054
0.096653
0.095547
0.095245
0.094037
0.095015
0.095583
0.099605
0.11321
0.13688
0.097515
0.097571
0.097057
0.096656
0.095547
0.095245
0.094029
0.095007
0.095531
0.099532
0.11223
0.1351
0.097519
0.097575
0.09706
0.096659
0.095547
0.095245
0.09402
0.094997
0.095474
0.099448
0.11129
0.13341
0.097524
0.09758
0.097064
0.096663
0.095548
0.095245
0.094011
0.094987
0.095411
0.099354
0.1104
0.13182
0.097529
0.097585
0.097068
0.096667
0.095549
0.095245
0.094001
0.094975
0.095344
0.099251
0.10954
0.1303
0.097535
0.09759
0.097073
0.096671
0.09555
0.095245
0.093991
0.094962
0.09527
0.09914
0.10873
0.12886
0.097541
0.097596
0.097078
0.096675
0.095551
0.095244
0.09398
0.094948
0.095191
0.099023
0.10795
0.12748
0.097547
0.097602
0.097084
0.09668
0.095552
0.095243
0.093968
0.094933
0.095107
0.098901
0.10721
0.12616
0.097554
0.097609
0.097089
0.096684
0.095553
0.095243
0.093956
0.094917
0.095017
0.098776
0.1065
0.12489
0.097562
0.097616
0.097096
0.09669
0.095555
0.095242
0.093943
0.094899
0.094922
0.098649
0.10581
0.12367
0.09757
0.097624
0.097102
0.096695
0.095556
0.095241
0.093929
0.09488
0.094822
0.098521
0.10515
0.12249
0.097578
0.097632
0.097109
0.096701
0.095558
0.095239
0.093915
0.09486
0.094717
0.098392
0.10451
0.12136
0.097587
0.09764
0.097117
0.096707
0.09556
0.095238
0.093901
0.094838
0.094607
0.098264
0.10389
0.12026
0.097596
0.097649
0.097124
0.096713
0.095562
0.095237
0.093886
0.094815
0.094493
0.098137
0.10328
0.11919
0.097606
0.097658
0.097133
0.096719
0.095565
0.095235
0.09387
0.094791
0.094375
0.098011
0.10269
0.11816
0.097616
0.097668
0.097141
0.096726
0.095567
0.095233
0.093854
0.094765
0.094253
0.097887
0.10211
0.11715
0.097627
0.097678
0.097151
0.096733
0.09557
0.095231
0.093837
0.094738
0.094128
0.097764
0.10153
0.11616
0.097638
0.097689
0.09716
0.096741
0.095573
0.095229
0.09382
0.094709
0.094
0.097643
0.10097
0.11521
0.09765
0.0977
0.09717
0.096748
0.095576
0.095227
0.093802
0.094678
0.093869
0.097524
0.10041
0.11427
0.097662
0.097711
0.097181
0.096756
0.095579
0.095224
0.093784
0.094646
0.093736
0.097406
0.099857
0.11335
0.097675
0.097723
0.097191
0.096765
0.095583
0.095222
0.093765
0.094613
0.093601
0.097289
0.09931
0.11245
0.097689
0.097736
0.097203
0.096773
0.095586
0.095219
0.093746
0.094578
0.093464
0.097173
0.098769
0.11157
0.097702
0.097749
0.097214
0.096782
0.09559
0.095216
0.093726
0.094541
0.093326
0.097058
0.098232
0.11071
0.097717
0.097762
0.097227
0.096791
0.095595
0.095213
0.093706
0.094503
0.093187
0.096944
0.0977
0.10987
0.097732
0.097776
0.097239
0.096801
0.095599
0.09521
0.093685
0.094463
0.093047
0.09683
0.097172
0.10904
0.097747
0.097791
0.097253
0.096811
0.095604
0.095207
0.093663
0.094422
0.092907
0.096715
0.096649
0.10823
0.097763
0.097806
0.097266
0.096821
0.095608
0.095203
0.093641
0.09438
0.092766
0.0966
0.096131
0.10743
0.09778
0.097822
0.09728
0.096831
0.095613
0.0952
0.093619
0.094336
0.092626
0.096484
0.095617
0.10664
0.097797
0.097838
0.097295
0.096842
0.095619
0.095196
0.093596
0.094291
0.092485
0.096367
0.095108
0.10588
0.097814
0.097854
0.09731
0.096853
0.095624
0.095192
0.093572
0.094246
0.092345
0.096249
0.094605
0.10512
0.097833
0.097871
0.097326
0.096865
0.09563
0.095188
0.093548
0.094199
0.092206
0.09613
0.094107
0.10438
0.097851
0.097889
0.097342
0.096877
0.095636
0.095184
0.093523
0.094151
0.092066
0.096008
0.093614
0.10365
0.097871
0.097907
0.097358
0.096889
0.095642
0.095179
0.093498
0.094102
0.091928
0.095885
0.093127
0.10294
0.097891
0.097925
0.097375
0.096901
0.095649
0.095175
0.093472
0.094053
0.091789
0.09576
0.092647
0.10224
0.097911
0.097945
0.097393
0.096914
0.095656
0.09517
0.093446
0.094003
0.091652
0.095633
0.092172
0.10155
0.097932
0.097964
0.097411
0.096928
0.095663
0.095165
0.093419
0.093953
0.091515
0.095504
0.091704
0.10087
0.097954
0.097985
0.09743
0.096941
0.09567
0.09516
0.093391
0.093903
0.091378
0.095373
0.091242
0.10021
0.097976
0.098006
0.097449
0.096955
0.095678
0.095155
0.093363
0.093852
0.091243
0.095239
0.090787
0.099561
0.097999
0.098027
0.097469
0.096969
0.095686
0.09515
0.093334
0.093801
0.091107
0.095103
0.090339
0.098922
0.098022
0.098049
0.097489
0.096984
0.095695
0.095145
0.093305
0.09375
0.090972
0.094964
0.089898
0.098296
0.098046
0.098071
0.09751
0.096999
0.095703
0.095139
0.093275
0.0937
0.090837
0.094824
0.089464
0.09768
0.098071
0.098095
0.097531
0.097014
0.095712
0.095134
0.093245
0.093649
0.090703
0.094681
0.089036
0.097077
0.098096
0.098118
0.097553
0.09703
0.095721
0.095128
0.093214
0.093599
0.090568
0.094536
0.088616
0.096484
0.098122
0.098143
0.097575
0.097046
0.095731
0.095122
0.093183
0.093549
0.090434
0.094388
0.088203
0.095902
0.098149
0.098167
0.097598
0.097063
0.095741
0.095117
0.093151
0.0935
0.090299
0.094239
0.087796
0.09533
0.098176
0.098193
0.097622
0.09708
0.095751
0.095111
0.093119
0.093451
0.090165
0.094087
0.087397
0.094769
0.098204
0.098219
0.097646
0.097097
0.095761
0.095105
0.093087
0.093403
0.09003
0.093933
0.087004
0.094218
0.098232
0.098246
0.09767
0.097115
0.095772
0.095099
0.093054
0.093355
0.089896
0.093778
0.086618
0.093677
0.098261
0.098273
0.097696
0.097133
0.095783
0.095092
0.09302
0.093308
0.089761
0.09362
0.086238
0.093145
0.098291
0.098301
0.097722
0.097152
0.095795
0.095086
0.092986
0.093261
0.089625
0.093461
0.085866
0.092623
0.098321
0.098329
0.097748
0.097171
0.095807
0.09508
0.092952
0.093215
0.08949
0.0933
0.085499
0.09211
0.098352
0.098358
0.097775
0.09719
0.095819
0.095074
0.092918
0.09317
0.089354
0.093137
0.085139
0.091605
0.098384
0.098388
0.097802
0.09721
0.095831
0.095068
0.092883
0.093125
0.089218
0.092973
0.084785
0.091109
0.098416
0.098419
0.097831
0.09723
0.095844
0.095062
0.092848
0.093081
0.089081
0.092807
0.084437
0.090621
0.098449
0.09845
0.097859
0.097251
0.095858
0.095056
0.092813
0.093037
0.088944
0.09264
0.084095
0.090141
0.098483
0.098481
0.097889
0.097272
0.095871
0.09505
0.092778
0.092994
0.088807
0.092471
0.083759
0.089669
0.098518
0.098514
0.097919
0.097294
0.095885
0.095044
0.092742
0.092951
0.088669
0.092301
0.083429
0.089205
0.098553
0.098547
0.097949
0.097316
0.095899
0.095038
0.092706
0.092908
0.088531
0.092129
0.083104
0.088748
0.098588
0.09858
0.097981
0.097339
0.095914
0.095033
0.09267
0.092866
0.088393
0.091957
0.082785
0.088298
0.098625
0.098615
0.098012
0.097362
0.095929
0.095027
0.092633
0.092825
0.088255
0.091783
0.08247
0.087855
0.098662
0.09865
0.098045
0.097385
0.095944
0.095022
0.092597
0.092783
0.088116
0.091609
0.082161
0.087419
0.0987
0.098685
0.098078
0.097409
0.09596
0.095017
0.09256
0.092742
0.087977
0.091433
0.081857
0.086989
0.098739
0.098722
0.098112
0.097434
0.095976
0.095012
0.092523
0.092701
0.087839
0.091257
0.081558
0.086566
0.098778
0.098759
0.098146
0.097459
0.095992
0.095008
0.092486
0.092659
0.0877
0.091079
0.081264
0.086149
0.098818
0.098797
0.098181
0.097484
0.096009
0.095003
0.092449
0.092618
0.087561
0.090901
0.080974
0.085738
0.098859
0.098835
0.098217
0.09751
0.096026
0.094999
0.092412
0.092577
0.087423
0.090722
0.080689
0.085333
0.0989
0.098875
0.098253
0.097537
0.096044
0.094996
0.092375
0.092536
0.087284
0.090542
0.080408
0.084933
0.098943
0.098915
0.09829
0.097564
0.096062
0.094992
0.092337
0.092495
0.087146
0.090362
0.080132
0.084539
0.098986
0.098955
0.098328
0.097591
0.09608
0.094989
0.0923
0.092454
0.087008
0.090181
0.07986
0.084151
0.099029
0.098997
0.098366
0.09762
0.096098
0.094987
0.092262
0.092412
0.086871
0.09
0.079592
0.083767
0.099074
0.099039
0.098405
0.097648
0.096117
0.094984
0.092224
0.09237
0.086734
0.089818
0.079328
0.083389
0.099119
0.099082
0.098445
0.097678
0.096136
0.094983
0.092186
0.092328
0.086597
0.089635
0.079068
0.083016
0.099165
0.099126
0.098485
0.097708
0.096156
0.094981
0.092148
0.092286
0.086461
0.089453
0.078812
0.082648
0.099212
0.09917
0.098527
0.097738
0.096176
0.09498
0.09211
0.092243
0.086325
0.08927
0.078559
0.082284
0.09926
0.099216
0.098568
0.097769
0.096196
0.09498
0.092072
0.0922
0.08619
0.089086
0.07831
0.081925
0.099308
0.099262
0.098611
0.097801
0.096217
0.094979
0.092034
0.092156
0.086056
0.088902
0.078065
0.08157
0.099358
0.099309
0.098654
0.097834
0.096238
0.09498
0.091995
0.092112
0.085922
0.088719
0.077824
0.08122
0.099408
0.099357
0.098698
0.097867
0.096259
0.094981
0.091957
0.092068
0.085789
0.088535
0.077585
0.080874
0.099459
0.099405
0.098743
0.0979
0.09628
0.094982
0.091918
0.092023
0.085657
0.08835
0.07735
0.080532
0.099511
0.099455
0.098788
0.097935
0.096302
0.094984
0.09188
0.091978
0.085525
0.088166
0.077119
0.080194
0.099563
0.099505
0.098834
0.09797
0.096325
0.094987
0.091842
0.091932
0.085395
0.087982
0.07689
0.07986
0.099617
0.099556
0.098881
0.098006
0.096348
0.09499
0.091803
0.091885
0.085265
0.087797
0.076665
0.07953
0.099671
0.099608
0.098929
0.098042
0.096371
0.094993
0.091765
0.091838
0.085136
0.087613
0.076443
0.079203
0.099726
0.099661
0.098978
0.098079
0.096394
0.094997
0.091726
0.09179
0.085008
0.087428
0.076223
0.07888
0.099782
0.099715
0.099027
0.098117
0.096418
0.095002
0.091688
0.091742
0.084881
0.087244
0.076007
0.078561
0.09984
0.09977
0.099077
0.098156
0.096442
0.095007
0.091649
0.091693
0.084755
0.087059
0.075793
0.078245
0.099897
0.099825
0.099128
0.098196
0.096467
0.095013
0.091611
0.091643
0.08463
0.086875
0.075582
0.077932
0.099956
0.099882
0.09918
0.098236
0.096492
0.09502
0.091573
0.091593
0.084505
0.08669
0.075374
0.077623
0.10002
0.09994
0.099232
0.098277
0.096517
0.095027
0.091535
0.091543
0.084382
0.086506
0.075169
0.077316
0.10008
0.099998
0.099285
0.098319
0.096543
0.095034
0.091497
0.091491
0.084259
0.086322
0.074965
0.077013
0.10014
0.10006
0.09934
0.098362
0.096569
0.095043
0.091459
0.091439
0.084138
0.086138
0.074765
0.076712
0.1002
0.10012
0.099395
0.098406
0.096596
0.095052
0.091422
0.091387
0.084017
0.085954
0.074567
0.076414
0.10027
0.10018
0.099451
0.09845
0.096623
0.095061
0.091384
0.091333
0.083898
0.08577
0.074371
0.07612
0.10033
0.10024
0.099508
0.098496
0.096651
0.095071
0.091347
0.09128
0.083779
0.085587
0.074177
0.075827
0.1004
0.10031
0.099566
0.098542
0.096679
0.095082
0.09131
0.091225
0.083662
0.085404
0.073986
0.075537
0.10046
0.10037
0.099625
0.09859
0.096708
0.095094
0.091273
0.09117
0.083545
0.08522
0.073796
0.07525
0.10053
0.10044
0.099685
0.098638
0.096737
0.095106
0.091237
0.091114
0.083429
0.085037
0.073609
0.074965
0.1006
0.10051
0.099746
0.098687
0.096767
0.095119
0.091201
0.091058
0.083314
0.084854
0.073424
0.074683
0.10067
0.10057
0.099808
0.098738
0.096797
0.095133
0.091165
0.091001
0.0832
0.084672
0.073241
0.074402
0.10074
0.10064
0.099871
0.098789
0.096828
0.095147
0.091129
0.090944
0.083088
0.084489
0.073059
0.074124
0.10082
0.10072
0.099935
0.098842
0.096859
0.095162
0.091094
0.090886
0.082976
0.084307
0.072879
0.073848
0.10089
0.10079
0.1
0.098895
0.096892
0.095178
0.091059
0.090827
0.082864
0.084125
0.072702
0.073573
0.10097
0.10086
0.10007
0.09895
0.096924
0.095195
0.091025
0.090768
0.082754
0.083943
0.072525
0.073301
0.10104
0.10094
0.10013
0.099006
0.096958
0.095212
0.090991
0.090708
0.082645
0.083761
0.072351
0.07303
0.10112
0.10101
0.1002
0.099063
0.096992
0.09523
0.090958
0.090648
0.082537
0.083579
0.072177
0.072761
0.1012
0.10109
0.10027
0.099121
0.097027
0.095249
0.090925
0.090587
0.082429
0.083398
0.072006
0.072494
0.10128
0.10117
0.10034
0.099181
0.097063
0.095269
0.090893
0.090526
0.082323
0.083217
0.071835
0.072228
0.10136
0.10125
0.10042
0.099242
0.0971
0.09529
0.090862
0.090464
0.082217
0.083036
0.071666
0.071964
0.10145
0.10133
0.10049
0.099304
0.097138
0.095312
0.090831
0.090402
0.082112
0.082855
0.071498
0.0717
0.10153
0.10142
0.10057
0.099368
0.097176
0.095334
0.0908
0.090339
0.082008
0.082674
0.071332
0.071439
0.10162
0.1015
0.10064
0.099434
0.097216
0.095358
0.090771
0.090277
0.081905
0.082493
0.071166
0.071178
0.10171
0.10159
0.10072
0.0995
0.097257
0.095382
0.090742
0.090213
0.081802
0.082313
0.071002
0.070918
0.1018
0.10168
0.1008
0.099569
0.097298
0.095408
0.090714
0.09015
0.081701
0.082132
0.070839
0.07066
0.10189
0.10177
0.10088
0.099639
0.097341
0.095435
0.090687
0.090086
0.0816
0.081952
0.070676
0.070402
0.10199
0.10187
0.10097
0.09971
0.097385
0.095462
0.09066
0.090022
0.0815
0.081772
0.070515
0.070145
0.10208
0.10196
0.10105
0.099784
0.097431
0.095491
0.090635
0.089957
0.081401
0.081591
0.070354
0.069889
0.10218
0.10206
0.10114
0.099859
0.097477
0.095521
0.09061
0.089893
0.081302
0.081411
0.070194
0.069634
0.10228
0.10216
0.10123
0.099936
0.097526
0.095553
0.090587
0.089828
0.081205
0.081231
0.070034
0.069379
0.10238
0.10226
0.10132
0.10002
0.097575
0.095585
0.090565
0.089763
0.081108
0.081051
0.069876
0.069125
0.10249
0.10236
0.10142
0.1001
0.097626
0.095619
0.090543
0.089698
0.081012
0.080872
0.069717
0.068871
0.10259
0.10247
0.10151
0.10018
0.097679
0.095655
0.090523
0.089633
0.080917
0.080692
0.06956
0.068617
0.1027
0.10258
0.10161
0.10027
0.097734
0.095691
0.090505
0.089568
0.080823
0.080512
0.069402
0.068364
0.10282
0.10269
0.10171
0.10035
0.09779
0.09573
0.090487
0.089504
0.08073
0.080332
0.069245
0.068111
0.10293
0.10281
0.10181
0.10044
0.097849
0.09577
0.090472
0.089439
0.080637
0.080152
0.069088
0.067857
0.10305
0.10292
0.10192
0.10054
0.097909
0.095811
0.090457
0.089375
0.080545
0.079973
0.068932
0.067604
0.10317
0.10304
0.10203
0.10063
0.097971
0.095854
0.090444
0.089311
0.080454
0.079793
0.068776
0.067351
0.10329
0.10317
0.10214
0.10073
0.098036
0.0959
0.090433
0.089247
0.080364
0.079613
0.068619
0.067097
0.10342
0.10329
0.10225
0.10083
0.098103
0.095947
0.090424
0.089184
0.080275
0.079433
0.068463
0.066843
0.10355
0.10342
0.10237
0.10094
0.098173
0.095996
0.090416
0.089121
0.080187
0.079254
0.068307
0.066589
0.10368
0.10356
0.10249
0.10104
0.098245
0.096047
0.090411
0.089059
0.0801
0.079074
0.06815
0.066334
0.10381
0.10369
0.10262
0.10115
0.09832
0.0961
0.090407
0.088998
0.080013
0.078894
0.067993
0.066078
0.10395
0.10383
0.10274
0.10127
0.098398
0.096156
0.090406
0.088937
0.079928
0.078714
0.067837
0.065822
0.1041
0.10398
0.10288
0.10138
0.098478
0.096214
0.090407
0.088877
0.079843
0.078534
0.067679
0.065565
0.10424
0.10412
0.10301
0.10151
0.098562
0.096275
0.09041
0.088819
0.07976
0.078355
0.067522
0.065307
0.1044
0.10428
0.10315
0.10163
0.09865
0.096338
0.090416
0.088761
0.079678
0.078175
0.067364
0.065048
0.10455
0.10443
0.10329
0.10176
0.098741
0.096405
0.090425
0.088704
0.079597
0.077995
0.067205
0.064788
0.10471
0.10459
0.10344
0.10189
0.098835
0.096474
0.090436
0.088649
0.079517
0.077815
0.067046
0.064526
0.10488
0.10476
0.10359
0.10203
0.098934
0.096546
0.09045
0.088595
0.079438
0.077635
0.066887
0.064264
0.10505
0.10493
0.10375
0.10217
0.099036
0.096622
0.090468
0.088543
0.079361
0.077455
0.066726
0.063999
0.10522
0.10511
0.10391
0.10232
0.099143
0.096701
0.090488
0.088492
0.079285
0.077276
0.066565
0.063734
0.1054
0.10529
0.10408
0.10247
0.099254
0.096783
0.090512
0.088443
0.07921
0.077096
0.066403
0.063466
0.10558
0.10548
0.10425
0.10263
0.09937
0.096869
0.09054
0.088396
0.079137
0.076916
0.06624
0.063197
0.10577
0.10567
0.10443
0.1028
0.099491
0.09696
0.090571
0.08835
0.079065
0.076737
0.066076
0.062925
0.10597
0.10587
0.10462
0.10296
0.099617
0.097054
0.090606
0.088307
0.078995
0.076557
0.065911
0.062652
0.10617
0.10607
0.10481
0.10314
0.099748
0.097153
0.090645
0.088267
0.078926
0.076378
0.065745
0.062377
0.10638
0.10628
0.10501
0.10332
0.099885
0.097256
0.090689
0.088228
0.078859
0.076198
0.065578
0.062099
0.1066
0.1065
0.10521
0.10351
0.10003
0.097364
0.090737
0.088192
0.078794
0.076019
0.065409
0.061819
0.10682
0.10673
0.10542
0.1037
0.10018
0.097477
0.090789
0.088159
0.078731
0.07584
0.065239
0.061536
0.10705
0.10696
0.10564
0.1039
0.10033
0.097595
0.090846
0.088129
0.078669
0.075661
0.065068
0.06125
0.10728
0.1072
0.10586
0.10411
0.10049
0.097718
0.090908
0.088102
0.07861
0.075482
0.064895
0.060961
0.10753
0.10745
0.1061
0.10433
0.10066
0.097848
0.090976
0.088078
0.078552
0.075303
0.064721
0.06067
0.10778
0.1077
0.10634
0.10455
0.10084
0.097982
0.091048
0.088057
0.078497
0.075124
0.064544
0.060375
0.10804
0.10797
0.10659
0.10479
0.10102
0.098124
0.091127
0.08804
0.078444
0.074946
0.064366
0.060077
0.10831
0.10824
0.10685
0.10503
0.10121
0.098271
0.091211
0.088027
0.078393
0.074767
0.064186
0.059775
0.10858
0.10852
0.10711
0.10528
0.10141
0.098425
0.091301
0.088017
0.078344
0.074589
0.064004
0.059469
0.10887
0.10881
0.10739
0.10553
0.10162
0.098586
0.091397
0.088011
0.078298
0.074411
0.063819
0.05916
0.10916
0.10911
0.10767
0.1058
0.10184
0.098753
0.0915
0.088009
0.078254
0.074233
0.063633
0.058846
0.10946
0.10942
0.10797
0.10608
0.10206
0.098928
0.091609
0.088011
0.078212
0.074055
0.063444
0.058528
0.10978
0.10974
0.10828
0.10637
0.1023
0.099111
0.091725
0.088018
0.078173
0.073876
0.063252
0.058205
0.1101
0.11007
0.10859
0.10666
0.10254
0.099302
0.091848
0.088029
0.078136
0.073698
0.063057
0.057877
0.11044
0.11042
0.10892
0.10697
0.1028
0.0995
0.091978
0.088045
0.078102
0.07352
0.062859
0.057544
0.11078
0.11077
0.10926
0.10729
0.10306
0.099707
0.092116
0.088065
0.07807
0.073341
0.062659
0.057205
0.11113
0.11113
0.10961
0.10762
0.10334
0.099923
0.092261
0.08809
0.078041
0.073162
0.062454
0.056861
0.1115
0.11151
0.10997
0.10796
0.10362
0.10015
0.092414
0.08812
0.078014
0.072982
0.062246
0.056511
0.11188
0.1119
0.11034
0.10832
0.10392
0.10038
0.092575
0.088155
0.07799
0.072802
0.062034
0.056155
0.11227
0.1123
0.11073
0.10868
0.10423
0.10062
0.092743
0.088194
0.077968
0.072622
0.061818
0.055791
0.11267
0.11271
0.11113
0.10906
0.10455
0.10087
0.09292
0.088239
0.077948
0.07244
0.061598
0.055421
0.11308
0.11314
0.11154
0.10945
0.10488
0.10114
0.093105
0.088289
0.07793
0.072257
0.061373
0.055043
0.11351
0.11357
0.11197
0.10986
0.10523
0.10141
0.093299
0.088343
0.077915
0.072072
0.061142
0.054657
0.11395
0.11403
0.11241
0.11028
0.10559
0.10169
0.093501
0.088403
0.077901
0.071886
0.060906
0.054263
0.1144
0.11449
0.11286
0.11071
0.10596
0.10198
0.093711
0.088467
0.077889
0.071698
0.060664
0.05386
0.11487
0.11497
0.11333
0.11115
0.10634
0.10229
0.093931
0.088536
0.077878
0.071508
0.060416
0.053447
0.11535
0.11547
0.11381
0.11161
0.10674
0.1026
0.094159
0.088611
0.077869
0.071315
0.060161
0.053024
0.11584
0.11598
0.11431
0.11209
0.10715
0.10292
0.094396
0.088689
0.077861
0.07112
0.059898
0.052591
0.11635
0.11651
0.11483
0.11258
0.10758
0.10326
0.094641
0.088772
0.077853
0.07092
0.059627
0.052147
0.11687
0.11705
0.11536
0.11309
0.10802
0.1036
0.094896
0.08886
0.077846
0.070717
0.059348
0.051691
0.11741
0.1176
0.11591
0.11361
0.10848
0.10396
0.09516
0.088952
0.077838
0.07051
0.05906
0.051223
0.11797
0.11818
0.11647
0.11414
0.10895
0.10433
0.095432
0.089048
0.077831
0.070298
0.058762
0.050742
0.11854
0.11877
0.11706
0.1147
0.10944
0.10472
0.095714
0.089147
0.077822
0.07008
0.058454
0.050246
0.11912
0.11938
0.11766
0.11527
0.10995
0.10511
0.096004
0.08925
0.077813
0.069856
0.058135
0.049736
0.11973
0.12
0.11828
0.11586
0.11047
0.10552
0.096304
0.089357
0.077802
0.069625
0.057803
0.049211
0.12035
0.12065
0.11892
0.11647
0.11101
0.10594
0.096613
0.089466
0.077788
0.069387
0.057459
0.048668
0.12099
0.12131
0.11958
0.1171
0.11157
0.10637
0.096931
0.089579
0.077772
0.069141
0.057101
0.048109
0.12165
0.122
0.12027
0.11775
0.11215
0.10682
0.097258
0.089694
0.077753
0.068887
0.056728
0.047531
0.12233
0.12271
0.12097
0.11842
0.11274
0.10728
0.097595
0.089812
0.07773
0.068623
0.05634
0.046934
0.12303
0.12344
0.1217
0.11911
0.11336
0.10775
0.097942
0.089932
0.077704
0.068348
0.055936
0.046317
0.12376
0.12419
0.12246
0.11983
0.114
0.10824
0.098299
0.090054
0.077672
0.068062
0.055514
0.045678
0.1245
0.12497
0.12324
0.12057
0.11466
0.10875
0.098666
0.090178
0.077635
0.067765
0.055073
0.045016
0.12528
0.12578
0.12405
0.12134
0.11535
0.10928
0.099043
0.090304
0.077593
0.067455
0.054614
0.044331
0.12608
0.12661
0.12489
0.12213
0.11606
0.10982
0.099432
0.090432
0.077544
0.067131
0.054133
0.04362
0.12691
0.12748
0.12577
0.12296
0.1168
0.11038
0.099833
0.090561
0.077488
0.066792
0.05363
0.042883
0.12777
0.12838
0.12668
0.12382
0.11757
0.11097
0.10025
0.090693
0.077425
0.066438
0.053105
0.042117
0.12866
0.12932
0.12762
0.12471
0.11837
0.11157
0.10067
0.090826
0.077354
0.066068
0.052555
0.041323
0.12959
0.13029
0.12861
0.12565
0.11921
0.1122
0.10111
0.090961
0.077275
0.06568
0.051979
0.040497
0.13056
0.13131
0.12964
0.12662
0.12008
0.11286
0.10157
0.091098
0.077186
0.065274
0.051377
0.039638
0.13157
0.13237
0.13072
0.12764
0.12099
0.11354
0.10204
0.091238
0.077088
0.064848
0.050746
0.038746
0.13263
0.13348
0.13185
0.12871
0.12195
0.11426
0.10253
0.091379
0.076979
0.064402
0.050084
0.037816
0.13373
0.13464
0.13304
0.12984
0.12295
0.11501
0.10303
0.091522
0.076858
0.063932
0.049391
0.036849
0.13489
0.13586
0.13429
0.13102
0.124
0.11579
0.10356
0.091668
0.076725
0.063439
0.048663
0.035841
0.1361
0.13714
0.1356
0.13226
0.1251
0.11661
0.1041
0.091814
0.076577
0.062919
0.047899
0.034791
0.13737
0.13849
0.13699
0.13357
0.12626
0.11747
0.10466
0.091962
0.076413
0.062371
0.047096
0.033696
0.1387
0.13991
0.13844
0.13495
0.12748
0.11837
0.10525
0.092109
0.076231
0.061791
0.046251
0.032552
0.1401
0.14141
0.13998
0.13641
0.12877
0.11932
0.10585
0.092255
0.076027
0.061176
0.045361
0.031357
0.14157
0.14298
0.14161
0.13795
0.13012
0.12031
0.10647
0.092397
0.075799
0.060523
0.044421
0.030108
0.14312
0.14465
0.14333
0.13958
0.13154
0.12135
0.10712
0.092533
0.075543
0.059827
0.043427
0.028799
0.14474
0.1464
0.14514
0.14131
0.13304
0.12244
0.10778
0.09266
0.075252
0.059081
0.042374
0.027428
0.14645
0.14825
0.14706
0.14313
0.13462
0.12358
0.10846
0.092772
0.074923
0.058281
0.041254
0.025987
0.14823
0.1502
0.14909
0.14506
0.13628
0.12477
0.10914
0.092865
0.074546
0.057417
0.040062
0.024472
0.1501
0.15226
0.15123
0.14709
0.13802
0.12601
0.10984
0.092932
0.074115
0.056483
0.038788
0.022875
0.15206
0.15442
0.1535
0.14924
0.13985
0.1273
0.11054
0.092966
0.07362
0.055468
0.037425
0.021189
0.15411
0.1567
0.15588
0.15151
0.14177
0.12863
0.11124
0.092957
0.073051
0.054363
0.035961
0.019404
0.15624
0.1591
0.1584
0.15391
0.14377
0.13001
0.11192
0.092896
0.072396
0.053154
0.034385
0.01751
0.15846
0.16162
0.16106
0.15643
0.14587
0.13141
0.11258
0.09277
0.071642
0.051831
0.032687
0.015497
0.16078
0.16426
0.16387
0.15909
0.14805
0.13285
0.11321
0.092567
0.070774
0.050379
0.030853
0.013354
0.16318
0.16705
0.16683
0.16189
0.15032
0.13432
0.1138
0.09227
0.069779
0.048785
0.02887
0.011067
0.16568
0.16998
0.16997
0.16484
0.15269
0.1358
0.11432
0.091862
0.068637
0.047033
0.026724
0.0086255
0.16828
0.17306
0.1733
0.16796
0.15515
0.13728
0.11477
0.091322
0.067329
0.045105
0.024402
0.0060161
0.17098
0.17632
0.17683
0.17126
0.15771
0.13875
0.11513
0.090627
0.065834
0.042985
0.021889
0.003227
0.17378
0.17977
0.1806
0.17475
0.16036
0.1402
0.11535
0.089748
0.064125
0.040651
0.019167
0.00024636
0.17669
0.18343
0.18464
0.17845
0.16311
0.1416
0.11543
0.088648
0.062171
0.038078
0.01622
-0.0029376
0.17971
0.18733
0.18897
0.18239
0.16594
0.14292
0.1153
0.087285
0.059933
0.035236
0.013026
-0.0063368
0.18285
0.19149
0.19364
0.18657
0.16884
0.14413
0.11492
0.085603
0.057364
0.032087
0.0095598
-0.0099649
0.1861
0.19595
0.19869
0.19101
0.17179
0.14516
0.11423
0.083537
0.054406
0.028588
0.0057893
-0.013837
0.18943
0.20072
0.20414
0.19572
0.17475
0.14595
0.11313
0.081005
0.050991
0.024684
0.0016773
-0.017972
0.1928
0.20583
0.21002
0.20067
0.17764
0.1464
0.11153
0.077912
0.047041
0.020314
-0.002819
-0.022392
0.19617
0.21126
0.21633
0.20582
0.18036
0.14637
0.10929
0.074151
0.04247
0.015414
-0.0077445
-0.027119
0.19943
0.217
0.22304
0.21109
0.18278
0.14572
0.10627
0.069604
0.037192
0.0099208
-0.01314
-0.032171
0.20246
0.22298
0.23008
0.21633
0.18468
0.14423
0.1023
0.06415
0.031126
0.0037874
-0.01903
-0.037557
0.20508
0.22909
0.23728
0.2213
0.18579
0.14165
0.097186
0.057668
0.024209
-0.0030111
-0.025416
-0.04326
0.20709
0.23513
0.24436
0.22563
0.18574
0.13769
0.090736
0.050052
0.016403
-0.010466
-0.032261
-0.049232
0.20825
0.24076
0.25082
0.22875
0.18403
0.13199
0.082742
0.041214
0.0077012
-0.018528
-0.039485
-0.055389
0.20832
0.24543
0.25581
0.22978
0.17999
0.12414
0.073012
0.031104
-0.0018612
-0.027112
-0.046969
-0.061606
0.20708
0.24823
0.2579
0.2274
0.17271
0.11368
0.061393
0.019732
-0.012199
-0.036095
-0.05457
-0.067744
0.20446
0.24769
0.25483
0.21962
0.16099
0.10011
0.047805
0.0072024
-0.023152
-0.045315
-0.062129
-0.073661
0.20064
0.24163
0.24316
0.20363
0.1433
0.082909
0.032267
-0.0062612
-0.03447
-0.054563
-0.069482
-0.079241
0.19629
0.22718
0.21832
0.1758
0.11776
0.061484
0.014853
-0.020352
-0.045827
-0.063587
-0.076466
-0.084399
0.19266
0.20142
0.1755
0.13226
0.08237
0.035179
-0.0044331
-0.034812
-0.056917
-0.07215
-0.082946
-0.089095
0.19094
0.16144
0.11132
0.070413
0.035568
0.0032913
-0.025795
-0.049598
-0.067607
-0.080131
-0.088866
-0.093363
0.19258
0.10171
0.021631
-0.011846
-0.024287
-0.035467
-0.050083
-0.065235
-0.078227
-0.087769
-0.094447
-0.097464
0.20952
0.026245
-0.090796
-0.11168
-0.096394
-0.082008
-0.078732
-0.0831
-0.089968
-0.09606
-0.10053
-0.10216
0.25384
-0.045057
-0.20519
-0.2118
-0.16901
-0.13013
-0.10926
-0.10255
-0.10291
-0.10527
-0.10743
-0.10761
0.10272
0.063316
0.053194
0.04716
0.043002
0.039895
0.037422
0.035299
0.033496
0.031657
0.030217
0.027779
0.12203
0.078537
0.065961
0.057935
0.052464
0.048426
0.045241
0.042528
0.040249
0.037927
0.036166
0.033315
0.10937
0.073433
0.062052
0.054155
0.048753
0.044785
0.041675
0.039039
0.03685
0.034613
0.032981
0.030213
0.1043
0.073083
0.062032
0.054044
0.048505
0.044424
0.041227
0.038523
0.036293
0.034008
0.032377
0.029483
0.10363
0.075218
0.064008
0.055803
0.05002
0.045732
0.042367
0.039522
0.037182
0.034783
0.033085
0.03003
0.10295
0.076999
0.065718
0.057379
0.051397
0.046931
0.043418
0.040445
0.038005
0.035508
0.033742
0.030572
0.1018
0.07825
0.067044
0.058655
0.052525
0.047913
0.044274
0.041193
0.038665
0.036089
0.034263
0.031023
0.10059
0.079272
0.068231
0.059843
0.053599
0.048858
0.045102
0.041921
0.039311
0.036668
0.034786
0.031515
0.099449
0.080153
0.069345
0.061003
0.054675
0.049818
0.045953
0.042678
0.039988
0.037289
0.035353
0.03209
0.098363
0.080884
0.070374
0.062121
0.055743
0.05079
0.046825
0.043462
0.040697
0.037952
0.035968
0.032751
0.097311
0.081464
0.071304
0.063182
0.05679
0.051763
0.047712
0.04427
0.041436
0.038656
0.036629
0.033494
0.096291
0.081906
0.072134
0.06418
0.057809
0.052731
0.048609
0.0451
0.042204
0.0394
0.037338
0.034315
0.095304
0.082228
0.072865
0.065106
0.058788
0.053686
0.04951
0.045946
0.042997
0.040179
0.03809
0.035206
0.094353
0.082443
0.073497
0.065956
0.05972
0.054617
0.050405
0.0468
0.043808
0.040988
0.038879
0.036153
0.093438
0.082567
0.074037
0.066727
0.060597
0.055515
0.051286
0.047654
0.04463
0.041817
0.039695
0.037138
0.09256
0.082613
0.074491
0.06742
0.061414
0.056373
0.052144
0.048499
0.045453
0.042657
0.040528
0.038145
0.09172
0.082596
0.074865
0.068037
0.062168
0.057185
0.052971
0.049327
0.046268
0.043496
0.041365
0.039154
0.090917
0.082524
0.075166
0.068581
0.062858
0.057948
0.053762
0.05013
0.047069
0.044327
0.042197
0.040149
0.09015
0.082409
0.075404
0.069057
0.063487
0.058659
0.054513
0.050903
0.047847
0.045139
0.043013
0.041114
0.089419
0.082258
0.075585
0.069469
0.064054
0.059317
0.05522
0.051641
0.048598
0.045927
0.043806
0.042039
0.088721
0.082078
0.075715
0.069823
0.064564
0.059924
0.055883
0.052341
0.049316
0.046684
0.04457
0.042912
0.088056
0.081874
0.075801
0.070124
0.06502
0.06048
0.0565
0.053002
0.05
0.047406
0.045298
0.043729
0.08742
0.081652
0.075848
0.070377
0.065425
0.060987
0.057074
0.053623
0.050646
0.048089
0.045988
0.044484
0.086812
0.081416
0.075862
0.070586
0.065783
0.061448
0.057603
0.054202
0.051255
0.048732
0.046638
0.045177
0.08623
0.081168
0.075847
0.070757
0.066097
0.061865
0.058091
0.054742
0.051826
0.049334
0.047247
0.045808
0.085672
0.080911
0.075807
0.070893
0.066372
0.062242
0.058539
0.055242
0.052359
0.049895
0.047815
0.046379
0.085136
0.080647
0.075744
0.070997
0.066611
0.06258
0.058949
0.055704
0.052855
0.050416
0.048343
0.046893
0.084622
0.080379
0.075663
0.071074
0.066816
0.062883
0.059324
0.056131
0.053316
0.050898
0.048832
0.047355
0.084126
0.080107
0.075566
0.071126
0.066991
0.063153
0.059665
0.056523
0.053743
0.051343
0.049284
0.047769
0.083648
0.079833
0.075455
0.071156
0.067139
0.063393
0.059974
0.056883
0.054138
0.051752
0.049702
0.048139
0.083187
0.079557
0.075332
0.071166
0.067262
0.063605
0.060255
0.057212
0.054503
0.052129
0.050086
0.048471
0.082741
0.079281
0.075198
0.071158
0.067363
0.063791
0.060508
0.057513
0.054839