/*--------------------------------*- C++ -*----------------------------------*\
  =========                 |
  \\      /  F ield         | OpenFOAM: The Open Source CFD Toolbox
   \\    /   O peration     | Website:  https://openfoam.org
    \\  /    A nd           | Version:  6.0
     \\/     M anipulation  |
\*---------------------------------------------------------------------------*/
FoamFile
{
    version     2.0;
    format      ascii;
    class       volVectorField;
    location    "3";
    object      U;
}
// * * * * * * * * * * * * * * * * * * * * * * * * * * * * * * * * * * * * * //

dimensions      [0 1 -1 0 0 0 0];

internalField   nonuniform List<vector> 
13500
(
(1 2.1328e-06 -4.242e-18)
(1 -3.0027e-06 2.8712e-18)
(1 -6.1207e-06 -1.2347e-17)
(1 -9.9535e-06 -8.541e-18)
(1 -9.2114e-06 1.6066e-17)
(1 -9.1271e-06 2.9898e-17)
(1 -1.5332e-07 2.5612e-17)
(0.99998 1.4019e-05 -4.136e-18)
(0.99992 3.8983e-05 1.5155e-17)
(0.9998 7.4693e-05 3.245e-18)
(0.99572 0.00075596 2.8488e-17)
(1.019 0.010844 7.7156e-18)
(1 6.6075e-06 2.6281e-18)
(1 -8.1605e-06 -8.7198e-18)
(1 -1.6631e-05 5.8962e-18)
(1 -2.7546e-05 -3.3685e-19)
(1 -2.4348e-05 -4.2843e-19)
(1 -2.434e-05 -3.5951e-17)
(1 4.4326e-06 -4.4236e-17)
(0.99994 4.4511e-05 -2.3665e-17)
(0.99974 0.00012945 -1.5125e-17)
(0.99983 0.0001839 -1.6048e-18)
(0.98618 0.0021898 -1.3491e-17)
(1.0534 0.030656 -4.6716e-18)
(1 1.1045e-05 -3.3944e-18)
(1 -1.3378e-05 1.7324e-17)
(1 -2.7357e-05 3.0669e-18)
(1 -4.5428e-05 9.8476e-18)
(1 -3.9739e-05 -3.7047e-18)
(1 -4.0173e-05 2.8798e-17)
(0.99999 9.3478e-06 -6.2267e-18)
(0.9999 7.3916e-05 5.3757e-18)
(0.99953 0.00022856 -1.8348e-17)
(1.0003 0.00030818 2.4379e-17)
(0.97598 0.0032737 -7.0532e-18)
(1.0819 0.045206 1.6378e-18)
(1 1.543e-05 8.8737e-18)
(1 -1.88e-05 -1.6796e-17)
(1 -3.8493e-05 -1.4538e-17)
(1 -6.3881e-05 -6.9093e-19)
(1 -5.5739e-05 5.7189e-18)
(1.0001 -5.6764e-05 -7.9921e-19)
(1 1.3984e-05 6.1352e-17)
(0.99987 0.00010202 9.6853e-18)
(0.99929 0.00033507 2.1697e-17)
(1.0013 0.000452 -8.8306e-18)
(0.96552 0.0040337 3.4344e-17)
(1.1031 0.05577 -7.455e-18)
(1 1.9804e-05 -6.2352e-18)
(1 -2.4252e-05 1.4516e-17)
(1 -4.9697e-05 1.2376e-17)
(1 -8.2414e-05 1.2603e-17)
(1 -7.1845e-05 2.8042e-18)
(1.0001 -7.3452e-05 2.1166e-17)
(1 1.8707e-05 -2.7397e-17)
(0.99986 0.00012908 1.9673e-18)
(0.999 0.00044778 -1.3303e-17)
(1.0026 0.00061742 -2.107e-18)
(0.95518 0.0045201 -8.9082e-18)
(1.117 0.063479 2.0673e-18)
(1 2.4168e-05 6.31e-18)
(1 -2.9729e-05 -6.0179e-18)
(1 -6.0976e-05 3.7796e-18)
(1 -0.00010102 -2.4966e-17)
(1.0001 -8.8067e-05 -8.2119e-20)
(1.0001 -9.0247e-05 -4.1902e-17)
(1 2.3509e-05 1.0512e-18)
(0.99985 0.00015492 -1.5791e-17)
(0.99865 0.00056528 5.0659e-18)
(1.0044 0.00081107 -2.1231e-17)
(0.94533 0.0047754 -2.1443e-17)
(1.1244 0.068947 1.9978e-18)
(0.99999 2.8522e-05 -1.0445e-18)
(1 -3.5234e-05 -7.1974e-18)
(1 -7.2331e-05 -3.0717e-18)
(1.0001 -0.0001197 1.8844e-17)
(1.0001 -0.0001044 -2.5972e-17)
(1.0001 -0.00010718 1.6033e-17)
(1 2.8427e-05 1.8324e-17)
(0.99986 0.00017944 5.5557e-18)
(0.99823 0.00068624 1.1325e-17)
(1.0065 0.0010393 1.143e-17)
(0.93624 0.0048376 9.2371e-18)
(1.1261 0.072598 3.2062e-18)
(0.99999 3.2865e-05 -2.1559e-18)
(1 -4.0769e-05 -1.4159e-18)
(1 -8.3766e-05 -2.6462e-17)
(1.0001 -0.00013847 -8.9984e-18)
(1.0001 -0.00012086 7.2695e-18)
(1.0001 -0.00012426 2.6275e-17)
(1 3.3473e-05 1.1663e-17)
(0.99988 0.00020258 4.9599e-18)
(0.99774 0.00080928 -7.4018e-18)
(1.0088 0.001306 1.6009e-17)
(0.92815 0.0047432 7.4592e-18)
(1.1232 0.074796 -1.0195e-17)
(0.99999 3.7197e-05 -6.6927e-18)
(1 -4.6335e-05 6.0872e-18)
(1 -9.5282e-05 4.4492e-17)
(1.0001 -0.00015733 -1.0793e-17)
(1.0001 -0.00013744 2.7224e-17)
(1.0001 -0.0001415 -5.1877e-17)
(1 3.8645e-05 -3.8852e-17)
(0.99992 0.0002243 9.6381e-18)
(0.99717 0.00093302 -5.559e-18)
(1.0114 0.0016125 -8.8298e-18)
(0.92121 0.0045272 -1.3783e-17)
(1.1166 0.075844 1.3336e-17)
(0.99999 4.1519e-05 4.4094e-18)
(1 -5.1933e-05 2.2912e-18)
(1 -0.00010689 -3.7688e-17)
(1.0001 -0.00017629 1.5361e-17)
(1.0001 -0.00015416 -1.1872e-17)
(1.0002 -0.00015892 2.2125e-17)
(1 4.3935e-05 1.3807e-17)
(0.99997 0.00024458 2.4367e-18)
(0.99652 0.0010561 5.2513e-19)
(1.0142 0.0019586 1.3988e-18)
(0.91553 0.0042219 4.3846e-18)
(1.1073 0.075997 -6.9907e-19)
(0.99998 4.5828e-05 -2.4209e-18)
(1 -5.7564e-05 -7.5145e-18)
(1 -0.00011858 9.2384e-18)
(1.0001 -0.00019534 -2.7103e-18)
(1.0001 -0.00017103 1.8326e-18)
(1.0002 -0.00017653 -2.4248e-17)
(1 4.9339e-05 -3.1799e-17)
(1.0001 0.00026345 -3.0946e-17)
(0.99579 0.0011773 1.5538e-17)
(1.017 0.0023423 1.8168e-18)
(0.91115 0.0038567 -1.1122e-17)
(1.096 0.075461 -5.7459e-18)
(0.99998 5.0126e-05 3.3416e-18)
(1 -6.3231e-05 2.8383e-18)
(1 -0.00013036 4.4523e-18)
(1.0001 -0.00021449 -2.16e-18)
(1.0001 -0.00018804 -5.4932e-18)
(1.0002 -0.00019434 9.1712e-18)
(1 5.4847e-05 1.8407e-17)
(1.0002 0.00028095 1.9118e-17)
(0.99497 0.0012953 9.9831e-18)
(1.02 0.0027606 -2.2944e-17)
(0.90808 0.003458 1.1671e-19)
(1.0836 0.074405 -6.6505e-18)
(0.99998 5.4412e-05 -3.341e-18)
(0.99999 -6.8934e-05 5.5816e-18)
(1 -0.00014224 8.0725e-18)
(1.0001 -0.00023375 5.64e-18)
(1.0001 -0.00020522 -5.0951e-18)
(1.0002 -0.00021236 4.5087e-18)
(1 6.0447e-05 4.1975e-18)
(1.0003 0.00029717 -1.7072e-18)
(0.99407 0.0014091 -1.6135e-17)
(1.0229 0.0032096 2.1277e-17)
(0.90626 0.003049 1.0385e-19)
(1.0705 0.07297 1.4246e-18)
(0.99997 5.8686e-05 5.0807e-18)
(0.99999 -7.4674e-05 -4.357e-18)
(1 -0.00015422 7.0676e-19)
(1.0001 -0.00025312 -4.7049e-18)
(1.0002 -0.00022257 1.1571e-17)
(1.0002 -0.00023061 5.5012e-18)
(1 6.6121e-05 1.6889e-17)
(1.0004 0.00031221 -6.341e-18)
(0.99309 0.0015176 -1.9715e-19)
(1.0258 0.0036846 5.2251e-18)
(0.90565 0.0026496 1.6881e-17)
(1.0574 0.071269 9.0868e-19)
(0.99997 6.2947e-05 1.2254e-18)
(0.99999 -8.0454e-05 9.6698e-18)
(1 -0.0001663 1.3499e-17)
(1.0001 -0.00027261 -4.691e-18)
(1.0002 -0.00024009 8.3788e-18)
(1.0003 -0.00024909 -2.5681e-18)
(1 7.1847e-05 -2.958e-17)
(1.0006 0.00032623 2.0071e-17)
(0.99203 0.0016199 -1.8193e-17)
(1.0285 0.0041806 -3.0139e-17)
(0.90614 0.0022764 -3.7055e-18)
(1.0445 0.069392 8.4176e-19)
(0.99997 6.7196e-05 -3.1262e-18)
(0.99999 -8.6275e-05 -1.0284e-17)
(1 -0.00017848 -3.2401e-17)
(1.0001 -0.00029221 7.9034e-18)
(1.0002 -0.0002578 -1.2715e-17)
(1.0003 -0.00026783 8.2341e-18)
(1 7.7597e-05 -2.7676e-18)
(1.0008 0.00033938 -1.2083e-17)
(0.9909 0.0017151 3.9956e-18)
(1.0312 0.0046925 1.7997e-17)
(0.90764 0.0019429 -7.7775e-18)
(1.0323 0.067413 1.1687e-17)
(0.99996 7.1432e-05 3.2895e-19)
(0.99998 -9.2138e-05 7.6914e-18)
(1 -0.00019077 2.237e-17)
(1.0001 -0.00031194 -1.78e-18)
(1.0002 -0.00027571 -1.2632e-17)
(1.0003 -0.00028683 -1.5344e-17)
(1 8.3338e-05 1.0572e-17)
(1.0011 0.00035186 6.9299e-18)
(0.98972 0.0018024 2.3088e-17)
(1.0337 0.0052152 -2.5198e-18)
(0.91002 0.0016596 1.9328e-18)
(1.0209 0.065391 -4.6626e-18)
(0.99996 7.5655e-05 -1.8455e-18)
(0.99998 -9.8046e-05 -9.3196e-18)
(1 -0.00020318 -1.0094e-17)
(1.0001 -0.00033179 5.9482e-18)
(1.0002 -0.00029382 -7.0947e-18)
(1.0003 -0.00030611 -1.2308e-17)
(1 8.9028e-05 1.0277e-17)
(1.0014 0.0003639 -4.7011e-18)
(0.98847 0.0018811 -2.857e-17)
(1.036 0.0057439 -1.4121e-17)
(0.91318 0.001434 8.3891e-18)
(1.0106 0.063372 -5.0562e-18)
(0.99995 7.9864e-05 -2.6427e-18)
(0.99998 -0.000104 -3.5225e-18)
(1 -0.0002157 -7.4806e-19)
(1.0001 -0.00035177 -2.6048e-17)
(1.0002 -0.00031214 5.9525e-18)
(1.0003 -0.00032567 5.3595e-18)
(0.99998 9.462e-05 -1.9529e-17)
(1.0017 0.00037576 -1.6051e-17)
(0.98718 0.0019504 4.1799e-18)
(1.0381 0.0062739 -1.0604e-18)
(0.91699 0.001271 -9.6872e-18)
(1.0013 0.061391 9.5636e-19)
(0.99995 8.4061e-05 3.4373e-18)
(0.99997 -0.00011 1.6148e-17)
(1 -0.00022834 1.9263e-17)
(1.0001 -0.00037189 2.4529e-18)
(1.0002 -0.00033069 1.6456e-17)
(1.0004 -0.00034553 9.3922e-18)
(0.99996 0.00010006 2.8188e-18)
(1.002 0.0003877 1.7569e-17)
(0.98586 0.0020098 2.076e-17)
(1.04 0.006801 1.6861e-17)
(0.92133 0.0011735 7.2312e-18)
(0.99323 0.059474 1.1346e-18)
(0.99994 8.8243e-05 -1.6384e-18)
(0.99997 -0.00011605 -3.8744e-18)
(1 -0.00024111 -2.0523e-17)
(1.0002 -0.00039215 -2.3228e-18)
(1.0002 -0.00034948 -1.2472e-17)
(1.0004 -0.00036569 -5.0818e-18)
(0.99993 0.00010527 -1.8089e-18)
(1.0024 0.00040002 -1.5887e-17)
(0.98451 0.0020586 -1.9848e-17)
(1.0416 0.0073215 8.6413e-18)
(0.9261 0.0011421 4.972e-19)
(0.98634 0.057639 6.5111e-19)
(0.99993 9.2413e-05 4.3429e-18)
(0.99996 -0.00012215 -5.0619e-18)
(1 -0.000254 -1.9249e-17)
(1.0002 -0.00041256 4.4157e-17)
(1.0002 -0.00036851 1.8092e-17)
(1.0004 -0.00038617 -1.2435e-17)
(0.9999 0.0001102 2.4321e-17)
(1.0028 0.00041306 2.1471e-17)
(0.98314 0.0020963 3.2204e-17)
(1.0429 0.0078319 -3.1671e-17)
(0.93119 0.0011758 -1.3283e-17)
(0.98062 0.055901 1.7161e-19)
(0.99993 9.6568e-05 -3.1789e-18)
(0.99996 -0.0001283 -1.0158e-18)
(1 -0.00026703 3.2863e-17)
(1.0002 -0.00043311 -3.338e-17)
(1.0003 -0.0003878 -1.7415e-18)
(1.0005 -0.00040697 4.1202e-17)
(0.99985 0.00011474 7.537e-18)
(1.0033 0.00042716 -3.3164e-18)
(0.98177 0.0021224 -1.9971e-17)
(1.044 0.0083292 3.7321e-17)
(0.93649 0.0012722 -5.6282e-18)
(0.97602 0.054267 -2.7289e-19)
(0.99992 0.00010071 -1.6206e-18)
(0.99995 -0.00013451 -2.0241e-18)
(1 -0.00028018 1.7115e-18)
(1.0002 -0.00045382 3.4727e-17)
(1.0003 -0.00040735 -9.8197e-18)
(1.0005 -0.00042809 -3.0454e-17)
(0.9998 0.00011882 -1.9217e-17)
(1.0038 0.00044268 -3.5711e-18)
(0.9804 0.0021363 6.3144e-18)
(1.0448 0.008811 -3.1483e-17)
(0.94193 0.0014279 9.4261e-18)
(0.97247 0.052742 2.9567e-18)
(0.99991 0.00010484 2.6782e-18)
(0.99995 -0.00014077 1.4088e-17)
(1 -0.00029348 -1.2621e-17)
(1.0002 -0.00047469 -3.636e-18)
(1.0003 -0.00042718 -1.8846e-17)
(1.0005 -0.00044955 3.3133e-17)
(0.99974 0.00012232 -1.6869e-17)
(1.0043 0.00046 1.4806e-17)
(0.97905 0.0021375 -1.9461e-18)
(1.0454 0.0092752 2.9515e-17)
(0.94742 0.0016386 -9.2006e-18)
(0.9699 0.051326 -4.9336e-18)
(0.99991 0.00010895 -5.1366e-19)
(0.99994 -0.0001471 -8.1025e-18)
(1 -0.00030692 -1.7673e-17)
(1.0002 -0.00049572 -9.9636e-18)
(1.0003 -0.00044729 1.828e-17)
(1.0006 -0.00047134 -4.225e-17)
(0.99968 0.00012514 -2.6029e-18)
(1.0049 0.00047952 -2.0003e-17)
(0.97773 0.0021258 3.1425e-18)
(1.0456 0.0097199 -8.513e-18)
(0.95288 0.0018993 9.7931e-18)
(0.96822 0.050018 2.0925e-18)
(0.9999 0.00011305 2.691e-18)
(0.99994 -0.00015348 -8.6793e-18)
(1 -0.00032051 -1.7464e-18)
(1.0002 -0.00051692 2.4212e-18)
(1.0003 -0.00046771 5.7856e-18)
(1.0006 -0.00049347 1.2208e-17)
(0.9996 0.00012714 4.2676e-17)
(1.0055 0.00050164 2.3906e-18)
(0.97644 0.0021006 5.1199e-18)
(1.0457 0.010144 9.3821e-18)
(0.95826 0.0022046 -8.3775e-18)
(0.96732 0.048814 1.6064e-18)
(0.99989 0.00011713 -1.543e-18)
(0.99993 -0.00015993 8.6713e-18)
(1 -0.00033425 2.5123e-17)
(1.0002 -0.00053829 -2.4394e-17)
(1.0003 -0.00048845 -8.9998e-18)
(1.0006 -0.00051593 -2.1483e-18)
(0.99951 0.00012819 -1.4067e-17)
(1.0061 0.00052678 1.8547e-18)
(0.97521 0.0020616 -8.8723e-18)
(1.0454 0.010546 -3.4485e-18)
(0.96349 0.002549 -2.3782e-19)
(0.96713 0.047711 -1.9631e-18)
(0.99988 0.0001212 -1.6585e-18)
(0.99992 -0.00016644 5.1905e-18)
(1 -0.00034814 -6.0747e-19)
(1.0002 -0.00055984 8.0889e-18)
(1.0003 -0.00050951 -1.6607e-17)
(1.0007 -0.00053872 2.4307e-17)
(0.99941 0.00012814 7.016e-18)
(1.0067 0.00055536 -1.7694e-17)
(0.97403 0.0020086 -1.1374e-17)
(1.0449 0.010925 -1.3652e-17)
(0.96855 0.0029268 1.3273e-18)
(0.96754 0.046702 -3.5958e-18)
(0.99987 0.00012525 5.7634e-19)
(0.99992 -0.00017301 -1.2396e-17)
(1 -0.0003622 1.5558e-17)
(1.0002 -0.00058158 2.2373e-17)
(1.0003 -0.0005309 3.2549e-17)
(1.0007 -0.00056184 -1.7851e-17)
(0.9993 0.00012683 -1.7444e-17)
(1.0074 0.00058779 3.5906e-18)
(0.97293 0.0019413 1.0657e-17)
(1.0442 0.011281 1.0686e-17)
(0.97338 0.0033325 6.1819e-18)
(0.96845 0.045781 3.5739e-18)
(0.99987 0.00012929 1.1046e-18)
(0.99991 -0.00017966 9.8574e-18)
(1 -0.00037642 -3.5744e-17)
(1.0002 -0.00060351 -3.2415e-18)
(1.0003 -0.00055266 -2.704e-17)
(1.0008 -0.00058527 -1.1245e-17)
(0.99918 0.0001241 2.4548e-20)
(1.0081 0.00062449 -4.1072e-18)
(0.9719 0.0018595 -2.0993e-17)
(1.0433 0.011613 -1.7062e-17)
(0.97795 0.0037603 -8.4439e-18)
(0.96979 0.044941 -1.7606e-18)
(0.99986 0.00013331 -7.1589e-19)
(0.9999 -0.00018638 -6.4108e-18)
(1 -0.00039081 2.8125e-17)
(1.0002 -0.00062563 -3.0933e-17)
(1.0003 -0.00057478 -2.0342e-18)
(1.0008 -0.00060901 2.3946e-17)
(0.99904 0.00011975 6.9795e-19)
(1.0088 0.00066587 3.9167e-18)
(0.97096 0.0017633 1.8378e-17)
(1.0421 0.011921 2.2179e-17)
(0.98225 0.0042052 4.8306e-18)
(0.97146 0.044174 -9.8291e-19)
(0.99985 0.00013732 -1.8638e-18)
(0.99989 -0.00019317 -2.3643e-18)
(1 -0.00040537 -1.2468e-17)
(1.0002 -0.00064795 1.541e-17)
(1.0004 -0.00059728 2.9719e-17)
(1.0009 -0.00063305 -1.0583e-17)
(0.9989 0.00011359 2.1725e-17)
(1.0096 0.00071232 2.9359e-18)
(0.97012 0.0016526 -2.0811e-18)
(1.0408 0.012205 1.0034e-17)
(0.98625 0.004662 -5.3987e-18)
(0.97339 0.043475 -6.8447e-19)
(0.99984 0.00014131 4.661e-19)
(0.99988 -0.00020003 -6.2525e-18)
(1 -0.00042012 4.6677e-18)
(1.0002 -0.00067047 -1.5705e-17)
(1.0004 -0.00062018 -3.1435e-17)
(1.0009 -0.00065735 6.6695e-18)
(0.99874 0.00010542 -3.1341e-17)
(1.0103 0.00076422 -6.7122e-18)
(0.96937 0.0015276 6.7513e-18)
(1.0393 0.012464 -3.1493e-17)
(0.98994 0.0051259 3.6962e-18)
(0.97551 0.042837 1.9341e-18)
(0.99983 0.00014528 8.1858e-19)
(0.99987 -0.00020697 1.694e-17)
(1 -0.00043504 7.8159e-18)
(1.0002 -0.00069321 6.3973e-18)
(1.0004 -0.0006435 2.5137e-17)
(1.001 -0.00068191 1.9887e-18)
(0.99857 9.5028e-05 2.1642e-17)
(1.0111 0.00082193 4.8144e-18)
(0.96874 0.0013885 -2.0516e-17)
(1.0377 0.0127 1.0843e-17)
(0.99331 0.0055926 2.4996e-18)
(0.97775 0.042251 2.0047e-18)
(0.99982 0.00014924 -2.8584e-18)
(0.99987 -0.00021399 -5.5761e-18)
(0.99999 -0.00045015 -6.8665e-18)
(1.0002 -0.00071617 1.0506e-17)
(1.0004 -0.00066725 1.2144e-17)
(1.0011 -0.0007067 -3.9602e-18)
(0.99839 8.2184e-05 -1.8179e-17)
(1.0119 0.00088578 2.192e-17)
(0.96821 0.0012356 3.8005e-18)
(1.036 0.012911 -3.2758e-18)
(0.99637 0.0060579 1.0339e-17)
(0.98007 0.041713 -1.3931e-18)
(0.9998 0.00015318 5.8736e-18)
(0.99986 -0.0002211 6.6779e-18)
(0.99999 -0.00046546 -7.2995e-18)
(1.0002 -0.00073934 -6.545e-18)
(1.0004 -0.00069145 -1.7427e-17)
(1.0011 -0.0007317 -6.8021e-18)
(0.9982 6.6656e-05 8.9628e-18)
(1.0126 0.00095607 -3.5159e-17)
(0.96781 0.0010693 9.2997e-18)
(1.0341 0.013099 -3.8725e-18)
(0.99912 0.0065181 -1.0948e-17)
(0.98241 0.041215 4.0452e-18)
(0.99979 0.00015711 -2.5923e-18)
(0.99985 -0.00022829 -1.1733e-17)
(0.99998 -0.00048097 -7.075e-18)
(1.0002 -0.00076275 -1.242e-17)
(1.0004 -0.00071611 -5.3212e-18)
(1.0012 -0.00075686 2e-17)
(0.99799 4.8203e-05 -8.8046e-18)
(1.0134 0.0010331 3.9111e-17)
(0.96752 0.00089033 8.7673e-18)
(1.0322 0.013264 1.1751e-17)
(1.0016 0.0069697 4.6147e-18)
(0.98474 0.040753 -6.5593e-18)
(0.99978 0.00016101 -1.3751e-18)
(0.99984 -0.00023556 8.7259e-18)
(0.99998 -0.00049667 1.4018e-17)
(1.0002 -0.00078639 3.3487e-17)
(1.0004 -0.00074126 7.0533e-18)
(1.0013 -0.00078217 -1.3719e-17)
(0.99778 2.6579e-05 4.2489e-18)
(1.0141 0.001117 -4.2077e-17)
(0.96735 0.00069929 -1.0633e-17)
(1.0302 0.013405 -6.5341e-18)
(1.0037 0.0074096 4.5267e-18)
(0.98701 0.040321 6.5949e-18)
(0.99977 0.0001649 1.0524e-18)
(0.99983 -0.00024293 2.0658e-18)
(0.99997 -0.00051259 -1.3767e-17)
(1.0002 -0.00081027 -5.5779e-18)
(1.0004 -0.00076692 8.9564e-18)
(1.0014 -0.00080757 1.6421e-17)
(0.99755 1.5292e-06 1.4775e-17)
(1.0149 0.0012081 4.1651e-18)
(0.96731 0.00049702 1.1895e-17)
(1.0281 0.013524 -3.0279e-18)
(1.0055 0.0078352 -8.0808e-18)
(0.9892 0.039914 -1.7008e-18)
(0.99976 0.00016878 -4.3096e-20)
(0.99981 -0.00025039 2.3544e-18)
(0.99997 -0.00052872 3.0768e-18)
(1.0003 -0.00083439 -7.2415e-18)
(1.0004 -0.00079311 8.3688e-20)
(1.0014 -0.00083303 -1.4888e-17)
(0.99732 -2.7202e-05 -9.9938e-18)
(1.0156 0.0013064 3.0811e-17)
(0.96739 0.00028444 -1.7974e-17)
(1.026 0.01362 1.1758e-17)
(1.0071 0.008244 4.2675e-18)
(0.99129 0.039527 -4.8023e-18)
(0.99974 0.00017263 -3.2599e-18)
(0.9998 -0.00025794 -1.1042e-17)
(0.99996 -0.00054507 7.856e-18)
(1.0003 -0.00085877 -1.9778e-17)
(1.0004 -0.00081986 -2.2651e-17)
(1.0015 -0.00085849 -2.0568e-17)
(0.99707 -5.9872e-05 -2.0368e-17)
(1.0163 0.0014121 -3.1554e-18)
(0.96758 6.2592e-05 1.5708e-17)
(1.0239 0.013695 -1.0086e-17)
(1.0084 0.0086339 4.2392e-19)
(0.99326 0.039157 4.5229e-18)
(0.99973 0.00017647 6.292e-18)
(0.99979 -0.0002656 1.154e-17)
(0.99995 -0.00056164 -1.267e-17)
(1.0003 -0.0008834 1.6238e-17)
(1.0004 -0.00084717 -2.6569e-18)
(1.0016 -0.00088392 1.3482e-17)
(0.99682 -9.6741e-05 2.4482e-17)
(1.017 0.0015252 -2.39e-17)
(0.9679 -0.00016738 -7.9639e-18)
(1.0219 0.013747 1.0652e-17)
(1.0095 0.009003 3.6872e-18)
(0.9951 0.038799 -2.1394e-18)
(0.99971 0.00018029 -4.7214e-18)
(0.99978 -0.00027335 -3.4104e-18)
(0.99994 -0.00057844 -2.6496e-18)
(1.0003 -0.0009083 1.858e-17)
(1.0004 -0.00087509 -5.6877e-18)
(1.0017 -0.00090926 -1.7091e-19)
(0.99656 -0.00013806 -4.7905e-18)
(1.0177 0.0016456 1.9144e-17)
(0.96833 -0.00040424 -7.5606e-18)
(1.0198 0.013779 -7.3143e-18)
(1.0104 0.0093499 -1.09e-17)
(0.9968 0.03845 2.4863e-18)
(0.9997 0.0001841 3.2095e-18)
(0.99977 -0.00028121 -4.3245e-18)
(0.99994 -0.00059547 6.0648e-18)
(1.0003 -0.00093347 -2.8193e-17)
(1.0004 -0.00090362 3.8529e-17)
(1.0018 -0.00093444 5.5859e-18)
(0.99629 -0.0001841 1.8901e-17)
(1.0184 0.0017733 -1.1846e-17)
(0.96887 -0.00064667 1.0064e-19)
(1.0178 0.013791 5.4398e-18)
(1.011 0.0096732 -2.1196e-18)
(0.99835 0.038108 -9.3549e-19)
(0.99968 0.00018788 -9.1813e-19)
(0.99975 -0.00028917 8.4538e-19)
(0.99993 -0.00061275 1.4778e-17)
(1.0003 -0.00095892 7.6858e-18)
(1.0004 -0.00093281 -1.9263e-17)
(1.0019 -0.00095942 -1.0941e-17)
(0.99602 -0.00023508 3.3001e-18)
(1.019 0.0019082 -5.7586e-18)
(0.96952 -0.0008933 1.265e-17)
(1.0158 0.013782 -3.5709e-18)
(1.0115 0.0099719 1.0204e-17)
(0.99976 0.037769 -3.4135e-18)
(0.99967 0.00019165 -1.5982e-18)
(0.99974 -0.00029725 -8.1492e-18)
(0.99992 -0.00063027 -4.3938e-18)
(1.0003 -0.00098465 3.0866e-17)
(1.0004 -0.00096268 -1.7163e-17)
(1.0021 -0.00098413 -9.2701e-19)
(0.99574 -0.00029125 -4.9354e-17)
(1.0195 0.00205 5.6608e-18)
(0.97026 -0.0011427 -2.3653e-17)
(1.0139 0.013755 -7.7119e-18)
(1.0118 0.010245 -1.0202e-17)
(1.001 0.037431 2.0268e-18)
(0.99965 0.0001954 -6.9004e-19)
(0.99973 -0.00030544 5.0487e-18)
(0.99991 -0.00064804 -1.8137e-18)
(1.0003 -0.0010107 -1.7972e-17)
(1.0004 -0.00099325 2.4664e-17)
(1.0022 -0.0010085 -2.2785e-18)
(0.99546 -0.00035283 2.6142e-17)
(1.0201 0.0021984 -3.4797e-18)
(0.97111 -0.0013934 1.1484e-17)
(1.0121 0.013709 9.6456e-18)
(1.0119 0.010493 8.4152e-18)
(1.0022 0.037092 -4.8999e-19)
(0.99964 0.00019913 3.9115e-18)
(0.99971 -0.00031375 -3.021e-18)
(0.9999 -0.00066606 -6.3461e-18)
(1.0003 -0.001037 1.9616e-17)
(1.0004 -0.0010246 1.8104e-18)
(1.0023 -0.0010325 2.8246e-17)
(0.99518 -0.00042004 4.5096e-18)
(1.0206 0.0023532 1.6625e-17)
(0.97203 -0.0016439 4.3084e-18)
(1.0104 0.013646 -3.1209e-18)
(1.012 0.010714 1.0946e-18)
(1.0032 0.03675 4.4358e-19)
(0.99962 0.00020285 1.1154e-18)
(0.9997 -0.00032218 1.235e-18)
(0.99989 -0.00068435 -5.755e-18)
(1.0003 -0.0010636 -3.9065e-17)
(1.0004 -0.0010566 5.4824e-18)
(1.0024 -0.001056 2.4502e-18)
(0.9949 -0.00049306 -1.9554e-17)
(1.021 0.002514 2.3384e-19)
(0.97304 -0.0018927 1.2694e-17)
(1.0087 0.013566 -2.0065e-18)
(1.0119 0.010909 -5.329e-18)
(1.004 0.036404 2.6141e-18)
(0.9996 0.00020655 -4.7763e-18)
(0.99968 -0.00033073 5.2354e-18)
(0.99988 -0.00070291 9.4838e-19)
(1.0003 -0.0010905 2.1694e-17)
(1.0004 -0.0010895 -2.5008e-17)
(1.0026 -0.001079 -1.082e-17)
(0.99461 -0.00057206 1.9999e-17)
(1.0214 0.0026802 -1.1261e-17)
(0.97411 -0.0021385 -2.0066e-17)
(1.0072 0.01347 -9.9152e-18)
(1.0118 0.011077 6.7865e-18)
(1.0048 0.036052 8.71e-19)
(0.99958 0.00021023 -5.055e-19)
(0.99966 -0.00033941 -5.2686e-18)
(0.99987 -0.00072174 1.0104e-17)
(1.0003 -0.0011178 9.6196e-18)
(1.0004 -0.0011232 3.089e-17)
(1.0027 -0.0011013 4.1572e-18)
(0.99433 -0.0006572 1.7763e-17)
(1.0218 0.0028514 2.8549e-17)
(0.97525 -0.0023796 -8.8624e-19)
(1.0058 0.013359 1.7441e-17)
(1.0115 0.01122 -7.1824e-19)
(1.0055 0.035694 -2.5432e-18)
(0.99957 0.00021389 4.8992e-18)
(0.99965 -0.00034822 -7.671e-18)
(0.99986 -0.00074085 -1.5338e-17)
(1.0003 -0.0011453 -2.5561e-18)
(1.0004 -0.0011578 -3.3527e-17)
(1.0028 -0.0011231 -1.2369e-17)
(0.99405 -0.0007486 -6.166e-18)
(1.0221 0.0030269 2.1368e-19)
(0.97645 -0.0026148 2.6113e-17)
(1.0045 0.013234 4.0189e-18)
(1.0113 0.011337 -9.3118e-18)
(1.006 0.035328 1.5247e-18)
(0.99955 0.00021754 -5.4927e-18)
(0.99963 -0.00035717 9.5822e-18)
(0.99985 -0.00076025 8.0286e-18)
(1.0003 -0.0011732 -5.0945e-18)
(1.0004 -0.0011932 2.6964e-17)
(1.003 -0.001144 1.4798e-17)
(0.99378 -0.00084636 -4.8742e-18)
(1.0224 0.0032063 -2.877e-17)
(0.97769 -0.0028428 -8.8788e-19)
(1.0033 0.013097 -1.1485e-17)
(1.0109 0.011428 1.1023e-17)
(1.0065 0.034954 -1.9974e-18)
(0.99953 0.00022116 3.3006e-18)
(0.99961 -0.00036626 -1.8338e-18)
(0.99983 -0.00077994 1.0632e-17)
(1.0003 -0.0012015 -2.1436e-17)
(1.0004 -0.0012296 8.8058e-18)
(1.0031 -0.0011642 -5.3159e-18)
(0.99351 -0.00095053 -1.0502e-17)
(1.0226 0.0033887 -2.3097e-18)
(0.97897 -0.0030623 -3.1512e-17)
(1.0022 0.012948 7.577e-18)
(1.0106 0.011495 -1.0092e-17)
(1.0069 0.034572 6.6605e-19)
(0.99951 0.00022478 2.6102e-19)
(0.9996 -0.0003755 -5.769e-18)
(0.99982 -0.00079992 6.0382e-18)
(1.0003 -0.00123 2.8215e-17)
(1.0003 -0.001267 -2.0972e-17)
(1.0033 -0.0011836 1.7102e-17)
(0.99325 -0.0010612 -6.0721e-18)
(1.0228 0.0035734 5.3477e-18)
(0.98027 -0.0032722 3.7438e-17)
(1.0013 0.012788 -1.4066e-17)
(1.0102 0.011539 1.5424e-17)
(1.0073 0.034181 1.8843e-18)
(0.99949 0.00022837 4.6849e-19)
(0.99958 -0.00038488 -1.1943e-18)
(0.99981 -0.00082021 -8.6861e-18)
(1.0003 -0.001259 -4.2471e-18)
(1.0003 -0.0013053 1.828e-17)
(1.0034 -0.001202 1.3682e-19)
(0.99299 -0.0011782 -1.1935e-17)
(1.0229 0.0037597 -1.2768e-17)
(0.9816 -0.0034715 -1.5672e-17)
(1.0004 0.012619 -1.3279e-18)
(1.0099 0.01156 2.8229e-18)
(1.0076 0.033782 1.9689e-19)
(0.99947 0.00023195 -7.5378e-19)
(0.99956 -0.00039442 1.4208e-17)
(0.9998 -0.00084081 -5.794e-18)
(1.0003 -0.0012883 -2.4006e-17)
(1.0003 -0.0013447 8.4289e-18)
(1.0036 -0.0012195 -4.3574e-17)
(0.99275 -0.0013017 5.9537e-18)
(1.023 0.0039467 8.0392e-18)
(0.98294 -0.0036593 7.2794e-19)
(0.9997 0.012443 1.4286e-17)
(1.0095 0.011559 -9.4435e-19)
(1.0078 0.033373 -5.2641e-18)
(0.99944 0.00023552 -1.9899e-19)
(0.99954 -0.00040411 -2.7871e-19)
(0.99978 -0.00086173 7.8003e-18)
(1.0003 -0.0013179 1.4821e-17)
(1.0003 -0.0013852 -3.3488e-17)
(1.0038 -0.001236 1.8819e-18)
(0.99251 -0.0014316 1.0664e-17)
(1.023 0.0041336 1.2592e-17)
(0.98428 -0.0038348 -9.9114e-18)
(0.99909 0.012259 -1.3909e-17)
(1.0092 0.011537 -1.5296e-17)
(1.008 0.032956 5.558e-18)
(0.99942 0.00023906 -1.3024e-18)
(0.99952 -0.00041397 3.9725e-19)
(0.99977 -0.00088297 -3.7609e-18)
(1.0003 -0.0013479 -9.8961e-18)
(1.0003 -0.0014268 1.8565e-17)
(1.0039 -0.0012514 2.339e-17)
(0.99229 -0.0015676 3.11e-18)
(1.023 0.0043195 6.3819e-18)
(0.98563 -0.0039974 1.5808e-17)
(0.99858 0.01207 2.3409e-18)
(1.0088 0.011496 1.1308e-17)
(1.0082 0.032531 -3.3735e-18)
(0.9994 0.0002426 2.3973e-18)
(0.9995 -0.00042399 7.3234e-19)
(0.99975 -0.00090454 -5.3754e-18)
(1.0003 -0.0013783 1.4619e-18)
(1.0003 -0.0014695 -1.0066e-17)
(1.0041 -0.0012658 -5.6105e-18)
(0.99208 -0.0017098 -1.1495e-18)
(1.023 0.0045035 -2.8818e-17)
(0.98696 -0.0041466 3.1029e-18)
(0.99817 0.011876 -4.746e-18)
(1.0085 0.011436 -4.5992e-18)
(1.0084 0.032098 -4.0653e-18)
(0.99938 0.00024612 -4.8927e-18)
(0.99948 -0.00043418 9.5682e-19)
(0.99974 -0.00092644 2.8513e-18)
(1.0003 -0.0014091 -1.8372e-17)
(1.0002 -0.0015135 -1.1476e-17)
(1.0043 -0.0012791 -2.6049e-17)
(0.99188 -0.0018578 5.5473e-18)
(1.0229 0.0046848 1.1767e-17)
(0.98828 -0.004282 -3.3276e-17)
(0.99786 0.01168 2.1884e-17)
(1.0083 0.011359 -4.9725e-18)
(1.0085 0.031658 2.622e-18)
(0.99935 0.00024962 4.4914e-18)
(0.99946 -0.00044455 2.1411e-18)
(0.99972 -0.00094869 1.0966e-18)
(1.0003 -0.0014403 5.8263e-18)
(1.0002 -0.0015586 -2.5357e-18)
(1.0044 -0.0012914 5.0489e-17)
(0.99169 -0.0020115 1.9917e-17)
(1.0227 0.0048624 -1.8307e-17)
(0.98958 -0.0044034 3.2026e-17)
(0.99765 0.01148 -8.165e-18)
(1.008 0.011266 -3.2788e-18)
(1.0087 0.031211 -1.3075e-18)
(0.99933 0.00025311 1.1018e-18)
(0.99943 -0.00045511 -1.3557e-17)
(0.9997 -0.00097128 2.195e-18)
(1.0003 -0.0014719 2.6169e-17)
(1.0002 -0.0016049 1.9619e-17)
(1.0046 -0.0013025 -8.1443e-19)
(0.99152 -0.0021706 -2.7592e-17)
(1.0226 0.0050354 5.541e-18)
(0.99085 -0.0045107 -7.2226e-18)
(0.99751 0.01128 -1.13e-17)
(1.0079 0.011159 8.3415e-18)
(1.0088 0.030757 1.2193e-18)
(0.9993 0.00025659 -4.3578e-18)
(0.99941 -0.00046584 -4.5202e-18)
(0.99969 -0.00099423 -1.1891e-17)
(1.0003 -0.001504 -2.1948e-17)
(1.0002 -0.0016526 -1.9743e-17)
(1.0048 -0.0013126 -2.2945e-17)
(0.99136 -0.0023348 5.0953e-18)
(1.0224 0.005203 4.3098e-17)
(0.99209 -0.004604 3.1478e-18)
(0.99746 0.011079 -9.8681e-19)
(1.0077 0.011038 -2.9449e-18)
(1.009 0.030298 -3.275e-18)
(0.99928 0.00026005 3.2339e-18)
(0.99939 -0.00047678 4.1984e-18)
(0.99967 -0.0010175 1.8325e-17)
(1.0003 -0.0015364 1.5201e-17)
(1.0001 -0.0017016 1.9208e-17)
(1.0049 -0.0013217 -8.5276e-19)
(0.99122 -0.0025038 -2.8389e-17)
(1.0221 0.0053642 -2.3297e-17)
(0.9933 -0.0046835 7.8124e-18)
(0.99748 0.010879 3.9114e-18)
(1.0076 0.010904 6.6387e-18)
(1.0091 0.029833 2.5312e-18)
(0.99925 0.00026351 -2.2839e-18)
(0.99936 -0.00048791 6.5869e-18)
(0.99965 -0.0010412 -1.2125e-17)
(1.0003 -0.0015693 2.2005e-18)
(1.0001 -0.0017518 8.9323e-18)
(1.0051 -0.0013297 -2.2431e-18)
(0.9911 -0.0026772 6.3739e-18)
(1.0219 0.0055183 6.4702e-18)
(0.99446 -0.0047495 2.5713e-18)
(0.99756 0.010681 9.6687e-18)
(1.0075 0.01076 -7.984e-18)
(1.0092 0.029365 5.1149e-19)
(0.99922 0.00026695 3.4485e-18)
(0.99934 -0.00049924 4.0827e-19)
(0.99963 -0.0010653 -5.6762e-18)
(1.0003 -0.0016026 8.761e-19)
(1.0001 -0.0018035 -1.4667e-18)
(1.0053 -0.0013368 -2.216e-17)
(0.99099 -0.0028547 1.7797e-17)
(1.0216 0.0056645 2.2968e-17)
(0.99559 -0.0048024 -1.2801e-17)
(0.99771 0.010484 -1.3454e-17)
(1.0075 0.010606 -2.3335e-18)
(1.0094 0.028892 4.3526e-18)
(0.9992 0.00027038 -2.5052e-18)
(0.99931 -0.00051078 -3.1443e-19)
(0.99961 -0.0010897 7.0571e-18)
(1.0003 -0.0016364 -1.6824e-17)
(1 -0.0018565 -1.3269e-17)
(1.0055 -0.001343 2.7977e-17)
(0.99089 -0.0030359 -2.7217e-18)
(1.0213 0.005802 -2.4317e-17)
(0.99668 -0.0048427 3.2613e-18)
(0.9979 0.010291 1.2667e-17)
(1.0075 0.010442 7.9097e-18)
(1.0096 0.028417 -1.5694e-18)
(0.99917 0.0002738 2.4897e-19)
(0.99928 -0.00052254 2.3033e-18)
(0.99959 -0.0011146 3.8564e-18)
(1.0003 -0.0016707 8.6972e-18)
(0.99999 -0.001911 2.6012e-17)
(1.0056 -0.0013484 6.5236e-18)
(0.99081 -0.0032203 -2.3699e-17)
(1.021 0.0059301 2.2798e-18)
(0.99771 -0.004871 8.4009e-18)
(0.99815 0.0101 -1.1412e-17)
(1.0075 0.010271 -5.3477e-18)
(1.0097 0.027939 -1.8157e-18)
(0.99914 0.00027721 7.0695e-19)
(0.99926 -0.00053452 -4.0055e-19)
(0.99957 -0.0011398 -1.0176e-17)
(1.0003 -0.0017054 -1.8709e-19)
(0.99995 -0.0019669 -5.1431e-17)
(1.0058 -0.0013531 8.0439e-18)
(0.99075 -0.0034074 2.328e-17)
(1.0206 0.0060482 -6.549e-18)
(0.99871 -0.0048881 -8.7974e-18)
(0.99843 0.0099136 1.8951e-17)
(1.0076 0.010093 6.398e-18)
(1.0099 0.02746 4.7054e-18)
(0.99911 0.00028061 7.5948e-19)
(0.99923 -0.00054672 -8.3137e-19)
(0.99955 -0.0011654 1.8404e-17)
(1.0003 -0.0017406 4.0119e-18)
(0.99991 -0.0020242 4.558e-17)
(1.006 -0.0013571 -2.8348e-17)
(0.9907 -0.003597 -7.7962e-18)
(1.0203 0.0061557 6.1652e-18)
(0.99965 -0.0048947 3.0312e-18)
(0.99875 0.009731 -1.0663e-17)
(1.0077 0.0099096 -1.0359e-18)
(1.0101 0.026979 -3.4697e-18)
(0.99908 0.000284 -2.9679e-18)
(0.9992 -0.00055916 1.3961e-18)
(0.99953 -0.0011915 -1.0818e-17)
(1.0003 -0.0017764 5.2758e-18)
(0.99987 -0.002083 -1.7319e-17)
(1.0061 -0.0013607 3.8444e-18)
(0.99067 -0.0037884 3.1216e-17)
(1.0199 0.0062521 -2.3078e-17)
(1.0005 -0.0048917 -1.1142e-17)
(0.9991 0.0095527 -1.0547e-17)
(1.0079 0.0097208 -5.0871e-18)
(1.0103 0.026498 -9.5286e-19)
(0.99905 0.00028739 3.6972e-18)
(0.99917 -0.00057183 -3.3157e-18)
(0.9995 -0.0012179 -1.0499e-17)
(1.0003 -0.0018126 -8.4127e-18)
(0.99983 -0.0021433 -2.8321e-17)
(1.0063 -0.0013638 -1.7833e-17)
(0.99065 -0.0039813 -1.914e-17)
(1.0195 0.0063368 2.1459e-17)
(1.0014 -0.0048799 1.0802e-17)
(0.99947 0.0093788 1.5973e-17)
(1.008 0.0095276 -1.991e-18)
(1.0105 0.026017 4.5992e-18)
(0.99901 0.00029076 -5.9424e-18)
(0.99914 -0.00058476 5.3727e-18)
(0.99948 -0.0012448 2.5709e-17)
(1.0003 -0.0018494 -1.9845e-18)
(0.99978 -0.002205 3.1334e-17)
(1.0065 -0.0013667 1.3439e-18)
(0.99065 -0.0041752 -1.8333e-17)
(1.0191 0.0064097 8.4013e-18)
(1.0022 -0.0048603 -3.8955e-18)
(0.99986 0.0092094 -3.3447e-18)
(1.0082 0.0093309 6.4597e-18)
(1.0108 0.025536 -3.1102e-18)
(0.99898 0.00029414 4.8699e-18)
(0.99911 -0.00059793 -7.3018e-18)
(0.99946 -0.0012722 -2.9976e-17)
(1.0003 -0.0018868 1.2982e-17)
(0.99974 -0.0022682 -2.2327e-17)
(1.0066 -0.0013695 2.4652e-17)
(0.99066 -0.0043696 5.9752e-18)
(1.0187 0.0064702 -7.9966e-18)
(1.003 -0.0048338 -1.8697e-18)
(1.0003 0.0090444 -8.3762e-18)
(1.0085 0.0091313 -1.0531e-17)
(1.011 0.025057 4.2989e-18)
(0.99895 0.0002975 -3.5874e-18)
(0.99908 -0.00061137 2.4281e-18)
(0.99943 -0.0012999 1.8215e-17)
(1.0003 -0.0019247 -1.7114e-17)
(0.99969 -0.0023329 3.5926e-17)
(1.0068 -0.0013724 -1.9135e-17)
(0.99069 -0.0045642 3.4833e-18)
(1.0183 0.0065183 -1.2643e-17)
(1.0037 -0.0048013 6.103e-18)
(1.0007 0.0088838 -1.1718e-18)
(1.0087 0.0089293 4.5077e-18)
(1.0113 0.024578 -1.9115e-18)
(0.99891 0.00030087 4.4e-18)
(0.99905 -0.00062507 1.8905e-18)
(0.9994 -0.0013282 -1.2145e-17)
(1.0003 -0.0019632 -3.4833e-19)
(0.99964 -0.0023991 -1.5848e-18)
(1.007 -0.0013754 4.6274e-18)
(0.99073 -0.0047585 3.3079e-17)
(1.0179 0.0065538 8.6482e-18)
(1.0043 -0.0047638 -1.809e-17)
(1.0011 0.0087274 -6.0745e-18)
(1.009 0.0087255 -4.2387e-18)
(1.0115 0.024102 2.0089e-18)
(0.99888 0.00030422 -5.0436e-18)
(0.99901 -0.00063905 -7.006e-18)
(0.99938 -0.0013568 5.0951e-18)
(1.0003 -0.0020024 1.4809e-17)
(0.99959 -0.0024668 -3.2593e-17)
(1.0071 -0.0013789 1.5549e-17)
(0.99078 -0.0049522 -3.185e-17)
(1.0175 0.0065765 1.0377e-17)