/*--------------------------------*- C++ -*----------------------------------*\
  =========                 |
  \\      /  F ield         | OpenFOAM: The Open Source CFD Toolbox
   \\    /   O peration     | Website:  https://openfoam.org
    \\  /    A nd           | Version:  6.0
     \\/     M anipulation  |
\*---------------------------------------------------------------------------*/
FoamFile
{
    version     2.0;
    format      ascii;
    class       volScalarField;
    location    "300";
    object      nut;
}
// * * * * * * * * * * * * * * * * * * * * * * * * * * * * * * * * * * * * * //

dimensions      [0 2 -1 0 0 0 0];

internalField   nonuniform List<scalar> 
9800
(
0.140017
0.14
0.140003
0.140004
0.140005
0.140006
0.140007
0.140008
0.140009
0.140011
0.140012
0.140013
0.140014
0.140015
0.140017
0.14002
0.140022
0.140024
0.140024
0.140021
0.14002
0.140016
0.140007
0.140007
0.140017
0.14002
0.140022
0.140025
0.140025
0.140024
0.140021
0.140019
0.140017
0.140016
0.140015
0.140013
0.140012
0.140011
0.14001
0.140008
0.140007
0.140005
0.140003
0.14
0.139998
0.139994
0.13998
0.13997
0.139965
0.139974
0.139984
0.139992
0.139999
0.140004
0.14001
0.140016
0.140022
0.14003
0.14004
0.140051
0.140065
0.140083
0.140104
0.14013
0.140163
0.140205
0.140259
0.140331
0.140429
0.140564
0.140773
0.141049
0.141715
0.142365
0.142823
0.144355
0.145066
0.145221
0.145258
0.145291
0.145305
0.145297
0.145264
0.145207
0.145131
0.145045
0.144956
0.144874
0.144805
0.144754
0.144721
0.144702
0.144692
0.144683
0.144656
0.144652
0.144659
0.144662
0.144334
0.161015
0.140079
0.140066
0.140058
0.140053
0.140049
0.140047
0.140045
0.140044
0.140043
0.140043
0.140042
0.140042
0.14004
0.140039
0.140036
0.140028
0.140011
0.139999
0.140003
0.140024
0.140031
0.140028
0.140011
0.14001
0.14003
0.140033
0.140027
0.140005
0.140002
0.14001
0.140029
0.140037
0.14004
0.140041
0.140041
0.140041
0.140041
0.140042
0.140042
0.140043
0.140045
0.140046
0.140047
0.140048
0.140049
0.14005
0.140046
0.140039
0.140034
0.140038
0.140048
0.140063
0.14008
0.140098
0.140117
0.140137
0.140159
0.140182
0.140208
0.140238
0.140271
0.140309
0.140354
0.140405
0.140465
0.140535
0.140618
0.140716
0.140833
0.140972
0.141147
0.141348
0.141633
0.141921
0.142098
0.142242
0.142322
0.142373
0.14241
0.142439
0.142463
0.142479
0.142492
0.142501
0.142509
0.142515
0.142513
0.142538
0.142581
0.142639
0.14271
0.142793
0.142886
0.142989
0.143097
0.143211
0.143326
0.143438
0.14353
0.143793
0.140106
0.140094
0.140084
0.140076
0.14007
0.140062
0.140055
0.140045
0.140034
0.140023
0.140016
0.140007
0.140002
0.139995
0.139987
0.139976
0.139966
0.139976
0.14
0.140027
0.14004
0.140037
0.140014
0.14001
0.140036
0.140041
0.140029
0.139998
0.139964
0.139961
0.139978
0.139995
0.140004
0.140012
0.140025
0.140037
0.140045
0.14005
0.140054
0.140058
0.140061
0.140064
0.140067
0.14007
0.140072
0.140074
0.140075
0.140074
0.140071
0.140069
0.140071
0.140078
0.140089
0.140102
0.140119
0.140136
0.140156
0.140176
0.140198
0.140222
0.140247
0.140273
0.140302
0.140333
0.140357
0.14038
0.140422
0.140477
0.140544
0.14062
0.140708
0.140807
0.140919
0.141043
0.141175
0.141315
0.141465
0.141622
0.141785
0.141951
0.142117
0.142284
0.142446
0.142604
0.142757
0.142905
0.143045
0.143179
0.143304
0.143422
0.143533
0.143636
0.143733
0.143823
0.143908
0.143988
0.144063
0.144133
0.1442
0.144312
0.140097
0.140079
0.140057
0.140034
0.140014
0.140005
0.139995
0.139985
0.139974
0.139965
0.13996
0.139956
0.139959
0.139965
0.139964
0.13996
0.139963
0.139983
0.140013
0.140039
0.140052
0.140045
0.140016
0.139998
0.140037
0.140048
0.140036
0.140006
0.139968
0.139946
0.139932
0.139936
0.139945
0.139954
0.139966
0.139978
0.139988
0.139996
0.140001
0.140005
0.140007
0.14001
0.140014
0.140024
0.140037
0.140048
0.140058
0.140065
0.140071
0.140074
0.140076
0.14008
0.140085
0.140093
0.140103
0.140116
0.140131
0.140147
0.140165
0.140184
0.140205
0.140226
0.140249
0.140273
0.140296
0.140317
0.140339
0.140364
0.140393
0.140426
0.140462
0.1405
0.140538
0.140577
0.140621
0.14067
0.140725
0.140783
0.140841
0.140899
0.140956
0.141011
0.141063
0.141111
0.141154
0.141191
0.141223
0.141251
0.141277
0.141299
0.141319
0.141338
0.141357
0.141376
0.141395
0.141416
0.141438
0.141463
0.141491
0.1415
0.140076
0.140051
0.140021
0.139992
0.139963
0.139938
0.139917
0.139908
0.1399
0.139896
0.139894
0.139897
0.139902
0.139908
0.139914
0.13993
0.139961
0.139993
0.140025
0.14005
0.140059
0.140047
0.140007
0.139966
0.140026
0.140047
0.140038
0.140008
0.139961
0.139913
0.139883
0.139872
0.139875
0.139882
0.139892
0.139903
0.139916
0.139934
0.139954
0.139971
0.139983
0.139992
0.139998
0.140007
0.140017
0.140028
0.14004
0.140052
0.140063
0.140072
0.14008
0.140087
0.140093
0.1401
0.140108
0.140117
0.140127
0.14014
0.140153
0.140168
0.140185
0.140202
0.14022
0.140239
0.140259
0.140279
0.140299
0.140317
0.140336
0.140354
0.140372
0.14039
0.140407
0.140423
0.140439
0.140456
0.140474
0.140494
0.140515
0.140539
0.140563
0.140589
0.140617
0.140645
0.140673
0.140701
0.140728
0.140755
0.140781
0.140808
0.140834
0.14086
0.140886
0.140912
0.140938
0.140963
0.140989
0.141016
0.141044
0.141052
0.139979
0.139958
0.139914
0.13988
0.139856
0.139838
0.139827
0.139822
0.139819
0.139819
0.13982
0.139824
0.13983
0.13984
0.13986
0.1399
0.139956
0.139999
0.140033
0.140056
0.14006
0.140038
0.139981
0.139933
0.140004
0.140037
0.140034
0.140003
0.139945
0.139874
0.139829
0.139805
0.139797
0.1398
0.139807
0.139817
0.139827
0.139841
0.139859
0.139882
0.139907
0.139931
0.139951
0.139969
0.139985
0.14
0.140014
0.140027
0.140041
0.140053
0.140065
0.140075
0.140085
0.140093
0.140101
0.140109
0.140116
0.140125
0.140134
0.140144
0.140155
0.140166
0.140179
0.140193
0.140207
0.140222
0.140238
0.140253
0.140269
0.140284
0.140299
0.140313
0.140328
0.140342
0.140356
0.14037
0.140384
0.140398
0.140414
0.14043
0.140448
0.140467
0.140488
0.140509
0.140533
0.140557
0.140582
0.140607
0.140633
0.14066
0.140686
0.140713
0.14074
0.140767
0.140793
0.14082
0.140846
0.140872
0.140901
0.140908
0.139821
0.139796
0.139769
0.13975
0.139739
0.139732
0.139728
0.139727
0.139728
0.139731
0.139738
0.139751
0.139774
0.139812
0.13986
0.139914
0.139968
0.140011
0.140043
0.14006
0.140055
0.140015
0.139933
0.139893
0.139972
0.140019
0.140026
0.140001
0.139947
0.139873
0.139798
0.139746
0.13972
0.13971
0.13971
0.139715
0.139721
0.13973
0.139742
0.139757
0.139776
0.139797
0.139818
0.139839
0.139858
0.139875
0.139891
0.139907
0.139924
0.139944
0.139964
0.139984
0.140004
0.140023
0.14004
0.140055
0.140069
0.140082
0.140093
0.140104
0.140114
0.140124
0.140134
0.140144
0.140155
0.140166
0.140178
0.14019
0.140203
0.140216
0.140229
0.140243
0.140257
0.140271
0.140285
0.140299
0.140314
0.140329
0.140344
0.14036
0.140376
0.140393
0.14041
0.140428
0.140447
0.140466
0.140486
0.140507
0.140528
0.140549
0.14057
0.140592
0.140613
0.140634
0.140656
0.140677
0.140698
0.140718
0.140741
0.140744
0.139656
0.13964
0.13963
0.139624
0.139621
0.139622
0.139625
0.139633
0.139646
0.139669
0.139703
0.139739
0.139784
0.139836
0.13989
0.139943
0.139991
0.140028
0.140052
0.140059
0.140037
0.139976
0.13987
0.139844
0.139928
0.139989
0.140011
0.139997
0.139955
0.139889
0.13981
0.139728
0.139665
0.139629
0.139611
0.139605
0.139605
0.139609
0.139615
0.139622
0.139632
0.139644
0.139658
0.139674
0.13969
0.139706
0.139722
0.139737
0.139752
0.139768
0.139784
0.1398
0.139817
0.139836
0.139856
0.139879
0.139904
0.139929
0.139953
0.139977
0.139999
0.14002
0.140039
0.140057
0.140074
0.140089
0.140103
0.140117
0.14013
0.140142
0.140155
0.140167
0.14018
0.140193
0.140206
0.140219
0.140233
0.140247
0.140261
0.140276
0.140291
0.140306
0.140321
0.140337
0.140352
0.140368
0.140384
0.140401
0.140417
0.140433
0.140449
0.140466
0.140482
0.140498
0.140513
0.140529
0.140544
0.140559
0.140577
0.140574
0.139513
0.139489
0.13949
0.139496
0.139506
0.139522
0.139544
0.139575
0.139614
0.139663
0.13972
0.139768
0.139821
0.139874
0.139926
0.139972
0.140011
0.14004
0.140053
0.140043
0.140002
0.139919
0.139801
0.13978
0.139859
0.139942
0.139982
0.139984
0.139957
0.139905
0.139835
0.139748
0.13966
0.139585
0.139535
0.139504
0.139487
0.13948
0.139478
0.13948
0.139483
0.139488
0.139494
0.139501
0.13951
0.139519
0.139529
0.13954
0.139552
0.139563
0.139575
0.139587
0.139599
0.139612
0.139625
0.13964
0.139656
0.139673
0.139692
0.139712
0.139733
0.139754
0.139774
0.139794
0.139816
0.13984
0.139867
0.139896
0.139925
0.139953
0.139979
0.140004
0.140026
0.140047
0.140066
0.140084
0.140101
0.140117
0.140132
0.140147
0.140162
0.140176
0.14019
0.140203
0.140217
0.14023
0.140242
0.140255
0.140267
0.14028
0.140292
0.140304
0.140316
0.140327
0.140339
0.14035
0.140361
0.140372
0.140386
0.140374
0.139408
0.139388
0.13941
0.139439
0.139474
0.139515
0.13956
0.139609
0.139661
0.139715
0.139771
0.139821
0.139871
0.139919
0.139963
0.14
0.140029
0.140044
0.14004
0.140011
0.139947
0.139842
0.139719
0.139693
0.139753
0.139863
0.13993
0.139954
0.139946
0.139911
0.139857
0.139784
0.139699
0.13961
0.139525
0.139454
0.139402
0.139366
0.139344
0.139331
0.139325
0.139322
0.139322
0.139323
0.139325
0.139328
0.139332
0.139336
0.139341
0.139347
0.139353
0.139359
0.139366
0.139372
0.139379
0.139386
0.139394
0.139402
0.139412
0.139423
0.139434
0.139447
0.13946
0.139474
0.139487
0.139502
0.139518
0.139536
0.139555
0.139574
0.139595
0.13962
0.13965
0.139684
0.139717
0.13975
0.139781
0.139809
0.139834
0.139857
0.139878
0.139896
0.139913
0.139928
0.139942
0.139955
0.139967
0.139977
0.139988
0.139997
0.140006
0.140015
0.140023
0.140031
0.140038
0.140045
0.140052
0.140058
0.140067
0.140036
0.139327
0.139327
0.139375
0.139431
0.139488
0.139546
0.139603
0.139659
0.139713
0.139767
0.139821
0.139868
0.139913
0.139953
0.139988
0.140013
0.140027
0.140025
0.139999
0.139944
0.13985
0.139718
0.139608
0.13958
0.139634
0.139758
0.139854
0.139905
0.13992
0.139907
0.139873
0.139819
0.139751
0.139673
0.139589
0.139504
0.139423
0.139349
0.139287
0.139237
0.139201
0.139175
0.139157
0.139145
0.139138
0.139132
0.139128
0.139125
0.139123
0.139122
0.139122
0.139121
0.139122
0.139122
0.139122
0.139123
0.139123
0.139124
0.139124
0.139125
0.139126
0.139127
0.139129
0.139132
0.139135
0.139139
0.139143
0.139147
0.139151
0.139156
0.139161
0.139167
0.139175
0.139184
0.139194
0.139205
0.13922
0.139242
0.139269
0.139298
0.139326
0.139353
0.139378
0.139401
0.139422
0.13944
0.139456
0.139471
0.139484
0.139495
0.139506
0.139515
0.139524
0.139532
0.139538
0.139545
0.13955
0.139555
0.139562
0.139529
0.13939
0.139421
0.139473
0.139529
0.139585
0.13964
0.139693
0.139744
0.139793
0.139841
0.139887
0.139927
0.139963
0.139992
0.140012
0.140022
0.140017
0.139993
0.139942
0.139858
0.139734
0.139578
0.139469
0.139436
0.139478
0.13958
0.139707
0.139796
0.139843
0.139858
0.139849
0.139817
0.139769
0.139708
0.139636
0.139556
0.13947
0.13938
0.139291
0.139206
0.139129
0.139063
0.139008
0.138966
0.138935
0.138912
0.138895
0.138883
0.138872
0.138864
0.138856
0.138849
0.138843
0.138837
0.138831
0.138825
0.13882
0.138813
0.138807
0.1388
0.138792
0.138784
0.138777
0.138769
0.138761
0.138753
0.138746
0.138738
0.138731
0.138724
0.138716
0.138709
0.138701
0.138694
0.138686
0.138678
0.13867
0.138664
0.138658
0.138654
0.138652
0.138654
0.138663
0.138676
0.138692
0.138708
0.138725
0.138741
0.138756
0.138769
0.138781
0.138791
0.1388
0.138806
0.138812
0.138816
0.138819
0.13882
0.138823
0.138781
0.139304
0.139317
0.139381
0.139456
0.13953
0.139599
0.139662
0.139719
0.139771
0.139819
0.139868
0.139903
0.139929
0.139945
0.139949
0.139938
0.139905
0.139846
0.139752
0.139621
0.139466
0.139341
0.139263
0.139247
0.139299
0.139415
0.139569
0.139691
0.139771
0.139814
0.13983
0.13982
0.139793
0.139751
0.139698
0.139634
0.139561
0.139481
0.139393
0.139301
0.139206
0.139111
0.139018
0.138932
0.138853
0.138784
0.138724
0.138676
0.138637
0.138605
0.138579
0.138558
0.138539
0.138523
0.138508
0.138493
0.138481
0.138468
0.138455
0.138441
0.138427
0.138413
0.138398
0.138383
0.138368
0.138352
0.138335
0.138318
0.138301
0.138283
0.138265
0.138246
0.138228
0.138209
0.138191
0.138172
0.138152
0.138132
0.138112
0.138091
0.138071
0.13805
0.13803
0.13801
0.137991
0.137974
0.137963
0.13796
0.137963
0.13797
0.137979
0.137988
0.137996
0.138004
0.138011
0.138017
0.138021
0.138025
0.138028
0.137987
0.139473
0.139516
0.139576
0.139641
0.139703
0.139761
0.139814
0.139862
0.139904
0.139941
0.139972
0.13999
0.139997
0.13999
0.139967
0.139926
0.139861
0.139768
0.139645
0.139493
0.13932
0.139151
0.139034
0.138988
0.139004
0.139074
0.139172
0.139273
0.13937
0.139458
0.139529
0.139559
0.13956
0.139536
0.13949
0.139427
0.139349
0.139261
0.139166
0.139068
0.138968
0.138867
0.138768
0.138671
0.138578
0.138492
0.138413
0.138343
0.138282
0.13823
0.138187
0.138149
0.138117
0.138089
0.138065
0.138042
0.138022
0.138003
0.137984
0.137965
0.137945
0.137926
0.137906
0.137887
0.137866
0.137846
0.137825
0.137803
0.13778
0.137756
0.137733
0.137709
0.137685
0.137661
0.137636
0.137611
0.137585
0.137559
0.137533
0.137505
0.137477
0.137448
0.137418
0.137387
0.137356
0.137323
0.13729
0.137258
0.137225
0.137192
0.13716
0.137129
0.137099
0.137071
0.137046
0.137024
0.137004
0.136985
0.136972
0.136928
0.139098
0.139118
0.139163
0.139211
0.139256
0.139298
0.139334
0.139364
0.139387
0.139403
0.139411
0.139407
0.139392
0.139362
0.139318
0.139257
0.139178
0.139082
0.13897
0.138849
0.13873
0.13863
0.138573
0.138572
0.138634
0.138767
0.138925
0.13907
0.139196
0.139304
0.139391
0.139447
0.139477
0.139481
0.139463
0.139425
0.13937
0.139302
0.139225
0.13914
0.139051
0.138959
0.138864
0.138769
0.138674
0.138579
0.138487
0.138396
0.138309
0.138224
0.138143
0.138065
0.137989
0.137916
0.137846
0.137783
0.137724
0.13767
0.137622
0.137577
0.137534
0.137494
0.137456
0.137419
0.137383
0.137348
0.137313
0.137278
0.137243
0.137208
0.137173
0.137137
0.137101
0.137065
0.137028
0.136991
0.136954
0.136915
0.136876
0.136837
0.136797
0.136757
0.136716
0.136675
0.136633
0.136591
0.136548
0.136504
0.136459
0.136414
0.136368
0.136321
0.136272
0.136224
0.136178
0.136141
0.136114
0.136095
0.136083
0.136034
0.139229
0.139231
0.139245
0.139261
0.139277
0.139289
0.139296
0.139298
0.139294
0.139281
0.139261
0.13923
0.139187
0.139132
0.139066
0.138988
0.138899
0.1388
0.138695
0.138587
0.138478
0.138374
0.138273
0.138176
0.138087
0.138059
0.138087
0.138141
0.138204
0.138268
0.138327
0.138377
0.138413
0.138434
0.13844
0.138432
0.138411
0.138378
0.138335
0.138283
0.138226
0.138162
0.138095
0.138024
0.137951
0.137876
0.1378
0.137723
0.137646
0.137568
0.13749
0.137412
0.137335
0.137258
0.137183
0.137108
0.137036
0.136966
0.136899
0.136835
0.136772
0.136712
0.136654
0.136598
0.136543
0.13649
0.136437
0.136387
0.136337
0.136288
0.136241
0.136194
0.136148
0.136103
0.136058
0.136014
0.135969
0.135925
0.13588
0.135834
0.135789
0.135743
0.135696
0.135649
0.1356
0.135551
0.1355
0.135448
0.135395
0.135341
0.135285
0.135229
0.13517
0.135109
0.135045
0.13498
0.134913
0.134844
0.134774
0.134706
0.138675
0.138795
0.138839
0.13884
0.138823
0.1388
0.138773
0.138743
0.138707
0.13866
0.1386
0.138541
0.138479
0.138412
0.138344
0.138276
0.138209
0.138147
0.13809
0.138038
0.137993
0.137954
0.137921
0.137896
0.137881
0.137883
0.137902
0.137936
0.137977
0.138024
0.13807
0.138113
0.138151
0.138183
0.138208
0.138225
0.138233
0.138233
0.138225
0.138209
0.138186
0.138156
0.138121
0.138081
0.138036
0.137988
0.137935
0.13788
0.137822
0.137761
0.137697
0.137632
0.137564
0.137494
0.137423
0.13735
0.137276
0.137201
0.137125
0.137049
0.136973
0.136898
0.136823
0.136747
0.136668
0.136585
0.136499
0.136408
0.136312
0.136209
0.136098
0.13598
0.135858
0.135737
0.135617
0.135501
0.13539
0.135283
0.135179
0.135078
0.13498
0.134883
0.134788
0.134694
0.1346
0.134506
0.134413
0.13432
0.134226
0.134133
0.134038
0.133945
0.133851
0.133759
0.133665
0.13357
0.133473
0.133377
0.13328
0.133188
0.138851
0.138844
0.138818
0.13878
0.138738
0.138694
0.138649
0.138603
0.138557
0.138509
0.138461
0.138413
0.138363
0.138312
0.138259
0.138207
0.138157
0.138108
0.138062
0.138018
0.137976
0.137937
0.137899
0.137863
0.137829
0.137795
0.137763
0.137731
0.137699
0.137667
0.137636
0.137609
0.13759
0.137574
0.137561
0.137548
0.137532
0.137513
0.137492
0.137468
0.137441
0.13741
0.137375
0.137336
0.137293
0.137246
0.137197
0.137146
0.137092
0.137034
0.136974
0.13691
0.136845
0.136777
0.136707
0.136635
0.136561
0.136486
0.136409
0.13633
0.136249
0.136166
0.136084
0.136003
0.135923
0.135842
0.13576
0.135677
0.135594
0.135512
0.135426
0.13534
0.135254
0.135167
0.135078
0.134988
0.134898
0.13481
0.134721
0.134632
0.134544
0.134456
0.134365
0.134274
0.13418
0.134084
0.133987
0.133887
0.133784
0.133679
0.13357
0.133459
0.133343
0.133224
0.133099
0.132968
0.132822
0.132665
0.132496
0.132326
0.140189
0.140415
0.14057
0.140666
0.140717
0.140739
0.140739
0.140722
0.140687
0.140635
0.140584
0.140533
0.140483
0.140433
0.140385
0.14034
0.140297
0.140257
0.14022
0.140186
0.140155
0.140126
0.1401
0.140075
0.140052
0.14003
0.140007
0.139983
0.139956
0.139923
0.139885
0.139862
0.139834
0.139808
0.139784
0.139761
0.139739
0.139717
0.139694
0.139671
0.139646
0.139621
0.139594
0.139566
0.139536
0.139504
0.13947
0.139433
0.139394
0.139352
0.139307
0.139258
0.139205
0.139149
0.13909
0.139028
0.138963
0.138896
0.138826
0.138755
0.138678
0.1386
0.138531
0.13845
0.138366
0.138278
0.138186
0.138091
0.137992
0.137887
0.137778
0.137662
0.137538
0.137405
0.137264
0.13711
0.136946
0.136764
0.136562
0.136339
0.136096
0.135833
0.13555
0.135252
0.134947
0.134641
0.134336
0.134033
0.133731
0.13343
0.133129
0.132828
0.132524
0.132218
0.131908
0.131597
0.131282
0.13097
0.130674
0.130437
0.134125
0.133018
0.13265
0.132627
0.132733
0.132765
0.13267
0.132454
0.132135
0.13177
0.131837
0.131168
0.13054
0.130018
0.129561
0.129143
0.128746
0.128358
0.127972
0.127582
0.127188
0.126786
0.126379
0.125966
0.125551
0.125136
0.124725
0.124323
0.123937
0.123584
0.123413
0.123844
0.123611
0.123322
0.122984
0.122604
0.122189
0.121744
0.121274
0.120785
0.12028
0.119762
0.119236
0.118704
0.118169
0.117633
0.1171
0.11657
0.116047
0.115531
0.115023
0.114525
0.114035
0.113555
0.113084
0.112622
0.112172
0.111731
0.111299
0.110874
0.110453
0.110223
0.11037
0.110088
0.109788
0.10948
0.109164
0.10884
0.10851
0.108173
0.10783
0.107481
0.107125
0.106764
0.106397
0.106024
0.105646
0.105261
0.104871
0.104475
0.104073
0.103665
0.103252
0.102835
0.102414
0.101989
0.10156
0.101128
0.100694
0.100258
0.0998227
0.0993907
0.0989661
0.0985562
0.0981725
0.0978345
0.0975747
0.0974475
0.0975442
0.0980219
0.260279
0.278489
0.295713
0.311812
0.32693
0.341194
0.354704
0.367541
0.379772
0.391456
0.40264
0.413367
0.423672
0.433586
0.443135
0.452344
0.461253
0.469838
0.478137
0.486175
0.493966
0.501524
0.508858
0.51598
0.5229
0.529625
0.536165
0.542527
0.548717
0.554744
0.560612
0.566329
0.571819
0.577068
0.582358
0.587525
0.59257
0.597498
0.602314
0.607025
0.611637
0.616154
0.620585
0.624936
0.629215
0.633429
0.637588
0.641483
0.645243
0.649319
0.653388
0.657454
0.66153
0.665629
0.669765
0.673953
0.678209
0.682548
0.686987
0.691071
0.695327
0.700303
0.705449
0.71077
0.71628
0.721992
0.727921
0.73277
0.739979
0.746556
0.144294
0.144479
0.144708
0.144976
0.145283
0.145628
0.146013
0.146437
0.146899
0.147397
0.147927
0.148488
0.149079
0.149702
0.150358
0.151047
0.151774
0.15253
0.153318
0.154142
0.155
0.155894
0.156822
0.157785
0.158782
0.159814
0.160879
0.161977
0.163109
0.164272
0.165469
0.166696
0.167928
0.169154
0.170473
0.171827
0.17321
0.174622
0.176062
0.177528
0.17902
0.180537
0.182079
0.183644
0.185233
0.186845
0.188482
0.190051
0.191605
0.193341
0.195109
0.196902
0.198718
0.200559
0.202427
0.204324
0.206255
0.208224
0.210241
0.212081
0.214024
0.216352
0.218788
0.22134
0.224039
0.226924
0.230052
0.232777
0.237148
0.24149
0.14422
0.144183
0.144143
0.144107
0.144073
0.144044
0.144016
0.14399
0.143964
0.143937
0.14391
0.143881
0.14385
0.143819
0.143786
0.143751
0.143714
0.143674
0.143632
0.143588
0.143542
0.143493
0.143442
0.143388
0.143332
0.143273
0.143212
0.143148
0.143082
0.143013
0.142942
0.142868
0.142788
0.142703
0.142619
0.142534
0.142447
0.142359
0.14227
0.14218
0.142089
0.141997
0.141906
0.141814
0.141722
0.14163
0.141538
0.141435
0.141324
0.141229
0.141137
0.141047
0.140959
0.140873
0.14079
0.140709
0.140631
0.140555
0.140481
0.140376
0.140271
0.14021
0.140161
0.140123
0.140099
0.140091
0.140108
0.140035
0.140212
0.1404
0.141486
0.141483
0.141478
0.14147
0.14146
0.141449
0.141436
0.141423
0.141409
0.141396
0.141384
0.141371
0.141357
0.141342
0.141327
0.141311
0.141296
0.141281
0.141266
0.141252
0.141238
0.141225
0.141212
0.141201
0.141189
0.141178
0.141168
0.141157
0.141145
0.141134
0.141122
0.141109
0.141096
0.141082
0.141067
0.141052
0.141035
0.141018
0.141
0.140982
0.140962
0.140942
0.14092
0.140898
0.140875
0.140852
0.140827
0.140801
0.140773
0.140745
0.140715
0.140686
0.140655
0.140624
0.140593
0.140561
0.140528
0.140495
0.14046
0.140423
0.140384
0.140344
0.140304
0.140264
0.140224
0.140185
0.140144
0.140101
0.140061
0.140025
0.141027
0.141017
0.141006
0.140994
0.140983
0.140971
0.140958
0.140943
0.140928
0.140912
0.140897
0.140882
0.140867
0.140853
0.140839
0.140824
0.14081
0.140797
0.140784
0.140772
0.140758
0.140745
0.140731
0.140717
0.140703
0.140688
0.140673
0.140658
0.140643
0.140628
0.140612
0.140597
0.140582
0.140567
0.140551
0.140536
0.140521
0.140506
0.140491
0.140476
0.140462
0.140448
0.140434
0.140422
0.14041
0.140399
0.140388
0.140379
0.140369
0.14036
0.140351
0.140343
0.140335
0.140328
0.140322
0.140316
0.140311
0.140306
0.140302
0.140298
0.140294
0.14029
0.140286
0.140283
0.14028
0.140278
0.140278
0.140277
0.140277
0.140278
0.140881
0.140871
0.14086
0.140848
0.140837
0.140826
0.140813
0.1408
0.140786
0.140771
0.140755
0.14074
0.140725
0.140711
0.140696
0.140681
0.140665
0.14065
0.140636
0.140623
0.14061
0.140596
0.140582
0.140568
0.140553
0.140538
0.140523
0.140508
0.140492
0.140476
0.140461
0.140445
0.14043
0.140415
0.1404
0.140385
0.14037
0.140356
0.140342
0.140328
0.140315
0.140303
0.14029
0.140279
0.140268
0.140258
0.140248
0.140239
0.14023
0.140221
0.140212
0.140204
0.140195
0.140187
0.140179
0.140171
0.140163
0.140155
0.140148
0.140141
0.140134
0.140127
0.14012
0.140114
0.140108
0.140102
0.140098
0.140095
0.140093
0.140093
0.14072
0.140711
0.140701
0.14069
0.14068
0.140669
0.140658
0.140646
0.140633
0.14062
0.140605
0.140591
0.140577
0.140563
0.140549
0.140535
0.140519
0.140503
0.140488
0.140473
0.140459
0.140446
0.140432
0.140417
0.140402
0.140387
0.140371
0.140354
0.140338
0.14032
0.140303
0.140286
0.140268
0.14025
0.140232
0.140214
0.140196
0.140178
0.140161
0.140143
0.140126
0.14011
0.140094
0.140079
0.140064
0.14005
0.140036
0.140024
0.140011
0.139998
0.139986
0.139975
0.139963
0.139953
0.139942
0.139933
0.139924
0.139917
0.139909
0.139902
0.139895
0.139888
0.139882
0.139876
0.139871
0.139867
0.139864
0.139862
0.139861
0.139861
0.140554
0.140546
0.140537
0.140527
0.140517
0.140506
0.140495
0.140484
0.140472
0.140458
0.140445
0.140432
0.140419
0.140405
0.14039
0.140374
0.140358
0.14034
0.140322
0.140303
0.140284
0.140265
0.140247
0.140229
0.14021
0.140192
0.140173
0.140154
0.140135
0.140115
0.140096
0.140077
0.140059
0.14004
0.140021
0.140003
0.139984
0.139966
0.139948
0.13993
0.139912
0.139894
0.139877
0.13986
0.139843
0.139827
0.139811
0.139796
0.139781
0.139766
0.139751
0.139737
0.139724
0.139711
0.139699
0.139687
0.139676
0.139667
0.139658
0.13965
0.139642
0.139635
0.139629
0.139624
0.139621
0.139618
0.139615
0.139613
0.139611
0.139609
0.140353
0.140346
0.140338
0.140328
0.140317
0.140304
0.14029
0.140276
0.140262
0.140247
0.140233
0.140219
0.140205
0.140189
0.140172
0.140153
0.140134
0.140113
0.140091
0.140069
0.140046
0.140022
0.139999
0.139977
0.139955
0.139933
0.139912
0.139891
0.13987
0.13985
0.139829
0.139809
0.139789
0.139769
0.13975
0.13973
0.13971
0.139691
0.139671
0.139652
0.139633
0.139614
0.139596
0.139578
0.13956
0.139542
0.139526
0.13951
0.139494
0.139479
0.139464
0.13945
0.139437
0.139424
0.139413
0.139402
0.139392
0.139383
0.139376
0.139369
0.139363
0.139358
0.139354
0.139352
0.139351
0.139351
0.139351
0.13935
0.139351
0.13935
0.14001
0.140004
0.139996
0.139985
0.139972
0.139956
0.139939
0.139921
0.139904
0.139887
0.139871
0.139855
0.139838
0.139819
0.139799
0.139778
0.139756
0.139733
0.13971
0.139685
0.139661
0.139636
0.13961
0.139586
0.139561
0.139538
0.139515
0.139493
0.139471
0.13945
0.139429
0.139409
0.13939
0.13937
0.139351
0.139332
0.139313
0.139294
0.139276
0.139258
0.13924
0.139223
0.139206
0.139189
0.139173
0.139158
0.139143
0.139129
0.139116
0.139102
0.13909
0.139078
0.139067
0.139057
0.139048
0.13904
0.139032
0.139026
0.139021
0.139016
0.139013
0.13901
0.13901
0.13901
0.139012
0.139014
0.139017
0.139018
0.139021
0.139021
0.139497
0.13949
0.139482
0.13947
0.139456
0.13944
0.139422
0.139404
0.139386
0.139369
0.139353
0.139337
0.139319
0.139301
0.139282
0.139262
0.13924
0.139218
0.139196
0.139172
0.139149
0.139126
0.139102
0.139079
0.139057
0.139035
0.139014
0.138994
0.138975
0.138957
0.13894
0.138923
0.138906
0.13889
0.138875
0.138859
0.138845
0.13883
0.138816
0.138802
0.138789
0.138776
0.138763
0.138751
0.138739
0.138728
0.138718
0.138708
0.138698
0.138689
0.138681
0.138673
0.138665
0.138659
0.138653
0.138648
0.138644
0.13864
0.138638
0.138635
0.138634
0.138634
0.138635
0.138637
0.13864
0.138644
0.138648
0.13865
0.138653
0.138652
0.138747
0.138741
0.138734
0.138725
0.138715
0.138703
0.138689
0.138676
0.138663
0.138651
0.138639
0.138628
0.138615
0.138602
0.138587
0.138572
0.138556
0.138539
0.138522
0.138505
0.138487
0.13847
0.138452
0.138435
0.138419
0.138403
0.138388
0.138374
0.13836
0.138347
0.138334
0.138322
0.13831
0.138298
0.138286
0.138275
0.138264
0.138254
0.138245
0.138235
0.138226
0.138218
0.13821
0.138202
0.138195
0.138188
0.138182
0.138175
0.138169
0.138163
0.138158
0.138153
0.138149
0.138146
0.138143
0.138141
0.138139
0.138138
0.138137
0.138136
0.138136
0.138138
0.13814
0.138144
0.138149
0.138154
0.138158
0.138161
0.138165
0.138164
0.137959
0.137958
0.137956
0.137953
0.137947
0.13794
0.137932
0.137923
0.137915
0.137909
0.137903
0.137897
0.137892
0.137885
0.137877
0.137868
0.137857
0.137845
0.137832
0.137818
0.137805
0.137792
0.13778
0.137769
0.137759
0.13775
0.137742
0.137734
0.137728
0.137721
0.137715
0.13771
0.137705
0.1377
0.137695
0.13769
0.137686
0.137682
0.137678
0.137675
0.137672
0.137669
0.137667
0.137664
0.137662
0.13766
0.137658
0.137656
0.137654
0.137652
0.137651
0.137649
0.137649
0.137648
0.137649
0.137649
0.13765
0.137651
0.137651
0.137651
0.137651
0.137652
0.137655
0.137658
0.137661
0.137664
0.137667
0.137666
0.137667
0.137665
0.136903
0.136904
0.136904
0.136902
0.1369
0.136896
0.136892
0.136889
0.136888
0.136887
0.136887
0.136886
0.136885
0.136883
0.136881
0.136876
0.136871
0.136864
0.136857
0.136849
0.136842
0.136836
0.136831
0.136826
0.136822
0.136818
0.136815
0.136813
0.136811
0.136809
0.136808
0.136807
0.136806
0.136804
0.136803
0.136802
0.136801
0.136801
0.136801
0.136801
0.136801
0.136801
0.136802
0.136802
0.136803
0.136804
0.136805
0.136805
0.136805
0.136805
0.136806
0.136807
0.136809
0.136811
0.136813
0.136816
0.136818
0.136821
0.136823
0.136824
0.136825
0.136828
0.136832
0.136836
0.13684
0.136844
0.136847
0.136847
0.136848
0.136846
0.136001
0.136001
0.135999
0.135995
0.135991
0.135988
0.135985
0.135983
0.135981
0.135979
0.135977
0.135975
0.135973
0.135971
0.135969
0.135967
0.135964
0.135962
0.13596
0.135958
0.135956
0.135954
0.135952
0.135951
0.13595
0.135949
0.135949
0.135949
0.13595
0.135951
0.135952
0.135953
0.135954
0.135955
0.135956
0.135958
0.135961
0.135963
0.135967
0.135971
0.135975
0.135981
0.135986
0.135993
0.136
0.136007
0.136014
0.13602
0.136026
0.136033
0.136042
0.136051
0.136061
0.136073
0.136085
0.136098
0.136112
0.136125
0.136137
0.136146
0.136155
0.136167
0.136181
0.136196
0.136212
0.136226
0.136237
0.136241
0.136248
0.136245
0.134651
0.134648
0.134646
0.134644
0.134642
0.13464
0.134638
0.134637
0.134635
0.134634
0.134632
0.134631
0.134629
0.134628
0.134626
0.134625
0.134623
0.134621
0.13462
0.134618
0.134616
0.134614
0.134613
0.134611
0.13461
0.134609
0.134609
0.134608
0.134608
0.134608
0.134608
0.134608
0.134608
0.134607
0.134606
0.134606
0.134607
0.134608
0.134609
0.134611
0.134613
0.134617
0.13462
0.134625
0.13463
0.134635
0.134639
0.134643
0.134645
0.13465
0.134655
0.134662
0.13467
0.134679
0.134689
0.1347
0.134712
0.134724
0.134734
0.134742
0.134749
0.13476
0.134774
0.134789
0.134805
0.13482
0.134832
0.134835
0.134843
0.134841
0.133115
0.133101
0.133089
0.133077
0.133065
0.133053
0.133041
0.133029
0.133017
0.133005
0.132993
0.132982
0.13297
0.132958
0.132946
0.132934
0.132923
0.132911
0.132899
0.132887
0.132875
0.132864
0.132852
0.132841
0.13283
0.13282
0.13281
0.132801
0.132792
0.132784
0.132776
0.132769
0.132761
0.132752
0.132744
0.132736
0.132729
0.132723
0.132718
0.132713
0.13271
0.132709
0.132708
0.132708
0.13271
0.132712
0.132713
0.132713
0.132711
0.132712
0.132715
0.13272
0.132727
0.132736
0.132748
0.132762
0.132777
0.132792
0.132806
0.132814
0.132823
0.132839
0.13286
0.132885
0.132912
0.132939
0.132959
0.132964
0.132979
0.132975
0.132135
0.132051
0.131969
0.131889
0.13181
0.131731
0.131653
0.131576
0.1315
0.131425
0.13135
0.131277
0.131205
0.131134
0.131063
0.130994
0.130926
0.130858
0.130792
0.130726
0.130661
0.130597
0.130534
0.130472
0.130411
0.130352
0.130294
0.130237
0.130181
0.130127
0.130074
0.130023
0.129972
0.12992
0.129868
0.129818
0.12977
0.129723
0.129678
0.129635
0.129593
0.129553
0.129516
0.12948
0.129446
0.129415
0.129384
0.129351
0.129314
0.12928
0.129249
0.129221
0.129196
0.129174
0.129155
0.12914
0.129126
0.129115
0.129104
0.129082
0.129059
0.129045
0.129037
0.129035
0.129038
0.129042
0.129044
0.129018
0.12902
0.129008
0.129392
0.129138
0.128937
0.128741
0.128543
0.128343
0.128142
0.12794
0.127737
0.127533
0.127328
0.127124
0.126919
0.126714
0.12651
0.126306
0.126104
0.125903
0.125702
0.125502
0.125303
0.125106
0.12491
0.124716
0.124524
0.124332
0.124143
0.123955
0.123771
0.12359
0.123414
0.123243
0.123072
0.122893
0.122721
0.122553
0.122387
0.122226
0.122069
0.121915