/*--------------------------------*- C++ -*----------------------------------*\
  =========                 |
  \\      /  F ield         | OpenFOAM: The Open Source CFD Toolbox
   \\    /   O peration     | Website:  https://openfoam.org
    \\  /    A nd           | Version:  6.0
     \\/     M anipulation  |
\*---------------------------------------------------------------------------*/
FoamFile
{
    version     2.0;
    format      ascii;
    class       volVectorField;
    location    "300";
    object      U;
}
// * * * * * * * * * * * * * * * * * * * * * * * * * * * * * * * * * * * * * //

dimensions      [0 1 -1 0 0 0 0];

internalField   nonuniform List<vector> 
9800
(
(21.1951 4.72769 -1.18891e-15)
(21.2761 4.66165 -7.6707e-16)
(21.3393 4.5869 2.11658e-15)
(21.3927 4.50668 9.02635e-16)
(21.4391 4.42403 -2.60924e-15)
(21.481 4.3408 1.59185e-15)
(21.5195 4.25797 -6.53159e-16)
(21.5556 4.17606 -6.9597e-16)
(21.5898 4.09525 1.34456e-15)
(21.6225 4.01547 -9.11711e-16)
(21.6543 3.93724 4.32748e-16)
(21.6854 3.86009 5.91824e-17)
(21.7158 3.78418 -5.65634e-16)
(21.7455 3.70941 3.99952e-16)
(21.7746 3.63575 -1.52536e-16)
(21.8029 3.56321 -6.43467e-17)
(21.8304 3.49182 -1.09036e-16)
(21.8567 3.42168 2.61636e-16)
(21.8813 3.35301 -4.98372e-16)
(21.9037 3.28628 -1.17762e-16)
(21.9227 3.22243 7.8307e-16)
(21.9366 3.16372 2.30082e-16)
(21.9434 3.11422 -1.79818e-16)
(21.9473 3.07087 -1.3729e-16)
(21.95 3.02087 -1.02389e-15)
(21.9486 2.95999 1.45777e-15)
(21.9437 2.89255 8.6883e-17)
(21.9363 2.82122 -2.0678e-15)
(21.9272 2.74722 -1.00851e-16)
(21.9169 2.6712 2.01237e-15)
(21.9059 2.59334 -5.76606e-16)
(21.8947 2.51428 -8.54113e-16)
(21.8831 2.43372 9.12501e-16)
(21.8715 2.35167 7.26115e-16)
(21.8597 2.26815 1.09804e-15)
(21.8479 2.18313 -1.46518e-15)
(21.8361 2.09655 2.15641e-16)
(21.8243 2.00834 -6.92134e-16)
(21.8125 1.91842 -2.93297e-16)
(21.8006 1.82668 -7.48988e-16)
(21.7886 1.733 9.18506e-16)
(21.7766 1.63726 6.94502e-16)
(21.7644 1.53931 6.37432e-16)
(21.7519 1.439 8.20453e-16)
(21.7393 1.33616 -4.15702e-15)
(21.7263 1.2306 1.12469e-15)
(21.713 1.12212 2.91988e-15)
(21.6993 1.01047 -1.64164e-15)
(21.685 0.895405 -1.14474e-15)
(21.6701 0.776641 1.42957e-15)
(21.6546 0.653862 -3.87125e-15)
(21.6382 0.526714 -2.51336e-16)
(21.621 0.394801 3.18677e-15)
(21.6026 0.257674 -8.8713e-17)
(21.583 0.114823 -1.77968e-16)
(21.562 -0.0343329 -2.56965e-15)
(21.5394 -0.190466 4.14165e-15)
(21.5148 -0.354353 -2.39251e-15)
(21.4879 -0.526899 -3.07207e-16)
(21.4582 -0.709165 1.67864e-15)
(21.4251 -0.902431 1.40859e-15)
(21.3879 -1.10819 -2.7646e-15)
(21.3454 -1.32812 1.38504e-15)
(21.2958 -1.56463 -1.74621e-15)
(21.2368 -1.82053 1.66857e-15)
(21.1646 -2.09935 -1.28229e-15)
(21.0736 -2.40575 2.67113e-15)
(20.9546 -2.74601 -2.76221e-15)
(20.7933 -3.12909 2.13678e-15)
(20.5653 -3.56836 -3.33637e-15)
(20.235 -4.08458 1.54779e-15)
(19.7189 -4.72284 4.3709e-17)
(18.9703 -5.50798 3.56783e-15)
(17.458 -6.90909 -5.03719e-15)
(16.1058 -7.57741 1.15218e-15)
(14.912 -8.34945 5.85738e-16)
(14.1734 -8.40545 1.66072e-16)
(13.8009 -8.09437 -1.5035e-15)
(13.5311 -7.7443 -6.84409e-16)
(13.244 -7.42246 -2.45054e-15)
(12.9585 -7.11289 1.32151e-15)
(12.6948 -6.82599 -1.5914e-15)
(12.4455 -6.55657 3.29424e-15)
(12.2029 -6.2969 -2.76994e-16)
(11.9688 -6.04258 3.02759e-15)
(11.7467 -5.79218 -6.54045e-16)
(11.5354 -5.54471 -2.14576e-15)
(11.3303 -5.29873 -1.53761e-15)
(11.1267 -5.05271 4.59711e-15)
(10.9221 -4.80527 -7.26226e-16)
(10.7155 -4.55505 -1.89228e-15)
(10.5067 -4.30042 1.73039e-15)
(10.2954 -4.03926 -2.09393e-15)
(10.0804 -3.76882 2.86318e-15)
(9.86003 -3.48571 -4.61908e-16)
(9.63169 -3.18567 -4.97327e-16)
(9.3924 -2.86451 -1.32134e-15)
(9.14051 -2.50887 1.98015e-15)
(8.86795 -2.17583 -5.11891e-16)
(8.59444 -1.20117 3.58208e-17)
(18.6681 5.24782 1.06392e-15)
(18.6968 5.14395 7.21481e-16)
(18.722 5.03187 -6.36844e-16)
(18.7477 4.91704 4.53165e-16)
(18.7719 4.79923 -1.31558e-15)
(18.7945 4.67954 6.38338e-16)
(18.8153 4.55859 -1.20459e-16)
(18.8342 4.43697 1.5063e-15)
(18.8514 4.31505 -2.76111e-15)
(18.8667 4.19291 3.97282e-16)
(18.8802 4.07072 1.88487e-16)
(18.8929 3.94883 4.8089e-16)
(18.9043 3.82748 -7.27427e-17)
(18.9144 3.70664 -4.48024e-16)
(18.9232 3.58649 4.6652e-16)
(18.9305 3.46722 1.84412e-17)
(18.9364 3.34917 -2.42229e-16)
(18.9405 3.23282 4.4118e-16)
(18.9427 3.11893 -1.17962e-15)
(18.9427 3.00851 1.32828e-15)
(18.9403 2.9028 -5.30623e-16)
(18.9357 2.80416 -2.04396e-15)
(18.9314 2.71859 8.15146e-17)
(18.9374 2.64395 -2.52781e-16)
(18.9565 2.56256 2.94648e-15)
(18.9799 2.46842 -4.47434e-16)
(19.0034 2.36627 -2.08197e-15)
(19.0261 2.25845 -2.55125e-15)
(19.0478 2.14633 3.18177e-15)
(19.0684 2.03103 4.96045e-16)
(19.0881 1.91314 1.11488e-15)
(19.1068 1.79321 2.12909e-15)
(19.1248 1.67161 -2.19051e-15)
(19.1422 1.54857 -2.21571e-16)
(19.1588 1.4242 -2.08687e-15)
(19.1748 1.29852 2.28401e-15)
(19.1902 1.17151 9.86265e-16)
(19.205 1.04311 -2.17086e-15)
(19.2192 0.913257 1.70545e-16)
(19.2327 0.781826 -8.77022e-16)
(19.2457 0.648691 4.69413e-16)
(19.2581 0.513703 -5.12968e-15)
(19.2698 0.376697 9.87778e-15)
(19.2809 0.237492 -6.15165e-15)
(19.2913 0.0958882 -1.8929e-15)
(19.3009 -0.0483321 1.92308e-15)
(19.3098 -0.195406 -4.69736e-15)
(19.3179 -0.345593 2.59043e-15)
(19.325 -0.499175 1.21246e-15)
(19.3312 -0.656461 5.18358e-15)
(19.3364 -0.817793 -7.67907e-15)
(19.3404 -0.983548 8.20293e-15)
(19.3432 -1.15414 -3.78789e-17)
(19.3446 -1.33005 -6.28785e-16)
(19.3445 -1.51177 -4.03255e-16)
(19.3427 -1.6999 -1.22102e-15)
(19.3389 -1.89508 -3.84308e-15)
(19.3329 -2.09805 1.87547e-15)
(19.3244 -2.30964 1.59944e-15)
(19.3129 -2.53081 1.71737e-16)
(19.298 -2.76261 -2.04044e-15)
(19.279 -3.00631 -9.10348e-16)
(19.2553 -3.26343 3.2474e-15)
(19.2259 -3.53543 -7.54934e-16)
(19.1896 -3.82411 -4.39093e-15)
(19.1451 -4.13144 4.88179e-15)
(19.0904 -4.45954 -4.046e-15)
(19.0234 -4.81052 6.40872e-15)
(18.9418 -5.18619 -4.69208e-15)
(18.8418 -5.58727 -6.45065e-17)
(18.7216 -6.01199 5.64791e-15)
(18.5697 -6.45475 -2.41158e-15)
(18.397 -6.88883 -1.28934e-15)
(18.1334 -7.30493 2.56442e-17)
(17.8767 -7.39128 -5.18347e-16)
(17.4825 -7.31554 1.50686e-15)
(16.9869 -7.08875 5.44351e-16)
(16.4446 -6.80994 -1.49574e-15)
(15.9569 -6.54864 2.62619e-15)
(15.5295 -6.3081 -1.09857e-15)
(15.1362 -6.07191 4.29869e-16)
(14.765 -5.83759 -6.67657e-18)
(14.415 -5.60609 -2.9553e-15)
(14.0892 -5.37645 -1.5633e-15)
(13.786 -5.1464 1.36529e-15)
(13.5013 -4.91474 6.57768e-16)
(13.2311 -4.68118 1.01969e-15)
(12.9725 -4.44533 -2.42989e-15)
(12.7239 -4.20621 -4.08003e-16)
(12.4848 -3.96235 1.19305e-16)
(12.2554 -3.71196 -1.44114e-15)
(12.0366 -3.45304 4.11035e-15)
(11.8286 -3.18339 -3.27303e-15)
(11.6319 -2.90068 1.34371e-15)
(11.4469 -2.60224 8.63324e-17)
(11.2744 -2.285 7.50548e-16)
(11.1161 -1.94533 1.9755e-17)
(10.977 -1.5785 -1.42546e-15)
(10.8563 -1.18155 1.31556e-16)
(10.7882 -0.738565 1.4314e-16)
(19.7376 5.06331 -2.52692e-15)
(19.7383 4.93955 1.13264e-15)
(19.739 4.82588 -8.38219e-16)
(19.7414 4.71851 8.85382e-17)
(19.7441 4.61532 -3.56608e-16)
(19.7466 4.51495 1.66924e-15)
(19.7483 4.41633 -1.01061e-15)
(19.7488 4.31879 1.20087e-15)
(19.7478 4.22199 -1.2535e-17)
(19.7454 4.12564 -2.05344e-15)
(19.7414 4.02888 1.64152e-15)
(19.7357 3.93285 -5.63937e-16)
(19.7283 3.8366 5.73109e-17)
(19.719 3.7402 1.48933e-16)
(19.708 3.64364 -1.4088e-16)
(19.6952 3.54687 -2.28786e-17)
(19.6809 3.44981 -2.26341e-16)
(19.6653 3.35238 2.21939e-16)
(19.6487 3.25439 6.38729e-16)
(19.6317 3.15552 -2.2962e-16)
(19.6153 3.05481 -3.40538e-17)
(19.6012 2.95042 -1.1333e-15)
(19.594 2.84233 -1.4047e-15)
(19.6042 2.73494 2.2707e-15)
(19.632 2.63125 -4.68003e-16)
(19.6661 2.53263 1.95558e-15)
(19.7019 2.438 -1.85181e-15)
(19.7379 2.34509 2.44277e-15)
(19.7735 2.25266 -3.99249e-15)
(19.8083 2.1602 1.37582e-15)
(19.8418 2.06753 -6.06145e-16)
(19.8737 1.97383 1.51175e-16)
(19.9041 1.87989 1.88447e-15)
(19.9331 1.78528 5.72658e-16)
(19.9605 1.68989 1.57057e-15)
(19.9862 1.59369 -2.44202e-15)
(20.0104 1.4966 -8.45227e-16)
(20.0329 1.39852 3.08196e-15)
(20.0538 1.29935 -1.53781e-15)
(20.0732 1.19898 1.83128e-15)
(20.0908 1.0973 -1.17565e-15)
(20.1069 0.994179 8.49796e-16)
(20.1214 0.88947 -2.94644e-15)
(20.1341 0.783025 -2.636e-15)
(20.1452 0.674684 2.61446e-15)
(20.1545 0.56427 1.68592e-15)
(20.162 0.451598 2.80563e-15)
(20.1676 0.336463 -3.63471e-15)
(20.1712 0.218648 -5.51691e-16)
(20.1727 0.0979186 2.58751e-15)
(20.172 -0.0259796 -7.37251e-16)
(20.1687 -0.153322 3.26881e-15)
(20.1629 -0.284407 -7.03308e-16)
(20.1541 -0.419559 -2.26384e-15)
(20.1421 -0.559129 7.18818e-16)
(20.1266 -0.703494 -2.95194e-15)
(20.107 -0.853064 5.00043e-15)
(20.083 -1.00828 -1.95786e-15)
(20.0538 -1.1696 -1.8203e-15)
(20.0187 -1.33753 1.59132e-15)
(19.9768 -1.51256 -2.05191e-16)
(19.927 -1.6952 -3.19849e-15)
(19.8677 -1.88598 2.45638e-15)
(19.7973 -2.08526 1.69405e-16)
(19.7136 -2.29343 1.64522e-15)
(19.614 -2.51072 -2.61464e-15)
(19.4951 -2.73708 2.18288e-15)
(19.3527 -2.97208 -1.73871e-15)
(19.1813 -3.21471 -1.88131e-15)
(18.9741 -3.46315 3.94568e-15)
(18.7232 -3.71445 -3.1439e-15)
(18.4177 -3.96396 3.59316e-15)
(18.0492 -4.20529 1.72947e-15)
(17.6052 -4.42646 -5.35951e-15)
(17.0954 -4.61219 2.18056e-15)
(16.5656 -4.74582 1.69982e-16)
(16.0571 -4.82687 -2.21809e-15)
(15.5999 -4.85209 1.49908e-15)
(15.1946 -4.83295 2.37272e-15)
(14.8244 -4.7819 -1.41915e-15)
(14.4789 -4.70472 -6.37069e-16)
(14.1582 -4.60555 1.15771e-15)
(13.8665 -4.48861 1.38252e-15)
(13.599 -4.35642 -6.48247e-15)
(13.3485 -4.21101 3.31887e-15)
(13.1101 -4.05438 2.0718e-15)
(12.8823 -3.88839 -2.29544e-15)
(12.6649 -3.71422 -8.61207e-16)
(12.4585 -3.53232 2.13873e-15)
(12.2637 -3.34259 -2.53626e-15)
(12.0812 -3.14472 3.02656e-16)
(11.9113 -2.9383 2.73782e-15)
(11.7541 -2.72296 -6.39734e-16)
(11.6097 -2.49836 -3.93322e-16)
(11.4791 -2.26416 -1.16041e-15)
(11.3636 -2.01995 1.31102e-15)
(11.2662 -1.76541 2.01701e-16)
(11.1889 -1.49981 -9.66547e-16)
(11.1414 -1.22541 1.39559e-16)
(11.1009 -0.936084 -5.06921e-17)
(19.5358 4.86311 3.1965e-15)
(19.5944 4.76756 -2.04526e-15)
(19.6437 4.67395 -3.36183e-17)
(19.6864 4.58061 2.59385e-15)
(19.724 4.48839 -2.4913e-15)
(19.7578 4.39739 -3.14417e-16)
(19.7883 4.30762 3.9646e-16)
(19.8161 4.21904 5.07904e-17)
(19.8414 4.13157 -8.84461e-16)
(19.8649 4.04511 1.24546e-15)
(19.8868 3.95977 -9.85675e-18)
(19.907 3.87535 -5.90419e-18)
(19.9254 3.79143 -7.57297e-17)
(19.9421 3.70796 1.26009e-16)
(19.9572 3.62471 7.593e-18)
(19.9706 3.54143 2.97813e-17)
(19.9826 3.45779 3.16861e-17)
(19.993 3.37335 -2.89732e-17)
(20.002 3.28755 2.9461e-16)
(20.0095 3.19973 -1.34586e-16)
(20.0156 3.10909 5.00745e-17)
(20.0205 3.0142 -2.02487e-15)
(20.0258 2.9134 2.06899e-15)
(20.0359 2.8095 4.0261e-16)
(20.05 2.70875 -2.6548e-15)
(20.0632 2.61344 1.30402e-15)
(20.0741 2.52182 -1.07033e-15)
(20.0828 2.43231 3.45215e-15)
(20.0896 2.34405 -2.00562e-15)
(20.0946 2.25635 9.06439e-16)
(20.0979 2.1688 -1.7277e-15)
(20.0996 2.0808 -6.93819e-16)
(20.0998 1.99225 1.73099e-15)
(20.0987 1.90276 8.84262e-17)
(20.0962 1.81208 -2.18278e-15)
(20.0922 1.72008 2.67373e-15)
(20.0867 1.62661 -5.40844e-16)
(20.0797 1.53152 -2.14243e-16)
(20.0711 1.43472 -1.06263e-15)
(20.0609 1.33607 5.99428e-16)
(20.049 1.23548 6.08538e-16)
(20.0355 1.13281 7.68174e-16)
(20.0202 1.02796 2.57409e-15)
(20.003 0.920801 -7.56036e-15)
(19.9839 0.811195 1.39583e-15)
(19.9627 0.699003 5.4879e-15)
(19.9392 0.584079 -7.10515e-15)
(19.9135 0.466265 -2.86658e-16)
(19.8852 0.345394 4.15206e-15)
(19.8541 0.22129 1.96257e-15)
(19.8201 0.0937672 -5.10907e-15)
(19.7828 -0.0373674 3.51135e-16)
(19.742 -0.172319 5.01829e-15)
(19.6973 -0.311295 -1.201e-15)
(19.6482 -0.454511 -2.03998e-16)
(19.5944 -0.602184 -2.33726e-15)
(19.5353 -0.754528 4.40454e-15)
(19.4704 -0.911744 -4.11511e-15)
(19.3988 -1.07402 2.76119e-15)
(19.3199 -1.24152 -3.85458e-16)
(19.2327 -1.41437 -1.33359e-15)
(19.1362 -1.59257 1.34045e-15)
(19.0296 -1.77599 8.68379e-17)
(18.9113 -1.96454 4.76134e-16)
(18.7802 -2.15794 -4.57072e-15)
(18.6347 -2.35558 2.05034e-15)
(18.4735 -2.55657 -1.72661e-15)
(18.2951 -2.7596 2.49997e-15)
(18.0984 -2.96275 1.74831e-15)
(17.8827 -3.16342 -4.08452e-15)
(17.6477 -3.358 -3.32162e-16)
(17.3945 -3.54168 2.13754e-15)
(17.1248 -3.70839 1.25736e-15)
(16.843 -3.84979 1.6921e-15)
(16.5533 -3.95874 -2.96915e-15)
(16.2606 -4.02977 2.11326e-15)
(15.9674 -4.06235 3.35096e-16)
(15.6751 -4.06 -2.61076e-15)
(15.3867 -4.02913 4.5979e-15)
(15.1066 -3.97603 -6.38396e-16)
(14.8385 -3.90443 -1.54797e-15)
(14.5835 -3.81696 -3.26239e-15)
(14.3399 -3.71623 -3.80404e-17)
(14.1057 -3.60448 9.62913e-16)
(13.8797 -3.48327 3.64257e-15)
(13.662 -3.35353 -4.86151e-15)
(13.4536 -3.2159 6.06083e-15)
(13.2561 -3.07087 -2.45628e-15)
(13.0711 -2.91872 1.72783e-15)
(12.8993 -2.75958 -2.63711e-15)
(12.7409 -2.59351 -2.35101e-16)
(12.5955 -2.42069 2.29263e-15)
(12.4629 -2.24134 -2.18896e-15)
(12.3433 -2.05573 1.57996e-15)
(12.2374 -1.86417 9.02879e-16)
(12.1464 -1.66709 -7.78109e-16)
(12.0721 -1.46512 8.42878e-16)
(12.0146 -1.25907 -1.38006e-17)
(11.9819 -1.05096 -3.19531e-16)
(11.9439 -0.84368 -5.99061e-18)
(18.9717 4.7593 -2.16793e-15)
(19.0197 4.66999 2.58218e-15)
(19.0647 4.58012 -4.78237e-16)
(19.1071 4.49041 1.20199e-15)
(19.1468 4.40092 -1.80746e-15)
(19.1841 4.31165 2.3208e-15)
(19.2192 4.2227 -6.26079e-16)
(19.2522 4.13411 4.67712e-16)
(19.2834 4.04581 -3.37006e-16)
(19.313 3.95785 -1.34999e-15)
(19.3414 3.87103 1.80518e-16)
(19.3687 3.78423 2.44501e-16)
(19.3947 3.69797 1.60295e-16)
(19.4195 3.61208 -3.59432e-16)
(19.443 3.52649 2.11656e-16)
(19.4652 3.44112 -3.19273e-17)
(19.486 3.3559 1.43136e-16)
(19.5051 3.27074 1.00534e-16)
(19.5221 3.18556 -2.41547e-16)
(19.5367 3.10034 -6.71718e-16)
(19.5482 3.01532 8.2089e-16)
(19.5568 2.93099 8.47689e-16)
(19.5631 2.84748 -2.27789e-15)
(19.5697 2.76432 3.2564e-15)
(19.5767 2.68062 -5.68458e-16)
(19.5818 2.59527 -1.8994e-15)
(19.5841 2.508 -4.24999e-16)
(19.5836 2.41927 2.9682e-15)
(19.5807 2.32946 -4.06957e-15)
(19.5757 2.23867 3.55613e-15)
(19.5692 2.14686 -3.43156e-15)
(19.5615 2.05456 5.41291e-15)
(19.5529 1.96106 -4.51674e-15)
(19.5432 1.86657 1.75598e-15)
(19.5326 1.77104 -1.32142e-15)
(19.5212 1.67436 1.64434e-15)
(19.5088 1.57645 1.46979e-15)
(19.4954 1.47726 -4.7401e-15)
(19.481 1.37673 2.15614e-15)
(19.4655 1.27478 -1.49145e-15)
(19.4487 1.17136 9.64697e-16)
(19.4308 1.0664 -2.94897e-15)
(19.4114 0.959836 4.41282e-15)
(19.3906 0.851595 -3.21534e-15)
(19.3681 0.741614 1.68218e-16)
(19.3439 0.62982 1.02347e-15)
(19.3178 0.516144 4.36725e-15)
(19.2897 0.400514 -3.65698e-15)
(19.2593 0.282862 -6.83917e-16)
(19.2265 0.16312 2.78238e-15)
(19.191 0.0412253 -5.99039e-15)
(19.1526 -0.082878 6.14916e-15)
(19.1111 -0.20924 -6.25504e-16)
(19.0661 -0.337894 4.71829e-16)
(19.0173 -0.468861 -6.63543e-16)
(18.9644 -0.602135 -3.95694e-15)
(18.907 -0.737686 4.43151e-15)
(18.8447 -0.875447 2.37798e-15)
(18.777 -1.01531 -7.22658e-15)
(18.7034 -1.1571 1.68686e-15)
(18.6235 -1.30058 -3.85077e-15)
(18.5366 -1.4454 2.91458e-15)
(18.4422 -1.59108 -1.14882e-15)
(18.3398 -1.73711 2.08616e-15)
(18.2286 -1.88283 -3.24406e-15)
(18.1078 -2.02735 1.2844e-15)
(17.977 -2.1696 4.92574e-15)
(17.8354 -2.30828 1.4067e-15)
(17.6825 -2.44183 -4.4167e-15)
(17.5177 -2.56845 3.70934e-15)
(17.3405 -2.6861 -3.61245e-15)
(17.1507 -2.7926 1.08727e-15)
(16.9482 -2.88569 4.68928e-15)
(16.7332 -2.96328 -3.8943e-15)
(16.5069 -3.02385 -2.50043e-15)
(16.271 -3.06683 1.94863e-15)
(16.0287 -3.09252 -2.75863e-15)
(15.7846 -3.10176 2.8273e-16)
(15.543 -3.09546 2.67962e-15)
(15.307 -3.07463 -1.91664e-16)
(15.0774 -3.04034 -9.11408e-16)
(14.8543 -2.99374 8.94925e-16)
(14.6377 -2.93595 -2.10625e-15)
(14.4283 -2.8679 1.24245e-15)
(14.2271 -2.79022 -3.31522e-15)
(14.0353 -2.70336 3.02276e-15)
(13.854 -2.60774 -1.32867e-15)
(13.6839 -2.50385 1.29206e-15)
(13.5252 -2.3923 -1.14572e-15)
(13.3778 -2.2738 -1.65808e-15)
(13.2412 -2.14906 7.86031e-16)
(13.1151 -2.01875 2.02501e-15)
(12.9997 -1.88346 -4.06535e-16)
(12.8952 -1.74381 -1.81004e-16)
(12.8024 -1.6004 -8.35196e-16)
(12.7218 -1.4539 3.28111e-16)
(12.6544 -1.30514 1.44028e-15)
(12.5991 -1.15505 -1.00442e-15)
(12.5629 -1.00516 1.90149e-16)
(12.5126 -0.859327 -1.50358e-17)
(18.7068 4.65572 -4.44003e-15)
(18.7417 4.56923 3.52879e-15)
(18.7743 4.48281 -3.52683e-15)
(18.8052 4.39689 3.0628e-15)
(18.8342 4.3113 -1.24009e-15)
(18.8614 4.22599 1.33326e-15)
(18.887 4.1409 -5.31798e-16)
(18.9108 4.05597 4.97021e-16)
(18.9331 3.97101 -1.86449e-15)
(18.9537 3.88601 4.51838e-16)
(18.9728 3.80157 3.97504e-16)
(18.9906 3.71684 -1.34216e-16)
(19.0069 3.6322 -7.2008e-17)
(19.0216 3.54749 -2.42782e-17)
(19.0349 3.46271 3.25947e-16)
(19.0466 3.37789 -1.28227e-16)
(19.0566 3.29308 -2.63782e-16)
(19.0648 3.20833 4.39531e-16)
(19.0709 3.12373 -4.54688e-16)
(19.075 3.0394 6.45745e-16)
(19.0771 2.95556 -1.86387e-16)
(19.0781 2.87274 -2.94218e-15)
(19.0797 2.7917 3.57993e-15)
(19.0846 2.71211 1.99735e-16)
(19.0934 2.63206 -2.98519e-15)
(19.1034 2.55019 2.22778e-15)
(19.1128 2.46654 -1.50713e-15)
(19.1205 2.38141 3.40416e-15)
(19.1264 2.295 -2.63669e-15)
(19.1304 2.20747 6.2082e-16)
(19.1329 2.11881 -2.28892e-15)
(19.134 2.02971 -3.0225e-19)
(19.1337 1.93957 -9.71035e-16)
(19.1321 1.8487 3.26141e-15)
(19.1291 1.75712 1.77511e-15)
(19.1248 1.6648 -1.79512e-15)
(19.1192 1.5717 -5.2835e-17)
(19.1121 1.47782 -7.36683e-16)
(19.1036 1.38312 -1.06937e-15)
(19.0934 1.28756 3.23738e-15)
(19.0817 1.1911 -1.98021e-15)
(19.0682 1.0937 5.59359e-15)
(19.0528 0.995318 -1.08326e-14)
(19.0355 0.895906 -3.05586e-16)
(19.0162 0.795422 6.93767e-15)
(18.9946 0.693826 2.50256e-15)
(18.9707 0.591078 -1.03068e-15)
(18.9443 0.487146 -2.99007e-15)
(18.9152 0.382 -2.16914e-15)
(18.8832 0.275619 3.93718e-15)
(18.8482 0.167989 -2.4093e-15)
(18.8099 0.0591112 -2.4972e-15)
(18.7681 -0.0510077 6.98025e-15)
(18.7225 -0.162337 6.91247e-16)
(18.6729 -0.274832 -3.15974e-15)
(18.619 -0.388421 -9.53706e-16)
(18.5605 -0.503011 3.61684e-15)
(18.4969 -0.618468 -4.74646e-15)
(18.4281 -0.73463 -1.20786e-15)
(18.3535 -0.851283 7.95924e-16)
(18.2729 -0.96817 2.07915e-15)
(18.1857 -1.08495 -1.15146e-15)
(18.0918 -1.2012 6.57639e-16)
(17.9907 -1.31649 -7.42799e-16)
(17.8818 -1.43036 2.86278e-15)
(17.7649 -1.54217 -2.97102e-15)
(17.6395 -1.65123 3.24368e-15)
(17.5054 -1.75677 -3.38148e-15)
(17.3625 -1.8579 1.65617e-15)
(17.2108 -1.95368 2.28985e-15)
(17.0505 -2.04307 3.72793e-17)
(16.8822 -2.125 -2.53233e-15)
(16.7066 -2.19837 6.28306e-16)
(16.525 -2.26213 1.49859e-15)
(16.3391 -2.31529 -4.44467e-15)
(16.1507 -2.35701 5.11298e-15)
(15.9616 -2.38668 -3.43392e-15)
(15.7733 -2.40406 -1.53799e-15)
(15.5867 -2.40928 6.52477e-15)
(15.4024 -2.40277 -1.86951e-15)
(15.221 -2.38517 2.14871e-15)
(15.0432 -2.35712 -6.30247e-15)
(14.87 -2.31922 2.46291e-15)
(14.7025 -2.27205 2.9837e-15)
(14.5416 -2.21616 -1.70275e-15)
(14.3879 -2.1521 8.36285e-16)
(14.2418 -2.08048 -6.36406e-16)
(14.1034 -2.00196 -1.5323e-15)
(13.9727 -1.91723 1.20377e-15)
(13.8498 -1.82697 -2.70777e-15)
(13.7348 -1.73184 2.79611e-15)
(13.6279 -1.63241 8.64961e-16)
(13.5298 -1.52921 -2.51746e-15)
(13.4409 -1.42273 6.50108e-16)
(13.3617 -1.31353 -2.06093e-16)
(13.2923 -1.20223 3.18995e-16)
(13.2334 -1.08953 -1.14051e-15)
(13.1834 -0.976132 3.05342e-16)
(13.1488 -0.862826 4.74205e-16)
(13.1 -0.754476 9.77337e-17)
(18.4532 4.49969 -3.7999e-16)
(18.4931 4.42403 4.38691e-15)
(18.5295 4.34804 -2.4774e-15)
(18.5632 4.27182 9.68487e-16)
(18.5943 4.19538 -1.79903e-15)
(18.6229 4.11876 2.37944e-15)
(18.6492 4.04198 9.34521e-17)
(18.6733 3.96502 -1.73183e-15)
(18.6953 3.88775 1.56883e-15)
(18.7151 3.81018 -1.14518e-15)
(18.7329 3.73295 -8.29781e-16)
(18.749 3.65532 7.10819e-16)
(18.7631 3.57752 -1.55517e-18)
(18.7753 3.49935 -3.26118e-16)
(18.7856 3.4208 4.99022e-16)
(18.794 3.34183 -3.0919e-17)
(18.8005 3.26239 -2.27837e-16)
(18.8049 3.18243 4.21032e-16)
(18.8075 3.10191 -7.82893e-16)
(18.8083 3.0208 9.81456e-16)
(18.8078 2.93909 3.67638e-16)
(18.8072 2.85686 -3.74009e-16)
(18.808 2.77448 1.89198e-15)
(18.8125 2.69241 -3.19861e-15)
(18.8209 2.61066 4.73278e-16)
(18.831 2.52906 2.38374e-15)
(18.8408 2.44751 -4.72507e-16)
(18.8494 2.36583 1.67886e-15)
(18.8563 2.28384 -5.81372e-15)
(18.8612 2.20148 3.98706e-15)
(18.8643 2.11857 -2.16273e-17)
(18.8655 2.03558 4.15194e-16)
(18.8649 1.95195 -2.20948e-15)
(18.8625 1.86781 -1.75876e-15)
(18.8582 1.78315 2.43408e-15)
(18.8521 1.69789 -1.99275e-18)
(18.8441 1.61201 -1.64156e-15)
(18.8342 1.52548 2.05701e-15)
(18.8224 1.43828 -2.99206e-16)
(18.8087 1.35036 1.37219e-15)
(18.7928 1.2617 -2.34631e-15)
(18.7749 1.17229 1.68754e-15)
(18.7547 1.08208 -4.45299e-15)
(18.7323 0.991075 2.16414e-15)
(18.7076 0.899247 5.55874e-16)
(18.6803 0.806587 2.12228e-16)
(18.6505 0.713091 -4.5551e-15)
(18.6181 0.618761 4.06361e-15)
(18.5828 0.523607 3.90988e-15)
(18.5446 0.427651 -1.19063e-16)
(18.5034 0.330919 -4.89382e-15)
(18.4589 0.233459 3.00045e-15)
(18.4111 0.135324 -2.28709e-15)
(18.3597 0.0365918 2.18299e-16)
(18.3045 -0.0626481 -1.22755e-15)
(18.2455 -0.162277 3.297e-16)
(18.1824 -0.262158 7.10015e-15)
(18.1151 -0.362124 -8.1252e-15)
(18.0432 -0.46198 4.36941e-15)
(17.9668 -0.561495 -4.81211e-15)
(17.8855 -0.660406 6.79799e-16)
(17.7992 -0.758376 1.87954e-15)
(17.708 -0.855014 3.42861e-15)
(17.6117 -0.949957 -1.95221e-15)
(17.5101 -1.04282 -4.83162e-15)
(17.4031 -1.1331 3.39136e-15)
(17.2907 -1.22027 1.43117e-15)
(17.1731 -1.30374 3.61661e-15)
(17.0505 -1.38291 3.89269e-16)
(16.923 -1.45712 -7.36284e-15)
(16.791 -1.52571 2.33194e-15)
(16.6548 -1.58803 2.22364e-15)
(16.5151 -1.64345 3.70173e-15)
(16.3724 -1.69141 -7.76142e-16)
(16.2271 -1.73145 -5.2686e-15)
(16.08 -1.76326 9.1426e-16)
(15.9316 -1.78666 2.12201e-15)
(15.7825 -1.80166 -2.53315e-15)
(15.6334 -1.8084 2.60182e-15)
(15.4852 -1.80709 -2.3262e-15)
(15.3388 -1.79797 -1.43435e-16)
(15.195 -1.78134 1.36299e-15)
(15.0546 -1.75749 -6.4162e-16)
(14.9182 -1.7268 -2.03439e-15)
(14.7863 -1.68966 7.73783e-16)
(14.6591 -1.64653 -3.51243e-15)
(14.5368 -1.59787 6.32914e-15)
(14.4196 -1.54416 -4.35262e-15)
(14.3079 -1.48587 2.122e-15)
(14.202 -1.42345 -2.41226e-16)
(14.1022 -1.35734 -5.46329e-16)
(14.0089 -1.28796 -1.56498e-15)
(13.9226 -1.21575 4.82775e-16)
(13.8434 -1.14118 3.61034e-16)
(13.7714 -1.06477 1.02335e-16)
(13.7066 -0.987081 -1.2431e-16)
(13.6494 -0.908696 -8.74482e-16)
(13.5983 -0.830146 1.70794e-15)
(13.5593 -0.751757 -9.8115e-17)
(13.506 -0.678251 3.55814e-17)
(18.1617 4.33433 3.09067e-15)
(18.2005 4.26736 -3.23359e-15)
(18.2368 4.19968 8.32692e-16)
(18.2709 4.13163 2.73334e-15)
(18.3027 4.06317 -3.72488e-15)
(18.3324 3.99432 7.40838e-16)
(18.3599 3.9251 5.31433e-16)
(18.3854 3.85548 -2.18105e-15)
(18.4086 3.78532 1.56824e-15)
(18.4298 3.71464 -3.80017e-16)
(18.4491 3.6443 5.19773e-16)
(18.4667 3.57336 6.43462e-18)
(18.4824 3.50212 -3.61589e-16)
(18.4962 3.4304 -8.69716e-17)
(18.5081 3.35817 6.93488e-16)
(18.5181 3.28538 -1.40962e-16)
(18.5261 3.212 -2.62665e-16)
(18.5321 3.13795 4.04315e-16)
(18.5362 3.06321 6.83722e-16)
(18.5386 2.98776 -1.65653e-15)
(18.5397 2.91163 5.50289e-16)
(18.5402 2.8349 -2.15315e-15)
(18.5414 2.75769 3.19113e-15)
(18.5446 2.6803 1.22035e-15)
(18.5499 2.60307 -2.42276e-15)
(18.5559 2.52606 1.02727e-15)
(18.5613 2.44911 -2.01112e-15)
(18.5653 2.37207 4.1961e-15)
(18.5674 2.29482 -3.29524e-15)
(18.5676 2.21731 2.12747e-15)
(18.5658 2.1394 -2.25082e-15)
(18.5622 2.06159 -1.8811e-16)
(18.5568 1.98321 -6.56412e-16)
(18.5495 1.90444 2.75817e-15)
(18.5404 1.82528 -1.56782e-15)
(18.5295 1.74565 -2.03667e-15)
(18.5167 1.66552 5.08284e-15)
(18.5022 1.5849 -3.53419e-15)
(18.4858 1.50377 2.30282e-16)
(18.4676 1.42212 -1.06484e-15)
(18.4474 1.33996 -6.64014e-16)
(18.4254 1.25727 -1.89067e-17)
(18.4013 1.17407 4.14528e-15)
(18.3751 1.09037 -8.03292e-15)
(18.3468 1.00618 1.64318e-15)
(18.3164 0.921535 6.50325e-15)
(18.2836 0.836455 -7.08993e-15)
(18.2485 0.750982 6.04534e-15)
(18.211 0.665156 -9.2804e-16)
(18.1709 0.579037 1.90168e-15)
(18.1282 0.492685 -3.65953e-15)
(18.0828 0.406178 -2.32007e-15)
(18.0346 0.319601 5.60104e-15)
(17.9835 0.233057 -1.5932e-15)
(17.9293 0.14666 -5.12987e-15)
(17.872 0.0605452 1.81005e-15)
(17.8115 -0.0251421 6.86165e-15)
(17.7477 -0.11023 -4.85369e-15)
(17.6805 -0.194535 2.74847e-15)
(17.6097 -0.277846 -1.36472e-15)
(17.5354 -0.359936 5.96693e-16)
(17.4574 -0.440524 -5.36745e-15)
(17.376 -0.519306 7.90895e-17)
(17.291 -0.596014 3.08392e-15)
(17.2022 -0.670391 -4.09187e-15)
(17.1098 -0.742101 -9.89872e-16)
(17.0137 -0.810801 7.57104e-15)
(16.914 -0.87615 -2.57302e-15)
(16.8109 -0.937789 -3.52512e-15)
(16.7046 -0.995372 4.28975e-15)
(16.5952 -1.04855 -1.84556e-15)
(16.4829 -1.09702 7.97159e-16)
(16.3682 -1.14048 1.30656e-17)
(16.2513 -1.17869 2.1653e-15)
(16.1326 -1.21145 -4.69228e-15)
(16.0126 -1.2386 4.2794e-15)
(15.8919 -1.26003 -3.28175e-15)
(15.7711 -1.27571 1.06496e-15)
(15.6506 -1.28561 -3.75402e-16)
(15.5312 -1.28978 8.85757e-16)
(15.4132 -1.2883 6.59297e-16)
(15.2973 -1.28132 4.91797e-16)
(15.1837 -1.26902 -1.94163e-15)
(15.0728 -1.25163 -1.56798e-15)
(14.9648 -1.22941 2.53688e-15)
(14.86 -1.20265 -2.214e-15)
(14.7588 -1.17165 4.25358e-15)
(14.6615 -1.13669 -3.23774e-15)
(14.5683 -1.09808 1.88376e-15)
(14.4797 -1.05611 -2.23775e-15)
(14.3959 -1.01111 1.14749e-15)
(14.3172 -0.963399 5.1695e-16)
(14.2435 -0.913341 -1.4223e-15)
(14.1751 -0.8613 2.00188e-15)
(14.112 -0.807653 -1.0164e-15)
(14.0541 -0.752768 1.61341e-15)
(14.0021 -0.697021 -2.1708e-16)
(13.9544 -0.640739 -3.92127e-16)
(13.9164 -0.584069 -1.14464e-16)
(13.8644 -0.531278 -2.00813e-16)
(17.8995 4.16275 -3.23428e-15)
(17.9333 4.105 5.01693e-15)
(17.965 4.046 -1.7711e-15)
(17.9948 3.98626 7.07753e-16)
(18.0227 3.92577 -2.45534e-15)
(18.0487 3.86458 -1.23186e-16)
(18.0729 3.80271 2.05046e-15)
(18.0951 3.74016 -8.22702e-16)
(18.1153 3.67679 1.24599e-15)
(18.1336 3.61265 -1.48744e-15)
(18.1502 3.54874 1.16097e-16)
(18.1653 3.48399 -8.12706e-17)
(18.1786 3.41879 1.15116e-16)
(18.1902 3.35297 -3.19259e-16)
(18.1999 3.28654 2.5959e-16)
(18.2079 3.2195 -8.59033e-18)
(18.214 3.15185 1.70758e-16)
(18.2182 3.0836 7.41932e-17)
(18.2207 3.01479 -9.53108e-17)
(18.2217 2.94548 -3.6255e-17)
(18.2216 2.87578 3.60937e-16)
(18.2211 2.80583 2.13227e-16)
(18.2208 2.73577 -6.7259e-16)
(18.222 2.66567 -2.3162e-15)
(18.2247 2.59553 2.06834e-15)
(18.228 2.52518 -5.28468e-16)
(18.2308 2.45448 -1.92126e-16)
(18.2324 2.38339 3.62866e-15)
(18.2324 2.31192 -5.4026e-15)
(18.2306 2.24005 3.98315e-15)
(18.2271 2.16768 -2.76292e-15)
(18.2219 2.09551 -1.61844e-15)
(18.2151 2.02273 1.88465e-16)
(18.2065 1.94966 3.23805e-15)
(18.1961 1.87634 -1.63312e-15)
(18.184 1.80271 2.75425e-15)
(18.1702 1.72877 -3.51879e-15)
(18.1546 1.65455 8.67912e-16)
(18.1374 1.58007 8.85137e-17)
(18.1183 1.50532 2.87348e-15)
(18.0975 1.43034 -4.38028e-15)
(18.0749 1.35513 -4.03582e-15)
(18.0505 1.27972 5.00681e-15)
(18.0241 1.20415 -4.56295e-15)
(17.9958 1.12842 2.34424e-15)
(17.9655 1.05259 4.23059e-16)
(17.9331 0.976695 4.75516e-15)
(17.8986 0.90078 -6.95978e-15)
(17.8619 0.824897 5.81171e-15)
(17.823 0.749108 8.85372e-16)
(17.7817 0.673478 -3.21421e-15)
(17.7382 0.598087 5.82315e-16)
(17.6922 0.523013 -2.35164e-15)
(17.6437 0.448352 6.33732e-15)
(17.5926 0.374206 -2.36037e-15)
(17.539 0.300688 -4.15328e-15)
(17.4827 0.227919 7.82814e-15)
(17.4238 0.156034 -6.52973e-15)
(17.3621 0.0851765 3.29347e-15)
(17.2977 0.0155012 -3.39899e-15)
(17.2305 -0.0528245 -4.05844e-15)
(17.1605 -0.119599 9.99822e-15)
(17.088 -0.184603 -9.61901e-15)
(17.0129 -0.247664 6.7673e-15)
(16.9351 -0.308636 -6.68688e-15)
(16.8547 -0.367304 1.50475e-15)
(16.7717 -0.423459 5.36689e-15)
(16.6863 -0.476898 1.93296e-15)
(16.5986 -0.527406 -7.75841e-15)
(16.5088 -0.574784 7.90906e-15)
(16.417 -0.618833 -1.10134e-15)
(16.3236 -0.659374 -2.91038e-15)
(16.2286 -0.696234 5.75481e-15)
(16.1325 -0.729272 -6.13778e-15)
(16.0355 -0.75836 -6.6217e-16)
(15.938 -0.783405 2.21873e-15)
(15.8402 -0.804338 2.1307e-16)
(15.7425 -0.821129 -2.75647e-15)
(15.6452 -0.833779 4.80474e-15)
(15.5486 -0.842329 -2.98408e-15)
(15.453 -0.846851 -3.01853e-16)
(15.3586 -0.847449 -2.59611e-15)
(15.2657 -0.844252 2.21968e-15)
(15.1746 -0.83741 -2.98126e-15)
(15.0856 -0.827087 4.53219e-15)
(14.9989 -0.813461 7.91789e-17)
(14.9148 -0.796722 2.21671e-15)
(14.8336 -0.777068 -6.07289e-15)
(14.7555 -0.754715 2.86674e-15)
(14.6806 -0.729891 -1.82458e-15)
(14.6092 -0.702845 5.68442e-16)
(14.5413 -0.673831 9.47211e-16)
(14.4771 -0.643116 4.05359e-16)
(14.4167 -0.610962 -5.53813e-16)
(14.3602 -0.577637 5.97774e-16)
(14.3077 -0.543399 5.81802e-16)
(14.2595 -0.508522 -1.11326e-15)
(14.2146 -0.473269 1.73432e-16)
(14.1774 -0.437689 -2.92612e-16)
(14.1259 -0.40553 -5.88356e-17)
(17.6452 4.0045 -4.03592e-15)
(17.6753 3.95427 -1.27699e-15)
(17.7033 3.90274 3.81452e-15)
(17.7296 3.85042 -2.2145e-15)
(17.754 3.79726 -4.33442e-16)
(17.7766 3.74329 -8.22577e-16)
(17.7972 3.68854 4.99581e-16)
(17.816 3.63298 3.04771e-15)
(17.8328 3.57647 -1.6084e-15)
(17.8476 3.51906 1.28149e-15)
(17.8607 3.46183 -1.15851e-15)
(17.8723 3.40364 -9.27115e-17)
(17.8822 3.34488 -9.86114e-17)
(17.8903 3.28539 -1.20693e-16)
(17.8966 3.22518 -4.30328e-16)
(17.9012 3.16426 3.07088e-16)
(17.904 3.10264 5.99908e-17)
(17.9052 3.04038 -9.02941e-17)
(17.9048 2.9775 1.41955e-15)
(17.9033 2.9141 -2.43969e-15)
(17.901 2.85026 1.72779e-15)
(17.8985 2.78612 -7.16094e-16)
(17.8964 2.7218 3.60265e-15)
(17.8956 2.65744 -1.75351e-15)
(17.8964 2.59304 7.28214e-16)
(17.8979 2.52851 -1.82647e-15)
(17.8992 2.46376 1.65903e-15)
(17.8996 2.39876 -3.57373e-15)
(17.8988 2.33349 4.42418e-15)
(17.8964 2.26793 -3.84277e-15)
(17.8923 2.20199 -1.42621e-16)
(17.8868 2.1364 -3.18466e-15)
(17.8798 2.0703 2.5877e-15)
(17.871 2.00404 -9.41224e-16)
(17.8604 1.93766 3.94438e-15)
(17.848 1.87111 1.1358e-15)
(17.834 1.8044 -2.66027e-15)
(17.8182 1.73756 -1.27869e-15)
(17.8007 1.67062 8.27011e-16)
(17.7816 1.60359 -9.02313e-17)
(17.7606 1.53649 -2.08184e-15)
(17.738 1.46936 2.30918e-15)
(17.7136 1.40221 -6.75546e-15)
(17.6874 1.33508 2.59137e-15)
(17.6594 1.26801 -7.84928e-16)
(17.6295 1.20103 5.2944e-15)
(17.5978 1.13419 -5.73637e-15)
(17.5643 1.06752 4.01867e-15)
(17.5287 1.00109 1.88057e-15)
(17.4913 0.934943 -4.1622e-15)