/*--------------------------------*- C++ -*----------------------------------*\
  =========                 |
  \\      /  F ield         | OpenFOAM: The Open Source CFD Toolbox
   \\    /   O peration     | Website:  https://openfoam.org
    \\  /    A nd           | Version:  6.0
     \\/     M anipulation  |
\*---------------------------------------------------------------------------*/
FoamFile
{
    version     2.0;
    format      ascii;
    class       volVectorField;
    location    "3.94";
    object      U;
}
// * * * * * * * * * * * * * * * * * * * * * * * * * * * * * * * * * * * * * //

dimensions      [0 1 -1 0 0 0 0];

internalField   nonuniform List<vector> 
13500
(
(1 3.0569e-06 -4.2921e-18)
(1 -3.2075e-06 2.9083e-18)
(1 -5.7018e-06 -1.2487e-17)
(1 -1.0428e-05 -8.6566e-18)
(1 -9.7276e-06 1.6233e-17)
(1 -9.2247e-06 3.027e-17)
(1 -2.5924e-06 2.586e-17)
(0.99998 1.5125e-05 -4.1672e-18)
(0.99993 3.5357e-05 1.5302e-17)
(0.9998 7.448e-05 3.2454e-18)
(0.99571 0.0007584 2.8656e-17)
(1.019 0.010844 7.7122e-18)
(1 9.2569e-06 2.6591e-18)
(1 -8.2332e-06 -8.8324e-18)
(1 -1.4703e-05 5.9632e-18)
(1 -2.8178e-05 -3.415e-19)
(1 -2.4184e-05 -4.3291e-19)
(1 -2.3696e-05 -3.6397e-17)
(1 -1.0098e-06 -4.4664e-17)
(0.99993 4.9659e-05 -2.3844e-17)
(0.99976 0.00011864 -1.5272e-17)
(0.99983 0.00018611 -1.6048e-18)
(0.98614 0.0021965 -1.357e-17)
(1.0534 0.030657 -4.6696e-18)
(1 1.552e-05 -3.4345e-18)
(1 -1.3442e-05 1.7548e-17)
(1 -2.3833e-05 3.1017e-18)
(1 -4.6418e-05 9.9809e-18)
(1 -3.8844e-05 -3.7432e-18)
(1 -3.9025e-05 2.9156e-17)
(1 7.1137e-07 -6.2869e-18)
(0.99989 8.3253e-05 5.4162e-18)
(0.99957 0.00020946 -1.8527e-17)
(1.0003 0.00031389 2.4381e-17)
(0.97591 0.0032836 -7.0954e-18)
(1.082 0.045215 1.6371e-18)
(1 2.1801e-05 8.9785e-18)
(1 -1.9007e-05 -1.7013e-17)
(1 -3.3415e-05 -1.4703e-17)
(1 -6.5477e-05 -7.0033e-19)
(1 -5.4282e-05 5.7783e-18)
(1 -5.5368e-05 -8.0904e-19)
(1 1.84e-06 6.1945e-17)
(0.99985 0.00011554 9.7582e-18)
(0.99934 0.00030684 2.1909e-17)
(1.0013 0.00046184 -8.8316e-18)
(0.96542 0.0040462 3.4552e-17)
(1.1033 0.055789 -7.4517e-18)
(1 2.8089e-05 -6.3087e-18)
(1 -2.4612e-05 1.4704e-17)
(1 -4.3041e-05 1.2516e-17)
(1 -8.4648e-05 1.2774e-17)
(1 -6.9789e-05 2.8333e-18)
(1.0001 -7.185e-05 2.143e-17)
(1 3.0346e-06 -2.7662e-17)
(0.99983 0.00014691 1.9821e-18)
(0.99907 0.00040989 -1.3433e-17)
(1.0026 0.00063202 -2.1073e-18)
(0.95506 0.0045343 -8.9611e-18)
(1.1173 0.063511 2.0664e-18)
(0.99999 3.4389e-05 6.3845e-18)
(1 -3.0257e-05 -6.0957e-18)
(1 -5.2714e-05 3.8224e-18)
(1 -0.00010392 -2.5305e-17)
(1.0001 -8.5372e-05 -8.3011e-20)
(1.0001 -8.848e-05 -4.2424e-17)
(1 4.2921e-06 1.0614e-18)
(0.99981 0.0001772 -1.591e-17)
(0.99874 0.0005172 5.1154e-18)
(1.0044 0.00083108 -2.1232e-17)
(0.94517 0.0047901 -2.1574e-17)
(1.1247 0.068991 1.9969e-18)
(0.99999 4.0704e-05 -1.0568e-18)
(1 -3.5946e-05 -7.2905e-18)
(1 -6.2432e-05 -3.1065e-18)
(1.0001 -0.00012332 1.91e-17)
(1.0001 -0.00010102 -2.6242e-17)
(1.0001 -0.0001053 1.6233e-17)
(1 5.656e-06 1.8501e-17)
(0.99981 0.00020631 5.5975e-18)
(0.99834 0.00062742 1.1436e-17)
(1.0064 0.0010654 1.143e-17)
(0.93605 0.0048514 9.2944e-18)
(1.1266 0.072655 3.2047e-18)
(0.99999 4.7033e-05 -2.1814e-18)
(1 -4.1683e-05 -1.4343e-18)
(1 -7.2197e-05 -2.6762e-17)
(1.0001 -0.00014284 -9.1206e-18)
(1.0001 -0.00011674 7.345e-18)
(1.0001 -0.00012232 2.6603e-17)
(1 7.1439e-06 1.1776e-17)
(0.99982 0.00023417 4.9972e-18)
(0.99787 0.00073919 -7.4748e-18)
(1.0088 0.0013389 1.6009e-17)
(0.92792 0.0047542 7.5064e-18)
(1.1237 0.074864 -1.019e-17)
(0.99999 5.3377e-05 -6.7717e-18)
(1 -4.7469e-05 6.166e-18)
(1 -8.2011e-05 4.4997e-17)
(1.0001 -0.00016249 -1.094e-17)
(1.0001 -0.00013253 2.7506e-17)
(1.0001 -0.00013957 -5.2524e-17)
(1.0001 8.7586e-06 -3.9228e-17)
(0.99985 0.00026074 9.7105e-18)
(0.99732 0.00085116 -5.6141e-18)
(1.0114 0.0016528 -8.8298e-18)
(0.92095 0.0045332 -1.387e-17)
(1.1173 0.075924 1.333e-17)
(0.99999 5.9735e-05 4.4614e-18)
(1 -5.3306e-05 2.3209e-18)
(1 -9.1878e-05 -3.8115e-17)
(1.0001 -0.00018229 1.557e-17)
(1.0001 -0.00014841 -1.1995e-17)
(1.0001 -0.00015705 2.2402e-17)
(1.0001 1.0501e-05 1.394e-17)
(0.9999 0.00028599 2.4551e-18)
(0.99669 0.00096201 5.3012e-19)
(1.0142 0.0020069 1.3985e-18)
(0.91524 0.0042203 4.4126e-18)
(1.108 0.076087 -6.9884e-19)
(0.99998 6.6106e-05 -2.4495e-18)
(1 -5.9193e-05 -7.6119e-18)
(1 -0.0001018 9.3431e-18)
(1.0001 -0.00020222 -2.7473e-18)
(1.0001 -0.00016437 1.8516e-18)
(1.0002 -0.0001748 -2.4552e-17)
(1.0001 1.2374e-05 -3.2107e-17)
(0.99997 0.00030991 -3.1179e-17)
(0.99598 0.0010705 1.5693e-17)
(1.017 0.0023992 1.8164e-18)
(0.91084 0.0038449 -1.1193e-17)
(1.0969 0.07556 -5.7429e-18)
(0.99998 7.249e-05 3.381e-18)
(0.99999 -6.5132e-05 2.8751e-18)
(1 -0.00011179 4.5028e-18)
(1.0001 -0.00022231 -2.1895e-18)
(1.0001 -0.00018043 -5.5502e-18)
(1.0002 -0.00019282 9.2859e-18)
(1.0001 1.4377e-05 1.8585e-17)
(1.0001 0.00033255 1.9262e-17)
(0.99518 0.0011756 1.0083e-17)
(1.0199 0.0028266 -2.2941e-17)
(0.90775 0.003433 1.1723e-19)
(1.0845 0.074512 -6.6467e-18)
(0.99998 7.8885e-05 -3.3805e-18)
(0.99999 -7.1125e-05 5.6541e-18)
(1 -0.00012183 8.164e-18)
(1.0001 -0.00024254 5.7169e-18)
(1.0001 -0.00019658 -5.1478e-18)
(1.0002 -0.00021114 4.5652e-18)
(1.0001 1.6507e-05 4.2381e-18)
(1.0002 0.00035395 -1.7201e-18)
(0.9943 0.0012762 -1.6296e-17)
(1.0229 0.0032848 2.1274e-17)
(0.90593 0.0030078 1.0429e-19)
(1.0715 0.073084 1.4239e-18)
(0.99997 8.5291e-05 5.1408e-18)
(0.99999 -7.7172e-05 -4.4136e-18)
(1 -0.00013195 7.1477e-19)
(1.0001 -0.00026293 -4.7693e-18)
(1.0002 -0.00021284 1.1691e-17)
(1.0002 -0.00022977 5.5704e-18)
(1.0001 1.8759e-05 1.7053e-17)
(1.0003 0.00037419 -6.3888e-18)
(0.99334 0.0013714 -1.991e-19)
(1.0258 0.0037691 5.2238e-18)
(0.90532 0.002589 1.6991e-17)
(1.0584 0.071388 9.0826e-19)
(0.99997 9.1708e-05 1.2399e-18)
(0.99999 -8.3274e-05 9.7956e-18)
(1 -0.00014213 1.3652e-17)
(1.0001 -0.00028348 -4.7554e-18)
(1.0002 -0.00022921 8.4656e-18)
(1.0002 -0.00024873 -2.6004e-18)
(1.0001 2.1124e-05 -2.9866e-17)
(1.0005 0.00039335 2.0223e-17)
(0.99231 0.0014605 -1.8377e-17)
(1.0286 0.0042743 -3.0132e-17)
(0.90583 0.0021933 -3.7294e-18)
(1.0457 0.069516 8.4136e-19)
(0.99996 9.8134e-05 -3.1632e-18)
(0.99998 -8.9432e-05 -1.0418e-17)
(1 -0.00015239 -3.2768e-17)
(1.0001 -0.0003042 8.0115e-18)
(1.0002 -0.00024571 -1.2847e-17)
(1.0003 -0.00026804 8.3381e-18)
(1.0001 2.3588e-05 -2.7944e-18)
(1.0007 0.00041157 -1.2174e-17)
(0.9912 0.0015426 4.0354e-18)
(1.0312 0.0047952 1.7993e-17)
(0.90735 0.001834 -7.8286e-18)
(1.0335 0.067543 1.1679e-17)
(0.99996 0.00010457 3.3285e-19)
(0.99998 -9.5648e-05 7.7916e-18)
(1 -0.00016273 2.2623e-17)
(1.0001 -0.00032509 -1.8045e-18)
(1.0002 -0.00026232 -1.2763e-17)
(1.0003 -0.00028773 -1.5538e-17)
(1.0001 2.6136e-05 1.0674e-17)
(1.0009 0.00042895 6.9824e-18)
(0.99003 0.0016174 2.3322e-17)
(1.0337 0.0053264 -2.519e-18)
(0.90978 0.0015217 1.9455e-18)
(1.0221 0.065527 -4.6595e-18)
(0.99995 0.00011101 -1.8674e-18)
(0.99998 -0.00010192 -9.4411e-18)
(1 -0.00017315 -1.0208e-17)
(1.0001 -0.00034616 6.0299e-18)
(1.0002 -0.00027907 -7.1682e-18)
(1.0003 -0.0003078 -1.2464e-17)
(1.0001 2.8747e-05 1.0377e-17)
(1.0012 0.00044566 -4.7366e-18)
(0.9888 0.0016842 -2.8861e-17)
(1.0361 0.0058627 -1.4115e-17)
(0.91299 0.001264 8.4452e-18)
(1.0118 0.063513 -5.0525e-18)
(0.99995 0.00011746 -2.674e-18)
(0.99997 -0.00010826 -3.5685e-18)
(1 -0.00018365 -7.5657e-19)
(1.0001 -0.00036742 -2.6406e-17)
(1.0002 -0.00029595 6.0142e-18)
(1.0003 -0.00032828 5.4271e-18)
(1.0001 3.1394e-05 -1.9718e-17)
(1.0015 0.00046184 -1.6173e-17)
(0.98753 0.0017427 4.2219e-18)
(1.0382 0.0063993 -1.0592e-18)
(0.91687 0.0010658 -9.7519e-18)
(1.0026 0.061539 9.5564e-19)
(0.99994 0.00012392 3.4781e-18)
(0.99997 -0.00011465 1.6359e-17)
(1 -0.00019424 1.9482e-17)
(1.0001 -0.00038886 2.4862e-18)
(1.0002 -0.00031298 1.6626e-17)
(1.0003 -0.00034919 9.5115e-18)
(1.0001 3.405e-05 2.8461e-18)
(1.0018 0.00047767 1.7702e-17)
(0.98621 0.0017925 2.0972e-17)
(1.04 0.0069318 1.6855e-17)
(0.92129 0.00093006 7.2801e-18)
(0.99453 0.059629 1.1337e-18)
(0.99994 0.00013038 -1.6579e-18)
(0.99996 -0.00012111 -3.925e-18)
(1 -0.00020493 -2.0756e-17)
(1.0002 -0.00041049 -2.3553e-18)
(1.0002 -0.00033017 -1.2601e-17)
(1.0004 -0.00037055 -5.1469e-18)
(1.0001 3.6678e-05 -1.8265e-18)
(1.0022 0.00049333 -1.6008e-17)
(0.98486 0.0018334 -2.0052e-17)
(1.0417 0.0074561 8.6372e-18)
(0.92615 0.00085745 5.0093e-19)
(0.98767 0.057804 6.5055e-19)
(0.99993 0.00013685 4.3945e-18)
(0.99996 -0.00012764 -5.1282e-18)
(1 -0.00021571 -1.9468e-17)
(1.0002 -0.00043233 4.4767e-17)
(1.0002 -0.00034751 1.828e-17)
(1.0004 -0.00039237 -1.2595e-17)
(1 3.924e-05 2.4557e-17)
(1.0026 0.00050901 2.1636e-17)
(0.9835 0.0018651 3.2537e-17)
(1.043 0.0079685 -3.1654e-17)
(0.93135 0.00084707 -1.3373e-17)
(0.98198 0.056076 1.7141e-19)
(0.99993 0.00014332 -3.2167e-18)
(0.99995 -0.00013423 -1.0292e-18)
(1 -0.00022659 3.3237e-17)
(1.0002 -0.00045437 -3.3842e-17)
(1.0003 -0.00036501 -1.7596e-18)
(1.0004 -0.00041467 4.1731e-17)
(1 4.1692e-05 7.6103e-18)
(1.0031 0.00052489 -3.3416e-18)
(0.98212 0.0018877 -2.0178e-17)
(1.0441 0.0084659 3.7301e-17)
(0.93677 0.00089663 -5.667e-18)
(0.97742 0.054454 -2.7264e-19)
(0.99992 0.0001498 -1.6399e-18)
(0.99995 -0.00014089 -2.0507e-18)
(1 -0.00023758 1.7311e-18)
(1.0002 -0.00047663 3.5208e-17)
(1.0003 -0.00038269 -9.9215e-18)
(1.0005 -0.00043748 -3.0846e-17)
(0.99995 4.3986e-05 -1.9404e-17)
(1.0035 0.00054118 -3.5985e-18)
(0.98074 0.0019009 6.3803e-18)
(1.0449 0.0089455 -3.1464e-17)
(0.94233 0.0010027 9.4909e-18)
(0.97392 0.052942 2.954e-18)
(0.99991 0.00015628 2.71e-18)
(0.99994 -0.00014761 1.4273e-17)
(1 -0.00024868 -1.2765e-17)
(1.0002 -0.0004991 -3.686e-18)
(1.0003 -0.00040056 -1.9041e-17)
(1.0005 -0.0004608 3.356e-17)
(0.9999 4.6068e-05 -1.7033e-17)
(1.0041 0.00055806 1.4921e-17)
(0.97937 0.0019048 -1.9663e-18)
(1.0455 0.0094051 2.9497e-17)
(0.94795 0.001161 -9.2649e-18)
(0.97141 0.05154 -4.9292e-18)
(0.9999 0.00016277 -5.1977e-19)
(0.99994 -0.00015441 -8.2089e-18)
(1 -0.00025989 -1.7875e-17)
(1.0002 -0.0005218 -1.0102e-17)
(1.0003 -0.00041861 1.8469e-17)
(1.0005 -0.00048466 -4.2796e-17)
(0.99984 4.7879e-05 -2.6282e-18)
(1.0046 0.00057573 -2.0158e-17)
(0.97802 0.0018995 3.1758e-18)
(1.0458 0.0098427 -8.5074e-18)
(0.95356 0.0013667 9.8614e-18)
(0.9698 0.050248 2.0905e-18)
(0.9999 0.00016926 2.7231e-18)
(0.99993 -0.00016128 -8.7936e-18)
(1 -0.00027122 -1.7665e-18)
(1.0002 -0.00054472 2.4552e-18)
(1.0003 -0.00043685 5.8457e-18)
(1.0005 -0.00050907 1.2366e-17)
(0.99977 4.9358e-05 4.3091e-17)
(1.0052 0.00059437 2.4093e-18)
(0.9767 0.0018849 5.1745e-18)
(1.0458 0.010257 9.375e-18)
(0.95909 0.0016145 -8.4368e-18)
(0.969 0.049061 1.6048e-18)
(0.99989 0.00017575 -1.5614e-18)
(0.99992 -0.00016822 8.7855e-18)
(1 -0.00028266 2.5409e-17)
(1.0002 -0.00056789 -2.4735e-17)
(1.0003 -0.00045531 -9.0932e-18)
(1.0006 -0.00053404 -2.1767e-18)
(0.99969 5.0438e-05 -1.4203e-17)
(1.0058 0.00061418 1.8694e-18)
(0.97541 0.0018613 -8.9663e-18)
(1.0455 0.010646 -3.4462e-18)
(0.96449 0.0018989 -2.3999e-19)
(0.9689 0.047975 -1.9613e-18)
(0.99988 0.00018224 -1.6783e-18)
(0.99992 -0.00017524 5.259e-18)
(1 -0.00029424 -6.1434e-19)
(1.0002 -0.00059129 8.2017e-18)
(1.0003 -0.00047397 -1.6779e-17)
(1.0006 -0.0005596 2.4625e-17)
(0.99959 5.1047e-05 7.0843e-18)
(1.0065 0.00063532 -1.7833e-17)
(0.97418 0.0018287 -1.1496e-17)
(1.0451 0.01101 -1.3641e-17)
(0.9697 0.0022143 1.3363e-18)
(0.96942 0.046984 -3.5923e-18)
(0.99987 0.00018873 5.8324e-19)
(0.99991 -0.00018234 -1.256e-17)
(1 -0.00030595 1.5736e-17)
(1.0002 -0.00061495 2.2687e-17)
(1.0003 -0.00049286 3.2887e-17)
(1.0007 -0.00058575 -1.8085e-17)
(0.99949 5.1111e-05 -1.7613e-17)
(1.0072 0.00065796 3.6185e-18)
(0.97301 0.0017875 1.0771e-17)
(1.0443 0.011348 1.0677e-17)
(0.97469 0.0025551 6.2262e-18)
(0.97047 0.04608 3.5704e-18)
(0.99986 0.00019522 1.1178e-18)
(0.9999 -0.00018951 9.9877e-18)
(1 -0.00031779 -3.6153e-17)
(1.0002 -0.00063886 -3.2866e-18)
(1.0003 -0.00051198 -2.7321e-17)
(1.0007 -0.00061251 -1.1393e-17)
(0.99937 5.055e-05 2.4784e-20)
(1.0079 0.00068225 -4.1401e-18)
(0.9719 0.0017378 -2.122e-17)
(1.0434 0.011659 -1.7047e-17)
(0.97942 0.0029159 -8.5055e-18)
(0.97195 0.045257 -1.7588e-18)
(0.99985 0.00020171 -7.2446e-19)
(0.99989 -0.00019677 -6.4957e-18)
(0.99999 -0.00032977 2.8447e-17)
(1.0002 -0.00066304 -3.1368e-17)
(1.0003 -0.00053135 -2.0554e-18)
(1.0008 -0.00063988 2.4262e-17)
(0.99923 4.9281e-05 7.0474e-19)
(1.0087 0.00070833 3.9474e-18)
(0.97087 0.00168 1.8577e-17)
(1.0422 0.011944 2.2159e-17)
(0.98387 0.0032917 4.8654e-18)
(0.97377 0.044507 -9.8187e-19)
(0.99984 0.00020819 -1.8862e-18)
(0.99989 -0.00020411 -2.3957e-18)
(0.99999 -0.00034189 -1.2611e-17)
(1.0002 -0.00068748 1.5627e-17)
(1.0004 -0.00055096 3.0028e-17)
(1.0008 -0.00066789 -1.0723e-17)
(0.99909 4.7217e-05 2.1937e-17)
(1.0094 0.00073632 2.959e-18)
(0.96992 0.0016143 -2.104e-18)
(1.0409 0.012202 1.0024e-17)
(0.98801 0.0036773 -5.4389e-18)
(0.97587 0.043822 -6.8367e-19)
(0.99983 0.00021468 4.717e-19)
(0.99988 -0.00021153 -6.3358e-18)
(0.99999 -0.00035417 4.7214e-18)
(1.0002 -0.0007122 -1.5928e-17)
(1.0004 -0.00057083 -3.1762e-17)
(1.0009 -0.00069653 6.7585e-18)
(0.99893 4.427e-05 -3.1646e-17)
(1.0102 0.00076634 -6.7664e-18)
(0.96906 0.0015413 6.8254e-18)
(1.0394 0.012433 -3.1463e-17)
(0.99184 0.0040684 3.7231e-18)
(0.97817 0.043195 1.9319e-18)
(0.99982 0.00022116 8.2843e-19)
(0.99987 -0.00021904 1.7165e-17)
(0.99998 -0.0003666 7.9059e-18)
(1.0002 -0.0007372 6.4874e-18)
(1.0004 -0.00059098 2.5398e-17)
(1.0009 -0.00072583 2.0157e-18)
(0.99875 4.0344e-05 2.1852e-17)
(1.0111 0.00079847 4.8528e-18)
(0.9683 0.0014612 -2.0743e-17)
(1.0377 0.012639 1.0832e-17)
(0.99534 0.0044606 2.518e-18)
(0.9806 0.04262 2.0024e-18)
(0.99981 0.00022764 -2.8929e-18)
(0.99986 -0.00022664 -5.6503e-18)
(0.99997 -0.00037919 -6.9453e-18)
(1.0002 -0.0007625 1.0655e-17)
(1.0004 -0.00061141 1.2271e-17)
(1.001 -0.00075578 -4.013e-18)
(0.99856 3.5344e-05 -1.8356e-17)
(1.0119 0.00083278 2.2097e-17)
(0.96763 0.0013746 3.8417e-18)
(1.0359 0.012819 -3.2724e-18)
(0.99851 0.00485 1.0417e-17)
(0.9831 0.042089 -1.3915e-18)
(0.9998 0.00023412 5.9445e-18)
(0.99985 -0.00023433 6.7671e-18)
(0.99997 -0.00039194 -7.3835e-18)
(1.0002 -0.00078808 -6.6383e-18)
(1.0004 -0.00063213 -1.7608e-17)
(1.0011 -0.00078639 -6.8938e-18)
(0.99835 2.917e-05 9.0502e-18)
(1.0127 0.00086934 -3.5445e-17)
(0.96708 0.0012819 9.4031e-18)
(1.034 0.012974 -3.8682e-18)
(1.0013 0.0052333 -1.1031e-17)
(0.98563 0.041597 4.0402e-18)
(0.99978 0.00024059 -2.6237e-18)
(0.99984 -0.00024211 -1.189e-17)
(0.99996 -0.00040487 -7.1566e-18)
(1.0002 -0.00081397 -1.2598e-17)
(1.0004 -0.00065316 -5.3767e-18)
(1.0011 -0.00081766 2.0272e-17)
(0.99813 2.1717e-05 -8.8904e-18)
(1.0136 0.00090818 3.9431e-17)
(0.96663 0.0011836 8.8661e-18)
(1.032 0.013105 1.1738e-17)
(1.0039 0.0056071 4.6496e-18)
(0.98813 0.041136 -6.5511e-18)
(0.99977 0.00024705 -1.3918e-18)
(0.99983 -0.00024999 8.8427e-18)
(0.99995 -0.00041797 1.418e-17)
(1.0002 -0.00084018 3.3966e-17)
(1.0004 -0.0006745 7.1269e-18)
(1.0012 -0.0008496 -1.3905e-17)
(0.9979 1.2881e-05 4.2903e-18)
(1.0144 0.00094932 -4.2422e-17)
(0.9663 0.0010803 -1.0754e-17)
(1.0299 0.013212 -6.5268e-18)
(1.006 0.0059687 4.5613e-18)
(0.99058 0.040701 6.5862e-18)
(0.99976 0.00025351 1.0651e-18)
(0.99982 -0.00025796 2.0936e-18)
(0.99995 -0.00043125 -1.3926e-17)
(1.0002 -0.00086669 -5.6575e-18)
(1.0004 -0.00069618 9.0499e-18)
(1.0013 -0.0008822 1.6646e-17)
(0.99764 2.5492e-06 1.4919e-17)
(1.0153 0.00099277 4.1986e-18)
(0.96609 0.00097252 1.2031e-17)
(1.0277 0.013296 -3.0244e-18)
(1.0079 0.0063158 -8.143e-18)
(0.99293 0.040288 -1.6987e-18)
(0.99975 0.00025996 -4.3621e-20)
(0.99981 -0.00026603 2.3862e-18)
(0.99994 -0.00044472 3.1124e-18)
(1.0003 -0.00089354 -7.3455e-18)
(1.0004 -0.0007182 8.4601e-20)
(1.0014 -0.00091547 -1.5092e-17)
(0.99738 -9.3902e-06 -1.0091e-17)
(1.0162 0.0010385 3.1067e-17)
(0.96599 0.00086082 -1.8182e-17)
(1.0255 0.013358 1.1744e-17)
(1.0095 0.0066461 4.3004e-18)
(0.99517 0.039892 -4.7955e-18)
(0.99973 0.0002664 -3.2996e-18)
(0.9998 -0.0002742 -1.119e-17)
(0.99993 -0.00045838 7.9471e-18)
(1.0003 -0.00092071 -2.0064e-17)
(1.0004 -0.00074058 -2.2888e-17)
(1.0015 -0.0009494 -2.0853e-17)
(0.99709 -2.3055e-05 -2.0566e-17)
(1.017 0.0010865 -3.1814e-18)
(0.96601 0.00074583 1.589e-17)
(1.0233 0.013399 -1.0074e-17)
(1.0108 0.006958 4.2714e-19)
(0.99727 0.039507 4.5162e-18)
(0.99972 0.00027283 6.3688e-18)
(0.99978 -0.00028247 1.1696e-17)
(0.99992 -0.00047223 -1.2817e-17)
(1.0003 -0.00094822 1.6472e-17)
(1.0004 -0.00076334 -2.6848e-18)
(1.0016 -0.00098398 1.3668e-17)
(0.99679 -3.8565e-05 2.472e-17)
(1.0179 0.0011368 -2.41e-17)
(0.96615 0.00062813 -8.0574e-18)
(1.021 0.013419 1.0638e-17)
(1.0118 0.00725 3.7161e-18)
(0.99921 0.039132 -2.1362e-18)
(0.9997 0.00027926 -4.7791e-18)
(0.99977 -0.00029085 -3.4563e-18)
(0.99991 -0.0004863 -2.6805e-18)
(1.0003 -0.00097608 1.885e-17)
(1.0004 -0.00078649 -5.7473e-18)
(1.0017 -0.0010192 -1.7348e-19)
(0.99648 -5.6046e-05 -4.8372e-18)
(1.0187 0.0011892 1.9304e-17)
(0.96641 0.00050836 -7.6508e-18)
(1.0188 0.01342 -7.3052e-18)
(1.0126 0.0075208 -1.0986e-17)
(1.001 0.038762 2.4823e-18)
(0.99969 0.00028567 3.2488e-18)
(0.99976 -0.00029934 -4.383e-18)
(0.9999 -0.00050057 6.1353e-18)
(1.0003 -0.0010043 -2.8602e-17)
(1.0004 -0.00081004 3.8933e-17)
(1.0018 -0.0010551 5.6643e-18)
(0.99615 -7.5626e-05 1.9085e-17)
(1.0195 0.0012436 -1.1946e-17)
(0.96678 0.00038713 1.0039e-19)
(1.0166 0.013402 5.4325e-18)
(1.0131 0.0077695 -2.1366e-18)
(1.0026 0.038394 -9.3399e-19)
(0.99967 0.00029208 -9.2937e-19)
(0.99974 -0.00030794 8.5685e-19)
(0.99989 -0.00051506 1.4951e-17)
(1.0003 -0.0010329 7.7975e-18)
(1.0004 -0.00083402 -1.9464e-17)
(1.0019 -0.0010915 -1.1096e-17)
(0.99581 -9.7439e-05 3.332e-18)
(1.0203 0.0013002 -5.8079e-18)
(0.96727 0.00026506 1.2801e-17)
(1.0145 0.013366 -3.5662e-18)
(1.0134 0.0079955 1.0284e-17)
(1.004 0.038026 -3.4076e-18)
(0.99966 0.00029847 -1.6179e-18)
(0.99973 -0.00031665 -8.2599e-18)
(0.99988 -0.00052977 -4.445e-18)
(1.0003 -0.0010618 3.1317e-17)
(1.0004 -0.00085845 -1.7343e-17)
(1.002 -0.0011286 -9.4082e-19)
(0.99546 -0.00012162 -4.9833e-17)
(1.0211 0.0013586 5.7085e-18)
(0.96787 0.00014277 -2.3941e-17)
(1.0124 0.013314 -7.7016e-18)
(1.0135 0.0081983 -1.0283e-17)
(1.0053 0.037656 2.0233e-18)
(0.99964 0.00030485 -6.9857e-19)
(0.99972 -0.00032547 5.1173e-18)
(0.99987 -0.00054471 -1.8349e-18)
(1.0003 -0.0010911 -1.8235e-17)
(1.0004 -0.00088334 2.4923e-17)
(1.0022 -0.0011663 -2.3118e-18)
(0.99509 -0.00014832 2.6396e-17)
(1.0219 0.0014188 -3.5098e-18)
(0.96857 2.0853e-05 1.1623e-17)
(1.0103 0.013245 9.6322e-18)
(1.0135 0.0083776 8.4823e-18)
(1.0064 0.037281 -4.8906e-19)
(0.99962 0.00031122 3.9598e-18)
(0.9997 -0.00033442 -3.0623e-18)
(0.99986 -0.00055989 -6.4204e-18)
(1.0003 -0.0011208 1.9906e-17)
(1.0004 -0.00090871 1.8295e-18)
(1.0023 -0.0012045 2.8652e-17)
(0.99471 -0.00017767 4.5533e-18)
(1.0226 0.0014807 1.6768e-17)
(0.96938 -0.00010009 4.3604e-18)
(1.0084 0.013162 -3.1165e-18)
(1.0132 0.0085333 1.1034e-18)
(1.0073 0.0369 4.4273e-19)
(0.9996 0.00031758 1.1293e-18)
(0.99969 -0.00034348 1.2518e-18)
(0.99985 -0.00057531 -5.8227e-18)
(1.0003 -0.0011508 -3.9641e-17)
(1.0004 -0.00093459 5.5401e-18)
(1.0025 -0.0012432 2.487e-18)
(0.99432 -0.00020984 -1.9743e-17)
(1.0233 0.0015443 2.3596e-19)
(0.97029 -0.00021948 1.2852e-17)
(1.0065 0.013064 -2.0037e-18)
(1.0129 0.0086655 -5.3721e-18)
(1.008 0.036512 2.6089e-18)
(0.99959 0.00032392 -4.8354e-18)
(0.99967 -0.00035266 5.3071e-18)
(0.99984 -0.00059097 9.5943e-19)
(1.0003 -0.0011813 2.2014e-17)
(1.0004 -0.000961 -2.5271e-17)
(1.0026 -0.0012824 -1.0976e-17)
(0.99392 -0.00024498 2.0193e-17)
(1.0239 0.0016092 -1.1358e-17)
(0.9713 -0.00033676 -2.0321e-17)
(1.0048 0.012954 -9.9009e-18)
(1.0124 0.0087745 6.8415e-18)
(1.0086 0.036116 8.6906e-19)
(0.99957 0.00033024 -5.1181e-19)
(0.99966 -0.00036197 -5.3409e-18)
(0.99983 -0.0006069 1.0223e-17)
(1.0003 -0.0012122 9.763e-18)
(1.0003 -0.00098797 3.1215e-17)
(1.0028 -0.0013221 4.2188e-18)
(0.99351 -0.00028324 1.7935e-17)
(1.0245 0.0016755 2.8797e-17)
(0.97239 -0.00045141 -8.9988e-19)
(1.0031 0.012831 1.7415e-17)
(1.0119 0.0088607 -7.2402e-19)
(1.0091 0.03571 -2.5379e-18)
(0.99955 0.00033655 4.9601e-18)
(0.99964 -0.00037141 -7.7767e-18)
(0.99981 -0.00062309 -1.5519e-17)
(1.0003 -0.0012434 -2.5932e-18)
(1.0003 -0.0010155 -3.388e-17)
(1.003 -0.0013622 -1.255e-17)
(0.9931 -0.00032481 -6.2259e-18)
(1.0251 0.0017429 2.1622e-19)
(0.97356 -0.00056292 2.645e-17)
(1.0016 0.012697 4.0129e-18)
(1.0112 0.0089245 -9.3881e-18)
(1.0094 0.035295 1.5214e-18)
(0.99953 0.00034285 -5.5611e-18)
(0.99962 -0.00038098 9.714e-18)
(0.9998 -0.00063955 8.1233e-18)
(1.0003 -0.0012751 -5.1698e-18)
(1.0003 -0.0010437 2.7248e-17)
(1.0032 -0.0014027 1.5018e-17)
(0.99268 -0.00036984 -4.9214e-18)
(1.0256 0.0018114 -2.9022e-17)
(0.97481 -0.00067082 -8.982e-19)
(1.0002 0.012552 -1.1467e-17)
(1.0105 0.0089667 1.1113e-17)
(1.0096 0.03487 -1.9931e-18)
(0.99951 0.00034913 3.3418e-18)
(0.9996 -0.00039068 -1.8592e-18)
(0.99979 -0.00065629 1.0758e-17)
(1.0003 -0.0013072 -2.1757e-17)
(1.0003 -0.0010725 8.8989e-18)
(1.0033 -0.0014434 -5.3938e-18)
(0.99225 -0.00041852 -1.0603e-17)
(1.0261 0.0018807 -2.3303e-18)
(0.97613 -0.00077465 -3.1929e-17)
(0.99891 0.012398 7.5651e-18)
(1.0098 0.008988 -1.0176e-17)
(1.0097 0.034435 6.6451e-19)
(0.99949 0.00035539 2.6432e-19)
(0.99959 -0.00040051 -5.849e-18)
(0.99977 -0.00067332 6.11e-18)
(1.0003 -0.0013398 2.8639e-17)
(1.0003 -0.001102 -2.1193e-17)
(1.0035 -0.0014845 1.736e-17)
(0.99182 -0.00047101 -6.1304e-18)
(1.0265 0.0019508 5.3947e-18)
(0.97751 -0.00087402 3.7937e-17)
(0.99777 0.012236 -1.4044e-17)
(1.009 0.0089891 1.5552e-17)
(1.0097 0.033989 1.88e-18)
(0.99947 0.00036163 4.744e-19)
(0.99957 -0.00041048 -1.2112e-18)
(0.99976 -0.00069064 -8.7892e-18)
(1.0003 -0.0013727 -4.3102e-18)
(1.0002 -0.0011322 1.8473e-17)
(1.0038 -0.0015257 1.4138e-19)
(0.99138 -0.00052751 -1.2049e-17)
(1.0269 0.0020214 -1.2882e-17)
(0.97894 -0.00096854 -1.5882e-17)
(0.99676 0.012066 -1.3257e-18)
(1.0083 0.008971 2.8467e-18)
(1.0096 0.033534 1.9627e-19)
(0.99945 0.00036785 -7.6321e-19)
(0.99955 -0.0004206 1.4406e-17)
(0.99974 -0.00070827 -5.863e-18)
(1.0003 -0.0014061 -2.4368e-17)
(1.0002 -0.0011631 8.5182e-18)
(1.004 -0.0015671 -4.4234e-17)
(0.99095 -0.0005882 6.0108e-18)
(1.0272 0.0020923 8.1101e-18)
(0.98042 -0.0010579 7.3766e-19)
(0.99589 0.01189 1.4263e-17)
(1.0075 0.0089347 -9.5183e-19)
(1.0095 0.033068 -5.2515e-18)
(0.99942 0.00037405 -2.0148e-19)
(0.99953 -0.00043086 -2.8249e-19)
(0.99972 -0.00072621 7.8935e-18)
(1.0003 -0.00144 1.5046e-17)
(1.0002 -0.0011948 -3.3842e-17)
(1.0042 -0.0016085 1.9092e-18)
(0.99052 -0.00065326 1.0765e-17)
(1.0275 0.0021634 1.2704e-17)
(0.98193 -0.0011418 -1.0049e-17)
(0.99516 0.011708 -1.3887e-17)
(1.0068 0.0088812 -1.5425e-17)
(1.0093 0.032593 5.5445e-18)
(0.9994 0.00038023 -1.3188e-18)
(0.99951 -0.00044127 4.0289e-19)
(0.99971 -0.00074447 -3.8058e-18)
(1.0003 -0.0014742 -1.0047e-17)
(1.0001 -0.0012273 1.8762e-17)
(1.0044 -0.0016499 2.3748e-17)
(0.99009 -0.00072288 3.1395e-18)
(1.0277 0.0022345 6.4393e-18)
(0.98348 -0.00122 1.6028e-17)
(0.99456 0.011521 2.3373e-18)
(1.0061 0.0088115 1.1403e-17)
(1.0091 0.03211 -3.3653e-18)
(0.99938 0.00038638 2.4277e-18)
(0.99949 -0.00045182 7.4269e-19)
(0.99969 -0.00076305 -5.4398e-18)
(1.0003 -0.001509 1.484e-18)
(1.0001 -0.0012607 -1.0172e-17)
(1.0047 -0.0016913 -5.6964e-18)
(0.98967 -0.00079724 -1.1604e-18)
(1.0279 0.0023053 -2.9078e-17)
(0.98505 -0.0012922 3.1476e-18)
(0.9941 0.01133 -4.7382e-18)
(1.0054 0.0087268 -4.6382e-18)
(1.0088 0.031617 -4.0552e-18)
(0.99935 0.00039252 -4.9547e-18)
(0.99947 -0.00046253 9.7035e-19)
(0.99967 -0.00078198 2.8854e-18)
(1.0003 -0.0015442 -1.8654e-17)
(1.0001 -0.001295 -1.1598e-17)
(1.0049 -0.0017325 -2.6453e-17)
(0.98925 -0.00087652 5.5995e-18)
(1.028 0.0023757 1.1873e-17)
(0.98664 -0.0013584 -3.3751e-17)
(0.99376 0.011136 2.1848e-17)
(1.0048 0.0086283 -5.0152e-18)
(1.0085 0.031118 2.6155e-18)
(0.99933 0.00039863 4.5484e-18)
(0.99944 -0.0004734 2.1713e-18)
(0.99965 -0.00080126 1.1098e-18)
(1.0003 -0.0015798 5.915e-18)
(1 -0.0013303 -2.5627e-18)
(1.0052 -0.0017734 5.1277e-17)
(0.98884 -0.00096091 2.0104e-17)
(1.028 0.0024455 -1.8474e-17)
(0.98824 -0.0014184 3.2486e-17)
(0.99355 0.01094 -8.1516e-18)
(1.0042 0.0085171 -3.3074e-18)
(1.0083 0.030611 -1.3042e-18)
(0.9993 0.00040471 1.1159e-18)
(0.99942 -0.00048442 -1.3748e-17)
(0.99963 -0.00082089 2.2215e-18)
(1.0003 -0.0016159 2.6572e-17)
(0.99996 -0.0013666 1.9828e-17)
(1.0054 -0.001814 -8.2483e-19)
(0.98844 -0.0010506 -2.7852e-17)
(1.028 0.0025143 5.5905e-18)
(0.98983 -0.0014721 -7.3274e-18)
(0.99347 0.010743 -1.1282e-17)
(1.0037 0.0083944 8.4138e-18)
(1.008 0.030098 1.2163e-18)
(0.99928 0.00041077 -4.4134e-18)
(0.9994 -0.00049561 -4.5841e-18)
(0.99961 -0.00084089 -1.2034e-17)
(1.0003 -0.0016525 -2.2287e-17)
(0.99991 -0.0014039 -1.9953e-17)
(1.0057 -0.0018541 -2.3305e-17)
(0.98805 -0.0011457 5.143e-18)
(1.0279 0.002582 4.3494e-17)
(0.99142 -0.0015195 3.1942e-18)
(0.9935 0.010546 -9.8538e-19)
(1.0032 0.0082614 -2.9707e-18)
(1.0077 0.02958 -3.2666e-18)
(0.99925 0.00041681 3.2752e-18)
(0.99938 -0.00050696 4.2575e-18)
(0.99959 -0.00086126 1.8546e-17)
(1.0003 -0.0016896 1.5437e-17)
(0.99985 -0.0014423 1.9413e-17)
(1.006 -0.0018937 -8.6595e-19)
(0.98767 -0.0012463 -2.8654e-17)
(1.0278 0.0026483 -2.3511e-17)
(0.993 -0.0015606 7.9293e-18)
(0.99364 0.010348 3.9047e-18)
(1.0029 0.0081194 6.6972e-18)
(1.0075 0.029058 2.5247e-18)
(0.99922 0.00042281 -2.3132e-18)
(0.99935 -0.00051848 6.68e-18)
(0.99957 -0.00088203 -1.2272e-17)
(1.0003 -0.0017271 2.2349e-18)
(0.99979 -0.0014819 9.0277e-18)
(1.0063 -0.0019326 -2.2786e-18)
(0.98731 -0.0013528 6.4338e-18)
(1.0276 0.0027129 6.5305e-18)
(0.99455 -0.0015956 2.6116e-18)
(0.99388 0.010152 9.6525e-18)
(1.0026 0.0079695 -8.0545e-18)
(1.0072 0.028532 5.1021e-19)
(0.99919 0.00042879 3.4928e-18)
(0.99933 -0.00053017 4.1407e-19)
(0.99955 -0.00090319 -5.7454e-18)
(1.0003 -0.0017651 8.9016e-19)
(0.99972 -0.0015227 -1.4821e-18)
(1.0066 -0.0019708 -2.2516e-17)
(0.98697 -0.001465 1.7963e-17)
(1.0273 0.0027755 2.3184e-17)
(0.99608 -0.0016244 -1.2994e-17)
(0.99422 0.0099578 -1.3431e-17)
(1.0024 0.0078128 -2.3546e-18)
(1.007 0.028004 4.3413e-18)
(0.99916 0.00043473 -2.5373e-18)
(0.9993 -0.00054204 -3.1888e-19)
(0.99952 -0.00092476 7.1429e-18)
(1.0003 -0.0018036 -1.7087e-17)
(0.99965 -0.0015649 -1.3411e-17)
(1.0069 -0.0020081 2.8428e-17)
(0.98664 -0.0015833 -2.7469e-18)
(1.027 0.0028358 -2.4545e-17)
(0.99757 -0.0016473 3.3113e-18)
(0.99465 0.009766 1.2646e-17)
(1.0022 0.0076507 7.9809e-18)
(1.0069 0.027474 -1.5653e-18)
(0.99913 0.00044065 2.5218e-19)
(0.99927 -0.00055408 2.3361e-18)
(0.9995 -0.00094676 3.9035e-18)
(1.0004 -0.0018426 8.8337e-18)
(0.99958 -0.0016083 2.6291e-17)
(1.0072 -0.0020445 6.6302e-18)
(0.98633 -0.0017076 -2.3918e-17)
(1.0267 0.0028935 2.3018e-18)
(0.99903 -0.0016644 8.5315e-18)
(0.99517 0.0095772 -1.1394e-17)
(1.0021 0.0074841 -5.3962e-18)
(1.0067 0.026944 -1.811e-18)
(0.9991 0.00044653 7.161e-19)
(0.99925 -0.00056631 -4.0621e-19)
(0.99947 -0.00096918 -1.0301e-17)
(1.0004 -0.001882 -1.9011e-19)
(0.9995 -0.0016533 -5.1982e-17)
(1.0075 -0.0020799 8.1762e-18)
(0.98605 -0.0018381 2.3495e-17)
(1.0263 0.0029482 -6.6113e-18)
(1.0004 -0.0016761 -8.9333e-18)
(0.99575 0.0093922 1.892e-17)
(1.0022 0.0073141 6.4564e-18)
(1.0067 0.026414 4.6931e-18)
(0.99907 0.00045239 7.6935e-19)
(0.99922 -0.00057873 -8.4319e-19)
(0.99945 -0.00099205 1.863e-17)
(1.0004 -0.001922 4.0754e-18)
(0.99942 -0.0016996 4.6069e-17)
(1.0078 -0.002114 -2.8811e-17)
(0.98579 -0.0019747 -7.8679e-18)
(1.0258 0.0029996 6.2248e-18)
(1.0018 -0.0016825 3.0795e-18)
(0.99641 0.0092114 -1.0646e-17)
(1.0022 0.0071419 -1.0452e-18)
(1.0066 0.025885 -3.4606e-18)
(0.99904 0.0004582 -3.0064e-18)
(0.99919 -0.00059133 1.4161e-18)
(0.99942 -0.0010154 -1.0951e-17)
(1.0004 -0.0019624 5.3597e-18)
(0.99934 -0.0017476 -1.7505e-17)
(1.0081 -0.0021469 3.9072e-18)
(0.98556 -0.0021176 3.1503e-17)
(1.0253 0.0030473 -2.3302e-17)
(1.0031 -0.0016842 -1.1318e-17)
(0.99712 0.0090353 -1.0531e-17)
(1.0024 0.0069684 -5.1342e-18)
(1.0066 0.025358 -9.5042e-19)
(0.99901 0.00046399 3.7453e-18)
(0.99916 -0.00060412 -3.3632e-18)
(0.9994 -0.0010392 -1.0629e-17)
(1.0004 -0.0020033 -8.5463e-18)
(0.99924 -0.0017972 -2.8626e-17)
(1.0084 -0.0021784 -1.8127e-17)
(0.98535 -0.0022667 -1.9316e-17)
(1.0248 0.0030909 2.1668e-17)
(1.0044 -0.0016814 1.0974e-17)
(0.99787 0.0088643 1.5949e-17)
(1.0026 0.0067945 -2.0097e-18)
(1.0067 0.024834 4.5873e-18)
(0.99897 0.00046973 -6.0198e-18)
(0.99913 -0.00061711 5.4499e-18)
(0.99937 -0.0010634 2.6026e-17)
(1.0004 -0.0020447 -2.0162e-18)
(0.99915 -0.0018485 3.1672e-17)
(1.0087 -0.0022085 1.3649e-18)
(0.98517 -0.002422 -1.8501e-17)
(1.0242 0.0031301 8.4846e-18)
(1.0056 -0.0016745 -3.9575e-18)
(0.99868 0.0086986 -3.3395e-18)
(1.0029 0.0066211 6.5203e-18)
(1.0068 0.024314 -3.1022e-18)
(0.99894 0.00047545 4.9334e-18)
(0.9991 -0.00063031 -7.4069e-18)
(0.99934 -0.0010882 -3.0346e-17)
(1.0004 -0.0020866 1.319e-17)
(0.99905 -0.0019016 -2.2568e-17)
(1.009 -0.002237 2.5061e-17)
(0.98501 -0.0025834 6.03e-18)
(1.0236 0.0031644 -8.0752e-18)
(1.0067 -0.0016641 -1.9e-18)
(0.99951 0.0085386 -8.3644e-18)
(1.0033 0.006449 -1.0631e-17)
(1.0069 0.023799 4.2876e-18)
(0.9989 0.00048112 -3.6343e-18)
(0.99907 -0.0006437 2.4631e-18)
(0.99931 -0.0011135 1.844e-17)
(1.0004 -0.0021289 -1.7389e-17)
(0.99895 -0.0019566 3.6314e-17)
(1.0094 -0.0022639 -1.9455e-17)
(0.98489 -0.0027508 3.5152e-18)
(1.0229 0.0031934 -1.2769e-17)
(1.0078 -0.0016506 6.2027e-18)
(1.0004 0.0083845 -1.1706e-18)
(1.0037 0.006279 4.5503e-18)
(1.0071 0.023288 -1.9065e-18)
(0.99887 0.00048675 4.4577e-18)
(0.99904 -0.00065731 1.9179e-18)
(0.99928 -0.0011393 -1.2296e-17)
(1.0004 -0.0021718 -3.5421e-19)
(0.99884 -0.0020136 -1.6017e-18)
(1.0097 -0.0022891 4.7043e-18)
(0.9848 -0.0029242 3.3383e-17)
(1.0222 0.0032168 8.7351e-18)
(1.0088 -0.0016346 -1.8387e-17)
(1.0012 0.0082364 -6.067e-18)
(1.0041 0.0061116 -4.2799e-18)
(1.0073 0.022784 2.0036e-18)
(0.99883 0.00049234 -5.1098e-18)
(0.999 -0.00067112 -7.1075e-18)
(0.99924 -0.0011656 5.1582e-18)