/*--------------------------------*- C++ -*----------------------------------*\
  =========                 |
  \\      /  F ield         | OpenFOAM: The Open Source CFD Toolbox
   \\    /   O peration     | Website:  https://openfoam.org
    \\  /    A nd           | Version:  6.0
     \\/     M anipulation  |
\*---------------------------------------------------------------------------*/
FoamFile
{
    version     2.0;
    format      ascii;
    class       volVectorField;
    location    "13";
    object      U;
}
// * * * * * * * * * * * * * * * * * * * * * * * * * * * * * * * * * * * * * //

dimensions      [0 1 -1 0 0 0 0];

internalField   nonuniform List<vector> 
62000
(
(1.00003 4.15082e-05 -1.03056e-20)
(1.00003 3.66539e-05 8.13742e-21)
(1.00003 3.53368e-05 7.93517e-21)
(1.00003 3.48272e-05 -3.30762e-20)
(1.00003 3.49851e-05 -3.59727e-20)
(1.00003 3.56888e-05 1.18549e-19)
(1.00003 3.69231e-05 -1.24401e-19)
(1.00003 3.8554e-05 6.91214e-20)
(1.00002 4.0578e-05 -3.09783e-20)
(1.00002 4.28632e-05 -1.51755e-19)
(1.00002 4.53683e-05 -1.8518e-20)
(1.00002 4.79723e-05 1.9608e-19)
(1.00002 5.06705e-05 3.84463e-20)
(1.00001 5.33114e-05 -1.30083e-19)
(1.00001 5.58604e-05 1.96015e-19)
(1.00001 5.81872e-05 -1.006e-19)
(1.00001 6.02587e-05 1.00831e-19)
(1 6.19597e-05 -1.15118e-19)
(0.999999 6.3214e-05 5.506e-20)
(0.999995 6.39452e-05 -1.65156e-19)
(0.999991 6.39894e-05 2.10218e-19)
(0.999986 6.32944e-05 6.01501e-20)
(0.999981 6.1603e-05 8.47076e-20)
(0.999975 5.88528e-05 -3.7821e-19)
(0.999969 5.47214e-05 1.35935e-19)
(0.999961 4.91121e-05 -8.1255e-20)
(0.999953 4.17591e-05 -2.99284e-22)
(0.999944 3.23969e-05 -6.22196e-20)
(0.999933 2.08354e-05 1.9329e-19)
(0.999922 6.96274e-06 -1.04525e-19)
(0.999908 -9.27307e-06 2.47292e-19)
(0.999893 -2.81009e-05 -5.02392e-19)
(0.999877 -5.02023e-05 4.86086e-20)
(0.999858 -7.60395e-05 -1.59903e-19)
(0.999837 -0.000104749 -4.84366e-20)
(0.999813 -0.000135803 -1.60015e-19)
(0.999787 -0.000168973 -3.78531e-20)
(0.999757 -0.000204345 -4.02783e-20)
(0.999723 -0.000241883 1.47677e-19)
(0.999686 -0.000281567 6.55967e-19)
(0.999645 -0.000323509 -1.54933e-19)
(0.9996 -0.00036806 -8.45551e-19)
(0.999552 -0.000415886 -1.28493e-18)
(0.999502 -0.000468001 6.63815e-19)
(0.999449 -0.000525289 2.07028e-19)
(0.999398 -0.00058851 -8.49455e-19)
(0.999348 -0.000657344 1.36194e-19)
(0.999303 -0.000730801 -3.23139e-19)
(0.999261 -0.00080815 -1.3704e-18)
(0.999221 -0.000889976 -3.18717e-19)
(0.999178 -0.000984493 -1.44389e-19)
(0.999125 -0.0011034 -1.8109e-18)
(0.999054 -0.00128291 2.97651e-19)
(0.998977 -0.00154818 1.96391e-18)
(0.998903 -0.00193316 4.86013e-19)
(0.99886 -0.00245078 1.72033e-18)
(0.998869 -0.00316169 -1.68622e-19)
(0.998906 -0.00409187 -2.39169e-19)
(0.999819 -0.0059029 5.89862e-19)
(0.992247 -0.00981722 9.39388e-20)
(1.00004 6.59452e-06 -2.75957e-21)
(1.00004 -2.26031e-05 2.50405e-20)
(1.00004 -4.0082e-05 9.87253e-21)
(1.00004 -5.64321e-05 -4.02715e-20)
(1.00004 -7.13863e-05 1.59252e-20)
(1.00003 -8.55587e-05 -1.04855e-19)
(1.00003 -9.88031e-05 9.16519e-20)
(1.00003 -0.000111364 5.07313e-20)
(1.00003 -0.000122955 -9.08156e-20)
(1.00002 -0.000133985 3.76621e-21)
(1.00002 -0.000144564 8.10345e-20)
(1.00002 -0.000154942 1.96298e-22)
(1.00001 -0.000165116 2.16162e-20)
(1.00001 -0.000175449 -1.78611e-19)
(1.00001 -0.000186156 3.46598e-19)
(1 -0.000197425 -2.96408e-19)
(0.999997 -0.00020953 1.34795e-19)
(0.999991 -0.000222406 -2.75574e-20)
(0.999986 -0.000236393 -7.29678e-20)
(0.99998 -0.000251202 1.96449e-19)
(0.999973 -0.000267296 -3.02252e-19)
(0.999966 -0.000284249 1.71458e-19)
(0.999958 -0.00030265 -2.13071e-19)
(0.999949 -0.000322033 1.24498e-19)
(0.99994 -0.00034302 1.12486e-19)
(0.999929 -0.000365219 -7.29594e-20)
(0.999917 -0.000389088 1.98322e-22)
(0.999903 -0.000414454 7.88152e-20)
(0.999889 -0.000441593 6.48476e-20)
(0.999872 -0.00047007 -1.28974e-19)
(0.999853 -0.00049958 2.59607e-19)
(0.999832 -0.000529736 5.07363e-20)
(0.999808 -0.000560784 1.58219e-19)
(0.999781 -0.000592615 8.82979e-21)
(0.999751 -0.000625096 4.16682e-20)
(0.999718 -0.000657824 -5.15358e-20)
(0.99968 -0.000690311 -1.46386e-19)
(0.999638 -0.000722157 -7.66046e-20)
(0.99959 -0.000753457 -3.94914e-19)
(0.999537 -0.00078508 -4.32222e-19)
(0.999478 -0.000818713 3.36263e-19)
(0.999415 -0.000856631 1.89704e-19)
(0.999349 -0.000901353 1.38214e-18)
(0.999284 -0.000954807 7.896e-20)
(0.999221 -0.00101704 -1.95538e-18)
(0.999167 -0.0010855 7.33221e-19)
(0.999123 -0.00115409 5.59093e-19)
(0.999091 -0.0012152 6.31845e-19)
(0.999066 -0.00126365 1.17408e-19)
(0.999039 -0.00130271 2.93909e-20)
(0.998997 -0.00135325 8.77524e-19)
(0.998924 -0.00145206 2.24911e-18)
(0.998817 -0.00166361 -1.4828e-18)
(0.998697 -0.00204126 -3.43929e-18)
(0.998595 -0.00262588 -8.12205e-19)
(0.998561 -0.00340778 -6.49505e-19)
(0.998664 -0.00441929 -1.24132e-18)
(0.998739 -0.00560214 -6.31363e-19)
(1.00037 -0.00744675 9.54709e-19)
(0.997121 -0.0093639 3.82719e-19)
(0.999972 -3.81515e-05 -1.34162e-20)
(0.999972 -8.33571e-05 -1.80139e-21)
(0.999972 -0.000112204 1.87552e-21)
(0.999971 -0.000139153 8.12604e-21)
(0.999971 -0.000164572 2.19098e-20)
(0.99997 -0.000189149 -1.97895e-20)
(0.999969 -0.000212631 1.00768e-19)
(0.999968 -0.000235305 -4.58904e-20)
(0.999967 -0.000256726 -2.3597e-20)
(0.999966 -0.000277435 -1.38992e-19)
(0.999964 -0.000297568 1.12502e-19)
(0.999963 -0.000317428 7.93962e-21)
(0.999961 -0.000336973 -2.38305e-20)
(0.999959 -0.000356621 6.10251e-20)
(0.999956 -0.000376713 -1.00881e-19)
(0.999953 -0.000397359 6.61405e-22)
(0.99995 -0.000418977 -4.33905e-20)
(0.999947 -0.000441291 8.3961e-22)
(0.999943 -0.000464756 9.52058e-20)
(0.999939 -0.000488797 -1.41098e-19)
(0.999935 -0.000513966 8.59272e-20)
(0.99993 -0.000539477 3.2569e-19)
(0.999924 -0.000566022 -4.30071e-20)
(0.999918 -0.000592735 -4.34429e-19)
(0.999911 -0.000620314 2.19457e-19)
(0.999904 -0.000647996 -1.16147e-19)
(0.999895 -0.00067626 1.86752e-19)
(0.999886 -0.000704644 -1.12499e-19)
(0.999875 -0.000733385 -2.17621e-19)
(0.999863 -0.000761819 2.28055e-19)
(0.999849 -0.000789456 -1.58782e-19)
(0.999833 -0.000815722 2.09214e-19)
(0.999815 -0.000840691 -5.71263e-19)
(0.999794 -0.000864336 5.00967e-19)
(0.999771 -0.000887168 -2.63754e-19)
(0.999744 -0.00090954 1.09158e-19)
(0.999715 -0.000931476 8.32423e-20)
(0.999682 -0.000952874 1.53342e-21)
(0.999644 -0.000974259 -1.18835e-20)
(0.999602 -0.000997197 4.64415e-19)
(0.999557 -0.00102406 -1.71594e-19)
(0.999509 -0.00105741 2.59856e-19)
(0.999464 -0.00109914 -8.9791e-19)
(0.999424 -0.00114897 -4.23784e-19)
(0.999396 -0.00120269 4.09769e-19)
(0.999386 -0.00125112 -1.45647e-18)
(0.999399 -0.00127981 1.73553e-19)
(0.999435 -0.00127217 -1.09217e-18)
(0.99949 -0.00121591 1.436e-18)
(0.999551 -0.00111151 3.36787e-19)
(0.999602 -0.000982859 1.78223e-19)
(0.999622 -0.000876554 -5.38446e-20)
(0.999605 -0.000868288 5.9479e-19)
(0.999565 -0.00102552 1.62637e-19)
(0.999531 -0.00139293 -1.05734e-18)
(0.99954 -0.00195244 -6.51226e-19)
(0.999681 -0.002714 -3.37977e-19)
(0.999677 -0.00365264 -1.3454e-18)
(1.00094 -0.00496823 -7.25959e-20)
(0.999897 -0.00479958 2.00799e-19)
(0.999872 -5.10623e-05 -1.33812e-20)
(0.999872 -0.000104004 3.87417e-20)
(0.999873 -0.000138885 -5.61515e-21)
(0.999874 -0.000170987 -3.58584e-20)
(0.999874 -0.000201526 5.12884e-20)
(0.999875 -0.00023113 8.40178e-20)
(0.999876 -0.0002595 -1.04295e-19)
(0.999878 -0.000286878 1.07763e-20)
(0.999879 -0.000312699 3.28169e-20)
(0.99988 -0.000337555 6.52177e-20)
(0.999881 -0.000361589 -1.15509e-19)
(0.999882 -0.000385177 -3.40503e-20)
(0.999882 -0.000408285 -3.64893e-20)
(0.999883 -0.000431392 1.6039e-19)
(0.999883 -0.000454886 -1.03097e-19)
(0.999883 -0.000478927 2.32002e-19)
(0.999883 -0.000503998 -2.72064e-19)
(0.999882 -0.000529741 -3.8307e-20)
(0.999881 -0.000556647 2.68739e-19)
(0.999879 -0.000584006 -9.12475e-20)
(0.999877 -0.00061239 -3.25628e-20)
(0.999875 -0.00064084 -3.3746e-20)
(0.999872 -0.000670109 -2.98242e-19)
(0.999868 -0.000699135 1.69153e-19)
(0.999863 -0.000728691 -7.3653e-20)
(0.999858 -0.000757887 1.17975e-19)
(0.999851 -0.000787238 5.39194e-20)
(0.999843 -0.000816274 2.59765e-19)
(0.999834 -0.000845246 -1.61525e-19)
(0.999823 -0.000873649 -2.05682e-19)
(0.999811 -0.000900936 3.18211e-19)
(0.999796 -0.000926858 -2.58316e-19)
(0.999778 -0.000951478 4.68422e-19)
(0.999758 -0.000975115 -2.77647e-19)
(0.999734 -0.0009989 1.20532e-19)
(0.999706 -0.00102401 1.99008e-19)
(0.999675 -0.00105122 -8.20989e-20)
(0.99964 -0.00108086 9.22974e-20)
(0.9996 -0.00111387 -5.48735e-20)
(0.999554 -0.00115225 1.42091e-19)
(0.999504 -0.0011986 -3.96978e-19)
(0.999451 -0.00125527 1.04087e-19)
(0.999399 -0.0013233 2.14603e-19)
(0.999354 -0.00140069 5.28706e-19)
(0.999321 -0.00148047 6.15636e-19)
(0.999309 -0.00154974 7.58052e-20)
(0.999324 -0.0015896 9.29918e-19)
(0.999371 -0.00157877 9.41498e-19)
(0.999447 -0.00150082 1.09578e-18)
(0.999545 -0.00135329 -7.34081e-19)
(0.999652 -0.00115859 -8.03823e-19)
(0.999747 -0.000963881 5.73008e-19)
(0.999823 -0.00084691 7.45509e-19)
(0.999885 -0.000881611 1.30521e-18)
(0.999955 -0.00111983 7.62287e-19)
(1.00004 -0.00155311 1.43511e-18)
(1.00024 -0.00219744 2.38597e-18)
(1.00024 -0.00313515 -3.13708e-19)
(1.00113 -0.00443414 -1.36116e-18)
(0.999968 -0.00469538 -1.20231e-18)
(0.999771 -4.41639e-05 2.58381e-20)
(0.999772 -0.000104935 -8.16865e-21)
(0.999773 -0.000145026 1.29426e-20)
(0.999775 -0.000180894 -1.73248e-20)
(0.999777 -0.000214604 3.68069e-20)
(0.999779 -0.000246814 -1.72884e-20)
(0.999782 -0.000277357 8.8295e-21)
(0.999784 -0.000306566 -1.2503e-19)
(0.999787 -0.000333909 9.97527e-20)
(0.99979 -0.000360043 -1.89957e-19)
(0.999793 -0.000385237 1.99768e-19)
(0.999796 -0.000409888 -2.31067e-20)
(0.999799 -0.000434011 -4.87934e-20)
(0.999802 -0.000458096 -2.13847e-20)
(0.999804 -0.000482668 -4.4021e-21)
(0.999806 -0.000507848 -2.0067e-19)
(0.999808 -0.000534232 9.15904e-21)
(0.999809 -0.000561397 2.04125e-19)
(0.99981 -0.000589911 -6.39983e-20)
(0.999811 -0.000619037 -6.51978e-20)
(0.999811 -0.000649363 1.07212e-19)
(0.99981 -0.000679899 -5.14929e-20)
(0.999809 -0.000711446 2.11334e-19)
(0.999807 -0.000742876 1.12383e-19)
(0.999803 -0.000775026 8.31481e-20)
(0.999799 -0.000806986 -2.57412e-19)
(0.999794 -0.000839299 -3.55175e-20)
(0.999787 -0.00087156 -1.93011e-19)
(0.999778 -0.000904021 3.60804e-20)
(0.999767 -0.000936318 -6.14463e-20)
(0.999754 -0.000967939 -2.38806e-20)
(0.999738 -0.000998918 1.89457e-19)
(0.999719 -0.00102926 -4.74153e-19)
(0.999696 -0.00105954 -2.22999e-20)
(0.999669 -0.00109132 -2.33697e-19)
(0.999637 -0.00112615 -1.12415e-19)
(0.9996 -0.0011652 2.353e-20)
(0.999557 -0.00120895 -3.48186e-19)
(0.999507 -0.00125848 5.18956e-19)
(0.999448 -0.00131605 9.1114e-20)
(0.999381 -0.00138456 5.48088e-19)
(0.999307 -0.00146659 -3.86333e-19)
(0.999227 -0.00156345 -2.60638e-19)
(0.999147 -0.0016735 -7.94075e-20)
(0.999072 -0.0017904 4.83608e-19)
(0.999012 -0.00190214 6.60191e-19)
(0.998974 -0.00199108 2.01868e-19)
(0.998966 -0.00203708 3.043e-19)
(0.998992 -0.00202432 -2.69784e-19)
(0.999053 -0.00194946 1.9423e-18)
(0.999146 -0.00183171 4.70831e-19)
(0.999257 -0.00171257 -3.42151e-19)
(0.999387 -0.00166184 3.62478e-19)
(0.999539 -0.00174762 1.28036e-18)
(0.999727 -0.0020175 -1.97429e-19)
(0.999943 -0.00246569 -1.07023e-18)
(1.00027 -0.00310271 -2.7682e-18)
(1.00041 -0.00407232 2.41722e-18)
(1.00124 -0.00537453 -1.72695e-18)
(1.00038 -0.00540239 1.55766e-18)
(0.999677 -3.372e-05 -9.78509e-21)
(0.999679 -0.000100004 3.73485e-20)
(0.999681 -0.000144442 -5.826e-20)
(0.999683 -0.000183602 4.12264e-20)
(0.999685 -0.000219954 2.5379e-20)
(0.999688 -0.000254341 -2.55427e-20)
(0.999692 -0.000286749 2.03241e-21)
(0.999695 -0.000317468 -1.73655e-20)
(0.999699 -0.00034596 -5.57295e-20)
(0.999703 -0.000372903 1.02056e-19)
(0.999707 -0.000398668 -1.5128e-19)
(0.999711 -0.000423723 1.26807e-19)
(0.999716 -0.000448207 1.07124e-19)
(0.99972 -0.000472657 -1.59277e-19)
(0.999724 -0.000497683 -4.9942e-20)
(0.999728 -0.000523495 1.80848e-19)
(0.999731 -0.000550774 -2.11238e-19)
(0.999735 -0.000579084 2.82067e-19)
(0.999738 -0.000609046 -5.2231e-20)
(0.99974 -0.000639904 2.82833e-20)
(0.999742 -0.000672267 -4.52442e-20)
(0.999744 -0.000705115 -5.50377e-20)
(0.999745 -0.000739326 -9.90348e-20)
(0.999746 -0.000773704 1.67026e-19)
(0.999745 -0.000809169 -1.12412e-19)
(0.999744 -0.000844785 -1.06884e-19)
(0.999742 -0.000881101 2.15876e-19)
(0.999738 -0.000917733 -2.02257e-19)
(0.999734 -0.000954853 3.15773e-19)
(0.999727 -0.000992128 -1.66746e-19)
(0.999719 -0.00102893 1.23183e-19)
(0.999708 -0.00106537 -2.06497e-19)
(0.999694 -0.00110143 2.17041e-19)
(0.999676 -0.00113756 -2.12709e-20)
(0.999655 -0.00117528 -1.16989e-20)
(0.999629 -0.00121618 -6.57458e-21)
(0.999598 -0.00126117 -1.12078e-19)
(0.99956 -0.00131027 3.07566e-19)
(0.999514 -0.00136424 -2.34669e-19)
(0.999458 -0.00142523 -1.29956e-18)
(0.99939 -0.00149618 -5.30067e-19)
(0.999311 -0.00158005 3.66681e-19)
(0.99922 -0.00167896 -3.95687e-19)
(0.999121 -0.00179281 -4.20128e-19)
(0.999018 -0.00191794 -3.13845e-20)
(0.998918 -0.00204622 1.00376e-18)
(0.998829 -0.00216488 -1.40549e-18)
(0.998762 -0.00225899 -1.36755e-18)
(0.998727 -0.0023168 -8.43419e-19)
(0.998732 -0.00233638 -1.3706e-18)
(0.998784 -0.00233347 9.00515e-19)
(0.998881 -0.00234058 -2.99563e-19)
(0.999035 -0.00241355 -2.42108e-18)
(0.999251 -0.00260479 5.33296e-19)
(0.999546 -0.00294564 5.93893e-19)
(0.999895 -0.00341845 -1.2077e-18)
(1.00036 -0.00401062 7.02637e-19)
(1.00069 -0.00487214 8.24525e-19)
(1.00156 -0.0059673 2.74468e-18)
(1.00152 -0.00515834 1.93972e-20)
(0.999593 -2.58214e-05 1.15024e-20)
(0.999594 -9.76334e-05 -4.90454e-20)
(0.999596 -0.000146124 2.26268e-20)
(0.999598 -0.000188121 4.00424e-20)
(0.9996 -0.000226586 -8.15005e-20)
(0.999603 -0.000262545 6.48639e-20)
(0.999607 -0.000296178 -4.11206e-20)
(0.999611 -0.000327876 3.31963e-20)
(0.999615 -0.000357121 5.04947e-20)
(0.999619 -0.000384654 -1.15926e-19)
(0.999624 -0.000410925 1.60003e-19)
(0.999629 -0.000436445 6.49102e-20)
(0.999634 -0.000461361 -2.48314e-19)
(0.999639 -0.000486241 -4.45914e-20)
(0.999644 -0.000511792 1.21977e-19)
(0.999649 -0.000538212 7.56143e-20)
(0.999654 -0.000566268 -8.86074e-20)
(0.999659 -0.000595498 7.50989e-20)
(0.999664 -0.000626614 1.12435e-19)
(0.999669 -0.000658886 -5.32359e-20)
(0.999674 -0.000692943 -2.96193e-20)
(0.999678 -0.000727788 1.02463e-19)
(0.999683 -0.000764348 2.04995e-19)
(0.999687 -0.000801385 -1.45636e-19)
(0.999692 -0.000839869 -1.56857e-19)
(0.999696 -0.000878831 1.69477e-19)
(0.999699 -0.000918776 -1.28446e-19)
(0.999703 -0.000959301 -5.07618e-20)
(0.999706 -0.00100043 4.15002e-19)
(0.999708 -0.00104169 -1.79195e-19)
(0.99971 -0.00108228 -1.33493e-19)
(0.999711 -0.00112228 1.75872e-19)
(0.99971 -0.00116135 1.19427e-19)
(0.999708 -0.00119974 -1.0541e-19)
(0.999704 -0.00123876 -7.04247e-20)
(0.999697 -0.00127941 2.20557e-19)
(0.999687 -0.00132192 4.70462e-20)
(0.999673 -0.00136537 7.2937e-20)
(0.999652 -0.00140967 -3.75995e-19)
(0.999622 -0.00145629 -3.54016e-19)
(0.999582 -0.0015078 6.86373e-19)
(0.999528 -0.00156715 5.26143e-19)
(0.99946 -0.00163703 8.5529e-19)
(0.999379 -0.00171899 -7.67572e-19)
(0.999287 -0.00181246 -8.2012e-19)
(0.999187 -0.00191407 -5.39478e-19)
(0.999088 -0.00201735 1.25214e-18)
(0.999 -0.0021143 1.16832e-18)
(0.998934 -0.00219928 -1.25473e-18)
(0.998905 -0.00227349 -1.74504e-18)
(0.998928 -0.00235054 -3.22904e-19)
(0.999011 -0.00245429 3.2475e-19)
(0.999174 -0.00262535 3.44169e-20)
(0.999431 -0.00289797 -8.7173e-19)
(0.999796 -0.00328316 7.40371e-19)
(1.00024 -0.0037471 4.1267e-19)
(1.0008 -0.00425176 5.90914e-19)
(1.00126 -0.00494206 -2.45045e-18)
(1.0021 -0.00578753 -1.62159e-19)
(1.00269 -0.00443206 1.03102e-19)
(0.99951 -2.22692e-05 -1.93297e-20)
(0.999509 -9.48314e-05 -1.46137e-20)
(0.999511 -0.000145935 1.87729e-20)
(0.999513 -0.000190058 6.30258e-20)
(0.999515 -0.000230317 -1.28792e-19)
(0.999518 -0.000267951 1.39932e-19)
(0.999522 -0.000303267 -5.95404e-21)
(0.999526 -0.00033652 -7.86576e-21)
(0.999531 -0.000367112 -4.30818e-20)
(0.999536 -0.000395738 9.98219e-20)
(0.999541 -0.000422885 -1.47073e-19)
(0.999546 -0.000449115 5.30876e-20)
(0.999552 -0.000474664 -1.68234e-21)
(0.999557 -0.000500142 7.6546e-20)
(0.999563 -0.000526276 3.50071e-20)
(0.999569 -0.000553388 -1.79681e-19)
(0.999576 -0.000582268 1.50555e-19)
(0.999582 -0.000612486 5.71733e-20)
(0.999589 -0.000644769 -1.59275e-19)
(0.999596 -0.000678426 7.58382e-20)
(0.999603 -0.000714064 3.40899e-20)
(0.999611 -0.000750705 -2.20719e-20)
(0.999619 -0.00078934 2.68263e-20)
(0.999627 -0.00082866 -1.51956e-20)
(0.999636 -0.000869731 -1.71618e-19)
(0.999646 -0.000911531 1.09965e-19)
(0.999656 -0.00095453 -1.63814e-19)
(0.999667 -0.000998299 2.96536e-19)
(0.999679 -0.00104268 -5.5415e-20)
(0.999692 -0.00108709 -3.24443e-20)
(0.999706 -0.00113041 -9.09734e-21)
(0.999721 -0.00117254 2.86692e-19)
(0.999736 -0.00121305 -1.16922e-19)
(0.999753 -0.00125178 -7.03782e-20)
(0.999771 -0.0012895 1.74155e-19)
(0.99979 -0.00132676 1.45594e-19)
(0.999809 -0.00136276 -2.41238e-19)
(0.999827 -0.00139538 4.32059e-20)
(0.999842 -0.00142341 4.49004e-19)
(0.999851 -0.00144734 -3.67587e-20)
(0.999853 -0.0014689 2.72243e-19)
(0.999845 -0.00149066 -3.82781e-19)
(0.999824 -0.00151548 5.61211e-19)
(0.999789 -0.00154605 1.19489e-18)
(0.99974 -0.00158452 3.56391e-19)
(0.999677 -0.00163194 -4.4058e-19)
(0.999608 -0.00168795 -1.29953e-18)
(0.999538 -0.00175162 1.9629e-19)
(0.999482 -0.00182389 3.85107e-19)
(0.999454 -0.00191017 8.37336e-19)
(0.999475 -0.00202341 -1.16283e-19)
(0.999558 -0.00218087 -1.30022e-18)
(0.999731 -0.00241049 1.08648e-18)
(1.00001 -0.00273107 -7.14304e-19)
(1.00041 -0.00313637 1.36281e-18)
(1.0009 -0.00357996 3.382e-19)
(1.00149 -0.00400756 1.46522e-18)
(1.00201 -0.00456832 1.99705e-18)
(1.00276 -0.00527745 3.81418e-19)
(1.00352 -0.00383293 7.05148e-19)
(0.999428 -2.57231e-05 -9.37691e-21)
(0.999424 -0.000103482 7.61583e-21)
(0.999425 -0.000157418 3.6219e-20)
(0.999428 -0.000203388 5.43035e-20)
(0.999431 -0.000244845 -1.52173e-19)
(0.999434 -0.000283258 8.30674e-20)
(0.999438 -0.000319133 -1.41216e-19)
(0.999443 -0.000352793 2.10143e-19)
(0.999447 -0.000383689 -9.37777e-20)
(0.999453 -0.00041252 1.57857e-20)
(0.999458 -0.000439896 1.6492e-19)
(0.999464 -0.000466366 -3.59029e-19)
(0.99947 -0.000492192 2.34415e-19)
(0.999476 -0.000517957 3.16397e-20)
(0.999482 -0.000544498 4.91679e-20)
(0.999489 -0.000572078 -1.98274e-19)
(0.999496 -0.000601557 9.39304e-20)
(0.999503 -0.000632448 -1.12358e-19)
(0.999511 -0.000665576 2.14472e-19)
(0.999519 -0.000700276 -2.7878e-20)
(0.999527 -0.000737144 -2.55363e-19)
(0.999537 -0.000775248 9.8265e-20)
(0.999547 -0.000815634 -5.59778e-21)
(0.999558 -0.000856912 -3.42066e-19)
(0.999571 -0.000900253 2.49678e-19)
(0.999584 -0.000944581 1.82649e-19)
(0.999599 -0.000990326 1.21033e-19)
(0.999616 -0.00103707 -1.52855e-19)
(0.999635 -0.00108451 -1.63583e-19)
(0.999656 -0.00113192 7.46229e-20)
(0.99968 -0.00117791 1.09337e-19)
(0.999706 -0.00122238 -1.30196e-19)
(0.999735 -0.00126446 -1.8966e-19)
(0.999768 -0.0013039 3.90841e-19)
(0.999804 -0.00134116 3.85589e-20)
(0.999845 -0.00137597 -5.64241e-19)
(0.999889 -0.00140686 4.81206e-20)
(0.999937 -0.00143051 3.64977e-19)
(0.999985 -0.00144457 3.39157e-20)
(1.00003 -0.00144856 4.64377e-19)
(1.00008 -0.00144327 -6.07896e-19)
(1.00012 -0.00143061 -3.14837e-20)
(1.00015 -0.00141333 -3.81371e-19)
(1.00016 -0.00139483 1.2674e-19)
(1.00017 -0.0013792 5.76932e-19)
(1.00016 -0.00137102 1.67493e-18)
(1.00014 -0.00137501 2.52464e-19)
(1.00012 -0.00139633 -1.02237e-18)
(1.0001 -0.00144183 7.20742e-19)
(1.00011 -0.00152101 2.51313e-18)
(1.00015 -0.00164719 -1.94697e-18)
(1.00025 -0.00183305 2.23492e-18)
(1.00045 -0.00209729 -1.34296e-18)
(1.00075 -0.00244724 -6.62028e-19)
(1.00117 -0.002865 -2.77985e-18)
(1.00167 -0.0032976 -1.43149e-19)
(1.00226 -0.00368366 -8.7301e-19)
(1.00279 -0.00418216 -9.88602e-19)
(1.00344 -0.00487482 8.59944e-19)
(1.00405 -0.00359548 2.27127e-19)
(0.999349 -3.85399e-05 1.30418e-20)
(0.999343 -0.000118404 4.3121e-21)
(0.999344 -0.000172754 -4.22713e-20)
(0.999346 -0.000218964 3.81494e-20)
(0.999349 -0.000260572 -1.60215e-20)
(0.999353 -0.000299263 2.71874e-20)
(0.999357 -0.000335615 8.86755e-21)
(0.999361 -0.000369744 -1.22705e-19)
(0.999366 -0.000401032 5.07266e-20)
(0.999371 -0.000430079 -3.29348e-20)
(0.999376 -0.000457573 1.90935e-20)
(0.999381 -0.000484078 7.08488e-20)
(0.999387 -0.000509987 -1.27762e-20)
(0.999393 -0.000535875 3.97641e-20)
(0.999399 -0.000562606 -1.61561e-19)
(0.999405 -0.000590551 5.99439e-20)
(0.999412 -0.00062058 2.52499e-20)
(0.999419 -0.000652182 -6.6815e-20)
(0.999427 -0.000686215 1.27903e-19)
(0.999435 -0.000722034 4.05427e-20)
(0.999444 -0.00076017 -4.54644e-21)
(0.999454 -0.000799724 -4.19604e-20)
(0.999465 -0.000841825 1.62078e-19)
(0.999477 -0.000884954 -4.33719e-19)
(0.999491 -0.000930468 2.2042e-19)
(0.999506 -0.000977222 9.11215e-20)
(0.999523 -0.00102566 -1.47824e-19)
(0.999543 -0.00107543 2.55946e-19)
(0.999565 -0.00112607 -1.22124e-19)
(0.99959 -0.00117695 -6.17647e-20)
(0.999618 -0.00122634 -1.16695e-19)
(0.999651 -0.00127408 -4.67212e-20)
(0.999687 -0.00131934 1.27971e-19)
(0.999729 -0.00136166 -3.7783e-19)
(0.999776 -0.00140115 7.05815e-19)
(0.999829 -0.00143724 -5.03809e-20)
(0.99989 -0.00146795 3.46149e-19)
(0.999956 -0.00148899 -8.74943e-19)
(1.00003 -0.00149715 -2.6308e-19)
(1.0001 -0.00149124 1.15949e-20)
(1.00018 -0.00147118 -1.91165e-19)
(1.00025 -0.00143821 -2.27694e-20)
(1.00032 -0.00139492 -6.50247e-19)
(1.00039 -0.00134501 2.19962e-19)
(1.00045 -0.00129382 2.92613e-19)
(1.00049 -0.00124834 -1.53925e-18)
(1.00053 -0.00121696 1.90098e-18)
(1.00056 -0.00120934 2.67266e-19)
(1.0006 -0.00123671 6.7646e-20)
(1.00065 -0.00131181 -1.66354e-18)
(1.00074 -0.00144817 5.78131e-19)
(1.00089 -0.00165523 -1.15495e-18)
(1.00112 -0.00194507 2.13019e-18)
(1.00145 -0.00231741 4.71202e-19)
(1.0019 -0.00274721 -1.69596e-18)
(1.00242 -0.00317921 6.46148e-19)
(1.00299 -0.00355004 -1.85178e-18)
(1.00353 -0.00402458 -4.32917e-19)
(1.00411 -0.00475311 -3.24532e-18)
(1.00442 -0.00369813 -8.99015e-19)
(0.999272 -5.76317e-05 -2.89582e-21)
(0.999264 -0.000140103 -1.07404e-20)
(0.999264 -0.000193866 -8.84962e-21)
(0.999266 -0.000238806 8.08154e-20)
(0.999269 -0.000279266 -4.24714e-20)
(0.999272 -0.000316995 -4.84075e-20)
(0.999275 -0.000352576 -1.72742e-20)
(0.999279 -0.000386151 -6.74418e-20)
(0.999283 -0.000417065 4.00723e-20)
(0.999287 -0.000445888 5.48026e-21)
(0.999292 -0.000473335 1.85354e-21)
(0.999297 -0.000499965 1.49191e-19)
(0.999302 -0.000526095 -1.01293e-19)
(0.999307 -0.000552283 -1.19839e-20)
(0.999312 -0.000579435 1.07016e-19)
(0.999318 -0.000607884 -5.67688e-20)
(0.999324 -0.000638515 -2.10851e-20)
(0.99933 -0.000670749 3.27298e-20)
(0.999337 -0.000705556 1.0202e-19)
(0.999345 -0.000742335 5.41775e-20)
(0.999353 -0.000781575 1.91254e-20)
(0.999362 -0.000822448 -1.28761e-19)
(0.999372 -0.000866173 6.33837e-20)
(0.999384 -0.000911086 1.17923e-19)
(0.999397 -0.000958763 -2.40121e-19)
(0.999411 -0.00100799 7.49322e-20)
(0.999428 -0.00105923 -2.91036e-19)
(0.999446 -0.00111227 2.31977e-19)
(0.999468 -0.00116655 1.9817e-19)
(0.999493 -0.00122157 -2.99876e-19)
(0.999521 -0.00127536 -1.42354e-19)
(0.999554 -0.00132805 1.83618e-19)
(0.999592 -0.00137842 6.11611e-20)
(0.999635 -0.00142622 -1.60763e-19)
(0.999684 -0.00147171 -2.05116e-19)
(0.999741 -0.00151373 -2.3939e-19)
(0.999806 -0.00155042 1.48728e-19)
(0.999879 -0.00157686 3.47423e-19)
(0.99996 -0.00158925 1.23629e-19)
(1.00005 -0.0015861 -9.7542e-20)
(1.00014 -0.00156671 1.11413e-18)
(1.00023 -0.00153177 -1.32411e-19)
(1.00033 -0.00148367 1.09167e-18)
(1.00043 -0.00142624 -1.90148e-18)
(1.00053 -0.00136538 3.23149e-19)
(1.00062 -0.00130949 4.61977e-20)
(1.00071 -0.00126913 -5.06634e-20)
(1.0008 -0.00125666 -1.29433e-18)
(1.0009 -0.00128598 -1.97412e-18)
(1.00101 -0.00137145 1.70815e-18)
(1.00117 -0.00152629 2.16079e-18)
(1.00137 -0.00175706 1.10096e-18)
(1.00165 -0.00207065 -2.05733e-18)
(1.00203 -0.00246162 1.07517e-18)
(1.00252 -0.00290073 2.57112e-18)
(1.00307 -0.0033325 1.08042e-18)
(1.00364 -0.00369294 1.80385e-18)
(1.00419 -0.00414531 9.53333e-19)
(1.00475 -0.00490069 3.16974e-18)
(1.00476 -0.00402456 -2.84417e-18)
(0.999184 -7.8549e-05 3.74886e-21)
(0.999175 -0.000157673 -1.06174e-20)
(0.999175 -0.000208722 3.58921e-20)
(0.999177 -0.000251076 8.89221e-21)
(0.999179 -0.000289725 -4.42369e-20)
(0.999182 -0.000326459 -4.83543e-20)
(0.999185 -0.00036172 1.08617e-19)
(0.999189 -0.000395362 -1.12696e-19)
(0.999193 -0.000426536 -2.63882e-20)
(0.999197 -0.000455651 6.30528e-20)
(0.999201 -0.000483387 5.57414e-20)
(0.999206 -0.000510329 1.62009e-19)
(0.99921 -0.000536845 -8.71924e-20)
(0.999215 -0.000563493 -1.43563e-19)
(0.999219 -0.000591133 3.03447e-20)
(0.999224 -0.000620259 -1.08081e-19)
(0.999229 -0.000651703 7.83097e-20)
(0.999235 -0.000684881 -1.26898e-19)
(0.999241 -0.000720783 2.00386e-20)
(0.999247 -0.000758876 -3.86968e-20)
(0.999254 -0.000799532 -2.3554e-20)
(0.999261 -0.000842 -9.98587e-20)
(0.99927 -0.000887609 9.28551e-21)
(0.999279 -0.000934518 2.05165e-19)
(0.99929 -0.000984595 -6.85607e-20)
(0.999302 -0.00103656 2.10047e-20)
(0.999316 -0.00109093 5.96169e-20)
(0.999332 -0.00114769 -7.63381e-20)
(0.99935 -0.00120619 -1.60964e-20)
(0.999372 -0.00126622 1.03733e-19)
(0.999397 -0.00132565 1.12185e-19)
(0.999426 -0.00138471 -8.12809e-20)
(0.99946 -0.00144241 -2.59e-19)
(0.999499 -0.00149854 -3.66599e-19)
(0.999545 -0.00155337 5.49302e-19)
(0.999598 -0.00160586 1.51477e-19)
(0.99966 -0.00165436 9.81046e-20)
(0.999731 -0.00169366 4.7087e-19)
(0.99981 -0.00171975 -4.11981e-19)
(0.999898 -0.00173119 2.57887e-19)
(0.999995 -0.00172698 2.17764e-20)
(1.0001 -0.00170734 -3.32574e-22)
(1.00021 -0.0016746 -3.98314e-19)
(1.00033 -0.00163253 9.12833e-19)
(1.00046 -0.00158713 -1.1889e-18)
(1.00059 -0.00154726 6.89333e-19)
(1.00072 -0.00152437 -1.84495e-18)
(1.00086 -0.00153186 4.23806e-19)
(1.00102 -0.00158448 1.04407e-18)
(1.0012 -0.00169677 -1.75535e-18)
(1.00142 -0.00188045 -3.28179e-19)
(1.0017 -0.00213915 -1.6203e-20)
(1.00205 -0.0024752 -4.30044e-19)
(1.00249 -0.00287941 -1.18382e-18)
(1.00303 -0.00331978 6.79847e-20)
(1.00362 -0.00374119 1.17333e-18)
(1.00421 -0.00407883 -1.15327e-18)
(1.0048 -0.00448772 -3.21141e-19)
(1.00538 -0.00523068 -3.88451e-19)
(1.00513 -0.00445193 2.18072e-18)
(0.999088 -9.69427e-05 7.01549e-21)
(0.999079 -0.000178633 -5.59541e-21)
(0.999079 -0.000228657 4.85453e-21)
(0.99908 -0.000268962 2.94636e-20)
(0.999083 -0.000305707 4.06198e-20)
(0.999085 -0.000340789 -1.5017e-19)
(0.999088 -0.000374618 1.0313e-19)
(0.999092 -0.000407071 2.04655e-20)
(0.999096 -0.00043732 -5.83386e-21)
(0.999099 -0.00046568 -4.01398e-20)
(0.999103 -0.000492953 1.17526e-19)
(0.999107 -0.000519663 -3.64617e-20)
(0.999112 -0.000546163 -4.83837e-20)
(0.999116 -0.00057293 -1.38651e-19)
(0.99912 -0.000600925 2.66324e-19)
(0.999124 -0.00063057 -5.30705e-20)
(0.999128 -0.000662719 -4.27794e-20)
(0.999132 -0.000696671 -1.22558e-19)
(0.999137 -0.000733565 1.30735e-19)
(0.999141 -0.000772918 7.00795e-20)
(0.999146 -0.000815014 -3.12806e-20)
(0.999152 -0.000859201 5.18239e-20)
(0.999158 -0.000906923 -2.14939e-19)
(0.999165 -0.000956135 1.45318e-20)
(0.999173 -0.00100901 1.12752e-19)
(0.999182 -0.00106419 -2.07315e-20)
(0.999193 -0.00112225 -3.31087e-19)
(0.999205 -0.00118339 2.93454e-20)
(0.999219 -0.0012469 2.82554e-19)
(0.999236 -0.00131294 -7.4793e-20)
(0.999256 -0.0013792 -1.40608e-19)
(0.999279 -0.00144642 8.25335e-20)
(0.999307 -0.00151328 2.34369e-19)
(0.99934 -0.00158003 5.44363e-19)
(0.999378 -0.00164742 -8.20775e-20)
(0.999424 -0.00171408 1.1525e-19)
(0.999478 -0.00177914 -8.263e-19)
(0.999542 -0.00183733 -2.24943e-19)
(0.999614 -0.00188469 1.44438e-19)
(0.999697 -0.00192011 -6.02459e-19)
(0.999791 -0.00194252 -1.15476e-19)
(0.999897 -0.00195185 2.68676e-19)
(1.00001 -0.00195041 2.46965e-19)
(1.00015 -0.00194179 6.09189e-19)
(1.00029 -0.00193172 1.87678e-18)
(1.00045 -0.00192882 -1.43378e-18)
(1.00062 -0.00194433 2.23307e-18)
(1.00081 -0.0019914 1.58531e-18)
(1.00102 -0.00208411 -1.82637e-20)
(1.00127 -0.00223577 1.92673e-18)
(1.00156 -0.00245577 -2.42671e-18)
(1.00191 -0.00274424 -2.79132e-18)
(1.00234 -0.00309938 2.09227e-18)
(1.00285 -0.00350858 1.74176e-18)
(1.00346 -0.00393801 -7.49418e-19)
(1.00411 -0.00433274 -3.86262e-18)
(1.00474 -0.0046269 8.74417e-19)
(1.00536 -0.00496388 -1.02799e-18)
(1.00599 -0.0056503 -1.66561e-18)
(1.00556 -0.0048874 1.91003e-18)
(0.998992 -0.000112037 -7.59529e-21)
(0.998982 -0.000191976 7.8578e-21)
(0.998981 -0.000239602 5.06812e-20)
(0.998982 -0.000277362 -6.26469e-20)
(0.998983 -0.000312145 1.07968e-19)
(0.998985 -0.00034602 -1.50416e-19)
(0.998987 -0.000379239 4.03766e-20)
(0.99899 -0.00041138 -1.87384e-21)
(0.998993 -0.000441488 8.11843e-20)
(0.998996 -0.000469687 -4.0754e-20)
(0.999 -0.000496838 1.15246e-20)
(0.999003 -0.000523482 1.12934e-20)
(0.999006 -0.000550103 -1.68706e-19)
(0.999009 -0.000577141 4.83591e-20)
(0.999013 -0.000605576 1.07445e-19)
(0.999016 -0.000635977 3.13976e-21)
(0.999019 -0.000669187 -1.65945e-19)
(0.999022 -0.00070442 6.52902e-20)
(0.999025 -0.000742896 2.93762e-19)
(0.999028 -0.00078417 -1.85478e-19)
(0.999031 -0.000828389 -1.36279e-19)
(0.999035 -0.000874972 1.11836e-19)
(0.999039 -0.000925515 6.98288e-20)
(0.999043 -0.000977716 7.52866e-20)
(0.999049 -0.00103412 -1.42003e-19)
(0.999055 -0.00109327 -2.98928e-19)
(0.999062 -0.00115584 2.20313e-19)
(0.99907 -0.00122226 3.06842e-19)
(0.99908 -0.00129177 8.37715e-20)
(0.999093 -0.00136495 -1.61831e-19)
(0.999107 -0.00143941 7.26836e-20)
(0.999125 -0.00151611 1.21946e-19)
(0.999146 -0.00159408 -2.03667e-19)
(0.999171 -0.00167367 -2.95568e-20)
(0.999202 -0.00175586 -3.56065e-19)
(0.99924 -0.00183966 -9.13747e-20)
(0.999286 -0.00192478 -9.40193e-20)
(0.99934 -0.00200615 2.37883e-19)
(0.999405 -0.00208002 -3.37744e-19)
(0.999481 -0.00214583 9.05685e-20)
(0.999569 -0.0022026 1.62911e-19)
(0.999672 -0.00225009 4.42788e-20)
(0.999791 -0.00229061 -9.27439e-19)
(0.999928 -0.00232749 -1.27586e-18)
(1.00009 -0.00236591 -1.05323e-18)
(1.00026 -0.00241373 2.11735e-18)