/*--------------------------------*- C++ -*----------------------------------*\
  =========                 |
  \\      /  F ield         | OpenFOAM: The Open Source CFD Toolbox
   \\    /   O peration     | Website:  https://openfoam.org
    \\  /    A nd           | Version:  6.0
     \\/     M anipulation  |
\*---------------------------------------------------------------------------*/
FoamFile
{
    version     2.0;
    format      ascii;
    class       surfaceScalarField;
    location    "7";
    object      phi;
}
// * * * * * * * * * * * * * * * * * * * * * * * * * * * * * * * * * * * * * //

dimensions      [0 3 -1 0 0 0 0];

internalField   nonuniform List<scalar> 
123526
(
-5.48274e-05
2.30609e-05
5.52101e-05
-5.4419e-05
2.49386e-05
-5.39682e-05
2.69693e-05
-5.34884e-05
2.91657e-05
-5.29608e-05
3.15413e-05
-5.23974e-05
3.41108e-05
-5.17795e-05
3.68903e-05
-5.11179e-05
3.9897e-05
-5.03923e-05
4.31488e-05
-4.96136e-05
4.66667e-05
-4.87618e-05
5.04735e-05
-4.78475e-05
5.45923e-05
-4.68485e-05
5.9049e-05
-4.57729e-05
6.38688e-05
-4.45963e-05
6.90837e-05
-4.33312e-05
7.47303e-05
-4.19537e-05
8.08411e-05
-4.04639e-05
8.74472e-05
-3.884e-05
9.45995e-05
-3.70894e-05
0.000102344
-3.51801e-05
0.000110717
-3.3112e-05
0.000119779
-3.08678e-05
0.000129593
-2.84268e-05
0.000140197
-2.57762e-05
0.000151683
-2.29006e-05
0.000164103
-1.97706e-05
0.000177535
-1.63783e-05
0.000192068
-1.26842e-05
0.00020777
-8.68121e-06
0.000224752
-4.32674e-06
0.000243087
3.94478e-07
0.000262895
5.52191e-06
0.000284262
1.10836e-05
0.000307302
1.71069e-05
0.000332123
2.36395e-05
0.000358812
3.07061e-05
0.000387497
3.83497e-05
0.000418254
4.6611e-05
0.000451167
5.55173e-05
0.000486313
6.51015e-05
0.000523721
7.53974e-05
0.000563393
8.64248e-05
0.000605291
9.82009e-05
0.000649303
0.000110741
0.000695223
0.00012406
0.000742717
0.000138176
0.00079127
0.00015311
0.000840112
0.00016889
0.00088813
0.000185529
0.000933773
0.000203015
0.000974951
0.000221276
0.00100897
0.000240165
0.00103246
0.000259415
0.00104139
0.000278682
0.0010309
0.000297456
0.000995228
0.000315181
0.000927116
0.000331155
0.000817664
0.00034454
0.000649163
0.000414145
0.000339288
-5.30195e-05
2.26804e-05
5.34001e-05
-5.26171e-05
2.45302e-05
-5.21768e-05
2.65308e-05
-5.17111e-05
2.86949e-05
-5.12032e-05
3.10355e-05
-5.06643e-05
3.35672e-05
-5.00775e-05
3.63055e-05
-4.94521e-05
3.92673e-05
-4.87698e-05
4.24692e-05
-4.80396e-05
4.59324e-05
-4.72427e-05
4.96798e-05
-4.63877e-05
5.37334e-05
-4.54536e-05
5.81185e-05
-4.44459e-05
6.28575e-05
-4.33415e-05
6.79829e-05
-4.21497e-05
7.35351e-05
-4.08484e-05
7.95429e-05
-3.94345e-05
8.60302e-05
-3.78883e-05
9.30558e-05
-3.62138e-05
0.000100667
-3.43819e-05
0.000108887
-3.2389e-05
0.000117784
-3.02212e-05
0.000127427
-2.78545e-05
0.000137828
-2.52799e-05
0.00014911
-2.24784e-05
0.000161301
-1.94252e-05
0.000174483
-1.61084e-05
0.000188752
-1.24933e-05
0.000204156
-8.56922e-06
0.000220828
-4.29712e-06
0.000238815
3.41693e-07
0.000258256
5.38346e-06
0.000279223
1.08524e-05
0.000301837
1.67718e-05
0.000326206
2.3185e-05
0.0003524
3.01128e-05
0.00038057
3.75938e-05
0.000410774
4.56649e-05
0.000443097
5.43496e-05
0.000477629
6.36781e-05
0.000514393
7.36829e-05
0.000553387
8.43865e-05
0.000594585
9.58123e-05
0.000637873
0.000107987
0.000683042
0.000120943
0.000729752
0.000134716
0.000777483
0.000149348
0.00082546
0.000164876
0.000872574
0.000181321
0.000917291
0.00019866
0.00095756
0.000216805
0.000990752
0.000235586
0.0010136
0.000254715
0.00102216
0.000273831
0.00101168
0.000292421
0.000976517
0.000309909
0.000909538
0.000325885
0.000801577
0.000335387
0.000639616
0.000419572
0.000329868
-5.22234e-05
2.23014e-05
5.26026e-05
-5.1819e-05
2.41202e-05
-5.13743e-05
2.60878e-05
-5.09008e-05
2.82167e-05
-5.03832e-05
3.05199e-05
-4.98321e-05
3.30118e-05
-4.92322e-05
3.57076e-05
-4.85928e-05
3.86239e-05
-4.78973e-05
4.17762e-05
-4.71547e-05
4.51859e-05
-4.63481e-05
4.88761e-05
-4.54861e-05
5.28675e-05
-4.4549e-05
5.71849e-05
-4.35428e-05
6.18476e-05
-4.24453e-05
6.68888e-05
-4.12657e-05
7.23522e-05
-3.99826e-05
7.82629e-05
-3.85927e-05
8.46373e-05
-3.70767e-05
9.15424e-05
-3.54383e-05
9.9026e-05
-3.36485e-05
0.000107099
-3.17035e-05
0.000115837
-2.95894e-05
0.000125314
-2.72822e-05
0.00013552
-2.47734e-05
0.000146602
-2.20437e-05
0.000158571
-1.90692e-05
0.000171509
-1.58379e-05
0.000185521
-1.23166e-05
0.000200635
-8.49421e-06
0.000217006
-4.33344e-06
0.000234653
1.84489e-07
0.000253739
5.09395e-06
0.000274316
1.04169e-05
0.000296518
1.61752e-05
0.000320451
2.24104e-05
0.000346167
2.9142e-05
0.00037384
3.64082e-05
0.000403509
4.4246e-05
0.000435261
5.26804e-05
0.000469196
6.17447e-05
0.00050533
7.14765e-05
0.000543656
8.19054e-05
0.000584157
9.30641e-05
0.000626715
0.00010499
0.000671114
0.000117727
0.000717013
0.000131318
0.000763887
0.000145808
0.000810963
0.000161232
0.000857141
0.000177597
0.000900914
0.000194863
0.000940283
0.000212918
0.000972679
0.000231578
0.000994932
0.000250541
0.00100319
0.000269445
0.000992806
0.00028778
0.000958197
0.000304951
0.000892432
0.000320639
0.000785938
0.000330546
0.000629813
0.00042027
0.000330004
-5.21351e-05
2.19258e-05
5.25123e-05
-5.17312e-05
2.37118e-05
-5.12853e-05
2.56441e-05
-5.08075e-05
2.7735e-05
-5.02831e-05
2.99978e-05
-4.97213e-05
3.24464e-05
-4.91079e-05
3.50962e-05
-4.84511e-05
3.79636e-05
-4.77356e-05
4.10632e-05
-4.69698e-05
4.44168e-05
-4.61386e-05
4.80476e-05
-4.525e-05
5.19757e-05
-4.42868e-05
5.6225e-05
-4.32545e-05
6.08122e-05
-4.21334e-05
6.57709e-05
-4.09326e-05
7.11484e-05
-3.96326e-05
7.69658e-05
-3.82303e-05
8.32323e-05
-3.6708e-05
9.00225e-05
-3.50693e-05
9.73851e-05
-3.32865e-05
0.000105319
-3.13558e-05
0.000113905
-2.92639e-05
0.000123224
-2.69872e-05
0.000133242
-2.45173e-05
0.000144133
-2.18353e-05
0.000155889
-1.89178e-05
0.000168593
-1.57529e-05
0.000182356
-1.23083e-05
0.000197191
-8.57315e-06
0.000213271
-4.5114e-06
0.000230591
-1.05161e-07
0.000249333
4.67934e-06
0.000269534
9.8642e-06
0.000291337
1.54709e-05
0.000314847
2.15409e-05
0.000340098
2.80941e-05
0.000367288
3.51693e-05
0.000396435
4.28048e-05
0.000427627
5.10285e-05
0.000460974
5.98772e-05
0.000496483
6.93935e-05
0.000534142
7.96127e-05
0.00057394
9.05743e-05
0.000615755
0.000102323
0.000659368
0.000114905
0.000704433
0.000128366
0.000750426
0.00014275
0.00079658
0.000158081
0.000841809
0.000174352
0.00088464
0.000191509
0.000923119
0.000209425
0.000954751
0.000227903
0.000976443
0.000246639
0.000984432
0.000265275
0.000974166
0.000283309
0.000940148
0.000300133
0.00087562
0.000315376
0.0007707
0.000326622
0.000618631
0.000417059
0.000329897
-5.2127e-05
2.1554e-05
5.24989e-05
-5.17277e-05
2.33076e-05
-5.12868e-05
2.52047e-05
-5.08134e-05
2.72575e-05
-5.0293e-05
2.94791e-05
-4.97338e-05
3.18834e-05
-4.91217e-05
3.44857e-05
-4.8464e-05
3.73024e-05
-4.77457e-05
4.0347e-05
-4.69745e-05
4.3642e-05
-4.61355e-05
4.72111e-05
-4.52366e-05
5.10733e-05
-4.42612e-05
5.52525e-05
-4.3215e-05
5.97625e-05
-4.20789e-05
6.46379e-05
-4.08629e-05
6.99292e-05
-3.95483e-05
7.5654e-05
-3.8133e-05
8.18142e-05
-3.66004e-05
8.84923e-05
-3.49548e-05
9.57372e-05
-3.31699e-05
0.000103535
-3.12422e-05
0.000111976
-2.91598e-05
0.000121143
-2.68994e-05
0.000130981
-2.44535e-05
0.000141689
-2.18035e-05
0.000153238
-1.89268e-05
0.000165717
-1.58119e-05
0.000179242
-1.24272e-05
0.000193807
-8.76219e-06
0.000209607
-4.78193e-06
0.00022661
-4.69577e-07
0.000245021
4.20888e-06
0.000264859
9.27639e-06
0.000286274
1.47547e-05
0.000309372
2.06856e-05
0.000334169
2.70899e-05
0.000360885
3.4007e-05
0.000389519
4.14769e-05
0.000420159
4.95294e-05
0.000452924
5.82043e-05
0.000487811
6.75472e-05
0.000524802
7.75976e-05
0.000563892
8.83987e-05
0.000604957
9.99978e-05
0.000647771
0.000112443
0.00069199
0.00012578
0.000737091
0.000140044
0.000782316
0.000155254
0.0008266
0.000171392
0.000868502
0.00018839
0.000906123
0.000206112
0.000937029
0.000224358
0.000958212
0.000242825
0.000965983
0.000261159
0.000955879
0.000278866
0.00092248
0.00029535
0.000859217
0.000310111
0.000756
0.00032201
0.00060684
0.000411965
0.00032725
-5.19264e-05
2.11901e-05
5.22919e-05
-5.15354e-05
2.29126e-05
-5.11047e-05
2.47758e-05
-5.06424e-05
2.67918e-05
-5.01346e-05
2.89732e-05
-4.95884e-05
3.1334e-05
-4.89903e-05
3.38893e-05
-4.83463e-05
3.66553e-05
-4.76419e-05
3.96447e-05
-4.68832e-05
4.28804e-05
-4.60561e-05
4.63865e-05
-4.51672e-05
5.01814e-05
-4.42006e-05
5.42888e-05
-4.31609e-05
5.872e-05
-4.20303e-05
6.35103e-05
-4.08176e-05
6.87139e-05
-3.95058e-05
7.43449e-05
-3.80924e-05
8.03984e-05
-3.65623e-05
8.69644e-05
-3.49197e-05
9.40926e-05
-3.31399e-05
0.000101757
-3.12199e-05
0.000110054
-2.91489e-05
0.000119074
-2.69045e-05
0.000128736
-2.448e-05
0.000139265
-2.18576e-05
0.000150616
-1.90156e-05
0.000162876
-1.5943e-05
0.00017617
-1.26092e-05
0.000190474
-9.00406e-06
0.000206002
-5.09373e-06
0.0002227
-8.62029e-07
0.00024079
3.72512e-06
0.000260274
8.69188e-06
0.000281311
1.40603e-05
0.000304007
1.98726e-05
0.000328358
2.61504e-05
0.000354608
3.29341e-05
0.000382737
4.02644e-05
0.00041283
4.81729e-05
0.000445017
5.67013e-05
0.000479285
6.58971e-05
0.000515609
7.58019e-05
0.000553991
8.64609e-05
0.000594302
9.79222e-05
0.000636314
0.000110233
0.000679684
0.000123436
0.000723894
0.000137563
0.000768196
0.000152623
0.000811548
0.00016859
0.000852544
0.000185389
0.000889332
0.000202877
0.000919546
0.000220854
0.000940246
0.000239022
0.000947825
0.000257032
0.000937893
0.000274403
0.000905131
0.000290554
0.00084311
0.000304857
0.000741742
0.000316734
0.00059506
0.000406101
0.000322714
-5.15174e-05
2.08355e-05
5.18727e-05
-5.11372e-05
2.25283e-05
-5.07191e-05
2.43592e-05
-5.02706e-05
2.63399e-05
-4.97786e-05
2.84829e-05
-4.92495e-05
3.08019e-05
-4.86703e-05
3.33117e-05
-4.80464e-05
3.60284e-05
-4.73635e-05
3.89637e-05
-4.6627e-05
4.21408e-05
-4.58228e-05
4.55845e-05
-4.49567e-05
4.93122e-05
-4.40128e-05
5.33474e-05
-4.29949e-05
5.7699e-05
-4.18855e-05
6.24035e-05
-4.06928e-05
6.75183e-05
-3.93999e-05
7.30544e-05
-3.80043e-05
7.90002e-05
-3.64914e-05
8.54536e-05
-3.48655e-05
9.24647e-05
-3.31029e-05
9.99965e-05
-3.12009e-05
0.000108151
-2.91495e-05
0.000117024
-2.69274e-05
0.000126513
-2.45284e-05
0.000136868
-2.19358e-05
0.000148023
-1.91286e-05
0.00016007
-1.60967e-05
0.000173139
-1.28101e-05
0.000187188
-9.25969e-06
0.000202452
-5.41226e-06
0.000218852
-1.25239e-06
0.00023663
3.25423e-06
0.00025577
8.13235e-06
0.000276436
1.34047e-05
0.000298737
1.91139e-05
0.000322651
2.5282e-05
0.000348441
3.195e-05
0.000376071
3.91594e-05
0.000405623
4.69428e-05
0.000437236
5.53427e-05
0.000470888
6.44077e-05
0.000506547
7.41805e-05
0.000544221
8.47064e-05
0.000583779
9.6033e-05
0.00062499
0.000108206
0.000667514
0.000121264
0.000710838
0.000135233
0.000754228
0.000150117
0.000796666
0.000165882
0.000836779
0.00018245
0.000872768
0.000199674
0.000902322
0.000217356
0.000922578
0.000235205
0.000929995
0.00025288
0.000920263
0.000269908
0.000888141
0.000285734
0.000827356
0.000299621
0.000727908
0.000311142
0.00058363
0.000400104
0.000317258
-5.09582e-05
2.04907e-05
5.13053e-05
-5.05881e-05
2.2155e-05
-5.01818e-05
2.39549e-05
-4.97464e-05
2.59018e-05
-4.92695e-05
2.8008e-05
-4.87571e-05
3.02869e-05
-4.81968e-05
3.27531e-05
-4.75933e-05
3.54224e-05
-4.69332e-05
3.83055e-05
-4.62207e-05
4.14259e-05
-4.54426e-05
4.48086e-05
-4.46034e-05
4.84704e-05
-4.36879e-05
5.24346e-05
-4.26988e-05
5.67074e-05
-4.1619e-05
6.13264e-05
-4.04555e-05
6.63524e-05
-3.91921e-05
7.17934e-05
-3.78253e-05
7.76313e-05
-3.63412e-05
8.39715e-05
-3.47435e-05
9.08651e-05
-3.30091e-05
9.82638e-05
-3.11355e-05
0.000106276
-2.91132e-05
0.000115003
-2.69214e-05
0.00012432
-2.45546e-05
0.000134502
-2.19967e-05
0.000145465
-1.92278e-05
0.000157302
-1.62381e-05
0.000170149
-1.29988e-05
0.000183949
-9.50113e-06
0.000198955
-5.71296e-06
0.000215063
-1.61919e-06
0.000232537
2.81407e-06
0.000251339
7.61247e-06
0.000271641
1.27989e-05
0.000293554
1.84161e-05
0.000317035
2.44867e-05
0.000342372
3.10517e-05
0.000369507
3.8153e-05
0.000398523
4.58235e-05
0.000429568
5.41063e-05
0.000462608
6.30501e-05
0.000497606
7.26973e-05
0.000534578
8.30929e-05
0.000573388
9.42829e-05
0.000613806
0.00010631
0.000655493
0.00011921
0.000697945
0.000133003
0.000740443
0.000147688
0.000781991
0.000163228
0.000821251
0.00017954
0.000856468
0.000196479
0.000885395
0.000213849
0.000905226
0.000231367
0.000912496
0.0002487
0.000902963
0.000265386
0.000871491
0.000280888
0.00081191
0.000294403
0.000714453
0.000305475
0.000572669
0.000394224
0.00031149
-5.03045e-05
2.01535e-05
5.06422e-05
-4.99434e-05
2.17902e-05
-4.95474e-05
2.35601e-05
-4.91233e-05
2.54745e-05
-4.86593e-05
2.75454e-05
-4.81611e-05
2.97859e-05
-4.76169e-05
3.22103e-05
-4.70314e-05
3.48342e-05
-4.63914e-05
3.7667e-05
-4.57012e-05
4.07328e-05
-4.49476e-05
4.40568e-05
-4.41348e-05
4.76548e-05
-4.32478e-05
5.15497e-05
-4.22888e-05
5.57456e-05
-4.12408e-05
6.02806e-05
-4.01101e-05
6.52191e-05
-3.88805e-05
7.0566e-05
-3.75482e-05
7.62967e-05
-3.60992e-05
8.25244e-05
-3.45366e-05
8.93008e-05
-3.2838e-05
9.65668e-05
-3.10003e-05
0.000104437
-2.90145e-05
0.000113018
-2.686e-05
0.000122165
-2.45319e-05
0.000132175
-2.20142e-05
0.000142947
-1.92879e-05
0.000154576
-1.63436e-05
0.000167206
-1.31533e-05
0.000180759
-9.70872e-06
0.00019551
-5.97848e-06
0.000211333
-1.94795e-06
0.000228506
2.4166e-06
0.000246977
7.14069e-06
0.000266921
1.22479e-05
0.000288449
1.77804e-05
0.000311504
2.37613e-05
0.000336392
3.02312e-05
0.000363039
3.72321e-05
0.000391524
4.4797e-05
0.000422006
5.29686e-05
0.000454439
6.17953e-05
0.000488782
7.13188e-05
0.000525057
8.15827e-05
0.000563127
9.26311e-05
0.00060276
0.000104504
0.000643622
0.000117233
0.000685218
0.000130835
0.000726843
0.000145304
0.000767523
0.0001606
0.000805955
0.000176639
0.00084043
0.000193278
0.000868754
0.000210325
0.000888187
0.000227508
0.000895327
0.000244499
0.000886008
0.000260844
0.000855175
0.000276028
0.000796781
0.000289208
0.000701311
0.000299847
0.000562097
0.000388449
0.000305703
-4.95917e-05
1.98237e-05
4.99234e-05
-4.92381e-05
2.14336e-05
-4.88506e-05
2.31744e-05
-4.84358e-05
2.50573e-05
-4.79827e-05
2.7094e-05
-4.74965e-05
2.92974e-05
-4.69662e-05
3.16816e-05
-4.63959e-05
3.42617e-05
-4.57734e-05
3.70463e-05
-4.51023e-05
4.00596e-05
-4.43704e-05
4.33269e-05
-4.35812e-05
4.68633e-05
-4.27204e-05
5.06913e-05
-4.17895e-05
5.48124e-05
-4.07721e-05
5.92657e-05
-3.96737e-05
6.41186e-05
-3.84786e-05
6.93731e-05
-3.71821e-05
7.49983e-05
-3.57705e-05
8.11147e-05
-3.42463e-05
8.7775e-05
-3.25872e-05
9.49092e-05
-3.07899e-05
0.000102638
-2.88453e-05
0.000111075
-2.67331e-05
0.000120052
-2.44483e-05
0.000129891
-2.19753e-05
0.000140474
-1.92955e-05
0.000151897
-1.63998e-05
0.00016431
-1.3261e-05
0.000177621
-9.87081e-06
0.000192121
-6.19873e-06
0.00020766
-2.23023e-06
0.000224538
2.06754e-06
0.000242681
6.72054e-06
0.000262271
1.17521e-05
0.00028342
1.72041e-05
0.000306054
2.30995e-05
0.000330498
2.94786e-05
0.000356661
3.63829e-05
0.000384622
4.38451e-05
0.000414546
5.19075e-05
0.00044638
6.06175e-05
0.000480076
7.00157e-05
0.000515663
8.01442e-05
0.000553003
9.10447e-05
0.000591865
0.000102755
0.000631919
0.000115302
0.000672678
0.000128699
0.000713454
0.000142939
0.000753294
0.000157979
0.000790928
0.000173734
0.000824689
0.000190066
0.000852436
0.000206787
0.000871485
0.000223632
0.000878504
0.000240283
0.000869393
0.000256295
0.000839203
0.000271165
0.000781969
0.000284038
0.000688503
0.000294304
0.000551941
0.000382877
0.000300015
-4.88452e-05
1.95e-05
4.91699e-05
-4.84983e-05
2.10836e-05
-4.81186e-05
2.27961e-05
-4.7712e-05
2.46483e-05
-4.72683e-05
2.66517e-05
-4.67922e-05
2.88191e-05
-4.62735e-05
3.11642e-05
-4.57161e-05
3.3702e-05
-4.51083e-05
3.644e-05
-4.44536e-05
3.94025e-05
-4.37403e-05
4.26152e-05
-4.29717e-05
4.60921e-05
-4.2134e-05
4.98555e-05
-4.12284e-05
5.39042e-05
-4.02388e-05
5.82781e-05
-3.91704e-05
6.30478e-05
-3.80076e-05
6.82121e-05
-3.67455e-05
7.37342e-05
-3.53706e-05
7.97414e-05
-3.38847e-05
8.62875e-05
-3.22658e-05
9.32918e-05
-3.05102e-05
0.000100882
-2.86088e-05
0.000109175
-2.65412e-05
0.000117984
-2.43025e-05
0.000127654
-2.18771e-05
0.000138049
-1.92467e-05
0.000149268
-1.64022e-05
0.000161466
-1.33168e-05
0.000174536
-9.98271e-06
0.000188787
-6.3696e-06
0.000204047
-2.46335e-06
0.000220632
1.76862e-06
0.000238452
6.35147e-06
0.000257692
1.13089e-05
0.000278466
1.66821e-05
0.000300682
2.24936e-05
0.000324688
2.87833e-05
0.000350373
3.5592e-05
0.000377816
4.29519e-05
0.000407188
5.09044e-05
0.00043843
5.94958e-05
0.000471487
6.87654e-05
0.000506396
7.87535e-05
0.000543018
8.94995e-05
0.000581121
0.000101038
0.000620383
0.000113394
0.000660324
0.000126578
0.00070027
0.00014058
0.000739293
0.000155355
0.000776152
0.000170821
0.000809221
0.000186842
0.000836409
0.000203237
0.000855094
0.000219748
0.000862002
0.000236064
0.000853104
0.00025175
0.000823539
0.000266314
0.000767447
0.000278904
0.000675938
0.000288858
0.000542035
0.000377331
0.000294457
-4.80788e-05
1.91829e-05
4.83984e-05
-4.77382e-05
2.07408e-05
-4.73656e-05
2.24254e-05
-4.69666e-05
2.42475e-05
-4.65315e-05
2.62184e-05
-4.60647e-05
2.83506e-05
-4.55566e-05
3.06576e-05
-4.50106e-05
3.31542e-05
-4.44158e-05
3.58469e-05
-4.37752e-05
3.87602e-05
-4.3078e-05
4.19199e-05
-4.2327e-05
4.53393e-05
-4.15094e-05
4.904e-05
-4.06256e-05
5.30186e-05
-3.96608e-05
5.73155e-05
-3.86192e-05
6.20044e-05
-3.7486e-05
6.7081e-05
-3.62558e-05
7.25023e-05
-3.49155e-05
7.84028e-05
-3.34662e-05
8.48369e-05
-3.18865e-05
9.17135e-05
-3.01721e-05
9.91662e-05
-2.83139e-05
0.000107318
-2.62915e-05
0.000115961
-2.40998e-05
0.000125463
-2.17233e-05
0.000135672
-1.91437e-05
0.000146689
-1.6352e-05
0.000158675
-1.33217e-05
0.000171507
-1.00448e-05
0.00018551
-6.49172e-06
0.000200493
-2.64811e-06
0.000216789
1.5175e-06
0.000234289
6.03049e-06
0.000253182
1.09139e-05
0.000273585
1.62083e-05
0.00029539
2.19359e-05
0.000318962
2.81357e-05
0.000344175
3.48479e-05
0.000371105
4.21039e-05
0.000399934
4.99443e-05
0.000430592
5.84139e-05
0.000463021
6.75507e-05
0.000497263
7.73931e-05
0.00053318
8.79786e-05
0.000570541
9.93393e-05
0.000609028
0.000111498
0.000648173
0.000124461
0.000687314
0.000138218
0.000725547
0.000152725
0.000761658
0.0001679
0.00079406
0.00018361
0.000820712
0.000199682
0.000839041
0.000215864
0.000845842
0.000231852
0.000837152
0.000247223
0.000808211
0.000261488
0.00075324
0.000273814
0.000663679
0.000283509
0.00053245
0.00037195
0.00028903
-4.73037e-05
1.88711e-05
4.76163e-05
-4.69694e-05
2.04036e-05
-4.66037e-05
2.20609e-05
-4.6212e-05
2.38535e-05
-4.57849e-05
2.57925e-05
-4.53265e-05
2.78902e-05
-4.48278e-05
3.016e-05
-4.42919e-05
3.26163e-05
-4.37085e-05
3.52647e-05
-4.30806e-05
3.813e-05
-4.23976e-05
4.12382e-05
-4.16623e-05
4.46016e-05
-4.08623e-05
4.82415e-05
-3.99981e-05
5.2152e-05
-3.90552e-05
5.63743e-05
-3.80377e-05
6.09846e-05
-3.69311e-05
6.5976e-05
-3.57299e-05
7.12994e-05
-3.44213e-05
7.70958e-05
-3.30063e-05
8.34205e-05
-3.14635e-05
9.01721e-05
-2.97885e-05
9.74902e-05
-2.79721e-05
0.000105503
-2.5994e-05
0.000113982
-2.38489e-05
0.000123319
-2.15212e-05
0.000133345
-1.89928e-05
0.000144161
-1.62543e-05
0.000155937
-1.32798e-05
0.000168533
-1.0061e-05
0.000182292
-6.56866e-06
0.000197001
-2.7886e-06
0.000213009
1.31044e-06
0.000230192
5.75267e-06
0.000248743
1.05614e-05
0.000268779
1.57761e-05
0.000290177
2.14186e-05
0.000313321
2.75271e-05
0.000338068
3.41409e-05
0.000364494
4.12907e-05
0.000392787
4.9016e-05
0.00042287
5.73602e-05
0.000454679
6.636e-05
0.000488266
7.6052e-05
0.000523491
8.64718e-05
0.000560124
9.76491e-05
0.000597853
0.000109604
0.000636219
0.000122343
0.000674575
0.000135853
0.000712037
0.000150089
0.000747419
0.000164975
0.000779173
0.000180378
0.0008053
0.00019613
0.000823288
0.000211991
0.000829986
0.00022766
0.000821502
0.000242723
0.000793164
0.000256699
0.000739293
0.000268778
0.000651613
0.000278254
0.000523001
0.000366509
0.00028372
-4.65251e-05
1.85652e-05
4.68331e-05
-4.61965e-05
2.00729e-05
-4.58372e-05
2.17033e-05
-4.54523e-05
2.34668e-05
-4.50327e-05
2.53745e-05
-4.45825e-05
2.74384e-05
-4.40928e-05
2.96716e-05
-4.35666e-05
3.20885e-05
-4.2994e-05
3.46936e-05
-4.23776e-05
3.7512e-05
-4.17077e-05
4.05699e-05
-4.09865e-05
4.38787e-05
-4.02025e-05
4.74594e-05
-3.93558e-05
5.13036e-05
-3.84326e-05
5.54531e-05
-3.74367e-05
5.99871e-05
-3.63543e-05
6.48955e-05
-3.51797e-05
7.01233e-05
-3.39004e-05
7.58181e-05
-3.25171e-05
8.2036e-05
-3.1009e-05
8.86653e-05
-2.93712e-05
9.58516e-05
-2.75948e-05
0.000103727
-2.56593e-05
0.000112046
-2.35596e-05
0.00012122
-2.12798e-05
0.000131065
-1.88018e-05
0.000141684
-1.61164e-05
0.000153252
-1.31977e-05
0.000165615
-1.00372e-05
0.000179132
-6.60605e-06
0.000193569
-2.88983e-06
0.000209294
1.14159e-06
0.000226162
5.51254e-06
0.000244376
1.02454e-05
0.000264049
1.53792e-05
0.000285045
2.0935e-05
0.000307767
2.69503e-05
0.000332055
3.34634e-05
0.000357983
4.05043e-05
0.000385748
4.81113e-05
0.000415265
5.63267e-05
0.000446467
6.51856e-05
0.000479411
7.47231e-05
0.000513957
8.49729e-05
0.000549879
9.5963e-05
0.000586868
0.000107712
0.000624476
0.000120224
0.000662071
0.000133485
0.000698786
0.000147453
0.000733464
0.00016205
0.00076459
0.000177151
0.000790213
0.000192591
0.000807865
0.000208137
0.000814463
0.000223496
0.000806178
0.000238261
0.000778441
0.000251958
0.000725653
0.000263801
0.000639835
0.000273089
0.000513818
0.000361216
0.000278517
-4.5749e-05
1.82645e-05
4.6051e-05
-4.54261e-05
1.97477e-05
-4.50732e-05
2.13517e-05
-4.46949e-05
2.30867e-05
-4.42827e-05
2.49636e-05
-4.38402e-05
2.69942e-05
-4.33589e-05
2.91916e-05
-4.28419e-05
3.15697e-05
-4.22794e-05
3.41324e-05
-4.1674e-05
3.69048e-05
-4.10162e-05
3.99134e-05
-4.03084e-05
4.31688e-05
-3.95391e-05
4.66915e-05
-3.87087e-05
5.0471e-05
-3.78036e-05
5.45495e-05
-3.68276e-05
5.9009e-05
-3.57672e-05
6.38366e-05
-3.46167e-05
6.89712e-05
-3.33643e-05
7.4567e-05
-3.20101e-05
8.06806e-05
-3.0534e-05
8.71905e-05
-2.89311e-05
9.42478e-05
-2.71923e-05
0.00010199
-2.52975e-05
0.000110151
-2.32413e-05
0.000119165
-2.10079e-05
0.000128831
-1.85793e-05
0.000139256
-1.59461e-05
0.00015062
-1.30825e-05
0.000162752
-9.98015e-06
0.00017603
-6.61008e-06
0.000190199
-2.95824e-06
0.000205642
1.00547e-06
0.000222201
5.30407e-06
0.00024008
9.96015e-06
0.000259395
1.50115e-05
0.000279995
2.0479e-05
0.000302301
2.63992e-05
0.000326136
3.28093e-05
0.000351574
3.97389e-05
0.000378821
4.72249e-05
0.000407782
5.53083e-05
0.000438386
6.40232e-05
0.000470699
7.3403e-05
0.00050458
8.348e-05
0.000539804
9.42803e-05
0.000576069
0.000105821
0.000612936
0.000118105
0.000649785
0.000131119
0.00068577
0.00014482
0.000719759
0.000159134
0.000750272
0.000173937
0.000775398
0.000189073
0.000792725
0.000204312
0.000799224
0.000219369
0.000791134
0.000233845
0.000763974
0.000247273
0.000712245
0.000258893
0.000628216
0.000268012
0.000504711
0.00035582
0.00027341
-4.49776e-05
1.79696e-05
4.5275e-05
-4.46603e-05
1.94288e-05
-4.43137e-05
2.10069e-05
-4.3942e-05
2.27138e-05
-4.35371e-05
2.45604e-05
-4.31023e-05
2.65583e-05
-4.26297e-05
2.87203e-05
-4.21216e-05
3.10604e-05
-4.15691e-05
3.35813e-05
-4.09742e-05
3.63086e-05
-4.03281e-05
3.92688e-05
-3.96326e-05
4.24719e-05
-3.88772e-05
4.59379e-05
-3.80617e-05
4.9654e-05
-3.71733e-05
5.36631e-05
-3.62156e-05
5.80498e-05
-3.51755e-05
6.27983e-05
-3.40475e-05
6.78418e-05
-3.28199e-05
7.3341e-05
-3.1493e-05
7.93527e-05
-3.00469e-05
8.57457e-05
-2.84766e-05
9.26768e-05
-2.67734e-05
0.000100288
-2.49172e-05
0.000108294
-2.29026e-05
0.000117151
-2.07138e-05
0.000126643
-1.83331e-05
0.000136876
-1.57508e-05
0.000148038
-1.29415e-05
0.000159943
-9.89654e-06
0.000172985
-6.58732e-06
0.00018689
-2.99955e-06
0.000202055
8.95739e-07
0.000218308
5.12175e-06
0.000235857
9.70004e-06
0.00025482
1.46679e-05
0.000275029
2.00455e-05
0.000296925
2.58689e-05
0.000320314
3.21742e-05
0.000345271
3.89902e-05
0.000372007
4.63528e-05
0.000400422
5.4302e-05
0.00043044
6.28704e-05
0.000462134
7.20904e-05
0.000495364
8.19925e-05
0.000529906
9.26018e-05
0.000565465
0.000103934
0.00060161
0.000115991
0.000637735
0.00012876
0.000673012
0.000142197
0.000706333
0.000156232
0.00073625
0.000170745
0.000760897
0.000185583
0.000777903
0.000200524
0.000784304
0.000215287
0.000776404
0.000229484
0.00074982
0.00024265
0.000699133
0.000254057
0.000616875
0.000263023
0.000495848
0.000350576
0.000268395
-4.42142e-05
1.76796e-05
4.45052e-05
-4.39027e-05
1.91152e-05
-4.35624e-05
2.06677e-05
-4.31973e-05
2.2347e-05
-4.27996e-05
2.41638e-05
-4.23723e-05
2.61295e-05
-4.19078e-05
2.82568e-05
-4.14084e-05
3.05595e-05
-4.08654e-05
3.30393e-05
-4.02808e-05
3.57221e-05
-3.96458e-05
3.86349e-05
-3.89625e-05
4.17865e-05
-3.82203e-05
4.51969e-05
-3.74193e-05
4.88509e-05
-3.65468e-05
5.27919e-05
-3.56064e-05
5.71075e-05
-3.45855e-05
6.17788e-05
-3.34784e-05
6.67333e-05
-3.2274e-05
7.21379e-05
-3.09724e-05
7.805e-05
-2.95544e-05
8.43288e-05
-2.80148e-05
9.11365e-05
-2.63452e-05
9.86191e-05
-2.45256e-05
0.000106474
-2.25507e-05
0.000115177
-2.04048e-05
0.000124497
-1.80703e-05
0.000134543
-1.55376e-05
0.000145506
-1.27813e-05
0.000157187
-9.79278e-06
0.000169997
-6.54368e-06
0.00018364
-3.01996e-06
0.000198531
8.07382e-07
0.000214483
4.96017e-06
0.000231707
9.46018e-06
0.000250322
1.43436e-05
0.000270147
1.96304e-05
0.00029164
2.53556e-05
0.000314591
3.15546e-05
0.000339074
3.82554e-05
0.000365309
4.54931e-05
0.000393187
5.33064e-05
0.000422629
6.17268e-05
0.000453716
7.07856e-05
0.000486307
8.05121e-05
0.000520181
9.093e-05
0.000555049
0.000102054
0.000590486
0.000113886
0.000625902
0.000126412
0.000660484
0.00013959
0.00069315
0.000153352
0.000722483
0.000167581
0.000746655
0.000182128
0.000763348
0.000196778
0.000769652
0.000211256
0.000761934
0.000225182
0.000735899
0.000238097
0.000686228
0.000249299
0.000605665
0.000258119
0.000487024
0.000345207
0.000263467
-4.34593e-05
1.73951e-05
4.37459e-05
-4.31531e-05
1.88075e-05
-4.28187e-05
2.03348e-05
-4.24599e-05
2.1987e-05
-4.20693e-05
2.37745e-05
-4.16494e-05
2.57086e-05
-4.11932e-05
2.78018e-05
-4.07025e-05
3.00676e-05
-4.0169e-05
3.25071e-05
-3.95944e-05
3.51463e-05
-3.89705e-05
3.80124e-05
-3.82989e-05
4.11136e-05
-3.75697e-05
4.44693e-05
-3.67825e-05
4.80623e-05
-3.59254e-05
5.19366e-05
-3.50016e-05
5.61823e-05
-3.3999e-05
6.07779e-05
-3.2912e-05
6.56451e-05
-3.17298e-05
7.09571e-05
-3.04525e-05
7.67718e-05
-2.90611e-05
8.29387e-05
-2.75507e-05
8.96254e-05
-2.5913e-05
9.69825e-05
-2.41283e-05
0.000104689
-2.21914e-05
0.000113241
-2.00867e-05
0.000122392
-1.77968e-05
0.000132254
-1.53121e-05
0.000143022
-1.26076e-05
0.000154483
-9.67442e-06
0.000167065
-6.4847e-06
0.00018045
-3.02419e-06
0.000195071
7.34997e-07
0.000210725
4.81494e-06
0.000227631
9.23631e-06
0.000245903
1.40349e-05
0.00026535
1.92301e-05
0.000286446
2.48563e-05
0.000308966
3.09481e-05
0.000332984
3.75327e-05
0.000358727
4.46444e-05
0.000386077
5.23208e-05
0.000414956
6.05925e-05
0.000445447
6.94897e-05
0.000477414
7.90405e-05
0.000510635
8.92677e-05
0.000544826
0.000100185
0.000579574
0.000111795
0.000614298
0.000124081
0.000648206
0.000137005
0.000680236
0.000150499
0.000709002
0.000164451
0.000732714
0.000178714
0.000749099
0.000193082
0.000755304
0.000207282
0.000747765
0.000220944
0.000722277
0.000233615
0.000673609
0.000244619
0.000594724
0.000253302
0.000478436
0.000340003
0.000258624
-4.27152e-05
1.71155e-05
4.29962e-05
-4.24144e-05
1.8505e-05
-4.2086e-05
2.00077e-05
-4.17334e-05
2.16332e-05
-4.13496e-05
2.33919e-05
-4.09371e-05
2.52949e-05
-4.04888e-05
2.73545e-05
-4.00065e-05
2.95841e-05
-3.94823e-05
3.19839e-05
-3.89177e-05
3.45802e-05
-3.83047e-05
3.74004e-05
-3.76448e-05
4.04519e-05
-3.69283e-05
4.37539e-05
-3.61548e-05
4.72869e-05
-3.53127e-05
5.10958e-05
-3.4405e-05
5.52729e-05
-3.34202e-05
5.97942e-05
-3.23523e-05
6.4576e-05
-3.11913e-05
6.97973e-05
-2.99369e-05
7.55165e-05
-2.8571e-05
8.15739e-05
-2.70884e-05
8.81422e-05
-2.54811e-05
9.53763e-05
-2.37298e-05
0.000102938
-2.18293e-05
0.000111342
-1.97642e-05
0.000120327
-1.75175e-05
0.000130008
-1.50793e-05
0.000140584
-1.24252e-05
0.00015183
-9.54626e-06
0.000164186
-6.41484e-06
0.000177319
-3.01711e-06
0.000191674
6.74912e-07
0.000207035
4.68191e-06
0.000223626
9.02482e-06
0.000241563
1.37385e-05
0.000260638
1.88419e-05
0.000281344
2.43687e-05
0.000303441
3.03529e-05
0.000327002
3.68209e-05
0.000352261
4.38063e-05
0.000379095
5.13456e-05
0.000407419
5.94685e-05
0.000437327
6.82044e-05
0.00046868
7.75804e-05
0.00050126
8.76182e-05
0.000534789
9.83316e-05
0.000568861
0.000109721
0.000602907
0.000121772
0.000636152
0.000134446
0.000667556
0.000147679
0.000695763
0.00016136
0.000719019
0.000175347
0.000735101
0.000189438
0.000741208
0.000203369
0.000733837
0.000216774
0.000708872
0.000229209
0.000661176
0.000240021
0.000583896
0.00024857
0.000469869
0.000334667
0.000253864
-4.19819e-05
1.68413e-05
4.22585e-05
-4.16864e-05
1.82084e-05
-4.13639e-05
1.96868e-05
-4.10177e-05
2.12862e-05
-4.06408e-05
2.30165e-05
-4.02356e-05
2.4889e-05
-3.97954e-05
2.69155e-05
-3.93216e-05
2.91095e-05
-3.88068e-05
3.14703e-05
-3.82519e-05
3.40244e-05
-3.76496e-05
3.67994e-05
-3.7001e-05
3.9802e-05
-3.62968e-05
4.30512e-05
-3.55366e-05
4.65254e-05
-3.4709e-05
5.02698e-05
-3.3817e-05
5.43796e-05
-3.28493e-05
5.8828e-05
-3.18001e-05
6.35259e-05
-3.06596e-05
6.86581e-05
-2.94275e-05
7.42836e-05
-2.80861e-05
8.02336e-05
-2.66303e-05
8.66859e-05
-2.50524e-05
9.37994e-05
-2.33332e-05
0.000101218
-2.14678e-05
0.000109477
-1.9441e-05
0.000118301
-1.7236e-05
0.000127803
-1.48431e-05
0.000138192
-1.2238e-05
0.000149225
-9.41211e-06
0.000161361
-6.33806e-06
0.000174245
-3.00192e-06
0.000188338
6.23093e-07
0.000203412
4.55806e-06
0.000219694
8.82279e-06
0.0002373
1.34517e-05
0.000256011
1.84635e-05
0.000276334
2.38911e-05
0.000298016
2.97677e-05
0.000321127
3.61193e-05
0.000345911
4.29785e-05
0.000372238
5.0381e-05
0.000400019
5.83558e-05
0.000429355
6.69312e-05
0.000460108
7.61337e-05
0.000492061
8.59842e-05
0.000524943
9.64958e-05
0.000558354
0.000107668
0.00059174
0.000119489
0.000624338
0.000131918
0.000655134
0.000144896
0.000682797
0.000158312
0.000705613
0.000172029
0.000721395
0.000185851
0.000727404
0.000199519
0.0007202
0.000212674
0.000695756