/*--------------------------------*- C++ -*----------------------------------*\
  =========                 |
  \\      /  F ield         | OpenFOAM: The Open Source CFD Toolbox
   \\    /   O peration     | Website:  https://openfoam.org
    \\  /    A nd           | Version:  6.0
     \\/     M anipulation  |
\*---------------------------------------------------------------------------*/
FoamFile
{
    version     2.0;
    format      ascii;
    class       volVectorField;
    location    "7";
    object      U;
}
// * * * * * * * * * * * * * * * * * * * * * * * * * * * * * * * * * * * * * //

dimensions      [0 1 -1 0 0 0 0];

internalField   nonuniform List<vector> 
62000
(
(0.984793 0.173545 -5.76968e-21)
(0.984802 0.173634 4.83899e-21)
(0.984804 0.173694 5.12641e-21)
(0.9848 0.173759 -2.29554e-20)
(0.984791 0.173829 -2.70093e-20)
(0.984777 0.173902 9.41398e-20)
(0.984759 0.173976 -1.05673e-19)
(0.984739 0.174051 6.24085e-20)
(0.984718 0.174126 -3.00393e-20)
(0.984696 0.174199 -1.57013e-19)
(0.984675 0.17427 -2.20408e-20)
(0.984654 0.174337 2.26536e-19)
(0.984635 0.1744 4.7753e-20)
(0.984618 0.174458 -1.69047e-19)
(0.984603 0.17451 2.69551e-19)
(0.984591 0.174556 -1.44919e-19)
(0.984581 0.174596 1.54955e-19)
(0.984573 0.174629 -1.8381e-19)
(0.984567 0.174654 9.34892e-20)
(0.984563 0.174672 -2.94062e-19)
(0.984561 0.174683 3.90444e-19)
(0.984561 0.174685 1.20415e-19)
(0.984562 0.174679 1.78131e-19)
(0.984566 0.174664 -8.0608e-19)
(0.984571 0.174639 3.00516e-19)
(0.984578 0.174604 -1.91741e-19)
(0.984587 0.174558 -4.554e-21)
(0.984597 0.1745 -1.62181e-19)
(0.98461 0.174429 5.05668e-19)
(0.984625 0.174345 -2.88462e-19)
(0.984642 0.174247 7.0348e-19)
(0.98466 0.174133 -1.4716e-18)
(0.98468 0.173995 1.40506e-19)
(0.984702 0.173832 -4.79942e-19)
(0.984725 0.173652 -1.52131e-19)
(0.984748 0.173459 -4.69383e-19)
(0.984771 0.173255 -1.29681e-19)
(0.984793 0.173046 -1.21898e-19)
(0.984812 0.17284 4.34588e-19)
(0.984828 0.172648 1.88315e-18)
(0.984835 0.172486 -4.28878e-19)
(0.984829 0.172372 -2.37965e-18)
(0.984802 0.172323 -3.56271e-18)
(0.984744 0.172354 1.83486e-18)
(0.984641 0.172472 5.10732e-19)
(0.984475 0.172664 -2.4335e-18)
(0.984223 0.172893 6.01536e-19)
(0.983863 0.173086 -1.04201e-18)
(0.983373 0.173134 -5.26213e-18)
(0.982745 0.172902 -1.36086e-18)
(0.981985 0.172245 -7.85235e-19)
(0.981132 0.171046 -1.11769e-17)
(0.980258 0.169232 1.60737e-18)
(0.97947 0.166813 1.45944e-17)
(0.97888 0.163837 3.92205e-18)
(0.978615 0.160377 1.32693e-17)
(0.978775 0.156368 -1.45562e-18)
(0.97935 0.151644 -2.1906e-18)
(0.981586 0.143786 4.58536e-18)
(0.960245 0.131207 7.02432e-19)
(0.985176 0.170424 -1.56864e-21)
(0.985289 0.170604 1.5295e-20)
(0.985384 0.170764 6.61066e-21)
(0.985464 0.17092 -2.81417e-20)
(0.985525 0.171091 1.19336e-20)
(0.985567 0.171273 -8.45072e-20)
(0.98559 0.171464 7.82614e-20)
(0.985594 0.171665 4.66709e-20)
(0.985581 0.171874 -8.85616e-20)
(0.985551 0.17209 3.52171e-21)
(0.985508 0.17231 8.94019e-20)
(0.985453 0.172532 7.31536e-22)
(0.985389 0.172754 2.73602e-20)
(0.985318 0.172973 -2.34325e-19)
(0.985243 0.173187 4.80478e-19)
(0.985166 0.173392 -4.31431e-19)
(0.985088 0.173587 2.06985e-19)
(0.985012 0.17377 -4.38706e-20)
(0.984937 0.173938 -1.24118e-19)
(0.984866 0.174091 3.52082e-19)
(0.984799 0.174226 -5.65197e-19)
(0.984736 0.174343 3.34895e-19)
(0.984678 0.17444 -4.38272e-19)
(0.984625 0.174517 2.63572e-19)
(0.984577 0.174571 2.52221e-19)
(0.984536 0.174602 -1.69335e-19)
(0.9845 0.17461 -2.44576e-21)
(0.984471 0.174592 1.94658e-19)
(0.984449 0.174549 1.68268e-19)
(0.984433 0.174481 -3.54965e-19)
(0.984424 0.174386 7.33163e-19)
(0.984422 0.174258 1.52189e-19)
(0.984433 0.174079 4.7475e-19)
(0.984459 0.173869 3.08559e-20)
(0.984496 0.173645 1.26141e-19)
(0.984543 0.173426 -1.47253e-19)
(0.984595 0.173229 -4.30747e-19)
(0.984651 0.173068 -2.21924e-19)
(0.984706 0.172964 -1.1314e-18)
(0.984756 0.172941 -1.23618e-18)
(0.984789 0.173027 9.43629e-19)
(0.984791 0.173244 5.47196e-19)
(0.984741 0.173609 3.71298e-18)
(0.984614 0.174115 1.84897e-19)
(0.984377 0.174729 -5.13685e-18)
(0.983995 0.175369 2.00116e-18)
(0.983428 0.175901 1.74984e-18)
(0.982646 0.176136 1.9813e-18)
(0.981631 0.175844 7.03942e-19)
(0.980395 0.174789 1.80584e-19)
(0.97899 0.172769 4.50675e-18)
(0.977517 0.169681 1.37041e-17)
(0.976139 0.165541 -1.01509e-17)
(0.975051 0.160516 -2.56013e-17)
(0.974442 0.154839 -6.35478e-18)
(0.974499 0.148749 -4.5868e-18)
(0.975391 0.142299 -9.91549e-18)
(0.976743 0.135408 -4.73622e-18)
(0.983195 0.125752 6.98522e-18)
(0.951304 0.11509 2.29188e-18)
(0.985237 0.171337 -7.63177e-21)
(0.98539 0.171388 -1.13559e-21)
(0.985536 0.171482 1.17127e-21)
(0.98568 0.171552 5.61226e-21)
(0.985814 0.171636 1.62913e-20)
(0.985935 0.171727 -1.5619e-20)
(0.986038 0.171826 8.55019e-20)
(0.986119 0.171936 -4.08567e-20)
(0.986176 0.172057 -2.24244e-20)
(0.986208 0.172188 -1.42547e-19)
(0.986214 0.172329 1.21687e-19)
(0.986194 0.17248 9.20528e-21)
(0.986151 0.17264 -2.92585e-20)
(0.986087 0.172806 7.9265e-20)
(0.986004 0.172977 -1.38283e-19)
(0.985906 0.173151 2.82313e-22)
(0.985796 0.173325 -6.71725e-20)
(0.985677 0.173498 -1.50241e-22)
(0.985552 0.173666 1.60779e-19)
(0.985425 0.173829 -2.51448e-19)
(0.985296 0.173982 1.59341e-19)
(0.985169 0.174126 6.42095e-19)
(0.985045 0.174256 -7.98531e-20)
(0.984925 0.174373 -9.31217e-19)
(0.984812 0.174473 4.87497e-19)
(0.984705 0.174556 -2.74937e-19)
(0.984606 0.17462 4.5562e-19)
(0.984515 0.174667 -2.80499e-19)
(0.984433 0.174694 -5.72778e-19)
(0.984361 0.174705 6.27545e-19)
(0.984298 0.174697 -4.50446e-19)
(0.984243 0.174661 6.1282e-19)
(0.984214 0.17458 -1.7029e-18)
(0.984217 0.174486 1.48776e-18)
(0.984244 0.174399 -7.79922e-19)
(0.98429 0.174347 3.18208e-19)
(0.984352 0.174348 2.42702e-19)
(0.984428 0.174421 2.72067e-21)
(0.984516 0.174588 -3.24908e-20)
(0.984611 0.174874 1.31577e-18)
(0.984704 0.175301 -4.78153e-19)
(0.984785 0.175887 7.17156e-19)
(0.984833 0.176634 -2.37946e-18)
(0.984826 0.177517 -1.0968e-18)
(0.984736 0.178476 1.19466e-18)
(0.98453 0.179398 -3.59553e-18)
(0.984177 0.180117 5.44714e-19)
(0.983651 0.180416 -3.13402e-18)
(0.98294 0.180051 4.67668e-18)
(0.982055 0.178796 1.40226e-18)
(0.981044 0.176483 4.08701e-19)
(0.979992 0.17307 -6.53319e-19)
(0.97905 0.168656 3.69353e-18)
(0.978385 0.163501 2.43279e-18)
(0.97816 0.157944 -7.639e-18)
(0.978533 0.152316 -5.29891e-18)
(0.979671 0.146825 -2.26407e-18)
(0.980787 0.141473 -9.89102e-18)
(0.988425 0.135558 -1.16822e-18)
(0.965023 0.13683 6.33977e-19)
(0.984869 0.174889 -7.62872e-21)
(0.984953 0.17481 2.35495e-20)
(0.985047 0.174808 -3.59642e-21)
(0.985159 0.174773 -2.47547e-20)
(0.985285 0.17474 3.77803e-20)
(0.985418 0.174708 6.62564e-20)
(0.985553 0.174675 -8.69745e-20)
(0.985683 0.174646 9.6429e-21)
(0.985803 0.174621 3.13418e-20)
(0.985907 0.174601 6.65368e-20)
(0.98599 0.174588 -1.23664e-19)
(0.986051 0.174583 -3.92655e-20)
(0.986085 0.174587 -4.49444e-20)
(0.986093 0.1746 2.0593e-19)
(0.986075 0.174622 -1.39773e-19)
(0.986031 0.174653 3.34585e-19)
(0.985964 0.174693 -4.11779e-19)
(0.985877 0.174741 -6.33367e-20)
(0.985772 0.174796 4.53468e-19)
(0.985652 0.174857 -1.59893e-19)
(0.985522 0.174923 -6.01285e-20)
(0.985383 0.174991 -6.59885e-20)
(0.98524 0.17506 -6.16403e-19)
(0.985096 0.175129 3.5624e-19)
(0.984951 0.175194 -1.69759e-19)
(0.98481 0.175256 2.7331e-19)
(0.984674 0.175313 1.31872e-19)
(0.984544 0.175365 6.64424e-19)
(0.984423 0.175413 -4.23088e-19)
(0.984311 0.175458 -5.64823e-19)
(0.984207 0.175501 9.11065e-19)
(0.984113 0.175528 -7.58677e-19)
(0.984055 0.175531 1.40244e-18)
(0.984043 0.17554 -8.33934e-19)
(0.984063 0.175573 3.53527e-19)
(0.984112 0.175659 5.86698e-19)
(0.984184 0.175818 -2.4442e-19)
(0.984281 0.176066 2.69534e-19)
(0.984403 0.176423 -1.57421e-19)
(0.984549 0.176908 3.94842e-19)
(0.984717 0.17754 -1.09819e-18)
(0.9849 0.178328 2.85057e-19)
(0.98509 0.179265 5.59858e-19)
(0.985272 0.18032 1.30121e-18)
(0.985428 0.181421 1.5656e-18)
(0.985538 0.182453 3.66677e-19)
(0.985577 0.183251 2.12838e-18)
(0.985524 0.183607 2.29797e-18)
(0.985364 0.1833 2.45478e-18)
(0.985091 0.182136 -1.90326e-18)
(0.984726 0.179984 -3.25282e-18)
(0.984311 0.176845 1.77117e-18)
(0.98395 0.172859 2.37807e-18)
(0.983762 0.168312 9.83551e-18)
(0.983863 0.163578 7.16128e-18)
(0.984362 0.159014 8.42536e-18)
(0.985405 0.154897 1.67747e-17)
(0.985961 0.151103 8.34495e-19)
(0.992739 0.148275 -8.0989e-18)
(0.979183 0.156542 -4.79912e-18)
(0.984302 0.178524 1.48288e-20)
(0.984293 0.178398 -4.97824e-21)
(0.9843 0.178344 8.45357e-21)
(0.984333 0.178257 -1.19748e-20)
(0.984393 0.178167 2.72868e-20)
(0.984476 0.178073 -1.34956e-20)
(0.984579 0.177973 7.5423e-21)
(0.984697 0.177868 -1.11877e-19)
(0.984825 0.17776 9.45768e-20)
(0.984955 0.177648 -1.92856e-19)
(0.985083 0.177534 2.14202e-19)
(0.985202 0.177421 -2.62082e-20)
(0.985307 0.177308 -5.9373e-20)
(0.985393 0.177199 -2.80001e-20)
(0.985457 0.177095 -6.66955e-21)
(0.985497 0.176997 -2.91524e-19)
(0.985511 0.176906 9.61316e-21)
(0.9855 0.176825 3.25267e-19)
(0.985464 0.176754 -1.08974e-19)
(0.985405 0.176694 -1.1808e-19)
(0.985326 0.176645 1.98461e-19)
(0.98523 0.176606 -1.02652e-19)
(0.985119 0.176578 4.36536e-19)
(0.984998 0.176559 2.48924e-19)
(0.984869 0.176547 1.96488e-19)
(0.984735 0.176544 -6.02766e-19)
(0.984601 0.176547 -8.70846e-20)
(0.984469 0.176559 -4.97204e-19)
(0.98434 0.176579 9.26662e-20)
(0.984219 0.176611 -1.73614e-19)
(0.984102 0.176655 -7.1701e-20)
(0.983997 0.176696 5.6618e-19)
(0.983932 0.176735 -1.4215e-18)
(0.983919 0.176792 -7.00174e-20)
(0.983943 0.176882 -6.98425e-19)
(0.983998 0.177035 -3.34046e-19)
(0.98408 0.177266 6.25723e-20)
(0.984192 0.177589 -1.0231e-18)
(0.984336 0.178019 1.50452e-18)
(0.984516 0.178571 2.81498e-19)
(0.984732 0.179257 1.52912e-18)
(0.984985 0.180081 -1.04924e-18)
(0.985273 0.18103 -6.8447e-19)
(0.985591 0.182067 -1.87111e-19)
(0.985931 0.183124 1.1275e-18)
(0.986282 0.184087 1.49566e-18)
(0.986629 0.184805 3.93199e-19)
(0.986956 0.185092 5.94933e-19)
(0.987243 0.184752 -9.15145e-19)
(0.987472 0.183627 4.87597e-18)
(0.987639 0.181617 1.26937e-18)
(0.987749 0.178746 -1.58674e-18)
(0.987863 0.175168 -1.97179e-19)
(0.988052 0.171163 5.71913e-18)
(0.988388 0.167095 2.33574e-19)
(0.988939 0.163298 -6.91523e-18)
(0.989816 0.160054 -1.40467e-17)
(0.989955 0.15699 1.31104e-17)
(0.995242 0.155579 -7.00131e-18)
(0.986926 0.165603 5.32854e-18)
(0.983763 0.181334 -5.69706e-21)
(0.983685 0.181218 2.31756e-20)
(0.983618 0.181156 -3.84938e-20)
(0.983575 0.181066 2.89998e-20)
(0.983557 0.180971 1.91204e-20)
(0.983567 0.180871 -2.03424e-20)
(0.983605 0.180762 1.75541e-21)
(0.983669 0.180645 -1.57489e-20)
(0.983756 0.18052 -5.39377e-20)
(0.983862 0.180385 1.04552e-19)
(0.983982 0.180242 -1.651e-19)
(0.984112 0.180092 1.46166e-19)
(0.984243 0.179933 1.32252e-19)
(0.984371 0.17977 -2.06661e-19)
(0.984489 0.179602 -6.97177e-20)
(0.984594 0.179433 2.63317e-19)
(0.98468 0.179264 -3.25237e-19)
(0.984744 0.179098 4.58834e-19)
(0.984785 0.178938 -8.62527e-20)
(0.984803 0.178787 5.40816e-20)
(0.984796 0.178644 -8.27877e-20)
(0.984768 0.178514 -1.077e-19)
(0.984718 0.178395 -2.05926e-19)
(0.984651 0.178289 3.65506e-19)
(0.984569 0.178197 -2.5423e-19)
(0.984477 0.178119 -2.56452e-19)
(0.984376 0.178054 5.35056e-19)
(0.984271 0.178006 -5.29499e-19)
(0.984165 0.177976 8.48264e-19)
(0.984061 0.177969 -4.61236e-19)
(0.983959 0.177986 3.56421e-19)
(0.983867 0.178008 -6.22605e-19)
(0.983812 0.178044 6.613e-19)
(0.983811 0.178107 -6.2675e-20)
(0.983845 0.178206 -3.43905e-20)
(0.983907 0.178368 -2.15053e-20)
(0.983995 0.178605 -3.56655e-19)
(0.984112 0.178927 9.10111e-19)
(0.984261 0.179343 -6.70798e-19)
(0.984447 0.179863 -3.76963e-18)
(0.984677 0.180494 -1.51738e-18)
(0.984954 0.181234 9.72897e-19)
(0.985281 0.182067 -1.13405e-18)
(0.985662 0.182954 -1.0189e-18)
(0.986097 0.183827 -8.18303e-20)
(0.986584 0.184584 2.35814e-18)
(0.987117 0.185089 -3.16999e-18)
(0.987685 0.185179 -2.985e-18)
(0.98827 0.18469 -1.79549e-18)
(0.988846 0.183494 -3.25865e-18)
(0.989394 0.181518 2.31465e-18)
(0.98989 0.1788 -9.02988e-19)
(0.990361 0.175493 -8.2896e-18)
(0.990838 0.171855 1.68539e-18)
(0.991357 0.16822 2.71596e-18)
(0.991953 0.164877 -5.18609e-18)
(0.992695 0.162094 3.67491e-18)
(0.99264 0.159262 3.48464e-18)
(0.996544 0.158278 1.16962e-17)
(0.989572 0.168294 1.84767e-19)
(0.983372 0.183336 6.86233e-21)
(0.98325 0.183241 -3.1183e-20)
(0.983132 0.183191 1.52769e-20)
(0.98303 0.183119 2.89141e-20)
(0.982947 0.183043 -6.26967e-20)
(0.982887 0.182964 5.30611e-20)
(0.982854 0.182877 -3.59105e-20)
(0.982848 0.182782 3.07527e-20)
(0.982871 0.182677 5.0108e-20)
(0.982921 0.182562 -1.21634e-19)
(0.982997 0.182434 1.78473e-19)
(0.983094 0.182295 7.80088e-20)
(0.983208 0.182142 -3.11077e-19)
(0.983334 0.181977 -6.0973e-20)
(0.983465 0.1818 1.70381e-19)
(0.983596 0.181613 1.13055e-19)
(0.983721 0.181419 -1.38506e-19)
(0.983836 0.18122 1.24437e-19)
(0.983935 0.181019 1.98906e-19)
(0.984016 0.180819 -9.43107e-20)
(0.984076 0.180622 -5.52815e-20)
(0.984115 0.180431 2.09292e-19)
(0.984132 0.180249 4.4104e-19)
(0.98413 0.180079 -3.15415e-19)
(0.984109 0.17992 -3.62581e-19)
(0.984072 0.179777 4.1148e-19)
(0.984022 0.179649 -3.20975e-19)
(0.983964 0.179541 -1.34971e-19)
(0.983899 0.179456 1.13339e-18)
(0.983831 0.179399 -5.08012e-19)
(0.983763 0.179372 -3.96803e-19)
(0.983702 0.179355 5.2258e-19)
(0.983672 0.179364 3.6569e-19)
(0.98369 0.179402 -3.34367e-19)
(0.983738 0.179475 -2.19503e-19)
(0.983808 0.179603 6.84965e-19)
(0.983898 0.179799 1.2677e-19)
(0.984012 0.180065 2.2991e-19)
(0.984155 0.180407 -1.16189e-18)
(0.984334 0.180829 -1.14382e-18)
(0.984554 0.181334 2.03108e-18)
(0.984825 0.181915 1.53374e-18)
(0.985154 0.182553 2.36977e-18)
(0.985549 0.183208 -2.21882e-18)
(0.986018 0.183819 -2.33741e-18)
(0.986568 0.184293 -1.27613e-18)
(0.987198 0.184512 3.05418e-18)
(0.987906 0.184337 2.95831e-18)
(0.988675 0.183633 -3.11314e-18)
(0.989477 0.1823 -4.8724e-18)
(0.990283 0.180287 -5.83193e-19)
(0.991054 0.177641 1.08553e-18)
(0.991787 0.174508 9.76202e-21)
(0.992484 0.171118 -3.05459e-18)
(0.993151 0.16777 2.95976e-18)
(0.993801 0.164705 1.65063e-18)
(0.994456 0.16218 2.39912e-18)
(0.994372 0.159425 -1.09934e-17)
(0.997238 0.158493 -5.86869e-19)
(0.989668 0.168427 6.05308e-19)
(0.983125 0.184769 -1.18981e-20)
(0.98298 0.184696 -9.62358e-21)
(0.982831 0.184662 1.30694e-20)
(0.98269 0.184609 4.70089e-20)
(0.982561 0.184554 -1.02295e-19)
(0.982447 0.184497 1.18311e-19)
(0.982354 0.184435 -5.09452e-21)
(0.982284 0.184368 -7.30699e-21)
(0.982242 0.184293 -4.37478e-20)
(0.982227 0.18421 1.08423e-19)
(0.982242 0.184114 -1.68736e-19)
(0.982285 0.184006 6.42304e-20)
(0.982353 0.183884 -2.30685e-21)
(0.982444 0.183746 1.04566e-19)
(0.982554 0.183593 5.14561e-20)
(0.982676 0.183424 -2.73988e-19)
(0.982806 0.183241 2.41691e-19)
(0.982937 0.183047 9.81095e-20)
(0.983064 0.182842 -2.83539e-19)
(0.983184 0.18263 1.41355e-19)
(0.98329 0.182415 6.79354e-20)
(0.983381 0.182198 -4.28722e-20)
(0.983455 0.181983 6.08014e-20)
(0.983511 0.181775 -3.1336e-20)
(0.983549 0.181572 -4.06316e-19)
(0.98357 0.181382 2.72225e-19)
(0.983576 0.181205 -4.22971e-19)
(0.983571 0.181046 7.98647e-19)
(0.983556 0.180909 -1.45408e-19)
(0.983535 0.180802 -9.22341e-20)
(0.983511 0.180725 -2.44981e-20)
(0.983493 0.18066 8.94361e-19)
(0.983496 0.180625 -3.66341e-19)
(0.983536 0.180617 -2.34308e-19)
(0.983601 0.180638 5.60034e-19)
(0.98368 0.180705 4.73798e-19)
(0.983771 0.180825 -7.83494e-19)
(0.983881 0.181 1.40378e-19)
(0.984014 0.181229 1.42236e-18)
(0.984178 0.181513 -1.9363e-19)
(0.984381 0.181851 9.06702e-19)
(0.984634 0.182232 -1.20661e-18)
(0.984947 0.182635 1.84376e-18)
(0.985333 0.183024 3.60474e-18)
(0.985805 0.183341 8.24175e-19)
(0.986375 0.183506 -1.34205e-18)
(0.98705 0.183418 -3.83379e-18)
(0.987831 0.182961 9.75465e-19)
(0.988709 0.182024 9.52314e-19)
(0.989651 0.180534 1.6632e-18)
(0.990628 0.178458 5.33116e-20)
(0.991588 0.175846 -4.51722e-18)
(0.99251 0.172835 4.1318e-18)
(0.993372 0.169628 -2.94274e-18)
(0.994161 0.16649 6.36941e-18)
(0.994871 0.163623 1.47122e-18)
(0.995477 0.161279 7.07378e-18)
(0.995462 0.158601 9.6007e-18)
(0.997636 0.157643 1.95093e-18)
(0.988856 0.167765 2.95923e-18)
(0.982986 0.185803 -5.9802e-21)
(0.982831 0.185742 5.16911e-21)
(0.982667 0.185718 2.62856e-20)
(0.982505 0.185678 4.21323e-20)
(0.982347 0.185639 -1.25246e-19)
(0.982198 0.185601 7.27436e-20)
(0.982062 0.185561 -1.32045e-19)
(0.981943 0.185519 2.08549e-19)
(0.981845 0.185472 -9.86181e-20)
(0.981772 0.18542 1.7697e-20)
(0.981726 0.185358 1.96722e-19)
(0.981709 0.185286 -4.52239e-19)
(0.981721 0.185201 3.11692e-19)
(0.981761 0.185101 4.52221e-20)
(0.981827 0.184984 7.47851e-20)
(0.981916 0.18485 -3.10988e-19)
(0.982022 0.184699 1.5496e-19)
(0.982142 0.184531 -1.95681e-19)
(0.98227 0.184348 3.941e-19)
(0.9824 0.184151 -5.10024e-20)
(0.982528 0.183944 -5.1535e-19)
(0.98265 0.183728 2.04784e-19)
(0.982761 0.183507 -1.19778e-20)
(0.98286 0.183284 -7.93624e-19)
(0.982945 0.183061 5.9422e-19)
(0.983016 0.182844 4.5743e-19)
(0.983074 0.182634 3.22046e-19)
(0.983119 0.182437 -4.11388e-19)
(0.983155 0.182258 -4.61604e-19)
(0.983183 0.182106 2.15759e-19)
(0.983206 0.18198 3.36413e-19)
(0.983234 0.181865 -4.10769e-19)
(0.983274 0.181777 -6.22635e-19)
(0.983339 0.181711 1.25832e-18)
(0.98342 0.181665 1.25714e-19)
(0.983507 0.181653 -1.8357e-18)
(0.983601 0.181679 1.41325e-19)
(0.983707 0.181741 1.20207e-18)
(0.98383 0.181836 1.28182e-19)
(0.983981 0.181962 1.50696e-18)
(0.984166 0.182114 -2.01958e-18)
(0.984399 0.18228 -1.42859e-19)
(0.984693 0.182439 -1.1924e-18)
(0.985062 0.182557 5.68857e-19)
(0.985524 0.182582 1.82591e-18)
(0.986095 0.182445 5.64728e-18)
(0.986786 0.182062 5.54339e-19)
(0.987603 0.181338 -3.21072e-18)
(0.98854 0.180183 2.59871e-18)
(0.989567 0.178545 8.79908e-18)
(0.990653 0.176405 -7.2183e-18)
(0.99174 0.173817 8.91364e-18)
(0.992795 0.170906 -5.59984e-18)
(0.993782 0.167851 -3.4451e-18)
(0.994669 0.164887 -1.32137e-17)
(0.995442 0.162187 -7.63158e-19)
(0.996025 0.160005 -4.36772e-18)
(0.996127 0.157453 -5.08729e-18)
(0.997875 0.156499 4.47952e-18)
(0.987912 0.167049 1.11572e-18)
(0.982913 0.186586 8.62758e-21)
(0.982757 0.186535 3.08116e-21)
(0.982589 0.186517 -3.18002e-20)
(0.982418 0.186485 3.05634e-20)
(0.982246 0.186454 -1.36744e-20)
(0.982077 0.186427 2.47833e-20)
(0.981914 0.1864 8.72929e-21)
(0.981762 0.186374 -1.26594e-19)
(0.981624 0.186346 5.51504e-20)
(0.981504 0.186317 -3.86378e-20)
(0.981407 0.186281 2.31195e-20)
(0.981336 0.186239 9.2333e-20)
(0.981292 0.186186 -1.76599e-20)
(0.981278 0.186121 5.8223e-20)
(0.981292 0.18604 -2.48835e-19)
(0.981334 0.185943 9.59986e-20)
(0.981401 0.185829 4.20586e-20)
(0.98149 0.185696 -1.20842e-19)
(0.981597 0.185545 2.40988e-19)
(0.981715 0.185377 8.12501e-20)
(0.981842 0.185193 -8.61651e-21)
(0.981972 0.184995 -9.24541e-20)
(0.982101 0.184784 3.68114e-19)
(0.982225 0.184566 -1.02762e-18)
(0.982342 0.18434 5.41223e-19)
(0.982449 0.184113 2.35918e-19)
(0.982547 0.183885 -3.9406e-19)
(0.982636 0.183664 7.11244e-19)
(0.982715 0.183455 -3.43861e-19)
(0.982788 0.183266 -1.84919e-19)
(0.982856 0.183096 -3.61686e-19)
(0.982928 0.182932 -1.56385e-19)
(0.983004 0.182789 4.15798e-19)
(0.983092 0.18266 -1.24972e-18)
(0.983189 0.18254 2.32367e-18)
(0.983284 0.18244 -1.61071e-19)
(0.98338 0.182363 1.1554e-18)
(0.983483 0.182305 -2.91858e-18)
(0.983601 0.18226 -8.90229e-19)
(0.98374 0.182223 4.49295e-20)
(0.983913 0.182188 -6.83338e-19)
(0.98413 0.182142 -1.15531e-19)
(0.984407 0.182066 -2.30539e-18)
(0.984761 0.181927 8.85074e-19)
(0.985211 0.181681 1.07559e-18)
(0.985775 0.181269 -5.38385e-18)
(0.986469 0.180622 6.91016e-18)
(0.987301 0.179662 9.85893e-19)
(0.988269 0.178319 5.18005e-19)
(0.989345 0.176558 -6.39983e-18)
(0.990498 0.17437 2.1328e-18)
(0.991669 0.171809 -4.78308e-18)
(0.992817 0.168992 1.02075e-17)
(0.993897 0.166077 1.97957e-18)
(0.994865 0.163272 -9.58799e-18)
(0.995698 0.16073 3.61995e-18)
(0.996275 0.15871 -1.05459e-17)
(0.99651 0.156333 -2.44894e-18)
(0.998013 0.155435 -1.63727e-17)
(0.987127 0.166555 -3.55353e-18)
(0.982863 0.187187 -1.98941e-21)
(0.982711 0.187141 -7.87741e-21)
(0.982545 0.187127 -6.96278e-21)
(0.982374 0.1871 6.7291e-20)
(0.982198 0.187076 -3.75105e-20)
(0.982021 0.187056 -4.57965e-20)
(0.981845 0.187037 -1.75546e-20)
(0.981673 0.187021 -7.24898e-20)
(0.981509 0.187005 4.49085e-20)
(0.981358 0.186989 6.12411e-21)
(0.981224 0.186971 1.98325e-21)
(0.981109 0.186949 2.01791e-19)
(0.981019 0.186919 -1.44242e-19)
(0.980955 0.186881 -1.81698e-20)
(0.980919 0.18683 1.70165e-19)
(0.980912 0.186765 -9.45628e-20)
(0.980934 0.186684 -3.76786e-20)
(0.980982 0.186585 5.97426e-20)
(0.981054 0.186468 1.98456e-19)
(0.981146 0.186332 1.12555e-19)
(0.981255 0.186178 4.43361e-20)
(0.981375 0.186006 -2.83705e-19)
(0.981503 0.185816 1.48387e-19)
(0.981635 0.185614 2.86415e-19)
(0.981766 0.185397 -6.01224e-19)
(0.981895 0.185172 1.97914e-19)
(0.98202 0.184939 -7.89535e-19)
(0.98214 0.184705 6.52041e-19)
(0.982254 0.184475 5.83963e-19)
(0.982363 0.184258 -9.00705e-19)
(0.98247 0.184052 -4.47788e-19)
(0.982581 0.183843 5.94691e-19)
(0.982688 0.183647 2.01707e-19)
(0.982796 0.183455 -5.41607e-19)
(0.982905 0.183259 -6.89429e-19)
(0.983006 0.183072 -8.05703e-19)
(0.983105 0.182892 4.90382e-19)
(0.983208 0.182713 1.15705e-18)
(0.983322 0.18253 4.04974e-19)
(0.983455 0.182336 -3.39188e-19)
(0.983619 0.182124 3.84552e-18)
(0.983827 0.181881 -4.42178e-19)
(0.984093 0.181589 3.8388e-18)
(0.984436 0.181218 -6.807e-18)
(0.984877 0.180733 1.1847e-18)
(0.985435 0.180082 1.49747e-19)
(0.986127 0.179209 -1.12688e-19)
(0.986965 0.178052 -5.10533e-18)
(0.987948 0.176557 -7.95327e-18)
(0.98905 0.174702 7.23498e-18)
(0.990243 0.172486 9.6487e-18)
(0.991469 0.169964 5.30081e-18)
(0.992682 0.167242 -1.01239e-17)
(0.993831 0.164461 5.63047e-18)
(0.994864 0.161809 1.39386e-17)
(0.995754 0.159422 6.16869e-18)
(0.996334 0.15757 1.02858e-17)
(0.996701 0.155399 5.3144e-18)
(0.998073 0.154609 1.60699e-17)
(0.986552 0.16637 -1.14174e-17)
(0.982809 0.187673 2.6662e-21)
(0.982663 0.187635 -8.04249e-21)
(0.982501 0.187624 2.90466e-20)
(0.982333 0.187599 7.78607e-21)
(0.98216 0.187577 -4.05608e-20)
(0.981982 0.187559 -4.7454e-20)
(0.981802 0.187542 1.12994e-19)
(0.981623 0.187529 -1.24668e-19)
(0.981446 0.187518 -3.13932e-20)
(0.981277 0.187509 7.82162e-20)
(0.981118 0.1875 7.36611e-20)
(0.980974 0.18749 2.27283e-19)
(0.980848 0.187475 -1.272e-19)
(0.980745 0.187454 -2.23253e-19)
(0.980667 0.187424 4.95643e-20)
(0.980616 0.187382 -1.87165e-19)
(0.980592 0.187327 1.41203e-19)
(0.980598 0.187256 -2.43181e-19)
(0.98063 0.187168 3.79189e-20)
(0.980687 0.187062 -8.37823e-20)
(0.980767 0.186936 -5.47566e-20)
(0.980865 0.186791 -2.30262e-19)
(0.980979 0.186626 1.80242e-20)
(0.981103 0.186444 5.04213e-19)
(0.981235 0.186242 -1.77476e-19)
(0.981371 0.186026 5.39479e-20)
(0.981509 0.185796 1.63356e-19)
(0.981647 0.185557 -2.19413e-19)
(0.981784 0.185315 -4.94692e-20)
(0.98192 0.185078 3.20096e-19)
(0.982056 0.184842 3.54388e-19)
(0.982197 0.184594 -2.6327e-19)
(0.98233 0.184349 -8.64998e-19)
(0.982453 0.184097 -1.2353e-18)
(0.98257 0.18383 1.83301e-18)
(0.982676 0.183558 5.01308e-19)
(0.982778 0.183279 3.17758e-19)
(0.982881 0.182988 1.57665e-18)
(0.982993 0.182677 -1.39156e-18)
(0.983124 0.182338 8.69232e-19)
(0.983285 0.181965 6.60924e-20)
(0.983488 0.181545 1.43885e-20)
(0.983749 0.181062 -1.41806e-18)
(0.984087 0.18049 3.26088e-18)
(0.984524 0.179799 -4.31225e-18)
(0.985078 0.178946 2.57182e-18)
(0.985769 0.177887 -7.03979e-18)
(0.986608 0.176573 1.66978e-18)
(0.987597 0.174961 4.26846e-18)
(0.988713 0.17304 -7.5075e-18)
(0.989929 0.170817 -1.50732e-18)
(0.99119 0.168345 -1.37034e-19)
(0.992447 0.165721 -2.12789e-18)
(0.993649 0.16307 -6.23394e-18)
(0.994734 0.160565 3.70386e-19)
(0.995676 0.158333 6.34484e-18)
(0.996264 0.156647 -6.44395e-18)
(0.996756 0.154698 -1.77915e-18)
(0.998064 0.154045 -2.05815e-18)
(0.986159 0.166458 8.70388e-18)
(0.982756 0.188058 5.15486e-21)
(0.982614 0.188018 -4.36482e-21)
(0.982457 0.188006 4.07733e-21)
(0.982294 0.187982 2.63282e-20)
(0.982124 0.187961 3.87805e-20)
(0.981949 0.187944 -1.51719e-19)
(0.98177 0.18793 1.10725e-19)
(0.981589 0.187919 2.36124e-20)
(0.981408 0.187911 -6.81761e-21)
(0.981229 0.187906 -5.15397e-20)
(0.981056 0.187902 1.60554e-19)
(0.980892 0.187899 -5.16454e-20)
(0.980742 0.187893 -7.30882e-20)
(0.98061 0.187883 -2.23074e-19)
(0.980498 0.187866 4.49848e-19)
(0.980409 0.187841 -9.26413e-20)
(0.980346 0.187805 -7.84814e-20)
(0.980311 0.187756 -2.40211e-19)
(0.980303 0.187691 2.67041e-19)
(0.980323 0.187608 1.50821e-19)
(0.980368 0.187508 -6.9796e-20)
(0.980437 0.187387 1.21297e-19)
(0.980526 0.187245 -5.20715e-19)
(0.980632 0.187083 3.45512e-20)
(0.980753 0.186899 2.92421e-19)
(0.980884 0.186695 -5.53706e-20)
(0.981023 0.186472 -9.33116e-19)
(0.981168 0.186233 7.88285e-20)
(0.981316 0.185985 8.44885e-19)
(0.981467 0.185733 -2.33065e-19)
(0.981622 0.185472 -4.46805e-19)
(0.981785 0.185192 2.73593e-19)
(0.981936 0.184903 7.85757e-19)
(0.982069 0.184597 1.83375e-18)
(0.98219 0.184263 -2.72872e-19)
(0.982298 0.183914 3.93711e-19)
(0.982401 0.183545 -2.75836e-18)
(0.982504 0.183152 -7.6047e-19)
(0.982617 0.182725 4.88347e-19)
(0.982748 0.182257 -2.03336e-18)
(0.982908 0.181741 -4.04589e-19)
(0.983111 0.181168 9.18474e-19)
(0.983373 0.18052 8.20385e-19)
(0.983711 0.179778 2.11209e-18)
(0.984147 0.178915 6.71331e-18)
(0.984701 0.177898 -5.25457e-18)
(0.985391 0.176689 8.35693e-18)
(0.98623 0.175252 6.16288e-18)
(0.987221 0.173555 -7.07389e-20)
(0.988343 0.171594 8.06309e-18)
(0.989572 0.169381 -1.07589e-17)
(0.990854 0.166966 -1.30391e-17)
(0.992143 0.16444 1.02493e-17)
(0.993384 0.161917 8.92288e-18)
(0.994513 0.159553 -3.8778e-18)
(0.995502 0.157469 -2.1306e-17)
(0.996103 0.155947 4.9535e-18)
(0.996712 0.154221 -5.4522e-18)
(0.997995 0.153722 -8.25397e-18)
(0.985887 0.166779 7.45646e-18)
(0.982709 0.188384 -5.75466e-21)
(0.982571 0.188348 6.32643e-21)
(0.982417 0.188335 4.37249e-20)
(0.982257 0.188311 -5.7412e-20)
(0.982091 0.188288 1.05732e-19)
(0.981919 0.18827 -1.56504e-19)
(0.981742 0.188254 4.44955e-20)
(0.981561 0.188242 -2.30992e-21)
(0.981378 0.188234 1.01515e-19)
(0.981195 0.188229 -5.38063e-20)
(0.981013 0.188226 1.63903e-20)
(0.980838 0.188225 1.69134e-20)
(0.980671 0.188222 -2.6436e-19)
(0.980517 0.188218 7.8664e-20)
(0.980379 0.188208 1.86096e-19)
(0.98026 0.188192 6.22762e-21)
(0.980164 0.188167 -3.17822e-19)
(0.980093 0.188131 1.30505e-19)
(0.980048 0.188081 6.17396e-19)
(0.980031 0.188016 -4.04305e-19)
(0.98004 0.187934 -3.12496e-19)
(0.980076 0.187832 2.65121e-19)
(0.980135 0.187708 1.75056e-19)
(0.980217 0.187565 1.95415e-19)
(0.980317 0.187395 -3.77977e-19)
(0.980434 0.187204 -8.29521e-19)
(0.980563 0.186989 6.23624e-19)
(0.980704 0.186753 9.0428e-19)
(0.980854 0.186501 2.63933e-19)
(0.98101 0.186238 -5.0781e-19)
(0.981175 0.185958 2.35176e-19)
(0.981349 0.18565 4.11085e-19)
(0.981511 0.185322 -6.84054e-19)
(0.981648 0.184967 -9.05857e-20)
(0.981769 0.184574 -1.19463e-18)
(0.981876 0.184156 -3.08364e-19)
(0.981978 0.183708 -3.21041e-19)
(0.982082 0.183224 7.92677e-19)
(0.982196 0.182696 -1.11763e-18)
(0.982328 0.182116 3.06773e-19)
(0.982491 0.181479 5.39654e-19)
(0.982697 0.180774 1.47079e-19)
(0.982962 0.179989 -3.18604e-18)
(0.983304 0.179105 -4.42922e-18)
(0.983742 0.178101 -3.76386e-18)
(0.984299 0.176951 7.59549e-18)
(0.98499 0.175626 4.43084e-19)
(0.985829 0.174096 -2.96068e-18)
(0.986819 0.17234 1.60214e-18)
(0.987942 0.170358 -9.84344e-18)
(0.989177 0.168167 4.73936e-18)
(0.990474 0.165815 1.32924e-17)
(0.991784 0.163386 -6.61222e-19)
(0.993056 0.160983 -1.19011e-17)
(0.994222 0.158753 5.60216e-18)
(0.995255 0.15681 5.28736e-18)
(0.995873 0.155443 6.70863e-18)
(0.99659 0.15393 1.54443e-17)
(0.99787 0.15359 1.52601e-17)
(0.985691 0.167258 -1.70829e-17)
(0.982653 0.188657 -5.05139e-21)
(0.982516 0.188622 7.33182e-21)
(0.982365 0.18861 1.57228e-21)
(0.982208 0.188586 2.8542e-20)
(0.982045 0.188564 -4.34664e-20)
(0.981876 0.188545 -9.03822e-20)
(0.981701 0.188529 3.20546e-20)
(0.981522 0.188516 -4.41817e-20)
(0.98134 0.188506 9.56231e-20)
(0.981155 0.1885 -1.95653e-20)
(0.98097 0.188495 -6.50858e-20)
(0.980787 0.188492 5.37109e-20)
(0.980609 0.188489 8.86319e-20)
(0.98044 0.188485 2.47866e-19)
(0.980284 0.188477 -4.51952e-19)
(0.980142 0.188464 2.325e-19)
(0.980019 0.188444 3.56432e-20)
(0.979918 0.188415 -2.32763e-19)
(0.979841 0.188374 -1.47179e-19)
(0.979789 0.188319 4.8472e-19)
(0.979764 0.188249 -5.11954e-19)
(0.979766 0.188161 1.53313e-19)
(0.979794 0.18805 -4.1844e-19)
(0.979846 0.18792 7.05729e-19)
(0.979921 0.187763 -1.44498e-19)
(0.980016 0.187581 -4.08547e-19)
(0.980129 0.187373 3.29277e-19)
(0.980258 0.18714 6.21606e-19)
(0.9804 0.186886 -5.85867e-19)
(0.980552 0.186614 3.59328e-19)
(0.980717 0.186317 -1.24319e-18)
(0.980895 0.185985 -1.37483e-19)
(0.98106 0.185623 5.34524e-19)
(0.981196 0.185225 -3.15718e-19)
(0.981313 0.18478 -6.44391e-19)
(0.981416 0.184302 -1.49081e-18)
(0.981516 0.183785 1.86228e-18)
(0.98162 0.183224 -7.5955e-19)
(0.981733 0.182609 5.50687e-19)
(0.981868 0.181934 1.16286e-18)
(0.982035 0.181193 9.50779e-19)
(0.982245 0.180379 -5.57871e-19)
(0.982515 0.17948 1.91957e-18)
(0.982862 0.17848 3.58018e-18)
(0.983306 0.177364 -3.63588e-19)
(0.983866 0.176108 -4.70233e-18)
(0.984559 0.174693 -6.22878e-18)
(0.985398 0.173096 -4.66751e-19)
(0.986387 0.1713 4.84366e-18)
(0.98751 0.169314 -1.09247e-18)
(0.988747 0.167153 8.86621e-18)
(0.990051 0.164866 -1.3455e-17)
(0.991378 0.16253 -7.19803e-18)
(0.992675 0.16024 -3.20676e-18)
(0.993875 0.158134 -6.35153e-18)
(0.994949 0.156322 4.0218e-18)
(0.995587 0.1551 -5.15665e-18)
(0.996408 0.153788 -2.07667e-17)
(0.997699 0.153605 -2.4136e-17)
(0.98553 0.167856 9.28475e-18)
(0.982574 0.188906 -7.87887e-21)
(0.982438 0.188877 6.35654e-21)
(0.982288 0.188866 5.09436e-21)
(0.982133 0.188842 -3.67339e-20)
(0.981972 0.188819 3.80912e-20)
(0.981806 0.188799 -1.90129e-20)
(0.981634 0.188779 6.24255e-20)
(0.981458 0.188763 -9.35697e-20)
(0.981277 0.188749 5.12882e-21)
(0.981094 0.188739 7.25222e-21)
(0.980908 0.188731 -7.15891e-20)