/*--------------------------------*- C++ -*----------------------------------*\
  =========                 |
  \\      /  F ield         | OpenFOAM: The Open Source CFD Toolbox
   \\    /   O peration     | Website:  https://openfoam.org
    \\  /    A nd           | Version:  6.0
     \\/     M anipulation  |
\*---------------------------------------------------------------------------*/
FoamFile
{
    version     2.0;
    format      ascii;
    class       volScalarField;
    location    "7";
    object      p;
}
// * * * * * * * * * * * * * * * * * * * * * * * * * * * * * * * * * * * * * //

dimensions      [0 2 -2 0 0 0 0];

internalField   nonuniform List<scalar> 
62000
(
0.0349778
0.0343244
0.0336459
0.03296
0.0322795
0.0316198
0.0309793
0.0303591
0.0297493
0.0291488
0.0285477
0.027947
0.0273374
0.026722
0.0260909
0.0254484
0.0247837
0.0241018
0.0233914
0.0226581
0.0218907
0.0210951
0.0202613
0.0193954
0.0184889
0.0175483
0.0165671
0.0155516
0.0144975
0.0134102
0.0122868
0.011129
0.00993912
0.00871875
0.00747592
0.00620398
0.00489005
0.00351779
0.00206836
0.000520743
-0.0011484
-0.00296182
-0.00493744
-0.00708228
-0.00938532
-0.0118117
-0.0142958
-0.016744
-0.0190337
-0.0210278
-0.0225813
-0.0235655
-0.0238572
-0.0233725
-0.0220425
-0.0198485
-0.0167205
-0.0126398
-0.0112866
-0.0190954
0.0358273
0.0352644
0.0346437
0.0339547
0.0332222
0.0324832
0.0317584
0.0310613
0.0303886
0.0297383
0.0290981
0.0284655
0.0278288
0.0271887
0.0265349
0.0258699
0.0251837
0.0244796
0.0237478
0.0229919
0.022203
0.0213846
0.0205292
0.0196403
0.0187124
0.0177492
0.0167473
0.0157103
0.014637
0.0135304
0.0123901
0.0112162
0.0100095
0.00877865
0.00752865
0.00625542
0.00494484
0.00357868
0.0021366
0.000594735
-0.00107541
-0.00290447
-0.00492101
-0.00714553
-0.00958219
-0.0122114
-0.0149797
-0.0177993
-0.0205423
-0.0230512
-0.0251415
-0.0266259
-0.0272944
-0.0269563
-0.0254099
-0.0225125
-0.0180819
-0.0121594
-0.00669824
-0.00141437
0.0375425
0.037219
0.0368148
0.0362861
0.0356474
0.034938
0.0341926
0.0334407
0.0326919
0.0319511
0.0312108
0.0304694
0.0297173
0.0289556
0.0281761
0.0273826
0.0265673
0.0257344
0.0248764
0.0239968
0.0230881
0.0221538
0.0211871
0.0201912
0.0191615
0.0181013
0.0170082
0.0158857
0.0147344
0.0135573
0.0123561
0.0111313
0.00988787
0.00863592
0.00738818
0.00614479
0.00489714
0.00363242
0.00233696
0.000994105
-0.000418444
-0.00192674
-0.00355732
-0.00533237
-0.00726188
-0.00933676
-0.0115182
-0.0137358
-0.0158813
-0.0178145
-0.0193695
-0.0203722
-0.0206295
-0.019968
-0.0182253
-0.0153717
-0.011481
-0.00711041
-0.00351785
-0.00317379
0.0402552
0.0400903
0.0398451
0.0394679
0.038955
0.0383339
0.0376405
0.036911
0.0361624
0.0354044
0.0346323
0.0338452
0.0330338
0.0321988
0.0313328
0.0304402
0.0295151
0.0285635
0.02758
0.0265701
0.0255283
0.0244592
0.0233579
0.0222282
0.0210668
0.019877
0.0186578
0.017413
0.0161438
0.0148544
0.0135474
0.012225
0.0108929
0.00956686
0.00826202
0.00698496
0.00573301
0.00449961
0.00327889
0.00206303
0.000838428
-0.000413093
-0.00171207
-0.00307811
-0.00452307
-0.00604545
-0.00762045
-0.00919831
-0.0106983
-0.012012
-0.0130129
-0.0135704
-0.0135447
-0.0128273
-0.0113471
-0.00922034
-0.00671279
-0.00459787
-0.00328109
-0.00429749
0.0432623
0.0431371
0.042947
0.0426457
0.0422135
0.0416651
0.0410328
0.0403542
0.0396493
0.0389299
0.0381927
0.0374359
0.0366488
0.0358299
0.0349701
0.034072
0.0331291
0.0321468
0.0311207
0.0300566
0.0289505
0.0278081
0.0266259
0.0254087
0.0241544
0.0228674
0.0215473
0.0201985
0.0188231
0.0174256
0.0160092
0.0145767
0.0131355
0.0117015
0.0102938
0.00892162
0.00758687
0.00628772
0.00502425
0.00379575
0.00259618
0.0014148
0.000237494
-0.000951141
-0.00216226
-0.00339844
-0.00464485
-0.00586829
-0.00701192
-0.00799656
-0.00873313
-0.00913174
-0.00910345
-0.0085951
-0.00759492
-0.0062873
-0.00494268
-0.00421579
-0.00405875
-0.00583114
0.0460978
0.0459483
0.0457537
0.0454733
0.0450753
0.044565
0.043971
0.0433306
0.0426654
0.0419889
0.0412989
0.0405935
0.0398613
0.0390988
0.0382949
0.0374495
0.0365541
0.0356119
0.034617
0.0335743
0.0324792
0.0313372
0.0301451
0.0289078
0.0276238
0.0262977
0.0249298
0.0235247
0.0220847
0.0206145
0.0191175
0.0175968
0.0160589
0.0145215
0.0130034
0.0115158
0.0100627
0.00864531
0.00726747
0.00593349
0.00464312
0.00339174
0.00217117
0.000970741
-0.000218157
-0.00139896
-0.00256226
-0.00368556
-0.00472866
-0.00563368
-0.00633843
-0.00678191
-0.00690796
-0.00669554
-0.00615379
-0.00546726
-0.00481771
-0.0046939
-0.00511173
-0.00723895
0.0487681
0.0485736
0.0483491
0.0480579
0.0476605
0.0471559
0.0465705
0.045941
0.0452904
0.0446334
0.0439692
0.0432966
0.0426047
0.0418893
0.0411383
0.0403499
0.0395139
0.0386314
0.0376948
0.0367067
0.0356614
0.0345627
0.0334064
0.0321965
0.0309309
0.0296137
0.0282448
0.0268284
0.0253667
0.0238638
0.0223228
0.0207463
0.019141
0.0175228
0.0159112
0.0143173
0.0127458
0.0111993
0.00968392
0.00820718
0.00677301
0.00538157
0.00402969
0.0027114
0.00142159
0.000158171
-0.00107127
-0.00224982
-0.00334742
-0.00431922
-0.0051203
-0.00570544
-0.00603832
-0.00611118
-0.00592785
-0.00564249
-0.00534225
-0.00542794
-0.00615348
-0.00846715
0.0513132
0.0510741
0.050816
0.0505041
0.0500938
0.0495793
0.0489856
0.0483492
0.0476939
0.0470351
0.0463739
0.0457098
0.0450333
0.0443402
0.0436188
0.0428666
0.042073
0.0412377
0.0403517
0.0394162
0.038424
0.0373772
0.0362701
0.0351052
0.0338793
0.032595
0.0312513
0.0298513
0.0283963
0.0268895
0.0253333
0.0237293
0.022083
0.02041
0.018728
0.0170478
0.0153738
0.013709
0.0120605
0.0104375
0.00884697
0.00729252
0.0057751
0.00429301
0.00284497
0.0014315
6.07241e-05
-0.00125244
-0.00248315
-0.0035935
-0.00454793
-0.00530891
-0.00584887
-0.00616349
-0.00624306
-0.00620589
-0.00606804
-0.00621004
-0.0071187
-0.00953216
0.0538357
0.0535554
0.0532622
0.0529234
0.0524907
0.0519559
0.0513426
0.0506874
0.0500143
0.0493397
0.0486651
0.0479912
0.0473092
0.0466158
0.0458998
0.045159
0.044383
0.043571
0.0427141
0.0418121
0.0408572
0.0398502
0.0387843
0.0376604
0.0364738
0.0352258
0.0339139
0.0325399
0.0311037
0.0296073
0.0280519
0.0264377
0.0247694
0.0230603
0.0213277
0.0195808
0.0178231
0.0160576
0.0142913
0.0125344
0.0107957
0.00908151
0.00739587
0.00574076
0.0041186
0.00253304
0.000994011
-0.000483323
-0.00187627
-0.0031497
-0.00427309
-0.00521015
-0.00593912
-0.0064542
-0.00672958
-0.006852
-0.0067923
-0.00694292
-0.00797076
-0.0104366
0.0563084
0.055993
0.0556697
0.0553064
0.0548525
0.054297
0.0536633
0.0529873
0.0522937
0.0515988
0.0509052
0.0502137
0.0495163
0.0488102
0.0480852
0.0473392
0.0465625
0.0457544
0.0449061
0.0440173
0.0430801
0.0420944
0.0410529
0.0399556
0.0387966
0.037576
0.0362899
0.0349387
0.033521
0.0320373
0.0304874
0.0288702
0.0271886
0.0254552
0.0236847
0.0218855
0.0200599
0.01821
0.0163427
0.0144684
0.0125969
0.0107362
0.00889304
0.00707231
0.00527979
0.00352228
0.00181215
0.000165962
-0.00139395
-0.00283292
-0.00412233
-0.00522486
-0.00612123
-0.00680345
-0.00723329
-0.00747228
-0.00746343
-0.00762005
-0.00873413
-0.0112239
0.0587983
0.0584512
0.0580988
0.0577102
0.0572326
0.0566537
0.0559965
0.0552969
0.0545799
0.0538619
0.0531456
0.052432
0.0517135
0.0509876
0.0502446
0.0494825
0.0486925
0.047874
0.0470188
0.0461266
0.0451899
0.0442082
0.0431741
0.042087
0.0409405
0.0397336
0.0384616
0.0371235
0.0357169
0.0342407
0.0326935
0.0310729
0.0293803
0.0276262
0.0258243
0.0239813
0.0220983
0.0201766
0.0182223
0.0162458
0.0142575
0.0122666
0.0102816
0.00830996
0.00636026
0.00444227
0.00257085
0.000764519
-0.000953899
-0.00254892
-0.00399283
-0.00524529
-0.0062905
-0.00711838
-0.00767961
-0.00801602
-0.00805384
-0.00822437
-0.00940207
-0.011894
0.0612828
0.0609083
0.0605313
0.0601205
0.0596216
0.0590209
0.0583414
0.0576187
0.0568784
0.0561369
0.0553972
0.0546602
0.053919
0.0531706
0.0524059
0.0516231
0.0508136
0.0499772
0.049106
0.0481999
0.0472517
0.0462611
0.0452208
0.0441299
0.0429819
0.0417751
0.0405045
0.039168
0.0377622
0.0362851
0.034734
0.0331051
0.0313985
0.0296233
0.0277914
0.0259082
0.0239736
0.021988
0.0199567
0.0178896
0.0157975
0.0136902
0.0115776
0.00946916
0.00737587
0.00531014
0.00328922
0.00133369
-0.000532793
-0.00227339
-0.00386027
-0.00525047
-0.00643025
-0.00738876
-0.00806912
-0.00849728
-0.00858762
-0.00878305
-0.0100081
-0.0124835
0.0638226
0.0634215
0.0630186
0.0625833
0.0620601
0.0614347
0.0607299
0.059982
0.0592163
0.0584496
0.0576847
0.0569228
0.0561566
0.0553833
0.054594
0.0537868
0.0529534
0.0520938
0.0512004
0.0502733
0.0493057
0.0482972
0.0472408
0.0461357
0.0449751
0.0437574
0.0424768
0.041131
0.0397159
0.0382286
0.0366655
0.0350216
0.0332961
0.0314962
0.0296326
0.0277094
0.0257254
0.02368
0.0215779
0.0194283
0.0172421
0.0150297
0.0128017
0.0105693
0.00834549
0.00614493
0.00398702
0.00189439
-0.000108415
-0.001983
-0.00370192
-0.00521822
-0.00652239
-0.00760284
-0.00839558
-0.00891308
-0.0090608
-0.00928611
-0.0105416
-0.0129811
0.0663625
0.0659377
0.0655128
0.0650565
0.0645122
0.0638649
0.0631375
0.0623663
0.0615774
0.0607869
0.0599984
0.0592125
0.0584222
0.0576245
0.0568107
0.0559786
0.0551204
0.0542357
0.0533175
0.0523657
0.051374
0.0503421
0.0492632
0.0481365
0.0469554
0.0457181
0.0444189
0.0430548
0.0416216
0.0401156
0.0385327
0.036867
0.0351164
0.0332872
0.0313885
0.0294235
0.0273897
0.025286
0.0231162
0.0208889
0.0186147
0.0163045
0.0139695
0.011622
0.00927685
0.00695057
0.00466452
0.00244325
0.000312091
-0.00168902
-0.00353256
-0.00516836
-0.0065899
-0.00778592
-0.00868721
-0.00929425
-0.00950403
-0.00976311
-0.0110352
-0.0134197
0.0689614
0.0685138
0.0680661
0.0675871
0.0670196
0.0663479
0.0655957
0.0647994
0.0639854
0.0631701
0.0623567
0.0615459
0.0607305
0.0599073
0.0590677
0.0582093
0.0573243
0.0564126
0.0554672
0.0544881
0.0534692
0.05241
0.0513043
0.0501511
0.048944
0.047681
0.0463564
0.0449673
0.0435088
0.0419771
0.0403675
0.0386735
0.0368923
0.0350287
0.033091
0.0310811
0.0289959
0.0268336
0.0245971
0.0222946
0.0199364
0.0175334
0.0150976
0.012642
0.010183
0.0077387
0.00533216
0.00298982
0.000737708
-0.00138288
-0.00334502
-0.00509421
-0.00662842
-0.00793638
-0.008943
-0.00963749
-0.00990943
-0.0101997
-0.0114776
-0.0137881
0.0715855
0.0711172
0.0706496
0.0701506
0.069562
0.0688677
0.0680918
0.0672709
0.0664322
0.0655918
0.0647534
0.0639172
0.0630765
0.0622276
0.061362
0.0604769
0.0595651
0.0586257
0.0576522
0.0566444
0.0555965
0.0545079
0.0533726
0.0521896
0.0509526
0.0496596
0.0483051
0.0468856
0.0453965
0.0438335
0.0421917
0.040464
0.0386468
0.0367443
0.0347634
0.0327054
0.0305665
0.0283441
0.0260406
0.0236635
0.0212229
0.0187298
0.0161962
0.0136362
0.0110673
0.00850889
0.00598571
0.00352595
0.00115628
-0.00108086
-0.0031588
-0.0050193
-0.00666324
-0.00807991
-0.00918944
-0.00996995
-0.0103036
-0.0106223
-0.0118997
-0.0141269
0.0742914
0.0738012
0.073311
0.0727884
0.0721748
0.0714542
0.0706512
0.0698029
0.0689368
0.0680692
0.0672037
0.0663404
0.0654723
0.0645959
0.0637022
0.0627888
0.0618479
0.0608792
0.0598759
0.0588377
0.057759
0.0566392
0.0554723
0.0542571
0.0529876
0.0516616
0.0502736
0.04882
0.0472961
0.0456976
0.044019
0.0422532
0.0403958
0.0384501
0.0364223
0.0343129
0.0321175
0.029833
0.0274614
0.0250095
0.0224872
0.0199052
0.0172761
0.0146145
0.0119388
0.00926967
0.00663319
0.00405944
0.00157569
-0.00077479
-0.00296634
-0.00493526
-0.00668688
-0.00820992
-0.00941904
-0.0102813
-0.0106719
-0.0110111
-0.0122763
-0.0144278
0.0770136
0.0765031
0.0759929
0.0754496
0.074814
0.0740697
0.0732419
0.072368
0.0714763
0.0705826
0.0696911
0.0688014
0.0679067
0.0670029
0.0660816
0.0651397
0.0641699
0.0631714
0.0621377
0.0610682
0.0599577
0.0588053
0.0576052
0.0563561
0.055052
0.0536907
0.0522666
0.0507761
0.0492143
0.0475768
0.045858
0.0440503
0.0421489
0.0401566
0.0380786
0.0359147
0.0336602
0.0313116
0.0288701
0.0263423
0.0237377
0.0210668
0.0183425
0.0155797
0.0127977
0.0100185
0.00726919
0.0045818
0.00198422
-0.000479703
-0.00278499
-0.0048626
-0.00672073
-0.00834787
-0.00965401
-0.0105948
-0.0110384
-0.0113916
-0.0126327
-0.014729
0.0798076
0.079276
0.078744
0.0781774
0.0775167
0.0767456
0.0758901
0.0749884
0.0740687
0.0731474
0.0722283
0.0713109
0.0703881
0.0694559
0.0685056
0.0675339
0.0665337
0.0655039
0.0644384
0.0633364
0.0621928
0.0610064
0.0597717
0.0584872
0.0571469
0.0557484
0.0542862
0.0527565
0.0511544
0.0494754
0.0477135
0.045861
0.0439127
0.0418706
0.0397394
0.0375182
0.035202
0.032787
0.030274
0.027669
0.0249811
0.022221
0.0194014
0.016538
0.0136505
0.0107618
0.00790042
0.00510038
0.00239005
-0.000186365
-0.0026051
-0.00479032
-0.00675382
-0.00848319
-0.0098825
-0.0108962
-0.0113851
-0.0117426
-0.0129472
-0.015009
0.0826324
0.0820809
0.081529
0.0809413
0.0802574
0.0794609
0.0785787
0.0776492
0.0767018
0.0757524
0.0748053
0.0738596
0.0729086
0.0719474
0.0709678
0.069966
0.0689351
0.0678737
0.0667759
0.0656407
0.064463
0.0632418
0.0619713
0.0606501
0.0592722
0.0578351
0.0563332
0.0547625
0.0531181
0.0513953
0.049588
0.0476883
0.0456905
0.0435961
0.0414091
0.0391282
0.0367479
0.0342644
0.0316778
0.0289938
0.0262213
0.0233706
0.0204547
0.0174894
0.0144952
0.0114958
0.00852106
0.00560697
0.00278238
9.18155e-05
-0.00244193
-0.00473621
-0.00680475
-0.0086347
-0.0101244
-0.0112071
-0.0117357
-0.012091
-0.0132501
-0.0152965
0.0855415
0.0849678
0.0843923
0.083779
0.0830674
0.0822414
0.0813286
0.0803683
0.0793901
0.0784104
0.077433
0.0764571
0.0754756
0.0744839
0.073473
0.0724395
0.0713762
0.0702818
0.0691503
0.0679806
0.0667677
0.0655105
0.0642032
0.0628442
0.0614276
0.0599505
0.0584074
0.0567942
0.0551059
0.0533375
0.0514828
0.0495338
0.0474844
0.0453355
0.0430904
0.0407474
0.0383009
0.0357467
0.0330846
0.0303199
0.0274613
0.0245188
0.0215054
0.0184375
0.0153359
0.0122253
0.00913654
0.00610809
0.00316888
0.000364073
-0.00228518
-0.0046877
-0.00686048
-0.00878903
-0.0103647
-0.01151
-0.0120696
-0.0124136
-0.0135181
-0.0155644
0.088467
0.0878721
0.0872753
0.0866391
0.0859026
0.0850494
0.0841083
0.0831189
0.0821117
0.0811026
0.080096
0.0790905
0.0780792
0.0770569
0.0760151
0.0749497
0.0738538
0.0727259
0.07156
0.070355
0.0691061
0.0678118
0.0664666
0.0650687
0.0636121
0.0620938
0.0605083
0.0588513
0.0571175
0.0553019
0.0533983
0.0513982
0.0492952
0.0470898
0.0447846
0.0423776
0.0398628
0.0372358
0.0344963
0.031649
0.0287023
0.0256661
0.0225535
0.019381
0.01617
0.012946
0.00974094
0.00659599
0.00353952
0.000618378
-0.00214875
-0.00466093
-0.00693792
-0.00896373
-0.0106225
-0.0118263
-0.012411
-0.0127384
-0.0137817
-0.0158438
0.0914632
0.0908458
0.0902253
0.0895633
0.0887983
0.0879148
0.0869422
0.0859211
0.0848822
0.083842
0.0828045
0.081768
0.0807254
0.0796713
0.0785971
0.0774986
0.0763687
0.075206
0.0740045
0.0727631
0.071477
0.0701446
0.0687604
0.0673224
0.0658248
0.0642642
0.0626351
0.060933
0.0591524
0.0572884
0.0553343
0.0532815
0.0511233
0.0488596
0.0464925
0.0440195
0.0414344
0.0387327
0.0359137
0.0329819
0.0299453
0.0268137
0.0236003
0.0203217
0.0169998
0.0136609
0.0103386
0.00707572
0.00390119
0.000862649
-0.00202194
-0.00464365
-0.00702375
-0.00914468
-0.0108821
-0.0121376
-0.0127388
-0.0130414
-0.0140167
-0.0161064
0.0944883
0.0938494
0.093207
0.0925211
0.0917297
0.0908171
0.0898138
0.0887611
0.0876907
0.0866186
0.0855496
0.0844813
0.083407
0.0823204
0.0812134
0.0800811
0.0789169
0.0777188
0.0764812
0.0752026
0.0738785
0.0725071
0.071083
0.0696041
0.0680645
0.0664606
0.0647869
0.0630385
0.0612101
0.0592963
0.0572904
0.0551835
0.0529686
0.0506449
0.0482142
0.0456734
0.0430162
0.0402379
0.0373374
0.034319
0.0311904
0.0279614
0.0246448
0.0212578
0.0178224
0.0143664
0.0109238
0.00754071
0.00424445
0.00108686
-0.00191808
-0.00465027
-0.00713406
-0.00934908
-0.0111626
-0.0124656
-0.0130779
-0.0133512
-0.0142538
-0.0163842
0.097593
0.0969298
0.0962613
0.0955467
0.0947239
0.0937778
0.0927398
0.0916522
0.090547
0.0894409
0.0883379
0.0872359
0.0861276
0.0850072
0.0838654
0.0826982
0.081498
0.0802634
0.0789886
0.0776719
0.0763089
0.0748978
0.0734329
0.0719123
0.0703298
0.0686818
0.0669625
0.065167
0.0632896
0.061325
0.0592661
0.0571038
0.0548307
0.0524456
0.0499496
0.0473393
0.0446081
0.0417512
0.0387673
0.0356602
0.0324377
0.0291091
0.0256876
0.0221901
0.0186393
0.0150641
0.0115
0.0079946
0.00457573
0.00129741
-0.00182608
-0.00466891
-0.00725558
-0.00956208
-0.0114468
-0.0127906
-0.0134055
-0.0136423
-0.014467
-0.0166467
0.100709
0.100022
0.0993298
0.098589
0.0977376
0.0967604
0.09569
0.0945691
0.0934309
0.0922917
0.0911558
0.0900206
0.0888791
0.0877245
0.0865484
0.0853456
0.0841094
0.0828377
0.081525
0.0801695
0.0787669
0.0773152
0.0758089
0.0742458
0.0726196
0.0709266
0.0691609
0.0673174
0.0653903
0.0633738
0.0612608
0.0590418
0.0567093
0.0542612
0.0516984
0.0490169
0.04621
0.0432727
0.0402033
0.0370056
0.033687
0.0302566
0.0267277
0.023117
0.0194485
0.0157511
0.012063
0.00843179
0.00488759
0.0014857
-0.0017578
-0.00471303
-0.00740355
-0.00980066
-0.0117542
-0.0131349
-0.0137476
-0.0139442
-0.0146879
-0.0169284
0.103887
0.103175
0.102455
0.101685
0.100801
0.0997895
0.0986833
0.0975266
0.0963529
0.0951787
0.0940083
0.0928388
0.0916626
0.0904732
0.0892615
0.0880226
0.0867493
0.0854399
0.0840886
0.0826936
0.0812507
0.0797578
0.0782094
0.0766031
0.0749326
0.0731941
0.0713813
0.069489
0.0675112
0.065442
0.0632739
0.0609973
0.0586038
0.0560915
0.0534602
0.0507059
0.0478215
0.0448019
0.0416451
0.0383547
0.034938
0.0314039
0.0277653
0.0240394
0.0202508
0.0164294
0.0126155
0.0088562
0.00518566
0.00165836
-0.00170187
-0.00477096
-0.00756519
-0.0100502
-0.0120677
-0.0134784
-0.014081
-0.0142312
-0.0148904
-0.017197
0.107085
0.106348
0.105603
0.104805
0.103891
0.102846
0.101705
0.100512
0.0993031
0.0980935
0.0968882
0.0956837
0.0944726
0.0932479
0.0920005
0.090725
0.0894146
0.0880671
0.0866769
0.0852421
0.0837585
0.082224
0.080633
0.0789831
0.0772678
0.0754831
0.0736226
0.0716809
0.0696518
0.067529
0.065305
0.0629695
0.0605142
0.0579359
0.0552348
0.052406
0.0494425
0.0463388
0.0430928
0.039708
0.0361911
0.0325511
0.0288004
0.0249569
0.0210455
0.0170976
0.0131546
0.00926432
0.00546414
0.00180914
-0.00166972
-0.00485373
-0.00775447
-0.0103276
-0.0124067
-0.0138443
-0.0144325
-0.0145338
-0.0151068
-0.0174885
0.110351
0.109586
0.108811
0.10798
0.10703
0.105947
0.104767
0.103535
0.102288
0.101041
0.0997981
0.0985573
0.0973097
0.0960487
0.0947644
0.0934519
0.0921034
0.0907175
0.089288
0.0878132
0.0862887
0.0847124
0.0830785
0.0813847
0.0796242
0.0777929
0.0758843
0.0738926
0.0718114
0.0696345
0.0673536
0.0649585
0.0624397
0.0597946
0.057022
0.0541172
0.0510729
0.0478835
0.0445466
0.0410655
0.0374466
0.0336986
0.029834
0.0258705
0.0218344
0.0177575
0.0136839
0.00966003
0.00572943
0.00194484
-0.00164897
-0.00495027
-0.00795845
-0.0106174
-0.0127534
-0.0142114
-0.0147775
-0.0148253
-0.0153105
-0.0177703
0.113619
0.112826
0.112023
0.111162
0.110179
0.109061
0.107844
0.106576
0.105291
0.104008
0.10273
0.101454
0.10017
0.0988733
0.0975526
0.0962027
0.0948164
0.0933916
0.0919225
0.0904072
0.0888413
0.0872228
0.0855456
0.0838074
0.0820013
0.0801229
0.0781657
0.0761236
0.07399
0.0717581
0.0694197
0.0669637
0.0643809
0.0616672
0.0588218
0.0558396
0.0527132
0.0494366
0.0460074
0.0424283
0.0387058
0.0348479
0.030867
0.0267814
0.0226179
0.0184096
0.014202
0.0100417
0.00597718
0.00206072
-0.0016506
-0.0050712
-0.00819013
-0.0109361
-0.0131275
-0.0146036
-0.0151433
-0.0151361
-0.0155346
-0.0180839
0.116939
0.116117
0.115283
0.114389
0.11337
0.112213
0.110956
0.109648
0.108325
0.107005
0.105689
0.104376
0.103057
0.101723
0.100365
0.0989776
0.0975528
0.0960888
0.0945797
0.0930235
0.0914159
0.0897547
0.0880339
0.0862509
0.0843988
0.082473
0.0804668
0.0783738
0.0761871
0.0738998
0.0715031
0.0689857
0.0663374
0.0635541
0.0606349
0.0575739
0.0543641
0.0509991
0.0474761
0.0437976
0.0399696
0.036
0.0319009
0.0276912
0.023398
0.0190563
0.0147124
0.0104136
0.00621389
0.00216412
-0.00166255
-0.00520589
-0.00843729
-0.0112685
-0.013511
-0.0149996
-0.0155059
-0.0154396
-0.0157502
-0.0183965
0.120276
0.119425
0.118562
0.117637
0.116583
0.115389
0.114094
0.112747
0.111385
0.110026
0.108674
0.107324
0.105967
0.104596
0.103201
0.101776
0.100312
0.0988089
0.0972595
0.095662
0.0940123
0.0923081
0.0905432
0.0887151
0.0868166
0.084843
0.0827873
0.080643
0.0784028
0.0760595
0.0736038
0.071024
0.0683095
0.0654556
0.0624613
0.0593209
0.0560267
0.0525722
0.0489542
0.0451749
0.0412399
0.0371567
0.0329375
0.0286014
0.0241764
0.0196982
0.0152154
0.0107744
0.00643653
0.00224972
-0.00169572
-0.00536413
-0.00871212
-0.0116307
-0.013924
-0.0154239
-0.0158938
-0.0157679
-0.0159843
-0.0187506
0.123678
0.122796
0.1219
0.120938
0.119845
0.118609
0.117272
0.115883
0.11448
0.113081
0.111689
0.1103
0.108906
0.107497
0.106063
0.104599
0.103096
0.101552
0.0999618
0.0983228
0.0966305
0.0948829
0.0930736
0.0912
0.0892547
0.0872329
0.0851274
0.0829313
0.0806371
0.0782372
0.0757219
0.0730791
0.0702973
0.0673722
0.0643023
0.0610819
0.0577025
0.0541575
0.0504432
0.0465616
0.042518
0.0383195
0.0339782
0.0295136
0.0249545
0.0203376
0.0157135
0.0111282
0.00665057
0.00232486
-0.00173906
-0.00553587
-0.00900238
-0.0120073
-0.014348
-0.0158542
-0.0162827
-0.0160921
-0.0162062
-0.0191118
0.127088
0.126174
0.125247
0.124251
0.123122
0.121848
0.120471
0.119041
0.117599
0.116161
0.114731
0.113304
0.111872
0.110424
0.108952
0.107448
0.105905
0.104321
0.102689
0.101007
0.0992717
0.09748
0.0956256
0.0937059
0.0917134
0.0896429
0.0874871
0.0852388
0.0828901
0.0804331
0.0778577
0.0751511
0.0723019
0.0693049
0.0661592
0.062858
0.0593928
0.0557562
0.0519444
0.047959
0.0438052
0.0394896
0.0350243
0.0304292
0.0257335
0.0209752
0.0162065
0.0114736
0.00685213
0.00238392
-0.00180393
-0.00573103
-0.00931976
-0.0124141
-0.0148032
-0.0163153
-0.0167003
-0.0164401
-0.0164465
-0.0195222
0.130553
0.129606
0.128645
0.127613
0.126445
0.125128
0.123709
0.122237
0.120753
0.119274
0.117805
0.116339
0.114867
0.113381
0.111868
0.110324
0.10874
0.107114
0.10544
0.103715
0.101936
0.100099
0.0981994
0.0962332
0.0941929
0.0920733
0.0898668
0.0875659
0.0851623
0.0826478
0.0800119
0.0772414
0.0743241
0.0712551
0.0680331
0.0646506
0.0610986
0.0573693
0.0534585
0.0493679
0.0451022
0.0406677
0.0360764
0.0313486
0.026514
0.021612
0.0166961
0.0118135
0.00704554
0.00243309
-0.00188084
-0.005941
-0.0096531
-0.0128361
-0.0152711
-0.0167849
-0.0171217
-0.0167852
-0.0166783
-0.0199383
0.134056
0.133076
0.13208
0.131013
0.129806
0.128448
0.126986
0.125471
0.123945
0.122425
0.120915
0.119408
0.117896
0.116368
0.114815
0.113229
0.111602
0.109933
0.108216
0.106447
0.104623
0.102742
0.100796
0.0987824
0.096694
0.0945248
0.0922672
0.0899131
0.0874543
0.0848819
0.0821852
0.0793504
0.0763649
0.0732235
0.0699245
0.06646
0.0628202
0.0589971
0.054986
0.0507886
0.0464094
0.0418542
0.0371349
0.0322723
0.0272963
0.0222478
0.0171811
0.0121455
0.00722639
0.00246577
-0.00198078
-0.00617595
-0.0100143
-0.0132895
-0.0157725
-0.0172881
-0.0175744
-0.0171587
-0.0169336
-0.0203946
0.137705
0.136683
0.135641
0.134523
0.133262
0.131851
0.130335
0.12877
0.127194
0.125626
0.124068
0.122516
0.120958
0.119386
0.117788
0.116159
0.114489
0.112777
0.111016
0.109203
0.107335
0.105408
0.103415
0.101354
0.0992171
0.0969978
0.0946885
0.0922809
0.0897662
0.0871357
0.0843777
0.0814782
0.0784241
0.0752098
0.0718332
0.0682859
0.0645574
0.0606392
0.0565266
0.0522208
0.0477263
0.0430486
0.0381993
0.0331997
0.0280799
0.0228824
0.0176622
0.012471
0.00739789
0.00248661
-0.00209547
-0.00642805
-0.0103928
-0.0137595
-0.0162885
-0.0178025
-0.0180334
-0.0175346
-0.0171865
-0.0208443
0.141249
0.140193
0.13912
0.13797
0.136675
0.135226
0.133672
0.132066
0.13045
0.128842
0.127244
0.125651
0.124052
0.122438
0.120797
0.119124
0.11741
0.115653
0.113847
0.111989
0.110074
0.1081
0.10606
0.10395
0.101763
0.099493
0.0971311
0.0946691
0.092098
0.0894085
0.0865888
0.0836241
0.0805009
0.0772132
0.0737585
0.0701275
0.0663092
0.0622949
0.0580794
0.0536638
0.0490525
0.0442505
0.0392693
0.0341304
0.0288644
0.0235149
0.0181378
0.0127872
0.00755544
0.00248898
-0.00223487
-0.00670694
-0.0108005
-0.0142622
-0.0168398
-0.0183525
-0.018526
-0.0179418
-0.0174667
-0.0213284
0.145005
0.143911
0.142795
0.141595
0.140246
0.138742
0.13713
0.135468
0.133797
0.132136
0.130487
0.128845
0.127197
0.125536
0.123848
0.122129
0.120369
0.118566
0.116712
0.114807
0.112844
0.110822
0.108732
0.106572
0.104334
0.102011
0.0995952
0.0970777
0.094449
0.0916998
0.0888175
0.0857871
0.0825942
0.0792326
0.0756989
0.0719834
0.0680745
0.0639629
0.0596432
0.0551166
0.0503868
0.0454588
0.0403438
0.0350635
0.0296489
0.0241446
0.0186079
0.0130948
0.00770135
0.00247666
-0.00239201
-0.00700552
-0.0112277
-0.0147836
-0.017408
-0.0189165
-0.0190283
-0.0183549
-0.0177469
-0.0218045
0.148662
0.147537
0.146392
0.145163
0.143782
0.142239
0.140587
0.138883
0.137169
0.135465
0.133772
0.132085
0.130392
0.128684
0.12695
0.125183
0.123374
0.121521
0.119618
0.117663
0.115649
0.113575
0.111434
0.109221
0.10693
0.104552
0.102081
0.0995064
0.096819
0.0940088
0.0910632
0.087966
0.0847029
0.0812664
0.0776531
0.073852
0.0698515
0.0656417
0.061217
0.056578
0.0517285
0.0466728
0.0414222
0.0359984
0.0304327
0.0247708
0.0190709
0.0133915
0.00783157
0.00244385
-0.00257526
-0.00733273
-0.011686
-0.0153398
-0.0180138
-0.0195186
-0.0195668
-0.0188012
-0.0180557
-0.0223177
0.152556
0.151394
0.150206
0.148927
0.147492
0.145893
0.144183
0.142421
0.140651
0.138891
0.137143
0.135403
0.133656
0.131896
0.130109
0.128289
0.126427
0.124521
0.122565
0.120556
0.118489
0.116361
0.114165
0.111897
0.10955
0.107117
0.104588
0.101955
0.0992071
0.0963348
0.0933245
0.0901598
0.0868252
0.0833133
0.0796192
0.0757317
0.0716387
0.0673299
0.0627991
0.0580468
0.0530762
0.0478914
0.0425034
0.036934
0.0312148
0.0253925
0.0195265
0.0136774
0.00794788
0.00239363
-0.00277869
-0.007682
-0.0121663
-0.0159168
-0.0186387
-0.0201369
-0.0201178
-0.0192555
-0.0183658
-0.0228244
0.156342
0.15515
0.153936
0.152631
0.151163
0.149527
0.147775
0.145969
0.144152
0.142345
0.140549
0.138758
0.136961
0.135149
0.133309
0.131436
0.12952
0.12756
0.125549
0.123484
0.121361
0.119177
0.116924
0.1146
0.112195
0.109703
0.107115
0.104422
0.101612
0.0986763
0.0956001
0.0923666
0.08896
0.0853712
0.0815956
0.0776209
0.0734345
0.0690261
0.0643886
0.059522
0.0544293
0.0491141
0.043587
0.0378701
0.0319951
0.0260095
0.0199739
0.0139511
0.00804721
0.00232157
-0.00300915
-0.00806124
-0.0126795
-0.0165303
-0.0193028
-0.0207947
-0.020706
-0.019743
-0.0187047
-0.0233679
0.160326
0.159106
0.157855
0.156506
0.154988
0.153295
0.151484
0.149617
0.147739
0.145872
0.144016
0.142168
0.140314
0.138445
0.136549
0.13462
0.132647
0.130631
0.128563
0.126441
0.124261
0.122019
0.119708
0.117325
0.114862
0.11231
0.109661
0.106906
0.104033
0.101032
0.0978884
0.0945851
0.091105
0.0874391
0.0835809
0.079518
0.0752376
0.0707288
0.0659839
0.0610023
0.0557866
0.0503396
0.0446721
0.0388056
0.0327725
0.0266207
0.0204125
0.0142124
0.00813086
0.00223008
-0.00326192
-0.00846462
-0.013217
-0.017167
-0.0199881
-0.0214709
-0.021309
-0.0202401
-0.0190462
-0.0239063
0.164233
0.162979
0.161694
0.160308
0.158748
0.15701
0.15515
0.153234
0.151305
0.149388
0.147481
0.145582
0.143676
0.141756
0.139807
0.137825
0.135798
0.133727
0.131603
0.129424
0.127186
0.124885
0.122515
0.120072
0.117547
0.114934
0.112223
0.109404
0.106467
0.1034
0.100188
0.0968136
0.0932596
0.0895149
0.0855735
0.0814217
0.0770467
0.072437
0.0675842
0.0624871
0.0571475
0.0515679
0.0457584
0.0397408
0.0335472
0.0272265
0.0208422
0.0144608
0.00819683
0.00211607
-0.00354221
-0.00889919
-0.0137893
-0.017842
-0.0207141
-0.0221877
-0.0219498
-0.0207707
-0.0194166
-0.024483
0.168117
0.166826
0.165505
0.164081
0.16248
0.160699
0.158796
0.156835
0.154863
0.152902
0.150951
0.149007
0.147054
0.145085
0.143086
0.141052
0.138971
0.136844
0.134664
0.132427
0.13013
0.12777
0.12534
0.122836
0.12025
0.117574
0.114799
0.111916
0.108913
0.105778
0.102497
0.0990506
0.0954211
0.0915976
0.0875719
0.0833306
0.0788604
0.0741494
0.0691883
0.0639751
0.058511
0.0527978
0.046845
0.0406742
0.034318
0.0278255
0.021262
0.0146954
0.00824582
0.00198112
-0.00384614
-0.00935957
-0.0143878
-0.0185421
-0.021463
-0.0229245
-0.0226067
-0.0213115
-0.0197896
-0.0250561
0.172018
0.170691
0.169333
0.16787
0.166226
0.164399
0.162446
0.160437
0.158417
0.15641
0.154414
0.152425
0.150427
0.148413
0.146367
0.144283
0.142152
0.139973
0.137738
0.135445
0.13309
0.13067
0.128179
0.125613
0.122964
0.120224
0.117386
0.114437
0.111367
0.108164
0.104813
0.101293
0.0975885
0.0936846
0.0895744
0.0852431
0.0806774
0.075865
0.0707954
0.0654658
0.0598768
0.054029
0.0479318
0.0416063
0.0350855
0.0284182
0.0216721
0.0149162
0.00827693
0.00182333
-0.00417758
-0.0098518
-0.0150222
-0.0192817
-0.0222529
-0.0237017
-0.0233007
-0.0218845
-0.0201904
-0.0256674
0.176024
0.174659
0.173262
0.171756
0.170065
0.168186
0.166181
0.164117
0.162044
0.159984
0.157936
0.155894
0.153844
0.151777
0.149678
0.14754
0.145354
0.143119
0.140826
0.138474
0.13606
0.13358
0.131028
0.128399
0.125687
0.122883
0.119979
0.116964
0.113827
0.110555
0.107133
0.10354
0.0997586
0.0957749
0.0915795
0.087158
0.0824966
0.0775825
0.0724042
0.0669579
0.0612433
0.0552603
0.0490173
0.0425356
0.0358474
0.029003
0.0220708
0.0151223
0.00828941
0.00164431
-0.00453393
-0.0103713
-0.0156848
-0.0200481
-0.0230671
-0.0244998
-0.0240113
-0.0224677
-0.0205936
-0.0262753
0.180067
0.178665
0.177229
0.175681
0.173943
0.172013
0.169954
0.167834
0.165705
0.163588
0.161485
0.159388
0.157283
0.155161
0.153007
0.150813
0.14857
0.146277
0.143926
0.141514
0.139039
0.136497
0.133882
0.131191
0.128415
0.125546
0.122576
0.119495
0.116289
0.112948
0.109454
0.105788
0.10193
0.0978657
0.0935854
0.0890736
0.0843164
0.0793006
0.0740136
0.0684506
0.0626102
0.0564912
0.0501017
0.0434618
0.0366048
0.0295798
0.0224589
0.015313
0.00828402
0.00144239
-0.00491705
-0.0109233
-0.0163846
-0.0208548
-0.0239224
-0.0253379
-0.0247583
-0.023082
-0.0210235
-0.0269208
0.184175
0.182734
0.181257
0.179665
0.177879
0.175897
0.173782
0.171605
0.169419
0.167245
0.165083
0.162928
0.160764
0.158582
0.156366
0.154111
0.151806
0.14945
0.147037
0.144562
0.142024
0.139419
0.13674
0.133984
0.131143
0.128208
0.125173
0.122024
0.11875
0.115339
0.111774
0.108035
0.1041
0.0999555