/*--------------------------------*- C++ -*----------------------------------*\
  =========                 |
  \\      /  F ield         | OpenFOAM: The Open Source CFD Toolbox
   \\    /   O peration     | Website:  https://openfoam.org
    \\  /    A nd           | Version:  6.0
     \\/     M anipulation  |
\*---------------------------------------------------------------------------*/
FoamFile
{
    version     2.0;
    format      ascii;
    class       surfaceScalarField;
    location    "7";
    object      phi;
}
// * * * * * * * * * * * * * * * * * * * * * * * * * * * * * * * * * * * * * //

dimensions      [0 3 -1 0 0 0 0];

internalField   nonuniform List<scalar> 
123526
(
-8.11781e-05
2.26159e-05
8.15381e-05
-8.07943e-05
2.44629e-05
-8.03605e-05
2.64611e-05
-7.99117e-05
2.86229e-05
-7.94082e-05
3.09618e-05
-7.88843e-05
3.34922e-05
-7.82998e-05
3.623e-05
-7.76872e-05
3.91922e-05
-7.70045e-05
4.23965e-05
-7.62846e-05
4.58636e-05
-7.54857e-05
4.9616e-05
-7.46391e-05
5.3677e-05
-7.37012e-05
5.80724e-05
-7.2701e-05
6.28275e-05
-7.15931e-05
6.79744e-05
-7.04098e-05
7.35503e-05
-6.91073e-05
7.9588e-05
-6.77039e-05
8.61191e-05
-6.616e-05
9.31954e-05
-6.44997e-05
0.000100864
-6.26746e-05
0.000109162
-6.0699e-05
0.000118152
-5.85425e-05
0.000127899
-5.61957e-05
0.000138441
-5.3635e-05
0.000149877
-5.08546e-05
0.000162259
-4.78153e-05
0.000175671
-4.45175e-05
0.000190207
-4.09127e-05
0.000205941
-3.70002e-05
0.000222992
-3.27281e-05
0.00024144
-2.80828e-05
0.000261418
-2.3015e-05
0.000283021
-1.74971e-05
0.000306382
-1.15023e-05
0.000331626
-4.97864e-06
0.000358858
2.10369e-06
0.000388228
9.79387e-06
0.000419835
1.81397e-05
0.000453786
2.71743e-05
0.00049019
3.6938e-05
0.000529107
4.74705e-05
0.000570576
5.87939e-05
0.000614606
7.09223e-05
0.000661141
8.38613e-05
0.00071005
9.7609e-05
0.000761104
0.000112157
0.000813929
0.000127512
0.000867936
0.000143683
0.000922215
0.000160737
0.000975403
0.00017866
0.00102554
0.000197531
0.00106988
0.000217244
0.00110484
0.000237647
0.00112588
0.000258512
0.00112756
0.000279239
0.00110379
0.000299346
0.00104681
0.000317931
0.000947574
0.000334487
0.000785181
0.000546921
0.000329668
-7.90605e-05
2.22365e-05
7.94363e-05
-7.86671e-05
2.40543e-05
-7.82255e-05
2.60214e-05
-7.77669e-05
2.81506e-05
-7.72569e-05
3.0455e-05
-7.67267e-05
3.29491e-05
-7.61417e-05
3.56483e-05
-7.55302e-05
3.85694e-05
-7.48572e-05
4.17288e-05
-7.41501e-05
4.51473e-05
-7.33747e-05
4.88474e-05
-7.25561e-05
5.2851e-05
-7.16591e-05
5.71831e-05
-7.07043e-05
6.18661e-05
-6.96548e-05
6.69322e-05
-6.85338e-05
7.24222e-05
-6.73055e-05
7.83649e-05
-6.59789e-05
8.47844e-05
-6.45212e-05
9.17405e-05
-6.29477e-05
9.92817e-05
-6.12165e-05
0.000107432
-5.93339e-05
0.000116261
-5.72758e-05
0.00012584
-5.50252e-05
0.000136183
-5.25657e-05
0.000147416
-4.98834e-05
0.000159571
-4.69475e-05
0.000172734
-4.375e-05
0.000187006
-4.0251e-05
0.000202439
-3.64415e-05
0.000219179
-3.22777e-05
0.000237272
-2.77395e-05
0.000256876
-2.27827e-05
0.000278066
-1.73779e-05
0.000300981
-1.15006e-05
0.000325749
-5.09877e-06
0.000352452
1.85593e-06
0.000381268
9.40639e-06
0.000412278
1.75907e-05
0.000445596
2.64349e-05
0.000481339
3.59716e-05
0.000519563
4.62332e-05
0.000560304
5.72359e-05
0.000603589
6.89916e-05
0.000649367
8.15104e-05
0.000697506
9.48036e-05
0.000747779
0.000108888
0.000799803
0.000123802
0.000852971
0.000139595
0.000906357
0.000156363
0.000958571
0.000174103
0.00100766
0.000192886
0.00105093
0.00021257
0.00108483
0.000232963
0.00110504
0.000253812
0.00110627
0.000274467
0.00108258
0.000294419
0.00102642
0.000312977
0.0009284
0.000324103
0.000773727
0.000553044
0.000317461
-7.89857e-05
2.18561e-05
7.93644e-05
-7.85833e-05
2.36383e-05
-7.81271e-05
2.55674e-05
-7.76442e-05
2.7656e-05
-7.71036e-05
2.99176e-05
-7.65318e-05
3.23664e-05
-7.58982e-05
3.50182e-05
-7.52287e-05
3.78897e-05
-7.44916e-05
4.09966e-05
-7.37136e-05
4.43599e-05
-7.28636e-05
4.80026e-05
-7.19673e-05
5.19458e-05
-7.09917e-05
5.6214e-05
-6.99602e-05
6.08261e-05
-6.88372e-05
6.58154e-05
-6.76487e-05
7.12255e-05
-6.63601e-05
7.70813e-05
-6.49827e-05
8.33989e-05
-6.34847e-05
9.02461e-05
-6.18822e-05
9.76717e-05
-6.01345e-05
0.000105686
-5.82473e-05
0.000114367
-5.61973e-05
0.000123791
-5.39664e-05
0.000133947
-5.1539e-05
0.000144989
-4.88997e-05
0.000156928
-4.60193e-05
0.000169852
-4.28876e-05
0.000183871
-3.94676e-05
0.000199016
-3.57478e-05
0.000215456
-3.16876e-05
0.000233207
-2.72661e-05
0.000252452
-2.24405e-05
0.000273243
-1.71842e-05
0.000295728
-1.14723e-05
0.000320038
-5.25554e-06
0.000346232
1.49358e-06
0.000374514
8.81439e-06
0.000404952
1.67407e-05
0.000437664
2.52976e-05
0.000472777
3.4518e-05
0.000510337
4.44377e-05
0.000550378
5.50791e-05
0.000592941
6.64651e-05
0.000637972
7.86208e-05
0.00068534
9.15776e-05
0.00073481
0.000105374
0.000785991
0.000120069
0.000838262
0.000135725
0.000890678
0.000152436
0.000941853
0.000170183
0.000989858
0.000189
0.00103206
0.000208712
0.00106504
0.000229084
0.00108456
0.000249844
0.00108552
0.00027032
0.00106201
0.000289977
0.00100684
0.000308254
0.000910115
0.00031929
0.000762806
0.000554783
0.000317813
-7.92905e-05
2.14838e-05
7.96684e-05
-7.88926e-05
2.32311e-05
-7.84423e-05
2.51219e-05
-7.79633e-05
2.71687e-05
-7.74255e-05
2.93849e-05
-7.6852e-05
3.17849e-05
-7.62137e-05
3.43843e-05
-7.55313e-05
3.72002e-05
-7.47766e-05
4.02475e-05
-7.39702e-05
4.35477e-05
-7.3086e-05
4.71249e-05
-7.21441e-05
5.09993e-05
-7.11184e-05
5.51954e-05
-7.00262e-05
5.97298e-05
-6.88402e-05
6.46361e-05
-6.75817e-05
6.99622e-05
-6.62238e-05
7.57287e-05
-6.4775e-05
8.19444e-05
-6.32101e-05
8.86847e-05
-6.15437e-05
9.5999e-05
-5.97399e-05
0.000103885
-5.78042e-05
0.000112425
-5.57162e-05
0.000121704
-5.34582e-05
0.000131684
-5.10162e-05
0.000142547
-4.8375e-05
0.000154284
-4.55065e-05
0.000166983
-4.24002e-05
0.000180763
-3.90204e-05
0.000195635
-3.53553e-05
0.000211788
-3.13661e-05
0.000229214
-2.70315e-05
0.000248116
-2.23119e-05
0.000268525
-1.71796e-05
0.000290601
-1.1612e-05
0.000314472
-5.56103e-06
0.000340179
9.99333e-07
0.000367949
8.10796e-06
0.000397839
1.57989e-05
0.000429969
2.40992e-05
0.000464472
3.30451e-05
0.000501386
4.26775e-05
0.00054074
5.30274e-05
0.000582584
6.41283e-05
0.000626863
7.60189e-05
0.000673439
8.8745e-05
0.000722073
0.000102358
0.000772364
0.000116927
0.000823681
0.000132511
0.00087508
0.000149195
0.000925176
0.000166938
0.000972079
0.000185748
0.00101323
0.000205412
0.00104525
0.000225673
0.00106411
0.000246245
0.00106478
0.000266455
0.00104157
0.00028575
0.000987367
0.000303587
0.00089195
0.000316326
0.000749916
0.000551434
0.00031942
-7.91402e-05
2.11196e-05
7.95035e-05
-7.87558e-05
2.28351e-05
-7.83226e-05
2.46908e-05
-7.78628e-05
2.66989e-05
-7.73475e-05
2.88725e-05
-7.67977e-05
3.12258e-05
-7.61845e-05
3.37743e-05
-7.55278e-05
3.6535e-05
-7.47976e-05
3.95217e-05
-7.40145e-05
4.27567e-05
-7.31493e-05
4.62647e-05
-7.22228e-05
5.00655e-05
-7.12052e-05
5.41837e-05
-7.01158e-05
5.86335e-05
-6.89241e-05
6.34502e-05
-6.76534e-05
6.86849e-05
-6.62755e-05
7.43557e-05
-6.48011e-05
8.04637e-05
-6.32056e-05
8.70929e-05
-6.15053e-05
9.42928e-05
-5.96668e-05
0.000102048
-5.76969e-05
0.00011045
-5.55778e-05
0.000119587
-5.32935e-05
0.000129395
-5.0832e-05
0.000140086
-4.81794e-05
0.000151628
-4.53094e-05
0.000164113
-4.22125e-05
0.000177664
-3.88542e-05
0.000192275
-3.52234e-05
0.000208155
-3.12827e-05
0.00022527
-2.70123e-05
0.000243843
-2.23726e-05
0.000263888
-1.73387e-05
0.00028557
-1.18866e-05
0.000309021
-5.97049e-06
0.00033426
4.34105e-07
0.000361541
7.36726e-06
0.000390902
1.4866e-05
0.000422466
2.29592e-05
0.000456375
3.16867e-05
0.000492656
4.10942e-05
0.00053133
5.12194e-05
0.000572456
6.21039e-05
0.000615976
7.37955e-05
0.000661745
8.63489e-05
0.000709518
9.98224e-05
0.000758888
0.000114286
0.00080922
0.000129795
0.000859569
0.000146418
0.000908572
0.000164099
0.000954375
0.000182824
0.000994502
0.000202359
0.00102571
0.00022243
0.00104403
0.000242745
0.00104457
0.000262637
0.00102169
0.000281557
0.000968612
0.000298886
0.000874692
0.00031282
0.000736175
0.000545905
0.000318683
-7.85326e-05
2.07683e-05
7.88881e-05
-7.81606e-05
2.24545e-05
-7.77439e-05
2.42781e-05
-7.73035e-05
2.62509e-05
-7.68121e-05
2.83856e-05
-7.62896e-05
3.0696e-05
-7.57087e-05
3.31974e-05
-7.50866e-05
3.59065e-05
-7.43956e-05
3.8836e-05
-7.36522e-05
4.20083e-05
-7.283e-05
4.54487e-05
-7.19448e-05
4.91763e-05
-7.09698e-05
5.32157e-05
-6.99187e-05
5.75789e-05
-6.87639e-05
6.23022e-05
-6.75238e-05
6.7441e-05
-6.61729e-05
7.30102e-05
-6.47184e-05
7.90046e-05
-6.31379e-05
8.55162e-05
-6.1446e-05
9.2596e-05
-5.96117e-05
0.000100217
-5.76415e-05
0.000108475
-5.55202e-05
0.000117467
-5.32325e-05
0.000127104
-5.07691e-05
0.000137624
-4.81172e-05
0.000148974
-4.52529e-05
0.000161248
-4.21679e-05
0.000174578
-3.88295e-05
0.000188935
-3.52282e-05
0.000204552
-3.1328e-05
0.000221367
-2.711e-05
0.000239624
-2.25376e-05
0.000259318
-1.75841e-05
0.000280622
-1.22282e-05
0.000303667
-6.42414e-06
0.000328455
-1.49634e-07
0.000355263
6.63746e-06
0.000384111
1.39781e-05
0.000415123
2.19026e-05
0.000448448
3.04539e-05
0.000484101
3.96815e-05
0.000522099
4.96278e-05
0.000562507
6.03401e-05
0.00060526
7.18718e-05
0.00065021
8.4282e-05
0.000697105
9.76317e-05
0.000745536
0.000111988
0.000794866
0.000127401
0.000844163
0.000143923
0.000892082
0.000161485
0.000936815
0.000180062
0.000975963
0.000199401
0.00100633
0.000219222
0.00102411
0.000239229
0.00102451
0.000258774
0.00100205
0.000277317
0.000950007
0.000294122
0.000857694
0.000308416
0.000721832
0.000538585
0.000315619
-7.76569e-05
2.0426e-05
7.80011e-05
-7.72959e-05
2.20843e-05
-7.68925e-05
2.38776e-05
-7.6467e-05
2.58175e-05
-7.59939e-05
2.79161e-05
-7.54922e-05
3.01869e-05
-7.4936e-05
3.26449e-05
-7.43426e-05
3.53063e-05
-7.36848e-05
3.81826e-05
-7.2979e-05
4.12963e-05
-7.21987e-05
4.4673e-05
-7.1359e-05
4.83308e-05
-7.04322e-05
5.22942e-05
-6.94314e-05
5.65727e-05
-6.83279e-05
6.12036e-05
-6.71385e-05
6.62463e-05
-6.58368e-05
7.17127e-05
-6.44286e-05
7.75912e-05
-6.28912e-05
8.39821e-05
-6.12379e-05
9.09378e-05
-5.94381e-05
9.84191e-05
-5.74978e-05
0.000106531
-5.54027e-05
0.000115373
-5.31381e-05
0.000124836
-5.06958e-05
0.000135182
-4.80643e-05
0.00014634
-4.52213e-05
0.000158405
-4.21601e-05
0.000171516
-3.88498e-05
0.000185624
-3.52821e-05
0.000200983
-3.14231e-05
0.000217505
-2.72559e-05
0.000235455
-2.27431e-05
0.000254809
-1.78621e-05
0.000275745
-1.25896e-05
0.000298397
-6.88229e-06
0.000322746
-7.18902e-07
0.000349097
5.94462e-06
0.000377445
1.31527e-05
0.000407912
2.09371e-05
0.000440662
2.9343e-05
0.000475694
3.84226e-05
0.000513019
4.82214e-05
0.000552708
5.87902e-05
0.000594692
7.0185e-05
0.000638815
8.24668e-05
0.000684825
9.56956e-05
0.000732308
0.000109935
0.000780632
0.000125225
0.000828873
0.000141609
0.000875722
0.000159004
0.000919403
0.000177376
0.000957602
0.000196466
0.000987256
0.000215993
0.0010046
0.00023566
0.00100496
0.000254835
0.000982925
0.000273003
0.000932028
0.000289305
0.00084149
0.000303406
0.000707963
0.000531257
0.000311097
-7.66339e-05
2.00928e-05
7.69734e-05
-7.62806e-05
2.17243e-05
-7.58868e-05
2.34887e-05
-7.54723e-05
2.5397e-05
-7.50125e-05
2.74613e-05
-7.45261e-05
2.96949e-05
-7.39889e-05
3.21121e-05
-7.34165e-05
3.4729e-05
-7.27845e-05
3.75559e-05
-7.2107e-05
4.06151e-05
-7.13605e-05
4.39323e-05
-7.05574e-05
4.75249e-05
-6.96734e-05
5.14166e-05
-6.87177e-05
5.56144e-05
-6.76644e-05
6.01566e-05
-6.65268e-05
6.51057e-05
-6.52802e-05
7.04711e-05
-6.39271e-05
7.62345e-05
-6.24458e-05
8.25045e-05
-6.08466e-05
8.93346e-05
-5.90999e-05
9.66747e-05
-5.72094e-05
0.000104637
-5.51616e-05
0.000113327
-5.2941e-05
0.000122613
-5.05403e-05
0.000132783
-4.79482e-05
0.000143747
-4.51437e-05
0.000155601
-4.21208e-05
0.000168492
-3.88503e-05
0.000182353
-3.53252e-05
0.000197457
-3.15134e-05
0.00021369
-2.73983e-05
0.000231339
-2.29464e-05
0.000250359
-1.81326e-05
0.000270936
-1.29372e-05
0.000293204
-7.3167e-06
0.000317125
-1.25074e-06
0.000343029
5.30592e-06
0.000370886
1.24002e-05
0.000400816
2.00653e-05
0.000432995
2.83476e-05
0.00046741
3.73011e-05
0.000504063
4.69729e-05
0.000543034
5.74153e-05
0.000584248
6.86852e-05
0.000627545
8.08429e-05
0.000672668
9.3946e-05
0.000719207
0.000108052
0.000766534
0.000123195
0.000813744
0.000139405
0.000859552
0.000156592
0.000902231
0.00017472
0.000939537
0.000193521
0.000968451
0.00021272
0.000985359
0.000232022
0.000985659
0.000250818
0.000964096
0.000268608
0.000914234
0.000284441
0.000825544
0.000298097
0.000694323
0.000523466
0.000305856
-7.55334e-05
1.97649e-05
7.58626e-05
-7.51876e-05
2.13701e-05
-7.48024e-05
2.3106e-05
-7.43964e-05
2.49836e-05
-7.39468e-05
2.70148e-05
-7.34712e-05
2.92125e-05
-7.29466e-05
3.15908e-05
-7.23893e-05
3.41653e-05
-7.17747e-05
3.69454e-05
-7.11184e-05
3.99532e-05
-7.03963e-05
4.32146e-05
-6.96224e-05
4.67459e-05
-6.8771e-05
5.05702e-05
-6.78533e-05
5.46919e-05
-6.6842e-05
5.915e-05
-6.57509e-05
6.40102e-05
-6.45544e-05
6.92786e-05
-6.32548e-05
7.49307e-05
-6.18297e-05
8.10825e-05
-6.02881e-05
8.77891e-05
-5.86002e-05
9.49891e-05
-5.67685e-05
0.000102801
-5.47788e-05
0.000111339
-5.26151e-05
0.000120447
-5.02698e-05
0.000130439
-4.77313e-05
0.000141207
-4.49792e-05
0.00015285
-4.20077e-05
0.00016552
-3.87887e-05
0.000179133
-3.53162e-05
0.000193983
-3.15589e-05
0.00020993
-2.75025e-05
0.000227281
-2.31122e-05
0.000245973
-1.83672e-05
0.000266195
-1.32457e-05
0.000288085
-7.70661e-06
0.000311585
-1.72961e-06
0.00033705
4.73114e-06
0.000364424
1.17241e-05
0.000393822
1.92833e-05
0.000425435
2.74561e-05
0.000459238
3.62966e-05
0.000495223
4.58528e-05
0.000533479
5.61771e-05
0.000573925
6.73256e-05
0.000616398
7.93569e-05
0.000660639
9.23247e-05
0.000706241
0.000106281
0.000752583
0.000121252
0.000798774
0.000137259
0.000843565
0.000154208
0.000885264
0.000172057
0.000921703
0.000190541
0.000949979
0.00020939
0.000966528
0.000228317
0.000966847
0.000246726
0.000945745
0.000264141
0.000897001
0.000279545
0.000810237
0.000292688
0.000681424
0.000516167
0.000300342
-7.43853e-05
1.94442e-05
7.47112e-05
-7.4045e-05
2.10236e-05
-7.36665e-05
2.27316e-05
-7.32676e-05
2.45792e-05
-7.28264e-05
2.6578e-05
-7.23598e-05
2.87407e-05
-7.18463e-05
3.10813e-05
-7.13005e-05
3.3615e-05
-7.07003e-05
3.63501e-05
-7.00594e-05
3.93088e-05
-6.93564e-05
4.25172e-05
-6.86034e-05
4.59903e-05
-6.77781e-05
4.9751e-05
-6.6889e-05
5.38007e-05
-6.59119e-05
5.81789e-05
-6.48586e-05
6.29545e-05
-6.37054e-05
6.81303e-05
-6.24529e-05
7.36752e-05
-6.10796e-05
7.97129e-05
-5.9593e-05
8.62991e-05
-5.79632e-05
9.33618e-05
-5.61916e-05
0.000101027
-5.42634e-05
0.000109412
-5.21619e-05
0.000118343
-4.9879e-05
0.000128157
-4.74025e-05
0.000138729
-4.47119e-05
0.00015016
-4.18013e-05
0.000162609
-3.86432e-05
0.000175975
-3.52317e-05
0.000190571
-3.15367e-05
0.000206233
-2.75436e-05
0.000223288
-2.32212e-05
0.000241652
-1.85456e-05
0.000261526
-1.34988e-05
0.000283041
-8.03902e-06
0.000306125
-2.14649e-06
0.000331156
4.22457e-06
0.000358052
1.11232e-05
0.000386922
1.8584e-05
0.000417973
2.66544e-05
0.000451167
3.53883e-05
0.000486489
4.48333e-05
0.000524033
5.50409e-05
0.000563718
6.60659e-05
0.000605373
7.79637e-05
0.000648743
9.07843e-05
0.000693424
0.000104573
0.000738803
0.000119352
0.000784011
0.000135133
0.000827825
0.000151819
0.000868601
0.00016937
0.000904226
0.000187519
0.000931844
0.000206004
0.00094802
0.000224548
0.000948327
0.000242575
0.000927727
0.000259617
0.000879989
0.000274628
0.000795163
0.000287286
0.000668825
0.000508684
0.000294793
-7.32148e-05
1.91284e-05
7.35338e-05
-7.28803e-05
2.06822e-05
-7.25083e-05
2.23629e-05
-7.21159e-05
2.41809e-05
-7.16821e-05
2.61478e-05
-7.12231e-05
2.82763e-05
-7.07182e-05
3.05799e-05
-7.0182e-05
3.30738e-05
-6.95929e-05
3.57652e-05
-6.89648e-05
3.86762e-05
-6.82768e-05
4.18333e-05
-6.75413e-05
4.52506e-05
-6.6736e-05
4.89503e-05
-6.58703e-05
5.29312e-05
-6.49204e-05
5.72333e-05
-6.3898e-05
6.19284e-05
-6.27801e-05
6.70161e-05
-6.1567e-05
7.24586e-05
-6.0238e-05
7.83868e-05
-5.87995e-05
8.48574e-05
-5.72225e-05
9.17871e-05
-5.5507e-05
9.93083e-05
-5.36383e-05
0.000107545
-5.15986e-05
0.000116301
-4.93795e-05
0.000125939
-4.69679e-05
0.000136316
-4.43432e-05
0.000147536
-4.14989e-05
0.000159764
-3.84075e-05
0.000172883
-3.50632e-05
0.000187226
-3.1436e-05
0.000202604
-2.75128e-05
0.000219364
-2.32603e-05
0.000237404
-1.86589e-05
0.000256929
-1.36879e-05
0.000278073
-8.30781e-06
0.000300745
-2.49843e-06
0.000325346
3.78546e-06
0.000351767
1.05927e-05
0.000380115
1.79581e-05
0.000410608
2.59284e-05
0.000443198
3.45569e-05
0.000477862
4.38901e-05
0.000514702
5.39783e-05
0.000553632
6.4874e-05
0.000594479
7.66295e-05
0.00063699
8.92905e-05
0.000680764
0.000102897
0.0007252
0.000117466
0.000769443
0.000133004
0.000812305
0.000149411
0.000852174
0.000166647
0.000887006
0.00018445
0.00091405
0.000202567
0.000929916
0.000220729
0.000930271
0.000238377
0.000910139
0.000255054
0.000863486
0.000269707
0.000780605
0.000281941
0.00065684
0.000501659
0.000289311
-7.20322e-05
1.88192e-05
7.23481e-05
-7.17029e-05
2.03481e-05
-7.13371e-05
2.20017e-05
-7.09512e-05
2.37906e-05
-7.05248e-05
2.57262e-05
-7.00736e-05
2.78209e-05
-6.95777e-05
3.00882e-05
-6.90505e-05
3.2543e-05
-6.84721e-05
3.51916e-05
-6.78547e-05
3.80562e-05
-6.71796e-05
4.11635e-05
-6.64575e-05
4.45267e-05
-6.5669e-05
4.81675e-05
-6.48213e-05
5.2082e-05
-6.38934e-05
5.63108e-05
-6.28955e-05
6.09287e-05
-6.18067e-05
6.59318e-05
-6.06264e-05
7.12759e-05
-5.9335e-05
7.70988e-05
-5.79383e-05
8.34579e-05
-5.64078e-05
9.0259e-05
-5.4743e-05
9.76409e-05
-5.29291e-05
0.000105733
-5.09479e-05
0.000114318
-4.87904e-05
0.000123783
-4.6443e-05
0.000133968
-4.38847e-05
0.000144978
-4.11083e-05
0.000156988
-3.80864e-05
0.000169861
-3.48125e-05
0.000183952
-3.12573e-05
0.000199047
-2.74064e-05
0.000215513
-2.32295e-05
0.000233229
-1.87036e-05
0.000252409
-1.38114e-05
0.000273185
-8.51233e-06
0.000295447
-2.78657e-06
0.00031962
3.41025e-06
0.00034557
1.01261e-05
0.000373399
1.73957e-05
0.000403339
2.52649e-05
0.000435329
3.37858e-05
0.000469341
4.30036e-05
0.000505484
5.29669e-05
0.000543669
6.37256e-05
0.000583722
7.53289e-05
0.00062539
8.78186e-05
0.000668279
0.00010123
0.000711798
0.000115575
0.000755114
0.000130856
0.000797064
0.000146974
0.000836082
0.00016389
0.000870171
0.000181341
0.000896619
0.00019909
0.000912158
0.000216873
0.000912526
0.000234151
0.000892896
0.000250471
0.000847218
0.000264795
0.000766254
0.000276671
0.000645051
0.000494457
0.000283936
-7.08499e-05
1.85143e-05
7.11572e-05
-7.05269e-05
2.00184e-05
-7.01678e-05
2.16454e-05
-6.97884e-05
2.34056e-05
-6.93693e-05
2.53102e-05
-6.89253e-05
2.73716e-05
-6.84371e-05
2.96031e-05
-6.79183e-05
3.20194e-05
-6.73488e-05
3.46258e-05
-6.67417e-05
3.74448e-05
-6.60776e-05
4.05033e-05
-6.53684e-05
4.38136e-05
-6.45937e-05
4.7397e-05
-6.37623e-05
5.12471e-05
-6.28526e-05
5.54051e-05
-6.18757e-05
5.99485e-05
-6.08107e-05
6.48704e-05
-5.96578e-05
7.01199e-05
-5.83978e-05
7.58417e-05
-5.70364e-05
8.20937e-05
-5.5546e-05
8.87709e-05
-5.39255e-05
9.60181e-05
-5.21607e-05
0.00010397
-5.02328e-05
0.000112388
-4.81328e-05
0.000121685
-4.58464e-05
0.000131681
-4.33525e-05
0.000142485
-4.06432e-05
0.000154279
-3.76907e-05
0.000166909
-3.44884e-05
0.000180749
-3.10064e-05
0.000195563
-2.72312e-05
0.000211737
-2.313e-05
0.000229133
-1.86837e-05
0.000247967
-1.38718e-05
0.000268377
-8.65588e-06
0.000290232
-3.01541e-06
0.00031398
3.09288e-06
0.000339462
9.71565e-06
0.000366777
1.68872e-05
0.000396169
2.46523e-05
0.000427565
3.30616e-05
0.000460934
4.21588e-05
0.00049639
5.19904e-05
0.00053384
6.26042e-05
0.000573111
7.4046e-05
0.00061395
8.6354e-05
0.000655972
9.95594e-05
0.000698595
0.00011367
0.000741003
0.000128686
0.000782063
0.000144508
0.000820241
0.000161098
0.000853599
0.0001782
0.000879521
0.000195583
0.00089478
0.000212997
0.000895204
0.000229914
0.000876033
0.000245889
0.000831401
0.000259907
0.000752318
0.000271483
0.000633714
0.000487586
0.000278669
-6.96699e-05
1.82157e-05
6.9974e-05
-6.93519e-05
1.96955e-05
-6.89988e-05
2.12963e-05
-6.86256e-05
2.30282e-05
-6.82136e-05
2.49024e-05
-6.77769e-05
2.69309e-05
-6.72972e-05
2.91271e-05
-6.67868e-05
3.15055e-05
-6.6227e-05
3.40705e-05
-6.56294e-05
3.68447e-05
-6.49764e-05
3.98552e-05
-6.42783e-05
4.31137e-05
-6.35169e-05
4.66409e-05
-6.26994e-05
5.04282e-05
-6.18062e-05
5.45171e-05
-6.08473e-05
5.89881e-05
-5.98035e-05
6.3831e-05
-5.86743e-05
6.89887e-05
-5.74417e-05
7.46125e-05
-5.61112e-05
8.07609e-05
-5.46559e-05
8.7318e-05
-5.30747e-05
9.44347e-05
-5.13535e-05
0.000102251
-4.94738e-05
0.000110507
-4.74265e-05
0.000119639
-4.51968e-05
0.000129451
-4.27638e-05
0.000140053
-4.01188e-05
0.000151634
-3.72342e-05
0.000164024
-3.41024e-05
0.000177617
-3.06938e-05
0.000192153
-2.69935e-05
0.000208037
-2.29715e-05
0.000225113
-1.86046e-05
0.000243606
-1.38754e-05
0.000263651
-8.74435e-06
0.000285102
-3.19105e-06
0.000308427
2.82654e-06
0.000333444
9.35361e-06
0.00036025
1.64239e-05
0.000389099
2.40807e-05
0.000419909
3.23734e-05
0.000452642
4.13441e-05
0.00048742
5.10373e-05
0.000524148
6.14983e-05
0.000562652
7.27701e-05
0.000602682
8.48878e-05
0.000643859
9.78786e-05
0.000685613
0.000111749
0.000727149
0.000126493
0.000767356
0.000142017
0.000804745
0.000158284
0.000837417
0.000175038
0.000862791
0.000192063
0.000877753
0.000209113
0.000878202
0.000225681
0.000859517
0.000241322
0.000815826
0.000255055
0.000738582
0.000266377
0.000622497
0.000480538
0.00027351
-6.84999e-05
1.79216e-05
6.87976e-05
-6.81873e-05
1.93775e-05
-6.78403e-05
2.09525e-05
-6.74732e-05
2.26566e-05
-6.70681e-05
2.45007e-05
-6.66383e-05
2.64969e-05
-6.61662e-05
2.86583e-05
-6.5664e-05
3.09993e-05
-6.51131e-05
3.35234e-05
-6.45253e-05
3.62533e-05
-6.38829e-05
3.92166e-05
-6.31964e-05
4.2424e-05
-6.24474e-05
4.5896e-05
-6.16438e-05
4.96216e-05
-6.07658e-05
5.36429e-05
-5.98237e-05
5.80432e-05
-5.87986e-05
6.28093e-05
-5.76904e-05
6.78778e-05
-5.64818e-05
7.34067e-05
-5.5178e-05
7.94547e-05
-5.37535e-05
8.58956e-05
-5.22067e-05
9.2886e-05
-5.05244e-05
0.000100571
-4.86879e-05
0.000108669
-4.66883e-05
0.000117641
-4.4511e-05
0.000127273
-4.21347e-05
0.000137678
-3.95506e-05
0.00014905
-3.67308e-05
0.000161205
-3.36675e-05
0.000174554
-3.03307e-05
0.000188815
-2.67061e-05
0.000204412
-2.27609e-05
0.000221173
-1.84756e-05
0.000239326
-1.38297e-05
0.000259009
-8.78503e-06
0.000280059
-3.32091e-06
0.000302963
2.60362e-06
0.000327521
9.03209e-06
0.000353823
1.59975e-05
0.000382136
2.35419e-05
0.000412367
3.1713e-05
0.000444474
4.05515e-05
0.000478584
5.01e-05
0.000514603
6.04015e-05
0.000552352
7.14965e-05
0.000591589
8.3417e-05
0.00063194
9.61876e-05
0.000672845
0.000109812
0.000713524
0.000124284
0.000752897
0.000139509
0.000789501
0.000155452
0.000821491
0.000171865
0.000846377
0.000188539
0.000861078
0.000205237
0.000861583
0.000221466
0.000843338
0.000236786
0.00080065
0.000250251
0.00072519
0.000261352
0.000611624
0.000473735
0.000268446
-6.73407e-05
1.76338e-05
6.76351e-05
-6.70331e-05
1.90662e-05
-6.6692e-05
2.06157e-05
-6.63312e-05
2.22924e-05
-6.59331e-05
2.41071e-05
-6.55107e-05
2.60714e-05
-6.50471e-05
2.81985e-05
-6.45531e-05
3.05027e-05
-6.40119e-05
3.29865e-05
-6.34334e-05
3.56728e-05
-6.28016e-05
3.85896e-05
-6.21257e-05
4.17467e-05
-6.13891e-05
4.51644e-05
-6.05979e-05
4.88293e-05
-5.97342e-05
5.27842e-05
-5.88074e-05
5.71151e-05
-5.77999e-05
6.18059e-05
-5.6711e-05
6.67872e-05
-5.55243e-05
7.22232e-05
-5.4245e-05
7.81735e-05
-5.28482e-05
8.45012e-05
-5.13326e-05
9.13686e-05
-4.96853e-05
9.89251e-05
-4.7888e-05
0.000106871
-4.5932e-05
0.000115686
-4.38026e-05
0.000125143
-4.14789e-05
0.000135356
-3.89519e-05
0.000146524
-3.61937e-05
0.000158448
-3.3196e-05
0.000171556
-2.99291e-05
0.000185547
-2.63772e-05
0.00020086
-2.25104e-05
0.000217308
-1.83049e-05
0.000235127
-1.37431e-05
0.000254451
-8.78578e-06
0.000275104
-3.41234e-06
0.000297591
2.41701e-06
0.000321692
8.74416e-06
0.000347497
1.56012e-05
0.00037528
2.30292e-05
0.000404941
3.10742e-05
0.00043643
3.97754e-05
0.000469885
4.91737e-05
0.000505206
5.93101e-05
0.000542218
7.02227e-05
0.00058068
8.19411e-05
0.000620226
9.44871e-05
0.000660307
0.000107863
0.000700163
0.000122061
0.000738734
0.00013699
0.0007746
0.000152617
0.000805949
0.000168694
0.000830324
0.000185026
0.000844749
0.00020138
0.000845281
0.000217283
0.000827498
0.000232293
0.000785716
0.000245504
0.000711993
0.00025641
0.000600831
0.000466768
0.000263475
-6.61969e-05
1.735e-05
6.64836e-05
-6.58952e-05
1.87593e-05
-6.55605e-05
2.02838e-05
-6.5206e-05
2.19335e-05
-6.4815e-05
2.3719e-05
-6.43997e-05
2.5652e-05
-6.39435e-05
2.77453e-05
-6.34577e-05
3.00131e-05
-6.2925e-05
3.24572e-05
-6.23562e-05
3.51006e-05
-6.17345e-05
3.79714e-05
-6.10699e-05
4.10789e-05
-6.03448e-05
4.44432e-05
-5.95666e-05
4.80484e-05
-5.87168e-05
5.19381e-05
-5.78052e-05
5.62009e-05
-5.68141e-05
6.0818e-05
-5.57432e-05
6.57141e-05
-5.45768e-05
7.10595e-05
-5.33199e-05
7.69145e-05
-5.19484e-05
8.31319e-05
-5.0461e-05
8.98796e-05
-4.88456e-05
9.73115e-05
-4.7084e-05
0.000105108
-4.51679e-05
0.000113772
-4.30827e-05
0.000123058
-4.08079e-05
0.000133082
-3.83343e-05
0.000144051
-3.56342e-05
0.000155748
-3.26992e-05
0.000168621
-2.94992e-05
0.000182346
-2.60194e-05
0.00019738
-2.2227e-05
0.00021352
-1.81022e-05
0.000231007
-1.36238e-05
0.000249977
-8.75433e-06
0.000270236
-3.47276e-06
0.00029231
2.25966e-06
0.000315961
8.4832e-06
0.000341276
1.52291e-05
0.000368536
2.25373e-05
0.000397635
3.04524e-05
0.000428518
3.90122e-05
0.000461328
4.82561e-05
0.000495966
5.82232e-05
0.000532254
6.89494e-05
0.000569957
8.04625e-05
0.000608714
9.27821e-05
0.000647989
0.000105909
0.000687035
0.000119835
0.00072482
0.000134471
0.000759946
0.000149785
0.000790654
0.000165535
0.000814567
0.000181533
0.000828743
0.000197555
0.000829323
0.000213141
0.000811958
0.000227852
0.000771129
0.000240822
0.000699081
0.000251549
0.000590315
0.000459985
0.000258588
-6.50673e-05
1.70721e-05
6.53507e-05
-6.47704e-05
1.84586e-05
-6.44415e-05
1.99586e-05
-6.4093e-05
2.15818e-05
-6.37088e-05
2.33387e-05
-6.33006e-05
2.52408e-05
-6.28527e-05
2.73009e-05
-6.23751e-05
2.9533e-05
-6.18519e-05
3.1938e-05
-6.12922e-05
3.45391e-05
-6.06811e-05
3.73647e-05
-6.0027e-05
4.04235e-05
-5.93141e-05
4.37351e-05
-5.85482e-05
4.72815e-05
-5.77123e-05
5.11069e-05
-5.68152e-05
5.53027e-05
-5.58404e-05
5.98473e-05
-5.47872e-05
6.46594e-05
-5.36405e-05
6.99159e-05
-5.24051e-05
7.56774e-05
-5.10576e-05
8.17869e-05
-4.95969e-05
8.84174e-05
-4.80112e-05
9.57277e-05
-4.62829e-05
0.000103379
-4.44038e-05
0.000111895
-4.23597e-05
0.000121014
-4.01305e-05
0.000130854
-3.77069e-05
0.000141628
-3.50618e-05
0.000153104
-3.21863e-05
0.000165746
-2.90508e-05
0.00017921
-2.56394e-05
0.000193969
-2.1922e-05
0.000209805
-1.78748e-05
0.000226966
-1.34797e-05
0.000245586
-8.69789e-06
0.000265457
-3.5087e-06
0.000287122
2.12561e-06
0.000310328
8.24381e-06
0.000335159
1.48764e-05
0.000361905
2.2062e-05
0.000390452
2.98443e-05
0.000420738
3.82596e-05
0.000452914
4.73458e-05
0.000486882
5.71405e-05
0.000522462
6.76778e-05
0.000559423
7.89837e-05
0.000597413
9.1076e-05
0.000635903
0.000103955
0.000674169
0.000117611
0.000711196
0.000131958
0.000745627
0.000146967
0.00077573
0.000162397
0.00079916
0.00017807
0.000813073
0.000193769
0.000813678
0.000209049
0.000796748
0.000223472
0.000756785
0.00023621
0.000686369
0.000246771
0.000579869
0.00045307
0.000253785
-6.39554e-05
1.67986e-05
6.42329e-05
-6.36637e-05
1.81627e-05
-6.33405e-05
1.96385e-05
-6.29979e-05
2.12356e-05
-6.26203e-05
2.29644e-05
-6.2219e-05
2.48362e-05
-6.17785e-05
2.68636e-05
-6.13091e-05
2.90604e-05
-6.07946e-05
3.14269e-05
-6.02446e-05
3.39863e-05
-5.96439e-05
3.67674e-05
-5.9001e-05
3.9778e-05
-5.82999e-05
4.30376e-05
-5.7547e-05
4.65262e-05
-5.67249e-05
5.02883e-05
-5.58426e-05
5.44182e-05
-5.48838e-05
5.88915e-05
-5.38477e-05
6.36213e-05
-5.27199e-05
6.87907e-05
-5.15048e-05
7.44605e-05
-5.01802e-05
8.04644e-05
-4.87446e-05
8.69805e-05
-4.71869e-05
9.41719e-05
-4.54897e-05
0.000101681
-4.36453e-05
0.000110052
-4.16398e-05
0.000119008
-3.94535e-05
0.000128669
-3.70771e-05
0.000139252
-3.44839e-05
0.000150511
-3.16651e-05
0.000162928
-2.85912e-05
0.000176135
-2.52472e-05
0.000190625
-2.16004e-05
0.000206164
-1.76309e-05
0.000223001
-1.33174e-05
0.000241278
-8.62287e-06
0.000260764
-3.52625e-06
0.000282027
2.00927e-06
0.000304794
8.02104e-06
0.000329149
1.45387e-05
0.00035539
2.16001e-05
0.000383393
2.92475e-05
0.000413094
3.75163e-05
0.000444649
4.64429e-05
0.000477958
5.60635e-05
0.000512844
6.64106e-05
0.000549079
7.7509e-05
0.000586316
8.93748e-05
0.00062404
0.000102008
0.000661537
0.000115397
0.000697817
0.000129461
0.000731545
0.00014417
0.00076104
0.000159288
0.000784031
0.000174645
0.000797701
0.000190032
0.000798345
0.000205013
0.000781806
0.000219159
0.000742749
0.000231673
0.0006739
0.000242075
0.000569661
0.000446309
0.000249063
-6.28604e-05
1.65308e-05
6.31345e-05
-6.25735e-05
1.7873e-05
-6.2256e-05
1.93251e-05
-6.19195e-05
2.08966e-05
-6.15487e-05
2.25977e-05
-6.11545e-05
2.44396e-05
-6.07222e-05
2.64348e-05
-6.02608e-05
2.85971e-05
-5.97556e-05
3.09257e-05
-5.92149e-05
3.3444e-05
-5.86246e-05
3.61813e-05
-5.79921e-05
3.91446e-05
-5.7303e-05
4.23531e-05
-5.65622e-05
4.57846e-05
-5.57538e-05
4.94844e-05
-5.48857e-05
5.35493e-05
-5.39427e-05
5.79522e-05
-5.29236e-05
6.2601e-05
-5.18144e-05
6.76844e-05
-5.06195e-05
7.32642e-05
-4.9317e-05
7.91642e-05
-4.79059e-05
8.5568e-05
-4.6375e-05
9.26429e-05
-4.47076e-05
0.000100013
-4.28963e-05
0.000108242
-4.09274e-05
0.000117039
-3.87817e-05
0.000126525
-3.64501e-05
0.000136921
-3.39064e-05
0.000147968
-3.11417e-05
0.000160164
-2.81272e-05
0.00017312
-2.48468e-05
0.000187346
-2.12709e-05
0.00020259
-1.73757e-05
0.000219113
-1.3143e-05
0.000237049
-8.53478e-06
0.000256158
-3.53032e-06
0.000277024
1.90628e-06
0.000299359
7.8111e-06
0.000323247
1.42131e-05
0.000348991
2.11492e-05
0.00037646
2.86605e-05
0.000405585
3.67815e-05
0.00043653
4.55475e-05
0.000469195
5.49932e-05
0.000503401
6.515e-05
0.000538926
7.60414e-05
0.000575429
8.7682e-05
0.000612405
0.000100072
0.000649159
0.000113198
0.000684717
0.000126984
0.000717787
0.000141401
0.000746707