/*--------------------------------*- C++ -*----------------------------------*\
  =========                 |
  \\      /  F ield         | OpenFOAM: The Open Source CFD Toolbox
   \\    /   O peration     | Website:  https://openfoam.org
    \\  /    A nd           | Version:  6.0
     \\/     M anipulation  |
\*---------------------------------------------------------------------------*/
FoamFile
{
    version     2.0;
    format      ascii;
    class       volVectorField;
    location    "7";
    object      U;
}
// * * * * * * * * * * * * * * * * * * * * * * * * * * * * * * * * * * * * * //

dimensions      [0 1 -1 0 0 0 0];

internalField   nonuniform List<vector> 
62000
(
(0.965865 -0.258836 -4.67356e-21)
(0.965806 -0.258899 3.93111e-21)
(0.965735 -0.259057 3.90791e-21)
(0.965676 -0.259213 -1.6876e-20)
(0.96563 -0.259355 -1.86689e-20)
(0.965593 -0.259465 6.53803e-20)
(0.965566 -0.259541 -7.08945e-20)
(0.965546 -0.259589 4.11202e-20)
(0.965533 -0.25962 -1.87399e-20)
(0.965523 -0.259642 -9.38122e-20)
(0.965515 -0.259661 -9.54787e-21)
(0.965509 -0.259679 1.30789e-19)
(0.965504 -0.259697 2.54112e-20)
(0.9655 -0.259715 -8.97145e-20)
(0.965497 -0.259733 1.37546e-19)
(0.965496 -0.25975 -7.32892e-20)
(0.965495 -0.259765 7.1911e-20)
(0.965496 -0.259779 -8.51821e-20)
(0.965497 -0.259791 4.00756e-20)
(0.9655 -0.2598 -1.20172e-19)
(0.965503 -0.259807 1.55165e-19)
(0.965508 -0.25981 4.12163e-20)
(0.965514 -0.25981 5.54899e-20)
(0.965521 -0.259805 -2.69484e-19)
(0.965528 -0.259796 9.61808e-20)
(0.965538 -0.259783 -5.35956e-20)
(0.965548 -0.259765 2.96854e-21)
(0.96556 -0.259743 -3.5266e-20)
(0.965573 -0.259717 1.1964e-19)
(0.965588 -0.259688 -5.70726e-20)
(0.965605 -0.259656 1.30294e-19)
(0.965624 -0.259621 -2.48566e-19)
(0.965646 -0.259584 2.68086e-20)
(0.96567 -0.259542 -5.6021e-20)
(0.965696 -0.259498 -1.10301e-20)
(0.965726 -0.259459 -4.58465e-20)
(0.965764 -0.259425 2.46336e-21)
(0.965811 -0.259398 7.23149e-21)
(0.965871 -0.259376 2.74036e-20)
(0.965951 -0.259356 2.28143e-20)
(0.966056 -0.259335 1.17264e-20)
(0.966197 -0.259304 1.31906e-19)
(0.966385 -0.259253 3.85614e-19)
(0.966633 -0.259165 -3.03615e-19)
(0.966956 -0.259015 -1.55008e-19)
(0.967368 -0.258775 7.63512e-19)
(0.967884 -0.258406 -9.65657e-20)
(0.968512 -0.257867 4.90689e-19)
(0.969255 -0.257106 2.63356e-18)
(0.970107 -0.256069 8.89292e-19)
(0.971052 -0.254692 5.16189e-19)
(0.972062 -0.2529 6.23459e-18)
(0.973093 -0.250598 -1.78164e-18)
(0.974093 -0.247646 -8.19607e-18)
(0.975006 -0.243815 -1.90294e-18)
(0.975804 -0.23862 -7.89466e-18)
(0.976372 -0.230946 5.51739e-19)
(0.979072 -0.215972 7.55127e-19)
(0.968199 -0.197002 -1.99435e-18)
(1.07535 -0.137532 -3.52443e-19)
(0.966297 -0.256651 -1.2908e-21)
(0.966091 -0.256752 1.22493e-20)
(0.965913 -0.25694 4.80949e-21)
(0.965805 -0.257173 -2.15183e-20)
(0.965739 -0.25747 8.78608e-21)
(0.965692 -0.257771 -5.9091e-20)
(0.965658 -0.258037 5.44494e-20)
(0.965637 -0.258251 3.03396e-20)
(0.965627 -0.25842 -5.66528e-20)
(0.965624 -0.258556 3.02765e-21)
(0.965627 -0.258673 5.33495e-20)
(0.965635 -0.258779 -5.89127e-22)
(0.965645 -0.258882 1.42096e-20)
(0.965658 -0.258984 -1.25536e-19)
(0.965674 -0.259085 2.4774e-19)
(0.965692 -0.259185 -2.17226e-19)
(0.965713 -0.259283 9.95906e-20)
(0.965736 -0.259377 -2.14512e-20)
(0.96576 -0.259467 -5.40295e-20)
(0.965787 -0.25955 1.4512e-19)
(0.965814 -0.259628 -2.25249e-19)
(0.965843 -0.259699 1.27797e-19)
(0.965871 -0.259762 -1.54309e-19)
(0.9659 -0.259818 9.28923e-20)
(0.965929 -0.259866 7.80777e-20)
(0.965958 -0.259907 -5.10344e-20)
(0.965986 -0.259943 3.53115e-21)
(0.966014 -0.259972 5.5259e-20)
(0.966041 -0.259997 4.16654e-20)
(0.966068 -0.26002 -7.00587e-20)
(0.966094 -0.260043 1.40352e-19)
(0.966122 -0.260067 2.0682e-20)
(0.966152 -0.260092 6.42346e-20)
(0.966183 -0.26012 -9.05389e-22)
(0.966217 -0.260155 8.56273e-21)
(0.966257 -0.260202 -1.97131e-20)
(0.966308 -0.260263 -4.06707e-20)
(0.966378 -0.260339 -2.64705e-20)
(0.966477 -0.260424 -5.32142e-20)
(0.966616 -0.26051 -1.01768e-20)
(0.966809 -0.260583 -4.00782e-21)
(0.967077 -0.260624 -3.49005e-20)
(0.967439 -0.260604 -3.97025e-19)
(0.967919 -0.260486 -2.57629e-20)
(0.968543 -0.260221 1.20428e-18)
(0.969331 -0.259754 -6.46678e-19)
(0.970298 -0.259018 -7.64661e-19)
(0.971451 -0.257942 -9.32374e-19)
(0.972777 -0.256452 -4.03379e-19)
(0.974247 -0.254473 -1.04673e-19)
(0.975803 -0.251931 -2.56316e-18)
(0.977362 -0.248754 -7.77664e-18)
(0.978796 -0.244881 5.80886e-18)
(0.979942 -0.240257 1.45925e-17)
(0.980576 -0.23488 3.62474e-18)
(0.980379 -0.228783 3.27841e-18)
(0.978773 -0.222363 5.47232e-18)
(0.975151 -0.217098 3.04006e-18)
(0.966223 -0.234125 -1.71546e-18)
(0.948226 -0.295399 -3.30159e-19)
(0.965795 -0.25998 -6.54144e-21)
(0.965616 -0.260148 -8.58138e-22)
(0.965509 -0.26021 1.0912e-21)
(0.965505 -0.260323 4.64463e-21)
(0.965552 -0.260542 1.26851e-20)
(0.965611 -0.260807 -1.21225e-20)
(0.965672 -0.261055 6.25648e-20)
(0.965731 -0.26125 -3.07917e-20)
(0.965788 -0.261379 -1.60423e-20)
(0.965843 -0.261447 -9.43309e-20)
(0.965897 -0.261471 7.98652e-20)
(0.96595 -0.261466 5.79111e-21)
(0.966002 -0.261443 -1.71159e-20)
(0.966054 -0.261413 4.49864e-20)
(0.966106 -0.261381 -7.64513e-20)
(0.966158 -0.261349 1.21396e-21)
(0.966212 -0.26132 -3.21509e-20)
(0.966267 -0.261292 2.83804e-21)
(0.966325 -0.261268 7.35283e-20)
(0.966384 -0.261245 -1.08676e-19)
(0.966446 -0.261225 6.75937e-20)
(0.966509 -0.261207 2.42724e-19)
(0.966572 -0.261192 -4.11377e-20)
(0.966636 -0.261179 -3.20063e-19)
(0.966699 -0.261169 1.63268e-19)
(0.966762 -0.261161 -7.85285e-20)
(0.966822 -0.261157 1.25457e-19)
(0.96688 -0.261158 -8.06207e-20)
(0.966935 -0.261165 -1.32765e-19)
(0.966987 -0.26118 1.31837e-19)
(0.967034 -0.261206 -8.4812e-20)
(0.967078 -0.261245 1.01791e-19)
(0.967119 -0.261294 -2.54278e-19)
(0.967157 -0.261358 1.96806e-19)
(0.96719 -0.261439 -9.16979e-20)
(0.967221 -0.261544 3.90247e-20)
(0.967251 -0.261672 2.93652e-20)
(0.96729 -0.261822 1.35057e-20)
(0.967345 -0.261988 9.68856e-21)
(0.967426 -0.26216 4.7783e-20)
(0.967546 -0.262323 1.40746e-20)
(0.967722 -0.262453 -5.34998e-20)
(0.967972 -0.262521 2.24199e-19)
(0.968318 -0.262487 1.63444e-19)
(0.968782 -0.262305 -4.20731e-19)
(0.969381 -0.261918 8.8365e-19)
(0.970128 -0.261268 -2.57829e-19)
(0.971022 -0.260294 1.34342e-18)
(0.972049 -0.258939 -2.28945e-18)
(0.97317 -0.257153 -7.74742e-19)
(0.974318 -0.254905 -5.89216e-20)
(0.975393 -0.252178 5.67402e-19)
(0.976248 -0.249004 -1.81395e-18)
(0.976687 -0.245477 -2.48994e-18)
(0.976448 -0.24186 2.91928e-18)
(0.975136 -0.23863 2.99296e-18)
(0.972376 -0.236832 -5.00831e-19)
(0.966827 -0.239703 3.4562e-18)
(0.959149 -0.254203 5.65027e-19)
(0.979402 -0.265415 -1.74284e-19)
(0.964795 -0.265497 -6.95291e-21)
(0.964772 -0.265645 2.12966e-20)
(0.964813 -0.26559 -3.35739e-21)
(0.964955 -0.26559 -2.17608e-20)
(0.965148 -0.265714 3.2483e-20)
(0.965351 -0.265918 5.46671e-20)
(0.965546 -0.266138 -7.20757e-20)
(0.965728 -0.266321 7.55009e-21)
(0.965892 -0.266438 2.35277e-20)
(0.966039 -0.266482 4.78359e-20)
(0.96617 -0.26646 -8.98274e-20)
(0.966286 -0.266387 -2.63115e-20)
(0.96639 -0.266275 -2.82461e-20)
(0.966483 -0.266136 1.32249e-19)
(0.966567 -0.26598 -8.63718e-20)
(0.966644 -0.265813 1.93055e-19)
(0.966715 -0.265639 -2.33111e-19)
(0.966784 -0.265461 -2.98857e-20)
(0.966851 -0.265283 2.29737e-19)
(0.966918 -0.265105 -8.07133e-20)
(0.966987 -0.26493 -2.9885e-20)
(0.967058 -0.26476 -2.83875e-20)
(0.967132 -0.264597 -2.3827e-19)
(0.967208 -0.264442 1.45354e-19)
(0.967287 -0.264297 -5.21626e-20)
(0.967367 -0.264163 9.12146e-20)
(0.967448 -0.264042 4.15277e-20)
(0.967529 -0.263935 1.71858e-19)
(0.967608 -0.263844 -1.11439e-19)
(0.967685 -0.263771 -1.2411e-19)
(0.967758 -0.263718 1.82294e-19)
(0.967827 -0.263688 -1.44236e-19)
(0.96789 -0.263677 2.34173e-19)
(0.967946 -0.263689 -1.17143e-19)
(0.967994 -0.263728 6.55405e-20)
(0.968032 -0.263797 8.5007e-20)
(0.96806 -0.263896 -3.2441e-20)
(0.968082 -0.264023 1.18272e-20)
(0.968104 -0.264172 -2.59294e-20)
(0.968132 -0.264332 2.96927e-20)
(0.968175 -0.264489 -3.56119e-20)
(0.968243 -0.264622 -6.55392e-21)
(0.968352 -0.264701 -3.60409e-20)
(0.968516 -0.264694 -6.21961e-20)
(0.968753 -0.264558 -3.26856e-19)
(0.969078 -0.264248 -3.00999e-19)
(0.969501 -0.263715 -4.95678e-19)
(0.970021 -0.262912 -7.42664e-19)
(0.970626 -0.261803 -6.51919e-19)
(0.971282 -0.260359 6.58734e-19)
(0.971932 -0.258575 1.52918e-18)
(0.972486 -0.25647 -5.15527e-19)
(0.972816 -0.254113 -5.32486e-19)
(0.972751 -0.251644 -4.81082e-18)
(0.972093 -0.249364 -3.6774e-18)
(0.970538 -0.247719 -2.65018e-18)
(0.96813 -0.247317 -6.05947e-18)
(0.963908 -0.249512 -7.60382e-19)
(0.958706 -0.2564 1.55171e-18)
(0.979901 -0.269558 7.83881e-19)
(0.964123 -0.270108 1.43723e-20)
(0.964228 -0.270191 -4.85638e-21)
(0.96435 -0.270081 7.96098e-21)
(0.964556 -0.270017 -1.13968e-20)
(0.964814 -0.270077 2.50223e-20)
(0.965089 -0.270242 -1.27213e-20)
(0.965363 -0.270456 6.23577e-21)
(0.965625 -0.27066 -9.59127e-20)
(0.965871 -0.270816 8.00769e-20)
(0.966098 -0.270907 -1.54993e-19)
(0.966304 -0.270931 1.70775e-19)
(0.966489 -0.270897 -2.08824e-20)
(0.966654 -0.270812 -4.35171e-20)
(0.9668 -0.270688 -1.80037e-20)
(0.966927 -0.270532 -2.92057e-21)
(0.967037 -0.270351 -1.86157e-19)
(0.967131 -0.270149 1.59649e-20)
(0.967214 -0.26993 1.98923e-19)
(0.967286 -0.269697 -6.03573e-20)
(0.967352 -0.269453 -5.89584e-20)
(0.967414 -0.269202 1.03397e-19)
(0.967475 -0.268946 -4.58065e-20)
(0.967536 -0.26869 1.96386e-19)
(0.967601 -0.268436 9.56777e-20)
(0.967669 -0.268188 6.26558e-20)
(0.967742 -0.267949 -2.3074e-19)
(0.967819 -0.267721 -3.1229e-20)
(0.9679 -0.267508 -1.5811e-19)
(0.967984 -0.267312 3.07445e-20)
(0.96807 -0.267137 -3.90218e-20)
(0.968157 -0.266985 -1.91344e-20)
(0.968243 -0.266858 1.06233e-19)
(0.968326 -0.266754 -2.69465e-19)
(0.968405 -0.266674 -2.4375e-20)
(0.968477 -0.266624 -1.041e-19)
(0.96854 -0.266604 -4.30132e-20)
(0.968591 -0.266616 -2.65174e-20)
(0.968632 -0.266656 -1.17706e-19)
(0.968664 -0.266717 1.43195e-19)
(0.968692 -0.26679 6.41481e-20)
(0.968721 -0.266861 9.54088e-20)
(0.968756 -0.266908 -5.45272e-20)
(0.968809 -0.266907 -3.50756e-20)
(0.968889 -0.266827 7.17655e-20)
(0.969011 -0.266633 -1.22316e-19)
(0.969185 -0.266283 -2.89982e-19)
(0.96942 -0.265739 7.79361e-20)
(0.969718 -0.264962 1.21019e-20)
(0.970069 -0.263925 5.75153e-19)
(0.970447 -0.26261 -1.47172e-18)
(0.970808 -0.26102 -3.59907e-19)
(0.971081 -0.259181 7.34806e-19)
(0.971163 -0.257158 6.15056e-19)
(0.970924 -0.255069 -1.85115e-18)
(0.97023 -0.253153 -3.65745e-19)
(0.968872 -0.251694 2.30005e-18)
(0.967124 -0.250878 3.92783e-18)
(0.964086 -0.25105 -4.24679e-18)
(0.959453 -0.256625 2.06635e-18)
(0.982436 -0.269208 -1.13718e-18)
(0.963953 -0.273337 -5.78837e-21)
(0.964101 -0.273377 2.3392e-20)
(0.96422 -0.273257 -3.8512e-20)
(0.964415 -0.273161 2.87394e-20)
(0.964666 -0.273182 1.83846e-20)
(0.964939 -0.27332 -1.96992e-20)
(0.96522 -0.273527 1.51727e-21)
(0.9655 -0.273747 -1.43575e-20)
(0.965773 -0.27394 -4.71263e-20)
(0.966035 -0.274085 9.05368e-20)
(0.966283 -0.274174 -1.37712e-19)
(0.966517 -0.274211 1.20022e-19)
(0.966732 -0.274202 1.02091e-19)
(0.966929 -0.274152 -1.58887e-19)
(0.967106 -0.274067 -4.91202e-20)
(0.967261 -0.273952 1.86004e-19)
(0.967395 -0.27381 -2.20188e-19)
(0.96751 -0.273642 2.96654e-19)
(0.967605 -0.273451 -6.06538e-20)
(0.967685 -0.273238 2.62898e-20)
(0.967752 -0.273005 -5.30063e-20)
(0.96781 -0.272755 -6.15052e-20)
(0.967863 -0.272493 -1.01062e-19)
(0.967914 -0.272221 1.71777e-19)
(0.967965 -0.271944 -1.17276e-19)
(0.96802 -0.271665 -1.03929e-19)
(0.96808 -0.271388 2.08412e-19)
(0.968146 -0.271118 -1.91863e-19)
(0.968219 -0.270859 2.75259e-19)
(0.968299 -0.270614 -1.50735e-19)
(0.968385 -0.270388 8.71731e-20)
(0.968476 -0.270182 -1.62934e-19)
(0.96857 -0.269995 1.38676e-19)
(0.968666 -0.269828 -3.28829e-20)
(0.968761 -0.269685 -1.13814e-20)
(0.968853 -0.269567 -1.30748e-20)
(0.968938 -0.269477 -8.94994e-20)
(0.969016 -0.269409 1.13982e-19)
(0.969087 -0.269357 -6.10354e-20)
(0.969152 -0.26931 -3.87091e-19)
(0.969215 -0.269255 -1.32915e-19)
(0.969278 -0.269172 3.2459e-20)
(0.969347 -0.269037 -1.06032e-19)
(0.96943 -0.268823 1.44697e-20)
(0.969536 -0.268498 -1.70642e-21)
(0.969674 -0.268025 -8.64192e-20)
(0.96985 -0.26737 2.64517e-19)
(0.970066 -0.2665 4.16584e-19)
(0.970315 -0.265392 4.74007e-19)
(0.97058 -0.264032 7.86607e-19)
(0.970823 -0.262422 -3.99003e-19)
(0.97099 -0.260582 2.95375e-19)
(0.970999 -0.258566 2.32271e-18)
(0.970748 -0.256461 -2.89303e-19)
(0.970144 -0.254447 -7.89611e-19)
(0.969017 -0.252714 1.32891e-18)
(0.967702 -0.251306 -9.5464e-19)
(0.965174 -0.25059 -1.36401e-18)
(0.960547 -0.256411 -3.2752e-18)
(0.984035 -0.269662 -8.51369e-20)
(0.964057 -0.275558 7.19547e-21)
(0.964187 -0.275591 -3.24332e-20)
(0.964269 -0.275483 1.58962e-20)
(0.964426 -0.275378 2.93666e-20)
(0.964641 -0.275378 -6.26794e-20)
(0.964883 -0.275496 5.24455e-20)
(0.965137 -0.275692 -3.4513e-20)
(0.965397 -0.275913 2.90938e-20)
(0.965658 -0.276122 4.54153e-20)
(0.965918 -0.276296 -1.08763e-19)
(0.966173 -0.276428 1.55092e-19)
(0.966423 -0.276518 6.27487e-20)
(0.966665 -0.276572 -2.56766e-19)
(0.966895 -0.276593 -4.53818e-20)
(0.967112 -0.276585 1.33431e-19)
(0.967311 -0.276552 8.24501e-20)
(0.96749 -0.276493 -1.00876e-19)
(0.967648 -0.27641 8.43185e-20)
(0.967784 -0.276301 1.26178e-19)
(0.967897 -0.276167 -6.59119e-20)
(0.967991 -0.276007 -3.64757e-20)
(0.968068 -0.275823 1.16896e-19)
(0.96813 -0.275618 2.29174e-19)
(0.968184 -0.275391 -1.76199e-19)
(0.968232 -0.275148 -1.78007e-19)
(0.968278 -0.274892 1.864e-19)
(0.968326 -0.274626 -1.42458e-19)
(0.968379 -0.274355 -4.78696e-20)
(0.96844 -0.274082 4.18404e-19)
(0.968508 -0.273815 -1.82023e-19)
(0.968587 -0.273554 -1.11911e-19)
(0.968676 -0.273305 1.49557e-19)
(0.968774 -0.273065 9.24329e-20)
(0.968879 -0.272835 -9.49067e-20)
(0.968992 -0.27262 -5.38184e-20)
(0.969109 -0.272419 1.4061e-19)
(0.969228 -0.272236 -5.34628e-21)
(0.969347 -0.272066 4.94625e-20)
(0.969465 -0.271901 -1.88645e-19)
(0.969582 -0.271731 -2.03834e-19)
(0.969699 -0.271542 2.46454e-19)
(0.969818 -0.271317 1.53831e-19)
(0.969941 -0.271032 1.55156e-19)
(0.970073 -0.270662 -1.67966e-19)
(0.970219 -0.270177 -1.28373e-19)
(0.970386 -0.269545 2.62642e-20)
(0.970578 -0.268734 -1.22267e-19)
(0.970796 -0.267714 -1.85884e-19)
(0.971034 -0.266465 3.5047e-19)
(0.971279 -0.264973 5.86008e-19)
(0.971499 -0.263239 2.4238e-19)
(0.971649 -0.261279 -1.68019e-19)
(0.971661 -0.259133 -5.25034e-20)
(0.971448 -0.256873 7.56551e-19)
(0.970932 -0.254649 -6.95785e-19)
(0.96995 -0.252627 -4.12512e-19)
(0.968835 -0.250863 -6.29921e-19)
(0.966464 -0.249932 4.16467e-18)
(0.961659 -0.256372 1.52335e-19)
(0.985258 -0.270237 -1.47798e-19)
(0.964221 -0.277149 -1.2717e-20)
(0.964313 -0.277185 -1.00725e-20)
(0.964354 -0.277092 1.38615e-20)
(0.964474 -0.276985 4.85047e-20)
(0.964655 -0.276973 -1.04108e-19)
(0.964863 -0.277078 1.18498e-19)
(0.965085 -0.277264 -5.92226e-21)
(0.965315 -0.277481 -7.82889e-21)
(0.96555 -0.277692 -4.1282e-20)
(0.965787 -0.277876 9.80733e-20)
(0.966027 -0.278026 -1.50579e-19)
(0.966269 -0.278144 5.64298e-20)
(0.966512 -0.278233 -1.76468e-21)
(0.966754 -0.278299 8.46646e-20)
(0.96699 -0.278345 3.83455e-20)
(0.967218 -0.278373 -2.10118e-19)
(0.967433 -0.278384 1.80294e-19)
(0.967632 -0.278376 6.74005e-20)
(0.967811 -0.278348 -1.94354e-19)
(0.967968 -0.278298 9.53946e-20)
(0.968103 -0.278225 4.08661e-20)
(0.968217 -0.278126 -2.93382e-20)
(0.96831 -0.278003 2.97321e-20)
(0.968388 -0.277854 -2.09352e-20)
(0.968453 -0.277681 -2.12201e-19)
(0.968509 -0.277487 1.31682e-19)
(0.968563 -0.277272 -1.91511e-19)
(0.968616 -0.277042 3.50279e-19)
(0.968674 -0.276799 -6.46536e-20)
(0.968739 -0.276548 -4.0153e-20)
(0.968815 -0.276292 -1.15878e-20)
(0.968903 -0.276036 2.75149e-19)
(0.969004 -0.275776 -1.24339e-19)
(0.969118 -0.275514 -8.75637e-20)
(0.969245 -0.275254 1.48359e-19)
(0.969384 -0.274995 1.15801e-19)
(0.969532 -0.274741 -1.88855e-19)
(0.969689 -0.274487 3.66958e-20)
(0.969854 -0.274225 2.56628e-19)
(0.970024 -0.273945 -7.91456e-20)
(0.970201 -0.273634 1.5894e-19)
(0.970384 -0.273275 -1.55548e-19)
(0.970573 -0.272845 2.42578e-19)
(0.970772 -0.272322 3.09258e-19)
(0.970983 -0.271678 3.03335e-21)
(0.971209 -0.270883 -5.89597e-20)
(0.971453 -0.269907 -2.20812e-20)
(0.971714 -0.268724 3.21298e-20)
(0.971986 -0.267314 -1.05547e-19)
(0.972256 -0.265664 -3.3105e-19)
(0.972498 -0.263774 7.29708e-20)
(0.972669 -0.261657 7.45714e-19)
(0.97271 -0.259347 -7.70908e-19)
(0.972539 -0.25691 6.06775e-19)
(0.97208 -0.25449 -1.41117e-18)
(0.971165 -0.252265 -3.6809e-19)
(0.970111 -0.250344 -2.05469e-18)
(0.967739 -0.249453 -3.73715e-18)
(0.962693 -0.256533 -6.47685e-19)
(0.986245 -0.270918 -6.8281e-19)
(0.964356 -0.278331 -6.46137e-21)
(0.964411 -0.278378 5.57402e-21)
(0.964421 -0.278302 2.77074e-20)
(0.964514 -0.2782 4.3439e-20)
(0.964668 -0.278185 -1.2881e-19)
(0.964849 -0.278283 7.37896e-20)
(0.965044 -0.278461 -1.29627e-19)
(0.965247 -0.278672 2.01894e-19)
(0.965454 -0.278878 -9.40371e-20)
(0.965665 -0.279061 1.62811e-20)
(0.965881 -0.279215 1.74699e-19)
(0.966102 -0.27934 -3.96249e-19)
(0.966329 -0.279444 2.67702e-19)
(0.966563 -0.279529 3.52325e-20)
(0.9668 -0.279602 5.68294e-20)
(0.967037 -0.279665 -2.43903e-19)
(0.967271 -0.279718 1.18003e-19)
(0.967497 -0.279761 -1.42406e-19)
(0.967711 -0.279791 2.75589e-19)
(0.967908 -0.279808 -4.23426e-20)
(0.968086 -0.279807 -3.36689e-19)
(0.968243 -0.279785 1.29997e-19)
(0.968378 -0.279743 -8.49843e-21)
(0.968495 -0.279674 -4.41883e-19)
(0.968594 -0.279581 3.36445e-19)
(0.968679 -0.279462 2.39867e-19)
(0.968755 -0.279318 1.52461e-19)
(0.968826 -0.279152 -1.91602e-19)
(0.968897 -0.278962 -1.91241e-19)
(0.968973 -0.278756 8.65995e-20)
(0.969057 -0.278533 1.28705e-19)
(0.969153 -0.278298 -1.38097e-19)
(0.969263 -0.278047 -1.93563e-19)
(0.969389 -0.277781 4.00187e-19)
(0.969532 -0.277502 2.86593e-20)
(0.969692 -0.277212 -4.99204e-19)
(0.969868 -0.276911 3.29591e-20)
(0.97006 -0.276596 2.90682e-19)
(0.970268 -0.276259 4.20344e-20)
(0.970488 -0.275891 2.96371e-19)
(0.970722 -0.275479 -3.23037e-19)
(0.970968 -0.275005 -1.87296e-20)
(0.971225 -0.27445 -1.39163e-19)
(0.971495 -0.273791 8.46721e-20)
(0.971777 -0.273004 1.35492e-19)
(0.972072 -0.27206 3.28021e-19)
(0.972382 -0.270932 -3.20199e-20)
(0.972702 -0.269595 5.01844e-20)
(0.973027 -0.268031 -1.15321e-19)
(0.973343 -0.266228 -7.45868e-19)
(0.973624 -0.264185 8.3343e-19)
(0.97383 -0.261915 -1.29041e-18)
(0.973904 -0.25945 9.74326e-19)
(0.973766 -0.256857 6.36579e-19)
(0.973337 -0.254286 2.915e-18)
(0.972438 -0.251936 1.9121e-19)
(0.971377 -0.249967 1.27969e-18)
(0.968934 -0.2492 1.99057e-18)
(0.963637 -0.256846 -1.45777e-18)
(0.987104 -0.271636 -2.02752e-19)
(0.964441 -0.279251 9.36942e-21)
(0.964469 -0.279303 3.21538e-21)
(0.964459 -0.279237 -3.37728e-20)
(0.964534 -0.279138 3.20967e-20)
(0.96467 -0.279121 -1.41719e-20)
(0.964832 -0.279216 2.49118e-20)
(0.965007 -0.27939 8.15973e-21)
(0.965188 -0.279598 -1.2219e-19)
(0.965371 -0.279801 5.35677e-20)
(0.965558 -0.279981 -3.47565e-20)
(0.965748 -0.280133 2.20769e-20)
(0.965945 -0.280259 8.1471e-20)
(0.96615 -0.280364 -1.57174e-20)
(0.966364 -0.280455 4.77906e-20)
(0.966588 -0.280536 -2.00969e-19)
(0.966819 -0.280613 7.81859e-20)
(0.967054 -0.280687 3.28569e-20)
(0.967292 -0.280756 -8.80814e-20)
(0.967525 -0.280821 1.72115e-19)
(0.967749 -0.28088 5.28064e-20)
(0.967961 -0.280929 -8.32907e-21)
(0.968158 -0.280964 -6.01429e-20)
(0.968336 -0.280984 2.22445e-19)
(0.968496 -0.280982 -5.94441e-19)
(0.968637 -0.28096 3.12025e-19)
(0.968762 -0.280913 1.25496e-19)
(0.968875 -0.28084 -1.94591e-19)
(0.968978 -0.280742 3.33443e-19)
(0.969078 -0.280616 -1.6439e-19)
(0.969178 -0.280466 -7.72699e-20)
(0.969283 -0.280291 -1.28238e-19)
(0.969399 -0.280095 -5.16132e-20)
(0.969527 -0.279872 1.44849e-19)
(0.969672 -0.279622 -3.94563e-19)
(0.969836 -0.279348 7.21847e-19)
(0.97002 -0.279048 -6.11538e-20)
(0.970225 -0.278724 2.98065e-19)
(0.970451 -0.278371 -7.46167e-19)
(0.970699 -0.277983 -1.8991e-19)
(0.970967 -0.27755 3.53657e-20)
(0.971254 -0.277059 -1.36773e-19)
(0.971559 -0.276494 -1.15611e-20)
(0.97188 -0.275837 -3.46605e-19)
(0.972217 -0.275066 1.47062e-19)
(0.972569 -0.274159 1.14083e-19)
(0.972934 -0.273088 -3.28453e-19)
(0.973311 -0.27183 2.6608e-19)
(0.973695 -0.270361 -5.79693e-21)
(0.974078 -0.268663 1.79844e-20)
(0.974445 -0.266726 4.43178e-19)
(0.97477 -0.26455 -2.64587e-19)
(0.975014 -0.262147 6.73236e-19)
(0.975119 -0.259552 -1.59716e-18)
(0.975005 -0.256835 -4.0975e-19)
(0.974586 -0.254156 1.98279e-18)
(0.973677 -0.251734 -8.8768e-19)
(0.972579 -0.249772 3.03422e-18)
(0.970029 -0.249158 9.17927e-19)
(0.964489 -0.257273 5.26683e-18)
(0.987883 -0.272362 8.6105e-19)
(0.964479 -0.279986 -2.16176e-21)
(0.964488 -0.280045 -8.42746e-21)
(0.964466 -0.279987 -7.24705e-21)
(0.96453 -0.27989 7.02918e-20)
(0.964654 -0.279872 -3.91237e-20)
(0.964805 -0.279964 -4.61212e-20)
(0.964965 -0.280136 -1.66192e-20)
(0.96513 -0.28034 -6.86413e-20)
(0.965295 -0.280541 4.44925e-20)
(0.965462 -0.280718 7.15525e-21)
(0.96563 -0.280867 3.16949e-21)
(0.965804 -0.28099 1.77168e-19)
(0.965986 -0.281093 -1.25006e-19)
(0.966178 -0.281182 -1.45695e-20)
(0.966382 -0.281264 1.37716e-19)
(0.966597 -0.281344 -7.60857e-20)
(0.966823 -0.281424 -2.84457e-20)
(0.967057 -0.281504 4.51865e-20)
(0.967295 -0.281584 1.40821e-19)
(0.967533 -0.281664 7.19121e-20)
(0.967767 -0.28174 2.06329e-20)
(0.967993 -0.28181 -1.87562e-19)
(0.968206 -0.281872 9.02816e-20)
(0.968405 -0.281918 1.6214e-19)
(0.968589 -0.28195 -3.44464e-19)
(0.968757 -0.28196 1.03307e-19)
(0.968912 -0.281948 -4.06407e-19)
(0.969056 -0.28191 3.22311e-19)
(0.969194 -0.281844 2.60629e-19)
(0.96933 -0.281751 -3.97394e-19)
(0.969468 -0.281629 -1.86208e-19)
(0.969613 -0.281479 2.27387e-19)
(0.96977 -0.281294 7.49721e-20)
(0.969942 -0.281074 -1.72422e-19)
(0.970133 -0.280818 -2.1898e-19)
(0.970347 -0.280524 -2.43432e-19)
(0.970583 -0.280195 1.55915e-19)
(0.970845 -0.279824 3.25251e-19)
(0.971133 -0.279405 1.18566e-19)
(0.971445 -0.278928 -5.9936e-20)
(0.971782 -0.278381 7.8229e-19)
(0.972142 -0.277748 -1.18134e-19)
(0.972522 -0.277013 5.95663e-19)
(0.972922 -0.276155 -8.90133e-19)
(0.973339 -0.275152 1.67126e-19)
(0.97377 -0.27398 1.43799e-20)
(0.974212 -0.272616 4.53712e-20)
(0.974658 -0.271038 -9.00645e-20)
(0.975099 -0.269231 1.44207e-19)
(0.975517 -0.267184 -3.6871e-19)
(0.975887 -0.264898 -8.00569e-19)
(0.976167 -0.262388 -5.90143e-19)
(0.9763 -0.259689 1.52579e-18)
(0.976204 -0.256878 -1.00952e-18)
(0.975786 -0.254122 -2.94352e-18)
(0.974854 -0.251661 -1.44662e-18)
(0.973708 -0.249725 -2.96166e-18)
(0.97104 -0.249255 -2.02155e-18)
(0.965279 -0.257743 -5.05775e-18)
(0.988625 -0.273055 2.47692e-18)
(0.964478 -0.280594 2.89234e-21)
(0.964474 -0.280653 -8.63778e-21)
(0.964443 -0.280599 3.07129e-20)
(0.9645 -0.280502 7.77823e-21)
(0.964619 -0.280482 -4.18212e-20)
(0.964761 -0.280572 -4.72409e-20)
(0.964912 -0.280743 1.1167e-19)
(0.965065 -0.280947 -1.2031e-19)
(0.965218 -0.281146 -2.80033e-20)
(0.965369 -0.281323 7.33529e-20)
(0.96552 -0.28147 6.60747e-20)
(0.965675 -0.28159 1.96653e-19)
(0.965837 -0.281691 -1.13163e-19)
(0.966008 -0.281777 -1.8712e-19)
(0.966192 -0.281856 4.12618e-20)
(0.966388 -0.281933 -1.45695e-19)
(0.966598 -0.282012 1.11403e-19)
(0.966821 -0.282093 -1.77231e-19)
(0.967054 -0.282176 3.3189e-20)
(0.967293 -0.282264 -5.19683e-20)
(0.967537 -0.282352 -2.89986e-20)
(0.96778 -0.282439 -1.39933e-19)
(0.968017 -0.282525 2.16644e-20)
(0.968248 -0.2826 3.06827e-19)
(0.968467 -0.282666 -1.0188e-19)
(0.968676 -0.282718 3.35554e-20)
(0.968873 -0.28275 9.06742e-20)
(0.96906 -0.28276 -1.04733e-19)
(0.969241 -0.282744 -2.14853e-20)
(0.969418 -0.282701 1.36782e-19)
(0.969596 -0.282628 1.4375e-19)
(0.969779 -0.282523 -9.99864e-20)
(0.969972 -0.282379 -3.16355e-19)
(0.970179 -0.282192 -4.32589e-19)
(0.970405 -0.281963 6.20555e-19)
(0.970652 -0.281686 1.70682e-19)
(0.970925 -0.281364 1.16031e-19)
(0.971225 -0.280989 4.61832e-19)
(0.971553 -0.280555 -3.65321e-19)
(0.971909 -0.280052 2.20628e-19)
(0.972294 -0.279469 2.52486e-20)
(0.972705 -0.278788 -1.33962e-20)
(0.973141 -0.277996 -2.24398e-19)
(0.973599 -0.277072 4.65585e-19)
(0.974077 -0.275997 -5.01719e-19)
(0.97457 -0.274747 2.10158e-19)
(0.975073 -0.273301 -3.86435e-19)
(0.975578 -0.271638 1.48139e-20)
(0.976073 -0.269745 -5.98049e-20)
(0.976541 -0.267611 3.47757e-19)
(0.976953 -0.265238 1.81763e-19)
(0.977268 -0.262643 7.46567e-20)
(0.977427 -0.259864 2.68167e-19)
(0.977346 -0.256981 1.04971e-18)
(0.976924 -0.254172 -7.67659e-20)
(0.975967 -0.251689 -1.40219e-18)
(0.97477 -0.249786 1.77022e-18)
(0.971975 -0.24945 6.6683e-19)
(0.966013 -0.258236 6.89255e-19)
(0.989337 -0.273715 -1.84271e-18)
(0.964451 -0.281096 5.57176e-21)
(0.964439 -0.281162 -4.71939e-21)
(0.964403 -0.281115 4.25653e-21)
(0.964456 -0.281021 2.71154e-20)
(0.96457 -0.281003 3.88524e-20)
(0.964707 -0.281094 -1.52135e-19)
(0.964852 -0.281265 1.09284e-19)
(0.964997 -0.281468 2.1893e-20)
(0.96514 -0.281667 -7.39673e-21)
(0.96528 -0.281841 -4.78127e-20)
(0.965418 -0.281987 1.42494e-19)
(0.965557 -0.282105 -4.77847e-20)
(0.965702 -0.282202 -6.37661e-20)
(0.965855 -0.282285 -1.84139e-19)
(0.96602 -0.28236 3.63866e-19)
(0.966198 -0.282432 -7.74485e-20)
(0.96639 -0.282507 -6.26641e-20)
(0.966598 -0.282583 -1.77293e-19)
(0.96682 -0.282664 1.94071e-19)
(0.967053 -0.282751 1.02528e-19)
(0.967297 -0.282841 -5.05453e-20)
(0.967546 -0.282933 7.48277e-20)
(0.967798 -0.283027 -3.25038e-19)
(0.96805 -0.283117 2.73707e-20)
(0.968297 -0.283202 1.72148e-19)
(0.968538 -0.283278 -3.06689e-20)
(0.968773 -0.28334 -4.84795e-19)
(0.969001 -0.283384 5.4481e-20)
(0.969224 -0.283405 4.0901e-19)
(0.969444 -0.283401 -1.07117e-19)
(0.969665 -0.283368 -1.92968e-19)
(0.96989 -0.283302 1.12807e-19)
(0.970125 -0.283196 2.99089e-19)
(0.970372 -0.283043 6.59926e-19)
(0.970637 -0.282842 -9.6361e-20)
(0.970924 -0.282588 1.18957e-19)
(0.971236 -0.28228 -8.66872e-19)
(0.971576 -0.281911 -2.06498e-19)
(0.971947 -0.281473 1.2713e-19)
(0.972348 -0.280958 -5.05026e-19)
(0.972779 -0.280353 -7.93074e-20)
(0.973241 -0.279642 1.91941e-19)
(0.973729 -0.27881 1.72974e-19)
(0.974243 -0.27784 3.39827e-19)
(0.974777 -0.276712 8.33531e-19)
(0.975328 -0.275403 -4.84529e-19)
(0.975889 -0.273896 5.39334e-19)
(0.97645 -0.272169 1.8801e-19)
(0.976998 -0.27021 1.81226e-21)
(0.977514 -0.268008 -2.6437e-19)
(0.977967 -0.265568 7.32254e-19)
(0.978316 -0.262908 1.29724e-18)
(0.9785 -0.260066 -1.32602e-18)
(0.978432 -0.257128 -1.42827e-18)
(0.978007 -0.25428 7.2005e-19)
(0.977026 -0.251783 4.88112e-18)
(0.975779 -0.24991 -1.37588e-18)
(0.972858 -0.249688 1.9434e-18)
(0.966722 -0.258698 2.46763e-18)
(0.990039 -0.274313 -1.45928e-18)
(0.96441 -0.281533 -6.19067e-21)
(0.964393 -0.2816 6.78463e-21)
(0.964353 -0.281556 4.56757e-20)
(0.964404 -0.281463 -5.95925e-20)
(0.964516 -0.281445 1.06932e-19)
(0.96465 -0.281537 -1.56347e-19)
(0.964791 -0.28171 4.43112e-20)
(0.96493 -0.281916 -1.75669e-21)
(0.965065 -0.282116 9.44819e-20)
(0.965195 -0.282291 -4.99827e-20)
(0.965322 -0.282436 1.41998e-20)
(0.965449 -0.282553 1.39679e-20)
(0.965579 -0.282648 -2.23294e-19)
(0.965717 -0.282728 6.84906e-20)
(0.965866 -0.282799 1.51008e-19)
(0.966026 -0.282868 3.50204e-21)
(0.966201 -0.282938 -2.41386e-19)
(0.966394 -0.283009 1.00182e-19)
(0.966602 -0.283085 4.39755e-19)
(0.966825 -0.283167 -2.8906e-19)
(0.967062 -0.283253 -2.09756e-19)
(0.967312 -0.283343 1.74344e-19)
(0.967569 -0.283439 1.07193e-19)
(0.967833 -0.283532 1.12529e-19)
(0.968099 -0.283625 -2.2217e-19)
(0.968365 -0.283713 -4.50161e-19)
(0.968631 -0.283791 3.4415e-19)
(0.968894 -0.283856 4.52112e-19)
(0.969156 -0.283901 1.10928e-19)
(0.969417 -0.283926 -2.43397e-19)
(0.96968 -0.283922 1.00184e-19)
(0.969949 -0.283888 1.62567e-19)
(0.970227 -0.283812 -2.77321e-19)
(0.970517 -0.283689 -4.90297e-20)
(0.970825 -0.283516 -4.31651e-19)
(0.971155 -0.283284 -9.3078e-20)
(0.971509 -0.282994 -8.98229e-20)
(0.971892 -0.282636 2.38312e-19)
(0.972307 -0.282203 -3.29545e-19)
(0.972754 -0.281684 7.41376e-20)
(0.973232 -0.281069 1.33944e-19)
(0.973743 -0.280339 3.08612e-20)
(0.974283 -0.279482 -5.72939e-19)
(0.97485 -0.278481 -6.79734e-19)
(0.975439 -0.277316 -4.56719e-19)
(0.976045 -0.275966 7.58749e-19)
(0.976661 -0.274414 4.69444e-20)
(0.977275 -0.272639 -1.15214e-19)
(0.977875 -0.270631 1.17466e-20)
(0.978437 -0.268378 2.72291e-19)
(0.978931 -0.265887 -2.93345e-19)
(0.979314 -0.263175 -1.20948e-18)
(0.979523 -0.260284 1.27359e-19)
(0.97947 -0.257303 1.81997e-18)
(0.979042 -0.254424 -1.04734e-18)
(0.978038 -0.251917 -1.18807e-18)
(0.976744 -0.25007 -1.77036e-18)
(0.973693 -0.249953 -5.43772e-18)
(0.967405 -0.259137 -4.3662e-18)
(0.990726 -0.274869 3.31388e-18)
(0.964354 -0.281918 -5.40228e-21)
(0.964333 -0.281989 7.78567e-21)
(0.964291 -0.281948 1.58674e-21)
(0.964342 -0.281856 2.90733e-20)
(0.964453 -0.281838 -4.40923e-20)
(0.964586 -0.281932 -8.86759e-20)
(0.964724 -0.282106 3.25928e-20)
(0.964859 -0.282313 -4.04322e-20)
(0.964988 -0.282514 8.98892e-20)
(0.965111 -0.28269 -1.74703e-20)
(0.965229 -0.282835 -5.67191e-20)
(0.965346 -0.282952 4.75862e-20)
(0.965465 -0.283046 7.46359e-20)
(0.96559 -0.283125 2.00919e-19)
(0.965725 -0.283194 -3.64327e-19)
(0.96587 -0.28326 1.82681e-19)
(0.96603 -0.283326 2.51088e-20)
(0.966208 -0.283392 -1.7309e-19)
(0.966403 -0.283462 -1.03012e-19)
(0.966613 -0.283539 3.36708e-19)
(0.966842 -0.28362 -3.43458e-19)
(0.967087 -0.283705 1.04517e-19)
(0.967343 -0.283797 -2.55151e-19)
(0.967613 -0.283887 4.28729e-19)
(0.967891 -0.283981 -8.56589e-20)
(0.968175 -0.284072 -2.21662e-19)
(0.968464 -0.284157 1.82923e-19)
(0.968755 -0.284232 3.17332e-19)
(0.969051 -0.284291 -2.83634e-19)
(0.969348 -0.284333 1.65223e-19)
(0.969652 -0.284349 -5.30532e-19)
(0.969963 -0.284337 -4.40107e-20)
(0.970284 -0.284286 2.0782e-19)
(0.970618 -0.284187 -1.2141e-19)
(0.97097 -0.284037 -2.32018e-19)
(0.971344 -0.283826 -4.94839e-19)
(0.971743 -0.283553 6.07191e-19)
(0.972171 -0.28321 -2.41802e-19)
(0.972631 -0.282784 1.63993e-19)
(0.973124 -0.282268 3.23817e-19)
(0.973651 -0.28165 2.49452e-19)
(0.974211 -0.280911 -1.07391e-19)
(0.974801 -0.28004 3.47985e-19)