/*--------------------------------*- C++ -*----------------------------------*\
  =========                 |
  \\      /  F ield         | OpenFOAM: The Open Source CFD Toolbox
   \\    /   O peration     | Website:  https://openfoam.org
    \\  /    A nd           | Version:  6.0
     \\/     M anipulation  |
\*---------------------------------------------------------------------------*/
FoamFile
{
    version     2.0;
    format      ascii;
    class       volVectorField;
    location    "2.12";
    object      U;
}
// * * * * * * * * * * * * * * * * * * * * * * * * * * * * * * * * * * * * * //

dimensions      [0 1 -1 0 0 0 0];

internalField   nonuniform List<vector> 
13500
(
(1 1.5054e-06 -4.2791e-18)
(1 -2.9651e-06 2.8954e-18)
(1 -6.5414e-06 -1.2457e-17)
(1 -9.002e-06 -8.6094e-18)
(1 -9.5679e-06 1.6238e-17)
(1 -7.4895e-06 3.0133e-17)
(1 2.3428e-07 2.5973e-17)
(0.99998 1.4145e-05 -4.173e-18)
(0.99991 4.5438e-05 1.5389e-17)
(0.99981 7.079e-05 3.3059e-18)
(0.99571 0.00075691 2.8687e-17)
(1.0191 0.010832 7.825e-18)
(1 4.4366e-06 2.651e-18)
(1 -8.2021e-06 -8.7932e-18)
(1 -1.8348e-05 5.9486e-18)
(1 -2.5383e-05 -3.3948e-19)
(1 -2.6374e-05 -4.3302e-19)
(1 -1.9991e-05 -3.6233e-17)
(1 3.8239e-06 -4.486e-17)
(0.99994 4.4716e-05 -2.3877e-17)
(0.9997 0.00014737 -1.5358e-17)
(0.99987 0.00017198 -1.6349e-18)
(0.98615 0.0021927 -1.3585e-17)
(1.0537 0.030601 -4.7379e-18)
(1 7.3672e-06 -3.4241e-18)
(1 -1.3517e-05 1.747e-17)
(1 -3.0326e-05 3.0942e-18)
(1 -4.1955e-05 9.9265e-18)
(1 -4.3495e-05 -3.7445e-18)
(1 -3.2703e-05 2.9023e-17)
(1 7.3392e-06 -6.315e-18)
(0.9999 7.5037e-05 5.4238e-18)
(0.99947 0.0002572 -1.8632e-17)
(1.0004 0.00029025 2.4837e-17)
(0.97593 0.0032755 -7.1028e-18)
(1.0824 0.045085 1.6632e-18)
(1 1.0319e-05 8.9513e-18)
(1 -1.9029e-05 -1.6937e-17)
(1 -4.2606e-05 -1.4667e-17)
(1 -5.8938e-05 -6.9642e-19)
(1 -6.113e-05 5.7805e-18)
(1 -4.5842e-05 -8.0569e-19)
(1 1.0475e-05 6.2219e-17)
(0.99988 0.00010469 9.7716e-18)
(0.99921 0.00037346 2.2032e-17)
(1.0013 0.00043125 -8.9963e-18)
(0.96547 0.0040302 3.4587e-17)
(1.1037 0.055568 -7.5706e-18)
(1 1.3276e-05 -6.2896e-18)
(1 -2.4589e-05 1.4639e-17)
(1 -5.4929e-05 1.2486e-17)
(1 -7.6e-05 1.2704e-17)
(1.0001 -7.8858e-05 2.8344e-18)
(1.0001 -5.8994e-05 2.1331e-17)
(1 1.3542e-05 -2.7784e-17)
(0.99986 0.00013373 1.9846e-18)
(0.9989 0.00049458 -1.3509e-17)
(1.0027 0.00059789 -2.1464e-18)
(0.95514 0.0045061 -8.9703e-18)
(1.1178 0.063186 2.0985e-18)
(1 1.6239e-05 6.3652e-18)
(1 -3.0195e-05 -6.0685e-18)
(1 -6.7297e-05 3.8132e-18)
(1 -9.3132e-05 -2.5166e-17)
(1.0001 -9.6692e-05 -8.2955e-20)
(1.0001 -7.2168e-05 -4.2229e-17)
(1 1.6514e-05 1.0662e-18)
(0.99985 0.00016204 -1.5931e-17)
(0.99853 0.00061881 5.1442e-18)
(1.0044 0.0007976 -2.1631e-17)
(0.94531 0.0047452 -2.1595e-17)
(1.1253 0.068556 2.0295e-18)
(0.99999 1.9209e-05 -1.0536e-18)
(1 -3.585e-05 -7.2579e-18)
(1 -7.9712e-05 -3.099e-18)
(1.0001 -0.00011034 1.8995e-17)
(1.0001 -0.00011464 -2.6253e-17)
(1.0001 -8.5375e-05 1.6157e-17)
(1 1.9395e-05 1.8584e-17)
(0.99986 0.00018962 5.605e-18)
(0.99811 0.00074444 1.15e-17)
(1.0064 0.0010376 1.1645e-17)
(0.93626 0.0047847 9.3038e-18)
(1.1272 0.072104 3.2606e-18)
(0.99999 2.2188e-05 -2.1747e-18)
(1 -4.1555e-05 -1.4277e-18)
(1 -9.2179e-05 -2.6697e-17)
(1.0001 -0.00012764 -9.0701e-18)
(1.0001 -0.0001327 7.3478e-18)
(1.0001 -9.8627e-05 2.6478e-17)
(1 2.2181e-05 1.1829e-17)
(0.99988 0.00021651 5.0036e-18)
(0.99761 0.00086965 -7.5166e-18)
(1.0087 0.0013225 1.6312e-17)
(0.92823 0.0046605 7.5138e-18)
(1.1244 0.074195 -1.0372e-17)
(0.99999 2.5174e-05 -6.7511e-18)
(1 -4.7313e-05 6.1383e-18)
(1 -0.0001047 4.4888e-17)
(1.0001 -0.00014503 -1.0879e-17)
(1.0001 -0.00015089 2.7517e-17)
(1.0001 -0.00011193 -5.2278e-17)
(1 2.4855e-05 -3.9404e-17)
(0.99992 0.00024275 9.7224e-18)
(0.99705 0.00099257 -5.6454e-18)
(1.0112 0.0016547 -8.9966e-18)
(0.92137 0.0044065 -1.3883e-17)
(1.118 0.075133 1.3572e-17)
(0.99999 2.8168e-05 4.4478e-18)
(1 -5.3125e-05 2.3105e-18)
(1 -0.00011728 -3.8023e-17)
(1.0001 -0.0001625 1.5483e-17)
(1.0001 -0.0001692 -1.2e-17)
(1.0001 -0.00012531 2.2296e-17)
(1 2.7393e-05 1.4003e-17)
(0.99997 0.00026847 2.4575e-18)
(0.99642 0.0011113 5.3312e-19)
(1.0139 0.0020347 1.4256e-18)
(0.91579 0.0040544 4.4169e-18)
(1.1089 0.075172 -7.0946e-19)
(0.99999 3.1171e-05 -2.442e-18)
(1 -5.8993e-05 -7.5775e-18)
(1 -0.00012992 9.3205e-18)
(1.0001 -0.00018008 -2.7318e-18)
(1.0001 -0.00018766 1.8524e-18)
(1.0001 -0.00013876 -2.4435e-17)
(1 2.9771e-05 -3.2252e-17)
(1 0.0002938 -3.1216e-17)
(0.99571 0.001224 1.578e-17)
(1.0166 0.0024615 1.8518e-18)
(0.91152 0.003633 -1.1204e-17)
(1.0979 0.074518 -5.852e-18)
(0.99998 3.4184e-05 3.3707e-18)
(1 -6.4918e-05 2.8622e-18)
(1 -0.00014261 4.4919e-18)
(1.0001 -0.00019776 -2.177e-18)
(1.0001 -0.00020627 -5.5525e-18)
(1.0002 -0.00015229 9.2417e-18)
(1 3.1957e-05 1.867e-17)
(1.0001 0.00031896 1.9284e-17)
(0.99494 0.0013289 1.0139e-17)
(1.0193 0.0029328 -2.3382e-17)
(0.90856 0.0031682 1.1758e-19)
(1.0858 0.073342 -6.7789e-18)
(0.99998 3.7205e-05 -3.3701e-18)
(0.99999 -7.0903e-05 5.6284e-18)
(1 -0.00015538 8.1441e-18)
(1.0001 -0.00021554 5.6847e-18)
(1.0002 -0.00022502 -5.1501e-18)
(1.0002 -0.00016593 4.5432e-18)
(1 3.3915e-05 4.2573e-18)
(1.0003 0.00034418 -1.7221e-18)
(0.9941 0.0014241 -1.6387e-17)
(1.022 0.0034453 2.1683e-17)
(0.90688 0.0026829 1.0475e-19)
(1.0731 0.071782 1.4496e-18)
(0.99998 4.0237e-05 5.1249e-18)
(0.99999 -7.6949e-05 -4.3935e-18)
(1 -0.00016821 7.13e-19)
(1.0001 -0.00023344 -4.7421e-18)
(1.0002 -0.00024394 1.1696e-17)
(1.0002 -0.00017968 5.5431e-18)
(1 3.5599e-05 1.7131e-17)
(1.0004 0.00036975 -6.3952e-18)
(0.9932 0.0015079 -2.002e-19)
(1.0246 0.003995 5.3258e-18)
(0.90639 0.0021969 1.7005e-17)
(1.0603 0.069951 9.2455e-19)
(0.99997 4.328e-05 1.236e-18)
(0.99999 -8.3061e-05 9.7507e-18)
(1 -0.00018111 1.3619e-17)
(1.0001 -0.00025146 -4.7279e-18)
(1.0002 -0.00026302 8.4695e-18)
(1.0002 -0.00019355 -2.5877e-18)
(1 3.6958e-05 -3.0003e-17)
(1.0006 0.00039599 2.0242e-17)
(0.99225 0.0015788 -1.8479e-17)
(1.0271 0.0045776 -3.0718e-17)
(0.90701 0.001727 -3.7331e-18)
(1.0478 0.067941 8.5698e-19)
(0.99997 4.6336e-05 -3.1534e-18)
(0.99999 -8.924e-05 -1.037e-17)
(1 -0.00019407 -3.2688e-17)
(1.0001 -0.00026961 7.9657e-18)
(1.0002 -0.00028227 -1.2852e-17)
(1.0002 -0.00020756 8.2963e-18)
(1 3.7932e-05 -2.8075e-18)
(1.0007 0.00042326 -1.2185e-17)
(0.99126 0.0016352 4.0577e-18)
(1.0295 0.0051882 1.8344e-17)
(0.90862 0.001287 -7.8342e-18)
(1.036 0.065826 1.1928e-17)
(0.99996 4.9405e-05 3.3179e-19)
(0.99998 -9.549e-05 7.7556e-18)
(1 -0.00020711 2.2568e-17)
(1.0001 -0.00028788 -1.794e-18)
(1.0002 -0.00030171 -1.2769e-17)
(1.0003 -0.0002217 -1.546e-17)
(1 3.8452e-05 1.0723e-17)
(1.001 0.00045197 6.9879e-18)
(0.99024 0.0016755 2.3452e-17)
(1.0316 0.0058223 -2.5685e-18)
(0.9111 0.00088784 1.9467e-18)
(1.025 0.063663 -4.7585e-18)
(0.99996 5.249e-05 -1.8615e-18)
(0.99998 -0.00010182 -9.3973e-18)
(1 -0.00022022 -1.0183e-17)
(1.0001 -0.0003063 5.995e-18)
(1.0002 -0.00032132 -7.1714e-18)
(1.0003 -0.00023601 -1.24e-17)
(1 3.844e-05 1.0425e-17)
(1.0012 0.00048253 -4.7408e-18)
(0.98919 0.0016986 -2.9023e-17)
(1.0335 0.006475 -1.4395e-17)
(0.91432 0.0005379 8.4482e-18)
(1.015 0.061498 -5.1636e-18)
(0.99996 5.5593e-05 -2.6655e-18)
(0.99998 -0.00010822 -3.5517e-18)
(1 -0.00023341 -7.5467e-19)
(1.0001 -0.00032486 -2.6252e-17)
(1.0002 -0.00034113 6.0169e-18)
(1.0003 -0.00025047 5.4001e-18)
(1 3.781e-05 -1.981e-17)
(1.0015 0.00051539 -1.6184e-17)
(0.98813 0.0017032 4.2452e-18)
(1.0351 0.0071417 -1.0819e-18)
(0.91816 0.00024313 -9.7556e-18)
(1.0061 0.059367 9.7649e-19)
(0.99995 5.8714e-05 3.4671e-18)
(0.99997 -0.00011471 1.6282e-17)
(1 -0.00024666 1.9433e-17)
(1.0001 -0.00034358 2.4724e-18)
(1.0002 -0.00036114 1.6634e-17)
(1.0003 -0.00026511 9.4626e-18)
(1 3.6465e-05 2.8592e-18)
(1.0018 0.00055101 1.7713e-17)
(0.98707 0.0016881 2.1091e-17)
(1.0365 0.007818 1.7189e-17)
(0.9225 7.3055e-06 7.2806e-18)
(0.99833 0.057298 1.1592e-18)
(0.99994 6.1857e-05 -1.6525e-18)
(0.99997 -0.00012128 -3.9067e-18)
(1 -0.00026 -2.0704e-17)
(1.0001 -0.00036245 -2.3406e-18)
(1.0003 -0.00038135 -1.2607e-17)
(1.0003 -0.00027993 -5.1194e-18)
(1 3.4299e-05 -1.8353e-18)
(1.0021 0.00058988 -1.6017e-17)
(0.98601 0.0016525 -2.0167e-17)
(1.0377 0.0084997 8.8102e-18)
(0.92722 -0.00016766 4.9947e-19)
(0.99171 0.055308 6.6559e-19)
(0.99994 6.5022e-05 4.3804e-18)
(0.99997 -0.00012794 -5.1039e-18)
(1 -0.00027341 -1.9419e-17)
(1.0001 -0.0003815 4.4501e-17)
(1.0003 -0.00040177 1.8288e-17)
(1.0004 -0.00029494 -1.2527e-17)
(0.99998 3.1199e-05 2.4673e-17)
(1.0024 0.00063245 2.1646e-17)
(0.98498 0.0015958 3.2723e-17)
(1.0385 0.0091829 -3.2291e-17)
(0.9322 -0.00028147 -1.3371e-17)
(0.98619 0.053413 1.7567e-19)
(0.99993 6.8211e-05 -3.2063e-18)
(0.99996 -0.0001347 -1.0242e-18)
(1 -0.0002869 3.3152e-17)
(1.0002 -0.00040072 -3.364e-17)
(1.0003 -0.00042241 -1.7604e-18)
(1.0004 -0.00031015 4.1507e-17)
(0.99996 2.7041e-05 7.6465e-18)
(1.0028 0.0006792 -3.3438e-18)
(0.98399 0.0015172 -2.0294e-17)
(1.0391 0.0098638 3.8054e-17)
(0.93735 -0.00033517 -5.664e-18)
(0.98172 0.05162 -2.7904e-19)
(0.99993 7.1427e-05 -1.6345e-18)
(0.99996 -0.00014155 -2.0408e-18)
(1 -0.00030047 1.7264e-18)
(1.0002 -0.00042012 3.4997e-17)
(1.0003 -0.00044328 -9.9256e-18)
(1.0004 -0.00032556 -3.0678e-17)
(0.99993 2.1697e-05 -1.9495e-17)
(1.0031 0.00073058 -3.6002e-18)
(0.98303 0.0014166 6.4172e-18)
(1.0394 0.010539 -3.2102e-17)
(0.94258 -0.00033093 9.4871e-18)
(0.97823 0.049934 3.0252e-18)
(0.99992 7.4669e-05 2.7012e-18)
(0.99995 -0.00014851 1.4204e-17)
(1 -0.00031413 -1.2732e-17)
(1.0002 -0.00043971 -3.6644e-18)
(1.0003 -0.00046438 -1.9049e-17)
(1.0004 -0.00034117 3.3375e-17)
(0.9999 1.5031e-05 -1.7115e-17)
(1.0035 0.00078702 1.4922e-17)
(0.98213 0.0012938 -1.9777e-18)
(1.0394 0.011205 3.0098e-17)
(0.9478 -0.00027178 -9.2573e-18)
(0.97562 0.048359 -5.048e-18)
(0.99991 7.794e-05 -5.1807e-19)
(0.99995 -0.00015557 -8.1693e-18)
(1 -0.00032787 -1.7828e-17)
(1.0002 -0.0004595 -1.0041e-17)
(1.0003 -0.00048573 1.8477e-17)
(1.0005 -0.000357 -4.2558e-17)
(0.99986 6.9016e-06 -2.6411e-18)
(1.0039 0.00084889 -2.0161e-17)
(0.98129 0.0011491 3.1947e-18)
(1.0392 0.011859 -8.6811e-18)
(0.95294 -0.00016143 9.8536e-18)
(0.97382 0.046891 2.1415e-18)
(0.99991 8.124e-05 2.714e-18)
(0.99994 -0.00016273 -8.7507e-18)
(1 -0.0003417 -1.7614e-18)
(1.0002 -0.0004795 2.4397e-18)
(1.0003 -0.00050732 5.8479e-18)
(1.0005 -0.00037304 1.2297e-17)
(0.99982 -2.8342e-06 4.3298e-17)
(1.0043 0.00091655 2.4091e-18)
(0.98052 0.00098273 5.2058e-18)
(1.0388 0.012498 9.5682e-18)
(0.95795 -4.0868e-06 -8.4268e-18)
(0.97271 0.04553 1.645e-18)
(0.9999 8.457e-05 -1.5562e-18)
(0.99993 -0.00017001 8.7426e-18)
(1 -0.00035562 2.5342e-17)
(1.0002 -0.0004997 -2.4582e-17)
(1.0003 -0.00052917 -9.0965e-18)
(1.0005 -0.0003893 -2.1636e-18)
(0.99977 -1.4321e-05 -1.4272e-17)
(1.0048 0.00099029 1.8689e-18)
(0.97983 0.00079551 -9.0199e-18)
(1.0381 0.013119 -3.5165e-18)
(0.96278 0.00019569 -2.3805e-19)
(0.97221 0.04427 -2.0099e-18)
(0.99989 8.7929e-05 -1.6726e-18)
(0.99993 -0.0001774 5.233e-18)
(1 -0.00036964 -6.1287e-19)
(1.0002 -0.00052013 8.1512e-18)
(1.0004 -0.00055128 -1.6785e-17)
(1.0006 -0.00040577 2.4482e-17)
(0.99971 -2.7704e-05 7.1188e-18)
(1.0052 0.0010703 -1.7829e-17)
(0.97922 0.00058835 -1.1566e-17)
(1.0372 0.013719 -1.3923e-17)
(0.96738 0.00043314 1.3358e-18)
(0.97223 0.043107 -3.6835e-18)
(0.99988 9.1318e-05 5.8125e-19)
(0.99992 -0.00018491 -1.2497e-17)
(1 -0.00038375 1.5693e-17)
(1.0002 -0.00054078 2.2544e-17)
(1.0004 -0.00057366 3.2899e-17)
(1.0006 -0.00042246 -1.7979e-17)
(0.99966 -4.3124e-05 -1.7699e-17)
(1.0056 0.0011569 3.6186e-18)
(0.97869 0.00036243 1.0837e-17)
(1.0362 0.014297 1.0899e-17)
(0.97173 0.00070337 6.217e-18)
(0.97267 0.042035 3.6611e-18)
(0.99987 9.4738e-05 1.1139e-18)
(0.99991 -0.00019253 9.9379e-18)
(1 -0.00039797 -3.6055e-17)
(1.0002 -0.00056167 -3.2665e-18)
(1.0004 -0.00059632 -2.7329e-17)
(1.0006 -0.00043937 -1.1325e-17)
(0.99959 -6.0716e-05 2.4848e-20)
(1.0061 0.0012499 -4.1377e-18)
(0.97826 0.00011919 -2.1353e-17)
(1.035 0.01485 -1.7401e-17)
(0.97579 0.0010015 -8.49e-18)
(0.97345 0.041048 -1.8046e-18)
(0.99987 9.8187e-05 -7.2197e-19)
(0.99991 -0.00020027 -6.4631e-18)
(1 -0.00041229 2.8369e-17)
(1.0002 -0.0005828 -3.1168e-17)
(1.0004 -0.00061928 -2.0558e-18)
(1.0007 -0.0004565 2.4116e-17)
(0.99952 -8.061e-05 7.0815e-19)
(1.0065 0.0013496 3.9467e-18)
(0.97792 -0.00013971 1.8693e-17)
(1.0337 0.015376 2.2621e-17)
(0.97957 0.0013227 4.8574e-18)
(0.9745 0.040138 -1.0081e-18)
(0.99986 0.00010167 -1.8795e-18)
(0.9999 -0.00020813 -2.3834e-18)
(1 -0.00042673 -1.2576e-17)
(1.0002 -0.00060419 1.5527e-17)
(1.0004 -0.00064252 3.0037e-17)
(1.0007 -0.00047385 -1.0658e-17)
(0.99945 -0.00010292 2.2044e-17)
(1.007 0.0014557 2.9581e-18)
(0.97768 -0.00041242 -2.1177e-18)
(1.0322 0.015873 1.0234e-17)
(0.98305 0.0016622 -5.427e-18)
(0.97576 0.039299 -7.0265e-19)
(0.99985 0.00010517 4.7006e-19)
(0.99989 -0.00021612 -6.3031e-18)
(1 -0.00044127 4.7079e-18)
(1.0002 -0.00062584 -1.5824e-17)
(1.0004 -0.00066607 -3.1771e-17)
(1.0007 -0.00049143 6.7162e-18)
(0.99938 -0.00012776 -3.1802e-17)
(1.0074 0.0015681 -6.7614e-18)
(0.97752 -0.00069691 6.8692e-18)
(1.0307 0.016339 -3.212e-17)
(0.98622 0.0020155 3.7164e-18)
(0.97716 0.038524 1.9831e-18)
(0.99984 0.00010871 8.2548e-19)
(0.99988 -0.00022424 1.7077e-17)
(1 -0.00045593 7.883e-18)
(1.0002 -0.00064776 6.4459e-18)
(1.0004 -0.00068993 2.5405e-17)
(1.0008 -0.00050923 2.0024e-18)
(0.9993 -0.00015522 2.1961e-17)
(1.0078 0.0016866 4.8504e-18)
(0.97746 -0.00099104 -2.0878e-17)
(1.0291 0.016774 1.1059e-17)
(0.9891 0.0023782 2.5131e-18)
(0.97865 0.037807 2.0566e-18)
(0.99983 0.00011228 -2.8824e-18)
(0.99987 -0.00023249 -5.6212e-18)
(1 -0.00047071 -6.9257e-18)
(1.0002 -0.00066996 1.0586e-17)
(1.0004 -0.00071411 1.2274e-17)
(1.0008 -0.00052726 -3.9879e-18)
(0.99921 -0.00018537 -1.8447e-17)
(1.0082 0.0018109 2.208e-17)
(0.97749 -0.0012925 3.8659e-18)
(1.0275 0.017175 -3.3409e-18)
(0.9917 0.0027464 1.0393e-17)
(0.9802 0.037143 -1.4296e-18)
(0.99982 0.00011588 5.9228e-18)
(0.99987 -0.00024088 6.7317e-18)
(1 -0.00048561 -7.3622e-18)
(1.0002 -0.00069246 -6.594e-18)
(1.0005 -0.00073862 -1.7612e-17)
(1.0009 -0.00054553 -6.849e-18)
(0.99913 -0.00021828 9.0953e-18)
(1.0086 0.0019405 -3.5415e-17)
(0.9776 -0.0015991 9.4646e-18)
(1.0259 0.017543 -3.9494e-18)
(0.99401 0.0031162 -1.1005e-17)
(0.98177 0.036524 4.1529e-18)
(0.9998 0.0001195 -2.614e-18)
(0.99986 -0.0002494 -1.1827e-17)
(1 -0.00050064 -7.1354e-18)
(1.0002 -0.00071526 -1.2513e-17)
(1.0005 -0.00076345 -5.3776e-18)
(1.0009 -0.00056405 2.0138e-17)
(0.99904 -0.00025398 -8.935e-18)
(1.009 0.002075 3.9395e-17)
(0.97779 -0.0019083 8.9248e-18)
(1.0242 0.017875 1.1984e-17)
(0.99607 0.003484 4.6385e-18)
(0.98333 0.035945 -6.7354e-18)
(0.99979 0.00012316 -1.3866e-18)
(0.99985 -0.00025807 8.7959e-18)
(1 -0.00051579 1.4138e-17)
(1.0002 -0.00073837 3.3737e-17)
(1.0005 -0.00078863 7.1282e-18)
(1.001 -0.00058283 -1.3813e-17)
(0.99895 -0.00029249 4.3117e-18)
(1.0094 0.0022138 -4.2381e-17)
(0.97805 -0.0022179 -1.0825e-17)
(1.0226 0.018173 -6.6637e-18)
(0.99788 0.0038467 4.5503e-18)
(0.98486 0.035401 6.7741e-18)
(0.99978 0.00012684 1.0611e-18)
(0.99984 -0.00026688 2.0822e-18)
(1 -0.00053108 -1.3884e-17)
(1.0002 -0.00076181 -5.6196e-18)
(1.0005 -0.00081415 9.0511e-18)
(1.001 -0.00060188 1.6532e-17)
(0.99885 -0.0003338 1.4994e-17)
(1.0098 0.0023563 4.1956e-18)
(0.97838 -0.0025257 1.2111e-17)
(1.0211 0.018435 -3.0879e-18)
(0.99946 0.0042014 -8.1224e-18)
(0.98635 0.034887 -1.7467e-18)
(0.99977 0.00013056 -4.3456e-20)
(0.99983 -0.00027584 2.3731e-18)
(0.99999 -0.0005465 3.103e-18)
(1.0002 -0.00078559 -7.2953e-18)
(1.0005 -0.00084001 8.438e-20)
(1.0011 -0.00062122 -1.499e-17)
(0.99876 -0.0003779 -1.0142e-17)
(1.0101 0.0025018 3.1033e-17)
(0.97877 -0.0028294 -1.8303e-17)
(1.0195 0.018662 1.1991e-17)
(1.0008 0.0045456 4.2897e-18)
(0.98777 0.0344 -4.9359e-18)
(0.99976 0.00013431 -3.2868e-18)
(0.99981 -0.00028496 -1.113e-17)
(0.99999 -0.00056205 7.9224e-18)
(1.0002 -0.00080972 -1.9924e-17)
(1.0005 -0.00086624 -2.289e-17)
(1.0011 -0.00064088 -2.0706e-17)
(0.99866 -0.00042474 -2.0671e-17)
(1.0104 0.0026497 -3.1782e-18)
(0.97922 -0.0031271 1.5996e-17)
(1.018 0.018854 -1.0286e-17)
(1.002 0.0048771 4.2641e-19)
(0.98912 0.033934 4.6498e-18)
(0.99974 0.0001381 6.3439e-18)
(0.9998 -0.00029423 1.1631e-17)
(0.99998 -0.00057774 -1.2777e-17)
(1.0002 -0.00083421 1.6358e-17)
(1.0005 -0.00089282 -2.6845e-18)
(1.0012 -0.00066089 1.3572e-17)
(0.99857 -0.00047425 2.4847e-17)
(1.0107 0.0027992 -2.4072e-17)
(0.97971 -0.0034168 -8.1108e-18)
(1.0166 0.019011 1.0862e-17)
(1.0031 0.0051939 3.7069e-18)
(0.99041 0.033488 -2.2001e-18)
(0.99973 0.00014191 -4.7602e-18)
(0.99979 -0.00030367 -3.4375e-18)
(0.99998 -0.00059357 -2.6715e-18)
(1.0002 -0.00085907 1.8717e-17)
(1.0005 -0.00091976 -5.7468e-18)
(1.0013 -0.00068126 -1.7198e-19)
(0.99847 -0.00052636 -4.862e-18)
(1.011 0.0029495 1.9281e-17)
(0.98025 -0.0036968 -7.7009e-18)
(1.0153 0.019136 -7.4589e-18)
(1.0039 0.0054945 -1.0958e-17)
(0.99162 0.033056 2.558e-18)
(0.99972 0.00014577 3.2358e-18)
(0.99978 -0.00031328 -4.3587e-18)
(0.99997 -0.00060955 6.1157e-18)
(1.0002 -0.00088433 -2.8399e-17)
(1.0005 -0.00094706 3.8932e-17)
(1.0013 -0.00070205 5.6229e-18)
(0.99837 -0.00058094 1.9184e-17)
(1.0113 0.0031 -1.1931e-17)
(0.98082 -0.0039657 1.0198e-19)
(1.0141 0.019227 5.5472e-18)
(1.0047 0.0057776 -2.1315e-18)
(0.99276 0.032638 -9.6237e-19)
(0.9997 0.00014966 -9.2567e-19)
(0.99977 -0.00032307 8.52e-19)
(0.99996 -0.00062566 1.4901e-17)
(1.0002 -0.00090999 7.7421e-18)
(1.0005 -0.00097473 -1.9464e-17)
(1.0014 -0.00072329 -1.1014e-17)
(0.99827 -0.0006379 3.35e-18)
(1.0115 0.0032498 -5.7999e-18)
(0.98142 -0.0042222 1.2885e-17)
(1.0129 0.019288 -3.6414e-18)
(1.0053 0.0060423 1.0259e-17)
(0.99382 0.032229 -3.5139e-18)
(0.99969 0.00015359 -1.6112e-18)
(0.99976 -0.00033303 -8.213e-18)
(0.99995 -0.00064193 -4.4305e-18)
(1.0002 -0.00093607 3.109e-17)
(1.0005 -0.0010028 -1.7341e-17)
(1.0015 -0.00074502 -9.3284e-19)
(0.99818 -0.00069709 -5.0095e-17)
(1.0117 0.0033982 5.7014e-18)
(0.98204 -0.0044652 -2.4094e-17)
(1.0119 0.019318 -7.864e-18)
(1.0059 0.006288 -1.0259e-17)
(0.99482 0.031829 2.0866e-18)
(0.99967 0.00015755 -6.9561e-19)
(0.99974 -0.00034318 5.0883e-18)
(0.99995 -0.00065835 -1.8289e-18)
(1.0002 -0.00096258 -1.8102e-17)
(1.0006 -0.0010312 2.492e-17)
(1.0015 -0.0007673 -2.2931e-18)
(0.99808 -0.00075838 2.6535e-17)
(1.012 0.0035446 -3.5045e-18)
(0.98268 -0.0046939 1.1698e-17)
(1.0109 0.01932 9.8357e-18)
(1.0064 0.0065141 8.4623e-18)
(0.99576 0.031436 -5.0484e-19)
(0.99966 0.00016156 3.9431e-18)
(0.99973 -0.00035352 -3.0444e-18)
(0.99994 -0.00067492 -6.3985e-18)
(1.0002 -0.00098955 1.9757e-17)
(1.0006 -0.0010599 1.8289e-18)
(1.0016 -0.00079017 2.8429e-17)
(0.99799 -0.0008216 4.5776e-18)
(1.0122 0.0036881 1.6745e-17)
(0.98333 -0.0049077 4.3887e-18)
(1.01 0.019296 -3.1824e-18)
(1.0068 0.0067205 1.1011e-18)
(0.99663 0.031048 4.5687e-19)
(0.99964 0.00016561 1.1244e-18)
(0.99971 -0.00036406 1.2447e-18)
(0.99993 -0.00069165 -5.8021e-18)
(1.0002 -0.001017 -3.9346e-17)
(1.0006 -0.0010891 5.5386e-18)
(1.0017 -0.0008137 2.4656e-18)
(0.99789 -0.00088662 -1.9849e-17)
(1.0123 0.0038283 2.3552e-19)
(0.98399 -0.0051063 1.2931e-17)
(1.0092 0.019246 -2.046e-18)
(1.0071 0.0069072 -5.36e-18)
(0.99746 0.030664 2.6941e-18)
(0.99962 0.0001697 -4.8147e-18)
(0.9997 -0.00037479 5.2759e-18)
(0.99992 -0.00070853 9.5638e-19)
(1.0002 -0.0010449 2.1849e-17)
(1.0006 -0.0011186 -2.5265e-17)
(1.0017 -0.00083795 -1.089e-17)
(0.9978 -0.00095327 2.0302e-17)
(1.0125 0.0039644 -1.1341e-17)
(0.98465 -0.0052895 -2.0441e-17)
(1.0085 0.019172 -1.011e-17)
(1.0075 0.0070745 6.8266e-18)
(0.99823 0.030283 8.9851e-19)
(0.99961 0.00017384 -5.095e-19)
(0.99968 -0.00038574 -5.3091e-18)
(0.99991 -0.00072557 1.0187e-17)
(1.0002 -0.0010733 9.6879e-18)
(1.0006 -0.0011484 3.1206e-17)
(1.0018 -0.00086297 4.1837e-18)
(0.9977 -0.0010214 1.8033e-17)
(1.0127 0.004096 2.8753e-17)
(0.98531 -0.0054573 -9.0247e-19)
(1.0079 0.019077 1.7784e-17)
(1.0077 0.0072226 -7.2233e-19)
(0.99896 0.029904 -2.6217e-18)
(0.99959 0.00017802 4.9382e-18)
(0.99967 -0.00039689 -7.7297e-18)
(0.9999 -0.00074278 -1.5462e-17)
(1.0002 -0.0011022 -2.5748e-18)
(1.0006 -0.0011786 -3.3869e-17)
(1.0019 -0.00088884 -1.2448e-17)
(0.99761 -0.0010908 -6.2589e-18)
(1.0128 0.0042226 2.1486e-19)
(0.98597 -0.0056099 2.66e-17)
(1.0073 0.018962 4.0981e-18)
(1.008 0.0073523 -9.3687e-18)
(0.99965 0.029527 1.5727e-18)
(0.99957 0.00018225 -5.5363e-18)
(0.99965 -0.00040827 9.6557e-18)
(0.99989 -0.00076015 8.0937e-18)
(1.0002 -0.0011317 -5.1309e-18)
(1.0006 -0.0012091 2.7238e-17)
(1.002 -0.00091561 1.4892e-17)
(0.99752 -0.0011615 -4.9477e-18)
(1.0129 0.0043438 -2.8975e-17)
(0.98661 -0.0057478 -9.046e-19)
(1.0068 0.018828 -1.1711e-17)
(1.0083 0.0074639 1.1091e-17)
(1.0003 0.029151 -2.06e-18)
(0.99955 0.00018652 3.3267e-18)
(0.99964 -0.00041987 -1.8477e-18)
(0.99988 -0.00077769 1.0717e-17)
(1.0002 -0.0011617 -2.1588e-17)
(1.0006 -0.00124 8.8943e-18)
(1.0021 -0.00094335 -5.3499e-18)
(0.99743 -0.0012332 -1.0661e-17)
(1.013 0.0044591 -2.3258e-18)
(0.98725 -0.0058715 -3.2098e-17)
(1.0064 0.018677 7.7263e-18)
(1.0085 0.0075584 -1.0156e-17)
(1.0009 0.028777 6.8732e-19)
(0.99953 0.00019085 2.6305e-19)
(0.99962 -0.0004317 -5.8126e-18)
(0.99987 -0.00079541 6.0862e-18)
(1.0002 -0.0011923 2.8413e-17)
(1.0006 -0.0012712 -2.1184e-17)
(1.0022 -0.00097214 1.721e-17)
(0.99735 -0.0013058 -6.1647e-18)
(1.0131 0.0045684 5.3858e-18)
(0.98789 -0.0059816 3.8133e-17)
(1.0061 0.018512 -1.4343e-17)
(1.0087 0.0076364 1.5523e-17)
(1.0015 0.028403 1.9447e-18)
(0.99951 0.00019522 4.7213e-19)
(0.9996 -0.00044376 -1.2031e-18)
(0.99986 -0.00081329 -8.7556e-18)
(1.0002 -0.0012235 -4.2773e-18)
(1.0006 -0.0013028 1.8463e-17)
(1.0022 -0.001002 1.3701e-19)
(0.99726 -0.0013793 -1.2118e-17)
(1.0132 0.0046714 -1.2857e-17)
(0.9885 -0.0060788 -1.5962e-17)
(1.0058 0.018332 -1.3541e-18)
(1.0089 0.0076988 2.8424e-18)
(1.0021 0.02803 2.0388e-19)
(0.99949 0.00019964 -7.5971e-19)
(0.99959 -0.00045607 1.4316e-17)
(0.99984 -0.00083136 -5.84e-18)
(1.0002 -0.0012553 -2.4173e-17)
(1.0006 -0.0013346 8.5121e-18)
(1.0023 -0.0010331 -4.3847e-17)
(0.99718 -0.0014536 6.0445e-18)
(1.0133 0.0047678 8.0959e-18)
(0.98911 -0.006164 7.4149e-19)
(1.0056 0.018141 1.4567e-17)
(1.0092 0.0077465 -9.4931e-19)
(1.0026 0.027658 -5.4344e-18)
(0.99947 0.00020412 -2.0057e-19)
(0.99957 -0.00046863 -2.809e-19)
(0.99983 -0.0008496 7.8618e-18)
(1.0002 -0.0012877 1.4924e-17)
(1.0006 -0.0013668 -3.3821e-17)
(1.0024 -0.0010653 1.894e-18)
(0.9971 -0.0015285 1.0827e-17)
(1.0134 0.0048576 1.268e-17)
(0.9897 -0.0062381 -1.0094e-17)
(1.0054 0.017938 -1.4183e-17)
(1.0094 0.0077802 -1.5398e-17)
(1.0032 0.027286 5.7391e-18)
(0.99945 0.00020864 -1.3125e-18)
(0.99955 -0.00048144 4.0012e-19)
(0.99982 -0.00086803 -3.7906e-18)
(1.0002 -0.0013208 -9.9646e-18)
(1.0006 -0.0013993 1.8749e-17)
(1.0025 -0.0010988 2.3535e-17)
(0.99702 -0.0016041 3.1576e-18)
(1.0135 0.0049406 6.4253e-18)
(0.99028 -0.006302 1.6098e-17)
(1.0053 0.017726 2.3871e-18)
(1.0096 0.007801 1.1385e-17)
(1.0037 0.026916 -3.4836e-18)
(0.99943 0.00021322 2.4158e-18)
(0.99953 -0.00049451 7.3767e-19)
(0.9998 -0.00088665 -5.4173e-18)
(1.0002 -0.0013546 1.4721e-18)
(1.0006 -0.0014321 -1.0165e-17)
(1.0026 -0.0011337 -5.6454e-18)
(0.99694 -0.0016804 -1.1671e-18)
(1.0135 0.0050168 -2.9014e-17)
(0.99085 -0.0063565 3.1596e-18)
(1.0052 0.017505 -4.84e-18)
(1.0098 0.0078097 -4.6304e-18)
(1.0042 0.026546 -4.1994e-18)
(0.99941 0.00021786 -4.9303e-18)
(0.99951 -0.00050785 9.6377e-19)
(0.99979 -0.00090545 2.8735e-18)
(1.0002 -0.0013891 -1.8498e-17)
(1.0006 -0.0014652 -1.1589e-17)
(1.0027 -0.0011699 -2.6209e-17)
(0.99687 -0.0017573 5.6324e-18)
(1.0136 0.0050862 1.1847e-17)
(0.9914 -0.0064027 -3.3884e-17)
(1.0051 0.017277 2.2318e-17)
(1.0101 0.007807 -5.0075e-18)
(1.0047 0.026178 2.7081e-18)
(0.99939 0.00022254 4.5258e-18)
(0.99949 -0.00052146 2.1567e-18)
(0.99978 -0.00092445 1.105e-18)
(1.0002 -0.0014243 5.8666e-18)
(1.0005 -0.0014985 -2.5599e-18)
(1.0028 -0.0012074 5.0799e-17)
(0.99679 -0.0018349 2.0222e-17)
(1.0136 0.0051488 -1.8427e-17)
(0.99194 -0.0064415 3.2611e-17)
(1.0051 0.017042 -8.3266e-18)
(1.0103 0.0077938 -3.3025e-18)
(1.0052 0.02581 -1.3511e-18)
(0.99936 0.00022728 1.1102e-18)
(0.99947 -0.00053535 -1.3657e-17)
(0.99976 -0.00094365 2.2118e-18)
(1.0002 -0.0014602 2.6347e-17)
(1.0005 -0.0015322 1.981e-17)
(1.0029 -0.0012464 -8.1984e-19)
(0.99672 -0.0019132 -2.8016e-17)
(1.0137 0.0052045 5.5796e-18)
(0.99247 -0.0064738 -7.3542e-18)
(1.0051 0.016802 -1.1524e-17)
(1.0105 0.0077708 8.4015e-18)
(1.0056 0.025444 1.2595e-18)
(0.99934 0.00023208 -4.3909e-18)
(0.99945 -0.00054953 -4.553e-18)
(0.99974 -0.00096304 -1.1981e-17)
(1.0002 -0.0014969 -2.2097e-17)
(1.0005 -0.0015662 -1.9933e-17)
(1.003 -0.0012867 -2.3085e-17)
(0.99666 -0.0019923 5.1735e-18)
(1.0137 0.0052535 4.3378e-17)
(0.99298 -0.0065004 3.205e-18)
(1.0051 0.016557 -1.0065e-18)
(1.0108 0.0077388 -2.9663e-18)
(1.0061 0.02508 -3.3849e-18)
(0.99931 0.00023693 3.2583e-18)
(0.99943 -0.00056399 4.2293e-18)
(0.99973 -0.00098264 1.8464e-17)
(1.0002 -0.0015344 1.5304e-17)
(1.0005 -0.0016005 1.9393e-17)
(1.0032 -0.0013285 -8.5801e-19)
(0.99659 -0.0020723 -2.8826e-17)
(1.0137 0.0052958 -2.3447e-17)
(0.99349 -0.0065221 7.9536e-18)
(1.0052 0.016308 3.9891e-18)
(1.011 0.0076983 6.6886e-18)
(1.0065 0.024717 2.6158e-18)
(0.99929 0.00024183 -2.3011e-18)
(0.9994 -0.00057876 6.6349e-18)
(0.99971 -0.0010025 -1.2216e-17)
(1.0002 -0.0015727 2.2152e-18)
(1.0005 -0.0016351 9.0168e-18)
(1.0033 -0.0013716 -2.2568e-18)
(0.99653 -0.0021533 6.4719e-18)
(1.0137 0.0053314 6.5108e-18)
(0.99398 -0.0065398 2.6174e-18)
(1.0052 0.016056 9.8612e-18)
(1.0113 0.0076501 -8.0442e-18)
(1.0069 0.024355 5.2839e-19)
(0.99926 0.00024679 3.4743e-18)
(0.99938 -0.00059383 4.1121e-19)
(0.99969 -0.0010225 -5.7186e-18)
(1.0002 -0.0016119 8.8176e-19)
(1.0005 -0.0016701 -1.4815e-18)
(1.0034 -0.0014162 -2.2294e-17)
(0.99648 -0.0022353 1.8071e-17)
(1.0138 0.0053603 2.3108e-17)
(0.99446 -0.0065542 -1.3032e-17)
(1.0053 0.0158 -1.3722e-17)
(1.0115 0.0075947 -2.3517e-18)
(1.0074 0.023996 4.4996e-18)
(0.99924 0.0002518 -2.5238e-18)
(0.99936 -0.00060921 -3.167e-19)
(0.99967 -0.0010427 7.11e-18)
(1.0002 -0.0016519 -1.6936e-17)
(1.0005 -0.0017054 -1.3395e-17)
(1.0035 -0.0014621 2.8146e-17)
(0.99642 -0.0023187 -2.7635e-18)
(1.0138 0.0053827 -2.4467e-17)
(0.99494 -0.0065659 3.3199e-18)
(1.0054 0.015543 1.292e-17)
(1.0118 0.0075325 7.9713e-18)
(1.0078 0.023638 -1.6225e-18)
(0.99921 0.00025687 2.508e-19)
(0.99933 -0.00062492 2.3198e-18)
(0.99965 -0.0010632 3.8849e-18)
(1.0002 -0.0016928 8.7552e-18)
(1.0004 -0.0017411 2.6255e-17)
(1.0036 -0.0015093 6.5626e-18)
(0.99638 -0.0024033 -2.4063e-17)
(1.0138 0.0053985 2.2929e-18)
(0.9954 -0.0065756 8.5515e-18)
(1.0055 0.015283 -1.164e-17)
(1.012 0.0074642 -5.3899e-18)
(1.0082 0.023282 -1.8772e-18)
(0.99918 0.000262 7.1213e-19)
(0.99931 -0.00064094 -4.0348e-19)
(0.99963 -0.0010839 -1.0251e-17)
(1.0002 -0.0017346 -1.8829e-19)
(1.0004 -0.0017772 -5.1909e-17)
(1.0037 -0.0015577 8.0918e-18)
(0.99633 -0.0024896 2.3638e-17)
(1.0138 0.0054078 -6.5877e-18)
(0.99586 -0.0065837 -8.9552e-18)
(1.0056 0.015021 1.933e-17)
(1.0123 0.00739 6.4498e-18)
(1.0086 0.022928 4.8656e-18)
(0.99915 0.00026717 7.6499e-19)
(0.99928 -0.0006573 -8.3734e-19)
(0.99961 -0.0011048 1.8539e-17)
(1.0002 -0.0017773 4.0384e-18)
(1.0004 -0.0018138 4.6001e-17)
(1.0039 -0.0016074 -2.8518e-17)
(0.99629 -0.0025774 -7.9158e-18)
(1.0138 0.0054106 6.2004e-18)
(0.99631 -0.0065909 3.0854e-18)
(1.0057 0.014759 -1.0876e-17)
(1.0125 0.0073105 -1.0439e-18)
(1.009 0.022576 -3.5879e-18)
(0.99912 0.00027241 -2.9896e-18)
(0.99926 -0.000674 1.4059e-18)
(0.99959 -0.001126 -1.0897e-17)
(1.0002 -0.001821 5.3103e-18)
(1.0004 -0.0018508 -1.7479e-17)
(1.004 -0.0016582 3.8674e-18)
(0.99626 -0.0026672 3.1695e-17)
(1.0138 0.0054069 -2.3207e-17)
(0.99675 -0.0065975 -1.1341e-17)
(1.0059 0.014495 -1.0759e-17)
(1.0128 0.0072258 -5.1292e-18)
(1.0094 0.022226 -9.8531e-19)
(0.99909 0.00027769 3.724e-18)
(0.99923 -0.00069104 -3.339e-18)
(0.99957 -0.0011474 -1.0575e-17)
(1.0002 -0.0018656 -8.4678e-18)
(1.0003 -0.0018884 -2.8578e-17)
(1.0041 -0.00171 -1.7938e-17)
(0.99623 -0.0027589 -1.9434e-17)
(1.0138 0.0053966 2.1578e-17)
(0.99718 -0.006604 1.0994e-17)
(1.006 0.014231 1.6294e-17)
(1.013 0.0071364 -2.0082e-18)
(1.0097 0.021878 4.7564e-18)
(0.99906 0.00028302 -5.9853e-18)
(0.9992 -0.00070843 5.4103e-18)
(0.99954 -0.001169 2.5893e-17)
(1.0002 -0.0019113 -1.9973e-18)
(1.0003 -0.0019266 3.1618e-17)
(1.0042 -0.0017629 1.3522e-18)
(0.9962 -0.0028527 -1.8613e-17)
(1.0138 0.0053799 8.4455e-18)
(0.99761 -0.0066106 -3.9649e-18)
(1.0062 0.013966 -3.4118e-18)
(1.0133 0.0070426 6.5152e-18)
(1.0101 0.021532 -3.2165e-18)
(0.99903 0.00028841 4.9049e-18)
(0.99917 -0.00072618 -7.3528e-18)
(0.99952 -0.001191 -3.0189e-17)
(1.0002 -0.0019579 1.3067e-17)
(1.0003 -0.0019654 -2.2527e-17)
(1.0043 -0.0018166 2.4797e-17)
(0.99619 -0.0029488 6.0669e-18)
(1.0138 0.0053566 -8.0397e-18)
(0.99803 -0.0066178 -1.9029e-18)
(1.0063 0.013701 -8.5449e-18)
(1.0135 0.0069445 -1.0623e-17)
(1.0105 0.021188 4.4465e-18)
(0.999 0.00029385 -3.613e-18)
(0.99914 -0.00074429 2.445e-18)
(0.99949 -0.0012131 1.8344e-17)
(1.0002 -0.0020055 -1.7225e-17)
(1.0002 -0.002005 3.6246e-17)
(1.0045 -0.0018713 -1.9247e-17)
(0.99617 -0.0030474 3.5367e-18)
(1.0137 0.0053268 -1.2707e-17)
(0.99844 -0.0066258 6.2111e-18)
(1.0064 0.013436 -1.1955e-18)
(1.0137 0.0068423 4.5467e-18)
(1.0108 0.020846 -1.9771e-18)
(0.99896 0.00029933 4.4313e-18)
(0.99911 -0.00076278 1.9035e-18)
(0.99947 -0.0012356 -1.223e-17)
(1.0002 -0.0020541 -3.5038e-19)
(1.0002 -0.0020453 -1.6001e-18)
(1.0046 -0.0019266 4.6546e-18)
(0.99617 -0.0031485 3.3584e-17)
(1.0137 0.0052905 8.6921e-18)
(0.99885 -0.0066347 -1.841e-17)
(1.0066 0.013171 -6.1972e-18)
(1.014 0.0067364 -4.2776e-18)
(1.0112 0.020506 2.078e-18)
(0.99893 0.00030486 -5.0792e-18)
(0.99908 -0.00078164 -7.0541e-18)
(0.99944 -0.0012584 5.1309e-18)
(1.0002 -0.0021038 1.4904e-17)
(1.0002 -0.0020866 -3.288e-17)
(1.0047 -0.0019827 1.564e-17)
(0.99617 -0.0032524 -3.2335e-17)