/*--------------------------------*- C++ -*----------------------------------*\
  =========                 |
  \\      /  F ield         | OpenFOAM: The Open Source CFD Toolbox
   \\    /   O peration     | Website:  https://openfoam.org
    \\  /    A nd           | Version:  6.0
     \\/     M anipulation  |
\*---------------------------------------------------------------------------*/
FoamFile
{
    version     2.0;
    format      ascii;
    class       volScalarField;
    location    "1.96";
    object      p;
}
// * * * * * * * * * * * * * * * * * * * * * * * * * * * * * * * * * * * * * //

dimensions      [0 2 -2 0 0 0 0];

internalField   nonuniform List<scalar> 
13500
(
0.09876
0.098786
0.098313
0.097825
0.097013
0.0964
0.095909
0.09629
0.097877
0.10201
0.12339
0.16718
0.09876
0.098787
0.098313
0.097825
0.097013
0.0964
0.095909
0.09629
0.097874
0.10207
0.12271
0.16212
0.09876
0.098787
0.098313
0.097826
0.097013
0.0964
0.095907
0.096288
0.097865
0.10212
0.12183
0.15764
0.098761
0.098788
0.098314
0.097827
0.097013
0.0964
0.095905
0.096285
0.09785
0.10214
0.12085
0.15415
0.098762
0.09879
0.098315
0.097828
0.097013
0.096399
0.095902
0.09628
0.09783
0.10215
0.11981
0.15121
0.098764
0.098791
0.098317
0.097829
0.097013
0.096398
0.095899
0.096274
0.097805
0.10215
0.11873
0.14859
0.098765
0.098793
0.098318
0.09783
0.097013
0.096397
0.095895
0.096267
0.097775
0.10213
0.11765
0.14623
0.098768
0.098795
0.09832
0.097832
0.097014
0.096396
0.09589
0.096258
0.097741
0.1021
0.11657
0.14406
0.09877
0.098798
0.098322
0.097833
0.097014
0.096395
0.095885
0.096248
0.097701
0.10205
0.11551
0.14205
0.098773
0.098801
0.098325
0.097835
0.097015
0.096393
0.095879
0.096237
0.097657
0.102
0.11449
0.14018
0.098776
0.098804
0.098328
0.097837
0.097015
0.096391
0.095872
0.096224
0.097607
0.10193
0.1135
0.13843
0.09878
0.098808
0.098331
0.097839
0.097016
0.096389
0.095865
0.09621
0.097553
0.10184
0.11256
0.13677
0.098784
0.098811
0.098334
0.097842
0.097016
0.096387
0.095858
0.096195
0.097493
0.10175
0.11165
0.1352
0.098788
0.098816
0.098338
0.097845
0.097017
0.096384
0.095849
0.096178
0.097428
0.10165
0.11079
0.13371
0.098793
0.09882
0.098342
0.097847
0.097018
0.096382
0.095841
0.09616
0.097359
0.10154
0.10996
0.13229
0.098798
0.098825
0.098346
0.097851
0.097019
0.096379
0.095831
0.09614
0.097284
0.10143
0.10917
0.13093
0.098804
0.098831
0.098351
0.097854
0.097019
0.096376
0.095821
0.096119
0.097204
0.10131
0.1084
0.12963
0.09881
0.098836
0.098355
0.097857
0.09702
0.096372
0.095811
0.096096
0.09712
0.10119
0.10767
0.12838
0.098816
0.098842
0.098361
0.097861
0.097021
0.096369
0.095799
0.096072
0.097031
0.10107
0.10697
0.12717
0.098823
0.098849
0.098366
0.097865
0.097023
0.096365
0.095788
0.096047
0.096938
0.10094
0.10628
0.12601
0.09883
0.098856
0.098372
0.097869
0.097024
0.096361
0.095775
0.096019
0.09684
0.10082
0.10562
0.12489
0.098838
0.098863
0.098378
0.097874
0.097025
0.096357
0.095762
0.095991
0.096739
0.10069
0.10498
0.1238
0.098846
0.09887
0.098385
0.097878
0.097026
0.096353
0.095749
0.095961
0.096634
0.10057
0.10434
0.12274
0.098854
0.098878
0.098392
0.097883
0.097028
0.096348
0.095735
0.095929
0.096526
0.10044
0.10373
0.12172
0.098863
0.098887
0.098399
0.097888
0.097029
0.096343
0.09572
0.095896
0.096414
0.10032
0.10312
0.12072
0.098872
0.098895
0.098406
0.097893
0.097031
0.096338
0.095705
0.095862
0.0963
0.1002
0.10253
0.11974
0.098882
0.098904
0.098414
0.097899
0.097033
0.096333
0.09569
0.095826
0.096184
0.10008
0.10194
0.1188
0.098892
0.098914
0.098423
0.097905
0.097035
0.096328
0.095673
0.095789
0.096066
0.099959
0.10136
0.11787
0.098903
0.098924
0.098431
0.097911
0.097036
0.096322
0.095657
0.095751
0.095945
0.09984
0.10079
0.11696
0.098914
0.098934
0.09844
0.097917
0.097038
0.096316
0.095639
0.095711
0.095823
0.099722
0.10023
0.11608
0.098925
0.098945
0.098449
0.097924
0.09704
0.09631
0.095621
0.09567
0.0957
0.099604
0.099669
0.11521
0.098937
0.098956
0.098459
0.097931
0.097043
0.096304
0.095603
0.095628
0.095575
0.099486
0.099119
0.11436
0.09895
0.098968
0.098469
0.097938
0.097045
0.096297
0.095584
0.095586
0.09545
0.099368
0.098575
0.11353
0.098963
0.09898
0.09848
0.097945
0.097047
0.096291
0.095564
0.095542
0.095323
0.09925
0.098037
0.11272
0.098976
0.098992
0.098491
0.097953
0.09705
0.096284
0.095544
0.095497
0.095196
0.099131
0.097506
0.11192
0.09899
0.099005
0.098502
0.097961
0.097053
0.096277
0.095524
0.095451
0.095067
0.099011
0.096982
0.11114
0.099004
0.099019
0.098513
0.097969
0.097055
0.09627
0.095502
0.095405
0.094939
0.098889
0.096464
0.11038
0.099019
0.099033
0.098525
0.097977
0.097058
0.096263
0.095481
0.095358
0.094809
0.098767
0.095952
0.10962
0.099034
0.099047
0.098538
0.097986
0.097061
0.096256
0.095458
0.095311
0.094679
0.098643
0.095447
0.10889
0.09905
0.099062
0.09855
0.097995
0.097064
0.096248
0.095435
0.095262
0.094548
0.098517
0.09495
0.10816
0.099066
0.099077
0.098564
0.098005
0.097067
0.096241
0.095412
0.095214
0.094417
0.098389
0.094459
0.10745
0.099083
0.099093
0.098577
0.098014
0.097071
0.096233
0.095388
0.095165
0.094285
0.09826
0.093975
0.10676
0.0991
0.099109
0.098591
0.098024
0.097074
0.096225
0.095363
0.095115
0.094153
0.098129
0.093498
0.10607
0.099118
0.099125
0.098606
0.098035
0.097078
0.096217
0.095338
0.095065
0.09402
0.097995
0.093029
0.1054
0.099136
0.099143
0.09862
0.098045
0.097082
0.096209
0.095312
0.095015
0.093886
0.09786
0.092567
0.10474
0.099155
0.09916
0.098636
0.098056
0.097086
0.096201
0.095286
0.094965
0.093751
0.097723
0.092112
0.1041
0.099174
0.099178
0.098651
0.098068
0.09709
0.096193
0.095259
0.094914
0.093616
0.097584
0.091664
0.10346
0.099194
0.099197
0.098668
0.098079
0.097094
0.096184
0.095232
0.094863
0.093481
0.097443
0.091224
0.10284
0.099214
0.099216
0.098684
0.098091
0.097098
0.096176
0.095204
0.094812
0.093344
0.0973
0.090791
0.10222
0.099235
0.099236
0.098701
0.098103
0.097103
0.096168
0.095175
0.094761
0.093207
0.097154
0.090365
0.10162
0.099256
0.099256
0.098719
0.098116
0.097107
0.096159
0.095146
0.09471
0.093069
0.097007
0.089947
0.10102
0.099278
0.099277
0.098737
0.098129
0.097112
0.096151
0.095116
0.094658
0.092931
0.096858
0.089535
0.10044
0.099301
0.099298
0.098755
0.098142
0.097117
0.096142
0.095086
0.094607
0.092792
0.096708
0.089131
0.099866
0.099324
0.09932
0.098774
0.098156
0.097122
0.096134
0.095055
0.094555
0.092652
0.096555
0.088734
0.099301
0.099348
0.099343
0.098793
0.09817
0.097128
0.096126
0.095024
0.094503
0.092511
0.096401
0.088343
0.098746
0.099372
0.099365
0.098813
0.098185
0.097133
0.096117
0.094992
0.094451
0.09237
0.096244
0.08796
0.098199
0.099397
0.099389
0.098833
0.0982
0.097139
0.096109
0.09496
0.094399
0.092229
0.096087
0.087583
0.09766
0.099422
0.099413
0.098854
0.098215
0.097145
0.0961
0.094927
0.094347
0.092086
0.095927
0.087213
0.09713
0.099449
0.099438
0.098875
0.098231
0.097151
0.096092
0.094893
0.094294
0.091943
0.095767
0.08685
0.096608
0.099475
0.099463
0.098897
0.098247
0.097157
0.096083
0.094859
0.094242
0.0918
0.095604
0.086493
0.096094
0.099502
0.099489
0.09892
0.098263
0.097163
0.096075
0.094825
0.094189
0.091656
0.09544
0.086142
0.095588
0.09953
0.099515
0.098942
0.09828
0.09717
0.096067
0.09479
0.094137
0.091512
0.095275
0.085797
0.095089
0.099559
0.099542
0.098966
0.098297
0.097177
0.096058
0.094755
0.094084
0.091368
0.095108
0.085459
0.094597
0.099588
0.09957
0.09899
0.098315
0.097184
0.09605
0.094719
0.094031
0.091223
0.09494
0.085126
0.094112
0.099618
0.099598
0.099014
0.098333
0.097191
0.096042
0.094683
0.093978
0.091078
0.094771
0.0848
0.093634
0.099648
0.099627
0.099039
0.098352
0.097199
0.096034
0.094646
0.093925
0.090932
0.094601
0.084479
0.093163
0.099679
0.099656
0.099064
0.098371
0.097207
0.096026
0.094609
0.093872
0.090787
0.094429
0.084164
0.092699
0.099711
0.099686
0.09909
0.09839
0.097215
0.096018
0.094571
0.093819
0.090641
0.094257
0.083854
0.09224
0.099743
0.099717
0.099117
0.09841
0.097223
0.096011
0.094533
0.093765
0.090495
0.094083
0.08355
0.091788
0.099776
0.099749
0.099144
0.098431
0.097232
0.096003
0.094495
0.093712
0.09035
0.093908
0.083251
0.091342
0.09981
0.099781
0.099172
0.098451
0.097241
0.095995
0.094456
0.093658
0.090204
0.093732
0.082958
0.090902
0.099845
0.099813
0.0992
0.098473
0.09725
0.095988
0.094417
0.093605
0.090058
0.093555
0.082669
0.090468
0.09988
0.099847
0.099229
0.098494
0.097259
0.095981
0.094377
0.093551
0.089912
0.093378
0.082385
0.090039
0.099915
0.099881
0.099259
0.098517
0.097269
0.095974
0.094337
0.093497
0.089766
0.093199
0.082106
0.089616
0.099952
0.099916
0.099289
0.098539
0.097279
0.095967
0.094297
0.093443
0.089621
0.09302
0.081832
0.089198
0.099989
0.099951
0.09932
0.098563
0.097289
0.09596
0.094256
0.093388
0.089475
0.092839
0.081563
0.088785
0.10003
0.099987
0.099351
0.098586
0.0973
0.095954
0.094215
0.093334
0.08933
0.092658
0.081298
0.088378
0.10007
0.10002
0.099383
0.098611
0.097311
0.095947
0.094174
0.093279
0.089186
0.092477
0.081038
0.087975
0.10011
0.10006
0.099416
0.098635
0.097322
0.095941
0.094133
0.093225
0.089041
0.092294
0.080781
0.087578
0.10015
0.1001
0.099449
0.098661
0.097333
0.095935
0.094091
0.09317
0.088897
0.092111
0.080529
0.087185
0.10019
0.10014
0.099483
0.098687
0.097345
0.095929
0.094049
0.093115
0.088753
0.091927
0.080281
0.086797
0.10023
0.10018
0.099518
0.098713
0.097358
0.095924
0.094006
0.09306
0.088609
0.091743
0.080037
0.086413
0.10027
0.10022
0.099553
0.09874
0.09737
0.095918
0.093964
0.093005
0.088466
0.091558
0.079797
0.086034
0.10031
0.10026
0.09959
0.098767
0.097383
0.095913
0.093921
0.092949
0.088324
0.091372
0.079561
0.085659
0.10036
0.1003
0.099627
0.098795
0.097397
0.095909
0.093877
0.092894
0.088182
0.091186
0.079329
0.085288
0.1004
0.10035
0.099664
0.098824
0.097411
0.095904
0.093834
0.092838
0.08804
0.090999
0.0791
0.084921
0.10045
0.10039
0.099702
0.098853
0.097425
0.0959
0.093791
0.092782
0.087899
0.090812
0.078874
0.084558
0.1005
0.10044
0.099742
0.098883
0.097439
0.095896
0.093747
0.092726
0.087758
0.090625
0.078652
0.0842
0.10054
0.10048
0.099781
0.098914
0.097454
0.095893
0.093703
0.092669
0.087618
0.090437
0.078433
0.083845
0.10059
0.10053
0.099822
0.098945
0.09747
0.09589
0.093659
0.092613
0.087479
0.090248
0.078218
0.083493
0.10064
0.10058
0.099864
0.098976
0.097486
0.095887
0.093615
0.092556
0.08734
0.090059
0.078005
0.083146
0.10069
0.10062
0.099906
0.099009
0.097502
0.095885
0.09357
0.092499
0.087202
0.08987
0.077796
0.082801
0.10074
0.10067
0.099949
0.099042
0.097519
0.095883
0.093526
0.092442
0.087065
0.089681
0.077589
0.082461
0.1008
0.10072
0.099993
0.099076
0.097536
0.095881
0.093481
0.092385
0.086928
0.089491
0.077386
0.082123
0.10085
0.10077
0.10004
0.09911
0.097554
0.09588
0.093437
0.092327
0.086792
0.089301
0.077185
0.081789
0.1009
0.10083
0.10008
0.099145
0.097572
0.095879
0.093392
0.092269
0.086656
0.08911
0.076987
0.081458
0.10096
0.10088
0.10013
0.099181
0.097591
0.095879
0.093348
0.092211
0.086521
0.088919
0.076791
0.08113
0.10101
0.10093
0.10018
0.099218
0.09761
0.095879
0.093303
0.092153
0.086387
0.088728
0.076598
0.080805
0.10107
0.10099
0.10023
0.099255
0.09763
0.095879
0.093258
0.092095
0.086254
0.088537
0.076407
0.080483
0.10113
0.10104
0.10028
0.099294
0.09765
0.09588
0.093214
0.092036
0.086121
0.088345
0.076219
0.080164
0.10119
0.1011
0.10033
0.099333
0.097671
0.095882
0.093169
0.091977
0.085989
0.088153
0.076033
0.079847
0.10125
0.10116
0.10038
0.099373
0.097692
0.095884
0.093125
0.091918
0.085858
0.087961
0.075848
0.079533
0.10131
0.10122
0.10043
0.099414
0.097714
0.095887
0.093081
0.091858
0.085728
0.087769
0.075666
0.079222
0.10137
0.10128
0.10048
0.099455
0.097737
0.09589
0.093036
0.091798
0.085598
0.087577
0.075486
0.078912
0.10144
0.10134
0.10054
0.099498
0.09776
0.095894
0.092992
0.091739
0.08547
0.087384
0.075308
0.078606
0.1015
0.1014
0.10059
0.099541
0.097784
0.095899
0.092948
0.091678
0.085341
0.087191
0.075132
0.078301
0.10157
0.10147
0.10065
0.099586
0.097808
0.095904
0.092905
0.091618
0.085214
0.086998
0.074957
0.077999
0.10164
0.10153
0.10071
0.099632
0.097833
0.095909
0.092861
0.091557
0.085088
0.086805
0.074784
0.077699
0.1017
0.1016
0.10077
0.099678
0.097859
0.095916
0.092818
0.091496
0.084962
0.086612
0.074613
0.077401
0.10177
0.10167
0.10083
0.099726
0.097886
0.095923
0.092775
0.091435
0.084837
0.086418
0.074443
0.077104
0.10185
0.10173
0.10089
0.099775
0.097914
0.095931
0.092733
0.091374
0.084713
0.086224
0.074275
0.07681
0.10192
0.10181
0.10095
0.099825
0.097942
0.095939
0.092691
0.091312
0.08459
0.08603
0.074108
0.076517
0.10199
0.10188
0.10102
0.099876
0.097971
0.095949
0.092649
0.09125
0.084467
0.085836
0.073942
0.076226
0.10207
0.10195
0.10108
0.099928
0.098001
0.095959
0.092608
0.091188
0.084345
0.085642
0.073777
0.075937
0.10215
0.10203
0.10115
0.099982
0.098032
0.095969
0.092567
0.091126
0.084224
0.085448
0.073613
0.075649
0.10223
0.1021
0.10122
0.10004
0.098064
0.095981
0.092526
0.091063
0.084104
0.085254
0.073451
0.075362
0.10231
0.10218
0.10129
0.10009
0.098096
0.095994
0.092486
0.091001
0.083985
0.085059
0.073289
0.075077
0.10239
0.10226
0.10136
0.10015
0.09813
0.096007
0.092447
0.090938
0.083866
0.084864
0.073128
0.074793
0.10247
0.10234
0.10144
0.10021
0.098165
0.096022
0.092408
0.090875
0.083748
0.084669
0.072968
0.07451
0.10256
0.10242
0.10151
0.10027
0.098201
0.096037
0.09237
0.090812
0.083631
0.084474
0.072809
0.074228
0.10264
0.10251
0.10159
0.10033
0.098238
0.096053
0.092332
0.090748
0.083515
0.084279
0.07265
0.073947
0.10273
0.1026
0.10167
0.1004
0.098276
0.096071
0.092295
0.090685
0.0834
0.084084
0.072492
0.073667
0.10283
0.10268
0.10175
0.10046
0.098316
0.096089
0.092259
0.090621
0.083285
0.083888
0.072335
0.073387
0.10292
0.10278
0.10183
0.10053
0.098357
0.096109
0.092224
0.090558
0.083171
0.083692
0.072177
0.073109
0.10301
0.10287
0.10191
0.1006
0.098399
0.096129
0.092189
0.090494
0.083058
0.083496
0.07202
0.07283
0.10311
0.10296
0.102
0.10067
0.098443
0.096151
0.092156
0.090431
0.082946
0.0833
0.071864
0.072553
0.10321
0.10306
0.10209
0.10074
0.098488
0.096175
0.092123
0.090367
0.082834
0.083104
0.071707
0.072276
0.10331
0.10316
0.10218
0.10082
0.098535
0.096199
0.092091
0.090303
0.082724
0.082907
0.071551
0.071999
0.10342
0.10326
0.10227
0.10089
0.098583
0.096225
0.092061
0.09024
0.082614
0.082711
0.071394
0.071722
0.10352
0.10337
0.10236
0.10097
0.098634
0.096252
0.092031
0.090176
0.082505
0.082514
0.071238
0.071445
0.10363
0.10347
0.10246
0.10105
0.098686
0.096281
0.092003
0.090112
0.082397
0.082317
0.071081
0.071169
0.10374
0.10358
0.10256
0.10114
0.098739
0.096311
0.091976
0.090049
0.082289
0.08212
0.070925
0.070892
0.10386
0.10369
0.10266
0.10122
0.098795
0.096343
0.09195
0.089986
0.082182
0.081922
0.070768
0.070615
0.10398
0.10381
0.10277
0.10131
0.098853
0.096377
0.091926
0.089923
0.082077
0.081724
0.07061
0.070338
0.1041
0.10393
0.10288
0.1014
0.098913
0.096412
0.091903
0.08986
0.081972
0.081526
0.070452
0.07006
0.10422
0.10405
0.10299
0.1015
0.098975
0.096449
0.091881
0.089798
0.081868
0.081328
0.070294
0.069782
0.10435
0.10417
0.1031
0.1016
0.09904
0.096489
0.091862
0.089736
0.081764
0.081129
0.070135
0.069503
0.10448
0.1043
0.10322
0.1017
0.099107
0.09653
0.091843
0.089675
0.081662
0.080931
0.069975
0.069224
0.10461
0.10443
0.10334
0.1018
0.099177
0.096573
0.091827
0.089613
0.08156
0.080732
0.069815
0.068943
0.10474
0.10457
0.10346
0.10191
0.099249
0.096619
0.091812
0.089553
0.081459
0.080532
0.069654
0.068662
0.10488
0.1047
0.10359
0.10201
0.099325
0.096666
0.0918
0.089493
0.08136
0.080333
0.069492
0.068379
0.10503
0.10485
0.10372
0.10213
0.099403
0.096717
0.091789
0.089433
0.081261
0.080133
0.069329
0.068096
0.10518
0.10499
0.10385
0.10225
0.099484
0.096769
0.091781
0.089375
0.081163
0.079933
0.069165
0.067811
0.10533
0.10514
0.10399
0.10237
0.099569
0.096825
0.091775
0.089317
0.081066
0.079732
0.068999
0.067524
0.10548
0.1053
0.10413
0.10249
0.099657
0.096883
0.091771
0.08926
0.08097
0.079531
0.068833
0.067236
0.10564
0.10546
0.10428
0.10262
0.099748
0.096944
0.091769
0.089204
0.080875
0.07933
0.068665
0.066947
0.10581
0.10562
0.10443
0.10275
0.099843
0.097008
0.091771
0.089148
0.08078
0.079129
0.068496
0.066655
0.10598
0.10579
0.10459
0.10289
0.099943
0.097075
0.091775
0.089094
0.080687
0.078927
0.068325
0.066362
0.10615
0.10596
0.10475
0.10303
0.10005
0.097146
0.091781
0.089041
0.080595
0.078725
0.068153
0.066066
0.10633
0.10614
0.10492
0.10318
0.10015
0.097219
0.091791
0.08899
0.080504
0.078522
0.067979
0.065769
0.10652
0.10632
0.10509
0.10333
0.10026
0.097297
0.091804
0.08894
0.080415
0.07832
0.067803
0.065468
0.10671
0.10651
0.10526
0.10349
0.10038
0.097378
0.09182
0.088891
0.080326
0.078116
0.067625
0.065166
0.1069
0.10671
0.10545
0.10365
0.1005
0.097464
0.091839
0.088843
0.080238
0.077913
0.067446
0.06486
0.1071
0.10691
0.10563
0.10382
0.10063
0.097553
0.091862
0.088798
0.080152
0.077709
0.067264
0.064552
0.10731
0.10712
0.10583
0.10399
0.10076
0.097646
0.091889
0.088754
0.080067
0.077504
0.067081
0.064241
0.10753
0.10733
0.10603
0.10418
0.1009
0.097744
0.09192
0.088712
0.079983
0.0773
0.066895
0.063927
0.10775
0.10755
0.10624
0.10436
0.10104
0.097847
0.091954
0.088672
0.0799
0.077094
0.066706
0.063609
0.10797
0.10778
0.10645
0.10456
0.10119
0.097955
0.091993
0.088634
0.079819
0.076889
0.066516
0.063288
0.10821
0.10802
0.10667
0.10476
0.10134
0.098067
0.092036
0.088598
0.079739
0.076683
0.066322
0.062963
0.10845
0.10826
0.1069
0.10496
0.1015
0.098185
0.092083
0.088564
0.07966
0.076476
0.066126
0.062634
0.1087
0.10851
0.10714
0.10518
0.10167
0.098308
0.092135
0.088533
0.079583
0.076269
0.065927
0.062302
0.10896
0.10877
0.10738
0.1054
0.10185
0.098437
0.092192
0.088505
0.079507
0.076061
0.065725
0.061964
0.10922
0.10904
0.10763
0.10563
0.10203
0.098572
0.092254
0.088479
0.079433
0.075852
0.06552
0.061623
0.10949
0.10931
0.10789
0.10587
0.10222
0.098712
0.092321
0.088456
0.07936
0.075643
0.065312
0.061277
0.10977
0.1096
0.10816
0.10612
0.10241
0.098859
0.092394
0.088435
0.079288
0.075433
0.0651
0.060925
0.11007
0.10989
0.10844
0.10637
0.10262
0.099013
0.092472
0.088418
0.079218
0.075222
0.064885
0.060569
0.11037
0.11019
0.10873
0.10664
0.10283
0.099173
0.092555
0.088404
0.079149
0.075011
0.064666
0.060207
0.11067
0.11051
0.10903
0.10691
0.10305
0.099341
0.092645
0.088393
0.079082
0.074798
0.064443
0.059839
0.11099
0.11083
0.10934
0.10719
0.10329
0.099515
0.09274
0.088385
0.079017
0.074585
0.064216
0.059466
0.11132
0.11116
0.10965
0.10749
0.10353
0.099697
0.092842
0.08838
0.078952
0.07437
0.063985
0.059086
0.11166
0.11151
0.10998
0.10779
0.10377
0.099887
0.092951
0.088379
0.078889
0.074154
0.063749
0.058699
0.11201
0.11186
0.11032
0.10811
0.10403
0.10008
0.093066
0.088382
0.078828
0.073937
0.063508
0.058306
0.11237
0.11223
0.11067
0.10843
0.1043
0.10029
0.093187
0.088388
0.078767
0.073718
0.063262
0.057905
0.11274
0.11261
0.11104
0.10877
0.10458
0.1005
0.093316
0.088397
0.078708
0.073498
0.06301
0.057496
0.11313
0.113
0.11141
0.10912
0.10487
0.10073
0.093451
0.088411
0.07865
0.073275
0.062753
0.05708
0.11352
0.1134
0.1118
0.10948
0.10518
0.10096
0.093594
0.088428
0.078593
0.073051
0.06249
0.056655
0.11393
0.11382
0.1122
0.10986
0.10549
0.1012
0.093744
0.088449
0.078537
0.072824
0.062221
0.056222
0.11435
0.11425
0.11262
0.11024
0.10581
0.10145
0.093902
0.088473
0.078482
0.072595
0.061945
0.055779
0.11479
0.11469
0.11305
0.11064
0.10615
0.10171
0.094067
0.088502
0.078428
0.072363
0.061662
0.055326
0.11524
0.11515
0.11349
0.11105
0.1065
0.10198
0.09424
0.088534
0.078373
0.072127
0.061371
0.054863
0.1157
0.11562
0.11394
0.11148
0.10686
0.10226
0.094421
0.08857
0.078319
0.071889
0.061073
0.054389
0.11617
0.11611
0.11442
0.11192
0.10724
0.10255
0.094609
0.088609
0.078266
0.071646
0.060766
0.053904
0.11666
0.11661
0.1149
0.11238
0.10763
0.10285
0.094806
0.088652
0.078211
0.0714
0.06045
0.053407
0.11717
0.11713
0.11541
0.11285
0.10803
0.10316
0.095011
0.088699
0.078157
0.071149
0.060125
0.052897
0.11769
0.11766
0.11593
0.11334
0.10845
0.10348
0.095225
0.088749
0.078101
0.070893
0.05979
0.052374
0.11823
0.11821
0.11647
0.11384
0.10888
0.10382
0.095446
0.088802
0.078045
0.070631
0.059444
0.051837
0.11878
0.11878
0.11702
0.11436
0.10933
0.10416
0.095677
0.088859
0.077987
0.070364
0.059086
0.051286
0.11935
0.11937
0.1176
0.1149
0.1098
0.10452
0.095915
0.088919
0.077928
0.07009
0.058717
0.050719
0.11994
0.11998
0.11819
0.11546
0.11028
0.10489
0.096163
0.088981
0.077866
0.069809
0.058336
0.050136
0.12055
0.1206
0.11881
0.11603
0.11078
0.10527
0.096419
0.089047
0.077801
0.069521
0.05794
0.049536
0.12118
0.12125
0.11944
0.11663
0.11129
0.10567
0.096685
0.089115
0.077734
0.069224
0.057531
0.048918
0.12183
0.12192
0.1201
0.11724
0.11183
0.10607
0.096959
0.089185
0.077663
0.068918
0.057106
0.048281
0.1225
0.12261
0.12078
0.11788
0.11238
0.1065
0.097243
0.089258
0.077589
0.068603
0.056666
0.047624
0.12319
0.12332
0.12148
0.11854
0.11296
0.10693
0.097536
0.089333
0.077509
0.068277
0.056208
0.046946
0.12391
0.12406
0.12221
0.11922
0.11355
0.10739
0.097839
0.08941
0.077425
0.06794
0.055733
0.046246
0.12465
0.12482
0.12297
0.11993
0.11417
0.10786
0.098152
0.089488
0.077336
0.067591
0.055239
0.045523
0.12541
0.12562
0.12375
0.12066
0.11481
0.10834
0.098475
0.089569
0.07724
0.067229
0.054725
0.044776
0.12621
0.12644
0.12457
0.12142
0.11548
0.10884
0.098809
0.089651
0.077138
0.066853
0.054189
0.044003
0.12703
0.12729
0.12541
0.12222
0.11617
0.10937
0.099154
0.089734
0.077029
0.066463
0.053632
0.043203
0.12789
0.12818
0.1263
0.12304
0.11689
0.10991
0.099511
0.089819
0.076912
0.066058
0.053051
0.042375
0.12878
0.1291
0.12721
0.1239
0.11764
0.11047
0.09988
0.089905
0.076786
0.065635
0.052445
0.041517
0.12971
0.13006
0.12817
0.12479
0.11842
0.11106
0.10026
0.089992
0.076652
0.065195
0.051813
0.040628
0.13067
0.13106
0.12917
0.12573
0.11924
0.11166
0.10066
0.090081
0.076507
0.064736
0.051153
0.039705
0.13168
0.13211
0.13022
0.1267
0.12009
0.1123
0.10106
0.09017
0.076352
0.064256
0.050464
0.038747
0.13273
0.1332
0.13131
0.12773
0.12098
0.11296
0.10149
0.09026
0.076185
0.063755
0.049744
0.037753
0.13382
0.13434
0.13246
0.1288
0.12192
0.11365
0.10193
0.09035
0.076005
0.063231
0.048991
0.03672
0.13497
0.13554
0.13366
0.12992
0.1229
0.11437
0.10238
0.09044
0.075811
0.062682
0.048203
0.035646
0.13618
0.1368
0.13492
0.1311
0.12392
0.11513
0.10285
0.09053
0.075602
0.062106
0.047378
0.034529
0.13744
0.13812
0.13625
0.13234
0.125
0.11592
0.10334
0.090618
0.075375
0.0615
0.046513
0.033365
0.13876
0.1395
0.13765
0.13365
0.12613
0.11674
0.10385
0.090705
0.075129
0.060863
0.045605
0.032153
0.14015
0.14096
0.13912
0.13503
0.12732
0.11761
0.10437
0.090787
0.074861
0.060191
0.044652
0.03089
0.14161
0.1425
0.14068
0.13648
0.12857
0.11851
0.10491
0.090865
0.074569
0.05948
0.043649
0.029571
0.14314
0.14412
0.14232
0.13801
0.12989
0.11946
0.10546
0.090934
0.074247
0.058726
0.042593
0.028193
0.14475
0.14583
0.14405
0.13963
0.13127
0.12045
0.10603
0.090993
0.073893
0.057925
0.041478
0.026753
0.14645
0.14763
0.14587
0.14134
0.13272
0.12149
0.10662
0.091037
0.0735
0.05707
0.040298
0.025244
0.14823
0.14953
0.14781
0.14315
0.13425
0.12257
0.10721
0.091063
0.073064
0.056157
0.039049
0.023662
0.1501
0.15154
0.14985
0.14506
0.13586
0.1237
0.10781
0.091065
0.072577
0.055176
0.037722
0.022
0.15207
0.15365
0.152
0.14707
0.13755
0.12487
0.10842
0.091035
0.072031
0.05412
0.03631
0.020252
0.15414
0.15589
0.15428
0.1492
0.13932
0.12608
0.10902
0.090968
0.071416
0.05298
0.034803
0.01841
0.15631
0.15824
0.15669
0.15145
0.14117
0.12733
0.10961
0.090853
0.070724
0.051745
0.033193
0.016465
0.15859
0.16073
0.15924
0.15382
0.14311
0.12862
0.11019
0.09068
0.069941
0.050403
0.031468
0.014408
0.16099
0.16336
0.16194
0.15632
0.14514
0.12994
0.11074
0.090438
0.069055
0.048943
0.029616
0.012227
0.1635
0.16613
0.16479
0.15896
0.14726
0.13129
0.11126
0.090111
0.06805
0.04735
0.027625
0.0099127
0.16613
0.16906
0.16781
0.16175
0.14946
0.13266
0.11172
0.089685
0.066912
0.045609
0.025481
0.0074519
0.1689
0.17217
0.17102
0.1647
0.15176
0.13404
0.11212
0.08914
0.06562
0.043703
0.02317
0.0048324
0.17181
0.17546
0.17444
0.16781
0.15415
0.13541
0.11244
0.088455
0.064155
0.041616
0.020677
0.0020414
0.17488
0.17895
0.17807
0.1711
0.15663
0.13677
0.11264
0.087603
0.062491
0.039325
0.017985
-0.00093423
0.1781
0.18268
0.18196
0.1746
0.1592
0.1381
0.11271
0.086554
0.060601
0.036808
0.015075
-0.0041079
0.18151
0.18666
0.18613
0.1783
0.16185
0.13936
0.11261
0.085269
0.05845
0.034038
0.011928
-0.0074935
0.18511
0.19092
0.1906
0.18222
0.16457
0.14053
0.1123
0.083703
0.055999
0.030983
0.0085201
-0.011105
0.18891
0.1955
0.19543
0.18639
0.16735
0.14156
0.11171
0.081799
0.053197
0.027603
0.0048231
-0.01496
0.19293
0.20043
0.20064
0.1908
0.17014
0.14239
0.11078
0.079489
0.049989
0.023854
0.00080525
-0.019074
0.19717
0.20575
0.20626
0.19544
0.1729
0.14294
0.10942
0.076692
0.046304
0.019683
-0.0035707
-0.023467
0.20164
0.2115
0.21233
0.20031
0.17556
0.14312
0.10752
0.073311
0.042065
0.015031
-0.0083456
-0.028161
0.2063
0.21768
0.21885
0.20535
0.17801
0.14278
0.10495
0.069238
0.037189
0.009835
-0.013561
-0.033174
0.21115
0.22433
0.2258
0.21046
0.18009
0.14175
0.10157
0.064351
0.031587
0.0040364
-0.019254
-0.038523
0.21612
0.23142
0.23312
0.2155
0.18159
0.13982
0.097174
0.058521
0.025177
-0.0024137
-0.025447
-0.044207
0.22116
0.23892
0.2407
0.22024
0.18222
0.13673
0.091582
0.051621
0.017888
-0.0095434
-0.03214
-0.050209
0.22618
0.24673
0.24828
0.22431
0.1816
0.13215
0.084572
0.043529
0.0096719
-0.017351
-0.0393
-0.056478
0.23111
0.25464
0.25545
0.22716
0.17922
0.12572
0.075924
0.034147
0.00051498
-0.025794
-0.046852
-0.062928
0.2359
0.26228
0.26146
0.22796
0.1744
0.11701
0.065433
0.023419
-0.0095502
-0.03479
-0.054681
-0.069438
0.24053
0.26899
0.2651
0.22548
0.16627
0.10557
0.05295
0.011364
-0.020426
-0.044205
-0.062637
-0.075867
0.24513
0.27361
0.26439
0.21794
0.15376
0.090958
0.038429
-0.0018871
-0.031926
-0.053855
-0.070546
-0.082065
0.24998
0.27431
0.25639
0.20295
0.13559
0.072792
0.021972
-0.01606
-0.043762
-0.063498
-0.078219
-0.087899
0.25568
0.26855
0.23718
0.17752
0.11035
0.050787
0.0038099
-0.030771
-0.055568
-0.072857
-0.085472
-0.093269
0.26307
0.25346
0.20258
0.13866
0.076789
0.02476
-0.015789
-0.045639
-0.066994
-0.081676
-0.092157
-0.098126
0.27248
0.22572
0.14959
0.08467
0.034253
-0.0053412
-0.036651
-0.060439
-0.077836
-0.089816
-0.098214
-0.1025
0.28409
0.17912
0.0745
0.014536
-0.017776
-0.039995
-0.05916
-0.075465
-0.088331
-0.097488
-0.10386
-0.10665
0.30802
0.11488
-0.022284
-0.07015
-0.078836
-0.08005
-0.08462
-0.092001
-0.099614
-0.10566
-0.10993
-0.11135
0.35598
0.05091
-0.12445
-0.15698
-0.14085
-0.12141
-0.11152
-0.10978
-0.11189
-0.11464
-0.11674
-0.11677
0.10394
0.064726
0.054671
0.048667
0.044494
0.041292
0.038674
0.036271
0.034189
0.031808
0.030066
0.026637
0.12346
0.080176
0.067679
0.059695
0.054212
0.050067
0.046721
0.043681
0.041088
0.038115
0.036035
0.031933
0.11066
0.074902
0.063588
0.055729
0.050323
0.046261
0.043015
0.040082
0.037629
0.034782
0.032909
0.028903
0.10556
0.074515
0.063524
0.055572
0.050031
0.045858
0.042536
0.039539
0.037064
0.034164
0.032328
0.028142
0.10493
0.07668
0.065525
0.057353
0.051567
0.047186
0.043697
0.04055
0.037968
0.034929
0.033036
0.028609
0.10429
0.078493
0.067261
0.05895
0.052965
0.048403
0.044766
0.041484
0.038804
0.035642
0.033689
0.029079
0.10318
0.079771
0.068608
0.060241
0.054107
0.049396
0.045634
0.042238
0.039474
0.036215
0.034206
0.029477
0.102
0.080822
0.069817
0.061445
0.055194
0.050351
0.046474
0.042974
0.040131
0.036792
0.03473
0.029939
0.1009
0.081732
0.070955
0.062621
0.056284
0.051324
0.047338
0.043742
0.040823
0.03742
0.035307
0.03051
0.099856
0.082494
0.072007
0.063756
0.057366
0.052307
0.048225
0.044541
0.041552
0.038102
0.035944
0.031195
0.098845
0.083104
0.072962
0.064835
0.058428
0.053294
0.049128
0.045369
0.042317
0.038837
0.036642
0.031995
0.097864
0.083578
0.073817
0.06585
0.059462
0.054278
0.050044
0.046223
0.043119
0.039626
0.037405
0.032906
0.096915
0.083929
0.074573
0.066796
0.060459
0.05525
0.050967
0.047099
0.043953
0.040466
0.038227
0.033919
0.096001
0.084175
0.075232
0.067667
0.06141
0.056201
0.051889
0.04799
0.044813
0.041349
0.039104
0.035019
0.095123
0.08433
0.075799
0.068461
0.062308
0.057123
0.052799
0.048888
0.045692
0.042266
0.040023
0.036187
0.09428
0.084408
0.076281
0.069179
0.063149
0.058009
0.053691
0.049782
0.046579
0.043207
0.040972
0.037402
0.093474
0.084422
0.076684
0.069823
0.06393
0.058853
0.054557
0.050665
0.047467
0.044159
0.04194
0.038641
0.092705
0.084382
0.077017
0.070397
0.064651
0.059651
0.055391
0.05153
0.048345
0.045113
0.042912
0.039884
0.091971
0.084299
0.077286
0.070905
0.065312
0.060401
0.056189
0.05237
0.049208
0.046058
0.043878
0.041111
0.091271
0.084181
0.0775
0.071352
0.065917
0.061103
0.056949
0.053182
0.050048
0.046985
0.044828
0.042308
0.090605
0.084034
0.077665
0.071743
0.066466
0.061758
0.057667
0.05396
0.05086
0.047887
0.045752
0.043461
0.08997
0.083864
0.077787
0.072083
0.066965
0.062365
0.058345
0.054703
0.051641
0.048758
0.046646
0.04456
0.089365
0.083677
0.077872
0.072377
0.067415
0.062927
0.058981
0.055409
0.052389
0.049595
0.047503
0.045598
0.088787
0.083475
0.077925
0.07263
0.06782
0.063445
0.059577
0.056078
0.053101
0.050393
0.04832
0.046571
0.088236
0.083262
0.077949
0.072846
0.068185
0.063923
0.060133
0.05671
0.053776
0.051151
0.049096
0.047478
0.087708
0.083041
0.077949
0.073028
0.068511
0.064361
0.060652
0.057304
0.054416
0.051867
0.04983
0.048319
0.087203
0.082814
0.077928
0.07318
0.068803
0.064764
0.061135
0.057862
0.055019
0.052542
0.050521
0.049095
0.086719
0.082582
0.077888
0.073305
0.069062
0.065132
0.061583
0.058384
0.055587
0.053177
0.05117
0.049809
0.086254
0.082347
0.077833
0.073405
0.069292
0.065468
0.061998
0.058872
0.05612
0.053771
0.051778
0.050464
0.085807
0.08211
0.077764
0.073485
0.069495
0.065775
0.062382
0.059327
0.05662
0.054326
0.052347
0.051064
0.085377
0.081872
0.077684
0.073544
0.069674
0.066053
0.062737
0.059751
0.057088
0.054844
0.052878
0.051614
0.084962
0.081633
0.077592
0.073586
0.06983
0.066306
0.063064
0.060145
0.057525
0.055326
0.053372
0.052117
0.084562
0.081395
0.077492
0.073612
0.069965
0.066534
0.063365
0.06051
0.057933
0.055775