/*--------------------------------*- C++ -*----------------------------------*\
  =========                 |
  \\      /  F ield         | OpenFOAM: The Open Source CFD Toolbox
   \\    /   O peration     | Website:  https://openfoam.org
    \\  /    A nd           | Version:  6.0
     \\/     M anipulation  |
\*---------------------------------------------------------------------------*/
FoamFile
{
    version     2.0;
    format      ascii;
    class       volVectorField;
    location    "1.96";
    object      U;
}
// * * * * * * * * * * * * * * * * * * * * * * * * * * * * * * * * * * * * * //

dimensions      [0 1 -1 0 0 0 0];

internalField   nonuniform List<vector> 
13500
(
(1 1.453e-06 -4.297e-18)
(1 -3.0166e-06 2.9076e-18)
(1 -6.5216e-06 -1.2509e-17)
(1 -8.8744e-06 -8.646e-18)
(1 -9.5557e-06 1.6312e-17)
(1 -7.1052e-06 3.0263e-17)
(1 4.9706e-08 2.611e-17)
(0.99998 1.4628e-05 -4.1902e-18)
(0.99991 4.5897e-05 1.5481e-17)
(0.99981 7.107e-05 3.3224e-18)
(0.99571 0.00075571 2.8796e-17)
(1.0192 0.010829 7.8614e-18)
(1 4.3472e-06 2.6621e-18)
(1 -8.5086e-06 -8.8302e-18)
(1 -1.8208e-05 5.9735e-18)
(1 -2.523e-05 -3.4092e-19)
(1 -2.638e-05 -4.3498e-19)
(1 -1.8951e-05 -3.6389e-17)
(1 2.9776e-06 -4.5096e-17)
(0.99993 4.6316e-05 -2.3975e-17)
(0.9997 0.00014801 -1.5451e-17)
(0.99986 0.00017413 -1.643e-18)
(0.98617 0.0021867 -1.3637e-17)
(1.0538 0.030588 -4.7599e-18)
(1 7.2313e-06 -3.4384e-18)
(1 -1.4063e-05 1.7544e-17)
(1 -3.0071e-05 3.1071e-18)
(1 -4.1762e-05 9.9687e-18)
(1 -4.3507e-05 -3.7614e-18)
(1 -3.0982e-05 2.9149e-17)
(1 5.8001e-06 -6.3484e-18)
(0.9999 7.7924e-05 5.4462e-18)
(0.99947 0.0002575 -1.8744e-17)
(1.0004 0.00029585 2.496e-17)
(0.97599 0.0032611 -7.13e-18)
(1.0826 0.045059 1.6716e-18)
(1 1.0127e-05 8.9888e-18)
(1 -1.9786e-05 -1.7009e-17)
(1 -4.2252e-05 -1.4729e-17)
(1 -5.8657e-05 -6.9938e-19)
(1 -6.1141e-05 5.8066e-18)
(1 -4.34e-05 -8.0918e-19)
(1 8.2425e-06 6.2546e-17)
(0.99987 0.000109 9.8118e-18)
(0.99921 0.00037288 2.2164e-17)
(1.0013 0.00044215 -9.041e-18)
(0.96556 0.004003 3.472e-17)
(1.104 0.055529 -7.6091e-18)
(1 1.3034e-05 -6.316e-18)
(1 -2.5559e-05 1.47e-17)
(1 -5.4471e-05 1.2538e-17)
(1 -7.563e-05 1.2758e-17)
(1.0001 -7.886e-05 2.8472e-18)
(1.0001 -5.5831e-05 2.1423e-17)
(1 1.0607e-05 -2.7931e-17)
(0.99985 0.00013956 1.9927e-18)
(0.9989 0.00049247 -1.359e-17)
(1.0026 0.00061621 -2.1571e-18)
(0.95529 0.0044615 -9.0044e-18)
(1.1182 0.063134 2.1088e-18)
(1 1.5953e-05 6.3918e-18)
(1 -3.1381e-05 -6.0941e-18)
(1 -6.673e-05 3.8291e-18)
(1 -9.2676e-05 -2.5273e-17)
(1.0001 -9.6673e-05 -8.3335e-20)
(1.0001 -6.8285e-05 -4.2411e-17)
(1 1.2867e-05 1.0718e-18)
(0.99984 0.00016952 -1.5997e-17)
(0.99855 0.00061443 5.1751e-18)
(1.0043 0.00082569 -2.1738e-17)
(0.94554 0.004678 -2.1679e-17)
(1.1258 0.068491 2.0401e-18)
(0.99999 1.8888e-05 -1.0581e-18)
(1 -3.7256e-05 -7.2885e-18)
(1 -7.903e-05 -3.1119e-18)
(1.0001 -0.00010981 1.9075e-17)
(1.0001 -0.00011458 -2.6371e-17)
(1.0001 -8.0775e-05 1.6227e-17)
(1 1.5025e-05 1.8682e-17)
(0.99985 0.0001989 5.628e-18)
(0.99813 0.00073692 1.1569e-17)
(1.0063 0.001078 1.1703e-17)
(0.93658 0.0046895 9.3404e-18)
(1.1278 0.072027 3.2785e-18)
(0.99999 2.1838e-05 -2.1838e-18)
(1 -4.3189e-05 -1.4337e-18)
(1 -9.1372e-05 -2.6808e-17)
(1.0001 -0.00012703 -9.1086e-18)
(1.0001 -0.0001326 7.3811e-18)
(1.0001 -9.3313e-05 2.6593e-17)
(1 1.7073e-05 1.1891e-17)
(0.99987 0.00022774 5.024e-18)
(0.99765 0.00085801 -7.5621e-18)
(1.0085 0.0013781 1.6393e-17)
(0.92866 0.0045314 7.5436e-18)
(1.1251 0.074105 -1.043e-17)
(0.99999 2.4808e-05 -6.7794e-18)
(1 -4.9184e-05 6.1642e-18)
(1 -0.00010376 4.5075e-17)
(1.0001 -0.00014435 -1.0925e-17)
(1.0001 -0.00015072 2.7642e-17)
(1.0001 -0.00010591 -5.2503e-17)
(1 1.8995e-05 -3.9612e-17)
(0.9999 0.00025613 9.7621e-18)
(0.99711 0.0009757 -5.6796e-18)
(1.0109 0.0017283 -9.0411e-18)
(0.92192 0.0042375 -1.3938e-17)
(1.1188 0.075032 1.365e-17)
(0.99999 2.7799e-05 4.4664e-18)
(1 -5.5245e-05 2.3202e-18)
(1 -0.00011618 -3.8182e-17)
(1.0001 -0.00016177 1.5549e-17)
(1.0001 -0.00016895 -1.2054e-17)
(1.0001 -0.00011858 2.2392e-17)
(1 2.0769e-05 1.4077e-17)
(0.99995 0.0002842 2.4675e-18)
(0.9965 0.001088 5.3626e-19)
(1.0135 0.0021294 1.4326e-18)
(0.91647 0.0038395 4.4345e-18)
(1.1099 0.075061 -7.1301e-19)
(0.99999 3.0814e-05 -2.4522e-18)
(1 -6.1377e-05 -7.6094e-18)
(1 -0.00012865 9.3594e-18)
(1.0001 -0.00017931 -2.7434e-18)
(1.0001 -0.0001873 1.8607e-18)
(1.0001 -0.00013134 -2.454e-17)
(1 2.2371e-05 -3.2423e-17)
(1 0.00031213 -3.1343e-17)
(0.99582 0.0011929 1.5876e-17)
(1.0161 0.0025803 1.861e-18)
(0.91234 0.0033663 -1.1248e-17)
(1.099 0.074397 -5.8865e-18)
(0.99998 3.3857e-05 3.3848e-18)
(1 -6.7584e-05 2.8742e-18)
(1 -0.00014115 4.5106e-18)
(1.0001 -0.00019697 -2.1863e-18)
(1.0001 -0.00020578 -5.5776e-18)
(1.0002 -0.00014419 9.2816e-18)
(1 2.3771e-05 1.8768e-17)
(1.0001 0.00034012 1.9362e-17)
(0.99508 0.0012885 1.0201e-17)
(1.0187 0.0030789 -2.3497e-17)
(0.90954 0.002844 1.1806e-19)
(1.087 0.073213 -6.8202e-18)
(0.99998 3.6928e-05 -3.3842e-18)
(1 -7.387e-05 5.6521e-18)
(1 -0.0001537 8.1781e-18)
(1.0001 -0.00021475 5.7088e-18)
(1.0002 -0.00022438 -5.1733e-18)
(1.0002 -0.00015716 4.5628e-18)
(1.0001 2.4933e-05 4.2798e-18)
(1.0002 0.00036844 -1.7291e-18)
(0.99429 0.0013729 -1.6487e-17)
(1.0213 0.0036217 2.179e-17)
(0.90801 0.002296 1.0521e-19)
(1.0744 0.071645 1.4578e-18)
(0.99998 4.0031e-05 5.1463e-18)
(0.99999 -8.0239e-05 -4.412e-18)
(1 -0.00016629 7.1596e-19)
(1.0001 -0.00023266 -4.7622e-18)
(1.0002 -0.00024311 1.1749e-17)
(1.0002 -0.00017026 5.567e-18)
(1.0001 2.5815e-05 1.7221e-17)
(1.0003 0.0003974 -6.4212e-18)
(0.99344 0.0014443 -2.0141e-19)
(1.0237 0.0042047 5.3522e-18)
(0.90768 0.0017425 1.7072e-17)
(1.0618 0.069808 9.2979e-19)
(0.99997 4.3167e-05 1.2412e-18)
(0.99999 -8.6694e-05 9.7917e-18)
(1 -0.00017893 1.3676e-17)
(1.0001 -0.00025071 -4.748e-18)
(1.0002 -0.00026199 8.5076e-18)
(1.0002 -0.0001835 -2.5988e-18)
(1.0001 2.6364e-05 -3.0162e-17)
(1.0005 0.00042732 2.0324e-17)
(0.99256 0.0015012 -1.8593e-17)
(1.0261 0.0048233 -3.087e-17)
(0.90844 0.001201 -3.748e-18)
(1.0495 0.067792 8.6196e-19)
(0.99997 4.6338e-05 -3.1666e-18)
(0.99999 -9.3238e-05 -1.0413e-17)
(1 -0.00019161 -3.2824e-17)
(1.0001 -0.0002689 7.9996e-18)
(1.0002 -0.000281 -1.291e-17)
(1.0002 -0.0001969 8.3321e-18)
(1.0001 2.6524e-05 -2.8224e-18)
(1.0007 0.0004586 -1.2235e-17)
(0.99164 0.0015418 4.0823e-18)
(1.0282 0.0054726 1.8435e-17)
(0.91019 0.00068599 -7.8651e-18)
(1.0378 0.065671 1.2004e-17)
(0.99996 4.9544e-05 3.3318e-19)
(0.99999 -9.9873e-05 7.7882e-18)
(1 -0.00020435 2.2662e-17)
(1.0001 -0.00028725 -1.8016e-18)
(1.0002 -0.00030017 -1.2826e-17)
(1.0002 -0.00021047 -1.5527e-17)
(1.0001 2.6226e-05 1.078e-17)
(1.0009 0.00049161 7.0161e-18)
(0.99069 0.0015649 2.3597e-17)
(1.0302 0.0061476 -2.5813e-18)
(0.91279 0.00020929 1.9543e-18)
(1.0269 0.063505 -4.7889e-18)
(0.99996 5.2785e-05 -1.8693e-18)
(0.99998 -0.0001066 -9.4368e-18)
(1 -0.00021713 -1.0226e-17)
(1.0001 -0.00030574 6.0204e-18)
(1.0002 -0.00031949 -7.2036e-18)
(1.0003 -0.00022422 -1.2454e-17)
(1.0001 2.5395e-05 1.048e-17)
(1.0011 0.00052678 -4.76e-18)
(0.98973 0.0015691 -2.9203e-17)
(1.0319 0.0068432 -1.4466e-17)
(0.91612 -0.00021997 8.4809e-18)
(1.0171 0.061337 -5.1975e-18)
(0.99996 5.6061e-05 -2.6766e-18)
(0.99998 -0.00011342 -3.5666e-18)
(1 -0.00022997 -7.578e-19)
(1.0001 -0.0003244 -2.6363e-17)
(1.0002 -0.00033898 6.044e-18)
(1.0003 -0.00023817 5.4234e-18)
(1.0001 2.3947e-05 -1.9915e-17)
(1.0013 0.00056453 -1.6249e-17)
(0.98877 0.0015534 4.2712e-18)
(1.0333 0.0075543 -1.0874e-18)
(0.92004 -0.000595 -9.7935e-18)
(1.0083 0.059205 9.8284e-19)
(0.99995 5.9371e-05 3.4815e-18)
(0.99998 -0.00012034 1.635e-17)
(1 -0.00024287 1.9514e-17)
(1.0001 -0.00034323 2.4829e-18)
(1.0002 -0.00035863 1.6708e-17)
(1.0003 -0.00025233 9.5034e-18)
(1.0001 2.1791e-05 2.8743e-18)
(1.0016 0.0006053 1.7785e-17)
(0.98782 0.0015169 2.1222e-17)
(1.0345 0.0082761 1.7275e-17)
(0.92443 -0.0009112 7.3084e-18)
(1.0006 0.057134 1.1669e-18)
(0.99995 6.2715e-05 -1.6594e-18)
(0.99997 -0.00012736 -3.9231e-18)
(1 -0.00025583 -2.079e-17)
(1.0001 -0.00036224 -2.3505e-18)
(1.0003 -0.00037845 -1.2663e-17)
(1.0003 -0.00026671 -5.1415e-18)
(1 1.8829e-05 -1.845e-18)
(1.0019 0.00064951 -1.6081e-17)
(0.98688 0.0014591 -2.0293e-17)
(1.0354 0.0090039 8.8544e-18)
(0.92917 -0.0011659 5.0109e-19)
(0.99403 0.055144 6.7013e-19)
(0.99994 6.609e-05 4.3986e-18)
(0.99997 -0.00013447 -5.1253e-18)
(1 -0.00026886 -1.9499e-17)
(1.0001 -0.00038142 4.469e-17)
(1.0003 -0.00039845 1.837e-17)
(1.0003 -0.00028133 -1.2581e-17)
(1 1.4956e-05 2.4803e-17)
(1.0022 0.00069757 2.1732e-17)
(0.98598 0.0013794 3.293e-17)
(1.0361 0.0097331 -3.2453e-17)
(0.93415 -0.0013581 -1.3422e-17)
(0.98854 0.053249 1.7693e-19)
(0.99993 6.9497e-05 -3.2196e-18)
(0.99996 -0.00014169 -1.0285e-18)
(1 -0.00028196 3.3289e-17)
(1.0002 -0.00040079 -3.3782e-17)
(1.0003 -0.00041864 -1.7683e-18)
(1.0004 -0.00029618 4.1685e-17)
(1 1.0062e-05 7.6868e-18)
(1.0025 0.00074988 -3.3572e-18)
(0.98512 0.0012778 -2.0423e-17)
(1.0365 0.010459 3.8245e-17)
(0.93926 -0.0014882 -5.685e-18)
(0.98408 0.051456 -2.8097e-19)
(0.99993 7.2933e-05 -1.6413e-18)
(0.99996 -0.000149 -2.0494e-18)
(1 -0.00029513 1.7335e-18)
(1.0002 -0.00042036 3.5145e-17)
(1.0003 -0.00043902 -9.97e-18)
(1.0004 -0.00031129 -3.081e-17)
(0.99999 4.0368e-06 -1.9598e-17)
(1.0028 0.00080678 -3.6146e-18)
(0.9843 0.0011543 6.4582e-18)
(1.0366 0.011179 -3.2264e-17)
(0.94442 -0.0015579 9.5224e-18)
(0.98057 0.049771 3.0467e-18)
(0.99992 7.6399e-05 2.7124e-18)
(0.99995 -0.00015642 1.4264e-17)
(1 -0.00030838 -1.2785e-17)
(1.0002 -0.00044013 -3.68e-18)
(1.0003 -0.0004596 -1.9134e-17)
(1.0004 -0.00032666 3.3519e-17)
(0.99996 -3.2351e-06 -1.7205e-17)
(1.0032 0.00086858 1.4982e-17)
(0.98354 0.0010094 -1.9904e-18)
(1.0365 0.011887 3.0249e-17)
(0.94954 -0.0015697 -9.2912e-18)
(0.97792 0.048196 -5.0838e-18)
(0.99991 7.9895e-05 -5.2022e-19)
(0.99995 -0.00016394 -8.2035e-18)
(1 -0.00032171 -1.7902e-17)
(1.0002 -0.00046011 -1.0083e-17)
(1.0003 -0.00048038 1.8559e-17)
(1.0004 -0.0003423 -4.2741e-17)
(0.99993 -1.1867e-05 -2.6551e-18)
(1.0035 0.00093554 -2.0241e-17)
(0.98285 0.00084368 3.2155e-18)
(1.0361 0.012581 -8.7248e-18)
(0.95456 -0.0015269 9.8898e-18)
(0.97604 0.046728 2.1569e-18)
(0.99991 8.3419e-05 2.7252e-18)
(0.99994 -0.00017157 -8.7873e-18)
(1 -0.00033512 -1.7686e-18)
(1.0002 -0.00048032 2.45e-18)
(1.0003 -0.00050137 5.874e-18)
(1.0005 -0.00035822 1.235e-17)
(0.9999 -2.1972e-05 4.3526e-17)
(1.0039 0.0010078 2.4187e-18)
(0.98222 0.00065817 5.24e-18)
(1.0355 0.013257 9.6164e-18)
(0.95941 -0.0014336 -8.4574e-18)
(0.97484 0.045365 1.6571e-18)
(0.9999 8.6973e-05 -1.5627e-18)
(0.99994 -0.00017931 8.7792e-18)
(1 -0.00034861 2.5447e-17)
(1.0002 -0.00050075 -2.4686e-17)
(1.0003 -0.00052257 -9.137e-18)
(1.0005 -0.00037443 -2.1729e-18)
(0.99986 -3.3658e-05 -1.4347e-17)
(1.0043 0.0010856 1.8763e-18)
(0.98168 0.00045406 -9.0789e-18)
(1.0348 0.013912 -3.5343e-18)
(0.96406 -0.0012941 -2.3877e-19)
(0.97421 0.044103 -2.0247e-18)
(0.99989 9.0558e-05 -1.6795e-18)
(0.99993 -0.00018717 5.2548e-18)
(1 -0.00036219 -6.1543e-19)
(1.0002 -0.00052143 8.1857e-18)
(1.0004 -0.000544 -1.6859e-17)
(1.0005 -0.00039094 2.4587e-17)
(0.99982 -4.7027e-05 7.1563e-18)
(1.0046 0.001169 -1.79e-17)
(0.98121 0.00023281 -1.1643e-17)
(1.0338 0.014542 -1.3993e-17)
(0.96847 -0.0011132 1.3407e-18)
(0.97408 0.042936 -3.7112e-18)
(0.99988 9.4173e-05 5.8365e-19)
(0.99992 -0.00019515 -1.2549e-17)
(1 -0.00037586 1.5757e-17)
(1.0002 -0.00054235 2.264e-17)
(1.0004 -0.00056564 3.3045e-17)
(1.0006 -0.00040776 -1.8057e-17)
(0.99977 -6.2172e-05 -1.7792e-17)
(1.005 0.0012578 3.633e-18)
(0.98082 -3.8879e-06 1.0909e-17)
(1.0328 0.015145 1.0954e-17)
(0.97261 -0.00089565 6.2394e-18)
(0.97435 0.041858 3.6886e-18)
(0.99988 9.7821e-05 1.1185e-18)
(0.99992 -0.00020325 9.9793e-18)
(1 -0.00038961 -3.6203e-17)
(1.0002 -0.00056353 -3.2804e-18)
(1.0004 -0.00058752 -2.7451e-17)
(1.0006 -0.00042491 -1.1373e-17)
(0.99972 -7.9179e-05 2.4978e-20)
(1.0054 0.0013521 -4.1542e-18)
(0.98052 -0.00025414 -2.1497e-17)
(1.0316 0.015718 -1.7489e-17)
(0.97646 -0.00064649 -8.5206e-18)
(0.97495 0.040863 -1.8185e-18)
(0.99987 0.0001015 -7.2496e-19)
(0.99991 -0.00021147 -6.49e-18)
(1 -0.00040346 2.8485e-17)
(1.0002 -0.00058499 -3.13e-17)
(1.0004 -0.00060963 -2.0648e-18)
(1.0006 -0.0004424 2.422e-17)
(0.99967 -9.812e-05 7.1189e-19)
(1.0058 0.0014516 3.9624e-18)
(0.9803 -0.00051589 1.8819e-17)
(1.0302 0.01626 2.2734e-17)
(0.98001 -0.00037067 4.875e-18)
(0.9758 0.039943 -1.0161e-18)
(0.99986 0.00010522 -1.8873e-18)
(0.9999 -0.00021983 -2.3933e-18)
(1 -0.0004174 -1.2628e-17)
(1.0002 -0.00060672 1.5592e-17)
(1.0004 -0.00063197 3.017e-17)
(1.0007 -0.00046024 -1.0704e-17)
(0.99961 -0.00011905 2.216e-17)
(1.0061 0.0015561 2.9699e-18)
(0.98016 -0.00078697 -2.1322e-18)
(1.0289 0.016767 1.0285e-17)
(0.98327 -7.3025e-05 -5.4466e-18)
(0.97686 0.039093 -7.0845e-19)
(0.99985 0.00010897 4.72e-19)
(0.99989 -0.00022832 -6.3293e-18)
(1 -0.00043144 4.7272e-18)
(1.0002 -0.00062875 -1.5891e-17)
(1.0004 -0.00065456 -3.1912e-17)
(1.0007 -0.00047845 6.7451e-18)
(0.99955 -0.00014202 -3.197e-17)
(1.0065 0.0016653 -6.7884e-18)
(0.9801 -0.0010651 6.9162e-18)
(1.0274 0.017239 -3.2281e-17)
(0.98623 0.00024172 3.7298e-18)
(0.97805 0.038304 1.9986e-18)
(0.99984 0.00011276 8.2887e-19)
(0.99989 -0.00023696 1.7148e-17)
(1 -0.00044557 7.9151e-18)
(1.0002 -0.00065109 6.4732e-18)
(1.0004 -0.00067739 2.5517e-17)
(1.0007 -0.00049705 2.011e-18)
(0.99949 -0.00016706 2.2076e-17)
(1.0069 0.0017787 4.8697e-18)
(0.98011 -0.001348 -2.1023e-17)
(1.026 0.017674 1.1114e-17)
(0.9889 0.00056907 2.5221e-18)
(0.97934 0.037572 2.0731e-18)
(0.99983 0.00011659 -2.8942e-18)
(0.99988 -0.00024574 -5.6445e-18)
(1 -0.00045979 -6.954e-18)
(1.0002 -0.00067374 1.063e-17)
(1.0004 -0.00070047 1.2328e-17)
(1.0008 -0.00051607 -4.005e-18)
(0.99942 -0.00019417 -1.8544e-17)
(1.0072 0.0018959 2.2169e-17)
(0.9802 -0.0016334 3.8921e-18)
(1.0245 0.018071 -3.3574e-18)
(0.99129 0.00090477 1.0431e-17)
(0.98068 0.036889 -1.4412e-18)
(0.99982 0.00012046 5.9471e-18)
(0.99987 -0.00025467 6.7596e-18)
(1 -0.00047412 -7.3922e-18)
(1.0002 -0.00069671 -6.6218e-18)
(1.0005 -0.0007238 -1.769e-17)
(1.0008 -0.00053552 -6.8785e-18)
(0.99935 -0.00022335 9.1431e-18)
(1.0076 0.0020163 -3.5557e-17)
(0.98035 -0.0019189 9.5303e-18)
(1.023 0.01843 -3.9689e-18)
(0.99343 0.0012449 -1.1045e-17)
(0.98205 0.036249 4.1873e-18)
(0.99981 0.00012438 -2.6248e-18)
(0.99986 -0.00026376 -1.1876e-17)
(1 -0.00048855 -7.1643e-18)
(1.0002 -0.00072004 -1.2566e-17)
(1.0005 -0.00074738 -5.4011e-18)
(1.0009 -0.00055544 2.0224e-17)
(0.99928 -0.00025458 -8.9819e-18)
(1.0079 0.0021395 3.9554e-17)
(0.98057 -0.0022025 8.9875e-18)
(1.0216 0.01875 1.2044e-17)
(0.99532 0.0015857 4.6557e-18)
(0.98342 0.035648 -6.7916e-18)
(0.9998 0.00012834 -1.3922e-18)
(0.99985 -0.00027301 8.8323e-18)
(1 -0.00050308 1.4195e-17)
(1.0002 -0.00074371 3.3879e-17)
(1.0005 -0.00077121 7.1594e-18)
(1.0009 -0.00057586 -1.3872e-17)
(0.99921 -0.00028781 4.3344e-18)
(1.0082 0.0022647 -4.2552e-17)
(0.98084 -0.0024821 -1.0902e-17)
(1.0202 0.019031 -6.6965e-18)
(0.99698 0.001924 4.5674e-18)
(0.98477 0.035081 6.8314e-18)
(0.99978 0.00013234 1.0655e-18)
(0.99984 -0.00028242 2.0908e-18)
(1 -0.00051771 -1.3941e-17)
(1.0002 -0.00076776 -5.6433e-18)
(1.0005 -0.0007953 9.0906e-18)
(1.001 -0.00059682 1.6603e-17)
(0.99914 -0.000323 1.5073e-17)
(1.0085 0.0023914 4.2123e-18)
(0.98116 -0.0027558 1.2197e-17)
(1.0188 0.019273 -3.103e-18)
(0.99845 0.0022568 -8.153e-18)
(0.98609 0.034542 -1.7614e-18)
(0.99977 0.00013639 -4.3634e-20)
(0.99983 -0.000292 2.3829e-18)
(0.99999 -0.00053245 3.1156e-18)
(1.0002 -0.00079218 -7.3259e-18)
(1.0005 -0.00081964 8.4667e-20)
(1.001 -0.00061834 -1.5054e-17)
(0.99906 -0.00036007 -1.0195e-17)
(1.0088 0.0025189 3.1159e-17)
(0.98152 -0.0030219 -1.8433e-17)
(1.0176 0.019477 1.205e-17)
(0.99972 0.0025816 4.306e-18)
(0.98736 0.034028 -4.9787e-18)
(0.99976 0.00014049 -3.3002e-18)
(0.99982 -0.00030176 -1.1176e-17)
(0.99999 -0.0005473 7.9544e-18)
(1.0002 -0.00081701 -2.0008e-17)
(1.0005 -0.00084423 -2.299e-17)
(1.0011 -0.00064049 -2.0796e-17)
(0.99898 -0.00039894 -2.078e-17)
(1.0091 0.0026465 -3.191e-18)
(0.98193 -0.0032788 1.611e-17)
(1.0163 0.019645 -1.0336e-17)
(1.0008 0.002896 4.2813e-19)
(0.98858 0.033535 4.6904e-18)
(0.99975 0.00014464 6.3697e-18)
(0.99981 -0.0003117 1.1679e-17)
(0.99998 -0.00056226 -1.2828e-17)
(1.0002 -0.00084224 1.6427e-17)
(1.0005 -0.00086907 -2.696e-18)
(1.0011 -0.00066329 1.3631e-17)
(0.99891 -0.00043951 2.4977e-17)
(1.0093 0.0027737 -2.417e-17)
(0.98236 -0.0035254 -8.1691e-18)
(1.0152 0.019776 1.0915e-17)
(1.0018 0.0031982 3.7215e-18)
(0.98974 0.03306 -2.2195e-18)
(0.99973 0.00014884 -4.7796e-18)
(0.9998 -0.00032183 -3.4517e-18)
(0.99997 -0.00057734 -2.6822e-18)
(1.0002 -0.00086791 1.8795e-17)
(1.0005 -0.00089417 -5.7716e-18)
(1.0012 -0.00068681 -1.7272e-19)
(0.99883 -0.0004817 -4.8875e-18)
(1.0096 0.0028997 1.936e-17)
(0.98282 -0.0037606 -7.7566e-18)
(1.0141 0.019872 -7.4951e-18)
(1.0027 0.0034868 -1.1001e-17)
(0.99084 0.032601 2.5809e-18)
(0.99972 0.00015309 3.2489e-18)
(0.99979 -0.00033214 -4.3766e-18)
(0.99997 -0.00059253 6.1403e-18)
(1.0002 -0.00089401 -2.8518e-17)
(1.0005 -0.00091951 3.9101e-17)
(1.0013 -0.00071108 5.6472e-18)
(0.99875 -0.00052538 1.9284e-17)
(1.0098 0.003024 -1.1979e-17)
(0.98331 -0.0039834 1.0249e-19)
(1.0132 0.019936 5.574e-18)
(1.0034 0.0037604 -2.1404e-18)
(0.99189 0.032154 -9.7097e-19)
(0.99971 0.00015739 -9.2943e-19)
(0.99977 -0.00034265 8.555e-19)
(0.99996 -0.00060783 1.4961e-17)
(1.0002 -0.00092057 7.7745e-18)
(1.0005 -0.00094509 -1.9548e-17)
(1.0013 -0.00073618 -1.1061e-17)
(0.99867 -0.00057046 3.3674e-18)
(1.0101 0.0031461 -5.8238e-18)
(0.98381 -0.0041934 1.2978e-17)
(1.0123 0.019968 -3.659e-18)
(1.004 0.0040182 1.03e-17)
(0.99288 0.031718 -3.546e-18)
(0.99969 0.00016175 -1.6178e-18)
(0.99976 -0.00035336 -8.2466e-18)
(0.99995 -0.00062326 -4.4483e-18)
(1.0002 -0.00094761 3.122e-17)
(1.0005 -0.0009709 -1.7416e-17)
(1.0014 -0.00076215 -9.3687e-19)
(0.99858 -0.00061683 -5.0356e-17)
(1.0103 0.0032653 5.7248e-18)
(0.98432 -0.0043902 -2.4269e-17)
(1.0114 0.01997 -7.9019e-18)
(1.0046 0.0042596 -1.0301e-17)
(0.99382 0.031291 2.1057e-18)
(0.99968 0.00016616 -6.9841e-19)
(0.99975 -0.00036428 5.1092e-18)
(0.99995 -0.00063881 -1.8362e-18)
(1.0002 -0.00097514 -1.8178e-17)
(1.0006 -0.00099695 2.5027e-17)
(1.0014 -0.00078905 -2.303e-18)
(0.9985 -0.00066439 2.6674e-17)
(1.0105 0.0033813 -3.519e-18)
(0.98484 -0.0045736 1.1783e-17)
(1.0107 0.019945 9.883e-18)
(1.0051 0.0044843 8.4972e-18)
(0.9947 0.030872 -5.096e-19)
(0.99966 0.00017063 3.959e-18)
(0.99974 -0.00037541 -3.0569e-18)
(0.99994 -0.00065448 -6.424e-18)
(1.0002 -0.0010032 1.984e-17)
(1.0006 -0.0010232 1.8366e-18)
(1.0015 -0.00081694 2.8552e-17)
(0.99842 -0.00071303 4.6014e-18)
(1.0107 0.0034936 1.6814e-17)
(0.98537 -0.0047437 4.4206e-18)
(1.0101 0.019893 -3.1977e-18)
(1.0056 0.004692 1.1057e-18)
(0.99554 0.030458 4.6111e-19)
(0.99964 0.00017515 1.1289e-18)
(0.99972 -0.00038675 1.2498e-18)
(0.99993 -0.00067028 -5.8251e-18)
(1.0002 -0.0010317 -3.951e-17)
(1.0006 -0.0010497 5.5622e-18)
(1.0016 -0.00084587 2.4763e-18)
(0.99834 -0.00076269 -1.9952e-17)
(1.0108 0.0036017 2.3651e-19)
(0.98589 -0.0049006 1.3025e-17)
(1.0095 0.019818 -2.0558e-18)
(1.006 0.0048829 -5.3828e-18)
(0.99634 0.030051 2.7197e-18)
(0.99963 0.00017973 -4.8341e-18)
(0.99971 -0.00039832 5.2974e-18)
(0.99992 -0.00068621 9.6024e-19)
(1.0002 -0.0010609 2.194e-17)
(1.0006 -0.0010764 -2.5373e-17)
(1.0017 -0.00087591 -1.0937e-17)
(0.99825 -0.00081328 2.0407e-17)
(1.011 0.0037055 -1.1388e-17)
(0.98642 -0.0050448 -2.059e-17)
(1.009 0.01972 -1.0159e-17)
(1.0064 0.0050572 6.8559e-18)
(0.9971 0.029647 9.0732e-19)
(0.99961 0.00018436 -5.1153e-19)
(0.99969 -0.00041011 -5.3307e-18)
(0.99991 -0.00070227 1.0227e-17)
(1.0002 -0.0010905 9.7281e-18)
(1.0006 -0.0011033 3.1338e-17)
(1.0017 -0.00090709 4.2017e-18)
(0.99817 -0.00086474 1.8126e-17)
(1.0112 0.0038045 2.8872e-17)
(0.98695 -0.0051767 -9.0912e-19)
(1.0085 0.019602 1.7869e-17)
(1.0067 0.0052152 -7.2536e-19)
(0.99782 0.029248 -2.6468e-18)
(0.99959 0.00018906 4.958e-18)
(0.99968 -0.00042214 -7.7611e-18)
(0.9999 -0.00071847 -1.5523e-17)
(1.0002 -0.0011208 -2.5856e-18)
(1.0006 -0.0011305 -3.4013e-17)
(1.0018 -0.00093949 -1.2502e-17)
(0.99809 -0.00091706 -6.2915e-18)
(1.0113 0.0038987 2.1578e-19)
(0.98747 -0.005297 2.6794e-17)
(1.0082 0.019466 4.1178e-18)
(1.0071 0.0053576 -9.4101e-18)
(0.99851 0.028852 1.5881e-18)
(0.99958 0.00019381 -5.5585e-18)
(0.99966 -0.0004344 9.6949e-18)
(0.99989 -0.0007348 8.1257e-18)
(1.0003 -0.0011517 -5.1523e-18)
(1.0006 -0.0011578 2.7353e-17)
(1.0019 -0.00097313 1.4957e-17)
(0.99801 -0.00097019 -4.9734e-18)
(1.0115 0.0039877 -2.9095e-17)
(0.98799 -0.0054063 -9.1118e-19)
(1.0079 0.019313 -1.1767e-17)
(1.0074 0.0054848 1.114e-17)
(0.99917 0.02846 -2.0801e-18)
(0.99956 0.00019862 3.34e-18)
(0.99965 -0.00044691 -1.8552e-18)
(0.99988 -0.00075128 1.0759e-17)
(1.0003 -0.0011832 -2.1677e-17)
(1.0006 -0.0011853 8.9316e-18)
(1.002 -0.0010081 -5.373e-18)
(0.99793 -0.0010241 -1.0716e-17)
(1.0116 0.0040715 -2.3354e-18)
(0.9885 -0.0055054 -3.2332e-17)
(1.0076 0.019146 7.7634e-18)
(1.0077 0.0055975 -1.0202e-17)
(0.99981 0.02807 6.9413e-19)
(0.99954 0.00020349 2.6409e-19)
(0.99963 -0.00045967 -5.8361e-18)
(0.99987 -0.0007679 6.1099e-18)
(1.0003 -0.0012153 2.8531e-17)
(1.0006 -0.001213 -2.1273e-17)
(1.0021 -0.0010443 1.7284e-17)
(0.99784 -0.001079 -6.1965e-18)
(1.0117 0.00415 5.4082e-18)
(0.98901 -0.0055951 3.8412e-17)
(1.0074 0.018965 -1.4412e-17)
(1.008 0.0056964 1.5594e-17)
(1.0004 0.027683 1.9641e-18)
(0.99952 0.00020842 4.7399e-19)
(0.99961 -0.00047268 -1.2079e-18)
(0.99985 -0.00078466 -8.79e-18)
(1.0003 -0.0012482 -4.2951e-18)
(1.0006 -0.0012408 1.854e-17)
(1.0022 -0.0010819 1.3759e-19)
(0.99776 -0.0011347 -1.218e-17)
(1.0119 0.004223 -1.2911e-17)
(0.98951 -0.0056762 -1.6079e-17)
(1.0072 0.018771 -1.3607e-18)
(1.0083 0.0057822 2.8561e-18)
(1.001 0.027299 2.0611e-19)
(0.9995 0.00021341 -7.6273e-19)
(0.9996 -0.00048595 1.4373e-17)
(0.99984 -0.00080158 -5.8627e-18)
(1.0003 -0.0012817 -2.4273e-17)
(1.0006 -0.0012689 8.5474e-18)
(1.0023 -0.0011209 -4.4036e-17)
(0.99769 -0.0011913 6.0757e-18)
(1.012 0.0042905 8.1294e-18)
(0.99 -0.0057496 7.4691e-19)
(1.0071 0.018568 1.4638e-17)
(1.0086 0.0058557 -9.5312e-19)
(1.0016 0.026918 -5.489e-18)
(0.99948 0.00021846 -2.0137e-19)
(0.99958 -0.00049949 -2.8206e-19)
(0.99983 -0.00081865 7.8924e-18)
(1.0003 -0.0013159 1.4986e-17)
(1.0006 -0.0012972 -3.3962e-17)
(1.0023 -0.0011612 1.9022e-18)
(0.99761 -0.0012491 1.0882e-17)
(1.0121 0.0043525 1.2732e-17)
(0.99048 -0.005816 -1.0167e-17)
(1.007 0.018355 -1.4252e-17)
(1.0089 0.0059175 -1.5471e-17)
(1.0021 0.026539 5.7972e-18)
(0.99946 0.00022357 -1.3177e-18)
(0.99956 -0.00051331 4.017e-19)
(0.99981 -0.00083587 -3.8054e-18)
(1.0003 -0.0013508 -1.0006e-17)
(1.0005 -0.0013256 1.8826e-17)
(1.0024 -0.0012029 2.3637e-17)
(0.99753 -0.001308 3.1738e-18)
(1.0122 0.004409 6.4517e-18)
(0.99096 -0.0058763 1.6216e-17)
(1.0069 0.018134 2.3986e-18)
(1.0092 0.0059684 1.1439e-17)
(1.0027 0.026162 -3.519e-18)
(0.99944 0.00022874 2.4253e-18)
(0.99954 -0.0005274 7.406e-19)
(0.9998 -0.00085326 -5.4383e-18)
(1.0003 -0.0013865 1.4782e-18)
(1.0005 -0.0013543 -1.0207e-17)
(1.0025 -0.0012459 -5.6698e-18)
(0.99746 -0.0013681 -1.1731e-18)
(1.0123 0.00446 -2.9133e-17)
(0.99143 -0.0059312 3.1826e-18)
(1.0068 0.017906 -4.8636e-18)
(1.0095 0.006009 -4.6525e-18)
(1.0032 0.025789 -4.2424e-18)
(0.99941 0.00023397 -4.9497e-18)
(0.99952 -0.00054177 9.6759e-19)
(0.99979 -0.00087081 2.8847e-18)
(1.0003 -0.001423 -1.8574e-17)
(1.0005 -0.0013831 -1.1636e-17)
(1.0026 -0.0012903 -2.6322e-17)
(0.99739 -0.0014298 5.6611e-18)
(1.0123 0.0045053 1.1896e-17)
(0.99189 -0.0059814 -3.4131e-17)
(1.0068 0.017672 2.2426e-17)
(1.0097 0.0060401 -5.032e-18)
(1.0037 0.025418 2.7358e-18)
(0.99939 0.00023925 4.5436e-18)
(0.9995 -0.00055643 2.1653e-18)
(0.99977 -0.00088854 1.1093e-18)
(1.0003 -0.0014603 5.8908e-18)
(1.0005 -0.0014123 -2.5703e-18)
(1.0028 -0.0013359 5.1018e-17)
(0.99732 -0.001493 2.0326e-17)
(1.0124 0.0045451 -1.8502e-17)
(0.99235 -0.0060276 3.2849e-17)
(1.0068 0.017432 -8.3672e-18)
(1.01 0.0060621 -3.319e-18)
(1.0042 0.02505 -1.3652e-18)
(0.99937 0.0002446 1.1145e-18)
(0.99948 -0.00057139 -1.3712e-17)
(0.99975 -0.00090643 2.2203e-18)
(1.0003 -0.0014984 2.6455e-17)
(1.0005 -0.0014417 1.9891e-17)
(1.0029 -0.0013828 -8.2344e-19)
(0.99726 -0.001558 -2.8159e-17)
(1.0125 0.0045793 5.6026e-18)
(0.9928 -0.0060704 -7.4078e-18)
(1.0068 0.017189 -1.1581e-17)
(1.0103 0.0060756 8.4434e-18)
(1.0047 0.024684 1.2725e-18)
(0.99934 0.00025 -4.408e-18)
(0.99946 -0.00058665 -4.5711e-18)
(0.99974 -0.00092451 -1.2027e-17)
(1.0003 -0.0015373 -2.2187e-17)
(1.0005 -0.0014713 -2.0015e-17)
(1.003 -0.0014309 -2.3185e-17)
(0.9972 -0.001625 5.1998e-18)
(1.0126 0.0046079 4.3555e-17)
(0.99325 -0.0061103 3.2283e-18)
(1.0069 0.016941 -1.0117e-18)
(1.0106 0.0060813 -2.9812e-18)
(1.0051 0.024321 -3.4203e-18)
(0.99932 0.00025546 3.271e-18)
(0.99944 -0.00060222 4.2462e-18)
(0.99972 -0.00094277 1.8534e-17)
(1.0003 -0.0015771 1.5367e-17)
(1.0005 -0.0015013 1.9472e-17)
(1.0031 -0.0014801 -8.6172e-19)
(0.99714 -0.0016941 -2.8972e-17)
(1.0126 0.0046309 -2.3542e-17)
(0.99369 -0.0061479 8.0114e-18)
(1.0069 0.01669 4.0086e-18)
(1.0109 0.0060795 6.7228e-18)
(1.0056 0.023961 2.643e-18)
(0.99929 0.00026098 -2.31e-18)
(0.99942 -0.0006181 6.6612e-18)
(0.9997 -0.00096122 -1.2263e-17)
(1.0003 -0.0016178 2.2242e-18)
(1.0005 -0.0015317 9.0533e-18)
(1.0032 -0.0015304 -2.2665e-18)
(0.99709 -0.0017656 6.5049e-18)
(1.0127 0.0046482 6.5372e-18)
(0.99412 -0.0061836 2.6363e-18)
(1.007 0.016437 9.91e-18)
(1.0112 0.0060707 -8.0856e-18)
(1.0061 0.023604 5.3382e-19)
(0.99927 0.00026655 3.4878e-18)
(0.9994 -0.00063429 4.1283e-19)
(0.99968 -0.00097988 -5.7402e-18)
(1.0003 -0.0016593 8.853e-19)
(1.0004 -0.0015625 -1.4876e-18)
(1.0033 -0.0015817 -2.239e-17)
(0.99704 -0.0018396 1.8162e-17)
(1.0127 0.0046598 2.3201e-17)
(0.99455 -0.0062178 -1.3127e-17)
(1.0071 0.016181 -1.379e-17)
(1.0114 0.0060554 -2.3641e-18)
(1.0065 0.02325 4.547e-18)
(0.99924 0.00027217 -2.5336e-18)
(0.99937 -0.00065081 -3.1796e-19)
(0.99966 -0.00099873 7.1369e-18)
(1.0003 -0.0017018 -1.7005e-17)
(1.0004 -0.0015938 -1.3449e-17)
(1.0034 -0.0016339 2.8267e-17)
(0.997 -0.0019163 -2.7775e-18)
(1.0128 0.0046656 -2.4566e-17)
(0.99497 -0.0062509 3.344e-18)
(1.0071 0.015924 1.2984e-17)
(1.0117 0.0060337 8.0131e-18)
(1.0069 0.022898 -1.6396e-18)
(0.99922 0.00027784 2.5177e-19)
(0.99935 -0.00066766 2.3289e-18)
(0.99964 -0.0010178 3.8996e-18)
(1.0003 -0.0017452 8.7908e-18)
(1.0004 -0.0016256 2.636e-17)
(1.0035 -0.001687 6.5906e-18)
(0.99696 -0.0019959 -2.4185e-17)
(1.0128 0.0046657 2.302e-18)
(0.99539 -0.006283 8.6135e-18)
(1.0072 0.015665 -1.1699e-17)
(1.012 0.0060062 -5.4184e-18)
(1.0074 0.022549 -1.897e-18)
(0.99919 0.00028357 7.1487e-19)
(0.99933 -0.00068484 -4.0509e-19)
(0.99962 -0.0010371 -1.029e-17)
(1.0003 -0.0017895 -1.8904e-19)
(1.0004 -0.0016581 -5.2117e-17)
(1.0036 -0.0017407 8.1263e-18)
(0.99692 -0.0020787 2.3757e-17)
(1.0128 0.0046599 -6.614e-18)
(0.99581 -0.0063146 -9.0202e-18)
(1.0073 0.015405 1.9427e-17)
(1.0122 0.0059731 6.4843e-18)
(1.0078 0.022203 4.9172e-18)
(0.99916 0.00028933 7.6792e-19)
(0.9993 -0.00070236 -8.4064e-19)
(0.9996 -0.0010566 1.8609e-17)
(1.0003 -0.0018348 4.0547e-18)
(1.0003 -0.0016912 4.6185e-17)
(1.0038 -0.0017952 -2.8639e-17)
(0.9969 -0.0021647 -7.9557e-18)
(1.0129 0.0046483 6.2251e-18)
(0.99622 -0.0063457 3.1078e-18)
(1.0074 0.015144 -1.0931e-17)
(1.0125 0.0059346 -1.0494e-18)
(1.0082 0.021859 -3.626e-18)
(0.99913 0.00029515 -3.0011e-18)
(0.99928 -0.00072023 1.4114e-18)
(0.99958 -0.0010764 -1.0937e-17)
(1.0003 -0.001881 5.3317e-18)
(1.0003 -0.0017251 -1.7549e-17)
(1.0039 -0.0018503 3.8839e-18)
(0.99687 -0.002254 3.1854e-17)
(1.0129 0.0046308 -2.3299e-17)
(0.99663 -0.0063767 -1.1423e-17)
(1.0075 0.014883 -1.0814e-17)
(1.0128 0.0058909 -5.1571e-18)
(1.0086 0.021518 -9.9581e-19)
(0.9991 0.000301 3.7382e-18)
(0.99925 -0.00073845 -3.3521e-18)
(0.99955 -0.0010964 -1.0614e-17)
(1.0003 -0.0019281 -8.5019e-18)
(1.0003 -0.0017599 -2.8691e-17)
(1.004 -0.0019059 -1.8015e-17)
(0.99686 -0.002347 -1.9532e-17)
(1.0129 0.0046074 2.1664e-17)
(0.99703 -0.0064076 1.1074e-17)
(1.0076 0.014621 1.6377e-17)
(1.013 0.0058423 -2.0194e-18)
(1.009 0.02118 4.8072e-18)
(0.99907 0.00030689 -6.0081e-18)
(0.99922 -0.00075702 5.4313e-18)
(0.99953 -0.0011168 2.5989e-17)
(1.0003 -0.0019763 -2.0053e-18)
(1.0002 -0.0017956 3.1744e-17)
(1.0041 -0.0019619 1.3581e-18)
(0.99685 -0.0024436 -1.8707e-17)
(1.013 0.004578 8.4787e-18)
(0.99743 -0.0064385 -3.9936e-18)
(1.0077 0.014359 -3.4291e-18)
(1.0133 0.005789 6.5513e-18)
(1.0093 0.020844 -3.2508e-18)
(0.99904 0.00031281 4.9236e-18)
(0.9992 -0.00077594 -7.3814e-18)
(0.9995 -0.0011374 -3.0301e-17)
(1.0003 -0.0020254 1.3119e-17)
(1.0002 -0.0018324 -2.2616e-17)
(1.0042 -0.0020184 2.4902e-17)
(0.99685 -0.0025439 6.0974e-18)
(1.013 0.0045427 -8.0714e-18)
(0.99782 -0.0064696 -1.9166e-18)
(1.0078 0.014097 -8.5888e-18)
(1.0135 0.0057311 -1.0682e-17)
(1.0097 0.020511 4.4942e-18)
(0.99901 0.00031877 -3.6267e-18)
(0.99917 -0.00079524 2.4545e-18)
(0.99948 -0.0011583 1.8412e-17)
(1.0003 -0.0020754 -1.7294e-17)
(1.0002 -0.0018704 3.6389e-17)
(1.0043 -0.0020753 -1.9329e-17)
(0.99685 -0.0026481 3.5545e-18)
(1.013 0.0045014 -1.2757e-17)
(0.99821 -0.006501 6.256e-18)
(1.0079 0.013835 -1.2018e-18)
(1.0138 0.0056688 4.572e-18)
(1.0101 0.02018 -1.9983e-18)
(0.99897 0.00032475 4.4481e-18)
(0.99914 -0.00081489 1.9109e-18)
(0.99945 -0.0011795 -1.2275e-17)
(1.0003 -0.0021265 -3.5171e-19)
(1.0001 -0.0019096 -1.6066e-18)
(1.0045 -0.0021325 4.6744e-18)
(0.99686 -0.0027562 3.3751e-17)
(1.013 0.0044543 8.7261e-18)
(0.99859 -0.0065326 -1.8542e-17)
(1.008 0.013572 -6.2295e-18)
(1.014 0.0056021 -4.3021e-18)
(1.0104 0.019852 2.1004e-18)
(0.99894 0.00033075 -5.0984e-18)
(0.99911 -0.00083492 -7.0813e-18)
(0.99942 -0.0012011 5.1499e-18)
(1.0003 -0.0021785 1.4964e-17)
(1.0001 -0.0019503 -3.3009e-17)
(1.0046 -0.0021901 1.5706e-17)
(0.99687 -0.0028682 -3.2497e-17)
(1.013 0.0044012 1.0467e-17)