/*--------------------------------*- C++ -*----------------------------------*\
  =========                 |
  \\      /  F ield         | OpenFOAM: The Open Source CFD Toolbox
   \\    /   O peration     | Website:  https://openfoam.org
    \\  /    A nd           | Version:  6.0
     \\/     M anipulation  |
\*---------------------------------------------------------------------------*/
FoamFile
{
    version     2.0;
    format      ascii;
    class       volVectorField;
    location    "6";
    object      U;
}
// * * * * * * * * * * * * * * * * * * * * * * * * * * * * * * * * * * * * * //

dimensions      [0 1 -1 0 0 0 0];

internalField   nonuniform List<vector> 
15500
(
(0.996151 0.0869557 -1.97488e-20)
(0.996148 0.0870129 2.31285e-21)
(0.996145 0.0870727 4.66373e-20)
(0.996141 0.0871198 1.21015e-19)
(0.996137 0.087163 -2.27048e-19)
(0.996134 0.0871968 -4.23492e-20)
(0.996133 0.0872258 3.20176e-19)
(0.996132 0.0872453 2.34686e-20)
(0.996132 0.0872604 9.5642e-21)
(0.996133 0.0872659 -2.51127e-19)
(0.996134 0.0872646 6.71029e-19)
(0.996134 0.0872505 -4.93458e-19)
(0.996136 0.0872259 -3.78409e-20)
(0.996137 0.0871856 -4.64063e-19)
(0.996139 0.0871419 2.89473e-19)
(0.996138 0.0870888 -4.42279e-19)
(0.996135 0.0870268 1.0452e-18)
(0.996129 0.0869532 -1.37255e-18)
(0.996107 0.0868932 5.66125e-19)
(0.996058 0.0868714 -1.88612e-18)
(0.995965 0.0868886 2.17261e-18)
(0.995804 0.0869228 5.7723e-19)
(0.995547 0.0869178 -3.76107e-19)
(0.995159 0.0867624 -5.15873e-18)
(0.994627 0.0862688 9.88065e-18)
(0.993997 0.0851999 4.97537e-18)
(0.993407 0.0833653 -4.82849e-18)
(0.993124 0.0806126 -5.56009e-18)
(0.994002 0.0768549 -7.84799e-18)
(0.983581 0.0696855 8.30737e-18)
(0.996214 0.0867141 -2.3457e-20)
(0.99623 0.0867957 7.73976e-20)
(0.996237 0.0869107 -2.28577e-20)
(0.996238 0.0870055 8.20156e-20)
(0.996234 0.0870989 -2.7249e-19)
(0.996227 0.0871827 -2.05597e-19)
(0.996215 0.0872648 5.7294e-20)
(0.996201 0.0873361 -2.94309e-19)
(0.996185 0.0874098 5.35095e-19)
(0.996166 0.0874702 -1.84005e-19)
(0.996146 0.0875316 1.66937e-19)
(0.996121 0.0875723 3.17844e-19)
(0.996103 0.0876091 -1.44506e-19)
(0.99609 0.0876338 8.23546e-20)
(0.996085 0.0876708 -1.06034e-19)
(0.996072 0.0877149 -3.10095e-19)
(0.996053 0.0877618 7.63468e-19)
(0.996016 0.0878111 -1.05292e-19)
(0.995931 0.0878916 1.38004e-18)
(0.995776 0.0880161 2.55767e-18)
(0.995517 0.0881479 -2.07549e-18)
(0.995114 0.0881874 1.14873e-18)
(0.994515 0.0879616 -1.96117e-18)
(0.993686 0.0872053 -5.42159e-19)
(0.992659 0.0855697 -6.85075e-18)
(0.991601 0.0827505 -6.60178e-19)
(0.990867 0.0786343 3.05555e-19)
(0.990956 0.0733543 2.25094e-18)
(0.993673 0.0677835 1.88056e-17)
(0.979776 0.059616 9.10561e-20)
(0.996273 0.0878546 6.32489e-20)
(0.996316 0.0878417 -6.06727e-20)
(0.996345 0.0879111 -3.70269e-20)
(0.996363 0.0879714 -1.12719e-19)
(0.996373 0.088036 2.25018e-19)
(0.996371 0.0881001 -3.19632e-19)
(0.996361 0.0881683 1.97206e-19)
(0.996342 0.0882296 1.4978e-19)
(0.996316 0.0882998 -8.6843e-20)
(0.996282 0.0883605 -2.88143e-19)
(0.996244 0.0884335 1.09893e-19)
(0.996198 0.0884881 4.00616e-19)
(0.99616 0.0885587 -2.01253e-19)
(0.996134 0.0886292 2.17679e-19)
(0.996122 0.0887265 -4.70267e-19)
(0.99611 0.0888418 6.80108e-19)
(0.996097 0.0889662 -1.11203e-18)
(0.996069 0.0890949 8.84515e-19)
(0.995998 0.0892501 -1.67001e-18)
(0.995863 0.0894379 1.16309e-18)
(0.995637 0.0895982 1.16364e-18)
(0.995298 0.0895971 -1.44519e-18)
(0.994807 0.0892247 3.26562e-18)
(0.994154 0.0881938 -1.89167e-19)
(0.993392 0.0861707 -3.86185e-18)
(0.992696 0.0829431 -6.36252e-18)
(0.992409 0.0785437 -9.99159e-18)
(0.992919 0.0732684 4.05808e-18)
(0.996314 0.0688941 -1.20554e-17)
(0.987377 0.0671283 -9.66556e-18)
(0.996152 0.0897197 -2.24927e-20)
(0.99622 0.0896096 9.59299e-20)
(0.996273 0.08959 -4.31126e-20)
(0.996316 0.0895696 -3.32128e-20)
(0.996347 0.0895566 -8.15767e-20)
(0.996366 0.0895524 -2.6574e-19)
(0.996372 0.0895594 2.02921e-19)
(0.996366 0.0895674 1.78181e-19)
(0.99635 0.0895914 -8.95103e-20)
(0.996324 0.0896102 1.35405e-19)
(0.996291 0.0896488 -6.5177e-20)
(0.99625 0.0896685 4.64159e-20)
(0.996214 0.089717 -4.35462e-20)
(0.99619 0.0897704 1.67895e-21)
(0.996182 0.0898505 -6.22452e-19)
(0.99618 0.0899471 1.28241e-18)
(0.996188 0.0900434 -1.14803e-18)
(0.996193 0.0901341 3.88856e-19)
(0.996177 0.0902387 1.67834e-18)
(0.996123 0.0903575 -1.57612e-18)
(0.996022 0.090431 -6.3219e-19)
(0.99587 0.0903239 1.75018e-18)
(0.995648 0.0898377 -1.33285e-18)
(0.995361 0.0887154 -7.71683e-19)
(0.995063 0.0866821 1.10495e-17)
(0.994882 0.0836137 4.09684e-18)
(0.995077 0.0796385 5.47659e-18)
(0.995891 0.0750728 -2.76888e-18)
(0.999244 0.0722944 4.05157e-18)
(0.995118 0.0752201 3.55196e-18)
(0.995832 0.0915646 -1.59238e-20)
(0.99592 0.091389 -6.06516e-20)
(0.995997 0.0913024 5.59762e-20)
(0.996066 0.0912218 2.60175e-19)
(0.996125 0.091146 -2.82578e-19)
(0.996171 0.0910805 -3.5357e-20)
(0.996205 0.0910267 1.65199e-19)
(0.996226 0.0909756 -3.99637e-19)
(0.996235 0.0909419 -2.92995e-19)
(0.996234 0.0909047 8.26872e-19)
(0.996226 0.0908892 -4.65106e-19)
(0.99621 0.0908541 6.11061e-19)
(0.996194 0.0908529 -3.47641e-19)
(0.996184 0.0908547 4.10255e-19)
(0.996186 0.0908749 -8.32891e-20)
(0.996199 0.0908994 -8.0502e-20)
(0.996226 0.0909119 2.31887e-19)
(0.996265 0.0909005 -6.05489e-19)
(0.996301 0.0908809 -1.59741e-18)
(0.996326 0.0908586 5.79505e-19)
(0.996343 0.0907759 -9.54147e-19)
(0.99636 0.0905098 -8.10663e-19)
(0.996378 0.0898852 -1.63946e-19)
(0.996413 0.0886838 7.81273e-18)
(0.996513 0.0866895 -3.43396e-18)
(0.996762 0.083841 -7.69714e-18)
(0.997344 0.0803267 -4.00945e-18)
(0.998407 0.0764138 2.12601e-18)
(1.00147 0.0748172 -1.25996e-17)
(1.00001 0.0799316 -1.08872e-18)
(0.995377 0.0931841 3.29662e-20)
(0.995477 0.0929994 3.95624e-21)
(0.995572 0.0928675 -8.58125e-20)
(0.995664 0.0927359 -3.1946e-20)
(0.99575 0.0926032 -1.04643e-20)
(0.995827 0.09248 5.39244e-19)
(0.995893 0.0923688 -2.74834e-19)
(0.995947 0.0922632 -1.55298e-20)
(0.99599 0.092177 -1.05178e-20)
(0.996023 0.0920885 -4.60928e-20)
(0.996049 0.092022 -2.58314e-19)
(0.996068 0.0919324 2.07648e-19)
(0.996081 0.0918756 9.7414e-19)
(0.996088 0.0918161 7.39144e-20)
(0.996101 0.0917605 -1.88493e-19)
(0.996124 0.0916962 -6.68171e-19)
(0.996165 0.0915984 7.54163e-19)
(0.996225 0.0914564 -4.15763e-19)
(0.996297 0.091286 9.05593e-19)
(0.996379 0.091088 -1.24053e-19)
(0.996479 0.0908135 1.64752e-18)
(0.996618 0.0903534 -3.3029e-19)
(0.996811 0.0895577 -1.54268e-18)
(0.997083 0.0882473 -7.63696e-18)
(0.997483 0.0862575 -3.11691e-18)
(0.998064 0.0835768 6.16505e-18)
(0.998946 0.0804316 1.16595e-18)
(1.00025 0.0770219 5.4064e-18)
(1.003 0.076221 1.48545e-17)
(1.00267 0.0825171 2.85618e-18)
(0.994894 0.0943975 -2.38013e-21)
(0.99499 0.0942066 -5.00677e-20)
(0.995088 0.0940712 -1.67299e-20)
(0.99519 0.0939343 4.66926e-20)
(0.995294 0.0937894 -9.1572e-20)
(0.995394 0.0936466 -9.03826e-20)
(0.995488 0.0935088 1.59959e-19)
(0.995573 0.09337 3.44004e-19)
(0.995649 0.0932448 -3.2526e-19)
(0.995716 0.093114 3.92106e-19)
(0.995777 0.0930014 -7.95718e-19)
(0.995832 0.0928628 2.06412e-19)
(0.995874 0.0927522 -3.68378e-19)
(0.995897 0.0926294 6.62969e-19)
(0.995915 0.0924963 -2.01627e-19)
(0.995942 0.0923354 -1.30268e-19)
(0.99599 0.0921229 4.2284e-19)
(0.996062 0.0918439 -8.55236e-19)
(0.996155 0.0915098 7.25213e-19)
(0.996272 0.091128 2.14146e-19)
(0.996427 0.0906522 -1.49878e-18)
(0.996649 0.0899879 -5.77403e-19)
(0.996961 0.0890084 1.44092e-18)
(0.997402 0.0875715 2.07531e-18)
(0.998022 0.0855558 2.01202e-18)
(0.998855 0.0829896 -7.1946e-19)
(0.999972 0.0801253 3.20243e-18)
(1.00151 0.0771036 -4.08367e-18)
(1.00401 0.0768547 -7.57423e-18)
(1.004 0.0840492 -6.83211e-19)
(0.994416 0.0953984 -1.26199e-20)
(0.994498 0.0952337 4.48256e-20)
(0.99459 0.0950896 5.69694e-20)
(0.994693 0.0949367 -5.36659e-20)
(0.994806 0.0947698 -1.43613e-19)
(0.99492 0.094602 3.42241e-22)
(0.995034 0.0944371 4.01877e-19)
(0.995142 0.0942707 -5.83153e-19)
(0.995245 0.0941169 3.63876e-19)
(0.99534 0.0939554 5.44115e-19)
(0.99543 0.0938086 -8.08087e-19)
(0.995514 0.09363 -1.21911e-19)
(0.99558 0.0934715 -1.3535e-19)
(0.995613 0.0932903 1.71242e-19)
(0.99563 0.0930821 -7.48732e-19)
(0.995655 0.09283 7.76144e-19)
(0.995702 0.0925041 1.60847e-19)
(0.995776 0.0920915 -6.37153e-19)
(0.995881 0.0916041 1.1894e-19)
(0.996018 0.0910445 2.58901e-19)
(0.996208 0.0903756 1.05763e-18)
(0.996484 0.0895144 -1.0936e-18)
(0.996878 0.0883569 1.41395e-18)
(0.997438 0.0867914 3.58713e-18)
(0.998217 0.084735 -8.36183e-19)
(0.999239 0.0822455 -6.0302e-18)
(1.00054 0.0795968 -2.75073e-18)
(1.00231 0.0768787 1.50501e-18)
(1.00465 0.0770313 1.33287e-18)
(1.00463 0.0850515 5.65077e-19)
(0.993973 0.0960487 2.55605e-20)
(0.994034 0.0958837 -1.58689e-20)
(0.99411 0.0957613 6.86072e-20)
(0.994203 0.0956318 1.1782e-20)
(0.994312 0.0954845 1.27206e-19)
(0.99443 0.0953286 -3.29558e-19)
(0.994553 0.0951668 2.56346e-19)
(0.994675 0.0949937 8.41909e-20)
(0.994794 0.0948237 -3.3554e-19)
(0.994908 0.0946393 3.99021e-20)
(0.99502 0.0944618 6.99931e-19)
(0.995124 0.0942477 -6.3241e-19)
(0.995207 0.0940459 4.55651e-19)
(0.995242 0.0938096 -2.71503e-19)
(0.995252 0.0935324 -7.23939e-20)
(0.995269 0.0931941 4.41873e-19)
(0.995309 0.0927681 7.03079e-19)
(0.99538 0.0922347 8.40853e-19)
(0.995487 0.0916036 -5.35929e-19)
(0.995635 0.0908851 -1.18344e-18)
(0.995847 0.0900426 -1.44421e-18)
(0.996157 0.0890047 -1.23676e-18)
(0.996607 0.0876863 -6.47903e-19)
(0.99725 0.0860008 2.04005e-18)
(0.998145 0.0838986 9.63844e-19)
(0.999313 0.0814584 1.23824e-18)
(1.00077 0.0789752 1.35592e-18)
(1.00276 0.0765 -2.25817e-18)
(1.00502 0.076963 2.14007e-18)
(1.0049 0.0857903 -5.88072e-19)
(0.993545 0.0966472 -4.63334e-20)
(0.993582 0.0965155 9.8167e-20)
(0.993638 0.0963907 -3.6623e-20)
(0.993715 0.0962529 -1.26827e-20)
(0.993813 0.0960931 9.89791e-20)
(0.993927 0.0959242 -2.57993e-19)
(0.994049 0.0957489 2.70819e-19)
(0.994176 0.0955626 2.29535e-19)
(0.994304 0.0953782 -3.37993e-19)
(0.994429 0.0951758 1.39077e-19)
(0.994553 0.0949753 4.90751e-19)
(0.99467 0.0947314 -8.33751e-19)
(0.994762 0.0944911 -1.84458e-19)
(0.994794 0.0942055 1.97391e-19)
(0.99479 0.0938655 1.20036e-19)
(0.994793 0.0934541 7.56624e-20)
(0.994822 0.0929361 -4.73358e-19)
(0.994885 0.0922953 -9.22897e-19)
(0.994988 0.0915439 7.88779e-19)
(0.995141 0.090686 1.24946e-19)
(0.995365 0.0896931 2.91816e-18)
(0.995698 0.088503 -6.19251e-19)
(0.996187 0.087045 -6.62912e-19)
(0.99689 0.0852551 -4.6146e-18)
(0.997871 0.0831092 -3.99631e-19)
(0.999153 0.0807044 5.49059e-19)
(1.00074 0.078351 -2.13582e-18)
(1.00294 0.0760765 3.68261e-18)
(1.00519 0.0767897 3.09379e-18)
(1.005 0.0864176 -4.23523e-19)
(0.993129 0.096995 -3.31381e-20)
(0.993139 0.0968581 2.19625e-20)
(0.993169 0.0967585 1.53093e-19)
(0.993224 0.0966486 -2.07977e-19)
(0.993305 0.0965149 2.68189e-19)
(0.993406 0.0963654 -5.09145e-20)
(0.993521 0.0962014 -1.29609e-19)
(0.993646 0.0960163 -4.05916e-19)
(0.993775 0.0958228 2.21103e-19)
(0.993904 0.0956042 1.78007e-19)
(0.994033 0.0953798 -2.88179e-21)
(0.994156 0.0951079 1.2066e-19)
(0.994251 0.0948318 -7.48013e-19)
(0.994274 0.0945 4.05803e-19)
(0.994252 0.0941053 2.0274e-19)
(0.994238 0.0936267 -4.15611e-20)
(0.994252 0.0930319 8.38615e-19)
(0.994305 0.0923005 -7.70002e-20)
(0.994402 0.0914415 -9.42425e-19)
(0.994556 0.0904681 -6.53631e-19)
(0.994785 0.0893502 -3.88582e-19)
(0.995134 0.0880338 5.33743e-19)
(0.995649 0.0864597 -5.74882e-20)
(0.996397 0.0845824 -1.14612e-18)
(0.997444 0.0823974 -4.31481e-18)
(0.998821 0.0800182 -6.7454e-19)
(1.00052 0.077767 5.70509e-18)
(1.00293 0.0756624 -3.2264e-18)
(1.00521 0.0765903 1.31018e-18)
(1.00503 0.0870115 4.49254e-19)
(0.992709 0.097416 2.11247e-20)
(0.992692 0.0973064 -5.38708e-20)
(0.992696 0.0971944 -2.69322e-20)
(0.992727 0.0970663 2.3942e-19)
(0.992787 0.096912 -8.28138e-20)
(0.992871 0.0967446 -3.4926e-19)
(0.992974 0.0965654 2.47084e-19)
(0.99309 0.0963681 -5.3204e-19)
(0.993213 0.0961637 1.1122e-19)
(0.993339 0.0959318 1.30701e-19)
(0.993466 0.0956906 1.77219e-19)
(0.993586 0.0953951 -6.59745e-19)
(0.993678 0.0950872 1.30101e-18)
(0.993688 0.0947147 -3.60002e-19)
(0.993646 0.0942709 -1.48257e-18)
(0.993615 0.093736 1.02042e-18)
(0.993614 0.0930716 -2.22176e-19)
(0.993652 0.0922618 -8.21889e-19)
(0.993742 0.091318 -5.81677e-19)
(0.993892 0.0902472 2.95052e-19)
(0.994126 0.0890268 -1.86273e-19)
(0.994485 0.0876067 -1.56847e-19)
(0.995021 0.0859384 3.7843e-18)
(0.995803 0.0839897 3.16632e-18)
(0.996903 0.0817734 -2.48477e-19)
(0.99836 0.0794145 -1.90277e-18)
(1.00016 0.0772485 -1.42407e-18)
(1.00277 0.0752878 1.10012e-18)
(1.00514 0.0764065 -1.07729e-18)
(1.00504 0.0876082 -8.14784e-20)
(0.992295 0.0976126 -1.99799e-20)
(0.992249 0.0974835 -1.34242e-20)
(0.992224 0.0973945 3.17567e-20)
(0.992227 0.0972938 -7.75072e-20)
(0.992262 0.0971666 4.0394e-20)
(0.992323 0.0970205 1.47403e-19)
(0.992406 0.0968546 1.06822e-19)
(0.992506 0.0966611 -1.76926e-19)
(0.992617 0.0964504 3.94043e-19)
(0.992733 0.0962054 -5.48294e-19)
(0.992851 0.095943 4.99864e-19)
(0.992963 0.0956222 -7.39208e-19)
(0.993047 0.0952825 5.36937e-19)
(0.993043 0.0948702 -8.39099e-19)
(0.99298 0.0943819 1.08766e-18)
(0.992931 0.0937937 4.10429e-19)
(0.992913 0.0930738 -1.76842e-18)
(0.992939 0.0921983 1.71634e-18)
(0.993021 0.091178 -5.5249e-19)
(0.993166 0.0900294 -1.78643e-18)
(0.993401 0.0887266 2.50797e-19)
(0.993767 0.0872239 8.74696e-19)
(0.99432 0.0854808 -1.13878e-18)
(0.99513 0.0834743 -2.48702e-18)
(0.996277 0.0812326 4.12162e-18)
(0.997805 0.0788881 3.64623e-18)
(0.999703 0.0767923 -2.1889e-18)
(1.00251 0.0749558 2.086e-18)
(1.00499 0.0762529 -5.52349e-19)
(1.00504 0.0882253 -5.90571e-19)
(0.991865 0.0979586 -1.37539e-20)
(0.991789 0.0978578 1.37435e-20)
(0.991735 0.0977519 -3.80569e-21)
(0.991708 0.0976278 2.21459e-20)
(0.991714 0.0974735 -1.46951e-19)
(0.99175 0.0973039 9.6008e-20)
(0.991809 0.0971184 -2.52617e-19)
(0.991888 0.0969096 4.71111e-19)
(0.991981 0.0966861 -3.97679e-19)
(0.992081 0.0964264 1.0434e-19)
(0.992185 0.0961462 5.32976e-19)
(0.992286 0.0958011 5.26762e-20)
(0.992359 0.0954306 -5.95534e-20)
(0.99234 0.0949816 -6.17545e-19)
(0.992259 0.0944516 2.13026e-19)
(0.992192 0.0938203 -6.75973e-19)
(0.992158 0.0930471 1.34351e-18)
(0.992173 0.0921137 6.08122e-19)
(0.992245 0.0910349 -3.67434e-19)
(0.992387 0.0898202 1.31103e-18)
(0.992623 0.0884499 2.08818e-18)
(0.992995 0.0868811 -2.27745e-18)
(0.993562 0.0850778 -4.62117e-18)
(0.994397 0.0830256 6.2765e-19)
(0.995584 0.0807635 -1.28898e-18)
(0.99718 0.078432 -8.65518e-19)
(0.999175 0.0763945 2.91867e-18)
(1.00218 0.0746671 -1.10471e-18)
(1.00479 0.0761305 -2.49094e-19)
(1.00506 0.0888616 -1.00086e-18)
(0.991416 0.0981076 1.69848e-20)
(0.991307 0.0979862 3.59106e-20)
(0.991219 0.0979036 -1.53053e-21)
(0.991159 0.0978054 3.5122e-20)
(0.991134 0.0976759 -2.44019e-19)
(0.99114 0.0975237 1.90698e-19)
(0.991172 0.0973473 3.31807e-19)
(0.991227 0.0971376 -3.84559e-19)
(0.991298 0.0969027 -5.97979e-20)
(0.99138 0.0966256 -1.91142e-19)
(0.991468 0.0963215 7.63635e-19)
(0.991554 0.0959499 -2.6701e-19)
(0.991615 0.0955476 -3.28495e-19)
(0.991583 0.0950617 -1.33438e-19)
(0.991485 0.0944944 5.66115e-19)
(0.991403 0.0938202 2.09037e-19)
(0.991356 0.0930034 -4.07771e-19)
(0.99136 0.0920207 -2.18295e-20)
(0.991425 0.0908856 -5.76601e-19)
(0.991565 0.0896182 -9.14384e-19)
(0.991801 0.088194 -1.82765e-18)
(0.992179 0.0865727 2.94307e-18)
(0.992758 0.0847209 2.39486e-18)
(0.993617 0.0826315 -3.87415e-20)
(0.994843 0.0803506 2.80111e-18)
(0.996507 0.0780279 -1.06656e-18)
(0.998599 0.0760371 -1.62957e-18)
(1.0018 0.0744079 -9.65112e-19)
(1.00457 0.0760335 -1.11214e-18)
(1.00509 0.0895191 1.68778e-18)
(0.990942 0.0984576 -6.44121e-21)
(0.990798 0.0983611 1.91514e-20)
(0.990676 0.0982522 2.60375e-22)
(0.990582 0.0981203 -1.99555e-19)
(0.990524 0.0979535 -1.41394e-21)
(0.990499 0.0977691 2.18599e-19)
(0.990501 0.0975655 -2.73573e-19)
(0.990529 0.0973348 4.12426e-19)
(0.990575 0.0970834 1.7281e-19)
(0.990634 0.0967893 9.10998e-21)
(0.990702 0.0964672 -6.58927e-19)
(0.99077 0.0960716 3.45849e-19)
(0.990818 0.0956394 9.12814e-19)
(0.990773 0.0951198 -7.29428e-19)
(0.990662 0.0945171 5.04333e-19)
(0.990567 0.0938062 -5.01637e-19)
(0.990511 0.0929453 3.43061e-19)
(0.990505 0.0919172 -3.22558e-19)
(0.990566 0.0907391 1.31393e-18)
(0.990703 0.0894241 5.1178e-19)
(0.990941 0.0879546 2.13563e-18)
(0.991325 0.0862892 -1.38161e-18)
(0.991917 0.0843977 -3.67906e-18)
(0.992799 0.082277 9.18445e-19)
(0.994064 0.0799801 -4.59307e-18)
(0.995794 0.077663 4.52679e-18)
(0.997988 0.0757125 -2.23814e-18)
(1.00139 0.0741696 3.59328e-18)
(1.00434 0.0759543 4.423e-19)
(1.00515 0.0901847 9.52937e-19)
(0.99046 0.0985827 1.37286e-20)
(0.99028 0.0984551 8.16109e-21)
(0.990121 0.0983696 -1.03179e-19)
(0.98999 0.0982647 2.77594e-20)
(0.989894 0.0981238 2.16739e-20)
(0.989833 0.0979576 1.00967e-20)
(0.989801 0.0977626 -5.06676e-20)
(0.989796 0.0975302 4.69997e-19)
(0.989812 0.0972662 -6.99241e-19)
(0.989844 0.0969537 5.85384e-19)
(0.989886 0.0966063 -5.09245e-20)
(0.989934 0.0961829 -3.69613e-19)
(0.989968 0.0957186 4.50168e-19)
(0.989913 0.0951637 -7.32043e-19)
(0.989792 0.094527 2.51222e-19)
(0.989689 0.0937774 -4.98977e-19)
(0.989624 0.0928808 1.14678e-18)
(0.989613 0.0918116 1.01316e-18)
(0.989671 0.0905877 1.42722e-18)
(0.989807 0.0892338 -6.58335e-19)
(0.990048 0.0877264 -2.40161e-18)
(0.990439 0.0860242 -4.78918e-19)
(0.991045 0.0840991 1.35314e-18)
(0.991951 0.0819496 2.9267e-18)
(0.993258 0.0796361 2.02852e-18)
(0.995057 0.0773184 -9.30716e-18)
(0.997359 0.0754006 1.52579e-18)
(1.00096 0.0739367 -3.9654e-18)
(1.00411 0.0758835 8.4741e-20)
(1.00523 0.0908616 -1.17855e-18)
(0.989954 0.0989408 5.48828e-21)
(0.989735 0.0988423 -5.93127e-20)
(0.989537 0.0987294 -3.83038e-20)
(0.989365 0.0985889 1.05496e-19)
(0.98923 0.0984071 -1.94851e-19)
(0.98913 0.0982047 1.26764e-19)
(0.98906 0.0979789 -2.46134e-19)
(0.98902 0.0977213 -1.11584e-19)
(0.989002 0.097437 5.81466e-20)
(0.989004 0.0971034 2.20247e-19)
(0.98902 0.0967336 -3.40974e-21)
(0.989046 0.0962823 2.39706e-19)
(0.989065 0.0957856 1.79109e-19)
(0.989004 0.0951967 8.53887e-19)
(0.988876 0.0945259 -1.51382e-19)
(0.988768 0.093744 3.1843e-19)
(0.988698 0.0928078 -1.74677e-18)
(0.988685 0.0916984 -6.22462e-19)
(0.988741 0.0904387 -1.84248e-18)
(0.98888 0.0890462 7.82964e-19)
(0.989126 0.0875034 1.93756e-18)
(0.989526 0.0857684 4.49048e-19)
(0.990147 0.0838128 7.67287e-19)
(0.991078 0.0816369 4.82731e-19)
(0.992428 0.079306 3.16355e-18)
(0.9943 0.0769856 4.79095e-18)
(0.996715 0.0750941 -2.86089e-18)
(1.00053 0.0737032 -3.77974e-19)
(1.0039 0.0758114 -2.85996e-19)
(1.00534 0.0915375 -2.9496e-19)
(0.989418 0.0990838 5.79152e-21)
(0.989157 0.0989557 -7.36325e-20)
(0.988916 0.0988675 1.29891e-19)
(0.988701 0.0987532 -1.92209e-19)
(0.988524 0.0985953 2.53403e-19)
(0.988382 0.0984073 2.21053e-19)
(0.988271 0.0981855 -2.5212e-19)
(0.988194 0.0979205 1.26877e-19)
(0.988142 0.097617 -5.26099e-19)
(0.988112 0.097259 1.45998e-19)
(0.988101 0.0968594 -1.10081e-19)
(0.988106 0.096377 -8.02044e-19)
(0.98811 0.0958458 1.7959e-19)
(0.988045 0.0952211 1.02806e-18)
(0.987915 0.0945183 -2.6014e-19)
(0.987805 0.0937009 1.95537e-19)
(0.987734 0.0927309 -6.75413e-19)
(0.987722 0.0915832 1.2502e-18)
(0.98778 0.0902816 -5.48777e-19)
(0.987924 0.0888556 -2.72423e-18)
(0.988176 0.0872813 -3.46558e-19)
(0.988587 0.0855165 5.86994e-19)
(0.989225 0.0835315 -7.62059e-19)
(0.990185 0.0813292 -3.60678e-18)
(0.991581 0.0789766 -4.71128e-18)
(0.993533 0.0766481 -1.82438e-18)
(0.996069 0.0747757 2.11876e-18)
(1.0001 0.0734558 1.91715e-18)
(1.00371 0.0757319 8.89864e-19)
(1.00547 0.0922138 5.15655e-19)
(0.988854 0.0994876 2.97744e-20)
(0.988549 0.0993835 -7.78941e-21)
(0.988264 0.0992579 1.17016e-19)
(0.988004 0.099098 -2.93187e-20)
(0.987783 0.0988898 -1.60232e-19)
(0.987598 0.0986579 1.29625e-19)
(0.987446 0.0983986 1.73409e-19)
(0.987329 0.0981036 -3.25588e-19)
(0.98724 0.097776 6.75863e-19)
(0.987176 0.0973943 2.72963e-19)
(0.987135 0.0969713 -4.66002e-19)
(0.987116 0.0964603 -7.53416e-20)
(0.987106 0.095896 -1.07992e-19)
(0.987038 0.0952377 -2.02293e-19)
(0.986909 0.0945032 8.89279e-19)
(0.986801 0.093654 -1.52328e-19)
(0.986734 0.0926449 3.05543e-19)
(0.986723 0.0914586 -1.47738e-18)
(0.986788 0.0901226 2.36982e-18)
(0.986938 0.0886601 4.40202e-19)
(0.987199 0.0870542 -1.86296e-18)
(0.987624 0.0852592 -2.56044e-18)
(0.988281 0.0832454 1.76718e-18)
(0.989273 0.0810158 -6.15042e-18)
(0.990719 0.0786401 6.91444e-18)
(0.992756 0.0762995 2.83684e-18)
(0.995423 0.0744432 2.58105e-18)
(0.999679 0.0731896 -4.01873e-19)
(1.00355 0.0756371 -1.47192e-18)
(1.00566 0.092882 1.62901e-18)
(0.988283 0.0996327 -8.4101e-21)
(0.987932 0.0994855 -9.81522e-20)
(0.987599 0.099384 4.08222e-20)
(0.987291 0.0992511 2.53396e-19)
(0.987022 0.099068 -3.26659e-19)
(0.98679 0.0988521 1.4069e-20)
(0.986591 0.0985971 -7.30143e-22)
(0.98643 0.0982948 6.96951e-20)
(0.986299 0.0979475 -5.90718e-20)
(0.986197 0.097541 -8.12359e-20)
(0.986122 0.0970868 2.22895e-19)
(0.986077 0.0965429 6.525e-19)
(0.986052 0.0959427 -6.10211e-19)
(0.985984 0.0952481 8.86157e-20)
(0.98586 0.0944815 -5.07712e-19)
(0.985758 0.093596 -2.06264e-19)
(0.985694 0.092554 5.54913e-21)
(0.98569 0.0913286 1.49828e-18)
(0.985764 0.0899499 -1.68598e-18)
(0.985922 0.0884544 4.25675e-18)
(0.986196 0.0868179 2.93693e-18)
(0.986636 0.0849929 -1.06455e-18)
(0.987318 0.0829497 -1.09203e-18)
(0.988344 0.0806892 9.17946e-18)
(0.989847 0.0782863 -5.94694e-18)
(0.991976 0.0759261 -2.54638e-18)
(0.994784 0.0740819 -1.46247e-18)
(0.999277 0.072895 3.27654e-19)
(1.00342 0.0755234 1.42202e-18)
(1.0059 0.0935481 -3.44339e-18)
(0.987692 0.100057 -1.11019e-20)
(0.987292 0.099936 -9.20735e-20)
(0.986909 0.0997959 -1.76538e-21)
(0.986551 0.0996159 1.45348e-19)
(0.986231 0.0993798 -8.47489e-20)
(0.985948 0.0991173 3.19173e-19)
(0.9857 0.0988225 -4.90801e-19)
(0.985491 0.0984873 1.61091e-19)
(0.985315 0.0981128 4.28216e-19)
(0.985172 0.0976786 -9.22039e-19)
(0.985063 0.0971962 3.76137e-20)
(0.98499 0.0966188 -1.82132e-19)
(0.984949 0.0959818 3.415e-19)
(0.984883 0.0952511 -3.97621e-20)
(0.984767 0.0944508 4.49505e-19)
(0.984672 0.0935334 -1.4985e-18)
(0.984616 0.0924514 2.14426e-19)
(0.984621 0.091185 -9.0781e-19)
(0.984704 0.0897699 5.28552e-19)
(0.984876 0.0882361 2.10005e-19)
(0.985165 0.086566 -2.39747e-18)
(0.985624 0.0847095 -2.1618e-18)
(0.986333 0.082635 3.82376e-18)
(0.987399 0.0803425 -5.43073e-18)
(0.988963 0.0779089 1.00562e-18)
(0.991191 0.0755267 1.66643e-18)
(0.994153 0.0736904 7.4431e-19)
(0.998899 0.0725701 -1.71139e-18)
(1.00334 0.0753846 1.04706e-18)
(1.0062 0.094199 2.5941e-18)
(0.987071 0.100234 1.92025e-20)
(0.986619 0.100072 -1.25903e-20)
(0.986184 0.0999567 -8.95579e-20)
(0.985772 0.0998026 1.15857e-19)
(0.985399 0.0995888 -2.03204e-19)
(0.985063 0.0993377 3.52366e-19)
(0.984764 0.0990419 -4.00089e-19)
(0.984506 0.0986932 2.38015e-19)
(0.984284 0.098292 -4.68962e-19)
(0.9841 0.0978265 9.73315e-19)
(0.983954 0.0973075 -4.68315e-19)
(0.983855 0.0966928 4.63545e-19)
(0.983798 0.0960159 -1.8843e-18)
(0.983735 0.0952459 1.03574e-18)
(0.983629 0.0944124 -2.07573e-20)
(0.983543 0.0934582 5.38876e-19)
(0.983498 0.0923402 -6.83735e-19)
(0.983515 0.0910311 6.99494e-19)
(0.983611 0.0895698 2.40136e-19)
(0.983799 0.0879998 -2.19537e-18)
(0.984105 0.086296 3.43354e-18)
(0.984588 0.084407 9.53347e-19)
(0.985327 0.0822981 -6.02324e-18)
(0.986438 0.07997 1.84763e-18)
(0.988069 0.0774991 1.06931e-18)
(0.990407 0.0750893 -3.64553e-18)
(0.993534 0.0732566 -9.94369e-19)
(0.998543 0.0722074 5.15938e-18)
(1.00331 0.0752213 4.21825e-19)
(1.00653 0.0948487 -4.15347e-20)
(0.986424 0.100714 -9.81322e-21)
(0.98592 0.100573 3.03103e-20)
(0.985431 0.100409 -4.03487e-20)
(0.984964 0.100197 -4.14862e-21)
(0.984537 0.0999207 4.52567e-20)
(0.984147 0.0996154 1.49895e-20)
(0.983795 0.0992734 5.03281e-20)
(0.983486 0.098887 -3.76663e-19)
(0.983216 0.0984542 7.96769e-19)
(0.982987 0.0979577 -2.51282e-19)
(0.982802 0.097408 7.94209e-20)
(0.982673 0.0967573 4.04904e-21)
(0.982598 0.0960405 -3.61168e-19)
(0.982539 0.0952316 -6.97828e-20)
(0.982444 0.0943636 1.73895e-18)
(0.982371 0.0933744 2.18964e-19)
(0.982339 0.0922124 1.18386e-18)
(0.982369 0.0908584 5.14096e-19)
(0.982482 0.0893556 -2.50713e-18)
(0.982688 0.0877427 1.62411e-18)
(0.983016 0.0860015 -1.32022e-18)
(0.983525 0.0840766 4.71385e-18)
(0.984298 0.0819315 6.13173e-18)
(0.985458 0.0795653 4.18506e-18)
(0.987164 0.0770549 5.36815e-18)
(0.989621 0.0746133 2.77199e-18)
(0.992928 0.072783 -1.15141e-18)
(0.998219 0.0718047 -6.7741e-19)
(1.00332 0.0750279 3.13656e-19)
(1.00691 0.095482 -3.42299e-18)
(0.985771 0.100902 -2.47137e-21)
(0.985212 0.100709 6.15809e-20)
(0.984668 0.100569 -2.14062e-19)
(0.984144 0.100385 4.62415e-20)
(0.983659 0.100133 -1.61992e-19)
(0.983212 0.0998396 3.16025e-19)
(0.982801 0.0994961 -8.84937e-20)
(0.982437 0.0990952 1.69403e-19)
(0.982113 0.0986342 -1.37708e-19)
(0.981835 0.0981041 -4.63022e-19)
(0.981606 0.0975148 7.30653e-19)
(0.981444 0.0968225 -7.53042e-19)
(0.981349 0.0960613 1.36495e-18)
(0.981295 0.0952092 -6.4841e-19)
(0.981212 0.0943044 -5.53424e-19)
(0.981154 0.0932736 -1.95307e-18)
(0.981135 0.0920719 -1.50172e-18)
(0.981181 0.0906691 9.52254e-19)
(0.981315 0.0891145 6.14775e-19)
(0.981541 0.0874598 -1.41617e-18)
(0.981894 0.0856804 -1.26161e-18)
(0.982434 0.0837172 -4.20351e-19)
(0.983247 0.0815333 -3.52091e-18)
(0.984462 0.0791233 -2.78418e-18)
(0.986251 0.076568 -7.69368e-18)
(0.988837 0.0740872 6.86205e-19)
(0.992338 0.0722581 -5.04911e-19)
(0.997923 0.0713576 -5.569e-18)
(1.00339 0.0748068 -3.28698e-18)
(1.00734 0.096116 -5.71291e-18)
(0.985101 0.10141 2.01337e-20)
(0.984486 0.101245 2.24819e-20)
(0.983883 0.101057 -5.93726e-20)
(0.983299 0.100815 3.7835e-19)
(0.982753 0.100498 -5.8275e-19)
(0.982244 0.100148 3.606e-19)
(0.981772 0.0997555 2.09492e-19)
(0.981349 0.0993128 -6.10817e-19)
(0.980968 0.0988152 6.02539e-19)
(0.980637 0.0982478 -1.03964e-18)
(0.980364 0.0976199 1.2932e-18)
(0.980167 0.0968833 5.11172e-20)
(0.98005 0.0960747 -1.16322e-18)
(0.98 0.095177 2.67445e-19)
(0.979932 0.0942319 1.28514e-19)
(0.979889 0.0931614 2.54564e-19)
(0.979885 0.0919103 1.27959e-18)
(0.979951 0.0904556 -1.80444e-18)
(0.980104 0.0888517 2.77277e-18)
(0.980356 0.087148 3.08179e-20)
(0.980739 0.0853251 2.21646e-18)
(0.981313 0.0833206 -5.9319e-18)
(0.982171 0.0810951 2.89452e-19)
(0.983446 0.0786401 -4.5153e-19)
(0.985325 0.0760366 8.50923e-19)
(0.988052 0.0735146 3.98968e-18)
(0.991764 0.0716838 -4.07497e-19)
(0.997665 0.0708648 2.59547e-18)
(1.00352 0.0745517 3.07976e-18)
(1.00782 0.0967342 3.55789e-18)
(0.984396 0.101643 7.05562e-21)
(0.983722 0.101437 -2.06596e-20)
(0.983059 0.101276 -1.98238e-19)
(0.982412 0.101062 2.6958e-19)
(0.981803 0.100764 -6.68118e-20)
(0.981231 0.100421 -2.00296e-20)
(0.980697 0.10002 -1.39913e-19)
(0.980213 0.0995535 2.1783e-19)
(0.979774 0.0990179 -4.28763e-19)
(0.979391 0.0984072 -1.72314e-19)
(0.979071 0.0977309 3.5824e-19)
(0.978838 0.0969439 -6.55733e-19)
(0.978698 0.0960827 -3.84116e-19)
(0.978652 0.0951344 3.72841e-19)
(0.978601 0.0941462 -5.44473e-19)
(0.978573 0.0930296 -4.67583e-19)
(0.978588 0.091731 2.18152e-18)
(0.978672 0.0902185 -7.70649e-19)
(0.97885 0.0885556 2.84548e-19)
(0.979132 0.0868025 -1.11268e-18)
(0.979546 0.0849345 -1.07803e-19)
(0.980161 0.0828868 4.99006e-18)
(0.981069 0.0806156 7.43997e-19)
(0.982412 0.0781112 -8.31028e-19)
(0.984388 0.0754519 2.65387e-18)
(0.98727 0.0728839 -3.12607e-18)
(0.991208 0.0710504 2.08187e-18)
(0.997441 0.0703233 -3.91306e-18)
(1.0037 0.0742681 -2.4574e-18)
(1.00834 0.0973554 1.09066e-17)
(0.983661 0.10222 1.08935e-20)
(0.982926 0.102041 -3.52254e-20)
(0.9822 0.101824 1.51183e-19)
(0.98149 0.101542 2.16496e-20)
(0.980817 0.101171 -3.2699e-19)
(0.980181 0.100763 7.88492e-20)
(0.979583 0.100306 7.25631e-20)
(0.979037 0.0997911 1.03202e-19)
(0.978538 0.099212 5.41392e-20)
(0.978099 0.098557 -6.28457e-20)
(0.977729 0.0978353 -5.92354e-19)
(0.977458 0.096997 5.93967e-21)
(0.977295 0.0960807 8.74289e-19)
(0.977252 0.0950787 1.60949e-19)
(0.977214 0.0940457 8.68364e-19)
(0.977203 0.0928811 6.18542e-19)
(0.977231 0.091523 -9.33019e-19)
(0.977342 0.0899517 2.12118e-19)
(0.977549 0.0882285 -2.94172e-18)
(0.977864 0.0864189 -2.26201e-18)
(0.978315 0.0845009 -3.06551e-18)
(0.978976 0.082406 -7.69588e-18)
(0.979938 0.0800874 -1.13331e-18)
(0.981354 0.0775317 4.93929e-18)
(0.983437 0.0748152 -6.67135e-18)
(0.986487 0.0721973 -6.94517e-20)
(0.990672 0.0703614 -2.01134e-19)
(0.99726 0.0697302 2.63372e-18)
(1.00395 0.0739495 1.69777e-18)
(1.00892 0.0979603 -1.96884e-18)
(0.982914 0.102469 -2.40678e-20)
(0.982116 0.10224 -1.14345e-20)
(0.981326 0.102056 1.47833e-19)
(0.98055 0.101805 -5.40215e-20)
(0.979809 0.101457 -4.50169e-20)
(0.979104 0.101057 1.20847e-19)
(0.978438 0.100589 -7.71345e-20)
(0.977825 0.100048 2.78828e-19)
(0.977261 0.0994271 -3.7438e-19)
(0.976761 0.0987239 -3.76002e-19)
(0.976338 0.0979471 -5.08121e-20)
(0.976025 0.0970501 5.3555e-19)
(0.975836 0.096073 -3.29153e-19)
(0.975791 0.0950146 9.34187e-19)
(0.975765 0.0939285 -1.23909e-18)
(0.975757 0.0927102 -6.06835e-19)
(0.975814 0.0912927 1.59371e-18)
(0.975955 0.0896455 -3.77187e-19)
(0.9762 0.0878597 9.57849e-19)
(0.97655 0.0859923 1.12293e-18)
(0.977045 0.0840235 9.13777e-19)
(0.977754 0.0818786 7.21778e-18)
(0.978778 0.0795099 1.6655e-18)
(0.980274 0.0768966 -1.0628e-18)
(0.982476 0.0741171 2.97475e-18)
(0.985706 0.0714426 -1.03783e-18)
(0.990157 0.0696071 3.8063e-18)
(0.997119 0.0690857 1.62969e-18)
(1.00427 0.0736027 -2.89898e-18)
(1.00956 0.0985718 -6.86645e-18)
(0.982153 0.103082 -8.17447e-20)
(0.98129 0.102889 8.52963e-20)
(0.980431 0.10265 -1.09987e-19)
(0.979584 0.102332 3.85932e-20)
(0.978771 0.10191 -2.1767e-20)
(0.977993 0.101443 -3.01974e-19)
(0.977254 0.100916 1.8434e-21)
(0.97657 0.100321 1.02611e-18)
(0.975937 0.0996495 -3.16383e-19)
(0.975374 0.0988931 3.71822e-19)
(0.974893 0.0980598 -7.98551e-19)
(0.974534 0.0971021 1.40587e-18)
(0.974313 0.0960632 4.34767e-19)
(0.974262 0.0949416 4.61347e-19)
(0.97423 0.0938092 -6.88364e-19)
(0.97425 0.0925206 1.49842e-18)
(0.974336 0.0910135 -1.90082e-18)