/*--------------------------------*- C++ -*----------------------------------*\
  =========                 |
  \\      /  F ield         | OpenFOAM: The Open Source CFD Toolbox
   \\    /   O peration     | Website:  https://openfoam.org
    \\  /    A nd           | Version:  6.0
     \\/     M anipulation  |
\*---------------------------------------------------------------------------*/
FoamFile
{
    version     2.0;
    format      ascii;
    class       volVectorField;
    location    "1.38";
    object      U;
}
// * * * * * * * * * * * * * * * * * * * * * * * * * * * * * * * * * * * * * //

dimensions      [0 1 -1 0 0 0 0];

internalField   nonuniform List<vector> 
13500
(
(1 1.6353e-06 -4.3477e-18)
(1 -3.5586e-06 2.9425e-18)
(1 -5.88e-06 -1.2648e-17)
(1 -8.8855e-06 -8.76e-18)
(1 -8.802e-06 1.6495e-17)
(1 -6.1667e-06 3.0713e-17)
(1 -2.4839e-07 2.6446e-17)
(0.99997 1.6653e-05 -4.253e-18)
(0.99991 4.4164e-05 1.573e-17)
(0.99978 7.9874e-05 3.3702e-18)
(0.99585 0.00072673 2.9137e-17)
(1.0192 0.01083 7.9943e-18)
(1 5.0666e-06 2.6935e-18)
(1 -1.0345e-05 -8.9361e-18)
(1 -1.6581e-05 6.0399e-18)
(1 -2.5607e-05 -3.4551e-19)
(1 -2.4509e-05 -4.3988e-19)
(1 -1.696e-05 -3.693e-17)
(1 1.8059e-06 -4.5677e-17)
(0.99993 5.1694e-05 -2.4335e-17)
(0.99972 0.00014017 -1.5699e-17)
(0.99974 0.00020964 -1.6664e-18)
(0.98672 0.0020748 -1.3798e-17)
(1.0539 0.0306 -4.8404e-18)
(1 8.546e-06 -3.4789e-18)
(1 -1.7288e-05 1.7754e-17)
(1 -2.7282e-05 3.1416e-18)
(1 -4.2695e-05 1.01e-17)
(1 -4.0197e-05 -3.8037e-18)
(1 -2.8198e-05 2.9582e-17)
(1 4.0951e-06 -6.43e-18)
(0.99988 8.6692e-05 5.5278e-18)
(0.99951 0.00024159 -1.9046e-17)
(1.0001 0.00036667 2.5317e-17)
(0.97709 0.0030368 -7.2152e-18)
(1.0827 0.045104 1.7025e-18)
(1 1.2061e-05 9.0947e-18)
(1 -2.4432e-05 -1.7213e-17)
(1 -3.8136e-05 -1.4892e-17)
(1 -6.0225e-05 -7.0865e-19)
(1 -5.6118e-05 5.8718e-18)
(1 -3.9931e-05 -8.2111e-19)
(1 6.2997e-06 6.3352e-17)
(0.99985 0.00012125 9.9588e-18)
(0.99928 0.00034672 2.2522e-17)
(1.0008 0.00055764 -9.1704e-18)
(0.96736 0.0036343 3.5139e-17)
(1.1042 0.055628 -7.7495e-18)
(1 1.5631e-05 -6.3904e-18)
(1 -3.167e-05 1.4877e-17)
(1 -4.8975e-05 1.2677e-17)
(1 -7.7888e-05 1.2927e-17)
(1.0001 -7.2035e-05 2.8791e-18)
(1 -5.18e-05 2.1742e-17)
(1 8.5847e-06 -2.829e-17)
(0.99982 0.00015533 2.0225e-18)
(0.99902 0.00045353 -1.381e-17)
(1.0019 0.00078623 -2.1881e-18)
(0.95794 0.0039146 -9.1113e-18)
(1.1184 0.063312 2.147e-18)
(1 1.9258e-05 6.4671e-18)
(1 -3.9003e-05 -6.1672e-18)
(1 -5.9798e-05 3.8715e-18)
(1 -9.5687e-05 -2.5606e-17)
(1.0001 -8.795e-05 -8.4332e-20)
(1.0001 -6.3828e-05 -4.3043e-17)
(1 1.0938e-05 1.0856e-18)
(0.99981 0.00018886 -1.6236e-17)
(0.99872 0.00055991 5.2585e-18)
(1.0032 0.0010602 -2.2046e-17)
(0.94918 0.0039187 -2.1942e-17)
(1.126 0.068769 2.0785e-18)
(0.99999 2.2943e-05 -1.0705e-18)
(1 -4.6435e-05 -7.376e-18)
(1 -7.0605e-05 -3.1465e-18)
(1.0001 -0.00011364 1.9328e-17)
(1.0001 -0.00010386 -2.6667e-17)
(1.0001 -7.605e-05 1.6469e-17)
(1 1.3382e-05 1.8922e-17)
(0.9998 0.00022188 5.7123e-18)
(0.99839 0.00066381 1.1757e-17)
(1.0048 0.0013866 1.1869e-17)
(0.94135 0.0036843 9.4549e-18)
(1.1281 0.07243 3.3427e-18)
(0.99999 2.6687e-05 -2.2096e-18)
(1 -5.3972e-05 -1.451e-18)
(1 -8.1394e-05 -2.7105e-17)
(1.0001 -0.00013176 -9.2291e-18)
(1.0001 -0.00011975 7.4639e-18)
(1.0001 -8.849e-05 2.6989e-17)
(1 1.5925e-05 1.2044e-17)
(0.9998 0.00025446 5.0993e-18)
(0.99801 0.00076316 -7.6847e-18)
(1.0066 0.0017697 1.6624e-17)
(0.93467 0.0032489 7.637e-18)
(1.1256 0.074656 -1.0637e-17)
(0.99999 3.049e-05 -6.8592e-18)
(1 -6.1616e-05 6.2382e-18)
(1 -9.2168e-05 4.5574e-17)
(1.0001 -0.00015005 -1.107e-17)
(1.0001 -0.00013564 2.7951e-17)
(1.0001 -0.00010117 -5.3287e-17)
(1 1.8565e-05 -4.0121e-17)
(0.99982 0.00028667 9.9082e-18)
(0.99759 0.00085589 -5.7721e-18)
(1.0084 0.0022109 -9.1687e-18)
(0.92926 0.0026496 -1.4109e-17)
(1.1195 0.075753 1.3923e-17)
(0.99999 3.4354e-05 4.519e-18)
(1 -6.937e-05 2.3481e-18)
(1 -0.00010293 -3.8604e-17)
(1.0001 -0.00016852 1.5754e-17)
(1.0001 -0.00015151 -1.2189e-17)
(1.0001 -0.00011413 2.2726e-17)
(1 2.1297e-05 1.4258e-17)
(0.99985 0.00031863 2.5044e-18)
(0.99713 0.00094004 5.4463e-19)
(1.0103 0.0027095 1.4528e-18)
(0.92519 0.0019222 4.4895e-18)
(1.1108 0.075974 -7.2628e-19)
(0.99999 3.828e-05 -2.4811e-18)
(1 -7.7238e-05 -7.7008e-18)
(1 -0.00011367 9.4629e-18)
(1.0001 -0.00018719 -2.7797e-18)
(1.0001 -0.00016739 1.8815e-18)
(1.0001 -0.00012737 -2.4906e-17)
(1.0001 2.4113e-05 -3.2839e-17)
(0.99989 0.00035047 -3.1812e-17)
(0.99664 0.0010138 1.6135e-17)
(1.0121 0.0032627 1.8872e-18)
(0.92246 0.001101 -1.1387e-17)
(1.1002 0.075525 -6.0066e-18)
(0.99998 4.2268e-05 3.4246e-18)
(1 -8.5224e-05 2.9087e-18)
(1 -0.0001244 4.5605e-18)
(1.0001 -0.00020605 -2.2153e-18)
(1.0001 -0.00018325 -5.6398e-18)
(1.0001 -0.00014094 9.4202e-18)
(1.0001 2.7006e-05 1.9009e-17)
(0.99995 0.00038235 1.9652e-17)
(0.99612 0.0010756 1.0368e-17)
(1.0139 0.0038664 -2.3829e-17)
(0.92103 0.00021803 1.196e-19)
(1.0886 0.074575 -6.962e-18)
(0.99998 4.632e-05 -3.424e-18)
(1 -9.3329e-05 5.72e-18)
(1 -0.00013512 8.2682e-18)
(1.0001 -0.00022513 5.7844e-18)
(1.0001 -0.00019911 -5.2309e-18)
(1.0002 -0.00015486 4.631e-18)
(1.0001 2.9968e-05 4.3347e-18)
(1 0.00041444 -1.7549e-18)
(0.99558 0.0011241 -1.6757e-17)
(1.0156 0.004515 2.2098e-17)
(0.92081 -0.0006972 1.0664e-19)
(1.0764 0.07326 1.4869e-18)
(0.99998 5.0436e-05 5.2068e-18)
(1 -0.00010156 -4.465e-18)
(1 -0.00014583 7.2376e-19)
(1.0001 -0.00024443 -4.8254e-18)
(1.0002 -0.00021497 1.188e-17)
(1.0002 -0.00016916 5.6503e-18)
(1.0001 3.2989e-05 1.7442e-17)
(1.0001 0.00044691 -6.5172e-18)
(0.99502 0.0011581 -2.0475e-19)
(1.0172 0.0052021 5.4285e-18)
(0.92167 -0.0016181 1.7283e-17)
(1.0643 0.071691 9.4829e-19)
(0.99997 5.4618e-05 1.2558e-18)
(1 -0.00010992 9.9093e-18)
(1 -0.00015652 1.3826e-17)
(1.0001 -0.00026395 -4.811e-18)
(1.0002 -0.00023082 8.6019e-18)
(1.0002 -0.00018388 -2.6377e-18)
(1.0001 3.6058e-05 -3.0548e-17)
(1.0002 0.00047991 2.0628e-17)
(0.99445 0.001177 -1.8901e-17)
(1.0186 0.0059206 -3.131e-17)
(0.92348 -0.0025211 -3.7947e-18)
(1.0525 0.069956 8.793e-19)
(0.99997 5.8867e-05 -3.2038e-18)
(0.99999 -0.00011841 -1.0538e-17)
(1 -0.00016721 -3.3185e-17)
(1.0001 -0.00028372 8.1056e-18)
(1.0002 -0.00024667 -1.3054e-17)
(1.0002 -0.00019904 8.4569e-18)
(1.0001 3.9164e-05 -2.8584e-18)
(1.0003 0.0005136 -1.2418e-17)
(0.99388 0.0011802 4.1487e-18)
(1.0197 0.0066629 1.8697e-17)
(0.9261 -0.0033863 -7.9619e-18)
(1.0413 0.068124 1.2262e-17)
(0.99997 6.3182e-05 3.3708e-19)
(0.99999 -0.00012703 7.8818e-18)
(1 -0.00017789 2.2911e-17)
(1.0001 -0.00030374 -1.8255e-18)
(1.0002 -0.00026251 -1.2968e-17)
(1.0002 -0.00021468 -1.576e-17)
(1.0001 4.2301e-05 1.0918e-17)
(1.0004 0.00054809 7.1211e-18)
(0.99331 0.0011675 2.3991e-17)
(1.0207 0.0074215 -2.6184e-18)
(0.92935 -0.004197 1.9781e-18)
(1.031 0.066251 -4.8916e-18)
(0.99996 6.7565e-05 -1.8912e-18)
(0.99999 -0.00013579 -9.5502e-18)
(1 -0.00018856 -1.0338e-17)
(1.0001 -0.00032403 6.1003e-18)
(1.0002 -0.00027835 -7.283e-18)
(1.0002 -0.00023083 -1.264e-17)
(1.0001 4.546e-05 1.0614e-17)
(1.0006 0.0005835 -4.8312e-18)
(0.99276 0.0011391 -2.9694e-17)
(1.0214 0.0081885 -1.4676e-17)
(0.93311 -0.0049401 8.5836e-18)
(1.0217 0.064377 -5.3113e-18)
(0.99996 7.2017e-05 -2.708e-18)
(0.99999 -0.0001447 -3.6095e-18)
(1 -0.00019923 -7.6613e-19)
(1.0001 -0.00034459 -2.6713e-17)
(1.0002 -0.00029417 6.111e-18)
(1.0003 -0.00024754 5.5046e-18)
(1.0001 4.8639e-05 -2.0169e-17)
(1.0007 0.00061987 -1.6493e-17)
(0.99223 0.0010954 4.3413e-18)
(1.022 0.0089565 -1.1047e-18)
(0.93721 -0.0056058 -9.9122e-18)
(1.0135 0.062533 1.0042e-18)
(0.99995 7.6538e-05 3.5223e-18)
(0.99998 -0.00015375 1.6547e-17)
(1 -0.00020989 1.9727e-17)
(1.0001 -0.00036543 2.5158e-18)
(1.0002 -0.00030999 1.6893e-17)
(1.0003 -0.00026485 9.646e-18)
(1.0001 5.1836e-05 2.9111e-18)
(1.0009 0.00065725 1.8051e-17)
(0.99172 0.0010371 2.1583e-17)
(1.0223 0.0097183 1.7527e-17)
(0.94153 -0.0061873 7.396e-18)
(1.0063 0.060742 1.1928e-18)
(0.99995 8.1128e-05 -1.6788e-18)
(0.99998 -0.00016295 -3.9702e-18)
(1 -0.00022055 -2.1017e-17)
(1.0002 -0.00038658 -2.3818e-18)
(1.0002 -0.0003258 -1.2803e-17)
(1.0003 -0.00028279 -5.2188e-18)
(1.0001 5.5054e-05 -1.8684e-18)
(1.0011 0.00069561 -1.6322e-17)
(0.99125 0.00096521 -2.0643e-17)
(1.0225 0.010467 8.9848e-18)
(0.94596 -0.0066811 5.0658e-19)
(1.0002 0.059018 6.8535e-19)
(0.99994 8.5789e-05 4.4501e-18)
(0.99998 -0.0001723 -5.1869e-18)
(1 -0.0002312 -1.9712e-17)
(1.0002 -0.00040804 4.5284e-17)
(1.0002 -0.00034159 1.8572e-17)
(1.0003 -0.00030141 -1.277e-17)
(1.0001 5.8301e-05 2.5119e-17)
(1.0013 0.0007349 2.2058e-17)
(0.99081 0.00088076 3.35e-17)
(1.0224 0.011197 -3.2933e-17)
(0.9504 -0.0070859 -1.3582e-17)
(0.99504 0.05737 1.8118e-19)
(0.99994 9.0521e-05 -3.2573e-18)
(0.99997 -0.00018181 -1.0408e-18)
(1 -0.00024186 3.3652e-17)
(1.0002 -0.00042983 -3.4231e-17)
(1.0003 -0.00035736 -1.7878e-18)
(1.0004 -0.00032077 4.2312e-17)
(1.0001 6.1587e-05 7.7845e-18)
(1.0015 0.00077503 -3.4074e-18)
(0.99041 0.00078506 -2.0778e-17)
(1.0222 0.011901 3.8812e-17)
(0.95475 -0.0074028 -5.7521e-18)
(0.99087 0.055804 -2.8742e-19)
(0.99993 9.5323e-05 -1.6605e-18)
(0.99997 -0.00019148 -2.074e-18)
(1 -0.00025252 1.7522e-18)
(1.0002 -0.00045195 3.5612e-17)
(1.0003 -0.00037312 -1.0079e-17)
(1.0004 -0.0003409 -3.1274e-17)
(1.0001 6.4924e-05 -1.9848e-17)
(1.0017 0.00081587 -3.6689e-18)
(0.99006 0.00067952 6.572e-18)
(1.0219 0.012576 -3.2745e-17)
(0.95895 -0.0076347 9.6352e-18)
(0.98755 0.05432 3.1192e-18)
(0.99992 0.0001002 2.7441e-18)
(0.99996 -0.00020132 1.4435e-17)
(1 -0.00026318 -1.2924e-17)
(1.0002 -0.00047443 -3.7289e-18)
(1.0003 -0.00038884 -1.9343e-17)
(1.0004 -0.00036186 3.4023e-17)
(1.0001 6.8328e-05 -1.7423e-17)
(1.0019 0.00085726 1.5208e-17)
(0.98974 0.00056556 -2.0254e-18)
(1.0215 0.013217 3.0702e-17)
(0.96295 -0.0077861 -9.4007e-18)
(0.985 0.052917 -5.2051e-18)
(0.99992 0.00010514 -5.2629e-19)
(0.99996 -0.00021132 -8.302e-18)
(1 -0.00027384 -1.8096e-17)
(1.0002 -0.00049727 -1.0217e-17)
(1.0003 -0.00040453 1.8762e-17)
(1.0004 -0.00038371 -4.3385e-17)
(1 7.1814e-05 -2.6885e-18)
(1.0021 0.00089902 -2.0547e-17)
(0.98947 0.00044464 3.2737e-18)
(1.021 0.013819 -8.8555e-18)
(0.96671 -0.0078628 1.0006e-17)
(0.98312 0.051592 2.209e-18)
(0.99991 0.00011016 2.757e-18)
(0.99995 -0.0002215 -8.8927e-18)
(1 -0.00028451 -1.7876e-18)
(1.0002 -0.0005205 2.4826e-18)
(1.0003 -0.00042019 5.9381e-18)
(1.0005 -0.00040649 1.2536e-17)
(1 7.5393e-05 4.4078e-17)
(1.0023 0.00094094 2.4554e-18)
(0.98924 0.00031817 5.3362e-18)
(1.0204 0.014382 9.7614e-18)
(0.97021 -0.0078711 -8.557e-18)
(0.98183 0.050341 1.6984e-18)
(0.9999 0.00011524 -1.5809e-18)
(0.99995 -0.00023185 8.8845e-18)
(1 -0.00029519 2.5722e-17)
(1.0002 -0.00054412 -2.5014e-17)
(1.0003 -0.0004358 -9.2365e-18)
(1.0005 -0.00043027 -2.2058e-18)
(1 7.9073e-05 -1.4529e-17)
(1.0026 0.0009828 1.905e-18)
(0.98905 0.00018749 -9.244e-18)
(1.0197 0.014901 -3.5874e-18)
(0.97343 -0.0078182 -2.4178e-19)
(0.98103 0.049158 -2.0748e-18)
(0.99989 0.0001204 -1.6991e-18)
(0.99994 -0.00024239 5.3178e-18)
(1 -0.00030588 -6.222e-19)
(1.0002 -0.00056816 8.2945e-18)
(1.0003 -0.00045136 -1.7042e-17)
(1.0005 -0.0004551 2.4958e-17)
(0.99998 8.2854e-05 7.2466e-18)
(1.0028 0.0010244 -1.8172e-17)
(0.9889 5.381e-05 -1.1858e-17)
(1.0191 0.015377 -1.4204e-17)
(0.97637 -0.0077113 1.3563e-18)
(0.98064 0.048038 -3.806e-18)
(0.99989 0.00012563 5.9044e-19)
(0.99994 -0.0002531 -1.27e-17)
(1 -0.00031658 1.5927e-17)
(1.0002 -0.00059263 2.2941e-17)
(1.0003 -0.00046686 3.3404e-17)
(1.0006 -0.00048104 -1.833e-17)
(0.99995 8.6724e-05 -1.8017e-17)
(1.003 0.0010655 3.6879e-18)
(0.98879 -8.1779e-05 1.1111e-17)
(1.0184 0.015808 1.1119e-17)
(0.97904 -0.0075577 6.3134e-18)
(0.98059 0.046976 3.783e-18)
(0.99988 0.00013093 1.1315e-18)
(0.99993 -0.000264 1.0099e-17)
(1 -0.00032729 -3.6594e-17)
(1.0002 -0.00061755 -3.324e-18)
(1.0003 -0.0004823 -2.7748e-17)
(1.0006 -0.00050815 -1.1546e-17)
(0.99992 9.0654e-05 2.533e-20)
(1.0033 0.0011059 -4.2182e-18)
(0.98872 -0.00021835 -2.1903e-17)
(1.0178 0.016195 -1.7752e-17)
(0.98145 -0.0073648 -8.6231e-18)
(0.9808 0.045965 -1.8666e-18)
(0.99987 0.00013629 -7.3338e-19)
(0.99993 -0.0002751 -6.5678e-18)
(1 -0.00033803 2.8792e-17)
(1.0002 -0.00064293 -3.1716e-17)
(1.0003 -0.00049768 -2.0867e-18)
(1.0007 -0.00053648 2.4586e-17)
(0.99989 9.4599e-05 7.2087e-19)
(1.0035 0.0011454 4.0226e-18)
(0.98868 -0.00035512 1.9173e-17)
(1.0171 0.016538 2.3076e-17)
(0.98362 -0.0071392 4.9332e-18)
(0.98123 0.045002 -1.044e-18)
(0.99986 0.00014172 -1.9092e-18)
(0.99992 -0.00028638 -2.422e-18)
(1 -0.00034878 -1.2764e-17)
(1.0002 -0.00066879 1.58e-17)
(1.0004 -0.00051297 3.0495e-17)
(1.0007 -0.00056608 -1.0866e-17)
(0.99985 9.8489e-05 2.2439e-17)
(1.0038 0.0011838 3.0151e-18)
(0.98868 -0.00049151 -2.1735e-18)
(1.0165 0.016838 1.0438e-17)
(0.98555 -0.0068876 -5.5137e-18)
(0.98182 0.044079 -7.2887e-19)
(0.99985 0.00014722 4.7748e-19)
(0.99991 -0.00029787 -6.405e-18)
(1 -0.00035956 4.7778e-18)
(1.0002 -0.00069515 -1.6102e-17)
(1.0004 -0.00052819 -3.2255e-17)
(1.0007 -0.000597 6.8474e-18)
(0.9998 0.00010223 -3.2371e-17)
(1.004 0.001221 -6.8935e-18)
(0.9887 -0.00062704 7.0491e-18)
(1.0159 0.017097 -3.2763e-17)
(0.98728 -0.0066157 3.7747e-18)
(0.98252 0.043194 2.0524e-18)
(0.99984 0.00015278 8.3847e-19)
(0.99991 -0.00030955 1.7353e-17)
(1 -0.00037037 7.9998e-18)
(1.0002 -0.00072202 6.5592e-18)
(1.0004 -0.00054334 2.5792e-17)
(1.0008 -0.00062928 2.0416e-18)
(0.99976 0.0001057 2.2353e-17)
(1.0043 0.0012567 4.9445e-18)
(0.98875 -0.00076142 -2.1431e-17)
(1.0154 0.017316 1.128e-17)
(0.98882 -0.0063289 2.5528e-18)
(0.98331 0.042342 2.1307e-18)
(0.99983 0.00015841 -2.9276e-18)
(0.9999 -0.00032144 -5.712e-18)
(1 -0.0003812 -7.0286e-18)
(1.0003 -0.00074943 1.0772e-17)
(1.0004 -0.0005584 1.2459e-17)
(1.0008 -0.00066296 -4.0657e-18)
(0.99971 0.00010873 -1.8776e-17)
(1.0045 0.001291 2.2513e-17)
(0.98883 -0.00089445 3.966e-18)
(1.0149 0.017499 -3.4072e-18)
(0.9902 -0.0060318 1.0563e-17)
(0.98415 0.04152 -1.482e-18)
(0.99982 0.00016409 6.0157e-18)
(0.99989 -0.00033353 6.8404e-18)
(1 -0.00039208 -7.4712e-18)
(1.0003 -0.0007774 -6.7098e-18)
(1.0004 -0.00057339 -1.7879e-17)
(1.0009 -0.00069806 -6.983e-18)
(0.99966 0.00011114 9.2574e-18)
(1.0047 0.0013236 -3.611e-17)
(0.98894 -0.0010261 9.716e-18)
(1.0144 0.017646 -4.0273e-18)
(0.99143 -0.0057287 -1.1186e-17)
(0.98503 0.040724 4.3079e-18)
(0.99981 0.00016984 -2.655e-18)
(0.99988 -0.00034584 -1.2018e-17)
(0.99999 -0.000403 -7.2407e-18)
(1.0003 -0.00080593 -1.2732e-17)
(1.0004 -0.00058832 -5.4587e-18)
(1.001 -0.0007346 2.0532e-17)
(0.99961 0.00011269 -9.0939e-18)
(1.005 0.0013545 4.0171e-17)
(0.98906 -0.0011562 9.1648e-18)
(1.014 0.017761 1.2221e-17)
(0.99254 -0.0054229 4.7156e-18)
(0.98592 0.039952 -6.9894e-18)
(0.9998 0.00017563 -1.4083e-18)
(0.99988 -0.00035835 8.9378e-18)
(0.99999 -0.00041396 1.4346e-17)
(1.0003 -0.00083505 3.4329e-17)
(1.0004 -0.00060319 7.2358e-18)
(1.001 -0.00077261 -1.4083e-17)
(0.99955 0.00011314 4.3885e-18)
(1.0052 0.0013836 -4.3218e-17)
(0.98921 -0.001285 -1.1118e-17)
(1.0136 0.017847 -6.7949e-18)
(0.99355 -0.0051174 4.628e-18)
(0.98681 0.039201 7.0333e-18)
(0.99979 0.00018148 1.0777e-18)
(0.99987 -0.00037108 2.1157e-18)
(0.99998 -0.00042498 -1.4089e-17)
(1.0003 -0.00086478 -5.7182e-18)
(1.0004 -0.00061803 9.187e-18)
(1.0011 -0.00081207 1.6856e-17)
(0.9995 0.00011218 1.526e-17)
(1.0055 0.0014109 4.2774e-18)
(0.98937 -0.0014125 1.244e-17)
(1.0133 0.017905 -3.1482e-18)
(0.99446 -0.0048146 -8.2618e-18)
(0.98769 0.03847 -1.8131e-18)
(0.99978 0.00018738 -4.4139e-20)
(0.99986 -0.00038403 2.4112e-18)
(0.99997 -0.00043606 3.1487e-18)
(1.0003 -0.00089513 -7.4232e-18)
(1.0004 -0.00063287 8.5331e-20)
(1.0011 -0.00085298 -1.5283e-17)
(0.99944 0.00010949 -1.0322e-17)
(1.0057 0.0014363 3.165e-17)
(0.98955 -0.0015388 -1.8802e-17)
(1.013 0.017938 1.2225e-17)
(0.9953 -0.0045164 4.3642e-18)
(0.98856 0.037757 -5.1303e-18)
(0.99977 0.00019332 -3.338e-18)
(0.99985 -0.0003972 -1.1309e-17)
(0.99997 -0.00044721 8.0385e-18)
(1.0003 -0.00092613 -2.0273e-17)
(1.0004 -0.00064773 -2.3233e-17)
(1.0012 -0.00089533 -2.1112e-17)
(0.99938 0.00010471 -2.1037e-17)
(1.0059 0.0014598 -3.241e-18)
(0.98975 -0.0016639 1.6433e-17)
(1.0128 0.01795 -1.0486e-17)
(0.99608 -0.0042243 4.3434e-19)
(0.9894 0.03706 4.8345e-18)
(0.99975 0.00019931 6.4427e-18)
(0.99984 -0.00041058 1.1818e-17)
(0.99996 -0.00045845 -1.2964e-17)
(1.0003 -0.00095778 1.6645e-17)
(1.0004 -0.00066267 -2.7241e-18)
(1.0013 -0.0009391 1.3839e-17)
(0.99933 9.7465e-05 2.5286e-17)
(1.0061 0.0014813 -2.4553e-17)
(0.98996 -0.0017881 -8.3337e-18)
(1.0126 0.017941 1.1073e-17)
(0.9968 -0.0039395 3.7744e-18)
(0.99023 0.036379 -2.2886e-18)
(0.99974 0.00020532 -4.8343e-18)
(0.99983 -0.0004242 -3.4929e-18)
(0.99995 -0.00046978 -2.7103e-18)
(1.0003 -0.0009901 1.9044e-17)
(1.0004 -0.00067772 -5.8319e-18)
(1.0013 -0.00098425 -1.7536e-19)
(0.99927 8.737e-05 -4.9479e-18)
(1.0064 0.0015007 1.9667e-17)
(0.99018 -0.0019112 -7.9138e-18)
(1.0124 0.017915 -7.6033e-18)
(0.99748 -0.0036627 -1.1158e-17)
(0.99103 0.035712 2.6627e-18)
(0.99973 0.00021137 3.286e-18)
(0.99982 -0.00043803 -4.4287e-18)
(0.99994 -0.00048121 6.2051e-18)
(1.0003 -0.0010231 -2.8896e-17)
(1.0004 -0.00069297 3.9512e-17)
(1.0014 -0.0010308 5.7333e-18)
(0.99921 7.402e-05 1.9522e-17)
(1.0066 0.0015182 -1.217e-17)
(0.99041 -0.0020334 1.0389e-19)
(1.0122 0.017873 5.6539e-18)
(0.99812 -0.0033946 -2.1733e-18)
(0.9918 0.035058 -1.0016e-18)
(0.99971 0.00021745 -9.4005e-19)
(0.99981 -0.0004521 8.6565e-19)
(0.99993 -0.00049276 1.5118e-17)
(1.0003 -0.0010568 7.8775e-18)
(1.0004 -0.00070847 -1.9753e-17)
(1.0015 -0.0010786 -1.123e-17)
(0.99916 5.7012e-05 3.4084e-18)
(1.0068 0.0015336 -5.917e-18)
(0.99066 -0.0021545 1.3241e-17)
(1.0121 0.017816 -3.7115e-18)
(0.99873 -0.0031354 1.0452e-17)
(0.99255 0.034418 -3.6611e-18)
(0.9997 0.00022354 -1.6362e-18)
(0.9998 -0.00046639 -8.3445e-18)
(0.99992 -0.00050445 -4.4952e-18)
(1.0003 -0.0010913 3.1633e-17)
(1.0004 -0.00072432 -1.7597e-17)
(1.0016 -0.0011277 -9.5119e-19)
(0.99911 3.5954e-05 -5.0975e-17)
(1.007 0.0015469 5.8158e-18)
(0.99091 -0.0022745 -2.4763e-17)
(1.012 0.017748 -8.0148e-18)
(0.99932 -0.0028854 -1.0456e-17)
(0.99327 0.033789 2.1741e-18)
(0.99968 0.00022965 -7.0634e-19)
(0.99979 -0.00048091 5.1698e-18)
(0.99991 -0.00051629 -1.8556e-18)
(1.0003 -0.0011264 -1.8419e-17)
(1.0004 -0.00074062 2.5289e-17)
(1.0017 -0.001178 -2.3382e-18)
(0.99906 1.0466e-05 2.7001e-17)
(1.0072 0.0015582 -3.5756e-18)
(0.99117 -0.0023934 1.2023e-17)
(1.0119 0.017669 1.0024e-17)
(0.99988 -0.0026446 8.6257e-18)
(0.99396 0.033173 -5.2674e-19)
(0.99967 0.00023576 4.004e-18)
(0.99978 -0.00049567 -3.0931e-18)
(0.9999 -0.00052831 -6.491e-18)
(1.0004 -0.0011623 2.0102e-17)
(1.0004 -0.00075748 1.8557e-18)
(1.0017 -0.0012295 2.8988e-17)
(0.99902 -1.9803e-05 4.6577e-18)
(1.0074 0.0015674 1.7083e-17)
(0.99144 -0.0025109 4.5105e-18)
(1.0118 0.01758 -3.2433e-18)
(1.0004 -0.002413 1.1231e-18)
(0.99464 0.032568 4.7631e-19)
(0.99965 0.00024187 1.1416e-18)
(0.99976 -0.00051066 1.2647e-18)
(0.99989 -0.00054054 -5.8857e-18)
(1.0004 -0.001199 -4.0033e-17)
(1.0004 -0.00077501 5.6197e-18)
(1.0018 -0.0012821 2.5141e-18)
(0.99897 -5.5172e-05 -2.0196e-17)
(1.0076 0.0015745 2.4039e-19)
(0.99171 -0.002627 1.3291e-17)
(1.0117 0.017482 -2.0851e-18)
(1.001 -0.0021905 -5.4679e-18)
(0.99529 0.031974 2.8118e-18)
(0.99964 0.00024797 -4.8888e-18)
(0.99975 -0.00052589 5.3602e-18)
(0.99988 -0.00055299 9.7043e-19)
(1.0004 -0.0012364 2.223e-17)
(1.0004 -0.00079337 -2.5636e-17)
(1.0019 -0.0013359 -1.1104e-17)
(0.99894 -9.5918e-05 2.0656e-17)
(1.0077 0.0015796 -1.1571e-17)
(0.99199 -0.0027415 -2.1012e-17)
(1.0117 0.017377 -1.0303e-17)
(1.0015 -0.0019769 6.9655e-18)
(0.99592 0.031391 9.3911e-19)
(0.99962 0.00025406 -5.1729e-19)
(0.99974 -0.00054135 -5.3938e-18)
(0.99987 -0.0005657 1.0333e-17)
(1.0004 -0.0012747 9.8563e-18)
(1.0003 -0.00081268 3.1662e-17)
(1.002 -0.0013908 4.2659e-18)
(0.9989 -0.00014227 1.8347e-17)
(1.0079 0.0015827 2.9336e-17)
(0.99227 -0.0028541 -9.2824e-19)
(1.0116 0.017266 1.8123e-17)
(1.002 -0.0017719 -7.3664e-19)
(0.99653 0.030818 -2.7374e-18)
(0.9996 0.00026011 5.014e-18)
(0.99973 -0.00055706 -7.8527e-18)
(0.99986 -0.0005787 -1.5684e-17)
(1.0004 -0.0013137 -2.6198e-18)
(1.0003 -0.00083312 -3.4364e-17)
(1.0021 -0.0014468 -1.2693e-17)
(0.99888 -0.00019439 -6.3684e-18)
(1.0081 0.0015838 2.195e-19)
(0.99256 -0.0029647 2.7344e-17)
(1.0116 0.017148 4.1764e-18)
(1.0025 -0.0015755 -9.5661e-18)
(0.99713 0.030255 1.6436e-18)
(0.99958 0.00026614 -5.6211e-18)
(0.99971 -0.00057302 9.8094e-18)
(0.99984 -0.00059204 8.2099e-18)
(1.0004 -0.0013535 -5.2204e-18)
(1.0003 -0.00085485 2.7634e-17)
(1.0022 -0.0015038 1.5185e-17)
(0.99886 -0.0002524 -5.0342e-18)
(1.0082 0.0015831 -2.9563e-17)
(0.99284 -0.0030732 -9.2966e-19)
(1.0116 0.017026 -1.1934e-17)
(1.0029 -0.0013874 1.1327e-17)
(0.9977 0.029702 -2.1525e-18)
(0.99957 0.00027211 3.3776e-18)
(0.9997 -0.00058922 -1.877e-18)
(0.99983 -0.00060574 1.087e-17)
(1.0004 -0.0013942 -2.1963e-17)
(1.0003 -0.00087804 9.0228e-18)
(1.0023 -0.0015619 -5.455e-18)
(0.99884 -0.00031633 -1.0847e-17)
(1.0084 0.0015805 -2.373e-18)
(0.99313 -0.0031793 -3.2998e-17)
(1.0115 0.016898 7.8738e-18)
(1.0034 -0.0012073 -1.0375e-17)
(0.99826 0.02916 7.1872e-19)
(0.99955 0.00027803 2.6703e-19)
(0.99968 -0.00060568 -5.9047e-18)
(0.99982 -0.00061986 6.1726e-18)
(1.0004 -0.0014358 2.8906e-17)
(1.0003 -0.00090287 -2.1491e-17)
(1.0024 -0.001621 1.7548e-17)
(0.99883 -0.00038618 -6.2716e-18)
(1.0086 0.0015761 5.4954e-18)
(0.99342 -0.003283 3.9203e-17)
(1.0115 0.016766 -1.4617e-17)
(1.0039 -0.0010351 1.5863e-17)
(0.99881 0.028626 2.0342e-18)
(0.99953 0.00028388 4.7928e-19)
(0.99967 -0.0006224 -1.2219e-18)
(0.9998 -0.00063444 -8.8804e-18)
(1.0004 -0.0014782 -4.3518e-18)
(1.0003 -0.00092953 1.8729e-17)
(1.0024 -0.0016812 1.3954e-19)
(0.99882 -0.00046186 -1.2327e-17)
(1.0087 0.0015701 -1.3119e-17)
(0.99371 -0.0033841 -1.641e-17)
(1.0115 0.01663 -1.3803e-18)
(1.0043 -0.0008705 2.9087e-18)
(0.99933 0.028102 2.1426e-19)
(0.99951 0.00028966 -7.713e-19)
(0.99966 -0.0006394 1.4542e-17)
(0.99979 -0.00064954 -5.9228e-18)
(1.0004 -0.0015215 -2.4592e-17)
(1.0003 -0.00095819 8.634e-18)
(1.0025 -0.0017425 -4.4708e-17)
(0.99883 -0.00054322 6.1494e-18)
(1.0088 0.0015626 8.2605e-18)
(0.994 -0.0034825 7.6231e-19)
(1.0114 0.01649 1.4847e-17)
(1.0047 -0.00071336 -9.6726e-19)
(0.99985 0.027587 -5.6868e-18)
(0.99949 0.00029534 -2.0364e-19)
(0.99964 -0.00065667 -2.8541e-19)
(0.99977 -0.00066522 7.973e-18)
(1.0005 -0.0015657 1.5182e-17)
(1.0003 -0.00098903 -3.4308e-17)
(1.0026 -0.0018048 1.9313e-18)
(0.99883 -0.00063005 1.1014e-17)
(1.009 0.0015536 1.2937e-17)
(0.99429 -0.0035781 -1.0378e-17)
(1.0114 0.016347 -1.4456e-17)
(1.0052 -0.0005635 -1.5748e-17)
(1.0004 0.027081 6.0076e-18)
(0.99947 0.00030092 -1.3324e-18)
(0.99962 -0.00067423 4.0636e-19)
(0.99975 -0.00068152 -3.8443e-18)
(1.0005 -0.0016109 -1.0137e-17)
(1.0003 -0.0010222 1.9017e-17)
(1.0027 -0.0018681 2.3997e-17)
(0.99884 -0.00072209 3.2121e-18)
(1.0091 0.0015432 6.5555e-18)
(0.99458 -0.003671 1.6552e-17)
(1.0114 0.0162 2.4328e-18)
(1.0056 -0.00042072 1.1648e-17)
(1.0008 0.026584 -3.6471e-18)
(0.99945 0.00030638 2.4523e-18)
(0.99961 -0.0006921 7.4921e-19)
(0.99974 -0.00069853 -5.4936e-18)
(1.0005 -0.0016571 1.4975e-18)
(1.0002 -0.0010579 -1.0311e-17)
(1.0028 -0.0019326 -5.7562e-18)
(0.99886 -0.00081902 -1.1873e-18)
(1.0092 0.0015316 -2.9601e-17)
(0.99487 -0.0037611 3.2487e-18)
(1.0114 0.01605 -4.9338e-18)
(1.006 -0.00028488 -4.7372e-18)
(1.0013 0.026095 -4.3986e-18)
(0.99942 0.00031171 -5.0047e-18)
(0.99959 -0.00071028 9.7882e-19)
(0.99972 -0.00071629 2.9139e-18)
(1.0005 -0.0017043 -1.8816e-17)
(1.0002 -0.0010963 -1.1754e-17)
(1.0029 -0.001998 -2.6723e-17)
(0.99888 -0.0009205 5.7293e-18)
(1.0093 0.0015189 1.2088e-17)
(0.99515 -0.0038484 -3.484e-17)
(1.0114 0.015896 2.2749e-17)
(1.0064 -0.00015582 -5.1261e-18)
(1.0018 0.025615 2.836e-18)
(0.9994 0.0003169 4.594e-18)
(0.99957 -0.00072879 2.1905e-18)
(0.9997 -0.00073489 1.1206e-18)
(1.0005 -0.0017526 5.968e-18)
(1.0002 -0.0011375 -2.5958e-18)
(1.003 -0.0020645 5.1794e-17)
(0.99891 -0.0010261 2.057e-17)
(1.0095 0.0015051 -1.8799e-17)
(0.99544 -0.0039329 3.3531e-17)
(1.0114 0.01574 -8.4878e-18)
(1.0068 -3.3406e-05 -3.3827e-18)
(1.0022 0.025143 -1.4163e-18)
(0.99938 0.00032192 1.1268e-18)
(0.99956 -0.00074765 -1.3871e-17)
(0.99968 -0.00075439 2.2427e-18)
(1.0005 -0.0018019 2.68e-17)
(1.0002 -0.0011816 2.0091e-17)
(1.0031 -0.002132 -8.3636e-19)
(0.99894 -0.0011355 -2.8497e-17)
(1.0096 0.0014904 5.693e-18)
(0.99572 -0.0040148 -7.5619e-18)
(1.0114 0.015581 -1.1749e-17)
(1.0072 8.2503e-05 8.6044e-18)
(1.0027 0.024679 1.3194e-18)
(0.99936 0.00032677 -4.4568e-18)
(0.99954 -0.00076688 -4.6242e-18)
(0.99966 -0.00077486 -1.2148e-17)
(1.0005 -0.0018524 -2.2476e-17)
(1.0002 -0.0012287 -2.0215e-17)
(1.0032 -0.0022004 -2.3537e-17)
(0.99897 -0.0012482 5.2623e-18)
(1.0097 0.0014748 4.4252e-17)
(0.996 -0.0040941 3.2956e-18)
(1.0114 0.015418 -1.0269e-18)
(1.0075 0.00019203 -3.0387e-18)
(1.0031 0.024222 -3.5489e-18)
(0.99933 0.00033143 3.3071e-18)
(0.99952 -0.00078651 4.2957e-18)
(0.99964 -0.00079638 1.8721e-17)
(1.0005 -0.001904 1.5566e-17)
(1.0002 -0.0012789 1.9667e-17)
(1.0033 -0.0022697 -8.7487e-19)
(0.99901 -0.0013638 -2.932e-17)
(1.0098 0.0014583 -2.3919e-17)
(0.99628 -0.0041709 8.1786e-18)
(1.0113 0.015253 4.0667e-18)
(1.0079 0.0002953 6.855e-18)
(1.0036 0.023773 2.7418e-18)
(0.99931 0.00033589 -2.3355e-18)
(0.9995 -0.00080654 6.7386e-18)
(0.99962 -0.000819 -1.2386e-17)
(1.0005 -0.0019568 2.2528e-18)
(1.0002 -0.0013322 9.1435e-18)
(1.0033 -0.0023398 -2.3008e-18)
(0.99905 -0.0014818 6.5831e-18)
(1.0099 0.0014411 6.6415e-18)
(0.99655 -0.0042453 2.6918e-18)
(1.0113 0.015085 1.0055e-17)
(1.0083 0.00039241 -8.2452e-18)
(1.004 0.023332 5.5354e-19)
(0.99928 0.00034012 3.5261e-18)
(0.99948 -0.000827 4.1762e-19)
(0.9996 -0.0008428 -5.7976e-18)
(1.0006 -0.0020108 8.9663e-19)
(1.0002 -0.0013887 -1.5028e-18)
(1.0034 -0.0024106 -2.2729e-17)
(0.9991 -0.0016018 1.838e-17)
(1.0099 0.001423 2.3571e-17)
(0.99683 -0.0043175 -1.3401e-17)
(1.0113 0.014914 -1.3993e-17)
(1.0086 0.00048349 -2.412e-18)
(1.0044 0.022898 4.7192e-18)
(0.99925 0.00034412 -2.5614e-18)
(0.99946 -0.00084792 -3.2164e-19)
(0.99958 -0.00086783 7.2084e-18)
(1.0006 -0.002066 -1.7225e-17)
(1.0002 -0.0014482 -1.3583e-17)
(1.0035 -0.002482 2.8695e-17)
(0.99914 -0.0017234 -2.8108e-18)
(1.01 0.0014042 -2.4957e-17)
(0.9971 -0.0043876 3.414e-18)
(1.0113 0.01474 1.3175e-17)
(1.0089 0.00056863 8.1749e-18)
(1.0048 0.022471 -1.7018e-18)
(0.99923 0.00034786 2.5452e-19)
(0.99944 -0.00086933 2.3558e-18)
(0.99956 -0.00089417 3.9385e-18)
(1.0006 -0.0021225 8.9043e-18)
(1.0002 -0.0015109 2.6621e-17)
(1.0036 -0.0025539 6.6901e-18)
(0.99919 -0.0018462 -2.4475e-17)
(1.0101 0.0013846 2.3384e-18)
(0.99737 -0.0044558 8.7945e-18)
(1.0113 0.014563 -1.1872e-17)
(1.0093 0.00064794 -5.5288e-18)
(1.0052 0.022051 -1.9694e-18)
(0.9992 0.00035134 7.2266e-19)
(0.99942 -0.00089123 -4.0982e-19)
(0.99953 -0.00092185 -1.0392e-17)
(1.0006 -0.0021802 -1.9147e-19)
(1.0001 -0.0015765 -5.2633e-17)
(1.0037 -0.0026261 8.2486e-18)
(0.99924 -0.0019699 2.4041e-17)
(1.0102 0.0013641 -6.7188e-18)
(0.99764 -0.0045223 -9.2095e-18)
(1.0113 0.014383 1.9717e-17)
(1.0096 0.00072151 6.6184e-18)
(1.0056 0.021638 5.1054e-18)
(0.99917 0.00035454 7.7626e-19)
(0.99939 -0.00091366 -8.5035e-19)
(0.99951 -0.00095092 1.8793e-17)
(1.0006 -0.0022391 4.1068e-18)
(1.0001 -0.001645 4.664e-17)
(1.0038 -0.0026986 -2.9071e-17)
(0.99929 -0.0020941 -8.0508e-18)
(1.0102 0.0013428 6.3234e-18)
(0.99791 -0.0045871 3.1734e-18)
(1.0113 0.014201 -1.1094e-17)
(1.0099 0.00078943 -1.0705e-18)
(1.006 0.021231 -3.7648e-18)
(0.99914 0.00035744 -3.0337e-18)
(0.99937 -0.00093663 1.4276e-18)
(0.99949 -0.00098141 -1.1046e-17)
(1.0006 -0.0022992 5.3999e-18)
(1.0001 -0.0017163 -1.7722e-17)
(1.0038 -0.0027712 3.9424e-18)
(0.99934 -0.0022185 3.2235e-17)
(1.0103 0.0013205 -2.3666e-17)
(0.99817 -0.0046504 -1.1664e-17)
(1.0114 0.014016 -1.0977e-17)
(1.0102 0.0008518 -5.2653e-18)
(1.0063 0.02083 -1.0341e-18)
(0.99911 0.00036003 3.7788e-18)
(0.99935 -0.00096016 -3.3906e-18)
(0.99946 -0.0010134 -1.0719e-17)
(1.0006 -0.0023604 -8.6108e-18)
(1.0001 -0.0017902 -2.8973e-17)
(1.0039 -0.0028437 -1.8285e-17)
(0.99939 -0.0023429 -1.9765e-17)
(1.0104 0.0012971 2.2005e-17)
(0.99843 -0.0047125 1.1307e-17)
(1.0114 0.013828 1.6624e-17)
(1.0105 0.00090871 -2.0628e-18)
(1.0067 0.020436 4.9923e-18)
(0.99908 0.00036231 -6.0732e-18)
(0.99932 -0.00098427 5.4935e-18)
(0.99943 -0.0010468 2.6245e-17)
(1.0006 -0.0024228 -2.031e-18)
(1.0001 -0.0018665 3.2055e-17)
(1.004 -0.0029161 1.3789e-18)
(0.99944 -0.002467 -1.893e-17)
(1.0104 0.0012726 8.6112e-18)
(0.9987 -0.0047734 -4.0778e-18)
(1.0114 0.013637 -3.4808e-18)
(1.0108 0.00096025 6.6917e-18)
(1.0071 0.020048 -3.376e-18)
(0.99904 0.00036426 4.9768e-18)
(0.9993 -0.001009 -7.4658e-18)
(0.99941 -0.0010817 -3.0599e-17)
(1.0006 -0.0024863 1.3286e-17)
(1.0001 -0.0019451 -2.2837e-17)
(1.0041 -0.0029881 2.5276e-17)
(0.99949 -0.0025907 6.1703e-18)
(1.0105 0.0012469 -8.1978e-18)
(0.99896 -0.0048334 -1.9572e-18)
(1.0114 0.013444 -8.7198e-18)
(1.0111 0.0010065 -1.0913e-17)
(1.0074 0.019666 4.6681e-18)
(0.99901 0.00036587 -3.6658e-18)
(0.99927 -0.0010343 2.4825e-18)
(0.99938 -0.001118 1.8593e-17)
(1.0006 -0.0025508 -1.7514e-17)
(1.0001 -0.0020258 3.6744e-17)
(1.0041 -0.0030598 -1.9618e-17)
(0.99954 -0.0027139 3.5969e-18)
(1.0105 0.0012198 -1.2955e-17)
(0.99921 -0.0048925 6.3887e-18)
(1.0114 0.013248 -1.2207e-18)
(1.0114 0.0010475 4.6706e-18)
(1.0078 0.01929 -2.0755e-18)
(0.99898 0.00036714 4.4959e-18)
(0.99924 -0.0010602 1.9327e-18)
(0.99935 -0.0011558 -1.2395e-17)
(1.0007 -0.0026162 -3.5599e-19)
(1.0001 -0.0021083 -1.6227e-18)
(1.0042 -0.0031309 4.7445e-18)
(0.99959 -0.0028363 3.4154e-17)
(1.0106 0.0011912 8.8617e-18)
(0.99947 -0.004951 -1.8936e-17)
(1.0114 0.01305 -6.3261e-18)
(1.0117 0.0010834 -4.3977e-18)
(1.0081 0.018919 2.1821e-18)
(0.99894 0.00036806 -5.1532e-18)
(0.99922 -0.0010867 -7.1618e-18)
(0.99932 -0.001195 5.2003e-18)
(1.0007 -0.0026825 1.5153e-17)
(1.0001 -0.0021925 -3.3329e-17)