/*--------------------------------*- C++ -*----------------------------------*\
  =========                 |
  \\      /  F ield         | OpenFOAM: The Open Source CFD Toolbox
   \\    /   O peration     | Website:  https://openfoam.org
    \\  /    A nd           | Version:  6.0
     \\/     M anipulation  |
\*---------------------------------------------------------------------------*/
FoamFile
{
    version     2.0;
    format      ascii;
    class       surfaceScalarField;
    location    "0.33";
    object      phi;
}
// * * * * * * * * * * * * * * * * * * * * * * * * * * * * * * * * * * * * * //

dimensions      [0 3 -1 0 0 0 0];

internalField   nonuniform List<scalar> 
26699
(
2.0051e-05
0.005201
3.3869e-10
4.0126e-05
0.0051116
5.9638e-05
0.0049351
7.8188e-05
0.0046741
9.5414e-05
0.0043332
0.00011103
0.0039182
0.00012471
0.0034362
0.00013628
0.0028953
0.00014544
0.002305
0.00015198
0.0016753
0.0001569
0.0010158
0.00046276
3.634e-05
2.0052e-05
0.0051809
1.0292e-09
4.0128e-05
0.0050916
5.9641e-05
0.0049156
7.8193e-05
0.0046556
9.5416e-05
0.004316
0.00011103
0.0039026
0.0001247
0.0034225
0.00013627
0.0028838
0.0001454
0.0022959
0.00015157
0.0016691
0.00015812
0.0010093
0.00055096
6.9929e-05
2.0052e-05
0.0051609
1.7415e-09
4.013e-05
0.0050715
5.9644e-05
0.004896
7.8196e-05
0.004637
9.5421e-05
0.0042988
0.00011103
0.003887
0.00012471
0.0034088
0.00013625
0.0028722
0.00014539
0.0022867
0.00015121
0.0016633
0.00015887
0.0010016
0.00061288
9.6955e-05
2.0053e-05
0.0051408
2.4586e-09
4.0132e-05
0.0050514
5.9647e-05
0.0048765
7.82e-05
0.0046185
9.5426e-05
0.0042816
0.00011104
0.0038714
0.00012471
0.0033952
0.00013624
0.0028607
0.0001454
0.0022776
0.00015093
0.0016578
0.00015909
0.00099346
0.0006541
0.00011787
2.0054e-05
0.0051208
3.1759e-09
4.0134e-05
0.0050313
5.9651e-05
0.004857
7.8204e-05
0.0045999
9.5432e-05
0.0042643
0.00011104
0.0038558
0.00012472
0.0033815
0.00013623
0.0028492
0.00014541
0.0022684
0.00015073
0.0016525
0.00015887
0.00098532
0.0006794
0.00013357
2.0055e-05
0.0051007
3.893e-09
4.0136e-05
0.0050112
5.9655e-05
0.0048375
7.8209e-05
0.0045813
9.5439e-05
0.0042471
0.00011105
0.0038401
0.00012473
0.0033678
0.00013622
0.0028377
0.00014544
0.0022592
0.00015061
0.0016473
0.00015835
0.00097758
0.00069278
0.00014498
2.0055e-05
0.0050807
4.6091e-09
4.0138e-05
0.0049912
5.9659e-05
0.004818
7.8214e-05
0.0045628
9.5447e-05
0.0042299
0.00011105
0.0038245
0.00012475
0.0033541
0.00013622
0.0028262
0.00014547
0.0022499
0.00015057
0.0016422
0.00015768
0.00097046
0.00069749
0.00015297
2.0056e-05
0.0050606
5.3238e-09
4.0141e-05
0.0049711
5.9663e-05
0.0047984
7.8219e-05
0.0045442
9.5456e-05
0.0042126
0.00011106
0.0038089
0.00012476
0.0033404
0.00013622
0.0028147
0.0001455
0.0022407
0.00015058
0.0016371
0.00015698
0.00096406
0.00069614
0.00015834
2.0057e-05
0.0050405
6.0363e-09
4.0143e-05
0.004951
5.9668e-05
0.0047789
7.8226e-05
0.0045257
9.5467e-05
0.0041954
0.00011107
0.0037933
0.00012478
0.0033267
0.00013623
0.0028033
0.00014553
0.0022314
0.00015063
0.001632
0.00015634
0.00095835
0.00069071
0.00016177
2.0058e-05
0.0050205
6.7457e-09
4.0146e-05
0.0049309
5.9674e-05
0.0047594
7.8233e-05
0.0045071
9.5479e-05
0.0041781
0.00011109
0.0037777
0.0001248
0.003313
0.00013624
0.0027919
0.00014556
0.002222
0.00015072
0.0016268
0.0001558
0.00095326
0.00068266
0.00016385
2.006e-05
0.0050004
7.451e-09
4.015e-05
0.0049108
5.968e-05
0.0047399
7.8242e-05
0.0044886
9.5492e-05
0.0041609
0.0001111
0.0037621
0.00012483
0.0032992
0.00013626
0.0027804
0.00014559
0.0022127
0.00015081
0.0016216
0.00015539
0.00094869
0.00067304
0.00016501
2.0061e-05
0.0049803
8.1507e-09
4.0153e-05
0.0048907
5.9687e-05
0.0047203
7.8252e-05
0.00447
9.5507e-05
0.0041436
0.00011112
0.0037465
0.00012486
0.0032855
0.00013628
0.002769
0.00014561
0.0022034
0.00015091
0.0016163
0.00015509
0.00094451
0.00066256
0.00016557
2.0063e-05
0.0049603
8.843e-09
4.0158e-05
0.0048706
5.9694e-05
0.0047008
7.8263e-05
0.0044514
9.5524e-05
0.0041264
0.00011114
0.0037309
0.00012488
0.0032718
0.0001363
0.0027576
0.00014564
0.002194
0.00015101
0.001611
0.00015489
0.00094063
0.00065169
0.00016576
2.0065e-05
0.0049402
9.5253e-09
4.0163e-05
0.0048505
5.9703e-05
0.0046812
7.8275e-05
0.0044329
9.5541e-05
0.0041091
0.00011116
0.0037153
0.00012491
0.003258
0.00013632
0.0027462
0.00014566
0.0021847
0.00015111
0.0016055
0.00015478
0.00093695
0.00064072
0.00016575
2.0067e-05
0.0049201
1.0195e-08
4.0168e-05
0.0048304
5.9712e-05
0.0046617
7.8289e-05
0.0044143
9.556e-05
0.0040918
0.00011118
0.0036997
0.00012494
0.0032443
0.00013635
0.0027348
0.00014567
0.0021754
0.0001512
0.0016
0.00015474
0.00093341
0.00062984
0.00016561
2.007e-05
0.0049
1.0849e-08
4.0174e-05
0.0048103
5.9722e-05
0.0046422
7.8303e-05
0.0043957
9.558e-05
0.0040746
0.0001112
0.003684
0.00012496
0.0032305
0.00013637
0.0027234
0.00014569
0.0021661
0.00015128
0.0015944
0.00015473
0.00092996
0.00061915
0.00016542
2.0073e-05
0.0048799
1.1483e-08
4.0181e-05
0.0047902
5.9733e-05
0.0046226
7.8318e-05
0.0043771
9.5599e-05
0.0040573
0.00011122
0.0036684
0.00012498
0.0032167
0.00013639
0.002712
0.0001457
0.0021568
0.00015136
0.0015887
0.00015476
0.00092656
0.0006087
0.00016521
2.0076e-05
0.0048599
1.2093e-08
4.0188e-05
0.0047701
5.9744e-05
0.004603
7.8334e-05
0.0043585
9.5619e-05
0.00404
0.00011125
0.0036528
0.00012501
0.003203
0.0001364
0.0027006
0.00014571
0.0021474
0.00015143
0.001583
0.00015481
0.00092318
0.00059851
0.000165
2.0079e-05
0.0048398
1.2677e-08
4.0195e-05
0.00475
5.9756e-05
0.0045835
7.8349e-05
0.0043399
9.5638e-05
0.0040227
0.00011127
0.0036372
0.00012502
0.0031892
0.00013642
0.0026892
0.00014572
0.0021382
0.0001515
0.0015772
0.00015486
0.00091982
0.00058859
0.00016478
2.0082e-05
0.0048197
1.323e-08
4.0202e-05
0.0047299
5.9767e-05
0.0045639
7.8364e-05
0.0043213
9.5655e-05
0.0040054
0.00011128
0.0036215
0.00012504
0.0031755
0.00013644
0.0026778
0.00014572
0.0021289
0.00015156
0.0015714
0.00015493
0.00091645
0.00057893
0.00016458
2.0086e-05
0.0047996
1.375e-08
4.021e-05
0.0047097
5.9779e-05
0.0045444
7.8378e-05
0.0043027
9.5672e-05
0.0039881
0.0001113
0.0036059
0.00012506
0.0031617
0.00013645
0.0026664
0.00014573
0.0021196
0.00015162
0.0015655
0.00015499
0.00091309
0.00056953
0.00016439
2.0089e-05
0.0047795
1.4234e-08
4.0217e-05
0.0046896
5.9789e-05
0.0045248
7.8392e-05
0.0042841
9.5687e-05
0.0039708
0.00011131
0.0035903
0.00012507
0.0031479
0.00013646
0.002655
0.00014574
0.0021103
0.00015168
0.0015596
0.00015506
0.00090971
0.00056038
0.00016421
2.0092e-05
0.0047594
1.4681e-08
4.0224e-05
0.0046695
5.98e-05
0.0045052
7.8404e-05
0.0042655
9.57e-05
0.0039535
0.00011133
0.0035746
0.00012508
0.0031342
0.00013647
0.0026436
0.00014574
0.002101
0.00015174
0.0015536
0.00015512
0.00090633
0.00055147
0.00016403
2.0096e-05
0.0047392
1.5091e-08
4.023e-05
0.0046494
5.9809e-05
0.0044856
7.8416e-05
0.0042469
9.5712e-05
0.0039362
0.00011134
0.003559
0.00012509
0.0031204
0.00013648
0.0026322
0.00014574
0.0020918
0.00015179
0.0015475
0.00015519
0.00090293
0.00054279
0.00016387
2.0099e-05
0.0047191
1.5463e-08
4.0237e-05
0.0046292
5.9818e-05
0.004466
7.8426e-05
0.0042283
9.5723e-05
0.0039189
0.00011135
0.0035434
0.0001251
0.0031067
0.00013649
0.0026208
0.00014575
0.0020825
0.00015184
0.0015414
0.00015525
0.00089953
0.00053433
0.00016371
2.0101e-05
0.004699
1.5799e-08
4.0242e-05
0.0046091
5.9826e-05
0.0044465
7.8435e-05
0.0042097
9.5732e-05
0.0039016
0.00011136
0.0035278
0.0001251
0.003093
0.0001365
0.0026094
0.00014575
0.0020733
0.0001519
0.0015353
0.00015531
0.00089611
0.00052609
0.00016356
2.0104e-05
0.0046789
1.6101e-08
4.0247e-05
0.0045889
5.9833e-05
0.0044269
7.8443e-05
0.0041911
9.5739e-05
0.0038843
0.00011136
0.0035121
0.00012511
0.0030792
0.00013651
0.002598
0.00014576
0.002064
0.00015195
0.0015291
0.00015537
0.00089269
0.00051805
0.00016341
2.0106e-05
0.0046588
1.637e-08
4.0252e-05
0.0045688
5.9839e-05
0.0044073
7.845e-05
0.0041725
9.5746e-05
0.003867
0.00011137
0.0034965
0.00012511
0.0030655
0.00013652
0.0025866
0.00014576
0.0020548
0.00015199
0.0015229
0.00015543
0.00088925
0.0005102
0.00016327
2.0108e-05
0.0046386
1.6611e-08
4.0256e-05
0.0045486
5.9844e-05
0.0043877
7.8455e-05
0.0041539
9.5752e-05
0.0038498
0.00011137
0.0034809
0.00012512
0.0030517
0.00013652
0.0025752
0.00014577
0.0020455
0.00015204
0.0015166
0.00015549
0.00088581
0.00050255
0.00016314
2.011e-05
0.0046185
1.6824e-08
4.0259e-05
0.0045285
5.9849e-05
0.0043681
7.846e-05
0.0041353
9.5756e-05
0.0038325
0.00011138
0.0034653
0.00012512
0.003038
0.00013653
0.0025638
0.00014577
0.0020363
0.00015209
0.0015103
0.00015554
0.00088235
0.00049508
0.00016301
2.0112e-05
0.0045984
1.7015e-08
4.0262e-05
0.0045083
5.9853e-05
0.0043485
7.8465e-05
0.0041166
9.576e-05
0.0038152
0.00011138
0.0034497
0.00012512
0.0030242
0.00013654
0.0025523
0.00014578
0.0020271
0.00015213
0.0015039
0.0001556
0.00087889
0.0004878
0.00016288
2.0113e-05
0.0045783
1.7186e-08
4.0265e-05
0.0044882
5.9856e-05
0.0043289
7.8468e-05
0.004098
9.5764e-05
0.0037979
0.00011139
0.003434
0.00012513
0.0030105
0.00013655
0.0025409
0.00014578
0.0020178
0.00015217
0.0014975
0.00015565
0.00087541
0.00048068
0.00016276
2.0114e-05
0.0045581
1.7339e-08
4.0267e-05
0.004468
5.9859e-05
0.0043093
7.8472e-05
0.0040794
9.5767e-05
0.0037806
0.00011139
0.0034184
0.00012513
0.0029967
0.00013656
0.0025295
0.00014579
0.0020086
0.00015222
0.0014911
0.0001557
0.00087193
0.00047374
0.00016265
2.0115e-05
0.004538
1.7479e-08
4.0269e-05
0.0044479
5.9861e-05
0.0042897
7.8474e-05
0.0040608
9.577e-05
0.0037633
0.00011139
0.0034028
0.00012513
0.002983
0.00013657
0.0025181
0.00014579
0.0019994
0.00015226
0.0014846
0.00015575
0.00086843
0.00046696
0.00016253
2.0116e-05
0.0045179
1.7607e-08
4.0271e-05
0.0044277
5.9864e-05
0.0042702
7.8477e-05
0.0040422
9.5773e-05
0.003746
0.0001114
0.0033872
0.00012514
0.0029693
0.00013657
0.0025066
0.0001458
0.0019901
0.0001523
0.0014781
0.0001558
0.00086493
0.00046034
0.00016242
2.0117e-05
0.0044977
1.7725e-08
4.0272e-05
0.0044076
5.9865e-05
0.0042506
7.8479e-05
0.0040236
9.5775e-05
0.0037287
0.0001114
0.0033715
0.00012514
0.0029555
0.00013658
0.0024952
0.00014581
0.0019809
0.00015233
0.0014716
0.00015585
0.00086141
0.00045387
0.00016232
2.0117e-05
0.0044776
1.7837e-08
4.0273e-05
0.0043874
5.9867e-05
0.004231
7.8481e-05
0.004005
9.5777e-05
0.0037114
0.0001114
0.0033559
0.00012514
0.0029418
0.00013659
0.0024838
0.00014581
0.0019717
0.00015237
0.001465
0.0001559
0.00085789
0.00044755
0.00016222
2.0118e-05
0.0044575
1.7942e-08
4.0275e-05
0.0043673
5.9869e-05
0.0042114
7.8483e-05
0.0039864
9.578e-05
0.0036941
0.0001114
0.0033403
0.00012515
0.002928
0.0001366
0.0024723
0.00014582
0.0019625
0.00015241
0.0014584
0.00015595
0.00085435
0.00044137
0.00016212
2.0118e-05
0.0044373
1.8044e-08
4.0276e-05
0.0043471
5.987e-05
0.0041918
7.8485e-05
0.0039677
9.5782e-05
0.0036768
0.00011141
0.0033247
0.00012515
0.0029143
0.00013661
0.0024608
0.00014583
0.0019533
0.00015245
0.0014518
0.00015599
0.0008508
0.00043534
0.00016203
2.0119e-05
0.0044172
1.8143e-08
4.0276e-05
0.0043269
5.9872e-05
0.0041722
7.8487e-05
0.0039491
9.5784e-05
0.0036595
0.00011141
0.003309
0.00012516
0.0029005
0.00013662
0.0024494
0.00014583
0.001944
0.00015248
0.0014452
0.00015604
0.00084724
0.00042944
0.00016194
2.0119e-05
0.004397
1.8239e-08
4.0277e-05
0.0043068
5.9873e-05
0.0041526
7.8488e-05
0.0039305
9.5787e-05
0.0036422
0.00011141
0.0032934
0.00012516
0.0028868
0.00013663
0.0024379
0.00014584
0.0019348
0.00015251
0.0014385
0.00015608
0.00084367
0.00042368
0.00016185
2.012e-05
0.0043769
1.8335e-08
4.0278e-05
0.0042866
5.9874e-05
0.004133
7.849e-05
0.0039119
9.5789e-05
0.0036249
0.00011142
0.0032778
0.00012516
0.0028731
0.00013664
0.0024264
0.00014585
0.0019256
0.00015255
0.0014318
0.00015613
0.00084009
0.00041805
0.00016176
2.012e-05
0.0043568
1.843e-08
4.0279e-05
0.0042665
5.9875e-05
0.0041134
7.8492e-05
0.0038933
9.5791e-05
0.0036076
0.00011142
0.0032622
0.00012517
0.0028593
0.00013665
0.002415
0.00014586
0.0019164
0.00015258
0.0014251
0.00015617
0.0008365
0.00041254
0.00016168
2.012e-05
0.0043366
1.8524e-08
4.028e-05
0.0042463
5.9877e-05
0.0040938
7.8494e-05
0.0038747
9.5793e-05
0.0035903
0.00011142
0.0032465
0.00012517
0.0028456
0.00013665
0.0024035
0.00014586
0.0019072
0.00015261
0.0014183
0.00015621
0.0008329
0.00040715
0.0001616
2.0121e-05
0.0043165
1.8619e-08
4.0281e-05
0.0042261
5.9878e-05
0.0040742
7.8496e-05
0.003856
9.5796e-05
0.003573
0.00011143
0.0032309
0.00012518
0.0028318
0.00013666
0.002392
0.00014587
0.001898
0.00015264
0.0014116
0.00015626
0.00082928
0.00040189
0.00016152
2.0121e-05
0.0042964
1.8714e-08
4.0281e-05
0.004206
5.9879e-05
0.0040546
7.8497e-05
0.0038374
9.5798e-05
0.0035557
0.00011143
0.0032153
0.00012518
0.0028181
0.00013667
0.0023805
0.00014588
0.0018888
0.00015267
0.0014048
0.0001563
0.00082566
0.00039673
0.00016145
2.0121e-05
0.0042762
1.8811e-08
4.0282e-05
0.0041858
5.988e-05
0.004035
7.8499e-05
0.0038188
9.5801e-05
0.0035384
0.00011144
0.0031996
0.00012518
0.0028043
0.00013668
0.002369
0.00014589
0.0018796
0.0001527
0.001398
0.00015634
0.00082202
0.00039169
0.00016138
2.0122e-05
0.0042561
1.8908e-08
4.0283e-05
0.0041657
5.9882e-05
0.0040154
7.8501e-05
0.0038002
9.5803e-05
0.0035211
0.00011144
0.003184
0.00012519
0.0027906
0.00013669
0.0023575
0.0001459
0.0018704
0.00015273
0.0013911
0.00015638
0.00081838
0.00038676
0.00016131
2.0122e-05
0.0042359
1.9006e-08
4.0284e-05
0.0041455
5.9883e-05
0.0039958
7.8503e-05
0.0037816
9.5806e-05
0.0035038
0.00011144
0.0031684
0.00012519
0.0027768
0.0001367
0.002346
0.00014591
0.0018612
0.00015276
0.0013843
0.00015642
0.00081472
0.00038194
0.00016124
2.0123e-05
0.0042158
1.9105e-08
4.0285e-05
0.0041253
5.9884e-05
0.0039762
7.8505e-05
0.0037629
9.5808e-05
0.0034865
0.00011145
0.0031527
0.0001252
0.0027631
0.00013671
0.0023345
0.00014592
0.001852
0.00015279
0.0013774
0.00015646
0.00081105
0.00037722
0.00016118
2.0123e-05
0.0041956
1.9206e-08
4.0285e-05
0.0041052
5.9886e-05
0.0039566
7.8507e-05
0.0037443
9.5811e-05
0.0034692
0.00011145
0.0031371
0.0001252
0.0027493
0.00013672
0.0023229
0.00014593
0.0018428
0.00015281
0.0013705
0.00015649
0.00080737
0.00037259
0.00016112
2.0123e-05
0.0041755
1.9307e-08
4.0286e-05
0.004085
5.9887e-05
0.003937
7.8509e-05
0.0037257
9.5813e-05
0.0034519
0.00011146
0.0031214
0.00012521
0.0027356
0.00013673
0.0023114
0.00014594
0.0018335
0.00015284
0.0013636
0.00015653
0.00080368
0.00036807
0.00016106
2.0124e-05
0.0041554
1.9411e-08
4.0287e-05
0.0040648
5.9888e-05
0.0039174
7.8511e-05
0.0037071
9.5816e-05
0.0034346
0.00011146
0.0031058
0.00012521
0.0027218
0.00013674
0.0022999
0.00014595
0.0018243
0.00015286
0.0013567
0.00015657
0.00079997
0.00036363
0.000161
2.0124e-05
0.0041352
1.9515e-08
4.0288e-05
0.0040447
5.989e-05
0.0038978
7.8513e-05
0.0036885
9.5819e-05
0.0034173
0.00011146
0.0030901
0.00012522
0.0027081
0.00013675
0.0022883
0.00014596
0.0018151
0.00015289
0.0013498
0.0001566
0.00079626
0.00035929
0.00016094
2.0124e-05
0.0041151
1.9621e-08
4.0289e-05
0.0040245
5.9891e-05
0.0038782
7.8515e-05
0.0036698
9.5822e-05
0.0034
0.00011147
0.0030745
0.00012522
0.0026943
0.00013676
0.0022768
0.00014597
0.0018059
0.00015291
0.0013428
0.00015664
0.00079253
0.00035504
0.00016089
2.0125e-05
0.0040949
1.9729e-08
4.029e-05
0.0040044
5.9893e-05
0.0038586
7.8518e-05
0.0036512
9.5825e-05
0.0033827
0.00011147
0.0030588
0.00012523
0.0026806
0.00013678
0.0022652
0.00014598
0.0017967
0.00015294
0.0013359
0.00015667
0.0007888
0.00035088
0.00016084
2.0125e-05
0.0040748
1.9838e-08
4.0291e-05
0.0039842
5.9894e-05
0.003839
7.852e-05
0.0036326
9.5828e-05
0.0033653
0.00011148
0.0030432
0.00012523
0.0026668
0.00013679
0.0022537
0.00014599
0.0017875
0.00015296
0.0013289
0.00015671
0.00078505
0.00034679
0.00016079
2.0126e-05
0.0040546
1.9949e-08
4.0292e-05
0.003964
5.9896e-05
0.0038194
7.8522e-05
0.003614
9.583e-05
0.003348
0.00011148
0.0030275
0.00012524
0.0026531
0.0001368
0.0022421
0.000146
0.0017783
0.00015298
0.0013219
0.00015674
0.00078129
0.00034279
0.00016074
2.0126e-05
0.0040345
2.0061e-08
4.0293e-05
0.0039439
5.9897e-05
0.0037998
7.8524e-05
0.0035953
9.5834e-05
0.0033307
0.00011149
0.0030119
0.00012524
0.0026393
0.00013681
0.0022306
0.00014601
0.0017691
0.000153
0.0013149
0.00015677
0.00077752
0.00033887
0.0001607
2.0126e-05
0.0040143
2.0175e-08
4.0294e-05
0.0039237
5.9899e-05
0.0037802
7.8527e-05
0.0035767
9.5837e-05
0.0033134
0.00011149
0.0029962
0.00012525
0.0026255
0.00013682
0.002219
0.00014602
0.0017599
0.00015303
0.0013079
0.00015681
0.00077374
0.00033502
0.00016065
2.0127e-05
0.0039942
2.029e-08
4.0295e-05
0.0039035
5.99e-05
0.0037606
7.8529e-05
0.0035581
9.584e-05
0.0032961
0.0001115
0.0029806
0.00012525
0.0026118
0.00013683
0.0022074
0.00014603
0.0017507
0.00015305
0.0013009
0.00015684
0.00076995
0.00033125
0.00016061
2.0127e-05
0.0039741
2.0407e-08
4.0296e-05
0.0038834
5.9902e-05
0.003741
7.8532e-05
0.0035394
9.5843e-05
0.0032788
0.0001115
0.0029649
0.00012526
0.002598
0.00013684
0.0021958
0.00014604
0.0017415
0.00015307
0.0012939
0.00015687
0.00076615
0.00032755
0.00016057
2.0128e-05
0.0039539
2.0526e-08
4.0297e-05
0.0038632
5.9904e-05
0.0037214
7.8534e-05
0.0035208
9.5846e-05
0.0032615
0.00011151
0.0029493
0.00012526
0.0025843
0.00013685
0.0021843
0.00014606
0.0017323
0.00015309
0.0012869
0.0001569
0.00076234
0.00032392
0.00016053
2.0128e-05
0.0039338
2.0647e-08
4.0298e-05
0.003843
5.9905e-05
0.0037018
7.8537e-05
0.0035022
9.585e-05
0.0032442
0.00011151
0.0029336
0.00012527
0.0025705
0.00013686
0.0021727
0.00014607
0.0017231
0.00015311
0.0012798
0.00015693
0.00075852
0.00032036
0.00016049
2.0129e-05
0.0039136
2.0769e-08
4.0299e-05
0.0038228
5.9907e-05
0.0036821
7.8539e-05
0.0034835
9.5853e-05
0.0032269
0.00011152
0.0029179
0.00012528
0.0025567
0.00013687
0.0021611
0.00014608
0.0017139
0.00015313
0.0012728
0.00015696
0.00075468
0.00031687
0.00016046
2.0129e-05
0.0038935
2.0893e-08
4.03e-05
0.0038027
5.9909e-05
0.0036625
7.8542e-05
0.0034649
9.5856e-05
0.0032095
0.00011152
0.0029023
0.00012528
0.002543
0.00013688
0.0021495
0.00014609
0.0017047
0.00015315
0.0012657
0.00015699
0.00075084
0.00031343
0.00016042
2.0129e-05
0.0038733
2.1019e-08
4.0301e-05
0.0037825
5.9911e-05
0.0036429
7.8544e-05
0.0034463
9.586e-05
0.0031922
0.00011153
0.0028866
0.00012529
0.0025292
0.00013689
0.0021379
0.0001461
0.0016955
0.00015317
0.0012586
0.00015702
0.00074699
0.00031006
0.00016039
2.013e-05
0.0038532
2.1147e-08
4.0302e-05
0.0037623
5.9912e-05
0.0036233
7.8547e-05
0.0034276
9.5863e-05
0.0031749
0.00011153
0.0028709
0.0001253
0.0025155
0.00013691
0.0021263
0.00014612
0.0016863
0.00015319
0.0012516
0.00015705
0.00074312
0.00030675
0.00016036
2.013e-05
0.003833
2.1277e-08
4.0303e-05
0.0037422
5.9914e-05
0.0036037
7.855e-05
0.003409
9.5867e-05
0.0031576
0.00011154
0.0028553
0.0001253
0.0025017
0.00013692
0.0021146
0.00014613
0.0016771
0.0001532
0.0012445
0.00015708
0.00073925
0.0003035
0.00016033
2.0131e-05
0.0038128
2.1409e-08
4.0304e-05
0.003722
5.9916e-05
0.0035841
7.8553e-05
0.0033904
9.5871e-05
0.0031403
0.00011154
0.0028396
0.00012531
0.0024879
0.00013693
0.002103
0.00014614
0.0016678
0.00015322
0.0012374
0.0001571
0.00073537
0.00030031
0.0001603
2.0131e-05
0.0037927
2.1543e-08
4.0306e-05
0.0037018
5.9918e-05
0.0035645
7.8556e-05
0.0033717
9.5875e-05
0.003123
0.00011155
0.0028239
0.00012531
0.0024742
0.00013694
0.0020914
0.00014615
0.0016586
0.00015324
0.0012303
0.00015713
0.00073148
0.00029717
0.00016027
2.0132e-05
0.0037725
2.1678e-08
4.0307e-05
0.0036816
5.992e-05
0.0035449
7.8558e-05
0.0033531
9.5878e-05
0.0031056
0.00011155
0.0028082
0.00012532
0.0024604
0.00013695
0.0020798
0.00014617
0.0016494
0.00015326
0.0012232
0.00015716
0.00072758
0.00029408
0.00016024
2.0132e-05
0.0037524
2.1816e-08
4.0308e-05
0.0036615
5.9922e-05
0.0035253
7.8561e-05
0.0033345
9.5882e-05
0.0030883
0.00011156
0.0027926
0.00012533
0.0024466
0.00013696
0.0020681
0.00014618
0.0016402
0.00015327
0.0012162
0.00015718
0.00072366
0.00029105
0.00016022
2.0133e-05
0.0037322
2.1956e-08
4.0309e-05
0.0036413
5.9924e-05
0.0035056
7.8564e-05
0.0033158
9.5886e-05
0.003071
0.00011157
0.0027769
0.00012534
0.0024329
0.00013697
0.0020565
0.00014619
0.001631
0.00015329
0.0012091
0.00015721
0.00071974
0.00028806
0.0001602
2.0134e-05
0.0037121
2.2098e-08
4.031e-05
0.0036211
5.9926e-05
0.003486
7.8568e-05
0.0032972
9.589e-05
0.0030537
0.00011157
0.0027612
0.00012534
0.0024191
0.00013699
0.0020448
0.0001462
0.0016218
0.00015331
0.001202
0.00015724
0.00071582
0.00028513
0.00016017
2.0134e-05
0.0036919
2.2243e-08
4.0312e-05
0.0036009
5.9928e-05
0.0034664
7.8571e-05
0.0032785
9.5894e-05
0.0030364
0.00011158
0.0027455
0.00012535
0.0024053
0.000137
0.0020332
0.00014622
0.0016125
0.00015332
0.0011949
0.00015726
0.00071188
0.00028224
0.00016015
2.0135e-05
0.0036718
2.2389e-08
4.0313e-05
0.0035808
5.993e-05
0.0034468
7.8574e-05
0.0032599
9.5899e-05
0.003019
0.00011158
0.0027298
0.00012536
0.0023915
0.00013701
0.0020215
0.00014623
0.0016033
0.00015334
0.0011877
0.00015729
0.00070793
0.00027939
0.00016013
2.0135e-05
0.0036516
2.2538e-08
4.0314e-05
0.0035606
5.9932e-05
0.0034272
7.8577e-05
0.0032412
9.5903e-05
0.0030017
0.00011159
0.0027142
0.00012536
0.0023778
0.00013702
0.0020099
0.00014624
0.0015941
0.00015336
0.0011806
0.00015731
0.00070398
0.00027659
0.00016011
2.0136e-05
0.0036314
2.2689e-08
4.0316e-05
0.0035404
5.9935e-05
0.0034076
7.858e-05
0.0032226
9.5907e-05
0.0029844
0.0001116
0.0026985
0.00012537
0.002364
0.00013703
0.0019982
0.00014626
0.0015849
0.00015337
0.0011735
0.00015733
0.00070001
0.00027384
0.00016009
2.0136e-05
0.0036113
2.2842e-08
4.0317e-05
0.0035202
5.9937e-05
0.0033879
7.8584e-05
0.0032039
9.5912e-05
0.002967
0.0001116
0.0026828
0.00012538
0.0023502
0.00013704
0.0019866
0.00014627
0.0015756
0.00015339
0.0011664
0.00015736
0.00069604
0.00027112
0.00016007
2.0137e-05
0.0035911
2.2998e-08
4.0319e-05
0.0035
5.9939e-05
0.0033683
7.8587e-05
0.0031853
9.5916e-05
0.0029497
0.00011161
0.0026671
0.00012539
0.0023364
0.00013706
0.0019749
0.00014629
0.0015664
0.0001534
0.0011593
0.00015738
0.00069206
0.00026845
0.00016006
2.0138e-05
0.003571
2.3157e-08
4.032e-05
0.0034798
5.9941e-05
0.0033487
7.8591e-05
0.0031667
9.5921e-05
0.0029324
0.00011162
0.0026514
0.00012539
0.0023227
0.00013707
0.0019632
0.0001463
0.0015572
0.00015342
0.0011522
0.00015741
0.00068807
0.00026581
0.00016004
2.0138e-05
0.0035508
2.3318e-08
4.0321e-05
0.0034597
5.9944e-05
0.0033291
7.8594e-05
0.003148
9.5925e-05
0.0029151
0.00011162
0.0026357
0.0001254
0.0023089
0.00013708
0.0019515
0.00014631
0.0015479
0.00015343
0.0011451
0.00015743
0.00068407
0.00026321
0.00016003
2.0139e-05
0.0035306
2.3481e-08
4.0323e-05
0.0034395
5.9946e-05
0.0033094
7.8598e-05
0.0031293
9.593e-05
0.0028977
0.00011163
0.00262
0.00012541
0.0022951
0.00013709
0.0019399
0.00014633
0.0015387
0.00015345
0.0011379
0.00015745
0.00068007
0.00026065
0.00016001
2.0139e-05
0.0035105
2.3647e-08
4.0324e-05
0.0034193
5.9949e-05
0.0032898
7.8601e-05
0.0031107
9.5935e-05
0.0028804
0.00011164
0.0026043
0.00012542
0.0022813
0.0001371
0.0019282
0.00014634
0.0015295
0.00015346
0.0011308
0.00015747
0.00067606
0.00025812
0.00016
2.014e-05
0.0034903
2.3816e-08
4.0326e-05
0.0033991
5.9951e-05
0.0032702
7.8605e-05
0.003092
9.594e-05
0.0028631
0.00011164
0.0025886
0.00012543
0.0022675
0.00013712
0.0019165
0.00014636
0.0015202
0.00015348
0.0011237
0.0001575
0.00067204
0.00025563
0.00015999
2.0141e-05
0.0034702
2.3987e-08
4.0328e-05
0.0033789
5.9954e-05
0.0032506
7.8609e-05
0.0030734
9.5944e-05
0.0028457
0.00011165
0.0025729
0.00012544
0.0022538
0.00013713
0.0019048
0.00014637
0.001511
0.00015349
0.0011166
0.00015752
0.00066801
0.00025317
0.00015998
2.0141e-05
0.00345
2.4162e-08
4.0329e-05
0.0033587
5.9956e-05
0.0032309
7.8612e-05
0.0030547
9.595e-05
0.0028284
0.00011166
0.0025572
0.00012544
0.00224
0.00013714
0.0018931
0.00014639
0.0015017
0.00015351
0.0011095
0.00015754
0.00066398
0.00025075
0.00015997
2.0142e-05
0.0034298
2.4339e-08
4.0331e-05
0.0033385
5.9959e-05
0.0032113
7.8616e-05
0.0030361
9.5955e-05
0.002811
0.00011166
0.0025415
0.00012545
0.0022262
0.00013715
0.0018814
0.0001464
0.0014925
0.00015352
0.0011023
0.00015756
0.00065994
0.00024835
0.00015996
2.0143e-05
0.0034097
2.4519e-08
4.0332e-05
0.0033184
5.9961e-05
0.0031917
7.862e-05
0.0030174
9.596e-05
0.0027937
0.00011167
0.0025257
0.00012546
0.0022124
0.00013716
0.0018697
0.00014641
0.0014832
0.00015353
0.0010952
0.00015758
0.00065589
0.00024598
0.00015995
2.0144e-05
0.0033895
2.4702e-08
4.0334e-05
0.0032982
5.9964e-05
0.0031721
7.8624e-05
0.0029988
9.5965e-05
0.0027764
0.00011168
0.00251
0.00012547
0.0021986
0.00013718
0.001858
0.00014643
0.001474
0.00015355
0.0010881
0.0001576
0.00065183
0.00024365
0.00015994
2.0144e-05
0.0033693
2.4888e-08
4.0336e-05
0.003278
5.9967e-05
0.0031524
7.8628e-05
0.0029801
9.597e-05
0.002759
0.00011169
0.0024943
0.00012548
0.0021848
0.00013719
0.0018463
0.00014644
0.0014647
0.00015356
0.001081
0.00015762
0.00064777
0.00024134
0.00015993
2.0145e-05
0.0033491
2.5077e-08
4.0337e-05
0.0032578
5.997e-05
0.0031328
7.8633e-05
0.0029614
9.5976e-05
0.0027417
0.00011169
0.0024786
0.00012549
0.002171
0.0001372
0.0018346
0.00014646
0.0014555
0.00015358
0.0010739
0.00015765
0.0006437
0.00023906
0.00015993
2.0146e-05
0.003329
2.5269e-08
4.0339e-05
0.0032376
5.9972e-05
0.0031132
7.8637e-05
0.0029428
9.5982e-05
0.0027243
0.0001117
0.0024629
0.0001255
0.0021572
0.00013721
0.0018229
0.00014648
0.0014462
0.00015359
0.0010667
0.00015767
0.00063963
0.00023681
0.00015992
2.0147e-05
0.0033088
2.5464e-08
4.0341e-05
0.0032174
5.9975e-05
0.0030935
7.8641e-05
0.0029241
9.5987e-05
0.002707
0.00011171
0.0024472
0.00012551
0.0021434
0.00013723
0.0018111
0.00014649
0.0014369
0.00015361
0.0010596
0.00015769
0.00063555
0.00023458
0.00015991
2.0147e-05
0.0032886
2.5663e-08
4.0343e-05
0.0031972
5.9978e-05
0.0030739
7.8645e-05
0.0029054
9.5993e-05
0.0026896
0.00011172
0.0024314
0.00012552
0.0021296
0.00013724
0.0017994
0.00014651
0.0014277
0.00015362
0.0010525
0.00015771
0.00063146
0.00023237
0.00015991
2.0148e-05
0.0032685
2.5865e-08
4.0345e-05
0.003177
5.9981e-05
0.0030543
7.865e-05
0.0028868
9.5999e-05
0.0026723
0.00011173
0.0024157
0.00012553
0.0021158
0.00013725
0.0017877
0.00014652
0.0014184
0.00015363
0.0010454
0.00015773
0.00062737
0.00023019
0.00015991
2.0149e-05
0.0032483
2.607e-08
4.0347e-05
0.0031568
5.9984e-05
0.0030346
7.8654e-05
0.0028681
9.6005e-05
0.0026549
0.00011173
0.0024
0.00012554
0.002102
0.00013727
0.001776
0.00014654
0.0014091
0.00015365
0.0010383
0.00015775
0.00062327
0.00022804
0.0001599
2.015e-05
0.0032281
2.6279e-08
4.0348e-05
0.0031366
5.9987e-05
0.003015
7.8659e-05
0.0028494
9.6011e-05
0.0026376
0.00011174
0.0023842
0.00012555
0.0020882
0.00013728
0.0017642
0.00014655
0.0013999
0.00015366
0.0010312
0.00015777
0.00061917
0.0002259
0.0001599
2.0151e-05
0.0032079
2.6492e-08
4.035e-05
0.0031164
5.9991e-05
0.0029953
7.8663e-05
0.0028307
9.6017e-05
0.0026202
0.00011175
0.0023685
0.00012556
0.0020744
0.00013729
0.0017525
0.00014657
0.0013906
0.00015368
0.0010241
0.00015779
0.00061506
0.00022379
0.0001599
2.0152e-05
0.0031877
2.6708e-08
4.0352e-05
0.0030962
5.9994e-05
0.0029757
7.8668e-05
0.0028121
9.6023e-05
0.0026029
0.00011176
0.0023528
0.00012557
0.0020606
0.00013731
0.0017408
0.00014658
0.0013813
0.00015369
0.001017
0.00015781
0.00061095
0.0002217
0.0001599
2.0152e-05
0.0031676
2.6928e-08
4.0354e-05
0.003076
5.9997e-05
0.0029561
7.8673e-05
0.0027934
9.6029e-05
0.0025855
0.00011177
0.002337
0.00012558
0.0020468
0.00013732
0.001729
0.0001466
0.001372
0.00015371
0.0010099
0.00015783
0.00060683
0.00021963
0.0001599
2.0153e-05
0.0031474
2.7152e-08
4.0357e-05
0.0030558
6e-05
0.0029364
7.8678e-05
0.0027747
9.6036e-05
0.0025682
0.00011178
0.0023213
0.00012559
0.002033
0.00013733
0.0017173
0.00014662
0.0013627
0.00015372
0.0010028
0.00015785
0.0006027
0.00021758
0.0001599
2.0154e-05
0.0031272
2.7379e-08
4.0359e-05
0.0030356
6.0004e-05
0.0029168
7.8683e-05
0.002756
9.6042e-05
0.0025508
0.00011179
0.0023055
0.0001256
0.0020191
0.00013735
0.0017055
0.00014663
0.0013535
0.00015373
0.00099565
0.00015787
0.00059857
0.00021555
0.0001599
2.0155e-05
0.003107
2.7611e-08
4.0361e-05
0.0030154
6.0007e-05
0.0028971
7.8688e-05
0.0027374
9.6049e-05
0.0025334
0.00011179
0.0022898
0.00012561
0.0020053
0.00013736
0.0016938
0.00014665
0.0013442
0.00015375
0.00098855
0.00015788
0.00059443
0.00021353
0.0001599
2.0156e-05
0.0030868
2.7847e-08
4.0363e-05
0.0029952
6.0011e-05
0.0028775
7.8693e-05
0.0027187
9.6056e-05
0.0025161
0.0001118
0.0022741
0.00012562
0.0019915
0.00013737
0.001682
0.00014667
0.0013349
0.00015376
0.00098146
0.0001579
0.00059029
0.00021154
0.0001599
2.0157e-05
0.0030667
2.8087e-08
4.0365e-05
0.002975
6.0014e-05
0.0028578
7.8698e-05
0.0027
9.6063e-05
0.0024987
0.00011181
0.0022583
0.00012563
0.0019777
0.00013739
0.0016703
0.00014668
0.0013256
0.00015378
0.00097436
0.00015792
0.00058615
0.00020956
0.0001599
2.0158e-05
0.0030465
2.8331e-08
4.0367e-05
0.0029548
6.0018e-05
0.0028382
7.8703e-05
0.0026813
9.607e-05
0.0024813
0.00011182
0.0022426
0.00012565
0.0019639
0.0001374
0.0016585
0.0001467
0.0013163
0.00015379
0.00096727
0.00015794
0.000582
0.0002076
0.00015991
2.0159e-05
0.0030263
2.8579e-08
4.037e-05
0.0029346
6.0021e-05
0.0028185
7.8709e-05
0.0026626
9.6077e-05
0.002464
0.00011183
0.0022268
0.00012566
0.00195
0.00013742
0.0016468
0.00014672
0.001307
0.00015381
0.00096018
0.00015796
0.00057785
0.00020565
0.00015991
2.016e-05
0.0030061
2.8832e-08
4.0372e-05
0.0029143
6.0025e-05
0.0027989
7.8714e-05
0.0026439
9.6084e-05
0.0024466
0.00011184
0.002211
0.00012567
0.0019362
0.00013743
0.001635
0.00014674
0.0012977
0.00015382
0.00095309
0.00015798
0.00057369
0.00020372
0.00015991
2.0161e-05
0.0029859
2.909e-08
4.0374e-05
0.0028941
6.0029e-05
0.0027792
7.872e-05
0.0026252
9.6092e-05
0.0024292
0.00011185
0.0021953
0.00012568
0.0019224
0.00013744
0.0016232
0.00014675
0.0012884
0.00015384
0.00094601
0.000158
0.00056953
0.0002018
0.00015992
2.0162e-05
0.0029657
2.9352e-08
4.0377e-05
0.0028739
6.0033e-05
0.0027596
7.8726e-05
0.0026066
9.6099e-05
0.0024119
0.00011186
0.0021795
0.00012569
0.0019086
0.00013746
0.0016115
0.00014677
0.0012791
0.00015385