/*--------------------------------*- C++ -*----------------------------------*\
  =========                 |
  \\      /  F ield         | OpenFOAM: The Open Source CFD Toolbox
   \\    /   O peration     | Website:  https://openfoam.org
    \\  /    A nd           | Version:  6.0
     \\/     M anipulation  |
\*---------------------------------------------------------------------------*/
FoamFile
{
    version     2.0;
    format      ascii;
    class       volVectorField;
    location    "0.33";
    object      U;
}
// * * * * * * * * * * * * * * * * * * * * * * * * * * * * * * * * * * * * * //

dimensions      [0 1 -1 0 0 0 0];

internalField   nonuniform List<vector> 
13500
(
(1 1.0956e-06 -4.6382e-18)
(1 -5.2303e-06 3.1377e-18)
(1 -5.855e-06 -1.3468e-17)
(1 -1.3428e-05 -9.3504e-18)
(1 -6.0206e-06 1.7476e-17)
(1 -1.6574e-05 3.2965e-17)
(0.99999 7.7209e-06 2.7661e-17)
(1 -4.8276e-06 -4.6219e-18)
(0.99987 5.6226e-05 1.6031e-17)
(0.99985 6.1985e-05 3.7192e-18)
(0.99724 0.00045553 2.8075e-17)
(1.0147 0.011007 8.7008e-18)
(1 3.1411e-06 2.8735e-18)
(1 -1.5645e-05 -9.5291e-18)
(1 -1.7398e-05 6.4315e-18)
(1 -4.0717e-05 -3.6901e-19)
(1 -1.6835e-05 -4.6609e-19)
(1 -5.3352e-05 -3.9638e-17)
(0.99997 2.8741e-05 -4.7773e-17)
(1.0001 -3.0299e-05 -2.6449e-17)
(0.99962 0.00018701 -1.6e-17)
(0.99981 0.00013597 -1.8387e-18)
(0.99189 0.0011912 -1.3296e-17)
(1.0388 0.030794 -5.2679e-18)
(1 4.9367e-06 -3.7114e-18)
(1 -2.6265e-05 1.8932e-17)
(1 -2.964e-05 3.3452e-18)
(1 -6.9087e-05 1.0781e-17)
(1 -2.8422e-05 -4.0298e-18)
(1.0001 -9.4114e-05 3.1753e-17)
(0.99995 5.0605e-05 -6.7213e-18)
(1.0001 -6.954e-05 6.0076e-18)
(0.99937 0.00032479 -1.9405e-17)
(1 0.00020459 2.793e-17)
(0.98702 0.001551 -6.9612e-18)
(1.0553 0.044758 1.8604e-18)
(1 6.4708e-06 9.7025e-18)
(1 -3.7146e-05 -1.8355e-17)
(1 -4.2848e-05 -1.5858e-17)
(1 -9.851e-05 -7.5652e-19)
(1 -4.1873e-05 6.2205e-18)
(1.0001 -0.00013831 -8.8043e-19)
(0.99994 6.952e-05 6.6247e-17)
(1.0002 -0.00012044 1.0827e-17)
(0.99913 0.00045856 2.2946e-17)
(1.0004 0.00027775 -1.0117e-17)
(0.9829 0.001585 3.394e-17)
(1.0635 0.054395 -8.4692e-18)
(1 7.7387e-06 -6.8174e-18)
(1 -4.8291e-05 1.5864e-17)
(1 -5.7107e-05 1.3499e-17)
(1.0001 -0.00012895 1.3799e-17)
(1 -5.7893e-05 3.0499e-18)
(1.0002 -0.00018591 2.3342e-17)
(0.99993 8.2714e-05 -2.9582e-17)
(1.0003 -0.00018246 2.2003e-18)
(0.9989 0.0005804 -1.4066e-17)
(1.001 0.00035799 -2.4138e-18)
(0.9797 0.0013823 -8.7712e-18)
(1.0646 0.061029 2.3422e-18)
(1 8.7079e-06 6.8993e-18)
(1 -5.9803e-05 -6.5765e-18)
(1 -7.2664e-05 4.1224e-18)
(1.0001 -0.00016075 -2.7334e-17)
(1.0001 -7.7322e-05 -8.9532e-20)
(1.0002 -0.0002378 -4.6209e-17)
(0.99993 8.7887e-05 1.1344e-18)
(1.0004 -0.0002559 -1.7657e-17)
(0.99868 0.00068506 5.3567e-18)
(1.0016 0.00044795 -2.4324e-17)
(0.97747 0.001031 -2.123e-17)
(1.0607 0.0654 2.2747e-18)
(0.99999 9.3345e-06 -1.1421e-18)
(1 -7.1836e-05 -7.8655e-18)
(1 -8.9835e-05 -3.3504e-18)
(1.0001 -0.00019443 2.0632e-17)
(1.0001 -0.00010114 -2.8248e-17)
(1.0003 -0.00029504 1.7682e-17)
(0.99993 8.2814e-05 1.9781e-17)
(1.0006 -0.00034052 6.2118e-18)
(0.9985 0.00076864 1.1971e-17)
(1.0023 0.00055021 1.3095e-17)
(0.97613 0.00060588 9.1817e-18)
(1.0537 0.068026 3.6773e-18)
(0.99999 9.5612e-06 -2.3572e-18)
(1 -8.4601e-05 -1.5473e-18)
(1 -0.00010903 -2.8861e-17)
(1.0001 -0.00023065 -9.852e-18)
(1.0001 -0.00013047 7.9069e-18)
(1.0003 -0.00035873 2.898e-17)
(0.99996 6.5427e-05 1.2588e-17)
(1.0008 -0.00043522 5.5473e-18)
(0.99836 0.0008286 -7.8249e-18)
(1.003 0.00066632 1.8347e-17)
(0.97554 0.00016464 7.4516e-18)
(1.0454 0.069334 -1.1726e-17)
(0.99999 9.3148e-06 -7.3175e-18)
(1 -9.8363e-05 6.6522e-18)
(1 -0.00013072 4.8527e-17)
(1.0001 -0.00027015 -1.1817e-17)
(1.0001 -0.00016651 2.9607e-17)
(1.0004 -0.00042984 -5.7216e-17)
(0.99999 3.4174e-05 -4.1938e-17)
(1.0009 -0.00053815 1.078e-17)
(0.99825 0.00086417 -5.8764e-18)
(1.0036 0.00079674 -1.0117e-17)
(0.97555 -0.00025261 -1.3727e-17)
(1.0371 0.06967 1.5369e-17)
(0.99999 8.506e-06 4.821e-18)
(1 -0.00011344 2.5039e-18)
(1 -0.00015548 -4.1105e-17)
(1.0001 -0.00031378 1.6818e-17)
(1.0001 -0.00021037 -1.2911e-17)
(1.0004 -0.00050914 2.4404e-17)
(1 -1.1669e-05 1.4902e-17)
(1.0011 -0.00064686 2.7264e-18)
(0.99817 0.00087645 5.5434e-19)
(1.0042 0.00094105 1.6059e-18)
(0.97597 -0.00062198 4.3952e-18)
(1.0297 0.069308 -7.9064e-19)
(0.99998 7.0319e-06 -2.6469e-18)
(1 -0.00013019 -8.2119e-18)
(1 -0.00018386 1.0076e-17)
(1.0002 -0.00036233 -2.9675e-18)
(1.0002 -0.00026293 1.9928e-18)
(1.0005 -0.00059695 -2.6746e-17)
(1.0001 -7.1841e-05 -3.4319e-17)
(1.0014 -0.00075839 -3.4617e-17)
(0.99814 0.00086805 1.6424e-17)
(1.0047 0.0010982 2.0869e-18)
(0.97667 -0.0009329 -1.1144e-17)
(1.0235 0.068461 -6.6535e-18)
(0.99998 4.7826e-06 3.6534e-18)
(1 -0.00014899 3.1018e-18)
(1.0001 -0.00021641 4.8559e-18)
(1.0002 -0.0004165 -2.365e-18)
(1.0002 -0.00032471 -5.9738e-18)
(1.0006 -0.00069303 1.0116e-17)
(1.0002 -0.00014507 1.9866e-17)
(1.0016 -0.00086954 2.1387e-17)
(0.99813 0.00084257 1.0554e-17)
(1.0051 0.0012664 -2.6322e-17)
(0.97754 -0.0011844 1.0801e-19)
(1.0186 0.067287 -7.7402e-18)
(0.99998 1.6511e-06 -3.6528e-18)
(1 -0.00017015 6.0996e-18)
(1.0001 -0.00025356 8.8038e-18)
(1.0002 -0.00047675 6.1752e-18)
(1.0002 -0.00039573 -5.5403e-18)
(1.0007 -0.00079652 4.9733e-18)
(1.0003 -0.00022918 4.5301e-18)
(1.0018 -0.00097709 -1.9097e-18)
(0.99815 0.00080411 -1.7058e-17)
(1.0055 0.0014437 2.4415e-17)
(0.97847 -0.0013815 9.6811e-20)
(1.015 0.065906 1.6413e-18)
(0.99997 -2.4547e-06 5.5547e-18)
(1 -0.00019395 -4.7613e-18)
(1.0001 -0.00029558 7.7059e-19)
(1.0002 -0.00054321 -5.1515e-18)
(1.0003 -0.00047547 1.2582e-17)
(1.0008 -0.00090594 6.0686e-18)
(1.0003 -0.00032133 1.8224e-17)
(1.002 -0.0010781 -7.0951e-18)
(0.99818 0.00075675 -2.0932e-19)
(1.0058 0.0016278 6.0043e-18)
(0.97943 -0.0015324 1.7027e-17)
(1.0124 0.064402 1.0471e-18)
(0.99997 -7.5978e-06 1.3397e-18)
(1 -0.00022053 1.0567e-17)
(1.0001 -0.0003425 1.4721e-17)
(1.0003 -0.00061562 -5.1364e-18)
(1.0003 -0.00056281 9.1101e-18)
(1.0009 -0.0010193 -2.8329e-18)
(1.0004 -0.00041829 -3.1918e-17)
(1.0022 -0.0011702 2.2458e-17)
(0.99823 0.00070414 -1.9241e-17)
(1.006 0.0018163 -3.4618e-17)
(0.98038 -0.001646 -3.7265e-18)
(1.0106 0.062835 9.7352e-19)
(0.99996 -1.3801e-05 -3.4178e-18)
(1 -0.00024989 -1.1238e-17)
(1.0001 -0.00039406 -3.5334e-17)
(1.0003 -0.0006933 8.6535e-18)
(1.0004 -0.00065615 -1.3825e-17)
(1.001 -0.0011343 9.084e-18)
(1.0005 -0.00051677 -2.9855e-18)
(1.0024 -0.0012515 -1.352e-17)
(0.99828 0.00064927 4.2217e-18)
(1.0062 0.0020068 2.0675e-17)
(0.98129 -0.0017307 -7.8577e-18)
(1.0094 0.061246 1.3703e-17)
(0.99996 -2.104e-05 3.596e-19)
(1 -0.00028188 8.4049e-18)
(1.0001 -0.00044974 2.4394e-17)
(1.0003 -0.00077519 -1.949e-18)
(1.0004 -0.00075352 -1.3734e-17)
(1.0011 -0.0012483 -1.6928e-17)
(1.0006 -0.00061372 1.1407e-17)
(1.0025 -0.001321 7.7545e-18)
(0.99834 0.00059438 2.4422e-17)
(1.0064 0.0021972 -2.8973e-18)
(0.98217 -0.0017938 1.9603e-18)
(1.0086 0.059662 -5.4648e-18)
(0.99995 -2.9236e-05 -2.0176e-18)
(1 -0.00031616 -1.0184e-17)
(1.0001 -0.00050876 -1.1007e-17)
(1.0004 -0.00085993 6.5128e-18)
(1.0005 -0.00085271 -7.7127e-18)
(1.0012 -0.0013592 -1.3579e-17)
(1.0007 -0.00070655 1.1088e-17)
(1.0027 -0.0013784 -5.2605e-18)
(0.9984 0.00054094 -3.0233e-17)
(1.0065 0.0023855 -1.6243e-17)
(0.98302 -0.001841 8.5103e-18)
(1.0081 0.058099 -5.9456e-18)
(0.99994 -3.8261e-05 -2.8889e-18)
(1 -0.00035227 -3.849e-18)
(1.0001 -0.00057012 -8.1577e-19)
(1.0004 -0.00094596 -2.8519e-17)
(1.0006 -0.00095149 6.472e-18)
(1.0012 -0.0014646 5.9126e-18)
(1.0008 -0.00079328 -2.1069e-17)
(1.0028 -0.0014239 -1.7964e-17)
(0.99845 0.0004898 4.4177e-18)
(1.0066 0.0025702 -1.2266e-18)
(0.98383 -0.0018768 -9.8198e-18)
(1.0078 0.056565 1.1243e-18)
(0.99993 -4.7947e-05 3.7577e-18)
(1 -0.00038962 1.7645e-17)
(1.0001 -0.00063268 2.1005e-17)
(1.0004 -0.0010317 2.6858e-18)
(1.0006 -0.0010478 1.789e-17)
(1.0013 -0.001563 1.0362e-17)
(1.0009 -0.00087261 3.0415e-18)
(1.0029 -0.0014582 1.9662e-17)
(0.99851 0.00044128 2.1976e-17)
(1.0067 0.0027498 1.9401e-17)
(0.98461 -0.0019042 7.3462e-18)
(1.0076 0.055068 1.3371e-18)
(0.99993 -5.8093e-05 -1.791e-18)
(1 -0.00042754 -4.2337e-18)
(1.0001 -0.00069527 -2.2378e-17)
(1.0005 -0.0011154 -2.543e-18)
(1.0006 -0.0011398 -1.3558e-17)
(1.0014 -0.001653 -5.6071e-18)
(1.0009 -0.00094385 -1.951e-18)
(1.003 -0.0014826 -1.7781e-17)
(0.99856 0.00039533 -2.1025e-17)
(1.0068 0.0029234 9.9476e-18)
(0.98536 -0.0019256 5.1179e-19)
(1.0075 0.053608 7.6909e-19)
(0.99992 -6.8483e-05 4.7474e-18)
(1 -0.00046537 -5.5311e-18)
(1.0002 -0.00075675 -2.0988e-17)
(1.0005 -0.0011959 4.8347e-17)
(1.0007 -0.0012261 1.9667e-17)
(1.0015 -0.0017342 -1.372e-17)
(1.001 -0.0010069 2.6237e-17)
(1.0031 -0.0014982 2.4032e-17)
(0.99861 0.00035166 3.4122e-17)
(1.0069 0.0030903 -3.6468e-17)
(0.98608 -0.0019423 -1.3501e-17)
(1.0074 0.052186 2.0416e-19)
(0.9999 -7.89e-05 -3.4749e-18)
(0.99999 -0.00050244 -1.1099e-18)
(1.0002 -0.00081608 3.5831e-17)
(1.0005 -0.0012719 -3.6547e-17)
(1.0007 -0.0013057 -1.8934e-18)
(1.0015 -0.0018062 4.546e-17)
(1.001 -0.0010622 8.1304e-18)
(1.0032 -0.0015066 -3.7116e-18)
(0.99866 0.00030989 -2.1167e-17)
(1.007 0.0032498 4.298e-17)
(0.98679 -0.0019553 -5.7312e-18)
(1.0074 0.050802 -3.2291e-19)
(0.99989 -8.914e-05 -1.7714e-18)
(0.99999 -0.00053818 -2.2116e-18)
(1.0002 -0.00087241 1.8656e-18)
(1.0005 -0.0013425 3.8021e-17)
(1.0008 -0.001378 -1.0674e-17)
(1.0016 -0.0018693 -3.3602e-17)
(1.0011 -0.0011103 -2.073e-17)
(1.0032 -0.001509 -3.9964e-18)
(0.99871 0.00026959 6.6962e-18)
(1.007 0.0034017 -3.6262e-17)
(0.98747 -0.0019652 9.5942e-18)
(1.0073 0.049456 3.5008e-18)
(0.99988 -9.9025e-05 2.9274e-18)
(0.99998 -0.00057211 1.5393e-17)
(1.0002 -0.00092508 -1.3761e-17)
(1.0005 -0.0014073 -3.9812e-18)
(1.0008 -0.0014429 -2.0484e-17)
(1.0016 -0.001924 3.6557e-17)
(1.0011 -0.0011521 -1.8197e-17)
(1.0033 -0.0015068 1.6573e-17)
(0.99876 0.00023033 -2.0643e-18)
(1.0071 0.0035458 3.3997e-17)
(0.98814 -0.0019726 -9.3747e-18)
(1.0073 0.048146 -5.84e-18)
(0.99987 -0.00010841 -5.6145e-19)
(0.99997 -0.00060386 -8.8528e-18)
(1.0002 -0.00097366 -1.9268e-17)
(1.0006 -0.001466 -1.0909e-17)
(1.0008 -0.0015005 1.9868e-17)
(1.0017 -0.0019712 -4.6617e-17)
(1.0011 -0.0011886 -2.8074e-18)
(1.0034 -0.001501 -2.2391e-17)
(0.99882 0.00019174 3.3364e-18)
(1.0071 0.0036819 -9.8065e-18)
(0.98878 -0.0019774 9.9802e-18)
(1.0072 0.04687 2.4788e-18)
(0.99985 -0.00011719 2.9411e-18)
(0.99996 -0.0006332 -9.4826e-18)
(1.0002 -0.001018 -1.9032e-18)
(1.0006 -0.0015186 2.6506e-18)
(1.0008 -0.0015514 6.288e-18)
(1.0017 -0.0020118 1.347e-17)
(1.0011 -0.0012207 4.6033e-17)
(1.0034 -0.0014927 2.6761e-18)
(0.99887 0.00015354 5.4409e-18)
(1.0072 0.0038101 1.0805e-17)
(0.98941 -0.0019801 -8.547e-18)
(1.0072 0.045628 1.9051e-18)
(0.99984 -0.00012528 -1.6865e-18)
(0.99995 -0.00066 9.4739e-18)
(1.0002 -0.0010579 2.7388e-17)
(1.0006 -0.0015655 -2.6707e-17)
(1.0008 -0.0015961 -9.7809e-18)
(1.0017 -0.0020468 -2.3704e-18)
(1.0012 -0.0012495 -1.5173e-17)
(1.0035 -0.0014826 2.0759e-18)
(0.99892 0.00011547 -9.4252e-18)
(1.0072 0.0039305 -3.9731e-18)
(0.99003 -0.0019807 -2.4819e-19)
(1.0071 0.044418 -2.3262e-18)
(0.99982 -0.00013267 -1.8126e-18)
(0.99994 -0.00068428 5.6705e-18)
(1.0002 -0.0010937 -6.6249e-19)
(1.0006 -0.0016071 8.8557e-18)
(1.0008 -0.0016354 -1.8046e-17)
(1.0017 -0.002077 2.682e-17)
(1.0012 -0.0012756 7.568e-18)
(1.0035 -0.0014713 -1.9808e-17)
(0.99897 7.7365e-05 -1.2096e-17)
(1.0073 0.0040432 -1.572e-17)
(0.99063 -0.0019792 1.3499e-18)
(1.0071 0.04324 -4.2634e-18)
(0.9998 -0.00013935 6.2987e-19)
(0.99993 -0.00070611 -1.3542e-17)
(1.0002 -0.0011256 1.6958e-17)
(1.0006 -0.0016438 2.4493e-17)
(1.0009 -0.00167 3.5371e-17)
(1.0018 -0.0021035 -1.9696e-17)
(1.0012 -0.0012998 -1.8816e-17)
(1.0035 -0.0014594 4.0191e-18)
(0.99903 3.9084e-05 1.1332e-17)
(1.0073 0.0041483 1.2301e-17)
(0.99121 -0.0019758 6.3171e-18)
(1.007 0.042092 4.2378e-18)
(0.99979 -0.00014534 1.2071e-18)
(0.99991 -0.00072565 1.0769e-17)
(1.0001 -0.001154 -3.8962e-17)
(1.0006 -0.0016764 -3.5491e-18)
(1.0009 -0.0017008 -2.9382e-17)
(1.0018 -0.0021271 -1.2407e-17)
(1.0012 -0.0013227 2.6601e-20)
(1.0036 -0.0014472 -4.5979e-18)
(0.99909 5.4287e-07 -2.2349e-17)
(1.0074 0.0042459 -1.9634e-17)
(0.99178 -0.0019707 -8.6467e-18)
(1.007 0.040973 -2.0891e-18)
(0.99977 -0.0001507 -7.8236e-19)
(0.9999 -0.00074311 -7.0033e-18)
(1.0001 -0.0011793 3.0655e-17)
(1.0006 -0.0017054 -3.3862e-17)
(1.0009 -0.0017285 -2.2094e-18)
(1.0018 -0.0021483 2.6421e-17)
(1.0012 -0.0013448 7.5292e-19)
(1.0036 -0.0014351 4.3845e-18)
(0.99915 -3.8316e-05 1.9564e-17)
(1.0074 0.0043362 2.5516e-17)
(0.99233 -0.0019638 4.9421e-18)
(1.007 0.039883 -1.1649e-18)
(0.99975 -0.00015547 -2.0367e-18)
(0.99988 -0.00075874 -2.5826e-18)
(1.0001 -0.0012018 -1.359e-17)
(1.0006 -0.0017315 1.6869e-17)
(1.0009 -0.0017538 3.2291e-17)
(1.0018 -0.0021679 -1.1677e-17)
(1.0012 -0.0013665 2.3434e-17)
(1.0037 -0.0014233 3.2865e-18)
(0.99921 -7.7526e-05 -2.2204e-18)
(1.0074 0.0044195 1.1531e-17)
(0.99287 -0.0019552 -5.5432e-18)
(1.0069 0.038821 -8.112e-19)
(0.99973 -0.00015974 5.0937e-19)
(0.99987 -0.00077277 -6.8296e-18)
(1.0001 -0.0012221 5.0871e-18)
(1.0006 -0.0017551 -1.7192e-17)
(1.0009 -0.0017771 -3.4154e-17)
(1.0018 -0.0021862 7.3588e-18)
(1.0012 -0.001388 -3.3807e-17)
(1.0037 -0.0014119 -7.5155e-18)
(0.99928 -0.0001171 7.1967e-18)
(1.0075 0.0044959 -3.6204e-17)
(0.99339 -0.0019452 3.7864e-18)
(1.0069 0.037786 2.295e-18)
(0.99971 -0.00016356 8.9446e-19)
(0.99985 -0.00078546 1.8504e-17)
(1.0001 -0.0012406 8.5176e-18)
(1.0006 -0.0017768 7.003e-18)
(1.0008 -0.0017991 2.7311e-17)
(1.0018 -0.0022038 2.194e-18)
(1.0012 -0.0014096 2.3345e-17)
(1.0038 -0.0014011 5.3897e-18)
(0.99934 -0.00015706 -2.1892e-17)
(1.0075 0.0045655 1.2461e-17)
(0.99391 -0.0019337 2.5635e-18)
(1.0069 0.036776 2.3779e-18)
(0.99969 -0.00016701 -3.1231e-18)
(0.99983 -0.00079703 -6.0907e-18)
(1.0001 -0.0012575 -7.4835e-18)
(1.0006 -0.0017971 1.15e-17)
(1.0008 -0.00182 1.3193e-17)
(1.0018 -0.0022208 -4.3693e-18)
(1.0013 -0.0014314 -1.961e-17)
(1.0038 -0.001391 2.4543e-17)
(0.99941 -0.00019738 4.046e-18)
(1.0075 0.0046285 -3.761e-18)
(0.9944 -0.0019209 1.064e-17)
(1.0069 0.035792 -1.6512e-18)
(0.99967 -0.00017016 6.4174e-18)
(0.99982 -0.00080771 7.2938e-18)
(1.0001 -0.0012733 -7.9548e-18)
(1.0006 -0.0018163 -7.1637e-18)
(1.0008 -0.0018403 -1.8932e-17)
(1.0018 -0.0022376 -7.5046e-18)
(1.0013 -0.0014535 9.6685e-18)
(1.0038 -0.0013817 -3.9367e-17)
(0.99948 -0.00023807 9.9257e-18)
(1.0076 0.0046852 -4.4422e-18)
(0.99489 -0.0019069 -1.1277e-17)
(1.0069 0.034833 4.7949e-18)
(0.99965 -0.00017306 -2.8323e-18)
(0.9998 -0.00081768 -1.2815e-17)
(1.0001 -0.0012882 -7.7094e-18)
(1.0005 -0.0018347 -1.3594e-17)
(1.0008 -0.0018603 -5.7805e-18)
(1.0018 -0.0022543 2.2065e-17)
(1.0013 -0.0014762 -9.4982e-18)
(1.0039 -0.0013732 4.3794e-17)
(0.99955 -0.00027911 9.3664e-18)
(1.0076 0.0047356 1.3481e-17)
(0.99536 -0.0018917 4.7574e-18)
(1.0069 0.033899 -7.7731e-18)
(0.99963 -0.00017577 -1.5023e-18)
(0.99978 -0.00082711 9.5301e-18)
(1 -0.0013024 1.5275e-17)
(1.0005 -0.0018525 3.6651e-17)
(1.0008 -0.00188 7.662e-18)
(1.0019 -0.002271 -1.5135e-17)
(1.0013 -0.0014993 4.5837e-18)
(1.0039 -0.0013655 -4.7116e-17)
(0.99962 -0.0003205 -1.1369e-17)
(1.0076 0.00478 -7.4923e-18)
(0.99582 -0.0018756 4.6802e-18)
(1.0069 0.032987 7.8143e-18)
(0.99961 -0.00017834 1.1497e-18)
(0.99976 -0.00083613 2.2559e-18)
(1 -0.0013162 -1.5001e-17)
(1.0005 -0.00187 -6.1051e-18)
(1.0008 -0.0018997 9.7284e-18)
(1.0019 -0.0022879 1.8115e-17)
(1.0013 -0.001523 1.594e-17)
(1.0039 -0.0013587 4.6636e-18)
(0.9997 -0.00036223 1.2724e-17)
(1.0076 0.0048184 -3.4673e-18)
(0.99627 -0.0018585 -8.3564e-18)
(1.0069 0.032099 -2.0149e-18)
(0.99959 -0.00018079 -4.7085e-20)
(0.99974 -0.00084486 2.5709e-18)
(1 -0.0013297 3.3525e-18)
(1.0005 -0.0018873 -7.9253e-18)
(1.0008 -0.0019195 9.0423e-20)
(1.0019 -0.0023051 -1.6425e-17)
(1.0013 -0.0015473 -1.0782e-17)
(1.004 -0.0013529 3.4501e-17)
(0.99978 -0.00040427 -1.924e-17)
(1.0077 0.0048512 1.3466e-17)
(0.99671 -0.0018406 4.4187e-18)
(1.0069 0.031232 -5.6845e-18)
(0.99957 -0.00018317 -3.5609e-18)
(0.99972 -0.00085341 -1.2058e-17)
(0.99999 -0.001343 8.5588e-18)
(1.0005 -0.0019046 -2.1644e-17)
(1.0008 -0.0019395 -2.4602e-17)
(1.0019 -0.0023225 -2.2689e-17)
(1.0013 -0.0015722 -2.1976e-17)
(1.004 -0.001348 -3.5335e-18)
(0.99985 -0.00044663 1.6818e-17)
(1.0077 0.0048784 -1.1545e-17)
(0.99714 -0.001822 4.4256e-19)
(1.0069 0.030388 5.3536e-18)
(0.99955 -0.0001855 6.8728e-18)
(0.9997 -0.00086183 1.2601e-17)
(0.99997 -0.0013563 -1.3803e-17)
(1.0005 -0.0019219 1.777e-17)
(1.0008 -0.0019598 -2.8848e-18)
(1.0019 -0.0023402 1.4872e-17)
(1.0013 -0.0015977 2.6416e-17)
(1.0041 -0.0013441 -2.6762e-17)
(0.99993 -0.00048929 -8.533e-18)
(1.0077 0.0049002 1.2183e-17)
(0.99755 -0.0018027 3.8352e-18)
(1.0069 0.029565 -2.5301e-18)
(0.99953 -0.0001878 -5.1569e-18)
(0.99968 -0.0008702 -3.7243e-18)
(0.99995 -0.0013696 -2.8858e-18)
(1.0005 -0.0019393 2.0332e-17)
(1.0008 -0.0019804 -6.176e-18)
(1.0019 -0.0023584 -1.8839e-19)
(1.0013 -0.0016239 -5.1691e-18)
(1.0041 -0.0013411 2.1436e-17)
(1 -0.00053224 -8.1096e-18)
(1.0077 0.0049167 -8.3649e-18)
(0.99795 -0.001783 -1.1341e-17)
(1.0069 0.028762 2.9398e-18)
(0.9995 -0.00019009 3.5054e-18)
(0.99966 -0.00087855 -4.722e-18)
(0.99994 -0.0013829 6.6069e-18)
(1.0005 -0.0019568 -3.0849e-17)
(1.0008 -0.0020013 4.1842e-17)
(1.0019 -0.0023769 6.1614e-18)
(1.0013 -0.0016507 2.0397e-17)
(1.0041 -0.0013393 -1.3264e-17)
(1.0001 -0.00057548 1.0081e-19)
(1.0078 0.0049281 6.2133e-18)
(0.99835 -0.0017628 -2.2203e-18)
(1.0069 0.02798 -1.1066e-18)
(0.99948 -0.00019239 -1.0028e-18)
(0.99964 -0.00088693 9.2295e-19)
(0.99992 -0.0013964 1.6097e-17)
(1.0005 -0.0019746 8.4101e-18)
(1.0008 -0.0020226 -2.0918e-17)
(1.0019 -0.0023958 -1.2068e-17)
(1.0014 -0.0016782 3.5632e-18)
(1.0042 -0.0013384 -6.4473e-18)
(1.0002 -0.000619 1.3568e-17)
(1.0078 0.0049345 -4.0808e-18)
(0.99873 -0.0017422 1.0644e-17)
(1.007 0.027218 -4.0295e-18)
(0.99946 -0.00019469 -1.7454e-18)
(0.99962 -0.00089537 -8.897e-18)
(0.9999 -0.00141 -4.7862e-18)
(1.0004 -0.0019926 3.377e-17)
(1.0008 -0.0020443 -1.8636e-17)
(1.0019 -0.0024151 -1.022e-18)
(1.0014 -0.0017064 -5.3266e-17)
(1.0042 -0.0013387 6.339e-18)
(1.0003 -0.00066279 -2.5396e-17)
(1.0078 0.0049361 -8.7989e-18)
(0.9991 -0.0017214 -1.0669e-17)
(1.007 0.026474 2.3939e-18)
(0.99944 -0.00019702 -7.5347e-19)
(0.99959 -0.00090388 5.5121e-18)
(0.99988 -0.0014238 -1.9758e-18)
(1.0004 -0.0020108 -1.9663e-17)
(1.0008 -0.0020665 2.6781e-17)
(1.0019 -0.0024349 -2.5124e-18)
(1.0014 -0.0017352 2.8216e-17)
(1.0042 -0.00134 -3.8952e-18)
(1.0003 -0.00070685 1.2325e-17)
(1.0078 0.004933 1.1001e-17)
(0.99946 -0.0017004 8.8043e-18)
(1.007 0.02575 -5.7666e-19)
(0.99941 -0.00019937 4.2712e-18)
(0.99957 -0.00091249 -3.2978e-18)
(0.99986 -0.0014377 -6.9113e-18)
(1.0004 -0.0020293 2.146e-17)
(1.0008 -0.002089 1.9657e-18)
(1.0019 -0.0024552 3.1151e-17)
(1.0014 -0.0017647 4.8681e-18)
(1.0043 -0.0013424 1.8612e-17)
(1.0004 -0.00075118 4.6234e-18)
(1.0079 0.0049254 -3.5591e-18)
(0.99982 -0.0016793 1.1495e-18)
(1.007 0.025043 5.2428e-19)
(0.99939 -0.00020175 1.2178e-18)
(0.99955 -0.0009212 1.3484e-18)
(0.99984 -0.0014519 -6.2669e-18)
(1.0004 -0.0020481 -4.2737e-17)
(1.0008 -0.002112 5.9518e-18)
(1.0019 -0.0024759 2.7009e-18)
(1.0014 -0.0017949 -2.111e-17)
(1.0043 -0.001346 2.614e-19)
(1.0005 -0.00079576 1.3644e-17)
(1.0079 0.0049133 -2.2855e-18)
(1.0002 -0.0016582 -5.5994e-18)
(1.0071 0.024355 3.0782e-18)
(0.99936 -0.00020417 -5.215e-18)
(0.99953 -0.00093003 5.7148e-18)
(0.99982 -0.0014664 1.0333e-18)
(1.0004 -0.0020672 2.3731e-17)
(1.0007 -0.0021355 -2.715e-17)
(1.0019 -0.0024971 -1.1933e-17)
(1.0014 -0.0018257 2.1591e-17)
(1.0043 -0.0013507 -1.2604e-17)
(1.0006 -0.00084061 -2.1584e-17)
(1.0079 0.004897 -1.1281e-17)
(1.0005 -0.0016371 7.1388e-18)
(1.0071 0.023683 1.0232e-18)
(0.99934 -0.00020662 -5.518e-19)
(0.9995 -0.00093898 -5.7506e-18)
(0.9998 -0.001481 1.1003e-17)
(1.0004 -0.0020866 1.0522e-17)
(1.0007 -0.0021594 3.3534e-17)
(1.002 -0.0025189 4.5832e-18)
(1.0014 -0.0018573 1.9181e-17)
(1.0044 -0.0013565 3.1949e-17)
(1.0007 -0.00088572 -9.617e-19)
(1.0079 0.0048765 1.984e-17)
(1.0008 -0.0016162 -7.5314e-19)
(1.0072 0.023029 -2.9917e-18)
(0.99931 -0.00020911 5.3485e-18)
(0.99948 -0.00094805 -8.3721e-18)
(0.99978 -0.0014959 -1.67e-17)
(1.0004 -0.0021064 -2.7969e-18)
(1.0007 -0.0021839 -3.6396e-17)
(1.002 -0.0025411 -1.3639e-17)
(1.0015 -0.0018896 -6.6562e-18)
(1.0044 -0.0013635 2.3572e-19)
(1.0008 -0.00093109 2.8108e-17)
(1.0079 0.0048519 4.5619e-18)
(1.0011 -0.0015954 -9.8327e-18)
(1.0072 0.022391 1.7906e-18)
(0.99929 -0.00021165 -5.9961e-18)
(0.99946 -0.00095727 1.0458e-17)
(0.99976 -0.0015111 8.7416e-18)
(1.0004 -0.0021264 -5.5729e-18)
(1.0007 -0.0022088 2.9269e-17)
(1.002 -0.0025638 1.6316e-17)
(1.0015 -0.0019225 -5.2624e-18)
(1.0044 -0.0013717 -3.2189e-17)
(1.0009 -0.00097672 -9.521e-19)
(1.008 0.0048235 -1.3051e-17)
(1.0015 -0.0015749 1.1651e-17)
(1.0073 0.02177 -2.3447e-18)
(0.99926 -0.00021423 3.603e-18)
(0.99943 -0.00096662 -2.0011e-18)
(0.99974 -0.0015265 1.1574e-17)
(1.0003 -0.0021468 -2.3444e-17)
(1.0007 -0.0022341 9.5575e-18)
(1.002 -0.0025871 -5.8616e-18)
(1.0015 -0.0019562 -1.1341e-17)
(1.0045 -0.0013812 -2.5819e-18)
(1.001 -0.0010226 -3.3958e-17)
(1.008 0.0047912 8.6013e-18)
(1.0018 -0.0015548 -1.0689e-17)
(1.0073 0.021164 7.8133e-19)
(0.99924 -0.00021685 2.8484e-19)
(0.99941 -0.00097611 -6.2951e-18)
(0.99972 -0.0015422 6.5725e-18)
(1.0003 -0.0021675 3.0856e-17)
(1.0007 -0.00226 -2.2763e-17)
(1.002 -0.0026109 1.8854e-17)
(1.0015 -0.0019905 -6.559e-18)
(1.0045 -0.0013918 5.9823e-18)
(1.001 -0.0010688 4.0356e-17)
(1.008 0.0047552 -1.596e-17)
(1.002 -0.001535 1.6361e-17)
(1.0074 0.020573 2.2058e-18)
(0.99921 -0.00021952 5.1125e-19)
(0.99938 -0.00098576 -1.3026e-18)
(0.9997 -0.0015581 -9.4558e-18)
(1.0003 -0.0021886 -4.6455e-18)
(1.0007 -0.0022864 1.9839e-17)
(1.002 -0.0026353 1.4903e-19)
(1.0015 -0.0020256 -1.2895e-17)
(1.0045 -0.0014037 -1.4274e-17)
(1.0011 -0.0011152 -1.6899e-17)
(1.008 0.0047157 -1.5003e-18)
(1.0023 -0.0015157 3.017e-18)
(1.0074 0.019997 2.2846e-19)
(0.99918 -0.00022223 -8.2275e-19)
(0.99936 -0.00099555 1.5504e-17)
(0.99968 -0.0015743 -6.3067e-18)
(1.0003 -0.0022101 -2.625e-17)
(1.0007 -0.0023134 9.1466e-18)
(1.002 -0.0026603 -4.8034e-17)
(1.0015 -0.0020614 6.4307e-18)
(1.0046 -0.0014168 8.9907e-18)
(1.0012 -0.0011619 7.8483e-19)
(1.008 0.0046727 1.6191e-17)
(1.0026 -0.0014969 -9.8526e-19)
(1.0075 0.019436 -6.1564e-18)
(0.99916 -0.00022499 -2.1722e-19)
(0.99933 -0.0010055 -3.043e-19)
(0.99965 -0.0015908 8.4898e-18)
(1.0003 -0.0022319 1.6206e-17)
(1.0007 -0.0023408 -3.6342e-17)
(1.002 -0.0026858 2.0754e-18)
(1.0016 -0.002098 1.1522e-17)
(1.0046 -0.0014312 1.4074e-17)
(1.0013 -0.0012089 -1.0703e-17)
(1.0081 0.0046263 -1.5753e-17)
(1.0029 -0.0014786 -1.6296e-17)
(1.0076 0.018889 6.4948e-18)
(0.99913 -0.0002278 -1.4213e-18)
(0.99931 -0.0010156 4.3319e-19)
(0.99963 -0.0016076 -4.0934e-18)
(1.0003 -0.0022541 -1.082e-17)
(1.0007 -0.0023688 2.0146e-17)
(1.002 -0.002712 2.578e-17)
(1.0016 -0.0021352 3.3614e-18)
(1.0046 -0.0014468 7.1292e-18)
(1.0014 -0.0012562 1.7072e-17)
(1.0081 0.0045767 2.6539e-18)
(1.0031 -0.0014609 1.2073e-17)
(1.0076 0.018356 -3.9392e-18)
(0.9991 -0.00023067 2.6159e-18)
(0.99928 -0.0010258 7.9868e-19)
(0.99961 -0.0016247 -5.8498e-18)
(1.0003 -0.0022766 1.5984e-18)
(1.0007 -0.0023973 -1.0923e-17)
(1.002 -0.0027387 -6.1839e-18)
(1.0016 -0.0021732 -1.2417e-18)
(1.0047 -0.0014638 -3.2189e-17)
(1.0015 -0.0013038 3.3568e-18)
(1.0081 0.0045239 -5.3635e-18)
(1.0034 -0.0014439 -4.9093e-18)
(1.0077 0.017836 -4.738e-18)
(0.99907 -0.00023358 -5.3385e-18)
(0.99926 -0.0010363 1.0434e-18)
(0.99959 -0.0016421 3.1028e-18)
(1.0002 -0.0022996 -2.0084e-17)
(1.0007 -0.0024264 -1.2452e-17)
(1.002 -0.0027661 -2.8706e-17)
(1.0016 -0.002212 5.9975e-18)
(1.0047 -0.001482 1.3145e-17)
(1.0016 -0.0013517 -3.5983e-17)
(1.0081 0.004468 2.4743e-17)
(1.0037 -0.0014276 -5.3254e-18)
(1.0078 0.017329 3.0583e-18)
(0.99904 -0.00023654 4.9004e-18)
(0.99923 -0.0010469 2.3351e-18)
(0.99956 -0.0016598 1.1933e-18)
(1.0002 -0.0023229 6.3703e-18)
(1.0006 -0.002456 -2.7504e-18)
(1.002 -0.0027941 5.5637e-17)
(1.0016 -0.0022515 2.1536e-17)
(1.0047 -0.0015016 -2.043e-17)
(1.0017 -0.0013999 3.464e-17)
(1.0081 0.0044092 -9.2309e-18)
(1.0039 -0.0014121 -3.5235e-18)
(1.0078 0.016835 -1.5186e-18)
(0.99901 -0.00023956 1.2019e-18)
(0.9992 -0.0010576 -1.4788e-17)
(0.99954 -0.0016778 2.3881e-18)
(1.0002 -0.0023467 2.8604e-17)
(1.0006 -0.0024863 2.1286e-17)
(1.002 -0.0028228 -9.0004e-19)
(1.0017 -0.0022918 -2.9834e-17)
(1.0047 -0.0015225 6.1925e-18)
(1.0018 -0.0014484 -7.8153e-18)
(1.0082 0.0043475 -1.276e-17)
(1.0041 -0.0013973 8.9567e-18)
(1.0079 0.016353 1.4206e-18)
(0.99898 -0.00024263 -4.754e-18)
(0.99917 -0.0010685 -4.9295e-18)
(0.99951 -0.0016961 -1.2936e-17)
(1.0002 -0.0023709 -2.3989e-17)
(1.0006 -0.0025171 -2.1419e-17)
(1.002 -0.0028521 -2.5282e-17)
(1.0017 -0.0023328 5.5111e-18)
(1.0048 -0.0015447 4.8079e-17)
(1.0019 -0.0014973 3.4098e-18)
(1.0082 0.004283 -1.1077e-18)
(1.0044 -0.0013834 -3.1665e-18)
(1.008 0.015884 -3.7999e-18)
(0.99895 -0.00024576 3.5276e-18)
(0.99915 -0.0010796 4.5794e-18)
(0.99949 -0.0017147 1.9935e-17)
(1.0002 -0.0023955 1.6614e-17)
(1.0006 -0.0025484 2.0838e-17)
(1.002 -0.0028821 -9.3994e-19)
(1.0017 -0.0023746 -3.0708e-17)
(1.0048 -0.0015683 -2.5984e-17)
(1.002 -0.0015465 8.4693e-18)
(1.0082 0.0042158 4.4169e-18)
(1.0046 -0.0013704 7.1576e-18)
(1.008 0.015426 2.9424e-18)
(0.99892 -0.00024894 -2.4912e-18)
(0.99912 -0.0010909 7.1835e-18)
(0.99947 -0.0017337 -1.319e-17)
(1.0002 -0.0024205 2.4042e-18)
(1.0006 -0.0025804 9.689e-18)
(1.002 -0.0029128 -2.4711e-18)
(1.0017 -0.0024172 6.8921e-18)
(1.0048 -0.0015933 7.2119e-18)
(1.0021 -0.001596 2.7947e-18)
(1.0082 0.0041461 1.09e-17)
(1.0048 -0.0013582 -8.6128e-18)
(1.0081 0.01498 5.9571e-19)
(0.99889 -0.00025218 3.7612e-18)
(0.99909 -0.0011024 4.4518e-19)
(0.99944 -0.001753 -6.1739e-18)
(1.0001 -0.0024459 9.5688e-19)
(1.0006 -0.002613 -1.5917e-18)
(1.002 -0.0029442 -2.4409e-17)
(1.0017 -0.0024606 1.9255e-17)
(1.0049 -0.0016196 2.5586e-17)
(1.0022 -0.0016459 -1.3881e-17)
(1.0082 0.0040737 -1.5157e-17)
(1.005 -0.0013471 -2.5268e-18)
(1.0082 0.014545 5.0416e-18)
(0.99886 -0.00025547 -2.7322e-18)
(0.99906 -0.001114 -3.4287e-19)
(0.99941 -0.0017726 7.6762e-18)
(1.0001 -0.0024718 -1.8383e-17)
(1.0006 -0.0026462 -1.4393e-17)
(1.002 -0.0029763 3.0816e-17)
(1.0018 -0.0025048 -2.9452e-18)
(1.0049 -0.0016473 -2.7094e-17)
(1.0023 -0.0016962 3.5414e-18)
(1.0083 0.003999 1.4266e-17)
(1.0052 -0.0013369 8.5602e-18)
(1.0083 0.014121 -1.8176e-18)
(0.99883 -0.00025883 2.7149e-19)
(0.99903 -0.0011259 2.5112e-18)
(0.99939 -0.0017926 4.1942e-18)
(1.0001 -0.0024982 9.503e-18)
(1.0006 -0.0026801 2.8212e-17)
(1.002 -0.0030092 7.1837e-18)
(1.0018 -0.0025498 -2.5653e-17)
(1.0049 -0.0016764 2.536e-18)
(1.0024 -0.001747 9.1278e-18)
(1.0083 0.0039218 -1.2843e-17)
(1.0054 -0.0013277 -5.7952e-18)
(1.0084 0.013707 -2.098e-18)
(0.9988 -0.00026225 7.7085e-19)
(0.999 -0.0011379 -4.3688e-19)
(0.99936 -0.0018129 -1.1067e-17)
(1.0001 -0.002525 -2.0437e-19)
(1.0006 -0.0027146 -5.578e-17)
(1.0021 -0.0030428 8.856e-18)
(1.0018 -0.0025956 2.5198e-17)
(1.0049 -0.001707 -7.2902e-18)
(1.0025 -0.0017981 -9.5539e-18)
(1.0083 0.0038424 2.1315e-17)
(1.0056 -0.0013196 6.9479e-18)
(1.0084 0.013304 5.4328e-18)
(0.99876 -0.00026573 8.2802e-19)
(0.99897 -0.0011501 -9.0646e-19)
(0.99933 -0.0018336 2.0014e-17)
(1.0001 -0.0025523 4.3826e-18)
(1.0006 -0.0027497 4.9431e-17)
(1.0021 -0.0030772 -3.1214e-17)
(1.0018 -0.0026423 -8.4419e-18)
(1.005 -0.0017389 6.8569e-18)
(1.0026 -0.0018496 3.2983e-18)
(1.0083 0.0037607 -1.1991e-17)
(1.0058 -0.0013125 -1.12e-18)
(1.0085 0.01291 -4.0049e-18)
(0.99873 -0.00026927 -3.236e-18)
(0.99893 -0.0011626 1.5217e-18)
(0.99931 -0.0018546 -1.1763e-17)
(1 -0.0025801 5.7625e-18)
(1.0005 -0.0027855 -1.8783e-17)
(1.0021 -0.0031124 4.2331e-18)
(1.0019 -0.0026897 3.3804e-17)
(1.005 -0.0017723 -2.5659e-17)
(1.0026 -0.0019016 -1.212e-17)
(1.0083 0.0036769 -1.1848e-17)
(1.006 -0.0013066 -5.537e-18)
(1.0086 0.012527 -1.0974e-18)
(0.9987 -0.00027287 4.0308e-18)
(0.9989 -0.0011752 -3.6142e-18)
(0.99928 -0.001876 -1.1415e-17)
(1 -0.0026084 -9.1892e-18)
(1.0005 -0.002822 -3.071e-17)
(1.0021 -0.0031483 -1.963e-17)
(1.0019 -0.0027381 -2.0728e-17)
(1.005 -0.0018071 2.3854e-17)
(1.0027 -0.001954 1.1757e-17)
(1.0084 0.003591 1.7938e-17)
(1.0062 -0.0013018 -2.175e-18)
(1.0087 0.012153 5.2942e-18)
(0.99866 -0.00027654 -6.4781e-18)
(0.99887 -0.001188 5.8558e-18)
(0.99925 -0.0018978 2.7951e-17)
(1 -0.0026371 -2.1674e-18)
(1.0005 -0.0028591 3.3978e-17)
(1.0021 -0.0031851 1.4819e-18)
(1.0019 -0.0027873 -1.986e-17)
(1.005 -0.0018433 9.3288e-18)
(1.0028 -0.002007 -4.2401e-18)
(1.0084 0.0035031 -3.7568e-18)
(1.0064 -0.0012982 7.0528e-18)
(1.0088 0.011788 -3.5799e-18)
(0.99863 -0.00028028 5.3087e-18)
(0.99884 -0.0012011 -7.9581e-18)
(0.99922 -0.00192 -3.2588e-17)
(0.99999 -0.0026664 1.4178e-17)
(1.0005 -0.002897 -2.4208e-17)
(1.0021 -0.0032227 2.7133e-17)
(1.0019 -0.0028373 6.4713e-18)
(1.0051 -0.0018811 -8.884e-18)
(1.0029 -0.0020604 -2.0364e-18)
(1.0084 0.0034132 -9.3953e-18)
(1.0066 -0.0012958 -1.1518e-17)
(1.0088 0.011432 4.9383e-18)
(0.99859 -0.00028409 -3.9102e-18)
(0.9988 -0.0012144 2.6462e-18)
(0.99919 -0.0019426 1.9801e-17)
(0.99996 -0.0026962 -1.8689e-17)
(1.0005 -0.0029356 3.8952e-17)
(1.0021 -0.0032611 -2.1057e-17)
(1.0019 -0.0028883 3.773e-18)
(1.0051 -0.0019203 -1.4031e-17)
(1.003 -0.0021143 6.6572e-18)
(1.0084 0.0033214 -1.3101e-18)
(1.0067 -0.0012946 4.9269e-18)
(1.0089 0.011085 -2.1992e-18)
(0.99855 -0.00028796 4.7957e-18)
(0.99877 -0.0012279 2.0601e-18)
(0.99916 -0.0019655 -1.3201e-17)
(0.99994 -0.0027266 -3.7979e-19)
(1.0005 -0.0029748 -1.7192e-18)
(1.0021 -0.0033004 5.0934e-18)
(1.002 -0.0029401 3.5856e-17)
(1.0051 -0.001961 9.5957e-18)
(1.0031 -0.0021688 -1.9739e-17)
(1.0085 0.0032277 -6.801e-18)
(1.0069 -0.0012946 -4.6553e-18)
(1.009 0.010746 2.3008e-18)
(0.99852 -0.0002919 -5.4968e-18)
(0.99873 -0.0012416 -7.6339e-18)
(0.99913 -0.0019889 5.5384e-18)
(0.99992 -0.0027575 1.6169e-17)