/*--------------------------------*- C++ -*----------------------------------*\
  =========                 |
  \\      /  F ield         | OpenFOAM: The Open Source CFD Toolbox
   \\    /   O peration     | Website:  https://openfoam.org
    \\  /    A nd           | Version:  6.0
     \\/     M anipulation  |
\*---------------------------------------------------------------------------*/
FoamFile
{
    version     2.0;
    format      ascii;
    class       volScalarField;
    location    "50";
    object      nut;
}
// * * * * * * * * * * * * * * * * * * * * * * * * * * * * * * * * * * * * * //

dimensions      [0 2 -1 0 0 0 0];

internalField   nonuniform List<scalar> 
9800
(
0.140012
0.140007
0.140007
0.140006
0.140005
0.140005
0.140005
0.140005
0.140005
0.140004
0.140004
0.140004
0.140004
0.140004
0.140004
0.140004
0.140004
0.140004
0.140004
0.140004
0.140003
0.139999
0.139985
0.139984
0.139995
0.14
0.140001
0.140002
0.140002
0.140002
0.140002
0.140002
0.140002
0.140002
0.140002
0.140002
0.140002
0.140002
0.140001
0.140001
0.140001
0.140001
0.14
0.14
0.14
0.139999
0.139999
0.139999
0.139998
0.139998
0.139997
0.139996
0.139995
0.139994
0.139992
0.13999
0.139988
0.139985
0.139982
0.139979
0.139977
0.139975
0.139974
0.139973
0.139973
0.139972
0.139971
0.13997
0.139969
0.139968
0.139967
0.139967
0.139966
0.139966
0.139966
0.139971
0.139976
0.139982
0.139987
0.139991
0.139995
0.139999
0.140003
0.140007
0.140012
0.140017
0.140023
0.140029
0.140038
0.140048
0.140062
0.14008
0.140105
0.140136
0.140232
0.140194
0.14036
0.140575
0.141875
0.135427
0.139992
0.139996
0.139984
0.13998
0.139978
0.139978
0.139977
0.139977
0.139977
0.139977
0.139977
0.139977
0.139977
0.139977
0.139977
0.139977
0.139977
0.139977
0.139977
0.139976
0.139974
0.139967
0.13995
0.139949
0.139962
0.13997
0.139973
0.139974
0.139974
0.139975
0.139974
0.139974
0.139974
0.139973
0.139973
0.139973
0.139972
0.139972
0.139972
0.139971
0.139971
0.139971
0.13997
0.13997
0.13997
0.139969
0.139968
0.139968
0.139967
0.139966
0.139966
0.139966
0.139968
0.13997
0.139973
0.139974
0.139975
0.139975
0.139974
0.139972
0.139971
0.139969
0.139968
0.139967
0.139967
0.139966
0.139965
0.139965
0.139964
0.139963
0.139963
0.139963
0.139962
0.139962
0.139962
0.139964
0.139967
0.139971
0.139975
0.139981
0.139987
0.139993
0.139999
0.140006
0.140013
0.14002
0.140028
0.140036
0.140045
0.140054
0.140065
0.140077
0.14009
0.140104
0.140128
0.140141
0.14015
0.140164
0.140184
0.140335
0.139947
0.139946
0.139939
0.139937
0.139937
0.139937
0.139937
0.139937
0.139937
0.139937
0.139937
0.139937
0.139937
0.139938
0.139938
0.139938
0.139939
0.139938
0.139938
0.139937
0.139934
0.139926
0.139912
0.139911
0.139923
0.139931
0.139935
0.139936
0.139936
0.139936
0.139936
0.139936
0.139935
0.139935
0.139934
0.139933
0.139933
0.139932
0.139932
0.139931
0.139931
0.13993
0.139929
0.139929
0.139928
0.139927
0.139927
0.139926
0.139925
0.139924
0.139923
0.139922
0.139922
0.139923
0.139925
0.139926
0.139928
0.139929
0.13993
0.13993
0.139931
0.139933
0.139934
0.139937
0.13994
0.139943
0.139946
0.139949
0.139952
0.139954
0.139956
0.139958
0.13996
0.139962
0.139963
0.139965
0.139967
0.13997
0.139973
0.139977
0.139982
0.139987
0.139993
0.14
0.140007
0.140015
0.140023
0.140032
0.140041
0.140051
0.140061
0.140072
0.140084
0.140096
0.140108
0.14012
0.14013
0.140141
0.140134
0.140186
0.139904
0.139891
0.13989
0.13989
0.139891
0.139892
0.139893
0.139894
0.139894
0.139894
0.139893
0.139894
0.139894
0.139895
0.139895
0.139895
0.139895
0.139895
0.139895
0.139893
0.139889
0.139881
0.139868
0.139868
0.139878
0.139887
0.139891
0.139893
0.139893
0.139893
0.139893
0.139892
0.139891
0.139891
0.13989
0.139889
0.139889
0.139888
0.139887
0.139886
0.139885
0.139884
0.139884
0.139883
0.139882
0.139881
0.13988
0.139879
0.139877
0.139876
0.139875
0.139874
0.139872
0.139872
0.139871
0.139871
0.139872
0.139873
0.139873
0.139874
0.139875
0.139876
0.139877
0.139878
0.13988
0.139883
0.139886
0.139889
0.139892
0.139896
0.139899
0.139902
0.139904
0.139906
0.139908
0.139909
0.139909
0.139909
0.139909
0.139908
0.139907
0.139906
0.139905
0.139905
0.139904
0.139904
0.139903
0.139903
0.139902
0.139901
0.139899
0.139898
0.139895
0.139893
0.139889
0.139885
0.139888
0.139884
0.139888
0.139901
0.139854
0.139835
0.139837
0.139838
0.139839
0.139841
0.139842
0.139843
0.139844
0.139844
0.139844
0.139845
0.139846
0.139846
0.139847
0.139847
0.139847
0.139847
0.139847
0.139846
0.13984
0.13983
0.139819
0.139818
0.139828
0.139837
0.139842
0.139844
0.139844
0.139844
0.139843
0.139842
0.139842
0.139841
0.13984
0.139839
0.139838
0.139837
0.139836
0.139834
0.139833
0.139832
0.139831
0.13983
0.139828
0.139827
0.139826
0.139824
0.139823
0.139821
0.139819
0.139817
0.139815
0.139813
0.139811
0.13981
0.139808
0.139807
0.139806
0.139805
0.139804
0.139804
0.139803
0.139803
0.139802
0.139803
0.139803
0.139804
0.139805
0.139807
0.139808
0.13981
0.139811
0.139812
0.139813
0.139814
0.139813
0.139813
0.139812
0.13981
0.139807
0.139804
0.139801
0.139797
0.139793
0.139788
0.139783
0.139778
0.139772
0.139766
0.139759
0.139752
0.139744
0.139735
0.139726
0.139716
0.139706
0.139693
0.139693
0.139712
0.139798
0.139773
0.139777
0.139779
0.139781
0.139783
0.139785
0.139786
0.139786
0.139787
0.139789
0.13979
0.139792
0.139793
0.139793
0.139794
0.139795
0.139797
0.139798
0.139797
0.13979
0.139774
0.139763
0.139762
0.139772
0.139786
0.139792
0.139792
0.139791
0.139789
0.139788
0.139786
0.139785
0.139784
0.139783
0.139781
0.13978
0.139779
0.139777
0.139776
0.139774
0.139772
0.139771
0.139769
0.139768
0.139766
0.139765
0.139763
0.139761
0.139759
0.139756
0.139754
0.139752
0.139749
0.139746
0.139744
0.139741
0.139738
0.139736
0.139733
0.139731
0.139728
0.139726
0.139724
0.139721
0.139719
0.139717
0.139715
0.139714
0.139712
0.139711
0.13971
0.139709
0.139708
0.139707
0.139706
0.139704
0.139702
0.1397
0.139697
0.139694
0.13969
0.139685
0.13968
0.139675
0.139669
0.139662
0.139655
0.139647
0.139638
0.139629
0.139619
0.139609
0.139598
0.139587
0.139575
0.139564
0.139549
0.13955
0.139566
0.139736
0.139714
0.139722
0.139725
0.139728
0.13973
0.139732
0.139732
0.139733
0.139735
0.139739
0.139741
0.139743
0.139743
0.139745
0.139747
0.139749
0.139751
0.139752
0.13975
0.139739
0.139713
0.139698
0.139698
0.139711
0.139734
0.139742
0.139743
0.13974
0.139736
0.139735
0.139732
0.139728
0.139726
0.139723
0.139721
0.139718
0.139716
0.139714
0.139712
0.13971
0.139708
0.139706
0.139704
0.139702
0.1397
0.139698
0.139695
0.139693
0.13969
0.139688
0.139685
0.139682
0.139679
0.139676
0.139672
0.139669
0.139665
0.139661
0.139657
0.139654
0.13965
0.139646
0.139642
0.139638
0.139634
0.13963
0.139625
0.139621
0.139617
0.139613
0.139609
0.139605
0.139601
0.139598
0.139594
0.139589
0.139585
0.139581
0.139576
0.13957
0.139565
0.139559
0.139552
0.139545
0.139538
0.13953
0.139521
0.139512
0.139502
0.139492
0.139482
0.13947
0.139459
0.139447
0.139434
0.139422
0.139405
0.139406
0.139421
0.139683
0.139667
0.139675
0.139678
0.13968
0.139681
0.139682
0.139684
0.139686
0.139689
0.139693
0.139694
0.139695
0.139696
0.139698
0.139701
0.139703
0.139705
0.139705
0.1397
0.139682
0.139646
0.139624
0.139623
0.139643
0.139675
0.139689
0.139692
0.13969
0.139685
0.139683
0.139679
0.139676
0.139672
0.139667
0.139663
0.139659
0.139656
0.139654
0.139652
0.139649
0.139646
0.139644
0.139641
0.139637
0.139634
0.13963
0.139627
0.139624
0.13962
0.139616
0.139612
0.139608
0.139604
0.139599
0.139595
0.13959
0.139585
0.13958
0.139575
0.13957
0.139564
0.139559
0.139554
0.139548
0.139542
0.139537
0.139531
0.139525
0.139519
0.139513
0.139506
0.1395
0.139493
0.139487
0.13948
0.139474
0.139467
0.13946
0.139453
0.139445
0.139437
0.139429
0.13942
0.139411
0.139402
0.139392
0.139381
0.13937
0.139359
0.139347
0.139335
0.139323
0.13931
0.139297
0.139283
0.139269
0.139252
0.139253
0.139264
0.13964
0.139626
0.139632
0.139634
0.139636
0.139637
0.139639
0.139641
0.139644
0.139648
0.139651
0.139651
0.139652
0.139654
0.139655
0.139657
0.139659
0.139659
0.139655
0.139643
0.139616
0.139569
0.139539
0.139538
0.139564
0.139607
0.13963
0.139639
0.139639
0.139636
0.139633
0.139629
0.139625
0.139621
0.139616
0.139611
0.139606
0.139602
0.139599
0.139596
0.139593
0.139589
0.139586
0.139582
0.139578
0.139573
0.139568
0.139563
0.139558
0.139553
0.139547
0.139541
0.139535
0.139529
0.139522
0.139515
0.139508
0.1395
0.139493
0.139485
0.139478
0.13947
0.139463
0.139455
0.139448
0.13944
0.139433
0.139425
0.139418
0.13941
0.139402
0.139394
0.139386
0.139378
0.139369
0.139361
0.139352
0.139343
0.139334
0.139324
0.139315
0.139304
0.139294
0.139283
0.139272
0.13926
0.139248
0.139236
0.139223
0.13921
0.139197
0.139184
0.13917
0.139156
0.139142
0.139127
0.139114
0.139096
0.139098
0.139106
0.139605
0.139593
0.139596
0.139598
0.1396
0.139602
0.139605
0.139608
0.13961
0.139613
0.139615
0.139616
0.139617
0.139618
0.139619
0.139619
0.139619
0.139615
0.139604
0.139582
0.139541
0.139479
0.139439
0.139437
0.139468
0.139525
0.139561
0.139579
0.139585
0.139585
0.139584
0.13958
0.139576
0.139571
0.139565
0.139559
0.139553
0.139549
0.139545
0.13954
0.139536
0.139531
0.139527
0.139522
0.139516
0.13951
0.139503
0.139496
0.139489
0.139481
0.139472
0.139463
0.139454
0.139445
0.139434
0.139424
0.139413
0.139403
0.139393
0.139382
0.139371
0.139361
0.139351
0.139341
0.139331
0.139322
0.139312
0.139303
0.139294
0.139285
0.139276
0.139267
0.139258
0.139248
0.139238
0.139228
0.139218
0.139208
0.139197
0.139186
0.139175
0.139163
0.139151
0.139139
0.139127
0.139114
0.1391
0.139087
0.139073
0.139059
0.139045
0.139031
0.139016
0.139002
0.138987
0.138972
0.138958
0.138941
0.138945
0.138951
0.139553
0.139539
0.139543
0.139547
0.139551
0.139555
0.139559
0.139563
0.139567
0.13957
0.139574
0.139576
0.139577
0.139578
0.139578
0.139576
0.13957
0.139559
0.139537
0.1395
0.139443
0.139365
0.139319
0.139316
0.139352
0.139425
0.139476
0.139507
0.139522
0.139529
0.139531
0.13953
0.139526
0.13952
0.139515
0.139508
0.139501
0.139494
0.139487
0.139481
0.139474
0.139467
0.13946
0.139454
0.139447
0.13944
0.139431
0.139422
0.139412
0.139401
0.13939
0.139378
0.139365
0.139352
0.139338
0.139324
0.13931
0.139296
0.139282
0.139268
0.139254
0.139241
0.139229
0.139216
0.139204
0.139193
0.139181
0.13917
0.139159
0.139148
0.139137
0.139127
0.139116
0.139105
0.139094
0.139083
0.139072
0.139061
0.139049
0.139037
0.139025
0.139013
0.139001
0.138988
0.138975
0.138961
0.138948
0.138935
0.138921
0.138908
0.138895
0.138882
0.138868
0.138855
0.138842
0.13883
0.138818
0.138804
0.138812
0.138819
0.139521
0.139508
0.13951
0.139514
0.139518
0.139522
0.139525
0.139529
0.139532
0.139535
0.139539
0.139541
0.139542
0.139541
0.139538
0.139531
0.139518
0.139496
0.139459
0.139403
0.139325
0.139229
0.139174
0.139167
0.139202
0.13928
0.139348
0.139396
0.139426
0.139443
0.139453
0.139456
0.139454
0.139449
0.139443
0.139435
0.139427
0.139417
0.139406
0.139397
0.139387
0.139377
0.139366
0.139355
0.139346
0.139336
0.139325
0.139313
0.1393
0.139287
0.139272
0.139257
0.139241
0.139224
0.139209
0.139193
0.139177
0.139161
0.139145
0.139129
0.139114
0.139099
0.139085
0.139071
0.139058
0.139045
0.139032
0.139019
0.139006
0.138994
0.138982
0.138969
0.138958
0.138946
0.138934
0.138922
0.13891
0.138898
0.138886
0.138874
0.138862
0.138849
0.138837
0.138824
0.138811
0.138798
0.138785
0.138773
0.13876
0.138747
0.138735
0.138723
0.138711
0.138699
0.138688
0.138676
0.138666
0.138655
0.138664
0.138674
0.139393
0.139365
0.13937
0.13938
0.139391
0.1394
0.139409
0.139416
0.139423
0.139431
0.139442
0.139447
0.139448
0.139446
0.139439
0.139425
0.1394
0.139362
0.139305
0.139227
0.139131
0.139036
0.138987
0.138982
0.139021
0.13911
0.139197
0.139265
0.139313
0.139346
0.139368
0.13938
0.139383
0.139381
0.139375
0.139367
0.139358
0.139348
0.139336
0.139323
0.13931
0.139296
0.139281
0.139265
0.139249
0.139234
0.139217
0.139202
0.139185
0.139167
0.139148
0.139128
0.139107
0.139085
0.139064
0.139043
0.139023
0.139004
0.138985
0.138967
0.13895
0.138933
0.138917
0.138902
0.138888
0.138873
0.138859
0.138845
0.138832
0.138818
0.138805
0.138792
0.13878
0.138767
0.138755
0.138743
0.13873
0.138718
0.138705
0.138693
0.138681
0.138668
0.138656
0.138644
0.138632
0.13862
0.138609
0.138598
0.138588
0.138579
0.13857
0.138561
0.138553
0.138546
0.13854
0.138535
0.138536
0.138536
0.138554
0.138569
0.139382
0.139364
0.139366
0.139373
0.139381
0.139388
0.139395
0.139402
0.139408
0.139416
0.139422
0.139423
0.139417
0.139404
0.139383
0.13935
0.139303
0.139238
0.139154
0.139051
0.138933
0.138815
0.138752
0.138733
0.138758
0.138812
0.138883
0.138959
0.139025
0.13908
0.139126
0.139155
0.13917
0.139174
0.13917
0.13916
0.139147
0.139132
0.139115
0.139098
0.139078
0.139058
0.139037
0.139017
0.138997
0.138978
0.138959
0.138941
0.138924
0.138908
0.138892
0.138875
0.138859
0.138842
0.138825
0.138807
0.138791
0.138774
0.138758
0.138742
0.138726
0.138711
0.138696
0.138682
0.138668
0.138655
0.138643
0.13863
0.138617
0.138604
0.138592
0.13858
0.138567
0.138556
0.138544
0.138533
0.138521
0.13851
0.138499
0.138489
0.138478
0.138468
0.138458
0.138448
0.138439
0.138431
0.138424
0.138417
0.138412
0.138408
0.138405
0.138404
0.138403
0.138404
0.138405
0.138408
0.138412
0.138418
0.138423
0.138463
0.139061
0.13901
0.139004
0.139007
0.13901
0.139013
0.139016
0.139018
0.139018
0.139017
0.139012
0.139002
0.138986
0.138961
0.138927
0.138882
0.138823
0.138752
0.138671
0.138585
0.138502
0.138433
0.138393
0.138389
0.138422
0.138494
0.138594
0.13869
0.138776
0.138852
0.138918
0.138967
0.138999
0.139016
0.139022
0.139019
0.139008
0.138992
0.138972
0.138949
0.138923
0.138895
0.138866
0.138835
0.138804
0.138772
0.13874
0.138709
0.138678
0.13865
0.138624
0.138599
0.138577
0.138557
0.138538
0.138521
0.138505
0.13849
0.138476
0.138462
0.138449
0.138436
0.138424
0.138412
0.1384
0.138388
0.138376
0.138365
0.138354
0.138342
0.138331
0.138321
0.13831
0.1383
0.13829
0.138281
0.138272
0.138264
0.138256
0.138249
0.138243
0.138238
0.138234
0.138231
0.13823
0.13823
0.138231
0.138233
0.138237
0.138243
0.138249
0.138257
0.138265
0.138274
0.138284
0.138294
0.138307
0.138321
0.138348
0.138394
0.13913
0.139096
0.13908
0.139069
0.13906
0.139049
0.139037
0.139024
0.139008
0.138989
0.138967
0.138938
0.138898
0.138849
0.13879
0.138721
0.138638
0.138544
0.138437
0.138319
0.138191
0.13806
0.137953
0.137903
0.13789
0.137911
0.137956
0.138013
0.138072
0.13813
0.138185
0.138233
0.138273
0.138303
0.138324
0.138338
0.138345
0.138346
0.138342
0.138334
0.138324
0.13831
0.138295
0.138279
0.138261
0.138241
0.138221
0.138201
0.13818
0.138159
0.138138
0.138118
0.138098
0.138079
0.138061
0.138043
0.138027
0.138011
0.137996
0.137982
0.137968
0.137955
0.137943
0.137931
0.13792
0.137909
0.137898
0.137888
0.137878
0.137869
0.137861
0.137854
0.137847
0.137842
0.137838
0.137835
0.137834
0.137834
0.137836
0.13784
0.137846
0.137854
0.137864
0.137876
0.137889
0.137903
0.137919
0.137937
0.137955
0.137973
0.137992
0.138011
0.138029
0.138045
0.138059
0.13807
0.138077
0.138081
0.138081
0.138135
0.138186
0.138171
0.138156
0.13814
0.138121
0.138101
0.138077
0.13805
0.138017
0.137976
0.137931
0.137881
0.137825
0.137762
0.137694
0.13762
0.137541
0.137459
0.137375
0.137292
0.137215
0.137153
0.137116
0.137113
0.137146
0.137223
0.137331
0.13744
0.13754
0.137632
0.137714
0.137778
0.137826
0.13786
0.137884
0.137899
0.137903
0.137898
0.137884
0.137862
0.137833
0.137798
0.137759
0.137718
0.137677
0.137638
0.137602
0.137569
0.13754
0.137512
0.137488
0.137465
0.137444
0.137425
0.137407
0.137391
0.137376
0.137362
0.137351
0.13734
0.137333
0.137327
0.137325
0.137325
0.137325
0.137328
0.137332
0.137338
0.137345
0.137355
0.137367
0.137381
0.137398
0.137417
0.137438
0.13746
0.137485
0.13751
0.137537
0.137565
0.137593
0.13762
0.137647
0.137672
0.137695
0.137716
0.137733
0.137746
0.137756
0.137761
0.13776
0.137755
0.137744
0.137727
0.137702
0.137671
0.137633
0.137589
0.137538
0.137489
0.138483
0.138409
0.138345
0.138284
0.138224
0.138161
0.138095
0.138025
0.137951
0.137875
0.137807
0.137733
0.137649
0.137556
0.137454
0.137344
0.137225
0.137098
0.136963
0.136819
0.136667
0.13651
0.136352
0.136205
0.136095
0.136042
0.136031
0.136045
0.136073
0.136108
0.136145
0.136189
0.136229
0.136265
0.136298
0.136327
0.13635
0.136367
0.136379
0.136388
0.136394
0.136396
0.136394
0.13639
0.136384
0.136377
0.13637
0.136365
0.13636
0.136357
0.136354
0.136353
0.136353
0.136354
0.136356
0.136359
0.136363
0.136368
0.136374
0.136381
0.136389
0.136401
0.136418
0.136434
0.136451
0.136466
0.13648
0.136493
0.136506
0.136518
0.136528
0.136535
0.136541
0.136542
0.13654
0.136532
0.136519
0.136501
0.136478
0.136451
0.136418
0.13638
0.136337
0.136289
0.136235
0.136176
0.136112
0.136043
0.135968
0.13589
0.135807
0.135721
0.135632
0.135542
0.135451
0.135359
0.135266
0.135173
0.135081
0.135012
0.135548
0.135411
0.135311
0.135224
0.135131
0.135033
0.13492
0.134795
0.134665
0.134536
0.134394
0.134266
0.134132
0.13399
0.133843
0.133692
0.133539
0.133385
0.133232
0.133082
0.132937
0.1328
0.132674
0.132564
0.132473
0.132405
0.132359
0.132333
0.132322
0.132322
0.132332
0.132358
0.132376
0.132392
0.132405
0.132415
0.132422
0.132428
0.132431
0.132431
0.132429
0.132426
0.132423
0.13242
0.132418
0.132417
0.132415
0.132415
0.132416
0.132417
0.132417
0.132416
0.132414
0.132412
0.13241
0.132408
0.132406
0.132405
0.132405
0.132407
0.132409
0.132414
0.13243
0.132442
0.132456
0.132471
0.132487
0.132507
0.13253
0.132558
0.132593
0.132637
0.132693
0.132767
0.132867
0.133003
0.133184
0.133407
0.133659
0.133929
0.134208
0.134489
0.134762
0.135026
0.135276
0.135512
0.135733
0.13594
0.136133
0.136312
0.136479
0.136634
0.136778
0.136912
0.137037
0.137154
0.137265
0.137374
0.137496
0.137696
0.141781
0.141363
0.141216
0.141266
0.1414
0.141518
0.14157
0.141535
0.141408
0.141224
0.14139
0.140891
0.140383
0.139924
0.13949
0.139063
0.13863
0.138183
0.137716
0.137223
0.136702
0.136151
0.135568
0.134954
0.134307
0.133629
0.132919
0.132179
0.131409
0.130611
0.129917
0.130037
0.129648
0.129297
0.128976
0.128686
0.128421
0.128176
0.127946
0.127729
0.127521
0.127322
0.127128
0.12694
0.126756
0.126575
0.126396
0.126219
0.126044
0.125871
0.125698
0.125526
0.125355
0.125185
0.125015
0.124844
0.124673
0.124499
0.124319
0.124126
0.123903
0.123809
0.124089
0.124103
0.124094
0.12408
0.124062
0.124042
0.124019
0.123994
0.123967
0.123938
0.123908
0.123875
0.123841
0.123805
0.123766
0.123722
0.123673
0.123617
0.123556
0.123487
0.123412
0.123331
0.123245
0.123155
0.12306
0.122962
0.122861
0.122758
0.122656
0.122555
0.122458
0.122369
0.122298
0.122262
0.122303
0.12252
0.123126
0.12459
0.160204
0.169646
0.179644
0.18947
0.199044
0.208365
0.217441
0.226277
0.234871
0.243217
0.251305
0.259122
0.266651
0.273879
0.280789
0.287368
0.293625
0.299498
0.305002
0.310142
0.314917
0.319328
0.323379
0.327076
0.33043
0.333454
0.336164
0.338577
0.340713
0.342595
0.344244
0.345685
0.346834
0.347668
0.34856
0.349335
0.35
0.350571
0.351062
0.351487
0.351858
0.352187
0.352482
0.352754
0.353012
0.353263
0.353516
0.353468
0.353244
0.353461
0.353705
0.353953
0.354204
0.354461
0.35473
0.355018
0.355337
0.355703
0.356144
0.355973
0.355898
0.35681
0.358052
0.359718
0.362
0.365164
0.369568
0.373591
0.382865
0.393536
0.139508
0.139201
0.1389
0.138622
0.138356
0.138089
0.13781
0.137509
0.137182
0.136825
0.136439
0.136022
0.135575
0.1351
0.134596
0.134066
0.133514
0.132938
0.13234
0.131725
0.131096
0.130456
0.129808
0.129153
0.128494
0.127835
0.127179
0.126527
0.125884
0.125251
0.124631
0.124029
0.123431
0.122828
0.122271
0.121738
0.121229
0.120744
0.120283
0.119848
0.11944
0.119058
0.118705
0.118381
0.118088
0.117825
0.117599
0.117363
0.117125
0.116979
0.116876
0.116804
0.116758
0.116735
0.11673
0.116742
0.116766
0.116802
0.116855
0.116807
0.116741
0.11679
0.116859
0.116939
0.117032
0.11715
0.117317
0.11718
0.117633
0.118193
0.140196
0.140194
0.140188
0.140178
0.140166
0.140153
0.140138
0.140122
0.140102
0.14008
0.140054
0.140024
0.139989
0.139949
0.139904
0.139854
0.139799
0.139738
0.139671
0.139598
0.139519
0.139433
0.13934
0.13924
0.139133
0.139017
0.138893
0.138761
0.138619
0.138467
0.138306
0.138135
0.137954
0.137764
0.137561
0.13735
0.137132
0.136907
0.136678
0.136447
0.136214
0.135982
0.135753
0.135528
0.13531
0.135098
0.134894
0.134701
0.134515
0.134332
0.134161
0.134004
0.133859
0.133729
0.133612
0.133508
0.133417
0.133335
0.133259
0.133191
0.133123
0.13305
0.132986
0.132932
0.132886
0.132841
0.132785
0.132728
0.132593
0.132365
0.139925
0.139938
0.139954
0.139973
0.139995
0.140019
0.140047
0.140077
0.140111
0.140147
0.140186
0.140229
0.140276
0.140327
0.140382
0.140442
0.140506
0.140575
0.140648
0.140725
0.140807
0.140892
0.140979
0.141067
0.141156
0.141244
0.141329
0.14141
0.141485
0.141552
0.141611
0.141659
0.141696
0.141722
0.141735
0.141735
0.141723
0.141699
0.141662
0.141616
0.141559
0.141494
0.141422
0.141345
0.141263
0.141179
0.141095
0.141012
0.140932
0.140851
0.140773
0.140699
0.140629
0.140563
0.140502
0.140446
0.140394
0.140348
0.140307
0.140274
0.140244
0.140214
0.140187
0.140164
0.140144
0.140126
0.140109
0.140103
0.14008
0.140056
0.139748
0.139766
0.139787
0.139809
0.139834
0.13986
0.139887
0.139917
0.139948
0.139982
0.140018
0.140056
0.140098
0.140143
0.140192
0.140244
0.140301
0.140361
0.140425
0.140493
0.140564
0.140638
0.140715
0.140793
0.140873
0.140952
0.14103
0.141105
0.141176
0.141242
0.141301
0.141352
0.141393
0.141425
0.141448
0.141459
0.14146
0.141449
0.141428
0.141398
0.141358
0.14131
0.141255
0.141195
0.14113
0.141062
0.140993
0.140925
0.140857
0.140791
0.140726
0.140664
0.140604
0.140548
0.140496
0.140447
0.140403
0.140362
0.140327
0.140296
0.140269
0.140244
0.140222
0.140202
0.140185
0.14017
0.140157
0.140148
0.140141
0.14014
0.139602
0.13962
0.139642
0.139665
0.139691
0.139719
0.139749
0.139781
0.139815
0.139851
0.13989
0.139931
0.139975
0.140022
0.140072
0.140125
0.140181
0.14024
0.140302
0.140367
0.140435
0.140505
0.140578
0.140652
0.140726
0.140801
0.140874
0.140945
0.141012
0.141074
0.14113
0.141178
0.141218
0.14125
0.141272
0.141284
0.141286
0.141278
0.14126
0.141233
0.141197
0.141154
0.141103
0.141047
0.140987
0.140923
0.140858
0.140793
0.140729
0.140665
0.140603
0.140543
0.140485
0.14043
0.140379
0.140332
0.140288
0.140248
0.140213
0.140182
0.140154
0.140129
0.140107
0.140087
0.140069
0.140054
0.140041
0.14003
0.140021
0.140016
0.139458
0.139477
0.139499
0.139525
0.139552
0.139582
0.139614
0.139649
0.139686
0.139725
0.139767
0.139812
0.139859
0.139909
0.139962
0.140019
0.140078
0.14014
0.140205
0.140273
0.140343
0.140416
0.14049
0.140566
0.140642
0.140718
0.140792
0.140863
0.140931
0.140995
0.141052
0.141101
0.141143
0.141176
0.1412
0.141215
0.14122
0.141216
0.141202
0.141179
0.141147
0.141107
0.141061
0.141009
0.140952
0.140892
0.140831
0.14077
0.140709
0.140648
0.140588
0.14053
0.140474
0.140421
0.140371
0.140324
0.140281
0.140242
0.140207
0.140177
0.140149
0.140124
0.140101
0.140081
0.140063
0.140047
0.140034
0.140023
0.140013
0.140008
0.139307
0.13933
0.139358
0.13939
0.139425
0.139464
0.139505
0.139549
0.139596
0.139644
0.139695
0.139747
0.1398
0.139854
0.13991
0.139967
0.140025
0.140084
0.140144
0.140206
0.14027
0.140335
0.140402
0.14047
0.140539
0.140609
0.140678
0.140746
0.140812
0.140874
0.140932
0.140984
0.141028
0.141066
0.141096
0.141117
0.14113
0.141133
0.141127
0.141112
0.141088
0.141057
0.141018
0.140973
0.140923
0.140869
0.140813
0.140757
0.140701
0.140643
0.140586
0.140531
0.140477
0.140425
0.140375
0.140329
0.140286
0.140247
0.140212
0.140181
0.140153
0.140127
0.140104
0.140083
0.140064
0.140047
0.140034
0.140022
0.140012
0.140006
0.139159
0.139189
0.139225
0.139266
0.13931
0.139358
0.139409
0.139462
0.139516
0.139571
0.139627
0.139683
0.139739
0.139795
0.139852
0.13991
0.139968
0.140028
0.140089
0.140152
0.140217
0.140284
0.140352
0.140422
0.140492
0.140563
0.140633
0.140702
0.140768
0.14083
0.140888
0.140939
0.140984
0.141023
0.141054
0.141077
0.141092
0.141097
0.141095
0.141083
0.141063
0.141035
0.141
0.140959
0.140912
0.140862
0.140808
0.140755
0.140701
0.140645
0.14059
0.140535
0.140482
0.14043
0.140381
0.140335
0.140291
0.140251
0.140215
0.140184
0.140156
0.140129
0.140105
0.140083
0.140063
0.140045
0.140031
0.140019
0.140008
0.140003
0.139028
0.139072
0.139123
0.13918
0.13924
0.139303
0.139367
0.13943
0.139494
0.139555
0.139615
0.139674
0.13973
0.139785
0.139838
0.139891
0.139944
0.139996
0.14005
0.140104
0.14016
0.140218
0.140278
0.140341
0.140405
0.140471
0.140538
0.140605
0.140671
0.140736
0.140797
0.140853
0.140904
0.140948
0.140986
0.141016
0.141037
0.141049
0.141052
0.141046
0.141032
0.141008
0.140978
0.14094
0.140896
0.140847
0.140796
0.140744
0.140692
0.140637
0.140582
0.140528
0.140475
0.140424
0.140375
0.140328
0.140284
0.140244
0.140208
0.140177
0.140148
0.140121
0.140096
0.140074
0.140054
0.140036
0.140021
0.140009
0.139997
0.139992
0.138917
0.138972
0.139035
0.139101
0.139167
0.139234
0.139299
0.139361
0.139422
0.139479
0.139534
0.139586
0.139637
0.139687
0.139737
0.139788
0.13984
0.139894
0.139952
0.140014
0.14008
0.140151
0.140226
0.140306
0.140389
0.140475
0.140562
0.140649
0.140734
0.140814
0.14089
0.140957
0.141016
0.141065
0.141106
0.141136
0.141155
0.141164
0.141161
0.141148
0.141126
0.141094
0.141054
0.141006
0.140953
0.140896
0.140837
0.140778
0.140719
0.140659
0.140599
0.14054
0.140483
0.140428
0.140375
0.140326
0.14028
0.140237
0.1402
0.140167
0.140137
0.140109
0.140083
0.14006
0.140039
0.14002
0.140005
0.139992
0.13998
0.139975
0.138796
0.138865
0.138943
0.139024
0.139106
0.139189
0.13927
0.13935
0.139427
0.139502
0.139573
0.139642
0.139708
0.139771
0.139832
0.139891
0.139948
0.140004
0.140059
0.140112
0.140166
0.140219
0.140272
0.140325
0.140378
0.140432
0.140486
0.140539
0.140593
0.140645
0.140695
0.140743
0.140787
0.140827
0.140864
0.140895
0.14092
0.140939
0.14095
0.140954
0.14095
0.140938
0.140918
0.140891
0.140858
0.140819
0.140776
0.140732
0.140687
0.140638
0.140587
0.140536
0.140485
0.140435
0.140386
0.140338
0.140293
0.140251
0.140213
0.14018
0.140149
0.140119
0.140091
0.140065
0.140042
0.140021
0.140003
0.139988
0.139974
0.139968
0.138723
0.138811
0.138907
0.139002
0.139095
0.139184
0.139268
0.139345
0.139416
0.139481
0.13954
0.139595
0.139646
0.139695
0.139742
0.139788
0.139834
0.13988
0.139928
0.139979
0.140031
0.140087
0.140146
0.140208
0.140273
0.140341
0.140412
0.140484
0.140557
0.14063
0.140701
0.140768
0.14083
0.140887
0.140939
0.140984
0.141021
0.141049
0.141068
0.141078
0.141077
0.141067
0.141047
0.141019
0.140982
0.140939
0.140891
0.140842
0.14079
0.140734
0.140677
0.140618
0.14056
0.140502
0.140445
0.140389
0.140337
0.140287
0.140242
0.140204
0.140167
0.140131
0.140098
0.140067
0.140039
0.140014
0.139993
0.139975
0.139958
0.139952
0.138658
0.138766
0.138874
0.138973
0.13906
0.139134
0.139196
0.139247
0.13929
0.139325
0.139356
0.139385
0.139413
0.139444
0.139479
0.139518
0.139563
0.139614
0.139672
0.139735
0.139805
0.139879
0.139958
0.14004
0.140125
0.140211
0.140297
0.140382
0.140465
0.140545
0.140619
0.140688
0.14075
0.140805
0.140854
0.140895
0.140928
0.140953
0.140969
0.140976
0.140974
0.140963
0.140944
0.140917
0.140883
0.140842
0.140798
0.140752
0.140704
0.140652
0.140599
0.140544
0.140489
0.140434
0.14038
0.140328
0.140277
0.14023
0.140187
0.140149
0.140113
0.140078
0.140045
0.140014
0.139985
0.139959
0.139938
0.139919
0.139901
0.139894
0.138536
0.138617
0.138691
0.138756
0.138811
0.138858
0.138899
0.138935
0.138969
0.139001
0.139034
0.139069
0.139106
0.139147
0.139192
0.139242
0.139298
0.13936
0.13943
0.139507
0.139593
0.139688
0.139793
0.139906
0.140028
0.140156
0.14029
0.140427
0.140566
0.140703
0.140835
0.140958
0.14107
0.141172
0.141262
0.141337
0.141398
0.141442
0.141469
0.141479
0.141472
0.14145
0.141413
0.141363
0.141301
0.14123
0.141154
0.141077
0.140998
0.140914
0.140829
0.140743
0.140659
0.140576
0.140496
0.140419
0.140346
0.140279
0.140219
0.140167
0.140118
0.14007
0.140025
0.139984
0.139947
0.139914
0.139887
0.139863
0.13984
0.139833
0.138251
0.138322
0.138383
0.138434
0.138475
0.13851
0.138542
0.138574
0.138608
0.138647
0.138692
0.138744
0.138804
0.138872
0.138949
0.139034
0.139126
0.139224
0.139327
0.139434
0.139544
0.139656
0.139769
0.139883
0.139995
0.140106
0.140215
0.14032
0.140421
0.140517
0.140607
0.14069
0.140763
0.14083
0.14089
0.140942
0.140986
0.14102
0.141045
0.14106
0.141065
0.14106
0.141045
0.14102
0.140986
0.140945
0.140897
0.140848
0.140795
0.140736
0.140675
0.140611
0.140545
0.140478
0.140412
0.140346
0.140281
0.140219
0.140163
0.140113
0.140064
0.140014
0.139967
0.139922
0.139881
0.139843
0.139811
0.139783
0.139754
0.139744
0.137471
0.137505
0.137554
0.137612
0.13768
0.137755
0.137839
0.137932
0.13804
0.13816
0.13829
0.138429
0.138574
0.138716
0.138854
0.138987
0.139115
0.139237
0.139356
0.13947
0.139581
0.13969
0.139798
0.139905
0.140014
0.140127
0.140255
0.140408
0.140583
0.140764
0.140945
0.141119
0.141281
0.141434
0.141576
0.141703
0.141811
0.141899
0.141965
0.142008
0.142027
0.142023
0.141996
0.141947
0.141878
0.141792
0.141695
0.141595
0.141488
0.14137
0.141248
0.141123
0.140996
0.14087
0.140745
0.140623
0.140506
0.140395
0.140297
0.14021
0.140127
0.140043
0.139965
0.139893
0.139826
0.139767
0.139719
0.139674
0.139631
0.13962
0.135046
0.135093
0.135149
0.135212
0.135283
0.135362
0.13545
0.135546
0.135653
0.135771
0.135901
0.136044
0.136204
0.13638
0.136573
0.136786
0.137019
0.13727
0.137538
0.137812
0.138088
0.138363
0.138637
0.138909
0.139178
0.139443
0.139703
0.139956
0.140201
0.140433
0.14065
0.140847
0.141022
0.141178
0.141317
0.141435
0.141532
0.141607
0.141659
0.14169
0.141698
0.141685
0.141652
0.141599
0.14153
0.141445
0.14135
0.141252
0.141149
0.141035
0.140915
0.14079
0.140661
0.14053
0.140398
0.140266
0.140136
0.14001
0.139894
0.139788
0.139681
0.13957
0.139464
0.139366
0.139275
0.139195
0.139127
0.139056
0.138993
0.138972
0.137608
0.137724
0.137858
0.137989
0.138118
0.138244
0.138369
0.138491
0.138612
0.138731
0.138847
0.138959
0.139067
0.13917
0.139267
0.139357
0.139439
0.13951
0.139572
0.139622
0.13966
0.139686
0.139699
0.139699
0.139688
0.139666
0.139636
0.139601
0.139569
0.139555
0.139606
0.13973
0.13991
0.140137
0.14042
0.140694
0.140938