/*--------------------------------*- C++ -*----------------------------------*\
  =========                 |
  \\      /  F ield         | OpenFOAM: The Open Source CFD Toolbox
   \\    /   O peration     | Website:  https://openfoam.org
    \\  /    A nd           | Version:  6.0
     \\/     M anipulation  |
\*---------------------------------------------------------------------------*/
FoamFile
{
    version     2.0;
    format      ascii;
    class       surfaceScalarField;
    location    "50";
    object      phi;
}
// * * * * * * * * * * * * * * * * * * * * * * * * * * * * * * * * * * * * * //

dimensions      [0 3 -1 0 0 0 0];

internalField   nonuniform List<scalar> 
19165
(
-0.0403555
0.0313951
0.0420294
-0.0386635
0.0316765
-0.0369392
0.0319476
-0.0351945
0.032208
-0.033431
0.0324564
-0.0316541
0.0326927
-0.029864
0.0329164
-0.0280638
0.0331274
-0.0262537
0.0333256
-0.0244357
0.0335109
-0.0225899
0.0336631
-0.0207336
0.0338183
-0.0188698
0.0339628
-0.0169994
0.0340941
-0.015123
0.034212
-0.0132415
0.0343166
-0.0113555
0.0344078
-0.00946616
0.0344854
-0.00757421
0.0345494
-0.00568132
0.0345998
-0.00378921
0.0346363
-0.00190134
0.0346593
-2.36438e-05
0.0346695
0.00185361
0.0346721
0.00374106
0.0346672
0.00563258
0.0346496
0.00752509
0.0346184
0.00941636
0.0345735
0.0113052
0.0345149
0.0131904
0.0344428
0.015072
0.0343564
0.0169556
0.0342504
0.0188335
0.0341383
0.0207047
0.034013
0.0225688
0.0338747
0.0244249
0.0337234
0.0262725
0.0335591
0.0281107
0.0333821
0.0299392
0.0331922
0.031757
0.0329896
0.0335638
0.0327744
0.0353587
0.0325467
0.0371412
0.0323064
0.0389106
0.0320537
0.0406665
0.0317886
0.0424079
0.0315113
0.0441346
0.0312218
0.0458456
0.0309202
0.0475407
0.0306066
0.0492189
0.030281
0.05088
0.0299436
0.0525231
0.0295944
0.0541478
0.0292336
0.0557534
0.0288612
0.0573395
0.0284773
0.0589053
0.0280821
0.0604505
0.0276756
0.0619743
0.0272579
0.0634763
0.0268291
0.064956
0.0263893
0.0664128
0.0259386
0.067847
0.0254762
0.06926
0.0250015
0.0706484
0.0245187
0.072012
0.0240253
0.0733501
0.0235215
0.0746624
0.0230072
0.075948
0.0224828
0.0772071
0.021948
0.0784385
0.0214031
0.0796424
0.0208481
0.0808175
0.020283
0.0819644
0.0197078
0.0830812
0.0191227
0.0841692
0.0185273
0.0852259
0.017922
0.0862528
0.0173063
0.0872472
0.0166804
0.0882107
0.016044
0.0891402
0.015397
0.0900373
0.014739
0.0908983
0.0140698
0.0917243
0.0133888
0.0925106
0.0126958
0.093257
0.01199
0.0939561
0.011271
0.0946046
0.0105377
0.0951892
0.00978996
0.0956984
0.00902653
0.096105
0.00824758
0.0963778
0.00745245
0.0964564
0.00664235
0.0962634
0.00581842
0.0956649
0.00498402
0.0944723
0.00414767
0.0923509
0.00324896
0.0911844
0.0023638
0.0870957
0.00161319
0.0849478
0.00121277
0.00147825
0.0830453
-0.0401258
0.029727
0.0418095
-0.0384338
0.0299908
-0.0367173
0.030242
-0.0349847
0.0304838
-0.0332324
0.0307154
-0.0314675
0.0309366
-0.029687
0.0311468
-0.0278967
0.0313459
-0.0260942
0.0315337
-0.0242842
0.0317099
-0.0224449
0.0318341
-0.0205959
0.0319783
-0.0187381
0.0321153
-0.0168747
0.0322399
-0.0150044
0.0323522
-0.0131305
0.0324522
-0.0112519
0.03254
-0.00937212
0.0326156
-0.00749069
0.0326793
-0.00561197
0.0327314
-0.00373621
0.0327724
-0.00186907
0.0328031
-1.23238e-05
0.0328251
0.00184302
0.0328276
0.00371115
0.0328105
0.00558579
0.0327846
0.00746595
0.0327485
0.00934674
0.0327014
0.0112282
0.0326427
0.0131066
0.0325722
0.0149835
0.0324879
0.0168622
0.0323788
0.0187364
0.0322716
0.0206036
0.0321522
0.0224646
0.0320206
0.024317
0.0318768
0.0261616
0.0317208
0.0279963
0.0315527
0.0298218
0.0313725
0.031636
0.0311803
0.0334397
0.0309761
0.0352308
0.03076
0.0370102
0.030532
0.0387757
0.0302923
0.0405282
0.0300408
0.0422655
0.0297777
0.0439886
0.0295031
0.0456952
0.0292169
0.0473865
0.0289193
0.0490601
0.0286105
0.0507172
0.0282903
0.0523553
0.027959
0.0539758
0.0276166
0.055576
0.0272633
0.0571576
0.0268991
0.0587177
0.026524
0.0602579
0.0261383
0.0617755
0.0257419
0.0632721
0.025335
0.0647451
0.0249178
0.0661957
0.0244901
0.0676226
0.0240505
0.0690285
0.0235975
0.0704088
0.0231394
0.0717644
0.0226714
0.0730934
0.0221935
0.0743967
0.0217057
0.0756721
0.0212083
0.0769209
0.0207011
0.0781404
0.0201844
0.0793326
0.019658
0.080494
0.0191223
0.0816273
0.0185769
0.0827281
0.0180222
0.0837998
0.0174581
0.0848373
0.0168845
0.0858444
0.0163015
0.0868154
0.0157092
0.0877545
0.0151072
0.088655
0.0144958
0.0895213
0.0138747
0.0903461
0.013244
0.0911337
0.0126033
0.0918751
0.0119528
0.0925755
0.0112921
0.0932229
0.0106212
0.0938238
0.00993983
0.0943622
0.00924812
0.0948457
0.00854582
0.0952554
0.00783325
0.095598
0.00711064
0.0958554
0.00637881
0.0960325
0.00563927
0.0961146
0.0048948
0.0961065
0.00415221
0.0959359
0.0034133
0.0955518
0.00274239
0.095019
0.00214039
0.0945595
0.00166511
0.00127924
0.0947588
-0.0402213
0.0280032
0.0419501
-0.0384907
0.0282606
-0.0367494
0.0285053
-0.0350024
0.0287385
-0.0332426
0.0289605
-0.0314756
0.0291716
-0.0296959
0.0293718
-0.0279091
0.0295613
-0.026111
0.02974
-0.0243067
0.0299079
-0.0224733
0.0300049
-0.020631
0.0301385
-0.0187795
0.030268
-0.0169228
0.030386
-0.0150587
0.0304923
-0.0131908
0.0305872
-0.0113171
0.0306706
-0.00944098
0.0307425
-0.0075603
0.0308031
-0.00567817
0.0308525
-0.00379152
0.0308905
-0.00190226
0.0309173
-4.77785e-06
0.0309327
0.00189128
0.0309349
0.00378241
0.0309241
0.00566817
0.0309019
0.00755257
0.0308684
0.00943293
0.0308237
0.0113118
0.0307677
0.0131859
0.0307004
0.0150582
0.0306191
0.0169313
0.0305078
0.0188
0.0304061
0.0206612
0.0302929
0.0225166
0.0301682
0.024363
0.0300321
0.026202
0.0298845
0.0280308
0.0297254
0.0298508
0.029555
0.0316592
0.0293733
0.0334574
0.0291802
0.0352427
0.0289759
0.0370165
0.0287604
0.0387762
0.0285338
0.0405229
0.0282961
0.0422543
0.0280473
0.0439716
0.0277877
0.0456722
0.0275172
0.0473574
0.027236
0.0490247
0.026944
0.0506755
0.0266414
0.0523069
0.0263282
0.0539208
0.0260046
0.0555139
0.0256706
0.0570885
0.0253264
0.0586409
0.0249719
0.0601737
0.0246073
0.061683
0.0242327
0.0631715
0.0238482
0.0646353
0.0234538
0.0660772
0.0230497
0.067494
0.0226332
0.0688901
0.0222026
0.0702589
0.0217699
0.0716035
0.0213278
0.0729194
0.0208764
0.0742102
0.0204158
0.0754708
0.0199462
0.0767053
0.0194675
0.077908
0.0189798
0.0790835
0.0184833
0.0802254
0.0179781
0.0813391
0.0174641
0.0824172
0.0169415
0.0834658
0.0164104
0.0844765
0.0158707
0.0854562
0.0153227
0.0863953
0.0147664
0.0873016
0.0142018
0.088164
0.0136291
0.0889913
0.0130483
0.0897705
0.0124596
0.0905116
0.0118631
0.0911992
0.0112591
0.0918444
0.0106477
0.092429
0.0100294
0.0929649
0.00940458
0.0934312
0.00877387
0.0938389
0.00813807
0.0941655
0.00749833
0.0944177
0.00685616
0.0945744
0.00621353
0.0946361
0.00557303
0.0945844
0.00493791
0.0944182
0.00431218
0.0941242
0.00369972
0.0937542
0.00310436
0.09336
0.00252595
0.0930509
0.00196538
0.00139432
0.0929357
-0.0400524
0.0263225
0.0417369
-0.0383526
0.0265595
-0.0366322
0.0267871
-0.0349002
0.0270054
-0.033152
0.0272141
-0.0313947
0.0274131
-0.0296238
0.0276024
-0.0278455
0.0277817
-0.0260557
0.0279513
-0.02426
0.028111
-0.022435
0.0281808
-0.0206012
0.0283036
-0.0187578
0.0284254
-0.0169091
0.0285362
-0.015052
0.028636
-0.0131904
0.0287247
-0.0113215
0.0288024
-0.00944882
0.028869
-0.0075692
0.0289243
-0.00568584
0.0289683
-0.00379523
0.0290007
-0.00190038
0.0290216
2.1378e-06
0.029031
0.00190312
0.0290331
0.00380019
0.0290279
0.00569006
0.0290112
0.00757628
0.028983
0.00945595
0.0289433
0.0113322
0.0288922
0.013202
0.02883
0.0150687
0.0287531
0.0169352
0.0286407
0.0187968
0.0285451
0.0206504
0.0284387
0.0224979
0.0283213
0.0243362
0.0281932
0.026167
0.0280542
0.0279875
0.0279044
0.0297991
0.027744
0.0315991
0.0275728
0.0333888
0.027391
0.0351656
0.0271986
0.0369308
0.0269957
0.0386817
0.0267823
0.0404197
0.0265585
0.0421421
0.0263244
0.0438504
0.02608
0.0455417
0.0258253
0.0472176
0.0255606
0.0488752
0.0252858
0.0505163
0.025001
0.0521376
0.0247062
0.0537412
0.0244017
0.0553236
0.0240874
0.0568872
0.0237635
0.0584281
0.02343
0.0599491
0.0230871
0.0614462
0.0227347
0.062922
0.0223731
0.0643725
0.0220022
0.0658006
0.0216223
0.067203
0.0212298
0.0685842
0.0208223
0.0699373
0.0204158
0.0712655
0.0200006
0.0725641
0.0195767
0.0738368
0.0191444
0.0750783
0.0187037
0.0762927
0.0182546
0.077474
0.0177974
0.0786272
0.017332
0.0797452
0.0168587
0.0808339
0.0163776
0.0818853
0.0158887
0.082906
0.0153922
0.0838869
0.0148882
0.0848355
0.0143769
0.0857415
0.0138585
0.0866135
0.013333
0.0874395
0.0128008
0.0882296
0.0122619
0.0889698
0.0117167
0.0896716
0.0111654
0.090319
0.0106084
0.0909254
0.010046
0.0914723
0.00947869
0.0919745
0.00890706
0.0924125
0.00833163
0.0928014
0.00775326
0.0931229
0.00717267
0.0933906
0.00659097
0.093591
0.00600917
0.0937363
0.00542863
0.09382
0.00485066
0.0938547
0.00427681
0.0938432
0.00370862
0.0937963
0.00314771
0.0937229
0.00259528
0.093627
0.00205598
0.00151174
0.0935103
-0.0398145
0.0246501
0.0414851
-0.0381272
0.0248705
-0.0364216
0.0250819
-0.0347029
0.0252849
-0.0329677
0.0254793
-0.0312217
0.0256651
-0.0294614
0.0258423
-0.0276925
0.0260108
-0.0259114
0.0261704
-0.0241238
0.0263212
-0.0223063
0.0263635
-0.0204798
0.0264751
-0.0186431
0.0265888
-0.016801
0.0266922
-0.0149501
0.0267852
-0.013095
0.0268678
-0.0112324
0.0269399
-0.00936689
0.0270016
-0.00749521
0.0270526
-0.00562198
0.0270931
-0.00374428
0.027123
-0.00186711
0.0271425
1.1878e-05
0.027152
0.00188913
0.027154
0.00376888
0.0271482
0.0056458
0.0271326
0.00752244
0.0271064
0.00939437
0.0270697
0.0112643
0.0270224
0.0131281
0.0269646
0.0149894
0.0268919
0.0168504
0.0267783
0.0187067
0.0266889
0.0205548
0.0265893
0.0223967
0.0264794
0.0242293
0.0263594
0.0260544
0.0262291
0.027869
0.0260888
0.0296746
0.0259384
0.0314684
0.0257779
0.0332518
0.0256075
0.0350222
0.0254272
0.0367809
0.025237
0.0385252
0.025037
0.0402564
0.0248273
0.0419719
0.0246079
0.043673
0.0243788
0.045357
0.0241403
0.0470255
0.0238922
0.0486755
0.0236347
0.0503086
0.0233679
0.0519219
0.0230919
0.0535172
0.0228067
0.0550911
0.0225124
0.0566458
0.0222091
0.0581777
0.0218969
0.0596893
0.0215758
0.0611767
0.0212461
0.0626426
0.0209077
0.0640827
0.0205608
0.0655004
0.0202054
0.0668915
0.0198372
0.0682616
0.0194531
0.0696025
0.0190732
0.0709189
0.0186853
0.0722044
0.0182894
0.0734645
0.0178856
0.0746918
0.0174742
0.0758926
0.0170551
0.0770588
0.0166287
0.0781974
0.0161949
0.0792994
0.0157539
0.0803727
0.0153059
0.0814072
0.014851
0.0824116
0.0143893
0.0833751
0.0139212
0.0843071
0.0134466
0.0851958
0.0129659
0.0860512
0.0124793
0.0868608
0.0119869
0.0876356
0.0114891
0.0883616
0.0109861
0.089051
0.0104782
0.0896886
0.00996589
0.0902878
0.00944945
0.0908323
0.00892933
0.0913361
0.00840604
0.0917829
0.0078801
0.0921866
0.00735214
0.0925324
0.00682277
0.092832
0.00629278
0.0930748
0.00576289
0.0932702
0.005234
0.0934111
0.0047069
0.0935053
0.00418252
0.0935506
0.00366159
0.0935501
0.00314494
0.0935103
0.00263235
0.0934346
0.00212708
0.00160826
0.0933395
-0.0396402
0.022981
0.0413077
-0.037956
0.0231854
-0.0362556
0.0233816
-0.0345423
0.0235703
-0.0328138
0.0237513
-0.0310746
0.0239245
-0.0293216
0.02409
-0.0275599
0.0242476
-0.025786
0.0243974
-0.0240054
0.0245393
-0.0221948
0.0245539
-0.0203754
0.0246542
-0.0185452
0.0247598
-0.0167102
0.0248557
-0.0148658
0.024942
-0.0130181
0.0250186
-0.0111626
0.0250855
-0.00930539
0.0251428
-0.00744215
0.0251903
-0.00557892
0.0252282
-0.00371156
0.0252565
-0.00184618
0.0252753
2.13124e-05
0.0252851
0.0018866
0.0252867
0.00375523
0.02528
0.00562155
0.0252643
0.007489
0.0252392
0.00935245
0.0252045
0.011215
0.02516
0.013072
0.0251059
0.0149271
0.0250369
0.0167821
0.0249217
0.0186327
0.0248383
0.0204752
0.0247454
0.0223115
0.024643
0.0241386
0.024531
0.025958
0.0244096
0.0277668
0.0242788
0.0295664
0.0241386
0.0313543
0.023989
0.0331314
0.0238302
0.0348956
0.0236622
0.0366475
0.0234849
0.0383852
0.0232986
0.0401092
0.0231031
0.0418178
0.0228987
0.0435113
0.0226853
0.0451881
0.022463
0.0468485
0.0222319
0.0484907
0.0219921
0.0501154
0.0217436
0.0517203
0.0214865
0.0533067
0.0212209
0.0548717
0.0209469
0.056417
0.0206645
0.0579395
0.0203739
0.0594413
0.0200752
0.0609184
0.0197683
0.0623739
0.0194534
0.063803
0.0191307
0.0652096
0.0188002
0.066589
0.0184566
0.0679472
0.0180964
0.0692757
0.0177434
0.0705794
0.017383
0.0718517
0.0170154
0.0730982
0.0166407
0.0743115
0.016259
0.075498
0.0158705
0.0766494
0.0154752
0.0777729
0.0150734
0.0788595
0.0146651
0.079917
0.0142506
0.0809354
0.01383
0.0819237
0.0134035
0.0828709
0.0129713
0.0837866
0.0125335
0.0846591
0.0120904
0.0854989
0.0116422
0.0862933
0.0111891
0.0870537
0.0107315
0.0877666
0.0102696
0.0884442
0.00980367
0.089072
0.00933402
0.0896635
0.00886111
0.0902034
0.00838517
0.0907056
0.00790674
0.0911554
0.0074261
0.0915659
0.00694384
0.0919246
0.0064603
0.0922423
0.00597607
0.0925105
0.00549156
0.0927373
0.00500732
0.092918
0.00452381
0.0930587
0.00404147
0.0931582
0.00356071
0.0932194
0.003082
0.0932449
0.00260492
0.0932368
0.00213276
0.00164708
0.0931986
-0.0394341
0.0213294
0.0410888
-0.0377656
0.0215157
-0.0360778
0.0216953
-0.0343772
0.0218684
-0.0326598
0.022035
-0.0309318
0.022195
-0.0291889
0.0223481
-0.0274376
0.0224945
-0.0256733
0.0226341
-0.0239026
0.0227666
-0.0221014
0.0227536
-0.0202916
0.0228424
-0.0184704
0.0229395
-0.0166447
0.0230278
-0.014809
0.023107
-0.0129702
0.0231774
-0.0111228
0.0232388
-0.00927377
0.0232911
-0.00741772
0.0233346
-0.00556131
0.023369
-0.00369943
0.0233945
-0.00183858
0.0234112
2.62711e-05
0.0234198
0.00188869
0.0234209
0.00375329
0.0234147
0.00561417
0.0234003
0.00747554
0.0233771
0.0093321
0.0233449
0.0111875
0.0233038
0.0130369
0.0232537
0.0148843
0.0231886
0.0167314
0.023072
0.0185739
0.0229948
0.0204083
0.0229087
0.0222365
0.0228137
0.0240553
0.02271
0.0258663
0.0225976
0.0276668
0.0224764
0.0294579
0.0223465
0.0312372
0.022208
0.0330055
0.0220609
0.034761
0.0219052
0.0365038
0.0217411
0.0382326
0.0215685
0.0399473
0.0213875
0.0416467
0.0211982
0.0433306
0.0210006
0.0449978
0.0207948
0.0466483
0.0205809
0.0482806
0.0203589
0.049895
0.0201289
0.0514897
0.019891
0.0530653
0.0196453
0.0546197
0.0193917
0.0561539
0.0191305
0.0576653
0.0188617
0.0591553
0.0185854
0.0606211
0.0183017
0.0620644
0.0180106
0.0634818
0.0177124
0.0648759
0.017407
0.0662432
0.0170884
0.0675887
0.0167524
0.0689045
0.0164266
0.0701955
0.0160942
0.0714548
0.0157551
0.0726884
0.0154096
0.0738884
0.0150578
0.0750618
0.0146998
0.0761998
0.0143358
0.0773101
0.0139659
0.0783834
0.0135902
0.0794279
0.013209
0.0804337
0.0128224
0.0814095
0.0124305
0.0823453
0.0120336
0.0832496
0.0116319
0.0841126
0.0112256
0.0849428
0.0108148
0.0857304
0.0103999
0.086484
0.00998094
0.0871937
0.00955832
0.0878685
0.00913226
0.0884981
0.00870305
0.0890921
0.00827095
0.0896399
0.00783628
0.0901516
0.00739933
0.0906166
0.00696045
0.0910447
0.00651995
0.091427
0.00607815
0.0917713
0.00563544
0.0920713
0.00519208
0.0923337
0.0047485
0.0925533
0.00430493
0.092736
0.00386178
0.0928789
0.00341924
0.0929833
0.00297773
0.0930523
0.00253701
0.0930842
0.00209985
0.00165063
0.0930823
-0.0392086
0.0196894
0.0408508
-0.0375524
0.0198582
-0.0358767
0.0200213
-0.0341885
0.0201789
-0.0324829
0.0203311
-0.0307668
0.0204775
-0.0290353
0.0206182
-0.0272954
0.0207531
-0.0255421
0.0208821
-0.0237823
0.0210051
-0.0219918
0.0209645
-0.0201927
0.0210415
-0.018382
0.0211301
-0.0165665
0.0212104
-0.0147409
0.0212825
-0.0129118
0.0213463
-0.0110741
0.0214019
-0.00923414
0.0214491
-0.00738713
0.0214881
-0.00553902
0.0215188
-0.0036855
0.0215413
-0.00183229
0.0215558
2.47313e-05
0.021563
0.00187979
0.0215637
0.00373659
0.0215581
0.00558989
0.021545
0.00744318
0.021524
0.00929168
0.0214946
0.0111386
0.021457
0.0129795
0.0214111
0.0148181
0.0213501
0.0166563
0.0212324
0.0184898
0.0211613
0.020315
0.0210822
0.022134
0.0209948
0.0239435
0.0208994
0.0257452
0.0207959
0.0275362
0.0206843
0.029318
0.0205648
0.0310877
0.0204373
0.0328467
0.0203019
0.0345924
0.0201587
0.0363259
0.0200077
0.0380448
0.0198489
0.03975
0.0196824
0.0414394
0.0195083
0.0431136
0.0193265
0.0447707
0.0191373
0.0464112
0.0189406
0.0480333
0.0187365
0.0496374
0.0185251
0.0512218
0.0183064
0.0527868
0.0180806
0.0543309
0.0178477
0.0558541
0.0176078
0.0573551
0.0173609
0.0588341
0.0171072
0.0602893
0.0168468
0.0617216
0.0165797
0.0631282
0.0163061
0.0645113
0.016026
0.0658675
0.0157324
0.0672021
0.0154206
0.0685067
0.015122
0.0697866
0.0148173
0.0710347
0.0145067
0.0722574
0.0141902
0.0734464
0.0138681
0.0746092
0.0135404
0.0757368
0.0132072
0.0768371
0.0128688
0.0779007
0.0125253
0.078936
0.0121768
0.0799333
0.0118235
0.0809012
0.0114656
0.0818298
0.0111032
0.0827279
0.0107366
0.0835856
0.0103658
0.0844118
0.00999117
0.0851965
0.00961278
0.0859488
0.00923099
0.0866585
0.00884582
0.0873354
0.00845771
0.0879685
0.00806666
0.0885685
0.00767314
0.089124
0.00727714
0.0896457
0.00687918
0.0901231
0.00647923
0.0905657
0.00607782
0.0909653
0.00567495
0.0913285
0.0052711
0.0916508
0.00486635
0.0919364
0.00446106
0.0921827
0.00405539
0.0923927
0.0036496
0.0925655
0.00324386
0.092702
0.00283844
0.0928034
0.002433
0.0928709
0.00203003
0.00161588
0.0929059
-0.0389797
0.0180604
0.0406096
-0.0373345
0.0182118
-0.0356706
0.0183585
-0.0339933
0.0185007
-0.0322994
0.0186383
-0.030594
0.0187713
-0.0288741
0.0188996
-0.0271447
0.019023
-0.0254027
0.0191415
-0.0236532
0.0192549
-0.021874
0.0191867
-0.0200851
0.0192522
-0.0182856
0.0193321
-0.0164802
0.0194046
-0.0146656
0.0194696
-0.0128464
0.0195271
-0.0110198
0.019577
-0.00918971
0.0196193
-0.00735376
0.0196542
-0.00551587
0.0196815
-0.00367362
0.0197014
-0.00183103
0.0197141
1.42751e-05
0.0197203
0.00185838
0.0197206
0.00370402
0.0197151
0.00554706
0.0197029
0.00738996
0.0196836
0.00922868
0.0196568
0.0110657
0.0196225
0.0128971
0.0195806
0.0147262
0.0195234
0.0165549
0.0194045
0.0183791
0.0193396
0.0201948
0.0192672
0.0220046
0.0191873
0.0238044
0.0191001
0.0255971
0.0190055
0.0273783
0.0189035
0.0291511
0.0187943
0.0309108
0.0186778
0.0326608
0.0185541
0.0343964
0.0184232
0.0361209
0.0182852
0.0378295
0.0181402
0.0395257
0.0179881
0.0412045
0.0178291
0.0428697
0.0176632
0.0445161
0.0174904
0.0461475
0.0173108
0.0477588
0.0171245
0.0493537
0.0169316
0.0509271
0.0167321
0.0524829
0.0165261
0.0540158
0.0163136
0.0555298
0.0160948
0.0570196
0.0158698
0.0584892
0.0156385
0.0599331
0.0154012
0.0613558
0.0151578
0.0627514
0.0149086
0.0641245
0.0146535
0.0654701
0.0143847
0.0667945
0.0140969
0.068089
0.0138253
0.0693587
0.0135482
0.0705973
0.0132658
0.0718101
0.0129782
0.0729904
0.0126854
0.0741437
0.0123878
0.0752634
0.0120852
0.076355
0.011778
0.0774119
0.0114663
0.0784394
0.0111501
0.0794314
0.0108296
0.0803928
0.010505
0.0813179
0.0101765
0.082211
0.00984414
0.0830674
0.00950814
0.0838905
0.00916872
0.0846764
0.00882597
0.085428
0.00848014
0.086142
0.00813135
0.0868208
0.00777984
0.0874618
0.00742575
0.0880668
0.00706932
0.088634
0.00671069
0.0891646
0.00635012
0.0896576
0.00598774
0.0901134
0.0056238
0.0905322
0.00525845
0.0909135
0.00489193
0.0912583
0.00452439
0.0915662
0.00415606
0.0918375
0.00378707
0.0920729
0.00341764
0.0922724
0.00304791
0.0924346
0.00267811
0.0925632
0.00230806
0.092655
0.00193974
0.0015618
0.0927111
-0.0387697
0.0164433
0.0403906
-0.0371352
0.0165769
-0.0354815
0.016707
-0.0338146
0.0168337
-0.032131
0.0169568
-0.030436
0.0170762
-0.0287266
0.0171919
-0.0270075
0.0173037
-0.0252761
0.0174117
-0.0235368
0.0175155
-0.0217684
0.0174199
-0.0199901
0.0174737
-0.0182015
0.017545
-0.0164066
0.0176096
-0.0146031
0.0176675
-0.0127946
0.0177185
-0.0109789
0.0177628
-0.00915963
0.0178002
-0.00733484
0.0178309
-0.00550778
0.0178547
-0.00367674
0.017872
-0.001845
0.0178829
-1.07627e-05
0.017888
0.0018226
0.0178878
0.0036572
0.0178825
0.00548946
0.0178713
0.00732143
0.0178536
0.00914945
0.0178293
0.0109758
0.0177982
0.0127966
0.0177602
0.0146151
0.017707
0.0164331
0.0175868
0.0182468
0.017528
0.0200519
0.0174624
0.0218513
0.0173901
0.0236405
0.0173111
0.0254227
0.0172254
0.0271933
0.0171331
0.0289556
0.0170342
0.0307047
0.0169288
0.0324443
0.0168168
0.0341691
0.0166984
0.0358832
0.0165735
0.0375809
0.0164423
0.0392667
0.0163047
0.0409347
0.0161609
0.0425895
0.0160108
0.0442249
0.0158546
0.045846
0.0156922
0.0474463
0.0155238
0.0490309
0.0153494
0.0505934
0.015169
0.052139
0.0149829
0.053661
0.0147909
0.0551649
0.0145932
0.0566439
0.0143899
0.0581035
0.0141811
0.059537
0.0139668
0.0609498
0.0137471
0.0623353
0.0135221
0.0636987
0.0132919
0.0650347
0.0130477
0.0663496
0.0127837
0.067635
0.0125387
0.0688957
0.012289
0.070126
0.0120344
0.0713304
0.0117752
0.0725033
0.0115115
0.073649
0.0112434
0.0747624
0.0109709
0.0758474
0.0106943
0.0768993
0.0104135
0.0779215
0.0101289
0.0789101
0.00984049
0.0798676
0.00954841
0.080791
0.00925279
0.0816822
0.00895379
0.0825389
0.00865153
0.0833621
0.00834619
0.0841506
0.00803789
0.0849046
0.00772679
0.0856237
0.00741305
0.0863073
0.00709682
0.086956
0.00677826
0.0875686
0.00645752
0.0881462
0.00613477
0.0886871
0.00581015
0.0891932
0.00548386
0.0896622
0.00515601
0.0900965
0.0048268
0.0904934
0.00449637
0.0908557
0.00416488
0.0911814
0.00383247
0.0914717
0.00349931
0.0917266
0.00316555
0.0919459
0.00283131
0.0921292
0.00249683
0.0922782
0.00216194
0.0923915
0.00182829
0.00148633
0.0924681
-0.0385481
0.0148356
0.0401528
-0.0369237
0.014952
-0.0352834
0.0150658
-0.0336277
0.0151771
-0.0319574
0.0152858
-0.0302739
0.0153918
-0.0285774
0.015495
-0.0268699
0.0155954
-0.0251512
0.0156927
-0.0234237
0.015787
-0.021668
0.0156641
-0.0199014
0.0157062
-0.0181254
0.015769
-0.0163424
0.0158258
-0.0145513
0.0158765
-0.0127547
0.0159211
-0.0109515
0.0159597
-0.00914418
0.0159921
-0.00733162
0.0160185
-0.00551663
0.0160389
-0.0036977
0.0160535
-0.00187803
0.0160624
-5.56884e-05
0.0160662
0.00176573
0.0160655
0.00358862
0.0160604
0.0054089
0.0160501
0.00722927
0.0160342
0.00904533
0.0160124
0.0108602
0.0159845
0.0126691
0.0159505
0.0144762
0.0159011
0.0162823
0.0157797
0.0180847
0.015727
0.0198779
0.0156682
0.021666
0.0156034
0.0234434
0.0155326
0.0252146
0.0154558
0.0269734
0.0153731
0.0287246
0.0152845
0.0304621
0.0151901
0.0321907
0.0150898
0.0339039
0.0149838
0.0356071
0.014872
0.0372934
0.0147545
0.0389684
0.0146314
0.0406252
0.0145026
0.0422692
0.0143684
0.0438936
0.0142286
0.0455041
0.0140833
0.0470936
0.0139327
0.0486678
0.0137767
0.0502198
0.0136154
0.0517551
0.013449
0.0532671
0.0132774
0.0547609
0.0131007
0.0562303
0.012919
0.0576802
0.0127324
0.0591045
0.012541
0.060508
0.0123447
0.0618849
0.0121438
0.0632395
0.0119383
0.0645675
0.0117185
0.0658742
0.0114779
0.0671524
0.0112593
0.0684057
0.0110365
0.0696297
0.0108094
0.0708274
0.0105782
0.071995
0.010343
0.0731351
0.0101038
0.0742445
0.00986083
0.0753251
0.00961414
0.0763743
0.00936384
0.0773936
0.00911005
0.0783808
0.00885287
0.0793371
0.00859244
0.0802608
0.00832885
0.0811526
0.00806224
0.0820113
0.00779272
0.0828373
0.00752042
0.0836297
0.00724545
0.0843887
0.00696796
0.0851137
0.00668806
0.0858047
0.00640588
0.0864615
0.00612156
0.0870838
0.00583522
0.0876718
0.00554699
0.088225
0.00525701
0.0887436
0.00496541
0.0892272
0.00467232
0.0896765
0.00437786
0.0900902
0.00408217
0.0904699
0.00378538
0.0908144
0.00348762
0.0911246
0.00318901
0.0914003
0.00288968
0.091642
0.00258975
0.0918487
0.00228937
0.0920223
0.00198846
0.0921616
0.00168827
0.00138147
0.0922673
-0.0384243
0.0132322
0.0400258
-0.0368045
0.0133319
-0.0351695
0.0134301
-0.0335198
0.0135267
-0.0318562
0.0136216
-0.0301799
0.0137147
-0.0284913
0.013806
-0.026792
0.0138953
-0.0250822
0.0139826
-0.0233637
0.0140678
-0.0216178
0.0139181
-0.0198612
0.0139491
-0.0180956
0.0140036
-0.0163231
0.0140529
-0.014543
0.0140968
-0.0127574
0.0141354
-0.0109655
0.0141686
-0.00916974
0.0141965
-0.00736894
0.014219
-0.00556596
0.0142363
-0.00375915
0.0142484
-0.00195187
0.0142558
-0.000141966
0.0142587
0.00166671
0.0142577
0.00347692
0.0142529
0.00528435
0.0142437
0.00709199
0.0142295
0.0088952
0.0142101
0.0106974
0.0141854
0.0124934
0.0141554
0.0142879
0.0141099
0.0160813
0.0139873
0.0178711
0.0139406
0.0196517
0.0138887
0.0214274
0.0138313
0.0231922
0.0137687
0.024951
0.0137008
0.0266974
0.0136278
0.0284364
0.0135494
0.0301615
0.013466
0.0318779
0.0133773
0.0335791
0.0132836
0.0352703
0.0131848
0.0369448
0.013081
0.0386079
0.0129722
0.0402531
0.0128585
0.0418854
0.0127399
0.0434986
0.0126164
0.0450977
0.0124881
0.0466763
0.0123551
0.0482394
0.0122174
0.0497809
0.0120751
0.0513054
0.0119281
0.0528073
0.0117767
0.0542908
0.0116207
0.0557506
0.0114604
0.0571907
0.0112958
0.0586061
0.0111269
0.0600003
0.0109538
0.0613689
0.0107765
0.062715
0.0105953
0.0640355
0.0103994
0.0653345
0.0101818
0.066606
0.0099892
0.0678525
0.00979278
0.0690707
0.00959262
0.0702626
0.00938884
0.0714256
0.00918148
0.0725611
0.00897067
0.0736669
0.00875646
0.0747442
0.008539
0.0757912
0.00831832
0.0768087
0.00809456
0.0777952
0.00786779
0.0787513
0.00763813
0.0796759
0.00740565
0.0805692
0.00717049
0.0814306
0.00693271
0.0822599
0.00669245
0.0830569
0.00644977
0.0838213
0.00620482
0.0845528
0.00595766
0.0852513
0.00570845
0.0859167
0.00545723
0.0865487
0.00520417
0.0871474
0.00494931
0.0877125
0.00469283
0.0882441
0.00443476
0.0887419
0.00417527
0.0892063
0.00391441
0.0896365
0.00365232
0.0900335
0.00338908
0.0903967
0.00312481
0.0907265
0.00285959
0.0910232
0.00259353
0.0912866
0.00232671
0.0915166
0.00205925
0.0917145
0.00179108
0.0918795
0.00152309
0.00124967
0.0920119
-0.038189
0.0116487
0.0397759
-0.0365892
0.0117313
-0.03497
0.0118132
-0.0333384
0.0118945
-0.0316895
0.0119751
-0.0300305
0.012055
-0.0283561
0.0121339
-0.0266738
0.012212
-0.0249777
0.012289
-0.0232762
0.0123649
-0.0215435
0.0121878
-0.0198035
0.0122073
-0.0180508
0.0122534
-0.0162952
0.0122949
-0.0145279
0.0123319
-0.0127595
0.0123641
-0.0109804
0.0123918
-0.00920217
0.0124148
-0.00741448
0.0124332
-0.00562937
0.0124471
-0.00383594
0.0124566
-0.00204705
0.012462
-0.000250689
0.0124635
0.00153965
0.0124618
0.00333681
0.0124568
0.00512668
0.012448
0.00692178
0.0124351
0.00870813
0.0124179
0.010498
0.012396
0.0122779
0.0123696
0.0140604
0.0123276
0.0158381
0.0122036
0.0176161
0.0121627
0.0193815
0.0121173
0.0211454
0.0120672
0.0228956
0.0120126
0.0246426
0.0119534
0.0263749
0.0118897
0.0281022
0.0118215
0.0298137
0.0117487
0.0315185
0.0116716
0.0332065
0.01159
0.0348862
0.0115041
0.0365481
0.0114137
0.0381999
0.0113191
0.039833
0.0112202
0.0414543
0.0111171
0.0430561
0.0110097
0.0446443
0.0108982
0.0462121
0.0107826
0.0477647
0.0106629
0.049296
0.0105393
0.0508105
0.0104116
0.0523029
0.01028
0.0537769
0.0101446
0.055228
0.0100054
0.0566591
0.00986242
0.0580666
0.00971575
0.0594526
0.00956545
0.0608142
0.00941158
0.0621528
0.0092542
0.0634672
0.00908192
0.0647594
0.00888709
0.066026
0.00871999
0.0672665
0.00854958
0.0684809
0.00837592
0.0696679
0.00819908
0.0708282
0.00801914
0.07196
0.00783618
0.0730644
0.00765027
0.0741391
0.00746149
0.0751861
0.00726992
0.0762022
0.00707564
0.07719
0.00687874
0.0781462
0.00667928
0.0790735
0.00647736
0.0799682
0.00627306
0.0808338
0.00606646
0.0816659
0.00585765
0.0824685
0.00564672
0.0832371
0.00543375
0.0839757
0.00521884
0.0846797
0.00500206
0.0853534
0.00478351
0.0859921
0.00456327
0.0866001
0.00434145
0.087173
0.00411811
0.0877147
0.00389337
0.0882211
0.00366729
0.088696
0.00343999
0.0891354
0.00321153
0.0895429
0.00298202
0.0899153
0.00275154
0.0902549
0.00252017
0.0905598
0.00228802
0.0908319
0.00205517
0.091068
0.00182171
0.0912719
0.00158765
0.0914403
0.00135363
0.00111577
0.0915752
-0.0383772
0.0100554
0.0399721
-0.0367692
0.0101219
-0.035144
0.0101893
-0.0335075
0.0102568
-0.0318555
0.0103246
-0.0301943
0.0103925
-0.0285193
0.0104604
-0.026837
0.0105283
-0.0251426
0.0105962
-0.023443
0.0106639
-0.0217146
0.010461
-0.0199789
0.0104699
-0.0182322
0.0105085
-0.0164822
0.0105431
-0.0147222
0.0105738
-0.0129606
0.0106005
-0.0111902
0.0106234
-0.00941986
0.0106422
-0.00764182
0.0106572
-0.00586566
0.0106683
-0.0040828
0.0106758
-0.00230366
0.0106798
-0.000518603
0.0106805
0.00126111
0.0106786
0.0030459
0.010674
0.00482389
0.0106664
0.0066057
0.0106552
0.00837939
0.0106404
0.0101555
0.0106217
0.0119222
0.010599
0.0136907
0.0105608
0.0154551
0.0104352
0.017219
0.0104003
0.0189709
0.0103614
0.0207208
0.0103186
0.0224575
0.0102718
0.0241906
0.0102213
0.0259095
0.0101668
0.027623
0.0101086
0.0293214
0.0100465
0.0310127
0.00998063
0.0326879
0.00991099
0.0343544
0.00983767
0.0360038
0.00976061
0.0376428
0.00967992
0.0392637
0.00959557
0.0408727
0.00950765
0.0424627
0.00941613
0.0440391
0.00932112
0.0455956
0.00922259
0.047137
0.00912063
0.0486576
0.00901524
0.0501615
0.00890651
0.0516438
0.00879443
0.0531079
0.00867908
0.0545497
0.00856049
0.0559717
0.00843872
0.0573706
0.00831381
0.0587484
0.00818581
0.0601023
0.00805477
0.0614336
0.00792076
0.0627414
0.00777151
0.0640273
0.00759884
0.0652881
0.00745668
0.0665235
0.00731168
0.0677332
0.00716389
0.0689163
0.00701337
0.0700731
0.00686019
0.071202
0.0067044
0.0723042
0.00654608
0.0733774
0.00638529
0.0744234
0.00622208
0.0754395
0.00605653
0.0764278
0.00588871
0.0773853
0.00571867
0.0783145
0.0055465
0.0792122
0.00537224
0.0800812
0.00519599
0.0809178
0.0050178
0.0817255
0.00483774
0.0825002
0.00465589
0.0832454
0.00447232
0.0839573
0.0042871
0.0846392
0.0041003
0.0852875
0.003912
0.0859055
0.00372227
0.0864896
0.00353118
0.087043
0.00333882
0.0875624
0.00314524
0.0880507
0.00295054
0.0885047
0.00275478
0.0889274
0.00255805
0.0893161
0.00236041
0.0896727
0.00216196
0.0899958
0.00196276
0.0902866
0.00176289
0.0905434
0.00156243
0.0907682
0.0013614
0.0909598
0.00116024
0.000955954
0.0911195
-0.0380587
0.00848999
0.0396246
-0.0364783
0.00854074
-0.0348812
0.00859262
-0.0332708
0.00864585
-0.0316462
0.00870034
-0.0300102
0.00875601
-0.0283624
0.00881281
-0.0267051
0.00887067
-0.0250383
0.00892952
-0.023364
0.00898928
-0.0216611
0.00875834
-0.0199478
0.00875642
-0.0182265
0.00878746
-0.0164987
0.00881525
-0.0147643
0.00883979
-0.0130248
0.00886109
-0.0112802
0.00887915
-0.00953163
0.008894
-0.00777951
0.00890566
-0.00602482
0.00891419
-0.00426793
0.00891969
-0.00250966
0.0089223
-0.00075035
0.00892223
0.00100956
0.00891974
0.00276987
0.00891486
0.00453001
0.00890748
0.0062891
0.00889741
0.00804646
0.00888441
0.00980115