/*--------------------------------*- C++ -*----------------------------------*\
  =========                 |
  \\      /  F ield         | OpenFOAM: The Open Source CFD Toolbox
   \\    /   O peration     | Website:  https://openfoam.org
    \\  /    A nd           | Version:  6.0
     \\/     M anipulation  |
\*---------------------------------------------------------------------------*/
FoamFile
{
    version     2.0;
    format      ascii;
    class       volVectorField;
    location    "50";
    object      U;
}
// * * * * * * * * * * * * * * * * * * * * * * * * * * * * * * * * * * * * * //

dimensions      [0 1 -1 0 0 0 0];

internalField   nonuniform List<vector> 
9800
(
(24.632 3.89306 -3.32304e-16)
(24.648 3.87715 -2.14298e-16)
(24.6604 3.85966 5.89476e-16)
(24.6709 3.84043 2.51047e-16)
(24.68 3.82045 -7.25451e-16)
(24.6883 3.80017 4.42567e-16)
(24.696 3.77987 -1.81703e-16)
(24.7033 3.7597 -1.93186e-16)
(24.7103 3.73971 3.72674e-16)
(24.7171 3.7199 -2.50475e-16)
(24.7239 3.70043 1.19291e-16)
(24.7307 3.68116 1.58138e-17)
(24.7374 3.66215 -1.54665e-16)
(24.7441 3.64339 1.0947e-16)
(24.7509 3.62487 -4.17027e-17)
(24.7576 3.60662 -1.74804e-17)
(24.7642 3.58863 -2.96563e-17)
(24.7708 3.57095 7.06097e-17)
(24.7773 3.55362 -1.33816e-16)
(24.7834 3.53677 -3.18228e-17)
(24.7891 3.52059 2.08861e-16)
(24.794 3.5056 6.17004e-17)
(24.7975 3.49263 -4.80202e-17)
(24.7997 3.48093 -3.69349e-17)
(24.8012 3.46776 -2.68978e-16)
(24.8019 3.4523 3.85129e-16)
(24.8021 3.43551 2.13467e-17)
(24.8021 3.41796 -5.51245e-16)
(24.802 3.39992 -2.52349e-17)
(24.8019 3.38155 5.37198e-16)
(24.8018 3.36289 -1.54749e-16)
(24.8019 3.34409 -2.25715e-16)
(24.8021 3.32509 2.44048e-16)
(24.8025 3.3059 1.93496e-16)
(24.803 3.28655 2.92257e-16)
(24.8037 3.26702 -3.93234e-16)
(24.8047 3.24734 5.73446e-17)
(24.8058 3.22749 -1.85158e-16)
(24.8071 3.20746 -7.88891e-17)
(24.8086 3.18727 -1.99655e-16)
(24.8103 3.16688 2.44151e-16)
(24.8121 3.14631 1.84184e-16)
(24.8142 3.12554 1.69487e-16)
(24.8164 3.10455 2.13188e-16)
(24.8189 3.08334 -1.10055e-15)
(24.8215 3.0619 2.98491e-16)
(24.8243 3.04021 7.72284e-16)
(24.8273 3.01826 -4.31454e-16)
(24.8305 2.99603 -3.03577e-16)
(24.8339 2.97351 3.73867e-16)
(24.8374 2.95068 -1.01755e-15)
(24.8412 2.92752 -6.90722e-17)
(24.8451 2.90402 8.32866e-16)
(24.8492 2.88015 -2.53247e-17)
(24.8535 2.85588 -4.67641e-17)
(24.8581 2.83121 -6.67819e-16)
(24.8627 2.80609 1.07577e-15)
(24.8676 2.78051 -6.1743e-16)
(24.8727 2.75443 -7.83701e-17)
(24.8781 2.72783 4.35207e-16)
(24.8836 2.70065 3.6321e-16)
(24.8893 2.67288 -7.1347e-16)
(24.8953 2.64449 3.57249e-16)
(24.9014 2.61541 -4.47932e-16)
(24.9078 2.58558 4.28873e-16)
(24.9144 2.55495 -3.2614e-16)
(24.9212 2.52345 6.77518e-16)
(24.9282 2.49104 -6.95356e-16)
(24.9354 2.45761 5.22925e-16)
(24.9429 2.4231 -7.99271e-16)
(24.9505 2.3874 3.60058e-16)
(24.9584 2.35042 1.64945e-17)
(24.9666 2.31202 6.58177e-16)
(24.9749 2.2721 -8.25127e-16)
(24.9834 2.23048 1.63336e-16)
(24.9922 2.18701 6.43882e-17)
(25.0011 2.14144 4.46476e-17)
(25.0102 2.0936 -9.41441e-17)
(25.0194 2.04316 -3.00732e-17)
(25.0287 1.98982 -2.02082e-16)
(25.0379 1.93318 1.18375e-16)
(25.0469 1.87277 -1.1845e-16)
(25.0554 1.80801 2.48193e-16)
(25.0633 1.7382 -3.78788e-17)
(25.0698 1.66245 2.02731e-16)
(25.0742 1.57961 -5.86699e-17)
(25.0753 1.48823 -1.49725e-16)
(25.0711 1.38634 -7.71135e-17)
(25.0588 1.27132 2.66534e-16)
(25.0338 1.13948 -5.95397e-18)
(24.9889 0.985593 -1.17068e-16)
(24.9132 0.802009 1.07074e-16)
(24.7898 0.576979 -1.48829e-16)
(24.592 0.293233 1.98248e-16)
(24.2869 -0.0735842 -5.2039e-17)
(23.7827 -0.638841 -5.1206e-17)
(23.1483 -0.998877 -1.90115e-16)
(22.4701 -1.3838 2.93246e-16)
(21.775 -1.01872 -9.52313e-17)
(21.335 -0.218089 7.81155e-18)
(23.9658 4.02717 3.0455e-16)
(23.9694 4.00245 2.05289e-16)
(23.9726 3.97562 -1.83968e-16)
(23.9763 3.94748 1.28365e-16)
(23.98 3.91829 -3.72173e-16)
(23.9836 3.88838 1.80731e-16)
(23.9871 3.85801 -3.48723e-17)
(23.9904 3.82732 4.23735e-16)
(23.9934 3.79647 -7.75206e-16)
(23.9963 3.76544 1.11492e-16)
(23.999 3.73436 5.25935e-17)
(24.0017 3.70324 1.33332e-16)
(24.0043 3.67221 -1.99966e-17)
(24.0068 3.64125 -1.2357e-16)
(24.0093 3.61041 1.28072e-16)
(24.0118 3.57974 5.05076e-18)
(24.0142 3.54932 -6.59772e-17)
(24.0165 3.5193 1.19908e-16)
(24.0188 3.48986 -3.19082e-16)
(24.0209 3.46126 3.57366e-16)
(24.0229 3.43387 -1.41844e-16)
(24.0249 3.40831 -5.43429e-16)
(24.0272 3.38609 2.1883e-17)
(24.031 3.36642 -6.70584e-17)
(24.0371 3.34482 7.80098e-16)
(24.0444 3.32011 -1.18546e-16)
(24.0522 3.29363 -5.53884e-16)
(24.0602 3.26601 -6.79513e-16)
(24.0685 3.23759 8.50981e-16)
(24.0769 3.20866 1.32745e-16)
(24.0854 3.17935 2.99417e-16)
(24.094 3.14981 5.73008e-16)
(24.1027 3.12012 -5.92827e-16)
(24.1116 3.09034 -5.91261e-17)
(24.1206 3.06052 -5.64124e-16)
(24.1297 3.03065 6.14462e-16)
(24.139 3.00076 2.65686e-16)
(24.1484 2.97084 -5.89231e-16)
(24.1579 2.9409 4.56427e-17)
(24.1675 2.91092 -2.372e-16)
(24.1773 2.88089 1.26487e-16)
(24.1872 2.85082 -1.3844e-15)
(24.1973 2.82067 2.67015e-15)
(24.2075 2.79044 -1.66166e-15)
(24.2178 2.76011 -5.13342e-16)
(24.2283 2.72967 5.17519e-16)
(24.2389 2.6991 -1.26198e-15)
(24.2496 2.66837 6.99408e-16)
(24.2605 2.63748 3.2413e-16)
(24.2716 2.6064 1.39241e-15)
(24.2828 2.57511 -2.06141e-15)
(24.2942 2.5436 2.19562e-15)
(24.3057 2.51183 -1.07616e-17)
(24.3174 2.47978 -1.70005e-16)
(24.3293 2.44743 -1.0567e-16)
(24.3414 2.41476 -3.26056e-16)
(24.3536 2.38172 -1.0216e-15)
(24.366 2.34831 4.99737e-16)
(24.3786 2.31447 4.24936e-16)
(24.3914 2.2802 4.535e-17)
(24.4043 2.24545 -5.39487e-16)
(24.4174 2.2102 -2.40683e-16)
(24.4307 2.17437 8.55086e-16)
(24.4442 2.13795 -1.97557e-16)
(24.4578 2.10088 -1.14994e-15)
(24.4716 2.06314 1.27489e-15)
(24.4855 2.02463 -1.05366e-15)
(24.4995 1.9853 1.65068e-15)
(24.5137 1.94507 -1.21431e-15)
(24.528 1.90387 -1.5498e-17)
(24.5424 1.86159 1.43652e-15)
(24.5568 1.81816 -6.03099e-16)
(24.5714 1.77346 -3.09093e-16)
(24.5859 1.7274 6.09203e-18)
(24.6005 1.67983 -1.39054e-16)
(24.615 1.63062 3.14097e-16)
(24.6294 1.5796 8.69316e-17)
(24.6435 1.52662 -2.57365e-16)
(24.6573 1.47145 4.17062e-16)
(24.6707 1.4139 -1.76348e-16)
(24.6834 1.35369 4.82846e-17)
(24.6953 1.29059 -1.81058e-17)
(24.706 1.22426 -3.56538e-16)
(24.7153 1.15442 -1.77477e-16)
(24.7226 1.08069 1.67547e-16)
(24.7275 1.00278 7.18692e-17)
(24.7292 0.920344 9.99189e-17)
(24.7271 0.833246 -2.38931e-16)
(24.7202 0.741411 -3.69295e-17)
(24.7075 0.645299 1.33107e-17)
(24.6879 0.545857 -1.38946e-16)
(24.6603 0.445339 3.80278e-16)
(24.6238 0.347744 -2.96323e-16)
(24.5774 0.260349 1.21692e-16)
(24.5225 0.196719 8.9598e-18)
(24.4481 0.16553 6.80278e-17)
(24.3632 0.253342 7.41073e-18)
(24.2248 0.40679 -1.37762e-16)
(24.0903 0.709446 2.58312e-18)
(24.024 1.08707 1.46577e-17)
(24.2159 3.9841 -7.63864e-16)
(24.2116 3.95353 3.41938e-16)
(24.2079 3.92539 -2.54654e-16)
(24.2052 3.89856 2.78533e-17)
(24.2031 3.87253 -1.04262e-16)
(24.2013 3.84701 4.9791e-16)
(24.1996 3.82176 -3.02284e-16)
(24.198 3.79662 3.56047e-16)
(24.1962 3.77154 -4.96046e-18)
(24.1943 3.74643 -6.05533e-16)
(24.1922 3.7211 4.82402e-16)
(24.1899 3.69584 -1.65554e-16)
(24.1875 3.67045 1.6939e-17)
(24.1848 3.64491 4.33273e-17)
(24.182 3.61927 -4.1217e-17)
(24.179 3.5935 -6.61124e-18)
(24.176 3.56762 -6.47866e-17)
(24.173 3.54162 6.34263e-17)
(24.1701 3.51549 1.81077e-16)
(24.1676 3.48921 -6.52964e-17)
(24.1657 3.46259 -9.47769e-18)
(24.1648 3.43526 -3.15256e-16)
(24.1659 3.40731 -3.89932e-16)
(24.1707 3.37964 6.25915e-16)
(24.1792 3.3527 -1.29097e-16)
(24.1894 3.32689 5.42744e-16)
(24.2004 3.30204 -5.1559e-16)
(24.212 3.27769 6.82004e-16)
(24.2238 3.25356 -1.11794e-15)
(24.2359 3.22958 3.85465e-16)
(24.248 3.20573 -1.70195e-16)
(24.2599 3.18182 4.34642e-17)
(24.2718 3.15806 5.28847e-16)
(24.2836 3.13437 1.62223e-16)
(24.2953 3.11072 4.43052e-16)
(24.3069 3.08711 -6.94478e-16)
(24.3183 3.06354 -2.39457e-16)
(24.3296 3.04 8.71962e-16)
(24.3407 3.01647 -4.367e-16)
(24.3518 2.99293 5.19549e-16)
(24.3626 2.96938 -3.35054e-16)
(24.3734 2.94581 2.41043e-16)
(24.3841 2.92218 -8.30767e-16)
(24.3946 2.8985 -7.43898e-16)
(24.4051 2.87474 7.35938e-16)
(24.4155 2.85089 4.70818e-16)
(24.4258 2.82693 7.88982e-16)
(24.436 2.80284 -1.01947e-15)
(24.4462 2.77861 -1.5511e-16)
(24.4563 2.75421 7.2467e-16)
(24.4663 2.72963 -2.06774e-16)
(24.4762 2.70484 9.03416e-16)
(24.4861 2.67983 -1.96856e-16)
(24.496 2.65457 -6.22107e-16)
(24.5058 2.62903 1.97546e-16)
(24.5155 2.6032 -8.02401e-16)
(24.5252 2.57704 1.34953e-15)
(24.5348 2.55052 -5.27019e-16)
(24.5443 2.52362 -4.78763e-16)
(24.5538 2.49631 4.1742e-16)
(24.5632 2.46856 -5.14732e-17)
(24.5725 2.44034 -8.08761e-16)
(24.5817 2.41161 6.18132e-16)
(24.5907 2.38235 4.24896e-17)
(24.5996 2.35252 3.96209e-16)
(24.6083 2.32207 -6.15869e-16)
(24.6169 2.29094 5.01678e-16)
(24.6252 2.25909 -3.93684e-16)
(24.6333 2.22645 -3.98285e-16)
(24.6412 2.19296 8.08497e-16)
(24.6488 2.15855 -5.99623e-16)
(24.656 2.12316 6.50879e-16)
(24.6628 2.08669 2.72725e-16)
(24.6691 2.04909 -8.38734e-16)
(24.6748 2.01024 3.13634e-16)
(24.6799 1.97005 1.33116e-17)
(24.6842 1.92843 -2.69148e-16)
(24.6876 1.88526 1.74921e-16)
(24.6899 1.84043 2.40968e-16)
(24.6909 1.79383 -1.46835e-16)
(24.6904 1.74532 -6.42452e-17)
(24.6881 1.69481 9.5495e-17)
(24.6837 1.64216 1.18858e-16)
(24.6768 1.58731 -5.48701e-16)
(24.6669 1.53014 2.77422e-16)
(24.6535 1.47067 1.68716e-16)
(24.6358 1.40884 -1.83787e-16)
(24.613 1.3448 -6.84191e-17)
(24.584 1.27864 1.71324e-16)
(24.5477 1.2107 -2.03569e-16)
(24.5025 1.14137 2.26243e-17)
(24.4466 1.0712 2.31787e-16)
(24.3778 1.00091 -5.74474e-17)
(24.2938 0.93129 -3.69709e-17)
(24.1925 0.863469 -1.11236e-16)
(24.0712 0.797871 1.30232e-16)
(23.9326 0.736572 2.88388e-17)
(23.7869 0.684198 -1.10516e-16)
(23.6602 0.647063 1.73248e-17)
(23.5918 0.607431 -6.63796e-18)
(24.1971 3.94019 9.12061e-16)
(24.2062 3.91492 -5.83586e-16)
(24.2134 3.89056 -1.04521e-17)
(24.2195 3.86635 7.44035e-16)
(24.2248 3.84248 -7.14386e-16)
(24.2295 3.81892 -9.01691e-17)
(24.2338 3.79566 1.13365e-16)
(24.2376 3.77263 1.48561e-17)
(24.2412 3.74982 -2.54712e-16)
(24.2444 3.72717 3.57966e-16)
(24.2475 3.70469 -2.6173e-18)
(24.2504 3.68234 -1.60064e-18)
(24.2531 3.66 -2.18464e-17)
(24.2556 3.63765 3.61357e-17)
(24.2579 3.61524 2.15453e-18)
(24.2601 3.5927 8.5122e-18)
(24.2622 3.56996 9.05803e-18)
(24.2643 3.54691 -8.15298e-18)
(24.2664 3.52345 8.36731e-17)
(24.2687 3.49941 -3.82628e-17)
(24.2711 3.47461 1.42964e-17)
(24.2737 3.44866 -5.67115e-16)
(24.2769 3.42117 5.75999e-16)
(24.2816 3.39298 1.11196e-16)
(24.2875 3.3658 -7.32807e-16)
(24.2934 3.34021 3.62038e-16)
(24.2994 3.31573 -2.97506e-16)
(24.3053 3.29197 9.60669e-16)
(24.3112 3.26873 -5.59574e-16)
(24.317 3.24582 2.5258e-16)
(24.3228 3.22316 -4.81809e-16)
(24.3286 3.20059 -1.9279e-16)
(24.3342 3.17811 4.8174e-16)
(24.3398 3.15562 2.39029e-17)
(24.3454 3.13306 -6.05305e-16)
(24.3508 3.11042 7.41391e-16)
(24.3562 3.08766 -1.50112e-16)
(24.3614 3.06475 -5.9954e-17)
(24.3666 3.04169 -2.91882e-16)
(24.3717 3.01844 1.65343e-16)
(24.3768 2.99501 1.6561e-16)
(24.3818 2.97137 2.07831e-16)
(24.3867 2.94752 6.96017e-16)
(24.3915 2.92343 -2.04132e-15)
(24.3963 2.8991 3.80117e-16)
(24.4011 2.87451 1.46657e-15)
(24.4058 2.84965 -1.8908e-15)
(24.4105 2.8245 -7.17622e-17)
(24.4151 2.79906 1.09482e-15)
(24.4197 2.7733 5.10779e-16)
(24.4242 2.7472 -1.32421e-15)
(24.4287 2.72076 9.63807e-17)
(24.4331 2.69395 1.2797e-15)
(24.4375 2.66675 -3.0755e-16)
(24.4418 2.63914 -5.29501e-17)
(24.446 2.61109 -5.81442e-16)
(24.4502 2.58259 1.08183e-15)
(24.4543 2.5536 -1.00067e-15)
(24.4583 2.5241 6.62827e-16)
(24.4622 2.49406 -9.35326e-17)
(24.4659 2.46345 -3.0737e-16)
(24.4695 2.43224 3.08734e-16)
(24.473 2.40045 1.56238e-17)
(24.4763 2.368 1.0039e-16)
(24.4794 2.33486 -9.79605e-16)
(24.4822 2.30099 4.35406e-16)
(24.4848 2.26635 -3.46084e-16)
(24.4871 2.23091 5.04399e-16)
(24.4891 2.19462 3.36235e-16)
(24.4907 2.15742 -7.62764e-16)
(24.4919 2.11928 -4.81536e-17)
(24.4926 2.08015 3.78754e-16)
(24.4927 2.03997 2.12533e-16)
(24.4922 1.99869 2.73896e-16)
(24.491 1.95624 -4.67017e-16)
(24.4889 1.91259 3.21415e-16)
(24.4859 1.86767 4.63076e-17)
(24.4818 1.82142 -3.64633e-16)
(24.4764 1.77381 6.18088e-16)
(24.4697 1.72479 -8.74717e-17)
(24.4613 1.67433 -1.96153e-16)
(24.4511 1.62241 -3.99577e-16)
(24.4388 1.56905 -6.07485e-18)
(24.4241 1.51427 1.17562e-16)
(24.4068 1.45815 4.21963e-16)
(24.3865 1.40082 -5.58434e-16)
(24.3628 1.34244 6.87191e-16)
(24.3354 1.28331 -2.78467e-16)
(24.3039 1.22381 1.93262e-16)
(24.268 1.16445 -2.9851e-16)
(24.2273 1.10596 -2.70073e-17)
(24.1819 1.04929 2.63856e-16)
(24.1319 0.995678 -2.60298e-16)
(24.0777 0.946731 1.80338e-16)
(24.0204 0.904511 1.09131e-16)
(23.9615 0.871501 -9.61893e-17)
(23.9035 0.850438 1.0578e-16)
(23.8466 0.843153 -1.03875e-18)
(23.8001 0.851505 -4.12344e-17)
(23.7545 0.859329 -7.96325e-19)
(24.0487 3.9163 -6.16278e-16)
(24.0579 3.89293 7.33052e-16)
(24.066 3.86947 -1.35214e-16)
(24.0736 3.84607 3.41478e-16)
(24.0808 3.8227 -5.12654e-16)
(24.0874 3.79936 6.57704e-16)
(24.0936 3.77606 -1.77629e-16)
(24.0995 3.75279 1.32154e-16)
(24.105 3.72953 -9.56122e-17)
(24.1103 3.70628 -3.81546e-16)
(24.1155 3.6833 5.12054e-17)
(24.1206 3.66019 6.89541e-17)
(24.1256 3.63713 4.50307e-17)
(24.1304 3.61405 -1.01072e-16)
(24.1352 3.59092 5.94117e-17)
(24.1399 3.56771 -8.94821e-18)
(24.1445 3.5444 4.00649e-17)
(24.149 3.52095 2.80784e-17)
(24.1533 3.49733 -6.71989e-17)
(24.1575 3.47354 -1.86202e-16)
(24.1613 3.4496 2.26883e-16)
(24.1648 3.42558 2.32969e-16)
(24.1681 3.4014 -6.22308e-16)
(24.172 3.37714 8.82649e-16)
(24.1766 3.35305 -1.53609e-16)
(24.1809 3.32896 -5.14755e-16)
(24.1849 3.30476 -1.15251e-16)
(24.1887 3.28052 8.07424e-16)
(24.1922 3.2563 -1.10897e-15)
(24.1956 3.23207 9.70007e-16)
(24.1989 3.20782 -9.36268e-16)
(24.2023 3.18368 1.47744e-15)
(24.2057 3.15943 -1.23302e-15)
(24.2091 3.13513 4.78756e-16)
(24.2126 3.11076 -3.59673e-16)
(24.2162 3.08628 4.48224e-16)
(24.2199 3.0617 3.99373e-16)
(24.2236 3.03698 -1.28787e-15)
(24.2273 3.01212 5.84868e-16)
(24.2312 2.98711 -4.03774e-16)
(24.2351 2.96194 2.61319e-16)
(24.239 2.9366 -7.91949e-16)
(24.243 2.91108 1.18477e-15)
(24.247 2.88538 -8.59744e-16)
(24.2511 2.85949 4.75202e-17)
(24.2553 2.83339 2.72539e-16)
(24.2594 2.80707 1.15548e-15)
(24.2636 2.78054 -9.64327e-16)
(24.2678 2.75378 -1.7744e-16)
(24.2721 2.72678 7.25416e-16)
(24.2763 2.69952 -1.55167e-15)
(24.2806 2.67201 1.58795e-15)
(24.2848 2.64422 -1.63376e-16)
(24.289 2.61614 1.17711e-16)
(24.2932 2.58777 -1.69257e-16)
(24.2973 2.55908 -9.8997e-16)
(24.3014 2.53007 1.10095e-15)
(24.3053 2.5007 5.79688e-16)
(24.3093 2.47097 -1.75911e-15)
(24.313 2.44086 4.08779e-16)
(24.3167 2.41035 -9.1019e-16)
(24.3202 2.37942 6.89766e-16)
(24.3236 2.34811 -2.60334e-16)
(24.3268 2.31635 4.8079e-16)
(24.3298 2.28411 -7.22611e-16)
(24.3325 2.25137 2.9003e-16)
(24.3349 2.21812 1.06858e-15)
(24.337 2.18433 2.92668e-16)
(24.3388 2.14998 -9.18504e-16)
(24.3401 2.11507 7.51402e-16)
(24.341 2.07956 -7.14965e-16)
(24.3413 2.04346 2.08028e-16)
(24.3411 2.00673 8.71821e-16)
(24.3402 1.96937 -7.13844e-16)
(24.3385 1.93137 -4.4223e-16)
(24.336 1.89273 3.34751e-16)
(24.3325 1.85345 -4.55978e-16)
(24.3281 1.81353 4.88175e-17)
(24.3224 1.77299 4.14752e-16)
(24.3154 1.73186 -3.24182e-17)
(24.3071 1.69018 -1.33949e-16)
(24.2971 1.64802 1.30445e-16)
(24.2854 1.60545 -2.95121e-16)
(24.2718 1.56259 1.72059e-16)
(24.2561 1.51957 -4.42553e-16)
(24.2381 1.47657 3.99834e-16)
(24.2177 1.43382 -1.72101e-16)
(24.1947 1.39155 1.67883e-16)
(24.1689 1.35011 -1.45081e-16)
(24.1402 1.30984 -2.13969e-16)
(24.1084 1.27119 9.95967e-17)
(24.0736 1.23459 2.56185e-16)
(24.0357 1.20053 -5.08939e-17)
(23.9949 1.16945 -2.28207e-17)
(23.9514 1.14175 -1.10119e-16)
(23.9055 1.11764 4.14463e-17)
(23.858 1.09719 1.96079e-16)
(23.8069 1.07952 -1.38852e-16)
(23.7627 1.06653 2.66101e-17)
(23.7111 1.0394 -2.16466e-18)
(23.9637 3.8925 -1.28426e-15)
(23.9699 3.86949 1.01909e-15)
(23.9752 3.84645 -1.01718e-15)
(23.9804 3.82361 8.84444e-16)
(23.9851 3.8008 -3.58005e-16)
(23.9896 3.77803 3.83791e-16)
(23.9937 3.75523 -1.53462e-16)
(23.9976 3.73241 1.42412e-16)
(24.0012 3.70949 -5.35706e-16)
(24.0045 3.68647 1.29862e-16)
(24.0077 3.66358 1.14107e-16)
(24.0107 3.64045 -3.84074e-17)
(24.0135 3.61726 -2.07162e-17)
(24.0162 3.59393 -6.80109e-18)
(24.0187 3.57046 9.26728e-17)
(24.021 3.54686 -3.64019e-17)
(24.0232 3.52313 -7.45782e-17)
(24.0253 3.49929 1.2387e-16)
(24.0272 3.47535 -1.27941e-16)
(24.029 3.45135 1.80662e-16)
(24.0305 3.42732 -5.22063e-17)
(24.032 3.40339 -8.17576e-16)
(24.0339 3.37972 9.89957e-16)
(24.0375 3.35634 5.39862e-17)
(24.0428 3.33301 -8.12942e-16)
(24.0486 3.30942 6.08432e-16)
(24.0544 3.28559 -4.13004e-16)
(24.0601 3.26159 9.34331e-16)
(24.0656 3.23745 -7.24561e-16)
(24.071 3.2132 1.70352e-16)
(24.0764 3.18882 -6.30549e-16)
(24.0818 3.16453 4.03299e-19)
(24.0871 3.1401 -2.66658e-16)
(24.0924 3.11562 8.99907e-16)
(24.0977 3.09111 4.89901e-16)
(24.103 3.06653 -4.9542e-16)
(24.1083 3.0419 -1.46873e-17)
(24.1136 3.01719 -2.03602e-16)
(24.1188 2.99242 -2.95117e-16)
(24.1241 2.96756 8.88438e-16)
(24.1293 2.94262 -5.4359e-16)
(24.1345 2.91758 1.52905e-15)
(24.1396 2.89243 -2.95515e-15)
(24.1448 2.86716 -7.8559e-17)
(24.1498 2.84177 1.88282e-15)
(24.1549 2.81624 6.72753e-16)
(24.1598 2.79057 -2.79162e-16)
(24.1648 2.76474 -8.0182e-16)
(24.1696 2.73875 -5.76781e-16)
(24.1743 2.71257 1.04243e-15)
(24.179 2.68622 -6.34134e-16)
(24.1835 2.65965 -6.51227e-16)
(24.188 2.63288 1.81138e-15)
(24.1923 2.60589 1.72414e-16)
(24.1964 2.57866 -8.11667e-16)
(24.2005 2.55118 -2.4207e-16)
(24.2043 2.52344 9.05376e-16)
(24.208 2.49542 -1.18167e-15)
(24.2114 2.46712 -2.94625e-16)
(24.2147 2.43851 1.96282e-16)
(24.2177 2.40959 5.00114e-16)
(24.2204 2.38034 -2.70777e-16)
(24.2229 2.3508 1.56069e-16)
(24.2251 2.32091 -1.69237e-16)
(24.227 2.29065 6.45807e-16)
(24.2284 2.25999 -6.59252e-16)
(24.2295 2.22893 7.07358e-16)
(24.2301 2.19746 -7.23831e-16)
(24.2303 2.16555 3.48014e-16)
(24.2299 2.13321 4.66541e-16)
(24.2289 2.10042 2.41651e-18)
(24.2273 2.06718 -4.96909e-16)
(24.225 2.03349 1.21033e-16)
(24.2219 1.99934 2.76112e-16)
(24.218 1.96474 -8.11809e-16)
(24.2131 1.9297 9.09701e-16)
(24.2073 1.89423 -5.97487e-16)
(24.2004 1.85835 -2.57085e-16)
(24.1924 1.82209 1.08919e-15)
(24.1832 1.78549 -3.06556e-16)
(24.1726 1.74859 3.43274e-16)
(24.1606 1.71145 -9.91506e-16)
(24.147 1.67414 3.82105e-16)
(24.1319 1.63676 4.56652e-16)
(24.115 1.5994 -2.57895e-16)
(24.0964 1.56219 1.25289e-16)
(24.0759 1.52529 -9.19627e-17)
(24.0534 1.48882 -2.25577e-16)
(24.0291 1.45301 1.76581e-16)
(24.0028 1.41804 -3.96446e-16)
(23.9745 1.38415 4.1083e-16)
(23.9445 1.35154 1.28792e-16)
(23.9127 1.3205 -3.68943e-16)
(23.8795 1.29123 9.61225e-17)
(23.845 1.26399 -3.04958e-17)
(23.8096 1.23895 4.82008e-17)
(23.7741 1.21641 -1.74256e-16)
(23.7362 1.19601 4.56018e-17)
(23.7059 1.18038 7.41068e-17)
(23.669 1.15227 1.61604e-17)
(23.8931 3.85527 -1.09398e-16)
(23.9001 3.83488 1.26913e-15)
(23.9059 3.81431 -7.17066e-16)
(23.9112 3.79364 2.80649e-16)
(23.9159 3.77282 -5.21645e-16)
(23.9201 3.75184 6.89506e-16)
(23.9239 3.73072 2.68475e-17)
(23.9272 3.70945 -5.02135e-16)
(23.9301 3.68799 4.54727e-16)
(23.9326 3.66634 -3.32059e-16)
(23.9348 3.64473 -2.4028e-16)
(23.9368 3.62281 2.05784e-16)
(23.9384 3.60075 -5.27135e-19)
(23.9397 3.57845 -9.41404e-17)
(23.9408 3.55592 1.44015e-16)
(23.9417 3.53314 -8.94288e-18)
(23.9423 3.51011 -6.55604e-17)
(23.9427 3.48681 1.2085e-16)
(23.943 3.46324 -2.24319e-16)
(23.9432 3.43938 2.80348e-16)
(23.9433 3.41525 1.04536e-16)
(23.9436 3.39085 -1.06601e-16)
(23.9447 3.36636 5.3476e-16)
(23.9481 3.34202 -8.93631e-16)
(23.9536 3.31795 1.30927e-16)
(23.9599 3.29401 6.61478e-16)
(23.9664 3.27019 -1.324e-16)
(23.9728 3.24642 4.68628e-16)
(23.979 3.22267 -1.62112e-15)
(23.9851 3.1989 1.11399e-15)
(23.9911 3.17508 -6.07381e-18)
(23.997 3.1514 1.15992e-16)
(24.0028 3.12762 -6.16949e-16)
(24.0084 3.1038 -4.91129e-16)
(24.0139 3.07994 6.80524e-16)
(24.0193 3.05601 -7.27826e-19)
(24.0246 3.03202 -4.56539e-16)
(24.0298 3.00795 5.72428e-16)
(24.0348 2.98379 -8.39129e-17)
(24.0397 2.95954 3.79512e-16)
(24.0445 2.93519 -6.48203e-16)
(24.0492 2.91073 4.65213e-16)
(24.0538 2.88615 -1.21891e-15)
(24.0582 2.86143 5.94708e-16)
(24.0625 2.83659 1.52884e-16)
(24.0666 2.8116 5.85461e-17)
(24.0707 2.78645 -1.22451e-15)
(24.0745 2.76115 1.09148e-15)
(24.0783 2.73567 1.04233e-15)
(24.0819 2.71001 -3.30937e-17)
(24.0853 2.68416 -1.28664e-15)
(24.0885 2.65811 7.86124e-16)
(24.0916 2.63186 -5.9202e-16)
(24.0945 2.60539 5.87581e-17)
(24.0972 2.57869 -3.08964e-16)
(24.0997 2.55177 8.83635e-17)
(24.102 2.5246 1.77902e-15)
(24.1041 2.49717 -2.01843e-15)
(24.1059 2.46949 1.07568e-15)
(24.1074 2.44154 -1.16815e-15)
(24.1087 2.41331 1.70537e-16)
(24.1097 2.38481 4.50992e-16)
(24.1104 2.35608 8.03987e-16)
(24.1108 2.32707 -4.53911e-16)
(24.1109 2.29775 -1.09962e-15)
(24.1105 2.26813 7.69384e-16)
(24.1097 2.23819 3.19175e-16)
(24.1084 2.20793 7.84587e-16)
(24.1067 2.17735 7.96128e-17)
(24.1044 2.14645 -1.55537e-15)
(24.1016 2.11525 4.90486e-16)
(24.0982 2.08373 4.54489e-16)
(24.0942 2.05193 7.39504e-16)
(24.0895 2.01984 -1.60302e-16)
(24.0841 1.98749 -1.02828e-15)
(24.0779 1.95491 1.75293e-16)
(24.0709 1.92212 3.99247e-16)
(24.063 1.88915 -4.6716e-16)
(24.0543 1.85606 4.76265e-16)
(24.0446 1.82289 -4.18158e-16)
(24.0339 1.78969 -2.49206e-17)
(24.0222 1.75653 2.38101e-16)
(24.0095 1.7235 -1.12292e-16)
(23.9956 1.69065 -3.48803e-16)
(23.9805 1.65811 1.30637e-16)
(23.9643 1.62596 -5.9238e-16)
(23.947 1.59433 1.05647e-15)
(23.9284 1.56333 -7.23241e-16)
(23.9087 1.53311 3.48286e-16)
(23.8879 1.50379 -3.74957e-17)
(23.8659 1.47553 -8.90168e-17)
(23.8429 1.44845 -2.57701e-16)
(23.8189 1.42269 7.80629e-17)
(23.7941 1.39838 5.82395e-17)
(23.7685 1.37562 1.63842e-17)
(23.7422 1.35446 -2.14807e-17)
(23.7158 1.33505 -1.48086e-16)
(23.6869 1.31696 2.87394e-16)
(23.665 1.30253 -1.67921e-17)
(23.6357 1.27557 6.39931e-18)
(23.8119 3.81519 8.95766e-16)
(23.8187 3.79708 -9.36144e-16)
(23.8244 3.77858 2.41201e-16)
(23.8297 3.7599 7.92551e-16)
(23.8344 3.74097 -1.08113e-15)
(23.8386 3.72179 2.15134e-16)
(23.8424 3.70237 1.54333e-16)
(23.8456 3.68269 -6.34046e-16)
(23.8484 3.66272 4.56123e-16)
(23.8508 3.64247 -1.10601e-16)
(23.8528 3.62223 1.51487e-16)
(23.8545 3.6016 1.95068e-18)
(23.8559 3.58076 -1.0523e-16)
(23.8569 3.55963 -2.52888e-17)
(23.8577 3.5382 2.01918e-16)
(23.8582 3.51644 -4.10306e-17)
(23.8584 3.49436 -7.6411e-17)
(23.8584 3.47192 1.17518e-16)
(23.8582 3.44912 1.98449e-16)
(23.8579 3.42593 -4.80254e-16)
(23.8575 3.40238 1.59575e-16)
(23.8572 3.37846 -6.21755e-16)
(23.8578 3.35432 9.198e-16)
(23.8605 3.3302 3.45999e-16)
(23.8654 3.30636 -6.79206e-16)
(23.871 3.28271 2.88057e-16)
(23.8767 3.25917 -5.65374e-16)
(23.8822 3.23569 1.18178e-15)
(23.8877 3.21223 -9.27896e-16)
(23.8929 3.18877 6.00271e-16)
(23.898 3.16524 -6.33558e-16)
(23.9029 3.1419 -5.29345e-17)
(23.9078 3.11843 -1.84033e-16)
(23.9125 3.09491 7.7566e-16)
(23.9171 3.07134 -4.4018e-16)
(23.9215 3.0477 -5.71338e-16)
(23.9258 3.02397 1.42306e-15)
(23.9299 3.00014 -9.87441e-16)
(23.934 2.97622 6.43842e-17)
(23.9379 2.9522 -2.95236e-16)
(23.9417 2.92807 -1.82251e-16)
(23.9454 2.90382 -2.94402e-18)
(23.9489 2.87944 1.14189e-15)
(23.9523 2.85495 -2.19973e-15)
(23.9556 2.83031 4.52852e-16)
(23.9588 2.80554 1.76877e-15)
(23.9618 2.78062 -1.91786e-15)
(23.9647 2.75556 1.62844e-15)
(23.9674 2.73034 -2.48039e-16)
(23.97 2.70497 5.05765e-16)
(23.9725 2.67943 -9.69096e-16)
(23.9748 2.65372 -6.08763e-16)
(23.9769 2.62784 1.46407e-15)
(23.9788 2.60179 -4.14546e-16)
(23.9805 2.57556 -1.31837e-15)
(23.9821 2.54914 4.6606e-16)
(23.9834 2.52254 1.73744e-15)
(23.9846 2.49575 -1.22316e-15)
(23.9855 2.46877 6.82774e-16)
(23.9861 2.44161 -3.41305e-16)
(23.9865 2.41424 1.45396e-16)
(23.9866 2.38671 -1.29771e-15)
(23.9864 2.35905 2.42773e-17)
(23.986 2.33124 7.33072e-16)
(23.9852 2.30324 -9.56867e-16)
(23.984 2.27504 -2.22157e-16)
(23.9824 2.24666 1.73686e-15)
(23.9804 2.21809 -5.83733e-16)
(23.978 2.18934 -7.83892e-16)
(23.9751 2.16042 9.48733e-16)
(23.9718 2.13134 -4.00671e-16)
(23.9679 2.10212 1.72102e-16)
(23.9636 2.07276 2.16035e-18)
(23.9586 2.04329 4.53638e-16)
(23.9531 2.01373 -9.70839e-16)
(23.9469 1.98411 8.7381e-16)
(23.9402 1.95446 -6.62745e-16)
(23.9327 1.92481 2.13895e-16)
(23.9245 1.8952 -7.32601e-17)
(23.9156 1.86566 1.71285e-16)
(23.906 1.83626 1.28139e-16)
(23.8955 1.80702 9.31155e-17)
(23.8843 1.77803 -3.66418e-16)
(23.8722 1.74931 -2.94588e-16)
(23.8593 1.72095 4.71622e-16)
(23.8455 1.69298 -4.10053e-16)
(23.8309 1.66552 7.82271e-16)
(23.8155 1.63859 -5.93182e-16)
(23.7993 1.61231 3.42908e-16)
(23.7823 1.58669 -4.06328e-16)
(23.7645 1.56187 2.07042e-16)
(23.746 1.53785 9.28885e-17)
(23.7269 1.51475 -2.58938e-16)
(23.7073 1.49259 3.62176e-16)
(23.6872 1.47143 -1.84796e-16)
(23.6667 1.4513 2.94898e-16)
(23.6463 1.4323 -3.89655e-17)
(23.6237 1.41403 -7.15798e-17)
(23.6082 1.39878 -2.06743e-17)
(23.5871 1.37159 -3.86066e-17)
(23.7362 3.77283 -9.40399e-16)
(23.7414 3.75718 1.45733e-15)
(23.7457 3.74093 -5.1532e-16)
(23.7495 3.72437 2.06207e-16)
(23.7529 3.70742 -7.15713e-16)
(23.7558 3.69011 -3.59387e-17)
(23.7583 3.67244 5.99103e-16)
(23.7603 3.65441 -2.40599e-16)
(23.7619 3.63597 3.64681e-16)
(23.7631 3.61713 -4.35695e-16)
(23.7639 3.59825 3.41316e-17)
(23.7644 3.57886 -2.37686e-17)
(23.7646 3.55919 3.38957e-17)
(23.7645 3.53914 -9.38498e-17)
(23.7641 3.51874 7.63641e-17)
(23.7634 3.49795 -2.51264e-18)
(23.7625 3.47679 5.02574e-17)
(23.7613 3.45524 2.17936e-17)
(23.7599 3.4333 -2.81065e-17)
(23.7583 3.41096 -1.08143e-17)
(23.7567 3.38827 1.06398e-16)
(23.7554 3.36526 6.28292e-17)
(23.7549 3.34208 -1.97864e-16)
(23.7567 3.31896 -6.6776e-16)
(23.7608 3.29603 5.86253e-16)
(23.7657 3.27316 -1.50214e-16)
(23.7708 3.25028 -5.40916e-17)
(23.7759 3.22735 1.03234e-15)
(23.7807 3.20435 -1.53701e-15)
(23.7854 3.18129 1.13335e-15)
(23.79 3.15809 -7.85851e-16)
(23.7944 3.13508 -4.60318e-16)
(23.7988 3.1119 5.4087e-17)
(23.803 3.08864 9.19207e-16)
(23.8071 3.06533 -4.62818e-16)
(23.811 3.04194 7.78613e-16)
(23.8148 3.01846 -9.93971e-16)
(23.8184 2.99489 2.44993e-16)
(23.8219 2.97124 2.54724e-17)
(23.8253 2.94749 8.04844e-16)
(23.8286 2.92364 -1.2246e-15)
(23.8318 2.8997 -1.12251e-15)
(23.8348 2.87564 1.39184e-15)
(23.8376 2.85149 -1.2606e-15)
(23.8404 2.82721 6.48809e-16)
(23.843 2.80282 1.17375e-16)
(23.8454 2.77831 1.29875e-15)
(23.8477 2.75368 -1.89324e-15)
(23.8498 2.72891 1.5739e-15)
(23.8518 2.70402 2.36971e-16)
(23.8536 2.67898 -8.62537e-16)
(23.8553 2.65382 1.54718e-16)
(23.8567 2.62851 -6.20275e-16)
(23.858 2.60307 1.66612e-15)
(23.8591 2.57747 -6.18565e-16)
(23.86 2.55174 -1.07677e-15)
(23.8607 2.52586 2.01394e-15)
(23.8611 2.49983 -1.67083e-15)
(23.8613 2.47366 8.34936e-16)
(23.8613 2.44734 -8.55862e-16)
(23.861 2.42088 -1.00869e-15)
(23.8605 2.39431 2.47579e-15)
(23.8597 2.36768 -2.35825e-15)
(23.8587 2.34096 1.6468e-15)
(23.8573 2.31412 -1.60941e-15)
(23.8556 2.28716 3.62848e-16)
(23.8536 2.26009 1.27036e-15)
(23.8512 2.23291 4.50551e-16)
(23.8484 2.20565 -1.79759e-15)
(23.8452 2.1783 1.81552e-15)
(23.8417 2.15088 -2.53179e-16)
(23.8377 2.1234 -6.54719e-16)
(23.8333 2.09588 1.27818e-15)
(23.8284 2.06834 -1.35367e-15)
(23.8231 2.0408 -1.45203e-16)
(23.8173 2.01326 4.78812e-16)
(23.811 1.98578 4.40581e-17)
(23.8041 1.95836 -5.83998e-16)
(23.7968 1.93105 1.01013e-15)
(23.7889 1.90385 -6.2478e-16)
(23.7804 1.87683 -6.02239e-17)
(23.7714 1.85 -5.34755e-16)
(23.7619 1.82342 4.54108e-16)
(23.7518 1.79711 -6.05392e-16)
(23.7412 1.77114 9.14266e-16)
(23.73 1.74552 1.58839e-17)
(23.7183 1.72033 4.45126e-16)
(23.7061 1.69558 -1.20938e-15)
(23.6934 1.67136 5.69308e-16)
(23.6803 1.64767 -3.61397e-16)
(23.6668 1.62459 1.11828e-16)
(23.6529 1.60214 1.8622e-16)
(23.6386 1.58038 8.05432e-17)
(23.6241 1.55931 -1.09602e-16)
(23.6093 1.53898 1.18446e-16)
(23.5943 1.51939 1.1677e-16)
(23.5794 1.5006 -2.20595e-16)
(23.5625 1.48227 3.48071e-17)
(23.5524 1.46641 -5.8003e-17)
(23.534 1.43915 -1.21351e-17)
(23.6626 3.73639 -1.17737e-15)
(23.6663 3.72264 -3.7208e-16)
(23.6692 3.70818 1.11319e-15)
(23.6716 3.69337 -6.47606e-16)
(23.6736 3.67813 -1.27036e-16)
(23.675 3.66247 -2.41557e-16)
(23.676 3.64639 1.46958e-16)
(23.6765 3.62988 8.97333e-16)
(23.6766 3.61288 -4.74286e-16)
(23.6762 3.59542 3.7869e-16)
(23.6754 3.57788 -3.42909e-16)
(23.6742 3.55975 -2.74692e-17)
(23.6728 3.54128 -2.92669e-17)
(23.6709 3.52238 -3.58647e-17)
(23.6688 3.50304 -1.28234e-16)
(23.6663 3.48327 9.16413e-17)
(23.6636 3.46306 1.7976e-17)
(23.6606 3.4424 -2.70257e-17)
(23.6574 3.42131 4.25342e-16)
(23.6541 3.39978 -7.32284e-16)
(23.6509 3.37785 5.19204e-16)
(23.648 3.35558 -2.15239e-16)
(23.6463 3.33312 1.08501e-15)
(23.6471 3.31071 -5.16452e-16)
(23.6504 3.28849 2.09178e-16)
(23.6547 3.2663 -5.26227e-16)
(23.6594 3.24409 4.78502e-16)
(23.6641 3.22181 -1.02971e-15)
(23.6686 3.19944 1.27471e-15)
(23.673 3.17698 -1.10643e-15)
(23.6773 3.15436 -4.10882e-17)
(23.6815 3.13195 -9.15065e-16)
(23.6855 3.10934 7.43417e-16)
(23.6894 3.08665 -2.69305e-16)
(23.6932 3.0639 1.12914e-15)
(23.6967 3.04107 3.23456e-16)
(23.7 3.01815 -7.59008e-16)
(23.7032 2.99514 -3.62858e-16)
(23.7063 2.97204 2.35784e-16)
(23.7092 2.94885 -2.5004e-17)
(23.7119 2.92557 -5.86843e-16)
(23.7144 2.9022 6.49968e-16)
(23.7168 2.87872 -1.89278e-15)
(23.7191 2.85514 7.27171e-16)
(23.7212 2.83145 -2.15741e-16)
(23.7231 2.80766 1.47153e-15)
(23.7248 2.78375 -1.58413e-15)
(23.7264 2.75972 1.10716e-15)
(23.7278 2.73558 5.15584e-16)
(23.7291 2.71132 -1.13445e-15)
(23.7301 2.68694 1.84319e-16)
(23.731 2.66244 -1.88932e-17)
(23.7318 2.63782 1.6644e-15)
(23.7323 2.61309 -1.79146e-15)
(23.7326 2.58823 1.21749e-15)
(23.7328 2.56325 -7.2162e-16)
(23.7327 2.53816 1.8819e-15)
(23.7325 2.51295 -2.48903e-15)
(23.732 2.48762 1.90131e-15)
(23.7313 2.46219 -2.02345e-15)
(23.7304 2.43665 -3.21502e-16)
(23.7293 2.41104 8.98241e-16)
(23.728 2.38543 2.07459e-15)
(23.7265 2.35977 -9.06049e-16)
(23.7247 2.33404 -1.81373e-15)
(23.7227 2.30823 3.68495e-16)
(23.7203 2.28236 4.23469e-16)
(23.7177 2.25644 2.04739e-16)
(23.7149 2.23049 2.1065e-17)