/*--------------------------------*- C++ -*----------------------------------*\
  =========                 |
  \\      /  F ield         | OpenFOAM: The Open Source CFD Toolbox
   \\    /   O peration     | Website:  https://openfoam.org
    \\  /    A nd           | Version:  6.0
     \\/     M anipulation  |
\*---------------------------------------------------------------------------*/
FoamFile
{
    version     2.0;
    format      ascii;
    class       volScalarField;
    location    "8";
    object      p;
}
// * * * * * * * * * * * * * * * * * * * * * * * * * * * * * * * * * * * * * //

dimensions      [0 2 -2 0 0 0 0];

internalField   nonuniform List<scalar> 
15500
(
0.0125522
0.0126372
0.0127342
0.0128395
0.0129624
0.0130979
0.0132577
0.0134354
0.0136454
0.013881
0.0141589
0.0144719
0.0148387
0.0152576
0.0157466
0.0163067
0.0169466
0.0176541
0.0184184
0.019228
0.0200506
0.0208262
0.0215095
0.0220961
0.0226292
0.0230158
0.0227888
0.0212809
0.0183544
0.0149548
0.012531
0.0126373
0.0127503
0.0128675
0.012998
0.0131371
0.0132971
0.0134721
0.0136774
0.0139073
0.0141781
0.0144875
0.0148501
0.0152696
0.0157563
0.0163181
0.0169613
0.0176849
0.0184916
0.0193658
0.0202694
0.0211462
0.0219686
0.0227708
0.0236621
0.0246449
0.0253115
0.0248729
0.0233078
0.0189778
0.0124467
0.0125585
0.0126788
0.0128048
0.0129449
0.0130946
0.0132656
0.0134522
0.0136687
0.0139094
0.0141901
0.0145084
0.0148789
0.0153047
0.0157932
0.0163495
0.0169751
0.0176736
0.0184408
0.0192468
0.0200229
0.020679
0.021155
0.0214637
0.0217334
0.0220812
0.0223295
0.0219807
0.0214557
0.0170878
0.0123688
0.01247
0.0125856
0.0127121
0.0128571
0.013016
0.0131995
0.0134014
0.0136354
0.0138954
0.0141961
0.0145348
0.0149258
0.0153719
0.0158808
0.0164549
0.017096
0.0178063
0.0185827
0.0193843
0.02012
0.0206681
0.0209256
0.0208653
0.0205988
0.0203208
0.0200712
0.0196854
0.0199075
0.016767
0.0123138
0.0123984
0.0125025
0.0126227
0.0127669
0.0129312
0.0131254
0.0133436
0.0135982
0.0138826
0.0142105
0.0145789
0.0150022
0.0154837
0.0160339
0.0166571
0.0173577
0.0181457
0.0190207
0.0199467
0.0208285
0.021528
0.0219117
0.0219058
0.021577
0.0211262
0.0206888
0.020324
0.0209648
0.019092
0.0122869
0.0123599
0.0124554
0.0125711
0.0127149
0.0128833
0.0130864
0.0133187
0.0135925
0.0139014
0.0142585
0.0146614
0.0151244
0.015652
0.0162587
0.0169527
0.0177455
0.0186532
0.0196908
0.0208314
0.0219882
0.0230201
0.0237754
0.0241374
0.0241121
0.0238499
0.0234837
0.0231699
0.023942
0.0227369
0.0123259
0.0123932
0.0124834
0.0125952
0.0127371
0.0129072
0.0131158
0.0133587
0.0136483
0.013979
0.0143637
0.0148009
0.0153055
0.0158835
0.0165532
0.0173281
0.0182248
0.0192728
0.0204957
0.0218845
0.0233648
0.0248017
0.0260324
0.0269055
0.0273621
0.0274774
0.0273125
0.0270578
0.0278191
0.0267467
0.0124166
0.0124871
0.0125799
0.0126951
0.0128407
0.0130153
0.01323
0.0134814
0.0137832
0.0141311
0.014539
0.0150069
0.0155502
0.016177
0.0169095
0.0177649
0.0187677
0.0199535
0.0213618
0.0229956
0.0247943
0.0266324
0.0283419
0.0297466
0.0307286
0.0312842
0.0313793
0.0311954
0.0318823
0.0306516
0.0125594
0.0126395
0.0127403
0.0128619
0.0130131
0.0131936
0.013415
0.0136752
0.0139882
0.0143515
0.0147796
0.0152744
0.0158522
0.0165235
0.0173142
0.018246
0.0193474
0.0206642
0.0222425
0.0240997
0.0261883
0.0283908
0.0305398
0.0324384
0.0339216
0.034913
0.035275
0.0351787
0.0358155
0.0343394
0.0127236
0.0128186
0.0129333
0.0130686
0.0132321
0.0134238
0.0136555
0.0139255
0.0142495
0.0146259
0.0150712
0.015589
0.0161968
0.0169078
0.0177515
0.018753
0.0199461
0.0213797
0.0231125
0.0251686
0.0275116
0.0300308
0.0325613
0.0348928
0.0368249
0.0382187
0.0388468
0.0388624
0.0394753
0.037766
0.0129149
0.013026
0.0131546
0.0133019
0.0134761
0.0136784
0.0139202
0.0142014
0.0145372
0.0149276
0.0153897
0.0159289
0.0165642
0.0173112
0.0182033
0.0192691
0.0205447
0.0220875
0.0239577
0.0261914
0.0287584
0.0315554
0.0344176
0.0371267
0.0394533
0.0412101
0.0420872
0.0422348
0.0428821
0.0410014
0.0130908
0.0132184
0.0133627
0.0135263
0.013716
0.0139326
0.0141878
0.0144812
0.0148297
0.0152336
0.0157121
0.0162718
0.016933
0.0177137
0.0186513
0.019777
0.0211315
0.0227734
0.0247731
0.0271696
0.0299379
0.0329802
0.0361321
0.0391717
0.0418471
0.0439335
0.0450539
0.045355
0.0460615
0.0440695
0.0132458
0.0133888
0.0135475
0.0137237
0.0139257
0.0141552
0.0144234
0.0147312
0.0150946
0.0155153
0.0160124
0.0165941
0.0172817
0.0180958
0.0190776
0.020262
0.0216916
0.0234317
0.0255539
0.0281043
0.0310634
0.0343339
0.0377535
0.0410938
0.0440864
0.0464758
0.0478251
0.0482909
0.049099
0.0470545
0.0133472
0.013506
0.0136802
0.0138732
0.0140916
0.0143368
0.0146204
0.0149426
0.0153211
0.0157578
0.0162733
0.0168773
0.0175918
0.0184398
0.0194665
0.0207099
0.0222161
0.0240518
0.0262978
0.0290012
0.0321458
0.0356346
0.0393068
0.0429288
0.0462196
0.048897
0.050476
0.0511184
0.0520311
0.0499707
0.013408
0.0135797
0.0137658
0.0139692
0.0141982
0.0144552
0.0147514
0.0150887
0.0154833
0.0159385
0.0164747
0.017103
0.0178464
0.0187302
0.0198036
0.0211083
0.022692
0.0246292
0.0269997
0.0298602
0.0331941
0.0369062
0.0408313
0.0447319
0.0483124
0.0512679
0.053068
0.0538877
0.0549287
0.0528847
0.0133875
0.0135713
0.0137692
0.0139866
0.0142299
0.0145009
0.0148118
0.0151631
0.0155735
0.0160461
0.0166033
0.0172568
0.0180309
0.018953
0.020076
0.0214449
0.023112
0.0251527
0.0276574
0.0306829
0.0342135
0.0381537
0.042335
0.0465164
0.0503874
0.0536216
0.0556483
0.0566502
0.057806
0.055792
0.0132852
0.0134785
0.013686
0.0139116
0.0141639
0.014446
0.0147697
0.0151372
0.0155659
0.0160598
0.0166413
0.0173235
0.0181316
0.0190952
0.0202714
0.0217095
0.0234643
0.0256183
0.0282639
0.0314644
0.035207
0.039391
0.0438453
0.0483189
0.0524872
0.0560012
0.0582491
0.0594276
0.060712
0.0587428
0.0130746
0.0132789
0.0134971
0.0137358
0.0140016
0.0142972
0.0146352
0.015017
0.0154626
0.0159758
0.0165812
0.0172928
0.018137
0.0191453
0.0203791
0.0218915
0.0237415
0.026015
0.0288144
0.032204
0.0361719
0.0406136
0.0453546
0.0501343
0.0546129
0.0584157
0.0608938
0.0622497
0.0636423
0.0617206
0.012771
0.0129823
0.0132073
0.0134515
0.0137239
0.0140288
0.0143783
0.0147756
0.0152396
0.0157755
0.0164076
0.0171518
0.0180354
0.0190926
0.0203887
0.0219814
0.0239328
0.0263378
0.0292999
0.0328945
0.0371069
0.041831
0.0468818
0.0519887
0.0567915
0.06089
0.0635951
0.0651195
0.0666311
0.0647648
0.0123311
0.0125505
0.0127836
0.0130387
0.0133231
0.01364
0.0140033
0.0144145
0.0148962
0.015453
0.0161121
0.0168902
0.0178162
0.0189262
0.0202898
0.0219687
0.024031
0.0265747
0.0297163
0.0335317
0.0380063
0.0430304
0.0484105
0.0538653
0.0590119
0.0634203
0.0663622
0.0680554
0.0696628
0.0678507
0.0117551
0.0119792
0.0122182
0.012478
0.0127691
0.0130959
0.0134722
0.0139012
0.0144045
0.0149878
0.0156785
0.016495
0.0174677
0.0186353
0.0200719
0.0218443
0.0240251
0.0267207
0.0300532
0.0341063
0.038868
0.0442191
0.0499582
0.0557853
0.0612937
0.0660213
0.0691978
0.0710496
0.0727641
0.071013
0.0110186
0.0112513
0.0114988
0.0117703
0.0120742
0.0124139
0.0128052
0.0132499
0.0137732
0.0143806
0.0151026
0.0159585
0.0169807
0.0182103
0.0197258
0.0215987
0.0239071
0.0267645
0.0303047
0.0346146
0.0396821
0.0453811
0.051502
0.0577259
0.0636201
0.0686839
0.0721053
0.074115
0.0759138
0.0742229
0.0101415
0.0103782
0.0106306
0.0109059
0.0112157
0.0115649
0.0119691
0.0124321
0.0129781
0.013614
0.0143707
0.0152697
0.0163455
0.0176421
0.0192421
0.0212224
0.023667
0.0266999
0.0304597
0.035047
0.0404456
0.0465252
0.0530589
0.0597082
0.0660072
0.0714171
0.0750818
0.0772391
0.0791355
0.0775146
0.00909041
0.00933285
0.00959117
0.00987623
0.0101976
0.010559
0.0109782
0.0114571
0.0120245
0.0126866
0.013478
0.0144213
0.0155536
0.0169212
0.0186112
0.0207059
0.0232968
0.0265148
0.0305138
0.0353973
0.0411486
0.0476309
0.054603
0.0617057
0.0684366
0.074211
0.0781279
0.0804325
0.0824046
0.0808572
0.00786632
0.00811137
0.00837437
0.00866291
0.00899066
0.00936225
0.00979581
0.0102947
0.0108872
0.011581
0.0124112
0.0134028
0.0145953
0.0160384
0.0178239
0.0200402
0.0227863
0.0262028
0.0304549
0.0356549
0.0417895
0.0487076
0.0561545
0.0637398
0.0709224
0.0770708
0.0812382
0.0836793
0.0857441
0.0842841
0.00646812
0.00671783
0.00698549
0.00728263
0.00762067
0.00800351
0.00845127
0.00896607
0.00958042
0.0103019
0.011169
0.0122087
0.0134633
0.0149854
0.0168712
0.0192161
0.0221255
0.0257535
0.0302763
0.0358147
0.0423542
0.0497335
0.0576833
0.0657822
0.0734461
0.0799875
0.0844126
0.0869888
0.0891271
0.0877619
0.00490327
0.00515424
0.00542432
0.00572248
0.00606395
0.00645414
0.00691325
0.00744544
0.00808281
0.00883462
0.00974047
0.0108302
0.0121492
0.0137534
0.0157444
0.0182232
0.021307
0.0251576
0.029966
0.035867
0.0428415
0.0507212
0.0592111
0.067856
0.0760204
0.0829628
0.0876434
0.0903439
0.0925762
0.0913239
0.00316608
0.00341586
0.00368461
0.00398593
0.00433292
0.00472999
0.00519968
0.00574459
0.0064014
0.00717946
0.00812195
0.00926095
0.0106451
0.0123346
0.014434
0.0170551
0.0203194
0.0244059
0.0295168
0.0358017
0.0432374
0.0516446
0.0607063
0.0699309
0.0786279
0.0859897
0.0909298
0.0937529
0.0960619
0.0949346
0.00122387
0.00147323
0.00174328
0.002044
0.00239292
0.00279548
0.00327475
0.00383526
0.00451366
0.00532088
0.0063019
0.00749168
0.0089438
0.0107201
0.0129344
0.0157001
0.0191588
0.0234779
0.0289145
0.035609
0.0435431
0.0525179
0.062194
0.0720313
0.0812788
0.0890662
0.0942625
0.0971971
0.0996076
0.0986281
-0.000882321
-0.000637433
-0.000372551
-7.26016e-05
0.000277386
0.00068282
0.00116829
0.00173792
0.00243222
0.00326329
0.00427897
0.00551834
0.00703696
0.00890449
0.0112322
0.0141566
0.0177883
0.0223765
0.0281471
0.0352808
0.0437408
0.0533144
0.0636392
0.0741259
0.0839575
0.0921882
0.0976405
0.100683
0.103182
0.102368
-0.00319547
-0.0029523
-0.002689
-0.00239309
-0.00204587
-0.00164003
-0.00115083
-0.000571394
0.000138647
0.000993634
0.00204391
0.00333094
0.00491836
0.00687229
0.00932301
0.0123784
0.0162254
0.0210698
0.0272118
0.0348148
0.0438352
0.0540529
0.0650694
0.07624
0.0866716
0.0953479
0.101052
0.104192
0.106808
0.106189
-0.00564874
-0.00541851
-0.00516953
-0.004883
-0.00454339
-0.00414283
-0.00365571
-0.00307483
-0.00235692
-0.00148442
-0.000406938
0.000923929
0.00257139
0.0046119
0.00716373
0.0103811
0.0144254
0.0195758
0.0261108
0.0342042
0.0438112
0.0547031
0.0664483
0.0783414
0.0894079
0.0985446
0.104495
0.107729
0.110453
0.110055
-0.00829995
-0.008079
-0.0078411
-0.00756908
-0.00724425
-0.00685546
-0.00637741
-0.00579884
-0.00507739
-0.00419199
-0.00309125
-0.00172286
-1.95689e-05
0.00209701
0.00476133
0.00812886
0.012414
0.0178806
0.024835
0.0334441
0.0436761
0.0552863
0.0678067
0.0804556
0.0921688
0.101765
0.107956
0.111274
0.114141
0.114001
-0.0110674
-0.0108735
-0.0106694
-0.0104267
-0.0101299
-0.00976465
-0.00930585
-0.00874037
-0.00802447
-0.00713392
-0.00601692
-0.0046161
-0.00286242
-0.000671035
0.00209966
0.00564115
0.0101692
0.015985
0.0233759
0.0325261
0.0434092
0.0557713
0.0691052
0.0825502
0.0949442
0.105011
0.111431
0.114828
0.117837
0.117992
-0.0141816
-0.0139972
-0.0137989
-0.0135698
-0.0132847
-0.0129338
-0.0124868
-0.0119313
-0.01122
-0.010327
-0.00919653
-0.0077675
-0.00596488
-0.00370076
-0.000814605
0.00289856
0.00769643
0.0138663
0.0217155
0.0314398
0.0430163
0.0561822
0.0703761
0.0846495
0.0977316
0.108261
0.114903
0.118373
0.121565
0.122063
-0.017478
-0.0173164
-0.0171456
-0.0169383
-0.0166763
-0.0163462
-0.0159194
-0.0153807
-0.0146806
-0.0137895
-0.0126493
-0.0111933
-0.00934268
-0.00700155
-0.0040009
-9.82598e-05
0.00496722
0.0115127
0.0198455
0.0301718
0.0424764
0.0564826
0.0715788
0.086721
0.100525
0.111522
0.118368
0.121908
0.125288
0.126177
-0.0210668
-0.0209325
-0.0207903
-0.0206155
-0.020382
-0.020077
-0.0196699
-0.0191449
-0.0184518
-0.017559
-0.0164057
-0.01492
-0.0130168
-0.0105956
-0.00746827
-0.00337871
0.00197467
0.00890486
0.0177437
0.02871
0.041796
0.056698
0.0727465
0.0887876
0.103313
0.114765
0.121807
0.125412
0.129035
0.130374
-0.0251261
-0.0249963
-0.0248561
-0.024686
-0.024455
-0.0241594
-0.023759
-0.0232439
-0.0225535
-0.0216573
-0.0204879
-0.0189688
-0.0170088
-0.0144991
-0.0112446
-0.00694895
-0.00130873
0.00602857
0.0154025
0.0270455
0.0409507
0.0567917
0.0738368
0.0908178
0.106093
0.117999
0.125212
0.128882
0.132764
0.134616
-0.0295725
-0.0294588
-0.0293308
-0.0291697
-0.0289447
-0.0286495
-0.0282471
-0.0277255
-0.0270251
-0.0261133
-0.0249186
-0.0233593
-0.021335
-0.0187328
-0.015336
-0.0108385
-0.00488814
0.00287065
0.0128036
0.0251684
0.0399499
0.0567927
0.0748843
0.09283
0.108847
0.121184
0.12856
0.1323
0.136507
0.138943
-0.0343166
-0.0342132
-0.0340952
-0.033944
-0.0337267
-0.0334417
-0.0330461
-0.0325309
-0.0318293
-0.0309081
-0.0296916
-0.028092
-0.0260026
-0.0233011
-0.0197653
-0.0150443
-0.00878254
-0.000581712
0.00994855
0.0230722
0.0387736
0.0566624
0.0758467
0.0947944
0.111577
0.124335
0.131842
0.135658
0.140221
0.143317
-0.0393022
-0.0392284
-0.03914
-0.0390159
-0.038823
-0.0385554
-0.0381739
-0.0376657
-0.036966
-0.036038
-0.0348028
-0.0331662
-0.031012
-0.0282134
-0.0245255
-0.0195885
-0.0129924
-0.00432867
0.00682223
0.0207516
0.0374363
0.0564341
0.0767589
0.0967263
0.114252
0.127401
0.135033
0.138937
0.14394
0.147782
-0.0445698
-0.0445168
-0.0444505
-0.0443516
-0.0441817
-0.0439423
-0.0435844
-0.0431
-0.0424143
-0.0414909
-0.0402452
-0.0385768
-0.0363623
-0.0334639
-0.0296326
-0.0244572
-0.0175263
-0.00837999
0.00343242
0.0182094
0.0359194
0.0560715
0.0775795
0.0985993
0.116882
0.1304
0.138121
0.14213
0.147623
0.152302
-0.0501227
-0.0501085
-0.0500802
-0.0500167
-0.0498795
-0.0496658
-0.0493309
-0.0488633
-0.0481895
-0.0472701
-0.0460158
-0.0443199
-0.0420469
-0.0390546
-0.0350673
-0.029667
-0.0223773
-0.0127244
-0.000229207
0.0154456
0.0342437
0.0556135
0.0783453
0.10042
0.119422
0.133269
0.141076
0.145218
0.151303
0.15692
-0.0559294
-0.0559422
-0.0559436
-0.0559129
-0.0558081
-0.0556321
-0.0553321
-0.0548993
-0.0542519
-0.053349
-0.0520963
-0.0503798
-0.0480556
-0.0449693
-0.0408405
-0.0351916
-0.0275442
-0.0173698
-0.00414375
0.0124679
0.0323969
0.0550243
0.0790171
0.102166
0.121889
0.136029
0.143884
0.148191
0.154942
0.161601
-0.0619578
-0.0620178
-0.062067
-0.0620822
-0.0620216
-0.0618838
-0.0616208
-0.06122
-0.060601
-0.0597188
-0.0584744
-0.0567452
-0.0543754
-0.0512045
-0.0469223
-0.0410435
-0.0330153
-0.0222905
-0.00831626
0.0092821
0.0304062
0.0543488
0.07963
0.103839
0.124222
0.138607
0.146516
0.151035
0.158576
0.16639
-0.0682289
-0.0683208
-0.0684051
-0.0684611
-0.0684412
-0.0683531
-0.0681373
-0.0677863
-0.067209
-0.0663602
-0.0651344
-0.063401
-0.0609941
-0.0577396
-0.0533222
-0.0471872
-0.038781
-0.0274937
-0.0127207
0.0059055
0.028262
0.0535535
0.0801477
0.105421
0.126447
0.141026
0.148951
0.153736
0.162167
0.171254
-0.0747346
-0.0748803
-0.0750177
-0.0751238
-0.0751522
-0.0751065
-0.0749332
-0.0746218
-0.0740827
-0.0732673
-0.0720639
-0.0703332
-0.0678946
-0.0645671
-0.0600011
-0.0536332
-0.0448241
-0.0329423
-0.0173567
0.00234819
0.0259978
0.0526882
0.0806055
0.106901
0.128485
0.143201
0.151162
0.156286
0.165756
0.17624
-0.0814132
-0.0815969
-0.0817771
-0.0819313
-0.0820096
-0.0820221
-0.0819068
-0.0816557
-0.0811713
-0.0804033
-0.0792346
-0.0775166
-0.0750567
-0.0716585
-0.0669653
-0.0603351
-0.0511281
-0.0386437
-0.0221879
-0.00136675
0.0236098
0.0517203
0.0809698
0.108268
0.130372
0.145158
0.153126
0.158671
0.169309
0.181315
-0.0882301
-0.0884752
-0.0887176
-0.0889325
-0.0890711
-0.0891396
-0.0890823
-0.0888882
-0.0884614
-0.0877472
-0.0866225
-0.0849284
-0.0824561
-0.079
-0.0741658
-0.0673014
-0.0576704
-0.0445462
-0.0272112
-0.00522405
0.0211365
0.0507048
0.0812701
0.109498
0.132009
0.146804
0.154815
0.160887
0.17287
0.186527
-0.0951998
-0.095486
-0.0957746
-0.0960444
-0.09624
-0.0963781
-0.0963911
-0.096273
-0.0959181
-0.095271
-0.0942023
-0.0925429
-0.0900692
-0.0865573
-0.0816058
-0.0744754
-0.0644267
-0.0506576
-0.0323822
-0.00919143
0.0185775
0.0496097
0.0814763
0.110591
0.133439
0.148163
0.156208
0.162923
0.176408
0.191846
-0.102303
-0.102655
-0.103008
-0.103341
-0.103599
-0.103796
-0.103872
-0.103819
-0.103533
-0.102956
-0.101949
-0.100334
-0.0978691
-0.0943147
-0.0892295
-0.0818631
-0.0713692
-0.0569145
-0.0376926
-0.0132506
0.0159763
0.0484923
0.0816144
0.111499
0.134547
0.149138
0.15728
0.164782
0.179971
0.19732
-0.109464
-0.109861
-0.110267
-0.11066
-0.110982
-0.111257
-0.111413
-0.111447
-0.111247
-0.110754
-0.109823
-0.108266
-0.105823
-0.102232
-0.0970378
-0.0893987
-0.0784666
-0.0633229
-0.0430882
-0.0173622
0.0133374
0.0473206
0.0816563
0.112233
0.135383
0.149754
0.158008
0.166455
0.183536
0.202919
-0.11663
-0.117098
-0.117576
-0.118041
-0.118438
-0.118784
-0.119021
-0.119139
-0.11903
-0.118629
-0.117788
-0.116302
-0.113893
-0.110281
-0.104961
-0.0970834
-0.0856846
-0.0698063
-0.0485573
-0.0215034
0.0107066
0.0461549
0.0816154
0.112727
0.135812
0.149908
0.158376
0.167957
0.187152
0.208692
-0.123785
-0.124303
-0.124839
-0.125373
-0.125844
-0.126281
-0.126613
-0.126836
-0.126835
-0.126542
-0.125804
-0.124404
-0.122043
-0.11841
-0.112992
-0.10484
-0.0929817
-0.0763692
-0.0540382
-0.0256271
0.00809153
0.044961
0.0814675
0.112999
0.135892
0.149627
0.158365
0.16928
0.190802
0.21461
-0.130914
-0.131507
-0.132119
-0.132728
-0.133277
-0.133792
-0.134212
-0.134533
-0.134639
-0.134461
-0.133835
-0.132533
-0.130225
-0.126587
-0.121044
-0.112664
-0.100321
-0.0829274
-0.0595134
-0.0297098
0.00553984
0.043796
0.0812154
0.112958
0.135471
0.148809
0.157966
0.170452
0.19454
0.220718
-0.137936
-0.138582
-0.139258
-0.139942
-0.140573
-0.141188
-0.141715
-0.142154
-0.142384
-0.142334
-0.141835
-0.140637
-0.138399
-0.134736
-0.129136
-0.12048
-0.107659
-0.0894787
-0.0649131
-0.0336969
0.00306235
0.042624
0.0808366
0.112632
0.134615
0.147484
0.157167
0.171473
0.198355
0.226992
-0.144809
-0.145537
-0.146297
-0.147066
-0.147787
-0.148494
-0.149125
-0.149678
-0.150036
-0.150123
-0.149756
-0.148684
-0.146505
-0.142901
-0.137183
-0.128289
-0.114948
-0.0959218
-0.0702146
-0.0375619
0.000703279
0.0414993
0.0803121
0.111905
0.133156
0.145554
0.155971
0.17238
0.202304
0.23347
-0.151591
-0.152372
-0.153188
-0.154031
-0.15483
-0.155637
-0.156378
-0.157055
-0.15755
-0.157783
-0.157574
-0.15664
-0.154598
-0.150992
-0.145207
-0.136013
-0.122118
-0.10225
-0.0753371
-0.0412438
-0.00152441
0.0403804
0.0796228
0.110816
0.131168
0.143051
0.154376
0.173182
0.206382
0.240129
-0.158302
-0.159145
-0.160021
-0.16092
-0.161782
-0.162657
-0.163487
-0.164272
-0.164901
-0.165292
-0.165255
-0.164501
-0.162565
-0.159024
-0.15311
-0.143591
-0.129116
-0.108355
-0.0802595
-0.0447213
-0.00358108
0.0393093
0.0787301
0.109219
0.128474
0.139891
0.152401
0.173932
0.210646
0.247002
-0.164615
-0.165501
-0.166436
-0.167404
-0.168351
-0.169328
-0.170278
-0.1712
-0.171989
-0.172559
-0.172722
-0.172161
-0.170394
-0.166867
-0.160835
-0.150964
-0.135893
-0.114244
-0.0848991
-0.0479298
-0.00545542
0.0382394
0.0776155
0.107164
0.125155
0.136113
0.150057
0.174643
0.215098
0.254066
-0.170328
-0.171311
-0.172349
-0.173427
-0.17449
-0.175592
-0.176685
-0.177769
-0.178742
-0.179519
-0.179906
-0.179571
-0.177952
-0.174496
-0.168317
-0.158092
-0.142402
-0.119804
-0.0892455
-0.0508547
-0.00712261
0.0371996
0.07621
0.104482
0.121032
0.13165
0.14738
0.175383
0.219796
0.261348
-0.175748
-0.176784
-0.177894
-0.179059
-0.180229
-0.18146
-0.182705
-0.183961
-0.185133
-0.18613
-0.186757
-0.186654
-0.185236
-0.181813
-0.175518
-0.164929
-0.148601
-0.125063
-0.0932135
-0.0534352
-0.00857511
0.0361331
0.0744982
0.101232
0.116195
0.126549
0.144398
0.176174
0.224746
0.268825
-0.180676
-0.18181
-0.183021
-0.184295
-0.18558
-0.186941
-0.188337
-0.18977
-0.191145
-0.192372
-0.193248
-0.193397
-0.192151
-0.18882
-0.182391
-0.171436
-0.154445
-0.129898
-0.0968029
-0.0556726
-0.00980407
0.0350439
0.0723838
0.0972236
0.110474
0.12077
0.141168
0.177097
0.230002
0.276517
-0.185393
-0.186563
-0.187827
-0.18917
-0.190547
-0.192025
-0.193568
-0.195175
-0.196756
-0.198218
-0.199349
-0.199748
-0.198719
-0.195437
-0.188904
-0.17757
-0.159895
-0.134344
-0.0999284
-0.0575071
-0.0108107
0.0338667
0.0698533
0.0925297
0.103965
0.114374
0.137735
0.178179
0.235572
0.2844
-0.189546
-0.190799
-0.19215
-0.193586
-0.195067
-0.196667
-0.198358
-0.200145
-0.201938
-0.203643
-0.205038
-0.205702
-0.204859
-0.20168
-0.195016
-0.183293
-0.164899
-0.138269
-0.102601
-0.0589526
-0.011612
0.032581
0.0667759
0.0869461
0.0965193
0.107348
0.134177
0.179511
0.24151
0.292487
-0.193336
-0.194629
-0.196035
-0.197543
-0.199116
-0.200837
-0.20268
-0.204649
-0.206661
-0.208616
-0.210283
-0.211215
-0.210598
-0.207474
-0.200697
-0.188564
-0.169419
-0.141724
-0.104733
-0.0599591
-0.0122184
0.0311098
0.063145
0.0805587
0.0882469
0.0997726
0.13056
0.181129
0.24782
0.300751
-0.196521
-0.197892
-0.19938
-0.200979
-0.202654
-0.204499
-0.206496
-0.208656
-0.210895
-0.213112
-0.215064
-0.216279
-0.215859
-0.212835
-0.205913
-0.193344
-0.173406
-0.144569
-0.106348
-0.0605609
-0.0126714
0.0293978
0.0588028
0.0731633
0.0790265
0.0916706
0.126978
0.183126
0.254549
0.3092
-0.199348
-0.20074
-0.202267
-0.203921
-0.205678
-0.207637
-0.209787
-0.212138
-0.214613
-0.217103
-0.219353
-0.220852
-0.220662
-0.21769
-0.210634
-0.197598
-0.176831
-0.146869
-0.107361
-0.0607157
-0.0129971
0.0273608
0.0537517
0.0648651
0.0689831
0.0831419
0.123519
0.18554
0.2617
0.317805
-0.201476
-0.20293
-0.204524
-0.206257
-0.20811
-0.210194
-0.212506
-0.215062
-0.217787
-0.220566
-0.223121
-0.224921
-0.224921
-0.222062
-0.214834
-0.201294
-0.179644
-0.148476
-0.107815
-0.0604761
-0.0132711
0.024913
0.0478096
0.0554721
0.0580386
0.0742478
0.120294
0.188468
0.26931
0.326566
-0.203119
-0.204594
-0.206225
-0.208014
-0.209953
-0.21216
-0.214639
-0.217407
-0.220395
-0.22347
-0.226351
-0.228422
-0.228706
-0.225893
-0.218497
-0.204404
-0.181821
-0.149479
-0.107627
-0.0598215
-0.0135354
0.0219637
0.0409969
0.0451099
0.0463387
0.065109
0.117404
0.191946
0.277375
0.335454
-0.204037
-0.205565
-0.207259
-0.209125
-0.211162
-0.213503
-0.216158
-0.219154
-0.222415
-0.225818
-0.22901
-0.23147
-0.231952
-0.22923
-0.221599
-0.206887
-0.183315
-0.149727
-0.106865
-0.0588312
-0.0138975
0.0183914
0.0331205
0.0336181
0.0338535
0.0558258
0.114972
0.196065
0.28592
0.344463
-0.204498
-0.20603
-0.207744
-0.209652
-0.211769
-0.214228
-0.217064
-0.220295
-0.223865
-0.227616
-0.231231
-0.233995
-0.234743
-0.232033
-0.224104
-0.208721
-0.184117
-0.149328
-0.105452
-0.0575051
-0.0144203
0.0141086
0.024225
0.0211522
0.0207491
0.0465398
0.113112
0.200856
0.294932
0.35356
-0.204204
-0.205772
-0.207534
-0.209507
-0.211721
-0.214321
-0.217357
-0.220855
-0.224768
-0.228928
-0.232925
-0.236081
-0.237011
-0.234266
-0.225993
-0.209878
-0.184182
-0.148131
-0.103489
-0.0559483
-0.0152499
0.00896999
0.0141191
0.00759508
0.00705262
0.037387
0.111951
0.206398
0.304422
0.362738
-0.203383
-0.204951
-0.206734
-0.208755
-0.211058
-0.213799
-0.217046
-0.220828
-0.225109
-0.229694
-0.234151
-0.237627
-0.238743
-0.23593
-0.22727
-0.210366
-0.183523
-0.14628
-0.100911
-0.0541957
-0.0164663
0.00289991
0.00288466
-0.00686832
-0.00704527
0.0285264
0.111604
0.212712
0.314365
0.371961
-0.201855
-0.203449
-0.205278
-0.207364
-0.209773
-0.212672
-0.216146
-0.220232
-0.224902
-0.229943
-0.234826
-0.238684
-0.239949
-0.23704
-0.22794
-0.210167
-0.182108
-0.143629
-0.0978543
-0.0523861
-0.0182453
-0.00426427
-0.00965008
-0.0222912
-0.0214621
0.0201233
0.112194
0.219859
0.324758
0.381218
-0.199928
-0.201507
-0.203341
-0.205467
-0.207962
-0.211009
-0.214708
-0.219102
-0.22417
-0.229672
-0.235038
-0.239228
-0.240664
-0.237631
-0.228033
-0.209317
-0.179981
-0.140357
-0.0942754
-0.0505838
-0.0206801
-0.0125685
-0.023357
-0.0384506
-0.0359867
0.0123487
0.113833
0.227847
0.335564
0.390474
-0.19758
-0.199143
-0.200971
-0.203115
-0.205678
-0.208861
-0.212781
-0.217487
-0.222963
-0.228944
-0.234766
-0.239349
-0.240931
-0.237732
-0.22756
-0.207803
-0.177113
-0.136327
-0.0903521
-0.0489561
-0.0239727
-0.0221687
-0.03837
-0.0553304
-0.0504811
0.00538809
0.116627
0.236713
0.346762
0.399712
-0.194841
-0.196358
-0.198157
-0.200307
-0.202929
-0.206246
-0.21039
-0.215418
-0.221316
-0.22779
-0.234118
-0.239051
-0.240798
-0.237396
-0.226574
-0.205683
-0.173581
-0.13176
-0.086063
-0.0476015
-0.0282118
-0.0330641
-0.0545031
-0.0726727
-0.0647147
-0.000584718
0.120673
0.246449
0.358302
0.408898
-0.191626
-0.193103
-0.194874
-0.197027
-0.19971
-0.203169
-0.207555
-0.212927
-0.219276
-0.226275
-0.233099
-0.238437
-0.240333
-0.236684
-0.225104
-0.202951
-0.169363
-0.126536
-0.0816284
-0.0467142
-0.0336034
-0.0453834
-0.0718355
-0.090381
-0.0785038
-0.00537749
0.12605
0.257064
0.370149
0.418015
-0.188031
-0.189441
-0.191165
-0.193313
-0.196058
-0.199668
-0.204313
-0.210057
-0.216889
-0.224444
-0.231822
-0.237537
-0.239601
-0.235656
-0.223211
-0.199694
-0.164578
-0.120917
-0.0770542
-0.0464053
-0.0402125
-0.0590537
-0.0901187
-0.108159
-0.0916076
-0.00882441
0.132834
0.268532
0.382242
0.427027
-0.184041
-0.185385
-0.187062
-0.189203
-0.192013
-0.195789
-0.200717
-0.206867
-0.214221
-0.222377
-0.230307
-0.23647
-0.238684
-0.234373
-0.220928
-0.195916
-0.159212
-0.114803
-0.0726015
-0.0468779
-0.0482261
-0.0741441
-0.109364
-0.125836
-0.103807
-0.0107395
0.141064
0.280833
0.394531
0.435917
-0.1798
-0.181054
-0.182665
-0.184788
-0.187664
-0.191614
-0.196849
-0.203433
-0.211355
-0.220123
-0.228721
-0.235299
-0.237668
-0.232908
-0.21834
-0.191741
-0.153439
-0.108506
-0.0682987
-0.0482392
-0.0576543
-0.0904875
-0.129256
-0.143087
-0.114858
-0.0109781
0.150783
0.293925
0.406947
0.444648
-0.175363
-0.176524
-0.178064
-0.180165
-0.183107
-0.187246
-0.192808
-0.199875
-0.208384
-0.217903
-0.227125
-0.234187
-0.236653
-0.231332
-0.215501
-0.187201
-0.147266
-0.101963
-0.0644443
-0.0506793
-0.0686253
-0.108069
-0.149734
-0.159668
-0.124522
-0.00937883
0.161985
0.307758
0.419428
0.453202
-0.170933
-0.171976
-0.173425
-0.175486
-0.178492
-0.182828
-0.188758
-0.196347
-0.205565
-0.215799
-0.225736
-0.233251
-0.235739
-0.229748
-0.212542
-0.182485
-0.140944
-0.0955358
-0.0610908
-0.0542583
-0.0810591
-0.126602
-0.170422
-0.175234
-0.132566
-0.00583103
0.174675
0.322275
0.431903
0.461544
-0.166641
-0.16756
-0.16891
-0.170925
-0.174001
-0.178555
-0.18489
-0.193064
-0.202995
-0.214037
-0.22465
-0.232623
-0.235074
-0.228274
-0.209557
-0.177674
-0.134507
-0.0892234
-0.0585634
-0.0590999
-0.0949813
-0.145956
-0.191187
-0.189485
-0.138747
-0.00021208
0.188792
0.3374
0.444301
0.469654
-0.162757
-0.163529
-0.164751
-0.166699
-0.169829
-0.174606
-0.181362
-0.190158
-0.200871
-0.212715
-0.224018
-0.232449
-0.234785
-0.227043
-0.206758
-0.173049
-0.128331
-0.0834349
-0.0569323
-0.0651625
-0.110166
-0.165705
-0.211601
-0.202075
-0.142854
0.00754124
0.204298
0.353066
0.456551
0.477498
-0.159416
-0.160028
-0.16111
-0.162979
-0.166164
-0.17117
-0.178373
-0.187815
-0.199336
-0.212035
-0.224029
-0.232902
-0.234985
-0.226159
-0.204302
-0.168769
-0.122507
-0.0782678
-0.056542
-0.0724267
-0.126455
-0.185575
-0.231466
-0.212664
-0.144659
0.0174943
0.221079
0.369172
0.468581
0.485056
-0.156812
-0.157264
-0.158207
-0.160001
-0.163239
-0.168486
-0.176145
-0.18627
-0.198641
-0.21222
-0.224906
-0.234157
-0.235792
-0.225819
-0.202515
-0.165267
-0.117559
-0.0741906
-0.0575057
-0.0806342
-0.143377
-0.204974
-0.250311
-0.220919
-0.14399
0.0296516
0.239052
0.385644
0.480325
0.492293
-0.155239
-0.155528
-0.156326
-0.158036
-0.161334
-0.166829
-0.174973
-0.185802
-0.199068
-0.213566
-0.226943
-0.236433
-0.237364
-0.226239
-0.201696
-0.162812
-0.113682
-0.0714801
-0.0602255
-0.0894619
-0.160432
-0.223439
-0.267879
-0.22649
-0.14065
0.044012
0.258051
0.402362
0.491712
0.49919
-0.155098
-0.155206
-0.155837
-0.157448
-0.160791
-0.16654
-0.175177
-0.18675
-0.200945
-0.216409
-0.23048
-0.240004
-0.239958
-0.227787
-0.202365
-0.162018
-0.11159
-0.070768
-0.0649908
-0.0982187
-0.176651
-0.240154
-0.283657
-0.229089
-0.13452
0.0605108
0.277952
0.419251
0.502686
0.505715
-0.156733
-0.156652
-0.157104
-0.158597
-0.161979
-0.167984
-0.177134
-0.189472
-0.20463
-0.221125
-0.235931
-0.245291
-0.244014
-0.230918
-0.20502
-0.163302
-0.11168
-0.0727215
-0.0713023
-0.106498
-0.191016
-0.254449
-0.297324
-0.228378
-0.125455
0.0790661
0.298545
0.436172
0.51318
0.511853
-0.160576
-0.160296
-0.160552
-0.16191
-0.165318
-0.171574
-0.181252
-0.194364
-0.21057
-0.228102
-0.243624
-0.252586
-0.250033
-0.236287
-0.210413
-0.167454
-0.114955
-0.0785439
-0.0771389
-0.114482
-0.203157
-0.265723
-0.308434
-0.224153
-0.113402
0.0995434
0.319673
0.453049
0.523151
0.517576
-0.167061
-0.166583
-0.166634
-0.167845
-0.171262
-0.177778
-0.187975
-0.201968
-0.21921
-0.237816
-0.253902
-0.262049
-0.258317
-0.244509
-0.219219
-0.175013
-0.122148
-0.087643
-0.0814979
-0.123244
-0.214837
-0.274429
-0.31698
-0.216208
-0.0983164
0.121781
0.341095
0.469721
0.53254
0.522892
-0.176727
-0.176047
-0.175884
-0.176923
-0.180344
-0.187108
-0.19789
-0.212735
-0.23111
-0.250681
-0.267048
-0.273807
-0.269155
-0.25628
-0.232289
-0.186943
-0.133283
-0.0990837
-0.0869743
-0.134288
-0.228212
-0.281407
-0.322981
-0.204514
-0.0803394
0.145538
0.362629
0.486099
0.541348
0.527812
-0.190128
-0.189253
-0.188866
-0.189716
-0.193121
-0.200129
-0.211459
-0.227223
-0.246787
-0.267236
-0.283327
-0.287887
-0.282843
-0.272303
-0.250337
-0.203701
-0.149325
-0.114046
-0.0988094
-0.149671
-0.244304
-0.287456
-0.32647
-0.188858
-0.0596687
0.170525
0.383996
0.502003
0.549606
0.532378
-0.207812
-0.206756
-0.206129
-0.206758
-0.210101
-0.217318
-0.229185
-0.245867
-0.266738
-0.288107
-0.303173
-0.304947
-0.300226
-0.29365
-0.274704
-0.226813
-0.177506
-0.14024
-0.120653
-0.17071
-0.262686
-0.292245
-0.326682
-0.169313
-0.0367612
0.196421
0.404971
0.517337
0.55734
0.536571
-0.230362
-0.229124
-0.228235
-0.228594
-0.231819
-0.239184
-0.251545
-0.269147
-0.29134
-0.31363
-0.326635
-0.325596
-0.322558
-0.320868
-0.303994
-0.261449
-0.223768
-0.183702
-0.152356
-0.19653
-0.28197
-0.294531
-0.322701
-0.146096
-0.012048
0.222965
0.425265
0.531928
0.564479
0.540368
-0.258414
-0.256998
-0.255814
-0.255842
-0.258865
-0.266308
-0.27913
-0.297681
-0.321217
-0.344136
-0.354057
-0.35201
-0.353279
-0.35779
-0.346348
-0.314162
-0.279429