/*--------------------------------*- C++ -*----------------------------------*\
  =========                 |
  \\      /  F ield         | OpenFOAM: The Open Source CFD Toolbox
   \\    /   O peration     | Website:  https://openfoam.org
    \\  /    A nd           | Version:  6.0
     \\/     M anipulation  |
\*---------------------------------------------------------------------------*/
FoamFile
{
    version     2.0;
    format      ascii;
    class       volVectorField;
    location    "8";
    object      U;
}
// * * * * * * * * * * * * * * * * * * * * * * * * * * * * * * * * * * * * * //

dimensions      [0 1 -1 0 0 0 0];

internalField   nonuniform List<vector> 
15500
(
(0.996163 0.0878056 -1.05224e-20)
(0.99616 0.0877867 1.1825e-21)
(0.996159 0.0877637 2.5128e-20)
(0.996159 0.0877458 6.59748e-20)
(0.99616 0.08773 -1.24021e-19)
(0.996161 0.0877154 -2.38481e-20)
(0.996164 0.0877023 1.78567e-19)
(0.996166 0.0876896 1.42957e-20)
(0.996169 0.0876787 6.64291e-21)
(0.996171 0.0876685 -1.44848e-19)
(0.996171 0.0876599 3.9486e-19)
(0.99617 0.0876528 -2.9075e-19)
(0.996166 0.0876497 -2.10721e-20)
(0.996158 0.0876453 -2.87862e-19)
(0.996145 0.0876398 1.83232e-19)
(0.996127 0.0876286 -2.91821e-19)
(0.996103 0.0876087 7.06131e-19)
(0.996068 0.0875734 -9.53938e-19)
(0.996017 0.0875183 4.06847e-19)
(0.995946 0.087435 -1.41562e-18)
(0.995855 0.087312 1.69221e-18)
(0.995735 0.0871447 4.62123e-19)
(0.995567 0.0869312 -3.02302e-19)
(0.995319 0.0866542 -4.07909e-18)
(0.99495 0.0862401 7.6851e-18)
(0.994438 0.0854985 3.84527e-18)
(0.993824 0.0841112 -3.9718e-18)
(0.993249 0.0816626 -4.81119e-18)
(0.993354 0.0769448 -7.8505e-18)
(0.984317 0.0667134 9.19478e-18)
(0.996115 0.0882763 -1.25017e-20)
(0.996102 0.088294 4.14982e-20)
(0.99609 0.0882845 -1.21551e-20)
(0.99608 0.0882768 4.49181e-20)
(0.996072 0.0882735 -1.49578e-19)
(0.996067 0.0882687 -1.15083e-19)
(0.996064 0.0882658 3.04091e-20)
(0.996064 0.0882588 -1.6844e-19)
(0.996064 0.088254 3.04246e-19)
(0.996065 0.0882408 -1.06817e-19)
(0.996065 0.0882275 9.72712e-20)
(0.996061 0.0882019 1.90948e-19)
(0.996053 0.0881681 -8.63774e-20)
(0.996034 0.0881084 5.03524e-20)
(0.996015 0.0880391 -6.81903e-20)
(0.99599 0.0879505 -2.0468e-19)
(0.995964 0.0878362 5.09762e-19)
(0.995928 0.0876873 -7.28328e-20)
(0.995867 0.0875231 1.00655e-18)
(0.995776 0.0873643 1.94233e-18)
(0.995655 0.0872203 -1.61456e-18)
(0.995483 0.0870956 9.50214e-19)
(0.995218 0.0869754 -1.59646e-18)
(0.994784 0.0867783 -4.5705e-19)
(0.994105 0.0862713 -5.32726e-18)
(0.993175 0.0850004 -5.32608e-19)
(0.992142 0.0824023 2.09151e-19)
(0.99123 0.0779269 2.01382e-18)
(0.992632 0.0700438 1.89735e-17)
(0.982723 0.0591889 5.40898e-19)
(0.996172 0.0883538 3.37112e-20)
(0.996163 0.0884214 -3.23437e-20)
(0.996147 0.088457 -2.00774e-20)
(0.996128 0.0884819 -6.18109e-20)
(0.996106 0.0885097 1.23381e-19)
(0.996083 0.0885333 -1.77565e-19)
(0.996059 0.0885561 1.09578e-19)
(0.996035 0.0885712 8.49017e-20)
(0.996011 0.0885881 -4.9332e-20)
(0.995986 0.0885899 -1.67452e-19)
(0.99596 0.0885928 6.34091e-20)
(0.995929 0.0885697 2.39614e-19)
(0.995899 0.0885294 -1.20672e-19)
(0.995863 0.0884439 1.36556e-19)
(0.995836 0.0883477 -2.94576e-19)
(0.995811 0.0882315 4.50017e-19)
(0.995798 0.0880875 -7.44607e-19)
(0.995792 0.0879116 6.05017e-19)
(0.995775 0.0877395 -1.2197e-18)
(0.995748 0.0876162 9.06867e-19)
(0.995717 0.0875709 9.23557e-19)
(0.995672 0.0876188 -1.14395e-18)
(0.995575 0.0877421 2.71274e-18)
(0.995351 0.0878392 -2.61749e-19)
(0.994933 0.0876341 -3.25422e-18)
(0.994328 0.0866376 -4.88231e-18)
(0.993676 0.0843225 -8.14319e-18)
(0.99297 0.0802526 3.45179e-18)
(0.995296 0.0732657 -1.25806e-17)
(0.990287 0.0686348 -1.2663e-17)
(0.996238 0.0888529 -1.19461e-20)
(0.996247 0.0889256 5.12607e-20)
(0.996239 0.0889806 -2.29347e-20)
(0.996221 0.0890119 -1.79533e-20)
(0.996191 0.0890437 -4.4792e-20)
(0.996153 0.0890707 -1.47499e-19)
(0.996107 0.0890944 1.11419e-19)
(0.996055 0.0891096 9.99898e-20)
(0.995998 0.0891268 -5.0504e-20)
(0.995936 0.0891268 7.87895e-20)
(0.995871 0.0891317 -3.75614e-20)
(0.9958 0.089103 2.83298e-20)
(0.995733 0.0890587 -2.53525e-20)
(0.99567 0.0889605 2.12524e-21)
(0.995625 0.0888555 -3.96446e-19)
(0.995589 0.0887344 8.35714e-19)
(0.995576 0.0885851 -7.65398e-19)
(0.995582 0.0884067 2.79898e-19)
(0.995594 0.0882395 1.25026e-18)
(0.995616 0.0881359 -1.20414e-18)
(0.99566 0.0881319 -5.14932e-19)
(0.995735 0.0882442 1.62325e-18)
(0.99582 0.0884546 -1.12457e-18)
(0.995865 0.0886664 -1.00416e-18)
(0.995824 0.088621 9.78622e-18)
(0.995704 0.0878813 4.11538e-18)
(0.99558 0.0860147 4.66517e-18)
(0.995171 0.082619 -3.28602e-18)
(0.997766 0.0768053 4.68435e-18)
(0.996355 0.0746091 4.88575e-18)
(0.996176 0.0898738 -8.37456e-21)
(0.99621 0.0899248 -3.21679e-20)
(0.996219 0.0899757 2.95426e-20)
(0.996211 0.0899948 1.39672e-19)
(0.996185 0.0900098 -1.51832e-19)
(0.996143 0.0900168 -1.95729e-20)
(0.996085 0.0900156 9.06174e-20)
(0.996015 0.0900035 -2.22489e-19)
(0.995933 0.0899912 -1.68003e-19)
(0.995842 0.0899605 4.68888e-19)
(0.995743 0.0899376 -2.69765e-19)
(0.995636 0.0898772 3.59629e-19)
(0.995534 0.0898085 -2.0578e-19)
(0.995443 0.089684 2.57775e-19)
(0.995373 0.0895567 -4.48437e-20)
(0.995317 0.0894134 -4.42205e-20)
(0.995286 0.0892379 1.69159e-19)
(0.995277 0.0890271 -4.13871e-19)
(0.995282 0.0888179 -1.19774e-18)
(0.995302 0.0886613 4.82215e-19)
(0.995355 0.088589 -8.38384e-19)
(0.995462 0.0886093 -5.88045e-19)
(0.995621 0.0886983 -1.19851e-19)
(0.995812 0.0887647 8.00329e-18)
(0.996019 0.088579 -2.77367e-18)
(0.996258 0.0877677 -7.66574e-18)
(0.996558 0.0859957 -4.7985e-18)
(0.996463 0.0828297 1.32005e-18)
(0.999058 0.0775305 -2.40904e-17)
(0.998947 0.0747238 -4.78e-18)
(0.995883 0.0913053 1.71133e-20)
(0.995945 0.0913178 2.14365e-21)
(0.995979 0.0913322 -4.4899e-20)
(0.995993 0.0913168 -1.70578e-20)
(0.995984 0.0912939 -5.89403e-21)
(0.995952 0.0912619 2.89071e-19)
(0.995899 0.0912178 -1.46543e-19)
(0.995826 0.0911608 -7.45532e-21)
(0.995736 0.0911006 -4.81847e-21)
(0.995631 0.0910203 -2.4834e-20)
(0.995513 0.090948 -1.46988e-19)
(0.995384 0.0908354 1.21516e-19)
(0.995258 0.090722 5.85485e-19)
(0.995145 0.0905539 5.72142e-20)
(0.995053 0.0903853 -1.06333e-19)
(0.994972 0.0901976 -4.36794e-19)
(0.994913 0.0899691 5.09484e-19)
(0.994873 0.0896915 -3.13313e-19)
(0.994846 0.0893959 6.86933e-19)
(0.99483 0.0891256 -1.03743e-19)
(0.994844 0.0889018 1.4996e-18)
(0.994915 0.0887192 -2.02902e-19)
(0.995063 0.0885436 -1.67388e-18)
(0.995293 0.0882857 -9.06591e-18)
(0.995625 0.087745 -3.69992e-18)
(0.996099 0.0866103 8.61309e-18)
(0.996722 0.0846488 6.99295e-19)
(0.996974 0.0813915 9.13414e-18)
(0.999578 0.0761893 3.09928e-17)
(0.999445 0.0723485 1.27144e-17)
(0.995363 0.0928019 -1.2121e-21)
(0.995446 0.0927922 -2.56097e-20)
(0.995503 0.0927838 -8.74565e-21)
(0.995541 0.0927449 2.39359e-20)
(0.995555 0.0926939 -4.78154e-20)
(0.995544 0.0926291 -4.80541e-20)
(0.995509 0.0925462 8.41544e-20)
(0.995448 0.092445 1.85135e-19)
(0.995367 0.0923346 -1.7557e-19)
(0.995265 0.0922006 2.17413e-19)
(0.995145 0.0920715 -4.48556e-19)
(0.995011 0.0918988 1.11601e-19)
(0.994874 0.0917297 -2.2443e-19)
(0.994749 0.0915076 3.97211e-19)
(0.994641 0.0912854 -1.31572e-19)
(0.994538 0.091038 -8.87634e-20)
(0.994448 0.0907373 3.07041e-19)
(0.994373 0.0903696 -6.24572e-19)
(0.994303 0.0899586 5.7358e-19)
(0.99424 0.0895382 2.08529e-19)
(0.994198 0.0891172 -1.42392e-18)
(0.994212 0.0886749 -5.53493e-19)
(0.994315 0.0881654 1.71706e-18)
(0.99454 0.0875013 2.33764e-18)
(0.994943 0.0865114 3.11022e-18)
(0.995589 0.0849456 7.45664e-20)
(0.996476 0.0826759 5.83363e-18)
(0.997093 0.0792217 -9.04558e-18)
(0.999798 0.0739839 -2.63563e-17)
(0.999255 0.0696267 -2.57397e-18)
(0.994686 0.0943015 -6.28704e-21)
(0.994774 0.0942674 2.23975e-20)
(0.994844 0.0942278 2.871e-20)
(0.994899 0.0941627 -2.68702e-20)
(0.994935 0.0940834 -7.30721e-20)
(0.994946 0.0939893 -3.51602e-22)
(0.994933 0.0938738 2.0855e-19)
(0.994893 0.093736 -3.05799e-19)
(0.994829 0.0935834 1.92452e-19)
(0.994742 0.0934025 2.97852e-19)
(0.994634 0.0932214 -4.43393e-19)
(0.994508 0.0929917 -7.17707e-20)
(0.994373 0.0927661 -8.01667e-20)
(0.994245 0.0924872 1.0274e-19)
(0.994126 0.092206 -4.68859e-19)
(0.994004 0.0918904 4.95288e-19)
(0.993887 0.0915056 1.09957e-19)
(0.993779 0.0910334 -4.78121e-19)
(0.99367 0.0904905 6.84069e-20)
(0.993561 0.0899014 2.18934e-19)
(0.993468 0.0892628 1.02213e-18)
(0.99343 0.0885403 -1.18799e-18)
(0.993493 0.087678 1.94226e-18)
(0.993713 0.0865928 5.19654e-18)
(0.994176 0.0851428 -1.15241e-18)
(0.994974 0.0831378 -1.13314e-17)
(0.996093 0.0805511 -6.58605e-18)
(0.997073 0.0769145 3.97432e-18)
(0.999966 0.0716462 4.68589e-20)
(0.999055 0.06727 1.17761e-17)
(0.993942 0.0955912 1.23569e-20)
(0.994016 0.0955573 -7.65756e-21)
(0.994082 0.0955135 3.35857e-20)
(0.994142 0.0954427 6.05898e-21)
(0.994188 0.0953549 6.3592e-20)
(0.994214 0.0952483 -1.64651e-19)
(0.994219 0.0951151 1.29583e-19)
(0.994198 0.0949544 4.44397e-20)
(0.994154 0.0947721 -1.74676e-19)
(0.994086 0.094556 1.95754e-20)
(0.993995 0.0943325 3.80542e-19)
(0.993884 0.0940544 -3.49937e-19)
(0.993758 0.0937773 2.60321e-19)
(0.993631 0.0934437 -1.62387e-19)
(0.993506 0.0931027 -5.97287e-20)
(0.993369 0.0927151 2.7028e-19)
(0.993231 0.0922408 4.73603e-19)
(0.993093 0.0916573 6.24048e-19)
(0.992953 0.0909747 -4.10829e-19)
(0.992809 0.0902104 -1.05105e-18)
(0.992678 0.0893514 -1.47744e-18)
(0.992606 0.0883507 -1.45453e-18)
(0.992648 0.0871466 -7.77699e-19)
(0.992883 0.0856618 3.30095e-18)
(0.993416 0.0837851 1.83977e-18)
(0.994365 0.0813814 2.51874e-18)
(0.995699 0.0785192 3.17511e-18)
(0.997025 0.0747586 -8.21377e-18)
(1.00015 0.0695079 8.13523e-18)
(0.999047 0.0653944 -3.53537e-18)
(0.993184 0.0967759 -2.1804e-20)
(0.993231 0.0967352 4.63625e-20)
(0.99328 0.0966761 -1.7288e-20)
(0.99333 0.0965946 -6.04196e-21)
(0.993374 0.0964955 4.79211e-20)
(0.993404 0.0963788 -1.25851e-19)
(0.993418 0.0962341 1.33307e-19)
(0.99341 0.0960594 1.16566e-19)
(0.993381 0.0958586 -1.70195e-19)
(0.993328 0.0956185 7.2787e-20)
(0.993254 0.0953635 2.64075e-19)
(0.993158 0.0950467 -4.50249e-19)
(0.993042 0.0947256 -1.09407e-19)
(0.992918 0.0943419 1.04789e-19)
(0.992788 0.0939426 6.86435e-20)
(0.992639 0.0934835 5.7499e-20)
(0.992481 0.0929195 -3.06163e-19)
(0.99232 0.0922229 -6.55171e-19)
(0.992155 0.0913997 6.45145e-19)
(0.991985 0.0904622 1.51145e-19)
(0.991834 0.0893888 2.99158e-18)
(0.991746 0.0881243 -7.15538e-19)
(0.991792 0.0866037 -9.0481e-19)
(0.992062 0.0847573 -7.26487e-18)
(0.992685 0.082505 -7.63476e-19)
(0.993791 0.0797611 1.19895e-18)
(0.995328 0.0766809 -7.04404e-18)
(0.996979 0.0728588 1.48365e-17)
(1.00037 0.0676731 2.22537e-17)
(0.999209 0.063953 -1.51423e-17)
(0.992437 0.097728 -1.50377e-20)
(0.992447 0.0977037 9.9502e-21)
(0.992468 0.0976544 7.05016e-20)
(0.992497 0.0975799 -9.62035e-20)
(0.992527 0.0974858 1.25659e-19)
(0.992551 0.097371 -2.32203e-20)
(0.992563 0.0972246 -6.17216e-20)
(0.99256 0.097044 -1.98554e-19)
(0.992538 0.096832 1.06933e-19)
(0.992495 0.0965756 8.87605e-20)
(0.992432 0.0962966 -8.59193e-22)
(0.992348 0.0959487 6.56048e-20)
(0.992241 0.0955905 -4.10088e-19)
(0.992118 0.0951613 2.31543e-19)
(0.991981 0.0947065 1.24312e-19)
(0.991819 0.0941792 -2.34888e-20)
(0.991644 0.0935274 5.72893e-19)
(0.991463 0.09272 -4.02355e-20)
(0.991278 0.0917601 -7.61478e-19)
(0.991093 0.0906562 -6.12896e-19)
(0.990931 0.0893812 -4.04784e-19)
(0.990845 0.0878734 6.42031e-19)
(0.990913 0.0860666 -7.51731e-20)
(0.991241 0.0839006 -1.77966e-18)
(0.991968 0.0813249 -8.3127e-18)
(0.993239 0.0782991 -1.62843e-18)
(0.994973 0.0750536 1.81156e-17)
(0.996924 0.071223 -1.46247e-17)
(1.00058 0.0661349 1.59124e-17)
(0.999472 0.0628432 -2.08302e-17)
(0.991705 0.0986236 9.2519e-21)
(0.991673 0.0985979 -2.37336e-20)
(0.991659 0.0985381 -1.21006e-20)
(0.99166 0.0984582 1.07356e-19)
(0.991668 0.0983588 -3.682e-20)
(0.991676 0.098241 -1.60072e-19)
(0.991679 0.098092 1.13461e-19)
(0.991671 0.0979077 -2.52162e-19)
(0.991649 0.0976892 4.96297e-20)
(0.991609 0.097422 6.10048e-20)
(0.991551 0.0971257 8.70551e-20)
(0.991473 0.0967535 -3.435e-19)
(0.991369 0.0963643 6.94504e-19)
(0.991242 0.0958939 -1.96315e-19)
(0.991096 0.0953872 -8.73952e-19)
(0.990919 0.0947952 6.14061e-19)
(0.990725 0.0940596 -1.4458e-19)
(0.990526 0.0931461 -5.67798e-19)
(0.990325 0.0920559 -4.49475e-19)
(0.99013 0.0907951 2.39699e-19)
(0.989967 0.0893327 -2.31685e-19)
(0.989894 0.087603 -2.32638e-19)
(0.989998 0.0855399 4.99844e-18)
(0.990396 0.0830941 5.10178e-18)
(0.99124 0.080242 -4.71799e-19)
(0.99268 0.076985 -4.79538e-18)
(0.994606 0.0736171 -4.55345e-18)
(0.996841 0.0698145 4.993e-18)
(1.00076 0.0648395 -7.16052e-18)
(0.999755 0.0619675 1.47845e-17)
(0.990998 0.0993167 -8.35265e-21)
(0.990922 0.0993108 -5.73408e-21)
(0.990868 0.0992657 1.34064e-20)
(0.990834 0.0991964 -3.33766e-20)
(0.990814 0.0991064 1.72228e-20)
(0.990799 0.098995 6.47921e-20)
(0.990784 0.0988493 4.88076e-20)
(0.990763 0.0986653 -7.88719e-20)
(0.990732 0.0984432 1.84009e-19)
(0.990687 0.0981686 -2.56444e-19)
(0.990626 0.0978586 2.40453e-19)
(0.990546 0.0974661 -3.6903e-19)
(0.990438 0.0970501 2.7546e-19)
(0.990303 0.0965419 -4.55353e-19)
(0.990141 0.0959863 6.13183e-19)
(0.989946 0.0953329 2.64637e-19)
(0.989734 0.0945179 -1.1005e-18)
(0.989515 0.0935042 1.20356e-18)
(0.989299 0.092291 -3.86943e-19)
(0.989096 0.090884 -1.51809e-18)
(0.988935 0.0892498 2.65338e-19)
(0.988882 0.0873187 1.01302e-18)
(0.98903 0.0850264 -1.61661e-18)
(0.989509 0.0823339 -3.94879e-18)
(0.990475 0.0792436 8.04679e-18)
(0.992089 0.0757934 9.17191e-18)
(0.994204 0.0723343 -7.67404e-18)
(0.99671 0.0685814 1.13389e-17)
(1.00088 0.0637243 -4.00047e-18)
(1.00002 0.0612369 1.37338e-17)
(0.990312 0.100008 -5.49352e-21)
(0.990191 0.1 5.50331e-21)
(0.990095 0.0999456 -1.57777e-21)
(0.990024 0.0998719 9.1553e-21)
(0.989969 0.0997779 -6.11327e-20)
(0.989925 0.0996655 3.97961e-20)
(0.989886 0.0995194 -1.08499e-19)
(0.989845 0.0993351 2.03885e-19)
(0.989797 0.099111 -1.76114e-19)
(0.989739 0.0988308 4.45495e-20)
(0.989666 0.0985095 2.46124e-19)
(0.989576 0.0980986 3.09486e-20)
(0.989458 0.0976584 -2.50092e-20)
(0.989307 0.0971142 -3.2631e-19)
(0.989127 0.0965114 1.12364e-19)
(0.98891 0.0957994 -3.92801e-19)
(0.988674 0.0949099 8.19759e-19)
(0.988435 0.0938014 4.08535e-19)
(0.988203 0.0924726 -2.63902e-19)
(0.987992 0.0909295 1.0471e-18)
(0.987836 0.0891366 1.97358e-18)
(0.987804 0.0870217 -2.465e-18)
(0.988 0.0845231 -5.98076e-18)
(0.988561 0.0816106 1.0647e-18)
(0.989655 0.0783116 -2.41701e-18)
(0.991442 0.0746964 -2.05326e-18)
(0.993749 0.0711668 1.05687e-17)
(0.996519 0.0674731 -6.19279e-18)
(1.00094 0.0627288 -1.10709e-20)
(1.00022 0.0605862 1.31258e-17)
(0.98963 0.100552 6.40415e-21)
(0.989463 0.100566 1.3751e-20)
(0.989326 0.100527 -3.75985e-22)
(0.989214 0.100465 1.39804e-20)
(0.989123 0.100381 -9.6234e-20)
(0.989046 0.100275 7.58489e-20)
(0.988978 0.100131 1.35443e-19)
(0.988911 0.0999469 -1.56718e-19)
(0.988842 0.0997189 -2.53838e-20)
(0.988764 0.0994315 -8.41602e-20)
(0.988673 0.0990972 3.36946e-19)
(0.988566 0.0986673 -1.18395e-19)
(0.988432 0.0982028 -1.55744e-19)
(0.988261 0.0976232 -5.9375e-20)
(0.988057 0.0969736 3.04134e-19)
(0.987814 0.0962063 1.17672e-19)
(0.987553 0.0952456 -2.38093e-19)
(0.987291 0.0940469 -5.5562e-21)
(0.987041 0.0926092 -3.60346e-19)
(0.98682 0.0909389 -6.95954e-19)
(0.986667 0.0889994 -1.68409e-18)
(0.986655 0.0867158 3.14457e-18)
(0.986899 0.0840282 3.04633e-18)
(0.987545 0.0809155 -2.61106e-20)
(0.988766 0.0774279 5.41485e-18)
(0.99073 0.0736661 -2.81345e-18)
(0.99323 0.0700768 -6.07607e-18)
(0.996264 0.0664461 -6.35103e-18)
(1.00094 0.0618056 -3.89935e-17)
(1.00037 0.0599655 -2.19402e-17)
(0.988935 0.101159 -2.28897e-21)
(0.988723 0.101168 6.85835e-21)
(0.988544 0.101116 1.86294e-22)
(0.988393 0.101047 -7.35056e-20)
(0.988265 0.100955 -1.44758e-21)
(0.988153 0.100845 8.20351e-20)
(0.988053 0.100698 -1.0562e-19)
(0.987958 0.10051 1.60918e-19)
(0.987862 0.100277 7.06245e-20)
(0.98776 0.0999817 6.16032e-21)
(0.987647 0.0996345 -2.78718e-19)
(0.987518 0.0991854 1.46755e-19)
(0.987362 0.0986968 4.18509e-19)
(0.987166 0.0980816 -3.34226e-19)
(0.986936 0.0973865 2.42847e-19)
(0.986664 0.0965653 -2.65954e-19)
(0.986374 0.095536 2.10197e-19)
(0.986086 0.0942512 -2.00399e-19)
(0.985816 0.0927096 9.14536e-19)
(0.985583 0.090919 4.01216e-19)
(0.985429 0.0888414 1.90926e-18)
(0.985437 0.0864003 -1.47324e-18)
(0.985726 0.0835363 -4.6033e-18)
(0.986455 0.080238 1.37168e-18)
(0.987804 0.0765748 -8.77824e-18)
(0.989946 0.0726781 1.14246e-17)
(0.992645 0.069034 -8.63302e-18)
(0.995946 0.0654642 2.49639e-17)
(1.00088 0.0609157 9.34988e-18)
(1.00046 0.0593431 -8.04498e-18)
(0.988231 0.101634 4.5379e-21)
(0.987974 0.101663 2.7918e-21)
(0.987752 0.101628 -3.48263e-20)
(0.98756 0.101569 9.22567e-21)
(0.987393 0.101486 7.45441e-21)
(0.987244 0.10138 3.31907e-21)
(0.98711 0.101234 -1.89622e-20)
(0.986983 0.101044 1.73383e-19)
(0.986857 0.100804 -2.61044e-19)
(0.986727 0.100499 2.22881e-19)
(0.986586 0.100137 -1.8965e-20)
(0.986431 0.0996679 -1.50343e-19)
(0.986248 0.0991543 1.92412e-19)
(0.986025 0.0985032 -3.17644e-19)
(0.985764 0.0977628 1.15318e-19)
(0.985462 0.0968885 -2.39501e-19)
(0.985141 0.0957924 6.0747e-19)
(0.984824 0.094424 6.09645e-19)
(0.984531 0.0927824 9.73979e-19)
(0.984283 0.0908766 -4.75575e-19)
(0.984125 0.0886684 -2.06622e-18)
(0.984148 0.0860772 -5.28764e-19)
(0.98448 0.0830451 1.59092e-18)
(0.985291 0.0795686 4.32184e-18)
(0.986769 0.0757371 4.00384e-18)
(0.989091 0.0717095 -2.349e-17)
(0.991998 0.0680119 5.65924e-18)
(0.995573 0.0644988 -2.88678e-17)
(1.00077 0.0600333 2.70848e-17)
(1.00052 0.0586939 1.14121e-17)
(0.987519 0.102197 1.684e-21)
(0.987215 0.102218 -1.84231e-20)
(0.98695 0.102169 -1.22407e-20)
(0.986715 0.102101 3.32618e-20)
(0.986507 0.102011 -6.30575e-20)
(0.986319 0.1019 4.06837e-20)
(0.986148 0.10175 -8.32149e-20)
(0.985985 0.101555 -4.0141e-20)
(0.985825 0.10131 1.77541e-20)
(0.985662 0.100995 7.58604e-20)
(0.98549 0.100619 -2.37294e-21)
(0.985303 0.100128 9.01945e-20)
(0.98509 0.0995888 7.18664e-20)
(0.984836 0.0989008 3.74679e-19)
(0.984544 0.0981144 -5.68098e-20)
(0.984209 0.097187 1.62821e-19)
(0.983856 0.0960257 -9.07605e-19)
(0.983508 0.0945753 -3.88993e-19)
(0.983188 0.0928353 -1.19831e-18)
(0.98292 0.0908171 5.32877e-19)
(0.982756 0.0884812 1.65428e-18)
(0.98279 0.0857437 4.13444e-19)
(0.983162 0.0825482 9.89091e-19)
(0.984054 0.0788972 6.56721e-19)
(0.985662 0.0749003 5.72975e-18)
(0.98817 0.0707424 1.22361e-17)
(0.991296 0.0669896 -1.13108e-17)
(0.995156 0.0635275 -3.86828e-18)
(1.00063 0.0591362 5.41968e-18)
(1.00054 0.0580054 2.602e-18)
(0.986783 0.102654 1.6168e-21)
(0.986433 0.102698 -2.09182e-20)
(0.986122 0.102666 3.71878e-20)
(0.985844 0.102608 -5.60989e-20)
(0.985594 0.102526 7.48902e-20)
(0.985365 0.10242 6.74825e-20)
(0.985155 0.102269 -7.63067e-20)
(0.984955 0.102069 4.02614e-20)
(0.984758 0.101815 -1.68644e-19)
(0.98456 0.101487 4.74039e-20)
(0.984353 0.101094 -3.70679e-20)
(0.984132 0.100579 -2.89761e-19)
(0.983886 0.100011 6.05206e-20)
(0.983598 0.099285 4.04602e-19)
(0.983276 0.0984518 -1.0059e-19)
(0.982906 0.097472 1.04055e-19)
(0.982518 0.0962452 -3.11529e-19)
(0.982137 0.0947125 6.69863e-19)
(0.981789 0.0928751 -2.56517e-19)
(0.981499 0.0907456 -1.85073e-18)
(0.981324 0.0882837 -3.25244e-19)
(0.981365 0.0854013 4.59569e-19)
(0.981776 0.0820421 -8.31168e-19)
(0.982749 0.0782159 -5.22121e-18)
(0.984489 0.0740508 -8.54661e-18)
(0.98719 0.06976 -4.41703e-18)
(0.990548 0.0659478 8.21584e-18)
(0.994706 0.0625335 1.60155e-17)
(1.00047 0.0582118 -3.31671e-17)
(1.00054 0.0572652 -2.98958e-18)
(0.986013 0.103238 7.57326e-21)
(0.985615 0.103272 -1.90164e-21)
(0.985259 0.103222 3.07267e-20)
(0.984937 0.103154 -7.24069e-21)
(0.984644 0.103061 -4.28801e-20)
(0.984375 0.102948 3.5511e-20)
(0.984124 0.102789 4.88543e-20)
(0.983885 0.102582 -9.30194e-20)
(0.983651 0.102319 1.99957e-19)
(0.983415 0.101978 8.71209e-20)
(0.983171 0.101567 -1.40401e-19)
(0.982914 0.101027 -2.06647e-20)
(0.982632 0.10043 -3.19175e-20)
(0.982311 0.0996644 -8.84513e-20)
(0.981956 0.0987848 3.41101e-19)
(0.981552 0.0977517 -4.77478e-20)
(0.981128 0.096459 1.31256e-19)
(0.980713 0.0948435 -7.5033e-19)
(0.980333 0.092907 1.37924e-18)
(0.980019 0.090665 3.93411e-19)
(0.979829 0.0880749 -1.37144e-18)
(0.979877 0.0850457 -2.40984e-18)
(0.980323 0.0815198 1.91596e-18)
(0.981378 0.0775152 -8.4112e-18)
(0.983255 0.073177 1.20598e-17)
(0.986159 0.0687489 6.92798e-18)
(0.989765 0.0648728 1.0026e-17)
(0.994236 0.0615026 -4.03522e-18)
(1.00031 0.0572478 3.52373e-17)
(1.00054 0.0564651 -9.27592e-18)
(0.985221 0.103708 -1.91131e-21)
(0.984772 0.103764 -2.25803e-20)
(0.984369 0.103732 9.10371e-21)
(0.984 0.103673 6.02238e-20)
(0.983663 0.103589 -7.8627e-20)
(0.98335 0.103479 3.09193e-21)
(0.983057 0.103319 -1.20882e-21)
(0.982778 0.103105 1.78837e-20)
(0.982503 0.102832 -1.79315e-20)
(0.982228 0.102477 -2.51228e-20)
(0.981944 0.102046 6.63088e-20)
(0.981648 0.101481 1.96553e-19)
(0.981329 0.100853 -1.86151e-19)
(0.980973 0.100047 2.41002e-20)
(0.980586 0.0991207 -1.66289e-19)
(0.980147 0.0980337 -6.85251e-20)
(0.979686 0.0966731 -1.63118e-20)
(0.979235 0.094973 7.36586e-19)
(0.978822 0.0929356 -9.5063e-19)
(0.97848 0.0905783 2.59604e-18)
(0.978273 0.0878575 2.19971e-18)
(0.978324 0.0846768 -8.84015e-19)
(0.978806 0.0809782 -1.17515e-18)
(0.979945 0.0767872 1.22656e-17)
(0.981967 0.0722682 -1.0194e-17)
(0.985086 0.0676949 -5.86489e-18)
(0.988957 0.0637511 -5.4793e-18)
(0.99376 0.0604243 3.5141e-18)
(1.00016 0.0562384 -2.84738e-17)
(1.00056 0.0556075 1.98175e-17)
(0.984414 0.104305 -2.20302e-21)
(0.983911 0.104349 -1.87361e-20)
(0.983458 0.104299 -8.25215e-22)
(0.98304 0.104231 3.0245e-20)
(0.982655 0.104137 -1.81239e-20)
(0.982296 0.104021 7.04144e-20)
(0.981958 0.103855 -1.09808e-19)
(0.981634 0.103635 3.62128e-20)
(0.981316 0.103353 1.03679e-19)
(0.980997 0.102985 -2.28191e-19)
(0.980671 0.102538 7.17601e-21)
(0.980334 0.101946 -5.47878e-20)
(0.979974 0.101287 9.14489e-20)
(0.979583 0.10044 -1.73936e-20)
(0.979163 0.0994658 1.59384e-19)
(0.978689 0.0983226 -5.52882e-19)
(0.978191 0.0968936 5.08493e-20)
(0.977702 0.0951062 -3.90036e-19)
(0.977254 0.0929636 2.69943e-19)
(0.976881 0.0904863 1.04336e-19)
(0.976655 0.0876287 -1.61442e-18)
(0.976708 0.084289 -1.66163e-18)
(0.977227 0.0804099 3.94277e-18)
(0.978454 0.0760233 -7.05947e-18)
(0.98063 0.0713146 1.77391e-18)
(0.983977 0.0665878 3.95055e-18)
(0.988134 0.0625724 3.03855e-18)
(0.993288 0.0592891 -1.80236e-17)
(1.00002 0.055175 -1.36322e-17)
(1.00062 0.0546881 -1.36715e-17)
(0.983579 0.104802 3.29902e-21)
(0.983021 0.104871 -2.12423e-21)
(0.982516 0.10484 -1.60833e-20)
(0.982048 0.104782 2.09317e-20)
(0.981613 0.104697 -3.80243e-20)
(0.981205 0.104585 6.73062e-20)
(0.98082 0.104418 -7.75391e-20)
(0.980449 0.104192 4.8086e-20)
(0.980085 0.1039 -9.96163e-20)
(0.97972 0.103518 2.14411e-19)
(0.979349 0.103049 -1.05527e-19)
(0.978968 0.10243 1.16194e-19)
(0.978567 0.101737 -4.89503e-19)
(0.978139 0.100848 2.84305e-19)
(0.977687 0.0998246 8.30663e-21)
(0.977178 0.0986246 1.7484e-19)
(0.976641 0.0971241 -2.6189e-19)
(0.976113 0.0952455 3.34742e-19)
(0.975627 0.0929939 1.18783e-19)
(0.975222 0.0903909 -1.26561e-18)
(0.974976 0.0873897 2.28272e-18)
(0.975029 0.0838821 8.76176e-19)
(0.975587 0.079811 -5.99266e-18)
(0.976908 0.0752165 2.41254e-18)
(0.979248 0.0703056 1.74854e-18)
(0.982841 0.0654167 -8.70571e-18)
(0.987307 0.0613256 -4.09295e-18)
(0.992831 0.0580907 5.93018e-17)
(0.999912 0.0540551 -2.62294e-18)
(1.00073 0.0537065 6.0267e-19)
(0.98271 0.105451 -1.43628e-21)
(0.982095 0.105506 4.46541e-21)
(0.981536 0.105456 -6.12976e-21)
(0.981016 0.105387 -8.13508e-22)
(0.98053 0.105291 6.78504e-21)
(0.980071 0.105172 3.06804e-21)
(0.979637 0.104999 9.46312e-21)
(0.979218 0.104766 -6.74265e-20)
(0.978806 0.104464 1.43811e-19)
(0.978395 0.104067 -4.59301e-20)
(0.977977 0.10358 1.83931e-20)
(0.97755 0.102934 3.8255e-21)
(0.977105 0.102207 -8.1654e-20)
(0.976642 0.101275 -3.0665e-20)
(0.976157 0.100202 4.66217e-19)
(0.975611 0.0989425 4.02426e-20)
(0.975035 0.0973684 4.16484e-19)
(0.974466 0.0953948 2.25431e-19)
(0.97394 0.0930272 -1.13868e-18)
(0.973502 0.0902911 8.12999e-19)
(0.973232 0.0871362 -8.00667e-19)
(0.973287 0.0834499 3.70804e-18)
(0.973887 0.0791739 5.90675e-18)
(0.975308 0.074359 5.05354e-18)
(0.977825 0.0692331 8.51001e-18)
(0.981683 0.0641732 6.50412e-18)
(0.986483 0.0600035 -4.68354e-18)
(0.992399 0.056822 -5.67306e-18)
(0.999847 0.0528731 -2.00528e-19)
(1.00089 0.0526589 1.5595e-17)
(0.981816 0.105989 -2.8349e-22)
(0.981141 0.10607 7.40884e-21)
(0.980526 0.106038 -2.63868e-20)
(0.979951 0.105978 5.35444e-21)
(0.979411 0.105893 -2.20739e-20)
(0.978901 0.105778 4.21549e-20)
(0.978415 0.105604 -1.259e-20)
(0.977946 0.105365 2.47208e-20)
(0.977483 0.105053 -2.12339e-20)
(0.977022 0.104642 -7.65173e-20)
(0.976555 0.104135 1.27312e-19)
(0.97608 0.103461 -1.34967e-19)
(0.97559 0.1027 2.70041e-19)
(0.975089 0.101725 -1.39529e-19)
(0.97457 0.1006 -1.34827e-19)
(0.973987 0.0992803 -5.34712e-19)
(0.973371 0.0976283 -4.72516e-19)
(0.972758 0.0955543 2.86784e-19)
(0.972192 0.0930654 2.59264e-19)
(0.971717 0.0901876 -7.40867e-19)
(0.971423 0.0868694 -7.26759e-19)
(0.97148 0.0829913 -4.64825e-19)
(0.972125 0.0784951 -3.32926e-18)
(0.973657 0.0734432 -3.27391e-18)
(0.976367 0.068088 -1.21463e-17)
(0.98051 0.0628466 1.54956e-18)
(0.98567 0.0585977 -1.6622e-18)
(0.992 0.0554786 -7.14843e-17)
(0.999829 0.0516295 3.49297e-17)
(1.00111 0.0515469 2.38933e-17)
(0.980908 0.106664 1.83602e-21)
(0.98017 0.106729 2.19142e-21)
(0.979496 0.106679 -5.69223e-21)
(0.978862 0.106611 3.84477e-20)
(0.978265 0.106518 -6.01974e-20)
(0.977698 0.1064 3.79351e-20)
(0.977158 0.106222 2.48744e-20)
(0.976634 0.105979 -7.24941e-20)
(0.976118 0.105662 7.73675e-20)
(0.975604 0.105238 -1.44903e-19)
(0.975083 0.104714 1.83019e-19)
(0.974557 0.104014 9.0282e-21)
(0.97402 0.103219 -2.06732e-19)
(0.97348 0.1022 4.54869e-20)
(0.972926 0.101023 2.16686e-20)
(0.972306 0.0996387 7.5922e-20)
(0.971646 0.0979064 4.01607e-19)
(0.970989 0.0957272 -5.86586e-19)
(0.97038 0.0931074 1.10233e-18)
(0.969865 0.0900782 6.42077e-20)
(0.969546 0.086584 1.29069e-18)
(0.969607 0.0824989 -4.17426e-18)
(0.970303 0.077767 2.56106e-19)
(0.971955 0.0724616 -4.92955e-19)
(0.974874 0.0668632 1.5366e-18)
(0.979327 0.0614302 8.85533e-18)
(0.984876 0.0571017 -1.90372e-18)
(0.991643 0.0540552 3.54857e-17)
(0.999872 0.0503198 -2.8223e-17)
(1.00139 0.0503679 -1.6238e-17)
(0.979971 0.107247 4.71548e-22)
(0.979169 0.107339 -1.36389e-21)
(0.978433 0.107308 -1.41573e-20)
(0.977739 0.10725 1.96604e-20)
(0.977084 0.107167 -5.16548e-21)
(0.976459 0.107055 -2.2642e-21)
(0.975861 0.106877 -1.22818e-20)
(0.97528 0.10663 2.10285e-20)
(0.974708 0.106304 -4.38672e-20)
(0.974137 0.105868 -2.02882e-20)
(0.973561 0.105325 4.28705e-20)
(0.972981 0.104597 -8.26608e-20)
(0.972394 0.103766 -5.02663e-20)
(0.971813 0.102704 4.98827e-20)
(0.971223 0.101472 -1.08832e-19)
(0.970563 0.100022 -1.01339e-19)
(0.969859 0.0982046 5.37766e-19)
(0.969154 0.0959117 -2.24186e-19)
(0.968499 0.093155 7.01186e-20)
(0.967943 0.0899635 -5.04105e-19)
(0.9676 0.0862803 -7.22755e-20)
(0.967665 0.081972 3.31954e-18)
(0.968418 0.0769854 6.00378e-19)
(0.970203 0.0714074 -8.61631e-19)
(0.973351 0.0655485 3.80434e-18)
(0.97814 0.0599151 -7.09626e-18)
(0.984107 0.0555082 8.63981e-18)
(0.991335 0.0525498 -6.01672e-17)
(0.999976 0.0489467 2.14336e-17)
(1.00175 0.0491251 -4.36993e-17)
(0.978997 0.107983 4.43531e-22)
(0.97813 0.108057 -1.44178e-21)
(0.977332 0.108006 6.83775e-21)
(0.976577 0.10794 1.73582e-21)
(0.97586 0.10785 -1.66679e-20)
(0.975175 0.107735 3.46704e-21)
(0.974519 0.107555 4.51764e-21)
(0.97388 0.107304 7.8151e-21)
(0.973249 0.106972 2.25115e-21)
(0.97262 0.106524 -2.71079e-21)
(0.971986 0.105964 -5.55526e-20)
(0.971351 0.105209 -2.73151e-22)
(0.970711 0.104344 1.04587e-19)
(0.970088 0.103237 4.22401e-20)
(0.96946 0.10195 1.56755e-19)
(0.96876 0.10043 1.42948e-19)
(0.968004 0.0985229 -1.94233e-19)
(0.967254 0.0961135 7.0505e-20)
(0.966548 0.0932062 -9.29913e-19)
(0.96595 0.0898407 -8.79878e-19)
(0.965579 0.0859522 -1.58201e-18)
(0.965652 0.0814031 -4.89878e-18)
(0.96647 0.076142 -9.09016e-19)
(0.968401 0.0702733 5.10783e-18)
(0.971798 0.0641378 -9.75135e-18)
(0.976952 0.0582952 -4.92172e-19)
(0.98337 0.0538125 -8.21989e-19)
(0.991083 0.0509574 4.17175e-17)
(1.00015 0.0475073 -1.3346e-17)
(1.00217 0.0478178 8.24014e-18)
(0.977991 0.10862 -3.55388e-22)
(0.977055 0.108723 -2.76989e-22)
(0.976193 0.108691 3.03804e-21)
(0.975374 0.108634 -8.5271e-22)
(0.974596 0.108553 -1.19622e-21)
(0.97385 0.108443 3.02704e-21)
(0.973132 0.108264 -2.58146e-21)
(0.972433 0.10801 1.29809e-20)
(0.971742 0.107671 -1.77983e-20)
(0.971052 0.107211 -2.04164e-20)
(0.970359 0.106634 -4.90211e-22)
(0.969665 0.105853 5.22366e-20)
(0.968971 0.104953 -2.59715e-20)
(0.968303 0.103802 1.20753e-19)
(0.967637 0.102456 -1.59443e-19)
(0.966886 0.100866 -7.99519e-20)
(0.966084 0.0988639 3.12915e-19)
(0.965283 0.0963243 -8.71702e-20)
(0.964527 0.0932651 3.11302e-19)
(0.963882 0.089711 3.81696e-19)
(0.963482 0.0856008 4.87404e-19)
(0.963567 0.080791 4.46172e-18)
(0.964457 0.0752331 1.27001e-18)
(0.966549 0.0690513 -1.17912e-18)
(0.970219 0.0626218 4.48539e-18)
(0.975768 0.0565606 -1.872e-18)
(0.982672 0.0520087 1.51632e-17)
(0.990893 0.0492778 2.93317e-17)
(1.0004 0.0460056 2.15928e-17)
(1.00267 0.0464508 2.55437e-17)
(0.976967 0.10939 7.01524e-22)
(0.97596 0.10947 -5.74876e-22)
(0.97503 0.10942 3.71801e-22)
(0.974144 0.109357 -1.75534e-22)
(0.973299 0.109273 -3.39317e-22)
(0.972488 0.109165 -3.57102e-21)
(0.971707 0.108987 -1.43575e-21)
(0.970944 0.108733 1.92959e-20)
(0.970189 0.108393 -4.469e-21)
(0.969436 0.107924 1.59392e-20)
(0.96868 0.107333 -3.26827e-20)
(0.967924 0.106527 7.41151e-20)
(0.967172 0.105594 2.86689e-20)
(0.966457 0.104397 3.43415e-20)
(0.96574 0.102998 -8.39494e-20)
(0.964937 0.101329 2.04177e-19)
(0.96409 0.0992196 -3.18388e-19)
(0.963239 0.09655 -3.31552e-19)
(0.962433 0.0933256 6.39016e-19)
(0.961735 0.0895713 8.27138e-19)
(0.961307 0.0852203 2.46373e-18)