/*--------------------------------*- C++ -*----------------------------------*\
  =========                 |
  \\      /  F ield         | OpenFOAM: The Open Source CFD Toolbox
   \\    /   O peration     | Website:  https://openfoam.org
    \\  /    A nd           | Version:  6.0
     \\/     M anipulation  |
\*---------------------------------------------------------------------------*/
FoamFile
{
    version     2.0;
    format      ascii;
    class       volScalarField;
    location    "4";
    object      p;
}
// * * * * * * * * * * * * * * * * * * * * * * * * * * * * * * * * * * * * * //

dimensions      [0 2 -2 0 0 0 0];

internalField   nonuniform List<scalar> 
19500
(
0.093096
0.092932
0.091942
0.091319
0.089579
0.088973
0.087198
0.087535
0.088246
0.091065
0.1144
0.15787
0.093096
0.092932
0.091942
0.09132
0.089578
0.088974
0.087196
0.087535
0.088243
0.091127
0.11372
0.15281
0.093097
0.092933
0.091942
0.091321
0.089577
0.088975
0.087194
0.087534
0.088235
0.09117
0.11284
0.14828
0.093097
0.092935
0.091942
0.091323
0.089576
0.088976
0.08719
0.087532
0.08822
0.091188
0.11186
0.14472
0.093098
0.092937
0.091942
0.091326
0.089575
0.088978
0.087185
0.087528
0.0882
0.09119
0.11082
0.14168
0.0931
0.092939
0.091943
0.091328
0.089573
0.088979
0.087179
0.087523
0.088174
0.091179
0.10973
0.13896
0.093101
0.092941
0.091944
0.09133
0.089572
0.088979
0.087173
0.087517
0.088143
0.091155
0.10864
0.13646
0.093103
0.092943
0.091945
0.091333
0.089571
0.08898
0.087165
0.08751
0.088107
0.091116
0.10755
0.13416
0.093106
0.092946
0.091946
0.091336
0.089569
0.08898
0.087157
0.087502
0.088065
0.091062
0.10648
0.13202
0.093108
0.092949
0.091947
0.091338
0.089568
0.088981
0.087148
0.087492
0.088018
0.090993
0.10545
0.13002
0.093111
0.092953
0.091949
0.091342
0.089567
0.088981
0.087139
0.087482
0.087965
0.090911
0.10445
0.12813
0.093114
0.092956
0.091951
0.091345
0.089565
0.08898
0.087128
0.08747
0.087907
0.090817
0.10349
0.12634
0.093118
0.09296
0.091953
0.091348
0.089564
0.08898
0.087117
0.087457
0.087843
0.090711
0.10258
0.12465
0.093122
0.092965
0.091956
0.091352
0.089562
0.088979
0.087105
0.087442
0.087773
0.090596
0.10171
0.12303
0.093126
0.092969
0.091959
0.091355
0.089561
0.088979
0.087092
0.087427
0.087697
0.090472
0.10087
0.12149
0.093131
0.092974
0.091961
0.091359
0.089559
0.088978
0.087078
0.08741
0.087616
0.090341
0.10008
0.12001
0.093136
0.09298
0.091965
0.091363
0.089557
0.088977
0.087063
0.087391
0.087529
0.090205
0.099313
0.11859
0.093141
0.092985
0.091968
0.091367
0.089556
0.088975
0.087048
0.087372
0.087435
0.090064
0.098581
0.11723
0.093147
0.092991
0.091972
0.091372
0.089554
0.088974
0.087031
0.087351
0.087337
0.089921
0.097877
0.11592
0.093152
0.092997
0.091976
0.091376
0.089553
0.088972
0.087014
0.087328
0.087233
0.089776
0.097196
0.11466
0.093159
0.093004
0.09198
0.091381
0.089551
0.08897
0.086996
0.087304
0.087123
0.089631
0.096536
0.11344
0.093165
0.093011
0.091985
0.091386
0.089549
0.088968
0.086978
0.087279
0.087009
0.089485
0.095894
0.11225
0.093172
0.093018
0.091989
0.091391
0.089548
0.088966
0.086958
0.087252
0.08689
0.089339
0.095267
0.11111
0.09318
0.093025
0.091994
0.091396
0.089546
0.088963
0.086938
0.087223
0.086767
0.089195
0.094652
0.10999
0.093188
0.093033
0.092
0.091402
0.089544
0.08896
0.086917
0.087193
0.08664
0.089052
0.094048
0.1089
0.093196
0.093041
0.092005
0.091408
0.089542
0.088957
0.086895
0.087161
0.086509
0.08891
0.093453
0.10784
0.093204
0.09305
0.092011
0.091413
0.089541
0.088954
0.086872
0.087128
0.086374
0.08877
0.092865
0.10681
0.093213
0.093059
0.092017
0.09142
0.089539
0.088951
0.086849
0.087093
0.086237
0.088631
0.092284
0.1058
0.093222
0.093068
0.092024
0.091426
0.089537
0.088948
0.086824
0.087056
0.086098
0.088493
0.091709
0.10481
0.093232
0.093078
0.09203
0.091432
0.089535
0.088944
0.086799
0.087017
0.085956
0.088356
0.091138
0.10383
0.093242
0.093088
0.092037
0.091439
0.089534
0.08894
0.086773
0.086977
0.085812
0.08822
0.090571
0.10288
0.093252
0.093098
0.092045
0.091446
0.089532
0.088936
0.086746
0.086935
0.085667
0.088085
0.090009
0.10195
0.093263
0.093108
0.092052
0.091453
0.08953
0.088932
0.086719
0.086891
0.08552
0.08795
0.08945
0.10103
0.093274
0.09312
0.09206
0.09146
0.089528
0.088927
0.08669
0.086845
0.085373
0.087814
0.088895
0.10013
0.093286
0.093131
0.092068
0.091468
0.089526
0.088922
0.086661
0.086798
0.085226
0.087678
0.088344
0.099247
0.093298
0.093143
0.092077
0.091475
0.089525
0.088918
0.086631
0.086749
0.085078
0.087542
0.087797
0.098377
0.09331
0.093155
0.092086
0.091483
0.089523
0.088912
0.0866
0.086699
0.08493
0.087404
0.087253
0.097523
0.093323
0.093167
0.092095
0.091491
0.089521
0.088907
0.086568
0.086648
0.084782
0.087265
0.086714
0.096682
0.093336
0.09318
0.092104
0.0915
0.089519
0.088902
0.086535
0.086594
0.084634
0.087125
0.086179
0.095856
0.093349
0.093194
0.092114
0.091508
0.089518
0.088896
0.086501
0.08654
0.084487
0.086983
0.085649
0.095045
0.093363
0.093207
0.092124
0.091517
0.089516
0.08889
0.086466
0.086484
0.084341
0.086838
0.085124
0.094246
0.093378
0.093221
0.092135
0.091526
0.089514
0.088884
0.08643
0.086428
0.084195
0.086692
0.084605
0.093462
0.093393
0.093236
0.092145
0.091535
0.089512
0.088878
0.086394
0.08637
0.08405
0.086543
0.08409
0.092691
0.093408
0.093251
0.092156
0.091544
0.089511
0.088871
0.086356
0.086311
0.083905
0.086392
0.083581
0.091933
0.093424
0.093266
0.092168
0.091554
0.089509
0.088865
0.086318
0.086252
0.083761
0.086238
0.083079
0.091188
0.09344
0.093282
0.09218
0.091564
0.089508
0.088858
0.086278
0.086192
0.083618
0.086082
0.082582
0.090456
0.093456
0.093298
0.092192
0.091574
0.089506
0.088851
0.086238
0.086131
0.083475
0.085924
0.082092
0.089737
0.093473
0.093315
0.092204
0.091584
0.089505
0.088843
0.086196
0.08607
0.083333
0.085762
0.081608
0.089031
0.093491
0.093331
0.092217
0.091595
0.089503
0.088836
0.086154
0.086009
0.083192
0.085598
0.08113
0.088337
0.093509
0.093349
0.09223
0.091606
0.089502
0.088828
0.086111
0.085948
0.083051
0.085432
0.08066
0.087656
0.093527
0.093367
0.092244
0.091617
0.0895
0.08882
0.086066
0.085886
0.08291
0.085263
0.080196
0.086986
0.093546
0.093385
0.092257
0.091628
0.089499
0.088812
0.086021
0.085824
0.082769
0.085091
0.079739
0.086329
0.093565
0.093403
0.092272
0.091639
0.089498
0.088803
0.085975
0.085763
0.082628
0.084917
0.079289
0.085683
0.093585
0.093423
0.092286
0.091651
0.089497
0.088794
0.085928
0.085701
0.082488
0.084741
0.078845
0.085049
0.093605
0.093442
0.092301
0.091663
0.089496
0.088786
0.085879
0.08564
0.082347
0.084562
0.078409
0.084425
0.093626
0.093462
0.092317
0.091675
0.089495
0.088776
0.085831
0.08558
0.082206
0.084382
0.07798
0.083813
0.093647
0.093483
0.092332
0.091688
0.089494
0.088767
0.085781
0.085519
0.082065
0.084199
0.077557
0.083212
0.093669
0.093503
0.092348
0.0917
0.089493
0.088757
0.08573
0.085459
0.081923
0.084014
0.077141
0.082621
0.093691
0.093525
0.092365
0.091713
0.089492
0.088747
0.085679
0.0854
0.081781
0.083827
0.076731
0.082041
0.093714
0.093547
0.092382
0.091727
0.089492
0.088737
0.085627
0.085341
0.081638
0.083638
0.076329
0.08147
0.093737
0.093569
0.092399
0.09174
0.089491
0.088727
0.085574
0.085283
0.081494
0.083448
0.075932
0.080909
0.093761
0.093592
0.092417
0.091754
0.089491
0.088716
0.08552
0.085225
0.08135
0.083256
0.075542
0.080358
0.093785
0.093615
0.092435
0.091768
0.089491
0.088705
0.085466
0.085167
0.081205
0.083062
0.075158
0.079816
0.09381
0.093638
0.092454
0.091782
0.089491
0.088694
0.085412
0.08511
0.081059
0.082867
0.07478
0.079282
0.093835
0.093663
0.092473
0.091796
0.089491
0.088682
0.085356
0.085054
0.080912
0.082671
0.074408
0.078757
0.093861
0.093687
0.092492
0.091811
0.089491
0.08867
0.085301
0.084998
0.080764
0.082474
0.074042
0.078241
0.093887
0.093712
0.092512
0.091826
0.089492
0.088658
0.085245
0.084943
0.080616
0.082275
0.073682
0.077732
0.093914
0.093738
0.092532
0.091841
0.089492
0.088646
0.085188
0.084888
0.080467
0.082075
0.073326
0.077232
0.093941
0.093764
0.092553
0.091856
0.089493
0.088634
0.085131
0.084833
0.080317
0.081874
0.072977
0.076739
0.093969
0.093791
0.092574
0.091872
0.089494
0.088621
0.085074
0.084778
0.080166
0.081672
0.072632
0.076253
0.093998
0.093818
0.092596
0.091888
0.089495
0.088608
0.085017
0.084724
0.080014
0.08147
0.072293
0.075774
0.094027
0.093846
0.092618
0.091905
0.089496
0.088595
0.084959
0.08467
0.079862
0.081266
0.071958
0.075302
0.094056
0.093874
0.092641
0.091921
0.089498
0.088581
0.084902
0.084615
0.079709
0.081062
0.071628
0.074837
0.094087
0.093903
0.092664
0.091938
0.089499
0.088568
0.084844
0.084561
0.079555
0.080857
0.071303
0.074378
0.094117
0.093933
0.092688
0.091955
0.089501
0.088554
0.084786
0.084507
0.079401
0.080652
0.070983
0.073926
0.094149
0.093963
0.092712
0.091973
0.089503
0.08854
0.084728
0.084452
0.079246
0.080446
0.070666
0.073479
0.094181
0.093993
0.092737
0.091991
0.089506
0.088526
0.084671
0.084398
0.079091
0.08024
0.070355
0.073038
0.094214
0.094025
0.092762
0.092009
0.089508
0.088512
0.084613
0.084343
0.078935
0.080034
0.070047
0.072603
0.094247
0.094056
0.092788
0.092027
0.089511
0.088498
0.084555
0.084287
0.07878
0.079827
0.069743
0.072173
0.094281
0.094089
0.092815
0.092046
0.089514
0.088483
0.084498
0.084232
0.078624
0.07962
0.069443
0.071749
0.094316
0.094122
0.092842
0.092065
0.089517
0.088469
0.08444
0.084175
0.078467
0.079413
0.069148
0.071329
0.094351
0.094155
0.092869
0.092085
0.089521
0.088455
0.084383
0.084118
0.078311
0.079205
0.068855
0.070915
0.094387
0.09419
0.092897
0.092105
0.089525
0.088441
0.084326
0.084061
0.078155
0.078998
0.068567
0.070506
0.094424
0.094225
0.092926
0.092125
0.089529
0.088427
0.084269
0.084003
0.077999
0.07879
0.068282
0.070101
0.094462
0.09426
0.092956
0.092146
0.089533
0.088413
0.084213
0.083944
0.077843
0.078583
0.068001
0.069701
0.0945
0.094296
0.092986
0.092167
0.089538
0.088399
0.084156
0.083884
0.077687
0.078376
0.067723
0.069305
0.094539
0.094334
0.093017
0.092188
0.089543
0.088385
0.0841
0.083824
0.077531
0.078169
0.067449
0.068914
0.094579
0.094371
0.093048
0.09221
0.089548
0.088372
0.084044
0.083763
0.077376
0.077962
0.067177
0.068527
0.094619
0.09441
0.09308
0.092233
0.089554
0.088359
0.083988
0.083701
0.077221
0.077755
0.066909
0.068144
0.094661
0.094449
0.093113
0.092256
0.08956
0.088346
0.083933
0.083638
0.077067
0.077548
0.066644
0.067765
0.094703
0.094489
0.093147
0.092279
0.089567
0.088334
0.083877
0.083574
0.076913
0.077342
0.066383
0.067391
0.094746
0.09453
0.093181
0.092303
0.089573
0.088322
0.083822
0.08351
0.07676
0.077136
0.066124
0.06702
0.09479
0.094572
0.093217
0.092327
0.089581
0.08831
0.083767
0.083444
0.076607
0.076931
0.065868
0.066653
0.094835
0.094614
0.093253
0.092352
0.089588
0.088299
0.083712
0.083378
0.076455
0.076725
0.065615
0.06629
0.094881
0.094658
0.09329
0.092378
0.089596
0.088289
0.083658
0.083311
0.076304
0.076521
0.065366
0.065931
0.094927
0.094702
0.093327
0.092404
0.089605
0.088279
0.083603
0.083243
0.076153
0.076316
0.065118
0.065575
0.094975
0.094747
0.093366
0.092431
0.089614
0.08827
0.083549
0.083174
0.076003
0.076113
0.064874
0.065223
0.095024
0.094794
0.093406
0.092458
0.089623
0.088262
0.083495
0.083104
0.075854
0.075909
0.064633
0.064874
0.095073
0.094841
0.093446
0.092487
0.089633
0.088254
0.083442
0.083033
0.075706
0.075707
0.064394
0.064528
0.095124
0.094889
0.093488
0.092516
0.089644
0.088247
0.083388
0.082962
0.075558
0.075504
0.064157
0.064186
0.095176
0.094938
0.09353
0.092545
0.089655
0.088241
0.083335
0.082889
0.075411
0.075303
0.063924
0.063848
0.095229
0.094989
0.093574
0.092576
0.089666
0.088235
0.083282
0.082816
0.075265
0.075101
0.063692
0.063512
0.095284
0.09504
0.093619
0.092607
0.089679
0.088231
0.083229
0.082742
0.07512
0.074901
0.063464
0.06318
0.095339
0.095093
0.093665
0.09264
0.089692
0.088227
0.083177
0.082668
0.074976
0.074701
0.063237
0.062851
0.095396
0.095147
0.093712
0.092673
0.089705
0.088224
0.083124
0.082593
0.074833
0.074502
0.063014
0.062525
0.095454
0.095202
0.09376
0.092707
0.08972
0.088223
0.083073
0.082517
0.074691
0.074303
0.062792
0.062201
0.095514
0.095259
0.093809
0.092743
0.089735
0.088222
0.083021
0.082441
0.07455
0.074105
0.062573
0.061881
0.095575
0.095317
0.09386
0.092779
0.089751
0.088222
0.08297
0.082364
0.07441
0.073907
0.062356
0.061564
0.095637
0.095376
0.093913
0.092817
0.089767
0.088223
0.08292
0.082287
0.07427
0.073711
0.062141
0.061249
0.095701
0.095437
0.093966
0.092855
0.089785
0.088226
0.082869
0.082209
0.074132
0.073514
0.061929
0.060937
0.095766
0.095499
0.094021
0.092895
0.089804
0.088229
0.08282
0.082131
0.073995
0.073319
0.061718
0.060628
0.095833
0.095563
0.094078
0.092937
0.089823
0.088234
0.082771
0.082052
0.073859
0.073124
0.06151
0.060321
0.095902
0.095628
0.094136
0.09298
0.089844
0.08824
0.082723
0.081973
0.073723
0.07293
0.061304
0.060017
0.095972
0.095696
0.094196
0.093024
0.089866
0.088247
0.082676
0.081894
0.073589
0.072736
0.0611
0.059715
0.096044
0.095765
0.094258
0.09307
0.089888
0.088256
0.082629
0.081815
0.073456
0.072543
0.060898
0.059416
0.096119
0.095835
0.094321
0.093117
0.089913
0.088266
0.082583
0.081736
0.073324
0.072351
0.060697
0.059119
0.096195
0.095908
0.094386
0.093166
0.089938
0.088277
0.082539
0.081656
0.073194
0.07216
0.060499
0.058825
0.096273
0.095983
0.094453
0.093217
0.089965
0.088289
0.082495
0.081577
0.073064
0.071969
0.060303
0.058533
0.096353
0.09606
0.094523
0.09327
0.089993
0.088303
0.082452
0.081498
0.072936
0.071779
0.060108
0.058243
0.096435
0.096139
0.094594
0.093325
0.090023
0.088318
0.082411
0.081419
0.072809
0.071589
0.059915
0.057955
0.09652
0.09622
0.094667
0.093381
0.090054
0.088335
0.082371
0.08134
0.072683
0.0714
0.059724
0.057669
0.096607
0.096303
0.094743
0.09344
0.090087
0.088354
0.082332
0.081262
0.072558
0.071212
0.059535
0.057385
0.096696
0.096389
0.094821
0.093501
0.090122
0.088374
0.082295
0.081183
0.072435
0.071025
0.059347
0.057103
0.096788
0.096478
0.094901
0.093565
0.090159
0.088396
0.08226
0.081106
0.072313
0.070838
0.059161
0.056823
0.096882
0.096569
0.094984
0.093631
0.090197
0.088419
0.082226
0.081029
0.072192
0.070653
0.058977
0.056545
0.09698
0.096663
0.09507
0.093699
0.090238
0.088445
0.082194
0.080952
0.072073
0.070468
0.058794
0.056268
0.09708
0.096759
0.095158
0.09377
0.090281
0.088472
0.082164
0.080877
0.071956
0.070283
0.058612
0.055993
0.097183
0.096859
0.095249
0.093844
0.090326
0.088501
0.082136
0.080802
0.07184
0.0701
0.058433
0.05572
0.097289
0.096962
0.095343
0.093921
0.090374
0.088532
0.082111
0.080728
0.071725
0.069917
0.058255
0.055449
0.097398
0.097067
0.095441
0.094
0.090424
0.088566
0.082087
0.080655
0.071613
0.069735
0.058078
0.055179
0.097511
0.097176
0.095541
0.094083
0.090476
0.088601
0.082066
0.080584
0.071502
0.069554
0.057902
0.05491
0.097627
0.097289
0.095645
0.09417
0.090532
0.088639
0.082048
0.080514
0.071392
0.069374
0.057728
0.054643
0.097746
0.097405
0.095752
0.094259
0.09059
0.088679
0.082032
0.080445
0.071285
0.069195
0.057556
0.054377
0.097869
0.097525
0.095863
0.094352
0.090652
0.088722
0.082019
0.080377
0.07118
0.069017
0.057385
0.054113
0.097996
0.097649
0.095977
0.094449
0.090717
0.088767
0.082008
0.080311
0.071076
0.06884
0.057215
0.053849
0.098127
0.097776
0.096096
0.09455
0.090785
0.088815
0.082001
0.080247
0.070975
0.068663
0.057046
0.053587
0.098262
0.097908
0.096218
0.094654
0.090856
0.088865
0.081998
0.080185
0.070876
0.068488
0.056879
0.053326
0.098401
0.098044
0.096345
0.094763
0.090932
0.088919
0.081997
0.080124
0.070779
0.068314
0.056713
0.053066
0.098544
0.098184
0.096476
0.094876
0.091011
0.088976
0.082
0.080066
0.070684
0.068141
0.056548
0.052807
0.098692
0.098329
0.096611
0.094994
0.091094
0.089035
0.082006
0.08001
0.070592
0.067969
0.056385
0.05255
0.098844
0.098479
0.096751
0.095116
0.091181
0.089099
0.082017
0.079956
0.070502
0.067799
0.056222
0.052293
0.099002
0.098634
0.096896
0.095243
0.091273
0.089165
0.082031
0.079905
0.070415
0.06763
0.056061
0.052036
0.099164
0.098793
0.097046
0.095375
0.091369
0.089235
0.082049
0.079856
0.070331
0.067462
0.055901
0.051781
0.099331
0.098958
0.097201
0.095512
0.09147
0.089309
0.082071
0.07981
0.070249
0.067295
0.055742
0.051526
0.099504
0.099128
0.097361
0.095654
0.091576
0.089387
0.082098
0.079767
0.07017
0.06713
0.055585
0.051272
0.099682
0.099304
0.097527
0.095802
0.091687
0.089469
0.082129
0.079727
0.070094
0.066966
0.055428
0.051019
0.099866
0.099486
0.097698
0.095956
0.091803
0.089555
0.082165
0.079689
0.070021
0.066804
0.055272
0.050766
0.10006
0.099673
0.097876
0.096115
0.091925
0.089645
0.082206
0.079656
0.069951
0.066643
0.055118
0.050513
0.10025
0.099867
0.098059
0.09628
0.092052
0.08974
0.082251
0.079625
0.069885
0.066484
0.054965
0.050261
0.10045
0.10007
0.098249
0.096452
0.092185
0.089839
0.082302
0.079598
0.069821
0.066326
0.054812
0.050009
0.10066
0.10027
0.098445
0.09663
0.092324
0.089944
0.082357
0.079575
0.069761
0.06617
0.054661
0.049757
0.10087
0.10049
0.098647
0.096814
0.09247
0.090053
0.082418
0.079556
0.069705
0.066016
0.05451
0.049506
0.1011
0.10071
0.098857
0.097006
0.092622
0.090167
0.082485
0.07954
0.069652
0.065863
0.05436
0.049255
0.10132
0.10093
0.099073
0.097204
0.092781
0.090287
0.082557
0.079529
0.069602
0.065712
0.054212
0.049003
0.10156
0.10117
0.099297
0.09741
0.092947
0.090412
0.082635
0.079521
0.069557
0.065563
0.054064
0.048752
0.1018
0.10141
0.099528
0.097622
0.093119
0.090543
0.082719
0.079518
0.069515
0.065416
0.053916
0.0485
0.10205
0.10166
0.099767
0.097843
0.093299
0.09068
0.082809
0.079519
0.069476
0.065271
0.05377
0.048249
0.1023
0.10191
0.10001
0.098071
0.093487
0.090823
0.082905
0.079525
0.069442
0.065127
0.053624
0.047996
0.10257
0.10218
0.10027
0.098307
0.093682
0.090972
0.083008
0.079535
0.069411
0.064985
0.053479
0.047744
0.10284
0.10245
0.10053
0.098551
0.093885
0.091128
0.083117
0.079549
0.069385
0.064845
0.053334
0.04749
0.10312
0.10273
0.1008
0.098803
0.094096
0.091289
0.083232
0.079569
0.069362
0.064707
0.053189
0.047236
0.10341
0.10302
0.10108
0.099064
0.094315
0.091458
0.083354
0.079593
0.069343
0.064571
0.053045
0.046981
0.1037
0.10332
0.10137
0.099333
0.094543
0.091633
0.083482
0.079622
0.069328
0.064436
0.052901
0.046725
0.10401
0.10363
0.10166
0.099611
0.094779
0.091816
0.083618
0.079656
0.069317
0.064303
0.052757
0.046468
0.10432
0.10394
0.10197
0.099898
0.095024
0.092005
0.08376
0.079695
0.06931
0.064171
0.052613
0.046209
0.10464
0.10426
0.10228
0.10019
0.095278
0.092202
0.083909
0.079738
0.069307
0.064041
0.052469
0.045948
0.10497
0.1046
0.10261
0.1005
0.095541
0.092406
0.084065
0.079787
0.069307
0.063913
0.052325
0.045686
0.10531
0.10494
0.10294
0.10081
0.095813
0.092617
0.084228
0.07984
0.069312
0.063786
0.052179
0.045422
0.10566
0.10529
0.10328
0.10114
0.096095
0.092836
0.084398
0.079899
0.069319
0.063659
0.052033
0.045156
0.10602
0.10566
0.10364
0.10147
0.096386
0.093063
0.084575
0.079962
0.069331
0.063534
0.051886
0.044887
0.10638
0.10603
0.104
0.10182
0.096686
0.093297
0.084759
0.08003
0.069346
0.06341
0.051738
0.044615
0.10676
0.10641
0.10437
0.10217
0.096997
0.09354
0.08495
0.080103
0.069364
0.063286
0.051588
0.04434
0.10714
0.1068
0.10476
0.10254
0.097317
0.09379
0.085148
0.08018
0.069385
0.063163
0.051437
0.044062
0.10754
0.1072
0.10515
0.10291
0.097647
0.094049
0.085354
0.080263
0.069409
0.06304
0.051283
0.043779
0.10794
0.10761
0.10556
0.1033
0.097988
0.094316
0.085566
0.080349
0.069435
0.062917
0.051127
0.043493
0.10836
0.10804
0.10597
0.10369
0.098339
0.094592
0.085785
0.08044
0.069464
0.062794
0.050969
0.043202
0.10878
0.10847
0.1064
0.1041
0.0987
0.094875
0.086011
0.080536
0.069496
0.06267
0.050807
0.042907
0.10922
0.10892
0.10684
0.10452
0.099072
0.095168
0.086245
0.080635
0.069529
0.062545
0.050642
0.042606
0.10966
0.10937
0.10728
0.10495
0.099455
0.095469
0.086485
0.080739
0.069564
0.062419
0.050472
0.042299
0.11012
0.10984
0.10775
0.10539
0.099849
0.095779
0.086732
0.080846
0.0696
0.062292
0.050299
0.041985
0.11058
0.11032
0.10822
0.10584
0.10025
0.096098
0.086986
0.080957
0.069638
0.062163
0.050121
0.041665
0.11106
0.11081
0.1087
0.10631
0.10067
0.096426
0.087247
0.081072
0.069676
0.062031
0.049937
0.041338
0.11155
0.11131
0.1092
0.10679
0.1011
0.096764
0.087514
0.081191
0.069715
0.061897
0.049748
0.041002
0.11205
0.11183
0.10971
0.10728
0.10154
0.097112
0.087789
0.081313
0.069754
0.06176
0.049552
0.040659
0.11257
0.11236
0.11024
0.10779
0.102
0.097469
0.088071
0.081438
0.069794
0.061619
0.04935
0.040306
0.11309
0.11291
0.11078
0.10831
0.10246
0.097837
0.08836
0.081567
0.069833
0.061475
0.04914
0.039943
0.11364
0.11347
0.11134
0.10884
0.10295
0.098216
0.088656
0.081699
0.069871
0.061326
0.048923
0.03957
0.11419
0.11404
0.11191
0.10939
0.10344
0.098606
0.08896
0.081834
0.069908
0.061173
0.048697
0.039186
0.11476
0.11464
0.1125
0.10996
0.10395
0.099008
0.089272
0.081972
0.069944
0.061015
0.048462
0.03879
0.11535
0.11525
0.1131
0.11055
0.10448
0.099423
0.089592
0.082114
0.069979
0.060852
0.048217
0.038382
0.11595
0.11587
0.11373
0.11115
0.10502
0.099851
0.089921
0.082259
0.070012
0.060682
0.047962
0.037961
0.11657
0.11652
0.11438
0.11178
0.10559
0.10029
0.090259
0.082408
0.070044
0.060507
0.047696
0.037525
0.11721
0.11719
0.11504
0.11242
0.10617
0.10075
0.090606
0.08256
0.070074
0.060325
0.047419
0.037075
0.11787
0.11788
0.11574
0.11309
0.10677
0.10122
0.090964
0.082717
0.070101
0.060137
0.047129
0.03661
0.11855
0.1186
0.11645
0.11378
0.10739
0.10171
0.091332
0.082878
0.070127
0.059941
0.046827
0.036128
0.11926
0.11934
0.1172
0.1145
0.10804
0.10222
0.091713
0.083044
0.07015
0.059737
0.046511
0.035629
0.11999
0.12011
0.11797
0.11525
0.10872
0.10275
0.092107
0.083215
0.070171
0.059526
0.046181
0.035111
0.12075
0.12092
0.11878
0.11603
0.10942
0.1033
0.092514
0.083392
0.070189
0.059306
0.045836
0.034575
0.12154
0.12175
0.11962
0.11684
0.11015
0.10388
0.092936
0.083575
0.070205
0.059077
0.045475
0.034018
0.12236
0.12262
0.12049
0.11769
0.11092
0.10448
0.093375
0.083764
0.070219
0.058839
0.045097
0.03344
0.12321
0.12352
0.12141
0.11858
0.11172
0.1051
0.09383
0.083961
0.07023
0.058591
0.044702
0.03284
0.1241
0.12447
0.12237
0.11951
0.11256
0.10576
0.094304
0.084164
0.070237
0.058332
0.044287
0.032216
0.12503
0.12546
0.12337
0.12048
0.11344
0.10644
0.094798
0.084376
0.070242
0.058061
0.043853
0.031568
0.126
0.1265
0.12443
0.1215
0.11436
0.10716
0.095312
0.084595
0.070242
0.057778
0.043397
0.030892
0.12701
0.12758
0.12554
0.12257
0.11532
0.10791
0.095848
0.084821
0.070237
0.05748
0.042918
0.030189
0.12807
0.12872
0.1267
0.1237
0.11634
0.1087
0.096407
0.085056
0.070227
0.057167
0.042414
0.029455
0.12917
0.12991
0.12792
0.12488
0.11741
0.10952
0.096989
0.085297
0.070209
0.056836
0.041883
0.028689
0.13032
0.13115
0.12921
0.12612
0.11853
0.11039
0.097594
0.085544
0.070182
0.056485
0.041321
0.027889
0.13153
0.13246
0.13056
0.12743
0.11971
0.11129
0.098223
0.085796
0.070145
0.056111
0.040727
0.027052
0.13278
0.13382
0.13197
0.1288
0.12094
0.11224
0.098876
0.086052
0.070094
0.055711
0.040096
0.026175
0.13409
0.13525
0.13346
0.13024
0.12224
0.11322
0.099551
0.086308
0.070026
0.055281
0.039425
0.025254
0.13545
0.13675
0.13503
0.13175
0.1236
0.11425
0.10025
0.086562
0.069937
0.054817
0.03871
0.024285
0.13687
0.1383
0.13667
0.13333
0.12502
0.11533
0.10096
0.086812
0.069824
0.054314
0.037945
0.023265
0.13833
0.13993
0.13839
0.13499
0.12651
0.11644
0.1017
0.087053
0.069681
0.053766
0.037125
0.022187
0.13986
0.14162
0.14019
0.13672
0.12807
0.11759
0.10245
0.08728
0.069504
0.053168
0.036244
0.021047
0.14143
0.14339
0.14208
0.13854
0.12969
0.11879
0.10321
0.087489
0.069285
0.052512
0.035296
0.019839
0.14306
0.14522
0.14405
0.14044
0.13138
0.12002
0.10398
0.087673
0.069019
0.051793
0.034274
0.018555
0.14473
0.14712
0.14611
0.14243
0.13314
0.12129
0.10475
0.087828
0.068698
0.051002
0.03317
0.017189
0.14646
0.1491
0.14827
0.14451
0.13498
0.12259
0.10551
0.087945
0.068315
0.050131
0.031978
0.015732
0.14823
0.15115
0.15053
0.14669
0.13689
0.12393
0.10628
0.088018
0.067861
0.049174
0.030689
0.014178
0.15006
0.15329
0.1529
0.14897
0.13887
0.1253
0.10702
0.088037
0.067327
0.04812
0.029295
0.012518
0.15193
0.15551
0.15538
0.15136
0.14094
0.1267
0.10775
0.087994
0.066702
0.046961
0.027789
0.010745
0.15385
0.15783
0.158
0.15389
0.14309
0.12813
0.10844
0.087877
0.065976
0.045687
0.026162
0.0088495
0.15582
0.16026
0.16076
0.15655
0.14533
0.12958
0.1091
0.087673
0.065134
0.044285
0.024404
0.0068251
0.15785
0.1628
0.16369
0.15937
0.14767
0.13106
0.1097
0.087367
0.06416
0.042743
0.022505
0.0046632
0.15992
0.16548
0.16681
0.16238
0.15012
0.13255
0.11024
0.086939
0.063034
0.041042
0.02045
0.0023553
0.16204
0.16831
0.17013
0.16558
0.15267
0.13406
0.11068
0.086363
0.06173
0.039161
0.018225
-0.00010878
0.1642
0.1713
0.1737
0.16899
0.15534
0.13556
0.11101
0.085609
0.060217
0.037075
0.01581
-0.0027413
0.16639
0.17448
0.17753
0.17265
0.15813
0.13703
0.11119
0.084638
0.058458
0.034751
0.013178
-0.005558
0.16858
0.17784
0.18166
0.17657
0.16102
0.13844
0.11117
0.083401
0.056406
0.03215
0.010298
-0.0085786
0.17073
0.18139
0.18609
0.18074
0.16399
0.13975
0.11091
0.081843
0.05401
0.029227
0.0071357
-0.011828
0.17278
0.18512
0.19086
0.18518
0.16702
0.14089
0.11033
0.079898
0.051209
0.025932
0.0036493
-0.015334
0.17464
0.189
0.19595
0.18986
0.17005
0.1418
0.10934
0.07749
0.047943
0.022215
-0.0002023
-0.019126
0.17619
0.19298
0.20137
0.19475
0.17301
0.14238
0.10787
0.074539
0.044145
0.018026
-0.004457
-0.023233
0.17729
0.19701
0.20708
0.19979
0.1758
0.1425
0.10579
0.070953
0.039753
0.013323
-0.0091437
-0.027672
0.17772
0.20097
0.21302
0.20488
0.17828
0.14201
0.10297
0.066639
0.034706
0.0080729
-0.014277
-0.032446
0.17724
0.20473
0.21909
0.2099
0.18027
0.14074
0.099278
0.061495
0.028948
0.0022548
-0.019853
-0.037536
0.17552
0.20805
0.22509
0.21461
0.18153
0.13846
0.094533
0.055412
0.022425
-0.0041428
-0.025849
-0.042898
0.17217
0.21062
0.23068
0.21866
0.18171
0.1349
0.088552
0.048279
0.015088
-0.011122
-0.032229
-0.048465
0.1667
0.21187
0.23524
0.22145
0.18034
0.12973
0.081136
0.039997
0.006901
-0.018675
-0.038942
-0.054159
0.15854
0.21093
0.23765
0.22198
0.17672
0.12255
0.072095
0.030504
-0.0021294
-0.026762
-0.045924
-0.059894
0.14712
0.20638
0.23604
0.21865
0.16984
0.11288
0.061281
0.019821
-0.011918
-0.035289
-0.053079
-0.065579
0.13194
0.19611
0.22745
0.20899
0.15828
0.10016
0.048613
0.0080845
-0.022263
-0.04407
-0.060262
-0.071116
0.11291
0.17715
0.20754
0.18945
0.14006
0.083664
0.034048
-0.0044805
-0.03287
-0.052838
-0.067276
-0.076392
0.090732
0.14603
0.17068
0.15539
0.1126
0.062394
0.017422
-0.017695
-0.043461
-0.061324
-0.073919
-0.081303
0.067296
0.099693
0.11112
0.10167
0.072776
0.034914
-0.0017376
-0.031607
-0.05392
-0.069376
-0.080064
-0.085792
0.045183
0.036048
0.025031
0.024415
0.017627
-0.00051168
-0.024248
-0.046536
-0.064353
-0.077014
-0.085716
-0.0899
0.027629
-0.049333
-0.092094
-0.080137
-0.056342
-0.046518
-0.051675
-0.063319
-0.075244
-0.084578
-0.091151
-0.093905
0.029123
-0.14829
-0.23335
-0.20676
-0.14774
-0.1042
-0.085695
-0.083429
-0.087788
-0.093067
-0.097231
-0.09858
0.062714
-0.23746
-0.37116
-0.33028
-0.2386
-0.16379
-0.12221
-0.1056
-0.10183
-0.10266
-0.10424
-0.10409
0.098613
0.05868
0.048272
0.041975
0.037578
0.034279
0.031626
0.029424
0.027508
0.025853
0.024297
0.022918
0.11722
0.073169
0.060264
0.051931
0.046183
0.041926
0.038534
0.035744
0.033332
0.031263
0.029324
0.027711
0.10501
0.068647
0.056998
0.048839
0.0432
0.03905
0.035762
0.033076
0.030768
0.028804
0.026964
0.025474
0.10003
0.068433
0.057152
0.04893
0.043175
0.038931
0.035572
0.032837
0.030492
0.02851
0.026651
0.025156
0.099232
0.070477
0.059061
0.050642
0.044655
0.040217
0.036697
0.033835
0.031383
0.029317
0.027379
0.025833
0.098407
0.072148
0.060685
0.052153
0.045983
0.041381
0.037722
0.034746
0.032195
0.030054
0.028043
0.026455
0.097116
0.073287
0.061921
0.053361
0.047059
0.042327
0.038552
0.03548
0.032846
0.03064
0.028568
0.026945
0.09575
0.074182
0.062998
0.05446
0.04806
0.043212
0.039331
0.036168
0.033457
0.031189
0.029058
0.0274
0.094446
0.074919
0.063983
0.055506
0.049036
0.044086
0.040105
0.036854
0.034064
0.031734
0.029546
0.02785
0.09319
0.075495
0.064866
0.056493
0.049983
0.044947
0.040872
0.037535
0.034669
0.032276
0.030031
0.028295
0.091965
0.075913
0.06564
0.057409
0.050893
0.045788
0.041631
0.038213
0.035273
0.032817
0.030514
0.028736
0.090771
0.076189
0.066308
0.05825
0.05176
0.046608
0.04238
0.038888
0.035876
0.033357
0.030998
0.029174
0.089611
0.076342
0.06687
0.059012
0.052578
0.0474
0.043116
0.039557
0.036479
0.033899
0.031485
0.029612
0.088489
0.076388
0.067334
0.059694
0.05334
0.048158
0.043833
0.040217
0.037079
0.03444
0.031975
0.03005
0.087406
0.076345
0.067704
0.060294
0.054043
0.048877
0.044525
0.040864
0.037673
0.03498
0.032465
0.030487
0.086364
0.076227
0.067989
0.060816
0.054684
0.049551
0.045188
0.041492
0.038257
0.035513
0.032954
0.030922
0.085364
0.076047
0.068197
0.061263
0.055262
0.050177
0.045817
0.042098
0.038826
0.036038
0.033439
0.031353
0.084407
0.075818
0.068337
0.061639
0.055777
0.050754
0.046409
0.042676
0.039377
0.036551
0.033916
0.031778
0.08349
0.07555
0.068415
0.061949
0.056232
0.05128
0.046961
0.043224
0.039907
0.037047
0.034384
0.032195
0.082614
0.075249
0.068441
0.0622
0.05663
0.051756
0.047472
0.04374
0.040412
0.037526
0.034838
0.032601
0.081776
0.074925
0.06842
0.062396
0.056974
0.052184
0.047942
0.044223
0.040891
0.037984
0.035278
0.032997
0.080975
0.074581
0.06836
0.062543
0.057267
0.052565
0.048372
0.044672
0.041342
0.03842
0.035701
0.03338
0.080208
0.074223
0.068266
0.062647
0.057515
0.052903
0.048763
0.045087
0.041766
0.038834
0.036106
0.03375
0.079473
0.073855
0.068142
0.062711
0.057719
0.053199
0.049116
0.045469
0.042161
0.039224
0.036491
0.034105
0.078767
0.073479
0.067993
0.062741
0.057885
0.053456
0.049433
0.045819
0.042528
0.03959
0.036857
0.034446
0.078089
0.073097
0.067822
0.062739
0.058015
0.053678
0.049716
0.046138
0.042868
0.039934
0.037203
0.034771
0.077437
0.072712
0.067633
0.062711
0.058114
0.053867
0.049968
0.046428
0.043182
0.040254
0.037528
0.035082
0.076808
0.072325
0.067429
0.062658
0.058183
0.054025
0.050189
0.046691
0.043471
0.040552
0.037834
0.035377
0.0762
0.071938
0.067211
0.062584
0.058226
0.054156
0.050383
0.046926
0.043735