/*--------------------------------*- C++ -*----------------------------------*\
  =========                 |
  \\      /  F ield         | OpenFOAM: The Open Source CFD Toolbox
   \\    /   O peration     | Website:  https://openfoam.org
    \\  /    A nd           | Version:  6.0
     \\/     M anipulation  |
\*---------------------------------------------------------------------------*/
FoamFile
{
    version     2.0;
    format      ascii;
    class       volScalarField;
    location    "4";
    object      p;
}
// * * * * * * * * * * * * * * * * * * * * * * * * * * * * * * * * * * * * * //

dimensions      [0 2 -2 0 0 0 0];

internalField   nonuniform List<scalar> 
14500
(
0.065298
0.065156
0.064771
0.064267
0.063561
0.063183
0.062731
0.063333
0.06523
0.068455
0.088496
0.1213
0.065299
0.065156
0.064771
0.064267
0.06356
0.063183
0.06273
0.063332
0.065228
0.068476
0.087952
0.11809
0.065299
0.065156
0.064771
0.064267
0.06356
0.063183
0.062728
0.063329
0.065223
0.068481
0.087185
0.11473
0.0653
0.065157
0.064772
0.064268
0.063559
0.063183
0.062725
0.063325
0.065212
0.068465
0.086313
0.1118
0.065301
0.065158
0.064772
0.064269
0.063559
0.063183
0.062721
0.06332
0.065197
0.068434
0.085388
0.10925
0.065302
0.065159
0.064773
0.06427
0.063558
0.063182
0.062717
0.063313
0.065177
0.068389
0.084441
0.10695
0.065304
0.065161
0.064774
0.064271
0.063557
0.063182
0.062711
0.063305
0.065152
0.06833
0.0835
0.1048
0.065305
0.065162
0.064775
0.064272
0.063557
0.06318
0.062705
0.063297
0.065122
0.068254
0.082583
0.10276
0.065307
0.065164
0.064777
0.064273
0.063556
0.063179
0.062698
0.063287
0.065087
0.068161
0.081704
0.10085
0.065309
0.065166
0.064778
0.064274
0.063555
0.063178
0.062691
0.063276
0.065047
0.068054
0.08087
0.099048
0.065311
0.065168
0.06478
0.064275
0.063553
0.063176
0.062682
0.063263
0.065001
0.067933
0.080083
0.09736
0.065314
0.06517
0.064782
0.064276
0.063552
0.063174
0.062673
0.06325
0.06495
0.0678
0.079345
0.095774
0.065317
0.065173
0.064784
0.064278
0.063551
0.063171
0.062663
0.063235
0.064892
0.067657
0.078652
0.094283
0.06532
0.065176
0.064786
0.064279
0.063549
0.063169
0.062652
0.06322
0.064828
0.067507
0.077999
0.09288
0.065323
0.065179
0.064788
0.06428
0.063548
0.063166
0.06264
0.063203
0.064758
0.067351
0.077383
0.091556
0.065326
0.065182
0.06479
0.064282
0.063546
0.063163
0.062628
0.063184
0.064682
0.067192
0.076798
0.090303
0.06533
0.065185
0.064793
0.064283
0.063545
0.063159
0.062615
0.063165
0.064599
0.067032
0.076239
0.089115
0.065334
0.065189
0.064796
0.064285
0.063543
0.063156
0.062601
0.063143
0.06451
0.066872
0.075701
0.087984
0.065338
0.065193
0.064799
0.064287
0.063541
0.063152
0.062586
0.063121
0.064416
0.066714
0.07518
0.086904
0.065343
0.065197
0.064802
0.064289
0.063539
0.063148
0.06257
0.063097
0.064316
0.066558
0.074672
0.085868
0.065348
0.065201
0.064805
0.06429
0.063537
0.063143
0.062554
0.063071
0.06421
0.066406
0.074175
0.084871
0.065353
0.065206
0.064809
0.064292
0.063535
0.063138
0.062536
0.063044
0.0641
0.066256
0.073684
0.083909
0.065358
0.06521
0.064812
0.064294
0.063533
0.063133
0.062518
0.063015
0.063985
0.066111
0.073199
0.082977
0.065363
0.065215
0.064816
0.064296
0.063531
0.063128
0.0625
0.062985
0.063866
0.06597
0.072717
0.082072
0.065369
0.06522
0.06482
0.064299
0.063528
0.063122
0.06248
0.062952
0.063744
0.065832
0.072237
0.081191
0.065375
0.065226
0.064824
0.064301
0.063526
0.063117
0.06246
0.062918
0.063619
0.065698
0.071759
0.080332
0.065382
0.065232
0.064829
0.064303
0.063524
0.06311
0.062438
0.062882
0.063491
0.065566
0.071281
0.079493
0.065388
0.065238
0.064834
0.064306
0.063521
0.063104
0.062416
0.062844
0.063361
0.065437
0.070803
0.078671
0.065395
0.065244
0.064838
0.064308
0.063518
0.063097
0.062393
0.062804
0.06323
0.065311
0.070326
0.077867
0.065402
0.06525
0.064844
0.064311
0.063516
0.063091
0.06237
0.062761
0.063098
0.065185
0.069849
0.077078
0.06541
0.065257
0.064849
0.064314
0.063513
0.063083
0.062345
0.062717
0.062966
0.065061
0.069372
0.076303
0.065418
0.065264
0.064854
0.064317
0.06351
0.063076
0.06232
0.062671
0.062833
0.064938
0.068896
0.075543
0.065426
0.065271
0.06486
0.064319
0.063507
0.063068
0.062294
0.062623
0.062701
0.064814
0.068421
0.074796
0.065434
0.065279
0.064866
0.064323
0.063505
0.06306
0.062266
0.062573
0.062569
0.06469
0.067948
0.074063
0.065443
0.065287
0.064873
0.064326
0.063502
0.063052
0.062238
0.062521
0.062438
0.064566
0.067476
0.073343
0.065452
0.065295
0.064879
0.064329
0.063499
0.063044
0.062209
0.062468
0.062308
0.06444
0.067007
0.072636
0.065462
0.065303
0.064886
0.064332
0.063496
0.063035
0.062179
0.062413
0.062179
0.064312
0.06654
0.071941
0.065471
0.065312
0.064893
0.064336
0.063493
0.063026
0.062148
0.062356
0.062052
0.064183
0.066077
0.071259
0.065481
0.065321
0.0649
0.064339
0.06349
0.063017
0.062116
0.062298
0.061926
0.064052
0.065617
0.07059
0.065492
0.065331
0.064908
0.064343
0.063487
0.063007
0.062083
0.062238
0.061802
0.063919
0.065161
0.069933
0.065503
0.06534
0.064915
0.064347
0.063484
0.062998
0.062049
0.062178
0.06168
0.063784
0.06471
0.069288
0.065514
0.06535
0.064923
0.064351
0.063481
0.062988
0.062014
0.062116
0.061558
0.063646
0.064264
0.068656
0.065525
0.06536
0.064932
0.064355
0.063477
0.062978
0.061978
0.062054
0.061439
0.063506
0.063824
0.068036
0.065537
0.065371
0.06494
0.06436
0.063474
0.062967
0.061941
0.061991
0.06132
0.063363
0.063388
0.067428
0.06555
0.065382
0.064949
0.064364
0.063471
0.062956
0.061902
0.061928
0.061203
0.063218
0.062959
0.066833
0.065562
0.065393
0.064959
0.064369
0.063468
0.062945
0.061863
0.061864
0.061086
0.06307
0.062535
0.066249
0.065575
0.065405
0.064968
0.064373
0.063465
0.062934
0.061822
0.0618
0.060971
0.062921
0.062118
0.065677
0.065589
0.065417
0.064978
0.064378
0.063463
0.062923
0.06178
0.061736
0.060856
0.062769
0.061707
0.065117
0.065602
0.065429
0.064988
0.064383
0.06346
0.062911
0.061737
0.061673
0.060742
0.062615
0.061302
0.064568
0.065617
0.065442
0.064999
0.064388
0.063457
0.062899
0.061693
0.06161
0.060628
0.062459
0.060904
0.064031
0.065631
0.065455
0.06501
0.064394
0.063454
0.062887
0.061648
0.061547
0.060514
0.0623
0.060512
0.063504
0.065646
0.065469
0.065021
0.064399
0.063451
0.062874
0.061602
0.061486
0.060399
0.062141
0.060127
0.062989
0.065662
0.065482
0.065033
0.064405
0.063449
0.062861
0.061554
0.061425
0.060285
0.061979
0.059748
0.062484
0.065678
0.065497
0.065045
0.064411
0.063446
0.062848
0.061506
0.061364
0.060169
0.061816
0.059376
0.061989
0.065694
0.065511
0.065057
0.064417
0.063444
0.062834
0.061457
0.061305
0.060054
0.061651
0.05901
0.061504
0.065711
0.065526
0.06507
0.064423
0.063442
0.062821
0.061406
0.061247
0.059937
0.061485
0.05865
0.061029
0.065728
0.065542
0.065083
0.06443
0.06344
0.062806
0.061355
0.061191
0.059819
0.061318
0.058296
0.060564
0.065746
0.065558
0.065097
0.064437
0.063438
0.062792
0.061303
0.061135
0.0597
0.06115
0.057948
0.060107
0.065765
0.065574
0.06511
0.064443
0.063436
0.062777
0.06125
0.06108
0.05958
0.06098
0.057606
0.059659
0.065783
0.065591
0.065125
0.064451
0.063435
0.062762
0.061197
0.061027
0.059458
0.06081
0.05727
0.05922
0.065803
0.065608
0.06514
0.064458
0.063433
0.062746
0.061143
0.060975
0.059335
0.060638
0.056938
0.058788
0.065822
0.065626
0.065155
0.064465
0.063432
0.062731
0.061088
0.060924
0.059211
0.060466
0.056613
0.058364
0.065843
0.065644
0.065171
0.064473
0.063431
0.062714
0.061033
0.060875
0.059085
0.060293
0.056292
0.057948
0.065864
0.065662
0.065187
0.064481
0.06343
0.062698
0.060978
0.060826
0.058958
0.06012
0.055975
0.057538
0.065885
0.065681
0.065204
0.064489
0.06343
0.062681
0.060922
0.060779
0.05883
0.059946
0.055664
0.057136
0.065907
0.065701
0.065221
0.064498
0.063429
0.062664
0.060867
0.060732
0.0587
0.059771
0.055357
0.056739
0.065929
0.065721
0.065238
0.064507
0.063429
0.062646
0.060811
0.060686
0.058568
0.059596
0.055054
0.056349
0.065953
0.065742
0.065257
0.064516
0.06343
0.062628
0.060755
0.060641
0.058436
0.059421
0.054756
0.055965
0.065976
0.065763
0.065275
0.064525
0.06343
0.06261
0.060699
0.060597
0.058302
0.059245
0.054461
0.055587
0.066001
0.065784
0.065295
0.064534
0.063431
0.062591
0.060643
0.060553
0.058167
0.059069
0.054171
0.055213
0.066025
0.065807
0.065314
0.064544
0.063432
0.062572
0.060587
0.06051
0.058031
0.058893
0.053884
0.054845
0.066051
0.06583
0.065335
0.064554
0.063434
0.062553
0.060532
0.060466
0.057895
0.058716
0.0536
0.054482
0.066077
0.065853
0.065356
0.064565
0.063436
0.062534
0.060477
0.060423
0.057757
0.058539
0.05332
0.054124
0.066104
0.065877
0.065377
0.064576
0.063438
0.062514
0.060423
0.06038
0.057619
0.058363
0.053044
0.05377
0.066131
0.065901
0.0654
0.064587
0.06344
0.062495
0.060369
0.060337
0.05748
0.058186
0.05277
0.05342
0.06616
0.065927
0.065422
0.064598
0.063443
0.062475
0.060315
0.060294
0.057341
0.058009
0.0525
0.053075
0.066188
0.065952
0.065446
0.06461
0.063447
0.062455
0.060262
0.060251
0.057202
0.057832
0.052233
0.052734
0.066218
0.065979
0.06547
0.064622
0.063451
0.062435
0.06021
0.060207
0.057062
0.057656
0.051969
0.052396
0.066248
0.066006
0.065495
0.064635
0.063455
0.062416
0.060158
0.060163
0.056922
0.057479
0.051708
0.052063
0.066279
0.066034
0.06552
0.064647
0.063459
0.062396
0.060107
0.060118
0.056782
0.057303
0.05145
0.051733
0.066311
0.066062
0.065547
0.064661
0.063464
0.062377
0.060056
0.060073
0.056642
0.057127
0.051195
0.051407
0.066344
0.066091
0.065573
0.064674
0.06347
0.062358
0.060006
0.060028
0.056503
0.056951
0.050943
0.051085
0.066377
0.066121
0.065601
0.064689
0.063476
0.062339
0.059957
0.059981
0.056364
0.056775
0.050693
0.050766
0.066411
0.066152
0.06563
0.064703
0.063482
0.062321
0.059908
0.059934
0.056225
0.0566
0.050446
0.05045
0.066446
0.066183
0.065659
0.064718
0.063489
0.062303
0.05986
0.059886
0.056086
0.056425
0.050202
0.050138
0.066482
0.066215
0.065689
0.064734
0.063496
0.062285
0.059812
0.059838
0.055948
0.05625
0.049961
0.049829
0.066519
0.066248
0.06572
0.06475
0.063504
0.062269
0.059764
0.059788
0.055811
0.056076
0.049722
0.049523
0.066556
0.066282
0.065752
0.064766
0.063512
0.062253
0.059717
0.059738
0.055675
0.055902
0.049486
0.04922
0.066595
0.066316
0.065784
0.064783
0.063521
0.062238
0.05967
0.059687
0.055539
0.055729
0.049252
0.048921
0.066634
0.066352
0.065818
0.064801
0.063531
0.062223
0.059624
0.059636
0.055404
0.055556
0.049021
0.048624
0.066674
0.066388
0.065852
0.064819
0.06354
0.06221
0.059578
0.059583
0.055269
0.055384
0.048793
0.048331
0.066715
0.066425
0.065887
0.064838
0.063551
0.062198
0.059532
0.05953
0.055136
0.055212
0.048567
0.04804
0.066758
0.066463
0.065923
0.064857
0.063562
0.062186
0.059486
0.059476
0.055003
0.055041
0.048343
0.047752
0.066801
0.066502
0.065961
0.064878
0.063574
0.062176
0.059441
0.059422
0.054872
0.054871
0.048122
0.047468
0.066845
0.066542
0.065999
0.064898
0.063586
0.062167
0.059396
0.059367
0.054741
0.054701
0.047903
0.047186
0.066891
0.066583
0.066038
0.06492
0.063599
0.062159
0.05935
0.059311
0.054611
0.054531
0.047687
0.046906
0.066937
0.066625
0.066078
0.064942
0.063612
0.062153
0.059305
0.059254
0.054482
0.054362
0.047472
0.04663
0.066984
0.066668
0.06612
0.064965
0.063626
0.062147
0.05926
0.059197
0.054354
0.054194
0.047261
0.046356
0.067033
0.066712
0.066162
0.064989
0.063641
0.062143
0.059215
0.059139
0.054228
0.054027
0.047051
0.046084
0.067083
0.066757
0.066205
0.065014
0.063656
0.062141
0.05917
0.059081
0.054102
0.05386
0.046844
0.045815
0.067134
0.066803
0.06625
0.06504
0.063672
0.06214
0.059125
0.059022
0.053977
0.053694
0.046638
0.045549
0.067186
0.06685
0.066296
0.065067
0.063689
0.06214
0.059081
0.058963
0.053853
0.053528
0.046435
0.045285
0.067239
0.066899
0.066343
0.065094
0.063706
0.062142
0.059036
0.058903
0.05373
0.053364
0.046234
0.045023
0.067294
0.066949
0.066391
0.065123
0.063724
0.062145
0.058991
0.058842
0.053607
0.0532
0.046035
0.044764
0.06735
0.067
0.06644
0.065153
0.063743
0.062149
0.058947
0.058782
0.053486
0.053036
0.045838
0.044506
0.067407
0.067052
0.066491
0.065183
0.063763
0.062155
0.058903
0.05872
0.053366
0.052873
0.045643
0.044251
0.067466
0.067105
0.066543
0.065215
0.063783
0.062163
0.058859
0.058659
0.053247
0.052711
0.04545
0.043998
0.067526
0.06716
0.066596
0.065248
0.063804
0.062172
0.058815
0.058597
0.053128
0.05255
0.045259
0.043747
0.067587
0.067216
0.066651
0.065283
0.063826
0.062182
0.058772
0.058535
0.053011
0.052389
0.04507
0.043498
0.06765
0.067274
0.066707
0.065319
0.063849
0.062194
0.058729
0.058472
0.052894
0.052228
0.044882
0.043251
0.067714
0.067333
0.066764
0.065356
0.063873
0.062207
0.058687
0.058409
0.052778
0.052069
0.044696
0.043006
0.06778
0.067394
0.066823
0.065394
0.063897
0.062222
0.058645
0.058346
0.052664
0.05191
0.044512
0.042762
0.067848
0.067456
0.066884
0.065434
0.063923
0.062238
0.058603
0.058283
0.05255
0.051751
0.04433
0.04252
0.067917
0.06752
0.066946
0.065476
0.063949
0.062255
0.058563
0.058219
0.052436
0.051593
0.044149
0.04228
0.067987
0.067585
0.067009
0.065519
0.063976
0.062274
0.058523
0.058155
0.052324
0.051436
0.04397
0.042041
0.06806
0.067652
0.067074
0.065563
0.064004
0.062294
0.058484
0.058092
0.052213
0.051279
0.043792
0.041804
0.068134
0.067721
0.067141
0.06561
0.064033
0.062316
0.058446
0.058028
0.052102
0.051122
0.043616
0.041568
0.06821
0.067792
0.067209
0.065658
0.064063
0.062339
0.058408
0.057964
0.051993
0.050966
0.043441
0.041334
0.068287
0.067864
0.067279
0.065708
0.064095
0.062363
0.058372
0.0579
0.051884
0.050811
0.043267
0.041101
0.068367
0.067938
0.06735
0.06576
0.064127
0.062389
0.058337
0.057836
0.051776
0.050656
0.043095
0.040869
0.068448
0.068014
0.067424
0.065814
0.06416
0.062416
0.058303
0.057772
0.051669
0.050501
0.042924
0.040638
0.068532
0.068093
0.067499
0.065869
0.064195
0.062444
0.058271
0.057709
0.051563
0.050347
0.042755
0.040409
0.068617
0.068173
0.067576
0.065927
0.06423
0.062473
0.05824
0.057645
0.051458
0.050193
0.042586
0.04018
0.068705
0.068255
0.067655
0.065987
0.064267
0.062504
0.05821
0.057582
0.051354
0.050039
0.042419
0.039953
0.068794
0.06834
0.067736
0.066049
0.064306
0.062536
0.058182
0.057519
0.051251
0.049886
0.042252
0.039726
0.068886
0.068426
0.067819
0.066114
0.064345
0.06257
0.058155
0.057456
0.051148
0.049733
0.042087
0.039501
0.06898
0.068515
0.067904
0.06618
0.064386
0.062605
0.05813
0.057394
0.051047
0.04958
0.041922
0.039276
0.069076
0.068607
0.067991
0.06625
0.064428
0.062641
0.058106
0.057332
0.050946
0.049428
0.041759
0.039051
0.069175
0.0687
0.06808
0.066321
0.064472
0.062678
0.058084
0.057271
0.050847
0.049276
0.041596
0.038828
0.069276
0.068797
0.068171
0.066395
0.064517
0.062717
0.058064
0.05721
0.050748
0.049124
0.041434
0.038605
0.06938
0.068895
0.068265
0.066472
0.064565
0.062758
0.058046
0.057149
0.050651
0.048973
0.041273
0.038382
0.069486
0.068997
0.068361
0.066552
0.064613
0.062799
0.05803
0.057089
0.050554
0.048821
0.041113
0.03816
0.069594
0.069101
0.068459
0.066634
0.064664
0.062843
0.058016
0.05703
0.050459
0.04867
0.040953
0.037938
0.069706
0.069208
0.06856
0.066719
0.064716
0.062887
0.058003
0.056972
0.050364
0.048519
0.040793
0.037717
0.06982
0.069318
0.068663
0.066806
0.06477
0.062934
0.057993
0.056914
0.050271
0.048368
0.040634
0.037496
0.069937
0.069431
0.068769
0.066897
0.064827
0.062981
0.057985
0.056857
0.050179
0.048217
0.040476
0.037274
0.070057
0.069547
0.068878
0.066991
0.064885
0.063031
0.057979
0.056801
0.050087
0.048067
0.040318
0.037053
0.07018
0.069666
0.068989
0.067088
0.064946
0.063082
0.057975
0.056746
0.049997
0.047916
0.04016
0.036832
0.070306
0.069789
0.069103
0.067188
0.065009
0.063134
0.057974
0.056692
0.049908
0.047766
0.040003
0.036611
0.070435
0.069914
0.06922
0.067291
0.065074
0.063189
0.057975
0.056638
0.04982
0.047615
0.039845
0.036389
0.070568
0.070044
0.069341
0.067398
0.065142
0.063245
0.057978
0.056586
0.049733
0.047465
0.039688
0.036167
0.070704
0.070176
0.069464
0.067508
0.065212
0.063303
0.057983
0.056535
0.049648
0.047315
0.039531
0.035945
0.070843
0.070313
0.06959
0.067622
0.065285
0.063363
0.057992
0.056485
0.049563
0.047164
0.039373
0.035722
0.070986
0.070453
0.06972
0.067739
0.065361
0.063424
0.058002
0.056436
0.04948
0.047014
0.039216
0.035499
0.071133
0.070597
0.069853
0.06786
0.06544
0.063488
0.058015
0.056389
0.049398
0.046864
0.039059
0.035275
0.071283
0.070745
0.06999
0.067985
0.065522
0.063554
0.058031
0.056343
0.049317
0.046713
0.038901
0.035051
0.071438
0.070898
0.070131
0.068113
0.065607
0.063623
0.058049
0.056298
0.049237
0.046563
0.038743
0.034825
0.071596
0.071054
0.070275
0.068246
0.065696
0.063693
0.05807
0.056254
0.049158
0.046412
0.038585
0.034599
0.071759
0.071215
0.070423
0.068383
0.065788
0.063766
0.058094
0.056212
0.049081
0.046262
0.038426
0.034371
0.071926
0.071381
0.070575
0.068524
0.065884
0.063841
0.058121
0.056172
0.049005
0.046111
0.038266
0.034143
0.072097
0.071551
0.070732
0.068669
0.065983
0.063919
0.05815
0.056133
0.04893
0.04596
0.038106
0.033913
0.072273
0.071726
0.070892
0.068819
0.066086
0.064
0.058183
0.056096
0.048856
0.045809
0.037946
0.033681
0.072454
0.071906
0.071058
0.068973
0.066193
0.064083
0.058218
0.05606
0.048784
0.045657
0.037784
0.033449
0.07264
0.072091
0.071228
0.069132
0.066305
0.064169
0.058257
0.056026
0.048713
0.045506
0.037622
0.033214
0.072831
0.072281
0.071402
0.069296
0.066421
0.064258
0.058299
0.055994
0.048643
0.045354
0.037459
0.032978
0.073026
0.072477
0.071582
0.069465
0.066541
0.06435
0.058343
0.055964
0.048575
0.045202
0.037295
0.03274
0.073228
0.072679
0.071767
0.06964
0.066666
0.064445
0.058392
0.055935
0.048508
0.04505
0.037129
0.0325
0.073435
0.072886
0.071958
0.069819
0.066795
0.064544
0.058443
0.055909
0.048442
0.044897
0.036962
0.032258
0.073647
0.0731
0.072153
0.070004
0.06693
0.064646
0.058498
0.055884
0.048377
0.044744
0.036795
0.032014
0.073866
0.073319
0.072355
0.070195
0.06707
0.064751
0.058557
0.055861
0.048314
0.04459
0.036625
0.031767
0.074091
0.073546
0.072563
0.070392
0.067215
0.064861
0.058619
0.055841
0.048252
0.044436
0.036454
0.031518
0.074322
0.073778
0.072777
0.070595
0.067366
0.064974
0.058685
0.055823
0.048192
0.044282
0.036282
0.031266
0.07456
0.074018
0.072997
0.070804
0.067523
0.065091
0.058754
0.055806
0.048132
0.044127
0.036107
0.031012
0.074804
0.074265
0.073224
0.07102
0.067685
0.065213
0.058828
0.055792
0.048074
0.043972
0.035931
0.030754
0.075056
0.074519
0.073458
0.071242
0.067854
0.065339
0.058905
0.055781
0.048017
0.043815
0.035752
0.030493
0.075315
0.074781
0.073699
0.071471
0.068029
0.065469
0.058987
0.055771
0.047962
0.043659
0.035572
0.030229
0.075582
0.075051
0.073948
0.071708
0.068211
0.065604
0.059073
0.055764
0.047908
0.043501
0.035389
0.029961
0.075856
0.075329
0.074205
0.071952
0.0684
0.065744
0.059163
0.05576
0.047855
0.043343
0.035204
0.02969
0.076139
0.075615
0.074469
0.072204
0.068596
0.065889
0.059257
0.055758
0.047803
0.043184
0.035016
0.029414
0.076431
0.07591
0.074742
0.072464
0.068799
0.06604
0.059356
0.055758
0.047752
0.043023
0.034826
0.029134
0.076731
0.076215
0.075024
0.072732
0.06901
0.066196
0.05946
0.055761
0.047703
0.042862
0.034632
0.02885
0.07704
0.076529
0.075315
0.073009
0.069229
0.066358
0.059569
0.055767
0.047655
0.0427
0.034436
0.028562
0.077359
0.076852
0.075615
0.073295
0.069456
0.066526
0.059683
0.055776
0.047608
0.042536
0.034236
0.028268
0.077688
0.077186
0.075925
0.07359
0.069692
0.0667
0.059802
0.055787
0.047562
0.042372
0.034032
0.02797
0.078027
0.077531
0.076246
0.073895
0.069937
0.06688
0.059926
0.055801
0.047517
0.042205
0.033825
0.027666
0.078377
0.077886
0.076577
0.07421
0.070191
0.067068
0.060055
0.055819
0.047473
0.042038
0.033614
0.027356
0.078738
0.078253
0.076919
0.074536
0.070455
0.067263
0.060191
0.055839
0.04743
0.041868
0.033399
0.027041
0.07911
0.078632
0.077273
0.074872
0.070729
0.067465
0.060332
0.055862
0.047388
0.041697
0.033179
0.026719
0.079495
0.079024
0.077639
0.07522
0.071013
0.067675
0.060479
0.055888
0.047346
0.041524
0.032955
0.026391
0.079892
0.079428
0.078017
0.075579
0.071308
0.067893
0.060632
0.055918
0.047306
0.041349
0.032726
0.026056
0.080302
0.079846
0.078409
0.075951
0.071614
0.068119
0.060792
0.05595
0.047266
0.041171
0.032492
0.025713
0.080726
0.080277
0.078815
0.076336
0.071933
0.068354
0.060958
0.055986
0.047227
0.040991
0.032252
0.025363
0.081165
0.080723
0.079234
0.076734
0.072263
0.068599
0.061131
0.056025
0.047188
0.040808
0.032006
0.025004
0.081618
0.081185
0.079669
0.077146
0.072606
0.068853
0.061311
0.056068
0.047149
0.040623
0.031754
0.024637
0.082087
0.081662
0.080119
0.077573
0.072962
0.069116
0.061498
0.056114
0.047111
0.040434
0.031495
0.024261
0.082572
0.082156
0.080586
0.078014
0.073333
0.069391
0.061693
0.056164
0.047073
0.040241
0.031229
0.023876
0.083074
0.082668
0.08107
0.078472
0.073718
0.069676
0.061895
0.056217
0.047035
0.040045
0.030956
0.023481
0.083593
0.083197
0.081571
0.078946
0.074117
0.069973
0.062106
0.056273
0.046996
0.039845
0.030675
0.023075
0.084132
0.083746
0.082092
0.079438
0.074533
0.070281
0.062324
0.056334
0.046957
0.039641
0.030385
0.022658
0.08469
0.084314
0.082632
0.079948
0.074965
0.070602
0.062552
0.056398
0.046918
0.039431
0.030086
0.022229
0.085268
0.084904
0.083193
0.080477
0.075414
0.070936
0.062788
0.056466
0.046877
0.039217
0.029778
0.021787
0.085868
0.085515
0.083775
0.081025
0.075881
0.071283
0.063033
0.056537
0.046836
0.038997
0.029459
0.021333
0.086491
0.086149
0.08438
0.081595
0.076367
0.071645
0.063288
0.056613
0.046793
0.038771
0.02913
0.020864
0.087136
0.086807
0.085009
0.082187
0.076873
0.072021
0.063553
0.056692
0.046748
0.038538
0.028789
0.020381
0.087807
0.087491
0.085662
0.082801
0.077399
0.072413
0.063828
0.056774
0.046701
0.038298
0.028436
0.019883
0.088504
0.088201
0.086343
0.08344
0.077947
0.072821
0.064113
0.056861
0.046652
0.03805
0.028069
0.019367
0.089228
0.088939
0.08705
0.084105
0.078517
0.073246
0.064409
0.056951
0.0466
0.037793
0.027689
0.018834
0.089982
0.089707
0.087787
0.084796
0.079111
0.073688
0.064716
0.057045
0.046544
0.037528
0.027293
0.018283
0.090765
0.090506
0.088555
0.085515
0.07973
0.074149
0.065034
0.057142
0.046485
0.037252
0.026881
0.017712
0.091581
0.091338
0.089356
0.086264
0.080375
0.074629
0.065364
0.057242
0.04642
0.036965
0.026452
0.017119
0.092431
0.092205
0.09019
0.087044
0.081047
0.07513
0.065707
0.057346
0.046351
0.036666
0.026004
0.016504
0.093317
0.093108
0.091061
0.087857
0.081749
0.075651
0.066061
0.057452
0.046275
0.036353
0.025536
0.015866
0.094241
0.09405
0.09197
0.088705
0.08248
0.076194
0.066429
0.057561
0.046193
0.036026
0.025047
0.015202
0.095205
0.095034
0.09292
0.089589
0.083243
0.07676
0.066809
0.057672
0.046102
0.035684
0.024534
0.01451
0.096211
0.096061
0.093912
0.090513
0.08404
0.077351
0.067202
0.057785
0.046003
0.035324
0.023997
0.01379
0.097263
0.097134
0.094951
0.091478
0.084872
0.077966
0.067609
0.057899
0.045893
0.034945
0.023433
0.013039
0.098363
0.098257
0.096037
0.092487
0.085741
0.078607
0.06803
0.058013
0.045771
0.034545
0.02284
0.012254
0.099514
0.099432
0.097176
0.093542
0.086649
0.079275
0.068464
0.058127
0.045636
0.034122
0.022215
0.011434
0.10072
0.10066
0.098369
0.094647
0.087598
0.079972
0.068911
0.05824
0.045485
0.033674
0.021557
0.010575
0.10198
0.10195
0.099621
0.095803
0.088591
0.080698
0.069372
0.05835
0.045317
0.033197
0.020862
0.009676
0.10331
0.10331
0.10094
0.097016
0.08963
0.081455
0.069847
0.058456
0.04513
0.03269
0.020127
0.0087324
0.1047
0.10473
0.10232
0.098288
0.090717
0.082243
0.070334
0.058556
0.04492
0.032149
0.019349
0.0077412
0.10616
0.10622
0.10377
0.099623
0.091855
0.083064
0.070834
0.058649
0.044684
0.03157
0.018523
0.0066988
0.1077
0.1078
0.1053
0.10103
0.093047
0.083919
0.071345
0.058731
0.044419
0.03095
0.017646
0.0056011
0.10932
0.10945
0.10691
0.1025
0.094296
0.084809
0.071866
0.058801
0.044121
0.030282
0.016713
0.0044435
0.11103
0.1112
0.10861
0.10405
0.095605
0.085734
0.072395
0.058853
0.043785
0.029563
0.015718
0.0032213
0.11283
0.11305
0.1104
0.10569
0.096978
0.086696
0.072932
0.058886
0.043405
0.028787
0.014657
0.0019289
0.11474
0.115
0.1123
0.10741
0.098417
0.087694
0.073472
0.058892
0.042976
0.027946
0.013521
0.00056036
0.11675
0.11706
0.11431
0.10923
0.099927
0.088728
0.074013
0.058868
0.04249
0.027033
0.012305
-0.00089084
0.11889
0.11925
0.11643
0.11115
0.10151
0.089799
0.074551
0.058805
0.041938
0.026039
0.010999
-0.002432
0.12115
0.12157
0.11869
0.11318
0.10317
0.090906
0.075079
0.058696
0.041312
0.024955
0.0095952
-0.0040712
0.12356
0.12404
0.12109
0.11533
0.10491
0.092046
0.075593
0.058531
0.040599
0.023769
0.0080831
-0.0058173
0.12613
0.12667
0.12364
0.11761
0.10674
0.093216
0.076082
0.058299
0.039787
0.022469
0.0064514
-0.0076802
0.12886
0.12948
0.12636
0.12002
0.10866
0.094413
0.076538
0.057984
0.03886
0.02104
0.0046872
-0.0096706
0.13178
0.13248
0.12926
0.12258
0.11066
0.095631
0.076946
0.057571
0.037802
0.019466
0.0027763
-0.011801
0.13491
0.13568
0.13236
0.1253
0.11276
0.096861
0.077292
0.057038
0.03659
0.017727
0.00070244
-0.014084
0.13826
0.13913
0.13568
0.12819
0.11495
0.098092
0.077554
0.056363
0.035201
0.015802
-0.0015524
-0.016534
0.14187
0.14283
0.13925
0.13127
0.11723
0.099308
0.077707
0.055516
0.033606
0.013666
-0.0040085
-0.019169
0.14576
0.14682
0.14308
0.13453
0.1196
0.10049
0.077721
0.054462
0.031772
0.01129
-0.0066888
-0.022005
0.14996
0.15114
0.1472
0.13801
0.12204
0.10161
0.077555
0.053158
0.029661
0.008642
-0.0096187
-0.025062
0.15452
0.15581
0.15165
0.1417
0.12454
0.10262
0.07716
0.051554
0.027226
0.0056853
-0.012827
-0.028362
0.15947
0.1609
0.15646
0.14562
0.12709
0.10349
0.076475
0.049589
0.024416
0.0023777
-0.016345
-0.031927
0.16488
0.16644
0.16166
0.14977
0.12963
0.10414
0.07542
0.047188
0.021167
-0.0013288
-0.020209
-0.035784
0.1708
0.17251
0.16731
0.15415
0.13212
0.10449
0.0739
0.044263
0.017408
-0.0054876
-0.024457
-0.039959
0.17732
0.17918
0.17343
0.15873
0.13448
0.10442
0.071791
0.040707
0.013057
-0.010159
-0.029133
-0.04448
0.18452
0.18653
0.18008
0.16348
0.13659
0.10377
0.068941
0.036394
0.0080177
-0.015409
-0.034281
-0.049374
0.19253
0.19468
0.18729
0.16833
0.13829
0.10234
0.065161
0.031175
0.0021843
-0.02131
-0.039948
-0.05467
0.20149
0.20374
0.19508
0.17314
0.13933
0.099874
0.06022
0.024876
-0.0045609
-0.027936
-0.046182
-0.060388
0.21158
0.21388
0.20344
0.1777
0.13937
0.096013
0.053836
0.017303
-0.012342
-0.03536
-0.05302
-0.06654
0.22303
0.22525
0.21228
0.18165
0.13794
0.090317
0.045679
0.0082436
-0.021282
-0.043644
-0.060487
-0.073114
0.23617
0.23802
0.22138
0.18442
0.13438
0.082234
0.035379
-0.0025126
-0.031478
-0.052818
-0.068571
-0.080066
0.25142
0.25235
0.23027
0.18514
0.1278
0.071113
0.022559
-0.015134
-0.042972
-0.062852
-0.0772
-0.087296
0.26937
0.26825
0.23807
0.18252
0.11707
0.056258
0.0069161
-0.02967
-0.05568
-0.073604
-0.086205
-0.094634
0.29081
0.28534
0.24316
0.17473
0.10091
0.037091
-0.011619
-0.045929
-0.069309
-0.084768
-0.095294
-0.10183
0.31677
0.30245
0.24284
0.1594
0.078168
0.013482
-0.032627
-0.063318
-0.083276
-0.095839
-0.10405
-0.10856
0.34821
0.31689
0.23332
0.13417
0.048477
-0.013731
-0.054928
-0.080745
-0.096697
-0.10615
-0.11198
-0.11451
0.38457
0.32346
0.21054
0.098315
0.013402
-0.042302
-0.076532
-0.09674
-0.10856
-0.11504
-0.11866
-0.11946
0.42134
0.31277
0.17055
0.054073
-0.023204
-0.069109
-0.095428
-0.11015
-0.11827
-0.12224
-0.12402
-0.12347
0.45655
0.27822
0.11102
0.0040343
-0.058395
-0.092784
-0.11146
-0.12139
-0.12643
-0.12838
-0.12868
-0.12712
0.49789
0.23293
0.042886
-0.047335
-0.091107
-0.11365
-0.12545
-0.13132
-0.13379
-0.13407
-0.13313
-0.13074
0.12114
0.069352
0.05242
0.043958
0.03793
0.033533
0.03007
0.027214
0.02474
0.022555
0.020582
0.018636
0.10434
0.060896
0.047101
0.039632
0.034142
0.030156
0.027017
0.024433
0.022201
0.020232
0.018464
0.016762
0.082148
0.050127
0.039379
0.033155
0.028456
0.02506
0.022396
0.020214
0.018337
0.016689
0.015221
0.013783
0.078653
0.051065
0.040001
0.033627
0.028792
0.025292
0.022559
0.020327
0.018415
0.016743
0.015259
0.013809
0.079635
0.054065
0.042189
0.035452
0.030321
0.026584
0.023674
0.021305
0.01928
0.017517
0.015953
0.014436
0.079464
0.055905
0.043721
0.036786
0.03145
0.027525
0.024476
0.021999
0.019885
0.018055
0.016431
0.014867
0.078451
0.057101
0.044953
0.037907
0.032421
0.028333
0.025157
0.022582
0.020388
0.018498
0.016821
0.015226
0.077333
0.058115
0.046166
0.039044
0.033436
0.029194
0.025889
0.02321
0.02093
0.018975
0.017243
0.015623
0.076251
0.058962
0.047333
0.040182
0.034487
0.030108
0.026677
0.023891
0.021522
0.019499
0.017707
0.016063
0.075161
0.059591
0.04839
0.041265
0.035526
0.031038
0.027494
0.024606
0.022149
0.020055
0.018203
0.016535
0.074044
0.060006
0.04931
0.042266
0.036524
0.031959
0.028319
0.025338
0.022798
0.020635
0.018725
0.017033
0.072921
0.06024
0.050093
0.043171
0.037462
0.032852
0.029137
0.026076
0.023461
0.021233
0.019266
0.017549
0.071811
0.060326
0.050742
0.043975
0.038329
0.033702
0.029933
0.026806
0.024127
0.021839
0.019819
0.018075
0.070728
0.060292
0.051266
0.044676
0.039117
0.034499
0.030696
0.027518
0.024784
0.022444
0.020375
0.018601
0.069683
0.060162
0.051675
0.045278
0.039824
0.035235
0.031416
0.0282
0.025424
0.023038
0.020926
0.019119
0.068679
0.059957
0.051982
0.045787
0.04045
0.035907
0.032087
0.028847
0.026038
0.023615
0.021465
0.019624
0.06772
0.059696
0.0522
0.046211
0.040998
0.036515
0.032707
0.029455
0.026622
0.024168
0.021985
0.02011
0.066805
0.059392
0.052341
0.046558
0.041475
0.037061
0.033276
0.030021
0.027172
0.024695
0.022485
0.020575
0.065935
0.059058
0.052417
0.046836
0.041885
0.037547
0.033794
0.030545
0.027688
0.025193
0.02296
0.021019
0.065106
0.058701
0.052437
0.047053
0.042234
0.037978
0.034264
0.031027
0.028168
0.025661
0.02341
0.021441
0.064317
0.058328
0.052411
0.047216
0.04253
0.038357
0.034687
0.03147
0.028614
0.0261
0.023835
0.021843
0.063564
0.057944
0.052344
0.047333
0.042776
0.03869
0.035068
0.031874
0.029026
0.02651
0.024234
0.022223
0.062844
0.057553
0.052244
0.047409
0.042979
0.038979
0.03541
0.032243
0.029407
0.026892
0.024609
0.022585
0.062155
0.057158
0.052117
0.047449
0.043142
0.03923
0.035714
0.03258
0.029758
0.027248
0.024961
0.022929
0.061494
0.056761
0.051965
0.047457
0.043271
0.039446
0.035986
0.032885
0.030081
0.027579
0.025291
0.023255
0.060858
0.056364
0.051794
0.047439
0.043369
0.03963