/*--------------------------------*- C++ -*----------------------------------*\
  =========                 |
  \\      /  F ield         | OpenFOAM: The Open Source CFD Toolbox
   \\    /   O peration     | Website:  https://openfoam.org
    \\  /    A nd           | Version:  6.0
     \\/     M anipulation  |
\*---------------------------------------------------------------------------*/
FoamFile
{
    version     2.0;
    format      ascii;
    class       volScalarField;
    location    "4";
    object      p;
}
// * * * * * * * * * * * * * * * * * * * * * * * * * * * * * * * * * * * * * //

dimensions      [0 2 -2 0 0 0 0];

internalField   nonuniform List<scalar> 
17000
(
0.10195
0.10182
0.1009
0.10027
0.098528
0.097832
0.095945
0.096037
0.096465
0.098715
0.12134
0.16263
0.10195
0.10182
0.1009
0.10028
0.098528
0.097833
0.095944
0.096037
0.096462
0.098776
0.12066
0.15757
0.10195
0.10182
0.1009
0.10028
0.098527
0.097834
0.095941
0.096036
0.096454
0.098818
0.11978
0.15307
0.10195
0.10182
0.1009
0.10028
0.098526
0.097836
0.095938
0.096034
0.09644
0.098836
0.11881
0.14955
0.10195
0.10182
0.1009
0.10028
0.098524
0.097837
0.095933
0.096031
0.096421
0.098839
0.11777
0.14656
0.10195
0.10182
0.10091
0.10028
0.098523
0.097839
0.095928
0.096027
0.096396
0.09883
0.11669
0.14389
0.10195
0.10182
0.10091
0.10029
0.098522
0.09784
0.095922
0.096022
0.096367
0.098807
0.1156
0.14146
0.10196
0.10183
0.10091
0.10029
0.098521
0.097841
0.095915
0.096015
0.096332
0.09877
0.11452
0.13923
0.10196
0.10183
0.10091
0.10029
0.098521
0.097842
0.095908
0.096008
0.096292
0.098719
0.11347
0.13716
0.10196
0.10183
0.10091
0.1003
0.09852
0.097843
0.0959
0.096
0.096247
0.098654
0.11244
0.13523
0.10196
0.10184
0.10091
0.1003
0.098519
0.097844
0.095891
0.095991
0.096196
0.098576
0.11146
0.13341
0.10197
0.10184
0.10092
0.1003
0.098518
0.097845
0.095882
0.09598
0.09614
0.098486
0.11051
0.13169
0.10197
0.10185
0.10092
0.10031
0.098517
0.097846
0.095872
0.095969
0.096078
0.098386
0.10961
0.13006
0.10198
0.10185
0.10092
0.10031
0.098516
0.097846
0.095861
0.095956
0.096011
0.098276
0.10875
0.12851
0.10198
0.10186
0.10092
0.10032
0.098516
0.097847
0.095849
0.095943
0.095938
0.098158
0.10792
0.12703
0.10199
0.10186
0.10093
0.10032
0.098515
0.097847
0.095837
0.095928
0.09586
0.098034
0.10714
0.12562
0.10199
0.10187
0.10093
0.10033
0.098515
0.097848
0.095824
0.095912
0.095776
0.097905
0.10639
0.12426
0.102
0.10187
0.10094
0.10033
0.098514
0.097848
0.09581
0.095895
0.095686
0.097772
0.10567
0.12296
0.102
0.10188
0.10094
0.10034
0.098513
0.097848
0.095795
0.095876
0.095591
0.097637
0.10497
0.12171
0.10201
0.10189
0.10095
0.10034
0.098513
0.097848
0.09578
0.095857
0.095491
0.0975
0.1043
0.1205
0.10202
0.1019
0.10095
0.10035
0.098513
0.097848
0.095764
0.095836
0.095386
0.097363
0.10365
0.11934
0.10203
0.1019
0.10096
0.10035
0.098512
0.097848
0.095748
0.095813
0.095277
0.097226
0.10302
0.11821
0.10203
0.10191
0.10096
0.10036
0.098512
0.097847
0.09573
0.09579
0.095162
0.09709
0.10241
0.11711
0.10204
0.10192
0.10097
0.10037
0.098512
0.097847
0.095712
0.095765
0.095044
0.096955
0.10181
0.11604
0.10205
0.10193
0.10097
0.10038
0.098511
0.097847
0.095693
0.095738
0.094922
0.096822
0.10121
0.11501
0.10206
0.10194
0.10098
0.10038
0.098511
0.097846
0.095674
0.09571
0.094796
0.09669
0.10063
0.11399
0.10207
0.10195
0.10099
0.10039
0.098511
0.097845
0.095654
0.095681
0.094668
0.09656
0.10006
0.113
0.10208
0.10196
0.101
0.1004
0.098511
0.097845
0.095633
0.09565
0.094536
0.096432
0.09949
0.11204
0.10209
0.10197
0.101
0.10041
0.098511
0.097844
0.095611
0.095617
0.094402
0.096305
0.098928
0.11109
0.1021
0.10198
0.10101
0.10041
0.098511
0.097843
0.095589
0.095583
0.094266
0.096179
0.098372
0.11017
0.10211
0.10199
0.10102
0.10042
0.098512
0.097842
0.095566
0.095547
0.094129
0.096054
0.097821
0.10926
0.10212
0.102
0.10103
0.10043
0.098512
0.097841
0.095543
0.09551
0.09399
0.09593
0.097274
0.10837
0.10213
0.10202
0.10104
0.10044
0.098512
0.097839
0.095518
0.095472
0.09385
0.095807
0.096732
0.10749
0.10215
0.10203
0.10105
0.10045
0.098512
0.097838
0.095493
0.095431
0.09371
0.095683
0.096193
0.10664
0.10216
0.10204
0.10106
0.10046
0.098513
0.097837
0.095467
0.09539
0.093569
0.09556
0.095659
0.10579
0.10217
0.10206
0.10107
0.10047
0.098514
0.097835
0.095441
0.095347
0.093428
0.095435
0.09513
0.10497
0.10219
0.10207
0.10108
0.10048
0.098514
0.097834
0.095413
0.095302
0.093287
0.09531
0.094604
0.10415
0.1022
0.10209
0.10109
0.10049
0.098515
0.097832
0.095385
0.095257
0.093147
0.095184
0.094084
0.10335
0.10221
0.1021
0.1011
0.1005
0.098516
0.09783
0.095356
0.09521
0.093006
0.095057
0.093568
0.10257
0.10223
0.10212
0.10111
0.10051
0.098517
0.097828
0.095326
0.095162
0.092867
0.094928
0.093058
0.1018
0.10225
0.10213
0.10112
0.10053
0.098518
0.097826
0.095296
0.095113
0.092728
0.094797
0.092552
0.10104
0.10226
0.10215
0.10114
0.10054
0.098519
0.097824
0.095265
0.095063
0.09259
0.094664
0.092053
0.1003
0.10228
0.10216
0.10115
0.10055
0.09852
0.097822
0.095232
0.095012
0.092452
0.094529
0.091559
0.099567
0.10229
0.10218
0.10116
0.10056
0.098521
0.09782
0.0952
0.09496
0.092316
0.094392
0.091071
0.098849
0.10231
0.1022
0.10118
0.10057
0.098523
0.097818
0.095166
0.094908
0.09218
0.094253
0.090589
0.098144
0.10233
0.10222
0.10119
0.10059
0.098524
0.097815
0.095131
0.094855
0.092045
0.094111
0.090114
0.097452
0.10235
0.10224
0.1012
0.1006
0.098526
0.097813
0.095096
0.094802
0.091911
0.093967
0.089645
0.096772
0.10237
0.10225
0.10122
0.10061
0.098528
0.09781
0.095059
0.094749
0.091777
0.093821
0.089183
0.096105
0.10239
0.10227
0.10123
0.10063
0.09853
0.097807
0.095022
0.094695
0.091644
0.093672
0.088728
0.09545
0.10241
0.10229
0.10125
0.10064
0.098532
0.097804
0.094984
0.094642
0.091512
0.09352
0.088279
0.094807
0.10243
0.10231
0.10127
0.10066
0.098534
0.097801
0.094945
0.094588
0.09138
0.093367
0.087838
0.094175
0.10245
0.10234
0.10128
0.10067
0.098537
0.097798
0.094905
0.094535
0.091248
0.093211
0.087403
0.093556
0.10247
0.10236
0.1013
0.10069
0.098539
0.097795
0.094865
0.094482
0.091117
0.093052
0.086976
0.092948
0.10249
0.10238
0.10132
0.1007
0.098542
0.097791
0.094824
0.094429
0.090986
0.092892
0.086556
0.092351
0.10251
0.1024
0.10133
0.10072
0.098545
0.097788
0.094781
0.094376
0.090854
0.092729
0.086142
0.091764
0.10254
0.10242
0.10135
0.10073
0.098548
0.097784
0.094739
0.094324
0.090723
0.092565
0.085736
0.091189
0.10256
0.10245
0.10137
0.10075
0.098551
0.09778
0.094695
0.094273
0.090592
0.092398
0.085336
0.090624
0.10258
0.10247
0.10139
0.10077
0.098554
0.097776
0.094651
0.094222
0.09046
0.09223
0.084943
0.090069
0.10261
0.1025
0.10141
0.10078
0.098558
0.097772
0.094606
0.094172
0.090328
0.09206
0.084557
0.089525
0.10263
0.10252
0.10143
0.1008
0.098561
0.097768
0.09456
0.094122
0.090196
0.091888
0.084178
0.08899
0.10266
0.10255
0.10145
0.10082
0.098565
0.097763
0.094514
0.094073
0.090063
0.091714
0.083805
0.088464
0.10268
0.10257
0.10147
0.10084
0.09857
0.097759
0.094468
0.094025
0.089929
0.091539
0.083438
0.087947
0.10271
0.1026
0.10149
0.10085
0.098574
0.097754
0.094421
0.093977
0.089795
0.091363
0.083078
0.08744
0.10274
0.10263
0.10151
0.10087
0.098579
0.097749
0.094373
0.09393
0.089661
0.091185
0.082724
0.086941
0.10276
0.10265
0.10154
0.10089
0.098583
0.097744
0.094325
0.093883
0.089526
0.091007
0.082376
0.08645
0.10279
0.10268
0.10156
0.10091
0.098588
0.097738
0.094277
0.093837
0.08939
0.090827
0.082034
0.085967
0.10282
0.10271
0.10158
0.10093
0.098594
0.097733
0.094228
0.093792
0.089253
0.090646
0.081697
0.085493
0.10285
0.10274
0.10161
0.10095
0.098599
0.097727
0.094179
0.093747
0.089116
0.090464
0.081366
0.085025
0.10288
0.10277
0.10163
0.10097
0.098605
0.097721
0.09413
0.093702
0.088978
0.090281
0.081041
0.084566
0.10291
0.1028
0.10166
0.10099
0.098611
0.097715
0.09408
0.093658
0.08884
0.090097
0.080721
0.084113
0.10294
0.10283
0.10168
0.10101
0.098617
0.097709
0.094031
0.093614
0.088701
0.089913
0.080405
0.083667
0.10297
0.10286
0.10171
0.10103
0.098624
0.097703
0.093981
0.09357
0.088562
0.089728
0.080095
0.083228
0.10301
0.10289
0.10173
0.10105
0.09863
0.097696
0.093932
0.093527
0.088422
0.089543
0.07979
0.082795
0.10304
0.10292
0.10176
0.10107
0.098637
0.09769
0.093882
0.093483
0.088281
0.089357
0.07949
0.082368
0.10307
0.10296
0.10179
0.1011
0.098645
0.097683
0.093833
0.09344
0.088141
0.08917
0.079194
0.081948
0.10311
0.10299
0.10182
0.10112
0.098652
0.097676
0.093784
0.093396
0.088
0.088983
0.078902
0.081533
0.10314
0.10303
0.10184
0.10114
0.09866
0.09767
0.093734
0.093353
0.087858
0.088796
0.078615
0.081124
0.10318
0.10306
0.10187
0.10116
0.098669
0.097663
0.093685
0.093309
0.087717
0.088609
0.078333
0.080721
0.10321
0.1031
0.1019
0.10119
0.098677
0.097656
0.093636
0.093265
0.087575
0.088422
0.078054
0.080323
0.10325
0.10313
0.10193
0.10121
0.098686
0.097649
0.093588
0.093221
0.087433
0.088234
0.07778
0.07993
0.10329
0.10317
0.10197
0.10123
0.098695
0.097643
0.093539
0.093176
0.087292
0.088047
0.077509
0.079542
0.10333
0.10321
0.102
0.10126
0.098705
0.097636
0.093491
0.093131
0.08715
0.087859
0.077242
0.079159
0.10337
0.10324
0.10203
0.10128
0.098715
0.097629
0.093443
0.093085
0.087009
0.087671
0.076979
0.078781
0.10341
0.10328
0.10206
0.10131
0.098725
0.097623
0.093395
0.093039
0.086868
0.087484
0.07672
0.078407
0.10345
0.10332
0.1021
0.10134
0.098735
0.097617
0.093348
0.092992
0.086727
0.087297
0.076465
0.078038
0.10349
0.10336
0.10213
0.10136
0.098746
0.097611
0.093301
0.092944
0.086586
0.087109
0.076213
0.077674
0.10353
0.1034
0.10217
0.10139
0.098758
0.097605
0.093254
0.092896
0.086446
0.086923
0.075964
0.077314
0.10357
0.10344
0.1022
0.10142
0.098769
0.0976
0.093208
0.092847
0.086306
0.086736
0.075719
0.076958
0.10361
0.10348
0.10224
0.10144
0.098781
0.097594
0.093161
0.092797
0.086167
0.08655
0.075477
0.076606
0.10366
0.10353
0.10227
0.10147
0.098794
0.09759
0.093116
0.092747
0.086029
0.086364
0.075238
0.076258
0.1037
0.10357
0.10231
0.1015
0.098807
0.097585
0.09307
0.092696
0.085891
0.086178
0.075003
0.075915
0.10375
0.10362
0.10235
0.10153
0.09882
0.097581
0.093025
0.092644
0.085753
0.085993
0.07477
0.075575
0.1038
0.10366
0.10239
0.10156
0.098834
0.097578
0.09298
0.092591
0.085617
0.085808
0.074541
0.075239
0.10384
0.10371
0.10243
0.10159
0.098848
0.097575
0.092935
0.092537
0.085481
0.085624
0.074315
0.074906
0.10389
0.10375
0.10247
0.10162
0.098863
0.097573
0.092891
0.092482
0.085346
0.08544
0.074091
0.074578
0.10394
0.1038
0.10252
0.10165
0.098878
0.097571
0.092847
0.092427
0.085211
0.085257
0.073871
0.074253
0.10399
0.10385
0.10256
0.10168
0.098894
0.09757
0.092803
0.092371
0.085078
0.085074
0.073653
0.073932
0.10405
0.1039
0.1026
0.10171
0.09891
0.09757
0.092759
0.092314
0.084945
0.084892
0.073438
0.073614
0.1041
0.10395
0.10265
0.10175
0.098927
0.09757
0.092716
0.092256
0.084814
0.08471
0.073226
0.073299
0.10415
0.104
0.10269
0.10178
0.098944
0.097571
0.092673
0.092198
0.084683
0.084529
0.073017
0.072988
0.10421
0.10405
0.10274
0.10182
0.098962
0.097573
0.09263
0.092139
0.084553
0.084349
0.07281
0.07268
0.10426
0.10411
0.10279
0.10185
0.09898
0.097576
0.092588
0.092079
0.084424
0.084169
0.072606
0.072375
0.10432
0.10416
0.10284
0.10189
0.098999
0.097579
0.092546
0.092018
0.084296
0.08399
0.072404
0.072074
0.10438
0.10422
0.10289
0.10193
0.099019
0.097584
0.092504
0.091957
0.084169
0.083811
0.072205
0.071776
0.10444
0.10428
0.10294
0.10196
0.09904
0.097589
0.092463
0.091895
0.084043
0.083633
0.072008
0.07148
0.1045
0.10433
0.10299
0.102
0.099061
0.097596
0.092422
0.091833
0.083918
0.083456
0.071814
0.071188
0.10456
0.10439
0.10305
0.10204
0.099083
0.097603
0.092381
0.09177
0.083794
0.083279
0.071622
0.070898
0.10462
0.10445
0.1031
0.10209
0.099106
0.097611
0.092341
0.091706
0.083671
0.083103
0.071433
0.070612
0.10469
0.10452
0.10316
0.10213
0.09913
0.097621
0.092302
0.091642
0.08355
0.082928
0.071245
0.070328
0.10475
0.10458
0.10321
0.10217
0.099154
0.097631
0.092263
0.091578
0.083429
0.082753
0.07106
0.070047
0.10482
0.10465
0.10327
0.10222
0.09918
0.097643
0.092225
0.091513
0.083309
0.082579
0.070877
0.069769
0.10489
0.10471
0.10333
0.10226
0.099206
0.097656
0.092187
0.091448
0.083191
0.082406
0.070696
0.069493
0.10496
0.10478
0.1034
0.10231
0.099234
0.09767
0.09215
0.091383
0.083073
0.082233
0.070518
0.06922
0.10504
0.10485
0.10346
0.10236
0.099263
0.097685
0.092114
0.091317
0.082957
0.082062
0.070341
0.068949
0.10511
0.10492
0.10353
0.10241
0.099292
0.097702
0.092078
0.091252
0.082842
0.08189
0.070166
0.068681
0.10519
0.10499
0.10359
0.10246
0.099323
0.097719
0.092044
0.091186
0.082728
0.08172
0.069994
0.068415
0.10526
0.10507
0.10366
0.10252
0.099356
0.097738
0.092011
0.09112
0.082615
0.08155
0.069823
0.068152
0.10534
0.10515
0.10373
0.10257
0.099389
0.097759
0.091978
0.091055
0.082503
0.081381
0.069654
0.06789
0.10543
0.10523
0.10381
0.10263
0.099424
0.097781
0.091947
0.090989
0.082393
0.081212
0.069487
0.067631
0.10551
0.10531
0.10388
0.10269
0.099461
0.097804
0.091917
0.090924
0.082284
0.081045
0.069322
0.067375
0.1056
0.10539
0.10396
0.10275
0.099499
0.097829
0.091889
0.090858
0.082176
0.080878
0.069159
0.06712
0.10569
0.10548
0.10404
0.10281
0.099539
0.097855
0.091861
0.090794
0.08207
0.080711
0.068997
0.066867
0.10578
0.10556
0.10412
0.10288
0.09958
0.097883
0.091836
0.090729
0.081965
0.080546
0.068837
0.066616
0.10587
0.10565
0.1042
0.10294
0.099624
0.097913
0.091812
0.090665
0.081861
0.080381
0.068679
0.066368
0.10597
0.10575
0.10429
0.10301
0.099669
0.097944
0.091789
0.090602
0.081759
0.080217
0.068523
0.066121
0.10607
0.10584
0.10438
0.10309
0.099717
0.097977
0.091769
0.09054
0.081658
0.080054
0.068368
0.065876
0.10617
0.10594
0.10447
0.10316
0.099766
0.098013
0.09175
0.090478
0.081559
0.079891
0.068214
0.065632
0.10627
0.10604
0.10457
0.10324
0.099818
0.09805
0.091734
0.090417
0.081461
0.07973
0.068063
0.065391
0.10638
0.10615
0.10466
0.10332
0.099872
0.098089
0.09172
0.090357
0.081365
0.079569
0.067912
0.065151
0.10649
0.10625
0.10476
0.1034
0.099929
0.09813
0.091708
0.090298
0.081271
0.079409
0.067764
0.064912
0.1066
0.10636
0.10487
0.10349
0.099988
0.098173
0.091698
0.09024
0.081179
0.07925
0.067616
0.064675
0.10672
0.10648
0.10497
0.10358
0.10005
0.098219
0.091691
0.090184
0.081088
0.079092
0.06747
0.06444
0.10684
0.1066
0.10509
0.10368
0.10012
0.098267
0.091687
0.090129
0.081
0.078935
0.067326
0.064206
0.10697
0.10672
0.1052
0.10377
0.10018
0.098317
0.091686
0.090075
0.080913
0.078779
0.067183
0.063973
0.10709
0.10684
0.10532
0.10387
0.10025
0.09837
0.091687
0.090023
0.080828
0.078624
0.067041
0.063742
0.10722
0.10697
0.10544
0.10398
0.10033
0.098426
0.091691
0.089973
0.080746
0.07847
0.066901
0.063512
0.10736
0.1071
0.10556
0.10409
0.10041
0.098485
0.091699
0.089925
0.080666
0.078317
0.066762
0.063283
0.1075
0.10724
0.10569
0.1042
0.10049
0.098546
0.09171
0.089879
0.080588
0.078165
0.066625
0.063056
0.10764
0.10738
0.10583
0.10432
0.10057
0.098611
0.091725
0.089835
0.080512
0.078015
0.066489
0.062829
0.10779
0.10753
0.10597
0.10444
0.10066
0.098679
0.091743
0.089793
0.080439
0.077866
0.066354
0.062604
0.10795
0.10768
0.10611
0.10456
0.10076
0.098751
0.091765
0.089754
0.080369
0.077718
0.06622
0.062379
0.1081
0.10784
0.10626
0.1047
0.10086
0.098825
0.091791
0.089717
0.080301
0.077571
0.066088
0.062156
0.10827
0.108
0.10641
0.10483
0.10096
0.098904
0.091821
0.089683
0.080236
0.077426
0.065957
0.061933
0.10844
0.10816
0.10657
0.10497
0.10107
0.098986
0.091855
0.089652
0.080174
0.077282
0.065827
0.061712
0.10861
0.10833
0.10673
0.10512
0.10118
0.099073
0.091894
0.089624
0.080115
0.07714
0.065698
0.061491
0.10879
0.10851
0.1069
0.10527
0.1013
0.099163
0.091937
0.089599
0.080058
0.077
0.065571
0.061271
0.10897
0.10869
0.10707
0.10543
0.10142
0.099258
0.091986
0.089577
0.080005
0.076861
0.065444
0.061051
0.10916
0.10888
0.10725
0.10559
0.10155
0.099358
0.092038
0.089558
0.079956
0.076724
0.065319
0.060832
0.10936
0.10908
0.10744
0.10576
0.10168
0.099462
0.092096
0.089544
0.079909
0.076588
0.065196
0.060614
0.10956
0.10928
0.10763
0.10594
0.10182
0.099571
0.09216
0.089532
0.079866
0.076455
0.065073
0.060396
0.10977
0.10949
0.10783
0.10612
0.10197
0.099685
0.092228
0.089525
0.079827
0.076323
0.064951
0.060178
0.10998
0.1097
0.10804
0.10631
0.10212
0.099804
0.092302
0.089522
0.079791
0.076193
0.064831
0.059961
0.11021
0.10993
0.10825
0.10651
0.10228
0.099928
0.092382
0.089523
0.079759
0.076065
0.064711
0.059744
0.11043
0.11015
0.10847
0.10671
0.10245
0.10006
0.092467
0.089528
0.079731
0.075939
0.064593
0.059528
0.11067
0.11039
0.1087
0.10693
0.10262
0.10019
0.092559
0.089537
0.079706
0.075815
0.064476
0.059311
0.11091
0.11064
0.10893
0.10715
0.1028
0.10034
0.092656
0.089552
0.079686
0.075693
0.064359
0.059095
0.11116
0.11089
0.10917
0.10737
0.10299
0.10048
0.09276
0.08957
0.079669
0.075574
0.064244
0.058878
0.11142
0.11115
0.10942
0.10761
0.10319
0.10064
0.092871
0.089594
0.079657
0.075456
0.064129
0.058662
0.11168
0.11141
0.10968
0.10785
0.10339
0.1008
0.092987
0.089622
0.079649
0.07534
0.064015
0.058445
0.11196
0.11169
0.10995
0.1081
0.1036
0.10097
0.093111
0.089655
0.079645
0.075227
0.063902
0.058227
0.11224
0.11197
0.11022
0.10836
0.10382
0.10114
0.093241
0.089694
0.079645
0.075116
0.06379
0.058009
0.11253
0.11227
0.11051
0.10863
0.10405
0.10132
0.093378
0.089737
0.07965
0.075006
0.063678
0.057791
0.11282
0.11257
0.1108
0.10891
0.10429
0.10151
0.093523
0.089786
0.079659
0.074899
0.063566
0.057571
0.11313
0.11288
0.1111
0.10919
0.10453
0.10171
0.093674
0.08984
0.079672
0.074794
0.063455
0.057351
0.11344
0.1132
0.11141
0.10949
0.10479
0.10191
0.093832
0.0899
0.079689
0.074691
0.063345
0.05713
0.11377
0.11353
0.11173
0.10979
0.10505
0.10212
0.093998
0.089964
0.079711
0.07459
0.063234
0.056907
0.1141
0.11386
0.11206
0.11011
0.10532
0.10234
0.094171
0.090034
0.079736
0.074491
0.063123
0.056683
0.11444
0.11421
0.1124
0.11043
0.10561
0.10257
0.094351
0.09011
0.079766
0.074393
0.063012
0.056457
0.11479
0.11457
0.11275
0.11077
0.1059
0.1028
0.094539
0.090191
0.0798
0.074297
0.0629
0.056229
0.11515
0.11493
0.1131
0.11111
0.1062
0.10304
0.094734
0.090277
0.079838
0.074202
0.062788
0.055998
0.11551
0.11531
0.11347
0.11146
0.10651
0.1033
0.094937
0.090369
0.079879
0.074109
0.062674
0.055765
0.11589
0.1157
0.11385
0.11183
0.10684
0.10356
0.095147
0.090465
0.079924
0.074017
0.06256
0.05553
0.11628
0.11609
0.11424
0.1122
0.10717
0.10382
0.095364
0.090567
0.079973
0.073925
0.062444
0.055291
0.11667
0.1165
0.11464
0.11259
0.10751
0.1041
0.095589
0.090674
0.080025
0.073834
0.062326
0.055049
0.11708
0.11692
0.11505
0.11299
0.10786
0.10438
0.095822
0.090786
0.08008
0.073744
0.062207
0.054802
0.11749
0.11735
0.11547
0.11339
0.10823
0.10468
0.096061
0.090903
0.080138
0.073654
0.062084
0.054552
0.11792
0.11778
0.1159
0.11381
0.1086
0.10498
0.096308
0.091025
0.080198
0.073564
0.061959
0.054297
0.11835
0.11823
0.11635
0.11424
0.10898
0.10529
0.096562
0.091151
0.080261
0.073473
0.061831
0.054036
0.11879
0.11869
0.1168
0.11468
0.10938
0.10561
0.096824
0.091282
0.080325
0.073381
0.061699
0.05377
0.11925
0.11917
0.11727
0.11514
0.10979
0.10594
0.097092
0.091417
0.080392
0.073288
0.061563
0.053498
0.11971
0.11965
0.11774
0.1156
0.11021
0.10628
0.097368
0.091556
0.08046
0.073194
0.061423
0.05322
0.12019
0.12014
0.11823
0.11608
0.11064
0.10663
0.09765
0.091698
0.080528
0.073098
0.061277
0.052934
0.12068
0.12065
0.11873
0.11657
0.11108
0.10699
0.09794
0.091845
0.080598
0.072999
0.061126
0.05264
0.12118
0.12117
0.11925
0.11707
0.11153
0.10735
0.098237
0.091996
0.080668
0.072898
0.060969
0.052338
0.12169
0.1217
0.11978
0.11758
0.112
0.10773
0.098541
0.092149
0.080738
0.072793
0.060805
0.052027
0.12221
0.12225
0.12032
0.11811
0.11248
0.10812
0.098852
0.092307
0.080808
0.072685
0.060633
0.051707
0.12274
0.12281
0.12088
0.11866
0.11297
0.10851
0.099171
0.092467
0.080878
0.072572
0.060454
0.051376
0.12329
0.12338
0.12145
0.11922
0.11348
0.10892
0.099497
0.092631
0.080946
0.072456
0.060267
0.051034
0.12385
0.12397
0.12204
0.11979
0.114
0.10934
0.09983
0.092798
0.081014
0.072334
0.06007
0.05068
0.12443
0.12458
0.12264
0.12038
0.11454
0.10978
0.10017
0.092968
0.081079
0.072207
0.059864
0.050314
0.12502
0.1252
0.12327
0.12099
0.11509
0.11022
0.10052
0.093141
0.081144
0.072074
0.059647
0.049934
0.12563
0.12584
0.12391
0.12162
0.11566
0.11068
0.10088
0.093318
0.081206
0.071935
0.059419
0.049541
0.12625
0.1265
0.12458
0.12227
0.11625
0.11115
0.10125
0.093498
0.081266
0.071789
0.05918
0.049133
0.1269
0.12719
0.12526
0.12294
0.11686
0.11164
0.10163
0.093682
0.081324
0.071637
0.058928
0.048709
0.12756
0.12789
0.12597
0.12364
0.1175
0.11215
0.10202
0.093871
0.08138
0.071477
0.058663
0.048268
0.12825
0.12862
0.12671
0.12436
0.11815
0.11267
0.10242
0.094063
0.081433
0.071309
0.058385
0.04781
0.12896
0.12938
0.12747
0.1251
0.11883
0.11321
0.10283
0.094261
0.081484
0.071133
0.058092
0.047334
0.1297
0.13017
0.12827
0.12588
0.11954
0.11378
0.10326
0.094464
0.081533
0.070949
0.057784
0.046839
0.13047
0.13098
0.1291
0.12669
0.12028
0.11436
0.1037
0.094673
0.081579
0.070756
0.057461
0.046323
0.13126
0.13184
0.12996
0.12753
0.12105
0.11497
0.10416
0.094888
0.081623
0.070553
0.05712
0.045785
0.13209
0.13272
0.13087
0.12842
0.12185
0.11561
0.10463
0.09511
0.081664
0.07034
0.056762
0.045226
0.13295
0.13365
0.13182
0.12934
0.1227
0.11628
0.10513
0.095339
0.081702
0.070117
0.056385
0.044642
0.13385
0.13461
0.13281
0.13031
0.12358
0.11697
0.10564
0.095576
0.081737
0.069883
0.055988
0.044033
0.13479
0.13563
0.13385
0.13132
0.12451
0.1177
0.10618
0.095821
0.081769
0.069636
0.05557
0.043398
0.13577
0.13669
0.13494
0.13238
0.12548
0.11846
0.10674
0.096075
0.081797
0.069376
0.055129
0.042735
0.13679
0.1378
0.13609
0.1335
0.1265
0.11926
0.10732
0.096337
0.08182
0.0691
0.054664
0.042042
0.13786
0.13896
0.1373
0.13468
0.12758
0.1201
0.10792
0.096606
0.081838
0.068808
0.054173
0.041317
0.13898
0.14018
0.13857
0.13591
0.12871
0.12098
0.10855
0.096883
0.081848
0.068497
0.053652
0.040558
0.14015
0.14146
0.13991
0.13721
0.1299
0.1219
0.10921
0.097167
0.081848
0.068165
0.053099
0.039763
0.14137
0.14279
0.14132
0.13858
0.13115
0.12286
0.10989
0.097455
0.081837
0.067807
0.052512
0.038928
0.14264
0.1442
0.1428
0.14002
0.13246
0.12387
0.1106
0.097746
0.081811
0.067422
0.051885
0.03805
0.14397
0.14566
0.14436
0.14153
0.13384
0.12492
0.11133
0.098038
0.081767
0.067004
0.051216
0.037126
0.14535
0.14719
0.14599
0.14311
0.13528
0.12602
0.11209
0.098327
0.0817
0.066548
0.050498
0.036151
0.14678
0.14879
0.14771
0.14478
0.13679
0.12716
0.11286
0.09861
0.081606
0.066049
0.049727
0.035119
0.14826
0.15045
0.14951
0.14652
0.13838
0.12835
0.11366
0.098882
0.08148
0.065502
0.048896
0.034027
0.14979
0.15219
0.15139
0.14834
0.14003
0.12957
0.11446
0.099138
0.081315
0.064899
0.047999
0.032867
0.15137
0.15398
0.15336
0.15026
0.14175
0.13084
0.11528
0.099373
0.081104
0.064233
0.04703
0.031633
0.15299
0.15585
0.15541
0.15226
0.14355
0.13215
0.1161
0.09958
0.080841
0.063497
0.04598
0.030317
0.15466
0.15779
0.15756
0.15435
0.14541
0.1335
0.11693
0.099753
0.080518
0.062683
0.044842
0.028911
0.15637
0.1598
0.15981
0.15654
0.14736
0.13489
0.11774
0.099884
0.080125
0.061783
0.043608
0.027408
0.15811
0.16188
0.16217
0.15884
0.14938
0.13631
0.11855
0.099966
0.079655
0.060788
0.04227
0.0258
0.15989
0.16405
0.16463
0.16124
0.15148
0.13776
0.11934
0.099988
0.079097
0.059689
0.04082
0.024078
0.16171
0.16629
0.16722
0.16378
0.15367
0.13925
0.1201
0.099941
0.07844
0.058477
0.03925
0.022234
0.16356
0.16864
0.16995
0.16645
0.15594
0.14076
0.12082
0.099812
0.077672
0.05714
0.03755
0.02026
0.16544
0.17109
0.17284
0.16929
0.15832
0.14231
0.1215
0.099587
0.076776
0.055666
0.035712
0.01815
0.16735
0.17366
0.1759
0.17229
0.16081
0.14387
0.12212
0.099246
0.075733
0.05404
0.033722
0.015894
0.16928
0.17637
0.17917
0.1755
0.16341
0.14545
0.12265
0.098766
0.074521
0.052241
0.031566
0.013484
0.17123
0.17922
0.18268
0.17893
0.16613
0.14704
0.12307
0.098117
0.073109
0.050244
0.029226
0.01091
0.17317
0.18224
0.18644
0.18261
0.16898
0.1486
0.12336
0.097262
0.07146
0.04802
0.026678
0.0081573
0.17508
0.18543
0.1905
0.18654
0.17194
0.15012
0.12346
0.096154
0.069529
0.045528
0.023892
0.0052076
0.1769
0.18879
0.19487
0.19076
0.17501
0.15156
0.12333
0.094736
0.067265
0.042726
0.020831
0.002038
0.17858
0.1923
0.19957
0.19525
0.17815
0.15285
0.1229
0.092944
0.064607
0.039561
0.017456
-0.0013795
0.18001
0.19594
0.20461
0.2
0.18132
0.15393
0.12209
0.090702
0.061491
0.03598
0.013723
-0.0050757
0.18106
0.19966
0.20997
0.20498
0.18445
0.1547
0.12081
0.087928
0.057852
0.031933
0.0095896
-0.0090802
0.18155
0.20336
0.21563
0.21014
0.18744
0.15505
0.11894
0.084534
0.053625
0.027374
0.0050252
-0.013415
0.18125
0.20693
0.22151
0.21538
0.19016
0.15482
0.11637
0.080427
0.048753
0.022271
1.2417e-05
-0.018086
0.17987
0.2102
0.22751
0.22058
0.19243
0.15385
0.11294
0.075509
0.04318
0.016603
-0.0054452
-0.023078
0.17704
0.21293
0.23342
0.2255
0.19403
0.15191
0.10851
0.06968
0.03686
0.010364
-0.011323
-0.028347
0.1723
0.21472
0.23887
0.22979
0.19461
0.14876
0.10289
0.062834
0.029747
0.0035564
-0.017577
-0.033825
0.16509
0.21499
0.24322
0.23286
0.19371
0.14407
0.095885
0.054875
0.021809
-0.0038059
-0.024153
-0.039425
0.15477
0.21278
0.24533
0.2337
0.19064
0.13745
0.087311
0.045739
0.013046
-0.01169
-0.030985
-0.04506
0.14067
0.20659
0.24325
0.23067
0.18436
0.1284
0.07701
0.035436
0.0035303
-0.020014
-0.037987
-0.050638
0.12222
0.19416
0.23391
0.22123
0.17342
0.11633
0.064877
0.024082
-0.0065562
-0.02861
-0.045027
-0.056068
0.099262
0.17238
0.21273
0.20163
0.15571
0.10045
0.050825
0.011883
-0.01693
-0.037224
-0.051921
-0.061248
0.072561
0.13762
0.17378
0.16691
0.1284
0.079599
0.034617
-0.0010148
-0.02732
-0.045589
-0.058473
-0.066081
0.044217
0.08681
0.11099
0.11152
0.088028
0.052125
0.015654
-0.014714
-0.037624
-0.053545
-0.06455
-0.070512
0.017259
0.018084
0.020307
0.031068
0.031173
0.015985
-0.0070597
-0.029628
-0.047984
-0.061118
-0.070152
-0.074577
-0.0044232
-0.072666
-0.10302
-0.078743
-0.04621
-0.031829
-0.035295
-0.046702
-0.058938
-0.068669
-0.075558
-0.078552
-0.0054061
-0.17592
-0.251
-0.21214
-0.14259
-0.09245
-0.070781
-0.067443
-0.071705
-0.077211
-0.081637
-0.083212
0.027443
-0.26732
-0.39401
-0.34169
-0.23831
-0.15513
-0.10897
-0.090392
-0.08606
-0.08691
-0.088669
-0.088719
0.10163
0.062088
0.051895
0.045805
0.0416
0.038477
0.035995
0.033941
0.032186
0.030621
0.029251
0.027692
0.12078
0.07713
0.064471
0.05638
0.050856
0.046804
0.043613
0.04099
0.038767
0.036791
0.035083
0.033319
0.10825
0.072193
0.060744
0.052792
0.047347
0.043374
0.040261
0.037719
0.035578
0.033683
0.032063
0.030395
0.10322
0.071889
0.060778
0.052743
0.047167
0.043087
0.039891
0.037288
0.035104
0.033176
0.031536
0.029816
0.10252
0.074007
0.062742
0.054496
0.048679
0.044398
0.041039
0.038303
0.03601
0.033991
0.032276
0.030475
0.10181
0.075761
0.06443
0.056057
0.050046
0.045593
0.042088
0.039233
0.03684
0.034738
0.032953
0.031093
0.10063
0.076981
0.065729
0.05731
0.051157
0.046563
0.042936
0.039977
0.037497
0.035326
0.033478
0.031577
0.099371
0.077964
0.066879
0.058466
0.052202
0.047483
0.043741
0.040685
0.038123
0.035885
0.033979
0.032046
0.098182
0.078797
0.067947
0.059581
0.053236
0.048404
0.044554
0.041403
0.038759
0.036457
0.034492
0.032537
0.097044
0.079474
0.06892
0.060645
0.05425
0.049322
0.045371
0.042129
0.039404
0.03704
0.035016
0.033047
0.095937
0.079996
0.06979
0.061645
0.055234
0.050229
0.046189
0.042861
0.040058
0.037634
0.035552
0.033575
0.09486
0.080377
0.070554
0.062573
0.05618
0.051121
0.047004
0.043597
0.04072
0.038238
0.0361
0.034119
0.093814
0.080635
0.071215
0.063425
0.05708
0.051989
0.047812
0.044335
0.041389
0.038852
0.036661
0.034677
0.092804
0.080785
0.071776
0.064198
0.057928
0.052827
0.048604
0.045069
0.042061
0.039473
0.03723
0.035244
0.09183
0.080843
0.072244
0.06489
0.058717
0.053628
0.049375
0.045792
0.042731
0.040097
0.037805
0.035815
0.090894
0.080824
0.072624
0.065502
0.059443
0.054384
0.050118
0.046499
0.043394
0.040717
0.038381
0.036383
0.089997
0.080742
0.072925
0.066038
0.060106
0.055092
0.050827
0.047184
0.044042
0.04133
0.038953
0.036942
0.089137
0.080606
0.073155
0.066501
0.060706
0.05575
0.051498
0.047842
0.044673
0.041929
0.039516
0.037488
0.088316
0.080428
0.073322
0.066896
0.061244
0.056357
0.052128
0.04847
0.045281
0.042512
0.040066
0.038015
0.087531
0.080216
0.073433
0.06723
0.061722
0.056912
0.052717
0.049063
0.045863
0.043073
0.040599
0.038522
0.086781
0.079976
0.073496
0.067507
0.062145
0.057417
0.053263
0.049622
0.046417
0.043611
0.041113
0.039005
0.086064
0.079714
0.073516
0.067733
0.062515
0.057874
0.053767
0.050145
0.046941
0.044123
0.041606
0.039465
0.085379
0.079436
0.0735
0.067913
0.062837
0.058285
0.05423
0.050633
0.047435
0.044609
0.042077
0.0399
0.084723
0.079145
0.073452
0.068052
0.063115
0.058653
0.054653
0.051085
0.047899
0.045068
0.042524
0.040313
0.084094
0.078843
0.073377
0.068155
0.063352
0.058981
0.055039
0.051504
0.048332
0.0455
0.042948
0.040703
0.08349
0.078535
0.073279
0.068224
0.063552
0.059271
0.055389
0.051889
0.048736
0.045906
0.04335
0.041073
0.08291
0.078221
0.07316
0.068265
0.063718
0.059527
0.055706
0.052244
0.049112
0.046286
0.043728
0.041423
0.082352
0.077903
0.073024
0.06828
0.063854
0.059751
0.055991
0.052569
0.04946
0.046642
0.044084
0.041756
0.081813
0.077583
0.072873
0.068272
0.063962
0.059945
0.056248
0.052866
0.049783
0.046974
0.04442
0.042073
0.081293
0.077262
0.07271
0.068244
0.064045
0.060113
0.056477
0.053137
0.050081
0.047284
0.044735
0.042374
0.08079
0.076941
0.072537
0.068198
0.064106
0.060256
0.056681
0.053383
0.050356
0.047573
0.045032
0.042661
0.080304
0.07662
0.072354
0.068135
0.064146
0.060376
0.056862
0.053607
0.050609
0.047842
0.045309
0.042934
0.079832
0.0763
0.072163
0.068059
0.064168
0.060475
0.057021
0.053809
0.050842
0.048093
0.04557
0.043194
0.079374
0.075981
0.071966
0.067971
0.064173
0.060556
0.05716
0.053992
0.051055
0.048325
0.045814
0.043442
0.078929
0.075665
0.071764
0.067871
0.064163
0.060619
0.05728
0.054156
0.05125
0.048541
0.046042
0.043677
0.078496
0.07535
0.071557
0.067761
0.064139
0.060666
0.057384
0.054302
0.051428
0.048741
0.046256
0.043901
0.078074
0.075038
0.071346
0.067643
0.064103
0.060698
0.057471