/*--------------------------------*- C++ -*----------------------------------*\
  =========                 |
  \\      /  F ield         | OpenFOAM: The Open Source CFD Toolbox
   \\    /   O peration     | Website:  https://openfoam.org
    \\  /    A nd           | Version:  6.0
     \\/     M anipulation  |
\*---------------------------------------------------------------------------*/
FoamFile
{
    version     2.0;
    format      ascii;
    class       surfaceScalarField;
    location    "4";
    object      phi;
}
// * * * * * * * * * * * * * * * * * * * * * * * * * * * * * * * * * * * * * //

dimensions      [0 3 -1 0 0 0 0];

internalField   nonuniform List<scalar> 
26699
(
2.0051e-05
0.005201
5.9685e-10
4.0126e-05
0.0051116
5.9638e-05
0.0049351
7.8187e-05
0.0046741
9.5415e-05
0.0043332
0.00011102
0.0039182
0.00012472
0.0034362
0.00013626
0.0028953
0.00014546
0.002305
0.00015181
0.0016755
0.00015717
0.0010154
0.00046502
3.4353e-05
2.0051e-05
0.0051809
1.8393e-09
4.0127e-05
0.0050916
5.964e-05
0.0049156
7.8191e-05
0.0046556
9.5417e-05
0.004316
0.00011102
0.0039026
0.00012471
0.0034225
0.00013625
0.0028838
0.00014545
0.0022958
0.00015105
0.0016699
0.0001589
0.0010076
0.00055904
6.4885e-05
2.0051e-05
0.0051609
3.1862e-09
4.0129e-05
0.0050715
5.9642e-05
0.004896
7.8194e-05
0.004637
9.542e-05
0.0042988
0.00011103
0.003887
0.00012471
0.0034088
0.00013622
0.0028723
0.00014547
0.0022865
0.00015029
0.0016651
0.00016017
0.00099767
0.00062921
8.9997e-05
2.005e-05
0.0051408
4.5537e-09
4.013e-05
0.0050514
5.9645e-05
0.0048765
7.8197e-05
0.0046185
9.5423e-05
0.0042815
0.00011103
0.0038714
0.0001247
0.0033951
0.0001362
0.0028608
0.00014551
0.0022772
0.00014954
0.001661
0.00016089
0.00098632
0.00067992
0.00011018
2.005e-05
0.0051208
5.9249e-09
4.0131e-05
0.0050313
5.9647e-05
0.004857
7.82e-05
0.0045999
9.5426e-05
0.0042643
0.00011103
0.0038558
0.0001247
0.0033815
0.00013618
0.0028493
0.00014558
0.0022678
0.00014885
0.0016578
0.0001611
0.00097407
0.0007148
0.00012622
2.005e-05
0.0051007
7.2996e-09
4.0132e-05
0.0050112
5.9649e-05
0.0048375
7.8203e-05
0.0045814
9.5429e-05
0.0042471
0.00011103
0.0038402
0.0001247
0.0033678
0.00013615
0.0028379
0.00014567
0.0022583
0.00014822
0.0016552
0.00016086
0.00096143
0.00073688
0.00013878
2.005e-05
0.0050807
8.6777e-09
4.0133e-05
0.0049912
5.9651e-05
0.004818
7.8206e-05
0.0045628
9.5433e-05
0.0042299
0.00011103
0.0038246
0.0001247
0.0033541
0.00013612
0.0028264
0.00014579
0.0022486
0.00014768
0.0016533
0.00016025
0.00094886
0.00074872
0.00014842
2.005e-05
0.0050606
1.0059e-08
4.0134e-05
0.0049711
5.9654e-05
0.0047985
7.8209e-05
0.0045442
9.5436e-05
0.0042126
0.00011104
0.003809
0.0001247
0.0033405
0.00013608
0.0028151
0.00014591
0.0022388
0.00014724
0.001652
0.00015938
0.00093672
0.00075247
0.00015563
2.005e-05
0.0050405
1.1444e-08
4.0135e-05
0.004951
5.9656e-05
0.0047789
7.8212e-05
0.0045257
9.5439e-05
0.0041954
0.00011104
0.0037934
0.0001247
0.0033268
0.00013604
0.0028037
0.00014605
0.0022288
0.00014691
0.0016512
0.00015832
0.00092531
0.00074995
0.00016084
2.005e-05
0.0050205
1.2833e-08
4.0137e-05
0.0049309
5.9658e-05
0.0047594
7.8215e-05
0.0045071
9.5442e-05
0.0041782
0.00011104
0.0037778
0.0001247
0.0033132
0.00013599
0.0027924
0.00014619
0.0022186
0.00014668
0.0016507
0.00015716
0.00091483
0.00074267
0.00016444
2.005e-05
0.0050004
1.4226e-08
4.0138e-05
0.0049108
5.9661e-05
0.0047399
7.8218e-05
0.0044886
9.5446e-05
0.004161
0.00011104
0.0037622
0.0001247
0.0032995
0.00013595
0.0027812
0.00014633
0.0022082
0.00014656
0.0016504
0.00015595
0.00090544
0.00073189
0.00016674
2.005e-05
0.0049803
1.5622e-08
4.0139e-05
0.0048907
5.9663e-05
0.0047204
7.8221e-05
0.00447
9.5449e-05
0.0041437
0.00011105
0.0037466
0.00012471
0.0032858
0.00013589
0.00277
0.00014647
0.0021976
0.00014655
0.0016503
0.00015476
0.00089724
0.00071862
0.00016803
2.005e-05
0.0049603
1.7022e-08
4.014e-05
0.0048706
5.9665e-05
0.0047008
7.8224e-05
0.0044515
9.5453e-05
0.0041265
0.00011105
0.003731
0.00012472
0.0032722
0.00013584
0.0027589
0.0001466
0.0021869
0.00014664
0.0016503
0.00015362
0.00089025
0.00070371
0.00016854
2.005e-05
0.0049402
1.8426e-08
4.0141e-05
0.0048505
5.9668e-05
0.0046813
7.8227e-05
0.0044329
9.5456e-05
0.0041093
0.00011105
0.0037154
0.00012472
0.0032585
0.00013578
0.0027478
0.00014672
0.0021759
0.00014681
0.0016502
0.00015258
0.00088448
0.00068783
0.00016846
2.0049e-05
0.0049201
1.9833e-08
4.0142e-05
0.0048305
5.967e-05
0.0046618
7.8231e-05
0.0044143
9.546e-05
0.004092
0.00011105
0.0036998
0.00012473
0.0032448
0.00013571
0.0027368
0.00014683
0.0021648
0.00014706
0.00165
0.00015164
0.0008799
0.00067151
0.00016795
2.0049e-05
0.0049001
2.1245e-08
4.0143e-05
0.0048104
5.9672e-05
0.0046423
7.8234e-05
0.0043958
9.5463e-05
0.0040748
0.00011106
0.0036842
0.00012475
0.0032311
0.00013565
0.0027259
0.00014693
0.0021535
0.00014738
0.0016495
0.00015083
0.00087644
0.00065518
0.00016716
2.0049e-05
0.00488
2.2661e-08
4.0144e-05
0.0047903
5.9675e-05
0.0046227
7.8237e-05
0.0043772
9.5467e-05
0.0040576
0.00011106
0.0036686
0.00012476
0.0032174
0.00013558
0.0027151
0.000147
0.0021421
0.00014775
0.0016488
0.00015016
0.00087403
0.00063917
0.00016618
2.0049e-05
0.0048599
2.4081e-08
4.0146e-05
0.0047702
5.9677e-05
0.0046032
7.824e-05
0.0043586
9.5471e-05
0.0040404
0.00011106
0.003653
0.00012477
0.0032037
0.00013551
0.0027044
0.00014707
0.0021306
0.00014816
0.0016477
0.00014963
0.00087257
0.00062369
0.0001651
2.0049e-05
0.0048399
2.5504e-08
4.0147e-05
0.0047501
5.9679e-05
0.0045837
7.8243e-05
0.0043401
9.5474e-05
0.0040231
0.00011106
0.0036374
0.00012479
0.00319
0.00013544
0.0026937
0.00014711
0.0021189
0.00014861
0.0016462
0.00014923
0.00087194
0.00060894
0.00016399
2.0049e-05
0.0048198
2.6932e-08
4.0148e-05
0.00473
5.9682e-05
0.0045641
7.8247e-05
0.0043215
9.5478e-05
0.0040059
0.00011106
0.0036219
0.00012481
0.0031762
0.00013538
0.0026832
0.00014713
0.0021071
0.00014908
0.0016442
0.00014897
0.00087205
0.00059502
0.0001629
2.0049e-05
0.0047997
2.8365e-08
4.0149e-05
0.0047099
5.9684e-05
0.0045446
7.825e-05
0.004303
9.5482e-05
0.0039887
0.00011106
0.0036063
0.00012483
0.0031625
0.00013531
0.0026727
0.00014713
0.0020953
0.00014957
0.0016418
0.00014884
0.00087278
0.00058199
0.00016186
2.0049e-05
0.0047796
2.9801e-08
4.015e-05
0.0046898
5.9686e-05
0.0045251
7.8253e-05
0.0042844
9.5486e-05
0.0039714
0.00011107
0.0035907
0.00012485
0.0031487
0.00013524
0.0026623
0.00014712
0.0020834
0.00015006
0.0016388
0.00014882
0.00087402
0.0005699
0.00016091
2.0049e-05
0.0047595
3.1242e-08
4.0151e-05
0.0046697
5.9689e-05
0.0045055
7.8256e-05
0.0042658
9.5491e-05
0.0039542
0.00011107
0.0035751
0.00012488
0.0031349
0.00013518
0.002652
0.00014708
0.0020715
0.00015054
0.0016354
0.0001489
0.00087567
0.00055875
0.00016006
2.0048e-05
0.0047395
3.2687e-08
4.0152e-05
0.0046496
5.9691e-05
0.004486
7.826e-05
0.0042473
9.5495e-05
0.003937
0.00011107
0.0035595
0.00012491
0.003121
0.00013511
0.0026418
0.00014703
0.0020596
0.00015102
0.0016314
0.00014908
0.0008776
0.00054851
0.00015932
2.0048e-05
0.0047194
3.4137e-08
4.0153e-05
0.0046295
5.9694e-05
0.0044664
7.8263e-05
0.0042287
9.5499e-05
0.0039197
0.00011107
0.003544
0.00012493
0.0031072
0.00013506
0.0026317
0.00014695
0.0020477
0.00015148
0.0016269
0.00014934
0.00087974
0.00053914
0.0001587
2.0048e-05
0.0046993
3.5592e-08
4.0155e-05
0.0046093
5.9696e-05
0.0044469
7.8266e-05
0.0042101
9.5504e-05
0.0039025
0.00011107
0.0035284
0.00012496
0.0030933
0.000135
0.0026216
0.00014686
0.0020359
0.00015191
0.0016218
0.00014966
0.000882
0.0005306
0.0001582
2.0048e-05
0.0046792
3.7051e-08
4.0156e-05
0.0045892
5.9698e-05
0.0044274
7.827e-05
0.0041915
9.5508e-05
0.0038852
0.00011107
0.0035129
0.000125
0.0030793
0.00013495
0.0026117
0.00014675
0.0020241
0.00015232
0.0016163
0.00015004
0.00088428
0.00052282
0.00015781
2.0048e-05
0.0046591
3.8514e-08
4.0157e-05
0.0045691
5.9701e-05
0.0044078
7.8273e-05
0.004173
9.5513e-05
0.003868
0.00011106
0.0034973
0.00012503
0.0030654
0.00013491
0.0026018
0.00014663
0.0020123
0.0001527
0.0016102
0.00015046
0.00088651
0.00051575
0.00015754
2.0048e-05
0.004639
3.9983e-08
4.0158e-05
0.004549
5.9703e-05
0.0043883
7.8276e-05
0.0041544
9.5518e-05
0.0038508
0.00011106
0.0034818
0.00012506
0.0030514
0.00013487
0.002592
0.0001465
0.0020007
0.00015305
0.0016036
0.00015092
0.00088864
0.00050932
0.00015736
2.0048e-05
0.0046189
4.1456e-08
4.0159e-05
0.0045289
5.9706e-05
0.0043687
7.828e-05
0.0041358
9.5523e-05
0.0038335
0.00011106
0.0034662
0.0001251
0.0030373
0.00013484
0.0025822
0.00014635
0.0019892
0.00015336
0.0015966
0.0001514
0.0008906
0.00050345
0.00015727
2.0048e-05
0.0045989
4.2934e-08
4.016e-05
0.0045088
5.9708e-05
0.0043492
7.8283e-05
0.0041172
9.5529e-05
0.0038163
0.00011106
0.0034507
0.00012513
0.0030233
0.00013481
0.0025726
0.00014619
0.0019778
0.00015363
0.0015892
0.00015189
0.00089234
0.00049809
0.00015726
2.0047e-05
0.0045788
4.4417e-08
4.0161e-05
0.0044887
5.9711e-05
0.0043296
7.8286e-05
0.0040987
9.5534e-05
0.003799
0.00011106
0.0034352
0.00012517
0.0030091
0.0001348
0.0025629
0.00014603
0.0019666
0.00015387
0.0015813
0.00015239
0.00089383
0.00049316
0.00015731
2.0047e-05
0.0045587
4.5905e-08
4.0163e-05
0.0044686
5.9713e-05
0.0043101
7.829e-05
0.0040801
9.554e-05
0.0037818
0.00011105
0.0034197
0.00012521
0.002995
0.00013479
0.0025534
0.00014585
0.0019555
0.00015407
0.0015731
0.00015288
0.00089502
0.0004886
0.00015743
2.0047e-05
0.0045386
4.7399e-08
4.0164e-05
0.0044485
5.9716e-05
0.0042905
7.8293e-05
0.0040615
9.5546e-05
0.0037645
0.00011105
0.0034042
0.00012525
0.0029808
0.00013478
0.0025438
0.00014567
0.0019446
0.00015424
0.0015646
0.00015336
0.0008959
0.00048437
0.0001576
2.0047e-05
0.0045185
4.8897e-08
4.0165e-05
0.0044283
5.9718e-05
0.004271
7.8297e-05
0.0040429
9.5552e-05
0.0037473
0.00011104
0.0033887
0.00012528
0.0029665
0.00013479
0.0025343
0.00014549
0.0019339
0.00015436
0.0015557
0.00015383
0.00089644
0.00048039
0.0001578
2.0047e-05
0.0044984
5.0401e-08
4.0166e-05
0.0044082
5.9721e-05
0.0042514
7.83e-05
0.0040244
9.5558e-05
0.00373
0.00011104
0.0033732
0.00012532
0.0029523
0.0001348
0.0025248
0.00014531
0.0019234
0.00015446
0.0015465
0.00015427
0.00089662
0.00047663
0.00015803
2.0047e-05
0.0044783
5.1911e-08
4.0167e-05
0.0043881
5.9723e-05
0.0042319
7.8303e-05
0.0040058
9.5564e-05
0.0037127
0.00011103
0.0033577
0.00012536
0.0029379
0.00013483
0.0025154
0.00014513
0.0019131
0.00015452
0.0015371
0.00015469
0.00089645
0.00047305
0.00015828
2.0047e-05
0.0044582
5.3426e-08
4.0168e-05
0.004368
5.9726e-05
0.0042123
7.8307e-05
0.0039872
9.5571e-05
0.0036955
0.00011103
0.0033423
0.0001254
0.0029236
0.00013486
0.0025059
0.00014495
0.001903
0.00015454
0.0015275
0.00015509
0.0008959
0.00046959
0.00015854
2.0046e-05
0.0044381
5.4946e-08
4.0169e-05
0.0043479
5.9728e-05
0.0041927
7.831e-05
0.0039686
9.5578e-05
0.0036782
0.00011102
0.0033268
0.00012544
0.0029091
0.0001349
0.0024964
0.00014477
0.0018932
0.00015454
0.0015178
0.00015545
0.00089499
0.00046623
0.00015881
2.0046e-05
0.004418
5.6473e-08
4.0171e-05
0.0043277
5.9731e-05
0.0041732
7.8314e-05
0.00395
9.5586e-05
0.0036609
0.00011101
0.0033114
0.00012547
0.0028947
0.00013494
0.002487
0.0001446
0.0018835
0.00015451
0.0015079
0.00015578
0.00089372
0.00046293
0.00015908
2.0046e-05
0.0043979
5.8005e-08
4.0172e-05
0.0043076
5.9734e-05
0.0041536
7.8317e-05
0.0039315
9.5593e-05
0.0036437
0.00011101
0.003296
0.00012551
0.0028802
0.000135
0.0024775
0.00014443
0.0018741
0.00015445
0.0014978
0.00015608
0.0008921
0.00045966
0.00015934
2.0046e-05
0.0043778
5.9543e-08
4.0173e-05
0.0042875
5.9736e-05
0.0041341
7.8321e-05
0.0039129
9.5601e-05
0.0036264
0.000111
0.0032806
0.00012554
0.0028656
0.00013506
0.002468
0.00014427
0.0018649
0.00015438
0.0014877
0.00015635
0.00089013
0.00045641
0.0001596
2.0046e-05
0.0043577
6.1087e-08
4.0174e-05
0.0042673
5.9739e-05
0.0041145
7.8324e-05
0.0038943
9.5609e-05
0.0036091
0.00011099
0.0032652
0.00012557
0.002851
0.00013513
0.0024584
0.00014412
0.0018559
0.00015428
0.0014776
0.00015658
0.00088783
0.00045316
0.00015983
2.0046e-05
0.0043376
6.2637e-08
4.0175e-05
0.0042472
5.9742e-05
0.0040949
7.8328e-05
0.0038757
9.5618e-05
0.0035918
0.00011098
0.0032498
0.00012561
0.0028364
0.00013521
0.0024488
0.00014398
0.0018471
0.00015416
0.0014674
0.00015678
0.00088521
0.00044988
0.00016005
2.0046e-05
0.0043174
6.4193e-08
4.0176e-05
0.0042271
5.9744e-05
0.0040754
7.8331e-05
0.0038571
9.5626e-05
0.0035745
0.00011097
0.0032345
0.00012563
0.0028218
0.00013529
0.0024392
0.00014385
0.0018385
0.00015403
0.0014572
0.00015695
0.00088229
0.00044657
0.00016026
2.0045e-05
0.0042973
6.5755e-08
4.0178e-05
0.004207
5.9747e-05
0.0040558
7.8334e-05
0.0038385
9.5636e-05
0.0035572
0.00011096
0.0032192
0.00012566
0.0028071
0.00013538
0.0024294
0.00014373
0.0018302
0.00015388
0.0014471
0.00015708
0.00087909
0.00044322
0.00016044
2.0045e-05
0.0042772
6.7324e-08
4.0179e-05
0.0041868
5.975e-05
0.0040362
7.8338e-05
0.0038199
9.5645e-05
0.0035399
0.00011095
0.0032039
0.00012569
0.0027923
0.00013548
0.0024196
0.00014363
0.001822
0.00015373
0.001437
0.00015719
0.00087563
0.00043981
0.0001606
2.0045e-05
0.0042571
6.89e-08
4.018e-05
0.0041667
5.9753e-05
0.0040166
7.8341e-05
0.0038013
9.5655e-05
0.0035226
0.00011094
0.0031886
0.00012571
0.0027776
0.00013558
0.0024098
0.00014354
0.0018141
0.00015357
0.0014269
0.00015727
0.00087192
0.00043634
0.00016074
2.0045e-05
0.004237
7.0482e-08
4.0181e-05
0.0041465
5.9756e-05
0.0039971
7.8345e-05
0.0037828
9.5665e-05
0.0035053
0.00011094
0.0031733
0.00012573
0.0027628
0.00013569
0.0023998
0.00014346
0.0018063
0.0001534
0.001417
0.00015733
0.00086799
0.00043281
0.00016086
2.0045e-05
0.0042169
7.2071e-08
4.0182e-05
0.0041264
5.9759e-05
0.0039775
7.8348e-05
0.0037642
9.5675e-05
0.0034879
0.00011093
0.0031581
0.00012575
0.002748
0.0001358
0.0023898
0.00014339
0.0017987
0.00015323
0.0014072
0.00015736
0.00086386
0.00042922
0.00016095
2.0045e-05
0.0041968
7.3667e-08
4.0184e-05
0.0041063
5.9761e-05
0.0039579
7.8351e-05
0.0037456
9.5686e-05
0.0034706
0.00011092
0.0031428
0.00012576
0.0027331
0.00013591
0.0023796
0.00014335
0.0017913
0.00015306
0.0013974
0.00015737
0.00085955
0.00042557
0.00016103
2.0045e-05
0.0041766
7.527e-08
4.0185e-05
0.0040861
5.9764e-05
0.0039383
7.8355e-05
0.003727
9.5697e-05
0.0034533
0.00011091
0.0031276
0.00012577
0.0027182
0.00013603
0.0023693
0.00014331
0.001784
0.00015289
0.0013879
0.00015737
0.00085508
0.00042185
0.00016108
2.0044e-05
0.0041565
7.688e-08
4.0186e-05
0.004066
5.9767e-05
0.0039187
7.8358e-05
0.0037084
9.5709e-05
0.0034359
0.0001109
0.0031124
0.00012578
0.0027034
0.00013615
0.002359
0.00014329
0.0017769
0.00015273
0.0013784
0.00015735
0.00085046
0.00041807
0.00016112
2.0044e-05
0.0041364
7.8498e-08
4.0187e-05
0.0040458
5.977e-05
0.0038992
7.8361e-05
0.0036898
9.5721e-05
0.0034186
0.00011089
0.0030973
0.00012579
0.0026885
0.00013628
0.0023485
0.00014329
0.0017699
0.00015257
0.0013691
0.00015731
0.00084572
0.00041424
0.00016114
2.0044e-05
0.0041163
8.0123e-08
4.0189e-05
0.0040257
5.9773e-05
0.0038796
7.8365e-05
0.0036712
9.5733e-05
0.0034012
0.00011088
0.0030821
0.00012579
0.0026736
0.0001364
0.0023379
0.0001433
0.001763
0.00015242
0.00136
0.00015726
0.00084088
0.00041036
0.00016114
2.0044e-05
0.0040961
8.1755e-08
4.019e-05
0.0040056
5.9776e-05
0.00386
7.8368e-05
0.0036526
9.5746e-05
0.0033838
0.00011087
0.003067
0.00012579
0.0026586
0.00013652
0.0023271
0.00014332
0.0017562
0.00015228
0.0013511
0.00015721
0.00083595
0.00040643
0.00016114
2.0044e-05
0.004076
8.3395e-08
4.0191e-05
0.0039854
5.9779e-05
0.0038404
7.8371e-05
0.003634
9.5758e-05
0.0033664
0.00011087
0.0030519
0.00012578
0.0026437
0.00013665
0.0023163
0.00014336
0.0017495
0.00015215
0.0013423
0.00015714
0.00083095
0.00040246
0.00016111
2.0044e-05
0.0040559
8.5043e-08
4.0193e-05
0.0039653
5.9782e-05
0.0038208
7.8374e-05
0.0036154
9.5772e-05
0.003349
0.00011086
0.0030368
0.00012578
0.0026288
0.00013677
0.0023053
0.00014341
0.0017428
0.00015202
0.0013337
0.00015708
0.0008259
0.00039846
0.00016108
2.0044e-05
0.0040358
8.6699e-08
4.0194e-05
0.0039451
5.9786e-05
0.0038012
7.8377e-05
0.0035968
9.5785e-05
0.0033316
0.00011085
0.0030217
0.00012577
0.0026139
0.0001369
0.0022941
0.00014348
0.0017362
0.00015192
0.0013252
0.00015701
0.00082081
0.00039442
0.00016104
2.0044e-05
0.0040156
8.8363e-08
4.0195e-05
0.003925
5.9789e-05
0.0037816
7.838e-05
0.0035783
9.5799e-05
0.0033142
0.00011085
0.0030067
0.00012575
0.002599
0.00013702
0.0022829
0.00014355
0.0017297
0.00015182
0.0013169
0.00015694
0.00081569
0.00039036
0.000161
2.0043e-05
0.0039955
9.0035e-08
4.0196e-05
0.0039048
5.9792e-05
0.003762
7.8383e-05
0.0035597
9.5813e-05
0.0032968
0.00011084
0.0029916
0.00012573
0.0025841
0.00013714
0.0022715
0.00014364
0.0017232
0.00015174
0.0013088
0.00015687
0.00081056
0.00038628
0.00016094
2.0043e-05
0.0039754
9.1716e-08
4.0198e-05
0.0038847
5.9795e-05
0.0037424
7.8386e-05
0.0035411
9.5828e-05
0.0032793
0.00011084
0.0029766
0.00012571
0.0025692
0.00013725
0.0022599
0.00014374
0.0017167
0.00015167
0.0013009
0.0001568
0.00080543
0.0003822
0.00016089
2.0043e-05
0.0039552
9.3405e-08
4.0199e-05
0.0038645
5.9799e-05
0.0037228
7.8389e-05
0.0035225
9.5842e-05
0.0032619
0.00011084
0.0029616
0.00012569
0.0025544
0.00013736
0.0022483
0.00014385
0.0017102
0.00015162
0.0012931
0.00015674
0.00080031
0.0003781
0.00016083
2.0043e-05
0.0039351
9.5103e-08
4.02e-05
0.0038443
5.9802e-05
0.0037032
7.8392e-05
0.0035039
9.5857e-05
0.0032444
0.00011084
0.0029466
0.00012567
0.0025396
0.00013747
0.0022365
0.00014396
0.0017037
0.00015158
0.0012855
0.00015668
0.0007952
0.00037401
0.00016077
2.0043e-05
0.0039149
9.681e-08
4.0202e-05
0.0038242
5.9805e-05
0.0036836
7.8395e-05
0.0034853
9.5872e-05
0.0032269
0.00011084
0.0029317
0.00012564
0.0025248
0.00013757
0.0022245
0.00014409
0.0016972
0.00015155
0.0012781
0.00015663
0.00079013
0.00036993
0.00016072
2.0043e-05
0.0038948
9.8526e-08
4.0203e-05
0.003804
5.9809e-05
0.003664
7.8398e-05
0.0034667
9.5887e-05
0.0032095
0.00011084
0.0029167
0.00012561
0.00251
0.00013767
0.0022125
0.00014422
0.0016907
0.00015154
0.0012707
0.00015659
0.00078508
0.00036586
0.00016066
2.0043e-05
0.0038747
1.0025e-07
4.0205e-05
0.0037839
5.9812e-05
0.0036444
7.8401e-05
0.0034481
9.5903e-05
0.0031919
0.00011084
0.0029018
0.00012558
0.0024953
0.00013776
0.0022003
0.00014436
0.0016841
0.00015155
0.0012636
0.00015655
0.00078007
0.0003618
0.00016061
2.0043e-05
0.0038545
1.0199e-07
4.0206e-05
0.0037637
5.9816e-05
0.0036248
7.8404e-05
0.0034295
9.5918e-05
0.0031744
0.00011085
0.0028869
0.00012554
0.0024806
0.00013785
0.002188
0.0001445
0.0016774
0.00015156
0.0012565
0.00015653
0.00077511
0.00035777
0.00016056
2.0042e-05
0.0038344
1.0373e-07
4.0207e-05
0.0037435
5.982e-05
0.0036052
7.8406e-05
0.0034109
9.5934e-05
0.0031569
0.00011086
0.0028719
0.0001255
0.0024659
0.00013793
0.0021755
0.00014465
0.0016707
0.00015159
0.0012496
0.00015651
0.00077019
0.00035377
0.00016051
2.0042e-05
0.0038142
1.0548e-07
4.0209e-05
0.0037234
5.9823e-05
0.0035856
7.8409e-05
0.0033924
9.595e-05
0.0031394
0.00011086
0.002857
0.00012547
0.0024513
0.00013801
0.002163
0.0001448
0.0016639
0.00015163
0.0012427
0.0001565
0.00076533
0.0003498
0.00016047
2.0042e-05
0.0037941
1.0725e-07
4.021e-05
0.0037032
5.9827e-05
0.003566
7.8412e-05
0.0033738
9.5966e-05
0.0031218
0.00011087
0.0028421
0.00012543
0.0024368
0.00013808
0.0021503
0.00014495
0.001657
0.00015169
0.001236
0.0001565
0.00076051
0.00034586
0.00016044
2.0042e-05
0.0037739
1.0902e-07
4.0212e-05
0.003683
5.9831e-05
0.0035463
7.8414e-05
0.0033552
9.5982e-05
0.0031042
0.00011088
0.0028272
0.00012538
0.0024223
0.00013814
0.0021376
0.00014511
0.0016501
0.00015175
0.0012293
0.00015651
0.00075575
0.00034197
0.00016041
2.0042e-05
0.0037538
1.1081e-07
4.0213e-05
0.0036629
5.9834e-05
0.0035267
7.8417e-05
0.0033366
9.5997e-05
0.0030867
0.0001109
0.0028123
0.00012534
0.0024078
0.00013819
0.0021247
0.00014526
0.001643
0.00015183
0.0012228
0.00015653
0.00075105
0.00033811
0.00016039
2.0042e-05
0.0037336
1.126e-07
4.0215e-05
0.0036427
5.9838e-05
0.0035071
7.842e-05
0.003318
9.6013e-05
0.0030691
0.00011091
0.0027974
0.0001253
0.0023934
0.00013824
0.0021118
0.00014541
0.0016358
0.00015191
0.0012163
0.00015656
0.0007464
0.00033431
0.00016037
2.0042e-05
0.0037135
1.1441e-07
4.0216e-05
0.0036225
5.9842e-05
0.0034875
7.8422e-05
0.0032995
9.6029e-05
0.0030515
0.00011093
0.0027825
0.00012526
0.0023791
0.00013828
0.0020988
0.00014556
0.0016285
0.000152
0.0012098
0.0001566
0.0007418
0.00033055
0.00016036
2.0042e-05
0.0036933
1.1622e-07
4.0218e-05
0.0036023
5.9846e-05
0.0034678
7.8425e-05
0.0032809
9.6044e-05
0.0030338
0.00011095
0.0027676
0.00012521
0.0023648
0.00013831
0.0020857
0.00014571
0.0016211
0.0001521
0.0012035
0.00015665
0.00073725
0.00032684
0.00016036
2.0041e-05
0.0036731
1.1805e-07
4.0219e-05
0.0035822
5.985e-05
0.0034482
7.8427e-05
0.0032623
9.6059e-05
0.0030162
0.00011097
0.0027527
0.00012517
0.0023506
0.00013834
0.0020725
0.00014586
0.0016136
0.00015221
0.0011971
0.0001567
0.00073276
0.00032318
0.00016036
2.0041e-05
0.003653
1.1989e-07
4.0221e-05
0.003562
5.9854e-05
0.0034286
7.843e-05
0.0032437
9.6074e-05
0.0029986
0.00011099
0.0027378
0.00012513
0.0023365
0.00013836
0.0020593
0.000146
0.001606
0.00015232
0.0011908
0.00015676
0.00072831
0.00031958
0.00016037
2.0041e-05
0.0036328
1.2174e-07
4.0222e-05
0.0035418
5.9859e-05
0.0034089
7.8432e-05
0.0032251
9.6089e-05
0.0029809
0.00011102
0.0027228
0.00012508
0.0023224
0.00013838
0.002046
0.00014614
0.0015982
0.00015243
0.0011845
0.00015683
0.00072391
0.00031603
0.00016038
2.0041e-05
0.0036126
1.236e-07
4.0224e-05
0.0035216
5.9863e-05
0.0033893
7.8435e-05
0.0032066
9.6104e-05
0.0029632
0.00011104
0.0027079
0.00012504
0.0023084
0.00013838
0.0020326
0.00014627
0.0015903
0.00015255
0.0011782
0.00015691
0.00071956
0.00031253
0.0001604
2.0041e-05
0.0035925
1.2548e-07
4.0226e-05
0.0035014
5.9867e-05
0.0033697
7.8438e-05
0.003188
9.6118e-05
0.0029456
0.00011107
0.002693
0.000125
0.0022945
0.00013839
0.0020193
0.0001464
0.0015823
0.00015267
0.001172
0.00015699
0.00071524
0.00030909
0.00016043
2.0041e-05
0.0035723
1.2736e-07
4.0227e-05
0.0034812
5.9871e-05
0.00335
7.844e-05
0.0031694
9.6132e-05
0.0029279
0.0001111
0.002678
0.00012496
0.0022806
0.00013838
0.0020058
0.00014652
0.0015742
0.00015279
0.0011657
0.00015707
0.00071096
0.0003057
0.00016046
2.0041e-05
0.0035521
1.2926e-07
4.0229e-05
0.003461
5.9876e-05
0.0033304
7.8443e-05
0.0031509
9.6145e-05
0.0029102
0.00011113
0.002663
0.00012493
0.0022668
0.00013837
0.0019924
0.00014664
0.0015659
0.00015292
0.0011594
0.00015716
0.00070672
0.00030237
0.00016049
2.0041e-05
0.003532
1.3118e-07
4.023e-05
0.0034409
5.988e-05
0.0033107
7.8446e-05
0.0031323
9.6158e-05
0.0028925
0.00011117
0.002648
0.00012489
0.0022531
0.00013836
0.0019789
0.00014675
0.0015575
0.00015304
0.0011531
0.00015726
0.0007025
0.00029909
0.00016053
2.0041e-05
0.0035118
1.331e-07
4.0232e-05
0.0034207
5.9885e-05
0.0032911
7.8449e-05
0.0031137
9.6171e-05
0.0028747
0.0001112
0.002633
0.00012486
0.0022395
0.00013834
0.0019655
0.00014685
0.001549
0.00015316
0.0011468
0.00015735
0.00069831
0.00029587
0.00016058
2.0041e-05
0.0034916
1.3504e-07
4.0234e-05
0.0034005
5.9889e-05
0.0032714
7.8452e-05
0.0030952
9.6183e-05
0.002857
0.00011124
0.0026179
0.00012483
0.0022259
0.00013831
0.001952
0.00014695
0.0015404
0.00015328
0.0011405
0.00015745
0.00069415
0.0002927
0.00016062
2.0041e-05
0.0034714
1.3699e-07
4.0236e-05
0.0033803
5.9894e-05
0.0032518
7.8455e-05
0.0030766
9.6195e-05
0.0028393
0.00011128
0.0026028
0.0001248
0.0022123
0.00013829
0.0019385
0.00014704
0.0015316
0.0001534
0.0011341
0.00015755
0.00069
0.00028958
0.00016067
2.004e-05
0.0034513
1.3896e-07
4.0237e-05
0.0033601
5.9899e-05
0.0032321
7.8458e-05
0.0030581
9.6206e-05
0.0028215
0.00011132
0.0025877
0.00012478
0.0021989
0.00013826
0.001925
0.00014712
0.0015227
0.00015352
0.0011277
0.00015765
0.00068587
0.0002865
0.00016072
2.004e-05
0.0034311
1.4094e-07
4.0239e-05
0.0033399
5.9904e-05
0.0032124
7.8461e-05
0.0030395
9.6216e-05
0.0028038
0.00011136
0.0025726
0.00012476
0.0021855
0.00013822
0.0019115
0.00014719
0.0015138
0.00015363
0.0011213
0.00015775
0.00068175
0.00028348
0.00016078
2.004e-05
0.0034109
1.4293e-07
4.0241e-05
0.0033197
5.9908e-05
0.0031928
7.8465e-05
0.0030209
9.6226e-05
0.002786
0.0001114
0.0025574
0.00012474
0.0021721
0.00013819
0.0018981
0.00014726
0.0015047
0.00015374
0.0011148
0.00015786
0.00067764
0.0002805
0.00016083
2.004e-05
0.0033907
1.4494e-07
4.0243e-05
0.0032995
5.9913e-05
0.0031731
7.8468e-05
0.0030024
9.6236e-05
0.0027682
0.00011144
0.0025422
0.00012472
0.0021589
0.00013815
0.0018847
0.00014732
0.0014955
0.00015385
0.0011082
0.00015796
0.00067353
0.00027757
0.00016089
2.004e-05
0.0033705
1.4696e-07
4.0244e-05
0.0032793
5.9918e-05
0.0031534
7.8472e-05
0.0029838
9.6244e-05
0.0027505
0.00011148
0.002527
0.00012471
0.0021456
0.00013811
0.0018713
0.00014738
0.0014863
0.00015395
0.0011017
0.00015806
0.00066942
0.00027468
0.00016095
2.004e-05
0.0033503
1.49e-07
4.0246e-05
0.0032591
5.9923e-05
0.0031337
7.8476e-05
0.0029653
9.6252e-05
0.0027327
0.00011153
0.0025117
0.00012471
0.0021324
0.00013806
0.0018579
0.00014743
0.0014769
0.00015405
0.001095
0.00015816
0.00066531
0.00027183
0.00016101
2.004e-05
0.0033301
1.5105e-07
4.0248e-05
0.0032389
5.9928e-05
0.0031141
7.848e-05
0.0029467
9.626e-05
0.0027149
0.00011157
0.0024964
0.0001247
0.0021193
0.00013802
0.0018446
0.00014747
0.0014674
0.00015414
0.0010884
0.00015825
0.0006612
0.00026901
0.00016107
2.004e-05
0.00331
1.5312e-07
4.025e-05
0.0032187
5.9933e-05
0.0030944
7.8484e-05
0.0029282
9.6267e-05
0.0026971
0.00011162
0.002481
0.0001247
0.0021062
0.00013798
0.0018313
0.00014751
0.0014579
0.00015423
0.0010817
0.00015835
0.00065708
0.00026624
0.00016113
2.004e-05
0.0032898
1.5521e-07
4.0252e-05
0.0031984
5.9939e-05
0.0030747
7.8488e-05
0.0029096
9.6273e-05
0.0026793
0.00011167
0.0024656
0.0001247
0.0020932
0.00013794
0.0018181
0.00014754
0.0014483
0.00015431
0.0010749
0.00015844
0.00065295
0.00026349
0.00016119
2.004e-05
0.0032696
1.5731e-07
4.0254e-05
0.0031782
5.9944e-05
0.003055
7.8493e-05
0.0028911
9.6279e-05
0.0026615
0.00011171
0.0024502
0.00012471
0.0020802
0.0001379
0.0018049
0.00014756
0.0014387
0.00015439
0.001068
0.00015854
0.00064881
0.00026078
0.00016125
2.004e-05
0.0032494
1.5943e-07
4.0256e-05
0.003158
5.9949e-05
0.0030353
7.8498e-05
0.0028725
9.6284e-05
0.0026438
0.00011176
0.0024347
0.00012472
0.0020673
0.00013785
0.0017918
0.00014759
0.0014289
0.00015447
0.0010612
0.00015863
0.00064465
0.0002581
0.00016131
2.004e-05
0.0032292
1.6157e-07
4.0258e-05
0.0031378
5.9955e-05
0.0030156
7.8503e-05
0.002854
9.6288e-05
0.002626
0.00011181
0.0024192
0.00012473
0.0020543
0.00013781
0.0017787
0.0001476
0.0014191
0.00015454
0.0010542
0.00015871
0.00064048
0.00025545
0.00016137
2.004e-05
0.003209
1.6372e-07
4.026e-05
0.0031176
5.996e-05
0.0029959
7.8509e-05
0.0028354
9.6292e-05
0.0026082
0.00011185
0.0024036
0.00012475
0.0020414
0.00013778
0.0017657
0.00014762
0.0014093
0.0001546
0.0010472
0.0001588
0.00063628
0.00025282
0.00016142
2.004e-05
0.0031888
1.659e-07
4.0262e-05
0.0030973
5.9965e-05
0.0029762
7.8514e-05
0.0028169
9.6295e-05
0.0025904
0.0001119
0.002388
0.00012477
0.0020286
0.00013774
0.0017527
0.00014763
0.0013994
0.00015466
0.0010402
0.00015888
0.00063207
0.00025022
0.00016148
2.0039e-05
0.0031685
1.6809e-07
4.0264e-05
0.0030771
5.9971e-05
0.0029565
7.852e-05
0.0027983
9.6298e-05
0.0025726
0.00011194
0.0023724
0.00012479
0.0020157
0.0001377
0.0017398
0.00014763
0.0013895
0.00015472
0.0010331
0.00015896
0.00062784
0.00024764
0.00016154
2.0039e-05
0.0031483
1.703e-07
4.0266e-05
0.0030569
5.9976e-05
0.0029368
7.8526e-05
0.0027798
9.63e-05
0.0025549
0.00011199
0.0023567
0.00012482
0.0020029
0.00013767
0.0017269
0.00014764
0.0013795
0.00015477
0.001026
0.00015903
0.00062358
0.00024508
0.00016159
2.0039e-05
0.0031281
1.7253e-07
4.0268e-05
0.0030367
5.9982e-05
0.0029171
7.8533e-05
0.0027612
9.6302e-05
0.0025371
0.00011203
0.002341
0.00012485
0.0019901
0.00013764
0.0017141
0.00014764
0.0013695
0.00015482
0.0010188
0.0001591
0.0006193
0.00024254
0.00016165
2.0039e-05
0.0031079
1.7477e-07
4.027e-05
0.0030164
5.9988e-05
0.0028974
7.854e-05
0.0027427
9.6304e-05
0.0025193
0.00011208
0.0023252
0.00012488
0.0019773
0.00013761
0.0017014
0.00014764
0.0013595
0.00015487
0.0010116
0.00015917
0.00061499
0.00024001
0.0001617
2.0039e-05
0.0030877
1.7704e-07
4.0273e-05
0.0029962
5.9993e-05
0.0028776
7.8547e-05
0.0027241
9.6304e-05
0.0025016
0.00011212
0.0023094
0.00012492
0.0019645
0.00013759
0.0016887
0.00014764
0.0013494
0.00015491
0.0010043
0.00015924
0.00061066
0.0002375
0.00016175
2.0039e-05
0.0030675
1.7933e-07
4.0275e-05
0.002976
5.9999e-05
0.0028579
7.8554e-05
0.0027056
9.6305e-05
0.0024838
0.00011216
0.0022935
0.00012496
0.0019517
0.00013757
0.0016761
0.00014764
0.0013394
0.00015495
0.00099698
0.00015931
0.0006063
0.000235
0.0001618
2.0039e-05
0.0030473
1.8164e-07
4.0277e-05
0.0029557
6.0005e-05
0.0028382
7.8562e-05
0.002687
9.6305e-05
0.0024661
0.00011221
0.0022776
0.000125
0.0019389
0.00013755
0.0016636
0.00014763
0.0013293
0.00015498
0.00098963
0.00015937
0.00060192
0.00023251
0.00016186
2.0039e-05
0.003027
1.8397e-07
4.0279e-05
0.0029355
6.001e-05
0.0028185
7.857e-05
0.0026685
9.6305e-05
0.0024483
0.00011225
0.0022617
0.00012504
0.0019261
0.00013754
0.0016511
0.00014763
0.0013192
0.00015502
0.00098224
0.00015943
0.00059751
0.00023004
0.0001619
2.0039e-05
0.0030068
1.8632e-07
4.0282e-05
0.0029152
6.0016e-05
0.0027987
7.8578e-05
0.0026499
9.6305e-05
0.0024306
0.00011229
0.0022457
0.00012508
0.0019133
0.00013753
0.0016386
0.00014762
0.0013091
0.00015505
0.00097481
0.00015949
0.00059307
0.00022757
0.00016195
2.0039e-05
0.0029866
1.887e-07
4.0284e-05
0.002895
6.0022e-05
0.002779
7.8587e-05
0.0026313
9.6304e-05
0.0024129
0.00011232
0.0022297
0.00012513
0.0019005
0.00013752
0.0016262
0.00014762
0.001299
0.00015508
0.00096736
0.00015954
0.0005886
0.00022511
0.000162
2.0039e-05
0.0029664
1.9109e-07
4.0287e-05
0.0028748
6.0028e-05
0.0027592
7.8596e-05
0.0026128
9.6303e-05
0.0023952
0.00011236
0.0022136
0.00012518
0.0018877
0.00013751
0.0016139
0.00014762
0.0012889
0.0001551
0.00095987