/*--------------------------------*- C++ -*----------------------------------*\
  =========                 |
  \\      /  F ield         | OpenFOAM: The Open Source CFD Toolbox
   \\    /   O peration     | Website:  https://openfoam.org
    \\  /    A nd           | Version:  6.0
     \\/     M anipulation  |
\*---------------------------------------------------------------------------*/
FoamFile
{
    version     2.0;
    format      ascii;
    class       surfaceScalarField;
    location    "4";
    object      phi;
}
// * * * * * * * * * * * * * * * * * * * * * * * * * * * * * * * * * * * * * //

dimensions      [0 3 -1 0 0 0 0];

internalField   nonuniform List<scalar> 
28697
(
2.0052e-05
0.005201
2.3197e-10
4.0125e-05
0.0051116
5.9639e-05
0.0049351
7.8186e-05
0.0046741
9.5416e-05
0.0043332
0.00011102
0.0039182
0.00012472
0.0034362
0.00013626
0.0028953
0.00014546
0.002305
0.00015181
0.0016755
0.00015761
0.001015
0.0004637
3.6118e-05
2.0052e-05
0.0051809
6.9883e-10
4.0127e-05
0.0050916
5.9641e-05
0.0049155
7.8189e-05
0.0046556
9.5418e-05
0.004316
0.00011102
0.0039026
0.00012471
0.0034225
0.00013624
0.0028838
0.00014544
0.0022958
0.00015097
0.00167
0.00016011
0.0010058
0.00055293
7.0887e-05
2.0053e-05
0.0051609
1.1689e-09
4.0129e-05
0.0050715
5.9644e-05
0.004896
7.8192e-05
0.004637
9.5421e-05
0.0042988
0.00011102
0.003887
0.00012471
0.0034088
0.00013623
0.0028723
0.00014546
0.0022865
0.00015004
0.0016654
0.00016187
0.00099399
0.0006154
9.9394e-05
2.0053e-05
0.0051408
1.6407e-09
4.013e-05
0.0050514
5.9646e-05
0.0048765
7.8195e-05
0.0046185
9.5424e-05
0.0042815
0.00011103
0.0038714
0.0001247
0.0033951
0.00013621
0.0028608
0.00014552
0.0022772
0.00014908
0.0016618
0.00016272
0.00098035
0.0006566
0.00012152
2.0054e-05
0.0051208
2.1142e-09
4.0132e-05
0.0050313
5.9649e-05
0.004857
7.8198e-05
0.0045999
9.5427e-05
0.0042643
0.00011103
0.0038558
0.0001247
0.0033814
0.00013618
0.0028493
0.00014561
0.0022678
0.00014816
0.0016593
0.0001627
0.00096582
0.00068099
0.0001383
2.0055e-05
0.0051007
2.5896e-09
4.0133e-05
0.0050113
5.9651e-05
0.0048375
7.8201e-05
0.0045814
9.5429e-05
0.0042471
0.00011103
0.0038402
0.0001247
0.0033678
0.00013615
0.0028378
0.00014574
0.0022582
0.00014733
0.0016577
0.00016195
0.0009512
0.00069229
0.00015065
2.0055e-05
0.0050807
3.0666e-09
4.0135e-05
0.0049912
5.9654e-05
0.004818
7.8204e-05
0.0045628
9.5432e-05
0.0042299
0.00011103
0.0038246
0.00012469
0.0033541
0.00013612
0.0028264
0.0001459
0.0022484
0.00014663
0.001657
0.00016067
0.00093716
0.00069365
0.00015932
2.0056e-05
0.0050606
3.5455e-09
4.0137e-05
0.0049711
5.9656e-05
0.0047984
7.8207e-05
0.0045443
9.5435e-05
0.0042126
0.00011103
0.003809
0.00012469
0.0033405
0.00013608
0.002815
0.00014608
0.0022384
0.00014608
0.001657
0.00015905
0.00092419
0.00068769
0.00016501
2.0056e-05
0.0050405
4.0261e-09
4.0138e-05
0.004951
5.9659e-05
0.0047789
7.821e-05
0.0045257
9.5438e-05
0.0041954
0.00011103
0.0037934
0.00012469
0.0033268
0.00013603
0.0028037
0.00014627
0.0022282
0.0001457
0.0016575
0.00015724
0.00091266
0.00067657
0.00016835
2.0057e-05
0.0050205
4.5086e-09
4.014e-05
0.0049309
5.9661e-05
0.0047594
7.8213e-05
0.0045072
9.5441e-05
0.0041782
0.00011104
0.0037778
0.0001247
0.0033131
0.00013598
0.0027924
0.00014648
0.0022177
0.00014549
0.0016585
0.00015537
0.00090279
0.00066204
0.0001699
2.0057e-05
0.0050004
4.9929e-09
4.0141e-05
0.0049108
5.9664e-05
0.0047399
7.8216e-05
0.0044886
9.5444e-05
0.0041609
0.00011104
0.0037622
0.0001247
0.0032995
0.00013593
0.0027812
0.00014668
0.0022069
0.00014545
0.0016597
0.00015355
0.00089469
0.00064545
0.00017013
2.0058e-05
0.0049804
5.479e-09
4.0143e-05
0.0048908
5.9666e-05
0.0047204
7.8219e-05
0.0044701
9.5447e-05
0.0041437
0.00011104
0.0037466
0.0001247
0.0032858
0.00013586
0.00277
0.00014687
0.0021959
0.00014557
0.001661
0.00015186
0.0008884
0.00062788
0.00016943
2.0059e-05
0.0049603
5.967e-09
4.0144e-05
0.0048707
5.9669e-05
0.0047008
7.8222e-05
0.0044515
9.5451e-05
0.0041265
0.00011104
0.003731
0.00012471
0.0032721
0.00013579
0.0027589
0.00014706
0.0021847
0.00014583
0.0016623
0.00015036
0.00088386
0.00061014
0.00016811
2.0059e-05
0.0049402
6.4569e-09
4.0146e-05
0.0048506
5.9671e-05
0.0046813
7.8225e-05
0.004433
9.5454e-05
0.0041093
0.00011104
0.0037155
0.00012472
0.0032585
0.00013571
0.0027479
0.00014723
0.0021732
0.00014621
0.0016633
0.00014909
0.00088097
0.0005928
0.00016642
2.006e-05
0.0049202
6.9487e-09
4.0147e-05
0.0048305
5.9674e-05
0.0046618
7.8228e-05
0.0044144
9.5457e-05
0.004092
0.00011105
0.0036999
0.00012473
0.0032448
0.00013563
0.002737
0.00014737
0.0021614
0.00014669
0.001664
0.00014807
0.0008796
0.00057631
0.00016456
2.006e-05
0.0049001
7.4425e-09
4.0149e-05
0.0048104
5.9676e-05
0.0046422
7.8231e-05
0.0043958
9.5461e-05
0.0040748
0.00011105
0.0036843
0.00012474
0.0032311
0.00013555
0.0027262
0.0001475
0.0021495
0.00014726
0.0016642
0.00014729
0.00087956
0.00056093
0.00016267
2.0061e-05
0.00488
7.9381e-09
4.0151e-05
0.0047903
5.9679e-05
0.0046227
7.8234e-05
0.0043773
9.5464e-05
0.0040576
0.00011105
0.0036687
0.00012476
0.0032174
0.00013546
0.0027155
0.00014759
0.0021373
0.00014789
0.0016639
0.00014676
0.0008807
0.00054684
0.00016085
2.0062e-05
0.00486
8.4358e-09
4.0152e-05
0.0047702
5.9682e-05
0.0046032
7.8237e-05
0.0043587
9.5467e-05
0.0040403
0.00011105
0.0036531
0.00012477
0.0032037
0.00013537
0.0027049
0.00014766
0.002125
0.00014856
0.001663
0.00014646
0.0008828
0.0005341
0.0001592
2.0062e-05
0.0048399
8.9354e-09
4.0154e-05
0.0047501
5.9684e-05
0.0045837
7.8241e-05
0.0043402
9.5471e-05
0.0040231
0.00011105
0.0036375
0.00012479
0.0031899
0.00013528
0.0026944
0.0001477
0.0021126
0.00014926
0.0016614
0.00014638
0.00088568
0.00052274
0.00015774
2.0063e-05
0.0048198
9.4371e-09
4.0155e-05
0.00473
5.9687e-05
0.0045641
7.8244e-05
0.0043216
9.5475e-05
0.0040059
0.00011105
0.003622
0.00012482
0.0031761
0.00013519
0.0026841
0.00014771
0.0021001
0.00014997
0.0016592
0.00014648
0.00088917
0.00051271
0.00015651
2.0063e-05
0.0047997
9.9408e-09
4.0157e-05
0.00471
5.9689e-05
0.0045446
7.8247e-05
0.0043031
9.5478e-05
0.0039886
0.00011105
0.0036064
0.00012484
0.0031624
0.0001351
0.0026738
0.00014768
0.0020875
0.00015067
0.0016562
0.00014676
0.00089308
0.00050395
0.00015553
2.0064e-05
0.0047797
1.0447e-08
4.0158e-05
0.0046899
5.9692e-05
0.0045251
7.825e-05
0.0042845
9.5482e-05
0.0039714
0.00011105
0.0035908
0.00012487
0.0031485
0.00013501
0.0026637
0.00014763
0.0020749
0.00015136
0.0016525
0.00014718
0.00089725
0.00049635
0.00015478
2.0064e-05
0.0047596
1.0954e-08
4.016e-05
0.0046698
5.9695e-05
0.0045055
7.8253e-05
0.0042659
9.5486e-05
0.0039542
0.00011105
0.0035752
0.0001249
0.0031347
0.00013492
0.0026537
0.00014755
0.0020623
0.00015202
0.001648
0.00014772
0.00090155
0.00048981
0.00015426
2.0065e-05
0.0047395
1.1464e-08
4.0161e-05
0.0046497
5.9697e-05
0.004486
7.8256e-05
0.0042474
9.549e-05
0.0039369
0.00011105
0.0035597
0.00012493
0.0031208
0.00013484
0.0026438
0.00014744
0.0020497
0.00015264
0.0016428
0.00014835
0.00090584
0.00048422
0.00015395
2.0066e-05
0.0047194
1.1976e-08
4.0163e-05
0.0046296
5.97e-05
0.0044665
7.826e-05
0.0042288
9.5495e-05
0.0039197
0.00011105
0.0035441
0.00012497
0.0031069
0.00013476
0.002634
0.0001473
0.0020371
0.00015322
0.0016369
0.00014906
0.00091
0.00047944
0.00015383
2.0066e-05
0.0046994
1.2491e-08
4.0165e-05
0.0046095
5.9702e-05
0.0044469
7.8263e-05
0.0042103
9.5499e-05
0.0039025
0.00011105
0.0035286
0.000125
0.0030929
0.00013468
0.0026243
0.00014714
0.0020247
0.00015375
0.0016303
0.00014981
0.00091393
0.00047537
0.00015388
2.0067e-05
0.0046793
1.3007e-08
4.0166e-05
0.0045894
5.9705e-05
0.0044274
7.8266e-05
0.0041917
9.5503e-05
0.0038852
0.00011105
0.003513
0.00012504
0.0030789
0.00013462
0.0026147
0.00014696
0.0020123
0.00015422
0.001623
0.00015059
0.00091756
0.00047189
0.00015408
2.0067e-05
0.0046592
1.3526e-08
4.0168e-05
0.0045693
5.9708e-05
0.0044078
7.8269e-05
0.0041731
9.5508e-05
0.003868
0.00011104
0.0034975
0.00012508
0.0030649
0.00013456
0.0026052
0.00014676
0.0020001
0.00015464
0.0016151
0.00015139
0.00092081
0.00046889
0.00015439
2.0068e-05
0.0046391
1.4047e-08
4.0169e-05
0.0045492
5.971e-05
0.0043883
7.8273e-05
0.0041546
9.5513e-05
0.0038508
0.00011104
0.003482
0.00012513
0.0030508
0.00013451
0.0025959
0.00014654
0.0019881
0.00015499
0.0016067
0.00015218
0.00092362
0.00046628
0.00015479
2.0069e-05
0.004619
1.457e-08
4.0171e-05
0.0045291
5.9713e-05
0.0043688
7.8276e-05
0.004136
9.5518e-05
0.0038335
0.00011104
0.0034665
0.00012517
0.0030367
0.00013447
0.0025866
0.0001463
0.0019762
0.00015529
0.0015977
0.00015296
0.00092595
0.00046398
0.00015527
2.0069e-05
0.0045989
1.5095e-08
4.0173e-05
0.004509
5.9716e-05
0.0043492
7.8279e-05
0.0041175
9.5523e-05
0.0038163
0.00011103
0.0034509
0.00012522
0.0030225
0.00013444
0.0025773
0.00014606
0.0019646
0.00015553
0.0015882
0.00015371
0.00092777
0.00046189
0.00015579
2.007e-05
0.0045789
1.5623e-08
4.0174e-05
0.0044889
5.9719e-05
0.0043297
7.8283e-05
0.0040989
9.5529e-05
0.003799
0.00011103
0.0034354
0.00012526
0.0030083
0.00013442
0.0025682
0.0001458
0.0019532
0.00015571
0.0015783
0.00015442
0.00092906
0.00045996
0.00015635
2.007e-05
0.0045588
1.6153e-08
4.0176e-05
0.0044688
5.9721e-05
0.0043101
7.8286e-05
0.0040803
9.5534e-05
0.0037818
0.00011102
0.00342
0.00012531
0.002994
0.0001344
0.0025591
0.00014553
0.0019421
0.00015583
0.001568
0.00015509
0.0009298
0.00045813
0.00015692
2.0071e-05
0.0045387
1.6686e-08
4.0177e-05
0.0044487
5.9724e-05
0.0042906
7.8289e-05
0.0040618
9.554e-05
0.0037645
0.00011101
0.0034045
0.00012536
0.0029796
0.00013441
0.00255
0.00014527
0.0019312
0.0001559
0.0015574
0.0001557
0.00092999
0.00045633
0.0001575
2.0072e-05
0.0045186
1.7221e-08
4.0179e-05
0.0044285
5.9727e-05
0.004271
7.8293e-05
0.0040432
9.5546e-05
0.0037473
0.000111
0.003389
0.00012541
0.0029652
0.00013442
0.002541
0.000145
0.0019207
0.00015591
0.0015465
0.00015627
0.00092964
0.00045454
0.00015806
2.0072e-05
0.0044985
1.7759e-08
4.0181e-05
0.0044084
5.973e-05
0.0042515
7.8296e-05
0.0040246
9.5553e-05
0.00373
0.00011099
0.0033736
0.00012546
0.0029508
0.00013444
0.0025321
0.00014473
0.0019104
0.00015587
0.0015353
0.00015677
0.00092874
0.0004527
0.0001586
2.0073e-05
0.0044784
1.8299e-08
4.0182e-05
0.0043883
5.9733e-05
0.0042319
7.8299e-05
0.0040061
9.556e-05
0.0037128
0.00011099
0.0033582
0.00012551
0.0029362
0.00013448
0.0025231
0.00014446
0.0019004
0.00015579
0.001524
0.00015721
0.00092732
0.0004508
0.00015911
2.0073e-05
0.0044583
1.8841e-08
4.0184e-05
0.0043682
5.9735e-05
0.0042124
7.8303e-05
0.0039875
9.5567e-05
0.0036955
0.00011097
0.0033428
0.00012555
0.0029217
0.00013452
0.0025141
0.0001442
0.0018907
0.00015567
0.0015125
0.00015759
0.00092539
0.0004488
0.00015959
2.0074e-05
0.0044382
1.9386e-08
4.0186e-05
0.0043481
5.9738e-05
0.0041928
7.8306e-05
0.0039689
9.5574e-05
0.0036782
0.00011096
0.0033274
0.0001256
0.002907
0.00013458
0.0025051
0.00014395
0.0018814
0.0001555
0.001501
0.00015791
0.00092299
0.0004467
0.00016002
2.0075e-05
0.0044181
1.9934e-08
4.0187e-05
0.004328
5.9741e-05
0.0041733
7.831e-05
0.0039504
9.5582e-05
0.003661
0.00011095
0.003312
0.00012565
0.0028923
0.00013465
0.0024961
0.00014371
0.0018723
0.00015531
0.0014894
0.00015817
0.00092012
0.00044447
0.0001604
2.0075e-05
0.004398
2.0485e-08
4.0189e-05
0.0043079
5.9744e-05
0.0041537
7.8313e-05
0.0039318
9.559e-05
0.0036437
0.00011094
0.0032966
0.00012569
0.0028776
0.00013473
0.0024871
0.00014348
0.0018636
0.00015508
0.0014778
0.00015837
0.00091684
0.00044211
0.00016073
2.0076e-05
0.0043779
2.1038e-08
4.0191e-05
0.0042878
5.9747e-05
0.0041342
7.8316e-05
0.0039132
9.5598e-05
0.0036264
0.00011093
0.0032813
0.00012573
0.0028628
0.00013483
0.002478
0.00014327
0.0018551
0.00015483
0.0014662
0.00015852
0.00091315
0.00043962
0.00016101
2.0076e-05
0.0043578
2.1593e-08
4.0192e-05
0.0042676
5.975e-05
0.0041146
7.832e-05
0.0038947
9.5607e-05
0.0036091
0.00011091
0.003266
0.00012577
0.0028479
0.00013493
0.0024688
0.00014307
0.001847
0.00015456
0.0014547
0.00015861
0.00090911
0.00043698
0.00016125
2.0077e-05
0.0043377
2.2152e-08
4.0194e-05
0.0042475
5.9753e-05
0.004095
7.8323e-05
0.0038761
9.5616e-05
0.0035918
0.0001109
0.0032507
0.00012581
0.002833
0.00013504
0.0024596
0.00014289
0.0018391
0.00015427
0.0014433
0.00015865
0.00090473
0.0004342
0.00016143
2.0078e-05
0.0043176
2.2714e-08
4.0196e-05
0.0042274
5.9756e-05
0.0040755
7.8326e-05
0.0038575
9.5626e-05
0.0035745
0.00011088
0.0032355
0.00012584
0.002818
0.00013517
0.0024503
0.00014273
0.0018316
0.00015398
0.0014321
0.00015865
0.00090006
0.00043128
0.00016156
2.0078e-05
0.0042975
2.3278e-08
4.0197e-05
0.0042073
5.9759e-05
0.0040559
7.8329e-05
0.0038389
9.5636e-05
0.0035572
0.00011087
0.0032202
0.00012588
0.002803
0.0001353
0.0024409
0.00014258
0.0018243
0.00015367
0.001421
0.0001586
0.00089512
0.00042823
0.00016165
2.0079e-05
0.0042774
2.3845e-08
4.0199e-05
0.0041872
5.9762e-05
0.0040364
7.8333e-05
0.0038204
9.5647e-05
0.0035399
0.00011085
0.003205
0.0001259
0.002788
0.00013544
0.0024313
0.00014247
0.0018173
0.00015336
0.0014101
0.00015852
0.00088996
0.00042506
0.0001617
2.0079e-05
0.0042573
2.4415e-08
4.0201e-05
0.0041671
5.9765e-05
0.0040168
7.8336e-05
0.0038018
9.5658e-05
0.0035226
0.00011083
0.0031899
0.00012593
0.0027729
0.00013558
0.0024217
0.00014237
0.0018105
0.00015305
0.0013994
0.00015841
0.00088459
0.00042176
0.00016171
2.008e-05
0.0042372
2.4988e-08
4.0202e-05
0.0041469
5.9768e-05
0.0039972
7.8339e-05
0.0037832
9.567e-05
0.0035052
0.00011082
0.0031747
0.00012595
0.0027577
0.00013573
0.0024119
0.00014229
0.0018039
0.00015274
0.001389
0.00015827
0.00087906
0.00041834
0.00016168
2.0081e-05
0.0042171
2.5564e-08
4.0204e-05
0.0041268
5.9772e-05
0.0039777
7.8342e-05
0.0037647
9.5682e-05
0.0034879
0.0001108
0.0031596
0.00012597
0.0027426
0.00013589
0.002402
0.00014224
0.0017976
0.00015244
0.0013788
0.00015811
0.0008734
0.00041483
0.00016162
2.0081e-05
0.004197
2.6144e-08
4.0206e-05
0.0041067
5.9775e-05
0.0039581
7.8345e-05
0.0037461
9.5694e-05
0.0034706
0.00011078
0.0031445
0.00012598
0.0027274
0.00013606
0.0023919
0.00014221
0.0017914
0.00015215
0.0013688
0.00015793
0.00086763
0.00041121
0.00016154
2.0082e-05
0.0041769
2.6726e-08
4.0208e-05
0.0040866
5.9778e-05
0.0039385
7.8348e-05
0.0037275
9.5707e-05
0.0034532
0.00011077
0.0031294
0.00012599
0.0027122
0.00013622
0.0023816
0.0001422
0.0017854
0.00015188
0.0013592
0.00015773
0.00086177
0.00040751
0.00016143
2.0083e-05
0.0041568
2.7312e-08
4.0209e-05
0.0040664
5.9781e-05
0.0039189
7.8351e-05
0.003709
9.5721e-05
0.0034358
0.00011075
0.0031144
0.00012599
0.0026969
0.00013639
0.0023712
0.00014222
0.0017796
0.00015162
0.0013498
0.00015753
0.00085586
0.00040373
0.00016131
2.0083e-05
0.0041367
2.79e-08
4.0211e-05
0.0040463
5.9785e-05
0.0038994
7.8354e-05
0.0036904
9.5735e-05
0.0034184
0.00011074
0.0030994
0.00012599
0.0026817
0.00013656
0.0023607
0.00014226
0.0017739
0.00015138
0.0013406
0.00015732
0.00084992
0.00039989
0.00016117
2.0084e-05
0.0041166
2.8492e-08
4.0213e-05
0.0040262
5.9788e-05
0.0038798
7.8357e-05
0.0036718
9.5749e-05
0.0034011
0.00011072
0.0030844
0.00012598
0.0026664
0.00013674
0.0023499
0.00014232
0.0017683
0.00015116
0.0013318
0.00015711
0.00084397
0.00039598
0.00016102
2.0085e-05
0.0040965
2.9088e-08
4.0215e-05
0.004006
5.9791e-05
0.0038602
7.836e-05
0.0036532
9.5764e-05
0.0033836
0.00011071
0.0030695
0.00012597
0.0026512
0.00013691
0.002339
0.00014241
0.0017628
0.00015097
0.0013232
0.00015691
0.00083803
0.00039203
0.00016086
2.0085e-05
0.0040763
2.9687e-08
4.0217e-05
0.0039859
5.9795e-05
0.0038406
7.8363e-05
0.0036347
9.578e-05
0.0033662
0.00011069
0.0030546
0.00012595
0.0026359
0.00013708
0.0023278
0.00014251
0.0017574
0.0001508
0.0013149
0.00015671
0.00083212
0.00038803
0.00016071
2.0086e-05
0.0040562
3.0289e-08
4.0218e-05
0.0039658
5.9798e-05
0.0038211
7.8365e-05
0.0036161
9.5796e-05
0.0033488
0.00011068
0.0030397
0.00012593
0.0026207
0.00013725
0.0023165
0.00014263
0.001752
0.00015065
0.0013069
0.00015652
0.00082625
0.000384
0.00016055
2.0087e-05
0.0040361
3.0895e-08
4.022e-05
0.0039456
5.9802e-05
0.0038015
7.8368e-05
0.0035975
9.5812e-05
0.0033314
0.00011067
0.0030249
0.0001259
0.0026054
0.00013741
0.002305
0.00014278
0.0017466
0.00015053
0.0012992
0.00015635
0.00082043
0.00037995
0.0001604
2.0087e-05
0.004016
3.1504e-08
4.0222e-05
0.0039255
5.9805e-05
0.0037819
7.837e-05
0.003579
9.5829e-05
0.0033139
0.00011065
0.00301
0.00012587
0.0025902
0.00013757
0.0022933
0.00014293
0.0017413
0.00015044
0.0012917
0.00015619
0.00081468
0.00037589
0.00016025
2.0088e-05
0.0039959
3.2117e-08
4.0224e-05
0.0039054
5.9809e-05
0.0037623
7.8373e-05
0.0035604
9.5847e-05
0.0032964
0.00011064
0.0029952
0.00012583
0.002575
0.00013772
0.0022814
0.00014311
0.0017359
0.00015037
0.0012844
0.00015605
0.000809
0.00037181
0.00016012
2.0089e-05
0.0039758
3.2734e-08
4.0226e-05
0.0038852
5.9813e-05
0.0037427
7.8375e-05
0.0035419
9.5864e-05
0.0032789
0.00011064
0.0029805
0.00012579
0.0025599
0.00013787
0.0022693
0.0001433
0.0017305
0.00015033
0.0012774
0.00015592
0.00080341
0.00036774
0.00015999
2.0089e-05
0.0039556
3.3354e-08
4.0228e-05
0.0038651
5.9816e-05
0.0037231
7.8377e-05
0.0035233
9.5882e-05
0.0032614
0.00011063
0.0029657
0.00012575
0.0025447
0.00013801
0.0022571
0.0001435
0.001725
0.00015032
0.0012705
0.00015582
0.00079791
0.00036368
0.00015988
2.009e-05
0.0039355
3.3978e-08
4.023e-05
0.003845
5.982e-05
0.0037035
7.8379e-05
0.0035047
9.5901e-05
0.0032439
0.00011063
0.002951
0.00012569
0.0025297
0.00013814
0.0022446
0.00014371
0.0017194
0.00015033
0.0012639
0.00015574
0.00079251
0.00035964
0.00015978
2.0091e-05
0.0039154
3.4606e-08
4.0232e-05
0.0038248
5.9824e-05
0.003684
7.8381e-05
0.0034862
9.5919e-05
0.0032264
0.00011062
0.0029363
0.00012564
0.0025147
0.00013827
0.002232
0.00014393
0.0017138
0.00015037
0.0012575
0.00015567
0.0007872
0.00035561
0.0001597
2.0091e-05
0.0038953
3.5238e-08
4.0234e-05
0.0038047
5.9828e-05
0.0036644
7.8383e-05
0.0034676
9.5938e-05
0.0032088
0.00011062
0.0029216
0.00012558
0.0024997
0.00013838
0.0022192
0.00014415
0.001708
0.00015043
0.0012512
0.00015563
0.000782
0.00035162
0.00015963
2.0092e-05
0.0038751
3.5874e-08
4.0235e-05
0.0037845
5.9832e-05
0.0036448
7.8385e-05
0.0034491
9.5957e-05
0.0031912
0.00011062
0.0029069
0.00012552
0.0024848
0.00013848
0.0022062
0.00014438
0.0017021
0.00015051
0.0012451
0.00015562
0.00077689
0.00034767
0.00015957
2.0093e-05
0.003855
3.6515e-08
4.0237e-05
0.0037644
5.9836e-05
0.0036252
7.8387e-05
0.0034305
9.5977e-05
0.0031736
0.00011063
0.0028923
0.00012545
0.00247
0.00013857
0.0021931
0.00014461
0.001696
0.00015061
0.0012391
0.00015562
0.00077188
0.00034375
0.00015953
2.0094e-05
0.0038349
3.7159e-08
4.0239e-05
0.0037442
5.984e-05
0.0036056
7.8388e-05
0.003412
9.5996e-05
0.003156
0.00011064
0.0028776
0.00012538
0.0024552
0.00013866
0.0021798
0.00014485
0.0016899
0.00015073
0.0012332
0.00015564
0.00076698
0.00033988
0.00015951
2.0094e-05
0.0038147
3.7807e-08
4.0241e-05
0.0037241
5.9844e-05
0.003586
7.839e-05
0.0033934
9.6015e-05
0.0031384
0.00011065
0.002863
0.00012531
0.0024406
0.00013872
0.0021664
0.00014508
0.0016835
0.00015087
0.0012274
0.00015568
0.00076217
0.00033607
0.00015949
2.0095e-05
0.0037946
3.846e-08
4.0243e-05
0.0037039
5.9848e-05
0.0035664
7.8391e-05
0.0033749
9.6035e-05
0.0031208
0.00011066
0.0028484
0.00012524
0.002426
0.00013878
0.0021529
0.00014531
0.001677
0.00015102
0.0012217
0.00015573
0.00075745
0.00033231
0.00015949
2.0096e-05
0.0037745
3.9117e-08
4.0246e-05
0.0036838
5.9853e-05
0.0035467
7.8393e-05
0.0033563
9.6054e-05
0.0031031
0.00011067
0.0028338
0.00012517
0.0024115
0.00013883
0.0021392
0.00014554
0.0016703
0.00015118
0.0012161
0.00015581
0.00075283
0.00032861
0.00015951
2.0096e-05
0.0037543
3.9778e-08
4.0248e-05
0.0036636
5.9857e-05
0.0035271
7.8394e-05
0.0033378
9.6073e-05
0.0030854
0.00011069
0.0028192
0.00012509
0.0023971
0.00013886
0.0021255
0.00014576
0.0016634
0.00015135
0.0012105
0.00015589
0.00074829
0.00032497
0.00015953
2.0097e-05
0.0037342
4.0444e-08
4.025e-05
0.0036435
5.9861e-05
0.0035075
7.8395e-05
0.0033193
9.6092e-05
0.0030677
0.00011071
0.0028045
0.00012502
0.0023828
0.00013888
0.0021116
0.00014597
0.0016563
0.00015153
0.0012049
0.00015599
0.00074383
0.0003214
0.00015956
2.0098e-05
0.0037141
4.1115e-08
4.0252e-05
0.0036233
5.9866e-05
0.0034879
7.8396e-05
0.0033007
9.611e-05
0.00305
0.00011074
0.0027899
0.00012494
0.0023686
0.00013889
0.0020977
0.00014618
0.001649
0.00015172
0.0011994
0.0001561
0.00073944
0.00031789
0.0001596
2.0099e-05
0.0036939
4.179e-08
4.0254e-05
0.0036032
5.9871e-05
0.0034683
7.8397e-05
0.0032822
9.6128e-05
0.0030323
0.00011077
0.0027753
0.00012487
0.0023545
0.00013888
0.0020837
0.00014637
0.0016415
0.0001519
0.0011938
0.00015622
0.00073513
0.00031446
0.00015965
2.0099e-05
0.0036738
4.247e-08
4.0256e-05
0.003583
5.9875e-05
0.0034487
7.8399e-05
0.0032637
9.6146e-05
0.0030145
0.0001108
0.0027606
0.0001248
0.0023405
0.00013887
0.0020696
0.00014655
0.0016338
0.00015209
0.0011883
0.00015634
0.00073088
0.00031109
0.00015971
2.01e-05
0.0036536
4.3155e-08
4.0258e-05
0.0035629
5.988e-05
0.0034291
7.84e-05
0.0032452
9.6163e-05
0.0029968
0.00011083
0.0027459
0.00012473
0.0023266
0.00013885
0.0020555
0.00014672
0.0016259
0.00015228
0.0011827
0.00015647
0.00072669
0.0003078
0.00015977
2.0101e-05
0.0036335
4.3844e-08
4.026e-05
0.0035427
5.9885e-05
0.0034094
7.8401e-05
0.0032267
9.618e-05
0.002979
0.00011087
0.0027313
0.00012466
0.0023128
0.00013881
0.0020413
0.00014688
0.0016179
0.00015247
0.0011771
0.00015661
0.00072255
0.00030457
0.00015983
2.0102e-05
0.0036133
4.4539e-08
4.0263e-05
0.0035225
5.989e-05
0.0033898
7.8402e-05
0.0032081
9.6196e-05
0.0029612
0.00011091
0.0027165
0.00012459
0.0022991
0.00013877
0.0020271
0.00014703
0.0016096
0.00015265
0.0011715
0.00015674
0.00071847
0.00030141
0.0001599
2.0103e-05
0.0035932
4.5238e-08
4.0265e-05
0.0035024
5.9895e-05
0.0033702
7.8403e-05
0.0031896
9.6211e-05
0.0029434
0.00011095
0.0027018
0.00012453
0.0022855
0.00013871
0.002013
0.00014716
0.0016011
0.00015283
0.0011658
0.00015688
0.00071442
0.00029832
0.00015997
2.0103e-05
0.003573
4.5943e-08
4.0267e-05
0.0034822
5.99e-05
0.0033505
7.8404e-05
0.0031711
9.6225e-05
0.0029256
0.000111
0.002687
0.00012447
0.002272
0.00013865
0.0019988
0.00014728
0.0015925
0.000153
0.0011601
0.00015702
0.0007104
0.0002953
0.00016004
2.0104e-05
0.0035529
4.6653e-08
4.0269e-05
0.0034621
5.9905e-05
0.0033309
7.8405e-05
0.0031526
9.6238e-05
0.0029077
0.00011105
0.0026722
0.00012442
0.0022587
0.00013858
0.0019846
0.00014738
0.0015837
0.00015317
0.0011543
0.00015715
0.00070642
0.00029234
0.00016011
2.0105e-05
0.0035327
4.7369e-08
4.0272e-05
0.0034419
5.991e-05
0.0033113
7.8407e-05
0.0031341
9.6251e-05
0.0028899
0.0001111
0.0026574
0.00012437
0.0022454
0.00013851
0.0019705
0.00014747
0.0015748
0.00015332
0.0011485
0.00015728
0.00070246
0.00028944
0.00016019
2.0106e-05
0.0035126
4.809e-08
4.0274e-05
0.0034217
5.9915e-05
0.0032916
7.8408e-05
0.0031156
9.6262e-05
0.002872
0.00011115
0.0026425
0.00012433
0.0022322
0.00013843
0.0019564
0.00014755
0.0015656
0.00015347
0.0011426
0.00015741
0.00069852
0.00028659
0.00016026
2.0107e-05
0.0034924
4.8816e-08
4.0276e-05
0.0034016
5.992e-05
0.003272
7.841e-05
0.0030972
9.6273e-05
0.0028542
0.0001112
0.0026276
0.00012429
0.0022191
0.00013835
0.0019423
0.00014762
0.0015564
0.00015361
0.0011366
0.00015754
0.00069459
0.0002838
0.00016033
2.0107e-05
0.0034723
4.9548e-08
4.0279e-05
0.0033814
5.9926e-05
0.0032523
7.8412e-05
0.0030787
9.6282e-05
0.0028363
0.00011126
0.0026126
0.00012426
0.0022061
0.00013826
0.0019283
0.00014767
0.001547
0.00015374
0.0011305
0.00015766
0.00069066
0.00028106
0.0001604
2.0108e-05
0.0034521
5.0286e-08
4.0281e-05
0.0033612
5.9931e-05
0.0032327
7.8414e-05
0.0030602
9.629e-05
0.0028184
0.00011132
0.0025976
0.00012423
0.0021932
0.00013817
0.0019144
0.00014771
0.0015374
0.00015385
0.0011244
0.00015778
0.00068674
0.00027837
0.00016047
2.0109e-05
0.0034319
5.1029e-08
4.0283e-05
0.003341
5.9937e-05
0.003213
7.8416e-05
0.0030417
9.6297e-05
0.0028006
0.00011138
0.0025825
0.00012421
0.0021804
0.00013808
0.0019005
0.00014774
0.0015278
0.00015396
0.0011181
0.00015789
0.00068282
0.00027573
0.00016053
2.011e-05
0.0034118
5.1779e-08
4.0286e-05
0.0033209
5.9942e-05
0.0031934
7.8418e-05
0.0030232
9.6303e-05
0.0027827
0.00011144
0.0025673
0.0001242
0.0021676
0.00013799
0.0018867
0.00014776
0.001518
0.00015406
0.0011118
0.00015799
0.00067889
0.00027312
0.0001606
2.0111e-05
0.0033916
5.2535e-08
4.0288e-05
0.0033007
5.9948e-05
0.0031737
7.8421e-05
0.0030048
9.6308e-05
0.0027648
0.0001115
0.0025521
0.00012419
0.002155
0.0001379
0.001873
0.00014777
0.0015081
0.00015415
0.0011055
0.00015809
0.00067495
0.00027055
0.00016066
2.0112e-05
0.0033715
5.3296e-08
4.0291e-05
0.0032805
5.9954e-05
0.0031541
7.8424e-05
0.0029863
9.6311e-05
0.0027469
0.00011156
0.0025369
0.00012419
0.0021423
0.00013781
0.0018594
0.00014777
0.0014981
0.00015423
0.001099
0.00015819
0.00067099
0.00026801
0.00016072
2.0113e-05
0.0033513
5.4064e-08
4.0293e-05
0.0032603
5.996e-05
0.0031344
7.8427e-05
0.0029678
9.6314e-05
0.002729
0.00011163
0.0025216
0.00012419
0.0021298
0.00013772
0.0018459
0.00014776
0.0014881
0.0001543
0.0010925
0.00015828
0.00066702
0.00026551
0.00016078
2.0114e-05
0.0033311
5.4839e-08
4.0296e-05
0.0032401
5.9965e-05
0.0031147
7.8431e-05
0.0029494
9.6315e-05
0.0027111
0.00011169
0.0025062
0.0001242
0.0021173
0.00013764
0.0018324
0.00014775
0.001478
0.00015437
0.0010858
0.00015836
0.00066302
0.00026303
0.00016084
2.0114e-05
0.003311
5.562e-08
4.0298e-05
0.00322
5.9971e-05
0.003095
7.8435e-05
0.0029309
9.6315e-05
0.0026932
0.00011175
0.0024908
0.00012422
0.0021048
0.00013756
0.0018191
0.00014773
0.0014678
0.00015442
0.0010791
0.00015844
0.000659
0.00026057
0.0001609
2.0115e-05
0.0032908
5.6407e-08
4.0301e-05
0.0031998
5.9977e-05
0.0030754
7.8439e-05
0.0029124
9.6313e-05
0.0026754
0.00011181
0.0024753
0.00012425
0.0020923
0.00013748
0.0018059
0.00014771
0.0014576
0.00015447
0.0010724
0.00015851
0.00065496
0.00025814
0.00016095
2.0116e-05
0.0032706
5.7201e-08
4.0304e-05
0.0031796
5.9983e-05
0.0030557
7.8444e-05
0.002894
9.6311e-05
0.0026575
0.00011187
0.0024597
0.00012428
0.0020799
0.00013741
0.0017927
0.00014768
0.0014473
0.00015451
0.0010656
0.00015859
0.00065089
0.00025572
0.000161
2.0117e-05
0.0032504
5.8002e-08
4.0306e-05
0.0031594
5.9989e-05
0.003036
7.8449e-05
0.0028755
9.6308e-05
0.0026396
0.00011193
0.0024441
0.00012431
0.0020676
0.00013734
0.0017797
0.00014765
0.001437
0.00015455
0.0010587
0.00015865
0.00064678
0.00025332
0.00016105
2.0118e-05
0.0032303
5.8811e-08
4.0309e-05
0.0031392
5.9995e-05
0.0030163
7.8455e-05
0.002857
9.6304e-05
0.0026218
0.00011199
0.0024284
0.00012435
0.0020552
0.00013728
0.0017668
0.00014762
0.0014267
0.00015458
0.0010517
0.00015872
0.00064265
0.00025093
0.0001611
2.0119e-05
0.0032101
5.9626e-08
4.0312e-05
0.003119
6.0001e-05
0.0029966
7.8461e-05
0.0028386
9.6298e-05
0.002604
0.00011205
0.0024126
0.0001244
0.0020429
0.00013723
0.0017539
0.00014759
0.0014163
0.00015461
0.0010447
0.00015878
0.00063848
0.00024855
0.00016115
2.012e-05
0.0031899
6.0448e-08
4.0315e-05
0.0030988
6.0007e-05
0.0029769
7.8468e-05
0.0028201
9.6293e-05
0.0025861
0.0001121
0.0023968
0.00012445
0.0020305
0.00013718
0.0017412
0.00014756
0.0014059
0.00015463
0.0010376
0.00015883
0.00063429
0.00024619
0.0001612
2.0121e-05
0.0031697
6.1278e-08
4.0318e-05
0.0030786
6.0014e-05
0.0029572
7.8475e-05
0.0028017
9.6286e-05
0.0025683
0.00011216
0.002381
0.0001245
0.0020182
0.00013714
0.0017285
0.00014753
0.0013955
0.00015466
0.0010305
0.00015889
0.00063006
0.00024383
0.00016125
2.0122e-05
0.0031495
6.2116e-08
4.032e-05
0.0030584
6.002e-05
0.0029375
7.8483e-05
0.0027832
9.6278e-05
0.0025505
0.00011221
0.002365
0.00012456
0.0020058
0.00013711
0.001716
0.0001475
0.0013851
0.00015467
0.0010233
0.00015894
0.00062579
0.00024147
0.00016129
2.0123e-05
0.0031293
6.2961e-08
4.0323e-05
0.0030382
6.0026e-05
0.0029178
7.8491e-05
0.0027647
9.627e-05
0.0025327
0.00011225
0.002349
0.00012462
0.0019935
0.00013708
0.0017035
0.00014747
0.0013748
0.00015469
0.0010161
0.00015899
0.0006215
0.00023913
0.00016133
2.0124e-05
0.0031092
6.3814e-08
4.0326e-05
0.003018
6.0032e-05
0.0028981
7.8499e-05
0.0027463
9.6262e-05
0.002515
0.0001123
0.002333
0.00012468
0.0019811
0.00013705
0.0016912
0.00014744
0.0013644
0.00015471
0.0010088
0.00015904
0.00061717
0.00023679
0.00016138
2.0125e-05
0.003089
6.4674e-08
4.0329e-05
0.0029978
6.0038e-05
0.0028784
7.8509e-05
0.0027278
9.6253e-05
0.0024972
0.00011234
0.0023169
0.00012474
0.0019687
0.00013704
0.0016789
0.00014741
0.001354
0.00015472
0.0010015
0.00015908
0.00061281
0.00023445
0.00016142
2.0126e-05
0.0030688
6.5543e-08
4.0332e-05
0.0029776
6.0044e-05
0.0028587
7.8518e-05
0.0027093
9.6244e-05
0.0024795
0.00011239
0.0023008
0.00012481
0.0019563
0.00013703
0.0016667
0.00014739
0.0013436
0.00015473
0.00099416
0.00015913
0.00060841
0.00023211
0.00016146
2.0127e-05
0.0030486
6.6421e-08
4.0335e-05
0.0029574
6.005e-05
0.002839
7.8528e-05
0.0026908
9.6235e-05
0.0024618
0.00011242
0.0022846
0.00012488
0.0019438
0.00013702
0.0016545
0.00014737
0.0013333
0.00015475
0.00098678
0.00015917
0.00060399
0.00022978
0.0001615
2.0128e-05
0.0030284
6.7306e-08
4.0338e-05
0.0029372
6.0056e-05
0.0028193
7.8539e-05
0.0026724
9.6226e-05
0.0024441
0.00011246
0.0022683
0.00012495
0.0019313
0.00013702
0.0016424
0.00014735
0.001323
0.00015476
0.00097937
0.00015921
0.00059954
0.00022745
0.00016154
2.0129e-05
0.0030082
6.8201e-08
4.0342e-05
0.002917
6.0063e-05
0.0027996
7.855e-05
0.0026539
9.6216e-05
0.0024265
0.00011249
0.0022521
0.00012502
0.0019188
0.00013703
0.0016304
0.00014733
0.0013127
0.00015477
0.00097193
0.00015925
0.00059506
0.00022512
0.00016158
2.013e-05
0.002988
6.9104e-08
4.0345e-05
0.0028968
6.0069e-05
0.0027798
7.8562e-05
0.0026354
9.6207e-05
0.0024088
0.00011252
0.0022358
0.00012509
0.0019062
0.00013704
0.0016185
0.00014732
0.0013024
0.00015478
0.00096447
0.00015929
0.00059055
0.00022279
0.00016162
2.0131e-05
0.0029678
7.0016e-08
4.0348e-05
0.0028765
6.0075e-05
0.0027601
7.8574e-05
0.0026169
9.6199e-05
0.0023912
0.00011255
0.0022194
0.00012516
0.0018936
0.00013706
0.0016066
0.00014731
0.0012921
0.0001548