/*--------------------------------*- C++ -*----------------------------------*\
  =========                 |
  \\      /  F ield         | OpenFOAM: The Open Source CFD Toolbox
   \\    /   O peration     | Website:  https://openfoam.org
    \\  /    A nd           | Version:  6.0
     \\/     M anipulation  |
\*---------------------------------------------------------------------------*/
FoamFile
{
    version     2.0;
    format      ascii;
    class       surfaceScalarField;
    location    "4";
    object      phi;
}
// * * * * * * * * * * * * * * * * * * * * * * * * * * * * * * * * * * * * * //

dimensions      [0 3 -1 0 0 0 0];

internalField   nonuniform List<scalar> 
33692
(
2.0052e-05
0.005201
3.3075e-10
4.0126e-05
0.0051116
5.9639e-05
0.0049351
7.8188e-05
0.0046741
9.5417e-05
0.0043332
0.00011102
0.0039182
0.00012472
0.0034362
0.00013627
0.0028953
0.00014547
0.002305
0.00015181
0.0016755
0.00015717
0.0010154
0.00046508
3.4296e-05
2.0052e-05
0.0051809
9.1821e-10
4.0129e-05
0.0050916
5.9643e-05
0.0049155
7.8193e-05
0.0046556
9.5421e-05
0.004316
0.00011103
0.0039026
0.00012472
0.0034225
0.00013625
0.0028838
0.00014546
0.0022958
0.00015106
0.0016699
0.0001589
0.0010076
0.00055922
6.4761e-05
2.0053e-05
0.0051609
1.5014e-09
4.0131e-05
0.0050715
5.9646e-05
0.004896
7.8198e-05
0.004637
9.5426e-05
0.0042988
0.00011103
0.003887
0.00012471
0.0034088
0.00013623
0.0028723
0.00014548
0.0022865
0.0001503
0.0016651
0.00016016
0.0009977
0.00062954
8.9837e-05
2.0054e-05
0.0051408
2.103e-09
4.0134e-05
0.0050514
5.965e-05
0.0048765
7.8203e-05
0.0046185
9.5431e-05
0.0042815
0.00011104
0.0038714
0.00012471
0.0033951
0.00013622
0.0028608
0.00014553
0.0022772
0.00014956
0.0016611
0.00016089
0.00098636
0.00068043
0.00011001
2.0055e-05
0.0051208
2.7067e-09
4.0136e-05
0.0050313
5.9654e-05
0.004857
7.8208e-05
0.0045999
9.5437e-05
0.0042643
0.00011104
0.0038558
0.00012471
0.0033815
0.00013619
0.0028493
0.0001456
0.0022678
0.00014886
0.0016578
0.00016111
0.00097411
0.00071548
0.00012605
2.0056e-05
0.0051007
3.3124e-09
4.0139e-05
0.0050112
5.9658e-05
0.0048375
7.8213e-05
0.0045814
9.5442e-05
0.0042471
0.00011105
0.0038402
0.00012472
0.0033678
0.00013617
0.0028378
0.0001457
0.0022583
0.00014824
0.0016553
0.00016087
0.00096148
0.00073773
0.00013862
2.0057e-05
0.0050807
3.9201e-09
4.0141e-05
0.0049912
5.9662e-05
0.004818
7.8218e-05
0.0045628
9.5447e-05
0.0042299
0.00011105
0.0038246
0.00012472
0.0033541
0.00013614
0.0028264
0.00014582
0.0022486
0.0001477
0.0016534
0.00016027
0.00094892
0.00074971
0.00014828
2.0058e-05
0.0050606
4.53e-09
4.0143e-05
0.0049711
5.9665e-05
0.0047984
7.8222e-05
0.0045442
9.5453e-05
0.0042126
0.00011106
0.003809
0.00012472
0.0033404
0.00013611
0.002815
0.00014595
0.0022387
0.00014726
0.0016521
0.0001594
0.00093678
0.00075359
0.00015552
2.0059e-05
0.0050405
5.142e-09
4.0146e-05
0.004951
5.9669e-05
0.0047789
7.8227e-05
0.0045257
9.5458e-05
0.0041954
0.00011106
0.0037934
0.00012473
0.0033268
0.00013607
0.0028037
0.00014609
0.0022287
0.00014694
0.0016512
0.00015835
0.00092537
0.00075117
0.00016076
2.006e-05
0.0050205
5.7561e-09
4.0148e-05
0.0049309
5.9673e-05
0.0047594
7.8232e-05
0.0045071
9.5464e-05
0.0041782
0.00011107
0.0037778
0.00012473
0.0033131
0.00013603
0.0027924
0.00014623
0.0022185
0.00014672
0.0016507
0.00015719
0.0009149
0.00074398
0.00016438
2.0061e-05
0.0050004
6.3724e-09
4.0151e-05
0.0049108
5.9677e-05
0.0047399
7.8237e-05
0.0044886
9.5469e-05
0.0041609
0.00011107
0.0037622
0.00012474
0.0032995
0.00013598
0.0027811
0.00014638
0.0022081
0.0001466
0.0016505
0.00015599
0.00090552
0.00073325
0.00016671
2.0062e-05
0.0049803
6.9909e-09
4.0153e-05
0.0048907
5.9681e-05
0.0047203
7.8242e-05
0.00447
9.5475e-05
0.0041437
0.00011108
0.0037466
0.00012475
0.0032858
0.00013593
0.00277
0.00014652
0.0021975
0.0001466
0.0016504
0.0001548
0.00089731
0.00072003
0.00016802
2.0062e-05
0.0049603
7.6116e-09
4.0156e-05
0.0048706
5.9685e-05
0.0047008
7.8247e-05
0.0044514
9.5481e-05
0.0041265
0.00011108
0.003731
0.00012476
0.0032721
0.00013588
0.0027588
0.00014666
0.0021868
0.00014669
0.0016504
0.00015367
0.00089033
0.00070514
0.00016855
2.0063e-05
0.0049402
8.2346e-09
4.0158e-05
0.0048505
5.9689e-05
0.0046813
7.8252e-05
0.0044329
9.5486e-05
0.0041092
0.00011109
0.0037154
0.00012477
0.0032584
0.00013583
0.0027478
0.00014679
0.0021758
0.00014687
0.0016503
0.00015263
0.00088457
0.00068928
0.00016849
2.0064e-05
0.0049201
8.8598e-09
4.016e-05
0.0048304
5.9692e-05
0.0046617
7.8257e-05
0.0044143
9.5492e-05
0.004092
0.00011109
0.0036998
0.00012478
0.0032447
0.00013577
0.0027368
0.0001469
0.0021647
0.00014712
0.0016501
0.0001517
0.00088
0.00067296
0.00016801
2.0065e-05
0.0049
9.4874e-09
4.0163e-05
0.0048103
5.9696e-05
0.0046422
7.8262e-05
0.0043957
9.5498e-05
0.0040748
0.0001111
0.0036842
0.0001248
0.003231
0.0001357
0.0027259
0.000147
0.0021534
0.00014744
0.0016497
0.00015089
0.00087655
0.00065663
0.00016723
2.0066e-05
0.00488
1.0117e-08
4.0165e-05
0.0047902
5.97e-05
0.0046227
7.8267e-05
0.0043772
9.5504e-05
0.0040575
0.0001111
0.0036686
0.00012481
0.0032173
0.00013564
0.0027151
0.00014708
0.0021419
0.00014782
0.0016489
0.00015023
0.00087415
0.0006406
0.00016626
2.0067e-05
0.0048599
1.075e-08
4.0167e-05
0.0047701
5.9704e-05
0.0046031
7.8272e-05
0.0043586
9.551e-05
0.0040403
0.00011111
0.003653
0.00012483
0.0032036
0.00013558
0.0027043
0.00014715
0.0021304
0.00014825
0.0016478
0.0001497
0.0008727
0.0006251
0.00016519
2.0068e-05
0.0048398
1.1384e-08
4.017e-05
0.00475
5.9708e-05
0.0045836
7.8277e-05
0.00434
9.5516e-05
0.004023
0.00011111
0.0036374
0.00012485
0.0031899
0.00013551
0.0026936
0.0001472
0.0021187
0.0001487
0.0016463
0.00014931
0.00087209
0.00061033
0.00016409
2.0069e-05
0.0048197
1.2022e-08
4.0172e-05
0.0047299
5.9712e-05
0.0045641
7.8282e-05
0.0043215
9.5522e-05
0.0040058
0.00011111
0.0036218
0.00012487
0.0031761
0.00013544
0.0026831
0.00014722
0.0021069
0.00014918
0.0016444
0.00014905
0.00087221
0.00059638
0.000163
2.007e-05
0.0047996
1.2661e-08
4.0175e-05
0.0047098
5.9716e-05
0.0045445
7.8287e-05
0.0043029
9.5528e-05
0.0039886
0.00011112
0.0036062
0.0001249
0.0031623
0.00013538
0.0026726
0.00014723
0.002095
0.00014967
0.0016419
0.00014893
0.00087296
0.00058333
0.00016198
2.0071e-05
0.0047796
1.3304e-08
4.0177e-05
0.0046897
5.972e-05
0.004525
7.8293e-05
0.0042843
9.5534e-05
0.0039713
0.00011112
0.0035906
0.00012492
0.0031485
0.00013532
0.0026622
0.00014722
0.0020831
0.00015017
0.001639
0.00014891
0.00087422
0.00057121
0.00016103
2.0072e-05
0.0047595
1.3948e-08
4.0179e-05
0.0046696
5.9724e-05
0.0045054
7.8298e-05
0.0042657
9.5541e-05
0.0039541
0.00011113
0.003575
0.00012495
0.0031347
0.00013526
0.0026519
0.00014718
0.0020712
0.00015066
0.0016355
0.00014901
0.00087587
0.00056002
0.00016019
2.0072e-05
0.0047394
1.4596e-08
4.0182e-05
0.0046495
5.9727e-05
0.0044859
7.8303e-05
0.0042472
9.5547e-05
0.0039368
0.00011113
0.0035594
0.00012498
0.0031208
0.0001352
0.0026417
0.00014713
0.0020593
0.00015114
0.0016315
0.00014919
0.00087782
0.00054975
0.00015946
2.0073e-05
0.0047193
1.5246e-08
4.0184e-05
0.0046294
5.9731e-05
0.0044663
7.8308e-05
0.0042286
9.5554e-05
0.0039196
0.00011113
0.0035439
0.00012501
0.003107
0.00013514
0.0026316
0.00014706
0.0020474
0.00015161
0.0016269
0.00014946
0.00087998
0.00054035
0.00015885
2.0074e-05
0.0046992
1.5899e-08
4.0187e-05
0.0046093
5.9735e-05
0.0044468
7.8313e-05
0.00421
9.5561e-05
0.0039023
0.00011113
0.0035283
0.00012505
0.003093
0.00013509
0.0026215
0.00014697
0.0020355
0.00015205
0.0016219
0.00014979
0.00088224
0.00053178
0.00015836
2.0075e-05
0.0046791
1.6554e-08
4.0189e-05
0.0045892
5.9739e-05
0.0044272
7.8318e-05
0.0041914
9.5567e-05
0.0038851
0.00011113
0.0035127
0.00012508
0.0030791
0.00013505
0.0026115
0.00014687
0.0020237
0.00015247
0.0016163
0.00015018
0.00088453
0.00052398
0.00015798
2.0076e-05
0.004659
1.7212e-08
4.0192e-05
0.004569
5.9743e-05
0.0044077
7.8323e-05
0.0041729
9.5574e-05
0.0038678
0.00011114
0.0034972
0.00012512
0.0030651
0.00013501
0.0026017
0.00014675
0.0020119
0.00015285
0.0016102
0.00015061
0.00088677
0.00051687
0.00015771
2.0077e-05
0.0046389
1.7873e-08
4.0194e-05
0.0045489
5.9747e-05
0.0043881
7.8329e-05
0.0041543
9.5582e-05
0.0038506
0.00011114
0.0034816
0.00012515
0.0030511
0.00013497
0.0025918
0.00014662
0.0020003
0.0001532
0.0016036
0.00015108
0.00088889
0.00051041
0.00015754
2.0078e-05
0.0046188
1.8537e-08
4.0196e-05
0.0045288
5.9751e-05
0.0043686
7.8334e-05
0.0041357
9.5589e-05
0.0038333
0.00011114
0.0034661
0.00012519
0.0030371
0.00013494
0.0025821
0.00014648
0.0019887
0.00015352
0.0015965
0.00015156
0.00089085
0.00050451
0.00015746
2.0079e-05
0.0045987
1.9204e-08
4.0199e-05
0.0045087
5.9755e-05
0.004349
7.8339e-05
0.0041171
9.5596e-05
0.0038161
0.00011114
0.0034505
0.00012523
0.003023
0.00013492
0.0025724
0.00014632
0.0019773
0.0001538
0.0015891
0.00015206
0.00089259
0.0004991
0.00015746
2.008e-05
0.0045786
1.9873e-08
4.0201e-05
0.0044886
5.9759e-05
0.0043295
7.8344e-05
0.0040985
9.5604e-05
0.0037988
0.00011114
0.003435
0.00012527
0.0030088
0.00013491
0.0025628
0.00014616
0.0019661
0.00015405
0.0015812
0.00015257
0.00089407
0.00049414
0.00015753
2.0081e-05
0.0045585
2.0546e-08
4.0204e-05
0.0044684
5.9763e-05
0.0043099
7.835e-05
0.0040799
9.5612e-05
0.0037816
0.00011114
0.0034195
0.00012531
0.0029946
0.0001349
0.0025532
0.00014599
0.001955
0.00015425
0.0015729
0.00015307
0.00089525
0.00048955
0.00015766
2.0081e-05
0.0045384
2.1221e-08
4.0206e-05
0.0044483
5.9767e-05
0.0042903
7.8355e-05
0.0040614
9.562e-05
0.0037643
0.00011113
0.0034039
0.00012535
0.0029804
0.0001349
0.0025436
0.00014582
0.0019441
0.00015442
0.0015643
0.00015356
0.00089611
0.00048527
0.00015784
2.0082e-05
0.0045183
2.19e-08
4.0209e-05
0.0044282
5.9772e-05
0.0042708
7.836e-05
0.0040428
9.5628e-05
0.003747
0.00011113
0.0033884
0.0001254
0.0029662
0.00013491
0.0025341
0.00014564
0.0019334
0.00015455
0.0015554
0.00015404
0.00089663
0.00048125
0.00015805
2.0083e-05
0.0044982
2.2582e-08
4.0211e-05
0.0044081
5.9776e-05
0.0042512
7.8365e-05
0.0040242
9.5637e-05
0.0037298
0.00011113
0.0033729
0.00012544
0.0029519
0.00013493
0.0025246
0.00014546
0.0019228
0.00015465
0.0015462
0.00015449
0.00089679
0.00047745
0.00015829
2.0084e-05
0.0044781
2.3267e-08
4.0213e-05
0.0043879
5.978e-05
0.0042317
7.8371e-05
0.0040056
9.5645e-05
0.0037125
0.00011113
0.0033575
0.00012548
0.0029375
0.00013496
0.0025151
0.00014528
0.0019125
0.00015471
0.0015368
0.00015492
0.00089658
0.00047381
0.00015856
2.0085e-05
0.004458
2.3955e-08
4.0216e-05
0.0043678
5.9784e-05
0.0042121
7.8376e-05
0.003987
9.5654e-05
0.0036952
0.00011112
0.003342
0.00012552
0.0029231
0.00013499
0.0025057
0.0001451
0.0019024
0.00015474
0.0015271
0.00015532
0.00089601
0.0004703
0.00015883
2.0086e-05
0.0044379
2.4646e-08
4.0218e-05
0.0043477
5.9788e-05
0.0041925
7.8381e-05
0.0039684
9.5664e-05
0.0036779
0.00011112
0.0033265
0.00012556
0.0029087
0.00013503
0.0024962
0.00014493
0.0018925
0.00015475
0.0015173
0.00015569
0.00089506
0.00046688
0.00015911
2.0087e-05
0.0044178
2.5341e-08
4.0221e-05
0.0043275
5.9792e-05
0.0041729
7.8387e-05
0.0039498
9.5673e-05
0.0036606
0.00011111
0.0033111
0.0001256
0.0028942
0.00013509
0.0024867
0.00014476
0.0018828
0.00015472
0.0015073
0.00015603
0.00089375
0.00046352
0.00015939
2.0088e-05
0.0043977
2.6039e-08
4.0223e-05
0.0043074
5.9796e-05
0.0041534
7.8392e-05
0.0039312
9.5683e-05
0.0036433
0.00011111
0.0032957
0.00012564
0.0028797
0.00013514
0.0024772
0.00014459
0.0018734
0.00015467
0.0014973
0.00015634
0.00089208
0.0004602
0.00015966
2.0089e-05
0.0043775
2.674e-08
4.0226e-05
0.0042873
5.9801e-05
0.0041338
7.8397e-05
0.0039126
9.5693e-05
0.003626
0.0001111
0.0032803
0.00012567
0.0028651
0.00013521
0.0024677
0.00014444
0.0018642
0.00015459
0.0014871
0.00015661
0.00089006
0.00045688
0.00015992
2.009e-05
0.0043574
2.7445e-08
4.0228e-05
0.0042671
5.9805e-05
0.0041142
7.8403e-05
0.003894
9.5703e-05
0.0036087
0.0001111
0.0032649
0.00012571
0.0028505
0.00013529
0.0024581
0.00014429
0.0018551
0.0001545
0.0014769
0.00015685
0.00088771
0.00045356
0.00016017
2.0091e-05
0.0043373
2.8153e-08
4.0231e-05
0.004247
5.9809e-05
0.0040946
7.8408e-05
0.0038754
9.5714e-05
0.0035914
0.00011109
0.0032495
0.00012574
0.0028358
0.00013537
0.0024485
0.00014415
0.0018464
0.00015438
0.0014667
0.00015705
0.00088504
0.00045021
0.0001604
2.0092e-05
0.0043172
2.8865e-08
4.0233e-05
0.0042268
5.9814e-05
0.0040751
7.8413e-05
0.0038568
9.5725e-05
0.0035741
0.00011109
0.0032341
0.00012578
0.0028211
0.00013546
0.0024388
0.00014403
0.0018378
0.00015425
0.0014564
0.00015723
0.00088207
0.00044683
0.00016061
2.0092e-05
0.0042971
2.9581e-08
4.0236e-05
0.0042067
5.9818e-05
0.0040555
7.8418e-05
0.0038382
9.5736e-05
0.0035568
0.00011108
0.0032188
0.0001258
0.0028064
0.00013555
0.002429
0.00014392
0.0018294
0.00015411
0.0014462
0.00015737
0.00087881
0.00044339
0.0001608
2.0093e-05
0.0042769
3.03e-08
4.0238e-05
0.0041866
5.9822e-05
0.0040359
7.8424e-05
0.0038196
9.5748e-05
0.0035395
0.00011107
0.0032035
0.00012583
0.0027916
0.00013565
0.0024192
0.00014381
0.0018213
0.00015396
0.0014361
0.00015748
0.00087529
0.0004399
0.00016097
2.0094e-05
0.0042568
3.1023e-08
4.0241e-05
0.0041664
5.9827e-05
0.0040163
7.8429e-05
0.003801
9.576e-05
0.0035222
0.00011107
0.0031882
0.00012586
0.0027769
0.00013576
0.0024093
0.00014373
0.0018133
0.0001538
0.001426
0.00015757
0.00087152
0.00043635
0.00016112
2.0095e-05
0.0042367
3.1749e-08
4.0243e-05
0.0041463
5.9831e-05
0.0039967
7.8434e-05
0.0037824
9.5772e-05
0.0035048
0.00011106
0.0031729
0.00012588
0.002762
0.00013587
0.0023993
0.00014365
0.0018055
0.00015364
0.001416
0.00015763
0.00086753
0.00043274
0.00016125
2.0096e-05
0.0042166
3.248e-08
4.0246e-05
0.0041261
5.9835e-05
0.0039771
7.844e-05
0.0037638
9.5785e-05
0.0034875
0.00011105
0.0031576
0.0001259
0.0027472
0.00013598
0.0023892
0.0001436
0.0017979
0.00015347
0.0014062
0.00015767
0.00086333
0.00042906
0.00016135
2.0097e-05
0.0041964
3.3215e-08
4.0248e-05
0.004106
5.984e-05
0.0039575
7.8445e-05
0.0037452
9.5798e-05
0.0034701
0.00011105
0.0031423
0.00012592
0.0027323
0.0001361
0.002379
0.00014355
0.0017904
0.00015331
0.0013964
0.00015769
0.00085895
0.00042531
0.00016143
2.0098e-05
0.0041763
3.3953e-08
4.0251e-05
0.0040858
5.9844e-05
0.0039379
7.845e-05
0.0037266
9.5811e-05
0.0034528
0.00011104
0.0031271
0.00012593
0.0027174
0.00013623
0.0023688
0.00014352
0.0017831
0.00015315
0.0013868
0.00015769
0.00085441
0.0004215
0.0001615
2.0099e-05
0.0041562
3.4696e-08
4.0254e-05
0.0040657
5.9849e-05
0.0039184
7.8455e-05
0.003708
9.5825e-05
0.0034354
0.00011103
0.0031119
0.00012594
0.0027025
0.00013635
0.0023583
0.00014351
0.001776
0.00015299
0.0013773
0.00015767
0.00084973
0.00041763
0.00016154
2.01e-05
0.004136
3.5442e-08
4.0256e-05
0.0040455
5.9853e-05
0.0038988
7.846e-05
0.0036894
9.5839e-05
0.003418
0.00011103
0.0030967
0.00012595
0.0026876
0.00013648
0.0023478
0.00014351
0.001769
0.00015283
0.001368
0.00015764
0.00084492
0.00041371
0.00016157
2.0101e-05
0.0041159
3.6193e-08
4.0259e-05
0.0040253
5.9858e-05
0.0038792
7.8465e-05
0.0036708
9.5853e-05
0.0034006
0.00011102
0.0030816
0.00012596
0.0026727
0.00013661
0.0023372
0.00014352
0.001762
0.00015268
0.0013588
0.0001576
0.00084001
0.00040972
0.00016158
2.0102e-05
0.0040958
3.6948e-08
4.0261e-05
0.0040052
5.9863e-05
0.0038596
7.847e-05
0.0036522
9.5868e-05
0.0033832
0.00011101
0.0030664
0.00012596
0.0026577
0.00013673
0.0023264
0.00014355
0.0017552
0.00015255
0.0013498
0.00015755
0.00083501
0.00040569
0.00016158
2.0103e-05
0.0040756
3.7708e-08
4.0264e-05
0.003985
5.9867e-05
0.00384
7.8476e-05
0.0036336
9.5883e-05
0.0033658
0.00011101
0.0030513
0.00012596
0.0026428
0.00013686
0.0023155
0.0001436
0.0017485
0.00015242
0.001341
0.00015749
0.00082994
0.00040162
0.00016156
2.0104e-05
0.0040555
3.8472e-08
4.0267e-05
0.0039649
5.9872e-05
0.0038203
7.8481e-05
0.0036149
9.5899e-05
0.0033484
0.00011101
0.0030362
0.00012595
0.0026278
0.00013699
0.0023044
0.00014365
0.0017418
0.0001523
0.0013323
0.00015743
0.00082481
0.00039751
0.00016154
2.0105e-05
0.0040353
3.924e-08
4.0269e-05
0.0039447
5.9877e-05
0.0038007
7.8486e-05
0.0035963
9.5914e-05
0.003331
0.000111
0.0030211
0.00012594
0.0026129
0.00013712
0.0022933
0.00014372
0.0017352
0.0001522
0.0013239
0.00015736
0.00081965
0.00039337
0.0001615
2.0106e-05
0.0040152
4.0013e-08
4.0272e-05
0.0039245
5.9882e-05
0.0037811
7.849e-05
0.0035777
9.5931e-05
0.0033135
0.000111
0.003006
0.00012593
0.0025979
0.00013724
0.002282
0.0001438
0.0017287
0.00015211
0.0013156
0.0001573
0.00081446
0.0003892
0.00016146
2.0107e-05
0.003995
4.079e-08
4.0275e-05
0.0039044
5.9886e-05
0.0037615
7.8495e-05
0.0035591
9.5947e-05
0.0032961
0.000111
0.002991
0.00012592
0.002583
0.00013736
0.0022705
0.0001439
0.0017221
0.00015203
0.0013074
0.00015723
0.00080926
0.00038502
0.00016142
2.0108e-05
0.0039749
4.1572e-08
4.0277e-05
0.0038842
5.9891e-05
0.0037419
7.85e-05
0.0035405
9.5963e-05
0.0032786
0.000111
0.0029759
0.0001259
0.0025681
0.00013748
0.0022589
0.000144
0.0017156
0.00015197
0.0012995
0.00015717
0.00080405
0.00038082
0.00016137
2.0109e-05
0.0039547
4.2359e-08
4.028e-05
0.003864
5.9896e-05
0.0037223
7.8505e-05
0.0035219
9.598e-05
0.0032611
0.000111
0.0029609
0.00012588
0.0025532
0.0001376
0.0022472
0.00014412
0.0017091
0.00015192
0.0012917
0.00015712
0.00079886
0.00037662
0.00016132
2.011e-05
0.0039346
4.3151e-08
4.0283e-05
0.0038438
5.9901e-05
0.0037027
7.851e-05
0.0035033
9.5997e-05
0.0032437
0.000111
0.0029459
0.00012586
0.0025384
0.00013771
0.0022354
0.00014424
0.0017026
0.00015189
0.001284
0.00015707
0.00079368
0.00037242
0.00016127
2.0111e-05
0.0039144
4.3948e-08
4.0285e-05
0.0038237
5.9906e-05
0.003683
7.8515e-05
0.0034847
9.6015e-05
0.0032262
0.000111
0.0029309
0.00012583
0.0025236
0.00013782
0.0022234
0.00014437
0.001696
0.00015187
0.0012765
0.00015702
0.00078853
0.00036823
0.00016122
2.0112e-05
0.0038943
4.475e-08
4.0288e-05
0.0038035
5.9911e-05
0.0036634
7.8519e-05
0.0034661
9.6032e-05
0.0032086
0.00011101
0.002916
0.0001258
0.0025088
0.00013792
0.0022113
0.00014451
0.0016894
0.00015186
0.0012691
0.00015698
0.00078341
0.00036405
0.00016117
2.0113e-05
0.0038741
4.5557e-08
4.0291e-05
0.0037833
5.9916e-05
0.0036438
7.8524e-05
0.0034475
9.605e-05
0.0031911
0.00011101
0.002901
0.00012577
0.002494
0.00013801
0.002199
0.00014465
0.0016828
0.00015187
0.0012619
0.00015695
0.00077833
0.00035988
0.00016112
2.0114e-05
0.003854
4.6369e-08
4.0294e-05
0.0037631
5.9921e-05
0.0036242
7.8529e-05
0.0034289
9.6067e-05
0.0031736
0.00011102
0.002886
0.00012574
0.0024793
0.0001381
0.0021867
0.0001448
0.0016761
0.0001519
0.0012548
0.00015693
0.00077329
0.00035574
0.00016108
2.0115e-05
0.0038338
4.7186e-08
4.0297e-05
0.003743
5.9927e-05
0.0036045
7.8533e-05
0.0034103
9.6085e-05
0.003156
0.00011103
0.0028711
0.00012571
0.0024646
0.00013819
0.0021742
0.00014495
0.0016693
0.00015193
0.0012478
0.00015692
0.0007683
0.00035162
0.00016104
2.0116e-05
0.0038136
4.8009e-08
4.0299e-05
0.0037228
5.9932e-05
0.0035849
7.8538e-05
0.0033916
9.6103e-05
0.0031385
0.00011104
0.0028562
0.00012567
0.00245
0.00013826
0.0021616
0.0001451
0.0016625
0.00015198
0.001241
0.00015692
0.00076336
0.00034754
0.000161
2.0117e-05
0.0037935
4.8837e-08
4.0302e-05
0.0037026
5.9937e-05
0.0035653
7.8542e-05
0.003373
9.6121e-05
0.0031209
0.00011105
0.0028412
0.00012563
0.0024354
0.00013833
0.0021489
0.00014526
0.0016556
0.00015204
0.0012342
0.00015693
0.00075847
0.00034349
0.00016098
2.0118e-05
0.0037733
4.967e-08
4.0305e-05
0.0036824
5.9943e-05
0.0035456
7.8547e-05
0.0033544
9.6139e-05
0.0031033
0.00011107
0.0028263
0.00012559
0.0024209
0.0001384
0.0021361
0.00014542
0.0016485
0.00015211
0.0012275
0.00015694
0.00075364
0.00033948
0.00016095
2.0119e-05
0.0037531
5.051e-08
4.0308e-05
0.0036622
5.9948e-05
0.003526
7.8551e-05
0.0033358
9.6157e-05
0.0030857
0.00011108
0.0028114
0.00012555
0.0024064
0.00013846
0.0021232
0.00014558
0.0016414
0.00015219
0.0012209
0.00015697
0.00074886
0.00033552
0.00016094
2.012e-05
0.003733
5.1355e-08
4.0311e-05
0.003642
5.9954e-05
0.0035064
7.8556e-05
0.0033172
9.6175e-05
0.0030681
0.0001111
0.0027964
0.00012551
0.002392
0.00013851
0.0021102
0.00014574
0.0016342
0.00015228
0.0012143
0.00015701
0.00074413
0.0003316
0.00016093
2.0121e-05
0.0037128
5.2206e-08
4.0314e-05
0.0036218
5.9959e-05
0.0034867
7.856e-05
0.0032986
9.6193e-05
0.0030504
0.00011112
0.0027815
0.00012547
0.0023776
0.00013855
0.0020971
0.00014589
0.0016269
0.00015238
0.0012078
0.00015705
0.00073946
0.00032773
0.00016092
2.0122e-05
0.0036926
5.3063e-08
4.0317e-05
0.0036016
5.9965e-05
0.0034671
7.8565e-05
0.00328
9.621e-05
0.0030328
0.00011114
0.0027666
0.00012543
0.0023634
0.00013859
0.0020839
0.00014604
0.0016194
0.00015248
0.0012014
0.0001571
0.00073484
0.0003239
0.00016093
2.0123e-05
0.0036724
5.3925e-08
4.0319e-05
0.0035814
5.997e-05
0.0034474
7.8569e-05
0.0032614
9.6228e-05
0.0030151
0.00011117
0.0027516
0.00012539
0.0023491
0.00013862
0.0020707
0.00014619
0.0016118
0.00015259
0.001195
0.00015716
0.00073027
0.00032013
0.00016093
2.0124e-05
0.0036523
5.4795e-08
4.0322e-05
0.0035612
5.9976e-05
0.0034278
7.8574e-05
0.0032428
9.6245e-05
0.0029975
0.00011119
0.0027367
0.00012535
0.002335
0.00013864
0.0020574
0.00014634
0.0016041
0.00015271
0.0011886
0.00015723
0.00072574
0.00031641
0.00016095
2.0125e-05
0.0036321
5.567e-08
4.0325e-05
0.003541
5.9982e-05
0.0034081
7.8578e-05
0.0032242
9.6262e-05
0.0029798
0.00011122
0.0027217
0.00012531
0.0023209
0.00013866
0.0020441
0.00014648
0.0015963
0.00015283
0.0011823
0.00015731
0.00072127
0.00031275
0.00016097
2.0126e-05
0.0036119
5.6552e-08
4.0328e-05
0.0035208
5.9988e-05
0.0033884
7.8583e-05
0.0032056
9.6279e-05
0.0029621
0.00011125
0.0027068
0.00012527
0.0023069
0.00013867
0.0020307
0.00014662
0.0015883
0.00015295
0.001176
0.00015739
0.00071683
0.00030914
0.000161
2.0127e-05
0.0035917
5.744e-08
4.0331e-05
0.0035006
5.9994e-05
0.0033688
7.8587e-05
0.0031871
9.6295e-05
0.0029444
0.00011128
0.0026918
0.00012524
0.0022929
0.00013867
0.0020173
0.00014675
0.0015803
0.00015308
0.0011696
0.00015747
0.00071243
0.00030559
0.00016103
2.0128e-05
0.0035715
5.8335e-08
4.0334e-05
0.0034804
6e-05
0.0033491
7.8592e-05
0.0031685
9.6311e-05
0.0029266
0.00011131
0.0026768
0.0001252
0.002279
0.00013867
0.0020038
0.00014688
0.001572
0.00015321
0.0011633
0.00015757
0.00070808
0.00030209
0.00016106
2.0129e-05
0.0035513
5.9236e-08
4.0337e-05
0.0034602
6.0006e-05
0.0033294
7.8596e-05
0.0031499
9.6327e-05
0.0029089
0.00011135
0.0026618
0.00012517
0.0022652
0.00013866
0.0019903
0.00014699
0.0015637
0.00015333
0.001157
0.00015766
0.00070375
0.00029864
0.00016111
2.0131e-05
0.0035311
6.0144e-08
4.0341e-05
0.00344
6.0012e-05
0.0033098
7.8601e-05
0.0031313
9.6342e-05
0.0028912
0.00011138
0.0026467
0.00012513
0.0022514
0.00013865
0.0019768
0.00014711
0.0015553
0.00015346
0.0011506
0.00015776
0.00069945
0.00029525
0.00016115
2.0132e-05
0.0035109
6.106e-08
4.0344e-05
0.0034198
6.0018e-05
0.0032901
7.8606e-05
0.0031127
9.6357e-05
0.0028734
0.00011142
0.0026317
0.0001251
0.0022378
0.00013863
0.0019632
0.00014721
0.0015467
0.00015359
0.0011442
0.00015786
0.00069518
0.00029191
0.0001612
2.0133e-05
0.0034907
6.1982e-08
4.0347e-05
0.0033996
6.0024e-05
0.0032704
7.8611e-05
0.0030941
9.6371e-05
0.0028557
0.00011146
0.0026166
0.00012508
0.0022241
0.00013861
0.0019497
0.00014731
0.001538
0.00015371
0.0011378
0.00015796
0.00069093
0.00028863
0.00016125
2.0134e-05
0.0034706
6.2912e-08
4.035e-05
0.0033794
6.0031e-05
0.0032507
7.8615e-05
0.0030755
9.6384e-05
0.0028379
0.0001115
0.0026015
0.00012505
0.0022106
0.00013859
0.0019362
0.0001474
0.0015292
0.00015384
0.0011314
0.00015807
0.0006867
0.00028539
0.0001613
2.0135e-05
0.0034504
6.3849e-08
4.0353e-05
0.0033591
6.0037e-05
0.0032311
7.8621e-05
0.0030569
9.6398e-05
0.0028201
0.00011154
0.0025863
0.00012503
0.0021971
0.00013856
0.0019227
0.00014749
0.0015202
0.00015396
0.0011249
0.00015818
0.00068248
0.00028221
0.00016136
2.0136e-05
0.0034302
6.4793e-08
4.0356e-05
0.0033389
6.0043e-05
0.0032114
7.8626e-05
0.0030384
9.641e-05
0.0028023
0.00011159
0.0025711
0.00012501
0.0021837
0.00013853
0.0019091
0.00014757
0.0015112
0.00015408
0.0011184
0.00015828
0.00067827
0.00027907
0.00016142
2.0137e-05
0.0034099
6.5745e-08
4.036e-05
0.0033187
6.005e-05
0.0031917
7.8631e-05
0.0030198
9.6422e-05
0.0027845
0.00011163
0.0025559
0.000125
0.0021703
0.00013849
0.0018957
0.00014764
0.001502
0.00015419
0.0011119
0.00015839
0.00067407
0.00027598
0.00016148
2.0139e-05
0.0033897
6.6705e-08
4.0363e-05
0.0032985
6.0056e-05
0.003172
7.8636e-05
0.0030012
9.6434e-05
0.0027667
0.00011168
0.0025407
0.00012499
0.002157
0.00013845
0.0018822
0.0001477
0.0014928
0.0001543
0.0011053
0.0001585
0.00066988
0.00027293
0.00016154
2.014e-05
0.0033695
6.7672e-08
4.0366e-05
0.0032783
6.0063e-05
0.0031523
7.8642e-05
0.0029826
9.6444e-05
0.0027489
0.00011172
0.0025254
0.00012498
0.0021437
0.00013842
0.0018687
0.00014776
0.0014835
0.00015441
0.0010986
0.0001586
0.00066568
0.00026993
0.00016161
2.0141e-05
0.0033493
6.8648e-08
4.0369e-05
0.003258
6.007e-05
0.0031326
7.8648e-05
0.002964
9.6454e-05
0.0027311
0.00011177
0.0025101
0.00012497
0.0021305
0.00013838
0.0018553
0.00014781
0.001474
0.00015451
0.0010919
0.0001587
0.00066148
0.00026696
0.00016167
2.0142e-05
0.0033291
6.9632e-08
4.0373e-05
0.0032378
6.0077e-05
0.0031129
7.8654e-05
0.0029455
9.6464e-05
0.0027133
0.00011182
0.0024947
0.00012497
0.0021174
0.00013834
0.001842
0.00014785
0.0014645
0.0001546
0.0010852
0.00015881
0.00065728
0.00026403
0.00016173
2.0143e-05
0.0033089
7.0624e-08
4.0376e-05
0.0032176
6.0083e-05
0.0030932
7.866e-05
0.0029269
9.6473e-05
0.0026955
0.00011187
0.0024793
0.00012497
0.0021043
0.0001383
0.0018286
0.00014789
0.0014549
0.0001547
0.0010784
0.00015891
0.00065307
0.00026114
0.0001618
2.0144e-05
0.0032887
7.1624e-08
4.038e-05
0.0031973
6.009e-05
0.0030735
7.8666e-05
0.0029083
9.6481e-05
0.0026777
0.00011191
0.0024639
0.00012498
0.0020912
0.00013826
0.0018154
0.00014793
0.0014452
0.00015478
0.0010715
0.000159
0.00064885
0.00025829
0.00016186
2.0146e-05
0.0032685
7.2633e-08
4.0383e-05
0.0031771
6.0097e-05
0.0030538
7.8673e-05
0.0028897
9.6489e-05
0.0026599
0.00011196
0.0024484
0.00012499
0.0020782
0.00013822
0.0018021
0.00014796
0.0014355
0.00015487
0.0010646
0.0001591
0.00064461
0.00025546
0.00016192
2.0147e-05
0.0032482
7.3651e-08
4.0386e-05
0.0031568
6.0104e-05
0.003034
7.868e-05
0.0028712
9.6496e-05
0.0026421
0.00011201
0.0024329
0.000125
0.0020652
0.00013818
0.001789
0.00014798
0.0014257
0.00015494
0.0010576
0.00015919
0.00064036
0.00025267
0.00016199
2.0148e-05
0.003228
7.4678e-08
4.039e-05
0.0031366
6.0111e-05
0.0030143
7.8687e-05
0.0028526
9.6503e-05
0.0026242
0.00011206
0.0024174
0.00012502
0.0020522
0.00013814
0.0017758
0.000148
0.0014158
0.00015502
0.0010506
0.00015928
0.0006361
0.0002499
0.00016205
2.0149e-05
0.0032078
7.5714e-08
4.0393e-05
0.0031164
6.0118e-05
0.0029946
7.8694e-05
0.002834
9.6508e-05
0.0026064
0.00011211
0.0024018
0.00012504
0.0020393
0.00013811
0.0017628
0.00014802
0.0014059
0.00015508
0.0010436
0.00015937
0.00063181
0.00024716
0.00016211
2.0151e-05
0.0031876
7.676e-08
4.0397e-05
0.0030961
6.0125e-05
0.0029749
7.8702e-05
0.0028154
9.6514e-05
0.0025886
0.00011216
0.0023861
0.00012506
0.0020264
0.00013807
0.0017498
0.00014803
0.001396
0.00015515
0.0010364
0.00015946
0.0006275
0.00024445
0.00016217
2.0152e-05
0.0031673
7.7815e-08
4.0401e-05
0.0030759
6.0133e-05
0.0029551
7.871e-05
0.0027969
9.6519e-05
0.0025708
0.00011221
0.0023704
0.00012509
0.0020135
0.00013804
0.0017368
0.00014804
0.001386
0.00015521
0.0010293
0.00015954
0.00062317
0.00024175
0.00016223
2.0153e-05
0.0031471
7.8879e-08
4.0404e-05
0.0030556
6.014e-05
0.0029354
7.8718e-05
0.0027783
9.6523e-05
0.002553
0.00011225
0.0023547
0.00012512
0.0020007
0.00013801
0.0017239
0.00014804
0.0013759
0.00015526
0.001022
0.00015962
0.00061882
0.00023908
0.00016229
2.0154e-05
0.0031269
7.9953e-08
4.0408e-05
0.0030354
6.0147e-05
0.0029157
7.8726e-05
0.0027597
9.6527e-05
0.0025352
0.0001123
0.0023389
0.00012515
0.0019878
0.00013798
0.0017111
0.00014805
0.0013659
0.00015531
0.0010148
0.00015969
0.00061444
0.00023642
0.00016235
2.0156e-05
0.0031066
8.1038e-08
4.0412e-05
0.0030151
6.0155e-05
0.0028959
7.8735e-05
0.0027411
9.653e-05
0.0025174
0.00011235
0.0023231
0.00012519
0.001975
0.00013796
0.0016983
0.00014805
0.0013558
0.00015536
0.0010075
0.00015976
0.00061004
0.00023378
0.0001624
2.0157e-05
0.0030864
8.2132e-08
4.0415e-05
0.0029948
6.0162e-05
0.0028762
7.8744e-05
0.0027225
9.6533e-05
0.0024996
0.00011239
0.0023072
0.00012523
0.0019621
0.00013794
0.0016856
0.00014805
0.0013457
0.00015541
0.0010001
0.00015983
0.00060561
0.00023116
0.00016246
2.0158e-05
0.0030662
8.3237e-08
4.0419e-05
0.0029746
6.0169e-05
0.0028564
7.8753e-05
0.0027039
9.6536e-05
0.0024818
0.00011244
0.0022913
0.00012527
0.0019493
0.00013792
0.0016729
0.00014805
0.0013356
0.00015545
0.00099272
0.0001599
0.00060116
0.00022855
0.00016251
2.016e-05
0.0030459
8.4353e-08
4.0423e-05
0.0029543
6.0177e-05
0.0028367
7.8763e-05
0.0026854
9.6538e-05
0.0024641
0.00011248
0.0022754
0.00012531
0.0019365
0.00013791
0.0016603
0.00014805
0.0013254
0.00015549
0.00098528
0.00015997
0.00059667
0.00022595
0.00016257
2.0161e-05
0.0030257
8.5479e-08
4.0427e-05
0.0029341
6.0184e-05
0.0028169
7.8773e-05
0.0026668
9.654e-05
0.0024463
0.00011253
0.0022594
0.00012536
0.0019237
0.0001379
0.0016478
0.00014805
0.0013153
0.00015552
0.00097781
0.00016003
0.00059217
0.00022336
0.00016262
2.0162e-05
0.0030054
8.6616e-08
4.0431e-05
0.0029138
6.0192e-05
0.0027971
7.8783e-05
0.0026482
9.6542e-05
0.0024285
0.00011257
0.0022434
0.0001254
0.0019108
0.00013789
0.0016353
0.00014805
0.0013051
0.00015555
0.00097031
0.00016009
0.00058763
0.00022078
0.00016267
2.0164e-05
0.0029852
8.7765e-08
4.0435e-05
0.0028935
6.02e-05
0.0027774
7.8794e-05
0.0026296
9.6543e-05
0.0024108
0.00011261
0.0022273
0.00012545
0.001898
0.00013788
0.0016229
0.00014805
0.0012949
0.00015558
0.00096277
0.00016015
0.00058307
0.00021821
0.00016272
2.0165e-05
0.0029649
8.8925e-08
4.0439e-05
0.0028732
6.0207e-05
0.0027576
7.8805e-05
0.002611
9.6544e-05
0.0023931
0.00011265
0.0022112
0.0001255
0.0018851
0.00013788
0.0016105
0.00014804
0.0012848
0.00015561
0.0009552