/*--------------------------------*- C++ -*----------------------------------*\
  =========                 |
  \\      /  F ield         | OpenFOAM: The Open Source CFD Toolbox
   \\    /   O peration     | Website:  https://openfoam.org
    \\  /    A nd           | Version:  6.0
     \\/     M anipulation  |
\*---------------------------------------------------------------------------*/
FoamFile
{
    version     2.0;
    format      ascii;
    class       volVectorField;
    location    "4";
    object      U;
}
// * * * * * * * * * * * * * * * * * * * * * * * * * * * * * * * * * * * * * //

dimensions      [0 1 -1 0 0 0 0];

internalField   nonuniform List<vector> 
17000
(
(1 1.975e-07 -4.4356e-18)
(1 -7.0091e-06 2.9968e-18)
(1 -1.0315e-05 -1.2838e-17)
(1 -1.5719e-05 -8.8625e-18)
(1 -1.5876e-05 1.6566e-17)
(1 -1.5824e-05 3.0713e-17)
(1 -9.751e-06 2.6119e-17)
(0.99999 7.9166e-06 -4.1793e-18)
(0.99994 2.8736e-05 1.5258e-17)
(0.99982 6.8449e-05 3.215e-18)
(0.99571 0.000758 2.8316e-17)
(1.019 0.010848 7.6459e-18)
(1 6.1489e-07 2.748e-18)
(1 -1.9427e-05 -9.101e-18)
(1 -2.7874e-05 6.1309e-18)
(1 -4.303e-05 -3.496e-19)
(1 -4.1309e-05 -4.4184e-19)
(1 -4.138e-05 -3.693e-17)
(1 -2.0633e-05 -4.5113e-17)
(0.99996 3.0585e-05 -2.3913e-17)
(0.9998 0.00010077 -1.5228e-17)
(0.99988 0.00016978 -1.5898e-18)
(0.98614 0.002197 -1.3409e-17)
(1.0534 0.030679 -4.6294e-18)
(1 9.8788e-07 -3.5494e-18)
(1 -3.1997e-05 1.8082e-17)
(1 -4.5667e-05 3.1889e-18)
(1 -7.098e-05 1.0218e-17)
(1 -6.7095e-05 -3.8201e-18)
(1.0001 -6.8109e-05 2.9582e-17)
(1 -3.1701e-05 -6.3502e-18)
(0.99993 5.1953e-05 5.4317e-18)
(0.99963 0.00017989 -1.8474e-17)
(1.0004 0.00028705 2.4153e-17)
(0.97592 0.0032854 -7.01e-18)
(1.0819 0.045264 1.6216e-18)
(1 1.3452e-06 9.2788e-18)
(1 -4.4963e-05 -1.7531e-17)
(1 -6.4089e-05 -1.5116e-17)
(1 -9.9973e-05 -7.1695e-19)
(1.0001 -9.3953e-05 5.8972e-18)
(1.0001 -9.6268e-05 -8.2085e-19)
(1.0001 -4.3733e-05 6.2567e-17)
(0.99992 7.1578e-05 9.7863e-18)
(0.99942 0.00026524 2.1845e-17)
(1.0014 0.00042427 -8.7489e-18)
(0.96543 0.0040493 3.4132e-17)
(1.1033 0.055868 -7.3809e-18)
(1 1.706e-06 -6.5198e-18)
(1 -5.7988e-05 1.5151e-17)
(1 -8.258e-05 1.2868e-17)
(1.0001 -0.0001291 1.3078e-17)
(1.0001 -0.00012092 2.8915e-18)
(1.0001 -0.00012461 2.1743e-17)
(1.0001 -5.5751e-05 -2.794e-17)
(0.99991 9.0225e-05 1.9877e-18)
(0.99917 0.00035622 -1.3394e-17)
(1.0028 0.0005837 -2.0876e-18)
(0.95507 0.0045385 -8.8547e-18)
(1.1174 0.06362 2.0475e-18)
(1 2.0683e-06 6.5981e-18)
(1 -7.1066e-05 -6.281e-18)
(1 -0.00010114 3.9299e-18)
(1.0001 -0.00015836 -2.5907e-17)
(1.0001 -0.00014799 -8.4759e-20)
(1.0001 -0.00015314 -4.3044e-17)
(1.0001 -6.7744e-05 1.0721e-18)
(0.99992 0.00010773 -1.5956e-17)
(0.99887 0.0004514 5.1006e-18)
(1.0046 0.00077199 -2.1032e-17)
(0.94519 0.0047949 -2.1308e-17)
(1.1249 0.06913 1.9774e-18)
(0.99999 2.4306e-06 -1.0922e-18)
(1 -8.4203e-05 -7.5121e-18)
(1 -0.00011977 -3.1939e-18)
(1.0001 -0.00018777 1.9554e-17)
(1.0001 -0.00017516 -2.6781e-17)
(1.0002 -0.0001819 1.647e-17)
(1.0001 -7.9678e-05 1.8687e-17)
(0.99993 0.000124 5.6134e-18)
(0.99849 0.00054944 1.1403e-17)
(1.0067 0.00099557 1.1323e-17)
(0.93607 0.004856 9.1773e-18)
(1.1268 0.07282 3.1709e-18)
(0.99999 2.792e-06 -2.2543e-18)
(1 -9.7399e-05 -1.4778e-18)
(1 -0.00013848 -2.7514e-17)
(1.0001 -0.00021733 -9.3375e-18)
(1.0001 -0.00020244 7.496e-18)
(1.0002 -0.00021092 2.6992e-17)
(1.0002 -9.1538e-05 1.1894e-17)
(0.99996 0.00013896 5.0114e-18)
(0.99804 0.00064895 -7.4529e-18)
(1.0091 0.0012583 1.5858e-17)
(0.92796 0.004758 7.4092e-18)
(1.124 0.075053 -1.0078e-17)
(0.99999 3.1517e-06 -6.9982e-18)
(1 -0.00011066 6.3534e-18)
(1 -0.00015726 4.6261e-17)
(1.0001 -0.00024707 -1.12e-17)
(1.0002 -0.00022982 2.8071e-17)
(1.0002 -0.00024022 -5.3292e-17)
(1.0002 -0.00010332 -3.9622e-17)
(1 0.00015256 9.7379e-18)
(0.99751 0.00074857 -5.5976e-18)
(1.0117 0.0015615 -8.7465e-18)
(0.921 0.0045353 -1.3693e-17)
(1.1176 0.076132 1.3181e-17)
(0.99999 3.5092e-06 4.6106e-18)
(1 -0.00012398 2.3914e-18)
(1.0001 -0.00017612 -3.9186e-17)
(1.0001 -0.00027697 1.594e-17)
(1.0002 -0.00025731 -1.2241e-17)
(1.0002 -0.00026981 2.2729e-17)
(1.0002 -0.00011503 1.408e-17)
(1.0001 0.00016479 2.4617e-18)
(0.9969 0.000847 5.2864e-19)
(1.0145 0.001905 1.3851e-18)
(0.9153 0.00422 4.3544e-18)
(1.1084 0.076311 -6.9269e-19)
(0.99998 3.864e-06 -2.5314e-18)
(1 -0.00013737 -7.843e-18)
(1.0001 -0.00019507 9.6056e-18)
(1.0001 -0.00030704 -2.8125e-18)
(1.0002 -0.00028493 1.8895e-18)
(1.0003 -0.00029971 -2.491e-17)
(1.0002 -0.00012667 -3.2429e-17)
(1.0002 0.00017563 -3.1267e-17)
(0.99621 0.000943 1.5646e-17)
(1.0174 0.0022867 1.7989e-18)
(0.91092 0.0038412 -1.1045e-17)
(1.0973 0.075795 -5.6749e-18)
(0.99998 4.2153e-06 3.494e-18)
(1 -0.00015082 2.9624e-18)
(1.0001 -0.0002141 4.6292e-18)
(1.0001 -0.00033729 -2.2415e-18)
(1.0002 -0.00031268 -5.6641e-18)
(1.0003 -0.00032993 9.4214e-18)
(1.0002 -0.00013823 1.8772e-17)
(1.0003 0.00018512 1.9316e-17)
(0.99543 0.0010354 1.0053e-17)
(1.0204 0.0027034 -2.2722e-17)
(0.90785 0.0034253 1.1647e-19)
(1.085 0.074756 -6.5629e-18)
(0.99998 4.5627e-06 -3.4934e-18)
(1 -0.00016434 5.8257e-18)
(1.0001 -0.00023322 8.393e-18)
(1.0002 -0.00036773 5.8527e-18)
(1.0002 -0.00034056 -5.2533e-18)
(1.0003 -0.0003605 4.6317e-18)
(1.0003 -0.00014972 4.2804e-18)
(1.0004 0.00019331 -1.725e-18)
(0.99457 0.0011233 -1.6248e-17)
(1.0233 0.003151 2.107e-17)
(0.90606 0.0029952 1.0369e-19)
(1.072 0.073334 1.4084e-18)
(0.99997 4.9054e-06 5.3124e-18)
(1 -0.00017793 -4.5475e-18)
(1.0001 -0.00025244 7.3471e-19)
(1.0002 -0.00039836 -4.8824e-18)
(1.0002 -0.00036859 1.1931e-17)
(1.0003 -0.00039143 5.6514e-18)
(1.0003 -0.00016115 1.7223e-17)
(1.0006 0.00020028 -6.4066e-18)
(0.99363 0.0012057 -1.9853e-19)
(1.0263 0.0036248 5.1731e-18)
(0.90548 0.002571 1.6757e-17)
(1.059 0.07164 8.9856e-19)
(0.99997 5.2429e-06 1.2812e-18)
(1 -0.00019159 1.0093e-17)
(1.0001 -0.00027175 1.4035e-17)
(1.0002 -0.00042918 -4.868e-18)
(1.0003 -0.00039676 8.6387e-18)
(1.0004 -0.00042275 -2.6382e-18)
(1.0003 -0.00017253 -3.0165e-17)
(1.0008 0.00020612 2.0279e-17)
(0.99261 0.0012817 -1.8321e-17)
(1.0291 0.0041196 -2.984e-17)
(0.90603 0.0021691 -3.6794e-18)
(1.0462 0.069769 8.3188e-19)
(0.99996 5.5745e-06 -3.2687e-18)
(1 -0.00020533 -1.0733e-17)
(1.0001 -0.00029116 -3.3686e-17)
(1.0002 -0.00046021 8.2015e-18)
(1.0003 -0.00042508 -1.311e-17)
(1.0004 -0.00045448 8.4592e-18)
(1.0003 -0.00018387 -2.8221e-18)
(1.001 0.00021094 -1.2207e-17)
(0.99152 0.0013508 4.0235e-18)
(1.0318 0.0046299 1.7819e-17)
(0.90759 0.0018033 -7.7195e-18)
(1.034 0.067794 1.1516e-17)
(0.99996 5.8996e-06 3.4393e-19)
(1 -0.00021914 8.0276e-18)
(1.0001 -0.00031068 2.3257e-17)
(1.0002 -0.00049145 -1.8471e-18)
(1.0003 -0.00045357 -1.3024e-17)
(1.0004 -0.00048662 -1.5764e-17)
(1.0003 -0.00019519 1.078e-17)
(1.0012 0.00021488 7.0012e-18)
(0.99037 0.0014123 2.325e-17)
(1.0344 0.0051505 -2.4942e-18)
(0.91007 0.0014838 1.9176e-18)
(1.0227 0.065775 -4.5948e-18)
(0.99995 6.2174e-06 -1.9296e-18)
(1 -0.00023302 -9.7269e-18)
(1.0001 -0.00033031 -1.0494e-17)
(1.0002 -0.00052289 6.1726e-18)
(1.0003 -0.00048223 -7.3142e-18)
(1.0005 -0.00051922 -1.2645e-17)
(1.0003 -0.00020652 1.048e-17)
(1.0015 0.00021807 -4.7495e-18)
(0.98916 0.0014657 -2.8771e-17)
(1.0367 0.0056762 -1.3976e-17)
(0.91333 0.0012186 8.3227e-18)
(1.0124 0.063756 -4.9783e-18)
(0.99995 6.5273e-06 -2.763e-18)
(0.99999 -0.00024699 -3.6763e-18)
(1.0001 -0.00035004 -7.7767e-19)
(1.0002 -0.00055456 -2.703e-17)
(1.0003 -0.00051106 6.1372e-18)
(1.0005 -0.00055227 5.506e-18)
(1.0003 -0.00021787 -1.9914e-17)
(1.0018 0.00022069 -1.6217e-17)
(0.9879 0.0015106 4.2093e-18)
(1.0389 0.0062022 -1.0478e-18)
(0.91726 0.0010125 -9.6112e-18)
(1.0032 0.061775 9.4199e-19)
(0.99994 6.8287e-06 3.5938e-18)
(0.99999 -0.00026103 1.6853e-17)
(1.0001 -0.0003699 2.0025e-17)
(1.0002 -0.00058646 2.5454e-18)
(1.0004 -0.00054007 1.6965e-17)
(1.0005 -0.00058581 9.6492e-18)
(1.0003 -0.00022929 2.8745e-18)
(1.0022 0.00022289 1.7749e-17)
(0.9866 0.0015466 2.0906e-17)
(1.0408 0.006724 1.6688e-17)
(0.92174 0.00086845 7.1722e-18)
(0.99515 0.059859 1.1165e-18)
(0.99993 7.1208e-06 -1.7129e-18)
(0.99999 -0.00027516 -4.0437e-18)
(1.0001 -0.00038987 -2.1335e-17)
(1.0002 -0.00061859 -2.4104e-18)
(1.0004 -0.00056927 -1.2858e-17)
(1.0006 -0.00061984 -5.2211e-18)
(1.0003 -0.0002408 -1.8443e-18)
(1.0026 0.00022486 -1.605e-17)
(0.98527 0.0015736 -1.9988e-17)
(1.0424 0.0072375 8.5506e-18)
(0.92666 0.00078721 4.9192e-19)
(0.98832 0.058025 6.4024e-19)
(0.99993 7.403e-06 4.5404e-18)
(0.99998 -0.00028937 -5.283e-18)
(1.0001 -0.00040996 -2.001e-17)
(1.0003 -0.00065095 4.5823e-17)
(1.0004 -0.00059867 1.8651e-17)
(1.0006 -0.0006544 -1.2776e-17)
(1.0003 -0.00025245 2.4799e-17)
(1.003 0.00022678 2.1692e-17)
(0.98391 0.0015912 3.2432e-17)
(1.0438 0.007739 -3.1335e-17)
(0.93191 0.00076787 -1.3172e-17)
(0.98267 0.056289 1.6846e-19)
(0.99992 7.6745e-06 -3.3234e-18)
(0.99998 -0.00030366 -1.0601e-18)
(1.0001 -0.00043019 3.4161e-17)
(1.0003 -0.00068356 -3.464e-17)
(1.0004 -0.00062827 -1.7955e-18)
(1.0006 -0.0006895 4.2332e-17)
(1.0003 -0.00026428 7.6847e-18)
(1.0035 0.00022885 -3.3506e-18)
(0.98255 0.0015994 -2.0112e-17)
(1.0449 0.0082255 3.6924e-17)
(0.9374 0.00080811 -5.5795e-18)
(0.97814 0.054657 -2.6824e-19)
(0.99991 7.9347e-06 -1.6942e-18)
(0.99997 -0.00031805 -2.1124e-18)
(1.0001 -0.00045054 1.7788e-18)
(1.0003 -0.00071643 3.6037e-17)
(1.0004 -0.00065809 -1.0123e-17)
(1.0007 -0.00072516 -3.129e-17)
(1.0003 -0.00027634 -1.9594e-17)
(1.004 0.00023126 -3.6078e-18)
(0.98119 0.0015981 6.3593e-18)
(1.0458 0.0086941 -3.1143e-17)
(0.94302 0.00090452 9.3456e-18)
(0.97469 0.053135 2.9031e-18)
(0.9999 8.1827e-06 2.7998e-18)
(0.99997 -0.00033252 1.4703e-17)
(1.0001 -0.00047104 -1.3119e-17)
(1.0003 -0.00074955 -3.7732e-18)
(1.0004 -0.00068812 -1.9426e-17)
(1.0007 -0.00076139 3.4042e-17)
(1.0002 -0.00028869 -1.72e-17)
(1.0045 0.0002342 1.4958e-17)
(0.97983 0.0015873 -1.9598e-18)
(1.0463 0.0091425 2.9195e-17)
(0.94871 0.0010528 -9.1196e-18)
(0.97223 0.051723 -4.8437e-18)
(0.9999 8.4179e-06 -5.3699e-19)
(0.99996 -0.00034709 -8.456e-18)
(1.0001 -0.00049167 -1.837e-17)
(1.0003 -0.00078294 -1.0339e-17)
(1.0005 -0.00071839 1.8842e-17)
(1.0008 -0.00079822 -4.341e-17)
(1.0002 -0.00030138 -2.6533e-18)
(1.0051 0.00023786 -2.0209e-17)
(0.9785 0.0015669 3.1649e-18)
(1.0467 0.0095689 -8.4202e-18)
(0.95438 0.0012481 9.7068e-18)
(0.97067 0.05042 2.0536e-18)
(0.99989 8.6395e-06 2.813e-18)
(0.99995 -0.00036175 -9.0578e-18)
(1.0001 -0.00051245 -1.8147e-18)
(1.0003 -0.0008166 2.5125e-18)
(1.0005 -0.00074889 5.9635e-18)
(1.0008 -0.00083566 1.2543e-17)
(1.0001 -0.00031449 4.351e-17)
(1.0057 0.00024243 2.4151e-18)
(0.9772 0.0015371 5.1563e-18)
(1.0467 0.0099717 9.2773e-18)
(0.95997 0.001485 -8.3015e-18)
(0.96992 0.049222 1.5752e-18)
(0.99988 8.8467e-06 -1.613e-18)
(0.99995 -0.00037651 9.0495e-18)
(1.0001 -0.00053337 2.6112e-17)
(1.0003 -0.00085053 -2.5314e-17)
(1.0005 -0.00077964 -9.2762e-18)
(1.0008 -0.00087373 -2.2075e-18)
(1 -0.00032806 -1.4342e-17)
(1.0064 0.0002481 1.8737e-18)
(0.97593 0.001498 -8.9353e-18)
(1.0465 0.01035 -3.411e-18)
(0.96542 0.0017581 -2.345e-19)
(0.96989 0.048124 -1.9253e-18)
(0.99987 9.0387e-06 -1.7336e-18)
(0.99994 -0.00039136 5.4166e-18)
(1.0001 -0.00055445 -6.3158e-19)
(1.0003 -0.00088476 8.3941e-18)
(1.0005 -0.00081065 -1.7115e-17)
(1.0009 -0.00091243 2.4976e-17)
(0.99996 -0.00034219 7.1523e-18)
(1.007 0.00025502 -1.7876e-17)
(0.97472 0.0014498 -1.1455e-17)
(1.046 0.010702 -1.3498e-17)
(0.97069 0.0020617 1.316e-18)
(0.97047 0.047121 -3.5236e-18)
(0.99986 9.2149e-06 6.0244e-19)
(0.99993 -0.00040632 -1.2936e-17)
(1.0001 -0.00057569 1.6169e-17)
(1.0003 -0.00091927 2.3217e-17)
(1.0005 -0.00084191 3.3547e-17)
(1.0009 -0.0009518 -1.8343e-17)
(0.99987 -0.00035694 -1.7783e-17)
(1.0077 0.00026337 3.6274e-18)
(0.97356 0.0013926 1.0733e-17)
(1.0453 0.011028 1.0565e-17)
(0.97574 0.0023903 6.1241e-18)
(0.97159 0.046204 3.502e-18)
(0.99985 9.3743e-06 1.1545e-18)
(0.99993 -0.00042137 1.0287e-17)
(1.0001 -0.0005971 -3.7148e-17)
(1.0003 -0.00095409 -3.3639e-18)
(1.0005 -0.00087346 -2.7867e-17)
(1.001 -0.00099184 -1.1555e-17)
(0.99976 -0.00037239 2.5072e-20)
(1.0085 0.00027328 -4.1493e-18)
(0.97247 0.0013268 -2.1142e-17)
(1.0444 0.011328 -1.6865e-17)
(0.98052 0.0027384 -8.3621e-18)
(0.97313 0.045368 -1.7237e-18)
(0.99984 9.5161e-06 -7.483e-19)
(0.99992 -0.00043654 -6.6899e-18)
(1.0001 -0.00061867 2.9229e-17)
(1.0003 -0.00098922 -3.2099e-17)
(1.0005 -0.00090528 -2.0956e-18)
(1.0011 -0.0010326 2.4606e-17)
(0.99964 -0.00038862 7.115e-19)
(1.0092 0.00028489 3.9569e-18)
(0.97146 0.0012526 1.8508e-17)
(1.0432 0.0116 2.1922e-17)
(0.98503 0.0031009 4.7845e-18)
(0.97503 0.044604 -9.6123e-19)
(0.99982 9.6396e-06 -1.948e-18)
(0.99991 -0.00045181 -2.4671e-18)
(1.0001 -0.00064042 -1.2957e-17)
(1.0003 -0.0010247 1.5991e-17)
(1.0006 -0.0009374 3.0626e-17)
(1.0011 -0.001074 -1.0875e-17)
(0.9995 -0.00040573 2.2145e-17)
(1.01 0.00029832 2.966e-18)
(0.97053 0.0011704 -2.0958e-18)
(1.0419 0.011846 9.9146e-18)
(0.98922 0.0034727 -5.3441e-18)
(0.9772 0.043905 -6.6841e-19)
(0.99981 9.7439e-06 4.8719e-19)
(0.9999 -0.00046719 -6.5243e-18)
(1.0001 -0.00066234 4.8504e-18)
(1.0004 -0.0010604 -1.6298e-17)
(1.0006 -0.00096982 -3.2393e-17)
(1.0012 -0.0011161 6.8537e-18)
(0.99935 -0.00042379 -3.1946e-17)
(1.0109 0.00031367 -6.781e-18)
(0.96969 0.0010805 6.7994e-18)
(1.0404 0.012066 -3.1121e-17)
(0.9931 0.0038495 3.6603e-18)
(0.97956 0.043263 1.8925e-18)
(0.9998 9.828e-06 8.5553e-19)
(0.99989 -0.00048268 1.7676e-17)
(1 -0.00068445 8.1213e-18)
(1.0004 -0.0010965 6.6385e-18)
(1.0006 -0.0010026 2.5902e-17)
(1.0012 -0.001159 2.0438e-18)
(0.99919 -0.00044291 2.2058e-17)
(1.0117 0.00033101 4.8638e-18)
(0.96895 0.00098348 -2.0662e-17)
(1.0387 0.012259 1.0714e-17)
(0.99664 0.0042268 2.4749e-18)
(0.98206 0.042672 1.9599e-18)
(0.99979 9.8913e-06 -2.9873e-18)
(0.99988 -0.00049829 -5.8185e-18)
(1 -0.00070675 -7.1354e-18)
(1.0004 -0.0011329 1.0902e-17)
(1.0006 -0.0010356 1.2513e-17)
(1.0013 -0.0012025 -4.0695e-18)
(0.99901 -0.00046317 -1.8528e-17)
(1.0125 0.00035042 2.2145e-17)
(0.96831 0.00087966 3.8276e-18)
(1.0369 0.012427 -3.2361e-18)
(0.99986 0.0046008 1.0231e-17)
(0.98463 0.042125 -1.3611e-18)
(0.99977 9.9327e-06 6.1382e-18)
(0.99987 -0.00051401 6.9679e-18)
(1 -0.00072924 -7.5847e-18)
(1.0004 -0.0011697 -6.7917e-18)
(1.0006 -0.001069 -1.7956e-17)
(1.0014 -0.0012468 -6.9903e-18)
(0.99881 -0.00048467 9.1347e-18)
(1.0134 0.00037194 -3.5519e-17)
(0.96778 0.0007696 9.3661e-18)
(1.035 0.01257 -3.8249e-18)
(1.0027 0.004968 -1.0833e-17)
(0.98722 0.041615 3.9503e-18)
(0.99976 9.9514e-06 -2.7091e-18)
(0.99986 -0.00052985 -1.2242e-17)
(1 -0.00075193 -7.3507e-18)
(1.0004 -0.0012068 -1.2888e-17)
(1.0006 -0.0011028 -5.4822e-18)
(1.0015 -0.0012919 2.0554e-17)
(0.9986 -0.00050752 -8.9728e-18)
(1.0143 0.00039558 3.9512e-17)
(0.96736 0.0006538 8.83e-18)
(1.033 0.012688 1.1607e-17)
(1.0053 0.0053252 4.5653e-18)
(0.9898 0.041136 -6.4033e-18)
(0.99975 9.9464e-06 -1.4369e-18)
(0.99985 -0.00054582 9.1045e-18)
(1 -0.00077483 1.4564e-17)
(1.0004 -0.0012443 3.4749e-17)
(1.0006 -0.0011369 7.2667e-18)
(1.0016 -0.0013377 -1.4099e-17)
(0.99837 -0.00053181 4.3301e-18)
(1.0151 0.00042137 -4.2507e-17)
(0.96705 0.00053283 -1.0709e-17)
(1.0309 0.012782 -6.4534e-18)
(1.0075 0.0056698 4.4766e-18)
(0.9923 0.040683 6.435e-18)
(0.99973 9.9169e-06 1.0997e-18)
(0.99984 -0.00056191 2.1553e-18)
(1 -0.00079794 -1.4303e-17)
(1.0004 -0.0012822 -5.7881e-18)
(1.0006 -0.0011714 9.2265e-18)
(1.0016 -0.0013842 1.6877e-17)
(0.99813 -0.00055765 1.5055e-17)
(1.016 0.00044928 4.2079e-18)
(0.96686 0.00040727 1.198e-17)
(1.0287 0.012854 -2.9899e-18)
(1.0094 0.0059992 -7.9908e-18)
(0.99472 0.04025 -1.6599e-18)
(0.99972 9.8619e-06 -4.5033e-20)
(0.99983 -0.00057813 2.4563e-18)
(1 -0.00082127 3.1966e-18)
(1.0004 -0.0013204 -7.5143e-18)
(1.0006 -0.0012063 8.564e-20)
(1.0017 -0.0014315 -1.5302e-17)
(0.99787 -0.00058516 -1.0184e-17)
(1.0169 0.0004793 3.1126e-17)
(0.96679 0.00027771 -1.8103e-17)
(1.0265 0.012903 1.1609e-17)
(1.011 0.0063114 4.2193e-18)
(0.99701 0.039834 -4.6811e-18)
(0.9997 9.7803e-06 -3.406e-18)
(0.99981 -0.00059448 -1.152e-17)
(1 -0.00084482 8.1609e-18)
(1.0004 -0.001359 -2.0523e-17)
(1.0007 -0.0012416 -2.3333e-17)
(1.0018 -0.0014796 -2.114e-17)
(0.9976 -0.00061444 -2.0752e-17)
(1.0178 0.00051136 -3.1878e-18)
(0.96684 0.00014477 1.5821e-17)
(1.0243 0.01293 -9.9584e-18)
(1.0123 0.0066047 4.1877e-19)
(0.99917 0.039428 4.4073e-18)
(0.99968 9.6714e-06 6.574e-18)
(0.9998 -0.00061096 1.2039e-17)
(1 -0.00086861 -1.3161e-17)
(1.0004 -0.001398 1.685e-17)
(1.0007 -0.0012773 -2.7357e-18)
(1.0019 -0.0015283 1.3857e-17)
(0.99731 -0.0006456 2.4943e-17)
(1.0186 0.00054542 -2.4143e-17)
(0.96701 9.0741e-06 -8.0216e-18)
(1.0221 0.012937 1.0514e-17)
(1.0134 0.0068775 3.6433e-18)
(1.0012 0.039031 -2.0838e-18)
(0.99967 9.5339e-06 -4.9328e-18)
(0.99979 -0.00062757 -3.5582e-18)
(0.99999 -0.00089263 -2.7516e-18)
(1.0004 -0.0014374 1.928e-17)
(1.0007 -0.0013134 -5.8569e-18)
(1.0021 -0.0015778 -1.7574e-19)
(0.997 -0.00067877 -4.8807e-18)
(1.0195 0.0005814 1.9339e-17)
(0.96729 -0.00012874 -7.6155e-18)
(1.0199 0.012924 -7.2199e-18)
(1.0141 0.0071287 -1.077e-17)
(1.003 0.038638 2.42e-18)
(0.99965 9.367e-06 3.353e-18)
(0.99977 -0.00064433 -4.5116e-18)
(0.99998 -0.00091689 6.2995e-18)
(1.0004 -0.0014772 -2.9253e-17)
(1.0007 -0.00135 3.9681e-17)
(1.0022 -0.0016281 5.7416e-18)
(0.99668 -0.00071406 1.9254e-17)
(1.0203 0.0006192 -1.1966e-17)
(0.96769 -0.00026803 1.009e-19)
(1.0177 0.012893 5.3679e-18)
(1.0147 0.0073574 -2.0922e-18)
(1.0046 0.038247 -9.1071e-19)
(0.99963 9.1696e-06 -9.5921e-19)
(0.99976 -0.00066122 8.8184e-19)
(0.99997 -0.0009414 1.5349e-17)
(1.0004 -0.0015174 7.9751e-18)
(1.0007 -0.0013871 -1.9838e-17)
(1.0023 -0.0016791 -1.1247e-17)
(0.99635 -0.00075161 3.36e-18)
(1.0211 0.00065872 -5.8168e-18)
(0.96821 -0.00040818 1.2742e-17)
(1.0155 0.012843 -3.5241e-18)
(1.015 0.0075629 1.0078e-17)
(1.0061 0.037855 -3.3192e-18)
(0.99961 8.9406e-06 -1.6695e-18)
(0.99974 -0.00067826 -8.5008e-18)
(0.99996 -0.00096617 -4.5636e-18)
(1.0004 -0.0015581 3.2026e-17)
(1.0007 -0.0014246 -1.7673e-17)
(1.0024 -0.0017307 -9.5313e-19)
(0.996 -0.00079153 -5.0269e-17)
(1.0219 0.00069986 5.7184e-18)
(0.96884 -0.00054855 -2.3826e-17)
(1.0134 0.012777 -7.6089e-18)
(1.0152 0.0077448 -1.0073e-17)
(1.0074 0.03746 1.9708e-18)
(0.99959 8.679e-06 -7.2073e-19)
(0.99973 -0.00069545 5.2666e-18)
(0.99995 -0.0009912 -1.8838e-18)
(1.0004 -0.0015991 -1.8648e-17)
(1.0007 -0.0014627 2.5397e-17)
(1.0026 -0.0017831 -2.3425e-18)
(0.99564 -0.00083397 2.6626e-17)
(1.0227 0.00074248 -3.5146e-18)
(0.96957 -0.00068852 1.1568e-17)
(1.0114 0.012694 9.5154e-18)
(1.0151 0.0079028 8.3083e-18)
(1.0085 0.037059 -4.7568e-19)
(0.99958 8.3837e-06 4.0856e-18)
(0.99971 -0.00071279 -3.1511e-18)
(0.99994 -0.0010165 -6.59e-18)
(1.0004 -0.0016407 2.0353e-17)
(1.0007 -0.0015013 1.8637e-18)
(1.0027 -0.0018361 2.9036e-17)
(0.99527 -0.00087905 4.5923e-18)
(1.0234 0.00078646 1.6793e-17)
(0.97041 -0.0008275 4.3399e-18)
(1.0095 0.012596 -3.0787e-18)
(1.0149 0.0080369 1.0802e-18)
(1.0095 0.036652 4.3109e-19)
(0.99956 8.0535e-06 1.1649e-18)
(0.9997 -0.00073028 1.2884e-18)
(0.99993 -0.0010421 -5.9754e-18)
(1.0004 -0.0016826 -4.0533e-17)
(1.0007 -0.0015404 5.6438e-18)
(1.0029 -0.0018898 2.5192e-18)
(0.99489 -0.00092693 -1.9912e-17)
(1.0241 0.00083165 2.3609e-19)
(0.97135 -0.00096492 1.2788e-17)
(1.0076 0.012484 -1.979e-18)
(1.0146 0.0081472 -5.2582e-18)
(1.0103 0.036237 2.5369e-18)
(0.99953 7.6874e-06 -4.9885e-18)
(0.99968 -0.00074793 5.4607e-18)
(0.99992 -0.0010679 9.8518e-19)
(1.0005 -0.001725 2.2508e-17)
(1.0006 -0.0015802 -2.5746e-17)
(1.0031 -0.0019441 -1.1123e-17)
(0.9945 -0.00097774 2.0364e-17)
(1.0248 0.00087791 -1.1374e-17)
(0.97238 -0.0011002 -2.0217e-17)
(1.0059 0.012359 -9.777e-18)
(1.0141 0.0082339 6.6953e-18)
(1.0109 0.035813 8.4385e-19)
(0.99951 7.2841e-06 -5.2783e-19)
(0.99966 -0.00076573 -5.495e-18)
(0.9999 -0.0010941 1.0491e-17)
(1.0005 -0.0017679 9.9804e-18)
(1.0006 -0.0016205 3.1798e-17)
(1.0032 -0.0019989 4.2741e-18)
(0.9941 -0.0010316 1.8084e-17)
(1.0254 0.00092509 2.8834e-17)
(0.9735 -0.0012328 -8.9376e-19)
(1.0043 0.012221 1.7196e-17)
(1.0136 0.0082975 -7.0887e-19)
(1.0114 0.035379 -2.4668e-18)
(0.99949 6.8425e-06 5.1161e-18)
(0.99964 -0.0007837 -8.0001e-18)
(0.99989 -0.0011206 -1.5923e-17)
(1.0005 -0.0018112 -2.6523e-18)
(1.0006 -0.0016615 -3.4511e-17)
(1.0034 -0.0020543 -1.2716e-17)
(0.99369 -0.0010888 -6.2794e-18)
(1.026 0.00097303 2.1514e-19)
(0.97471 -0.0013623 2.631e-17)
(1.0028 0.012071 3.961e-18)
(1.0129 0.0083386 -9.1817e-18)
(1.0117 0.034935 1.4773e-18)
(0.99947 6.3615e-06 -5.7357e-18)
(0.99963 -0.00080183 9.9936e-18)
(0.99988 -0.0011473 8.3351e-18)
(1.0005 -0.001855 -5.2857e-18)
(1.0006 -0.0017031 2.7753e-17)
(1.0036 -0.0021103 1.5215e-17)
(0.99327 -0.0011493 -4.9632e-18)
(1.0266 0.0010216 -2.9056e-17)
(0.97598 -0.0014882 -8.9421e-19)
(1.0014 0.011911 -1.1321e-17)
(1.0123 0.0083577 1.0867e-17)
(1.0119 0.03448 -1.9355e-18)
(0.99945 5.8397e-06 3.4464e-18)
(0.99961 -0.00082014 -1.9123e-18)
(0.99986 -0.0011744 1.1036e-17)
(1.0005 -0.0018993 -2.2239e-17)
(1.0006 -0.0017454 9.0616e-18)
(1.0038 -0.0021667 -5.4652e-18)
(0.99285 -0.0012134 -1.069e-17)
(1.0271 0.0010705 -2.3323e-18)
(0.97733 -0.00161 -3.1754e-17)
(1.0001 0.011742 7.4669e-18)
(1.0115 0.0083556 -9.947e-18)
(1.0121 0.034015 6.4482e-19)
(0.99942 5.2759e-06 2.7247e-19)
(0.99959 -0.00083862 -6.0157e-18)
(0.99985 -0.0012018 6.2667e-18)
(1.0005 -0.0019441 2.9271e-17)
(1.0006 -0.0017884 -2.1583e-17)
(1.004 -0.0022235 1.7585e-17)
(0.99242 -0.0012812 -6.1798e-18)
(1.0275 0.0011198 5.4007e-18)
(0.97874 -0.0017275 3.7726e-17)
(0.999 0.011563 -1.3861e-17)
(1.0108 0.0083331 1.5199e-17)
(1.0121 0.033539 1.8233e-18)
(0.9994 4.6689e-06 4.8904e-19)
(0.99957 -0.00085727 -1.245e-18)
(0.99983 -0.0012296 -9.0159e-18)
(1.0005 -0.0019894 -4.4064e-18)
(1.0005 -0.0018322 1.881e-17)
(1.0042 -0.0022806 1.4136e-19)
(0.992 -0.001353 -1.2145e-17)
(1.0279 0.0011691 -1.2894e-17)
(0.9802 -0.0018401 -1.5793e-17)
(0.99801 0.011377 -1.3074e-18)
(1.01 0.0082912 2.7787e-18)
(1.012 0.033052 1.8929e-19)
(0.99937 4.0173e-06 -7.8701e-19)
(0.99954 -0.0008761 1.4816e-17)
(0.99981 -0.0012577 -6.0132e-18)
(1.0005 -0.0020352 -2.4903e-17)
(1.0005 -0.0018767 8.6707e-18)
(1.0044 -0.0023381 -4.4804e-17)
(0.99157 -0.0014288 6.0594e-18)
(1.0282 0.0012183 8.1184e-18)
(0.98171 -0.0019476 7.3349e-19)
(0.99717 0.011184 1.4073e-17)
(1.0093 0.0082309 -9.3268e-19)
(1.0119 0.032556 -5.0904e-18)
(0.99935 3.3199e-06 -2.0778e-19)
(0.99952 -0.00089511 -2.9075e-19)
(0.9998 -0.0012861 8.0946e-18)
(1.0005 -0.0020815 1.5375e-17)
(1.0005 -0.0019221 -3.4454e-17)
(1.0047 -0.0023958 1.9348e-18)
(0.99114 -0.0015088 1.085e-17)
(1.0285 0.0012672 1.2715e-17)
(0.98325 -0.0020498 -9.9895e-18)
(0.99646 0.010986 -1.37e-17)
(1.0085 0.0081531 -1.5064e-17)
(1.0118 0.032049 5.3721e-18)
(0.99932 2.5753e-06 -1.3595e-18)
(0.9995 -0.00091432 4.1403e-19)
(0.99978 -0.0013149 -3.9029e-18)
(1.0005 -0.0021283 -1.0266e-17)
(1.0005 -0.0019683 1.9099e-17)
(1.0049 -0.0024537 2.4051e-17)
(0.99071 -0.0015933 3.1635e-18)
(1.0287 0.0013157 6.4438e-18)
(0.98483 -0.0021464 1.5932e-17)
(0.99589 0.010782 2.3066e-18)
(1.0078 0.008059 1.1133e-17)
(1.0116 0.031533 -3.2599e-18)
(0.99929 1.7821e-06 2.5022e-18)
(0.99948 -0.00093371 7.6332e-19)
(0.99976 -0.0013441 -5.5774e-18)
(1.0005 -0.0021757 1.5164e-18)
(1.0004 -0.0020155 -1.0355e-17)
(1.0052 -0.0025117 -5.7691e-18)
(0.99029 -0.0016824 -1.1696e-18)
(1.0289 0.0013635 -2.9097e-17)
(0.98643 -0.0022373 3.1276e-18)
(0.99546 0.010573 -4.6725e-18)
(1.0072 0.0079497 -4.5281e-18)
(1.0113 0.031008 -3.9251e-18)
(0.99926 9.3897e-07 -5.1065e-18)
(0.99945 -0.00095329 9.9722e-19)
(0.99974 -0.0013736 2.9584e-18)
(1.0005 -0.0022235 -1.9057e-17)
(1.0004 -0.0020636 -1.1804e-17)
(1.0054 -0.0025697 -2.6786e-17)
(0.98987 -0.0017762 5.6412e-18)
(1.029 0.0014104 1.1881e-17)
(0.98804 -0.0023222 -3.3542e-17)
(0.99515 0.010362 2.1547e-17)
(1.0066 0.0078263 -4.8934e-18)
(1.0111 0.030475 2.5325e-18)
(0.99924 4.4392e-08 4.6874e-18)
(0.99943 -0.00097308 2.2317e-18)
(0.99972 -0.0014036 1.1376e-18)
(1.0005 -0.0022719 6.0439e-18)
(1.0003 -0.0021127 -2.6068e-18)
(1.0057 -0.0026277 5.1918e-17)
(0.98947 -0.0018751 2.0251e-17)
(1.029 0.0014562 -1.8482e-17)
(0.98966 -0.0024012 3.2283e-17)
(0.99498 0.010148 -8.0391e-18)
(1.006 0.00769 -3.2251e-18)
(1.0108 0.029935 -1.2606e-18)
(0.99921 -9.0305e-07 1.1497e-18)
(0.9994 -0.00099306 -1.4132e-17)
(0.9997 -0.0014339 2.2769e-18)
(1.0005 -0.0023209 2.7143e-17)
(1.0003 -0.0021628 2.0176e-17)
(1.006 -0.0026855 -8.3734e-19)
(0.98907 -0.001979 -2.8058e-17)
(1.029 0.0015008 5.5949e-18)
(0.99129 -0.0024742 -7.2809e-18)
(0.99493 0.0099322 -1.1123e-17)
(1.0055 0.007542 8.206e-18)
(1.0105 0.029389 1.1771e-18)
(0.99918 -1.9048e-06 -4.5473e-18)
(0.99938 -0.0010133 -4.7112e-18)
(0.99968 -0.0014646 -1.2334e-17)
(1.0005 -0.0023704 -2.2764e-17)
(1.0002 -0.002214 -2.0301e-17)
(1.0062 -0.0027431 -2.3595e-17)
(0.98868 -0.0020882 5.1799e-18)
(1.029 0.0015437 4.3511e-17)
(0.9929 -0.0025411 3.1731e-18)
(0.99499 0.0097157 -9.7031e-19)
(1.0051 0.0073836 -2.8965e-18)
(1.0103 0.028837 -3.1561e-18)
(0.99915 -2.9625e-06 3.3742e-18)
(0.99935 -0.0010336 4.3765e-18)
(0.99966 -0.0014958 1.9006e-17)
(1.0005 -0.0024204 1.5766e-17)
(1.0002 -0.0022664 1.975e-17)
(1.0065 -0.0028004 -8.7693e-19)
(0.9883 -0.0022028 -2.8858e-17)
(1.0288 0.0015849 -2.3519e-17)
(0.9945 -0.0026021 7.876e-18)
(0.99517 0.0094991 3.8497e-18)
(1.0048 0.0072158 6.5271e-18)
(1.01 0.028281 2.4409e-18)
(0.99911 -4.0775e-06 -2.3829e-18)
(0.99932 -0.0010543 6.8654e-18)
(0.99963 -0.0015274 -1.2575e-17)
(1.0005 -0.002471 2.2819e-18)
(1.0001 -0.00232 9.1821e-18)
(1.0068 -0.0028572 -2.3067e-18)
(0.98794 -0.0023231 6.4811e-18)
(1.0287 0.0016241 6.5317e-18)
(0.99609 -0.0026572 2.5924e-18)
(0.99545 0.0092832 9.5128e-18)
(1.0045 0.0070398 -7.8491e-18)
(1.0098 0.027721 4.9376e-19)
(0.99908 -5.2516e-06 3.5976e-18)
(0.9993 -0.0010751 4.2548e-19)
(0.99961 -0.0015595 -5.8858e-18)
(1.0005 -0.0025221 9.084e-19)
(1.0001 -0.0023748 -1.5091e-18)
(1.0071 -0.0029135 -2.2788e-17)
(0.9876 -0.002449 1.8088e-17)
(1.0284 0.0016609 2.3185e-17)
(0.99764 -0.0027065 -1.2906e-17)
(0.99584 0.0090686 -1.3235e-17)
(1.0043 0.006857 -2.2929e-18)
(1.0097 0.027158 4.1913e-18)
(0.99905 -6.4862e-06 -2.6134e-18)
(0.99927 -0.0010961 -3.2768e-19)
(0.99958 -0.001592 7.3181e-18)
(1.0005 -0.0025738 -1.7447e-17)
(0.99998 -0.002431 -1.364e-17)
(1.0074 -0.0029693 2.8771e-17)
(0.98727 -0.0025808 -2.7657e-18)
(1.0281 0.0016952 -2.4548e-17)
(0.99916 -0.0027503 3.2878e-18)
(0.99631 0.008856 1.2459e-17)
(1.0042 0.0066683 7.7728e-18)
(1.0095 0.026594 -1.5111e-18)
(0.99901 -7.7831e-06 2.5967e-19)
(0.99924 -0.0011174 2.4001e-18)
(0.99956 -0.0016249 3.9984e-18)
(1.0005 -0.0026261 9.0193e-18)
(0.99991 -0.0024885 2.6734e-17)
(1.0077 -0.0030243 6.7085e-18)
(0.98697 -0.0027185 -2.4077e-17)
(1.0278 0.0017265 2.3011e-18)
(1.0006 -0.0027887 8.4698e-18)
(0.99686 0.008646 -1.1224e-17)
(1.0042 0.0064749 -5.2542e-18)
(1.0094 0.026028 -1.7469e-18)
(0.99898 -9.1438e-06 7.3728e-19)
(0.99921 -0.0011389 -4.1755e-19)
(0.99953 -0.0016584 -1.055e-17)
(1.0005 -0.002679 -1.9402e-19)
(0.99984 -0.0025475 -5.2855e-17)
(1.0081 -0.0030785 8.2716e-18)
(0.98668 -0.0028623 2.3652e-17)
(1.0274 0.0017547 -6.6107e-18)
(1.0021 -0.002822 -8.8697e-18)
(0.99749 0.0084392 1.8635e-17)
(1.0042 0.0062779 6.2842e-18)
(1.0094 0.025463 4.5253e-18)
(0.99894 -1.057e-05 7.9194e-19)
(0.99918 -0.0011607 -8.6633e-19)
(0.9995 -0.0016923 1.9079e-17)
(1.0006 -0.0027324 4.1599e-18)
(0.99975 -0.0026081 4.6837e-17)
(1.0084 -0.0031317 -2.9151e-17)
(0.98642 -0.0030122 -7.9183e-18)
(1.0269 0.0017793 6.223e-18)
(1.0035 -0.0028506 3.0562e-18)
(0.99819 0.008236 -1.0485e-17)
(1.0043 0.0060783 -1.0181e-18)
(1.0094 0.024899 -3.3365e-18)
(0.99891 -1.2064e-05 -3.095e-18)
(0.99914 -0.0011826 1.4544e-18)
(0.99948 -0.0017268 -1.1214e-17)
(1.0006 -0.0027864 5.47e-18)
(0.99967 -0.0026702 -1.7797e-17)
(1.0087 -0.003184 3.9533e-18)
(0.98618 -0.0031682 3.1703e-17)
(1.0264 0.0018001 -2.3294e-17)
(1.0048 -0.0028747 -1.1234e-17)
(0.99894 0.0080369 -1.0369e-17)
(1.0045 0.0058771 -4.9951e-18)
(1.0094 0.024337 -9.1564e-19)
(0.99887 -1.3627e-05 3.8551e-18)
(0.99911 -0.0012049 -3.4543e-18)
(0.99945 -0.0017617 -1.0882e-17)
(1.0006 -0.0028409 -8.7227e-18)
(0.99958 -0.002734 -2.9095e-17)
(1.009 -0.0032351 -1.8336e-17)
(0.98597 -0.0033304 -1.9438e-17)
(1.0259 0.0018167 2.166e-17)
(1.0061 -0.0028948 1.0891e-17)
(0.99975 0.0078423 1.5702e-17)
(1.0048 0.0056752 -1.9539e-18)
(1.0095 0.023777 4.418e-18)
(0.99883 -1.526e-05 -6.1957e-18)
(0.99908 -0.0012273 5.5966e-18)
(0.99941 -0.0017972 2.6643e-17)
(1.0006 -0.002896 -2.0574e-18)
(0.99948 -0.0027996 3.219e-17)
(1.0093 -0.003285 1.3825e-18)
(0.98579 -0.0034988 -1.8614e-17)
(1.0253 0.0018287 8.4794e-18)
(1.0073 -0.0029113 -3.9275e-18)
(1.0006 0.0076525 -3.2879e-18)
(1.0051 0.0054735 6.34e-18)
(1.0096 0.023221 -2.9877e-18)
(0.99879 -1.6967e-05 5.0772e-18)
(0.99904 -0.0012501 -7.6059e-18)
(0.99938 -0.0018333 -3.1063e-17)
(1.0006 -0.0029517 1.3459e-17)
(0.99938 -0.002867 -2.2932e-17)
(1.0097 -0.0033337 2.5348e-17)
(0.98563 -0.0036733 6.0679e-18)
(1.0247 0.0018358 -8.0712e-18)
(1.0085 -0.0029247 -1.8854e-18)
(1.0015 0.0074678 -8.2322e-18)
(1.0055 0.0052728 -1.0333e-17)
(1.0098 0.02267 4.1257e-18)
(0.99875 -1.8748e-05 -3.7396e-18)
(0.99901 -0.001273 2.5291e-18)
(0.99935 -0.0018699 1.8874e-17)
(1.0006 -0.003008 -1.7742e-17)
(0.99928 -0.0029363 3.6897e-17)
(1.01 -0.0033809 -1.9674e-17)
(0.98551 -0.0038538 3.5369e-18)
(1.024 0.0018376 -1.276e-17)
(1.0095 -0.0029354 6.1526e-18)
(1.0024 0.0072883 -1.151e-18)
(1.006 0.0050738 4.4235e-18)
(1.01 0.022124 -1.8356e-18)
(0.99871 -2.0605e-05 4.5864e-18)
(0.99897 -0.0012963 1.9689e-18)
(0.99932 -0.0019071 -1.2583e-17)
(1.0006 -0.0030649 -3.6078e-19)
(0.99917 -0.0030076 -1.6297e-18)
(1.0103 -0.0034266 4.7582e-18)
(0.98541 -0.0040404 3.3575e-17)
(1.0233 0.0018338 8.7283e-18)
(1.0106 -0.002944 -1.8237e-17)
(1.0033 0.0071142 -5.9679e-18)
(1.0065 0.0048771 -4.1566e-18)
(1.0103 0.021583 1.9255e-18)
(0.99867 -2.2541e-05 -5.2567e-18)
(0.99893 -0.0013198 -7.2959e-18)
(0.99928 -0.0019448 5.279e-18)
(1.0006 -0.0031223 1.5351e-17)