/*--------------------------------*- C++ -*----------------------------------*\
  =========                 |
  \\      /  F ield         | OpenFOAM: The Open Source CFD Toolbox
   \\    /   O peration     | Website:  https://openfoam.org
    \\  /    A nd           | Version:  6.0
     \\/     M anipulation  |
\*---------------------------------------------------------------------------*/
FoamFile
{
    version     2.0;
    format      ascii;
    class       volVectorField;
    location    "4";
    object      U;
}
// * * * * * * * * * * * * * * * * * * * * * * * * * * * * * * * * * * * * * //

dimensions      [0 1 -1 0 0 0 0];

internalField   nonuniform List<vector> 
14500
(
(1 -2.1858e-07 -6.9974e-19)
(1 -3.7095e-06 4.6906e-19)
(1 -6.2983e-06 -1.9951e-18)
(1 -8.6004e-06 -1.3582e-18)
(1 -7.8439e-06 2.5202e-18)
(1 -6.0071e-06 4.6071e-18)
(1 5.4397e-07 3.9033e-18)
(0.99997 1.7059e-05 -6.1955e-19)
(0.99993 3.5452e-05 2.2804e-18)
(0.99969 0.00010241 4.8457e-19)
(0.9959 0.00068684 4.4142e-18)
(1.0238 0.010409 1.201e-18)
(1 -6.7404e-07 3.2267e-19)
(1 -1.1155e-05 -1.0627e-18)
(1 -1.8958e-05 7.1362e-19)
(1 -2.5977e-05 -4.0347e-20)
(1 -2.3499e-05 -5.1002e-20)
(1 -1.844e-05 -4.2411e-18)
(1 1.9856e-06 -5.2145e-18)
(0.99992 5.1561e-05 -2.7735e-18)
(0.99978 0.00010937 -1.8032e-18)
(0.99958 0.00025896 -1.9219e-19)
(0.98532 0.0021435 -1.7028e-18)
(1.0697 0.02891 -6.009e-19)
(1 -1.1548e-06 -4.1677e-19)
(1 -1.8641e-05 2.1113e-18)
(1 -3.1708e-05 3.7118e-19)
(1 -4.3553e-05 1.1797e-18)
(1 -3.9139e-05 -4.4101e-19)
(1 -3.1197e-05 3.3973e-18)
(1 4.0008e-06 -7.3398e-19)
(0.99988 8.6699e-05 6.3004e-19)
(0.99961 0.00018927 -2.1876e-18)
(1.0001 0.00041714 2.921e-18)
(0.97294 0.0033415 -8.8804e-19)
(1.107 0.041669 2.1062e-19)
(1 -1.6612e-06 1.0895e-18)
(1 -2.6166e-05 -2.0469e-18)
(1 -4.4553e-05 -1.7595e-18)
(1 -6.1289e-05 -8.2765e-20)
(1 -5.4817e-05 6.8079e-19)
(1 -4.4162e-05 -9.4303e-20)
(1 6.3924e-06 7.232e-18)
(0.99984 0.00012195 1.135e-18)
(0.99941 0.00027552 2.5868e-18)
(1.0012 0.00058431 -1.0586e-18)
(0.95956 0.0042485 4.315e-18)
(1.1325 0.050368 -9.5706e-19)
(1 -2.1892e-06 -7.6556e-19)
(1 -3.3712e-05 1.7691e-18)
(1 -5.7468e-05 1.4978e-18)
(1 -7.9122e-05 1.5098e-18)
(1 -7.0555e-05 3.3381e-19)
(1.0001 -5.7267e-05 2.4969e-18)
(1 8.8867e-06 -3.2295e-18)
(0.99981 0.00015664 2.3046e-19)
(0.99916 0.00036687 -1.586e-18)
(1.0029 0.00076392 -2.5288e-19)
(0.94601 0.0049005 -1.1242e-18)
(1.1464 0.056139 2.6623e-19)
(1 -2.7374e-06 7.7476e-19)
(1 -4.1273e-05 -7.3339e-19)
(1 -7.0444e-05 4.5744e-19)
(1 -9.7033e-05 -2.9909e-18)
(1.0001 -8.6354e-05 -9.7813e-21)
(1.0001 -7.0519e-05 -4.9431e-18)
(1 1.1414e-05 1.239e-19)
(0.99979 0.00019052 -1.8502e-18)
(0.99883 0.00046213 6.0403e-19)
(1.0051 0.00096527 -2.54e-18)
(0.933 0.0053361 -2.6875e-18)
(1.1503 0.059693 2.5558e-19)
(1 -3.3066e-06 -1.2825e-19)
(1 -4.8851e-05 -8.7713e-19)
(1 -8.3483e-05 -3.7176e-19)
(1.0001 -0.00011503 2.2575e-18)
(1.0001 -0.00010221 -3.0918e-18)
(1.0001 -8.3946e-05 1.8913e-18)
(1 1.4002e-05 2.1598e-18)
(0.99978 0.00022351 6.5098e-19)
(0.99842 0.00056024 1.3501e-18)
(1.0079 0.0011978 1.3672e-18)
(0.92113 0.0055854 1.1536e-18)
(1.1461 0.06159 4.0694e-19)
(0.99999 -3.8982e-06 -2.6471e-19)
(1 -5.6448e-05 -1.7255e-19)
(1 -9.6593e-05 -3.2026e-18)
(1.0001 -0.00013313 -1.078e-18)
(1.0001 -0.00011814 8.6538e-19)
(1.0001 -9.757e-05 3.0994e-18)
(1 1.6681e-05 1.3746e-18)
(0.99978 0.00025552 5.8105e-19)
(0.99792 0.00066018 -8.8233e-19)
(1.011 0.0014676 1.912e-18)
(0.91083 0.005677 9.2807e-19)
(1.1356 0.062248 -1.2881e-18)
(0.99999 -4.5132e-06 -8.2175e-19)
(1 -6.4066e-05 7.4183e-19)
(1 -0.00010978 5.3849e-18)
(1.0001 -0.00015133 -1.2929e-18)
(1.0001 -0.00013414 3.2406e-18)
(1.0001 -0.00011141 -6.1193e-18)
(1 1.9459e-05 -4.5793e-18)
(0.9998 0.00028648 1.1289e-18)
(0.9973 0.00076091 -6.6247e-19)
(1.0145 0.0017768 -1.0551e-18)
(0.9024 0.0056406 -1.7185e-18)
(1.1207 0.061988 1.6804e-18)
(0.99999 -5.1525e-06 5.414e-19)
(1 -7.1707e-05 2.7923e-19)
(1 -0.00012304 -4.5613e-18)
(1.0001 -0.00016964 1.8401e-18)
(1.0001 -0.00015022 -1.4131e-18)
(1.0001 -0.00012547 2.6098e-18)
(1 2.2338e-05 1.6272e-18)
(0.99984 0.00031633 2.8527e-19)
(0.99657 0.0008614 6.2785e-20)
(1.0182 0.0021248 1.6601e-19)
(0.89599 0.0055061 5.4482e-19)
(1.103 0.061069 -9.0329e-20)
(0.99999 -5.817e-06 -2.9725e-19)
(1 -7.9371e-05 -9.1576e-19)
(1 -0.00013638 1.1181e-18)
(1.0001 -0.00018806 -3.2466e-19)
(1.0001 -0.00016638 2.1813e-19)
(1.0001 -0.00013977 -2.8601e-18)
(1.0001 2.5318e-05 -3.7476e-18)
(0.99991 0.000345 -3.6243e-18)
(0.99572 0.00096073 1.8515e-18)
(1.022 0.0025087 2.1536e-19)
(0.89165 0.0053029 -1.3822e-18)
(1.0838 0.059698 -7.1862e-19)
(0.99999 -6.5073e-06 4.1029e-19)
(1 -8.7059e-05 3.459e-19)
(1 -0.00014981 5.3886e-19)
(1.0001 -0.00020659 -2.5873e-19)
(1.0001 -0.00018263 -6.5386e-19)
(1.0002 -0.00015433 1.0818e-18)
(1.0001 2.8404e-05 2.1693e-18)
(1 0.00037248 2.2389e-18)
(0.99476 0.0010581 1.1891e-18)
(1.0259 0.0029239 -2.7298e-18)
(0.88933 0.0050585 1.4978e-20)
(1.0643 0.058041 -8.2541e-19)
(0.99998 -7.2244e-06 -4.1022e-19)
(1 -9.4771e-05 6.8021e-19)
(1 -0.00016333 9.7698e-19)
(1.0001 -0.00022525 6.7561e-19)
(1.0001 -0.00019897 -6.0644e-19)
(1.0002 -0.00016917 5.3179e-19)
(1.0001 3.1595e-05 4.9464e-19)
(1.0001 0.00039875 -1.9992e-19)
(0.99367 0.0011528 -1.922e-18)
(1.0297 0.0033647 2.5293e-18)
(0.88891 0.0047975 1.3234e-20)
(1.0452 0.056222 1.7961e-19)
(0.99998 -7.9691e-06 6.2381e-19)
(1 -0.00010251 -5.3096e-19)
(1 -0.00017693 8.5527e-20)
(1.0001 -0.00024402 -5.6357e-19)
(1.0002 -0.00021542 1.3773e-18)
(1.0002 -0.0001843 6.488e-19)
(1.0001 3.4892e-05 1.99e-18)
(1.0003 0.00042383 -7.4233e-19)
(0.99247 0.0012442 -2.3432e-20)
(1.0335 0.0038247 6.1888e-19)
(0.89023 0.0045415 2.0929e-18)
(1.0273 0.054338 1.146e-19)
(0.99998 -8.7424e-06 1.5045e-19)
(1 -0.00011028 1.1784e-18)
(1 -0.00019063 1.6337e-18)
(1.0001 -0.00026293 -5.6188e-19)
(1.0002 -0.00023198 9.9721e-19)
(1.0002 -0.00019973 -3.0288e-19)
(1.0001 3.8293e-05 -3.4852e-18)
(1.0005 0.00044776 2.3495e-18)
(0.99116 0.0013319 -2.1653e-18)
(1.0371 0.0042973 -3.5734e-18)
(0.89309 0.004308 -4.5983e-19)
(1.011 0.052459 1.0551e-19)
(0.99997 -9.5451e-06 -3.8384e-19)
(1 -0.00011807 -1.2532e-18)
(1 -0.00020443 -3.9212e-18)
(1.0001 -0.00028197 9.4669e-19)
(1.0002 -0.00024865 -1.5133e-18)
(1.0002 -0.00021549 9.7102e-19)
(1.0001 4.1793e-05 -3.2592e-19)
(1.0007 0.00047058 -1.4143e-18)
(0.98974 0.0014154 4.7621e-19)
(1.0404 0.0047762 2.1328e-18)
(0.89728 0.0041108 -9.6378e-19)
(0.99656 0.050637 1.4341e-18)
(0.99997 -1.0378e-05 4.0387e-20)
(1 -0.00012589 9.3729e-19)
(1 -0.00021833 2.7072e-18)
(1.0001 -0.00030115 -2.1319e-19)
(1.0002 -0.00026544 -1.5033e-18)
(1.0002 -0.00023159 -1.8095e-18)
(1.0001 4.5385e-05 1.2455e-18)
(1.0009 0.00049236 8.1088e-19)
(0.98824 0.0014943 2.7465e-18)
(1.0435 0.0052554 -2.9798e-19)
(0.90257 0.0039597 2.3923e-19)
(0.9842 0.048908 -5.7244e-19)
(0.99997 -1.1242e-05 -2.2659e-19)
(1 -0.00013375 -1.1357e-18)
(1.0001 -0.00023233 -1.2216e-18)
(1.0001 -0.00032047 7.1245e-19)
(1.0002 -0.00028236 -8.4424e-19)
(1.0003 -0.00024805 -1.4513e-18)
(1.0001 4.9058e-05 1.2106e-18)
(1.0013 0.00051318 -5.5021e-19)
(0.98665 0.0015685 -3.3966e-18)
(1.0462 0.0057294 -1.6674e-18)
(0.90877 0.0038612 1.0381e-18)
(0.97394 0.047296 -6.1733e-19)
(0.99996 -1.2139e-05 -3.2445e-19)
(0.99999 -0.00014164 -4.2923e-19)
(1.0001 -0.00024644 -9.0524e-20)
(1.0001 -0.00033993 -3.1197e-18)
(1.0002 -0.00029941 7.0845e-19)
(1.0003 -0.00026489 6.3205e-19)
(1 5.2798e-05 -2.3001e-18)
(1.0016 0.00053314 -1.8777e-18)
(0.98499 0.0016375 4.9783e-19)
(1.0486 0.0061936 -1.2307e-19)
(0.91566 0.0038185 -1.199e-18)
(0.96576 0.045813 1.1705e-19)
(0.99996 -1.3069e-05 4.2202e-19)
(0.99999 -0.00014955 1.9677e-18)
(1.0001 -0.00026067 2.3311e-18)
(1.0002 -0.00035955 2.9386e-19)
(1.0002 -0.0003166 1.9582e-18)
(1.0003 -0.00028213 1.1075e-18)
(1 5.6589e-05 3.3213e-19)
(1.002 0.00055235 2.055e-18)
(0.98328 0.0017014 2.4663e-18)
(1.0507 0.0066438 1.9894e-18)
(0.92305 0.0038323 8.9391e-19)
(0.95957 0.044467 1.3809e-19)
(0.99995 -1.4032e-05 -2.0115e-19)
(0.99999 -0.00015751 -4.7213e-19)
(1.0001 -0.00027501 -2.4835e-18)
(1.0002 -0.00037932 -2.781e-19)
(1.0002 -0.00033394 -1.484e-18)
(1.0003 -0.00029978 -5.991e-19)
(1 6.041e-05 -2.1285e-19)
(1.0025 0.00057093 -1.8578e-18)
(0.98152 0.0017597 -2.356e-18)
(1.0523 0.0070766 1.0176e-18)
(0.93078 0.0039011 6.0774e-20)
(0.95523 0.043256 7.891e-20)
(0.99995 -1.5031e-05 5.3319e-19)
(0.99999 -0.0001655 -6.1682e-19)
(1.0001 -0.00028947 -2.3293e-18)
(1.0002 -0.00039925 5.2883e-18)
(1.0002 -0.00035143 2.1527e-18)
(1.0004 -0.00031786 -1.4659e-18)
(0.99996 6.4239e-05 2.8636e-18)
(1.003 0.00058903 2.5104e-18)
(0.97973 0.0018124 3.8212e-18)
(1.0536 0.0074895 -3.7265e-18)
(0.93868 0.0040217 -1.6408e-18)
(0.95257 0.042178 2.0624e-20)
(0.99994 -1.6066e-05 -3.9028e-19)
(0.99998 -0.00017352 -1.2377e-19)
(1.0001 -0.00030406 3.9766e-18)
(1.0002 -0.00041935 -3.9976e-18)
(1.0003 -0.00036909 -2.0726e-19)
(1.0004 -0.0003364 4.8572e-18)
(0.99992 6.8047e-05 8.8708e-19)
(1.0035 0.00060677 -3.8794e-19)
(0.97794 0.0018593 -2.3688e-18)
(1.0545 0.0078803 4.389e-18)
(0.94661 0.0041898 -6.9393e-19)
(0.95141 0.041226 -3.3017e-20)
(0.99994 -1.7137e-05 -1.9896e-19)
(0.99998 -0.00018159 -2.4663e-19)
(1.0001 -0.00031878 2.0706e-19)
(1.0002 -0.00043962 4.1587e-18)
(1.0003 -0.00038691 -1.1683e-18)
(1.0004 -0.0003554 -3.5899e-18)
(0.99986 7.1804e-05 -2.2622e-18)
(1.0041 0.00062431 -4.1758e-19)
(0.97614 0.0019002 7.4834e-19)
(1.0549 0.0082475 -3.6985e-18)
(0.95447 0.0044004 1.1629e-18)
(0.95155 0.04039 3.5547e-19)
(0.99993 -1.8247e-05 3.2879e-19)
(0.99998 -0.00018969 1.7166e-18)
(1.0001 -0.00033363 -1.5272e-18)
(1.0002 -0.00046006 -4.3549e-19)
(1.0003 -0.00040491 -2.2419e-18)
(1.0004 -0.00037489 3.9053e-18)
(0.99979 7.5478e-05 -1.9853e-18)
(1.0047 0.00064179 1.7296e-18)
(0.97436 0.0019351 -2.3065e-19)
(1.055 0.0085902 3.4651e-18)
(0.96214 0.0046476 -1.133e-18)
(0.9528 0.039661 -5.9281e-19)
(0.99993 -1.9396e-05 -6.3061e-20)
(0.99997 -0.00019783 -9.8726e-19)
(1.0001 -0.00034862 -2.1384e-18)
(1.0002 -0.00048068 -1.1932e-18)
(1.0003 -0.00042309 2.1746e-18)
(1.0005 -0.00039488 -4.9797e-18)
(0.99971 7.9032e-05 -3.0597e-19)
(1.0054 0.00065936 -2.3369e-18)
(0.97262 0.0019639 3.7176e-19)
(1.0547 0.0089077 -9.9921e-19)
(0.96954 0.0049258 1.2059e-18)
(0.95498 0.039027 2.5095e-19)
(0.99992 -2.0584e-05 3.3035e-19)
(0.99997 -0.00020602 -1.0575e-18)
(1.0001 -0.00036375 -2.1124e-19)
(1.0002 -0.00050149 2.8987e-19)
(1.0003 -0.00044147 6.8819e-19)
(1.0005 -0.00041539 1.4389e-18)
(0.99962 8.2428e-05 5.0212e-18)
(1.0062 0.00067715 2.7913e-19)
(0.97092 0.0019864 6.0511e-19)
(1.054 0.0091997 1.099e-18)
(0.97659 0.005229 -1.0294e-18)
(0.95791 0.038479 1.9177e-19)
(0.99992 -2.1814e-05 -1.8943e-19)
(0.99996 -0.00021425 1.0565e-18)
(1.0001 -0.00037903 3.0396e-18)
(1.0002 -0.0005225 -2.9209e-18)
(1.0003 -0.00046004 -1.0704e-18)
(1.0005 -0.00043644 -2.5309e-19)
(0.99951 8.5625e-05 -1.6551e-18)
(1.007 0.0006953 2.1642e-19)
(0.96928 0.0020026 -1.0492e-18)
(1.053 0.0094664 -4.0482e-19)
(0.98324 0.0055516 -2.799e-20)
(0.96141 0.038005 -2.3453e-19)
(0.99991 -2.3086e-05 -2.0359e-19)
(0.99996 -0.00022252 6.3239e-19)
(1.0001 -0.00039445 -7.3522e-20)
(1.0002 -0.00054369 9.6856e-19)
(1.0003 -0.00047882 -1.9749e-18)
(1.0006 -0.00045805 2.8642e-18)
(0.99939 8.858e-05 8.2498e-19)
(1.0078 0.00071393 -2.065e-18)
(0.96771 0.0020125 -1.3433e-18)
(1.0517 0.009708 -1.5979e-18)
(0.98943 0.0058881 1.6402e-19)
(0.96534 0.037594 -4.2766e-19)
(0.9999 -2.4401e-05 7.075e-20)
(0.99995 -0.00023084 -1.5103e-18)
(1 -0.00041004 1.8822e-18)
(1.0002 -0.00056509 2.6787e-18)
(1.0003 -0.00049782 3.8709e-18)
(1.0006 -0.00048023 -2.1034e-18)
(0.99925 9.125e-05 -2.0515e-18)
(1.0087 0.00073316 4.1937e-19)
(0.96624 0.0020161 1.2586e-18)
(1.05 0.0099251 1.2497e-18)
(0.99515 0.0062334 7.5787e-19)
(0.96956 0.037237 4.2502e-19)
(0.99989 -2.576e-05 1.3559e-19)
(0.99995 -0.00023921 1.201e-18)
(1 -0.00042579 -4.3243e-18)
(1.0002 -0.00058669 -3.8816e-19)
(1.0003 -0.00051704 -3.2153e-18)
(1.0007 -0.00050301 -1.3247e-18)
(0.99909 9.3589e-05 2.9193e-21)
(1.0096 0.00075307 -4.7862e-19)
(0.96487 0.0020135 -2.4761e-18)
(1.0481 0.010118 -1.9938e-18)
(1.0003 0.0065829 -1.0319e-18)
(0.97394 0.036926 -2.0843e-19)
(0.99989 -2.7165e-05 -8.788e-20)
(0.99994 -0.00024763 -7.8103e-19)
(1 -0.0004417 3.4024e-18)
(1.0002 -0.00060851 -3.7031e-18)
(1.0004 -0.00053649 -2.4168e-19)
(1.0007 -0.00052639 2.821e-18)
(0.99891 9.5553e-05 8.2075e-20)
(1.0105 0.00077374 4.5717e-19)
(0.9636 0.0020048 2.1678e-18)
(1.0459 0.010288 2.5902e-18)
(1.005 0.0069324 5.9126e-19)
(0.97838 0.036651 -1.1565e-19)
(0.99988 -2.8616e-05 -2.2878e-19)
(0.99994 -0.00025609 -2.8802e-19)
(1 -0.00045778 -1.5083e-18)
(1.0002 -0.00063054 1.8448e-18)
(1.0004 -0.00055619 3.5334e-18)
(1.0008 -0.0005504 -1.2467e-18)
(0.99872 9.7093e-05 2.5531e-18)
(1.0115 0.00079523 3.4256e-19)
(0.96246 0.0019901 -2.4496e-19)
(1.0434 0.010436 1.1696e-18)
(1.0092 0.0072779 -6.5708e-19)
(0.98278 0.036405 -7.9944e-20)
(0.99987 -3.0115e-05 5.7217e-20)
(0.99993 -0.00026461 -7.6168e-19)
(1 -0.00047404 5.6462e-19)
(1.0002 -0.0006528 -1.8799e-18)
(1.0004 -0.00057614 -3.737e-18)
(1.0008 -0.00057504 7.8554e-19)
(0.9985 9.8165e-05 -3.6829e-18)
(1.0125 0.00081758 -7.8159e-19)
(0.96146 0.0019696 7.952e-19)
(1.0408 0.010562 -3.6731e-18)
(1.0128 0.0076163 4.5163e-19)
(0.98707 0.036182 2.2831e-19)
(0.99986 -3.1663e-05 1.0048e-19)
(0.99992 -0.00027319 2.0636e-18)
(1 -0.00049048 9.4538e-19)
(1.0003 -0.00067528 7.6584e-19)
(1.0004 -0.00059634 2.9882e-18)
(1.0009 -0.00060035 2.3415e-19)
(0.99827 9.872e-05 2.5425e-18)
(1.0136 0.00084082 5.6126e-19)
(0.96059 0.0019434 -2.4142e-18)
(1.038 0.010668 1.2639e-18)
(1.0159 0.0079444 3.049e-19)
(0.99117 0.035975 2.3557e-19)
(0.99985 -3.326e-05 -3.5084e-19)
(0.99992 -0.00028182 -6.7928e-19)
(1 -0.00050711 -8.3062e-19)
(1.0003 -0.000698 1.2576e-18)
(1.0004 -0.00061682 1.4434e-18)
(1.001 -0.00062632 -4.6642e-19)
(0.99801 9.8712e-05 -2.1352e-18)
(1.0146 0.00086495 2.5518e-18)
(0.95987 0.0019119 4.4818e-19)
(1.035 0.010754 -3.8137e-19)
(1.0184 0.0082598 1.2548e-18)
(0.99504 0.03578 -1.6321e-19)
(0.99984 -3.4909e-05 7.2092e-19)
(0.99991 -0.0002905 8.1346e-19)
(1 -0.00052393 -8.8293e-19)
(1.0003 -0.00072095 -7.8332e-19)
(1.0004 -0.00063758 -2.0712e-18)
(1.0011 -0.00065299 -8.0095e-19)
(0.99774 9.8093e-05 1.0525e-18)
(1.0157 0.00088995 -4.0912e-18)
(0.9593 0.0018753 1.094e-18)
(1.032 0.010822 -4.5015e-19)
(1.0205 0.0085603 -1.3271e-18)
(0.99863 0.035591 4.7261e-19)
(0.99983 -3.661e-05 -3.1818e-19)
(0.9999 -0.00029925 -1.4292e-18)
(1 -0.00054094 -8.5569e-19)
(1.0003 -0.00074415 -1.4864e-18)
(1.0004 -0.00065863 -6.323e-19)
(1.0011 -0.00068036 2.3548e-18)
(0.99744 9.6814e-05 -1.0336e-18)
(1.0168 0.0009158 4.5496e-18)
(0.9589 0.0018339 1.0303e-18)
(1.0288 0.010872 1.3662e-18)
(1.0221 0.0088441 5.5881e-19)
(1.0019 0.035405 -7.6508e-19)
(0.99982 -3.8365e-05 -1.6877e-19)
(0.9999 -0.00030805 1.0629e-18)
(1 -0.00055816 1.6954e-18)
(1.0003 -0.0007676 4.0076e-18)
(1.0004 -0.00067998 8.3815e-19)
(1.0012 -0.00070844 -1.6152e-18)
(0.99712 9.4826e-05 4.9882e-19)
(1.0179 0.00094246 -4.892e-18)
(0.95865 0.001788 -1.2487e-18)
(1.0256 0.010906 -7.5923e-19)
(1.0233 0.0091096 5.463e-19)
(1.0049 0.035218 7.6747e-19)
(0.99981 -4.0174e-05 1.2916e-19)
(0.99989 -0.00031692 2.5161e-19)
(1 -0.00057559 -1.665e-18)
(1.0003 -0.00079131 -6.6756e-19)
(1.0004 -0.00070164 1.0641e-18)
(1.0013 -0.00073725 1.9328e-18)
(0.99678 9.2077e-05 1.7334e-18)
(1.019 0.00096989 4.853e-19)
(0.95857 0.0017379 1.3965e-18)
(1.0224 0.010923 -3.5117e-19)
(1.024 0.0093557 -9.7457e-19)
(1.0074 0.035027 -1.9812e-19)
(0.9998 -4.204e-05 -5.2887e-21)
(0.99988 -0.00032585 2.8675e-19)
(1 -0.00059324 3.7212e-19)
(1.0003 -0.00081527 -8.6654e-19)
(1.0004 -0.00072363 9.817e-21)
(1.0014 -0.00076681 -1.7526e-18)
(0.99641 8.8514e-05 -1.1725e-18)
(1.0201 0.00099801 3.5794e-18)
(0.95866 0.001684 -2.1087e-18)
(1.0191 0.010926 1.3634e-18)
(1.0243 0.0095814 5.1403e-19)
(1.0097 0.034831 -5.5611e-19)
(0.99979 -4.3963e-05 -4.0007e-19)
(0.99987 -0.00033485 -1.3449e-18)
(1 -0.00061111 9.5002e-19)
(1.0003 -0.00083951 -2.3664e-18)
(1.0004 -0.00074596 -2.6906e-18)
(1.0015 -0.00079712 -2.4206e-18)
(0.99603 8.4079e-05 -2.3882e-18)
(1.0212 0.0010268 -3.6682e-19)
(0.95891 0.0016265 1.8425e-18)
(1.0159 0.010914 -1.1689e-18)
(1.0243 0.009786 5.0729e-20)
(1.0116 0.034626 5.2299e-19)
(0.99978 -4.5945e-05 7.7218e-19)
(0.99986 -0.00034391 1.4055e-18)
(1 -0.0006292 -1.5321e-18)
(1.0003 -0.00086401 1.9429e-18)
(1.0004 -0.00076863 -3.1536e-19)
(1.0017 -0.00082819 1.5866e-18)
(0.99562 7.8708e-05 2.8703e-18)
(1.0222 0.0010562 -2.7733e-18)
(0.95933 0.0015659 -9.3353e-19)
(1.0127 0.010889 1.2328e-18)
(1.0239 0.009969 4.4179e-19)
(1.0131 0.034412 -2.4679e-19)
(0.99977 -4.7986e-05 -5.7941e-19)
(0.99985 -0.00035304 -4.1539e-19)
(1 -0.00064753 -3.2033e-19)
(1.0003 -0.00088879 2.2229e-18)
(1.0004 -0.00079167 -6.7519e-19)
(1.0018 -0.00086003 -2.0076e-20)
(0.99519 7.2333e-05 -5.6158e-19)
(1.0233 0.0010861 2.2211e-18)
(0.95991 0.0015024 -8.8547e-19)
(1.0096 0.010852 -8.4641e-19)
(1.0233 0.01013 -1.3054e-18)
(1.0143 0.034186 2.8596e-19)
(0.99976 -5.009e-05 3.9386e-19)
(0.99985 -0.00036224 -5.2669e-19)
(0.99999 -0.0006661 7.3334e-19)
(1.0003 -0.00091386 -3.3727e-18)
(1.0004 -0.00081508 4.5752e-18)
(1.0019 -0.00089264 6.5718e-19)
(0.99474 6.4878e-05 2.214e-18)
(1.0243 0.0011165 -1.3731e-18)
(0.96066 0.0014363 1.2445e-20)
(1.0066 0.010803 6.2813e-19)
(1.0223 0.010269 -2.5196e-19)
(1.0151 0.033948 -1.0769e-19)
(0.99974 -5.2256e-05 -1.1267e-19)
(0.99984 -0.00037151 1.0295e-19)
(0.99999 -0.00068492 1.7868e-18)
(1.0003 -0.00093921 9.1946e-19)
(1.0004 -0.00083889 -2.2871e-18)
(1.0021 -0.00092604 -1.2871e-18)
(0.99427 5.6256e-05 3.8558e-19)
(1.0253 0.0011474 -6.6658e-19)
(0.96156 0.0013679 1.4814e-18)
(1.0037 0.010742 -4.1269e-19)
(1.0212 0.010385 1.2186e-18)
(1.0157 0.033697 -3.9082e-19)
(0.99973 -5.4486e-05 -1.9612e-19)
(0.99983 -0.00038086 -9.9239e-19)
(0.99998 -0.00070399 -5.3126e-19)
(1.0003 -0.00096486 3.6919e-18)
(1.0004 -0.00086311 -2.0373e-18)
(1.0022 -0.00096021 -1.0891e-19)
(0.99378 4.6369e-05 -5.7781e-18)
(1.0263 0.0011787 6.5642e-19)
(0.96262 0.0012975 -2.7677e-18)
(1.001 0.01067 -8.8924e-19)
(1.0199 0.01048 -1.2151e-18)
(1.016 0.033432 2.3208e-19)
(0.99972 -5.6782e-05 -8.4669e-20)
(0.99981 -0.00039029 6.1484e-19)
(0.99998 -0.00072332 -2.193e-19)
(1.0003 -0.00099081 -2.1497e-18)
(1.0004 -0.00088775 2.9277e-18)
(1.0024 -0.00099515 -2.6781e-19)
(0.99327 3.5107e-05 3.0601e-18)
(1.0272 0.0012106 -4.0215e-19)
(0.96382 0.0012255 1.3444e-18)
(0.99838 0.010588 1.1113e-18)
(1.0184 0.010553 1.0019e-18)
(1.016 0.033153 -5.5687e-20)
(0.9997 -5.9145e-05 4.7996e-19)
(0.9998 -0.00039979 -3.6786e-19)
(0.99997 -0.00074293 -7.6719e-19)
(1.0003 -0.0010171 2.3459e-18)
(1.0004 -0.00091283 2.1477e-19)
(1.0026 -0.0010309 3.3214e-18)
(0.99275 2.2343e-05 5.2744e-19)
(1.0281 0.0012429 1.9241e-18)
(0.96516 0.0011519 5.0436e-19)
(0.99594 0.010496 -3.5955e-19)
(1.0168 0.010604 1.2988e-19)
(1.0157 0.032858 5.0684e-20)
(0.99969 -6.1576e-05 1.3686e-19)
(0.99979 -0.00040937 1.5041e-19)
(0.99996 -0.00076281 -6.9566e-19)
(1.0003 -0.0010436 -4.6718e-18)
(1.0004 -0.00093837 6.5044e-19)
(1.0028 -0.0010673 2.8779e-19)
(0.99221 7.9363e-06 -2.2865e-18)
(1.0289 0.0012758 2.6893e-20)
(0.96664 0.0010772 1.484e-18)
(0.99367 0.010395 -2.3078e-19)
(1.0151 0.010633 -6.3155e-19)
(1.0153 0.032548 2.9677e-19)
(0.99968 -6.4078e-05 -5.8605e-19)
(0.99978 -0.00041903 6.3749e-19)
(0.99995 -0.00078297 1.1468e-19)
(1.0004 -0.0010705 2.5941e-18)
(1.0003 -0.0009644 -2.9673e-18)
(1.003 -0.0011045 -1.2723e-18)
(0.99165 -8.2766e-06 2.338e-18)
(1.0297 0.0013093 -1.3016e-18)
(0.96824 0.0010016 -2.3445e-18)
(0.9916 0.010285 -1.1383e-18)
(1.0133 0.010642 8.0348e-19)
(1.0147 0.032223 9.8167e-20)
(0.99966 -6.6652e-05 -6.2018e-20)
(0.99977 -0.00042878 -6.415e-19)
(0.99994 -0.00080342 1.2214e-18)
(1.0004 -0.0010977 1.1501e-18)
(1.0003 -0.00099093 3.6646e-18)
(1.0032 -0.0011424 4.8847e-19)
(0.99108 -2.6478e-05 2.0749e-18)
(1.0304 0.0013435 3.2985e-18)
(0.96995 0.00092542 -1.0272e-19)
(0.98973 0.010166 2.0014e-18)
(1.0116 0.01063 -8.5295e-20)
(1.0139 0.031882 -2.8804e-19)
(0.99964 -6.9299e-05 6.011e-19)
(0.99976 -0.00043861 -9.3397e-19)
(0.99993 -0.00082418 -1.8538e-18)
(1.0004 -0.0011252 -3.058e-19)
(1.0003 -0.001018 -3.9771e-18)
(1.0034 -0.001181 -1.4538e-18)
(0.9905 -4.6873e-05 -7.2122e-19)
(1.031 0.0013786 2.361e-20)
(0.97177 0.00084892 3.0491e-18)
(0.98806 0.010038 4.596e-19)
(1.0098 0.010598 -1.0981e-18)
(1.013 0.031525 1.7188e-19)
(0.99963 -7.202e-05 -6.739e-19)
(0.99974 -0.00044853 1.1667e-18)
(0.99993 -0.00084524 9.7041e-19)
(1.0004 -0.001153 -6.092e-19)
(1.0003 -0.0010456 3.1981e-18)
(1.0036 -0.0012202 1.7388e-18)
(0.98991 -6.9691e-05 -5.6982e-19)
(1.0316 0.0014148 -3.3218e-18)
(0.97368 0.00077244 -1.0405e-19)
(0.98661 0.009902 -1.3157e-18)
(1.008 0.010546 1.2988e-18)
(1.0121 0.031152 -2.2526e-19)
(0.99961 -7.4819e-05 4.0495e-19)
(0.99973 -0.00045854 -2.2325e-19)
(0.99992 -0.00086662 1.2849e-18)
(1.0004 -0.0011812 -2.5626e-18)
(1.0003 -0.0010738 1.044e-18)
(1.0039 -0.0012601 -6.2481e-19)
(0.98931 -9.5186e-05 -1.2259e-18)
(1.0321 0.001452 -2.6606e-19)
(0.97568 0.00069634 -3.6758e-18)
(0.98538 0.0097583 8.6626e-19)
(1.0063 0.010475 -1.1865e-18)
(1.011 0.030764 7.4845e-20)
(0.9996 -7.7695e-05 3.202e-20)
(0.99972 -0.00046864 -7.0232e-19)
(0.99991 -0.00088832 7.2967e-19)
(1.0004 -0.0012097 3.3726e-18)
(1.0002 -0.0011026 -2.4869e-18)
(1.0042 -0.0013004 2.0087e-18)
(0.98871 -0.00012364 -7.0819e-19)
(1.0325 0.0014907 6.1725e-19)
(0.97775 0.00062099 4.3658e-18)
(0.98436 0.0096069 -1.6073e-18)
(1.0047 0.010386 1.8108e-18)
(1.01 0.03036 2.112e-19)
(0.99958 -8.0652e-05 5.7472e-20)
(0.9997 -0.00047883 -1.4536e-19)
(0.99989 -0.00091036 -1.0497e-18)
(1.0004 -0.0012386 -5.0781e-19)
(1.0002 -0.001132 2.167e-18)
(1.0044 -0.0013413 1.5541e-20)
(0.9881 -0.00015535 -1.3909e-18)
(1.0329 0.0015308 -1.4716e-18)
(0.97988 0.00054679 -1.8269e-18)
(0.98357 0.0094483 -1.5067e-19)
(1.0032 0.010279 3.2896e-19)
(1.0089 0.029942 2.15e-20)
(0.99956 -8.369e-05 -9.2477e-20)
(0.99969 -0.00048912 1.7297e-18)
(0.99988 -0.00093274 -7.0015e-19)
(1.0004 -0.0012678 -2.8691e-18)
(1.0001 -0.0011621 9.9875e-19)
(1.0047 -0.0013825 -5.1174e-18)
(0.98749 -0.00019066 6.9451e-19)
(1.0331 0.0015727 9.272e-19)
(0.98206 0.00047417 8.4873e-20)
(0.98299 0.0092828 1.629e-18)
(1.0017 0.010155 -1.1263e-19)
(1.0079 0.029509 -5.8858e-19)
(0.99954 -8.6812e-05 -2.4414e-20)
(0.99967 -0.0004995 -3.3942e-20)
(0.99987 -0.00095548 9.4254e-19)
(1.0004 -0.0012973 1.7712e-18)
(1.0001 -0.0011929 -3.9691e-18)
(1.005 -0.001424 2.2128e-19)
(0.98689 -0.00022992 1.2423e-18)
(1.0333 0.0016165 1.4509e-18)
(0.98428 0.0004036 -1.1537e-18)
(0.98263 0.009111 -1.5842e-18)
(1.0004 0.010014 -1.788e-18)
(1.0068 0.029062 6.2023e-19)
(0.99952 -9.0019e-05 -1.5977e-19)
(0.99966 -0.00050999 4.8344e-20)
(0.99986 -0.00097857 -4.5445e-19)
(1.0004 -0.0013272 -1.1826e-18)
(1.0001 -0.0012245 2.2e-18)
(1.0053 -0.0014658 2.746e-18)
(0.98629 -0.00027351 3.6191e-19)
(1.0334 0.0016624 7.3473e-19)
(0.98652 0.00033555 1.8398e-18)
(0.98248 0.0089334 2.6717e-19)
(0.99929 0.0098581 1.319e-18)
(1.0059 0.028601 -3.7606e-19)
(0.9995 -9.3313e-05 2.9409e-19)
(0.99964 -0.00052058 8.9129e-20)
(0.99985 -0.001002 -6.4947e-19)
(1.0004 -0.0013575 1.7471e-19)
(1 -0.0012569 -1.1928e-18)
(1.0057 -0.0015076 -6.5869e-19)
(0.9857 -0.00032185 -1.3393e-19)
(1.0334 0.0017106 -3.3175e-18)
(0.98877 0.00027054 3.6047e-19)
(0.98253 0.0087506 -5.3847e-19)
(0.99827 0.0096876 -5.3656e-19)
(1.005 0.028129 -4.5155e-19)
(0.99949 -9.6697e-05 -6.0019e-19)
(0.99963 -0.00053127 1.1645e-19)
(0.99983 -0.0010259 3.4451e-19)
(1.0004 -0.0013881 -2.1949e-18)
(0.99995 -0.0012901 -1.3595e-18)
(1.006 -0.0015495 -3.0567e-18)
(0.98512 -0.00037534 6.4477e-19)
(1.0333 0.0017613 1.3548e-18)
(0.99101 0.00020908 -3.8676e-18)
(0.98277 0.0085634 2.4846e-18)
(0.99741 0.0095036 -5.7824e-19)
(1.0042 0.027645 2.9167e-19)
(0.99947 -0.00010017 5.5096e-19)
(0.99961 -0.00054207 2.6059e-19)
(0.99982 -0.0010501 1.3247e-19)
(1.0005 -0.001419 6.9623e-19)
(0.99988 -0.0013242 -3.0016e-19)
(1.0063 -0.0015912 5.9239e-18)
(0.98455 -0.00043444 2.3138e-18)
(1.0332 0.0018144 -2.1054e-18)
(0.99324 0.0001517 3.7214e-18)
(0.98319 0.0083726 -9.2698e-19)
(0.99671 0.0093072 -3.7993e-19)
(1.0035 0.02715 -1.4437e-19)
(0.99944 -0.00010374 1.3515e-19)
(0.99959 -0.00055297 -1.6502e-18)
(0.99981 -0.0010748 2.6517e-19)
(1.0005 -0.0014503 3.1261e-18)
(0.99982 -0.0013592 2.3237e-18)
(1.0067 -0.0016325 -9.6213e-20)
(0.984 -0.00049959 -3.2063e-18)
(1.0329 0.0018702 6.3817e-19)
(0.99545 9.8923e-05 -8.3884e-19)
(0.98379 0.0081792 -1.28e-18)
(0.99617 0.0090998 9.6746e-19)
(1.0028 0.026647 1.3537e-19)
(0.99942 -0.0001074 -5.3456e-19)
(0.99958 -0.00056399 -5.5014e-19)
(0.99979 -0.0010998 -1.4364e-18)
(1.0005 -0.001482 -2.6216e-18)
(0.99974 -0.0013953 -2.3379e-18)
(1.0071 -0.0016735 -2.6915e-18)
(0.98347 -0.00057127 5.9141e-19)
(1.0325 0.0019287 4.9552e-18)
(0.99762 5.1255e-05 3.6514e-19)
(0.98454 0.007984 -1.1071e-19)
(0.99579 0.0088826 -3.4105e-19)
(1.0023 0.026137 -3.6085e-19)
(0.9994 -0.00011116 3.9669e-19)
(0.99956 -0.00057512 5.1103e-19)
(0.99978 -0.0011253 2.2136e-18)
(1.0005 -0.001514 1.8156e-18)
(0.99966 -0.0014324 2.2743e-18)
(1.0074 -0.0017137 -1.001e-19)
(0.98297 -0.00064993 -3.294e-18)
(1.0321 0.0019898 -2.6781e-18)
(0.99973 9.1903e-06 9.0536e-19)
(0.98543 0.0077883 4.43e-19)
(0.99557 0.0086572 7.6677e-19)
(1.0019 0.02562 2.7971e-19)
(0.99938 -0.00011502 -2.8016e-19)
(0.99954 -0.00058636 8.017e-19)
(0.99976 -0.0011512 -1.4646e-18)
(1.0005 -0.0015464 2.6274e-19)
(0.99958 -0.0014707 1.0572e-18)
(1.0078 -0.0017532 -2.6305e-19)
(0.98249 -0.00073604 7.405e-19)
(1.0316 0.0020534 7.4341e-19)
(1.0018 -2.6815e-05 2.97e-19)
(0.98646 0.0075931 1.0919e-18)
(0.9955 0.0084249 -9.2161e-19)
(1.0017 0.025099 5.6771e-20)
(0.99936 -0.00011898 4.2301e-19)
(0.99952 -0.00059772 4.9688e-20)
(0.99974 -0.0011776 -6.8561e-19)
(1.0005 -0.0015791 1.0455e-19)
(0.99949 -0.0015102 -1.7386e-19)
(1.0082 -0.0017916 -2.5971e-18)
(0.98204 -0.00083006 2.0636e-18)
(1.0309 0.0021195 2.6378e-18)
(1.0038 -5.6349e-05 -1.4829e-18)
(0.9876 0.0073997 -1.5175e-18)
(0.99558 0.0081876 -2.6827e-19)
(1.0015 0.024576 4.7797e-19)
(0.99933 -0.00012304 -3.0729e-19)
(0.9995 -0.0006092 -3.8267e-20)
(0.99972 -0.0012044 8.5244e-19)
(1.0005 -0.0016122 -2.0088e-18)
(0.99939 -0.0015509 -1.5705e-18)
(1.0086 -0.0018288 3.2787e-18)
(0.98162 -0.00093242 -3.1535e-19)
(1.0302 0.0021877 -2.7932e-18)
(1.0057 -7.9057e-05 3.7717e-19)
(0.98883 0.0072092 1.4277e-18)
(0.99581 0.0079468 9.0995e-19)
(1.0014 0.024051 -1.7227e-19)
(0.99931 -0.00012721 3.0539e-20)
(0.99948 -0.0006208 2.8031e-19)
(0.99971 -0.0012317 4.6578e-19)
(1.0005 -0.0016456 1.0385e-18)
(0.99929 -0.0015931 3.0779e-18)
(1.009 -0.0018646 7.6397e-19)
(0.98124 -0.0010436 -2.7437e-18)
(1.0295 0.0022579 2.6159e-19)
(1.0075 -9.465e-05 9.7069e-19)
(0.99015 0.007023 -1.2845e-18)
(0.99616 0.0077043 -6.1432e-19)
(1.0015 0.023527 -1.9861e-19)
(0.99928 -0.00013149 8.6717e-20)
(0.99946 -0.00063253 -4.8754e-20)
(0.99969 -0.0012595 -1.2291e-18)
(1.0006 -0.0016794 -2.2328e-20)
(0.99918 -0.0016367 -6.0851e-18)
(1.0095 -0.0018986 9.4163e-19)
(0.9809 -0.0011638 2.6954e-18)
(1.0286 0.0023295 -7.5177e-19)
(1.0092 -0.00010292 -1.0172e-18)
(0.99153 0.0068423 2.1307e-18)
(0.99664 0.0074618 7.3334e-19)
(1.0016 0.023006 5.1376e-19)
(0.99926 -0.00013587 9.3159e-20)
(0.99944 -0.00064438 -1.0118e-19)
(0.99967 -0.0012878 2.2228e-18)
(1.0006 -0.0017135 4.789e-19)
(0.99907 -0.0016818 5.3921e-18)
(1.0099 -0.0019308 -3.3197e-18)
(0.98059 -0.0012936 -9.0157e-19)
(1.0277 0.0024023 7.0738e-19)
(1.0108 -0.00010375 3.4953e-19)
(0.99297 0.0066682 -1.1985e-18)
(0.99722 0.0072212 -1.1932e-19)
(1.0019 0.022488 -3.7863e-19)
(0.99923 -0.00014037 -3.6406e-19)
(0.99941 -0.00065636 1.699e-19)
(0.99965 -0.0013166 -1.3065e-18)
(1.0006 -0.001748 6.2967e-19)
(0.99895 -0.0017286 -2.0488e-18)
(1.0103 -0.0019608 4.5019e-19)
(0.98034 -0.0014332 3.6091e-18)
(1.0267 0.0024755 -2.6473e-18)
(1.0123 -9.7103e-05 -1.2855e-18)
(0.99444 0.0065018 -1.1831e-18)
(0.9979 0.006984 -5.816e-19)
(1.0022 0.021977 -1.0362e-19)
(0.99921 -0.00014499 4.5352e-19)
(0.99939 -0.00066847 -4.035e-19)
(0.99963 -0.001346 -1.268e-18)
(1.0006 -0.0017827 -1.0041e-18)
(0.99882 -0.0017772 -3.3493e-18)
(1.0107 -0.0019884 -2.0867e-18)
(0.98012 -0.0015829 -2.2128e-18)
(1.0257 0.0025487 2.4614e-18)
(1.0137 -8.3074e-05 1.245e-18)
(0.99592 0.0063443 1.7907e-18)
(0.99867 0.0067519 -2.2668e-19)
(1.0026 0.021472 4.9946e-19)
(0.99918 -0.00014972 -7.2893e-19)
(0.99937 -0.00068072 6.5381e-19)
(0.9996 -0.0013759 3.1048e-18)
(1.0006 -0.0018178 -2.3681e-19)
(0.99869 -0.0018276 3.7055e-18)
(1.0112 -0.0020134 1.5787e-19)
(0.97996 -0.0017428 -2.1173e-18)
(1.0246 0.002621 9.6302e-19)
(1.015 -6.1851e-05 -4.4906e-19)
(0.99741 0.0061965 -3.7508e-19)
(0.99951 0.0065265 7.3594e-19)
(1.003 0.020976 -3.3773e-19)
(0.99915 -0.00015457 5.9737e-19)
(0.99935 -0.0006931 -8.8858e-19)
(0.99958 -0.0014063 -3.6201e-18)
(1.0007 -0.0018532 1.5492e-18)
(0.99855 -0.00188 -2.6398e-18)
(1.0116 -0.0020355 2.8838e-18)
(0.97985 -0.0019132 6.9063e-19)
(1.0234 0.0026918 -9.169e-19)
(1.0161 -3.3742e-05 -2.1533e-19)
(0.99889 0.0060592 -9.3684e-19)
(1.0004 0.0063092 -1.1973e-18)
(1.0036 0.02049 4.6485e-19)
(0.99912 -0.00015954 -4.4006e-19)
(0.99932 -0.00070562 2.9548e-19)
(0.99956 -0.0014373 2.1998e-18)
(1.0007 -0.0018889 -2.0421e-18)
(0.99841 -0.0019345 4.2472e-18)
(1.012 -0.0020545 -2.2376e-18)
(0.97978 -0.0020939 4.0245e-19)
(1.0223 0.0027602 -1.4487e-18)
(1.0171 8.2535e-07 7.0137e-19)
(1.0004 0.0059332 -1.3026e-19)
(1.0013 0.0061013 5.1289e-19)
(1.0041 0.020015 -2.0729e-19)
(0.99909 -0.00016464 5.3976e-19)
(0.9993 -0.00071828 2.3006e-19)
(0.99953 -0.0014689 -1.4667e-18)
(1.0007 -0.0019249 -4.1498e-20)
(0.99826 -0.0019912 -1.8764e-19)
(1.0124 -0.0020701 5.4137e-19)
(0.97977 -0.0022852 3.8154e-18)
(1.0211 0.0028254 9.9092e-19)
(1.0181 4.1306e-05 -2.078e-18)
(1.0018 0.005819 -6.7697e-19)
(1.0023 0.005904 -4.795e-19)
(1.0047 0.019552 2.159e-19)
(0.99906 -0.00016987 -6.1872e-19)
(0.99927 -0.00073109 -8.5257e-19)
(0.99951 -0.0015011 6.1533e-19)