/*--------------------------------*- C++ -*----------------------------------*\
  =========                 |
  \\      /  F ield         | OpenFOAM: The Open Source CFD Toolbox
   \\    /   O peration     | Website:  https://openfoam.org
    \\  /    A nd           | Version:  6.0
     \\/     M anipulation  |
\*---------------------------------------------------------------------------*/
FoamFile
{
    version     2.0;
    format      ascii;
    class       volVectorField;
    location    "4";
    object      U;
}
// * * * * * * * * * * * * * * * * * * * * * * * * * * * * * * * * * * * * * //

dimensions      [0 1 -1 0 0 0 0];

internalField   nonuniform List<vector> 
19500
(
(1 -1.1325e-06 -4.0506e-18)
(1 -7.8518e-06 2.7353e-18)
(1 -1.0925e-05 -1.1698e-17)
(1 -1.5755e-05 -8.071e-18)
(1 -1.5409e-05 1.5062e-17)
(1 -1.468e-05 2.7931e-17)
(1 -7.5595e-06 2.3738e-17)
(0.99998 1.1106e-05 -3.8093e-18)
(0.99993 3.4222e-05 1.3958e-17)
(0.9998 7.5624e-05 2.9658e-18)
(0.99563 0.00077503 2.6694e-17)
(1.0188 0.010872 7.4196e-18)
(1 -3.3365e-06 2.5095e-18)
(1 -2.2251e-05 -8.3069e-18)
(1 -3.004e-05 5.5864e-18)
(1 -4.3751e-05 -3.1839e-19)
(1 -4.0487e-05 -4.0172e-19)
(1 -3.8767e-05 -3.3586e-17)
(1 -1.4638e-05 -4.0999e-17)
(0.99994 3.9349e-05 -2.1796e-17)
(0.99976 0.000117 -1.393e-17)
(0.99982 0.00019055 -1.4669e-18)
(0.9859 0.0022499 -1.2641e-17)
(1.0529 0.030774 -4.4922e-18)
(1 -5.6561e-06 -3.2412e-18)
(1 -3.677e-05 1.6504e-17)
(1 -4.9368e-05 2.9057e-18)
(1 -7.2352e-05 9.3057e-18)
(1 -6.5842e-05 -3.4732e-18)
(1.0001 -6.393e-05 2.6903e-17)
(1 -2.175e-05 -5.771e-18)
(0.99991 6.6487e-05 4.9509e-18)
(0.99957 0.00020727 -1.6899e-17)
(1.0003 0.00032205 2.2284e-17)
(0.97553 0.0033773 -6.6027e-18)
(1.0812 0.045461 1.5693e-18)
(1 -8.0269e-06 8.4733e-18)
(1 -5.1625e-05 -1.6001e-17)
(1 -6.9256e-05 -1.3774e-17)
(1 -0.00010189 -6.5292e-19)
(1.0001 -9.2127e-05 5.3615e-18)
(1.0001 -9.038e-05 -7.4654e-19)
(1 -2.9647e-05 5.6862e-17)
(0.99989 9.2085e-05 8.9198e-18)
(0.99935 0.00030409 1.9983e-17)
(1.0013 0.00047412 -8.0718e-18)
(0.9649 0.0041819 3.213e-17)
(1.1024 0.056183 -7.1412e-18)
(1 -1.0392e-05 -5.9538e-18)
(1 -6.6554e-05 1.3829e-17)
(1 -8.9198e-05 1.1725e-17)
(1.0001 -0.00013159 1.191e-17)
(1.0001 -0.00011848 2.6288e-18)
(1.0001 -0.00011702 1.9774e-17)
(1.0001 -3.7469e-05 -2.5392e-17)
(0.99988 0.00011677 1.8117e-18)
(0.99908 0.00040669 -1.2252e-17)
(1.0026 0.00064885 -1.9262e-18)
(0.95439 0.0047123 -8.3462e-18)
(1.1165 0.064055 1.9834e-18)
(1 -1.275e-05 6.0253e-18)
(1 -8.1561e-05 -5.733e-18)
(1 -0.00010918 3.5808e-18)
(1.0001 -0.00016144 -2.3593e-17)
(1.0001 -0.00014489 -7.7091e-20)
(1.0001 -0.00014385 -3.9146e-17)
(1.0001 -4.5217e-05 9.7427e-19)
(0.99987 0.00014037 -1.4543e-17)
(0.99875 0.00051365 4.6659e-18)
(1.0044 0.0008529 -1.9404e-17)
(0.94437 0.0050095 -2.0044e-17)
(1.124 0.069682 1.9112e-18)
(1 -1.5093e-05 -9.9738e-19)
(1 -9.6657e-05 -6.8567e-18)
(1 -0.00012921 -2.9102e-18)
(1.0001 -0.00019148 1.7808e-17)
(1.0001 -0.00017136 -2.4348e-17)
(1.0002 -0.00017092 1.4979e-17)
(1.0001 -5.286e-05 1.6982e-17)
(0.99988 0.0001628 5.1164e-18)
(0.99836 0.00062362 1.043e-17)
(1.0065 0.0010928 1.0446e-17)
(0.93511 0.0051106 8.6222e-18)
(1.1259 0.073484 3.0581e-18)
(0.99999 -1.742e-05 -2.0586e-18)
(1 -0.00011185 -1.3489e-18)
(1 -0.00014927 -2.507e-17)
(1.0001 -0.00022171 -8.5036e-18)
(1.0001 -0.00019789 6.8151e-18)
(1.0002 -0.00019824 2.4547e-17)
(1.0001 -6.0387e-05 1.0808e-17)
(0.99991 0.00018399 4.5675e-18)
(0.99789 0.0007352 -6.8166e-18)
(1.0089 0.0013723 1.4629e-17)
(0.92686 0.0050512 6.95e-18)
(1.1232 0.075819 -9.7084e-18)
(0.99999 -1.9726e-05 -6.3906e-18)
(1 -0.00012714 5.7991e-18)
(1.0001 -0.00016937 4.2152e-17)
(1.0001 -0.00025213 -1.02e-17)
(1.0002 -0.00022449 2.552e-17)
(1.0002 -0.00022583 -4.8465e-17)
(1.0001 -6.7804e-05 -3.6007e-17)
(0.99995 0.00020387 8.875e-18)
(0.99734 0.00084703 -5.1189e-18)
(1.0115 0.0016931 -8.0688e-18)
(0.91977 0.0048657 -1.2855e-17)
(1.1168 0.076992 1.2688e-17)
(0.99999 -2.2014e-05 4.2103e-18)
(1 -0.00014254 2.1828e-18)
(1.0001 -0.00018953 -3.5705e-17)
(1.0001 -0.00028274 1.4516e-17)
(1.0002 -0.00025118 -1.1129e-17)
(1.0002 -0.00025369 2.067e-17)
(1.0002 -7.5112e-05 1.2795e-17)
(1 0.00022244 2.2433e-18)
(0.99671 0.00095777 4.841e-19)
(1.0143 0.0020546 1.2768e-18)
(0.91395 0.0045859 4.0809e-18)
(1.1077 0.077252 -6.7127e-19)
(0.99999 -2.4284e-05 -2.3116e-18)
(1 -0.00015803 -7.1588e-18)
(1.0001 -0.00020974 8.7524e-18)
(1.0001 -0.00031354 -2.5613e-18)
(1.0002 -0.00027797 1.7178e-18)
(1.0003 -0.00028184 -2.2653e-17)
(1.0002 -8.2315e-05 -2.9469e-17)
(1.0001 0.00023968 -2.8495e-17)
(0.99599 0.0010662 1.4308e-17)
(1.0172 0.0024551 1.658e-18)
(0.90946 0.004241 -1.0352e-17)
(1.0965 0.076809 -5.4523e-18)
(0.99998 -2.6538e-05 3.1906e-18)
(1 -0.00017362 2.704e-18)
(1.0001 -0.00023001 4.218e-18)
(1.0002 -0.00034452 -2.0413e-18)
(1.0002 -0.00030488 -5.1494e-18)
(1.0003 -0.00031028 8.568e-18)
(1.0002 -8.9414e-05 1.7058e-17)
(1.0002 0.00025562 1.7603e-17)
(0.9952 0.0011711 9.1912e-18)
(1.0202 0.0028912 -2.0952e-17)
(0.90628 0.0038576 1.1228e-19)
(1.0841 0.075833 -6.292e-18)
(0.99998 -2.878e-05 -3.1901e-18)
(1 -0.0001893 5.3174e-18)
(1.0001 -0.00025036 7.6474e-18)
(1.0002 -0.0003757 5.3299e-18)
(1.0002 -0.00033191 -4.7758e-18)
(1.0003 -0.00033905 4.2121e-18)
(1.0002 -9.6415e-05 3.8896e-18)
(1.0003 0.00027031 -1.572e-18)
(0.99431 0.0012716 -1.4856e-17)
(1.0232 0.0033589 1.9427e-17)
(0.9044 0.0034587 9.9955e-20)
(1.0711 0.074464 1.3569e-18)
(0.99998 -3.1013e-05 4.8511e-18)
(1 -0.00020507 -4.1507e-18)
(1.0001 -0.0002708 6.6942e-19)
(1.0002 -0.00040707 -4.4462e-18)
(1.0002 -0.00035908 1.0846e-17)
(1.0003 -0.00036816 5.1393e-18)
(1.0002 -0.00010332 1.565e-17)
(1.0005 0.00028382 -5.838e-18)
(0.99335 0.0013666 -1.8143e-19)
(1.0261 0.0038533 4.7672e-18)
(0.90374 0.0030645 1.567e-17)
(1.058 0.072818 8.6606e-19)
(0.99997 -3.3242e-05 1.17e-18)
(1 -0.00022094 9.212e-18)
(1.0001 -0.00029133 1.2788e-17)
(1.0002 -0.00043863 -4.4331e-18)
(1.0003 -0.00038639 7.8533e-18)
(1.0004 -0.00039762 -2.3992e-18)
(1.0003 -0.00011015 -2.7409e-17)
(1.0007 0.00029625 1.8479e-17)
(0.99231 0.0014553 -1.6746e-17)
(1.029 0.0043691 -2.7503e-17)
(0.90423 0.0026921 -3.4451e-18)
(1.0451 0.070987 8.0037e-19)
(0.99997 -3.5469e-05 -2.9849e-18)
(1 -0.00023689 -9.7968e-18)
(1.0001 -0.00031195 -3.0693e-17)
(1.0002 -0.00047039 7.4688e-18)
(1.0003 -0.00041386 -1.1918e-17)
(1.0004 -0.00042746 7.6923e-18)
(1.0003 -0.00011691 -2.5638e-18)
(1.0009 0.0003077 -1.1124e-17)
(0.9912 0.0015371 3.6793e-18)
(1.0317 0.004901 1.6422e-17)
(0.90575 0.0023551 -7.2133e-18)
(1.0328 0.069047 1.1e-17)
(0.99996 -3.7698e-05 3.1406e-19)
(1 -0.00025293 7.3271e-18)
(1.0001 -0.00033268 2.119e-17)
(1.0002 -0.00050235 -1.6821e-18)
(1.0003 -0.00044149 -1.184e-17)
(1.0004 -0.0004577 -1.4335e-17)
(1.0003 -0.00012363 9.7952e-18)
(1.0011 0.00031831 6.379e-18)
(0.99002 0.0016113 2.1249e-17)
(1.0343 0.0054435 -2.298e-18)
(0.90819 0.0020643 1.7892e-18)
(1.0213 0.067058 -4.3897e-18)
(0.99996 -3.9933e-05 -1.762e-18)
(1 -0.00026906 -8.8781e-18)
(1.0001 -0.00035352 -9.5616e-18)
(1.0002 -0.00053451 5.6211e-18)
(1.0003 -0.00046928 -6.6489e-18)
(1.0005 -0.00048837 -1.1498e-17)
(1.0003 -0.00013031 9.5214e-18)
(1.0014 0.00032823 -4.3277e-18)
(0.98879 0.0016774 -2.6289e-17)
(1.0366 0.0059915 -1.2873e-17)
(0.91143 0.0018276 7.7609e-18)
(1.0108 0.065067 -4.7463e-18)
(0.99995 -4.2176e-05 -2.523e-18)
(1 -0.00028528 -3.3555e-18)
(1.0001 -0.00037447 -7.0856e-19)
(1.0002 -0.00056688 -2.4615e-17)
(1.0003 -0.00049724 5.5793e-18)
(1.0005 -0.00051947 5.0069e-18)
(1.0003 -0.000137 -1.8092e-17)
(1.0017 0.0003376 -1.4774e-17)
(0.9875 0.0017349 3.8481e-18)
(1.0388 0.0065399 -9.6183e-19)
(0.91535 0.0016504 -8.9648e-18)
(1.0014 0.063111 8.9913e-19)
(0.99995 -4.443e-05 3.2817e-18)
(1 -0.00030158 1.5383e-17)
(1.0001 -0.00039555 1.8246e-17)
(1.0002 -0.00059948 2.3181e-18)
(1.0004 -0.00052539 1.5422e-17)
(1.0005 -0.00055104 8.7741e-18)
(1.0003 -0.00014372 2.6119e-18)
(1.0021 0.00034661 1.617e-17)
(0.98618 0.0017836 1.9099e-17)
(1.0407 0.0070842 1.5367e-17)
(0.91984 0.0015356 6.6809e-18)
(0.99327 0.061218 1.0632e-18)
(0.99994 -4.6698e-05 -1.5642e-18)
(1 -0.00031798 -3.6909e-18)
(1.0001 -0.00041675 -1.9439e-17)
(1.0003 -0.0006323 -2.1948e-18)
(1.0004 -0.00055373 -1.1688e-17)
(1.0006 -0.00058309 -4.7472e-18)
(1.0003 -0.00015051 -1.675e-18)
(1.0025 0.00035544 -1.4621e-17)
(0.98483 0.0018231 -1.8256e-17)
(1.0424 0.0076202 7.8708e-18)
(0.92478 0.001484 4.535e-19)
(0.98629 0.059408 6.0866e-19)
(0.99994 -4.8982e-05 4.1461e-18)
(0.99999 -0.00033446 -4.8219e-18)
(1.0001 -0.00043808 -1.8232e-17)
(1.0003 -0.00066535 4.1728e-17)
(1.0004 -0.00058226 1.6954e-17)
(1.0006 -0.00061565 -1.1616e-17)
(1.0002 -0.00015742 2.2528e-17)
(1.0029 0.00036427 1.976e-17)
(0.98345 0.0018532 2.9618e-17)
(1.0438 0.0081443 -2.8839e-17)
(0.93007 0.001495 -1.2262e-17)
(0.9805 0.057694 1.5971e-19)
(0.99993 -5.1284e-05 -3.0348e-18)
(0.99999 -0.00035103 -9.676e-19)
(1.0001 -0.00045954 3.1125e-17)
(1.0003 -0.00069864 -3.1543e-17)
(1.0004 -0.00061099 -1.6323e-18)
(1.0006 -0.00064873 3.8489e-17)
(1.0002 -0.00016448 6.9799e-18)
(1.0034 0.0003733 -3.0526e-18)
(0.98207 0.0018738 -1.8365e-17)
(1.0449 0.0086531 3.3977e-17)
(0.93559 0.0015662 -5.1869e-18)
(0.97586 0.056087 -2.5488e-19)
(0.99992 -5.3605e-05 -1.5471e-18)
(0.99999 -0.0003677 -1.9281e-18)
(1.0001 -0.00048115 1.6206e-18)
(1.0003 -0.00073218 3.2816e-17)
(1.0004 -0.00063994 -9.2013e-18)
(1.0007 -0.00068235 -2.8449e-17)
(1.0002 -0.00017175 -1.7798e-17)
(1.0039 0.00038272 -3.2865e-18)
(0.98068 0.0018848 5.8054e-18)
(1.0458 0.009144 -2.865e-17)
(0.94126 0.0016942 8.6917e-18)
(0.9723 0.054589 2.7503e-18)
(0.99991 -5.5947e-05 2.5567e-18)
(0.99998 -0.00038447 1.342e-17)
(1.0001 -0.0005029 -1.1953e-17)
(1.0003 -0.00076597 -3.4361e-18)
(1.0004 -0.0006691 -1.7658e-17)
(1.0007 -0.00071654 3.095e-17)
(1.0001 -0.00017929 -1.5622e-17)
(1.0044 0.00039273 1.3622e-17)
(0.9793 0.0018861 -1.7892e-18)
(1.0463 0.0096144 2.6852e-17)
(0.947 0.0018747 -8.4713e-18)
(0.96975 0.053203 -4.5873e-18)
(0.99991 -5.8313e-05 -4.9035e-19)
(0.99998 -0.00040133 -7.7179e-18)
(1.0001 -0.00052479 -1.6737e-17)
(1.0003 -0.00080002 -9.4152e-18)
(1.0005 -0.00069849 1.7127e-17)
(1.0007 -0.00075131 -3.9467e-17)
(1.0001 -0.00018716 -2.409e-18)
(1.005 0.00040354 -1.8404e-17)
(0.97795 0.0018778 2.8877e-18)
(1.0466 0.010063 -7.7443e-18)
(0.95273 0.0021027 9.017e-18)
(0.96811 0.051927 1.9434e-18)
(0.9999 -6.0702e-05 2.5687e-18)
(0.99997 -0.00041829 -8.2671e-18)
(1.0001 -0.00054684 -1.6533e-18)
(1.0003 -0.00083435 2.2878e-18)
(1.0005 -0.00072811 5.4205e-18)
(1.0008 -0.00078669 1.1404e-17)
(1 -0.00019542 3.9515e-17)
(1.0056 0.00041532 2.1991e-18)
(0.97662 0.0018599 4.7033e-18)
(1.0467 0.010487 8.5271e-18)
(0.95839 0.0023728 -7.7026e-18)
(0.96731 0.050757 1.4879e-18)
(0.99989 -6.3117e-05 -1.4729e-18)
(0.99997 -0.00043535 8.2595e-18)
(1.0001 -0.00056905 2.3791e-17)
(1.0003 -0.00086895 -2.3051e-17)
(1.0005 -0.00075798 -8.4313e-18)
(1.0008 -0.00082268 -2.0066e-18)
(0.99996 -0.00020415 -1.3025e-17)
(1.0063 0.00042826 1.7058e-18)
(0.97533 0.0018325 -8.1518e-18)
(1.0464 0.010886 -3.1374e-18)
(0.96391 0.0026795 -2.1293e-19)
(0.96724 0.049689 -1.8189e-18)
(0.99988 -6.5559e-05 -1.5831e-18)
(0.99996 -0.00045252 4.9438e-18)
(1.0001 -0.00059141 -5.7546e-19)
(1.0003 -0.00090383 7.6434e-18)
(1.0005 -0.0007881 -1.5556e-17)
(1.0009 -0.0008593 2.2705e-17)
(0.99988 -0.00021342 6.4944e-18)
(1.007 0.00044253 -1.6275e-17)
(0.9741 0.0017958 -1.0446e-17)
(1.046 0.011259 -1.2404e-17)
(0.96925 0.0030169 1.2244e-18)
(0.9678 0.048717 -3.3225e-18)
(0.99987 -6.8028e-05 5.5012e-19)
(0.99995 -0.00046979 -1.1807e-17)
(1.0001 -0.00061395 1.4731e-17)
(1.0003 -0.00093901 2.114e-17)
(1.0005 -0.00081849 3.049e-17)
(1.0009 -0.00089657 -1.6675e-17)
(0.99978 -0.00022331 -1.6148e-17)
(1.0077 0.00045831 3.3033e-18)
(0.97292 0.00175 9.7876e-18)
(1.0453 0.011606 9.7051e-18)
(0.97436 0.0033795 5.676e-18)
(0.96891 0.047834 3.3022e-18)
(0.99986 -7.0526e-05 1.0543e-18)
(0.99995 -0.00048717 9.3886e-18)
(1.0001 -0.00063665 -3.3845e-17)
(1.0004 -0.00097448 -3.0631e-18)
(1.0005 -0.00084915 -2.5327e-17)
(1.001 -0.00093451 -1.0503e-17)
(0.99967 -0.00023389 2.2858e-20)
(1.0084 0.00047574 -3.7761e-18)
(0.97182 0.0016954 -1.9272e-17)
(1.0443 0.011925 -1.5489e-17)
(0.97922 0.0037616 -7.7395e-18)
(0.97046 0.047031 -1.6224e-18)
(0.99985 -7.3054e-05 -6.8331e-19)
(0.99994 -0.00050467 -6.1058e-18)
(1.0001 -0.00065954 2.6629e-17)
(1.0004 -0.0010103 -2.9227e-17)
(1.0006 -0.00088009 -1.9041e-18)
(1.0011 -0.00097312 2.2367e-17)
(0.99954 -0.00024527 6.4607e-19)
(1.0092 0.00049496 3.6027e-18)
(0.97079 0.0016321 1.6872e-17)
(1.0432 0.012218 2.0129e-17)
(0.98379 0.004158 4.4313e-18)
(0.97238 0.046302 -9.0225e-19)
(0.99984 -7.5614e-05 -1.7788e-18)
(0.99993 -0.00052228 -2.2516e-18)
(1.0001 -0.0006826 -1.1805e-17)
(1.0004 -0.0010464 1.456e-17)
(1.0006 -0.00091133 2.7834e-17)
(1.0011 -0.0010124 -9.885e-18)
(0.9994 -0.00025752 2.0104e-17)
(1.01 0.00051608 2.7002e-18)
(0.96985 0.0015607 -1.9091e-18)
(1.0418 0.012483 9.0978e-18)
(0.98806 0.0045636 -4.9374e-18)
(0.97458 0.045639 -6.2551e-19)
(0.99983 -7.8205e-05 4.4488e-19)
(0.99992 -0.00054 -5.9545e-18)
(1.0001 -0.00070585 4.4189e-18)
(1.0004 -0.0010828 -1.4839e-17)
(1.0006 -0.00094287 -2.9439e-17)
(1.0012 -0.0010524 6.2294e-18)
(0.99925 -0.00027074 -2.9002e-17)
(1.0108 0.00053921 -6.1699e-18)
(0.96899 0.0014814 6.1948e-18)
(1.0403 0.012721 -2.8563e-17)
(0.992 0.0049737 3.3876e-18)
(0.97698 0.045035 1.7792e-18)
(0.99982 -8.0831e-05 7.8123e-19)
(0.99992 -0.00055785 1.6133e-17)
(1.0001 -0.0007293 7.3988e-18)
(1.0004 -0.0011195 6.0445e-18)
(1.0006 -0.00097474 2.354e-17)
(1.0012 -0.0010932 1.8574e-18)
(0.99908 -0.00028503 2.0023e-17)
(1.0117 0.00056444 4.4268e-18)
(0.96824 0.0013947 -1.8818e-17)
(1.0386 0.012933 9.8313e-18)
(0.99561 0.005384 2.2888e-18)
(0.97953 0.044481 1.839e-18)
(0.99981 -8.349e-05 -2.7278e-18)
(0.99991 -0.00057582 -5.3103e-18)
(1.0001 -0.00075294 -6.5007e-18)
(1.0004 -0.0011566 9.9264e-18)
(1.0006 -0.0010069 1.1371e-17)
(1.0013 -0.0011346 -3.6988e-18)
(0.9989 -0.00030048 -1.6818e-17)
(1.0125 0.00059183 2.0148e-17)
(0.96759 0.001301 3.489e-18)
(1.0368 0.013119 -2.9683e-18)
(0.99888 0.0057905 9.4421e-18)
(0.98216 0.043972 -1.2755e-18)
(0.99979 -8.6186e-05 5.605e-18)
(0.9999 -0.00059391 6.3593e-18)
(1.0001 -0.00077679 -6.9099e-18)
(1.0004 -0.0011941 -6.1834e-18)
(1.0006 -0.0010395 -1.6317e-17)
(1.0014 -0.0011768 -6.3528e-18)
(0.9987 -0.00031719 8.291e-18)
(1.0134 0.00062143 -3.2312e-17)
(0.96705 0.0012008 8.5292e-18)
(1.0348 0.013279 -3.5065e-18)
(1.0018 0.0061896 -9.9913e-18)
(0.98482 0.0435 3.6977e-18)
(0.99978 -8.8918e-05 -2.4738e-18)
(0.99989 -0.00061213 -1.1173e-17)
(1.0001 -0.00080085 -6.6967e-18)
(1.0004 -0.0012319 -1.1734e-17)
(1.0006 -0.0010723 -4.9816e-18)
(1.0015 -0.0012197 1.8679e-17)
(0.99849 -0.00033528 -8.1431e-18)
(1.0143 0.00065326 3.5941e-17)
(0.96662 0.0010947 8.0373e-18)
(1.0328 0.013414 1.0641e-17)
(1.0044 0.006578 4.2092e-18)
(0.98746 0.043059 -5.9897e-18)
(0.99977 -9.1688e-05 -1.3121e-18)
(0.99988 -0.00063048 8.3091e-18)
(1.0001 -0.00082513 1.3268e-17)
(1.0004 -0.00127 3.1636e-17)
(1.0006 -0.0011056 6.6032e-18)
(1.0016 -0.0012633 -1.2812e-17)
(0.99826 -0.00035485 3.9299e-18)
(1.0152 0.00068732 -3.866e-17)
(0.96631 0.00098319 -9.7448e-18)
(1.0307 0.013525 -5.9154e-18)
(1.0067 0.006953 4.1218e-18)
(0.99004 0.042644 6.0139e-18)
(0.99975 -9.4497e-05 1.0042e-18)
(0.99987 -0.00064897 1.967e-18)
(1.0001 -0.00084963 -1.303e-17)
(1.0004 -0.0013086 -5.2697e-18)
(1.0007 -0.0011392 8.3835e-18)
(1.0017 -0.0013077 1.5335e-17)
(0.99801 -0.00037601 1.3661e-17)
(1.0161 0.00072362 3.8293e-18)
(0.96612 0.00086691 1.09e-17)
(1.0285 0.013613 -2.7389e-18)
(1.0086 0.0073121 -7.3549e-18)
(0.99253 0.042249 -1.5518e-18)
(0.99974 -9.7347e-05 -4.112e-20)
(0.99986 -0.00066759 2.2417e-18)
(1.0001 -0.00087435 2.9122e-18)
(1.0004 -0.0013475 -6.841e-18)
(1.0007 -0.0011733 7.7542e-20)
(1.0018 -0.0013529 -1.3904e-17)
(0.99775 -0.00039887 -9.2406e-18)
(1.0169 0.00076212 2.8303e-17)
(0.96605 0.00074645 -1.6465e-17)
(1.0262 0.013678 1.0634e-17)
(1.0103 0.0076531 3.8817e-18)
(0.99491 0.041869 -4.3655e-18)
(0.99972 -0.00010024 -3.1102e-18)
(0.99985 -0.00068636 -1.0513e-17)
(1 -0.00089932 7.4345e-18)
(1.0005 -0.0013868 -1.8683e-17)
(1.0007 -0.0012077 -2.12e-17)
(1.0019 -0.0013988 -1.9208e-17)
(0.99748 -0.00042355 -1.8827e-17)
(1.0178 0.00080276 -2.8992e-18)
(0.9661 0.00062243 1.4387e-17)
(1.024 0.013721 -9.1204e-18)
(1.0116 0.0079742 3.8443e-19)
(0.99714 0.041501 4.1078e-18)
(0.99971 -0.00010317 6.0029e-18)
(0.99984 -0.00070526 1.0987e-17)
(1 -0.00092452 -1.1989e-17)
(1.0005 -0.0014265 1.5339e-17)
(1.0007 -0.0012426 -2.4852e-18)
(1.002 -0.0014454 1.259e-17)
(0.99718 -0.00045016 2.2629e-17)
(1.0187 0.00084549 -2.1947e-17)
(0.96627 0.00049551 -7.2921e-18)
(1.0217 0.013743 9.6254e-18)
(1.0127 0.008274 3.3443e-18)
(0.99921 0.041139 -1.94e-18)
(0.99969 -0.00010615 -4.5042e-18)
(0.99982 -0.00072431 -3.2472e-18)
(1 -0.00094997 -2.5066e-18)
(1.0005 -0.0014666 1.7551e-17)
(1.0007 -0.0012779 -5.3207e-18)
(1.0021 -0.0014927 -1.5955e-19)
(0.99688 -0.00047884 -4.4277e-18)
(1.0196 0.00089022 1.7578e-17)
(0.96656 0.00036632 -6.9196e-18)
(1.0195 0.013745 -6.6092e-18)
(1.0135 0.0085512 -9.8835e-18)
(1.0011 0.040781 2.2503e-18)
(0.99968 -0.00010917 3.0617e-18)
(0.99981 -0.00074351 -4.1172e-18)
(1 -0.00097568 5.7387e-18)
(1.0005 -0.0015071 -2.663e-17)
(1.0007 -0.0013137 3.6051e-17)
(1.0022 -0.0015408 5.2161e-18)
(0.99655 -0.00050971 1.7463e-17)
(1.0204 0.00093687 -1.0874e-17)
(0.96697 0.00023552 9.4695e-20)
(1.0172 0.013728 4.9106e-18)
(1.0141 0.0088049 -1.914e-18)
(1.0028 0.040424 -8.4725e-19)
(0.99966 -0.00011224 -8.7588e-19)
(0.9998 -0.00076287 8.0474e-19)
(1 -0.0010017 1.3982e-17)
(1.0005 -0.001548 7.2599e-18)
(1.0007 -0.00135 -1.8022e-17)
(1.0023 -0.0015896 -1.0217e-17)
(0.99622 -0.00054289 3.0454e-18)
(1.0212 0.00098532 -5.2838e-18)
(0.9675 0.00010377 1.1577e-17)
(1.0151 0.013693 -3.2247e-18)
(1.0145 0.0090344 9.2379e-18)
(1.0044 0.040065 -3.08e-18)
(0.99964 -0.00011536 -1.5245e-18)
(0.99978 -0.00078238 -7.7576e-18)
(1 -0.0010279 -4.1572e-18)
(1.0005 -0.0015894 2.9152e-17)
(1.0007 -0.0013867 -1.6055e-17)
(1.0025 -0.0016391 -8.6536e-19)
(0.99587 -0.00057852 -4.5587e-17)
(1.022 0.0010354 5.1972e-18)
(0.96814 -2.8285e-05 -2.1637e-17)
(1.0129 0.01364 -6.9572e-18)
(1.0146 0.0092393 -9.2219e-18)
(1.0058 0.039701 1.8291e-18)
(0.99962 -0.00011853 -6.5811e-19)
(0.99977 -0.00080205 4.8062e-18)
(1 -0.0010544 -1.7161e-18)
(1.0005 -0.0016312 -1.6974e-17)
(1.0007 -0.001424 2.3071e-17)
(1.0026 -0.0016893 -2.1272e-18)
(0.99551 -0.00061674 2.4145e-17)
(1.0228 0.0010871 -3.1911e-18)
(0.96889 -0.00016002 1.0508e-17)
(1.0109 0.013571 8.6982e-18)
(1.0146 0.0094194 7.6055e-18)
(1.0069 0.039331 -4.3983e-19)
(0.99961 -0.00012175 3.7307e-18)
(0.99976 -0.00082188 -2.8755e-18)
(0.99999 -0.0010812 -6.003e-18)
(1.0005 -0.0016734 1.8526e-17)
(1.0007 -0.0014619 1.6928e-18)
(1.0028 -0.0017402 2.6373e-17)
(0.99514 -0.00065769 4.1634e-18)
(1.0236 0.0011402 1.5253e-17)
(0.96974 -0.0002908 3.9421e-18)
(1.0089 0.013486 -2.8143e-18)
(1.0144 0.0095746 9.874e-19)
(1.008 0.038954 3.9984e-19)
(0.99959 -0.00012502 1.0637e-18)
(0.99974 -0.00084187 1.1758e-18)
(0.99998 -0.0011083 -5.443e-18)
(1.0005 -0.0017161 -3.6894e-17)
(1.0007 -0.0015003 5.1262e-18)
(1.0029 -0.0017917 2.287e-18)
(0.99475 -0.00070151 -1.8051e-17)
(1.0243 0.0011946 2.1401e-19)
(0.9707 -0.00042005 1.1606e-17)
(1.007 0.013386 -1.808e-18)
(1.0141 0.0097049 -4.8032e-18)
(1.0088 0.038567 2.345e-18)
(0.99957 -0.00012834 -4.555e-18)
(0.99973 -0.00086204 4.9831e-18)
(0.99997 -0.0011357 8.9748e-19)
(1.0005 -0.0017593 2.0487e-17)
(1.0007 -0.0015393 -2.3385e-17)
(1.0031 -0.0018438 -1.0103e-17)
(0.99436 -0.00074835 1.846e-17)
(1.0249 0.0012501 -1.0327e-17)
(0.97175 -0.00054717 -1.8341e-17)
(1.0053 0.013273 -8.9267e-18)
(1.0136 0.0098109 6.1135e-18)
(1.0095 0.03817 7.7736e-19)
(0.99955 -0.00013172 -4.8197e-19)
(0.99971 -0.00088238 -5.0143e-18)
(0.99996 -0.0011634 9.5562e-18)
(1.0005 -0.001803 9.0835e-18)
(1.0007 -0.0015789 2.8881e-17)
(1.0033 -0.0018965 3.8807e-18)
(0.99395 -0.00079838 1.639e-17)
(1.0256 0.0013065 2.6176e-17)
(0.97289 -0.00067162 -8.0676e-19)
(1.0036 0.013148 1.5699e-17)
(1.0131 0.0098927 -6.4816e-19)
(1.01 0.037762 -2.2776e-18)
(0.99953 -0.00013516 4.6716e-18)
(0.99969 -0.00090289 -7.3003e-18)
(0.99995 -0.0011915 -1.4504e-17)
(1.0005 -0.0018471 -2.4145e-18)
(1.0007 -0.0016192 -3.1345e-17)
(1.0035 -0.0019497 -1.1548e-17)
(0.99354 -0.00085174 -5.693e-18)
(1.0262 0.0013637 1.9239e-19)
(0.97412 -0.00079289 2.386e-17)
(1.0021 0.01301 3.6118e-18)
(1.0124 0.0099511 -8.3682e-18)
(1.0104 0.037342 1.3609e-18)
(0.9995 -0.00013866 -5.2373e-18)
(0.99968 -0.00092359 9.1194e-18)
(0.99994 -0.0012198 7.5923e-18)
(1.0005 -0.0018917 -4.811e-18)
(1.0006 -0.0016601 2.5206e-17)
(1.0037 -0.0020035 1.3814e-17)
(0.99312 -0.00090859 -4.4992e-18)
(1.0267 0.0014215 -2.6372e-17)
(0.97542 -0.0009105 -8.1278e-19)
(1.0007 0.012862 -1.0329e-17)
(1.0118 0.0099867 9.9009e-18)
(1.0107 0.036911 -1.7831e-18)
(0.99948 -0.00014221 3.147e-18)
(0.99966 -0.00094446 -1.745e-18)
(0.99992 -0.0012485 1.0052e-17)
(1.0005 -0.0019368 -2.024e-17)
(1.0006 -0.0017018 8.2289e-18)
(1.0039 -0.0020577 -4.9628e-18)
(0.9927 -0.00096912 -9.6866e-18)
(1.0272 0.0014797 -2.1151e-18)
(0.97679 -0.001024 -2.8779e-17)
(0.9994 0.012704 6.8083e-18)
(1.011 0.01 -9.0529e-18)
(1.0109 0.036468 5.9312e-19)
(0.99946 -0.00014582 2.4879e-19)
(0.99964 -0.00096553 -5.4893e-18)
(0.99991 -0.0012775 5.7079e-18)
(1.0006 -0.0019824 2.6639e-17)
(1.0006 -0.0017442 -1.9601e-17)
(1.0041 -0.0021123 1.5964e-17)
(0.99228 -0.0010335 -5.5986e-18)
(1.0276 0.0015382 4.9012e-18)
(0.97822 -0.001133 3.4185e-17)
(0.99827 0.012537 -1.2636e-17)
(1.0103 0.0099926 1.3824e-17)
(1.0109 0.036013 1.6745e-18)
(0.99944 -0.0001495 4.4654e-19)
(0.99962 -0.00098679 -1.1359e-18)
(0.9999 -0.0013069 -8.2121e-18)
(1.0006 -0.0020285 -4.0105e-18)
(1.0006 -0.0017874 1.7081e-17)
(1.0043 -0.0021673 1.266e-19)
(0.99185 -0.0011018 -1.1e-17)
(1.028 0.0015967 -1.1695e-17)
(0.97971 -0.0012371 -1.4308e-17)
(0.99727 0.012361 -1.1888e-18)
(1.0095 0.0099648 2.5185e-18)
(1.0109 0.035546 1.7167e-19)
(0.99941 -0.00015325 -7.1863e-19)
(0.9996 -0.0010082 1.3519e-17)
(0.99988 -0.0013367 -5.4769e-18)
(1.0006 -0.0020752 -2.2663e-17)
(1.0006 -0.0018313 7.8726e-18)
(1.0045 -0.0022226 -4.0672e-17)
(0.99142 -0.0011744 5.4898e-18)
(1.0284 0.0016551 7.3655e-18)
(0.98125 -0.0013361 6.6458e-19)
(0.99642 0.012179 1.282e-17)
(1.0088 0.0099177 -8.5461e-19)
(1.0109 0.035067 -4.6694e-18)
(0.99939 -0.00015706 -1.8973e-19)
(0.99958 -0.0010299 -2.6533e-19)
(0.99987 -0.0013668 7.3726e-18)
(1.0006 -0.0021223 1.3992e-17)
(1.0005 -0.0018762 -3.1286e-17)
(1.0048 -0.0022781 1.7572e-18)
(0.99099 -0.0012513 9.8266e-18)
(1.0287 0.0017132 1.1531e-17)
(0.98282 -0.0014295 -9.0427e-18)
(0.9957 0.011991 -1.2475e-17)
(1.008 0.0098526 -1.3672e-17)
(1.0107 0.034578 4.9229e-18)
(0.99936 -0.00016093 -1.2414e-18)
(0.99956 -0.0010517 3.7776e-19)
(0.99985 -0.0013973 -3.5548e-18)
(1.0006 -0.00217 -9.3416e-18)
(1.0005 -0.0019219 1.7341e-17)
(1.005 -0.0023338 2.183e-17)
(0.99056 -0.0013328 2.8644e-18)
(1.0289 0.0017707 5.8418e-18)
(0.98443 -0.0015173 1.4421e-17)
(0.99513 0.011797 2.1018e-18)
(1.0073 0.0097704 1.0094e-17)
(1.0105 0.034078 -2.9855e-18)
(0.99934 -0.00016488 2.2848e-18)
(0.99954 -0.0010738 6.9647e-19)
(0.99984 -0.0014282 -5.0798e-18)
(1.0006 -0.0022183 1.38e-18)
(1.0005 -0.0019686 -9.4019e-18)
(1.0053 -0.0023896 -5.2363e-18)
(0.99014 -0.001419 -1.0593e-18)
(1.0291 0.0018275 -2.6378e-17)
(0.98605 -0.0015992 2.8283e-18)
(0.99469 0.011599 -4.2486e-18)
(1.0066 0.0096724 -4.1057e-18)
(1.0103 0.033568 -3.5877e-18)
(0.99931 -0.0001689 -4.6627e-18)
(0.99952 -0.0010961 9.0986e-19)
(0.99982 -0.0014594 2.6944e-18)
(1.0006 -0.0022671 -1.734e-17)
(1.0004 -0.0020162 -1.0717e-17)
(1.0055 -0.0024454 -2.4308e-17)
(0.98973 -0.00151 5.1063e-18)
(1.0292 0.0018833 1.0771e-17)
(0.9877 -0.0016751 -3.0339e-17)
(0.99439 0.011397 1.9597e-17)
(1.006 0.0095597 -4.4301e-18)
(1.0101 0.03305 2.3167e-18)
(0.99928 -0.00017299 4.2801e-18)
(0.9995 -0.0011186 2.0363e-18)
(0.9998 -0.0014912 1.0361e-18)
(1.0006 -0.0023164 5.4999e-18)
(1.0004 -0.0020649 -2.3661e-18)
(1.0058 -0.0025012 4.7112e-17)
(0.98932 -0.0016062 1.8329e-17)
(1.0292 0.0019379 -1.6747e-17)
(0.98935 -0.0017449 2.9197e-17)
(0.99421 0.011193 -7.3114e-18)
(1.0055 0.0094336 -2.9145e-18)
(1.0099 0.032523 -1.1485e-18)
(0.99926 -0.00017716 1.0498e-18)
(0.99947 -0.0011413 -1.2895e-17)
(0.99978 -0.0015233 2.0736e-18)
(1.0006 -0.0023663 2.4697e-17)
(1.0004 -0.0021146 1.8317e-17)
(1.0061 -0.0025568 -7.6178e-19)
(0.98892 -0.0017075 -2.5395e-17)
(1.0292 0.0019911 5.0733e-18)
(0.991 -0.0018086 -6.5832e-18)
(0.99417 0.010987 -1.0107e-17)
(1.005 0.0092952 7.4193e-18)
(1.0096 0.031989 1.0757e-18)
(0.99923 -0.0001814 -4.1522e-18)
(0.99945 -0.0011642 -4.2985e-18)
(0.99976 -0.0015558 -1.1232e-17)
(1.0006 -0.0024168 -2.0712e-17)
(1.0003 -0.0021655 -1.8429e-17)
(1.0064 -0.0026122 -2.1409e-17)
(0.98854 -0.0018143 4.687e-18)
(1.0291 0.0020427 3.9419e-17)
(0.99265 -0.0018662 2.8675e-18)
(0.99424 0.01078 -8.7832e-19)
(1.0046 0.0091459 -2.6168e-18)
(1.0094 0.031449 -2.8721e-18)
(0.9992 -0.00018572 3.081e-18)
(0.99943 -0.0011874 3.9933e-18)
(0.99974 -0.0015888 1.7309e-17)
(1.0006 -0.0024678 1.4345e-17)
(1.0003 -0.0022176 1.7928e-17)
(1.0067 -0.0026673 -7.9588e-19)
(0.98817 -0.0019266 -2.6109e-17)
(1.029 0.0020923 -2.1305e-17)
(0.99428 -0.0019176 7.1142e-18)
(0.99443 0.010573 3.4982e-18)
(1.0042 0.0089868 5.8895e-18)
(1.0092 0.030903 2.225e-18)
(0.99917 -0.00019013 -2.1758e-18)
(0.9994 -0.0012108 6.264e-18)
(0.99972 -0.0016223 -1.1452e-17)
(1.0006 -0.0025194 2.0759e-18)
(1.0002 -0.0022709 8.3339e-18)
(1.007 -0.0027219 -2.0927e-18)
(0.98781 -0.0020447 5.8658e-18)
(1.0288 0.0021397 5.9151e-18)
(0.99589 -0.0019631 2.3382e-18)
(0.99473 0.010367 8.6344e-18)
(1.0039 0.0088191 -7.0803e-18)
(1.009 0.030353 4.5111e-19)
(0.99914 -0.00019461 3.285e-18)
(0.99937 -0.0012344 3.8821e-19)
(0.9997 -0.0016562 -5.36e-18)
(1.0006 -0.0025716 8.2627e-19)
(1.0001 -0.0023255 -1.3704e-18)
(1.0073 -0.0027761 -2.067e-17)
(0.98747 -0.0021685 1.6362e-17)
(1.0286 0.0021846 2.0991e-17)
(0.99747 -0.0020028 -1.1655e-17)
(0.99512 0.010162 -1.2007e-17)
(1.0037 0.0086441 -2.0641e-18)
(1.0089 0.029799 3.8072e-18)
(0.99911 -0.00019918 -2.3863e-18)
(0.99935 -0.0012583 -2.9897e-19)
(0.99968 -0.0016907 6.6645e-18)
(1.0007 -0.0026243 -1.5872e-17)
(1.0001 -0.0023815 -1.238e-17)
(1.0076 -0.0028296 2.6096e-17)
(0.98715 -0.0022983 -2.5013e-18)
(1.0283 0.0022268 -2.2227e-17)
(0.99902 -0.0020369 2.9672e-18)
(0.99561 0.0099583 1.13e-17)
(1.0036 0.0084629 6.9997e-18)
(1.0087 0.029243 -1.3724e-18)
(0.99907 -0.00020384 2.3711e-19)
(0.99932 -0.0012824 2.1898e-18)
(0.99966 -0.0017256 3.6412e-18)
(1.0007 -0.0026777 8.2052e-18)
(1 -0.002439 2.4261e-17)
(1.0079 -0.0028824 6.0833e-18)
(0.98684 -0.0024342 -2.1771e-17)
(1.0279 0.0022659 2.0822e-18)
(1.0005 -0.0020655 7.6405e-18)
(0.99618 0.0097575 -1.0174e-17)
(1.0036 0.0082767 -4.7282e-18)
(1.0087 0.028685 -1.5833e-18)
(0.99904 -0.00020859 6.7322e-19)
(0.99929 -0.0013068 -3.8099e-19)
(0.99963 -0.001761 -9.6071e-18)
(1.0007 -0.0027316 -1.7649e-19)
(0.99992 -0.0024979 -4.7966e-17)
(1.0082 -0.0029344 7.4997e-18)
(0.98657 -0.0025762 2.1386e-17)
(1.0275 0.0023017 -5.9834e-18)
(1.002 -0.002089 -8.0034e-18)
(0.99683 0.0095599 1.6885e-17)
(1.0037 0.0080866 5.6493e-18)
(1.0086 0.028126 4.0975e-18)
(0.99901 -0.00021342 7.2312e-19)
(0.99926 -0.0013314 -7.9042e-19)
(0.99961 -0.0017969 1.7374e-17)
(1.0007 -0.0027862 3.7841e-18)
(0.99984 -0.0025584 4.2502e-17)
(1.0086 -0.0029855 -2.6434e-17)
(0.98631 -0.0027244 -7.1573e-18)
(1.0271 0.0023337 5.6306e-18)
(1.0034 -0.0021078 2.7544e-18)
(0.99755 0.0093658 -9.4986e-18)
(1.0038 0.0078935 -9.1735e-19)
(1.0086 0.027569 -3.0202e-18)
(0.99897 -0.00021836 -2.8261e-18)
(0.99923 -0.0013563 1.3269e-18)
(0.99958 -0.0018334 -1.0212e-17)
(1.0007 -0.0028413 4.9756e-18)
(0.99976 -0.0026205 -1.6149e-17)
(1.0089 -0.0030356 3.5848e-18)
(0.98608 -0.0028789 2.8654e-17)
(1.0266 0.0023617 -2.1074e-17)
(1.0048 -0.0021221 -1.0127e-17)
(0.99833 0.0091759 -9.3854e-18)
(1.004 0.0076986 -4.4848e-18)
(1.0087 0.027012 -8.2715e-19)
(0.99894 -0.00022338 3.5201e-18)
(0.9992 -0.0013815 -3.1515e-18)
(0.99955 -0.0018704 -9.9088e-18)
(1.0007 -0.002897 -7.9345e-18)
(0.99967 -0.0026844 -2.6399e-17)
(1.0092 -0.0030846 -1.6623e-17)
(0.98587 -0.0030396 -1.7569e-17)
(1.026 0.0023852 1.9594e-17)
(1.0061 -0.0021324 9.8138e-18)
(0.99916 0.0089903 1.4209e-17)
(1.0043 0.0075028 -1.7509e-18)
(1.0088 0.026458 3.9884e-18)
(0.9989 -0.00022851 -5.6574e-18)
(0.99917 -0.0014069 5.106e-18)
(0.99953 -0.001908 2.4261e-17)
(1.0007 -0.0029534 -1.8714e-18)
(0.99958 -0.0027501 2.9206e-17)
(1.0095 -0.0031324 1.2549e-18)
(0.9857 -0.0032066 -1.6818e-17)
(1.0255 0.002404 7.6674e-18)
(1.0073 -0.0021392 -3.5394e-18)
(1 0.0088096 -2.9757e-18)
(1.0046 0.0073069 5.683e-18)
(1.009 0.025906 -2.6969e-18)
(0.99886 -0.00023373 4.636e-18)
(0.99914 -0.0014326 -6.9392e-18)
(0.9995 -0.0019462 -2.8285e-17)
(1.0007 -0.0030103 1.2241e-17)
(0.99948 -0.0028177 -2.0805e-17)
(1.0099 -0.0031788 2.2977e-17)
(0.98555 -0.0033799 5.4839e-18)
(1.0248 0.0024176 -7.2996e-18)
(1.0085 -0.0021428 -1.6982e-18)
(1.0009 0.0086338 -7.4419e-18)
(1.005 0.0071118 -9.2527e-18)
(1.0092 0.025359 3.7159e-18)
(0.99882 -0.00023906 -3.4147e-18)
(0.99911 -0.0014586 2.3074e-18)
(0.99947 -0.0019849 1.7186e-17)
(1.0007 -0.0030679 -1.6137e-17)
(0.99938 -0.0028872 3.3473e-17)
(1.0102 -0.0032239 -1.7832e-17)
(0.98543 -0.0035593 3.1961e-18)
(1.0242 0.0024257 -1.1535e-17)
(1.0096 -0.0021439 5.5374e-18)
(1.0019 0.0084632 -1.0377e-18)
(1.0055 0.0069182 3.9625e-18)
(1.0094 0.024816 -1.656e-18)
(0.99879 -0.00024449 4.1879e-18)
(0.99907 -0.0014849 1.7963e-18)
(0.99944 -0.0020243 -1.1457e-17)
(1.0008 -0.003126 -3.2798e-19)
(0.99928 -0.0029588 -1.4794e-18)
(1.0105 -0.0032676 4.3133e-18)
(0.98535 -0.0037447 3.0322e-17)
(1.0235 0.0024279 7.8902e-18)
(1.0106 -0.002143 -1.6411e-17)
(1.0028 0.008298 -5.3863e-18)
(1.006 0.0067268 -3.7132e-18)
(1.0097 0.024279 1.7285e-18)
(0.99874 -0.00025003 -4.8e-18)
(0.99904 -0.0015115 -6.6562e-18)
(0.99941 -0.0020643 4.8069e-18)