/*--------------------------------*- C++ -*----------------------------------*\
  =========                 |
  \\      /  F ield         | OpenFOAM: The Open Source CFD Toolbox
   \\    /   O peration     | Website:  https://openfoam.org
    \\  /    A nd           | Version:  6.0
     \\/     M anipulation  |
\*---------------------------------------------------------------------------*/
FoamFile
{
    version     2.0;
    format      ascii;
    class       volVectorField;
    location    "1.68";
    object      U;
}
// * * * * * * * * * * * * * * * * * * * * * * * * * * * * * * * * * * * * * //

dimensions      [0 1 -1 0 0 0 0];

internalField   nonuniform List<vector> 
13500
(
(1 1.4574e-06 -4.3307e-18)
(1 -3.2152e-06 2.9302e-18)
(1 -6.318e-06 -1.2605e-17)
(1 -8.8072e-06 -8.7159e-18)
(1 -9.3481e-06 1.6442e-17)
(1 -6.5347e-06 3.0522e-17)
(1 -2.905e-07 2.6344e-17)
(0.99998 1.5707e-05 -4.2248e-18)
(0.99991 4.5589e-05 1.5643e-17)
(0.9998 7.3709e-05 3.3503e-18)
(0.99574 0.00074828 2.9006e-17)
(1.0192 0.010825 7.9294e-18)
(1 4.7446e-06 2.683e-18)
(1 -9.4884e-06 -8.8987e-18)
(1 -1.7432e-05 6.0195e-18)
(1 -2.5332e-05 -3.437e-19)
(1 -2.585e-05 -4.3845e-19)
(1 -1.7371e-05 -3.67e-17)
(1 1.5803e-06 -4.5501e-17)
(0.99993 4.9771e-05 -2.4173e-17)
(0.9997 0.00014566 -1.5612e-17)
(0.99982 0.00018578 -1.6568e-18)
(0.98631 0.0021561 -1.3736e-17)
(1.054 0.030576 -4.8011e-18)
(1 8.0347e-06 -3.4653e-18)
(1 -1.5843e-05 1.768e-17)
(1 -2.8679e-05 3.131e-18)
(1 -4.2077e-05 1.0049e-17)
(1 -4.2556e-05 -3.7914e-18)
(1 -2.8473e-05 2.9398e-17)
(1 3.4392e-06 -6.4054e-18)
(0.99989 8.3857e-05 5.4911e-18)
(0.99948 0.00025212 -1.894e-17)
(1.0003 0.00032025 2.5169e-17)
(0.97628 0.0031964 -7.1826e-18)
(1.0829 0.045042 1.6874e-18)
(1 1.1263e-05 9.0592e-18)
(1 -2.2291e-05 -1.7141e-17)
(1 -4.0262e-05 -1.4842e-17)
(1 -5.9146e-05 -7.0505e-19)
(1 -5.9699e-05 5.853e-18)
(1 -4.0004e-05 -8.1607e-19)
(1 5.0453e-06 6.3108e-17)
(0.99986 0.00011747 9.8927e-18)
(0.99923 0.00036342 2.2396e-17)
(1.0011 0.00048349 -9.1168e-18)
(0.96605 0.0038921 3.4978e-17)
(1.1045 0.055511 -7.6811e-18)
(1 1.4488e-05 -6.3655e-18)
(1 -2.8771e-05 1.4814e-17)
(1 -5.1894e-05 1.2634e-17)
(1 -7.6289e-05 1.2861e-17)
(1.0001 -7.6896e-05 2.8699e-18)
(1 -5.1598e-05 2.1606e-17)
(1 6.6444e-06 -2.8182e-17)
(0.99984 0.00015064 2.0091e-18)
(0.99894 0.00047767 -1.3732e-17)
(1.0024 0.0006791 -2.1752e-18)
(0.95603 0.0042911 -9.0704e-18)
(1.1188 0.063122 2.1283e-18)
(1 1.7715e-05 6.4419e-18)
(1 -3.5289e-05 -6.1414e-18)
(1 -6.3567e-05 3.8585e-18)
(1 -9.351e-05 -2.5477e-17)
(1.0001 -9.4151e-05 -8.4022e-20)
(1.0001 -6.3267e-05 -4.2774e-17)
(1 8.2059e-06 1.0815e-18)
(0.99982 0.00018331 -1.6128e-17)
(0.99861 0.00059286 5.2292e-18)
(1.0039 0.00091508 -2.192e-17)
(0.94657 0.0044343 -2.1842e-17)
(1.1265 0.06849 2.0599e-18)
(0.99999 2.0952e-05 -1.0663e-18)
(1 -4.1854e-05 -7.3451e-18)
(1 -7.5278e-05 -3.1358e-18)
(1.0001 -0.00011082 1.923e-17)
(1.0001 -0.00011146 -2.6581e-17)
(1.0001 -7.5023e-05 1.6366e-17)
(1 9.7258e-06 1.885e-17)
(0.99982 0.00021554 5.6744e-18)
(0.99822 0.00070696 1.1691e-17)
(1.0058 0.001199 1.18e-17)
(0.93796 0.0043582 9.411e-18)
(1.1287 0.072043 3.3118e-18)
(0.99999 2.4206e-05 -2.201e-18)
(1 -4.8476e-05 -1.4449e-18)
(1 -8.7023e-05 -2.7014e-17)
(1.0001 -0.00012824 -9.1823e-18)
(1.0001 -0.00012884 7.44e-18)
(1.0001 -8.688e-05 2.682e-17)
(1 1.1194e-05 1.1998e-17)
(0.99983 0.0002474 5.0653e-18)
(0.99778 0.00081785 -7.6416e-18)
(1.0078 0.001536 1.6529e-17)
(0.93042 0.0040981 7.6012e-18)
(1.1262 0.074145 -1.0538e-17)
(0.99999 2.7481e-05 -6.8324e-18)
(1 -5.5163e-05 6.212e-18)
(1 -9.8801e-05 4.5421e-17)
(1.0001 -0.00014577 -1.1014e-17)
(1.0001 -0.00014629 2.7862e-17)
(1.0001 -9.8851e-05 -5.2953e-17)
(1 1.2592e-05 -3.9968e-17)
(0.99986 0.00027901 9.8423e-18)
(0.99729 0.00092341 -5.7395e-18)
(1.01 0.0019283 -9.1163e-18)
(0.92412 0.0036883 -1.4044e-17)
(1.1201 0.0751 1.3792e-17)
(0.99999 3.0783e-05 4.5014e-18)
(1 -6.192e-05 2.3382e-18)
(1 -0.00011061 -3.8474e-17)
(1.0001 -0.00016342 1.5675e-17)
(1.0001 -0.0001638 -1.215e-17)
(1.0001 -0.00011095 2.2584e-17)
(1 1.3901e-05 1.4204e-17)
(0.9999 0.00031051 2.4877e-18)
(0.99674 0.0010215 5.4175e-19)
(1.0123 0.0023764 1.4445e-18)
(0.91912 0.0031611 4.4684e-18)
(1.1114 0.075164 -7.1975e-19)
(0.99999 3.4115e-05 -2.4714e-18)
(1 -6.8753e-05 -7.6685e-18)
(1 -0.00012245 9.4312e-18)
(1.0001 -0.0001812 -2.7656e-18)
(1.0001 -0.00018139 1.8755e-18)
(1.0001 -0.0001232 -2.475e-17)
(1.0001 1.5096e-05 -3.2714e-17)
(0.99995 0.0003421 -3.16e-17)
(0.99614 0.00111 1.6043e-17)
(1.0147 0.002879 1.8764e-18)
(0.91548 0.0025469 -1.1334e-17)
(1.1008 0.074541 -5.9496e-18)
(0.99998 3.748e-05 3.4113e-18)
(1 -7.5668e-05 2.8965e-18)
(1 -0.00013431 4.5452e-18)
(1.0001 -0.00019912 -2.204e-18)
(1.0001 -0.00019906 -5.6219e-18)
(1.0001 -0.00013562 9.361e-18)
(1.0001 1.6152e-05 1.8937e-17)
(1 0.00037401 1.9521e-17)
(0.9955 0.0011871 1.0309e-17)
(1.0169 0.0034335 -2.3693e-17)
(0.91316 0.0018733 1.1901e-19)
(1.089 0.073403 -6.8953e-18)
(0.99998 4.0881e-05 -3.4106e-18)
(1 -8.2669e-05 5.696e-18)
(1 -0.0001462 8.2406e-18)
(1.0001 -0.00021718 5.755e-18)
(1.0002 -0.00021681 -5.2144e-18)
(1.0002 -0.00014822 4.6019e-18)
(1.0001 1.7037e-05 4.3182e-18)
(1.0001 0.0004065 -1.7433e-18)
(0.99481 0.0012508 -1.6662e-17)
(1.0192 0.004036 2.1971e-17)
(0.91211 0.0011655 1.0609e-19)
(1.0767 0.071888 1.473e-18)
(0.99998 4.432e-05 5.1865e-18)
(1 -8.9761e-05 -4.4462e-18)
(1 -0.00015812 7.2138e-19)
(1.0001 -0.0002354 -4.8008e-18)
(1.0002 -0.00023464 1.1842e-17)
(1.0002 -0.00016103 5.6147e-18)
(1.0001 1.7713e-05 1.7376e-17)
(1.0002 0.00043985 -6.4737e-18)
(0.99409 0.0012995 -2.0355e-19)
(1.0212 0.0046815 5.3969e-18)
(0.91223 0.00044603 1.7202e-17)
(1.0643 0.070109 9.3946e-19)
(0.99997 4.78e-05 1.2509e-18)
(0.99999 -9.6948e-05 9.8676e-18)
(1 -0.00017007 1.378e-17)
(1.0001 -0.00025378 -4.7865e-18)
(1.0002 -0.00025255 8.5749e-18)
(1.0002 -0.00017406 -2.6211e-18)
(1.0001 1.814e-05 -3.0433e-17)
(1.0003 0.00047437 2.0491e-17)
(0.99334 0.0013318 -1.8792e-17)
(1.0232 0.0053649 -3.1128e-17)
(0.91342 -0.00026552 -3.7767e-18)
(1.0523 0.068156 8.7109e-19)
(0.99997 5.1322e-05 -3.1913e-18)
(0.99999 -0.00010423 -1.0494e-17)
(1 -0.00018205 -3.3074e-17)
(1.0001 -0.00027234 8.0644e-18)
(1.0002 -0.00027056 -1.3013e-17)
(1.0002 -0.00018733 8.4035e-18)
(1.0001 1.827e-05 -2.8476e-18)
(1.0005 0.00051039 -1.2335e-17)
(0.99258 0.0013463 4.1254e-18)
(1.0249 0.0060801 1.8588e-17)
(0.91554 -0.00095231 -7.9246e-18)
(1.0408 0.066103 1.2142e-17)
(0.99997 5.4888e-05 3.3577e-19)
(0.99999 -0.00011162 7.8486e-18)
(1 -0.00019405 2.2834e-17)
(1.0001 -0.00029108 -1.8162e-18)
(1.0002 -0.00028865 -1.2928e-17)
(1.0002 -0.00020087 -1.566e-17)
(1.0001 1.8053e-05 1.0877e-17)
(1.0006 0.00054822 7.0734e-18)
(0.99181 0.0013422 2.3851e-17)
(1.0264 0.0068211 -2.6029e-18)
(0.91845 -0.0016003 1.9689e-18)
(1.0302 0.064007 -4.8437e-18)
(0.99996 5.85e-05 -1.8839e-18)
(0.99999 -0.00011912 -9.5099e-18)
(1 -0.00020609 -1.0303e-17)
(1.0001 -0.00031 6.0692e-18)
(1.0002 -0.00030683 -7.2603e-18)
(1.0002 -0.0002147 -1.256e-17)
(1.0001 1.7433e-05 1.0574e-17)
(1.0008 0.00058817 -4.7989e-18)
(0.99105 0.0013186 -2.9519e-17)
(1.0277 0.0075818 -1.4588e-17)
(0.92202 -0.0021983 8.5439e-18)
(1.0206 0.061913 -5.2582e-18)
(0.99996 6.2158e-05 -2.6975e-18)
(0.99998 -0.00012672 -3.5943e-18)
(1 -0.00021816 -7.6358e-19)
(1.0001 -0.00032913 -2.6577e-17)
(1.0002 -0.00032511 6.0918e-18)
(1.0003 -0.00022883 5.4698e-18)
(1.0001 1.6353e-05 -2.0093e-17)
(1.001 0.00063055 -1.6382e-17)
(0.99029 0.0012752 4.3165e-18)
(1.0287 0.0083558 -1.097e-18)
(0.9261 -0.0027375 -9.8663e-18)
(1.012 0.059856 9.9422e-19)
(0.99995 6.5865e-05 3.5086e-18)
(0.99998 -0.00013444 1.6477e-17)
(1 -0.00023026 1.9662e-17)
(1.0001 -0.00034847 2.5031e-18)
(1.0002 -0.00034348 1.684e-17)
(1.0003 -0.0002433 9.5849e-18)
(1.0001 1.4753e-05 2.9001e-18)
(1.0012 0.00067563 1.793e-17)
(0.98956 0.0012118 2.1454e-17)
(1.0295 0.0091373 1.7421e-17)
(0.93057 -0.0032118 7.362e-18)
(1.0045 0.05786 1.1807e-18)
(0.99995 6.9621e-05 -1.6723e-18)
(0.99998 -0.00014228 -3.9535e-18)
(1 -0.00024239 -2.0948e-17)
(1.0001 -0.00036802 -2.3695e-18)
(1.0003 -0.00036195 -1.2763e-17)
(1.0003 -0.00025811 -5.1856e-18)
(1.0001 1.2573e-05 -1.8615e-18)
(1.0015 0.00072366 -1.6212e-17)
(0.98886 0.0011284 -2.0516e-17)
(1.03 0.0099201 8.9295e-18)
(0.9353 -0.0036169 5.0436e-19)
(0.99801 0.055945 6.7824e-19)
(0.99994 7.3428e-05 4.4328e-18)
(0.99997 -0.00015024 -5.165e-18)
(1 -0.00025455 -1.9647e-17)
(1.0002 -0.00038781 4.5052e-17)
(1.0003 -0.00038053 1.8514e-17)
(1.0003 -0.0002733 -1.2689e-17)
(1.0001 9.753e-06 2.5025e-17)
(1.0017 0.00077483 2.1909e-17)
(0.98819 0.0010257 3.3294e-17)
(1.0303 0.010699 -3.2729e-17)
(0.94017 -0.0039509 -1.3519e-17)
(0.9926 0.054121 1.7918e-19)
(0.99993 7.7287e-05 -3.2446e-18)
(0.99997 -0.00015833 -1.0364e-18)
(1 -0.00026675 3.3541e-17)
(1.0002 -0.00040783 -3.4056e-17)
(1.0003 -0.0003992 -1.7823e-18)
(1.0003 -0.0002889 4.2043e-17)
(1.0001 6.2363e-06 7.7554e-18)
(1.0019 0.00082928 -3.3846e-18)
(0.98758 0.00090424 -2.0649e-17)
(1.0303 0.011467 3.8571e-17)
(0.9451 -0.0042135 -5.7258e-18)
(0.98816 0.052397 -2.844e-19)
(0.99993 8.1198e-05 -1.6541e-18)
(0.99996 -0.00016655 -2.0652e-18)
(1 -0.00027899 1.7465e-18)
(1.0002 -0.00042811 3.543e-17)
(1.0003 -0.00041798 -1.0048e-17)
(1.0004 -0.00030491 -3.1075e-17)
(1.0001 1.969e-06 -1.9774e-17)
(1.0022 0.00088713 -3.6441e-18)
(0.98701 0.00076517 6.5305e-18)
(1.0301 0.012221 -3.254e-17)
(0.94998 -0.0044056 9.5912e-18)
(0.98463 0.050776 3.0851e-18)
(0.99992 8.5164e-05 2.7334e-18)
(0.99996 -0.0001749 1.4374e-17)
(1 -0.00029126 -1.2881e-17)
(1.0002 -0.00044864 -3.7098e-18)
(1.0003 -0.00043686 -1.9284e-17)
(1.0004 -0.00032138 3.3807e-17)
(1 -3.0971e-06 -1.7358e-17)
(1.0025 0.00094838 1.5104e-17)
(0.9865 0.00060977 -2.0126e-18)
(1.0297 0.012955 3.0508e-17)
(0.95476 -0.0045299 -9.3577e-18)
(0.98191 0.049257 -5.1481e-18)
(0.99992 8.9184e-05 -5.2425e-19)
(0.99995 -0.00018338 -8.2669e-18)
(1 -0.00030357 -1.8037e-17)
(1.0002 -0.00046945 -1.0165e-17)
(1.0003 -0.00045585 1.8704e-17)
(1.0004 -0.00033833 -4.3109e-17)
(1 -9.0038e-06 -2.6786e-18)
(1.0028 0.001013 -2.0407e-17)
(0.98604 0.00043954 3.2523e-18)
(1.0292 0.013665 -8.7995e-18)
(0.95937 -0.0045897 9.9606e-18)
(0.97991 0.04784 2.1845e-18)
(0.99991 9.326e-05 2.7463e-18)
(0.99995 -0.00019201 -8.8551e-18)
(1 -0.00031592 -1.7818e-18)
(1.0002 -0.00049054 2.4698e-18)
(1.0003 -0.00047494 5.9198e-18)
(1.0004 -0.00035578 1.2456e-17)
(1 -1.5785e-05 4.3914e-17)
(1.003 0.001081 2.4385e-18)
(0.98565 0.0002562 5.3006e-18)
(1.0285 0.014346 9.699e-18)
(0.96376 -0.0045892 -8.5176e-18)
(0.97854 0.046519 1.6789e-18)
(0.9999 9.7394e-05 -1.5748e-18)
(0.99994 -0.00020078 8.847e-18)
(1 -0.00032832 2.5638e-17)
(1.0002 -0.00051192 -2.4886e-17)
(1.0003 -0.00049414 -9.2082e-18)
(1.0005 -0.00037378 -2.1916e-18)
(0.99999 -2.3465e-05 -1.4475e-17)
(1.0033 0.0011521 1.8918e-18)
(0.98532 6.1628e-05 -9.1831e-18)
(1.0277 0.014995 -3.5646e-18)
(0.96789 -0.0045335 -2.4042e-19)
(0.97772 0.04529 -2.0512e-18)
(0.99989 0.00010158 -1.6925e-18)
(0.99994 -0.00020971 5.2954e-18)
(1 -0.00034075 -6.2013e-19)
(1.0002 -0.00053362 8.2519e-18)
(1.0004 -0.00051345 -1.699e-17)
(1.0005 -0.00039235 2.4799e-17)
(0.99996 -3.206e-05 7.2198e-18)
(1.0036 0.0012261 -1.8047e-17)
(0.98506 -0.00014221 -1.1778e-17)
(1.0267 0.01561 -1.4113e-17)
(0.97176 -0.0044277 1.3503e-18)
(0.97734 0.044147 -3.7611e-18)
(0.99989 0.00010583 5.8815e-19)
(0.99993 -0.00021878 -1.2646e-17)
(1 -0.00035324 1.5875e-17)
(1.0002 -0.00055563 2.2823e-17)
(1.0004 -0.00053285 3.3301e-17)
(1.0005 -0.00041153 -1.8212e-17)
(0.99993 -4.1574e-05 -1.795e-17)
(1.0039 0.0013027 3.6627e-18)
(0.98486 -0.00035326 1.1036e-17)
(1.0257 0.016186 1.1048e-17)
(0.97533 -0.0042776 6.2838e-18)
(0.97735 0.043083 3.7383e-18)
(0.99988 0.00011014 1.1271e-18)
(0.99992 -0.00022802 1.0056e-17)
(1 -0.00036576 -3.6474e-17)
(1.0002 -0.00057797 -3.3069e-18)
(1.0004 -0.00055237 -2.7663e-17)
(1.0006 -0.00043135 -1.1471e-17)
(0.9999 -5.2003e-05 2.5214e-20)
(1.0042 0.0013817 -4.1886e-18)
(0.98471 -0.0005695 -2.1751e-17)
(1.0247 0.016723 -1.7639e-17)
(0.97861 -0.0040888 -8.5817e-18)
(0.97766 0.042091 -1.8438e-18)
(0.99987 0.00011451 -7.3055e-19)
(0.99992 -0.00023741 -6.54e-18)
(1 -0.00037834 2.8698e-17)
(1.0002 -0.00060066 -3.1553e-17)
(1.0004 -0.00057198 -2.0805e-18)
(1.0006 -0.00045187 2.4428e-17)
(0.99986 -6.3332e-05 7.182e-19)
(1.0045 0.0014626 3.9949e-18)
(0.98463 -0.0007889 1.9041e-17)
(1.0236 0.017218 2.2929e-17)
(0.9816 -0.003867 4.9098e-18)
(0.97821 0.041165 -1.0307e-18)
(0.99986 0.00011895 -1.9018e-18)
(0.99991 -0.00024697 -2.4117e-18)
(1 -0.00039097 -1.2722e-17)
(1.0002 -0.00062371 1.5719e-17)
(1.0004 -0.0005917 3.0403e-17)
(1.0006 -0.00047311 -1.0796e-17)
(0.99982 -7.5538e-05 2.2356e-17)
(1.0048 0.0015451 2.9943e-18)
(0.9846 -0.0010095 -2.158e-18)
(1.0224 0.01767 1.0372e-17)
(0.9843 -0.0036178 -5.4862e-18)
(0.97895 0.040298 -7.1909e-19)
(0.99985 0.00012344 4.7563e-19)
(0.9999 -0.00025671 -6.3779e-18)
(1 -0.00040365 4.7623e-18)
(1.0002 -0.00064713 -1.6019e-17)
(1.0004 -0.00061151 -3.2157e-17)
(1.0007 -0.00049514 6.8033e-18)
(0.99978 -8.8591e-05 -3.2252e-17)
(1.005 0.0016288 -6.8449e-18)
(0.98462 -0.0012296 6.9993e-18)
(1.0213 0.018079 -3.2556e-17)
(0.98674 -0.0033465 3.7565e-18)
(0.97982 0.039484 2.0268e-18)
(0.99984 0.000128 8.3524e-19)
(0.9999 -0.00026661 1.728e-17)
(1 -0.00041638 7.9738e-18)
(1.0002 -0.00067094 6.5255e-18)
(1.0004 -0.00063141 2.5714e-17)
(1.0007 -0.00051799 2.0284e-18)
(0.99974 -0.00010245 2.2271e-17)
(1.0053 0.0017132 4.9099e-18)
(0.98469 -0.0014474 -2.1278e-17)
(1.0202 0.018443 1.1208e-17)
(0.98891 -0.0030582 2.5403e-18)
(0.98079 0.038717 2.1032e-18)
(0.99983 0.00013262 -2.9164e-18)
(0.99989 -0.0002767 -5.6879e-18)
(1 -0.00042916 -7.0058e-18)
(1.0002 -0.00069515 1.0716e-17)
(1.0004 -0.00065139 1.2422e-17)
(1.0008 -0.00054171 -4.0396e-18)
(0.99969 -0.00011709 -1.8707e-17)
(1.0056 0.0017978 2.2354e-17)
(0.9848 -0.0016615 3.9384e-18)
(1.0192 0.018765 -3.3858e-18)
(0.99085 -0.0027577 1.0508e-17)
(0.98182 0.037991 -1.4625e-18)
(0.99982 0.0001373 5.9926e-18)
(0.99988 -0.00028697 6.8114e-18)
(1 -0.00044201 -7.447e-18)
(1.0002 -0.00071978 -6.6752e-18)
(1.0004 -0.00067147 -1.7825e-17)
(1.0008 -0.00056636 -6.9379e-18)
(0.99964 -0.00013245 9.2236e-18)
(1.0059 0.0018823 -3.5854e-17)
(0.98495 -0.0018705 9.6463e-18)
(1.0182 0.019044 -4.0023e-18)
(0.99257 -0.0024491 -1.1128e-17)
(0.98289 0.037301 4.2501e-18)
(0.99981 0.00014205 -2.6448e-18)
(0.99987 -0.00029743 -1.1967e-17)
(1 -0.00045491 -7.2173e-18)
(1.0002 -0.00074484 -1.2667e-17)
(1.0004 -0.00069161 -5.4423e-18)
(1.0009 -0.00059199 2.0399e-17)
(0.99959 -0.0001485 -9.0608e-18)
(1.0061 0.0019662 3.9885e-17)
(0.98513 -0.0020735 9.0981e-18)
(1.0172 0.019281 1.2145e-17)
(0.9941 -0.0021364 4.6905e-18)
(0.98397 0.036643 -6.8946e-18)
(0.9998 0.00014686 -1.4028e-18)
(0.99986 -0.00030808 8.8999e-18)
(1 -0.00046787 1.43e-17)
(1.0002 -0.00077036 3.4153e-17)
(1.0005 -0.00071183 7.214e-18)
(1.0009 -0.00061866 -1.3992e-17)
(0.99953 -0.0001652 4.3725e-18)
(1.0064 0.0020491 -4.2909e-17)
(0.98534 -0.0022695 -1.1037e-17)
(1.0163 0.019477 -6.7528e-18)
(0.99545 -0.001823 4.6024e-18)
(0.98506 0.036013 6.9364e-18)
(0.99979 0.00015174 1.0736e-18)
(0.99985 -0.00031893 2.1068e-18)
(0.99999 -0.0004809 -1.4043e-17)
(1.0002 -0.00079634 -5.6888e-18)
(1.0005 -0.00073211 9.1596e-18)
(1.0009 -0.0006464 1.6747e-17)
(0.99947 -0.00018253 1.5205e-17)
(1.0066 0.0021307 4.2473e-18)
(0.98558 -0.002458 1.2348e-17)
(1.0154 0.019635 -3.1289e-18)
(0.99664 -0.0015119 -8.2157e-18)
(0.98612 0.035407 -1.7882e-18)
(0.99977 0.00015669 -4.3968e-20)
(0.99984 -0.00032998 2.401e-18)
(0.99999 -0.00049399 3.1386e-18)
(1.0002 -0.00082281 -7.385e-18)
(1.0005 -0.00075245 8.5133e-20)
(1.001 -0.00067528 -1.5184e-17)
(0.99941 -0.00020047 -1.0285e-17)
(1.0069 0.0022105 3.1422e-17)
(0.98584 -0.0026384 -1.8663e-17)
(1.0147 0.019756 1.215e-17)
(0.9977 -0.0012055 4.3395e-18)
(0.98717 0.034822 -5.0574e-18)
(0.99976 0.0001617 -3.3252e-18)
(0.99983 -0.00034124 -1.1261e-17)
(0.99998 -0.00050715 8.0127e-18)
(1.0002 -0.00084978 -2.0169e-17)
(1.0005 -0.00077284 -2.3163e-17)
(1.0011 -0.00070535 -2.0976e-17)
(0.99935 -0.00021902 -2.0961e-17)
(1.0071 0.0022884 -3.2178e-18)
(0.98612 -0.0028107 1.6311e-17)
(1.014 0.019842 -1.0422e-17)
(0.99865 -0.00090603 4.3164e-19)
(0.98818 0.034256 4.7651e-18)
(0.99975 0.00016678 6.418e-18)
(0.99982 -0.00035271 1.1768e-17)
(0.99997 -0.00052038 -1.2922e-17)
(1.0003 -0.00087727 1.6559e-17)
(1.0005 -0.00079328 -2.7161e-18)
(1.0011 -0.00073665 1.3749e-17)
(0.99928 -0.00023819 2.5195e-17)
(1.0074 0.002364 -2.4375e-17)
(0.98642 -0.0029746 -8.2715e-18)
(1.0133 0.019895 1.1005e-17)
(0.99949 -0.00061513 3.7515e-18)
(0.98916 0.033705 -2.2553e-18)
(0.99974 0.00017192 -4.8157e-18)
(0.99981 -0.00036439 -3.4781e-18)
(0.99997 -0.00053369 -2.7017e-18)
(1.0003 -0.0009053 1.8946e-17)
(1.0005 -0.00081375 -5.8146e-18)
(1.0012 -0.00076922 -1.7422e-19)
(0.99922 -0.00025801 -4.9301e-18)
(1.0076 0.002437 1.9524e-17)
(0.98673 -0.0031303 -7.8543e-18)
(1.0127 0.019918 -7.5571e-18)
(1.0002 -0.00033414 -1.109e-17)
(0.99011 0.033169 2.6233e-18)
(0.99972 0.00017713 3.2735e-18)
(0.9998 -0.0003763 -4.41e-18)
(0.99996 -0.00054706 6.1852e-18)
(1.0003 -0.00093388 -2.8747e-17)
(1.0005 -0.00083426 3.9394e-17)
(1.0012 -0.0008031 5.6961e-18)
(0.99915 -0.00027855 1.9452e-17)
(1.0078 0.0025073 -1.2081e-17)
(0.98705 -0.0032781 1.0346e-19)
(1.0122 0.019913 5.6198e-18)
(1.0009 -6.4056e-05 -2.1587e-18)
(0.99102 0.032645 -9.8682e-19)
(0.99971 0.00018241 -9.3645e-19)
(0.99979 -0.00038843 8.6199e-19)
(0.99995 -0.00056052 1.507e-17)
(1.0003 -0.00096305 7.837e-18)
(1.0005 -0.0008548 -1.9694e-17)
(1.0013 -0.00083832 -1.1157e-17)
(0.99908 -0.00029988 3.3962e-18)
(1.008 0.0025747 -5.8736e-18)
(0.98738 -0.0034182 1.3141e-17)
(1.0118 0.019882 -3.6891e-18)
(1.0016 0.00019441 1.0386e-17)
(0.99189 0.032132 -3.6055e-18)
(0.99969 0.00018775 -1.6299e-18)
(0.99978 -0.00040079 -8.3092e-18)
(0.99994 -0.00057406 -4.4807e-18)
(1.0003 -0.00099281 3.147e-17)
(1.0005 -0.00087536 -1.7545e-17)
(1.0014 -0.0008749 -9.45e-19)
(0.99901 -0.00032211 -5.0792e-17)
(1.0082 0.002639 5.7735e-18)
(0.98772 -0.0035511 -2.4575e-17)
(1.0114 0.019827 -7.9668e-18)
(1.0022 0.00044082 -1.0388e-17)
(0.99273 0.031629 2.141e-18)
(0.99968 0.00019315 -7.0364e-19)
(0.99977 -0.00041338 5.148e-18)
(0.99994 -0.00058768 -1.8496e-18)
(1.0003 -0.0010232 -1.8324e-17)
(1.0005 -0.00089597 2.5214e-17)
(1.0014 -0.00091285 -2.3229e-18)
(0.99893 -0.00034536 2.6904e-17)
(1.0085 0.0027001 -3.5492e-18)
(0.98807 -0.0036773 1.1932e-17)
(1.0111 0.019751 9.964e-18)
(1.0027 0.00067494 8.5692e-18)
(0.99353 0.031136 -5.1844e-19)
(0.99966 0.00019862 3.9887e-18)
(0.99975 -0.00042622 -3.08e-18)
(0.99993 -0.00060139 -6.4703e-18)
(1.0003 -0.0010542 1.9999e-17)
(1.0005 -0.0009166 1.8502e-18)
(1.0015 -0.00095218 2.8799e-17)
(0.99886 -0.00036979 4.641e-18)
(1.0086 0.002758 1.6958e-17)
(0.98842 -0.0037972 4.4764e-18)
(1.0108 0.019656 -3.2239e-18)
(1.0032 0.00089674 1.1154e-18)
(0.99431 0.030651 4.6895e-19)
(0.99965 0.00020415 1.1373e-18)
(0.99974 -0.0004393 1.2593e-18)
(0.99992 -0.00061519 -5.8669e-18)
(1.0003 -0.0010859 -3.9827e-17)
(1.0005 -0.00093729 5.6031e-18)
(1.0016 -0.00099289 2.4977e-18)
(0.99879 -0.00039558 -2.0124e-17)
(1.0088 0.0028124 2.3858e-19)
(0.98877 -0.0039115 1.319e-17)
(1.0105 0.019543 -2.0727e-18)
(1.0037 0.0011063 -5.4301e-18)
(0.99505 0.030173 2.7672e-18)
(0.99963 0.00020975 -4.8702e-18)
(0.99973 -0.00045262 5.3375e-18)
(0.99991 -0.00062909 9.6728e-19)
(1.0003 -0.0011182 2.2116e-17)
(1.0005 -0.00095803 -2.556e-17)
(1.0017 -0.001035 -1.1032e-17)
(0.99871 -0.00042294 2.0582e-17)
(1.009 0.0028634 -1.1486e-17)
(0.98913 -0.0040206 -2.0851e-17)
(1.0103 0.019415 -1.0242e-17)
(1.0041 0.0013039 6.9167e-18)
(0.99577 0.029703 9.2368e-19)
(0.99962 0.0002154 -5.1532e-19)
(0.99971 -0.0004662 -5.371e-18)
(0.9999 -0.00064309 1.03e-17)
(1.0003 -0.0011513 9.8057e-18)
(1.0005 -0.00097884 3.1569e-17)
(1.0018 -0.0010783 4.2381e-18)
(0.99864 -0.00045208 1.8281e-17)
(1.0092 0.0029109 2.912e-17)
(0.98949 -0.004125 -9.2074e-19)
(1.0101 0.019273 1.8015e-17)
(1.0046 0.0014898 -7.3165e-19)
(0.99646 0.02924 -2.6935e-18)
(0.9996 0.00022112 4.9949e-18)
(0.9997 -0.00048003 -7.8195e-18)
(0.99989 -0.00065719 -1.5634e-17)
(1.0003 -0.001185 -2.6064e-18)
(1.0005 -0.00099975 -3.4262e-17)
(1.0018 -0.001123 -1.261e-17)
(0.99857 -0.00048326 -6.3456e-18)
(1.0094 0.0029547 2.177e-19)
(0.98986 -0.0042253 2.7134e-17)
(1.01 0.019119 4.1516e-18)
(1.005 0.0016643 -9.4961e-18)
(0.99712 0.028783 1.6167e-18)
(0.99958 0.00022689 -5.5997e-18)
(0.99969 -0.00049412 9.768e-18)
(0.99987 -0.00067141 8.1837e-18)
(1.0003 -0.0012195 -5.1935e-18)
(1.0005 -0.0010208 2.7553e-17)
(1.0019 -0.001169 1.5086e-17)
(0.9985 -0.00051673 -5.0161e-18)
(1.0095 0.0029949 -2.9345e-17)
(0.99022 -0.0043218 -9.2269e-19)
(1.0099 0.018954 -1.1863e-17)
(1.0054 0.001828 1.1243e-17)
(0.99777 0.028333 -2.1174e-18)
(0.99956 0.00023271 3.3648e-18)
(0.99967 -0.00050848 -1.8691e-18)
(0.99986 -0.00068575 1.0836e-17)
(1.0003 -0.0012547 -2.185e-17)
(1.0005 -0.001042 8.9963e-18)
(1.002 -0.0012161 -5.4195e-18)
(0.99843 -0.00055276 -1.0808e-17)
(1.0097 0.0030313 -2.3554e-18)
(0.99059 -0.004415 -3.2743e-17)
(1.0098 0.01878 7.827e-18)
(1.0058 0.0019811 -1.0297e-17)
(0.99839 0.027889 7.0678e-19)
(0.99954 0.00023859 2.6602e-19)
(0.99966 -0.00052311 -5.8798e-18)
(0.99985 -0.00070021 6.153e-18)
(1.0003 -0.0012907 2.8758e-17)
(1.0005 -0.0010634 -2.1428e-17)
(1.0021 -0.0012644 1.7433e-17)
(0.99837 -0.00059164 -6.2492e-18)
(1.0098 0.0030639 5.4547e-18)
(0.99096 -0.0045052 3.8899e-17)
(1.0097 0.018598 -1.453e-17)
(1.0062 0.0021242 1.5741e-17)
(0.99899 0.027451 2.0002e-18)
(0.99953 0.00024452 4.7746e-19)
(0.99964 -0.00053801 -1.2168e-18)
(0.99984 -0.00071481 -8.8522e-18)
(1.0003 -0.0013275 -4.3294e-18)
(1.0005 -0.0010851 1.8674e-17)
(1.0022 -0.0013138 1.3868e-19)
(0.9983 -0.00063365 -1.2283e-17)
(1.01 0.0030927 -1.3021e-17)
(0.99133 -0.0045927 -1.6283e-17)
(1.0097 0.018409 -1.372e-18)
(1.0066 0.0022577 2.8846e-18)
(0.99958 0.027018 2.1028e-19)
(0.99951 0.00025049 -7.6837e-19)
(0.99962 -0.00055318 1.4481e-17)
(0.99982 -0.00072955 -5.904e-18)
(1.0003 -0.0013651 -2.4466e-17)
(1.0005 -0.001107 8.6086e-18)
(1.0023 -0.0013641 -4.4417e-17)
(0.99824 -0.00067906 6.1274e-18)
(1.0101 0.0031174 8.1993e-18)
(0.9917 -0.0046778 7.5639e-19)
(1.0096 0.018213 1.4758e-17)
(1.007 0.0023821 -9.6107e-19)
(1.0002 0.026592 -5.5907e-18)
(0.99949 0.00025651 -2.0286e-19)
(0.99961 -0.00056864 -2.8421e-19)
(0.99981 -0.00074445 7.9477e-18)
(1.0003 -0.0014034 1.5105e-17)
(1.0004 -0.0011294 -3.4207e-17)
(1.0024 -0.0014154 1.9187e-18)
(0.99819 -0.00072816 1.0974e-17)
(1.0103 0.0031382 1.2841e-17)
(0.99207 -0.0047607 -1.0296e-17)
(1.0096 0.018013 -1.437e-17)
(1.0074 0.0024976 -1.5622e-17)
(1.0007 0.026171 5.9053e-18)
(0.99946 0.00026257 -1.3273e-18)
(0.99959 -0.00058437 4.0465e-19)
(0.99979 -0.00075952 -3.8321e-18)
(1.0003 -0.0014426 -1.0085e-17)
(1.0004 -0.0011522 1.8961e-17)
(1.0025 -0.0014676 2.3841e-17)
(0.99814 -0.0007812 3.2005e-18)
(1.0104 0.0031549 6.5069e-18)
(0.99244 -0.0048415 1.6422e-17)
(1.0096 0.017807 2.4183e-18)
(1.0077 0.0026048 1.1553e-17)
(1.0012 0.025756 -3.5848e-18)
(0.99944 0.00026866 2.443e-18)
(0.99957 -0.0006004 7.4606e-19)
(0.99978 -0.00077476 -5.4762e-18)
(1.0003 -0.0014827 1.4899e-18)
(1.0004 -0.0011756 -1.028e-17)
(1.0026 -0.0015205 -5.7188e-18)
(0.99809 -0.00083842 -1.183e-18)
(1.0105 0.0031674 -2.9382e-17)
(0.99281 -0.0049204 3.2229e-18)
(1.0096 0.017598 -4.9042e-18)
(1.0081 0.0027039 -4.6985e-18)
(1.0018 0.025346 -4.3226e-18)
(0.99942 0.00027478 -4.9857e-18)
(0.99955 -0.00061671 9.7471e-19)
(0.99976 -0.0007902 2.9047e-18)
(1.0003 -0.0015235 -1.872e-17)
(1.0004 -0.0011996 -1.1719e-17)
(1.0027 -0.0015742 -2.6549e-17)
(0.99805 -0.00090005 5.7086e-18)
(1.0106 0.0031758 1.1998e-17)
(0.99318 -0.0049974 -3.4564e-17)
(1.0096 0.017386 2.2613e-17)
(1.0085 0.0027953 -5.0829e-18)
(1.0023 0.024941 2.7873e-18)
(0.9994 0.00028093 4.5766e-18)
(0.99954 -0.00063331 2.1813e-18)
(0.99974 -0.00080586 1.117e-18)
(1.0004 -0.0015652 5.9375e-18)
(1.0004 -0.0012244 -2.5883e-18)
(1.0028 -0.0016286 5.1458e-17)
(0.99801 -0.00096629 2.0496e-17)
(1.0107 0.00318 -1.866e-17)
(0.99355 -0.0050727 3.3266e-17)
(1.0096 0.01717 -8.4369e-18)
(1.0088 0.0028793 -3.3533e-18)
(1.0028 0.024542 -1.3914e-18)
(0.99938 0.0002871 1.1225e-18)
(0.99952 -0.00065021 -1.3813e-17)
(0.99973 -0.00082174 2.2356e-18)
(1.0004 -0.0016078 2.6663e-17)
(1.0004 -0.00125 2.0032e-17)
(1.0029 -0.0016835 -8.3079e-19)
(0.99798 -0.0010373 -2.8395e-17)
(1.0108 0.0031799 5.6507e-18)
(0.99391 -0.0051463 -7.5018e-18)
(1.0096 0.016952 -1.1678e-17)
(1.0091 0.0029562 8.5302e-18)
(1.0033 0.024148 1.2966e-18)
(0.99935 0.00029328 -4.4399e-18)
(0.9995 -0.00066741 -4.6047e-18)
(0.99971 -0.00083788 -1.211e-17)
(1.0004 -0.0016512 -2.2362e-17)
(1.0003 -0.0012766 -2.0156e-17)
(1.003 -0.0017391 -2.3384e-17)
(0.99795 -0.0011132 5.2432e-18)
(1.0109 0.0031756 4.3925e-17)
(0.99428 -0.0052182 3.2693e-18)
(1.0096 0.016732 -1.0205e-18)
(1.0095 0.0030261 -3.0121e-18)
(1.0037 0.023759 -3.4863e-18)
(0.99933 0.00029948 3.2946e-18)
(0.99948 -0.0006849 4.2776e-18)
(0.99969 -0.0008543 1.8661e-17)
(1.0004 -0.0016954 1.5487e-17)
(1.0003 -0.0013044 1.9609e-17)
(1.0031 -0.0017951 -8.6917e-19)
(0.99793 -0.0011941 -2.9214e-17)
(1.011 0.0031671 -2.3742e-17)
(0.99464 -0.0052885 8.1129e-18)
(1.0096 0.01651 4.0422e-18)
(1.0098 0.0030894 6.7937e-18)
(1.0042 0.023375 2.6937e-18)
(0.9993 0.00030567 -2.3267e-18)
(0.99946 -0.0007027 6.7103e-18)
(0.99967 -0.00087101 -1.2347e-17)
(1.0004 -0.0017406 2.2415e-18)
(1.0003 -0.0013333 9.1166e-18)
(1.0032 -0.0018517 -2.286e-18)
(0.99792 -0.0012801 6.5593e-18)
(1.0111 0.0031543 6.5926e-18)
(0.995 -0.0053571 2.6698e-18)
(1.0097 0.016286 9.9939e-18)
(1.0101 0.0031462 -8.1711e-18)
(1.0047 0.022995 5.4395e-19)
(0.99928 0.00031186 3.5128e-18)
(0.99944 -0.00072081 4.1586e-19)
(0.99965 -0.00088806 -5.7792e-18)
(1.0004 -0.0017865 8.9211e-19)
(1.0003 -0.0013637 -1.4984e-18)
(1.0033 -0.0019089 -2.2582e-17)
(0.99791 -0.0013711 1.8313e-17)
(1.0112 0.0031374 2.3397e-17)
(0.99536 -0.005424 -1.3293e-17)
(1.0097 0.016061 -1.3907e-17)
(1.0104 0.0031968 -2.3896e-18)
(1.0051 0.022621 4.6354e-18)
(0.99925 0.00031804 -2.5518e-18)
(0.99942 -0.00073923 -3.2029e-19)
(0.99963 -0.00090547 7.1856e-18)
(1.0004 -0.0018334 -1.7137e-17)
(1.0003 -0.0013956 -1.3543e-17)
(1.0034 -0.0019666 2.8509e-17)
(0.99791 -0.0014672 -2.8006e-18)
(1.0113 0.0031164 -2.4774e-17)
(0.99571 -0.0054893 3.3863e-18)
(1.0097 0.015835 1.3095e-17)
(1.0108 0.0032412 8.0995e-18)
(1.0055 0.022251 -1.6715e-18)
(0.99922 0.0003242 2.5356e-19)
(0.99939 -0.00075796 2.3459e-18)
(0.9996 -0.00092327 3.926e-18)
(1.0004 -0.0018811 8.8593e-18)
(1.0002 -0.0014291 2.6543e-17)
(1.0035 -0.0020248 6.6469e-18)
(0.99792 -0.0015682 -2.4385e-17)
(1.0114 0.0030913 2.3213e-18)
(0.99607 -0.005553 8.7227e-18)
(1.0098 0.015607 -1.1799e-17)
(1.0111 0.0032796 -5.4773e-18)
(1.006 0.021885 -1.9342e-18)
(0.9992 0.00033032 7.1994e-19)
(0.99937 -0.000777 -4.0809e-19)
(0.99958 -0.0009415 -1.0359e-17)
(1.0004 -0.0019297 -1.905e-19)
(1.0002 -0.0014645 -5.2478e-17)
(1.0036 -0.0020836 8.1954e-18)
(0.99793 -0.0016742 2.3954e-17)
(1.0114 0.0030624 -6.6696e-18)
(0.99642 -0.0056151 -9.1345e-18)
(1.0098 0.015378 1.9595e-17)
(1.0114 0.0033122 6.5557e-18)
(1.0064 0.021524 5.0138e-18)
(0.99917 0.00033641 7.7333e-19)
(0.99935 -0.00079637 -8.4678e-19)
(0.99956 -0.0009602 1.8734e-17)
(1.0004 -0.0019792 4.0861e-18)
(1.0002 -0.0015019 4.6503e-17)
(1.0037 -0.0021431 -2.8883e-17)
(0.99794 -0.0017849 -8.0212e-18)
(1.0115 0.0030296 6.2773e-18)
(0.99676 -0.0056756 3.1472e-18)
(1.0098 0.015148 -1.1025e-17)
(1.0116 0.0033391 -1.0607e-18)
(1.0068 0.021167 -3.6973e-18)
(0.99914 0.00034246 -3.0223e-18)
(0.99932 -0.00081606 1.4216e-18)
(0.99953 -0.00097942 -1.1011e-17)
(1.0004 -0.0020296 5.3728e-18)
(1.0001 -0.0015414 -1.767e-17)
(1.0038 -0.0022032 3.917e-18)
(0.99797 -0.0019001 3.2116e-17)
(1.0116 0.002993 -2.3494e-17)
(0.99711 -0.0057346 -1.1568e-17)
(1.0099 0.014917 -1.0908e-17)
(1.0119 0.0033604 -5.2145e-18)
(1.0072 0.020814 -1.0154e-18)
(0.99911 0.00034844 3.7646e-18)
(0.9993 -0.00083609 -3.3764e-18)
(0.99951 -0.00099919 -1.0685e-17)
(1.0004 -0.0020808 -8.5676e-18)
(1.0001 -0.0015831 -2.8888e-17)
(1.0039 -0.002264 -1.8167e-17)
(0.998 -0.0020197 -1.9692e-17)
(1.0117 0.0029529 2.1845e-17)
(0.99745 -0.0057921 1.1214e-17)
(1.0099 0.014685 1.6519e-17)
(1.0122 0.0033762 -2.0423e-18)
(1.0076 0.020465 4.9022e-18)
(0.99908 0.00035436 -6.0503e-18)
(0.99927 -0.00085644 5.4705e-18)
(0.99948 -0.0010196 2.6162e-17)
(1.0005 -0.002133 -2.0208e-18)
(1.0001 -0.0016273 3.196e-17)
(1.004 -0.0023257 1.3699e-18)
(0.99803 -0.0021435 -1.886e-17)
(1.0117 0.0029093 8.549e-18)
(0.99778 -0.0058481 -4.0441e-18)
(1.01 0.014452 -3.459e-18)
(1.0125 0.0033866 6.6255e-18)
(1.008 0.02012 -3.3151e-18)
(0.99905 0.00036019 4.9581e-18)
(0.99925 -0.00087714 -7.4346e-18)
(0.99945 -0.0010406 -3.0502e-17)
(1.0005 -0.0021861 1.3219e-17)
(1.0001 -0.001674 -2.2769e-17)
(1.0041 -0.0023882 2.5113e-17)
(0.99807 -0.0022711 6.1475e-18)
(1.0118 0.0028624 -8.1385e-18)
(0.99812 -0.0059027 -1.9409e-18)
(1.01 0.014218 -8.6644e-18)
(1.0127 0.0033917 -1.0804e-17)
(1.0084 0.019779 4.5835e-18)
(0.99902 0.00036594 -3.652e-18)
(0.99922 -0.00089819 2.4721e-18)
(0.99943 -0.0010624 1.8534e-17)
(1.0005 -0.0022401 -1.7426e-17)
(1 -0.0017234 3.6635e-17)
(1.0042 -0.0024517 -1.9492e-17)
(0.99811 -0.0024023 3.5836e-18)
(1.0118 0.0028123 -1.2862e-17)
(0.99845 -0.005956 6.3352e-18)
(1.0101 0.013983 -1.2127e-18)
(1.013 0.0033916 4.6241e-18)
(1.0087 0.019442 -2.0379e-18)
(0.99898 0.00037159 4.479e-18)
(0.9992 -0.0009196 1.9246e-18)
(0.9994 -0.0010849 -1.2356e-17)
(1.0005 -0.002295 -3.5426e-19)
(1 -0.0017756 -1.618e-18)
(1.0043 -0.0025162 4.7139e-18)
(0.99816 -0.0025368 3.4026e-17)
(1.0119 0.0027592 8.7981e-18)
(0.99877 -0.006008 -1.8777e-17)
(1.0101 0.013748 -6.2852e-18)
(1.0133 0.0033863 -4.3523e-18)
(1.0091 0.019108 2.1424e-18)
(0.99895 0.00037712 -5.1338e-18)
(0.99917 -0.00094137 -7.1319e-18)
(0.99937 -0.0011082 5.1838e-18)
(1.0005 -0.0023509 1.5077e-17)
(0.99999 -0.0018307 -3.3231e-17)
(1.0044 -0.0025816 1.5838e-17)