/*--------------------------------*- C++ -*----------------------------------*\
  =========                 |
  \\      /  F ield         | OpenFOAM: The Open Source CFD Toolbox
   \\    /   O peration     | Website:  https://openfoam.org
    \\  /    A nd           | Version:  6.0
     \\/     M anipulation  |
\*---------------------------------------------------------------------------*/
FoamFile
{
    version     2.0;
    format      ascii;
    class       surfaceScalarField;
    location    "1.8";
    object      phi;
}
// * * * * * * * * * * * * * * * * * * * * * * * * * * * * * * * * * * * * * //

dimensions      [0 3 -1 0 0 0 0];

internalField   nonuniform List<scalar> 
26699
(
2.0051e-05
0.005201
3.9653e-10
4.0126e-05
0.0051116
5.9639e-05
0.0049351
7.8186e-05
0.0046741
9.5416e-05
0.0043332
0.00011102
0.0039182
0.00012472
0.0034362
0.00013626
0.0028953
0.00014546
0.002305
0.00015182
0.0016755
0.00015718
0.0010154
0.00046489
3.4499e-05
2.0051e-05
0.0051809
1.2756e-09
4.0127e-05
0.0050916
5.9641e-05
0.0049155
7.8189e-05
0.0046556
9.5419e-05
0.004316
0.00011102
0.0039026
0.00012471
0.0034225
0.00013624
0.0028838
0.00014545
0.0022958
0.00015107
0.0016699
0.00015894
0.0010075
0.00055859
6.5237e-05
2.0052e-05
0.0051609
2.2349e-09
4.0128e-05
0.0050715
5.9643e-05
0.004896
7.8192e-05
0.004637
9.5422e-05
0.0042988
0.00011102
0.003887
0.00012471
0.0034088
0.00013622
0.0028723
0.00014546
0.0022865
0.00015031
0.001665
0.00016024
0.0009976
0.00062833
9.0497e-05
2.0052e-05
0.0051408
3.2004e-09
4.013e-05
0.0050514
5.9646e-05
0.0048765
7.8195e-05
0.0046185
9.5425e-05
0.0042815
0.00011102
0.0038714
0.0001247
0.0033951
0.00013619
0.0028608
0.00014549
0.0022772
0.00014958
0.0016609
0.000161
0.00098618
0.00067854
0.00011079
2.0052e-05
0.0051208
4.167e-09
4.0131e-05
0.0050313
5.9648e-05
0.004857
7.8198e-05
0.0045999
9.5427e-05
0.0042643
0.00011102
0.0038558
0.0001247
0.0033814
0.00013616
0.0028494
0.00014556
0.0022678
0.00014889
0.0016576
0.00016124
0.00097383
0.00071288
0.0001269
2.0052e-05
0.0051007
5.1346e-09
4.0133e-05
0.0050112
5.965e-05
0.0048375
7.8201e-05
0.0045814
9.543e-05
0.0042471
0.00011103
0.0038402
0.0001247
0.0033678
0.00013613
0.0028379
0.00014564
0.0022583
0.00014828
0.001655
0.00016104
0.00096107
0.00073442
0.00013951
2.0052e-05
0.0050807
6.1032e-09
4.0134e-05
0.0049912
5.9653e-05
0.004818
7.8204e-05
0.0045628
9.5433e-05
0.0042298
0.00011103
0.0038246
0.0001247
0.0033541
0.0001361
0.0028265
0.00014573
0.0022487
0.00014775
0.0016529
0.00016048
0.00094834
0.00074571
0.00014918
2.0053e-05
0.0050606
7.0728e-09
4.0135e-05
0.0049711
5.9655e-05
0.0047984
7.8207e-05
0.0045443
9.5436e-05
0.0042126
0.00011103
0.003809
0.0001247
0.0033404
0.00013607
0.0028151
0.00014584
0.0022389
0.00014732
0.0016515
0.00015966
0.00093601
0.00074894
0.00015643
2.0053e-05
0.0050405
8.0434e-09
4.0137e-05
0.004951
5.9657e-05
0.0047789
7.821e-05
0.0045257
9.5439e-05
0.0041954
0.00011103
0.0037934
0.0001247
0.0033267
0.00013603
0.0028038
0.00014596
0.002229
0.000147
0.0016504
0.00015866
0.00092435
0.00074592
0.00016168
2.0053e-05
0.0050205
9.0151e-09
4.0138e-05
0.0049309
5.966e-05
0.0047594
7.8213e-05
0.0045072
9.5442e-05
0.0041782
0.00011103
0.0037778
0.0001247
0.0033131
0.00013599
0.0027925
0.00014608
0.0022189
0.00014679
0.0016497
0.00015757
0.00091357
0.00073817
0.00016532
2.0053e-05
0.0050004
9.9878e-09
4.0139e-05
0.0049108
5.9662e-05
0.0047399
7.8216e-05
0.0044886
9.5446e-05
0.0041609
0.00011104
0.0037623
0.0001247
0.0032994
0.00013594
0.0027813
0.00014619
0.0022086
0.00014668
0.0016492
0.00015644
0.00090381
0.00072695
0.00016767
2.0053e-05
0.0049804
1.0962e-08
4.0141e-05
0.0048907
5.9664e-05
0.0047204
7.8219e-05
0.0044701
9.5449e-05
0.0041437
0.00011104
0.0037467
0.00012471
0.0032857
0.0001359
0.0027701
0.0001463
0.0021982
0.00014668
0.0016488
0.00015534
0.00089515
0.00071326
0.00016902
2.0054e-05
0.0049603
1.1937e-08
4.0142e-05
0.0048707
5.9667e-05
0.0047008
7.8223e-05
0.0044515
9.5452e-05
0.0041265
0.00011104
0.0037311
0.00012471
0.0032721
0.00013585
0.002759
0.0001464
0.0021877
0.00014676
0.0016485
0.00015429
0.00088762
0.00069796
0.00016959
2.0054e-05
0.0049402
1.2913e-08
4.0144e-05
0.0048506
5.9669e-05
0.0046813
7.8226e-05
0.0044329
9.5455e-05
0.0041092
0.00011104
0.0037155
0.00012472
0.0032584
0.0001358
0.0027479
0.00014649
0.002177
0.00014693
0.001648
0.00015333
0.00088122
0.0006817
0.00016959
2.0054e-05
0.0049202
1.389e-08
4.0145e-05
0.0048305
5.9671e-05
0.0046618
7.8229e-05
0.0044144
9.5458e-05
0.004092
0.00011104
0.0036999
0.00012473
0.0032447
0.00013575
0.0027369
0.00014656
0.0021662
0.00014717
0.0016474
0.00015248
0.0008759
0.00066502
0.00016917
2.0054e-05
0.0049001
1.4869e-08
4.0146e-05
0.0048104
5.9674e-05
0.0046423
7.8232e-05
0.0043958
9.5462e-05
0.0040748
0.00011104
0.0036843
0.00012474
0.003231
0.0001357
0.0027259
0.00014662
0.0021553
0.00014746
0.0016466
0.00015176
0.0008716
0.00064831
0.00016846
2.0054e-05
0.00488
1.5848e-08
4.0148e-05
0.0047903
5.9676e-05
0.0046227
7.8235e-05
0.0043773
9.5465e-05
0.0040576
0.00011105
0.0036687
0.00012474
0.0032173
0.00013566
0.002715
0.00014666
0.0021443
0.0001478
0.0016454
0.00015117
0.00086823
0.00063191
0.00016758
2.0055e-05
0.0048599
1.683e-08
4.0149e-05
0.0047702
5.9678e-05
0.0046032
7.8238e-05
0.0043587
9.5469e-05
0.0040403
0.00011105
0.0036532
0.00012476
0.0032036
0.00013561
0.0027041
0.00014668
0.0021332
0.00014817
0.001644
0.00015071
0.00086569
0.00061603
0.00016659
2.0055e-05
0.0048399
1.7812e-08
4.015e-05
0.0047501
5.9681e-05
0.0045837
7.8242e-05
0.0043401
9.5472e-05
0.0040231
0.00011105
0.0036376
0.00012477
0.0031899
0.00013557
0.0026933
0.00014669
0.0021221
0.00014856
0.0016421
0.00015037
0.00086388
0.00060083
0.00016556
2.0055e-05
0.0048198
1.8796e-08
4.0152e-05
0.00473
5.9683e-05
0.0045641
7.8245e-05
0.0043216
9.5476e-05
0.0040059
0.00011105
0.003622
0.00012478
0.0031762
0.00013553
0.0026826
0.00014668
0.0021109
0.00014897
0.0016398
0.00015015
0.0008627
0.00058644
0.00016455
2.0055e-05
0.0047997
1.9782e-08
4.0153e-05
0.0047099
5.9686e-05
0.0045446
7.8248e-05
0.004303
9.5479e-05
0.0039886
0.00011105
0.0036064
0.00012479
0.0031624
0.00013549
0.0026719
0.00014665
0.0020998
0.00014937
0.0016371
0.00015004
0.00086204
0.00057289
0.00016358
2.0055e-05
0.0047796
2.0769e-08
4.0154e-05
0.0046898
5.9688e-05
0.0045251
7.8251e-05
0.0042845
9.5483e-05
0.0039714
0.00011106
0.0035909
0.00012481
0.0031487
0.00013546
0.0026612
0.0001466
0.0020886
0.00014977
0.0016339
0.00015002
0.00086179
0.00056023
0.00016268
2.0056e-05
0.0047596
2.1757e-08
4.0156e-05
0.0046697
5.969e-05
0.0045055
7.8254e-05
0.0042659
9.5487e-05
0.0039542
0.00011106
0.0035753
0.00012482
0.0031349
0.00013543
0.0026506
0.00014655
0.0020775
0.00015016
0.0016303
0.00015008
0.00086187
0.00054844
0.00016187
2.0056e-05
0.0047395
2.2748e-08
4.0157e-05
0.0046496
5.9693e-05
0.004486
7.8258e-05
0.0042473
9.549e-05
0.0039369
0.00011106
0.0035597
0.00012483
0.0031211
0.00013541
0.00264
0.00014647
0.0020664
0.00015053
0.0016262
0.00015022
0.00086217
0.00053751
0.00016115
2.0056e-05
0.0047194
2.374e-08
4.0159e-05
0.0046295
5.9695e-05
0.0044665
7.8261e-05
0.0042288
9.5494e-05
0.0039197
0.00011106
0.0035442
0.00012485
0.0031074
0.00013539
0.0026295
0.00014639
0.0020554
0.00015087
0.0016218
0.00015041
0.00086263
0.0005274
0.00016053
2.0056e-05
0.0046993
2.4734e-08
4.016e-05
0.0046094
5.9697e-05
0.0044469
7.8264e-05
0.0042102
9.5498e-05
0.0039025
0.00011106
0.0035286
0.00012486
0.0030935
0.00013538
0.002619
0.0001463
0.0020445
0.00015119
0.0016169
0.00015065
0.00086316
0.00051805
0.00016
2.0056e-05
0.0046792
2.573e-08
4.0161e-05
0.0045893
5.97e-05
0.0044274
7.8268e-05
0.0041916
9.5502e-05
0.0038852
0.00011106
0.003513
0.00012488
0.0030797
0.00013537
0.0026085
0.0001462
0.0020337
0.00015147
0.0016116
0.00015093
0.0008637
0.00050941
0.00015957
2.0057e-05
0.0046592
2.6728e-08
4.0163e-05
0.0045692
5.9702e-05
0.0044078
7.8271e-05
0.0041731
9.5507e-05
0.003868
0.00011106
0.0034975
0.00012489
0.0030659
0.00013537
0.002598
0.0001461
0.002023
0.00015173
0.001606
0.00015122
0.00086421
0.00050142
0.00015921
2.0057e-05
0.0046391
2.7728e-08
4.0164e-05
0.0045491
5.9705e-05
0.0043883
7.8274e-05
0.0041545
9.5511e-05
0.0038508
0.00011107
0.0034819
0.00012491
0.0030521
0.00013537
0.0025876
0.00014599
0.0020124
0.00015196
0.0016
0.00015153
0.00086463
0.00049401
0.00015894
2.0057e-05
0.004619
2.873e-08
4.0165e-05
0.004529
5.9707e-05
0.0043688
7.8278e-05
0.0041359
9.5515e-05
0.0038335
0.00011107
0.0034664
0.00012492
0.0030382
0.00013538
0.0025771
0.00014588
0.0020019
0.00015215
0.0015937
0.00015185
0.00086493
0.00048714
0.00015873
2.0057e-05
0.0045989
2.9735e-08
4.0167e-05
0.0045089
5.971e-05
0.0043492
7.8281e-05
0.0041173
9.552e-05
0.0038163
0.00011107
0.0034508
0.00012494
0.0030243
0.0001354
0.0025666
0.00014577
0.0019915
0.00015232
0.0015872
0.00015217
0.00086508
0.00048073
0.00015858
2.0057e-05
0.0045788
3.0741e-08
4.0168e-05
0.0044887
5.9712e-05
0.0043297
7.8285e-05
0.0040988
9.5524e-05
0.003799
0.00011107
0.0034353
0.00012495
0.0030105
0.00013542
0.0025562
0.00014567
0.0019812
0.00015246
0.0015804
0.00015249
0.00086506
0.00047473
0.00015848
2.0058e-05
0.0045587
3.175e-08
4.017e-05
0.0044686
5.9715e-05
0.0043101
7.8288e-05
0.0040802
9.5529e-05
0.0037818
0.00011107
0.0034197
0.00012497
0.0029966
0.00013544
0.0025457
0.00014556
0.0019711
0.00015258
0.0015734
0.00015279
0.00086484
0.00046909
0.00015843
2.0058e-05
0.0045386
3.2761e-08
4.0171e-05
0.0044485
5.9717e-05
0.0042906
7.8292e-05
0.0040616
9.5534e-05
0.0037646
0.00011107
0.0034042
0.00012498
0.0029827
0.00013547
0.0025352
0.00014546
0.0019611
0.00015267
0.0015662
0.00015309
0.00086443
0.00046377
0.00015841
2.0058e-05
0.0045185
3.3775e-08
4.0172e-05
0.0044284
5.972e-05
0.004271
7.8295e-05
0.004043
9.5539e-05
0.0037473
0.00011107
0.0033887
0.00012499
0.0029687
0.0001355
0.0025247
0.00014537
0.0019512
0.00015274
0.0015588
0.00015336
0.0008638
0.00045872
0.00015842
2.0058e-05
0.0044985
3.4792e-08
4.0174e-05
0.0044083
5.9722e-05
0.0042515
7.8299e-05
0.0040245
9.5544e-05
0.0037301
0.00011108
0.0033731
0.000125
0.0029548
0.00013553
0.0025142
0.00014528
0.0019415
0.0001528
0.0015513
0.00015363
0.00086298
0.0004539
0.00015845
2.0058e-05
0.0044784
3.5811e-08
4.0175e-05
0.0043882
5.9725e-05
0.0042319
7.8302e-05
0.0040059
9.5549e-05
0.0037128
0.00011108
0.0033576
0.00012501
0.0029409
0.00013557
0.0025036
0.0001452
0.0019319
0.00015284
0.0015437
0.00015387
0.00086194
0.00044927
0.00015849
2.0059e-05
0.0044583
3.6832e-08
4.0177e-05
0.0043681
5.9727e-05
0.0042124
7.8306e-05
0.0039873
9.5554e-05
0.0036956
0.00011108
0.0033421
0.00012502
0.0029269
0.00013561
0.002493
0.00014513
0.0019223
0.00015286
0.0015359
0.0001541
0.0008607
0.00044482
0.00015856
2.0059e-05
0.0044382
3.7857e-08
4.0178e-05
0.0043479
5.973e-05
0.0041928
7.8309e-05
0.0039687
9.5559e-05
0.0036783
0.00011108
0.0033265
0.00012503
0.002913
0.00013565
0.0024824
0.00014507
0.0019129
0.00015288
0.0015281
0.00015431
0.00085927
0.00044051
0.00015862
2.0059e-05
0.0044181
3.8884e-08
4.018e-05
0.0043278
5.9733e-05
0.0041733
7.8313e-05
0.0039502
9.5565e-05
0.0036611
0.00011108
0.003311
0.00012504
0.002899
0.00013569
0.0024718
0.00014501
0.0019036
0.00015289
0.0015202
0.00015451
0.00085765
0.00043632
0.0001587
2.0059e-05
0.004398
3.9915e-08
4.0181e-05
0.0043077
5.9735e-05
0.0041537
7.8316e-05
0.0039316
9.5571e-05
0.0036438
0.00011109
0.0032955
0.00012505
0.0028851
0.00013573
0.0024611
0.00014496
0.0018944
0.00015289
0.0015123
0.00015469
0.00085585
0.00043223
0.00015878
2.0059e-05
0.0043779
4.0948e-08
4.0182e-05
0.0042876
5.9738e-05
0.0041342
7.832e-05
0.003913
9.5577e-05
0.0036266
0.00011109
0.00328
0.00012506
0.0028711
0.00013578
0.0024504
0.00014492
0.0018852
0.00015289
0.0015043
0.00015486
0.00085388
0.00042823
0.00015886
2.006e-05
0.0043578
4.1985e-08
4.0184e-05
0.0042675
5.9741e-05
0.0041146
7.8324e-05
0.0038944
9.5583e-05
0.0036093
0.00011109
0.0032645
0.00012507
0.0028571
0.00013582
0.0024396
0.00014488
0.0018762
0.00015289
0.0014963
0.00015502
0.00085176
0.0004243
0.00015894
2.006e-05
0.0043377
4.3024e-08
4.0185e-05
0.0042473
5.9743e-05
0.0040951
7.8327e-05
0.0038758
9.5589e-05
0.003592
0.00011109
0.003249
0.00012507
0.0028431
0.00013587
0.0024288
0.00014486
0.0018672
0.00015288
0.0014883
0.00015516
0.00084948
0.00042044
0.00015902
2.006e-05
0.0043176
4.4067e-08
4.0187e-05
0.0042272
5.9746e-05
0.0040755
7.8331e-05
0.0038572
9.5595e-05
0.0035748
0.0001111
0.0032335
0.00012508
0.0028291
0.00013591
0.002418
0.00014484
0.0018583
0.00015288
0.0014803
0.00015529
0.00084707
0.00041663
0.0001591
2.006e-05
0.0042975
4.5114e-08
4.0188e-05
0.0042071
5.9749e-05
0.0040559
7.8335e-05
0.0038387
9.5601e-05
0.0035575
0.0001111
0.003218
0.00012509
0.0028152
0.00013596
0.0024071
0.00014483
0.0018494
0.00015288
0.0014722
0.00015542
0.00084453
0.00041288
0.00015918
2.0061e-05
0.0042773
4.6164e-08
4.019e-05
0.0041869
5.9752e-05
0.0040364
7.8338e-05
0.0038201
9.5608e-05
0.0035402
0.0001111
0.0032025
0.00012509
0.0028012
0.000136
0.0023962
0.00014482
0.0018406
0.00015287
0.0014642
0.00015553
0.00084187
0.00040916
0.00015925
2.0061e-05
0.0042572
4.7217e-08
4.0191e-05
0.0041668
5.9755e-05
0.0040168
7.8342e-05
0.0038015
9.5615e-05
0.003523
0.0001111
0.003187
0.0001251
0.0027872
0.00013605
0.0023852
0.00014482
0.0018318
0.00015287
0.0014561
0.00015564
0.0008391
0.00040549
0.00015932
2.0061e-05
0.0042371
4.8274e-08
4.0193e-05
0.0041467
5.9757e-05
0.0039972
7.8346e-05
0.0037829
9.5622e-05
0.0035057
0.00011111
0.0031715
0.0001251
0.0027732
0.00013609
0.0023743
0.00014482
0.0018231
0.00015288
0.001448
0.00015575
0.00083622
0.00040185
0.00015939
2.0061e-05
0.004217
4.9335e-08
4.0194e-05
0.0041265
5.976e-05
0.0039777
7.8349e-05
0.0037643
9.5629e-05
0.0034884
0.00011111
0.003156
0.00012511
0.0027592
0.00013613
0.0023632
0.00014483
0.0018144
0.00015288
0.00144
0.00015585
0.00083326
0.00039824
0.00015945
2.0061e-05
0.0041969
5.04e-08
4.0196e-05
0.0041064
5.9763e-05
0.0039581
7.8353e-05
0.0037457
9.5636e-05
0.0034711
0.00011111
0.0031406
0.00012511
0.0027452
0.00013618
0.0023522
0.00014485
0.0018057
0.00015289
0.001432
0.00015594
0.00083021
0.00039466
0.00015951
2.0062e-05
0.0041768
5.1469e-08
4.0197e-05
0.0040863
5.9766e-05
0.0039385
7.8357e-05
0.0037271
9.5644e-05
0.0034538
0.00011112
0.0031251
0.00012512
0.0027312
0.00013622
0.0023411
0.00014486
0.0017971
0.0001529
0.0014239
0.00015603
0.00082707
0.00039112
0.00015957
2.0062e-05
0.0041567
5.2541e-08
4.0199e-05
0.0040661
5.9769e-05
0.003919
7.836e-05
0.0037085
9.5651e-05
0.0034366
0.00011112
0.0031096
0.00012512
0.0027172
0.00013626
0.0023299
0.00014489
0.0017884
0.00015291
0.0014159
0.00015612
0.00082387
0.00038761
0.00015963
2.0062e-05
0.0041366
5.3618e-08
4.02e-05
0.004046
5.9772e-05
0.0038994
7.8364e-05
0.0036899
9.5659e-05
0.0034193
0.00011113
0.0030941
0.00012513
0.0027032
0.0001363
0.0023188
0.00014491
0.0017798
0.00015293
0.0014079
0.0001562
0.00082059
0.00038412
0.00015969
2.0062e-05
0.0041164
5.47e-08
4.0202e-05
0.0040259
5.9775e-05
0.0038798
7.8368e-05
0.0036713
9.5667e-05
0.003402
0.00011113
0.0030787
0.00012513
0.0026892
0.00013634
0.0023075
0.00014494
0.0017712
0.00015294
0.0013999
0.00015628
0.00081725
0.00038066
0.00015974
2.0063e-05
0.0040963
5.5785e-08
4.0203e-05
0.0040057
5.9779e-05
0.0038603
7.8372e-05
0.0036528
9.5675e-05
0.0033847
0.00011114
0.0030632
0.00012513
0.0026752
0.00013638
0.0022963
0.00014496
0.0017626
0.00015296
0.0013919
0.00015636
0.00081385
0.00037723
0.00015979
2.0063e-05
0.0040762
5.6875e-08
4.0205e-05
0.0039856
5.9782e-05
0.0038407
7.8375e-05
0.0036342
9.5683e-05
0.0033674
0.00011114
0.0030478
0.00012514
0.0026612
0.00013642
0.002285
0.000145
0.0017541
0.00015299
0.0013839
0.00015644
0.0008104
0.00037383
0.00015984
2.0063e-05
0.0040561
5.797e-08
4.0206e-05
0.0039654
5.9785e-05
0.0038211
7.8379e-05
0.0036156
9.5691e-05
0.00335
0.00011115
0.0030323
0.00012514
0.0026472
0.00013646
0.0022737
0.00014503
0.0017455
0.00015301
0.0013759
0.00015652
0.00080689
0.00037046
0.00015989
2.0064e-05
0.004036
5.9069e-08
4.0208e-05
0.0039453
5.9788e-05
0.0038015
7.8383e-05
0.003597
9.57e-05
0.0033327
0.00011116
0.0030168
0.00012514
0.0026332
0.0001365
0.0022623
0.00014506
0.0017369
0.00015304
0.0013679
0.00015659
0.00080334
0.00036711
0.00015994
2.0064e-05
0.0040158
6.0173e-08
4.021e-05
0.0039251
5.9792e-05
0.0037819
7.8386e-05
0.0035784
9.5708e-05
0.0033154
0.00011116
0.0030014
0.00012515
0.0026192
0.00013653
0.002251
0.0001451
0.0017284
0.00015306
0.00136
0.00015666
0.00079974
0.00036379
0.00015998
2.0064e-05
0.0039957
6.1282e-08
4.0211e-05
0.003905
5.9795e-05
0.0037624
7.839e-05
0.0035598
9.5717e-05
0.0032981
0.00011117
0.0029859
0.00012515
0.0026053
0.00013657
0.0022395
0.00014513
0.0017198
0.00015309
0.001352
0.00015673
0.0007961
0.0003605
0.00016002
2.0064e-05
0.0039756
6.2396e-08
4.0213e-05
0.0038849
5.9799e-05
0.0037428
7.8394e-05
0.0035412
9.5726e-05
0.0032807
0.00011118
0.0029705
0.00012516
0.0025913
0.00013661
0.0022281
0.00014517
0.0017112
0.00015312
0.0013441
0.0001568
0.00079241
0.00035724
0.00016007
2.0065e-05
0.0039555
6.3515e-08
4.0214e-05
0.0038647
5.9802e-05
0.0037232
7.8398e-05
0.0035226
9.5735e-05
0.0032634
0.00011119
0.002955
0.00012516
0.0025773
0.00013664
0.0022166
0.00014521
0.0017027
0.00015315
0.0013361
0.00015687
0.00078869
0.000354
0.00016011
2.0065e-05
0.0039353
6.464e-08
4.0216e-05
0.0038445
5.9806e-05
0.0037036
7.8402e-05
0.003504
9.5743e-05
0.0032461
0.0001112
0.0029396
0.00012517
0.0025633
0.00013668
0.0022051
0.00014525
0.0016941
0.00015318
0.0013282
0.00015694
0.00078493
0.00035079
0.00016015
2.0065e-05
0.0039152
6.5769e-08
4.0218e-05
0.0038244
5.9809e-05
0.003684
7.8406e-05
0.0034854
9.5752e-05
0.0032287
0.00011121
0.0029241
0.00012517
0.0025494
0.00013671
0.0021936
0.00014529
0.0016855
0.00015321
0.0013203
0.000157
0.00078113
0.0003476
0.00016019
2.0066e-05
0.0038951
6.6905e-08
4.0219e-05
0.0038042
5.9813e-05
0.0036644
7.841e-05
0.0034668
9.5761e-05
0.0032114
0.00011122
0.0029087
0.00012518
0.0025354
0.00013675
0.002182
0.00014533
0.0016769
0.00015324
0.0013124
0.00015707
0.0007773
0.00034444
0.00016023
2.0066e-05
0.0038749
6.8046e-08
4.0221e-05
0.0037841
5.9817e-05
0.0036448
7.8414e-05
0.0034482
9.577e-05
0.003194
0.00011123
0.0028932
0.00012518
0.0025215
0.00013678
0.0021704
0.00014537
0.0016683
0.00015327
0.0013045
0.00015713
0.00077344
0.00034131
0.00016026
2.0066e-05
0.0038548
6.9192e-08
4.0223e-05
0.0037639
5.9821e-05
0.0036252
7.8418e-05
0.0034296
9.5779e-05
0.0031766
0.00011124
0.0028777
0.00012519
0.0025075
0.00013682
0.0021588
0.00014541
0.0016598
0.0001533
0.0012966
0.00015719
0.00076955
0.0003382
0.0001603
2.0067e-05
0.0038347
7.0345e-08
4.0224e-05
0.0037438
5.9824e-05
0.0036056
7.8422e-05
0.003411
9.5788e-05
0.0031593
0.00011125
0.0028623
0.0001252
0.0024936
0.00013685
0.0021471
0.00014545
0.0016512
0.00015333
0.0012887
0.00015725
0.00076562
0.00033512
0.00016034
2.0067e-05
0.0038145
7.1503e-08
4.0226e-05
0.0037236
5.9828e-05
0.003586
7.8426e-05
0.0033924
9.5798e-05
0.0031419
0.00011127
0.0028468
0.0001252
0.0024796
0.00013688
0.0021354
0.00014549
0.0016426
0.00015336
0.0012808
0.00015731
0.00076167
0.00033207
0.00016037
2.0068e-05
0.0037944
7.2668e-08
4.0228e-05
0.0037035
5.9832e-05
0.0035664
7.843e-05
0.0033738
9.5807e-05
0.0031245
0.00011128
0.0028313
0.00012521
0.0024657
0.00013692
0.0021237
0.00014553
0.0016339
0.00015339
0.001273
0.00015737
0.00075769
0.00032903
0.00016041
2.0068e-05
0.0037742
7.3839e-08
4.023e-05
0.0036833
5.9836e-05
0.0035468
7.8435e-05
0.0033552
9.5816e-05
0.0031072
0.00011129
0.0028158
0.00012522
0.0024518
0.00013695
0.002112
0.00014557
0.0016253
0.00015342
0.0012651
0.00015743
0.00075368
0.00032602
0.00016044
2.0068e-05
0.0037541
7.5016e-08
4.0231e-05
0.0036631
5.9841e-05
0.0035272
7.8439e-05
0.0033366
9.5825e-05
0.0030898
0.00011131
0.0028004
0.00012523
0.0024378
0.00013698
0.0021002
0.00014561
0.0016167
0.00015345
0.0012573
0.00015749
0.00074965
0.00032304
0.00016047
2.0069e-05
0.0037339
7.62e-08
4.0233e-05
0.003643
5.9845e-05
0.0035076
7.8444e-05
0.003318
9.5834e-05
0.0030724
0.00011132
0.0027849
0.00012524
0.0024239
0.00013701
0.0020885
0.00014565
0.0016081
0.00015349
0.0012494
0.00015754
0.00074559
0.00032007
0.00016051
2.0069e-05
0.0037138
7.739e-08
4.0235e-05
0.0036228
5.9849e-05
0.003488
7.8449e-05
0.0032994
9.5843e-05
0.003055
0.00011134
0.0027694
0.00012525
0.00241
0.00013704
0.0020767
0.00014569
0.0015994
0.00015352
0.0012416
0.0001576
0.00074151
0.00031713
0.00016054
2.007e-05
0.0036937
7.8587e-08
4.0237e-05
0.0036026
5.9853e-05
0.0034683
7.8454e-05
0.0032808
9.5853e-05
0.0030376
0.00011136
0.0027539
0.00012526
0.0023961
0.00013708
0.0020649
0.00014573
0.0015908
0.00015355
0.0012338
0.00015765
0.00073741
0.00031421
0.00016057
2.007e-05
0.0036735
7.9791e-08
4.0239e-05
0.0035825
5.9858e-05
0.0034487
7.8459e-05
0.0032622
9.5862e-05
0.0030202
0.00011137
0.0027384
0.00012527
0.0023822
0.00013711
0.002053
0.00014577
0.0015821
0.00015358
0.001226
0.0001577
0.00073328
0.00031132
0.0001606
2.0071e-05
0.0036534
8.1003e-08
4.024e-05
0.0035623
5.9862e-05
0.0034291
7.8464e-05
0.0032436
9.5871e-05
0.0030028
0.00011139
0.0027228
0.00012529
0.0023683
0.00013714
0.0020412
0.00014581
0.0015734
0.00015361
0.0012182
0.00015776
0.00072913
0.00030844
0.00016063
2.0071e-05
0.0036332
8.2221e-08
4.0242e-05
0.0035421
5.9867e-05
0.0034095
7.8469e-05
0.003225
9.5881e-05
0.0029854
0.00011141
0.0027073
0.0001253
0.0023544
0.00013717
0.0020293
0.00014585
0.0015647
0.00015364
0.0012104
0.00015781
0.00072496
0.00030558
0.00016066
2.0072e-05
0.003613
8.3446e-08
4.0244e-05
0.003522
5.9871e-05
0.0033899
7.8475e-05
0.0032064
9.589e-05
0.0029679
0.00011142
0.0026918
0.00012531
0.0023405
0.0001372
0.0020174
0.00014589
0.0015561
0.00015367
0.0012026
0.00015786
0.00072077
0.00030275
0.00016069
2.0072e-05
0.0035929
8.4679e-08
4.0246e-05
0.0035018
5.9876e-05
0.0033702
7.8481e-05
0.0031878
9.59e-05
0.0029505
0.00011144
0.0026762
0.00012533
0.0023266
0.00013723
0.0020055
0.00014593
0.0015474
0.0001537
0.0011948
0.00015791
0.00071656
0.00029993
0.00016072
2.0073e-05
0.0035727
8.5919e-08
4.0248e-05
0.0034816
5.9881e-05
0.0033506
7.8487e-05
0.0031692
9.5909e-05
0.0029331
0.00011146
0.0026607
0.00012534
0.0023128
0.00013726
0.0019936
0.00014596
0.0015387
0.00015373
0.0011871
0.00015795
0.00071234
0.00029714
0.00016075
2.0073e-05
0.0035526
8.7167e-08
4.025e-05
0.0034614
5.9886e-05
0.003331
7.8493e-05
0.0031506
9.5919e-05
0.0029157
0.00011148
0.0026451
0.00012536
0.0022989
0.00013729
0.0019817
0.000146
0.0015299
0.00015376
0.0011793
0.000158
0.00070809
0.00029436
0.00016078
2.0074e-05
0.0035324
8.8422e-08
4.0252e-05
0.0034412
5.9891e-05
0.0033113
7.85e-05
0.003132
9.5929e-05
0.0028982
0.0001115
0.0026296
0.00012537
0.002285
0.00013732
0.0019697
0.00014604
0.0015212
0.00015379
0.0011716
0.00015805
0.00070382
0.0002916
0.00016081
2.0074e-05
0.0035122
8.9686e-08
4.0255e-05
0.0034211
5.9896e-05
0.0032917
7.8507e-05
0.0031134
9.5939e-05
0.0028808
0.00011152
0.002614
0.00012539
0.0022711
0.00013735
0.0019578
0.00014608
0.0015125
0.00015381
0.0011638
0.0001581
0.00069954
0.00028886
0.00016084
2.0075e-05
0.0034921
9.0957e-08
4.0257e-05
0.0034009
5.9901e-05
0.003272
7.8514e-05
0.0030948
9.5949e-05
0.0028634
0.00011154
0.0025984
0.0001254
0.0022573
0.00013737
0.0019458
0.00014612
0.0015037
0.00015384
0.0011561
0.00015814
0.00069524
0.00028614
0.00016087
2.0076e-05
0.0034719
9.2235e-08
4.0259e-05
0.0033807
5.9906e-05
0.0032524
7.8521e-05
0.0030761
9.596e-05
0.0028459
0.00011156
0.0025828
0.00012542
0.0022434
0.0001374
0.0019338
0.00014616
0.001495
0.00015387
0.0011484
0.00015819
0.00069093
0.00028343
0.00016089
2.0076e-05
0.0034517
9.3522e-08
4.0261e-05
0.0033605
5.9911e-05
0.0032327
7.8528e-05
0.0030575
9.597e-05
0.0028285
0.00011158
0.0025672
0.00012544
0.0022296
0.00013743
0.0019218
0.0001462
0.0014862
0.0001539
0.0011407
0.00015823
0.0006866
0.00028074
0.00016092
2.0077e-05
0.0034316
9.4816e-08
4.0264e-05
0.0033403
5.9916e-05
0.0032131
7.8536e-05
0.0030389
9.5981e-05
0.0028111
0.0001116
0.0025515
0.00012545
0.0022157
0.00013746
0.0019098
0.00014623
0.0014774
0.00015393
0.001133
0.00015828
0.00068226
0.00027807
0.00016095
2.0078e-05
0.0034114
9.6119e-08
4.0266e-05
0.0033201
5.9922e-05
0.0031934
7.8544e-05
0.0030203
9.5992e-05
0.0027936
0.00011162
0.0025359
0.00012547
0.0022019
0.00013748
0.0018978
0.00014627
0.0014687
0.00015396
0.0011253
0.00015832
0.0006779
0.00027541
0.00016098
2.0078e-05
0.0033912
9.7429e-08
4.0269e-05
0.0033
5.9928e-05
0.0031738
7.8553e-05
0.0030017
9.6003e-05
0.0027762
0.00011164
0.0025203
0.00012549
0.002188
0.00013751
0.0018858
0.00014631
0.0014599
0.00015399
0.0011176
0.00015836
0.00067353
0.00027277
0.000161
2.0079e-05
0.003371
9.8747e-08
4.0272e-05
0.0032798
5.9933e-05
0.0031541
7.8561e-05
0.002983
9.6014e-05
0.0027587
0.00011167
0.0025046
0.00012551
0.0021742
0.00013754
0.0018738
0.00014635
0.001451
0.00015402
0.0011099
0.00015841
0.00066915
0.00027015
0.00016103
2.008e-05
0.0033509
1.0007e-07
4.0274e-05
0.0032596
5.9939e-05
0.0031344
7.857e-05
0.0029644
9.6026e-05
0.0027412
0.00011169
0.002489
0.00012552
0.0021603
0.00013756
0.0018617
0.00014638
0.0014422
0.00015405
0.0011023
0.00015845
0.00066475
0.00026754
0.00016106
2.0081e-05
0.0033307
1.0141e-07
4.0277e-05
0.0032394
5.9945e-05
0.0031148
7.8579e-05
0.0029458
9.6038e-05
0.0027238
0.00011171
0.0024733
0.00012554
0.0021465
0.00013759
0.0018497
0.00014642
0.0014334
0.00015408
0.0010946
0.00015849
0.00066034
0.00026494
0.00016108
2.0082e-05
0.0033105
1.0275e-07
4.028e-05
0.0032192
5.9951e-05
0.0030951
7.8589e-05
0.0029271
9.6049e-05
0.0027063
0.00011173
0.0024576
0.00012556
0.0021327
0.00013761
0.0018376
0.00014646
0.0014245
0.00015411
0.001087
0.00015853
0.00065592
0.00026236
0.00016111
2.0082e-05
0.0032903
1.0409e-07
4.0283e-05
0.003199
5.9957e-05
0.0030754
7.8598e-05
0.0029085
9.6061e-05
0.0026889
0.00011175
0.0024419
0.00012558
0.0021189
0.00013764
0.0018256
0.0001465
0.0014157
0.00015414
0.0010793
0.00015857
0.00065149
0.0002598
0.00016114
2.0083e-05
0.0032701
1.0545e-07
4.0286e-05
0.0031788
5.9963e-05
0.0030558
7.8608e-05
0.0028898
9.6073e-05
0.0026714
0.00011177
0.0024262
0.0001256
0.002105
0.00013767
0.0018135
0.00014653
0.0014068
0.00015417
0.0010717
0.00015861
0.00064705
0.00025725
0.00016116
2.0084e-05
0.0032499
1.0681e-07
4.0289e-05
0.0031586
5.9969e-05
0.0030361
7.8618e-05
0.0028712
9.6086e-05
0.0026539
0.00011179
0.0024105
0.00012561
0.0020912
0.00013769
0.0018014
0.00014657
0.0013979
0.0001542
0.0010641
0.00015865
0.00064259
0.00025471
0.00016119
2.0085e-05
0.0032297
1.0818e-07
4.0292e-05
0.0031384
5.9976e-05
0.0030164
7.8628e-05
0.0028525
9.6098e-05
0.0026365
0.00011181
0.0023948
0.00012563
0.0020774
0.00013771
0.0017893
0.00014661
0.001389
0.00015423
0.0010564
0.00015869
0.00063813
0.00025218
0.00016122
2.0086e-05
0.0032095
1.0955e-07
4.0296e-05
0.0031181
5.9982e-05
0.0029967
7.8639e-05
0.0028339
9.6111e-05
0.002619
0.00011184
0.0023791
0.00012565
0.0020636
0.00013774
0.0017773
0.00014665
0.0013801
0.00015426
0.0010488
0.00015873
0.00063366
0.00024967
0.00016124
2.0087e-05
0.0031893
1.1093e-07
4.0299e-05
0.0030979
5.9989e-05
0.002977
7.8649e-05
0.0028152
9.6123e-05
0.0026015
0.00011186
0.0023633
0.00012567
0.0020498
0.00013776
0.0017652
0.00014668
0.0013712
0.00015429
0.0010412
0.00015877
0.00062918
0.00024717
0.00016127
2.0088e-05
0.0031691
1.1232e-07
4.0303e-05
0.0030777
5.9996e-05
0.0029573
7.866e-05
0.0027966
9.6136e-05
0.002584
0.00011188
0.0023476
0.00012569
0.002036
0.00013779
0.0017531
0.00014672
0.0013623
0.00015432
0.0010336
0.00015881
0.00062469
0.00024469
0.00016129
2.009e-05
0.0031489
1.1371e-07
4.0307e-05
0.0030575
6.0003e-05
0.0029376
7.8671e-05
0.0027779
9.6149e-05
0.0025666
0.0001119
0.0023319
0.0001257
0.0020222
0.00013781
0.0017409
0.00014676
0.0013533
0.00015435
0.001026
0.00015885
0.00062019
0.00024222
0.00016132
2.0091e-05
0.0031287
1.1511e-07
4.031e-05
0.0030373
6.001e-05
0.0029179
7.8682e-05
0.0027592
9.6161e-05
0.0025491
0.00011192
0.0023161
0.00012572
0.0020084
0.00013784
0.0017288
0.0001468
0.0013444
0.00015438
0.0010185
0.00015889
0.00061569
0.00023975
0.00016135
2.0092e-05
0.0031085
1.1651e-07
4.0314e-05
0.0030171
6.0017e-05
0.0028982
7.8694e-05
0.0027405
9.6174e-05
0.0025316
0.00011194
0.0023003
0.00012574
0.0019946
0.00013786
0.0017167
0.00014683
0.0013354
0.00015441
0.0010109
0.00015892
0.00061117
0.0002373
0.00016137
2.0093e-05
0.0030883
1.1791e-07
4.0318e-05
0.0029968
6.0024e-05
0.0028785
7.8705e-05
0.0027219
9.6187e-05
0.0025141
0.00011196
0.0022846
0.00012576
0.0019808
0.00013788
0.0017046
0.00014687
0.0013264
0.00015444
0.0010033
0.00015896
0.00060665
0.00023487
0.0001614
2.0094e-05
0.0030681
1.1932e-07
4.0322e-05
0.0029766
6.0031e-05
0.0028588
7.8716e-05
0.0027032
9.62e-05
0.0024966
0.00011198
0.0022688
0.00012578
0.001967
0.00013791
0.0016925
0.00014691
0.0013174
0.00015447
0.00099575
0.000159
0.00060213
0.00023244
0.00016143
2.0096e-05
0.0030479
1.2073e-07
4.0326e-05
0.0029564
6.0038e-05
0.0028391
7.8728e-05
0.0026845
9.6213e-05
0.0024792
0.000112
0.002253
0.0001258
0.0019532
0.00013793
0.0016803
0.00014695
0.0013084
0.0001545
0.00098819
0.00015904
0.00059759
0.00023002
0.00016145
2.0097e-05
0.0030277
1.2215e-07
4.0331e-05
0.0029361
6.0046e-05
0.0028194
7.874e-05
0.0026658
9.6226e-05
0.0024617
0.00011202
0.0022372
0.00012581
0.0019394
0.00013796
0.0016682
0.00014698
0.0012994
0.00015453
0.00098064
0.00015907
0.00059305
0.00022762
0.00016148
2.0099e-05
0.0030074
1.2357e-07
4.0335e-05
0.0029159
6.0053e-05
0.0027997
7.8751e-05
0.0026471
9.6238e-05
0.0024442
0.00011204
0.0022214
0.00012583
0.0019256
0.00013798
0.001656
0.00014702
0.0012903
0.00015457
0.00097309
0.00015911
0.00058851
0.00022522
0.00016151
2.01e-05
0.0029872
1.2499e-07
4.0339e-05
0.0028957
6.0061e-05
0.0027799
7.8763e-05
0.0026284
9.6251e-05
0.0024267
0.00011206
0.0022056
0.00012585
0.0019118
0.000138
0.0016439
0.00014706
0.0012813
0.0001546
0.00096555
0.00015915
0.00058396
0.00022284
0.00016153
2.0101e-05
0.002967
1.2641e-07
4.0344e-05
0.0028754
6.0068e-05
0.0027602
7.8775e-05
0.0026097
9.6264e-05
0.0024092
0.00011208
0.0021898
0.00012587
0.001898
0.00013803
0.0016317
0.0001471
0.0012722