/*--------------------------------*- C++ -*----------------------------------*\
  =========                 |
  \\      /  F ield         | OpenFOAM: The Open Source CFD Toolbox
   \\    /   O peration     | Website:  https://openfoam.org
    \\  /    A nd           | Version:  6.0
     \\/     M anipulation  |
\*---------------------------------------------------------------------------*/
FoamFile
{
    version     2.0;
    format      ascii;
    class       volScalarField;
    location    "6";
    object      p;
}
// * * * * * * * * * * * * * * * * * * * * * * * * * * * * * * * * * * * * * //

dimensions      [0 2 -2 0 0 0 0];

internalField   nonuniform List<scalar> 
14500
(
0.069595
0.069459
0.069046
0.06852
0.067854
0.0673
0.067071
0.067271
0.069544
0.072256
0.092666
0.12447
0.069595
0.06946
0.069046
0.06852
0.067854
0.067299
0.067071
0.067269
0.069543
0.072277
0.092124
0.12128
0.069595
0.06946
0.069046
0.06852
0.067854
0.067299
0.06707
0.067265
0.069539
0.07228
0.091359
0.11794
0.069596
0.069461
0.069047
0.068521
0.067854
0.067298
0.067068
0.06726
0.06953
0.072263
0.090489
0.11502
0.069597
0.069462
0.069047
0.068521
0.067854
0.067297
0.067066
0.067253
0.069516
0.072231
0.089567
0.11248
0.069598
0.069463
0.069048
0.068522
0.067853
0.067296
0.067063
0.067245
0.069497
0.072186
0.088624
0.1102
0.0696
0.069465
0.069049
0.068523
0.067853
0.067294
0.067058
0.067236
0.069474
0.072125
0.087687
0.10807
0.069601
0.069467
0.06905
0.068524
0.067853
0.067293
0.067054
0.067226
0.069445
0.072049
0.086774
0.10605
0.069603
0.069468
0.069052
0.068525
0.067852
0.06729
0.067048
0.067214
0.069412
0.071956
0.085898
0.10416
0.069605
0.069471
0.069053
0.068526
0.067852
0.067288
0.067042
0.067202
0.069373
0.071848
0.085068
0.10238
0.069607
0.069473
0.069055
0.068527
0.067851
0.067286
0.067035
0.067188
0.069329
0.071727
0.084285
0.10071
0.06961
0.069475
0.069056
0.068528
0.06785
0.067283
0.067027
0.067173
0.069279
0.071594
0.08355
0.099145
0.069613
0.069478
0.069058
0.06853
0.06785
0.06728
0.067018
0.067157
0.069223
0.071451
0.08286
0.097672
0.069616
0.069481
0.06906
0.068531
0.067849
0.067276
0.067009
0.06714
0.069161
0.0713
0.08221
0.096285
0.069619
0.069484
0.069062
0.068533
0.067848
0.067273
0.066999
0.067122
0.069093
0.071145
0.081597
0.094976
0.069622
0.069487
0.069065
0.068534
0.067847
0.067269
0.066988
0.067102
0.069018
0.070986
0.081015
0.093738
0.069626
0.069491
0.069067
0.068536
0.067845
0.067265
0.066976
0.067081
0.068937
0.070826
0.080458
0.092563
0.06963
0.069495
0.06907
0.068537
0.067844
0.06726
0.066963
0.067058
0.06885
0.070666
0.079923
0.091444
0.069634
0.069499
0.069073
0.068539
0.067843
0.067255
0.06695
0.067034
0.068757
0.070508
0.079405
0.090374
0.069639
0.069503
0.069076
0.068541
0.067841
0.067251
0.066936
0.067008
0.068658
0.070352
0.078899
0.089349
0.069643
0.069508
0.069079
0.068543
0.06784
0.067245
0.066921
0.066981
0.068554
0.070199
0.078404
0.088361
0.069648
0.069513
0.069083
0.068545
0.067838
0.06724
0.066906
0.066952
0.068445
0.07005
0.077916
0.087408
0.069654
0.069518
0.069086
0.068547
0.067837
0.067234
0.066889
0.066922
0.068331
0.069904
0.077434
0.086484
0.069659
0.069523
0.06909
0.06855
0.067835
0.067228
0.066872
0.06689
0.068214
0.069763
0.076954
0.085587
0.069665
0.069528
0.069094
0.068552
0.067833
0.067222
0.066854
0.066855
0.068093
0.069625
0.076477
0.084714
0.069671
0.069534
0.069098
0.068554
0.067831
0.067215
0.066835
0.066819
0.067969
0.06949
0.076002
0.083861
0.069677
0.06954
0.069102
0.068557
0.067829
0.067209
0.066816
0.066781
0.067842
0.069359
0.075527
0.083028
0.069684
0.069547
0.069107
0.06856
0.067827
0.067202
0.066796
0.066741
0.067713
0.069231
0.075052
0.082212
0.069691
0.069553
0.069112
0.068563
0.067825
0.067194
0.066775
0.066699
0.067583
0.069104
0.074577
0.081413
0.069698
0.06956
0.069116
0.068566
0.067822
0.067187
0.066753
0.066655
0.067452
0.068979
0.074102
0.080629
0.069706
0.069567
0.069122
0.068569
0.06782
0.067179
0.06673
0.066609
0.06732
0.068856
0.073628
0.07986
0.069713
0.069575
0.069127
0.068572
0.067818
0.067171
0.066707
0.06656
0.067189
0.068733
0.073155
0.079104
0.069721
0.069582
0.069133
0.068575
0.067815
0.067163
0.066682
0.06651
0.067057
0.06861
0.072682
0.078362
0.06973
0.06959
0.069138
0.068579
0.067813
0.067154
0.066657
0.066457
0.066926
0.068487
0.072211
0.077632
0.069739
0.069599
0.069144
0.068582
0.06781
0.067146
0.066631
0.066403
0.066796
0.068364
0.071741
0.076916
0.069748
0.069607
0.069151
0.068586
0.067808
0.067137
0.066604
0.066347
0.066667
0.068239
0.071273
0.076212
0.069757
0.069616
0.069157
0.06859
0.067805
0.067127
0.066576
0.066289
0.066539
0.068113
0.070809
0.07552
0.069767
0.069625
0.069164
0.068594
0.067802
0.067118
0.066547
0.06623
0.066413
0.067986
0.070347
0.074841
0.069777
0.069635
0.069171
0.068598
0.0678
0.067108
0.066517
0.066168
0.066288
0.067856
0.069889
0.074174
0.069787
0.069645
0.069178
0.068603
0.067797
0.067098
0.066486
0.066106
0.066165
0.067725
0.069435
0.073519
0.069798
0.069655
0.069185
0.068607
0.067794
0.067088
0.066454
0.066042
0.066044
0.067591
0.068985
0.072877
0.069809
0.069666
0.069193
0.068612
0.067791
0.067078
0.066421
0.065978
0.065924
0.067456
0.06854
0.072246
0.069821
0.069676
0.069201
0.068617
0.067788
0.067068
0.066387
0.065912
0.065806
0.067317
0.068101
0.071628
0.069832
0.069688
0.069209
0.068622
0.067786
0.067057
0.066352
0.065845
0.065689
0.067177
0.067666
0.071021
0.069845
0.069699
0.069218
0.068627
0.067783
0.067046
0.066316
0.065778
0.065574
0.067034
0.067238
0.070426
0.069857
0.069711
0.069227
0.068633
0.06778
0.067035
0.066278
0.065711
0.06546
0.066889
0.066815
0.069843
0.06987
0.069724
0.069236
0.068638
0.067777
0.067024
0.06624
0.065644
0.065347
0.066741
0.066398
0.069271
0.069884
0.069736
0.069245
0.068644
0.067774
0.067012
0.0662
0.065576
0.065234
0.066591
0.065987
0.068711
0.069897
0.069749
0.069255
0.06865
0.067771
0.067001
0.066159
0.065509
0.065123
0.066439
0.065583
0.068162
0.069912
0.069763
0.069265
0.068657
0.067768
0.066989
0.066117
0.065442
0.065012
0.066286
0.065185
0.067624
0.069926
0.069777
0.069275
0.068663
0.067766
0.066977
0.066074
0.065375
0.064901
0.06613
0.064794
0.067098
0.069941
0.069791
0.069286
0.06867
0.067763
0.066964
0.06603
0.065309
0.06479
0.065972
0.064409
0.066581
0.069957
0.069806
0.069297
0.068677
0.06776
0.066952
0.065985
0.065243
0.064679
0.065813
0.06403
0.066076
0.069972
0.069821
0.069308
0.068684
0.067757
0.066939
0.065939
0.065179
0.064568
0.065652
0.063658
0.06558
0.069989
0.069836
0.06932
0.068691
0.067755
0.066926
0.065892
0.065115
0.064456
0.06549
0.063292
0.065094
0.070006
0.069852
0.069332
0.068699
0.067752
0.066913
0.065844
0.065052
0.064344
0.065327
0.062933
0.064618
0.070023
0.069869
0.069344
0.068707
0.06775
0.0669
0.065794
0.06499
0.06423
0.065162
0.06258
0.064152
0.07004
0.069886
0.069357
0.068715
0.067747
0.066886
0.065745
0.06493
0.064116
0.064996
0.062232
0.063694
0.070059
0.069903
0.06937
0.068724
0.067745
0.066872
0.065694
0.06487
0.064001
0.064829
0.061891
0.063246
0.070077
0.069921
0.069383
0.068733
0.067743
0.066858
0.065642
0.064812
0.063885
0.064661
0.061556
0.062805
0.070097
0.069939
0.069397
0.068742
0.06774
0.066844
0.06559
0.064754
0.063767
0.064492
0.061226
0.062373
0.070116
0.069958
0.069411
0.068752
0.067738
0.06683
0.065537
0.064698
0.063649
0.064322
0.060901
0.061949
0.070136
0.069977
0.069426
0.068761
0.067737
0.066815
0.065484
0.064643
0.063529
0.064151
0.060582
0.061533
0.070157
0.069997
0.069441
0.068771
0.067735
0.0668
0.06543
0.064589
0.063407
0.06398
0.060268
0.061124
0.070178
0.070017
0.069457
0.068782
0.067733
0.066785
0.065376
0.064535
0.063285
0.063808
0.059959
0.060722
0.0702
0.070038
0.069473
0.068793
0.067732
0.06677
0.065322
0.064483
0.063161
0.063635
0.059654
0.060326
0.070223
0.07006
0.069489
0.068804
0.067731
0.066754
0.065267
0.064431
0.063036
0.063462
0.059355
0.059937
0.070246
0.070082
0.069506
0.068815
0.06773
0.066738
0.065212
0.06438
0.062909
0.063288
0.05906
0.059555
0.070269
0.070104
0.069523
0.068827
0.067729
0.066722
0.065158
0.06433
0.062782
0.063114
0.058769
0.059178
0.070293
0.070127
0.069541
0.068839
0.067728
0.066706
0.065103
0.06428
0.062653
0.062939
0.058482
0.058807
0.070318
0.070151
0.069559
0.068852
0.067728
0.06669
0.065049
0.06423
0.062524
0.062764
0.058199
0.058441
0.070343
0.070175
0.069578
0.068865
0.067727
0.066673
0.064994
0.064181
0.062393
0.062588
0.05792
0.05808
0.070369
0.0702
0.069598
0.068879
0.067727
0.066656
0.06494
0.064132
0.062262
0.062413
0.057645
0.057725
0.070396
0.070226
0.069618
0.068893
0.067727
0.066639
0.064887
0.064083
0.062129
0.062236
0.057373
0.057374
0.070423
0.070252
0.069638
0.068907
0.067728
0.066622
0.064834
0.064034
0.061996
0.06206
0.057104
0.057027
0.070451
0.070279
0.069659
0.068922
0.067729
0.066605
0.064781
0.063984
0.061863
0.061883
0.056839
0.056685
0.07048
0.070306
0.069681
0.068937
0.06773
0.066587
0.064729
0.063935
0.061729
0.061706
0.056577
0.056347
0.070509
0.070335
0.069703
0.068953
0.067731
0.06657
0.064678
0.063885
0.061594
0.061529
0.056318
0.056014
0.070539
0.070364
0.069725
0.06897
0.067733
0.066552
0.064627
0.063835
0.06146
0.061352
0.056062
0.055684
0.07057
0.070393
0.069749
0.068987
0.067734
0.066535
0.064577
0.063784
0.061325
0.061175
0.055809
0.055357
0.070601
0.070424
0.069773
0.069004
0.067737
0.066518
0.064528
0.063733
0.06119
0.060998
0.055559
0.055035
0.070633
0.070455
0.069798
0.069022
0.067739
0.0665
0.06448
0.063681
0.061054
0.060821
0.055311
0.054715
0.070666
0.070487
0.069823
0.069041
0.067742
0.066483
0.064433
0.063628
0.060919
0.060643
0.055066
0.054399
0.0707
0.070519
0.069849
0.06906
0.067745
0.066466
0.064387
0.063575
0.060784
0.060466
0.054823
0.054087
0.070735
0.070553
0.069876
0.069079
0.067749
0.066449
0.064341
0.063521
0.060649
0.060289
0.054583
0.053777
0.07077
0.070587
0.069903
0.0691
0.067752
0.066432
0.064296
0.063466
0.060515
0.060113
0.054346
0.05347
0.070807
0.070623
0.069931
0.069121
0.067757
0.066416
0.064253
0.06341
0.06038
0.059936
0.054111
0.053167
0.070844
0.070659
0.06996
0.069143
0.067761
0.0664
0.06421
0.063353
0.060246
0.05976
0.053878
0.052866
0.070882
0.070696
0.06999
0.069165
0.067766
0.066384
0.064168
0.063296
0.060112
0.059584
0.053647
0.052568
0.070921
0.070733
0.07002
0.069188
0.067771
0.066369
0.064127
0.063238
0.059979
0.059408
0.053419
0.052273
0.070961
0.070772
0.070051
0.069212
0.067777
0.066355
0.064086
0.063179
0.059846
0.059233
0.053192
0.05198
0.071002
0.070812
0.070083
0.069237
0.067783
0.066341
0.064047
0.063119
0.059714
0.059058
0.052968
0.051691
0.071043
0.070853
0.070116
0.069262
0.06779
0.066327
0.064008
0.063058
0.059582
0.058883
0.052746
0.051404
0.071086
0.070894
0.07015
0.069288
0.067797
0.066315
0.063971
0.062997
0.059451
0.058709
0.052527
0.051119
0.07113
0.070937
0.070185
0.069315
0.067805
0.066303
0.063934
0.062935
0.059321
0.058535
0.052309
0.050837
0.071175
0.070981
0.07022
0.069343
0.067813
0.066292
0.063897
0.062872
0.059191
0.058362
0.052093
0.050558
0.071221
0.071025
0.070257
0.069372
0.067821
0.066282
0.063861
0.062809
0.059061
0.05819
0.05188
0.050281
0.071268
0.071071
0.070295
0.069402
0.06783
0.066272
0.063826
0.062745
0.058933
0.058018
0.051669
0.050006
0.071316
0.071118
0.070333
0.069432
0.06784
0.066264
0.063792
0.062681
0.058805
0.057846
0.051459
0.049735
0.071365
0.071166
0.070373
0.069464
0.06785
0.066257
0.063758
0.062617
0.058678
0.057675
0.051252
0.049465
0.071415
0.071216
0.070413
0.069496
0.06786
0.066251
0.063724
0.062552
0.058552
0.057505
0.051046
0.049198
0.071467
0.071266
0.070455
0.06953
0.067872
0.066246
0.063691
0.062486
0.058426
0.057336
0.050843
0.048933
0.07152
0.071318
0.070498
0.069564
0.067884
0.066242
0.063659
0.062421
0.058302
0.057167
0.050641
0.048671
0.071574
0.071371
0.070541
0.0696
0.067896
0.06624
0.063627
0.062355
0.058178
0.056999
0.050442
0.048411
0.071629
0.071425
0.070587
0.069636
0.067909
0.066239
0.063595
0.062289
0.058055
0.056831
0.050244
0.048153
0.071686
0.071481
0.070633
0.069674
0.067923
0.066239
0.063564
0.062224
0.057933
0.056664
0.050048
0.047898
0.071744
0.071538
0.07068
0.069713
0.067938
0.066241
0.063533
0.062158
0.057811
0.056498
0.049854
0.047645
0.071803
0.071596
0.070729
0.069753
0.067954
0.066244
0.063502
0.062092
0.057691
0.056332
0.049662
0.047394
0.071864
0.071656
0.070779
0.069794
0.06797
0.066248
0.063472
0.062026
0.057571
0.056167
0.049472
0.047145
0.071926
0.071717
0.07083
0.069836
0.067987
0.066254
0.063443
0.061961
0.057453
0.056003
0.049284
0.046899
0.07199
0.07178
0.070883
0.06988
0.068006
0.066261
0.063413
0.061895
0.057335
0.05584
0.049097
0.046654
0.072055
0.071844
0.070937
0.069925
0.068025
0.06627
0.063384
0.06183
0.057218
0.055677
0.048912
0.046412
0.072122
0.07191
0.070993
0.069972
0.068045
0.06628
0.063356
0.061765
0.057102
0.055515
0.048729
0.046172
0.07219
0.071978
0.07105
0.070019
0.068066
0.066292
0.063327
0.061701
0.056987
0.055353
0.048547
0.045934
0.07226
0.072047
0.071109
0.070068
0.068089
0.066305
0.0633
0.061637
0.056873
0.055193
0.048368
0.045697
0.072332
0.072118
0.071169
0.070119
0.068112
0.06632
0.063273
0.061573
0.056761
0.055033
0.048189
0.045463
0.072406
0.07219
0.071231
0.070171
0.068137
0.066336
0.063246
0.06151
0.056649
0.054873
0.048013
0.04523
0.072481
0.072265
0.071294
0.070224
0.068163
0.066354
0.06322
0.061447
0.056538
0.054714
0.047837
0.045
0.072558
0.072341
0.07136
0.07028
0.068191
0.066374
0.063194
0.061385
0.056428
0.054556
0.047664
0.044771
0.072637
0.072419
0.071427
0.070336
0.06822
0.066395
0.06317
0.061323
0.056319
0.054398
0.047491
0.044543
0.072718
0.072499
0.071495
0.070394
0.06825
0.066417
0.063146
0.061262
0.056212
0.054241
0.04732
0.044317
0.0728
0.072581
0.071566
0.070454
0.068283
0.066441
0.063122
0.061201
0.056105
0.054085
0.04715
0.044093
0.072885
0.072665
0.071639
0.070516
0.068316
0.066466
0.0631
0.061141
0.056
0.053929
0.046982
0.04387
0.072972
0.072751
0.071713
0.07058
0.068352
0.066493
0.063079
0.061082
0.055895
0.053774
0.046815
0.043648
0.073061
0.072839
0.07179
0.070645
0.068389
0.066521
0.063058
0.061024
0.055792
0.053619
0.046648
0.043428
0.073152
0.07293
0.071869
0.070712
0.068428
0.066551
0.063039
0.060966
0.05569
0.053465
0.046483
0.043209
0.073245
0.073023
0.07195
0.070781
0.068469
0.066582
0.06302
0.060909
0.055588
0.053311
0.046319
0.042991
0.073341
0.073118
0.072033
0.070852
0.068512
0.066615
0.063003
0.060853
0.055489
0.053157
0.046156
0.042773
0.073439
0.073215
0.072118
0.070925
0.068557
0.066649
0.062988
0.060797
0.05539
0.053004
0.045993
0.042557
0.07354
0.073315
0.072206
0.071
0.068604
0.066684
0.062973
0.060743
0.055292
0.052852
0.045831
0.042341
0.073643
0.073417
0.072297
0.071077
0.068654
0.066721
0.06296
0.060689
0.055195
0.0527
0.04567
0.042126
0.073748
0.073522
0.072389
0.071157
0.068706
0.06676
0.062948
0.060637
0.0551
0.052548
0.04551
0.041912
0.073857
0.07363
0.072485
0.071239
0.06876
0.066799
0.062938
0.060585
0.055006
0.052397
0.04535
0.041698
0.073968
0.07374
0.072583
0.071323
0.068817
0.066841
0.06293
0.060534
0.054913
0.052246
0.04519
0.041484
0.074081
0.073854
0.072684
0.07141
0.068876
0.066883
0.062923
0.060485
0.054821
0.052096
0.045031
0.041271
0.074198
0.07397
0.072787
0.071499
0.068938
0.066928
0.062918
0.060436
0.05473
0.051945
0.044873
0.041057
0.074318
0.074089
0.072894
0.071591
0.069002
0.066973
0.062914
0.060389
0.054641
0.051796
0.044714
0.040844
0.07444
0.074211
0.073003
0.071685
0.069069
0.067021
0.062913
0.060343
0.054552
0.051646
0.044556
0.04063
0.074566
0.074336
0.073116
0.071782
0.069139
0.06707
0.062913
0.060298
0.054465
0.051497
0.044398
0.040417
0.074695
0.074465
0.073232
0.071883
0.069213
0.06712
0.062915
0.060254
0.054379
0.051348
0.04424
0.040203
0.074828
0.074597
0.073351
0.071986
0.069289
0.067172
0.06292
0.060212
0.054294
0.0512
0.044082
0.039989
0.074964
0.074732
0.073474
0.072092
0.069368
0.067226
0.062926
0.060171
0.054211
0.051052
0.043923
0.039774
0.075103
0.074871
0.0736
0.072202
0.06945
0.067282
0.062934
0.060131
0.054129
0.050904
0.043765
0.039558
0.075246
0.075014
0.073729
0.072314
0.069535
0.06734
0.062945
0.060093
0.054048
0.050756
0.043606
0.039342
0.075393
0.07516
0.073863
0.072431
0.069624
0.067399
0.062958
0.060056
0.053968
0.050609
0.043448
0.039125
0.075543
0.075311
0.074
0.072551
0.069716
0.067461
0.062972
0.060021
0.053889
0.050462
0.043288
0.038908
0.075698
0.075465
0.074141
0.072674
0.069812
0.067525
0.06299
0.059987
0.053812
0.050315
0.043129
0.038689
0.075857
0.075623
0.074286
0.072802
0.069911
0.067591
0.063009
0.059955
0.053736
0.050168
0.042969
0.038469
0.07602
0.075786
0.074436
0.072933
0.070014
0.06766
0.063031
0.059924
0.053661
0.050022
0.042808
0.038248
0.076187
0.075953
0.07459
0.073069
0.07012
0.06773
0.063056
0.059895
0.053588
0.049876
0.042647
0.038026
0.076359
0.076125
0.074748
0.073209
0.070231
0.067804
0.063082
0.059868
0.053515
0.04973
0.042486
0.037802
0.076536
0.076301
0.074911
0.073354
0.070345
0.06788
0.063112
0.059842
0.053444
0.049584
0.042323
0.037577
0.076717
0.076482
0.075079
0.073503
0.070463
0.067959
0.063144
0.059818
0.053375
0.049439
0.04216
0.03735
0.076903
0.076668
0.075251
0.073657
0.070585
0.068041
0.063178
0.059795
0.053306
0.049293
0.041996
0.037122
0.077095
0.076859
0.075429
0.073816
0.070712
0.068126
0.063216
0.059775
0.053239
0.049148
0.041831
0.036892
0.077291
0.077056
0.075612
0.07398
0.070842
0.068215
0.063256
0.059756
0.053172
0.049003
0.041665
0.03666
0.077494
0.077258
0.075801
0.07415
0.070978
0.068306
0.063299
0.059739
0.053108
0.048858
0.041498
0.036426
0.077702
0.077466
0.075995
0.074325
0.071118
0.068402
0.063344
0.059724
0.053044
0.048713
0.04133
0.03619
0.077915
0.077679
0.076195
0.074506
0.071262
0.068501
0.063393
0.05971
0.052981
0.048568
0.04116
0.035952
0.078135
0.077899
0.076401
0.074693
0.071412
0.068604
0.063445
0.059699
0.05292
0.048423
0.040989
0.035711
0.078361
0.078125
0.076613
0.074886
0.071566
0.068711
0.0635
0.05969
0.05286
0.048278
0.040817
0.035468
0.078594
0.078357
0.076831
0.075086
0.071726
0.068822
0.063559
0.059682
0.052801
0.048132
0.040643
0.035222
0.078833
0.078596
0.077057
0.075292
0.071891
0.068938
0.063621
0.059677
0.052743
0.047987
0.040468
0.034974
0.07908
0.078843
0.077289
0.075505
0.072062
0.069058
0.063686
0.059673
0.052686
0.047841
0.040291
0.034722
0.079333
0.079096
0.077528
0.075725
0.072239
0.069183
0.063755
0.059672
0.052631
0.047695
0.040112
0.034468
0.079594
0.079357
0.077775
0.075953
0.072421
0.069313
0.063828
0.059673
0.052576
0.047549
0.039932
0.034211
0.079863
0.079626
0.07803
0.076188
0.07261
0.069448
0.063904
0.059676
0.052523
0.047402
0.039749
0.03395
0.080139
0.079902
0.078292
0.076432
0.072806
0.069589
0.063985
0.059681
0.05247
0.047255
0.039564
0.033686
0.080424
0.080187
0.078563
0.076683
0.073008
0.069736
0.064069
0.059688
0.052419
0.047107
0.039376
0.033418
0.080718
0.080481
0.078842
0.076943
0.073218
0.069888
0.064158
0.059698
0.052368
0.046959
0.039186
0.033146
0.08102
0.080784
0.079131
0.077212
0.073435
0.070047
0.064252
0.05971
0.052319
0.046809
0.038993
0.03287
0.081332
0.081096
0.079428
0.077489
0.07366
0.070211
0.06435
0.059724
0.05227
0.046659
0.038798
0.03259
0.081654
0.081417
0.079736
0.077777
0.073892
0.070383
0.064452
0.059741
0.052222
0.046508
0.038599
0.032306
0.081985
0.081749
0.080053
0.078073
0.074134
0.070561
0.06456
0.059761
0.052175
0.046356
0.038397
0.032016
0.082327
0.082091
0.08038
0.07838
0.074384
0.070747
0.064673
0.059782
0.052129
0.046202
0.038192
0.031722
0.082679
0.082444
0.080719
0.078698
0.074643
0.07094
0.064792
0.059807
0.052084
0.046047
0.037983
0.031422
0.083043
0.082809
0.081068
0.079026
0.074912
0.071141
0.064916
0.059834
0.052039
0.045891
0.037771
0.031117
0.083419
0.083185
0.081429
0.079365
0.075191
0.07135
0.065046
0.059865
0.051995
0.045732
0.037554
0.030806
0.083807
0.083574
0.081803
0.079717
0.07548
0.071567
0.065182
0.059898
0.051951
0.045572
0.037332
0.030488
0.084207
0.083975
0.082189
0.08008
0.07578
0.071794
0.065324
0.059934
0.051908
0.04541
0.037106
0.030164
0.084621
0.08439
0.082588
0.080455
0.076092
0.072029
0.065473
0.059973
0.051865
0.045245
0.036875
0.029833
0.085048
0.084818
0.083001
0.080844
0.076416
0.072274
0.065628
0.060015
0.051822
0.045078
0.036638
0.029495
0.08549
0.085261
0.083429
0.081246
0.076752
0.072529
0.065791
0.06006
0.05178
0.044908
0.036396
0.029149
0.085947
0.08572
0.083871
0.081663
0.077101
0.072794
0.065961
0.060109
0.051738
0.044735
0.036148
0.028795
0.086419
0.086194
0.084329
0.082093
0.077463
0.07307
0.066139
0.060161
0.051696
0.044559
0.035893
0.028432
0.086908
0.086685
0.084803
0.08254
0.07784
0.073357
0.066325
0.060217
0.051653
0.044379
0.035631
0.028059
0.087414
0.087193
0.085294
0.083002
0.078231
0.073656
0.066519
0.060277
0.051611
0.044196
0.035362
0.027677
0.087938
0.08772
0.085804
0.08348
0.078637
0.073966
0.066721
0.06034
0.051568
0.044008
0.035085
0.027285
0.08848
0.088265
0.086331
0.083976
0.07906
0.07429
0.066933
0.060407
0.051525
0.043816
0.034799
0.026882
0.089042
0.08883
0.086879
0.08449
0.079499
0.074627
0.067153
0.060478
0.051481
0.043619
0.034505
0.026467
0.089625
0.089417
0.087446
0.085023
0.079956
0.074977
0.067383
0.060553
0.051436
0.043416
0.034201
0.02604
0.090229
0.090025
0.088035
0.085575
0.080431
0.075342
0.067624
0.060632
0.05139
0.043208
0.033887
0.025599
0.090855
0.090656
0.088647
0.086149
0.080924
0.075722
0.067874
0.060716
0.051342
0.042993
0.033563
0.025145
0.091505
0.091312
0.089282
0.086744
0.081438
0.076117
0.068135
0.060803
0.051293
0.042772
0.033226
0.024676
0.09218
0.091993
0.089942
0.087361
0.081972
0.076529
0.068407
0.060895
0.051243
0.042544
0.032878
0.024192
0.092882
0.0927
0.090628
0.088003
0.082528
0.076957
0.068691
0.060992
0.05119
0.042307
0.032516
0.023691
0.09361
0.093436
0.091341
0.088669
0.083106
0.077402
0.068986
0.061092
0.051134
0.042062
0.03214
0.023172
0.094368
0.094202
0.092083
0.089362
0.083708
0.077866
0.069293
0.061197
0.051075
0.041807
0.031749
0.022635
0.095156
0.094999
0.092856
0.090083
0.084335
0.078349
0.069613
0.061306
0.051013
0.041542
0.031342
0.022077
0.095976
0.095829
0.093661
0.090833
0.084987
0.078851
0.069945
0.06142
0.050947
0.041267
0.030918
0.021499
0.09683
0.096694
0.094499
0.091613
0.085667
0.079373
0.07029
0.061537
0.050876
0.040979
0.030475
0.020898
0.09772
0.097596
0.095374
0.092426
0.086375
0.079917
0.070648
0.061658
0.050799
0.040678
0.030012
0.020272
0.098648
0.098537
0.096286
0.093274
0.087112
0.080483
0.07102
0.061782
0.050716
0.040362
0.029528
0.019622
0.099616
0.099519
0.097239
0.094158
0.087881
0.081072
0.071406
0.061909
0.050626
0.040031
0.029021
0.018943
0.10063
0.10055
0.098234
0.09508
0.088682
0.081685
0.071805
0.062039
0.050528
0.039683
0.028489
0.018236
0.10168
0.10162
0.099274
0.096043
0.089518
0.082322
0.072219
0.062171
0.05042
0.039316
0.02793
0.017497
0.10279
0.10274
0.10036
0.097049
0.090391
0.082985
0.072646
0.062303
0.050301
0.038928
0.027343
0.016725
0.10394
0.10392
0.1015
0.098101
0.091301
0.083674
0.073088
0.062436
0.050169
0.038518
0.026725
0.015917
0.10515
0.10515
0.1027
0.099201
0.092252
0.084391
0.073544
0.062569
0.050023
0.038082
0.026072
0.01507
0.10642
0.10644
0.10395
0.10035
0.093244
0.085137
0.074013
0.062699
0.04986
0.037619
0.025384
0.014182
0.10775
0.10779
0.10526
0.10156
0.094282
0.085912
0.074495
0.062826
0.049678
0.037125
0.024655
0.01325
0.10914
0.10922
0.10664
0.10283
0.095367
0.086717
0.07499
0.062947
0.049475
0.036598
0.023884
0.01227
0.11061
0.11071
0.1081
0.10416
0.096501
0.087554
0.075498
0.06306
0.049246
0.036033
0.023066
0.011239
0.11215
0.11229
0.10963
0.10555
0.097688
0.088424
0.076016
0.063163
0.048989
0.035426
0.022196
0.010153
0.11378
0.11395
0.11124
0.10702
0.098931
0.089326
0.076543
0.063253
0.048699
0.034773
0.021271
0.0090061
0.11549
0.1157
0.11294
0.10856
0.10023
0.090262
0.077079
0.063327
0.048372
0.034069
0.020285
0.007795
0.1173
0.11755
0.11473
0.11019
0.1016
0.091233
0.07762
0.063379
0.048002
0.033307
0.019232
0.006514
0.11921
0.1195
0.11663
0.11191
0.10303
0.092238
0.078164
0.063405
0.047582
0.032482
0.018106
0.0051572
0.12123
0.12157
0.11864
0.11372
0.10452
0.093278
0.078708
0.063399
0.047105
0.031584
0.0169
0.0037181
0.12337
0.12377
0.12076
0.11563
0.10609
0.094352
0.079246
0.063354
0.046564
0.030607
0.015605
0.0021895
0.12564
0.1261
0.12302
0.11765
0.10774
0.09546
0.079775
0.063261
0.045947
0.029539
0.014213
0.00056372
0.12805
0.12857
0.12542
0.11979
0.10947
0.096599
0.080287
0.063112
0.045245
0.02837
0.012714
-0.0011681
0.13062
0.13121
0.12798
0.12206
0.11128
0.097767
0.080774
0.062893
0.044443
0.027086
0.011096
-0.0030155
0.13337
0.13402
0.1307
0.12447
0.11318
0.098961
0.081225
0.062592
0.043527
0.025675
0.0093473
-0.0049893
0.13629
0.13702
0.13361
0.12702
0.11517
0.10017
0.081629
0.062191
0.042479
0.024119
0.0074529
-0.0071011
0.13943
0.14024
0.13672
0.12973
0.11726
0.1014
0.081968
0.06167
0.041278
0.022398
0.0053972
-0.0093642
0.14279
0.14369
0.14005
0.13262
0.11943
0.10262
0.082224
0.061005
0.039901
0.020493
0.0031622
-0.011793
0.1464
0.14741
0.14362
0.13569
0.1217
0.10383
0.082371
0.060168
0.038318
0.018377
0.00072773
-0.014404
0.1503
0.15141
0.14746
0.13896
0.12406
0.10501
0.082379
0.059124
0.036498
0.016023
-0.0019288
-0.017214
0.15451
0.15573
0.1516
0.14243
0.12649
0.10612
0.082207
0.057831
0.034401
0.013399
-0.0048329
-0.020242
0.15908
0.16042
0.15606
0.14613
0.12899
0.10713
0.081809
0.056238
0.031982
0.010467
-0.0080131
-0.023512
0.16404
0.16552
0.16089
0.15005
0.13153
0.108
0.081122
0.054285
0.029189
0.007186
-0.011501
-0.027045
0.16946
0.17107
0.16611
0.15421
0.13408
0.10865
0.080068
0.051899
0.02596
0.0035079
-0.015333
-0.030867
0.17539
0.17715
0.17177
0.1586
0.13657
0.109
0.078552
0.04899
0.022223
-0.00062098
-0.019548
-0.035006
0.18192
0.18383
0.17792
0.1632
0.13894
0.10894
0.076452
0.045454
0.017896
-0.0052608
-0.024188
-0.039489
0.18913
0.1912
0.18459
0.16797
0.14106
0.1083
0.073615
0.041163
0.012883
-0.010478
-0.029299
-0.044346
0.19715
0.19936
0.19182
0.17284
0.14278
0.1069
0.069852
0.035968
0.0070783
-0.016345
-0.03493
-0.049604
0.20611
0.20843
0.19963
0.17767
0.14384
0.10445
0.064932
0.029698
0.00036339
-0.022936
-0.041127
-0.055285
0.2162
0.21857
0.20801
0.18225
0.14391
0.10062
0.058574
0.022155
-0.0073862
-0.030326
-0.047929
-0.061399
0.22766
0.22994
0.21686
0.18621
0.14251
0.094951
0.050447
0.013129
-0.016292
-0.038575
-0.05536
-0.067936
0.24079
0.24271
0.22597
0.189
0.13897
0.086904
0.040181
0.0024078
-0.026455
-0.047715
-0.063409
-0.074853
0.25602
0.25703
0.23487
0.18974
0.13242
0.075823
0.0274
-0.010175
-0.037913
-0.057714
-0.072002
-0.082049
0.27394
0.2729
0.24266
0.18714
0.12173
0.061013
0.011801
-0.02467
-0.050583
-0.068431
-0.080973
-0.089353
0.29534
0.28995
0.24774
0.17936
0.10561
0.041898
-0.0066842
-0.040884
-0.064174
-0.07956
-0.090029
-0.096515
0.32123
0.307
0.24742
0.16406
0.082923
0.018352
-0.027637
-0.058227
-0.0781
-0.090596
-0.098752
-0.10322
0.35258
0.32139
0.23791
0.13888
0.053303
-0.0087913
-0.049879
-0.075605
-0.091483
-0.10088
-0.10665
-0.10915
0.38882
0.32791
0.21516
0.1031
0.018313
-0.037288
-0.071427
-0.091557
-0.10332
-0.10974
-0.11332
-0.11408
0.42545
0.31721
0.17525
0.058957
-0.018208
-0.06403
-0.090276
-0.10494
-0.113
-0.11692
-0.11867
-0.11808
0.46055
0.28274
0.11586
0.009022
-0.053328
-0.087657
-0.10627
-0.11615
-0.12114
-0.12306
-0.12332
-0.12173
0.50179
0.2376
0.047891
-0.042251
-0.08599
-0.10849
-0.12024
-0.12606
-0.1285
-0.12874
-0.12777
-0.12536
0.12614
0.074678
0.057962
0.049721
0.043904
0.039725
0.036464
0.033825
0.031542
0.029575
0.027768
0.026035
0.10854
0.06538
0.051816
0.044562
0.039271
0.035485
0.03253
0.030143
0.02808
0.026309
0.024688
0.023201
0.085533
0.053704
0.043135
0.037079
0.032535
0.029297
0.026778
0.024751
0.023006
0.021517
0.020161
0.018894
0.081978
0.054588
0.043687
0.03747
0.032782
0.029434
0.026838
0.024757
0.022972
0.021456
0.020079
0.0188
0.083063
0.05769
0.045972
0.039392
0.034407
0.030823
0.028052
0.025838
0.023941
0.022339
0.020883
0.019545
0.082951
0.059573
0.047542
0.04076
0.035568
0.031796
0.028884
0.026563
0.024576
0.022909
0.021391
0.020011
0.081969
0.060785
0.048785
0.041887
0.036541
0.032604
0.029563
0.027143
0.025074
0.023348
0.021776
0.020368
0.08088
0.061818
0.050012
0.043034
0.037561
0.033468
0.030294
0.02777
0.025612
0.023824
0.022193
0.020764
0.079831
0.062689
0.051196
0.044185
0.038621
0.034388
0.031085
0.028454
0.026204
0.024347
0.022656
0.021206
0.078774
0.063342
0.052271
0.045281
0.039669
0.035325
0.031904
0.02917
0.026829
0.024903
0.023149
0.02168
0.077691
0.063781
0.053209
0.046295
0.040675
0.036251
0.032731
0.029902
0.027476
0.025482
0.023666
0.022175
0.076599
0.064039
0.054008
0.047212
0.041621
0.037148
0.03355
0.030639
0.028134
0.026076
0.024201
0.022687
0.07552
0.064147
0.054674
0.048028
0.042495
0.038003
0.034346
0.031368
0.028794
0.026676
0.024745
0.023206
0.074466
0.064135
0.055213
0.04874
0.04329
0.038803
0.035108
0.032076
0.029445
0.027273
0.02529
0.023723
0.073448
0.064025
0.055636
0.049353
0.044003
0.039542
0.035827
0.032755
0.030077
0.027859
0.025829
0.024229
0.072469
0.06384
0.055957
0.049872
0.044634
0.040216
0.036497
0.033398
0.030683
0.028426
0.026355
0.024721
0.071534
0.063598
0.056189
0.050305
0.045188
0.040826
0.037115
0.034002
0.031259
0.02897
0.026862
0.025193
0.070642
0.063312
0.056342
0.050661
0.04567
0.041374
0.037682
0.034563
0.031801
0.029486
0.027347
0.025643
0.069792
0.062993
0.05643
0.050947
0.046084
0.041861
0.038198
0.035082
0.032308
0.029973
0.027808
0.026071
0.068983
0.062651
0.056461
0.051172
0.046438
0.042293
0.038665
0.035559
0.03278
0.030431
0.028244
0.026477
0.068211
0.062292
0.056444
0.051343
0.046738
0.042674
0.039086
0.035997
0.033217
0.030858
0.028655
0.026862
0.067475
0.061922
0.056388
0.051467
0.046988
0.043007
0.039465
0.036396
0.033621
0.031257
0.02904
0.027227
0.066771
0.061543
0.056297
0.051549
0.047194
0.043298
0.039804
0.03676
0.033994
0.031629
0.029402
0.027572
0.066096
0.06116
0.056177
0.051595
0.047361
0.043549
0.040106
0.037091
0.034337
0.031974
0.02974
0.027899
0.065448
0.060774
0.056034
0.051609
0.047492
0.043765
0.040375
0.037391
0.034652
0.032294
0.030056
0.028208
0.064825
0.060387
0.05587
0.051595
0.047593
0.043948
0.040613
0.037662
0.034942
0.032591
0.030351
0.0285
0.064225
0.06