/*--------------------------------*- C++ -*----------------------------------*\
  =========                 |
  \\      /  F ield         | OpenFOAM: The Open Source CFD Toolbox
   \\    /   O peration     | Website:  https://openfoam.org
    \\  /    A nd           | Version:  6.0
     \\/     M anipulation  |
\*---------------------------------------------------------------------------*/
FoamFile
{
    version     2.0;
    format      ascii;
    class       volScalarField;
    location    "20";
    object      p;
}
// * * * * * * * * * * * * * * * * * * * * * * * * * * * * * * * * * * * * * //

dimensions      [0 2 -2 0 0 0 0];

internalField   nonuniform List<scalar> 
62000
(
0.0138181
0.013846
0.0138755
0.0139064
0.0139393
0.013974
0.0140111
0.0140505
0.0140929
0.0141383
0.0141872
0.0142398
0.0142967
0.0143578
0.0144242
0.0144957
0.0145732
0.0146567
0.0147474
0.0148451
0.0149509
0.0150649
0.0151882
0.0153208
0.0154641
0.0156186
0.0157857
0.0159655
0.0161591
0.0163661
0.0165871
0.016821
0.0170673
0.0173235
0.0175869
0.0178538
0.0181201
0.0183814
0.0186322
0.0188666
0.0190785
0.0192628
0.0194151
0.0195331
0.0196159
0.019663
0.0196742
0.0196431
0.019563
0.0194081
0.01916
0.0187684
0.0182055
0.017411
0.0163685
0.0150694
0.0136768
0.0119713
0.0109687
0.0118036
0.0137668
0.0137973
0.0138296
0.0138633
0.013899
0.0139366
0.0139765
0.0140187
0.0140637
0.0141115
0.0141627
0.0142174
0.0142763
0.0143393
0.0144074
0.0144804
0.0145593
0.0146441
0.0147357
0.0148342
0.0149407
0.0150553
0.015179
0.0153121
0.015456
0.0156116
0.0157806
0.0159634
0.0161605
0.0163723
0.0165989
0.0168406
0.0170966
0.0173652
0.0176435
0.0179285
0.018217
0.0185055
0.0187893
0.0190633
0.0193226
0.019563
0.0197816
0.0199773
0.0201509
0.0203043
0.0204397
0.0205538
0.0206427
0.0206829
0.0206568
0.020509
0.0202036
0.0196461
0.0187925
0.0175913
0.0162228
0.0143952
0.0136783
0.0136712
0.0136828
0.0137146
0.0137484
0.0137839
0.0138217
0.0138616
0.013904
0.0139488
0.0139966
0.0140474
0.0141019
0.0141599
0.0142223
0.0142889
0.0143608
0.0144377
0.0145206
0.0146094
0.0147051
0.0148076
0.014918
0.0150363
0.0151635
0.0152998
0.0154467
0.0156049
0.0157762
0.0159609
0.0161595
0.016372
0.0165986
0.0168392
0.0170932
0.017358
0.0176302
0.0179064
0.0181833
0.0184567
0.0187211
0.0189703
0.0191981
0.0193987
0.0195676
0.0197018
0.0198004
0.0198637
0.0198933
0.0198867
0.0198424
0.0197428
0.0195775
0.0193017
0.0188905
0.018242
0.0173135
0.0160469
0.0146427
0.0128882
0.0122857
0.0117023
0.0135996
0.0136308
0.0136648
0.0137011
0.0137402
0.0137818
0.0138264
0.0138738
0.0139245
0.0139783
0.0140359
0.0140973
0.0141632
0.0142335
0.0143091
0.0143899
0.014477
0.01457
0.0146701
0.014777
0.014892
0.0150147
0.0151464
0.0152871
0.0154383
0.0156006
0.0157756
0.0159639
0.0161658
0.0163811
0.0166101
0.0168525
0.0171073
0.0173718
0.0176424
0.0179158
0.0181886
0.018456
0.018712
0.0189495
0.0191614
0.0193409
0.0194818
0.0195797
0.019632
0.0196375
0.0195969
0.0195084
0.0193722
0.0191764
0.0189192
0.0185697
0.0181205
0.0174763
0.0166035
0.0154404
0.0141856
0.0126665
0.012209
0.0119149
0.0135158
0.0135464
0.0135802
0.0136168
0.0136567
0.0136996
0.0137461
0.0137959
0.0138494
0.0139065
0.0139677
0.0140329
0.0141027
0.014177
0.0142567
0.0143417
0.014433
0.0145304
0.014635
0.0147466
0.0148663
0.0149938
0.0151304
0.015276
0.0154322
0.0155997
0.01578
0.0159738
0.0161814
0.0164028
0.016638
0.0168867
0.017148
0.0174192
0.0176971
0.0179788
0.0182612
0.0185393
0.0188069
0.0190568
0.0192819
0.0194746
0.019628
0.0197365
0.0197962
0.0198043
0.0197596
0.0196589
0.019501
0.019275
0.018983
0.0186041
0.0181474
0.0175348
0.0167463
0.0157187
0.0146368
0.0133126
0.012966
0.0127364
0.0134258
0.0134571
0.0134916
0.013529
0.0135698
0.013614
0.013662
0.0137137
0.0137696
0.0138296
0.0138941
0.0139629
0.0140369
0.0141156
0.0142001
0.01429
0.0143864
0.0144891
0.0145991
0.0147162
0.0148416
0.0149748
0.0151171
0.0152685
0.0154307
0.0156043
0.015791
0.0159915
0.0162065
0.0164358
0.0166793
0.0169369
0.0172074
0.0174886
0.0177781
0.0180733
0.0183709
0.0186664
0.0189535
0.0192254
0.0194746
0.0196933
0.0198738
0.0200091
0.020094
0.0201237
0.020094
0.0199976
0.0198285
0.0195712
0.0192246
0.0187706
0.0182325
0.0175543
0.016741
0.0157436
0.0147483
0.0135671
0.0133101
0.0129841
0.0133416
0.013375
0.0134114
0.0134505
0.0134928
0.0135384
0.0135878
0.013641
0.0136987
0.0137606
0.0138274
0.0138991
0.0139761
0.0140585
0.0141469
0.0142413
0.0143424
0.0144503
0.0145658
0.0146888
0.0148202
0.0149599
0.0151087
0.0152669
0.0154359
0.0156166
0.0158108
0.0160192
0.0162428
0.0164814
0.016735
0.0170034
0.0172857
0.0175802
0.0178846
0.0181968
0.0185138
0.0188313
0.0191435
0.0194441
0.0197258
0.0199806
0.0202003
0.0203775
0.0205061
0.0205798
0.020592
0.0205307
0.0203835
0.0201258
0.0197469
0.019223
0.0185825
0.0177891
0.0168752
0.015819
0.0148257
0.0137432
0.0135417
0.0131985
0.0132536
0.0132898
0.0133293
0.0133715
0.0134169
0.0134655
0.0135178
0.0135737
0.013634
0.0136985
0.013768
0.0138424
0.0139226
0.0140084
0.0141007
0.0141992
0.0143051
0.014418
0.014539
0.014668
0.0148058
0.0149523
0.0151083
0.0152739
0.0154506
0.0156393
0.0158419
0.0160593
0.0162926
0.0165417
0.0168069
0.0170881
0.0173849
0.0176952
0.0180176
0.0183498
0.0186894
0.0190327
0.0193747
0.0197098
0.0200312
0.0203309
0.020601
0.0208345
0.0210262
0.0211702
0.0212595
0.02128
0.0212139
0.0210276
0.020697
0.0201846
0.0195124
0.0186498
0.0176458
0.0165027
0.0154439
0.0143674
0.0141154
0.0136789
0.0131657
0.0132046
0.0132473
0.0132931
0.0133426
0.0133954
0.0134519
0.0135122
0.0135766
0.0136453
0.0137188
0.0137972
0.0138812
0.0139709
0.0140671
0.0141699
0.0142801
0.0143978
0.014524
0.0146586
0.0148026
0.0149557
0.0151189
0.0152922
0.0154771
0.0156744
0.015886
0.0161129
0.0163562
0.0166162
0.0168931
0.0171874
0.0174983
0.0178246
0.0181638
0.0185145
0.018874
0.0192397
0.0196073
0.0199718
0.0203266
0.0206637
0.0209758
0.0212574
0.0215049
0.021715
0.021883
0.0219964
0.0220362
0.0219633
0.0217415
0.0213169
0.0206957
0.0198391
0.0187948
0.0175752
0.016411
0.0152461
0.0148362
0.0141336
0.0130757
0.0131168
0.0131624
0.0132119
0.0132655
0.0133231
0.0133848
0.0134505
0.0135205
0.0135948
0.013674
0.0137579
0.0138474
0.0139425
0.014044
0.0141521
0.0142678
0.0143909
0.0145227
0.0146632
0.0148133
0.014973
0.0151433
0.0153243
0.0155173
0.0157231
0.0159436
0.0161797
0.0164325
0.0167021
0.0169893
0.0172943
0.0176167
0.0179544
0.0183053
0.0186672
0.0190379
0.0194149
0.0197945
0.0201714
0.0205383
0.0208868
0.0212097
0.0215022
0.021763
0.0219918
0.0221885
0.0223455
0.0224481
0.0224579
0.0223331
0.0220071
0.02147
0.0206666
0.0196315
0.0183745
0.0171235
0.0158632
0.0152907
0.014305
0.0130137
0.0130563
0.0131038
0.0131556
0.0132121
0.0132731
0.0133387
0.0134088
0.0134836
0.013563
0.0136474
0.0137367
0.0138316
0.013932
0.0140388
0.0141521
0.014273
0.0144015
0.0145387
0.0146847
0.0148407
0.0150066
0.0151836
0.0153717
0.0155723
0.0157861
0.0160148
0.0162592
0.0165203
0.0167981
0.0170934
0.0174062
0.0177358
0.0180804
0.0184366
0.0188023
0.0191748
0.0195518
0.0199291
0.0203003
0.0206567
0.0209883
0.0212867
0.021547
0.0217687
0.0219542
0.022108
0.0222294
0.0223119
0.0223245
0.0222282
0.021953
0.0214789
0.0207376
0.0197479
0.0185115
0.0172495
0.0159861
0.0153552
0.0142598
0.0129872
0.013031
0.0130796
0.0131328
0.0131909
0.0132538
0.0133216
0.0133943
0.0134722
0.013555
0.0136431
0.0137365
0.0138358
0.0139408
0.0140524
0.0141707
0.0142967
0.0144304
0.014573
0.0147245
0.0148861
0.0150579
0.015241
0.0154356
0.0156431
0.0158641
0.0161002
0.0163522
0.0166208
0.016906
0.0172081
0.0175272
0.0178627
0.0182115
0.018571
0.018938
0.0193099
0.0196838
0.0200547
0.0204145
0.0207521
0.021055
0.0213127
0.0215182
0.0216703
0.0217718
0.0218308
0.0218529
0.0218415
0.0217774
0.0216319
0.0213414
0.0208861
0.0201932
0.0192705
0.0181133
0.0169337
0.015793
0.0152377
0.0142499
0.013015
0.0130594
0.0131084
0.0131615
0.0132195
0.0132822
0.0133501
0.013423
0.0135014
0.0135852
0.0136747
0.0137699
0.0138713
0.0139789
0.0140934
0.0142149
0.0143445
0.0144821
0.0146289
0.0147849
0.0149514
0.0151283
0.0153169
0.0155173
0.015731
0.0159586
0.0162018
0.0164612
0.0167375
0.0170306
0.0173406
0.0176676
0.0180103
0.0183667
0.018733
0.0191066
0.0194846
0.0198639
0.0202384
0.0205982
0.0209293
0.0212166
0.0214462
0.0216084
0.0216988
0.0217187
0.0216764
0.0215819
0.0214471
0.0212653
0.0210221
0.0206671
0.0201899
0.0195229
0.0186708
0.0176257
0.0165888
0.0156521
0.0152518
0.0144938
0.0130802
0.013125
0.013174
0.0132269
0.0132843
0.0133463
0.0134134
0.0134855
0.0135633
0.0136466
0.013736
0.0138314
0.0139336
0.0140425
0.0141588
0.0142826
0.014415
0.0145558
0.0147062
0.0148663
0.0150371
0.0152188
0.0154124
0.0156183
0.0158379
0.016072
0.0163224
0.0165899
0.0168753
0.0171784
0.0174993
0.0178379
0.0181936
0.0185635
0.0189456
0.019337
0.0197355
0.0201376
0.0205365
0.0209208
0.0212742
0.0215784
0.0218167
0.0219753
0.0220454
0.0220244
0.0219179
0.0217365
0.0214973
0.0212038
0.0208555
0.0204177
0.019895
0.0192312
0.0184344
0.0174967
0.0166042
0.0158714
0.0156168
0.0150758
0.0131911
0.0132355
0.0132838
0.0133357
0.0133917
0.0134522
0.0135174
0.0135877
0.0136635
0.0137451
0.0138329
0.013927
0.0140283
0.0141366
0.0142529
0.0143773
0.0145109
0.0146535
0.0148064
0.0149696
0.0151442
0.0153302
0.0155287
0.0157401
0.0159658
0.0162069
0.0164653
0.0167423
0.0170389
0.0173549
0.0176907
0.0180463
0.018421
0.0188136
0.0192219
0.0196445
0.0200797
0.0205245
0.0209718
0.0214091
0.0218186
0.0221797
0.0224727
0.02268
0.0227877
0.0227874
0.0226796
0.0224715
0.0221811
0.0218173
0.0213901
0.0208788
0.020303
0.0196212
0.0188481
0.0179773
0.0171766
0.0165754
0.0163848
0.0159503
0.0133226
0.0133661
0.0134135
0.0134645
0.0135196
0.0135789
0.0136429
0.0137118
0.013786
0.0138659
0.0139521
0.0140448
0.0141449
0.0142525
0.0143686
0.0144934
0.014628
0.0147723
0.0149276
0.0150939
0.0152724
0.0154629
0.0156666
0.0158839
0.0161164
0.0163654
0.0166332
0.0169213
0.0172313
0.0175633
0.0179179
0.0182952
0.0186955
0.0191177
0.0195616
0.0200266
0.0205122
0.0210162
0.0215318
0.0220459
0.0225402
0.0229926
0.0233813
0.0236851
0.0238852
0.0239666
0.0239229
0.023755
0.0234773
0.0230993
0.0226358
0.022076
0.0214518
0.0207348
0.0199471
0.019084
0.0182932
0.0177153
0.0174763
0.0170034
0.0134788
0.0135202
0.0135658
0.0136151
0.0136687
0.0137266
0.0137893
0.0138569
0.01393
0.0140087
0.0140938
0.0141855
0.0142846
0.0143916
0.0145074
0.0146322
0.0147674
0.0149131
0.0150705
0.0152398
0.0154221
0.0156173
0.0158268
0.0160507
0.0162909
0.0165489
0.0168272
0.0171281
0.0174535
0.0178037
0.0181798
0.0185822
0.0190117
0.0194688
0.0199537
0.0204677
0.0210113
0.0215835
0.022178
0.0227822
0.0233778
0.0239422
0.0244524
0.0248846
0.0252157
0.0254243
0.0254963
0.0254244
0.0252162
0.0248769
0.0244214
0.0238426
0.0231799
0.0224153
0.0215768
0.020661
0.0197971
0.0191362
0.0187449
0.018106
0.013632
0.0136711
0.0137151
0.0137633
0.0138161
0.0138738
0.0139364
0.0140042
0.0140776
0.0141568
0.0142425
0.0143349
0.014435
0.014543
0.01466
0.0147865
0.0149238
0.015072
0.0152325
0.0154056
0.0155925
0.0157932
0.0160091
0.0162405
0.0164892
0.0167572
0.0170472
0.0173619
0.0177037
0.0180733
0.0184721
0.0189009
0.0193613
0.0198539
0.0203812
0.020945
0.0215473
0.0221884
0.0228625
0.0235582
0.0242576
0.0249388
0.0255781
0.0261504
0.0266291
0.0269875
0.027204
0.0272625
0.0271619
0.0269002
0.0264874
0.0259156
0.0252271
0.0244096
0.0234945
0.0224804
0.0214805
0.0206586
0.0200445
0.019157
0.0137978
0.0138346
0.0138768
0.0139236
0.0139757
0.0140329
0.0140956
0.0141638
0.014238
0.0143183
0.0144052
0.0144992
0.0146008
0.0147107
0.0148297
0.0149583
0.0150981
0.0152493
0.0154133
0.0155907
0.0157827
0.0159895
0.0162124
0.016452
0.0167101
0.0169887
0.017291
0.01762
0.0179784
0.0183674
0.0187885
0.0192428
0.0197323
0.0202592
0.0208257
0.0214354
0.0220912
0.0227943
0.0235401
0.0243181
0.0251118
0.0259001
0.0266598
0.0273653
0.027988
0.0284969
0.0288642
0.0290652
0.0290898
0.0289269
0.0285791
0.0280335
0.0273308
0.0264611
0.0254575
0.02432
0.0231506
0.022128
0.0212609
0.0200924
0.0139584
0.0139935
0.0140347
0.0140812
0.0141335
0.0141914
0.0142552
0.014325
0.0144011
0.0144835
0.014573
0.0146695
0.0147742
0.0148871
0.0150096
0.0151419
0.0152857
0.0154412
0.01561
0.0157927
0.0159906
0.0162042
0.0164349
0.0166832
0.0169511
0.0172408
0.0175555
0.0178985
0.0182729
0.0186801
0.0191217
0.0195992
0.020115
0.0206711
0.0212714
0.0219197
0.0226196
0.0233734
0.0241774
0.0250221
0.0258925
0.026769
0.0276292
0.0284482
0.0291961
0.0298396
0.0303455
0.0306824
0.0308313
0.0307722
0.0304988
0.029991
0.0292853
0.0283708
0.0272807
0.0260165
0.0246731
0.0234459
0.0223307
0.0208899
0.014132
0.0141657
0.0142058
0.0142518
0.0143039
0.0143623
0.0144271
0.0144984
0.0145765
0.0146615
0.0147537
0.0148535
0.0149615
0.0150781
0.0152043
0.0153406
0.0154886
0.0156488
0.0158225
0.0160108
0.016215
0.0164356
0.0166742
0.0169314
0.0172092
0.0175099
0.0178366
0.0181929
0.0185821
0.0190055
0.0194652
0.0199624
0.0204997
0.0210801
0.0217069
0.0223848
0.0231179
0.023909
0.0247551
0.0256479
0.026574
0.0275152
0.0284506
0.0293564
0.0302029
0.0309552
0.0315769
0.0320311
0.0322916
0.0323298
0.0321307
0.0316661
0.0309663
0.030018
0.0288532
0.0274752
0.0259752
0.0245652
0.0232307
0.0215535
0.0142987
0.014332
0.0143722
0.0144186
0.0144717
0.0145316
0.0145985
0.0146724
0.0147535
0.0148419
0.014938
0.015042
0.0151546
0.015276
0.0154074
0.015549
0.0157025
0.0158683
0.016048
0.0162424
0.0164533
0.0166811
0.0169277
0.0171937
0.0174811
0.0177922
0.0181302
0.0184987
0.018901
0.0193384
0.019813
0.0203262
0.0208808
0.021479
0.0221255
0.0228242
0.0235796
0.0243951
0.025268
0.026191
0.0271522
0.028135
0.0291202
0.0300853
0.0310017
0.0318342
0.0325444
0.0330915
0.033444
0.0335661
0.0334349
0.0330144
0.0323285
0.0313599
0.030139
0.0286704
0.027044
0.025487
0.0239733
0.0221077
0.0144844
0.0145178
0.0145583
0.0146052
0.0146591
0.0147201
0.0147884
0.0148641
0.0149476
0.0150388
0.0151382
0.0152459
0.0153626
0.0154884
0.0156243
0.0157707
0.0159293
0.0161005
0.0162857
0.0164861
0.0167034
0.0169382
0.0171925
0.0174669
0.0177633
0.0180842
0.0184324
0.0188117
0.0192252
0.0196743
0.020161
0.0206865
0.0212537
0.0218652
0.0225247
0.0232367
0.0240052
0.024834
0.0257207
0.0266587
0.0276375
0.028642
0.0296546
0.0306547
0.031615
0.0325009
0.0332733
0.0338891
0.0343128
0.0345033
0.034431
0.034053
0.0333861
0.0324098
0.0311524
0.0296197
0.0279011
0.0262365
0.0245853
0.0225809
0.0146729
0.0147076
0.0147494
0.0147979
0.0148534
0.0149163
0.0149867
0.0150647
0.0151507
0.0152447
0.0153473
0.0154585
0.0155791
0.0157092
0.0158498
0.0160012
0.0161651
0.0163418
0.0165328
0.0167392
0.0169629
0.0172044
0.0174658
0.017748
0.0180528
0.0183826
0.0187399
0.0191285
0.0195513
0.0200099
0.020506
0.0210409
0.0216176
0.0222376
0.0229054
0.0236248
0.0243995
0.0252334
0.0261244
0.0270664
0.02805
0.0290614
0.0300847
0.031101
0.0320847
0.0330022
0.0338147
0.0344779
0.0349538
0.0351975
0.0351742
0.0348355
0.0341921
0.0332196
0.0319443
0.0303725
0.0285937
0.0268569
0.0251046
0.0230048
0.0148846
0.0149205
0.0149635
0.015013
0.0150697
0.0151338
0.0152055
0.0152852
0.015373
0.0154692
0.0155742
0.0156882
0.0158117
0.0159452
0.0160892
0.0162446
0.0164126
0.0165938
0.0167896
0.0170011
0.0172303
0.0174777
0.0177456
0.0180347
0.0183469
0.0186845
0.0190498
0.0194462
0.0198769
0.0203429
0.0208465
0.0213885
0.0219715
0.0225978
0.0232704
0.0239932
0.0247698
0.0256037
0.026493
0.027432
0.0284122
0.0294211
0.030444
0.0314638
0.0324567
0.0333904
0.0342268
0.0349212
0.0354343
0.0357188
0.0357357
0.0354328
0.0348144
0.0338535
0.0325748
0.0309839
0.0291704
0.0273893
0.0255638
0.0234033
0.0150951
0.0151331
0.0151781
0.0152297
0.0152885
0.0153547
0.0154287
0.0155107
0.015601
0.0156997
0.0158075
0.0159244
0.0160513
0.0161882
0.0163361
0.0164954
0.0166677
0.0168532
0.0170535
0.0172698
0.0175039
0.0177565
0.01803
0.0183251
0.0186436
0.0189879
0.0193599
0.019763
0.0202
0.0206723
0.0211817
0.0217292
0.0223174
0.0229474
0.0236233
0.0243477
0.0251239
0.0259555
0.0268405
0.0277735
0.0287467
0.0297486
0.0307658
0.0317826
0.0327766
0.0337172
0.0345669
0.0352818
0.035821
0.036137
0.0361865
0.035916
0.0353234
0.0343798
0.0331079
0.0315122
0.0296816
0.0278741
0.025994
0.0237969
0.015329
0.0153692
0.0154161
0.0154694
0.0155297
0.0155973
0.0156726
0.0157559
0.0158477
0.0159481
0.0160576
0.0161765
0.0163054
0.0164446
0.0165949
0.0167569
0.0169321
0.0171208
0.0173245
0.0175445
0.0177825
0.0180394
0.0183175
0.0186175
0.0189414
0.0192913
0.019669
0.0200776
0.02052
0.0209974
0.0215118
0.0220639
0.0226559
0.0232897
0.0239679
0.0246934
0.025469
0.0262981
0.0271786
0.0281055
0.0290715
0.0300659
0.0310762
0.0320882
0.0330805
0.0340241
0.0348822
0.0356115
0.0361705
0.0365113
0.0365884
0.036347
0.0357784
0.0348537
0.0335939
0.0320012
0.0301635
0.0283394
0.0264151
0.0241968
0.0155643
0.0156073
0.0156568
0.0157126
0.0157753
0.0158451
0.0159225
0.0160077
0.0161012
0.0162032
0.0163143
0.0164348
0.0165656
0.0167067
0.0168593
0.0170237
0.0172016
0.0173931
0.0175999
0.0178231
0.0180645
0.018325
0.0186069
0.0189111
0.0192393
0.0195939
0.0199762
0.0203896
0.0208366
0.0213186
0.0218372
0.0223935
0.0229897
0.0236266
0.0243078
0.025035
0.0258109
0.0266389
0.0275168
0.0284398
0.0294011
0.0303905
0.0313963
0.0324052
0.0333971
0.0343437
0.0352092
0.0359508
0.0365264
0.0368883
0.0369887
0.0367733
0.0362273
0.0353217
0.0340759
0.0324887
0.0306471
0.0288084
0.026843
0.0246111
0.0158189
0.0158643
0.0159158
0.0159735
0.0160378
0.0161091
0.0161877
0.0162742
0.0163689
0.016472
0.0165842
0.0167058
0.0168375
0.0169798
0.0171334
0.0172992
0.0174784
0.0176717
0.0178803
0.0181058
0.0183496
0.0186128
0.0188976
0.0192051
0.0195369
0.0198952
0.0202815
0.0206989
0.0211501
0.021636
0.022159
0.0227194
0.0233196
0.0239609
0.0246456
0.0253759
0.026154
0.0269832
0.0278613
0.0287837
0.0297441
0.0307326
0.0317383
0.0327482
0.0337432
0.0346958
0.0355707
0.0363254
0.0369171
0.0372983
0.0374197
0.0372272
0.0367003
0.0358115
0.0345779
0.0329947
0.0311477
0.0292918
0.0272842
0.0250415
0.0160638
0.016112
0.0161663
0.0162267
0.0162936
0.0163674
0.0164485
0.0165373
0.0166341
0.0167393
0.0168534
0.0169768
0.0171104
0.0172544
0.0174098
0.0175772
0.0177584
0.0179534
0.0181639
0.0183912
0.0186371
0.0189024
0.0191896
0.0194995
0.0198341
0.0201955
0.0205851
0.021006
0.0214609
0.0219508
0.0224779
0.0230428
0.0236479
0.0242937
0.0249835
0.0257185
0.0265009
0.0273342
0.028216
0.029142
0.0301062
0.031099
0.0321098
0.0331263
0.0341296
0.0350928
0.0359807
0.0367511
0.0373599
0.0377602
0.0379006
0.0377289
0.0372185
0.0363437
0.0351191
0.0335355
0.0316779
0.0297978
0.0277433
0.0254878
0.0163252
0.016376
0.0164326
0.016495
0.0165637
0.0166391
0.0167218
0.0168119
0.0169101
0.0170166
0.017132
0.0172565
0.0173911
0.0175362
0.0176925
0.0178609
0.0180429
0.018239
0.0184506
0.0186792
0.0189265
0.0191933
0.0194823
0.0197943
0.020131
0.020495
0.0208874
0.0213115
0.0217699
0.0222636
0.0227951
0.0233647
0.023975
0.0246269
0.0253227
0.0260642
0.0268531
0.0276932
0.0285821
0.0295158
0.0304885
0.0314908
0.0325124
0.0335411
0.0345583
0.0355373
0.036443
0.0372325
0.0378608
0.0382806
0.0384393
0.0382856
0.0377881
0.0369232
0.0357029
0.0341131
0.0322381
0.0303261
0.0282188
0.0259474
0.0165793
0.016633
0.0166924
0.0167576
0.0168291
0.0169071
0.016992
0.0170843
0.0171844
0.0172924
0.0174092
0.0175351
0.017671
0.0178172
0.0179749
0.0181445
0.018328
0.0185254
0.0187384
0.0189683
0.019217
0.0194852
0.0197757
0.0200894
0.020428
0.0207941
0.021189
0.021616
0.0220777
0.0225755
0.0231114
0.0236862
0.0243025
0.0249607
0.025664
0.0264135
0.0272111
0.0280607
0.0289601
0.0299054
0.0308911
0.031908
0.0329456
0.0339922
0.035029
0.0360293
0.0369572
0.0377702
0.0384203
0.0388611
0.039037
0.0389
0.0384127
0.0375544
0.0363335
0.0347308
0.0328305
0.0308771
0.0287098
0.0264168
0.0168465
0.0169025
0.0169641
0.0170312
0.0171045
0.0171841
0.0172706
0.0173644
0.0174659
0.0175754
0.0176933
0.0178204
0.0179571
0.0181042
0.0182624
0.0184327
0.0186167
0.0188149
0.0190285
0.0192594
0.0195091
0.0197784
0.0200701
0.0203852
0.0207254
0.0210934
0.0214906
0.0219205
0.0223856
0.0228872
0.0234279
0.0240081
0.0246305
0.0252963
0.0260078
0.0267667
0.0275748
0.0284362
0.0293488
0.0303089
0.0313115
0.0323471
0.0334056
0.034475
0.0355364
0.0365628
0.0375177
0.0383576
0.0390328
0.0394954
0.0396888
0.039566
0.0390862
0.0382308
0.0370041
0.035382
0.0334491
0.031446
0.0292121
0.0268924
0.0170974
0.017156
0.0172203
0.0172902
0.0173662
0.0174487
0.0175381
0.0176346
0.0177387
0.0178507
0.017971
0.0181002
0.0182391
0.018388
0.0185481
0.01872
0.0189056
0.0191051
0.01932
0.019552
0.0198028
0.0200733
0.0203662
0.0206825
0.0210242
0.0213939
0.0217932
0.0222258
0.0226941
0.0231998
0.0237452
0.0243311
0.0249605
0.0256337
0.0263545
0.0271238
0.0279439
0.028819
0.0297471
0.030725
0.0317476
0.0328058
0.0338891
0.0349855
0.0360759
0.0371327
0.0381186
0.0389892
0.0396921
0.0401782
0.040389
0.0402798
0.0398057
0.0389503
0.0377133
0.0360655
0.0340923
0.0320307
0.0297228
0.02737
0.0173623
0.0174231
0.0174893
0.017561
0.0176389
0.0177231
0.0178141
0.0179124
0.0180183
0.0181321
0.0182542
0.0183851
0.0185256
0.0186761
0.0188374
0.0190106
0.0191972
0.0193977
0.0196136
0.0198466
0.0200985
0.02037
0.020664
0.0209817
0.0213248
0.0216962
0.0220976
0.0225329
0.0230046
0.0235142
0.0240646
0.0246562
0.0252924
0.0259743
0.0267045
0.0274851
0.0283181
0.0292082
0.0301535
0.0311511
0.0321961
0.0332795
0.0343907
0.0355175
0.0366403
0.0377311
0.0387515
0.0396558
0.0403889
0.0408998
0.0411285
0.0410312
0.0405612
0.039703
0.0384513
0.0367725
0.0347531
0.0326261
0.0302384
0.027847
0.0176126
0.0176761
0.0177452
0.01782
0.0179009
0.0179882
0.0180822
0.0181833
0.0182919
0.018408
0.0185326
0.0186656
0.0188084
0.0189608
0.0191243
0.0192994
0.019488
0.0196903
0.019908
0.0201426
0.020396
0.0206689
0.0209645
0.0212836
0.0216283
0.0220016
0.0224051
0.0228431
0.0233181
0.0238318
0.024387
0.0249847
0.0256282
0.026318
0.0270584
0.0278506
0.0286972
0.0296032
0.030567
0.0315858
0.0326551
0.0337657
0.0349072
0.0360671
0.0372253
0.038353
0.0394107
0.0403514
0.0411171
0.0416545
0.0419018
0.0418166
0.0413499
0.0404868
0.0392169
0.037502
0.03543
0.0332301
0.0307559
0.0283194
0.0178797
0.0179453
0.0180164
0.0180929
0.0181756
0.0182645
0.0183603
0.0184632
0.0185736
0.0186917
0.018818
0.0189529
0.0190972
0.0192514
0.0194163
0.0195929
0.0197829
0.0199868
0.0202058
0.0204419
0.0206969
0.0209715
0.0212687
0.0215895
0.021936
0.0223113
0.022717
0.0231578
0.0236362
0.024154
0.0247143
0.0253178
0.0259681
0.0266667
0.0274168
0.0282208
0.0290813
0.0300036
0.0309863
0.032027
0.0331215
0.0342608
0.0354342
0.036629
0.0378245
0.0389913
0.0400886
0.0410679
0.0418683
0.0424336
0.0427001
0.0426265
0.0421622
0.0412923
0.040001
0.0382462
0.0361172
0.033839
0.031273
0.028786
0.0181079
0.0181761
0.0182504
0.018331
0.018418
0.0185117
0.0186123
0.0187201
0.0188355
0.0189585
0.0190896
0.0192291
0.019378
0.0195364
0.0197054
0.0198856
0.020079
0.0202857
0.0205074
0.0207459
0.021003
0.0212796
0.0215787
0.0219015
0.0222499
0.0226272
0.0230351
0.0234787
0.0239606
0.0244825
0.0250475
0.0256568
0.0263142
0.0270205
0.0277807
0.0285963
0.0294706
0.0304093
0.0314111
0.0324741
0.0335946
0.0347634
0.0359698
0.0372009
0.0384356
0.0396433
0.040782
0.0418019
0.0426388
0.0432339
0.043521
0.04346
0.042998
0.0421198
0.0408044
0.0390056
0.0368143
0.0344514
0.0317872
0.0292433
0.018405
0.0184743
0.0185492
0.0186298
0.0187167
0.0188101
0.0189104
0.0190182
0.0191336
0.0192569
0.0193885
0.0195289
0.0196787
0.0198384
0.0200086
0.0201904
0.0203853
0.020594
0.0208175
0.021058
0.0213171
0.0215956
0.0218967
0.0222214
0.0225718
0.0229512
0.0233614
0.0238077
0.0242928
0.0248186
0.0253883
0.0260031
0.0266668
0.0273815
0.0281508
0.0289778
0.0298654
0.03082
0.0318406
0.0329258
0.0340722
0.0352709
0.0365109
0.0377793
0.0390541
0.0403039
0.0414855
0.0425474
0.0434226
0.0440489
0.0443579
0.0443096
0.0438497
0.0429618
0.0416201
0.0397746
0.0375175
0.0350652
0.0322977
0.0296913
0.0186629
0.0187336
0.0188108
0.0188947
0.0189853
0.0190828
0.0191875
0.0192995
0.0194191
0.0195464
0.0196821
0.0198262
0.0199797
0.0201429
0.0203166
0.0205016
0.0206998
0.0209112
0.0211374
0.0213802
0.0216416
0.0219222
0.0222252
0.0225518
0.0229041
0.0232854
0.0236977
0.0241466
0.0246347
0.0251641
0.0257381
0.026358
0.0270282
0.0277497
0.0285282
0.0293657
0.0302661
0.031236
0.0322751
0.0333823
0.0345547
0.0357835
0.0370577
0.038364
0.0396799
0.040973
0.0421988
0.0433042
0.0442193
0.0448787
0.0452113
0.0451772
0.0447197
0.0438211
0.0424509
0.040555
0.0382274
0.0356796
0.0328023
0.0301269
0.0190087
0.0190789
0.0191549
0.019237
0.0193255
0.019421
0.0195238
0.0196343
0.0197526
0.0198791
0.020014
0.0201579
0.0203113
0.0204747
0.0206488
0.0208345
0.0210334
0.021246
0.0214733
0.0217176
0.0219804
0.0222625
0.0225671
0.0228952
0.023249
0.023632
0.0240461
0.0244971
0.024988
0.0255205
0.0260986
0.026723
0.0273984
0.028127
0.0289133
0.0297607
0.030673
0.0316576
0.0327144
0.033843
0.035041
0.0362998
0.0376082
0.0389527
0.0403103
0.0416475
0.0429185
0.0440685
0.0450248
0.0457189
0.0460766
0.0460573
0.045602
0.0446917
0.0432912
0.0413427
0.0389414
0.0362936
0.0333012
0.0305513
0.0193322
0.0194033
0.0194805
0.0195645
0.0196551
0.0197528
0.0198578
0.0199704
0.0200908
0.0202191
0.0203559
0.0205014
0.0206566
0.0208216
0.0209975
0.0211847
0.0213852
0.0215991
0.0218277
0.022073
0.0223368
0.0226197
0.0229253
0.0232543
0.0236091
0.0239932
0.0244085
0.0248613
0.0253543
0.0258896
0.0264706
0.0270989
0.0277793
0.0285132
0.0293071
0.0301634
0.0310869
0.0320855
0.0331594
0.034309
0.0355326
0.0368213
0.0381642
0.0395474
0.0409473
0.0423295
0.0436466
0.0448425
0.0458416
0.0465721
0.0469567
0.0469539
0.0465013
0.0455783
0.0441452
0.0421406
0.0396605
0.0369064
0.033792
0.0309608
0.019745
0.0198154
0.0198913
0.0199733
0.0200617
0.020157
0.0202594
0.0203696
0.0204874
0.0206135
0.0207478
0.0208913
0.0210443
0.0212075
0.0213814
0.0215671
0.0217662
0.021979
0.0222067
0.0224514
0.0227147
0.0229973
0.0233027
0.0236317
0.0239867
0.0243712
0.0247871
0.0252408
0.0257352
0.0262722
0.0268557
0.0274869
0.0281708
0.0289102
0.0297101
0.0305747
0.0315085
0.0325201
0.0336106
0.0347806
0.0360291
0.0373475
0.0387248
0.0401469
0.0415895
0.0430172
0.0443812
0.0456239
0.0466669
0.0474353
0.0478483
0.0478624
0.0474124
0.0464758
0.0450084
0.0429453
0.040383
0.037518
0.0342759
0.0313577
0.0201641
0.020234
0.0203094
0.020391
0.020479
0.0205739
0.0206757
0.0207852
0.0209023
0.0210274
0.021161
0.0213034
0.0214555
0.0216176
0.0217906
0.0219753
0.0221733
0.0223848
0.0226112
0.0228545
0.0231165
0.0233977
0.0237018
0.0240298
0.024384
0.0247679
0.0251834
0.0256372
0.026132
0.0266699
0.0272547
0.0278879
0.028575
0.0293177
0.0301235
0.0309953
0.0319386
0.0329628
0.0340692
0.0352594
0.0365328
0.037881
0.0392929
0.0407543
0.0422403
0.0437143
0.0451261
0.0464166
0.0475047
0.0483125
0.0487556
0.0487882
0.048341
0.0473896
0.0458854
0.0437596
0.0411097
0.038127
0.0347502
0.0317381
0.0206338
0.0207031
0.0207774
0.0208577
0.0209441
0.0210374
0.0211376
0.0212456
0.0213611
0.0214847
0.0216164
0.0217569
0.0219066
0.0220663
0.0222364
0.0224181
0.0226131
0.0228216
0.0230449
0.0232853
0.0235444
0.023823
0.0241247
0.0244504
0.0248027
0.025185
0.0255992
0.026052
0.0265463
0.0270839
0.0276691
0.0283031
0.0289917
0.0297379
0.030548
0.0314263
0.0323784
0.0334144
0.0345362
0.035746
0.0370438
0.0384215
0.039868
0.0413689
0.0428986
0.0444195
0.0458798
0.0472188
0.0483529
0.0492013
0.0496754
0.0497265
0.0492817
0.0483145
0.0467716
0.0445805
0.0418393
0.038734
0.0352168
0.032105
0.0211342
0.0212033
0.0212769
0.0213563
0.0214413
0.0215328
0.0216308
0.0217363
0.0218492
0.0219701
0.0220993
0.0222372
0.0223847
0.0225419
0.0227098
0.0228889
0.0230812
0.0232867
0.023507
0.0237439
0.0239995
0.0242745
0.0245727
0.0248951
0.0252444
0.025624
0.0260358
0.0264866
0.0269791
0.0275154
0.0280996
0.0287334
0.029423
0.0301706
0.0309846
0.0318686
0.0328289
0.0338763
0.0350132
0.0362424
0.0375647
0.038972
0.0404534
0.0419943
0.0435685
0.0451372
0.0466469
0.0480353
0.0492163
0.0501062
0.0506124
0.0506832
0.0502406
0.049256
0.0476713
0.0454102
0.0425716
0.0393369
0.0356721
0.032454
0.0216896
0.0217577
0.0218302
0.0219082
0.0219915
0.0220811
0.0221769
0.0222798
0.0223897
0.0225073
0.0226325
0.0227664
0.0229092
0.0230617
0.0232245
0.0233986
0.0235857
0.0237861
0.0240011
0.024233
0.0244836
0.0247537
0.0250472
0.0253652
0.0257103
0.0260861
0.0264943
0.0269418
0.0274315
0.0279651
0.0285474
0.0291797
0.0298685
0.0306177
0.0314342
0.0323232
0.033291
0.0343492
0.0355006
0.0367488
0.0380953
0.0395322
0.0410485
0.0426298
0.044249
0.045866
0.0474257
0.0488641
0.0500925
0.0510243
0.0515632
0.051653
0.0512118
0.0502083
0.0485798
0.0462457
0.0433058
0.0399366
0.0361187
0.0327886
0.0222827
0.0223488
0.0224188
0.0224943
0.0225748
0.0226614
0.0227541
0.0228535
0.0229599
0.0230737
0.0231953
0.023325
0.0234638
0.023612
0.0237704
0.0239397
0.0241219
0.024317
0.0245265
0.0247525
0.0249973
0.0252614
0.025549
0.0258613
0.026201
0.0265719
0.0269752
0.0274184
0.0279039
0.0284338
0.0290126
0.0296424
0.0303301
0.0310786
0.0318973
0.0327906
0.0337654
0.034834
0.0359998
0.037267
0.0386378
0.0401046
0.0416566
0.043279
0.044944
0.0466104
0.048221
0.04971
0.0509864
0.0519605
0.0525324
0.0526414
0.0522009
0.0511765
0.0495004
0.0470883
0.0440408
0.0405303
0.0365525
0.033104
0.0229405
0.023004
0.023071
0.0231427
0.0232191
0.0233013
0.0233893
0.0234839
0.0235852
0.0236937
0.0238095
0.0239333
0.0240657
0.0242072
0.0243586
0.0245208
0.0246955
0.0248833
0.0250853
0.0253038
0.0255411
0.0257978
0.0260782
0.0263835
0.0267166
0.0270812
0.0274786
0.0279162
0.0283964
0.0289213
0.0294958
0.0301216
0.0308064
0.0315544
0.032374
0.0332708
0.034252
0.0353307
0.0365104
0.0377964
0.0391915
0.0406884
0.0422763
0.0439403
0.0456519
0.0473683
0.0490305
0.0505704
0.0518948
0.0529112
0.0535157
0.0536424
0.0532009
0.0521539
0.0504281
0.0479348
0.0447758
0.0411193
0.0369764
0.0334043
0.0236315
0.023693
0.0237572
0.0238255
0.023898
0.0239756
0.0240584
0.0241474
0.0242429
0.0243452
0.0244548
0.0245721
0.0246981
0.0248329
0.0249777
0.0251328
0.0253004
0.0254804
0.0256746
0.0258849
0.0261138
0.0263619
0.026634
0.026931
0.0272563
0.0276135
0.0280038
0.0284347