/*--------------------------------*- C++ -*----------------------------------*\
  =========                 |
  \\      /  F ield         | OpenFOAM: The Open Source CFD Toolbox
   \\    /   O peration     | Website:  https://openfoam.org
    \\  /    A nd           | Version:  6.0
     \\/     M anipulation  |
\*---------------------------------------------------------------------------*/
FoamFile
{
    version     2.0;
    format      ascii;
    class       volScalarField;
    location    "18";
    object      p;
}
// * * * * * * * * * * * * * * * * * * * * * * * * * * * * * * * * * * * * * //

dimensions      [0 2 -2 0 0 0 0];

internalField   nonuniform List<scalar> 
15500
(
0.0180987
0.0181503
0.0182094
0.0182774
0.0183557
0.0184458
0.0185493
0.018668
0.0188037
0.0189578
0.0191323
0.0193273
0.0195431
0.0197749
0.0200167
0.0202584
0.0204874
0.0206843
0.0208246
0.0208773
0.0208093
0.02059
0.020202
0.0196375
0.018886
0.0178594
0.0164756
0.0143854
0.0122375
0.0113104
0.0182266
0.0182745
0.0183297
0.0183931
0.0184664
0.0185512
0.0186492
0.0187622
0.0188924
0.0190409
0.0192102
0.019401
0.0196144
0.0198467
0.0200928
0.0203456
0.0205951
0.0208271
0.0210216
0.0211528
0.0211944
0.0211246
0.0209349
0.0206261
0.0201993
0.0195583
0.0186102
0.0168611
0.015218
0.0134991
0.0184075
0.0184529
0.0185051
0.0185651
0.0186348
0.0187157
0.0188099
0.0189192
0.019046
0.0191915
0.0193585
0.0195474
0.0197593
0.0199906
0.0202359
0.0204877
0.0207358
0.020964
0.0211486
0.0212593
0.0212629
0.021128
0.0208298
0.0203552
0.0197032
0.0187875
0.0175622
0.0155803
0.0137399
0.0112915
0.018626
0.0186737
0.0187282
0.0187897
0.0188603
0.0189409
0.0190339
0.019141
0.0192651
0.0194078
0.0195722
0.0197589
0.0199693
0.0201995
0.0204438
0.020695
0.0209428
0.0211697
0.0213494
0.0214483
0.0214286
0.0212494
0.0208731
0.0202749
0.0194565
0.0183524
0.0169607
0.014897
0.0129489
0.0106561
0.0188963
0.0189419
0.0189956
0.0190573
0.0191288
0.0192105
0.0193047
0.0194124
0.0195364
0.0196782
0.0198412
0.0200266
0.0202359
0.0204653
0.0207094
0.0209614
0.0212125
0.021445
0.0216337
0.0217437
0.021735
0.0215582
0.0211685
0.0205287
0.0196425
0.0184566
0.0169998
0.0149231
0.0129778
0.0107084
0.0191871
0.0192325
0.0192872
0.0193505
0.0194247
0.0195095
0.0196074
0.0197186
0.0198459
0.0199902
0.020155
0.0203413
0.0205511
0.0207808
0.0210253
0.0212784
0.0215317
0.0217702
0.0219677
0.0220893
0.0220898
0.0219121
0.0215006
0.0208021
0.0198087
0.0184688
0.0168373
0.0146088
0.0125631
0.0101033
0.0195569
0.0195958
0.0196445
0.0197027
0.0197734
0.0198562
0.019954
0.0200662
0.0201957
0.0203425
0.0205099
0.0206983
0.02091
0.0211414
0.0213879
0.0216436
0.0219017
0.0221464
0.0223533
0.022487
0.0224977
0.0223236
0.0218972
0.0211479
0.0200434
0.0185216
0.0166502
0.0141703
0.0118751
0.00932692
0.0199718
0.0200097
0.0200567
0.020112
0.0201796
0.0202591
0.0203543
0.0204646
0.0205934
0.0207404
0.0209089
0.0210988
0.0213125
0.0215469
0.0217975
0.0220596
0.0223264
0.0225835
0.0228069
0.0229618
0.0229992
0.0228552
0.0224574
0.02172
0.0205836
0.0189613
0.0169068
0.0141771
0.0115182
0.00887901
0.0204622
0.0204972
0.0205401
0.02059
0.0206518
0.0207251
0.0208145
0.0209195
0.0210443
0.0211885
0.0213557
0.0215457
0.0217611
0.0219989
0.0222553
0.0225258
0.0228048
0.0230767
0.0233198
0.0235009
0.0235753
0.023481
0.0231489
0.0224832
0.0214039
0.019789
0.0176528
0.0147199
0.0116431
0.00868835
0.0209495
0.0209911
0.0210397
0.0210934
0.0211571
0.0212302
0.0213181
0.0214205
0.0215427
0.0216844
0.0218502
0.0220401
0.022257
0.0224984
0.0227602
0.0230383
0.0233259
0.0236085
0.0238629
0.0240583
0.0241519
0.024087
0.0237992
0.0231917
0.0221716
0.0205889
0.0184075
0.0152949
0.0117931
0.00827866
0.0214657
0.0215116
0.0215647
0.0216224
0.0216898
0.0217656
0.0218555
0.0219586
0.0220811
0.0222227
0.0223888
0.0225797
0.0227987
0.0230433
0.0233088
0.0235902
0.0238802
0.0241609
0.0244082
0.0245904
0.0246641
0.0245761
0.0242649
0.0236399
0.0226032
0.0209958
0.0187403
0.0154535
0.011576
0.00745129
0.0219653
0.0220216
0.0220857
0.0221542
0.0222317
0.0223165
0.0224141
0.0225235
0.022651
0.0227966
0.0229662
0.0231603
0.0233827
0.0236305
0.0238978
0.0241783
0.0244618
0.0247278
0.0249485
0.0250868
0.0250964
0.0249205
0.0244995
0.023748
0.0225742
0.0208299
0.0184246
0.0149494
0.0107662
0.00615287
0.0225146
0.0225723
0.0226397
0.0227132
0.0227975
0.0228899
0.0229959
0.0231136
0.0232491
0.023402
0.0235784
0.0237785
0.0240063
0.0242581
0.0245267
0.0248031
0.025075
0.0253171
0.0254966
0.0255702
0.0254847
0.0251751
0.0245806
0.0236174
0.0222078
0.0202278
0.0176051
0.0139324
0.00951984
0.00462341
0.0230696
0.0231327
0.0232072
0.0232887
0.0233823
0.0234846
0.0236013
0.0237296
0.023876
0.0240392
0.0242254
0.0244344
0.02467
0.0249279
0.0251984
0.025471
0.0257297
0.0259461
0.0260811
0.0260845
0.0258925
0.0254305
0.0246295
0.0234058
0.021695
0.0194076
0.0165101
0.0126219
0.00801902
0.00300136
0.0237064
0.0237647
0.0238367
0.0239181
0.0240144
0.0241219
0.0242463
0.024384
0.0245412
0.0247156
0.0249134
0.0251333
0.0253791
0.0256454
0.0259204
0.0261915
0.0264412
0.0266364
0.0267331
0.0266743
0.0263859
0.0257822
0.0247821
0.0232996
0.0212768
0.0186624
0.0154653
0.0113489
0.00656459
0.00151824
0.0243723
0.0244332
0.0245091
0.0245947
0.0246965
0.0248104
0.0249427
0.0250892
0.0252568
0.0254426
0.0256525
0.0258848
0.0261427
0.02642
0.026703
0.0269778
0.0272249
0.0274083
0.0274808
0.0273774
0.0270157
0.0262964
0.0251258
0.0234091
0.0210904
0.0181495
0.0146366
0.0102619
0.00526146
0.000180941
0.0251528
0.025205
0.025274
0.025355
0.0254551
0.0255699
0.0257062
0.0258593
0.0260359
0.0262323
0.0264546
0.0267
0.026972
0.0272633
0.0275587
0.0278431
0.0280961
0.02828
0.0283431
0.0282164
0.0278097
0.0270108
0.0257133
0.0238077
0.0212362
0.0179957
0.0141708
0.00951049
0.00424914
-0.000918054
0.0259605
0.0260154
0.0260884
0.0261733
0.0262782
0.0263983
0.0265413
0.0267021
0.0268885
0.0270962
0.0273317
0.0275917
0.0278796
0.028188
0.0284999
0.0288002
0.0290678
0.029263
0.0293329
0.0292038
0.0287776
0.0279314
0.0265431
0.0244876
0.0216965
0.0181759
0.0140316
0.00904402
0.00345714
-0.00189375
0.0268938
0.0269404
0.0270073
0.0270883
0.0271923
0.0273139
0.0274617
0.0276299
0.0278263
0.0280461
0.0282958
0.0285717
0.0288776
0.0292057
0.0295385
0.0298604
0.0301503
0.0303677
0.030456
0.0303399
0.0299145
0.0290471
0.0275992
0.02543
0.0224531
0.0186771
0.0142132
0.00886874
0.0029058
-0.00271158
0.0278592
0.0279132
0.0279883
0.0280768
0.0281886
0.028318
0.0284743
0.0286517
0.0288594
0.0290922
0.0293574
0.0296509
0.0299766
0.0303273
0.0306848
0.0310338
0.0313525
0.0315985
0.0317159
0.0316233
0.0312115
0.0303358
0.0288431
0.0265732
0.0234211
0.0193899
0.0145892
0.00884594
0.00245355
-0.00351877
0.0289749
0.029022
0.0290922
0.0291783
0.0292909
0.0294238
0.029587
0.0297738
0.0299939
0.0302413
0.0305238
0.0308369
0.0311853
0.0315617
0.0319478
0.0323282
0.0326802
0.0329623
0.0331123
0.0330486
0.0326553
0.0317765
0.0302455
0.0278808
0.0245597
0.020273
0.0151262
0.00895787
0.00210946
-0.00426993
0.0301131
0.0301714
0.030254
0.030352
0.0304768
0.0306216
0.0307977
0.0309979
0.0312334
0.0314982
0.0318006
0.0321364
0.0325103
0.0329156
0.0333339
0.0337497
0.0341402
0.0344597
0.0346472
0.0346146
0.0342383
0.0333524
0.0317732
0.0293005
0.025792
0.0212274
0.0157048
0.00907429
0.00173904
-0.00510196
0.0314082
0.0314625
0.0315434
0.0316426
0.0317724
0.0319254
0.0321135
0.0323285
0.0325819
0.0328669
0.0331924
0.0335538
0.0339565
0.0343941
0.0348484
0.0353035
0.035735
0.0360973
0.0363217
0.0363177
0.0359536
0.0350519
0.033412
0.0308164
0.0271024
0.0222424
0.0163242
0.00921372
0.00138348
-0.00593588
0.0327303
0.0328016
0.0329004
0.0330166
0.0331633
0.0333328
0.0335381
0.0337711
0.0340447
0.0343521
0.0347031
0.0350932
0.0355279
0.0360014
0.0364953
0.0369936
0.0374707
0.0378753
0.0381393
0.0381615
0.0378031
0.0368711
0.0351494
0.0324009
0.028447
0.0232537
0.0169029
0.00927832
0.000933994
-0.00689118
0.0342339
0.0343024
0.0344007
0.0345195
0.0346731
0.0348535
0.0350741
0.0353258
0.0356219
0.0359547
0.0363346
0.0367568
0.0372274
0.0377407
0.0382786
0.0388242
0.0393489
0.039802
0.0401025
0.0401477
0.0397861
0.03881
0.0369869
0.0340601
0.0298388
0.0242835
0.0174774
0.00932269
0.000466539
-0.00786188
0.0357534
0.035842
0.0359617
0.0361014
0.0362761
0.0364772
0.0367198
0.0369945
0.0373164
0.0376777
0.0380898
0.0385479
0.0390582
0.0396156
0.0402018
0.0407987
0.041377
0.0418768
0.0422179
0.0422841
0.041911
0.0408757
0.0389253
0.0357864
0.0312557
0.025295
0.0179914
0.00927191
-0.000112327
-0.00896147
0.0374612
0.037549
0.0376706
0.0378157
0.038001
0.0382173
0.0384802
0.0387792
0.0391298
0.0395233
0.0399714
0.0404693
0.0410238
0.0416296
0.0422687
0.042922
0.0435561
0.0441102
0.04449
0.0445736
0.0441816
0.0430727
0.0409741
0.0375961
0.0327242
0.0263278
0.0185003
0.00920249
-0.000707791
-0.0100669
0.0391921
0.0393049
0.0394525
0.0396227
0.0398331
0.0400737
0.0403625
0.0406886
0.0410698
0.0414974
0.0419841
0.0425255
0.043128
0.0437866
0.0444834
0.045198
0.0458949
0.0465025
0.0469269
0.0470271
0.0466101
0.0454121
0.043141
0.039488
0.0342329
0.0273542
0.0189584
0.00904503
-0.00141071
-0.0112943
0.0411406
0.0412522
0.0414013
0.0415771
0.0417987
0.0420561
0.0423676
0.0427216
0.0431359
0.043601
0.0441302
0.044719
0.0453737
0.0460906
0.0468507
0.0476334
0.0483986
0.0490692
0.0495351
0.0496497
0.0491992
0.0478989
0.0454348
0.0414792
0.0358096
0.0284157
0.0194267
0.00888228
-0.0021163
-0.0125121
0.0430971
0.0432361
0.0434141
0.0436181
0.0438685
0.0441544
0.0444964
0.0448824
0.045333
0.0458385
0.0464135
0.0470535
0.0477661
0.0485465
0.0493775
0.0502403
0.051078
0.0518112
0.0523247
0.052453
0.0519624
0.0505459
0.0478628
0.04357
0.0374421
0.0294865
0.0198572
0.00864215
-0.0029211
-0.0138447
0.0452775
0.0454168
0.0455987
0.0458111
0.0460763
0.0463832
0.0467529
0.0471724
0.0476624
0.0482122
0.0488375
0.049534
0.0503098
0.0511615
0.052076
0.0530166
0.0539379
0.0547422
0.0552995
0.0554385
0.0549013
0.0533542
0.0504307
0.0457724
0.0391527
0.0306038
0.0203078
0.00840896
-0.0037177
-0.0151538
0.0474727
0.0476437
0.0478586
0.0481034
0.0484013
0.0487405
0.0491448
0.0496006
0.0501323
0.0507287
0.0514078
0.0521657
0.0530107
0.0539419
0.0549374
0.0559753
0.0569811
0.0578522
0.0584658
0.0586172
0.0580293
0.0563359
0.0531455
0.0480833
0.0409281
0.0317372
0.0207267
0.008103
-0.00461028
-0.0165723
0.0499111
0.0500816
0.0503006
0.050555
0.0508705
0.0512345
0.0516716
0.0521665
0.0527441
0.0533923
0.0541298
0.0549537
0.0558729
0.056886
0.0579786
0.0591066
0.060202
0.0611605
0.0618244
0.0619907
0.0613451
0.0594895
0.0560068
0.0505089
0.0427834
0.0329165
0.0211679
0.0078064
-0.00548824
-0.0179567
0.0523585
0.0525644
0.0528225
0.0531159
0.0534711
0.0538731
0.0543505
0.0548871
0.0555126
0.0562144
0.0570137
0.0579076
0.0589054
0.0600072
0.06119
0.0624214
0.0636159
0.0646518
0.0653865
0.0655722
0.0648629
0.0628266
0.0590192
0.0530449
0.044701
0.0341092
0.0215735
0.00743352
-0.00646394
-0.0194479
0.055164
0.0553651
0.055619
0.0559115
0.0562737
0.0566923
0.0571967
0.0577705
0.0584431
0.0592011
0.0600655
0.0610336
0.0621141
0.0633054
0.0645908
0.0659207
0.0672158
0.0683567
0.0691591
0.0693641
0.0685809
0.0663408
0.0621778
0.0556903
0.0466887
0.0353384
0.0219923
0.00706646
-0.00742518
-0.0208968
0.0578801
0.0581142
0.0584069
0.0587411
0.0591485
0.059613
0.0601675
0.0607941
0.0615262
0.0623499
0.063288
0.0643375
0.0655068
0.0667949
0.0681776
0.0696213
0.0710305
0.0722686
0.073159
0.0733827
0.072513
0.0700427
0.0654866
0.0584381
0.0487282
0.036568
0.0223635
0.00661309
-0.00849027
-0.0224509
0.0609458
0.061185
0.0614848
0.0618296
0.0622543
0.0627444
0.0633339
0.0640051
0.0647923
0.0656812
0.0666947
0.0678296
0.069093
0.0704813
0.0719785
0.0735346
0.0750635
0.0764284
0.077395
0.07763
0.0766528
0.0739225
0.0689344
0.0612813
0.0508207
0.0378146
0.0227335
0.00615461
-0.00954405
-0.0239561
0.0641188
0.0643837
0.0647087
0.0650803
0.0655335
0.0660555
0.0666826
0.067399
0.068242
0.0691983
0.0702915
0.071518
0.0728834
0.0743835
0.0759948
0.0776849
0.0793501
0.080827
0.081884
0.0821198
0.0810135
0.0779901
0.0725235
0.0642126
0.0529455
0.0390418
0.0230377
0.00559536
-0.0107106
-0.0255646
0.067421
0.0676962
0.0680381
0.0684332
0.0689198
0.0694843
0.0701638
0.0709414
0.0718552
0.0728919
0.0740763
0.0754055
0.0768843
0.0785059
0.0802547
0.0820817
0.0838883
0.0855025
0.0866301
0.086849
0.0855866
0.0822305
0.0762381
0.0672185
0.0550972
0.040262
0.0233191
0.00501742
-0.011873
-0.0271183
0.0708378
0.0711481
0.0715261
0.0719585
0.0724853
0.0730936
0.0738247
0.0746625
0.0756491
0.0767717
0.0780558
0.0794987
0.081104
0.0828641
0.0847554
0.0867441
0.0887056
0.0904383
0.0916452
0.0918312
0.0903848
0.0866531
0.0800801
0.0702904
0.0572562
0.0414368
0.023512
0.00432077
-0.0131585
-0.0287732
0.0743853
0.0747139
0.0751202
0.0755894
0.0761642
0.0768302
0.0776294
0.0785443
0.0796187
0.0808402
0.0822361
0.0838053
0.0855507
0.0874623
0.0895223
0.0916736
0.0937952
0.0956707
0.0969313
0.0970638
0.0953966
0.0912405
0.0840284
0.0734087
0.0594115
0.042574
0.0236588
0.00358722
-0.0144478
-0.0303672
0.0781242
0.078489
0.0789324
0.0794421
0.0800618
0.0807796
0.0816404
0.0826287
0.0837912
0.0851165
0.0866326
0.0883392
0.0902384
0.0923187
0.094551
0.0968902
0.0991854
0.101182
0.102504
0.102562
0.100637
0.0960024
0.088084
0.0765655
0.0615427
0.0436354
0.0236909
0.00271504
-0.0158718
-0.0320575
0.0820649
0.0824478
0.0829183
0.0834635
0.0841313
0.0849087
0.0858424
0.0869156
0.0881772
0.0896163
0.0912626
0.0931177
0.0951825
0.0974429
0.099872
0.1024
0.104873
0.107013
0.108369
0.108323
0.106093
0.100918
0.0922212
0.0797355
0.0636325
0.0446264
0.0236489
0.00178691
-0.0173096
-0.0336801
0.0862121
0.0866365
0.0871495
0.0877393
0.0884567
0.0892907
0.0902927
0.0914478
0.0928089
0.094366
0.0961498
0.0981627
0.100405
0.10286
0.105489
0.10823
0.110891
0.11315
0.114545
0.114365
0.111782
0.105995
0.09644
0.0829095
0.0656613
0.0455072
0.0234628
0.000698055
-0.0188916
-0.0353926
0.0905662
0.0910181
0.091568
0.0922033
0.0929791
0.093883
0.0949687
0.0962203
0.0976939
0.0993805
0.101313
0.103496
0.105927
0.108587
0.11144
0.114392
0.117243
0.119642
0.121038
0.120687
0.117688
0.111209
0.10071
0.0860559
0.067608
0.0462794
0.0231743
-0.000468784
-0.0204974
-0.0370295
0.0951483
0.0956504
0.0962511
0.0969408
0.0977759
0.0987483
0.0999153
0.101264
0.102854
0.104679
0.106771
0.109137
0.111773
0.114655
0.117734
0.12092
0.123968
0.126478
0.127873
0.127308
0.123825
0.116566
0.105026
0.0891644
0.0694517
0.0469026
0.0227104
-0.00181881
-0.0222576
-0.0387448
0.0999423
0.100482
0.10113
0.101877
0.102784
0.103841
0.105108
0.106571
0.108295
0.110273
0.112541
0.115106
0.117962
0.121081
0.12441
0.127828
0.131075
0.133709
0.135057
0.134223
0.130174
0.122036
0.109353
0.092198
0.0711654
0.0473791
0.0221123
-0.00326946
-0.0240517
-0.0403746
0.104961
0.105561
0.106273
0.107089
0.108072
0.109216
0.110585
0.112169
0.114036
0.11618
0.118638
0.12142
0.124517
0.127891
0.131476
0.13515
0.1386
0.141326
0.142612
0.141447
0.136745
0.127617
0.11368
0.0951432
0.0727272
0.0476659
0.0213049
-0.00492787
-0.026006
-0.0420696
0.110216
0.110863
0.111635
0.112522
0.113594
0.114842
0.116333
0.118057
0.120085
0.122414
0.125082
0.1281
0.131456
0.135105
0.138973
0.142902
0.146557
0.14938
0.150543
0.148975
0.143513
0.133274
0.117967
0.0979563
0.0741096
0.0477647
0.0203324
-0.00671208
-0.0280025
-0.0436658
0.115757
0.116471
0.117314
0.118279
0.119439
0.120789
0.122403
0.124271
0.12647
0.128998
0.131894
0.13517
0.138808
0.142752
0.146913
0.151122
0.154982
0.157863
0.158872
0.156818
0.150482
0.138998
0.122197
0.100621
0.075288
0.0476292
0.0191155
-0.00872774
-0.0301637
-0.0453067
0.121575
0.122346
0.123259
0.124307
0.125569
0.127038
0.128793
0.130824
0.133212
0.135958
0.139101
0.142656
0.146598
0.150861
0.155341
0.159829
0.163894
0.166824
0.167605
0.164965
0.157622
0.14475
0.126326
0.103092
0.0762327
0.0472674
0.0177004
-0.0108939
-0.0323725
-0.0468329
0.127689
0.128541
0.12954
0.130682
0.13205
0.133643
0.135544
0.137747
0.140338
0.14332
0.146732
0.150588
0.15486
0.159464
0.164276
0.169069
0.173329
0.176261
0.176759
0.173425
0.164931
0.150513
0.130328
0.105351
0.0769167
0.0466289
0.0160039
-0.0133163
-0.0347413
-0.0483813
0.134098
0.135024
0.136111
0.137357
0.138849
0.140586
0.142656
0.145053
0.147869
0.151109
0.154814
0.159
0.163626
0.168598
0.173768
0.17886
0.183312
0.186221
0.186341
0.182184
0.172378
0.156248
0.134163
0.107351
0.0773179
0.0457258
0.0140776
-0.0159142
-0.0371581
-0.0497954
0.140853
0.141874
0.143062
0.14442
0.14604
0.147926
0.150172
0.152776
0.155835
0.159356
0.16338
0.167922
0.172935
0.178297
0.183842
0.189256
0.19388
0.196706
0.19637
0.191247
0.179953
0.161925
0.137799
0.109069
0.0774061
0.0445019
0.0118334
-0.0187887
-0.0397263
-0.0511996
0.147943
0.149058
0.150356
0.151838
0.153605
0.155661
0.158106
0.160939
0.164265
0.168092
0.17246
0.17739
0.182817
0.188606
0.194556
0.200283
0.205069
0.207766
0.20685
0.200602
0.187624
0.167514
0.141196
0.11047
0.0771658
0.0429831
0.00932674
-0.0218613
-0.0423363
-0.0524473
0.1554
0.156632
0.158056
0.159678
0.161602
0.163839
0.166495
0.169573
0.173186
0.177343
0.18209
0.187439
0.193325
0.199583
0.205942
0.212008
0.21692
0.219409
0.217799
0.210245
0.195369
0.172973
0.144314
0.111525
0.0765616
0.0411067
0.00646513
-0.0252291
-0.0450756
-0.0536527
0.163213
0.164574
0.166138
0.167917
0.170018
0.172457
0.175348
0.178695
0.182622
0.187145
0.192303
0.19812
0.204514
0.211252
0.218071
0.224456
0.229472
0.231674
0.22922
0.220162
0.203166
0.178274
0.147129
0.112208
0.0755976
0.038909
0.00331088
-0.0288137
-0.0478414
-0.0546777
0.171493
0.172994
0.174696
0.176631
0.178905
0.181554
0.184692
0.188333
0.192606
0.197529
0.203145
0.209471
0.216397
0.22368
0.230957
0.237677
0.242754
0.244578
0.241123
0.23034
0.210978
0.183365
0.14959
0.112486
0.0742334
0.0363172
-0.00023385
-0.032702
-0.0507066
-0.0556216
0.180078
0.181727
0.183599
0.185725
0.188221
0.191122
0.19455
0.198524
0.203178
0.208541
0.214646
0.221521
0.229033
0.236873
0.244648
0.251701
0.256802
0.25814
0.25351
0.24077
0.218781
0.188231
0.151684
0.112354
0.0724885
0.0333873
-0.0041011
-0.0368166
-0.0535708
-0.0563615
0.188802
0.190683
0.192807
0.195192
0.197968
0.201168
0.204933
0.209279
0.21436
0.220203
0.226848
0.234312
0.242442
0.250888
0.259179
0.266566
0.271639
0.272388
0.266381
0.251421
0.226521
0.192803
0.153347
0.111775
0.0703124
0.0300346
-0.00839255
-0.0412346
-0.0564856
-0.056984
0.198276
0.200329
0.202646
0.205252
0.208288
0.211787
0.215902
0.220649
0.226189
0.232555
0.239778
0.24788
0.256678
0.265758
0.274593
0.28231
0.287309
0.287322
0.279744
0.26228
0.234191
0.197074
0.154593
0.110763
0.0677548
0.0263291
-0.0130324
-0.0458757
-0.0593586
-0.0573792
0.208058
0.210355
0.212936
0.215814
0.219151
0.222981
0.227475
0.232653
0.238691
0.245623
0.25348
0.262266
0.271776
0.281538
0.29094
0.298983
0.303838
0.302998
0.293577
0.273296
0.241707
0.200952
0.155345
0.10927
0.0647537
0.0221691
-0.0181262
-0.050799
-0.0622224
-0.0576174
0.218659
0.221141
0.223923
0.227036
0.230651
0.23481
0.239695
0.245331
0.251901
0.259445
0.267979
0.277511
0.287788
0.298277
0.308276
0.316635
0.321283
0.319387
0.307883
0.284466
0.249063
0.204461
0.155636
0.107349
0.0613804
0.0176451
-0.0235906
-0.0559239
-0.0649886
-0.0576072
0.229521
0.232271
0.235342
0.238756
0.242705
0.247236
0.252552
0.258681
0.26583
0.274034
0.283313
0.293647
0.304761
0.316028
0.326654
0.335319
0.339662
0.336552
0.322614
0.2957
0.256144
0.207479
0.155374
0.104942
0.0575532
0.0126367
-0.0295309
-0.0612912
-0.0676663
-0.0574067
0.241067
0.244047
0.247369
0.251069
0.255352
0.260272
0.266045
0.27271
0.280481
0.289409
0.299492
0.310713
0.322727
0.334841
0.346123
0.355071
0.359009
0.354401
0.33777
0.306984
0.26297
0.210047
0.154634
0.10213
0.0533766
0.00724716
-0.0358539
-0.0668145
-0.0701777
-0.0569412
0.252849
0.256132
0.259785
0.263833
0.268506
0.273861
0.280141
0.287389
0.295846
0.305562
0.316536
0.328717
0.341729
0.354742
0.366718
0.375922
0.379314
0.373026
0.353259
0.318195
0.269382
0.212019
0.153311
0.0988407
0.0487446
0.00133308
-0.0426621
-0.0725086
-0.0725129
-0.0562558
0.265232
0.26879
0.27274
0.277128
0.282195
0.288013
0.294836
0.302722
0.311924
0.322506
0.334446
0.347693
0.361771
0.375773
0.388463
0.397883
0.400595
0.392279
0.369079
0.329345
0.275417
0.213482
0.151512
0.0951986
0.0437806
-0.00498394
-0.0498498
-0.0782842
-0.0746016
-0.0552971
0.277846
0.281743
0.286065
0.290853
0.296371
0.302699
0.310119
0.318696
0.328713
0.340236
0.353244
0.367634
0.382897
0.397929
0.411374
0.420969
0.422837
0.412265
0.385099
0.340257
0.280877
0.214264
0.149122
0.0911131
0.0383434
-0.0118695
-0.0575083
-0.084131
-0.0764137
-0.0541014
0.290985
0.295208
0.299885
0.305072
0.311054
0.317924
0.325983
0.335313
0.346209
0.358764
0.372918
0.388575
0.40509
0.421243
0.435458
0.445181
0.446025
0.432762
0.401333
0.350947
0.285848
0.21449
0.146303
0.0867367
0.0325809
-0.0191885
-0.0655165
-0.089952
-0.0778956
-0.0526344
0.304333
0.30894
0.314039
0.319683
0.326185
0.333649
0.342406
0.352547
0.364409
0.378073
0.393498
0.410518
0.42839
0.445729
0.460739
0.47053
0.470137
0.453925
0.417594
0.361197
0.290087
0.213971
0.142928
0.0819477
0.0263123
-0.0271251
-0.0739493
-0.095706
-0.0790042
-0.0509247
0.318052
0.323052
0.328573
0.334692
0.341742
0.349848
0.35936
0.370395
0.383298
0.398193
0.414995
0.433491
0.452843
0.471428
0.487249
0.497011
0.495137
0.475461
0.433902
0.371067
0.293717
0.2129
0.139199
0.0769336
0.0196934
-0.0355243
-0.0826642
-0.101296
-0.0797027
-0.0489597
0.331933
0.337372
0.343379
0.350025
0.357685
0.366486
0.376827
0.388828
0.402885
0.419107
0.437418
0.457524
0.478456
0.49837
0.515004
0.524638
0.521014
0.49755
0.450014
0.380272
0.296456
0.211072
0.134978
0.0715294
0.0124963
-0.044581
-0.0917099
-0.106655
-0.0799387
-0.0467649
0.346076
0.351977
0.358484
0.36569
0.373996
0.383554
0.394782
0.407839
0.423126
0.440808
0.46073
0.482603
0.505241
0.526558
0.543994
0.553367
0.547677
0.519799
0.46598
0.388896
0.298508
0.208734
0.130513
0.0659319
0.00489004
-0.0541179
-0.10092
-0.111686
-0.0797022
-0.0443478
0.360378
0.366769
0.373819
0.381621
0.390621
0.40098
0.413168
0.427353
0.44399
0.463224
0.484944
0.508687
0.533173
0.555954
0.574196
0.583206
0.575111
0.542447
0.481478
0.396595
0.29955
0.205678
0.125639
0.0599193
-0.00339729
-0.0643266
-0.110314
-0.116299
-0.0789418
-0.0417314
0.374733
0.381649
0.38926
0.397692
0.40743
0.418667
0.431893
0.447317
0.465409
0.486364
0.509969
0.535795
0.562225
0.586546
0.605608
0.614083
0.603174
0.565003
0.49657
0.40353
0.299857
0.202228
0.120622
0.0536902
-0.0121889
-0.074996
-0.119698
-0.120409
-0.077676
-0.0389432
0.389001
0.396464
0.404672
0.413795
0.424336
0.436525
0.45089
0.467659
0.487356
0.510149
0.535876
0.563874
0.592401
0.618354
0.638248
0.64601
0.631862
0.587724
0.510853
0.409288
0.299097
0.198161
0.115258
0.0469567
-0.0217895
-0.0862995
-0.129054
-0.123916
-0.0758589
-0.0360074
0.403065
0.411145
0.420017
0.429888
0.441298
0.454526
0.47012
0.488358
0.509785
0.534616
0.562563
0.592989
0.623717
0.651374
0.672061
0.678845
0.660933
0.609976
0.524439
0.41409
0.297654
0.193854
0.109815
0.0398984
-0.0319998
-0.0979815
-0.138168
-0.126753
-0.0735461
-0.0329695
0.416957
0.425674
0.435244
0.445917
0.458262
0.472601
0.489531
0.509356
0.532679
0.559688
0.590127
0.62307
0.656151
0.685575
0.70703
0.712584
0.690361
0.632073
0.536821
0.41749
0.295186
0.18908
0.104023
0.032167
-0.0431338
-0.110173
-0.14699
-0.128816
-0.0707063
-0.0298552
0.43059
0.439999
0.45032
0.461842
0.475182
0.490717
0.509078
0.530624
0.55599
0.585402
0.618441
0.654169
0.689679
0.720908
0.743049
0.746994
0.719807
0.653235
0.548156
0.419834
0.292173
0.184235
0.0981161
0.0239277
-0.0549562
-0.122571
-0.155292
-0.130078
-0.0674335
-0.0267297
0.444009
0.454119
0.465206
0.477615
0.492003
0.508804
0.528703
0.552099
0.579693
0.611657
0.647577
0.686144
0.7242
0.757289
0.780076
0.782057
0.749234
0.673804
0.557859
0.420648
0.288298
0.179048
0.0917627
0.0147869
-0.0677568
-0.135253
-0.162998
-0.130451
-0.0637141
-0.0236241
0.457053
0.467909
0.479808
0.493147
0.508644
0.526797
0.548338
0.573734
0.603706
0.638462
0.677352
0.718935
0.759609
0.794663
0.817969
0.817449
0.778166
0.692825
0.566191
0.420405
0.284125
0.173878
0.0851303
0.00491083
-0.0812363
-0.147865
-0.169889
-0.129956
-0.0596834
-0.02062
0.469649
0.481274
0.494013
0.508329
0.525001
0.544588
0.567896
0.595424
0.627984
0.665695
0.707775
0.752427
0.795835
0.832959
0.856644
0.853101
0.806538
0.710707
0.572495
0.418674
0.279316
0.168398
0.0778145
-0.00608624
-0.0956275
-0.16042
-0.175886
-0.128532
-0.0553504
-0.0177477
0.481569
0.494014
0.50765
0.523003
0.540926
0.562056
0.58725
0.617095
0.652428
0.69331
0.738776
0.786607
0.832834
0.872064
0.895831
0.888579
0.833708
0.726342
0.577162
0.416082
0.274465
0.162852
0.0699211
-0.0180172
-0.110544
-0.172527
-0.180796
-0.126268
-0.0508863
-0.0151053
0.492646
0.50595
0.520532
0.536985
0.556252
0.579036
0.606284
0.638618
0.67696
0.721263
0.770272
0.821368
0.870467
0.911815
0.935415
0.923741
0.859605
0.740189
0.579541
0.412223
0.269207
0.156802
0.0610382
-0.031218
-0.126125
-0.184155
-0.184558
-0.123146
-0.0463157
-0.0127266
0.502627
0.516862
0.532467
0.550113
0.570823
0.595402
0.624852
0.659907
0.701465
0.749391
0.802101
0.856542
0.908579
0.952055
0.975066
0.95801
0.88336
0.750979
0.580214
0.407842
0.264019
0.150345
0.0512191
-0.0454391
-0.141888
-0.194893
-0.187041
-0.119326
-0.0418389
-0.0107231
0.5114
0.526624
0.543315
0.562235
0.584495
0.610999
0.642844
0.680794
0.725825
0.777543
0.833877
0.891743
0.946981
0.992656
1.01456
0.991208
0.904844
0.759327
0.578572
0.402578
0.258377
0.142994
0.0400955
-0.0608885
-0.157872
-0.204675
-0.188233
-0.114834
-0.0374948
-0.00912095
0.518857
0.53511
0.552937
0.573194
0.597102
0.625677
0.660093
0.701201
0.749899
0.805531
0.865467
0.926749
0.985422
1.03328
1.0535
1.02251
0.922954
0.763901
0.575438
0.397147
0.252538
0.134669
0.0277547
-0.0772459
-0.173501
-0.21313
-0.188091
-0.109904
-0.0334999
-0.00804495
0.524804
0.542097
0.561078
0.582733
0.608401
0.639212
0.676442
0.720935
0.773554
0.833242
0.8966
0.961224
1.02352
1.07359
1.09158
1.05165
0.937578
0.765456
0.570325
0.391064
0.245833
0.124892
0.014017
-0.0945774
-0.188715
-0.22021
-0.186668
-0.104612
-0.02989
-0.00752025
0.528835
0.547203
0.567382
0.59052
0.618091
0.651356
0.691662
0.739876
0.796632
0.860371
0.926995
0.994878
1.06091
1.11324
1.12819
1.0775
0.947271
0.762701
0.564212
0.384815
0.238131
0.113549
-0.000969927
-0.112484
-0.202891
-0.225632
-0.184035
-0.0992574
-0.0268845
-0.00767936
0.530501
0.549963
0.571388
0.59612
0.625782
0.661778
0.705536
0.757794
0.818909
0.886558
0.956149
1.02721
1.0971
1.15161
1.1629
1.09953
0.951947
0.756669
0.556638
0.377624
0.228591
0.100445
-0.0171628
-0.130879
-0.215936
-0.229393
-0.180328
-0.0939416
-0.02451
-0.00852588
0.529013
0.54964
0.572414
0.598906
0.630929
0.670053
0.717728
0.774564
0.840244
0.911142
0.983364
1.05782
1.13174
1.18818
1.19468
1.116
0.949942
0.746224
0.548562
0.369273
0.216897
0.0856163
-0.034318
-0.149396
-0.227271
-0.231369
-0.175725
-0.0890062
-0.0229702
-0.010193
0.523545
0.545367
0.569586
0.59804
0.632788
0.675559
0.727898
0.79002
0.86053
0.934142
1.0082
1.08617
1.16382
1.22179
1.22232
1.1259
0.941257
0.732636
0.539177
0.358391
0.202702
0.0694473
-0.0521547
-0.167949
-0.236878
-0.231671
-0.170425
-0.0845641
-0.0222548
-0.012664
0.512794
0.535854
0.561631
0.592296
0.630205
0.677379
0.735386
0.803778
0.879866
0.95518
1.03099
1.11261
1.192
1.24997
1.2432
1.12651
0.924331
0.714847
0.528414
0.344385
0.186285
0.0523002
-0.0705742
-0.186329
-0.244379
-0.230379
-0.164705
-0.080965
-0.0225297
-0.0160647
0.495374
0.51955
0.546875
0.579933
0.62149
0.673945
0.738802
0.815165
0.897884
0.974359
1.05437
1.13701
1.21246
1.26661
1.25261
1.1154
0.899296
0.693227
0.514898
0.326895
0.168533
0.0347878
-0.0894757
-0.204515
-0.24988
-0.227719
-0.158819
-0.0782915
-0.0237428
-0.0203431
0.46934
0.494398
0.523129
0.55861
0.604116
0.662571
0.735634
0.821363
0.912553
0.992628
1.0778
1.15761
1.22882
1.268
1.24398
1.08918
0.864005
0.665635
0.499137
0.306279
0.14978
0.0165294
-0.10941
-0.222569
-0.25309
-0.22395
-0.153101
-0.0768703
-0.0260111
-0.0256167
0.432745
0.458175
0.487885
0.525483
0.574789
0.63922
0.720481
0.815709
0.91463
1.00992
1.10003
1.18214
1.25227
1.26649
1.21883
1.04634
0.817059
0.633233
0.481485
0.282394
0.130677
-0.00264093
-0.130568
-0.240391
-0.254065
-0.219361
-0.147802
-0.0767397
-0.029223
-0.0317989
0.383459
0.408604
0.438682
0.477859
0.530559
0.600655
0.690361
0.796676
0.907294
1.02431
1.12151
1.21926
1.29288
1.27733
1.18793
0.98652
0.755783
0.597823
0.461789
0.254142
0.110706
-0.0234633
-0.15323
-0.257575
-0.252584
-0.214396
-0.143281
-0.0781719
-0.0334271
-0.0389761
0.319877
0.343887
0.37363
0.413918
0.469887
0.546263
0.646066
0.766016
0.900291
1.03103
1.14631
1.26798
1.34641
1.29947
1.15532
0.913228
0.685085
0.561435
0.438023
0.220843
0.0916879
-0.0450996
-0.176345
-0.273302
-0.248946
-0.209521
-0.139788
-0.0811283
-0.0384417
-0.0469895
0.240311
0.262238
0.290917
0.331982
0.391687
0.475967
0.588217
0.727616
0.886475
1.03293
1.17718
1.32822
1.41242
1.32803
1.11939
0.828119
0.610419
0.522251
0.407303
0.181951
0.0744489
-0.0673443
-0.199919
-0.287424
-0.243758
-0.205583
-0.137686
-0.0858138
-0.044245
-0.0558056
0.143327
0.16195
0.188646
0.230186
0.294451
0.388944
0.516823
0.681192
0.859901
1.03572
1.21712
1.40229
1.49251
1.35962
1.08064
0.72978
0.534329
0.477979
0.367133
0.140811
0.0611741
-0.0884898
-0.223152
-0.300085
-0.238499
-0.203428
-0.137201
-0.0920953
-0.0506192
-0.0650632
0.0274697
0.0412411
0.0646789
0.106142
0.175609
0.282349
0.431115
0.618012
0.826646
1.04414
1.27054
1.49452
1.58896
1.39782
1.03671
0.620461
0.455923
0.428036
0.315984
0.104702
0.0497386
-0.108831
-0.245913
-0.31211
-0.234929
-0.204344
-0.138719
-0.100061
-0.0574285
-0.0745674
-0.107705
-0.100875
-0.0824814
-0.0423451
0.0317579
0.150241
0.322544
0.533444
0.784501
1.06148
1.34167
1.60786
1.70197
1.44199
0.978535
0.509703
0.376739
0.370063
0.257549
0.0810133
0.0400075
-0.12873
-0.267042
-0.324353
-0.234932
-0.209376
-0.142472
-0.109472
-0.0643656
-0.0838066
-0.261464
-0.264025
-0.253116
-0.216434
-0.139685
-0.011252