/*--------------------------------*- C++ -*----------------------------------*\
  =========                 |
  \\      /  F ield         | OpenFOAM: The Open Source CFD Toolbox
   \\    /   O peration     | Website:  https://openfoam.org
    \\  /    A nd           | Version:  6.0
     \\/     M anipulation  |
\*---------------------------------------------------------------------------*/
FoamFile
{
    version     2.0;
    format      ascii;
    class       surfaceScalarField;
    location    "18";
    object      phi;
}
// * * * * * * * * * * * * * * * * * * * * * * * * * * * * * * * * * * * * * //

dimensions      [0 3 -1 0 0 0 0];

internalField   nonuniform List<scalar> 
30763
(
-5.30379e-05
4.48182e-05
5.45737e-05
-5.12266e-05
5.25426e-05
-4.91182e-05
6.16003e-05
-4.66384e-05
7.22217e-05
-4.37363e-05
8.46738e-05
-4.03271e-05
9.92775e-05
-3.63346e-05
0.000116407
-3.1629e-05
0.000136471
-2.61083e-05
0.000160019
-1.95968e-05
0.000187593
-1.19262e-05
0.000219926
-2.89325e-06
0.000257804
7.7644e-06
0.000302149
2.03391e-05
0.000354022
3.51585e-05
0.000414653
5.26067e-05
0.000485378
7.31337e-05
0.000567651
9.72393e-05
0.000663009
0.000125464
0.000772913
0.000158407
0.000898548
0.000196693
0.00104044
0.000240901
0.00119788
0.000291506
0.00136776
0.000348733
0.00154305
0.000412311
0.00171006
0.000481075
0.00184459
0.000552396
0.00190622
0.000621231
0.00183133
0.00067873
0.00152314
0.000838798
0.000699179
-5.14706e-05
4.33394e-05
5.29477e-05
-4.97247e-05
5.08087e-05
-4.76897e-05
5.95673e-05
-4.52967e-05
6.98381e-05
-4.24956e-05
8.18757e-05
-3.92057e-05
9.59943e-05
-3.53525e-05
0.000112557
-3.08126e-05
0.000131934
-2.54862e-05
0.000154696
-1.92043e-05
0.000181312
-1.18054e-05
0.00021253
-3.0907e-06
0.000249089
7.18874e-06
0.000291871
1.93186e-05
0.000341893
3.36107e-05
0.000400363
5.04362e-05
0.000468554
7.02317e-05
0.000547863
9.34703e-05
0.000639778
0.00012068
0.000745716
0.000152434
0.000866809
0.00018934
0.00100355
0.000231956
0.00115529
0.000280744
0.00131901
0.000335929
0.00148791
0.000397252
0.0016488
0.000463594
0.00177833
0.000532396
0.00183753
0.000598782
0.00176508
0.000652312
0.00146982
0.000816599
0.00067491
-4.99615e-05
4.19156e-05
5.13894e-05
-4.82828e-05
4.91389e-05
-4.63233e-05
5.76089e-05
-4.40209e-05
6.75414e-05
-4.13235e-05
7.9179e-05
-3.81545e-05
9.28293e-05
-3.44413e-05
0.000108845
-3.00646e-05
0.00012756
-2.49293e-05
0.000149564
-1.88722e-05
0.000175255
-1.17385e-05
0.000205399
-3.33638e-06
0.000240687
6.57353e-06
0.000281963
1.82672e-05
0.000330201
3.20432e-05
0.000386587
4.82628e-05
0.000452337
6.73424e-05
0.000528787
8.97434e-05
0.000617387
0.000115972
0.000719499
0.000146585
0.000836208
0.00018217
0.000967982
0.000223268
0.0011142
0.000270332
0.00127196
0.00032358
0.00143468
0.000382763
0.00158962
0.000446798
0.0017143
0.000513166
0.00177116
0.000577179
0.00170105
0.00062941
0.00141756
0.000792528
0.000653284
-4.85222e-05
4.05426e-05
4.98909e-05
-4.6903e-05
4.75291e-05
-4.50127e-05
5.57214e-05
-4.27914e-05
6.53283e-05
-4.01886e-05
7.65809e-05
-3.71334e-05
8.97805e-05
-3.3553e-05
0.00010527
-2.93354e-05
0.000123346
-2.4386e-05
0.000144619
-1.8549e-05
0.00016942
-1.16739e-05
0.000198528
-3.57573e-06
0.00023259
5.97561e-06
0.000272414
1.72462e-05
0.000318932
3.05247e-05
0.00037331
4.61576e-05
0.000436706
6.45508e-05
0.000510401
8.61442e-05
0.000595798
0.000111432
0.000694221
0.000140949
0.000806699
0.000175269
0.000933676
0.000214913
0.00107457
0.000260324
0.00122657
0.000311712
0.00138332
0.000368834
0.00153254
0.000430639
0.00165255
0.000494659
0.00170721
0.000556369
0.00163943
0.000607153
0.00136693
0.000768622
0.000631363
-4.7085e-05
3.92202e-05
4.84121e-05
-4.55286e-05
4.59784e-05
-4.37092e-05
5.39029e-05
-4.15735e-05
6.31957e-05
-3.90693e-05
7.40769e-05
-3.61282e-05
8.68418e-05
-3.26805e-05
0.000101824
-2.86168e-05
0.000119284
-2.38478e-05
0.000139852
-1.82222e-05
0.000163795
-1.15961e-05
0.000191905
-3.79134e-06
0.000224786
5.41437e-06
0.00026321
1.6278e-05
0.000308071
2.90769e-05
0.000360512
4.41476e-05
0.000421638
6.18766e-05
0.000492672
8.26974e-05
0.000574987
0.000107079
0.000669846
0.000135544
0.000778242
0.000168643
0.000900584
0.000206885
0.00103634
0.000250696
0.00118276
0.000300282
0.00133373
0.000355405
0.00147741
0.000415046
0.00159289
0.000476799
0.00164544
0.00053626
0.00157993
0.000585389
0.00131774
0.000743855
0.000609916
-4.57287e-05
3.79434e-05
4.69995e-05
-4.42252e-05
4.44818e-05
-4.24683e-05
5.21485e-05
-4.04053e-05
6.11392e-05
-3.79867e-05
7.16631e-05
-3.51493e-05
8.40096e-05
-3.18233e-05
9.85028e-05
-2.79065e-05
0.00011537
-2.33096e-05
0.00013526
-1.78884e-05
0.000158375
-1.15027e-05
0.000185522
-3.98031e-06
0.000217264
4.89246e-06
0.000254339
1.53638e-05
0.000297601
2.7702e-05
0.000348176
4.22285e-05
0.000407112
5.93237e-05
0.000475583
7.93956e-05
0.000554918
0.000102905
0.000646342
0.000130355
0.0007508
0.000162277
0.00086867
0.000199163
0.000999464
0.000241426
0.00114051
0.000289266
0.00128591
0.000342451
0.00142426
0.000399993
0.00153539
0.00045956
0.00158592
0.000516853
0.0015227
0.000564366
0.00127036
0.000719369
0.000589118
-4.43799e-05
3.67129e-05
4.56143e-05
-4.29339e-05
4.30389e-05
-4.1242e-05
5.04567e-05
-3.92575e-05
5.91555e-05
-3.69293e-05
6.93345e-05
-3.41962e-05
8.12771e-05
-3.09918e-05
9.5299e-05
-2.72156e-05
0.000111595
-2.27838e-05
0.000130831
-1.75568e-05
0.000153149
-1.14004e-05
0.000179369
-4.14914e-06
0.000210014
4.40424e-06
0.000245788
1.44988e-05
0.000287509
2.63925e-05
0.000336283
4.03989e-05
0.000393108
5.68783e-05
0.000459105
7.62329e-05
0.00053557
9.89022e-05
0.00062368
0.000125372
0.000724335
0.000156158
0.000837889
0.000191736
0.000963888
0.000232503
0.00109974
0.000278654
0.00123975
0.000329962
0.00137293
0.000385472
0.00147986
0.000442929
0.00152843
0.000498149
0.00146743
0.000544071
0.00122436
0.000694648
0.000568541
-4.31166e-05
3.55245e-05
4.42973e-05
-4.17182e-05
4.1646e-05
-4.00827e-05
4.88241e-05
-3.81634e-05
5.72421e-05
-3.59126e-05
6.70891e-05
-3.32737e-05
7.86431e-05
-3.018e-05
9.2211e-05
-2.65385e-05
0.000107957
-2.22647e-05
0.000126561
-1.72259e-05
0.000148112
-1.1291e-05
0.000173437
-4.30029e-06
0.000203024
3.94545e-06
0.000237544
1.36771e-05
0.000277779
2.51445e-05
0.000324817
3.86473e-05
0.000379605
5.45386e-05
0.000443219
7.31986e-05
0.000516912
9.50583e-05
0.000601826
0.000120584
0.000698814
0.000150275
0.000808206
0.000184589
0.000929584
0.000223912
0.00106043
0.000268429
0.00119525
0.000317921
0.00132347
0.000371462
0.00142635
0.000426879
0.00147306
0.000480114
0.00141425
0.000524415
0.00118017
0.000671237
0.000548069
-4.18442e-05
3.43803e-05
4.2993e-05
-4.05005e-05
4.03041e-05
-3.89267e-05
4.72505e-05
-3.70817e-05
5.53969e-05
-3.49161e-05
6.4923e-05
-3.23746e-05
7.61015e-05
-2.93942e-05
8.92312e-05
-2.58828e-05
0.000104446
-2.17618e-05
0.000122443
-1.69022e-05
0.000143253
-1.11789e-05
0.000167717
-4.43844e-06
0.000196284
3.51193e-06
0.000229595
1.28951e-05
0.000268398
2.3951e-05
0.000313761
3.69716e-05
0.000366588
5.22905e-05
0.000427899
7.02862e-05
0.000498924
9.13637e-05
0.000580752
0.00011598
0.000674203
0.000144613
0.000779575
0.000177707
0.00089649
0.000215634
0.0010225
0.000258571
0.0011523
0.000306304
0.00127572
0.000357936
0.00137469
0.00041138
0.00141958
0.000462704
0.00136287
0.000505386
0.00113741
0.000648342
0.000528041
-4.06507e-05
3.3276e-05
4.17473e-05
-3.93517e-05
3.90094e-05
-3.78315e-05
4.57327e-05
-3.60473e-05
5.36178e-05
-3.39544e-05
6.28351e-05
-3.15007e-05
7.3652e-05
-2.86239e-05
8.63595e-05
-2.5238e-05
0.000101062
-2.12642e-05
0.000118473
-1.65793e-05
0.000138569
-1.10615e-05
0.000162202
-4.56258e-06
0.000189786
3.10247e-06
0.000221932
1.21489e-05
0.000259353
2.28091e-05
0.000303103
3.53606e-05
0.000354035
5.01349e-05
0.000413131
6.74835e-05
0.000481576
8.78084e-05
0.000560431
0.000111546
0.000650471
0.000139158
0.000751969
0.000171073
0.000864585
0.00020765
0.000985938
0.000249058
0.00111091
0.000295088
0.00122971
0.000344872
0.00132493
0.000396405
0.00136808
0.000445886
0.00131344
0.000487012
0.00109638
0.000626785
0.0005088
-3.94409e-05
3.22136e-05
4.05079e-05
-3.81938e-05
3.77631e-05
-3.67324e-05
4.42709e-05
-3.50189e-05
5.19031e-05
-3.30071e-05
6.08218e-05
-3.06452e-05
7.12894e-05
-2.78752e-05
8.35893e-05
-2.46109e-05
9.77981e-05
-2.07799e-05
0.000114644
-1.62621e-05
0.000134051
-1.09416e-05
0.000156884
-4.67597e-06
0.000183521
2.71429e-06
0.000214543
1.14362e-05
0.000250633
2.17128e-05
0.000292826
3.38162e-05
0.000341934
4.80575e-05
0.000398889
6.4787e-05
0.000464853
8.43845e-05
0.000540838
0.000107272
0.000627586
0.000133898
0.000725344
0.000164674
0.000833806
0.000199945
0.000950659
0.000239874
0.00107097
0.000284257
0.0011853
0.000332253
0.00127691
0.000381939
0.00131836
0.000429645
0.00126568
0.000469311
0.00105663
0.00060538
0.000490482
-3.83104e-05
3.11885e-05
3.93268e-05
-3.71042e-05
3.65613e-05
-3.56921e-05
4.28618e-05
-3.40345e-05
5.02513e-05
-3.20901e-05
5.88831e-05
-2.98104e-05
6.90145e-05
-2.71374e-05
8.09219e-05
-2.39914e-05
9.46547e-05
-2.02987e-05
0.000110955
-1.59453e-05
0.000129699
-1.08177e-05
0.000151759
-4.77793e-06
0.000177482
2.34582e-06
0.000207421
1.07534e-05
0.000242226
2.06612e-05
0.000282919
3.23281e-05
0.000330267
4.60611e-05
0.000385162
6.21877e-05
0.000448726
8.1083e-05
0.000521948
0.00010315
0.000605522
0.000128823
0.000699679
0.000158497
0.000804141
0.000192506
0.000916664
0.000231005
0.00103249
0.000273797
0.00114253
0.000320066
0.00123067
0.000367967
0.00127049
0.000413968
0.00121972
0.000452266
0.00101842
0.000584846
0.000473015
-3.71585e-05
3.02027e-05
3.8151e-05
-3.60012e-05
3.54049e-05
-3.46451e-05
4.15053e-05
-3.30553e-05
4.86601e-05
-3.11883e-05
5.70145e-05
-2.89962e-05
6.68213e-05
-2.64243e-05
7.83498e-05
-2.33932e-05
9.16236e-05
-1.9835e-05
0.000107399
-1.56384e-05
0.000125503
-1.06953e-05
0.000146819
-4.87364e-06
0.000171661
1.99344e-06
0.000200555
1.00985e-05
0.000234123
1.9649e-05
0.000273369
3.0898e-05
0.000319021
4.41328e-05
0.000371924
5.96837e-05
0.000433184
7.78988e-05
0.000503734
9.91748e-05
0.000584249
0.000123926
0.000674928
0.000152535
0.000775528
0.000185324
0.000883866
0.000222441
0.000995357
0.000263696
0.00110126
0.0003083
0.00118603
0.000354482
0.00122426
0.000398846
0.0011753
0.000435851
0.000981334
0.000564224
0.000456261
-3.61035e-05
2.92501e-05
3.70459e-05
-3.4984e-05
3.42885e-05
-3.36729e-05
4.01968e-05
-3.21343e-05
4.71264e-05
-3.03289e-05
5.52145e-05
-2.82128e-05
6.47093e-05
-2.5731e-05
7.58733e-05
-2.28102e-05
8.87047e-05
-1.93811e-05
0.000103973
-1.53378e-05
0.00012146
-1.05748e-05
0.000142058
-4.96357e-06
0.000166051
1.65511e-06
0.000193938
9.4675e-06
0.000226312
1.86743e-05
0.000264164
2.95151e-05
0.000308178
4.22782e-05
0.000359168
5.72657e-05
0.000418195
7.48266e-05
0.000486177
9.53376e-05
0.000563743
0.000119198
0.000651072
0.00014678
0.000747957
0.00017839
0.000852269
0.000214173
0.000959591
0.000253945
0.00106151
0.000296946
0.00114306
0.000341472
0.00117977
0.000384266
0.00113254
0.00042003
0.000945647
0.000544369
0.000440083
-3.50366e-05
2.83332e-05
3.59593e-05
-3.3962e-05
3.32135e-05
-3.27026e-05
3.89361e-05
-3.12269e-05
4.56479e-05
-2.94935e-05
5.34786e-05
-2.74584e-05
6.26721e-05
-2.50703e-05
7.34842e-05
-2.22556e-05
8.58895e-05
-1.89508e-05
0.00010067
-1.5053e-05
0.000117562
-1.04615e-05
0.000137469
-5.05337e-06
0.000160643
1.32673e-06
0.000187559
8.85744e-06
0.000218782
1.77311e-05
0.000255289
2.81838e-05
0.000297727
4.04832e-05
0.000346867
5.49339e-05
0.000403751
7.18628e-05
0.000469252
9.16346e-05
0.000543972
0.000114637
0.00062807
0.000141226
0.000721363
0.000171698
0.000821785
0.000206194
0.000925078
0.000244536
0.00102314
0.000285993
0.00110157
0.000328927
0.00113679
0.000370213
0.0010912
0.000404775
0.000911004
0.000524533
0.000424408
-3.40809e-05
2.74459e-05
3.49552e-05
-3.30394e-05
3.21742e-05
-3.1819e-05
3.77186e-05
-3.03879e-05
4.42217e-05
-2.87087e-05
5.18055e-05
-2.6742e-05
6.07096e-05
-2.44354e-05
7.11835e-05
-2.17221e-05
8.31782e-05
-1.85363e-05
9.74883e-05
-1.47807e-05
0.000113807
-1.03561e-05
0.000133046
-5.1434e-06
0.000155431
1.00596e-06
0.00018141
8.26472e-06
0.000211524
1.68194e-05
0.000246735
2.68936e-05
0.000287652
3.87538e-05
0.000335013
5.26809e-05
0.000389822
6.90008e-05
0.000452936
8.80602e-05
0.000524914
0.000110235
0.000605902
0.000135865
0.000695741
0.000165242
0.000792424
0.000198496
0.00089184
0.000235462
0.000986194
0.000275433
0.00106162
0.000316837
0.00109541
0.000356673
0.0010514
0.000390063
0.000877683
0.000505577
0.000409195
-3.31093e-05
2.65918e-05
3.397e-05
-3.21091e-05
3.1173e-05
-3.09368e-05
3.6545e-05
-2.95646e-05
4.28458e-05
-2.79521e-05
5.01907e-05
-2.60604e-05
5.8815e-05
-2.384e-05
6.89623e-05
-2.12242e-05
8.05613e-05
-1.81527e-05
9.44183e-05
-1.45308e-05
0.000110185
-1.0264e-05
0.000128781
-5.23875e-06
0.000150405
6.89805e-07
0.000175483
7.68801e-06
0.000204527
1.59345e-05
0.000238489
2.56485e-05
0.000277941
3.7077e-05
0.00032358
5.05075e-05
0.0003764
6.6238e-05
0.000437206
8.46124e-05
0.000506542
0.000105988
0.000584524
0.000130696
0.000671026
0.000159015
0.000764093
0.000191074
0.000859761
0.000226714
0.000950529
0.000265255
0.00102304
0.000305189
0.00105544
0.000343631
0.0010129
0.000375878
0.000845356
0.000486827
0.000394447
-3.22571e-05
2.57639e-05
3.30696e-05
-3.12872e-05
3.02037e-05
-3.01499e-05
3.54099e-05
-2.88173e-05
4.15166e-05
-2.72531e-05
4.86322e-05
-2.54229e-05
5.69877e-05
-2.3276e-05
6.68209e-05
-2.07523e-05
7.80385e-05
-1.77892e-05
9.14587e-05
-1.42972e-05
0.000106693
-1.01834e-05
0.00012467
-5.33763e-06
0.00014556
3.78141e-07
0.000169768
7.12521e-06
0.000197781
1.50766e-05
0.000230538
2.44385e-05
0.000268576
3.54619e-05
0.000312564
4.84051e-05
0.000363454
6.35712e-05
0.000422042
8.12847e-05
0.000488832
0.000101891
0.000563923
0.000125711
0.000647217
0.000153012
0.000736805
0.00018392
0.000828872
0.000218283
0.000916185
0.000255451
0.000985901
0.000293969
0.00101694
0.000331069
0.000975831
0.000362203
0.00081428
0.000469011
0.000380171
-3.13846e-05
2.49669e-05
3.21857e-05
-3.0453e-05
2.92695e-05
-2.93603e-05
3.4315e-05
-2.80822e-05
4.02333e-05
-2.65794e-05
4.71266e-05
-2.48177e-05
5.52219e-05
-2.27493e-05
6.47515e-05
-2.03141e-05
7.56016e-05
-1.74547e-05
8.86008e-05
-1.40848e-05
0.000103323
-1.01156e-05
0.000120702
-5.44233e-06
0.000140887
7.0078e-08
0.000164256
6.57627e-06
0.000191276
1.4242e-05
0.000222872
2.32715e-05
0.000259549
3.38951e-05
0.000301937
4.63773e-05
0.000350979
6.09988e-05
0.000407424
7.80753e-05
0.000471755
9.7942e-05
0.000544053
0.000120907
0.000624244
0.000147228
0.00071047
0.000177029
0.00079905
0.000210163
0.000883021
0.000246009
0.00095002
0.000283166
0.00097974
0.000318971
0.00093997
0.000349027
0.00078415
0.000451484
0.000366384
-3.06233e-05
2.41943e-05
3.13783e-05
-2.97188e-05
2.83649e-05
-2.86568e-05
3.32558e-05
-2.74136e-05
3.89934e-05
-2.59538e-05
4.56733e-05
-2.42477e-05
5.35186e-05
-2.22459e-05
6.2756e-05
-1.98952e-05
7.32516e-05
-1.71353e-05
8.58448e-05
-1.38849e-05
0.000100072
-1.00568e-05
0.000116876
-5.54881e-06
0.000136379
-2.32911e-07
0.000158941
6.04105e-06
0.000185002
1.34341e-05
0.000215479
2.21388e-05
0.000250843
3.23865e-05
0.000291696
4.4418e-05
0.000338944
5.85162e-05
0.000393329
7.49801e-05
0.000455292
9.4135e-05
0.000524905
0.000116276
0.000602112
0.000141656
0.000685106
0.000170391
0.000770331
0.000202345
0.000851088
0.000236917
0.000915468
0.000272765
0.000943917
0.000307322
0.000905441
0.000336333
0.00075519
0.000434862
0.00035308
-2.98235e-05
2.34514e-05
3.05712e-05
-2.8955e-05
2.7494e-05
-2.79357e-05
3.22348e-05
-2.67445e-05
3.77967e-05
-2.53428e-05
4.42694e-05
-2.3701e-05
5.18723e-05
-2.17725e-05
6.08271e-05
-1.95039e-05
7.09808e-05
-1.68399e-05
8.31826e-05
-1.37021e-05
9.69333e-05
-1.0007e-05
0.000113183
-5.65807e-06
0.00013203
-5.29959e-07
0.000153813
5.52176e-06
0.000178952
1.26512e-05
0.000208349
2.1048e-05
0.000242448
3.09244e-05
0.000281814
4.25309e-05
0.000327347
5.61228e-05
0.000379736
7.19988e-05
0.000439416
9.04678e-05
0.000506431
0.000111818
0.000580753
0.00013629
0.000660618
0.000164001
0.000742598
0.000194817
0.000820241
0.000228166
0.000882081
0.000262752
0.000909286
0.000296106
0.000872031
0.000324106
0.000727117
0.000418563
0.000340261
-2.91259e-05
2.27312e-05
2.98278e-05
-2.82833e-05
2.66504e-05
-2.72931e-05
3.1247e-05
-2.61344e-05
3.66402e-05
-2.47726e-05
4.29139e-05
-2.31825e-05
5.02838e-05
-2.13158e-05
5.89664e-05
-1.91255e-05
6.87903e-05
-1.65536e-05
8.06142e-05
-1.35261e-05
9.3905e-05
-9.96107e-06
0.00010962
-5.76465e-06
0.000127834
-8.17997e-07
0.000148867
5.01921e-06
0.000173115
1.18963e-05
0.000201472
1.99909e-05
0.00023435
2.95212e-05
0.000272291
4.07088e-05
0.000316156
5.38168e-05
0.00036663
6.91261e-05
0.00042411
8.69356e-05
0.000488626
0.000107525
0.000560175
0.000131125
0.000637031
0.00015785
0.000715892
0.000187573
0.000790537
0.000219743
0.000849933
0.000253113
0.000875939
0.000285305
0.000839866
0.000312329
0.000700134
0.000403073
0.000327914
-2.83817e-05
2.20392e-05
2.90764e-05
-2.75733e-05
2.58387e-05
-2.66236e-05
3.02951e-05
-2.5514e-05
3.55243e-05
-2.4207e-05
4.16047e-05
-2.26771e-05
4.87486e-05
-2.08788e-05
5.71678e-05
-1.87646e-05
6.66734e-05
-1.62816e-05
7.81331e-05
-1.33585e-05
9.09809e-05
-9.91705e-06
0.00010618
-5.86824e-06
0.000123784
-1.09536e-06
0.000144094
4.53565e-06
0.000167485
1.11678e-05
0.000194839
1.89777e-05
0.000226542
2.81642e-05
0.000263101
3.89572e-05
0.00030537
5.15983e-05
0.000353991
6.63612e-05
0.000409345
8.35373e-05
0.000471445
0.000103393
0.000540308
0.000126155
0.000614252
0.00015193
0.000690091
0.000180601
0.000761833
0.000211636
0.000818858
0.000243835
0.000843693
0.000274905
0.00080874
0.000300988
0.000673987
0.000387902
0.000316031
-2.77262e-05
2.13688e-05
2.83775e-05
-2.69416e-05
2.50532e-05
-2.60183e-05
2.9375e-05
-2.49387e-05
3.44468e-05
-2.36688e-05
4.03418e-05
-2.21871e-05
4.72686e-05
-2.04468e-05
5.54342e-05
-1.84062e-05
6.46325e-05
-1.60096e-05
7.57404e-05
-1.31899e-05
8.81603e-05
-9.87019e-06
0.000102862
-5.96352e-06
0.000119877
-1.35944e-06
0.00013949
4.07209e-06
0.000162053
1.047e-05
0.00018844
1.80007e-05
0.000219009
2.68653e-05
0.000254242
3.72707e-05
0.00029496
4.9463e-05
0.000341801
6.37007e-05
0.000395107
8.02669e-05
0.000454886
9.94177e-05
0.000521166
0.000121372
0.000592314
0.000146235
0.000665246
0.000173892
0.000734197
0.000203834
0.000788936
0.000234903
0.000812648
0.000264891
0.000778777
0.000290065
0.000648845
0.000373438
0.000304588
-2.70128e-05
2.07254e-05
2.76592e-05
-2.62608e-05
2.42982e-05
-2.53766e-05
2.84893e-05
-2.4344e-05
3.34082e-05
-2.31268e-05
3.9123e-05
-2.17025e-05
4.58391e-05
-2.00272e-05
5.37592e-05
-1.80587e-05
6.26611e-05
-1.5746e-05
7.34297e-05
-1.30243e-05
8.54373e-05
-9.82001e-06
9.96592e-05
-6.05098e-06
0.000116108
-1.6089e-06
0.000135048
3.63108e-06
0.000156813
9.80194e-06
0.000182269
1.7068e-05
0.000211745
2.56125e-05
0.000245692
3.56538e-05
0.000284928
4.74113e-05
0.000330042
6.11449e-05
0.000381372
7.71228e-05
0.000438901
9.55953e-05
0.000502682
0.000116772
0.000571118
0.000140756
0.000641235
0.000167436
0.000707481
0.000196325
0.000760005
0.000226304
0.00078262
0.000255246
0.000749779
0.000279545
0.000624484
0.000359313
0.000293576
-2.63816e-05
2.01021e-05
2.69857e-05
-2.56524e-05
2.35676e-05
-2.4794e-05
2.76332e-05
-2.37901e-05
3.24055e-05
-2.26081e-05
3.79475e-05
-2.12296e-05
4.44611e-05
-1.96092e-05
5.21449e-05
-1.771e-05
6.07607e-05
-1.54785e-05
7.12017e-05
-1.28535e-05
8.2811e-05
-9.76282e-06
9.65698e-05
-6.12634e-06
0.000112471
-1.84149e-06
0.000130763
3.21299e-06
0.000151759
9.16614e-06
0.000176315
1.61714e-05
0.000204736
2.44188e-05
0.000237452
3.4099e-05
0.000275243
4.5441e-05
0.000318701
5.86882e-05
0.000368128
7.41001e-05
0.000423493
9.19197e-05
0.000484875
0.000112348
0.000550704
0.000135485
0.000618119
0.000161225
0.000681762
0.000189098
0.000732156
0.000218026
0.000753717
0.000245958
0.000721874
0.000269411
0.000601055
0.000345783
0.000282966
-2.56949e-05
1.95041e-05
2.62931e-05
-2.49966e-05
2.28657e-05
-2.41749e-05
2.68095e-05
-2.32152e-05
3.14391e-05
-2.20829e-05
3.68133e-05
-2.07581e-05
4.31306e-05
-1.91987e-05
5.05856e-05
-1.73669e-05
5.89255e-05
-1.52138e-05
6.90506e-05
-1.26807e-05
8.02763e-05
-9.69824e-06
9.35889e-05
-6.19052e-06
0.000108963
-2.05668e-06
0.000126629
2.81909e-06
0.000146884
8.56035e-06
0.000170573
1.53199e-05
0.000197977
2.32705e-05
0.000229497
3.26117e-05
0.000265908
4.35521e-05
0.000307761
5.63299e-05
0.000355346
7.11977e-05
0.000408619
8.83873e-05
0.000467672
0.000108094
0.000530976
0.000130415
0.000595769
0.000155248
0.000656891
0.000182142
0.00070522
0.000210056
0.000725751
0.000237011
0.000694864
0.000259648
0.000578365
0.000332603
0.000272752
-2.5083e-05
1.8925e-05
2.56415e-05
-2.44055e-05
2.21866e-05
-2.36073e-05
2.60137e-05
-2.26741e-05
3.05069e-05
-2.15747e-05
3.57202e-05
-2.02929e-05
4.18491e-05
-1.87851e-05
4.90841e-05
-1.70185e-05
5.71576e-05
-1.49419e-05
6.69776e-05
-1.24998e-05
7.78327e-05
-9.62406e-06
9.07144e-05
-6.24046e-06
0.000105579
-2.25353e-06
0.000122642
2.44897e-06
0.000142181
7.98693e-06
0.000165033
1.45052e-05
0.000191456
2.21785e-05
0.000221827
3.11854e-05
0.000256893
4.17402e-05
0.000297207
5.40661e-05
0.000343019
6.84095e-05
0.000394282
8.49922e-05
0.000451099
0.000104005
0.000511981
0.000125539
0.000574255
0.000149498
0.000632958
0.000175446
0.000679297
0.000202382
0.000698846
0.000228393
0.000668879
0.000250242
0.000556533
0.000319926
0.000262906
-2.44141e-05
1.83697e-05
2.49687e-05
-2.37656e-05
2.15347e-05
-2.30026e-05
2.52484e-05
-2.21112e-05
2.9609e-05
-2.10589e-05
3.46661e-05
-1.98278e-05
4.06123e-05
-1.83777e-05
4.76344e-05
-1.66745e-05
5.54511e-05
-1.46719e-05
6.4977e-05
-1.23158e-05
7.54752e-05
-9.54141e-06
8.79415e-05
-6.27801e-06
0.000102315
-2.433e-06
0.000118796
2.10253e-06
0.000137645
7.44348e-06
0.00015969
1.37322e-05
0.000185164
2.11297e-05
0.000214423
2.98255e-05
0.00024821
4.0005e-05
0.000287024
5.18968e-05
0.000331124
6.57333e-05
0.000380437
8.17319e-05
0.000435087
0.000100074
0.000493617
0.000120849
0.000553449
0.000143965
0.000609804
0.000169001
0.000654213
0.000194992
0.000672804
0.000220092
0.000643723
0.000241178
0.000535398
0.000307642
0.000253425
-2.38186e-05
1.78317e-05
2.43352e-05
-2.31899e-05
2.09038e-05
-2.24492e-05
2.45089e-05
-2.15828e-05
2.87425e-05
-2.05614e-05
3.36501e-05
-1.93706e-05
3.94209e-05
-1.7969e-05
4.62382e-05
-1.63267e-05
5.38071e-05
-1.43955e-05
6.30491e-05
-1.21243e-05
7.32026e-05
-9.44931e-06
8.52679e-05
-6.30289e-06
9.91671e-05
-2.59491e-06
0.000115086
1.77854e-06
0.000133269
6.92842e-06
0.000154535
1.2995e-05
0.000179099
2.01391e-05
0.000207291
2.85209e-05
0.000239822
3.83434e-05
0.000277206
4.98157e-05
0.000319656
6.31641e-05
0.000367093
7.85997e-05
0.000419665
9.62958e-05
0.000475938
0.00011634
0.00053343
0.000138641
0.000587528
0.000162798
0.000630088
0.000187876
0.000647758
0.000212096
0.000619533
0.000232444
0.000515058
0.000295756
0.000244282
-2.31744e-05
1.73157e-05
2.36865e-05
-2.25727e-05
2.02979e-05
-2.18646e-05
2.37976e-05
-2.10367e-05
2.79079e-05
-2.00589e-05
3.26702e-05
-1.89147e-05
3.82712e-05
-1.75665e-05
4.48904e-05
-1.5983e-05
5.22205e-05
-1.41204e-05
6.11889e-05
-1.193e-05
7.10103e-05
-9.35045e-06
8.26891e-05
-6.31624e-06
9.61313e-05
-2.74064e-06
0.000111509
1.47486e-06
0.000129049
6.4476e-06
0.000149568
1.23003e-05
0.000173248
1.91864e-05
0.000200405
2.72797e-05
0.000231748
3.67538e-05
0.000267733
4.78212e-05
0.000308584
6.07004e-05
0.000354206
7.55922e-05
0.000404758
9.26652e-05
0.000458841
0.000112003
0.000514061
0.000133519
0.000565971
0.000156827
0.000606734
0.000181024
0.000623505
0.000204392
0.000596109
0.000224028
0.000495382
0.00028429
0.000235478
-2.25991e-05
1.68156e-05
2.30763e-05
-2.20149e-05
1.97116e-05
-2.13269e-05
2.31105e-05
-2.05216e-05
2.71028e-05
-1.95724e-05
3.17262e-05
-1.84658e-05
3.71642e-05
-1.71628e-05
4.35929e-05
-1.56367e-05
5.06926e-05
-1.38414e-05
5.93967e-05
-1.17303e-05
6.88973e-05
-9.24381e-06
8.02028e-05
-6.31765e-06
9.3204e-05
-2.87094e-06
0.000108059
1.20045e-06
0.000124981
5.99065e-06
0.000144771
1.16392e-05
0.000167606
1.82893e-05
0.000193771
2.60879e-05
0.000223938
3.5231e-05
0.000258594
4.59089e-05
0.000297907
5.8336e-05
0.000341787
7.27037e-05
0.000390401
8.91763e-05
0.00044239
0.000107832
0.000495429
0.000128591
0.000545244
0.000151079
0.000584281
0.000174426
0.000600199
0.000196972
0.000573597
0.000215918
0.000476439
0.000273135
0.000226987
-2.19787e-05
1.6336e-05
2.24505e-05
-2.14205e-05
1.91485e-05
-2.07641e-05
2.24493e-05
-1.99955e-05
2.63269e-05
-1.90878e-05
3.08153e-05
-1.80246e-05
3.60953e-05
-1.67716e-05
4.23396e-05
-1.52995e-05
4.92173e-05
-1.35678e-05
5.76665e-05
-1.15309e-05
6.68582e-05
-9.13184e-06
7.78039e-05
-6.30983e-06
9.03794e-05
-2.98272e-06
0.00010473
9.38342e-07
0.000121053
5.56845e-06
0.000140149
1.10168e-05
0.000162159
1.74224e-05
0.000187355
2.49567e-05
0.00021642
3.37743e-05
0.00024977
4.40787e-05
0.000287598
5.60687e-05
0.000329787
6.99317e-05
0.000376523
8.5824e-05
0.000426473
0.000103823
0.000477396
0.00012385
0.000525175
0.000145547
0.000562534
0.000168073
0.000577617
0.000189824
0.000551789
0.000208103
0.000458123
0.000262449
0.000218812
-2.14278e-05
1.58697e-05
2.186e-05
-2.08888e-05
1.86016e-05
-2.02535e-05
2.18082e-05
-1.95066e-05
2.55758e-05
-1.86245e-05
2.99348e-05
-1.75954e-05
3.50632e-05
-1.63831e-05
4.11304e-05
-1.4963e-05
4.7794e-05
-1.32927e-05
5.59975e-05
-1.13282e-05
6.48911e-05
-9.01476e-06
7.54897e-05
-6.29182e-06
8.76549e-05
-3.08429e-06
0.000101519
7.05534e-07
0.000117266
5.16495e-06
0.000135682
1.04207e-05
0.000156905
1.66109e-05
0.000181178
2.38692e-05
0.000209146
3.2381e-05
0.00024126
4.23245e-05
0.000277659
5.38935e-05
0.000318224
6.72701e-05
0.000363162
8.26026e-05
0.00041116
9.99675e-05
0.000460061
0.000119289
0.000505888
0.000140222
0.000541646
0.000161955
0.000555931
0.000182939
0.000530845
0.000200573
0.000440487
0.000251972
0.000210928
-2.08327e-05
1.54247e-05
2.12736e-05
-2.03127e-05
1.80791e-05
-1.97008e-05
2.11947e-05
-1.89872e-05
2.48557e-05
-1.8144e-05
2.90891e-05
-1.71574e-05
3.40702e-05
-1.59937e-05
3.99656e-05
-1.46262e-05
4.64222e-05
-1.30167e-05
5.43883e-05
-1.11227e-05
6.2994e-05
-8.89136e-06
7.32574e-05
-6.26562e-06
8.50261e-05
-3.16937e-06
9.84211e-05
4.81048e-07
0.00011361
4.79095e-06
0.000131379
9.86218e-06
0.000151833
1.58253e-05
0.000175203
2.28385e-05
0.000202146
3.10501e-05
0.000233044
4.0645e-05
0.000268057
5.18094e-05
0.00030705
6.47157e-05
0.000350238
7.95086e-05
0.000396342
9.6261e-05
0.000443274
0.000114901
0.000487203
0.000135097
0.0005214
0.000156065
0.000534902
0.000176308
0.000510546
0.000193317
0.000423449
0.000241996
0.000203338
-2.03041e-05
1.4991e-05
2.07046e-05
-1.98033e-05
1.75703e-05
-1.9213e-05
2.05982e-05
-1.85196e-05
2.41569e-05
-1.77005e-05
2.82698e-05
-1.67449e-05
3.31098e-05
-1.56184e-05
3.88402e-05
-1.42984e-05
4.50975e-05
-1.27451e-05
5.28347e-05
-1.09178e-05
6.11631e-05
-8.76542e-06
7.11034e-05
-6.23154e-06
8.249e-05
-3.24603e-06
9.54319e-05
2.82137e-07
0.000110085
4.43309e-06
0.000127219
9.32763e-06
0.00014694
1.50904e-05
0.000169451
2.18485e-05
0.000195369
2.97763e-05
0.000225118
3.90358e-05
0.000258798
4.98102e-05
0.000296285
6.22633e-05
0.000337799
7.65362e-05
0.000382093
9.26975e-05
0.000427143
0.000110681
0.000469263
0.000130166
0.000501966
0.000150396
0.000514731
0.000169921
0.000491065
0.000186327
0.000407035
0.000232146
0.000196018
-1.97439e-05
1.45749e-05
2.01431e-05
-1.9262e-05
1.70816e-05
-1.8696e-05
2.00244e-05
-1.80325e-05
2.34836e-05
-1.72487e-05
2.74796e-05
-1.63299e-05
3.21827e-05
-1.52464e-05
3.77535e-05
-1.39731e-05
4.38188e-05
-1.24747e-05
5.13354e-05
-1.07118e-05
5.93964e-05
-8.63505e-06
6.90249e-05
-6.19107e-06
8.00425e-05
-3.30873e-06
9.25472e-05
8.92976e-08
0.00010668
4.10352e-06
0.000123212
8.82594e-06
0.000142216
1.43779e-05
0.000163885
2.09115e-05
0.000188851
2.85589e-05
0.000217463
3.74969e-05
0.000249855
4.78942e-05
0.000285876
5.9911e-05
0.000325764
7.36811e-05
0.000368296
8.92723e-05
0.000411514
0.000106621
0.000451869
0.00012542
0.000483111
0.000144937
0.000495151
0.000163771
0.000472172
0.000179593
0.000391189
0.000222848
0.000188974
-1.92301e-05
1.41739e-05
1.96196e-05
-1.87585e-05
1.66112e-05
-1.82081e-05
1.94729e-05
-1.75629e-05
2.28371e-05
-1.68033e-05
2.6721e-05
-1.59165e-05
3.12925e-05
-1.48717e-05
3.67092e-05
-1.36459e-05
4.25884e-05
-1.2203e-05
4.98912e-05
-1.05039e-05
5.76935e-05
-8.50197e-06
6.70205e-05
-6.14397e-06
7.76818e-05
-3.36494e-06
8.9764e-05
-7.975e-08
0.000103397
3.78664e-06
0.000119338
8.34467e-06
0.000137658
1.37137e-05
0.000158527
2.00092e-05
0.000182536
2.73947e-05
0.000210077
3.60223e-05
0.000241231
4.60566e-05
0.000275848
5.76531e-05
0.000314185
7.09384e-05
0.000355034
8.59801e-05
0.000396509
0.000102717
0.000435177
0.000120854
0.000465037
0.000139684
0.000476388
0.00015785
0.000454059
0.000173105
0.000375921
0.00021358
0.00018218
-1.87085e-05
1.3786e-05
1.90797e-05
-1.82585e-05
1.61557e-05
-1.77319e-05
1.89381e-05
-1.71134e-05
2.22097e-05
-1.63841e-05
2.5985e-05
-1.55286e-05
3.04292e-05
-1.45207e-05
3.56975e-05
-1.33358e-05
4.13982e-05
-1.19419e-05
4.84955e-05
-1.03014e-05
5.60489e-05
-8.3688e-06
6.50855e-05
-6.09355e-06
7.54028e-05
-3.40995e-06
8.70775e-05
-2.44967e-07
0.000100225
3.49421e-06
0.000115605
7.89394e-06
0.000133256
1.30682e-05
0.00015334
1.91557e-05
0.000176462
2.62833e-05
0.000202945
3.46111e-05
0.000232895
4.42969e-05
0.000266151
5.54871e-05
0.000302976
6.83051e-05
0.000342187
8.28159e-05
0.000381959
9.89629e-05
0.000418981
0.000116462
0.000447481
0.000134628
0.000458152
0.000152149
0.000436479
0.000166856
0.000361196
0.000204898
0.000175643
-1.82249e-05
1.3412e-05
1.85834e-05
-1.77861e-05
1.5717e-05
-1.72747e-05
1.84237e-05
-1.66742e-05
2.16066e-05
-1.59676e-05
2.52775e-05
-1.51417e-05
2.9599e-05
-1.41688e-05
3.47237e-05
-1.3027e-05
4.02513e-05
-1.1683e-05
4.71495e-05
-1.01003e-05
5.44621e-05
-8.23562e-06
6.32179e-05
-6.03917e-06
7.32031e-05
-3.45004e-06
8.4484e-05
-3.89556e-07
9.71662e-05
3.21234e-06
0.000111993
7.46221e-06
0.000129008
1.24662e-05
0.000148345
1.83342e-05
0.000170573
2.52195e-05
0.000196061
3.32594e-05
0.000224857
4.26095e-05
0.000256812
5.34083e-05
0.000292193
6.57761e-05
0.000329848
7.97749e-05
0.000367996