/*--------------------------------*- C++ -*----------------------------------*\
  =========                 |
  \\      /  F ield         | OpenFOAM: The Open Source CFD Toolbox
   \\    /   O peration     | Website:  https://openfoam.org
    \\  /    A nd           | Version:  6.0
     \\/     M anipulation  |
\*---------------------------------------------------------------------------*/
FoamFile
{
    version     2.0;
    format      ascii;
    class       volVectorField;
    location    "18";
    object      U;
}
// * * * * * * * * * * * * * * * * * * * * * * * * * * * * * * * * * * * * * //

dimensions      [0 1 -1 0 0 0 0];

internalField   nonuniform List<vector> 
15500
(
(0.996146 0.0874421 -1.52162e-20)
(0.996148 0.0874386 1.76085e-21)
(0.996149 0.0874362 3.60664e-20)
(0.996151 0.0874329 9.39745e-20)
(0.996153 0.0874286 -1.76396e-19)
(0.996155 0.0874237 -3.3232e-20)
(0.996157 0.0874175 2.50444e-19)
(0.996159 0.0874105 1.88576e-20)
(0.996161 0.0874017 7.96243e-21)
(0.996162 0.0873916 -1.98399e-19)
(0.996164 0.0873789 5.32747e-19)
(0.996164 0.0873632 -3.9203e-19)
(0.996164 0.0873428 -2.99147e-20)
(0.996162 0.0873162 -3.73167e-19)
(0.996158 0.0872844 2.33535e-19)
(0.99615 0.0872472 -3.58283e-19)
(0.996137 0.087204 8.48353e-19)
(0.996114 0.0871534 -1.11797e-18)
(0.99608 0.0870942 4.61353e-19)
(0.996028 0.0870243 -1.54386e-18)
(0.995952 0.0869401 1.75705e-18)
(0.995843 0.0868351 4.66529e-19)
(0.99569 0.0866949 -2.78662e-19)
(0.995484 0.08649 -3.6439e-18)
(0.99522 0.0861625 6.44755e-18)
(0.994909 0.0856254 3.04308e-18)
(0.994595 0.0847287 -2.83234e-18)
(0.994372 0.0833338 -3.25755e-18)
(0.994495 0.0808127 -5.0912e-18)
(0.986743 0.0737201 6.64201e-18)
(0.996038 0.0880364 -1.81435e-20)
(0.996036 0.0880304 5.99771e-20)
(0.996035 0.0880277 -1.76749e-20)
(0.996036 0.0880213 6.39287e-20)
(0.996038 0.0880137 -2.12524e-19)
(0.99604 0.0880027 -1.6135e-19)
(0.996042 0.0879893 4.42902e-20)
(0.996044 0.0879726 -2.32546e-19)
(0.996045 0.0879527 4.22043e-19)
(0.996046 0.0879288 -1.45992e-19)
(0.996046 0.0879008 1.32669e-19)
(0.996044 0.087866 2.54028e-19)
(0.996041 0.0878237 -1.15557e-19)
(0.996034 0.0877723 6.64277e-20)
(0.996024 0.0877115 -8.58444e-20)
(0.996007 0.0876425 -2.51639e-19)
(0.995982 0.087565 6.21358e-19)
(0.995939 0.0874794 -8.95254e-20)
(0.995877 0.0873832 1.14018e-18)
(0.995784 0.0872704 2.1019e-18)
(0.99565 0.0871322 -1.7145e-18)
(0.995458 0.0869512 9.68061e-19)
(0.995189 0.0866931 -1.5472e-18)
(0.994824 0.0862927 -4.74559e-19)
(0.99436 0.0856311 -4.52081e-18)
(0.993828 0.0845623 -2.25008e-19)
(0.993341 0.0828364 2.69769e-19)
(0.992996 0.0803882 1.28606e-18)
(0.99355 0.0764395 1.22615e-17)
(0.984975 0.0675698 1.01536e-19)
(0.995939 0.0886822 4.96292e-20)
(0.995927 0.0886706 -4.76132e-20)
(0.995918 0.0886665 -2.9173e-20)
(0.995911 0.0886598 -8.90518e-20)
(0.995905 0.0886525 1.77709e-19)
(0.995901 0.0886411 -2.5314e-19)
(0.995897 0.0886269 1.56134e-19)
(0.995894 0.0886072 1.19113e-19)
(0.995891 0.0885831 -6.90069e-20)
(0.995887 0.0885521 -2.30442e-19)
(0.995881 0.0885156 8.77729e-20)
(0.995874 0.088469 3.21787e-19)
(0.995865 0.0884138 -1.61476e-19)
(0.995854 0.0883488 1.76388e-19)
(0.995839 0.0882723 -3.80631e-19)
(0.995818 0.0881849 5.55677e-19)
(0.995788 0.0880872 -9.08915e-19)
(0.995745 0.0879796 7.24929e-19)
(0.995685 0.0878596 -1.3927e-18)
(0.995601 0.08772 1.00203e-18)
(0.995487 0.0875507 9.75587e-19)
(0.995329 0.0873335 -1.13778e-18)
(0.995114 0.0870338 2.64967e-18)
(0.99483 0.086589 -3.13429e-19)
(0.994481 0.0858817 -3.05961e-18)
(0.994098 0.0847932 -3.97082e-18)
(0.993818 0.0830994 -6.38769e-18)
(0.99358 0.0808917 2.33584e-18)
(0.994552 0.0778811 -8.042e-18)
(0.988702 0.0733098 -8.27202e-18)
(0.99584 0.0893345 -1.79518e-20)
(0.995819 0.089321 7.66774e-20)
(0.995799 0.0893129 -3.43905e-20)
(0.995781 0.0893031 -2.6579e-20)
(0.995766 0.0892934 -6.53781e-20)
(0.995752 0.0892801 -2.13295e-19)
(0.995739 0.0892651 1.62548e-19)
(0.995727 0.0892444 1.43028e-19)
(0.995716 0.0892195 -7.18623e-20)
(0.995704 0.089186 1.08846e-19)
(0.995691 0.0891456 -5.23843e-20)
(0.995676 0.089092 3.76498e-20)
(0.995661 0.0890285 -3.48396e-20)
(0.995644 0.088954 1.74781e-21)
(0.995624 0.0888654 -5.07123e-19)
(0.995597 0.0887617 1.04927e-18)
(0.995561 0.0886436 -9.438e-19)
(0.995514 0.0885102 3.27305e-19)
(0.995453 0.0883582 1.42458e-18)
(0.995377 0.0881796 -1.33873e-18)
(0.995281 0.0879625 -5.48908e-19)
(0.995156 0.0876883 1.63524e-18)
(0.995 0.087324 -1.11919e-18)
(0.994804 0.0868153 -9.37897e-19)
(0.994577 0.0860495 9.05764e-18)
(0.994337 0.0849303 3.66587e-18)
(0.994243 0.0832514 3.82828e-18)
(0.994073 0.0811566 -2.4428e-18)
(0.995236 0.0787056 2.97145e-18)
(0.991118 0.0754696 3.15328e-18)
(0.995737 0.0899774 -1.28902e-20)
(0.995709 0.0899582 -4.91883e-20)
(0.995681 0.089947 4.52932e-20)
(0.995654 0.0899343 2.11045e-19)
(0.995627 0.089922 -2.2893e-19)
(0.995602 0.0899066 -2.86841e-20)
(0.995578 0.0898901 1.33828e-19)
(0.995555 0.0898682 -3.23587e-19)
(0.995532 0.0898423 -2.37287e-19)
(0.995509 0.089807 6.68719e-19)
(0.995486 0.0897638 -3.76327e-19)
(0.99546 0.089705 4.94727e-19)
(0.995437 0.0896343 -2.8047e-19)
(0.995414 0.08955 3.33224e-19)
(0.995386 0.0894482 -6.60579e-20)
(0.99535 0.0893266 -6.30898e-20)
(0.995304 0.0891844 1.9602e-19)
(0.995247 0.0890192 -5.01399e-19)
(0.995178 0.0888267 -1.36625e-18)
(0.995095 0.0885974 5.16622e-19)
(0.994997 0.088317 -8.67431e-19)
(0.994882 0.0879653 -6.71595e-19)
(0.994752 0.0875092 -1.33345e-19)
(0.994604 0.0869016 7.40299e-18)
(0.99445 0.0860295 -2.75319e-18)
(0.994295 0.0848081 -6.66258e-18)
(0.994327 0.083036 -3.74587e-18)
(0.994203 0.0808563 1.24551e-18)
(0.995371 0.0784504 -1.35935e-17)
(0.992704 0.0753743 -2.19305e-18)
(0.995607 0.0906329 2.69444e-20)
(0.995578 0.0906179 3.264e-21)
(0.995547 0.0906054 -7.00786e-20)
(0.995514 0.0905882 -2.61035e-20)
(0.99548 0.0905695 -8.5427e-21)
(0.995445 0.0905467 4.3909e-19)
(0.99541 0.0905227 -2.23449e-19)
(0.995375 0.0904937 -1.26223e-20)
(0.99534 0.0904614 -8.51389e-21)
(0.995305 0.0904201 -3.72949e-20)
(0.995268 0.0903712 -2.0904e-19)
(0.995231 0.0903052 1.68226e-19)
(0.995196 0.0902254 7.86852e-19)
(0.995163 0.0901291 6.19991e-20)
(0.995126 0.0900119 -1.49731e-19)
(0.995079 0.0898698 -5.47365e-19)
(0.995022 0.0897011 6.22786e-19)
(0.994953 0.0895017 -3.53351e-19)
(0.994871 0.0892652 7.74532e-19)
(0.994778 0.0889807 -1.11331e-19)
(0.994675 0.0886317 1.50896e-18)
(0.994568 0.0881972 -2.83745e-19)
(0.994463 0.0876456 -1.52053e-18)
(0.994366 0.0869406 -7.74141e-18)
(0.994295 0.0859787 -3.11062e-18)
(0.994248 0.0846942 6.43272e-18)
(0.994436 0.0829098 8.88528e-19)
(0.994418 0.0807778 5.64811e-18)
(0.995519 0.0785328 1.67015e-17)
(0.99421 0.0761399 5.5208e-18)
(0.995429 0.0912911 -1.94537e-21)
(0.995402 0.0912738 -4.09136e-20)
(0.995372 0.0912628 -1.36785e-20)
(0.995338 0.091245 3.80729e-20)
(0.995301 0.0912238 -7.45575e-20)
(0.995261 0.0911964 -7.34184e-20)
(0.99522 0.0911658 1.29869e-19)
(0.995176 0.0911286 2.78425e-19)
(0.99513 0.0910873 -2.62962e-19)
(0.995083 0.0910362 3.16339e-19)
(0.995034 0.0909774 -6.4145e-19)
(0.994983 0.0909003 1.65509e-19)
(0.994936 0.0908083 -2.96752e-19)
(0.994891 0.0906969 5.314e-19)
(0.994841 0.0905614 -1.64146e-19)
(0.994781 0.0903962 -1.0508e-19)
(0.99471 0.0901991 3.5447e-19)
(0.994626 0.0899632 -7.16144e-19)
(0.994531 0.0896801 6.22034e-19)
(0.994423 0.0893367 1.92543e-19)
(0.994313 0.088914 -1.37589e-18)
(0.994208 0.0883891 -5.59386e-19)
(0.994125 0.0877334 1.44147e-18)
(0.994077 0.0869219 2.1053e-18)
(0.994096 0.0858701 2.20786e-18)
(0.994175 0.0845392 -4.99877e-19)
(0.994547 0.0827965 3.64654e-18)
(0.994694 0.0808126 -4.79859e-18)
(0.995727 0.0788905 -1.07484e-17)
(0.99524 0.0770737 -1.26211e-18)
(0.995191 0.0919559 -1.02684e-20)
(0.995167 0.091944 3.64297e-20)
(0.995138 0.0919348 4.61838e-20)
(0.995107 0.0919162 -4.34821e-20)
(0.995071 0.0918918 -1.15978e-19)
(0.995031 0.0918589 3.41202e-22)
(0.994987 0.0918206 3.23114e-19)
(0.99494 0.0917738 -4.68003e-19)
(0.994888 0.0917217 2.91247e-19)
(0.994833 0.0916584 4.34774e-19)
(0.994774 0.0915868 -6.44973e-19)
(0.994711 0.0914957 -9.79903e-20)
(0.99465 0.0913889 -1.06737e-19)
(0.994593 0.0912601 1.36274e-19)
(0.994529 0.091104 -5.99084e-19)
(0.994452 0.0909141 6.23846e-19)
(0.994362 0.0906868 1.34926e-19)
(0.994259 0.090412 -5.3235e-19)
(0.994141 0.0900793 9.14312e-20)
(0.994011 0.0896724 2.12503e-19)
(0.993879 0.0891679 9.65697e-19)
(0.993757 0.0885394 -1.0521e-18)
(0.993669 0.0877569 1.43604e-18)
(0.993636 0.0868028 3.82038e-18)
(0.993707 0.085609 -8.93914e-19)
(0.993877 0.0841624 -7.02269e-18)
(0.994408 0.0823788 -3.51053e-18)
(0.994744 0.0804458 1.90147e-18)
(0.995765 0.0787605 1.01893e-18)
(0.995533 0.0770259 2.91849e-18)
(0.994908 0.0926091 2.04809e-20)
(0.994882 0.0925895 -1.27069e-20)
(0.994854 0.0925795 5.48444e-20)
(0.994823 0.0925618 9.36941e-21)
(0.994789 0.0925385 1.01287e-19)
(0.99475 0.0925058 -2.62119e-19)
(0.994707 0.0924659 2.03343e-19)
(0.994659 0.0924147 6.65523e-20)
(0.994605 0.0923552 -2.65345e-19)
(0.994545 0.0922819 3.13689e-20)
(0.99448 0.0921979 5.50397e-19)
(0.994408 0.0920925 -4.98046e-19)
(0.994335 0.0919702 3.58409e-19)
(0.994264 0.0918235 -2.13047e-19)
(0.994183 0.0916464 -6.17799e-20)
(0.994088 0.0914316 3.45778e-19)
(0.993975 0.0911731 5.64492e-19)
(0.993847 0.0908583 6.86943e-19)
(0.993701 0.0904746 -4.42373e-19)
(0.99354 0.0900025 -1.03018e-18)
(0.993372 0.0894128 -1.30265e-18)
(0.993214 0.0886734 -1.16841e-18)
(0.99309 0.0877471 -6.67644e-19)
(0.993032 0.0866183 2.14974e-18)
(0.993101 0.0852256 1.10324e-18)
(0.993308 0.0835736 1.48504e-18)
(0.993948 0.0816222 1.70359e-18)
(0.994478 0.0795781 -3.37749e-18)
(0.995572 0.0779518 3.12721e-18)
(0.995471 0.0762413 -1.34708e-18)
(0.994608 0.093261 -3.65487e-20)
(0.994574 0.0932401 7.73457e-20)
(0.99454 0.093226 -2.88162e-20)
(0.994505 0.0932049 -9.96392e-21)
(0.994469 0.0931787 7.73776e-20)
(0.99443 0.0931434 -2.01338e-19)
(0.994386 0.0931008 2.10837e-19)
(0.994337 0.0930457 1.78337e-19)
(0.994282 0.0929809 -2.62136e-19)
(0.994219 0.0929 1.07148e-19)
(0.994149 0.0928064 3.78072e-19)
(0.99407 0.0926889 -6.44337e-19)
(0.993985 0.0925525 -1.42585e-19)
(0.9939 0.0923893 1.48966e-19)
(0.993803 0.0921926 8.94536e-20)
(0.993687 0.0919538 6.0142e-20)
(0.993551 0.0916646 -3.70408e-19)
(0.993397 0.0913108 -7.33046e-19)
(0.993222 0.0908781 6.49233e-19)
(0.993028 0.0903437 1.20537e-19)
(0.992823 0.089674 2.58179e-18)
(0.992623 0.0888298 -5.39837e-19)
(0.992456 0.0877653 -6.7951e-19)
(0.992356 0.0864609 -4.89844e-18)
(0.992398 0.0848564 -4.9256e-19)
(0.992611 0.082963 6.59343e-19)
(0.993324 0.080782 -3.10408e-18)
(0.994046 0.0785436 5.78291e-18)
(0.995292 0.0768806 6.56508e-18)
(0.995544 0.0755297 -3.39625e-18)
(0.994308 0.0939119 -2.54397e-20)
(0.994262 0.0938771 1.68582e-20)
(0.994218 0.093854 1.17278e-19)
(0.994175 0.0938274 -1.59194e-19)
(0.994132 0.0937982 2.04804e-19)
(0.994087 0.0937619 -3.89715e-20)
(0.994039 0.0937191 -9.86996e-20)
(0.993987 0.0936635 -3.07575e-19)
(0.993928 0.0935968 1.67969e-19)
(0.993861 0.0935118 1.34305e-19)
(0.993785 0.0934118 -2.28293e-21)
(0.993698 0.0932849 9.04137e-20)
(0.993603 0.0931368 -5.62503e-19)
(0.993503 0.0929592 3.05254e-19)
(0.993389 0.0927446 1.50428e-19)
(0.993254 0.0924825 -3.17248e-20)
(0.993096 0.0921644 6.508e-19)
(0.992919 0.0917734 -5.12104e-20)
(0.992721 0.0912948 -7.63055e-19)
(0.992501 0.0907053 -5.39279e-19)
(0.99227 0.0899675 -3.68176e-19)
(0.992041 0.0890366 5.13209e-19)
(0.991846 0.0878608 -6.59463e-20)
(0.991719 0.0864136 -1.11295e-18)
(0.991746 0.0846359 -4.6954e-18)
(0.991968 0.0825359 -8.32079e-19)
(0.992746 0.0801537 8.05421e-18)
(0.993653 0.0777461 -5.26814e-18)
(0.995089 0.076061 3.63347e-18)
(0.996009 0.0754233 -3.09312e-18)
(0.994018 0.0945679 1.57957e-20)
(0.993959 0.0945301 -4.02586e-20)
(0.993903 0.0944988 -2.00682e-20)
(0.993847 0.0944635 1.78238e-19)
(0.993793 0.0944268 -6.16441e-20)
(0.993738 0.0943842 -2.58922e-19)
(0.993681 0.0943371 1.82772e-19)
(0.993621 0.0942782 -3.92819e-19)
(0.993554 0.0942093 8.26975e-20)
(0.99348 0.0941213 9.63074e-20)
(0.993395 0.094017 1.30146e-19)
(0.993298 0.0938831 -4.849e-19)
(0.993191 0.0937253 9.5694e-19)
(0.993077 0.0935347 -2.65669e-19)
(0.992945 0.0933029 -1.09901e-18)
(0.992792 0.0930188 7.56748e-19)
(0.992615 0.0926723 -1.69269e-19)
(0.99242 0.0922455 -6.12539e-19)
(0.992205 0.0917247 -4.45631e-19)
(0.991973 0.0910863 2.43031e-19)
(0.991732 0.0902929 -1.83353e-19)
(0.991497 0.0892972 -1.30861e-19)
(0.991302 0.0880436 3.33196e-18)
(0.991179 0.0865024 3.07858e-18)
(0.991223 0.0846149 -5.02369e-20)
(0.99148 0.0823836 -2.14993e-18)
(0.992329 0.0798783 -2.06585e-18)
(0.993408 0.0773837 1.81555e-18)
(0.995032 0.0757323 -2.47209e-18)
(0.99679 0.0759115 2.6403e-18)
(0.993732 0.095238 -1.44217e-20)
(0.993663 0.0951858 -9.69258e-21)
(0.993595 0.0951455 2.28862e-20)
(0.993528 0.0951024 -5.5826e-20)
(0.99346 0.0950598 2.90445e-20)
(0.993392 0.0950128 1.05788e-19)
(0.993321 0.0949627 7.68094e-20)
(0.993248 0.0949015 -1.26823e-19)
(0.99317 0.0948303 2.82171e-19)
(0.993083 0.0947394 -3.91653e-19)
(0.992987 0.0946306 3.55484e-19)
(0.992876 0.0944903 -5.28021e-19)
(0.992754 0.0943229 3.85244e-19)
(0.992624 0.0941194 -6.02752e-19)
(0.992475 0.0938702 7.84576e-19)
(0.992303 0.0935636 2.9995e-19)
(0.99211 0.0931884 -1.28282e-18)
(0.991901 0.0927255 1.28498e-18)
(0.991676 0.0921631 -3.97926e-19)
(0.991442 0.0914803 -1.3539e-18)
(0.991204 0.0906399 1.98239e-19)
(0.990983 0.0895966 7.13534e-19)
(0.990812 0.0882933 -1.1455e-18)
(0.990727 0.0867019 -2.25967e-18)
(0.990817 0.0847643 4.12136e-18)
(0.99114 0.0824775 4.02678e-18)
(0.99207 0.0799283 -2.80497e-18)
(0.993305 0.077427 3.12204e-18)
(0.995088 0.0758505 -1.40803e-18)
(0.997709 0.0767451 1.40079e-18)
(0.993432 0.0959375 -9.62925e-21)
(0.99336 0.0958866 9.62392e-21)
(0.993285 0.0958411 -2.68944e-21)
(0.993207 0.0957894 1.54926e-20)
(0.993127 0.095737 -1.02331e-19)
(0.993045 0.0956798 6.66215e-20)
(0.99296 0.0956207 -1.75328e-19)
(0.992872 0.0955517 3.27129e-19)
(0.992777 0.0954742 -2.75795e-19)
(0.992675 0.0953774 7.18844e-20)
(0.992562 0.0952627 3.67051e-19)
(0.992434 0.0951148 3.67027e-20)
(0.992294 0.0949367 -4.03946e-20)
(0.992146 0.0947187 -4.30322e-19)
(0.991978 0.0944506 1.506e-19)
(0.991788 0.0941197 -4.73583e-19)
(0.991579 0.093713 9.56672e-19)
(0.991357 0.0932124 4.33908e-19)
(0.991127 0.0926077 -2.54441e-19)
(0.990894 0.0918801 9.8541e-19)
(0.990668 0.0909958 1.58292e-18)
(0.990471 0.0899117 -1.78994e-18)
(0.990339 0.0885739 -3.7748e-18)
(0.990308 0.086957 6.07765e-19)
(0.990465 0.0850069 -1.18935e-18)
(0.990871 0.0827123 -9.22204e-19)
(0.991891 0.0801688 3.37603e-18)
(0.993266 0.0777022 -1.7341e-18)
(0.99518 0.0762006 -5.59358e-19)
(0.99855 0.0775717 4.58371e-19)
(0.993095 0.0966809 1.14492e-20)
(0.993029 0.0966177 2.41922e-20)
(0.992953 0.0965664 -1.03156e-21)
(0.99287 0.0965081 2.36942e-20)
(0.992781 0.0964491 -1.64166e-19)
(0.992687 0.0963847 1.28309e-19)
(0.992588 0.096318 2.22533e-19)
(0.992484 0.0962411 -2.57608e-19)
(0.992372 0.0961552 -4.02016e-20)
(0.992251 0.0960499 -1.28898e-19)
(0.992119 0.0959259 5.09757e-19)
(0.991971 0.0957672 -1.79864e-19)
(0.991811 0.0955755 -2.21266e-19)
(0.991641 0.09534 -8.57485e-20)
(0.991454 0.0950499 3.86755e-19)
(0.991244 0.0946907 1.41459e-19)
(0.991018 0.0942501 -2.78632e-19)
(0.990783 0.0937084 -1.66088e-20)
(0.990546 0.0930574 -3.80612e-19)
(0.990313 0.0922822 -6.42327e-19)
(0.990098 0.0913512 -1.33348e-18)
(0.989925 0.0902245 2.18313e-18)
(0.989833 0.0888533 1.86853e-18)
(0.989857 0.0872151 2.14818e-20)
(0.990085 0.0852628 2.31149e-18)
(0.99058 0.082974 -1.00689e-18)
(0.991693 0.0804485 -1.90012e-18)
(0.9932 0.078017 -1.30381e-18)
(0.995231 0.0765597 -4.47958e-18)
(0.999209 0.0781779 -8.14636e-19)
(0.992697 0.0974863 -4.20413e-21)
(0.992645 0.097427 1.24864e-20)
(0.992576 0.0973721 2.02137e-22)
(0.992495 0.0973045 -1.2981e-19)
(0.992403 0.0972338 -9.00983e-22)
(0.992302 0.0971558 1.42015e-19)
(0.992192 0.0970751 -1.77702e-19)
(0.992073 0.0969844 2.67821e-19)
(0.991944 0.0968854 1.12028e-19)
(0.991805 0.0967671 5.64585e-21)
(0.991651 0.0966299 -4.29365e-19)
(0.991482 0.0964566 2.23188e-19)
(0.991298 0.0962471 5.948e-19)
(0.991106 0.0959904 -4.71778e-19)
(0.990896 0.095674 3.27244e-19)
(0.990666 0.095283 -3.33577e-19)
(0.99042 0.0948042 2.35421e-19)
(0.990169 0.0942173 -2.18333e-19)
(0.989921 0.0935163 9.07837e-19)
(0.989684 0.0926873 3.60689e-19)
(0.989474 0.0917023 1.49966e-18)
(0.989315 0.0905242 -1.02937e-18)
(0.989254 0.0891086 -2.69088e-18)
(0.989324 0.0874372 7.38652e-19)
(0.989615 0.0854685 -3.6889e-18)
(0.990196 0.083171 3.78865e-18)
(0.991403 0.0806426 -2.189e-18)
(0.99304 0.0782174 4.29536e-18)
(0.995197 0.0767516 1.31581e-18)
(0.999631 0.0784187 1.46493e-19)
(0.99222 0.0983595 8.62691e-21)
(0.99219 0.0982835 5.1227e-21)
(0.992135 0.0982227 -6.47083e-20)
(0.992063 0.0981483 1.74317e-20)
(0.991973 0.0980701 1.36408e-20)
(0.99187 0.097983 6.1855e-21)
(0.991753 0.0978913 -3.21976e-20)
(0.991623 0.0977875 2.94731e-19)
(0.991479 0.0976735 -4.38128e-19)
(0.991322 0.0975388 3.66029e-19)
(0.991148 0.0973834 -3.29667e-20)
(0.990957 0.0971908 -2.32129e-19)
(0.990749 0.0969587 2.82966e-19)
(0.990533 0.0966761 -4.59469e-19)
(0.9903 0.096329 1.55973e-19)
(0.990046 0.0959021 -3.14591e-19)
(0.989777 0.0953815 7.329e-19)
(0.989507 0.0947449 6.55116e-19)
(0.989243 0.0939875 9.34856e-19)
(0.988995 0.0930986 -4.38736e-19)
(0.988779 0.0920505 -1.62712e-18)
(0.988626 0.090809 -3.50805e-19)
(0.98858 0.0893319 9.89423e-19)
(0.988682 0.0876059 2.12929e-18)
(0.989021 0.0855925 1.57087e-18)
(0.989679 0.0832544 -7.56216e-18)
(0.99098 0.0806841 1.46884e-18)
(0.992756 0.0782241 -4.71025e-18)
(0.995059 0.0766985 1.94961e-18)
(0.999858 0.078307 -2.29361e-20)
(0.991648 0.0993232 3.34511e-21)
(0.991645 0.0992487 -3.61045e-20)
(0.99161 0.0991808 -2.32056e-20)
(0.991551 0.0990933 6.408e-20)
(0.991471 0.0989991 -1.18059e-19)
(0.991371 0.0988936 7.67089e-20)
(0.991252 0.0987823 -1.49295e-19)
(0.991115 0.0986582 -6.75394e-20)
(0.990961 0.0985233 3.5155e-20)
(0.990789 0.0983671 1.32259e-19)
(0.990597 0.0981895 -2.74766e-21)
(0.990385 0.0979733 1.44523e-19)
(0.990154 0.0977135 1.0862e-19)
(0.989914 0.0974008 5.31839e-19)
(0.989655 0.0970195 -9.47694e-20)
(0.989376 0.0965529 2.0083e-19)
(0.989084 0.0959855 -1.09942e-18)
(0.98879 0.0952949 -4.02341e-19)
(0.988505 0.094477 -1.18299e-18)
(0.988239 0.0935207 4.98825e-19)
(0.988009 0.0924001 1.29493e-18)
(0.987848 0.0910812 2.81842e-19)
(0.987804 0.0895235 5.43022e-19)
(0.987923 0.0877167 3.0935e-19)
(0.988295 0.0856255 2.27003e-18)
(0.989021 0.0832068 3.81965e-18)
(0.990421 0.0805503 -2.52763e-18)
(0.992348 0.0780106 -4.36104e-19)
(0.994833 0.0763834 9.99516e-20)
(0.999938 0.0778685 -3.91525e-20)
(0.990977 0.10036 3.39876e-21)
(0.991002 0.100264 -4.32352e-20)
(0.990989 0.100186 7.62271e-20)
(0.990949 0.100088 -1.12798e-19)
(0.990882 0.0999825 1.48566e-19)
(0.99079 0.0998633 1.29371e-19)
(0.990674 0.0997358 -1.47826e-19)
(0.990536 0.0995922 7.41323e-20)
(0.990375 0.0994348 -3.07785e-19)
(0.990192 0.099254 8.58418e-20)
(0.989985 0.0990496 -6.44108e-20)
(0.989755 0.0988053 -4.73404e-19)
(0.989502 0.0985131 1.05704e-19)
(0.989239 0.0981663 6.1431e-19)
(0.988955 0.0977472 -1.56265e-19)
(0.98865 0.0972364 1.19608e-19)
(0.988332 0.0966194 -4.0567e-19)
(0.988013 0.0958707 7.61351e-19)
(0.987704 0.0949863 -3.17939e-19)
(0.987414 0.0939569 -1.71159e-18)
(0.987163 0.0927553 -2.26307e-19)
(0.986984 0.0913461 3.55321e-19)
(0.986932 0.0896904 -4.9351e-19)
(0.987053 0.0877778 -2.49499e-18)
(0.987449 0.0855772 -3.36563e-18)
(0.988238 0.0830389 -1.37393e-18)
(0.989743 0.0802561 1.88004e-18)
(0.991836 0.0775989 2.18929e-18)
(0.994539 0.0758463 -1.44118e-18)
(0.999954 0.0772122 1.69707e-19)
(0.990203 0.101483 1.69773e-20)
(0.990256 0.101386 -4.4644e-21)
(0.990267 0.101296 6.65177e-20)
(0.990247 0.101179 -1.67414e-20)
(0.990197 0.101052 -9.0958e-20)
(0.990116 0.100909 7.34814e-20)
(0.990008 0.100756 9.80418e-20)
(0.989872 0.100587 -1.84876e-19)
(0.989709 0.100402 3.83864e-19)
(0.989519 0.100194 1.55598e-19)
(0.989302 0.0999595 -2.63554e-19)
(0.989058 0.0996836 -4.13198e-20)
(0.988786 0.0993554 -5.98303e-20)
(0.9885 0.0989712 -1.24492e-19)
(0.988193 0.0985105 5.18253e-19)
(0.987863 0.0979532 -8.48671e-20)
(0.987518 0.0972826 1.77601e-19)
(0.987172 0.0964719 -8.82788e-19)
(0.986835 0.0955177 1.4443e-18)
(0.986518 0.0944088 2.98565e-19)
(0.986242 0.0931183 -1.15617e-18)
(0.986041 0.0916079 -1.65316e-18)
(0.985973 0.0898385 1.16229e-18)
(0.986091 0.0877992 -4.10775e-18)
(0.986505 0.0854611 4.82485e-18)
(0.987356 0.0827711 2.12862e-18)
(0.988974 0.0798277 2.23081e-18)
(0.99125 0.0770257 -4.94126e-19)
(0.994211 0.0751334 1.19553e-18)
(0.999927 0.0763964 5.30976e-19)
(0.989337 0.102651 -4.63399e-21)
(0.989414 0.102527 -5.39838e-20)
(0.989447 0.102423 2.24908e-20)
(0.989448 0.102294 1.39449e-19)
(0.989414 0.102153 -1.7975e-19)
(0.989348 0.101994 7.9601e-21)
(0.989248 0.101823 -6.59741e-22)
(0.989119 0.101631 3.84101e-20)
(0.988957 0.10142 -3.36293e-20)
(0.988764 0.101182 -4.59597e-20)
(0.98854 0.100915 1.24801e-19)
(0.988285 0.100604 3.62017e-19)
(0.987999 0.100237 -3.38287e-19)
(0.987692 0.0998113 4.65774e-20)
(0.987361 0.0993062 -2.86753e-19)
(0.987007 0.0986996 -1.15324e-19)
(0.986635 0.0979732 -5.29984e-21)
(0.986263 0.0970972 8.81675e-19)
(0.985898 0.0960674 -1.00575e-18)
(0.985554 0.0948748 2.55312e-18)
(0.985251 0.0934886 1.80909e-18)
(0.985025 0.0918689 -6.59288e-19)
(0.984939 0.0899734 -6.97605e-19)
(0.985053 0.0877919 6.09415e-18)
(0.985483 0.0852945 -4.10592e-18)
(0.986401 0.082429 -1.87117e-18)
(0.988145 0.0793001 -1.24485e-18)
(0.99062 0.0763386 4.19104e-19)
(0.99387 0.0743051 -8.38007e-19)
(0.999915 0.0755174 -1.1212e-18)
(0.988383 0.103887 -5.94708e-21)
(0.98848 0.103761 -4.92959e-20)
(0.988533 0.103642 -9.04646e-22)
(0.988552 0.103491 7.77637e-20)
(0.988535 0.103324 -4.5359e-20)
(0.988482 0.103138 1.70722e-19)
(0.988394 0.102939 -2.62472e-19)
(0.988272 0.102718 8.62608e-20)
(0.988115 0.102476 2.29552e-19)
(0.987922 0.102206 -4.95467e-19)
(0.987695 0.101905 2.05278e-20)
(0.987432 0.101557 -9.97553e-20)
(0.987134 0.101149 1.84725e-19)
(0.986809 0.10068 -2.23652e-20)
(0.986457 0.100129 2.56159e-19)
(0.986079 0.0994714 -8.40575e-19)
(0.985683 0.0986852 1.13564e-19)
(0.985284 0.0977405 -5.12062e-19)
(0.984893 0.0966331 3.02442e-19)
(0.984522 0.0953513 1.06297e-19)
(0.984192 0.0938642 -1.43461e-18)
(0.983945 0.0921277 -1.30254e-18)
(0.983842 0.0900969 2.40994e-18)
(0.983955 0.0877609 -3.54586e-18)
(0.984407 0.0850893 7.02367e-19)
(0.985398 0.0820307 1.22681e-18)
(0.98728 0.0787008 6.46379e-19)
(0.989968 0.0755704 -2.18344e-18)
(0.993538 0.0734022 -2.20663e-19)
(0.999919 0.0745974 8.99061e-19)
(0.987356 0.105133 9.97507e-21)
(0.987466 0.104981 -6.54098e-21)
(0.987533 0.104848 -4.654e-20)
(0.987567 0.104683 6.02228e-20)
(0.987564 0.104503 -1.05658e-19)
(0.987524 0.1043 1.83345e-19)
(0.987447 0.10408 -2.08018e-19)
(0.987334 0.103833 1.24126e-19)
(0.987182 0.103563 -2.44751e-19)
(0.986992 0.10326 5.09597e-19)
(0.986764 0.102923 -2.45661e-19)
(0.986497 0.102536 2.45054e-19)
(0.98619 0.102085 -1.0001e-18)
(0.985849 0.101571 5.58016e-19)
(0.985478 0.100971 -6.43541e-21)
(0.985078 0.10026 2.94824e-19)
(0.984659 0.099413 -3.79175e-19)
(0.984235 0.0983966 4.06144e-19)
(0.98382 0.097206 1.31174e-19)
(0.983423 0.0958317 -1.28097e-18)
(0.983071 0.0942394 2.02686e-18)
(0.982804 0.0923804 6.06469e-19)
(0.982691 0.0902086 -3.75053e-18)
(0.982806 0.0877098 1.20768e-18)
(0.983289 0.0848548 7.24635e-19)
(0.984363 0.0815918 -2.67112e-18)
(0.986396 0.0780538 -8.69201e-19)
(0.98931 0.0747524 6.92607e-18)
(0.993221 0.0724649 6.78229e-20)
(0.99998 0.0736957 2.70016e-21)
(0.986262 0.106422 -4.98059e-21)
(0.98638 0.106271 1.53698e-20)
(0.986457 0.106121 -2.04744e-20)
(0.986501 0.105933 -2.10504e-21)
(0.98651 0.105725 2.28224e-20)
(0.986481 0.105493 7.81849e-21)
(0.986414 0.105243 2.58622e-20)
(0.986309 0.104967 -1.91686e-19)
(0.986163 0.104665 4.05167e-19)
(0.985977 0.104329 -1.28016e-19)
(0.98575 0.103956 4.10554e-20)
(0.98548 0.10353 2.5278e-21)
(0.985166 0.103036 -1.8576e-19)
(0.984811 0.102475 -3.90846e-20)
(0.984423 0.101825 9.26999e-19)
(0.984003 0.101059 1.08877e-19)
(0.983562 0.100148 6.44974e-19)
(0.983116 0.0990564 2.89904e-19)
(0.982677 0.097781 -1.39688e-18)
(0.982259 0.0963092 9.09789e-19)
(0.981888 0.0946073 -7.6576e-19)
(0.981606 0.0926216 2.8096e-18)
(0.98149 0.0903037 3.75316e-18)
(0.981617 0.0876369 2.6401e-18)
(0.982139 0.0845923 3.54527e-18)
(0.983307 0.0811189 2.0208e-18)
(0.985505 0.0773689 -9.92913e-19)
(0.988656 0.0738989 -7.83884e-19)
(0.992927 0.0715042 1.60732e-19)
(1.00007 0.0727963 -1.32139e-18)
(0.985119 0.107679 -1.21681e-21)
(0.985238 0.107501 3.03231e-20)
(0.985319 0.10734 -1.0555e-19)
(0.985369 0.107141 2.28581e-20)
(0.985384 0.106921 -8.01193e-20)
(0.985363 0.106675 1.56357e-19)
(0.985303 0.106407 -4.3872e-20)
(0.985204 0.106107 8.39683e-20)
(0.985064 0.105776 -6.87757e-20)
(0.984881 0.105408 -2.31157e-19)
(0.984655 0.104998 3.66097e-19)
(0.984384 0.104532 -3.77143e-19)
(0.984064 0.103994 6.88891e-19)
(0.983696 0.103384 -3.34391e-19)
(0.983292 0.102682 -2.91048e-19)
(0.982854 0.10186 -1.03271e-18)
(0.982392 0.100883 -7.98756e-19)
(0.981925 0.0997133 5.02872e-19)
(0.981466 0.098347 3.42506e-19)
(0.981029 0.0967751 -7.98792e-19)
(0.980643 0.0949596 -7.09607e-19)
(0.980354 0.0928444 -2.80156e-19)
(0.98024 0.0903768 -2.13792e-18)
(0.980389 0.08754 -1.74985e-18)
(0.98096 0.084302 -5.05931e-18)
(0.982233 0.0806165 4.90567e-19)
(0.984609 0.076654 -3.93477e-19)
(0.988008 0.0730231 -7.91405e-18)
(0.992651 0.0705363 2.22689e-19)
(1.00021 0.0719355 -2.34707e-18)
(0.983931 0.108967 9.7164e-21)
(0.984046 0.108794 1.08384e-20)
(0.984126 0.108617 -2.86875e-20)
(0.984177 0.108395 1.82718e-19)
(0.984195 0.108149 -2.81706e-19)
(0.984178 0.107874 1.74204e-19)
(0.984121 0.107577 1.015e-19)
(0.984026 0.107247 -2.96516e-19)
(0.983889 0.106886 2.93605e-19)
(0.983709 0.106485 -5.08573e-19)
(0.983483 0.106039 6.32655e-19)
(0.983211 0.105533 2.54526e-20)
(0.982886 0.104951 -5.78012e-19)
(0.982506 0.10429 1.33955e-19)
(0.982087 0.103535 6.54952e-20)
(0.98163 0.102655 1.37153e-19)
(0.981149 0.101608 6.78262e-19)
(0.980663 0.100357 -9.57737e-19)
(0.980186 0.0988986 1.49571e-18)
(0.979735 0.0972217 2.33586e-20)
(0.979338 0.0952891 1.25007e-18)
(0.979049 0.0930411 -3.41586e-18)
(0.978944 0.0904214 1.72905e-19)
(0.979122 0.0874124 -2.75809e-19)
(0.979753 0.0839798 5.79145e-19)
(0.981142 0.0800808 2.7777e-18)
(0.983708 0.0759078 -3.42083e-19)
(0.987365 0.0721214 3.796e-18)
(0.992394 0.0695561 8.26535e-20)
(1.00037 0.0710723 1.37882e-18)
(0.982703 0.110202 3.32192e-21)
(0.98281 0.110008 -9.72245e-21)
(0.982884 0.109824 -9.3413e-20)
(0.982932 0.109594 1.27368e-19)
(0.982949 0.109337 -3.16469e-20)
(0.982931 0.109049 -9.68944e-21)
(0.982875 0.108734 -6.63822e-20)
(0.982781 0.108381 1.03932e-19)
(0.982645 0.10799 -2.04748e-19)
(0.982465 0.107557 -8.26099e-20)
(0.982239 0.107074 1.72041e-19)
(0.981964 0.106527 -3.16506e-19)
(0.981634 0.105899 -1.84644e-19)
(0.981242 0.105188 1.82547e-19)
(0.980808 0.104378 -2.77e-19)
(0.980334 0.103436 -2.35914e-19)
(0.979835 0.102318 1.12144e-18)
(0.97933 0.100982 -4.00854e-19)
(0.978839 0.099425 1.42264e-19)
(0.978376 0.0976402 -6.02809e-19)
(0.977974 0.0955879 -6.41949e-20)
(0.977687 0.0932041 2.82699e-18)
(0.977601 0.0904316 4.30276e-19)
(0.977815 0.0872492 -4.92636e-19)
(0.978514 0.0836224 1.66803e-18)
(0.98003 0.0795096 -2.2016e-18)
(0.982797 0.0751306 1.76736e-18)
(0.986721 0.071196 -5.96627e-18)
(0.992146 0.0685697 -1.39111e-19)
(1.00056 0.0702351 4.66518e-18)
(0.981436 0.111467 5.03925e-21)
(0.981531 0.111282 -1.6284e-20)
(0.981596 0.111081 6.99536e-20)
(0.981638 0.110828 1.00573e-20)
(0.98165 0.110544 -1.51614e-19)
(0.981629 0.110228 3.64991e-20)
(0.981571 0.109884 3.38742e-20)
(0.981476 0.109501 4.84213e-20)
(0.981338 0.10908 2.4807e-20)
(0.981156 0.108614 -2.86784e-20)
(0.980927 0.108095 -2.79341e-19)
(0.980648 0.107507 3.37279e-21)
(0.98031 0.106834 4.1787e-19)
(0.979906 0.10607 8.25952e-20)
(0.979458 0.105202 4.35288e-19)
(0.978967 0.104197 3.15639e-19)
(0.978447 0.103003 -4.71883e-19)
(0.977928 0.101578 1.10957e-19)
(0.977424 0.0999217 -1.52821e-18)
(0.976952 0.0980244 -1.19423e-18)
(0.976549 0.0958493 -1.66751e-18)
(0.976271 0.0933274 -4.28908e-18)
(0.976208 0.0904006 -6.46664e-19)
(0.976466 0.0870443 2.90901e-18)
(0.977242 0.0832231 -4.1494e-18)
(0.978894 0.0788969 -8.23062e-20)
(0.981874 0.0743143 -1.60765e-19)
(0.986075 0.0702387 4.1123e-18)
(0.991907 0.0675611 2.05395e-19)
(1.00074 0.0693761 -8.18802e-19)
(0.98014 0.112654 -1.08726e-20)
(0.980221 0.112447 -5.16058e-21)
(0.980274 0.112242 6.70149e-20)
(0.980305 0.111985 -2.45161e-20)
(0.980308 0.111695 -2.04837e-20)
(0.98028 0.111368 5.49485e-20)
(0.980216 0.111009 -3.52578e-20)
(0.980115 0.110604 1.2821e-19)
(0.979972 0.110155 -1.72472e-19)
(0.979786 0.109657 -1.73411e-19)
(0.979552 0.109101 -2.24818e-20)
(0.979266 0.108471 2.5257e-19)
(0.978918 0.107751 -1.53806e-19)
(0.978501 0.106933 4.5362e-19)
(0.978037 0.106004 -6.08971e-19)
(0.977525 0.104933 -2.97741e-19)
(0.97699 0.103659 7.95788e-19)
(0.976458 0.102141 -1.90832e-19)
(0.975942 0.10038 5.00633e-19)
(0.975464 0.0983677 5.87794e-19)
(0.975063 0.0960661 5.06925e-19)
(0.974798 0.0934054 3.98931e-18)
(0.974764 0.090323 9.37958e-19)
(0.975072 0.0867939 -6.50466e-19)
(0.975931 0.0827778 1.86792e-18)
(0.977728 0.0782397 -6.68448e-19)
(0.980931 0.0734562 3.02758e-18)
(0.985421 0.0692499 2.6377e-18)
(0.991667 0.0665338 -4.39702e-19)
(1.00094 0.0685272 -3.1124e-18)
(0.978811 0.113882 -3.64188e-20)
(0.978876 0.113688 3.81079e-20)
(0.978914 0.113467 -4.91105e-20)
(0.978932 0.113187 1.72964e-20)
(0.978924 0.11287 -9.79564e-21)
(0.978885 0.112515 -1.35838e-19)
(0.978812 0.112127 7.06706e-22)
(0.978702 0.111692 4.63564e-19)
(0.978551 0.111213 -1.42903e-19)
(0.978357 0.110681 1.69947e-19)
(0.978115 0.110089 -3.64698e-19)
(0.977819 0.109416 6.46242e-19)
(0.977459 0.108648 2.00955e-19)
(0.977025 0.107773 2.17713e-19)
(0.976541 0.106782 -3.35066e-19)
(0.976014 0.105638 7.3383e-19)
(0.975465 0.104276 -9.39017e-19)
(0.97492 0.102664 -7.73071e-19)
(0.974395 0.100797 1.18375e-18)