/*--------------------------------*- C++ -*----------------------------------*\
  =========                 |
  \\      /  F ield         | OpenFOAM: The Open Source CFD Toolbox
   \\    /   O peration     | Website:  https://openfoam.org
    \\  /    A nd           | Version:  6.0
     \\/     M anipulation  |
\*---------------------------------------------------------------------------*/
FoamFile
{
    version     2.0;
    format      ascii;
    class       surfaceScalarField;
    location    "1";
    object      phi;
}
// * * * * * * * * * * * * * * * * * * * * * * * * * * * * * * * * * * * * * //

dimensions      [0 3 -1 0 0 0 0];

internalField   nonuniform List<scalar> 
68636
(
3.77359e-05
0.0030977
-3.7606e-12
7.56886e-05
0.00306034
0.000112915
0.00298921
0.000148937
0.00288635
0.000183415
0.00275312
0.000215968
0.00259053
0.000246223
0.00239983
0.000273811
0.00218281
0.000298407
0.00194166
0.000319718
0.00167896
0.000337501
0.00139745
0.00035155
0.00110003
0.000361704
0.000789518
0.000367839
0.000468206
0.00013537
0.000369506
3.72549e-05
0.00306045
-2.2544e-11
7.47455e-05
0.00302286
0.000111539
0.00295243
0.000147147
0.00285076
0.000181225
0.00271907
0.000213395
0.00255839
0.000243291
0.00236997
0.00027055
0.00215558
0.000294852
0.0019174
0.000315908
0.00165794
0.000333479
0.00137992
0.000347359
0.00108619
0.000357389
0.000779533
0.000363441
0.000462212
0.000133748
0.000365163
3.67822e-05
0.00302367
-4.77768e-11
7.38167e-05
0.00298582
0.000110181
0.00291607
0.000145378
0.00281557
0.000179061
0.0026854
0.000210852
0.0025266
0.000240394
0.00234044
0.000267328
0.00212865
0.00029134
0.00189339
0.000312144
0.00163713
0.000329505
0.00136256
0.000343218
0.00107247
0.000353127
0.000769617
0.000359099
0.000456227
0.000131947
0.000360853
3.63176e-05
0.00298735
-5.55637e-11
7.29018e-05
0.00294924
0.00010884
0.00288015
0.000143631
0.00278079
0.000176922
0.00265213
0.000208339
0.0024952
0.00023753
0.00231127
0.000264143
0.00210206
0.000287869
0.00186969
0.000308425
0.0016166
0.000325578
0.00134543
0.000339127
0.00105894
0.000348915
0.00075986
0.000354811
0.000450371
0.000130245
0.000356583
3.58608e-05
0.00295149
-6.9673e-11
7.20005e-05
0.0029131
0.000107517
0.00284463
0.000141905
0.0027464
0.000174808
0.00261923
0.000205856
0.00246415
0.000234701
0.00228242
0.000260997
0.00207576
0.00028444
0.00184625
0.00030475
0.00159628
0.000321698
0.00132848
0.000335084
0.00104555
0.000344754
0.000750179
0.000350576
0.000444532
0.000128412
0.000352355
3.54115e-05
0.00291609
-7.38425e-11
7.11124e-05
0.0028774
0.000106211
0.00280954
0.0001402
0.00271242
0.000172719
0.00258673
0.000203402
0.00243348
0.000231905
0.00225394
0.000257888
0.00204979
0.000281051
0.0018231
0.000301119
0.00157623
0.000317864
0.00131175
0.00033109
0.00103234
0.000340643
0.000740651
0.000346393
0.000438814
0.000126687
0.000348174
3.49693e-05
0.00288112
-8.62216e-11
7.02371e-05
0.00284214
0.000104922
0.00277486
0.000138516
0.00267882
0.000170655
0.00255459
0.000200977
0.00240315
0.000229142
0.00222577
0.000254816
0.00202411
0.000277703
0.00180021
0.000297531
0.00155639
0.000314076
0.0012952
0.000327144
0.00101927
0.000336581
0.000731201
0.000342261
0.000433114
0.000124856
0.000344038
3.45341e-05
0.00284659
-9.01492e-11
6.93743e-05
0.0028073
0.00010365
0.00274059
0.000136852
0.00264562
0.000168615
0.00252284
0.00019858
0.00237319
0.000226412
0.00219795
0.000251781
0.00199875
0.000274395
0.00177761
0.000293987
0.00153681
0.000310333
0.00127887
0.000323244
0.00100637
0.000332568
0.000721898
0.000338179
0.00042753
0.000123134
0.000339948
3.41056e-05
0.00281248
-1.03739e-10
6.85236e-05
0.00277288
0.000102394
0.00270672
0.000135208
0.00261281
0.0001666
0.00249144
0.000196212
0.00234358
0.000223714
0.00217045
0.000248781
0.00197368
0.000271126
0.00175526
0.000290484
0.00151745
0.000306635
0.00126271
0.000319392
0.000993605
0.000328603
0.000712674
0.000334147
0.000421967
0.000121323
0.000335905
3.36836e-05
0.0027788
-1.10621e-10
6.76848e-05
0.00273888
0.000101154
0.00267326
0.000133585
0.00258038
0.000164609
0.00246043
0.000193872
0.00231432
0.000221048
0.00214328
0.000245818
0.00194892
0.000267896
0.0017332
0.000287023
0.00149833
0.000302982
0.00124676
0.000315585
0.000981016
0.000324686
0.000703592
0.000330163
0.000416513
0.000119618
0.000331909
3.32679e-05
0.00274553
-1.28908e-10
6.68577e-05
0.00270529
9.99305e-05
0.00264018
0.000131981
0.00254833
0.000162641
0.00242977
0.00019156
0.0022854
0.000218414
0.00211642
0.000242889
0.00192444
0.000264704
0.00171138
0.000283604
0.00147943
0.000299371
0.00123099
0.000311824
0.000968553
0.000320816
0.000694588
0.000326228
0.000411082
0.000117834
0.000327959
3.28583e-05
0.00271268
-1.43363e-10
6.60418e-05
0.00267211
9.87223e-05
0.00260751
0.000130397
0.00251666
0.000160697
0.00239948
0.000189275
0.00225683
0.000215811
0.0020899
0.000239996
0.00190026
0.000261551
0.00168983
0.000280225
0.00146076
0.000295804
0.00121542
0.000308108
0.000956263
0.000316992
0.000685721
0.000322339
0.000405756
0.000116155
0.000324056
3.24546e-05
0.00268022
-1.67919e-10
6.52371e-05
0.00263933
9.75296e-05
0.00257522
0.000128832
0.00248536
0.000158776
0.00236953
0.000187018
0.00222858
0.000213239
0.00206367
0.000237136
0.00187636
0.000258435
0.00166853
0.000276886
0.0014423
0.00029228
0.00120002
0.000304437
0.000944095
0.000313214
0.000676931
0.000318497
0.000400452
0.000114405
0.000320198
3.20566e-05
0.00264817
-1.89836e-10
6.44432e-05
0.00260695
9.63521e-05
0.00254331
0.000127286
0.00245443
0.000156879
0.00233994
0.000184787
0.00220068
0.000210698
0.00203777
0.000234311
0.00185275
0.000255356
0.00164749
0.000273588
0.00142408
0.000288798
0.00118482
0.000300809
0.000932096
0.000309481
0.000668275
0.000314702
0.000395251
0.000112756
0.000316385
3.16643e-05
0.0026165
-2.20873e-10
6.36599e-05
0.00257495
9.51895e-05
0.00251178
0.000125759
0.00242386
0.000155003
0.0023107
0.000182582
0.00217309
0.000208187
0.00201216
0.00023152
0.00182941
0.000252314
0.00162669
0.000270329
0.00140606
0.000285357
0.00116978
0.000297225
0.000920218
0.000305794
0.000659694
0.000310952
0.000390072
0.000111042
0.000312617
3.12775e-05
0.00258523
-2.50487e-10
6.2887e-05
0.00254334
9.40417e-05
0.00248063
0.000124251
0.00239365
0.000153151
0.00228181
0.000180404
0.00214585
0.000205705
0.00198687
0.000228761
0.00180636
0.000249308
0.00160615
0.000267109
0.00138827
0.000281958
0.00115494
0.000293684
0.000908504
0.00030215
0.000651243
0.000307247
0.000384993
0.000109427
0.000308894
3.0896e-05
0.00255433
-2.85808e-10
6.21244e-05
0.00251211
9.29083e-05
0.00244985
0.000122761
0.0023638
0.00015132
0.00225325
0.000178252
0.00211891
0.000203254
0.00196186
0.000226036
0.00178358
0.000246339
0.00158585
0.000263927
0.00137067
0.000278599
0.00114026
0.000290185
0.000896907
0.00029855
0.000642865
0.000303586
0.000379936
0.00010775
0.000305215
3.05197e-05
0.00252381
-3.19664e-10
6.13718e-05
0.00248127
9.17892e-05
0.00241943
0.00012129
0.0023343
0.000149512
0.00222503
0.000176126
0.0020923
0.000200831
0.00193716
0.000223343
0.00176107
0.000243404
0.00156579
0.000260783
0.0013533
0.00027528
0.00112577
0.000286728
0.00088547
0.000294993
0.000634615
0.000299969
0.000374977
0.000106169
0.00030158
3.01486e-05
0.00249366
-3.58204e-10
6.0629e-05
0.00245078
9.06841e-05
0.00238938
0.000119836
0.00230515
0.000147725
0.00219714
0.000174025
0.002066
0.000198437
0.00191275
0.000220682
0.00173882
0.000240505
0.00154596
0.000257677
0.00133612
0.000272001
0.00111144
0.000283313
0.000874148
0.000291479
0.000626436
0.000296395
0.00037004
0.00010453
0.000297988
2.97824e-05
0.00246389
-3.9535e-10
5.98958e-05
0.00242067
8.95929e-05
0.00235968
0.0001184
0.00227634
0.00014596
0.00216958
0.000171949
0.00204002
0.000196072
0.00188863
0.000218053
0.00171685
0.00023764
0.00152638
0.000254608
0.00131917
0.000268762
0.0010973
0.000279938
0.000862982
0.000288007
0.000618381
0.000292865
0.000365197
0.000102985
0.000294439
2.94211e-05
0.00243446
-4.34391e-10
5.91722e-05
0.00239092
8.85154e-05
0.00233034
0.000116982
0.00224787
0.000144216
0.00214235
0.000169898
0.00201433
0.000193736
0.00186479
0.000215456
0.00169512
0.00023481
0.00150703
0.000251575
0.00130239
0.000265561
0.0010833
0.000276604
0.000851929
0.000284576
0.000610396
0.000289376
0.000360376
0.000101385
0.000290932
2.90646e-05
0.0024054
-4.71294e-10
5.84578e-05
0.00236153
8.74514e-05
0.00230135
0.000115581
0.00221975
0.000142493
0.00211544
0.000167871
0.00198896
0.000191427
0.00184124
0.000212889
0.00167367
0.000232013
0.00148791
0.000248579
0.00128583
0.000262398
0.00106949
0.00027331
0.000841027
0.000281187
0.000602531
0.000285929
0.000355648
9.9875e-05
0.000287467
2.87128e-05
0.00237669
-5.09976e-10
5.77527e-05
0.00233249
8.64006e-05
0.0022727
0.000114196
0.00219195
0.000140791
0.00208884
0.000165869
0.00196387
0.000189145
0.00181796
0.000210353
0.00165245
0.00022925
0.00146901
0.000245619
0.00126946
0.000259273
0.00105583
0.000270055
0.000830236
0.000277838
0.000594736
0.000282524
0.000350941
9.83129e-05
0.000284043
2.83657e-05
0.00234833
-5.46541e-10
5.70565e-05
0.0023038
8.53628e-05
0.0022444
0.000112829
0.00216449
0.000139109
0.00206257
0.000163891
0.0019391
0.000186891
0.00179496
0.000207847
0.0016315
0.00022652
0.00145034
0.000242694
0.00125329
0.000256186
0.00104235
0.000266839
0.000819592
0.000274529
0.000587058
0.00027916
0.000346324
9.68385e-05
0.000280661
2.8023e-05
0.0023203
-5.83968e-10
5.63692e-05
0.00227546
8.4338e-05
0.00221642
0.000111479
0.00213735
0.000137448
0.00203659
0.000161936
0.00191461
0.000184664
0.00177223
0.000205371
0.00161079
0.000223822
0.00143188
0.000239804
0.0012373
0.000253135
0.00102901
0.000263662
0.000809056
0.00027126
0.000579447
0.000275835
0.000341729
9.53145e-05
0.000277318
2.76848e-05
0.00229262
-6.18818e-10
5.56906e-05
0.00224745
8.33259e-05
0.00218879
0.000110145
0.00211053
0.000135807
0.00201094
0.000160005
0.00189041
0.000182463
0.00174978
0.000202925
0.00159034
0.000221157
0.00141366
0.000236949
0.00122152
0.000250121
0.00101584
0.000260522
0.000798664
0.00026803
0.00057195
0.000272551
0.000337221
9.3875e-05
0.000274016
2.73509e-05
0.00226527
-6.5473e-10
5.50206e-05
0.00221978
8.23263e-05
0.00216149
0.000108827
0.00208403
0.000134185
0.00198558
0.000158097
0.0018665
0.000180289
0.00172758
0.000200508
0.00157011
0.000218523
0.00139564
0.000234128
0.00120591
0.000247143
0.00100282
0.000257421
0.000788377
0.000264839
0.000564519
0.000269306
0.000332734
9.2388e-05
0.000270753
2.70213e-05
0.00223825
-6.88312e-10
5.4359e-05
0.00219245
8.13391e-05
0.00213451
0.000107525
0.00205785
0.000132583
0.00196052
0.000156212
0.00184287
0.000178141
0.00170566
0.00019812
0.00155014
0.000215921
0.00137784
0.00023134
0.00119049
0.000244201
0.000989965
0.000254356
0.000778232
0.000261686
0.0005572
0.0002661
0.000328333
9.09829e-05
0.000267529
2.66959e-05
0.00221156
-7.22517e-10
5.37058e-05
0.00216544
8.03641e-05
0.00210785
0.000106239
0.00203197
0.000131
0.00193576
0.000154349
0.00181952
0.000176019
0.00168398
0.000195761
0.00153039
0.00021335
0.00136025
0.000228586
0.00117525
0.000241294
0.000977249
0.000251329
0.000768188
0.000258571
0.000549945
0.000262932
0.000323952
8.95328e-05
0.000264344
2.63747e-05
0.00218519
-7.53923e-10
5.30607e-05
0.00213875
7.94011e-05
0.00208151
0.000104969
0.00200641
0.000129436
0.0019113
0.000152509
0.00179645
0.000173922
0.00166257
0.00019343
0.00151089
0.00021081
0.00134288
0.000225865
0.0011602
0.000238422
0.0009647
0.000248337
0.000758282
0.000255494
0.000542799
0.000259802
0.000319656
8.81615e-05
0.000261197
2.60575e-05
0.00215913
-7.86307e-10
5.24238e-05
0.00211239
7.845e-05
0.00205548
0.000103714
0.00198114
0.000127891
0.00188712
0.000150691
0.00177365
0.00017185
0.00164141
0.000191126
0.00149161
0.000208301
0.0013257
0.000223177
0.00114532
0.000235585
0.000952284
0.000245381
0.000748475
0.000252453
0.000535715
0.00025671
0.000315378
8.6742e-05
0.000258088
2.57444e-05
0.00213339
-8.16128e-10
5.17947e-05
0.00208634
7.75105e-05
0.00202977
0.000102475
0.00195618
0.000126365
0.00186323
0.000148894
0.00175112
0.000169802
0.00162051
0.000188851
0.00147257
0.000205821
0.00130873
0.000220521
0.00113063
0.000232781
0.000940031
0.000242461
0.000738804
0.000249449
0.000528738
0.000253655
0.000311183
8.54038e-05
0.000255016
2.54352e-05
0.00210795
-8.46725e-10
5.11735e-05
0.0020606
7.65827e-05
0.00200436
0.00010125
0.00193151
0.000124857
0.00183962
0.00014712
0.00172886
0.00016778
0.00159984
0.000186602
0.00145374
0.000203371
0.00129196
0.000217896
0.0011161
0.000230011
0.000927908
0.000239576
0.000729229
0.00024648
0.000521822
0.000250636
0.000307007
8.4017e-05
0.000251981
2.51298e-05
0.00208282
-8.74448e-10
5.05601e-05
0.00203517
7.56662e-05
0.00197926
0.000100041
0.00190714
0.000123368
0.0018163
0.000145366
0.00170686
0.000165782
0.00157943
0.000184381
0.00143515
0.000200951
0.00127539
0.000215303
0.00110175
0.000227274
0.000915945
0.000236726
0.000719785
0.000243548
0.000515009
0.000247654
0.000302911
8.27127e-05
0.000248983
2.48283e-05
0.00205799
-9.03671e-10
4.99542e-05
0.00201004
7.4761e-05
0.00195445
9.88457e-05
0.00188305
0.000121896
0.00179324
0.000143634
0.00168512
0.000163807
0.00155925
0.000182186
0.00141676
0.000198559
0.00125901
0.000212741
0.00108756
0.00022457
0.000904108
0.000233909
0.000710437
0.00024065
0.000508257
0.000244708
0.000298833
8.13544e-05
0.00024602
2.45306e-05
0.00203347
-9.3036e-10
4.93559e-05
0.00198522
7.38668e-05
0.00192994
9.76653e-05
0.00185926
0.000120442
0.00177047
0.000141922
0.00166365
0.000161857
0.00153932
0.000180017
0.00139861
0.000196196
0.00124284
0.00021021
0.00107356
0.000221898
0.000892427
0.000231127
0.000701216
0.000237787
0.000501605
0.000241796
0.000294835
8.00839e-05
0.000243094
2.42366e-05
0.00200923
-9.58799e-10
4.87649e-05
0.00196069
7.29836e-05
0.00190572
9.64992e-05
0.00183574
0.000119006
0.00174796
0.000140232
0.00164242
0.000159929
0.00151962
0.000177875
0.00138066
0.000193862
0.00122685
0.000207709
0.0010597
0.000219259
0.00088087
0.000228377
0.000692088
0.000234959
0.000495012
0.00023892
0.000290853
7.87562e-05
0.000240202
2.39463e-05
0.00198529
-9.84363e-10
4.81813e-05
0.00193646
7.21113e-05
0.00188179
9.53473e-05
0.00181251
0.000117587
0.00172573
0.000138561
0.00162145
0.000158025
0.00150016
0.000175758
0.00136293
0.000191555
0.00121105
0.000205238
0.00104603
0.000216651
0.000869465
0.000225661
0.000683086
0.000232165
0.000488517
0.000236078
0.000286949
7.75185e-05
0.000237346
2.36595e-05
0.00196163
-1.01227e-09
4.76048e-05
0.00191251
7.12495e-05
0.00185814
9.42094e-05
0.00178954
0.000116185
0.00170375
0.00013691
0.00160072
0.000156144
0.00148092
0.000173666
0.0013454
0.000189276
0.00119544
0.000202797
0.0010325
0.000214074
0.00085818
0.000222978
0.000674173
0.000229404
0.00048208
0.000233271
0.000283062
7.62231e-05
0.000234523
2.33763e-05
0.00193826
-1.03763e-09
4.70354e-05
0.00188886
7.03984e-05
0.00183479
9.30852e-05
0.00176686
0.0001148
0.00168204
0.00013528
0.00158024
0.000154285
0.00146192
0.0001716
0.00132809
0.000187025
0.00118002
0.000200385
0.00101914
0.000211528
0.000847044
0.000220326
0.000665383
0.000226676
0.000475739
0.000230497
0.00027925
7.50173e-05
0.000231734
2.30966e-05
0.00191516
-1.06547e-09
4.64731e-05
0.00186548
6.95576e-05
0.0018117
9.19747e-05
0.00174444
0.000113432
0.00166057
0.000133669
0.00156
0.000152449
0.00144314
0.000169558
0.00131098
0.0001848
0.00116477
0.000198002
0.00100594
0.000209013
0.000836026
0.000217707
0.00065668
0.000223981
0.000469453
0.000227756
0.000275456
7.37556e-05
0.000228979
2.28204e-05
0.00189234
-1.09055e-09
4.59176e-05
0.00184239
6.8727e-05
0.00178889
9.08777e-05
0.00172229
0.00011208
0.00163938
0.000132077
0.00154001
0.000150635
0.00142459
0.000167541
0.00129408
0.000182602
0.00114972
0.000195648
0.000992897
0.000206528
0.000825152
0.000215119
0.000648097
0.000221318
0.000463261
0.000225048
0.000271734
7.25806e-05
0.000226257
2.25476e-05
0.00186979
-1.11857e-09
4.5369e-05
0.00181956
6.79066e-05
0.00176635
8.9794e-05
0.0017004
0.000110745
0.00161842
0.000130505
0.00152025
0.000148842
0.00140624
0.000165548
0.00127737
0.000180431
0.00113483
0.000193322
0.00098
0.000204073
0.000814393
0.000212562
0.0006396
0.000218688
0.000457124
0.000222373
0.000268029
7.13521e-05
0.000223567
2.22781e-05
0.00184752
-1.14414e-09
4.48271e-05
0.00179702
6.70963e-05
0.00174409
8.87234e-05
0.00167878
0.000109426
0.00159772
0.000128951
0.00150073
0.000147071
0.00138813
0.000163579
0.00126087
0.000178285
0.00112013
0.000191024
0.000967268
0.000201647
0.000803776
0.000210035
0.000631219
0.000216089
0.000451078
0.00021973
0.000264396
7.02063e-05
0.00022091
2.2012e-05
0.0018255
-1.17256e-09
4.42919e-05
0.00177473
6.62957e-05
0.00172208
8.76658e-05
0.00165741
0.000108122
0.00157726
0.000127416
0.00148143
0.000145322
0.00137022
0.000161634
0.00124455
0.000176166
0.00110559
0.000188753
0.000954675
0.000199251
0.00079327
0.00020754
0.000622922
0.000213521
0.000445085
0.000217119
0.000260779
6.90098e-05
0.000218284
2.17491e-05
0.00180376
-1.19815e-09
4.37631e-05
0.00175272
6.5505e-05
0.00170034
8.6621e-05
0.0016363
0.000106835
0.00155705
0.0001259
0.00146237
0.000143593
0.00135253
0.000159712
0.00122843
0.000174072
0.00109123
0.00018651
0.000942243
0.000196883
0.000782903
0.000205074
0.000614739
0.000210984
0.000439182
0.000214539
0.000257232
6.78916e-05
0.00021569
2.14895e-05
0.00178227
-1.227e-09
4.32409e-05
0.00173097
6.47238e-05
0.00167886
8.55889e-05
0.00161543
0.000105563
0.00153708
0.000124402
0.00144353
0.000141885
0.00133504
0.000157813
0.0012125
0.000172003
0.00107704
0.000184293
0.000929947
0.000194544
0.000772645
0.000202637
0.000606637
0.000208478
0.000433331
0.00021199
0.0002537
6.6726e-05
0.000213128
2.1233e-05
0.00176104
-1.2533e-09
4.2725e-05
0.00170948
6.39522e-05
0.00165763
8.45692e-05
0.00159482
0.000104306
0.00151734
0.000122922
0.00142492
0.000140198
0.00131777
0.000155937
0.00119677
0.000169959
0.00106302
0.000182104
0.000917808
0.000192233
0.000762522
0.00020023
0.000598646
0.000206002
0.000427566
0.000209472
0.000250237
6.56342e-05
0.000210596
2.09797e-05
0.00174006
-1.28278e-09
4.22155e-05
0.00168824
6.31899e-05
0.00163665
8.3562e-05
0.00157444
0.000103064
0.00149784
0.000121459
0.00140652
0.000138531
0.00130069
0.000154084
0.00118121
0.000167939
0.00104916
0.00017994
0.0009058
0.00018995
0.000752506
0.000197852
0.000590735
0.000203555
0.000421852
0.000206985
0.000246789
6.44984e-05
0.000208095
2.07295e-05
0.00171934
-1.30947e-09
4.17121e-05
0.00166727
6.24369e-05
0.00161593
8.25669e-05
0.00155431
0.000101838
0.00147857
0.000120015
0.00138835
0.000136884
0.00128383
0.000152252
0.00116585
0.000165944
0.00103547
0.000177803
0.000893947
0.000187694
0.000742621
0.000195503
0.000582932
0.000201138
0.000416224
0.000204527
0.000243407
6.3432e-05
0.000205624
2.04824e-05
0.00169885
-1.33966e-09
4.12149e-05
0.00164653
6.16931e-05
0.00159545
8.15838e-05
0.00153442
0.000100626
0.00145952
0.000118587
0.00137038
0.000135257
0.00126715
0.000150443
0.00115066
0.000163972
0.00102194
0.000175691
0.000882223
0.000185465
0.00073284
0.000193182
0.000575207
0.00019875
0.000410644
0.000202099
0.00024004
6.23248e-05
0.000203182
2.02383e-05
0.00167862
-1.36737e-09
4.07238e-05
0.00162605
6.09582e-05
0.00157522
8.06127e-05
0.00151477
9.94291e-05
0.00144071
0.000117177
0.00135264
0.000133649
0.00125068
0.000148656
0.00113565
0.000162025
0.00100858
0.000173605
0.000870649
0.000183263
0.000723188
0.000190888
0.000567588
0.000196391
0.000405148
0.0001997
0.000236737
6.12829e-05
0.00020077
1.99971e-05
0.00165862
-1.3984e-09
4.02387e-05
0.0016058
6.02324e-05
0.00155522
7.96534e-05
0.00149534
9.82465e-05
0.00142211
0.000115784
0.00133509
0.000132061
0.0012344
0.00014689
0.00112082
0.000160101
0.000995359
0.000171544
0.0008592
0.000181087
0.000713637
0.000188623
0.000560045
0.000194061
0.0003997
0.00019733
0.00023345
6.02035e-05
0.000198388
1.97589e-05
0.00163886
-1.42656e-09
3.97594e-05
0.00158581
5.95153e-05
0.00153547
7.87056e-05
0.00147616
9.70781e-05
0.00140375
0.000114408
0.00131777
0.000130492
0.00121832
0.000145145
0.00110617
0.0001582
0.000982309
0.000169507
0.000847898
0.000178938
0.000704212
0.000186385
0.000552605
0.000191758
0.000394332
0.000194988
0.000230225
5.91854e-05
0.000196034
1.95236e-05
0.00161934
-1.45839e-09
3.9286e-05
0.00156604
5.88069e-05
0.00151595
7.77693e-05
0.00145719
9.59239e-05
0.00138559
0.000113049
0.00130064
0.000128942
0.00120242
0.000143422
0.00109169
0.000156322
0.000969404
0.000167495
0.000836719
0.000176815
0.000694886
0.000184173
0.000545239
0.000189483
0.000389012
0.000192675
0.000227015
5.81328e-05
0.000193708
1.92912e-05
0.00160005
-1.48764e-09
3.88184e-05
0.00154652
5.81072e-05
0.00149666
7.68444e-05
0.00143846
9.47836e-05
0.00136765
0.000111705
0.00128372
0.000127411
0.00118672
0.000141719
0.00107738
0.000154466
0.000956661
0.000165508
0.000825683
0.000174717
0.000685682
0.000181988
0.000537973
0.000187236
0.000383771
0.00019039
0.000223865
5.71378e-05
0.00019141
1.90616e-05
0.00158099
-1.52045e-09
3.83564e-05
0.00152722
5.74159e-05
0.0014776
7.59307e-05
0.00141994
9.36571e-05
0.00134992
0.000110378
0.001267
0.000125898
0.0011712
0.000140037
0.00106324
0.000152633
0.000944059
0.000163544
0.000814766
0.000172644
0.000676575
0.00017983
0.00053078
0.000185015
0.000378575
0.000188132
0.00022073
5.61111e-05
0.000189141
1.88349e-05
0.00156216
-1.55046e-09
3.79001e-05
0.00150816
5.6733e-05
0.00145877
7.5028e-05
0.00140165
9.25442e-05
0.00133241
0.000109067
0.00125048
0.000124403
0.00115587
0.000138375
0.00104927
0.000150822
0.000931616
0.000161604
0.00080399
0.000170597
0.000667588
0.000177697
0.000523686
0.000182822
0.000373456
0.000185902
0.000217654
5.51386e-05
0.000186898
1.86108e-05
0.00154355
-1.58433e-09
3.74493e-05
0.00148932
5.60584e-05
0.00144016
7.41362e-05
0.00138357
9.14448e-05
0.0013151
0.000107772
0.00123415
0.000122926
0.00114071
0.000136733
0.00103546
0.000149033
0.00091931
0.000159687
0.000793329
0.000168574
0.000658694
0.000175591
0.000516661
0.000180654
0.000368383
0.000183698
0.000214593
5.41369e-05
0.000184683
1.83895e-05
0.00152516
-1.61572e-09
3.7004e-05
0.00147071
5.5392e-05
0.00142177
7.32553e-05
0.00136571
9.03586e-05
0.001298
0.000106493
0.00121802
0.000121467
0.00112574
0.00013511
0.00102182
0.000147265
0.00090716
0.000157794
0.000782806
0.000166575
0.000649918
0.000173509
0.000509733
0.000178513
0.000363384
0.000181522
0.000211589
5.31863e-05
0.000182494
1.81709e-05
0.00150699
-1.65078e-09
3.65641e-05
0.00145231
5.47337e-05
0.0014036
7.2385e-05
0.00134806
8.92856e-05
0.00128109
0.000105229
0.00120207
0.000120026
0.00111094
0.000133508
0.00100834
0.000145518
0.000895143
0.000155923
0.000772396
0.000164601
0.000641233
0.000171453
0.000502873
0.000176398
0.000358429
0.000179371
0.000208599
5.22089e-05
0.000180332
1.7955e-05
0.00148904
-1.68297e-09
3.61295e-05
0.00143414
5.40833e-05
0.00138565
7.15252e-05
0.00133062
8.82255e-05
0.0012644
0.00010398
0.00118632
0.000118602
0.00109632
0.000131924
0.000995018
0.000143793
0.000883279
0.000154074
0.00076212
0.00016265
0.000632663
0.000169422
0.000496107
0.000174309
0.000353547
0.000177246
0.000205665
5.12795e-05
0.000178196
1.77417e-05
0.0014713
-1.71915e-09
3.57002e-05
0.00141618
5.34409e-05
0.0013679
7.06759e-05
0.00131338
8.71783e-05
0.00124789
0.000102746
0.00117075
0.000117195
0.00108186
0.00013036
0.000981848
0.000142089
0.000871544
0.000152249
0.000751954
0.000160723
0.000624182
0.000167415
0.000489408
0.000172244
0.000348708
0.000175148
0.000202745
5.03256e-05
0.000176086
1.7531e-05
0.00145377
-1.75279e-09
3.52762e-05
0.00139844
5.28062e-05
0.00135038
6.98368e-05
0.00129635
8.61437e-05
0.00123159
0.000101527
0.00115537
0.000115805
0.00106759
0.000128815
0.000968844
0.000140405
0.000859959
0.000150445
0.00074192
0.000158819
0.000615813
0.000165432
0.000482801
0.000170205
0.000343941
0.000173074
0.000199879
4.94169e-05
0.000174002
1.73228e-05
0.00143645
-1.79029e-09
3.48573e-05
0.0013809
5.21793e-05
0.00133305
6.90079e-05
0.00127952
8.51216e-05
0.00121547
0.000100323
0.00114017
0.000114432
0.00105348
0.000127288
0.000955983
0.000138741
0.0008485
0.000148662
0.000731993
0.000156938
0.000607531
0.000163473
0.000476258
0.00016819
0.000339215
0.000171026
0.000197028
4.84856e-05
0.000171942
1.71172e-05
0.00141933
-1.825e-09
3.44435e-05
0.00136358
5.15599e-05
0.00131594
6.81891e-05
0.0012629
8.41119e-05
0.00119955
9.91334e-05
0.00112515
0.000113076
0.00103954
0.000125779
0.000943285
0.000137097
0.000837186
0.000146902
0.000722194
0.00015508
0.000599358
0.000161538
0.000469806
0.000166199
0.000334558
0.000169002
0.000194228
4.7597e-05
0.000169908
1.69141e-05
0.00140242
-1.86387e-09
3.40347e-05
0.00134645
5.0948e-05
0.00129902
6.73801e-05
0.00124646
8.31144e-05
0.00118381
9.79582e-05
0.0011103
0.000111736
0.00102575
0.000124289
0.000930726
0.000135474
0.000825996
0.000145162
0.000712499
0.000153244
0.00059127
0.000159627
0.000463416
0.000164233
0.000329942
0.000167003
0.000191443
4.66876e-05
0.000167898
1.67134e-05
0.00138571
-1.90027e-09
3.36308e-05
0.00132954
5.03436e-05
0.00128231
6.6581e-05
0.00123023
8.2129e-05
0.00116827
9.67972e-05
0.00109564
0.000110412
0.00101214
0.000122817
0.000918326
0.000133869
0.000814948
0.000143444
0.00070293
0.000151431
0.000583288
0.000157738
0.000457115
0.00016229
0.000325395
0.000165028
0.000188708
4.58185e-05
0.000165913
1.65152e-05
0.00136919
-1.9406e-09
3.32319e-05
0.00131282
4.97465e-05
0.00126579
6.57915e-05
0.00121418
8.11555e-05
0.0011529
9.56502e-05
0.00108114
0.000109104
0.000998684
0.000121363
0.000906061
0.000132285
0.00080402
0.000141746
0.000693462
0.000149639
0.000575389
0.000155872
0.000450875
0.000160371
0.000320887
0.000163076
0.000185987
4.49304e-05
0.000163952
1.63194e-05
0.00135288
-1.97807e-09
3.28378e-05
0.0012963
4.91566e-05
0.00124948
6.50116e-05
0.00119833
8.01938e-05
0.00113772
9.45172e-05
0.00106682
0.000107812
0.000985393
0.000119926
0.000893952
0.000130719
0.000793231
0.000140069
0.000684118
0.000147869
0.000567595
0.000154029
0.000444721
0.000158475
0.000316445
0.000161149
0.000183316
4.40802e-05
0.000162014
1.6126e-05
0.00133675
-2.01978e-09
3.24485e-05
0.00127998
4.85739e-05
0.00123335
6.42412e-05
0.00118266
7.92437e-05
0.00112271
9.33978e-05
0.00105266
0.000106536
0.000972249
0.000118507
0.000881976
0.000129172
0.000782559
0.000138412
0.000674872
0.00014612
0.000559881
0.000152208
0.000438626
0.000156602
0.000312042
0.000159245
0.000180658
4.32125e-05
0.0001601
1.59349e-05
0.00132082
-2.05893e-09
3.20639e-05
0.00126385
4.79983e-05
0.00121742
6.34801e-05
0.00116718
7.83052e-05
0.00110789
9.2292e-05
0.00103868
0.000105275
0.000959271
0.000117104
0.000870151
0.000127644
0.000772024
0.000136775
0.000665746
0.000144393
0.000552269
0.000150409
0.000432616
0.000154751
0.000307704
0.000157364
0.000178048
4.23807e-05
0.00015821
1.57461e-05
0.00130507
-2.10218e-09
3.1684e-05
0.00124791
4.74296e-05
0.00120167
6.27282e-05
0.00115188
7.7378e-05
0.00109324
9.11995e-05
0.00102485
0.000104029
0.000946435
0.000115719
0.000858455
0.000126135
0.000761602
0.000135158
0.000656717
0.000142686
0.000544735
0.000148632
0.000426664
0.000152923
0.000303402
0.000155505
0.000175451
4.15327e-05
0.000156342
1.55597e-05
0.00128952
-2.1426e-09
3.13087e-05
0.00123217
4.68679e-05
0.00118611
6.19854e-05
0.00113676
7.6462e-05
0.00107876
9.01203e-05
0.0010112
0.000102798
0.000933761
0.000114351
0.000846908
0.000124644
0.000751313
0.000133561
0.000647805
0.000141
0.000537301
0.000146876
0.000420794
0.000151117
0.000299165
0.00015367
0.000172901
4.07187e-05
0.000154497
1.53755e-05
0.00127414
-2.18741e-09
3.0938e-05
0.0012166
4.63129e-05
0.00117073
6.12517e-05
0.00112182
7.55571e-05
0.00106445
8.90541e-05
0.000997696
0.000101583
0.000921227
0.000112999
0.000835486
0.00012317
0.000741135
0.000131983
0.000638986
0.000139335
0.000529943
0.000145141
0.00041498
0.000149333
0.000294964
0.000151856
0.000170365
3.98898e-05
0.000152674
1.51935e-05
0.00125896
-2.22967e-09
3.05717e-05
0.00120123
4.57647e-05
0.00115555
6.05268e-05
0.00110706
7.46632e-05
0.00105032
8.80009e-05
0.000984363
0.000100382
0.00090885
0.000111663
0.000824209
0.000121715
0.000731088
0.000130424
0.000630283
0.000137689
0.000522683
0.000143428
0.000409247
0.000147571
0.000290825
0.000150065
0.000167873
3.90932e-05
0.000150873
1.50138e-05
0.00124394
-2.27608e-09
3.021e-05
0.00118602
4.52232e-05
0.00114053
5.98107e-05
0.00109247
7.37802e-05
0.00103635
8.69605e-05
0.000971178
9.91951e-05
0.000896609
0.000110344
0.000813055
0.000120277
0.000721148
0.000128883
0.000621671
0.000136064
0.000515497
0.000141735
0.000403569
0.00014583
0.000286721
0.000148295
0.000165395
3.82827e-05
0.000149094
1.48362e-05
0.00122911
-2.31953e-09
2.98526e-05
0.00117101
4.46882e-05
0.0011257
5.91034e-05
0.00107806
7.29078e-05
0.00102255
8.59326e-05
0.000958158
9.8023e-05
0.000884523
0.00010904
0.000802042
0.000118857
0.000711336
0.000127362
0.000613171
0.000134458
0.000508406
0.000140063
0.000397969
0.00014411
0.000282678
0.000146546
0.00016296
3.75027e-05
0.000147337
1.46608e-05
0.00121445
-2.36742e-09
2.94995e-05
0.00115617
4.41597e-05
0.00111103
5.84046e-05
0.00106381
7.20461e-05
0.0010089
8.49172e-05
0.000945281
9.68651e-05
0.000872569
0.000107753
0.000791149
0.000117454
0.000701628
0.000125859
0.00060476
0.000132871
0.000501388
0.000138411
0.000392423
0.000142411
0.000278669
0.000144819
0.000160538
3.671e-05
0.000145602
1.44875e-05
0.00119997
-2.41261e-09
2.91508e-05
0.00114151
4.36376e-05
0.00109655
5.77142e-05
0.00104974
7.11948e-05
0.000995423
8.39141e-05
0.000932567
9.57213e-05
0.000860766
0.000106481
0.000780395
0.000116067
0.000692045
0.000124374
0.000596459
0.000131304
0.000494463
0.000136779
0.000386954
0.000140733
0.00027472
0.000143113
0.00015816
3.59463e-05
0.000143887
1.43163e-05
0.00118565
-2.46209e-09
2.88062e-05
0.00112702
4.31219e-05
0.00108223
5.70323e-05
0.00103582
7.03538e-05
0.000982096
8.29232e-05
0.000919992
9.45913e-05
0.000849091
0.000105224
0.000769756
0.000114698
0.000682565
0.000122907
0.000588244
0.000129756
0.000487608
0.000135167
0.000381537
0.000139074
0.000270804
0.000141428
0.000155793
3.51708e-05
0.000142193
1.41473e-05
0.00117151
-2.5086e-09
2.84659e-05
0.0011127
4.26125e-05
0.00106808
5.63587e-05
0.00102208
6.9523e-05