/*--------------------------------*- C++ -*----------------------------------*\
  =========                 |
  \\      /  F ield         | OpenFOAM: The Open Source CFD Toolbox
   \\    /   O peration     | Website:  https://openfoam.org
    \\  /    A nd           | Version:  6.0
     \\/     M anipulation  |
\*---------------------------------------------------------------------------*/
FoamFile
{
    version     2.0;
    format      ascii;
    class       volVectorField;
    location    "1";
    object      U;
}
// * * * * * * * * * * * * * * * * * * * * * * * * * * * * * * * * * * * * * //

dimensions      [0 1 -1 0 0 0 0];

internalField   nonuniform List<vector> 
34500
(
(0.99996 -0.000228857 -9.74614e-18)
(0.999781 -0.000604691 9.29659e-17)
(0.999554 -0.000808259 2.32823e-17)
(0.999392 -0.000858179 -1.35744e-17)
(0.999323 -0.000832567 1.33009e-16)
(0.999324 -0.000795354 3.0591e-16)
(0.999362 -0.000776141 1.52978e-17)
(0.999417 -0.000778878 -2.39808e-16)
(0.999478 -0.000802894 3.69474e-16)
(0.99954 -0.000845742 -2.19906e-17)
(0.999599 -0.000916203 -2.80321e-16)
(0.999657 -0.00102918 -4.60113e-16)
(0.999714 -0.00122612 2.13852e-16)
(0.999779 -0.00161218 4.36955e-16)
(0.999019 -0.00260859 -3.75338e-16)
(0.99991 -0.000218278 -3.0868e-17)
(0.999749 -0.000579719 -8.27259e-17)
(0.999543 -0.000782411 1.93367e-16)
(0.999395 -0.000841262 -1.06062e-16)
(0.999331 -0.000826312 -6.87729e-17)
(0.999333 -0.000797268 -6.00865e-16)
(0.99937 -0.000782376 9.89698e-17)
(0.999425 -0.000787572 1.59687e-16)
(0.999486 -0.000812329 -2.75956e-16)
(0.999548 -0.000855952 -4.52314e-16)
(0.999607 -0.000926396 -1.91781e-16)
(0.999665 -0.0010398 -3.93967e-16)
(0.999722 -0.0012372 -3.04364e-16)
(0.999783 -0.00162421 -5.78427e-16)
(0.999212 -0.00259584 6.76689e-16)
(0.999862 -0.000208637 -2.30093e-17)
(0.999717 -0.000556965 1.0142e-16)
(0.99953 -0.000759023 3.6122e-17)
(0.999394 -0.000826457 -4.63377e-17)
(0.999335 -0.000821895 -1.10091e-16)
(0.999338 -0.000800994 6.4578e-17)
(0.999375 -0.000790659 -5.74424e-17)
(0.99943 -0.000798513 -8.87897e-17)
(0.999491 -0.000824251 4.6374e-16)
(0.999554 -0.000868752 -2.56335e-16)
(0.999614 -0.000939374 3.55049e-16)
(0.999672 -0.0010534 5.14814e-16)
(0.999729 -0.00125153 -3.43369e-16)
(0.999788 -0.00163968 3.11111e-16)
(0.999358 -0.00259498 -4.98986e-17)
(0.999816 -0.000199884 4.13551e-18)
(0.999685 -0.000536243 -1.68337e-16)
(0.999516 -0.000737629 -1.6759e-16)
(0.999391 -0.000812954 7.51657e-17)
(0.999338 -0.000818199 -2.76617e-16)
(0.999341 -0.000805124 1.38477e-16)
(0.999379 -0.000799425 3.37527e-16)
(0.999434 -0.000809957 -2.47754e-16)
(0.999496 -0.000836861 -9.73039e-16)
(0.999559 -0.000882193 3.1564e-16)
(0.99962 -0.000953107 -4.85724e-17)
(0.999679 -0.00106772 2.67759e-16)
(0.999736 -0.00126668 4.30238e-16)
(0.999793 -0.00165598 -2.56182e-16)
(0.999476 -0.00260117 -1.91871e-16)
(0.999772 -0.000191964 5.03794e-17)
(0.999654 -0.000517401 9.60776e-17)
(0.999501 -0.000718099 -1.22543e-16)
(0.999387 -0.000800643 5.11704e-17)
(0.999339 -0.000815089 3.40147e-16)
(0.999344 -0.000809496 4.34853e-16)
(0.999383 -0.000808396 -8.74359e-16)
(0.999438 -0.000821612 3.37633e-16)
(0.999501 -0.000849756 9.28627e-16)
(0.999565 -0.000895914 -3.87465e-16)
(0.999627 -0.000967154 -1.13159e-16)
(0.999686 -0.00108232 -2.98975e-17)
(0.999743 -0.00128206 -2.66806e-16)
(0.9998 -0.00167237 5.87024e-16)
(0.999574 -0.00261127 -3.77793e-16)
(0.99973 -0.000184789 2.92747e-17)
(0.999624 -0.00050027 3.59839e-17)
(0.999485 -0.000700271 1.29175e-16)
(0.999381 -0.000789448 -1.47716e-16)
(0.999339 -0.000812544 -6.56884e-17)
(0.999346 -0.000814112 -4.09586e-16)
(0.999385 -0.000817592 3.23566e-16)
(0.999442 -0.000833492 -8.18815e-17)
(0.999505 -0.000862984 -3.72158e-16)
(0.99957 -0.000909952 7.46365e-16)
(0.999633 -0.00098158 1.42464e-16)
(0.999693 -0.00109726 3.98368e-17)
(0.99975 -0.00129778 4.1911e-16)
(0.999806 -0.00168911 -1.19298e-15)
(0.999659 -0.00262482 4.41747e-16)
(0.999689 -0.000178317 -5.09415e-17)
(0.999595 -0.000484734 5.72473e-17)
(0.999469 -0.000684061 9.99051e-17)
(0.999375 -0.000779325 2.78835e-16)
(0.999338 -0.000810538 7.71431e-17)
(0.999347 -0.000818946 3.48082e-16)
(0.999388 -0.00082693 -1.49418e-16)
(0.999445 -0.00084551 -6.3974e-16)
(0.999509 -0.000876397 -5.78279e-16)
(0.999575 -0.000924185 -7.92694e-16)
(0.999639 -0.000996223 -3.36349e-16)
(0.9997 -0.0011124 1.29303e-17)
(0.999757 -0.00131366 -3.09095e-16)
(0.999814 -0.00170603 1.01712e-15)
(0.999734 -0.00264075 -1.30414e-16)
(0.99965 -0.000172476 -3.32234e-17)
(0.999565 -0.000470659 -2.31761e-17)
(0.999453 -0.000669341 -4.6299e-17)
(0.999368 -0.000770223 -1.49673e-16)
(0.999336 -0.000809066 1.10361e-16)
(0.999347 -0.000824019 4.44416e-18)
(0.999389 -0.000836444 1.05809e-16)
(0.999447 -0.000857701 6.88953e-16)
(0.999513 -0.000890047 5.54069e-17)
(0.99958 -0.000938659 -3.11785e-16)
(0.999645 -0.00101114 4.3092e-16)
(0.999707 -0.00112778 -3.92938e-17)
(0.999765 -0.00132978 -7.68723e-18)
(0.999821 -0.00172327 1.83277e-16)
(0.999802 -0.00265885 -3.78472e-16)
(0.999613 -0.000167234 -2.90132e-18)
(0.999537 -0.000457951 -1.22933e-16)
(0.999436 -0.000656046 -2.78356e-17)
(0.99936 -0.000762113 1.93673e-16)
(0.999333 -0.000808134 -1.46136e-16)
(0.999347 -0.000829339 2.33114e-16)
(0.999391 -0.000846116 1.52072e-16)
(0.99945 -0.000870029 1.05671e-17)
(0.999517 -0.000903868 1.3866e-16)
(0.999585 -0.000953312 3.43485e-17)
(0.999651 -0.00102626 -4.07999e-16)
(0.999714 -0.00114335 2.52809e-16)
(0.999772 -0.00134607 -1.58917e-16)
(0.999829 -0.00174074 -8.0824e-16)
(0.999864 -0.00267852 4.75745e-16)
(0.999576 -0.000162529 9.45511e-17)
(0.999509 -0.000446501 7.52732e-17)
(0.999418 -0.000644069 -3.32683e-17)
(0.999351 -0.000754954 -1.66692e-16)
(0.999329 -0.000807736 -1.67816e-16)
(0.999346 -0.000834932 -6.38089e-16)
(0.999391 -0.000855979 4.50108e-16)
(0.999452 -0.000882539 9.83466e-18)
(0.99952 -0.000917908 7.72573e-16)
(0.99959 -0.000968193 7.79929e-16)
(0.999657 -0.00104163 -2.24578e-16)
(0.999721 -0.00115915 -6.63157e-17)
(0.99978 -0.00136259 3.86524e-16)
(0.999838 -0.00175856 6.75102e-16)
(0.999921 -0.00269966 -5.11913e-16)
(0.999541 -0.000158338 -2.75527e-17)
(0.999481 -0.000436232 5.14346e-17)
(0.999401 -0.000633356 2.20061e-17)
(0.999342 -0.000748725 -4.20557e-17)
(0.999325 -0.000807886 -1.43053e-16)
(0.999345 -0.000840816 -2.07669e-17)
(0.999392 -0.000866035 -4.76632e-16)
(0.999454 -0.00089522 -6.67743e-16)
(0.999523 -0.00093214 -8.33582e-16)
(0.999594 -0.000983275 -4.92062e-16)
(0.999663 -0.00105721 2.80261e-16)
(0.999728 -0.00117514 -3.2858e-16)
(0.999788 -0.00137931 -2.37918e-16)
(0.999846 -0.00177668 -8.82746e-16)
(0.999974 -0.00272195 2.89451e-16)
(0.999506 -0.000154611 -7.73741e-17)
(0.999454 -0.000427053 -1.15053e-16)
(0.999383 -0.000623815 -5.51964e-18)
(0.999332 -0.000743387 9.83952e-17)
(0.99932 -0.000808572 1.26349e-16)
(0.999343 -0.000847006 -1.64163e-16)
(0.999392 -0.000876307 -1.74908e-16)
(0.999455 -0.000908102 2.16615e-16)
(0.999526 -0.000946589 1.0537e-15)
(0.999599 -0.000998585 -9.93537e-17)
(0.999669 -0.00107302 -1.56757e-16)
(0.999735 -0.00119137 2.75871e-16)
(0.999796 -0.00139625 4.1445e-18)
(0.999855 -0.00179511 2.26909e-16)
(1.00003 -0.00274529 4.74191e-17)
(0.999473 -0.000151326 1.11561e-16)
(0.999427 -0.000418902 7.31299e-17)
(0.999365 -0.000615406 -1.89105e-16)
(0.999321 -0.000738921 -7.6045e-17)
(0.999314 -0.000809816 5.46358e-18)
(0.99934 -0.000853525 3.09714e-16)
(0.999391 -0.000886812 4.21124e-16)
(0.999456 -0.000921187 3.10151e-16)
(0.999529 -0.000961252 -4.9573e-16)
(0.999604 -0.00101411 6.69886e-16)
(0.999675 -0.00108906 -2.13091e-16)
(0.999742 -0.0012078 1.67765e-16)
(0.999804 -0.00141339 7.79198e-16)
(0.999865 -0.00181385 -2.44398e-17)
(1.00007 -0.00276944 1.47601e-18)
(0.99944 -0.000148443 -6.46872e-18)
(0.999401 -0.000411704 -6.33021e-17)
(0.999347 -0.000608048 2.59191e-16)
(0.99931 -0.000735293 1.10279e-16)
(0.999308 -0.000811601 -4.16699e-17)
(0.999337 -0.000860386 3.52423e-16)
(0.99939 -0.000897567 -7.22088e-16)
(0.999458 -0.000934501 -4.55666e-16)
(0.999532 -0.000976152 -3.88481e-16)
(0.999608 -0.00102988 -5.64446e-16)
(0.999681 -0.00110534 3.33792e-16)
(0.99975 -0.00122447 -1.42713e-16)
(0.999813 -0.00143078 -1.04374e-15)
(0.999874 -0.00183292 4.66346e-16)
(1.00012 -0.00279439 9.99734e-17)
(0.999408 -0.000145944 -3.67671e-17)
(0.999374 -0.000405407 2.42441e-17)
(0.999328 -0.000601707 -3.15267e-17)
(0.999299 -0.000732488 -1.91928e-16)
(0.999301 -0.000813946 1.43817e-17)
(0.999334 -0.00086761 1.86132e-16)
(0.999389 -0.00090859 3.25453e-16)
(0.999458 -0.000948055 4.75959e-16)
(0.999535 -0.000991291 2.2286e-16)
(0.999613 -0.00104589 -2.03231e-16)
(0.999688 -0.00112187 3.14928e-17)
(0.999757 -0.00124138 2.23462e-16)
(0.999821 -0.00144839 -1.24686e-16)
(0.999884 -0.00185232 -5.48754e-16)
(1.00016 -0.00281999 1.76102e-17)
(0.999377 -0.000143797 -2.72256e-17)
(0.999348 -0.000399948 1.16139e-17)
(0.999309 -0.000596312 6.33725e-17)
(0.999286 -0.000730471 7.69953e-17)
(0.999294 -0.000816834 -1.09101e-16)
(0.999329 -0.000875203 -7.11439e-16)
(0.999387 -0.000919892 -2.0989e-16)
(0.999459 -0.000961863 -3.50318e-16)
(0.999537 -0.00100668 -6.06583e-16)
(0.999617 -0.00106216 6.59596e-16)
(0.999694 -0.00113865 3.80639e-16)
(0.999765 -0.00125853 -4.10551e-16)
(0.99983 -0.00146625 1.04927e-15)
(0.999894 -0.00187202 2.09004e-16)
(1.00021 -0.00284622 6.8027e-17)
(0.999346 -0.000141986 1.70035e-17)
(0.999322 -0.000395286 -8.39977e-17)
(0.99929 -0.000591837 -3.49114e-16)
(0.999274 -0.000729233 8.16512e-17)
(0.999286 -0.000820287 3.43002e-16)
(0.999325 -0.000883189 3.01896e-17)
(0.999385 -0.000931498 6.46295e-17)
(0.999459 -0.00097594 -1.33294e-17)
(0.99954 -0.00102234 7.403e-16)
(0.999621 -0.00107869 -1.92377e-16)
(0.9997 -0.00115568 -5.17335e-16)
(0.999773 -0.00127592 -1.09587e-16)
(0.999839 -0.00148435 -4.53464e-17)
(0.999904 -0.00189203 2.25946e-16)
(1.00025 -0.00287295 -3.66599e-16)
(0.999316 -0.000140483 2.26248e-17)
(0.999297 -0.000391367 6.1373e-17)
(0.999271 -0.000588223 2.29294e-16)
(0.999261 -0.000728741 -2.04088e-16)
(0.999277 -0.000824284 -2.10523e-16)
(0.99932 -0.00089157 1.12659e-16)
(0.999383 -0.000943416 2.15803e-16)
(0.999459 -0.000990303 4.25808e-16)
(0.999542 -0.00103827 -5.66444e-16)
(0.999626 -0.0010955 1.20351e-17)
(0.999706 -0.00117299 -1.67134e-16)
(0.99978 -0.00129358 1.62992e-17)
(0.999848 -0.00150271 -2.11844e-16)
(0.999914 -0.00191236 6.48564e-17)
(1.00029 -0.00290019 6.08513e-16)
(0.999286 -0.000139278 -2.89033e-18)
(0.999271 -0.000388157 1.05775e-16)
(0.999252 -0.000585448 -1.04359e-16)
(0.999247 -0.000728987 2.8763e-16)
(0.999268 -0.000828847 1.0067e-16)
(0.999314 -0.00090037 1.60878e-16)
(0.99938 -0.000955669 3.02096e-16)
(0.999459 -0.00100497 -6.72284e-16)
(0.999544 -0.00105449 1.52937e-16)
(0.99963 -0.0011126 -4.40021e-17)
(0.999712 -0.00119057 4.7078e-16)
(0.999788 -0.0013115 -2.81644e-16)
(0.999857 -0.00152134 -1.35271e-16)
(0.999924 -0.00193301 -4.61147e-17)
(1.00033 -0.00292788 -1.33231e-16)
(0.999256 -0.000138346 -3.31855e-17)
(0.999246 -0.000385611 -2.5169e-17)
(0.999232 -0.000583458 3.32336e-16)
(0.999233 -0.000729941 -2.19055e-16)
(0.999259 -0.000833953 1.54657e-16)
(0.999308 -0.000909585 -2.85486e-16)
(0.999378 -0.000968261 -6.07057e-17)
(0.999459 -0.00101994 4.91608e-16)
(0.999546 -0.00107101 2.35092e-16)
(0.999634 -0.00112999 3.46627e-16)
(0.999718 -0.00120844 -5.90008e-16)
(0.999796 -0.0013297 6.54681e-16)
(0.999867 -0.00154023 -1.71254e-16)
(0.999935 -0.00195396 -1.59609e-16)
(1.00037 -0.00295601 -1.09061e-16)
(0.999227 -0.000137679 4.29404e-17)
(0.999221 -0.000383704 1.29131e-17)
(0.999212 -0.000582238 -3.94772e-16)
(0.999219 -0.000731598 -1.62734e-17)
(0.999249 -0.000839626 -1.25296e-16)
(0.999302 -0.000919242 2.32715e-16)
(0.999374 -0.000981219 -1.00121e-16)
(0.999458 -0.00103525 -2.03281e-16)
(0.999548 -0.00108785 3.18107e-16)
(0.999638 -0.00114768 -7.18862e-17)
(0.999725 -0.0012266 7.5092e-16)
(0.999804 -0.00134818 -7.65892e-16)
(0.999877 -0.0015594 2.32734e-16)
(0.999946 -0.00197522 -7.66953e-17)
(1.00041 -0.0029845 -1.56781e-16)
(0.999199 -0.000137258 -5.74839e-18)
(0.999196 -0.000382396 -1.80599e-16)
(0.999192 -0.000581744 1.53083e-16)
(0.999204 -0.000733932 5.7578e-17)
(0.999239 -0.000845846 -7.7174e-17)
(0.999295 -0.000929336 -7.72974e-17)
(0.999371 -0.000994547 1.72852e-16)
(0.999457 -0.00105089 3.52028e-16)
(0.99955 -0.00110502 -3.81061e-16)
(0.999642 -0.0011657 -7.93739e-17)
(0.999731 -0.00124507 -4.15595e-16)
(0.999813 -0.00136695 7.67184e-16)
(0.999886 -0.00157885 -8.37929e-17)
(0.999957 -0.00199679 -4.26656e-17)
(1.00044 -0.00301337 1.48292e-16)
(0.99917 -0.000137075 6.30963e-18)
(0.99917 -0.000381666 1.15431e-16)
(0.999172 -0.000581961 -5.55319e-18)
(0.999189 -0.000736938 1.29103e-16)
(0.999228 -0.000852631 -1.63623e-16)
(0.999288 -0.000939892 5.71721e-17)
(0.999367 -0.00100827 -5.6093e-17)
(0.999456 -0.0010669 -2.94169e-16)
(0.999551 -0.00112253 7.94693e-17)
(0.999647 -0.00118405 -3.08112e-16)
(0.999738 -0.00126386 9.4205e-17)
(0.999821 -0.00138603 -4.23904e-16)
(0.999897 -0.0015986 -5.35968e-17)
(0.999968 -0.00201868 8.42527e-17)
(1.00048 -0.00304261 -1.38211e-16)
(0.999142 -0.000137114 -3.13376e-17)
(0.999145 -0.000381481 -2.93511e-17)
(0.999152 -0.000582849 -8.81989e-18)
(0.999173 -0.000740592 -1.83546e-16)
(0.999217 -0.000859961 -7.98424e-18)
(0.999281 -0.000950903 1.24257e-16)
(0.999362 -0.00102238 2.26896e-17)
(0.999455 -0.00108327 3.01277e-16)
(0.999553 -0.00114038 -1.1849e-16)
(0.999651 -0.00120273 4.32471e-16)
(0.999744 -0.00128297 -5.45152e-17)
(0.99983 -0.00140541 -3.14922e-18)
(0.999907 -0.00161863 -1.54579e-16)
(0.99998 -0.00204087 -3.59689e-16)
(1.00052 -0.00307219 1.62177e-16)
(0.999114 -0.00013737 2.6464e-17)
(0.99912 -0.000381826 9.11363e-17)
(0.999131 -0.000584402 3.33227e-17)
(0.999157 -0.000744894 -3.45994e-17)
(0.999205 -0.000867858 3.49484e-16)
(0.999273 -0.000962394 -7.47082e-17)
(0.999358 -0.00103692 -3.20034e-16)
(0.999454 -0.00110003 -1.68862e-16)
(0.999554 -0.00115861 1.83e-16)
(0.999655 -0.00122178 -4.69638e-16)
(0.999751 -0.00130242 -2.36554e-16)
(0.999838 -0.00142511 -7.39422e-17)
(0.999917 -0.00163897 2.95772e-16)
(0.999992 -0.00206337 -1.53669e-16)
(1.00056 -0.00310208 -1.28318e-16)
(0.999085 -0.00013783 -5.51905e-17)
(0.999095 -0.000382673 -5.70055e-17)
(0.99911 -0.000586584 -1.0884e-16)
(0.999141 -0.000749822 2.49994e-17)
(0.999193 -0.000876304 5.52426e-17)
(0.999265 -0.00097436 -9.29156e-17)
(0.999353 -0.00105187 -3.37569e-17)
(0.999452 -0.00111718 -3.31604e-17)
(0.999556 -0.00117721 3.53815e-17)
(0.999659 -0.00124118 1.10832e-16)
(0.999757 -0.00132222 5.09772e-16)
(0.999847 -0.00144514 1.93016e-16)
(0.999928 -0.00165962 -1.73683e-16)
(1 -0.00208619 3.23122e-16)
(1.0006 -0.00313232 5.83126e-17)
(0.999058 -0.00013849 3.7906e-17)
(0.99907 -0.00038401 -1.23881e-16)
(0.999089 -0.000589389 1.35558e-16)
(0.999125 -0.000755375 -1.46623e-16)
(0.999181 -0.000885318 -1.11706e-16)
(0.999256 -0.000986824 -1.03697e-16)
(0.999348 -0.00106727 -4.28365e-17)
(0.99945 -0.00113475 -1.21689e-16)
(0.999557 -0.00119621 -2.20394e-16)
(0.999663 -0.00126097 2.30581e-16)
(0.999764 -0.00134237 -2.94037e-16)
(0.999856 -0.00146551 -2.55072e-16)
(0.999939 -0.0016806 1.76659e-16)
(1.00002 -0.00210933 -1.81018e-16)
(1.00063 -0.00316287 -8.38163e-17)
(0.99903 -0.000139339 1.16088e-17)
(0.999044 -0.000385811 -1.77926e-17)
(0.999068 -0.000592787 -4.25035e-17)
(0.999108 -0.000761534 3.89068e-17)
(0.999168 -0.00089488 -1.26955e-16)
(0.999248 -0.000999777 9.68918e-17)
(0.999343 -0.00108312 3.28022e-16)
(0.999448 -0.00115274 4.57862e-16)
(0.999558 -0.00121561 -1.19763e-16)
(0.999667 -0.00128113 -2.57698e-16)
(0.999771 -0.00136289 -1.32035e-16)
(0.999865 -0.00148622 2.03321e-16)
(0.99995 -0.00170189 -2.48237e-16)
(1.00003 -0.00213277 8.04687e-16)
(1.00067 -0.00319375 3.56887e-16)
(0.999002 -0.000140375 -4.68557e-17)
(0.999019 -0.00038807 7.58531e-17)
(0.999046 -0.000596777 1.13049e-16)
(0.99909 -0.000768302 1.20503e-16)
(0.999155 -0.000905013 -1.48812e-16)
(0.999238 -0.00101325 -2.92743e-17)
(0.999337 -0.00109944 7.55657e-17)
(0.999446 -0.00117117 1.96354e-17)
(0.999559 -0.00123543 3.60386e-16)
(0.999671 -0.00130171 2.27046e-16)
(0.999778 -0.00138379 4.02875e-16)
(0.999874 -0.00150728 5.37105e-17)
(0.999961 -0.00172352 9.04823e-17)
(1.00004 -0.00215655 -3.64322e-16)
(1.00071 -0.0032249 -3.41401e-16)
(0.998974 -0.000141586 1.99661e-17)
(0.998994 -0.000390766 5.15228e-17)
(0.999025 -0.000601332 -2.19084e-16)
(0.999073 -0.000775663 2.01309e-16)
(0.999141 -0.000915701 1.62332e-16)
(0.999229 -0.00102722 3.11808e-16)
(0.999331 -0.00111622 -5.97944e-17)
(0.999444 -0.00119004 -3.3342e-17)
(0.99956 -0.00125568 -1.16406e-16)
(0.999675 -0.00132269 6.77292e-17)
(0.999785 -0.00140508 -7.08604e-16)
(0.999884 -0.00152871 5.51145e-16)
(0.999973 -0.00174548 -5.15841e-17)
(1.00005 -0.00218065 -5.18626e-16)
(1.00075 -0.00325637 2.62885e-16)
(0.998946 -0.000142975 3.56034e-17)
(0.998968 -0.000393893 7.52785e-17)
(0.999003 -0.000606452 2.39432e-16)
(0.999055 -0.000783619 -3.38808e-16)
(0.999128 -0.000926962 2.68713e-17)
(0.999219 -0.00104173 -2.40008e-16)
(0.999325 -0.00113351 2.3729e-17)
(0.999441 -0.00120939 -4.59167e-16)
(0.999561 -0.00127638 3.09117e-16)
(0.99968 -0.0013441 -3.72138e-16)
(0.999792 -0.00142677 5.3573e-16)
(0.999894 -0.00155052 -6.12757e-16)
(0.999984 -0.0017678 -3.02576e-16)
(1.00007 -0.0022051 2.12673e-16)
(1.00079 -0.0032885 -2.10288e-16)
(0.998918 -0.00014453 -4.21371e-17)
(0.998942 -0.000397432 -3.57605e-17)
(0.99898 -0.000612112 -4.20143e-17)
(0.999037 -0.000792154 1.29401e-17)
(0.999114 -0.00093878 -1.97883e-17)
(0.999209 -0.00105676 -2.88113e-16)
(0.999319 -0.00115128 -2.67733e-16)
(0.999439 -0.00122921 1.81349e-16)
(0.999562 -0.00129752 8.68891e-17)
(0.999684 -0.00136595 5.65154e-16)
(0.999799 -0.00144887 -4.21183e-16)
(0.999903 -0.00157271 1.08571e-16)
(0.999996 -0.00179047 3.97689e-17)
(1.00008 -0.00222987 -8.56463e-17)
(1.00082 -0.00332093 3.17886e-16)
(0.99889 -0.000146255 2.48347e-17)
(0.998916 -0.000401384 -4.23837e-17)
(0.998958 -0.000618317 1.75766e-17)
(0.999018 -0.000801276 1.73846e-16)
(0.999099 -0.000951178 8.48592e-17)
(0.999198 -0.00107235 4.38289e-16)
(0.999312 -0.00116958 8.76962e-17)
(0.999436 -0.00124952 -7.71561e-17)
(0.999563 -0.00131915 -2.68038e-16)
(0.999688 -0.00138825 -3.66729e-16)
(0.999806 -0.0014714 3.19793e-16)
(0.999913 -0.00159529 2.57565e-17)
(1.00001 -0.0018135 1.57685e-16)
(1.00009 -0.00225501 1.79375e-16)
(1.00086 -0.00335385 -7.31134e-17)
(0.998861 -0.000148139 -3.10852e-17)
(0.99889 -0.000405732 -1.11318e-16)
(0.998935 -0.000625047 -6.99318e-17)
(0.998999 -0.000810972 1.23426e-16)
(0.999084 -0.000964141 7.97706e-17)
(0.999188 -0.00108847 5.20033e-17)
(0.999306 -0.00118839 2.04836e-17)
(0.999433 -0.00127033 3.49251e-16)
(0.999564 -0.00134126 1.16749e-16)
(0.999692 -0.00141101 -2.45522e-16)
(0.999814 -0.00149436 -4.9354e-17)
(0.999924 -0.00161828 -2.53383e-16)
(1.00002 -0.0018369 -2.33013e-16)
(1.00011 -0.00228048 5.7491e-17)
(1.0009 -0.00338698 -1.16797e-16)
(0.998833 -0.000150186 2.52055e-17)
(0.998864 -0.000410475 1.35567e-16)
(0.998912 -0.000632304 -7.99966e-17)
(0.99898 -0.000821248 -5.68497e-17)
(0.999069 -0.00097769 8.04314e-17)
(0.999177 -0.00110517 -5.10824e-17)
(0.999299 -0.00120775 -8.29296e-17)
(0.99943 -0.00129167 -2.15839e-16)
(0.999564 -0.00136387 4.70757e-17)
(0.999697 -0.00143425 5.36649e-16)
(0.999821 -0.00151778 1.79754e-16)
(0.999934 -0.00164169 4.76996e-16)
(1.00003 -0.00186069 2.01007e-16)
(1.00012 -0.00230633 2.78738e-16)
(1.00094 -0.00342083 2.49897e-17)
(0.998804 -0.000152388 3.04061e-17)
(0.998837 -0.000415599 3.7824e-17)
(0.998888 -0.000640072 9.79156e-17)
(0.99896 -0.000832091 -1.73898e-16)
(0.999053 -0.00099181 -4.43532e-16)
(0.999165 -0.00112242 -7.48309e-17)
(0.999291 -0.00122765 -3.68236e-18)
(0.999427 -0.00131354 4.72928e-17)
(0.999565 -0.00138699 2.49405e-17)
(0.999701 -0.00145798 -3.37186e-16)
(0.999829 -0.00154164 2.00852e-16)
(0.999945 -0.00166551 -3.23556e-16)
(1.00005 -0.00188485 -1.05084e-16)
(1.00014 -0.00233251 -3.44308e-16)
(1.00098 -0.00345485 -1.90583e-17)
(0.998775 -0.00015475 -4.23616e-17)
(0.99881 -0.000421109 -7.24128e-17)
(0.998865 -0.000648358 -6.42236e-17)
(0.99894 -0.000843513 -3.31083e-17)
(0.999038 -0.00100653 6.59519e-17)
(0.999153 -0.00114025 -1.74575e-16)
(0.999284 -0.00124812 7.38301e-17)
(0.999423 -0.00133595 1.93559e-16)
(0.999566 -0.00141064 -2.5575e-16)
(0.999705 -0.00148221 1.10859e-16)
(0.999837 -0.00156599 1.22826e-16)
(0.999956 -0.00168977 9.38412e-17)
(1.00006 -0.00190941 6.59838e-16)
(1.00015 -0.00235906 3.42119e-17)
(1.00102 -0.00348942 -1.58235e-16)
(0.998746 -0.000157264 1.02513e-17)
(0.998783 -0.000426991 -4.12552e-18)
(0.998841 -0.000657147 -7.1276e-17)
(0.99892 -0.000855502 2.81265e-16)
(0.999021 -0.00102182 8.26868e-18)
(0.999142 -0.00115867 1.83736e-16)
(0.999276 -0.00126916 -1.0162e-16)
(0.99942 -0.00135892 -5.19634e-16)
(0.999566 -0.00143482 2.39066e-16)
(0.99971 -0.00150696 1.53864e-17)
(0.999845 -0.00159082 -5.73257e-16)
(0.999967 -0.00171448 3.83974e-18)
(1.00007 -0.00193437 -4.23343e-16)
(1.00017 -0.00238596 2.27797e-16)
(1.00107 -0.00352417 5.60868e-17)
(0.998717 -0.000159935 1.44064e-17)
(0.998755 -0.000433251 -1.05208e-17)
(0.998816 -0.000666446 1.70536e-16)
(0.998899 -0.000868069 -1.11428e-16)
(0.999005 -0.00103773 -1.7252e-16)
(0.999129 -0.00117769 -4.17942e-16)
(0.999268 -0.00129079 -2.01359e-16)
(0.999416 -0.00138247 2.19969e-16)
(0.999567 -0.00145957 5.34557e-17)
(0.999714 -0.00153224 -2.8696e-16)
(0.999853 -0.00161615 1.84982e-16)
(0.999978 -0.00173965 -4.96903e-17)
(1.00009 -0.00195976 1.57001e-16)
(1.00018 -0.00241324 -4.09819e-17)
(1.00111 -0.0035593 -1.06657e-16)
(0.998687 -0.000162755 -3.55681e-17)
(0.998728 -0.000439877 3.02636e-17)
(0.998791 -0.000676242 -9.939e-17)
(0.998878 -0.000881204 -6.0299e-17)
(0.998988 -0.00105422 2.68034e-16)
(0.999117 -0.00119731 6.46868e-16)
(0.99926 -0.00131301 4.2325e-16)
(0.999412 -0.00140659 1.67167e-16)
(0.999567 -0.00148487 3.07477e-17)
(0.999719 -0.00155806 3.50024e-17)
(0.999861 -0.00164198 1.26161e-16)
(0.99999 -0.00176528 -1.8831e-16)
(1.0001 -0.00198555 -2.55034e-17)
(1.0002 -0.00244085 1.37092e-16)
(1.00115 -0.00359461 2.79744e-16)
(0.998657 -0.000165733 1.07895e-17)
(0.9987 -0.000446877 -3.81997e-17)
(0.998766 -0.000686545 8.71346e-19)
(0.998857 -0.000894922 8.76728e-17)
(0.998971 -0.00107134 5.85273e-17)
(0.999104 -0.00121755 -3.74918e-16)
(0.999252 -0.00133585 -1.83373e-16)
(0.999409 -0.00143133 -3.21802e-16)
(0.999568 -0.00151077 -6.94683e-17)
(0.999723 -0.00158444 7.49457e-16)
(0.99987 -0.00166833 9.04747e-18)
(1 -0.0017914 -1.38039e-16)
(1.00012 -0.00201177 -4.24116e-16)
(1.00022 -0.00246884 -1.95505e-17)
(1.00119 -0.00363014 -7.30293e-17)
(0.998627 -0.00016886 2.43676e-17)
(0.998671 -0.000454241 -3.26947e-18)
(0.998741 -0.000697344 3.11799e-17)
(0.998835 -0.000909215 -7.87918e-17)
(0.998953 -0.00108906 -2.29923e-17)
(0.999091 -0.00123842 1.53589e-16)
(0.999243 -0.00135931 -2.16204e-16)
(0.999405 -0.00145668 2.69977e-16)
(0.999568 -0.00153726 4.93799e-18)
(0.999728 -0.00161139 -3.99974e-16)
(0.999878 -0.00169523 -8.56848e-17)
(1.00001 -0.001818 5.29926e-16)
(1.00013 -0.00203843 1.8578e-16)
(1.00023 -0.00249719 -4.90001e-16)
(1.00123 -0.00366589 -3.68943e-17)
(0.998596 -0.000172145 -1.77492e-17)
(0.998642 -0.000461977 5.63379e-17)
(0.998715 -0.000708651 1.03872e-17)
(0.998813 -0.000924095 -1.6894e-16)
(0.998935 -0.00110741 1.94686e-17)
(0.999077 -0.00125993 -6.3121e-18)
(0.999234 -0.00138342 5.02408e-16)
(0.9994 -0.00148267 2.76512e-16)
(0.999569 -0.00156438 -6.84353e-16)
(0.999733 -0.00163894 -3.00875e-16)
(0.999887 -0.00172268 1.78848e-16)
(1.00003 -0.00184512 2.6123e-18)
(1.00015 -0.00206556 4.45667e-16)
(1.00025 -0.00252594 4.50604e-16)
(1.00128 -0.00370184 1.23855e-16)
(0.998565 -0.000175579 -8.04746e-18)
(0.998613 -0.000470076 7.26804e-18)
(0.998689 -0.000720453 1.13395e-16)
(0.998791 -0.000939554 2.90999e-16)
(0.998917 -0.00112638 -3.46108e-17)
(0.999064 -0.00128209 -3.28299e-16)
(0.999226 -0.00140818 -3.76538e-16)
(0.999396 -0.00150929 -7.06839e-16)
(0.999569 -0.00159211 4.50023e-16)
(0.999738 -0.00166708 3.57868e-16)
(0.999896 -0.00175068 -1.61075e-16)
(1.00004 -0.00187274 -2.77345e-16)
(1.00016 -0.00209313 -4.378e-16)
(1.00027 -0.00255506 -3.5785e-17)
(1.00132 -0.00373808 -3.7068e-16)
(0.998534 -0.000179173 1.20025e-17)
(0.998584 -0.000478549 -3.55714e-17)
(0.998662 -0.000732768 -1.33349e-16)
(0.998768 -0.000955613 -2.30561e-16)
(0.998898 -0.00114601 -4.82865e-17)
(0.99905 -0.00130491 3.12817e-16)
(0.999216 -0.00143361 2.33491e-16)
(0.999392 -0.00153658 7.17773e-16)
(0.99957 -0.00162049 7.33636e-18)
(0.999743 -0.00169584 -1.52747e-16)
(0.999906 -0.00177927 1.22548e-17)
(1.00005 -0.0019009 -2.76895e-16)
(1.00018 -0.00212117 -3.73854e-16)
(1.00029 -0.00258458 -3.34232e-16)
(1.00136 -0.00377454 3.87434e-16)
(0.998502 -0.000182919 -4.10212e-17)
(0.998554 -0.000487389 9.05554e-17)
(0.998635 -0.000745586 -1.03894e-17)
(0.998745 -0.000972263 2.78165e-16)
(0.998879 -0.00116627 -1.08325e-16)
(0.999035 -0.0013284 -7.59449e-17)
(0.999207 -0.00145972 7.89243e-17)
(0.999388 -0.00156455 -4.53225e-16)
(0.99957 -0.00164953 -3.23632e-16)
(0.999748 -0.00172523 -1.13072e-17)
(0.999915 -0.00180845 9.88632e-17)
(1.00007 -0.00192959 1.52645e-16)
(1.0002 -0.0021497 3.9099e-16)
(1.00031 -0.00261451 3.96184e-16)
(1.00141 -0.00381137 -5.44468e-17)
(0.99847 -0.000186827 3.3753e-18)
(0.998523 -0.000496607 -2.98907e-17)
(0.998608 -0.00075892 -1.83953e-16)
(0.998721 -0.000989522 -2.86892e-16)
(0.99886 -0.0011872 1.02888e-16)
(0.999021 -0.00135259 1.45315e-16)
(0.999197 -0.00148653 -3.568e-16)
(0.999383 -0.00159321 -8.74414e-17)
(0.999571 -0.00167926 3.11192e-16)
(0.999754 -0.00175527 -1.23626e-16)
(0.999925 -0.00183824 1.33476e-16)
(1.00008 -0.00195885 1.36896e-16)
(1.00021 -0.00217873 6.03283e-17)
(1.00033 -0.00264487 -4.90812e-16)
(1.00145 -0.00384847 -1.10002e-16)
(0.998437 -0.000190889 2.85744e-17)
(0.998492 -0.000506196 -4.93146e-17)
(0.99858 -0.000772763 1.35772e-16)
(0.998697 -0.00100738 2.43083e-16)
(0.99884 -0.00120878 7.7654e-17)
(0.999006 -0.00137747 -2.81099e-16)
(0.999188 -0.00151404 1.79579e-16)
(0.999378 -0.00162258 1.44475e-16)
(0.999571 -0.00170966 2.72096e-16)
(0.999759 -0.00178597 1.76034e-16)
(0.999935 -0.00186865 -3.25036e-16)
(1.00009 -0.00198867 3.65444e-17)
(1.00023 -0.00220825 -5.26916e-17)
(1.00034 -0.00267567 -1.40522e-17)
(1.0015 -0.00388599 4.31755e-17)
(0.998404 -0.000195118 3.48755e-17)
(0.998461 -0.00051617 5.54227e-18)
(0.998551 -0.000787133 1.90992e-16)
(0.998672 -0.00102587 -7.06922e-17)
(0.99882 -0.00123106 1.62174e-16)
(0.998991 -0.00140307 1.39755e-16)
(0.999178 -0.00154229 5.19763e-17)
(0.999374 -0.00165268 1.01233e-16)
(0.999572 -0.00174079 -1.2657e-16)
(0.999765 -0.00181736 -1.20383e-17)
(0.999945 -0.00189969 -9.35435e-17)
(1.00011 -0.00201908 -3.60933e-17)
(1.00025 -0.0022383 1.27479e-16)
(1.00037 -0.0027069 -1.51958e-18)
(1.00154 -0.0039238 -1.26768e-16)
(0.998371 -0.000199505 5.64115e-18)
(0.998429 -0.000526523 -9.68459e-17)
(0.998523 -0.000802023 -2.08646e-16)
(0.998647 -0.00104498 -1.30939e-16)
(0.9988 -0.00125402 -1.05476e-16)
(0.998975 -0.00142939 3.4361e-18)
(0.999168 -0.00157128 -5.65443e-17)
(0.999369 -0.00168352 -1.17581e-16)
(0.999572 -0.00177264 -5.78642e-17)
(0.99977 -0.00184944 -1.72533e-16)
(0.999956 -0.00193139 2.89027e-16)
(1.00012 -0.00205008 4.49395e-17)
(1.00027 -0.00226887 -2.72672e-16)
(1.00039 -0.0027386 2.59956e-16)
(1.00159 -0.00396209 4.41337e-17)
(0.998337 -0.000204063 -5.50027e-17)
(0.998397 -0.000537269 7.53336e-17)
(0.998493 -0.000817452 -7.9413e-18)
(0.998622 -0.00106472 -2.14894e-17)
(0.998779 -0.00127768 -1.54602e-16)
(0.99896 -0.00145646 1.974e-16)
(0.999157 -0.00160104 -5.64669e-18)
(0.999364 -0.00171513 1.88301e-16)
(0.999573 -0.00180524 1.52446e-17)
(0.999776 -0.00188224 -4.74738e-18)
(0.999966 -0.00196376 -4.3278e-16)
(1.00014 -0.00208169 -1.05665e-16)
(1.00028 -0.0023 3.09773e-16)
(1.00041 -0.00277077 -1.96031e-16)
(1.00164 -0.0040007 1.07183e-16)
(0.998302 -0.000208784 1.81789e-17)
(0.998364 -0.000548402 6.0636e-17)
(0.998464 -0.000833411 -6.29156e-17)
(0.998596 -0.0010851 -6.2391e-17)
(0.998758 -0.00130205 1.06381e-16)
(0.998944 -0.00148427 -1.78135e-16)
(0.999147 -0.00163156 -2.02887e-16)
(0.999359 -0.0017475 -9.51521e-18)
(0.999574 -0.00183859 -3.99243e-17)
(0.999782 -0.00191576 2.78863e-16)
(0.999977 -0.00199681 2.56016e-16)
(1.00015 -0.00211393 1.25035e-16)
(1.0003 -0.00233167 7.4351e-17)
(1.00043 -0.00280342 4.39155e-16)
(1.00169 -0.00403982 -2.10965e-16)
(0.998267 -0.000213682 -3.18994e-17)
(0.998331 -0.00055994 -8.07723e-17)
(0.998433 -0.000849925 3.0692e-16)
(0.99857 -0.00110615 2.51099e-16)
(0.998736 -0.00132716 -6.11978e-17)
(0.998927 -0.00151287 -9.28797e-17)
(0.999136 -0.00166288 9.05444e-18)
(0.999354 -0.00178068 -2.56636e-16)
(0.999574 -0.00187273 -3.04173e-16)
(0.999788 -0.00195003 8.83874e-17)
(0.999989 -0.00203056 2.30073e-16)
(1.00017 -0.0021468 -1.41243e-16)
(1.00032 -0.00236391 -1.86666e-16)
(1.00045 -0.00283656 -4.30881e-16)
(1.00174 -0.0040793 2.39799e-17)
(0.998231 -0.000218748 6.66271e-17)
(0.998297 -0.000571877 9.50373e-17)
(0.998403 -0.000866987 -2.82378e-16)
(0.998543 -0.00112785 -1.19503e-16)
(0.998714 -0.001353 1.9637e-16)
(0.998911 -0.00154225 2.78428e-16)
(0.999125 -0.00169501 1.02118e-16)
(0.999349 -0.00181467 1.56881e-16)
(0.999575 -0.00190766 2.03996e-17)
(0.999795 -0.00198507 -3.23498e-16)
(1 -0.00206503 -2.24425e-16)
(1.00018 -0.00218033 8.64423e-17)
(1.00034 -0.00239674 -3.04859e-16)
(1.00047 -0.00287021 5.19087e-16)
(1.00179 -0.00411931 1.39572e-16)
(0.998195 -0.000223997 -5.82585e-17)
(0.998263 -0.000584231 -7.39369e-17)
(0.998371 -0.000884619 3.68399e-17)
(0.998516 -0.00115023 -9.03702e-17)
(0.998692 -0.0013796 -2.15221e-16)
(0.998894 -0.00157244 -1.29728e-16)
(0.999114 -0.00172798 9.21209e-17)
(0.999344 -0.0018495 1.08299e-17)
(0.999576 -0.00194342 3.29741e-16)
(0.999801 -0.0020209 3.42998e-16)
(1.00001 -0.00210024 1.62307e-17)
(1.0002 -0.00221454 2.08326e-17)
(1.00036 -0.00243017 6.62158e-16)
(1.0005 -0.00290439 3.50458e-17)
(1.00184 -0.00415971 4.38654e-17)
(0.998158 -0.000229422 1.2891e-17)