/*--------------------------------*- C++ -*----------------------------------*\
  =========                 |
  \\      /  F ield         | OpenFOAM: The Open Source CFD Toolbox
   \\    /   O peration     | Website:  https://openfoam.org
    \\  /    A nd           | Version:  6.0
     \\/     M anipulation  |
\*---------------------------------------------------------------------------*/
FoamFile
{
    version     2.0;
    format      ascii;
    class       volScalarField;
    location    "3";
    object      p;
}
// * * * * * * * * * * * * * * * * * * * * * * * * * * * * * * * * * * * * * //

dimensions      [0 2 -2 0 0 0 0];

internalField   nonuniform List<scalar> 
62000
(
0.0813354
0.0814385
0.0815755
0.0817463
0.0819517
0.0821908
0.0824651
0.0827735
0.0831173
0.0834955
0.0839091
0.0843579
0.0848423
0.0853628
0.0859195
0.0865141
0.0871462
0.0878185
0.0885308
0.0892865
0.0900858
0.0909331
0.0918293
0.09278
0.0937876
0.0948595
0.0959998
0.0972184
0.0985219
0.0999226
0.101429
0.103057
0.104827
0.106779
0.108948
0.11136
0.114027
0.116954
0.120122
0.12348
0.126933
0.130324
0.133427
0.135945
0.137515
0.137743
0.13625
0.132738
0.127073
0.11933
0.10983
0.0990777
0.087787
0.0765212
0.0658177
0.0559826
0.0471289
0.0392891
0.0323729
0.0285574
0.0811734
0.0813737
0.0815933
0.0818348
0.0821
0.0823894
0.0827054
0.0830482
0.08342
0.0838208
0.0842519
0.0847141
0.0852076
0.0857338
0.0862924
0.0868853
0.087512
0.0881752
0.0888745
0.0896131
0.0903914
0.0912133
0.0920805
0.092998
0.0939694
0.0950017
0.0961011
0.0972774
0.0985403
0.0999025
0.101377
0.10298
0.104736
0.10669
0.108883
0.111345
0.1141
0.117161
0.120523
0.124152
0.127971
0.131847
0.135581
0.138899
0.141459
0.142877
0.142764
0.140789
0.136757
0.130659
0.122713
0.113325
0.103138
0.0926674
0.0824339
0.0727431
0.063694
0.0553015
0.0474587
0.0423031
0.0805499
0.0808849
0.0812245
0.0815721
0.0819294
0.0822973
0.0826785
0.083074
0.0834867
0.0839179
0.0843701
0.084845
0.0853445
0.0858709
0.0864251
0.0870102
0.0876264
0.088277
0.0889622
0.0896858
0.0904482
0.0912537
0.0921041
0.0930045
0.0939585
0.0949732
0.0960551
0.0972139
0.0984597
0.0998057
0.101266
0.102854
0.104598
0.106544
0.108735
0.111199
0.113964
0.117046
0.120447
0.12414
0.128061
0.132094
0.136061
0.139711
0.142728
0.144747
0.14539
0.14432
0.141308
0.136294
0.129423
0.121019
0.111656
0.101791
0.0919222
0.0823492
0.0731601
0.064373
0.0559008
0.0497036
0.0801574
0.0805774
0.0809962
0.0814173
0.0818416
0.0822695
0.0827033
0.0831439
0.0835936
0.0840539
0.0845268
0.0850149
0.0855197
0.086045
0.0865915
0.0871639
0.0877629
0.0883932
0.0890556
0.089755
0.0904926
0.0912734
0.0920996
0.0929768
0.0939089
0.0949032
0.0959659
0.0971069
0.0983362
0.0996663
0.101111
0.102683
0.104409
0.106338
0.108509
0.110951
0.11369
0.116741
0.120109
0.123773
0.127677
0.131718
0.135734
0.1395
0.142724
0.145064
0.146161
0.145682
0.143386
0.139174
0.133138
0.125531
0.116865
0.107545
0.0980351
0.0886273
0.0794113
0.0704215
0.0616129
0.0548499
0.0798433
0.0803124
0.0807799
0.0812486
0.0817189
0.0821907
0.0826655
0.0831434
0.0836265
0.0841154
0.084612
0.0851182
0.0856359
0.0861679
0.0867158
0.0872838
0.0878735
0.0884897
0.089134
0.0898119
0.0905255
0.0912806
0.0920803
0.0929309
0.0938368
0.0948059
0.0958447
0.096963
0.0981708
0.0994803
0.100904
0.102453
0.104155
0.106058
0.1082
0.110606
0.113298
0.116294
0.119596
0.123186
0.127015
0.130991
0.134967
0.138738
0.142036
0.144546
0.145928
0.14586
0.144096
0.140513
0.135162
0.128239
0.120196
0.111386
0.102244
0.0930536
0.0839108
0.0748755
0.0659378
0.0589203
0.0795059
0.0800094
0.0805108
0.081013
0.0815162
0.08202
0.0825258
0.0830335
0.0835445
0.0840592
0.0845788
0.0851049
0.0856384
0.0861824
0.0867376
0.0873086
0.0878964
0.0885063
0.0891399
0.0898035
0.0904993
0.0912337
0.0920106
0.0928368
0.0937175
0.0946609
0.0956742
0.0967674
0.0979505
0.0992353
0.100634
0.102156
0.103828
0.1057
0.107805
0.110166
0.112803
0.115729
0.118948
0.122443
0.126169
0.130043
0.133932
0.137649
0.140949
0.14354
0.145105
0.145337
0.14399
0.140926
0.136161
0.129844
0.122375
0.114062
0.105305
0.0963772
0.0873875
0.0784164
0.0694845
0.0623892
0.0790346
0.0795647
0.0800931
0.0806226
0.081153
0.0816842
0.0822169
0.082751
0.0832876
0.0838267
0.0843694
0.0849168
0.0854699
0.0860308
0.0866004
0.0871823
0.0877777
0.0883912
0.0890245
0.0896835
0.0903708
0.0910931
0.0918544
0.0926624
0.0935223
0.0944435
0.0954331
0.0965018
0.0976595
0.0989183
0.10029
0.101782
0.103422
0.105257
0.107323
0.109635
0.112212
0.115065
0.118196
0.121589
0.125203
0.128963
0.132747
0.136384
0.139651
0.142279
0.143971
0.144437
0.143435
0.140817
0.136573
0.130812
0.123887
0.116057
0.107697
0.0990669
0.090287
0.0814569
0.0726109
0.0655297
0.0784802
0.0790294
0.0795769
0.0801255
0.0806754
0.0812261
0.0817787
0.082333
0.0828898
0.0834493
0.0840117
0.0845784
0.0851494
0.0857272
0.0863115
0.0869064
0.0875119
0.0881331
0.0887709
0.0894314
0.0901169
0.090834
0.0915869
0.0923831
0.0932284
0.0941323
0.0951023
0.0961493
0.0972837
0.0985172
0.0998617
0.101323
0.10293
0.10473
0.106754
0.109017
0.111533
0.114313
0.117357
0.120649
0.124153
0.127797
0.131472
0.135022
0.138242
0.140885
0.142673
0.143334
0.142631
0.140411
0.136642
0.131399
0.12499
0.117638
0.109686
0.101379
0.0928488
0.0842049
0.0754897
0.0684591
0.0777714
0.0783364
0.0789006
0.0794667
0.0800346
0.0806039
0.0811754
0.0817486
0.0823246
0.0829029
0.0834844
0.0840696
0.0846593
0.0852546
0.0858561
0.0864665
0.0870864
0.0877198
0.0883675
0.0890352
0.0897249
0.090443
0.0911937
0.0919844
0.092821
0.093713
0.0946682
0.0956978
0.096812
0.0980231
0.0993423
0.100775
0.102351
0.104115
0.106099
0.108314
0.110772
0.113483
0.116445
0.119643
0.123043
0.126581
0.130155
0.133622
0.136796
0.139447
0.141319
0.142153
0.141721
0.139868
0.136541
0.131789
0.125881
0.118999
0.111459
0.103493
0.0952378
0.0868098
0.0782464
0.0712778
0.0770122
0.0775882
0.0781632
0.0787401
0.0793189
0.0798992
0.0804822
0.0810675
0.0816559
0.0822473
0.082842
0.0834409
0.0840438
0.0846528
0.085267
0.0858901
0.0865216
0.0871659
0.0878233
0.0884992
0.0891953
0.0899176
0.0906702
0.0914599
0.0922927
0.0931778
0.0941231
0.0951397
0.096238
0.09743
0.0987273
0.100135
0.10168
0.103413
0.105358
0.107529
0.109934
0.112581
0.115467
0.11858
0.121887
0.125328
0.128811
0.132205
0.135338
0.137999
0.139949
0.140945
0.140767
0.139257
0.136349
0.132066
0.12664
0.120222
0.113097
0.105482
0.0975188
0.0893204
0.0809174
0.0740053
0.0761176
0.0767034
0.0772886
0.0778761
0.0784656
0.079057
0.0796512
0.0802477
0.0808476
0.0814505
0.0820572
0.0826681
0.0832838
0.0839054
0.084533
0.085169
0.0858136
0.0864702
0.0871392
0.0878253
0.0885303
0.0892596
0.0900171
0.0908094
0.091642
0.0925243
0.0934638
0.0944715
0.0955578
0.0967349
0.0980138
0.0993997
0.100921
0.102622
0.104534
0.106664
0.10902
0.11161
0.114431
0.117469
0.120695
0.124054
0.12746
0.130794
0.133898
0.136576
0.138607
0.139761
0.139826
0.138644
0.136138
0.132307
0.127353
0.121392
0.114682
0.107426
0.0997635
0.0918033
0.0835604
0.0766965
0.0751596
0.075752
0.0763434
0.0769371
0.077533
0.078131
0.078732
0.0793362
0.079944
0.0805557
0.0811712
0.0817917
0.0824166
0.0830482
0.0836853
0.0843313
0.0849855
0.0856519
0.0863301
0.0870254
0.0877388
0.0884755
0.0892392
0.0900359
0.090871
0.0917534
0.0926905
0.093693
0.0947711
0.0959368
0.0972016
0.0985698
0.100068
0.101746
0.103627
0.105721
0.108035
0.110575
0.113338
0.116311
0.119469
0.122759
0.126102
0.12939
0.132476
0.13518
0.137296
0.138607
0.138909
0.138043
0.135924
0.13253
0.128033
0.122523
0.116228
0.109333
0.101976
0.0942552
0.086169
0.07934
0.0740529
0.074652
0.0752511
0.0758531
0.076458
0.0770653
0.077676
0.0782898
0.0789076
0.0795289
0.0801547
0.0807851
0.0814208
0.0820628
0.082711
0.0833676
0.0840332
0.0847101
0.0853989
0.0861039
0.0868265
0.0875713
0.0883421
0.0891445
0.0899837
0.0908684
0.0918055
0.0928057
0.0938788
0.095037
0.0962908
0.0976452
0.0991275
0.100782
0.102639
0.104703
0.10698
0.109479
0.112193
0.115113
0.118215
0.12145
0.124746
0.128003
0.131086
0.133828
0.136036
0.137506
0.138041
0.137485
0.135741
0.132774
0.128727
0.123662
0.117779
0.111248
0.1042
0.096718
0.0887826
0.0819779
0.0729252
0.0735281
0.0741306
0.0747357
0.0753436
0.0759539
0.076568
0.0771856
0.0778077
0.078434
0.0790648
0.0797009
0.0803421
0.0809903
0.0816444
0.0823077
0.0829797
0.0836637
0.0843596
0.0850722
0.0858023
0.0865544
0.0873321
0.0881406
0.0889848
0.0898732
0.0908123
0.0918125
0.0928834
0.0940368
0.0952838
0.0966282
0.0980961
0.0997359
0.101571
0.10361
0.105858
0.108321
0.110996
0.113873
0.11693
0.120123
0.123385
0.126624
0.129716
0.132506
0.134814
0.136445
0.137213
0.136959
0.135583
0.133033
0.129424
0.124796
0.119324
0.113156
0.106415
0.0991696
0.0913786
0.0845867
0.0716712
0.0722788
0.0728861
0.0734964
0.0741094
0.0747251
0.0753443
0.075967
0.0765941
0.0772253
0.0778614
0.0785029
0.0791503
0.0798047
0.080466
0.0811364
0.0818164
0.0825082
0.0832122
0.0839326
0.0846705
0.08543
0.0862147
0.0870296
0.0878794
0.0887724
0.0897148
0.0907168
0.0917876
0.0929392
0.0941817
0.0955196
0.0969795
0.0986049
0.100425
0.102444
0.104668
0.107105
0.109749
0.112593
0.115618
0.118783
0.122026
0.125262
0.128377
0.131227
0.133642
0.135441
0.136441
0.136487
0.135471
0.133329
0.130154
0.125959
0.120895
0.11509
0.108657
0.101645
0.0939919
0.0872048
0.0703731
0.070983
0.0715922
0.072204
0.0728185
0.0734356
0.0740566
0.0746815
0.0753112
0.0759457
0.0765849
0.0772302
0.077881
0.0785395
0.0792044
0.0798792
0.0805633
0.08126
0.081969
0.0826951
0.0834389
0.0842046
0.0849956
0.0858166
0.0866722
0.0875703
0.0885169
0.0895221
0.0905948
0.0917464
0.0929878
0.0943224
0.0957752
0.0973939
0.0992024
0.101207
0.103413
0.10583
0.108452
0.111272
0.114275
0.117423
0.120658
0.123903
0.127053
0.129973
0.132505
0.134475
0.135708
0.136051
0.13539
0.133649
0.130897
0.12713
0.12247
0.117026
0.110898
0.104116
0.0965941
0.0898034
0.0689262
0.0695398
0.0701537
0.0707708
0.0713912
0.0720143
0.0726416
0.0732724
0.0739083
0.0745482
0.0751935
0.0758442
0.0765013
0.0771654
0.077837
0.0785178
0.0792087
0.0799116
0.0806273
0.0813596
0.0821098
0.0828816
0.083679
0.0845059
0.0853672
0.0862708
0.0872223
0.0882317
0.0893075
0.0904615
0.0917035
0.0930375
0.0944892
0.0961012
0.0979036
0.0998987
0.102093
0.104497
0.107105
0.109912
0.112904
0.116047
0.119288
0.122556
0.125753
0.128755
0.131412
0.133559
0.135027
0.135666
0.135355
0.134011
0.13168
0.128338
0.124079
0.118996
0.113172
0.106616
0.0992202
0.0924197
0.0674746
0.0680896
0.068704
0.069321
0.0699411
0.0705639
0.071191
0.0718222
0.0724585
0.0730996
0.073746
0.0743984
0.0750568
0.075723
0.0763962
0.0770793
0.0777723
0.0784783
0.0791973
0.0799337
0.0806885
0.0814653
0.0822681
0.0831007
0.0839678
0.0848771
0.085834
0.0868484
0.0879288
0.0890863
0.0903317
0.0916677
0.0931186
0.0947313
0.0965301
0.0985208
0.10071
0.103106
0.105707
0.108509
0.111499
0.114647
0.117904
0.121206
0.124461
0.127554
0.130343
0.132673
0.13438
0.135313
0.13535
0.134397
0.132479
0.129556
0.125696
0.12097
0.115447
0.109114
0.101838
0.0950218
0.0658941
0.0665117
0.0671291
0.0677493
0.0683724
0.0689983
0.0696281
0.0702617
0.0709003
0.0715435
0.0721922
0.0728468
0.0735084
0.0741775
0.0748546
0.0755416
0.0762395
0.0769501
0.0776741
0.0784154
0.0791755
0.0799575
0.0807659
0.081604
0.0824768
0.0833919
0.0843546
0.0853748
0.0864605
0.0876235
0.0888733
0.0902136
0.0916693
0.0932819
0.0950827
0.0970733
0.0992613
0.101658
0.10426
0.107064
0.110063
0.113228
0.116513
0.11986
0.123185
0.126379
0.12931
0.131829
0.133777
0.135005
0.135388
0.134823
0.133318
0.130812
0.12735
0.122981
0.117757
0.111643
0.104483
0.0976466
0.0642768
0.0648951
0.0655123
0.0661321
0.0667545
0.0673795
0.0680087
0.0686423
0.0692811
0.0699251
0.0705744
0.0712303
0.0718925
0.0725631
0.0732408
0.0739293
0.0746284
0.0753411
0.0760673
0.0768117
0.0775754
0.0783616
0.0791747
0.0800181
0.0808964
0.0818174
0.0827863
0.0838127
0.0849049
0.0860741
0.0873308
0.0886774
0.0901375
0.0917571
0.0935618
0.0955568
0.0977492
0.100151
0.10276
0.105575
0.10859
0.11178
0.115102
0.118504
0.121908
0.125213
0.128293
0.131007
0.133199
0.134723
0.135451
0.135272
0.134173
0.13208
0.129012
0.124997
0.120069
0.11417
0.10712
0.10026
0.0625018
0.0631228
0.0637438
0.0643679
0.0649953
0.0656254
0.06626
0.0668982
0.067542
0.06819
0.0688439
0.0695035
0.0701705
0.0708446
0.0715273
0.0722196
0.0729235
0.0736402
0.0743709
0.0751194
0.0758876
0.0766782
0.0774962
0.0783446
0.0792284
0.0801554
0.0811305
0.0821638
0.083263
0.08444
0.0857042
0.0870591
0.0885289
0.0901541
0.0919678
0.0939711
0.0961725
0.0985856
0.101209
0.104042
0.107082
0.110307
0.113677
0.117144
0.120639
0.124064
0.127302
0.130217
0.132658
0.13448
0.135552
0.135758
0.135067
0.133387
0.130713
0.127051
0.122417
0.11673
0.109787
0.102899
0.0607333
0.0613545
0.0619747
0.0625973
0.0632229
0.0638511
0.0644838
0.0651207
0.0657633
0.0664108
0.0670641
0.0677236
0.0683898
0.0690642
0.0697463
0.070439
0.0711429
0.0718606
0.0725926
0.0733434
0.0741144
0.0749085
0.0757308
0.0765841
0.0774734
0.0784065
0.0793884
0.0804289
0.0815362
0.0827215
0.0839954
0.0853601
0.0868388
0.0884765
0.0903005
0.0923161
0.094531
0.0969603
0.0996031
0.102461
0.105533
0.1088
0.112226
0.115768
0.119361
0.122915
0.126319
0.129441
0.132135
0.134258
0.135675
0.136265
0.135976
0.134705
0.132421
0.129109
0.124767
0.119288
0.112448
0.105529
0.058829
0.0594523
0.060075
0.0607001
0.0613281
0.0619586
0.0625932
0.0632315
0.0638753
0.0645236
0.0651779
0.0658382
0.0665062
0.067182
0.0678666
0.0685616
0.0692689
0.0699895
0.0707251
0.0714792
0.0722541
0.0730522
0.0738791
0.0747373
0.0756322
0.0765716
0.0775604
0.0786088
0.0797245
0.0809196
0.0822036
0.0835799
0.0850724
0.0867205
0.0885597
0.0905907
0.0928233
0.095274
0.0979425
0.100832
0.103945
0.107263
0.110754
0.114381
0.118082
0.121775
0.125352
0.128689
0.131641
0.134067
0.13583
0.136803
0.136922
0.136062
0.134169
0.131207
0.127154
0.12188
0.115138
0.108186
0.0568906
0.057514
0.0581356
0.0587594
0.0593856
0.0600142
0.060647
0.0612843
0.0619271
0.0625752
0.0632289
0.0638893
0.0645564
0.0652324
0.0659161
0.0666112
0.067318
0.0680394
0.0687757
0.0695317
0.070309
0.0711104
0.0719414
0.0728044
0.0737049
0.0746508
0.0756469
0.0767035
0.0778286
0.0790338
0.0803301
0.0817192
0.0832241
0.0848895
0.0867444
0.0887945
0.0910485
0.0935249
0.0962239
0.0991503
0.10231
0.105686
0.109251
0.11297
0.116788
0.120627
0.124386
0.127943
0.131159
0.133891
0.136004
0.137361
0.137882
0.137429
0.135923
0.133309
0.129541
0.124469
0.117821
0.110834
0.0547813
0.0554072
0.0560326
0.0566606
0.0572919
0.0579255
0.0585636
0.0592052
0.0598527
0.0605043
0.0611621
0.0618255
0.0624968
0.0631755
0.0638633
0.0645612
0.0652721
0.0659964
0.0667364
0.0674957
0.0682767
0.0690818
0.0699174
0.0707853
0.0716915
0.0726441
0.0736477
0.0747132
0.0758479
0.0770647
0.0783731
0.0797766
0.0812987
0.0829786
0.0848538
0.0869257
0.0892048
0.0917116
0.0944468
0.0974169
0.10063
0.104073
0.10772
0.111541
0.115485
0.11948
0.123428
0.127213
0.130698
0.133742
0.136205
0.137948
0.138878
0.138836
0.137719
0.13545
0.131967
0.127093
0.120535
0.113509
0.0526813
0.0533069
0.0539308
0.0545566
0.0551852
0.055816
0.0564513
0.0570908
0.0577363
0.0583867
0.059043
0.0597056
0.0603753
0.0610535
0.0617399
0.0624375
0.0631476
0.0638724
0.0646131
0.0653741
0.0661577
0.0669661
0.067806
0.068679
0.0695912
0.0705507
0.0715624
0.072637
0.0737824
0.0750108
0.0763335
0.0777522
0.0792899
0.0809907
0.0828865
0.0849833
0.087291
0.0898321
0.0926079
0.0956268
0.0989
0.102416
0.106152
0.110082
0.11416
0.118318
0.122464
0.126484
0.130244
0.133604
0.136421
0.138552
0.139887
0.140252
0.13952
0.137596
0.134393
0.129713
0.123241
0.116176
0.0504325
0.0510601
0.0516862
0.0523144
0.0529452
0.0535781
0.0542151
0.0548558
0.0555022
0.056153
0.0568101
0.0574732
0.0581446
0.0588238
0.0595127
0.0602124
0.0609258
0.0616534
0.0623976
0.063162
0.0639495
0.064762
0.0656068
0.0664852
0.0674035
0.0683703
0.0693903
0.0704746
0.0716308
0.0728722
0.0742088
0.0756443
0.0772019
0.0789207
0.0808412
0.0829652
0.085305
0.0878848
0.0907065
0.0937804
0.0971205
0.100717
0.104551
0.108599
0.112821
0.117151
0.121502
0.125765
0.129808
0.133488
0.136663
0.139184
0.140931
0.141707
0.141363
0.139781
0.136857
0.132367
0.125977
0.118868
0.0481459
0.0487729
0.0493975
0.0500238
0.0506523
0.0512829
0.0519177
0.052557
0.0532022
0.0538528
0.0545092
0.0551724
0.0558428
0.0565224
0.0572104
0.0579103
0.0586234
0.0593519
0.060097
0.0608635
0.0616538
0.06247
0.0633193
0.0642031
0.0651278
0.066102
0.0671307
0.0682249
0.0693928
0.0706472
0.0719998
0.0734523
0.0750283
0.0767709
0.0787162
0.0808705
0.0832456
0.0858678
0.0887397
0.0918734
0.0952857
0.0989694
0.102907
0.107081
0.111454
0.115964
0.12053
0.125043
0.129374
0.133381
0.136918
0.139832
0.141988
0.143171
0.143211
0.141969
0.13932
0.135016
0.128704
0.121551
0.045672
0.0463016
0.0469303
0.0475614
0.0481957
0.048832
0.049473
0.0501175
0.0507684
0.0514231
0.0520845
0.0527513
0.0534268
0.0541095
0.0548023
0.0555054
0.0562231
0.0569548
0.057704
0.0584739
0.0592683
0.0600885
0.0609427
0.0618319
0.0627631
0.063745
0.0647824
0.0658871
0.0670667
0.0683354
0.0697034
0.0711748
0.0727726
0.0745365
0.0765105
0.0786974
0.0811111
0.08378
0.0867073
0.0899067
0.0933981
0.0971763
0.101226
0.105534
0.110067
0.114767
0.119555
0.124326
0.128953
0.133294
0.137198
0.14051
0.143081
0.144676
0.145101
0.144198
0.141821
0.137698
0.131459
0.124258
0.0432164
0.0438455
0.0444721
0.0451006
0.0457317
0.0463647
0.0470026
0.0476448
0.0482935
0.0489471
0.049607
0.0502731
0.050947
0.0516294
0.0523209
0.0530238
0.0537409
0.0544732
0.0552233
0.0559952
0.0567923
0.0576162
0.0584752
0.05937
0.0603079
0.0612977
0.0623444
0.0634598
0.0646521
0.0659348
0.0673205
0.0688106
0.0704294
0.0722202
0.0742229
0.0764454
0.0789008
0.08162
0.0846065
0.087876
0.0914516
0.0953301
0.099499
0.103948
0.108648
0.113546
0.118564
0.123602
0.128532
0.133213
0.137491
0.141201
0.144184
0.146188
0.146995
0.146429
0.14432
0.140375
0.134205
0.126956
0.0406032
0.0412343
0.0418635
0.0424946
0.0431283
0.0437638
0.0444037
0.0450471
0.0456971
0.0463511
0.0470121
0.0476787
0.0483546
0.0490381
0.0497324
0.0504373
0.051158
0.0518931
0.0526469
0.0534222
0.0542235
0.0550516
0.0559159
0.0568166
0.0577613
0.0587594
0.0598155
0.0609422
0.0621471
0.0634454
0.0648478
0.0663588
0.0680021
0.0698169
0.0718528
0.0741132
0.0766137
0.0793871
0.0824376
0.0857829
0.0894491
0.0934351
0.0977308
0.10233
0.107206
0.11231
0.117568
0.122881
0.128123
0.133151
0.137808
0.141923
0.145324
0.14774
0.148932
0.148701
0.146857
0.143083
0.136976
0.129674
0.0379546
0.0385851
0.0392125
0.0398414
0.0404724
0.0411053
0.0417428
0.0423849
0.0430335
0.0436873
0.0443475
0.0450143
0.045689
0.0463728
0.0470658
0.0477709
0.0484909
0.0492268
0.0499812
0.0507587
0.0515628
0.0523947
0.0532639
0.0541705
0.0551223
0.0561288
0.0571947
0.0583328
0.0595514
0.0608648
0.0622864
0.0638184
0.065485
0.0673307
0.0693994
0.0717005
0.0742488
0.0770795
0.0801974
0.0836225
0.0873842
0.0914832
0.0959121
0.100668
0.105729
0.111047
0.116553
0.122149
0.127711
0.133094
0.138137
0.142658
0.146474
0.149299
0.150872
0.150974
0.14939
0.145785
0.139738
0.132382
0.0351019
0.0357354
0.0363677
0.0370021
0.0376399
0.0382794
0.0389241
0.0395721
0.0402272
0.0408857
0.0415515
0.042222
0.0429023
0.0435893
0.0442874
0.0449957
0.0457205
0.0464595
0.0472182
0.0479991
0.0488074
0.0496436
0.0505182
0.0514309
0.0523898
0.053405
0.0544808
0.0556309
0.0568629
0.0581931
0.0596333
0.0611885
0.0628828
0.0647558
0.0668622
0.0692061
0.0718048
0.0746963
0.0778862
0.0813964
0.0852598
0.0894791
0.0940489
0.0989699
0.104224
0.109766
0.115529
0.121417
0.127308
0.133055
0.13849
0.143425
0.147661
0.150898
0.152855
0.153287
0.15196
0.148516
0.142523
0.135109
0.0322784
0.032911
0.0335407
0.0341719
0.034806
0.0354415
0.0360825
0.0367276
0.0373801
0.0380371
0.038701
0.0393706
0.0400488
0.0407352
0.0414315
0.0421393
0.0428631
0.0436027
0.0443621
0.0451452
0.0459567
0.046797
0.047677
0.0485959
0.0495623
0.0505864
0.0516725
0.0528347
0.0540812
0.0554281
0.0568895
0.0584679
0.0601885
0.062096
0.0642389
0.0666279
0.0692794
0.0722344
0.0754994
0.0790987
0.0830686
0.0874137
0.0921308
0.0972242
0.102679
0.108453
0.114483
0.120671
0.1269
0.133017
0.138852
0.144201
0.148857
0.152504
0.15484
0.1556
0.154525
0.15124
0.145298
0.137826
0.0292817
0.0299163
0.0305485
0.0311824
0.031819
0.0324571
0.0330999
0.0337463
0.0343999
0.0350572
0.035722
0.0363921
0.0370723
0.03776
0.0384595
0.0391699
0.0398979
0.0406411
0.041405
0.0421923
0.0430086
0.043854
0.0447398
0.0456653
0.046639
0.0476719
0.0487683
0.0499429
0.0512039
0.0525689
0.0540505
0.0556542
0.0574051
0.0593422
0.0615265
0.0639623
0.0666696
0.0696919
0.0730368
0.0767307
0.0808135
0.0852917
0.0901642
0.0954387
0.101104
0.107119
0.113424
0.119923
0.126498
0.132995
0.139237
0.145009
0.150089
0.15415
0.156868
0.157954
0.157126
0.153992
0.148093
0.140559
0.0262435
0.0268765
0.027506
0.0281371
0.0287708
0.0294064
0.0300472
0.0306929
0.0313459
0.032004
0.0326687
0.03334
0.0340199
0.0347086
0.0354076
0.0361189
0.0368471
0.0375917
0.0383571
0.0391471
0.0399667
0.0408161
0.0417069
0.0426381
0.0436188
0.04466
0.0457663
0.0469529
0.0482287
0.0496108
0.0511146
0.0527431
0.0545215
0.0564963
0.0587204
0.061206
0.0639717
0.0670644
0.0704926
0.0742853
0.0784859
0.0831029
0.0881373
0.0936002
0.099483
0.105749
0.112338
0.119157
0.126086
0.13297
0.139626
0.145823
0.151327
0.1558
0.158898
0.160305
0.159722
0.156735
0.150878
0.143284
0.0229329
0.0235713
0.024211
0.0248554
0.0255047
0.0261561
0.0268132
0.0274725
0.0281391
0.0288076
0.0294833
0.0301617
0.0308502
0.0315441
0.0322501
0.0329654
0.0336989
0.0344467
0.0352159
0.0360084
0.0368312
0.0376834
0.038578
0.0395134
0.0404995
0.0415478
0.0426629
0.0438609
0.0451502
0.0465502
0.0480744
0.0497291
0.0515403
0.0535473
0.0558169
0.0583546
0.061182
0.0643494
0.0678661
0.0717636
0.076089
0.0808524
0.086057
0.0917173
0.0978277
0.104354
0.111237
0.118385
0.125679
0.13296
0.140037
0.146668
0.152602
0.157492
0.16097
0.162697
0.162351
0.159505
0.153682
0.146023
0.0200326
0.0206613
0.0212823
0.0219021
0.022523
0.0231458
0.0237737
0.0244072
0.0250486
0.0256959
0.0263506
0.0270124
0.027684
0.0283647
0.0290573
0.0297627
0.030487
0.0312282
0.0319921
0.0327815
0.0336024
0.034454
0.0353497
0.0362873
0.037277
0.0383308
0.0394535
0.0406616
0.0419644
0.0433811
0.0449279
0.0466086
0.0484498
0.0504979
0.0528115
0.0554041
0.0582962
0.0615417
0.0651507
0.0691574
0.0736127
0.0785286
0.0839102
0.0897754
0.0961216
0.102916
0.110104
0.11759
0.125257
0.132942
0.140448
0.147515
0.15388
0.159187
0.163042
0.165086
0.164975
0.162266
0.156477
0.148755
0.0164395
0.0170816
0.0177245
0.0183708
0.0190215
0.0196726
0.0203286
0.0209856
0.0216492
0.0223136
0.0229842
0.0236567
0.0243387
0.0250256
0.0257244
0.0264324
0.0271592
0.0279003
0.0286639
0.0294517
0.0302712
0.0311214
0.0320165
0.0329546
0.0339462
0.0350041
0.036133
0.0373507
0.0386662
0.0401005
0.0416685
0.0433772
0.0452535
0.0473365
0.0496998
0.0523495
0.05531
0.0586384
0.0623456
0.0664681
0.0710607
0.0761372
0.0817046
0.0877842
0.0943763
0.10145
0.108952
0.116787
0.124837
0.132935
0.140878
0.14839
0.155195
0.160922
0.165157
0.167513
0.16763
0.16505
0.159288
0.151503
0.0133733
0.014005
0.0146279
0.0152479
0.0158681
0.0164888
0.0171141
0.0177439
0.0183811
0.0190232
0.0196718
0.0203264
0.0209901
0.0216619
0.022345
0.0230402
0.0237543
0.0244855
0.0252396
0.0260202
0.0268338
0.0276795
0.0285718
0.0295087
0.030501
0.0315619
0.0326965
0.0339232
0.0352517
0.0367028
0.0382942
0.0400303
0.0419383
0.0440657
0.0464768
0.0491871
0.0522194
0.0556343
0.0594436
0.0636866
0.0684219
0.0736653
0.0794254
0.0857273
0.0925737
0.0999362
0.107761
0.115955
0.124398
0.132918
0.141304
0.149265
0.156511
0.16266
0.16727
0.169937
0.17028
0.167827
0.162091
0.154246
0.00956911
0.0102164
0.0108636
0.0115125
0.0121647
0.0128152
0.0134695
0.0141231
0.0147821
0.0154404
0.0161036
0.0167673
0.0174393
0.0181154
0.0188023
0.019498
0.0202121
0.0209407
0.0216917
0.0224681
0.0232773
0.0241189
0.0250081
0.025943
0.0269352
0.0279986
0.0291384
0.0303739
0.0317146
0.0331836
0.0347968
0.0365623
0.0385079
0.0406734
0.0431388
0.0459123
0.04902
0.0525265
0.0564441
0.0608146
0.0657006
0.0711194
0.0770818
0.0836159
0.0907273
0.0983892
0.106549
0.115113
0.123958
0.132909
0.141748
0.150169
0.157865
0.164438
0.169426
0.172399
0.172959
0.170625
0.164908
0.157003
0.00634327
0.00697913
0.0076041
0.00822294
0.00884013
0.00945516
0.0100733
0.0106939
0.0113209
0.0119513
0.0125869
0.0132275
0.0138763
0.0145327
0.0151997
0.0158787
0.0165766
0.0172921
0.0180309
0.0187977
0.0195986
0.0204339
0.0213185
0.0222508
0.0232423
0.0243078
0.0254526
0.0266965
0.0280502
0.0295364
0.0311743
0.0329691
0.0349497
0.0371633
0.0396813
0.042521
0.0457077
0.0493095
0.0533397
0.0578424
0.0628847
0.0684854
0.0746573
0.0814317
0.0888171
0.096788
0.105292
0.114236
0.123494
0.132886
0.142186
0.151069
0.159219
0.166218
0.17158
0.174857
0.175633
0.173416
0.167717
0.159755
0.00238234
0.00302992
0.00367226
0.00431068
0.00494878
0.00558249
0.00621833
0.00685282
0.00749248
0.00813173
0.00877593
0.00942133
0.0100752
0.0107338
0.0114031
0.0120818
0.0127789
0.0134914
0.0142264
0.0149884
0.0157844
0.0166148
0.0174956
0.0184253
0.0194161
0.0204836
0.0216332
0.0228861
0.0242527
0.0257579
0.0274193
0.0292462
0.0312674
0.0335224
0.0360995
0.0390082
0.0422779
0.0459806
0.0501297
0.0547723
0.0599791
0.0657711
0.0721623
0.0791877
0.0868582
0.0951497
0.10401
0.113346
0.123026
0.13287
0.142639
0.151998
0.160609
0.168038
0.173776
0.177351
0.178335
0.176225
0.170538
0.162517
-0.00143716
-0.000790293
-0.000149598
0.000485746
0.00112099
0.00175195
0.00238511
0.0030173
0.00365355
0.00428904
0.00492661
0.00556542
0.00620928
0.00685793
0.00751449
0.00818142
0.00886576
0.00956714
0.0102912
0.0110442
0.0118322
0.0126564
0.0135326
0.0144596
0.0154496
0.0165194
0.0176742
0.0189364
0.020317
0.0218409
0.0235291
0.0253877
0.0274465
0.0297538
0.0323884
0.0353699
0.0387265
0.0425339
0.0468064
0.0515937
0.056971
0.0629607
0.0695789
0.0768637
0.0848287
0.093451
0.102679
0.112417
0.122531
0.132836
0.143084
0.152922
0.161998
0.169858
0.175969
0.179842
0.181032
0.179029
0.173351
0.165273
-0.0054353
-0.00479108
-0.0041543
-0.00352305
-0.0028934
-0.00226918
-0.0016436
-0.00101979
-0.000391259
0.000236467
0.000868287
0.00150088
0.002141
0.00278558
0.00343973
0.00410319
0.00478449
0.00548146
0.00620069
0.00694836
0.00773088
0.00854995
0.00942211
0.0103466
0.011336
0.0124082
0.0135686
0.0148406
0.0162352
0.0177799
0.0194937
0.0213873
0.0234907
0.0258442
0.0285436
0.0316014
0.0350491
0.038967
0.0433697
0.0483095
0.0538661
0.0600633
0.0669189
0.0744744
0.0827458
0.0917112
0.101319
0.111471
0.122031
0.132807
0.143544
0.153875
0.163425
0.17172
0.178204
0.182368
0.183754
0.181849
0.176174
0.168035
-0.00947489
-0.00883326
-0.00820051
-0.00757522
-0.00695214
-0.0063349
-0.00571702
-0.00510089
-0.00448173
-0.00386379
-0.00324491
-0.00262485
-0.00200059
-0.00137121
-0.00073459
-8.69236e-05
0.000578089
0.00126122
0.0019673
0.00270432
0.00347765
0.00428962
0.00515669
0.00607826
0.0070671
0.00814206
0.00930847
0.0105909
0.0120012
0.0135668
0.0153107
0.01724
0.0193863
0.0217975
0.0245608
0.0276984
0.0312412
0.0352736
0.039811
0.0449085
0.0506503
0.0570619
0.0641627
0.0719978
0.0805855
0.0899048
0.0999034
0.110482
0.1215
0.132759
0.143995
0.154822
0.164851
0.173581
0.180436
0.184891
0.186474
0.184664
0.178989
0.170788
-0.0137925
-0.0131531
-0.0125233
-0.0119009
-0.0112819
-0.01067
-0.0100583
-0.00944944
-0.0088369
-0.00822621
-0.00761254
-0.00699888
-0.0063785
-0.00575399
-0.00512054
-0.00447757
-0.00381677
-0.00313938
-0.00243934
-0.00170878
-0.000941807
-0.00013549
0.000727267
0.00164644
0.00263512
0.00371346
0.00488677
0.0061811
0.00760831
0.00919818
0.0109718
0.0129412
0.0151374
0.0175998
0.0204347
0.0236556
0.0272982
0.0314514
0.0361306
0.0413941
0.0473303
0.0539666
0.0613238
0.0694504
0.078367
0.0880533
0.0984561
0.109474
0.120961
0.132714
0.144459
0.155798
0.166313
0.175483
0.182708
0.187447
0.189218
0.187494
0.18181
0.173544
-0.0181573
-0.0175209
-0.0168956
-0.0162796
-0.0156675
-0.015063
-0.0144593
-0.0138585
-0.0132559
-0.0126555
-0.0120555
-0.0114551
-0.0108516
-0.0102431
-0.00962818
-0.0090018
-0.00835815
-0.00769521
-0.00700886
-0.00628921
-0.00553152
-0.00473208
-0.00387387
-0.00295669
-0.00196721
-0.000884335
0.000297489
0.00160527
0.00305184
0.00466669
0.00647492
0.00848488
0.0107285
0.0132553
0.0161601
0.0194689
0.0232155
0.0274936
0.0323193
0.0377538
0.0438907
0.0507588
0.0583807
0.0668082
0.0760643
0.0861292
0.0969488
0.108419
0.120388
0.132647
0.144913
0.156768
0.167774
0.177385
0.184979
0.190001
0.19196
0.190321
0.184624
0.17629
-0.0228083
-0.0221746
-0.021553
-0.0209409
-0.0203343
-0.0197366
-0.0191408
-0.0185489
-0.0179547
-0.0173631
-0.01677
-0.0161773
-0.0155789
-0.0149763
-0.0143655
-0.0137446
-0.0131057
-0.0124488
-0.0117686
-0.0110553
-0.0103034
-0.00950887
-0.00865368
-0.0077373
-0.00674587
-0.00565702
-0.00446531
-0.0031422
-0.00167526
-3.20593e-05
0.0018104
0.00386523
0.00616503
0.008749
0.0117328
0.0151333
0.0189887
0.023398
0.0283776
0.0339919
0.0403392
0.0474501
0.0553485
0.0640897
0.0736987
0.0841561
0.0954065
0.107342
0.119807
0.132583
0.145381
0.157768
0.169273
0.179327
0.187289
0.192588
0.194724
0.19316
0.187442
0.179036
-0.02754
-0.0269104
-0.0262941
-0.0256891
-0.02509
-0.0245
-0.0239124
-0.0233287
-0.0227445
-0.0221631
-0.0215837
-0.021004
-0.0204225
-0.0198356
-0.0192432
-0.0186383
-0.0180162
-0.0173731
-0.0167058
-0.0160024
-0.0152587
-0.0144695
-0.0136172
-0.0127008
-0.0117063
-0.0106102
-0.00940712
-0.00806742
-0.00657759
-0.00490521
-0.00302335
-0.000922291
0.00143145
0.00408681
0.00714785
0.010644
0.0146123
0.019157
0.0242952
0.0300946
0.0366588
0.0440201
0.0522036
0.0612687
0.071242
0.0821045
0.0937992
0.106215
0.119189
0.132497
0.145836
0.158762
0.170771
0.181269
0.189599
0.195175
0.197489
0.195996
0.190252
0.18177
-0.0325856
-0.0319596
-0.0313475
-0.0307463
-0.030152
-0.0295679
-0.0289869
-0.0284108
-0.0278332
-0.0272591
-0.0266846
-0.0261113
-0.0255332
-0.0249512
-0.0243615
-0.0237613
-0.0231428
-0.0225051
-0.0218429
-0.0211449
-0.0204057
-0.0196201
-0.0187691
-0.0178516
-0.016853
-0.0157487
-0.014533
-0.0131749