/*--------------------------------*- C++ -*----------------------------------*\
  =========                 |
  \\      /  F ield         | OpenFOAM: The Open Source CFD Toolbox
   \\    /   O peration     | Website:  https://openfoam.org
    \\  /    A nd           | Version:  6.0
     \\/     M anipulation  |
\*---------------------------------------------------------------------------*/
FoamFile
{
    version     2.0;
    format      ascii;
    class       volVectorField;
    location    "3";
    object      U;
}
// * * * * * * * * * * * * * * * * * * * * * * * * * * * * * * * * * * * * * //

dimensions      [0 1 -1 0 0 0 0];

internalField   nonuniform List<vector> 
62000
(
(0.984115 0.177513 -1.4376e-20)
(0.984098 0.177386 1.20801e-20)
(0.984087 0.17726 1.25632e-20)
(0.984081 0.177135 -5.57841e-20)
(0.984079 0.177005 -6.47531e-20)
(0.984082 0.176872 2.26253e-19)
(0.984088 0.176737 -2.52452e-19)
(0.984099 0.1766 1.48728e-19)
(0.984114 0.176462 -7.09808e-20)
(0.984132 0.176324 -3.68966e-19)
(0.984153 0.176186 -4.97844e-20)
(0.984176 0.176051 5.31036e-19)
(0.984203 0.175918 1.10909e-19)
(0.984231 0.175788 -3.93022e-19)
(0.984261 0.175662 6.24503e-19)
(0.984293 0.175541 -3.35653e-19)
(0.984326 0.175425 3.55896e-19)
(0.98436 0.175315 -4.22623e-19)
(0.984394 0.175211 2.13311e-19)
(0.98443 0.175114 -6.68058e-19)
(0.984465 0.175024 8.84986e-19)
(0.984501 0.174942 2.68841e-19)
(0.984536 0.174869 3.95054e-19)
(0.98457 0.174805 -1.79925e-18)
(0.984603 0.174752 6.68914e-19)
(0.984634 0.174711 -4.2114e-19)
(0.984663 0.174681 -7.10785e-21)
(0.984687 0.174666 -3.51532e-19)
(0.984707 0.174665 1.10151e-18)
(0.98472 0.17468 -6.26868e-19)
(0.984725 0.174709 1.52745e-18)
(0.98472 0.174759 -3.20106e-18)
(0.984697 0.174837 3.01576e-19)
(0.984656 0.174931 -1.06573e-18)
(0.984598 0.175025 -3.46466e-19)
(0.98452 0.17511 -1.07729e-18)
(0.984417 0.175176 -3.34816e-19)
(0.984284 0.175213 -3.50238e-19)
(0.984116 0.175205 1.04668e-18)
(0.983907 0.175133 4.95874e-18)
(0.983652 0.174974 -1.20912e-18)
(0.983343 0.174704 -7.04597e-18)
(0.982976 0.174296 -1.12969e-17)
(0.982546 0.173725 6.18675e-18)
(0.98205 0.172973 1.87265e-18)
(0.981489 0.172028 -8.82325e-18)
(0.98087 0.170891 1.877e-18)
(0.980208 0.169578 -3.56542e-18)
(0.979525 0.168117 -1.59968e-17)
(0.978853 0.166543 -3.53323e-18)
(0.978234 0.164886 -1.6981e-18)
(0.977705 0.163172 -2.08555e-17)
(0.977299 0.161381 3.0585e-18)
(0.97706 0.159456 1.96794e-17)
(0.977015 0.15729 4.59332e-18)
(0.977204 0.154702 1.45497e-17)
(0.97768 0.151391 -1.34855e-18)
(0.978524 0.146721 -1.81057e-18)
(0.979826 0.139325 4.26354e-18)
(0.969016 0.112542 5.92141e-19)
(0.983514 0.18339 -3.8222e-21)
(0.983416 0.183327 3.70318e-20)
(0.983328 0.183225 1.566e-20)
(0.983245 0.183122 -6.75647e-20)
(0.98317 0.183005 2.84707e-20)
(0.983102 0.182877 -1.9991e-19)
(0.983043 0.182736 1.85238e-19)
(0.982994 0.182582 1.09382e-19)
(0.982955 0.182415 -2.07362e-19)
(0.982925 0.182237 8.68683e-21)
(0.982906 0.182048 2.0786e-19)
(0.982898 0.181848 1.15266e-21)
(0.9829 0.181641 6.26966e-20)
(0.982911 0.181425 -5.39805e-19)
(0.982932 0.181204 1.10355e-18)
(0.982963 0.180978 -9.89626e-19)
(0.983002 0.180749 4.72972e-19)
(0.98305 0.180517 -1.00593e-19)
(0.983106 0.180283 -2.81196e-19)
(0.98317 0.180049 7.9367e-19)
(0.98324 0.179814 -1.27101e-18)
(0.983318 0.179579 7.50486e-19)
(0.983401 0.179344 -9.74616e-19)
(0.983489 0.17911 5.86779e-19)
(0.983582 0.178875 5.55597e-19)
(0.983677 0.178641 -3.7184e-19)
(0.983774 0.178406 -3.61515e-21)
(0.98387 0.17817 4.25214e-19)
(0.983961 0.177931 3.64614e-19)
(0.984046 0.177687 -7.686e-19)
(0.984119 0.177438 1.58385e-18)
(0.984174 0.177189 3.33866e-19)
(0.984195 0.176946 1.03354e-18)
(0.984175 0.176687 8.26206e-20)
(0.984117 0.176392 2.90711e-19)
(0.984015 0.176041 -3.17204e-19)
(0.983858 0.175621 -9.89187e-19)
(0.983636 0.175115 -4.81208e-19)
(0.983337 0.174506 -2.79671e-18)
(0.982948 0.173773 -3.26876e-18)
(0.982459 0.172893 2.57969e-18)
(0.981858 0.171844 1.53554e-18)
(0.981135 0.170606 1.1915e-17)
(0.980287 0.169162 7.39108e-19)
(0.979315 0.167505 -1.87758e-17)
(0.978228 0.16564 7.43409e-18)
(0.977047 0.163582 5.98133e-18)
(0.975805 0.161358 7.17667e-18)
(0.974549 0.159002 1.01694e-18)
(0.973337 0.156543 1.20865e-19)
(0.972237 0.153993 1.06256e-17)
(0.971299 0.15135 2.6575e-17)
(0.970576 0.148519 -1.63827e-17)
(0.970143 0.145364 -3.8289e-17)
(0.970042 0.141663 -8.74928e-18)
(0.970355 0.137098 -3.82801e-18)
(0.971166 0.131138 -1.24653e-17)
(0.972631 0.122779 -5.08136e-18)
(0.974948 0.110121 8.56457e-18)
(0.965834 0.0735177 2.98492e-18)
(0.983328 0.185245 -1.85232e-20)
(0.983196 0.18528 -2.73211e-21)
(0.983071 0.185245 2.87484e-21)
(0.982946 0.185215 1.36001e-20)
(0.982826 0.185172 3.92801e-20)
(0.98271 0.185119 -3.76562e-20)
(0.982601 0.185054 2.04898e-19)
(0.982499 0.184976 -9.83517e-20)
(0.982408 0.184883 -5.36983e-20)
(0.982328 0.184776 -3.38043e-19)
(0.98226 0.184654 2.88559e-19)
(0.982205 0.184516 2.1662e-20)
(0.982163 0.184363 -6.8465e-20)
(0.982136 0.184195 1.84847e-19)
(0.982124 0.184012 -3.21447e-19)
(0.982126 0.183814 1.44655e-21)
(0.982142 0.183603 -1.5359e-19)
(0.982171 0.183378 1.32193e-21)
(0.982215 0.183139 3.6667e-19)
(0.98227 0.182888 -5.69018e-19)
(0.982338 0.182623 3.60026e-19)
(0.982417 0.182346 1.43214e-18)
(0.982506 0.182056 -1.86483e-19)
(0.982604 0.181752 -2.05843e-18)
(0.982709 0.181434 1.07435e-18)
(0.982821 0.181102 -5.96455e-19)
(0.982936 0.180753 9.87669e-19)
(0.983053 0.180385 -6.07241e-19)
(0.983169 0.179997 -1.23293e-18)
(0.983279 0.179583 1.33842e-18)
(0.983379 0.179142 -9.63813e-19)
(0.983461 0.178683 1.31884e-18)
(0.983507 0.178199 -3.67767e-18)
(0.983506 0.177677 3.25186e-18)
(0.983461 0.177097 -1.72268e-18)
(0.983367 0.176435 7.00979e-19)
(0.983214 0.17568 5.27774e-19)
(0.982991 0.174815 -4.88335e-20)
(0.982684 0.173826 -1.59093e-19)
(0.98228 0.172694 3.36129e-18)
(0.981766 0.171405 -1.35475e-18)
(0.981128 0.169942 2.1371e-18)
(0.980357 0.168295 -7.71379e-18)
(0.979445 0.166458 -3.84256e-18)
(0.978393 0.164434 4.10484e-18)
(0.977209 0.162235 -1.45946e-17)
(0.975913 0.159881 1.88265e-18)
(0.97454 0.157402 -1.23809e-17)
(0.973139 0.154824 1.69987e-17)
(0.971772 0.152165 4.18465e-18)
(0.970514 0.14942 2.44959e-18)
(0.969417 0.146568 -1.35129e-19)
(0.96855 0.143492 8.05158e-18)
(0.967999 0.140022 -1.3581e-18)
(0.967823 0.135914 -1.58994e-17)
(0.968117 0.130814 -6.8455e-18)
(0.96897 0.124162 -7.41801e-18)
(0.970551 0.114958 -1.6956e-17)
(0.97304 0.101607 5.64474e-19)
(0.968431 0.0659203 1.99211e-18)
(0.983167 0.185792 -1.84937e-20)
(0.983029 0.185872 5.72058e-20)
(0.982895 0.185874 -8.68588e-21)
(0.982758 0.185886 -6.03497e-20)
(0.98262 0.18589 9.21389e-20)
(0.982482 0.185887 1.61405e-19)
(0.982346 0.185877 -2.11948e-19)
(0.982214 0.185856 2.33859e-20)
(0.982087 0.185825 7.57668e-20)
(0.981968 0.185781 1.59908e-19)
(0.981859 0.185724 -2.9778e-19)
(0.98176 0.185651 -9.34004e-20)
(0.981675 0.185563 -1.05977e-19)
(0.981604 0.185458 4.87134e-19)
(0.981548 0.185336 -3.2918e-19)
(0.981508 0.185196 7.8023e-19)
(0.981485 0.185037 -9.57112e-19)
(0.981479 0.184858 -1.433e-19)
(0.98149 0.184659 1.03692e-18)
(0.981517 0.184437 -3.65556e-19)
(0.981561 0.184194 -1.35979e-19)
(0.981619 0.183927 -1.47582e-19)
(0.981691 0.183636 -1.36212e-18)
(0.981775 0.183321 7.91914e-19)
(0.981871 0.182978 -3.66099e-19)
(0.981975 0.182608 5.96766e-19)
(0.982086 0.182209 2.82985e-19)
(0.9822 0.181776 1.42297e-18)
(0.982315 0.181308 -9.04588e-19)
(0.982426 0.180799 -1.20266e-18)
(0.982529 0.180247 1.9269e-18)
(0.982615 0.179662 -1.60502e-18)
(0.982668 0.179028 2.98192e-18)
(0.982672 0.17834 -1.79533e-18)
(0.98263 0.177581 7.36823e-19)
(0.98254 0.176727 1.25825e-18)
(0.982391 0.175766 -5.36395e-19)
(0.982172 0.174683 6.80296e-19)
(0.981871 0.173465 -3.32125e-19)
(0.981474 0.172097 1.02748e-18)
(0.980967 0.170567 -2.9394e-18)
(0.980337 0.168865 8.23048e-19)
(0.979573 0.166984 1.8144e-18)
(0.978665 0.164926 4.49809e-18)
(0.977612 0.162697 5.98622e-18)
(0.97642 0.160312 1.35326e-18)
(0.975106 0.157797 9.39829e-18)
(0.973702 0.155175 1.0157e-17)
(0.972257 0.152472 1.16713e-17)
(0.970831 0.149696 -8.28587e-18)
(0.969503 0.14683 -1.05359e-17)
(0.968322 0.143847 6.84259e-18)
(0.967368 0.140618 8.79383e-18)
(0.966737 0.136955 1.88665e-17)
(0.966499 0.13261 1.10744e-17)
(0.966754 0.127213 1.85692e-17)
(0.967596 0.120198 3.05182e-17)
(0.96919 0.110597 -2.98723e-18)
(0.971677 0.097061 -1.41329e-17)
(0.970861 0.0623069 -1.04562e-17)
(0.983045 0.185969 3.57583e-20)
(0.982905 0.18607 -1.19036e-20)
(0.982766 0.186092 2.06117e-20)
(0.982623 0.186125 -2.9057e-20)
(0.982475 0.186152 6.64836e-20)
(0.982325 0.186176 -3.28385e-20)
(0.982173 0.186194 1.83307e-20)
(0.982021 0.186206 -2.72e-19)
(0.98187 0.18621 2.2973e-19)
(0.981723 0.186204 -4.6583e-19)
(0.981581 0.186189 5.1676e-19)
(0.981447 0.186161 -6.30119e-20)
(0.981322 0.18612 -1.41244e-19)
(0.981209 0.186063 -6.57075e-20)
(0.981109 0.185991 -1.47325e-20)
(0.981025 0.185901 -6.77467e-19)
(0.980957 0.18579 2.82044e-20)
(0.980906 0.185659 7.5141e-19)
(0.980873 0.185503 -2.47462e-19)
(0.980859 0.185322 -2.64462e-19)
(0.980863 0.185114 4.48155e-19)
(0.980885 0.184876 -2.26317e-19)
(0.980923 0.184606 9.59442e-19)
(0.980978 0.184303 5.34844e-19)
(0.981046 0.183964 4.1456e-19)
(0.981127 0.183587 -1.29642e-18)
(0.981216 0.183169 -1.85008e-19)
(0.981312 0.182707 -1.04505e-18)
(0.981411 0.182196 1.97838e-19)
(0.981508 0.181632 -3.61765e-19)
(0.981598 0.18101 -1.43653e-19)
(0.981675 0.180345 1.18785e-18)
(0.981723 0.179608 -2.98786e-18)
(0.981725 0.178807 -1.31716e-19)
(0.981681 0.177925 -1.49672e-18)
(0.98159 0.176941 -7.26132e-19)
(0.98144 0.175842 2.04905e-19)
(0.981224 0.174615 -2.32412e-18)
(0.980928 0.173246 3.57731e-18)
(0.980539 0.171725 5.78465e-19)
(0.980045 0.170041 3.98412e-18)
(0.979432 0.168188 -2.94922e-18)
(0.978688 0.166162 -2.01213e-18)
(0.977803 0.163968 -8.11984e-19)
(0.976774 0.161614 4.42074e-18)
(0.975605 0.159119 6.45876e-18)
(0.974311 0.156505 1.53771e-18)
(0.97292 0.153796 2.62828e-18)
(0.971478 0.151011 -4.00464e-18)
(0.970044 0.148153 2.10589e-17)
(0.968694 0.145197 5.08874e-18)
(0.967476 0.14211 -4.88658e-18)
(0.966476 0.138759 1.64658e-18)
(0.965795 0.134947 1.55677e-17)
(0.965513 0.130424 -9.1668e-19)
(0.965734 0.124812 -1.45266e-17)
(0.966554 0.117548 -3.22281e-17)
(0.968134 0.107689 2.8251e-17)
(0.970579 0.0940576 -1.53845e-17)
(0.972609 0.0599383 1.27425e-17)
(0.982955 0.186036 -1.35533e-20)
(0.982809 0.18614 5.52771e-20)
(0.982665 0.186167 -9.20681e-20)
(0.982516 0.186207 6.94885e-20)
(0.982361 0.186243 4.59511e-20)
(0.982202 0.186277 -4.8861e-20)
(0.982038 0.186308 4.23698e-21)
(0.981872 0.186334 -3.77958e-20)
(0.981705 0.186355 -1.29229e-19)
(0.981537 0.186368 2.50026e-19)
(0.981371 0.186374 -3.93027e-19)
(0.981208 0.18637 3.47275e-19)
(0.981052 0.186356 3.11036e-19)
(0.980903 0.186329 -4.85011e-19)
(0.980765 0.186289 -1.61081e-19)
(0.980638 0.186233 6.08734e-19)
(0.980526 0.186158 -7.45307e-19)
(0.980429 0.186062 1.04169e-18)
(0.980349 0.185944 -1.98744e-19)
(0.980288 0.185798 1.1617e-19)
(0.980245 0.185623 -1.8694e-19)
(0.980221 0.185416 -2.37862e-19)
(0.980216 0.185173 -4.48417e-19)
(0.980228 0.184891 7.83868e-19)
(0.980257 0.184567 -5.43761e-19)
(0.9803 0.184198 -5.39085e-19)
(0.980355 0.18378 1.12127e-18)
(0.980419 0.183309 -1.08847e-18)
(0.980488 0.18278 1.7563e-18)
(0.980558 0.182186 -9.48103e-19)
(0.980624 0.181525 7.37573e-19)
(0.980678 0.180811 -1.26423e-18)
(0.980712 0.180009 1.36896e-18)
(0.980707 0.179133 -1.11677e-19)
(0.980657 0.178172 -6.56045e-20)
(0.98056 0.177105 -2.99818e-20)
(0.980408 0.175918 -7.1063e-19)
(0.980191 0.1746 2.05925e-18)
(0.9799 0.173139 -1.5948e-18)
(0.979521 0.171525 -9.16923e-18)
(0.979043 0.16975 -3.88881e-18)
(0.978451 0.167808 2.80396e-18)
(0.977735 0.1657 -3.10089e-18)
(0.976884 0.163429 -3.51002e-18)
(0.975894 0.161007 -2.92794e-19)
(0.974766 0.158451 8.94326e-18)
(0.973514 0.155781 -1.30605e-17)
(0.972162 0.153019 -1.31471e-17)
(0.970752 0.15018 -8.61002e-18)
(0.96934 0.14726 -1.418e-17)
(0.968 0.144231 8.99926e-18)
(0.966777 0.141055 -3.36868e-18)
(0.965758 0.137597 -2.68779e-17)
(0.96505 0.133655 5.1941e-18)
(0.964739 0.128983 7.07889e-18)
(0.964931 0.1232 -1.32244e-17)
(0.965724 0.115743 8.59267e-18)
(0.967275 0.10569 8.12384e-18)
(0.969668 0.0919805 2.49811e-17)
(0.97377 0.0582161 -2.90351e-20)
(0.98287 0.186072 1.5898e-20)
(0.982719 0.186178 -7.24375e-20)
(0.98257 0.186206 3.54364e-20)
(0.982414 0.186247 6.75247e-20)
(0.982252 0.186284 -1.46698e-19)
(0.982084 0.18632 1.24194e-19)
(0.981912 0.186354 -8.40571e-20)
(0.981734 0.186384 7.20335e-20)
(0.981553 0.18641 1.16903e-19)
(0.981369 0.186431 -2.83777e-19)
(0.981184 0.186446 4.14842e-19)
(0.981 0.186453 1.79473e-19)
(0.980817 0.186452 -7.17145e-19)
(0.980639 0.18644 -1.3722e-19)
(0.980468 0.186417 3.89484e-19)
(0.980305 0.186381 2.54674e-19)
(0.980152 0.186327 -3.11266e-19)
(0.980013 0.186255 2.76994e-19)
(0.979888 0.18616 4.34082e-19)
(0.979779 0.18604 -2.11062e-19)
(0.979688 0.18589 -1.224e-19)
(0.979615 0.185707 4.45072e-19)
(0.97956 0.185487 9.26827e-19)
(0.979524 0.185226 -6.73465e-19)
(0.979506 0.18492 -7.56999e-19)
(0.979503 0.184564 8.47702e-19)
(0.979515 0.184154 -6.60156e-19)
(0.979537 0.183685 -2.75599e-19)
(0.979566 0.183151 2.28832e-18)
(0.979599 0.182546 -1.01554e-18)
(0.97963 0.181864 -7.97435e-19)
(0.979652 0.181125 1.06409e-18)
(0.979665 0.180282 7.40962e-19)
(0.979648 0.179361 -6.48191e-19)
(0.979588 0.178353 -4.39225e-19)
(0.979483 0.177237 1.41078e-18)
(0.979325 0.175999 3.25579e-19)
(0.979106 0.174629 4.65691e-19)
(0.978817 0.173117 -2.55298e-18)
(0.978446 0.171453 -2.50266e-18)
(0.977981 0.169629 4.91069e-18)
(0.97741 0.167642 3.98276e-18)
(0.976722 0.165492 6.79755e-18)
(0.975907 0.163184 -6.27369e-18)
(0.974959 0.160728 -7.03536e-18)
(0.973879 0.15814 -4.75662e-18)
(0.972677 0.15544 1.16078e-17)
(0.971376 0.152644 1.12808e-17)
(0.970014 0.149762 -1.24127e-17)
(0.968642 0.146789 -1.79045e-17)
(0.967331 0.14369 -3.15956e-18)
(0.966121 0.140428 3.46632e-18)
(0.965103 0.136866 3.13182e-19)
(0.964385 0.1328 -9.24826e-18)
(0.964059 0.127988 7.93941e-18)
(0.96423 0.122047 4.39298e-18)
(0.964999 0.114416 6.20848e-18)
(0.966521 0.104189 -2.50302e-17)
(0.96887 0.0903791 -1.45536e-18)
(0.974486 0.0567479 6.45941e-19)
(0.982787 0.186097 -2.6607e-20)
(0.98263 0.1862 -2.1702e-20)
(0.982474 0.186227 2.92565e-20)
(0.982311 0.186266 1.05905e-19)
(0.982141 0.186303 -2.30765e-19)
(0.981965 0.186339 2.67127e-19)
(0.981782 0.186373 -1.14736e-20)
(0.981594 0.186404 -1.64921e-20)
(0.9814 0.186432 -9.87996e-20)
(0.981202 0.186455 2.4374e-19)
(0.981 0.186472 -3.79222e-19)
(0.980797 0.186483 1.44382e-19)
(0.980593 0.186487 -4.93249e-21)
(0.98039 0.186481 2.32347e-19)
(0.98019 0.186466 1.12512e-19)
(0.979995 0.186438 -6.00505e-19)
(0.979807 0.186396 5.26537e-19)
(0.979629 0.186337 2.10129e-19)
(0.979462 0.186257 -6.0894e-19)
(0.979309 0.186152 3.01258e-19)
(0.979171 0.18602 1.42111e-19)
(0.979049 0.185854 -9.37464e-20)
(0.978945 0.185652 1.21578e-19)
(0.978858 0.185408 -6.92187e-20)
(0.978789 0.185117 -8.19974e-19)
(0.978736 0.184775 5.45047e-19)
(0.978698 0.184376 -8.40579e-19)
(0.978673 0.183913 1.56344e-18)
(0.978656 0.183382 -2.99376e-19)
(0.978645 0.182774 -1.78961e-19)
(0.978634 0.182085 -4.90291e-20)
(0.978617 0.181333 1.73725e-18)
(0.978603 0.18047 -7.00185e-19)
(0.978572 0.179525 -4.1328e-19)
(0.978499 0.178493 1.08452e-18)
(0.978382 0.177351 9.26573e-19)
(0.978216 0.176089 -1.54617e-18)
(0.977991 0.174694 2.76474e-19)
(0.977701 0.173159 3.04359e-18)
(0.977334 0.171473 -2.27296e-19)
(0.976879 0.169629 1.95823e-18)
(0.976326 0.167625 -2.91889e-18)
(0.975663 0.16546 4.38512e-18)
(0.97488 0.163139 9.85809e-18)
(0.973973 0.160671 3.01365e-18)
(0.972941 0.15807 -3.99927e-18)
(0.971791 0.155352 -1.23772e-17)
(0.970545 0.152531 2.23388e-18)
(0.969236 0.149613 3.81253e-18)
(0.967912 0.146588 8.01721e-18)
(0.966641 0.14342 -8.55707e-19)
(0.965458 0.140068 -1.41593e-17)
(0.964455 0.1364 1.19576e-17)
(0.96374 0.132208 -7.89743e-18)
(0.963409 0.127254 1.5391e-17)
(0.963569 0.121157 3.64777e-18)
(0.964319 0.113356 1.58739e-17)
(0.965819 0.102953 2.04918e-17)
(0.968141 0.0890125 3.2883e-18)
(0.974873 0.0553441 4.96877e-18)
(0.982695 0.186129 -1.27941e-20)
(0.982529 0.186237 1.10397e-20)
(0.982366 0.186264 5.65451e-20)
(0.982195 0.186303 9.09249e-20)
(0.982017 0.186339 -2.70114e-19)
(0.981831 0.186373 1.56985e-19)
(0.981639 0.186406 -2.85456e-19)
(0.98144 0.186434 4.5071e-19)
(0.981234 0.18646 -2.13213e-19)
(0.981022 0.186481 3.8172e-20)
(0.980806 0.186498 4.23061e-19)
(0.980585 0.186508 -9.70563e-19)
(0.980362 0.186511 6.67762e-19)
(0.980137 0.186506 9.61628e-20)
(0.979913 0.186493 1.5647e-19)
(0.97969 0.186468 -6.56108e-19)
(0.979472 0.186429 3.25542e-19)
(0.979259 0.186375 -4.07539e-19)
(0.979054 0.186301 8.11812e-19)
(0.97886 0.186205 -1.06587e-19)
(0.978678 0.186081 -1.04587e-18)
(0.97851 0.185927 4.18881e-19)
(0.978357 0.185735 -2.38839e-20)
(0.97822 0.185503 -1.56852e-18)
(0.9781 0.185224 1.17438e-18)
(0.977995 0.184893 8.90393e-19)
(0.977906 0.184504 6.10694e-19)
(0.977829 0.184049 -7.96082e-19)
(0.977763 0.183524 -8.87775e-19)
(0.977703 0.182919 4.1798e-19)
(0.977646 0.182229 6.18812e-19)
(0.977585 0.181475 -7.75356e-19)
(0.977541 0.180603 -1.15617e-18)
(0.977492 0.179649 2.34874e-18)
(0.977404 0.178608 2.604e-19)
(0.977274 0.177458 -3.49651e-18)
(0.977097 0.176189 3.07125e-19)
(0.976864 0.174788 2.32844e-18)
(0.976569 0.173249 1.93832e-19)
(0.976203 0.17156 3.13287e-18)
(0.975755 0.169715 -4.44888e-18)
(0.975214 0.167712 -2.77001e-19)
(0.974571 0.16555 -2.98923e-18)
(0.973817 0.163231 1.01564e-18)
(0.972946 0.160764 5.02773e-18)
(0.971957 0.158159 1.52944e-17)
(0.970858 0.15543 2.45502e-18)
(0.969665 0.152588 -1.01922e-17)
(0.96841 0.149635 7.61418e-18)
(0.967138 0.146557 2.70809e-17)
(0.965913 0.143317 -2.1494e-17)
(0.964764 0.139873 2.51851e-17)
(0.963785 0.136094 -1.51652e-17)
(0.963084 0.131773 -7.80342e-18)
(0.962759 0.126675 -3.14138e-17)
(0.962915 0.120419 -1.62797e-18)
(0.963655 0.112445 -9.55385e-18)
(0.965142 0.10186 -1.01736e-17)
(0.967456 0.0877649 7.05849e-18)
(0.975037 0.0539464 9.71461e-19)
(0.982592 0.186169 1.76104e-20)
(0.982419 0.186273 6.34507e-21)
(0.982247 0.186298 -6.51369e-20)
(0.982067 0.186336 6.2695e-20)
(0.98188 0.186371 -2.80689e-20)
(0.981685 0.186405 5.10416e-20)
(0.981482 0.186436 1.79991e-20)
(0.981271 0.186464 -2.60612e-19)
(0.981054 0.186489 1.13547e-19)
(0.980829 0.186508 -7.912e-20)
(0.980598 0.186523 4.76607e-20)
(0.980362 0.186531 1.89147e-19)
(0.980121 0.186533 -3.55389e-20)
(0.979876 0.186527 1.18259e-19)
(0.979629 0.186512 -5.03746e-19)
(0.979382 0.186487 1.95118e-19)
(0.979136 0.186449 8.68452e-20)
(0.978892 0.186396 -2.38877e-19)
(0.978653 0.186325 4.77073e-19)
(0.978421 0.186233 1.58459e-19)
(0.978199 0.186114 -1.72943e-20)
(0.977987 0.185965 -1.73356e-19)
(0.977788 0.18578 7.0436e-19)
(0.977603 0.185556 -1.9515e-18)
(0.977432 0.185285 1.01764e-18)
(0.977276 0.184962 4.33918e-19)
(0.977134 0.184581 -7.36359e-19)
(0.977005 0.184133 1.31204e-18)
(0.976887 0.183615 -6.40337e-19)
(0.976777 0.183014 -3.38769e-19)
(0.976671 0.182328 -6.72484e-19)
(0.976564 0.181576 -2.69922e-19)
(0.976486 0.180705 7.57294e-19)
(0.976419 0.179752 -2.26432e-18)
(0.976315 0.178711 4.209e-18)
(0.97617 0.177565 -2.72557e-19)
(0.97598 0.1763 2.16535e-18)
(0.975737 0.174906 -5.46862e-18)
(0.975435 0.173374 -1.74948e-18)
(0.975065 0.171695 -2.91144e-20)
(0.974619 0.169861 -1.27633e-18)
(0.974087 0.16787 -1.80119e-19)
(0.97346 0.16572 -4.81857e-18)
(0.972729 0.163412 1.44867e-18)
(0.971888 0.160952 2.36268e-18)
(0.970938 0.158349 -1.40366e-17)
(0.969883 0.155613 1.78625e-17)
(0.968741 0.152751 2.6999e-18)
(0.967539 0.149762 4.85561e-19)
(0.966319 0.146629 -1.79621e-17)
(0.96514 0.143315 6.57588e-18)
(0.964031 0.139775 -1.32217e-17)
(0.963082 0.135883 2.42897e-17)
(0.962402 0.13143 5.5319e-18)
(0.96209 0.126183 -1.89543e-17)
(0.96225 0.119763 7.2069e-18)
(0.96299 0.111612 -1.97649e-17)
(0.964473 0.100837 -4.133e-18)
(0.966796 0.0865656 -2.68557e-17)
(0.975034 0.0525067 -6.80576e-18)
(0.982488 0.186225 -3.84753e-21)
(0.982306 0.18633 -1.53071e-20)
(0.982125 0.186354 -1.358e-20)
(0.981936 0.18639 1.31028e-19)
(0.981739 0.186424 -7.30142e-20)
(0.981533 0.186455 -8.92818e-20)
(0.981319 0.186484 -3.43867e-20)
(0.981096 0.18651 -1.41664e-19)
(0.980866 0.186532 8.77465e-20)
(0.980627 0.18655 1.21572e-20)
(0.980381 0.186563 3.90442e-21)
(0.980129 0.18657 3.91963e-19)
(0.97987 0.18657 -2.80073e-19)
(0.979606 0.186562 -3.52887e-20)
(0.979338 0.186545 3.28069e-19)
(0.979067 0.186519 -1.81767e-19)
(0.978794 0.186479 -7.06129e-20)
(0.978522 0.186425 1.15206e-19)
(0.978251 0.186353 3.74172e-19)
(0.977985 0.186261 2.0838e-19)
(0.977725 0.186143 7.81866e-20)
(0.977472 0.185995 -5.28497e-19)
(0.97723 0.185814 2.69115e-19)
(0.976998 0.185593 5.23953e-19)
(0.976779 0.185326 -1.09277e-18)
(0.976573 0.185009 3.53544e-19)
(0.97638 0.184634 -1.41055e-18)
(0.9762 0.184192 1.15433e-18)
(0.97603 0.18368 1.02003e-18)
(0.975868 0.183085 -1.58999e-18)
(0.975712 0.182405 -7.59476e-19)
(0.975558 0.181658 1.02299e-18)
(0.975445 0.180792 3.42395e-19)
(0.975359 0.179845 -9.41707e-19)
(0.975238 0.178813 -1.16327e-18)
(0.975077 0.177677 -1.38352e-18)
(0.974872 0.176424 8.45725e-19)
(0.974617 0.175043 2.04409e-18)
(0.974305 0.173527 7.17442e-19)
(0.97393 0.171864 -6.95751e-19)
(0.973482 0.170048 7.35185e-18)
(0.972954 0.168076 -6.93356e-19)
(0.972337 0.165943 7.93667e-18)
(0.971624 0.16365 -1.44589e-17)
(0.970808 0.161201 2.12587e-18)
(0.969891 0.158601 4.786e-19)
(0.968876 0.155859 -1.24746e-18)
(0.96778 0.152976 -1.17444e-17)
(0.966627 0.14995 -1.93399e-17)
(0.965457 0.146761 1.72394e-17)
(0.964325 0.14337 2.24804e-17)
(0.963258 0.139733 1.15226e-17)
(0.962344 0.135724 -2.30863e-17)
(0.961691 0.131136 1.19941e-17)
(0.961398 0.125738 2.92374e-17)
(0.961569 0.119152 1.09156e-17)
(0.962315 0.110819 1.928e-17)
(0.963806 0.0998494 9.10406e-18)
(0.966153 0.0853859 2.46825e-17)
(0.974924 0.0510294 -1.83346e-17)
(0.982389 0.186293 4.88483e-21)
(0.982197 0.186393 -1.47897e-20)
(0.982007 0.186415 5.34082e-20)
(0.981807 0.186451 1.44155e-20)
(0.981599 0.186483 -7.48191e-20)
(0.981381 0.186514 -8.76998e-20)
(0.981155 0.186543 2.08806e-19)
(0.980919 0.186568 -2.30544e-19)
(0.980674 0.186589 -5.81887e-20)
(0.98042 0.186606 1.44485e-19)
(0.980158 0.186618 1.35826e-19)
(0.979889 0.186622 4.17851e-19)
(0.979612 0.18662 -2.34994e-19)
(0.979328 0.18661 -4.0937e-19)
(0.979038 0.186591 9.04506e-20)
(0.978744 0.186562 -3.40495e-19)
(0.978447 0.186521 2.56175e-19)
(0.978147 0.186465 -4.36024e-19)
(0.977846 0.186392 7.00939e-20)
(0.977547 0.186298 -1.44549e-19)
(0.977252 0.18618 -9.20063e-20)
(0.976961 0.186032 -4.03201e-19)
(0.976677 0.185851 3.62646e-20)
(0.976402 0.185632 8.7987e-19)
(0.976137 0.185368 -3.00178e-19)
(0.975883 0.185053 9.51562e-20)
(0.975641 0.184682 2.77088e-19)
(0.97541 0.184245 -3.73039e-19)
(0.975189 0.183738 -7.69644e-20)
(0.974977 0.183148 5.33389e-19)
(0.97477 0.182474 5.98256e-19)
(0.974568 0.181733 -4.54442e-19)
(0.974421 0.180876 -1.42837e-18)
(0.974315 0.179939 -1.98843e-18)
(0.974176 0.178919 3.03802e-18)
(0.973999 0.177797 8.07869e-19)
(0.973779 0.176559 4.98738e-19)
(0.973509 0.175197 2.56291e-18)
(0.973186 0.1737 -2.38778e-18)
(0.972802 0.172058 1.47989e-18)
(0.97235 0.170263 -1.7583e-20)
(0.971822 0.168311 1.73093e-19)
(0.971211 0.166198 -2.88626e-18)
(0.97051 0.163922 6.57811e-18)
(0.969715 0.161485 -8.7235e-18)
(0.968825 0.158889 5.28603e-18)
(0.967844 0.156139 -1.53142e-17)
(0.966788 0.153234 4.56387e-18)
(0.96568 0.15017 1.00888e-17)
(0.964558 0.146923 -1.7079e-17)
(0.963472 0.143454 -4.68099e-18)
(0.962447 0.139717 -1.41229e-18)
(0.96157 0.13559 -3.76582e-18)
(0.960948 0.130866 -1.20632e-17)
(0.960679 0.125314 8.80728e-19)
(0.960868 0.11856 9.89988e-18)
(0.961628 0.110042 -1.05909e-17)
(0.963135 0.0988711 -2.86083e-18)
(0.96552 0.084201 -3.51101e-18)
(0.974724 0.0494937 1.35844e-17)
(0.98228 0.186381 8.90662e-21)
(0.982078 0.186488 -7.53502e-21)
(0.981878 0.186511 7.06495e-21)
(0.981669 0.186547 4.57684e-20)
(0.981449 0.186579 6.76174e-20)
(0.98122 0.186608 -2.6431e-19)
(0.98098 0.186635 1.92994e-19)
(0.980731 0.186658 4.11886e-20)
(0.980472 0.186677 -1.18325e-20)
(0.980203 0.186692 -8.96815e-20)
(0.979925 0.186701 2.79453e-19)
(0.979638 0.186703 -9.05398e-20)
(0.979343 0.186698 -1.27553e-19)
(0.97904 0.186685 -3.85745e-19)
(0.97873 0.186663 7.78405e-19)
(0.978413 0.186631 -1.61575e-19)
(0.978091 0.186587 -1.37225e-19)
(0.977765 0.186527 -4.0997e-19)
(0.977436 0.186451 4.55331e-19)
(0.977106 0.186354 2.54637e-19)
(0.976777 0.186234 -1.14792e-19)
(0.97645 0.186084 2.0445e-19)
(0.976128 0.185902 -8.69268e-19)
(0.975812 0.185683 5.90518e-20)
(0.975503 0.185419 4.87591e-19)
(0.975203 0.185106 -9.37551e-20)
(0.974913 0.184737 -1.50981e-18)
(0.974633 0.184303 1.37195e-19)
(0.974363 0.1838 1.36129e-18)
(0.974101 0.183214 -3.6002e-19)
(0.973845 0.182546 -7.15671e-19)
(0.973596 0.181812 4.07093e-19)
(0.973414 0.180964 1.23548e-18)
(0.973288 0.180039 2.87998e-18)
(0.973133 0.179033 -4.44449e-19)
(0.972938 0.177928 5.74342e-19)
(0.972702 0.176708 -4.3706e-18)
(0.972417 0.175365 -1.29484e-18)
(0.972081 0.173889 8.14528e-19)
(0.971686 0.172268 -3.35589e-18)
(0.971226 0.170496 -7.70472e-19)
(0.970695 0.168566 1.61531e-18)
(0.970086 0.166473 1.2463e-18)
(0.969394 0.164214 3.66429e-18)
(0.968613 0.161787 1.24729e-17)
(0.967745 0.159193 -1.00469e-17)
(0.966794 0.156434 1.61595e-17)
(0.965774 0.153507 1.24478e-17)
(0.964706 0.150402 1.30496e-20)
(0.963627 0.147097 1.59887e-17)
(0.962586 0.143547 -2.17179e-17)
(0.961603 0.139711 -2.54532e-17)
(0.960765 0.135465 1.93424e-17)
(0.960176 0.130604 1.61708e-17)
(0.959936 0.124898 -6.47902e-18)
(0.960147 0.117974 -3.61701e-17)
(0.960927 0.10927 8.29693e-18)
(0.962459 0.0978932 -8.01938e-18)
(0.964892 0.0830072 -1.16396e-17)
(0.974472 0.047917 1.06803e-17)
(0.982162 0.186485 -9.37768e-21)
(0.98195 0.186588 1.03138e-20)
(0.98174 0.18661 7.15565e-20)
(0.981519 0.186645 -9.40021e-20)
(0.981289 0.186676 1.73593e-19)
(0.981047 0.186706 -2.5714e-19)
(0.980796 0.186733 7.30682e-20)
(0.980534 0.186755 -3.89426e-21)
(0.980261 0.186774 1.67091e-19)
(0.979977 0.186788 -8.82943e-20)
(0.979683 0.186795 2.65114e-20)
(0.979379 0.186796 2.79111e-20)
(0.979067 0.186789 -4.33744e-19)
(0.978745 0.186773 1.29758e-19)
(0.978413 0.186749 3.04908e-19)
(0.978074 0.186715 9.5832e-21)
(0.977729 0.186668 -5.17101e-19)
(0.977378 0.186606 2.09913e-19)
(0.977021 0.186527 9.95282e-19)
(0.976662 0.186429 -6.5101e-19)
(0.976301 0.186306 -4.96108e-19)
(0.97594 0.186155 4.24066e-19)
(0.97558 0.185971 2.70065e-19)
(0.975225 0.185751 3.04212e-19)
(0.974875 0.185486 -5.89723e-19)
(0.974531 0.185174 -1.27962e-18)
(0.974195 0.184805 9.72708e-19)
(0.973869 0.184373 1.39677e-18)
(0.97355 0.183874 3.76994e-19)
(0.97324 0.183292 -7.48709e-19)
(0.972935 0.182628 3.52758e-19)
(0.97264 0.1819 5.79388e-19)
(0.972424 0.181063 -1.01896e-18)
(0.972279 0.180151 -1.73097e-19)
(0.972107 0.179159 -1.77453e-18)
(0.971896 0.17807 -4.99235e-19)
(0.971642 0.176868 -4.34261e-19)
(0.971342 0.175545 1.22336e-18)
(0.970991 0.17409 -1.66638e-18)
(0.970584 0.172491 5.08531e-19)
(0.970114 0.170741 7.9674e-19)
(0.969577 0.168832 2.04095e-19)
(0.968967 0.166758 -5.34724e-18)
(0.968279 0.164513 -7.51827e-18)
(0.967508 0.162095 -6.83519e-18)
(0.966658 0.159502 1.34821e-17)
(0.965731 0.156732 -1.11797e-20)
(0.964741 0.15378 -5.67035e-18)
(0.96371 0.150634 2.94738e-18)
(0.962671 0.147268 -1.84464e-17)
(0.961671 0.143639 8.93825e-18)
(0.96073 0.139702 2.41694e-17)
(0.959931 0.135337 -1.78325e-18)
(0.959377 0.13034 -2.02344e-17)
(0.959168 0.124479 9.46014e-18)
(0.959407 0.117384 8.67281e-18)
(0.960213 0.108491 1.01207e-17)
(0.961777 0.0969056 2.21154e-17)
(0.964267 0.0817934 2.01387e-17)
(0.974166 0.0462836 -2.44615e-17)
(0.982045 0.186608 -7.74183e-21)
(0.981823 0.186713 1.12598e-20)
(0.981602 0.186734 2.41698e-21)
(0.981371 0.186768 4.40241e-20)
(0.981128 0.186798 -6.70659e-20)
(0.980875 0.186826 -1.39925e-19)
(0.98061 0.186852 4.94054e-20)
(0.980334 0.186873 -6.8581e-20)
(0.980047 0.18689 1.48098e-19)
(0.979748 0.186902 -3.04822e-20)
(0.979437 0.186909 -1.00788e-19)
(0.979116 0.186909 8.35508e-20)
(0.978785 0.186901 1.37292e-19)
(0.978444 0.186884 3.81725e-19)
(0.978092 0.186859 -6.95422e-19)
(0.977731 0.186822 3.5746e-19)
(0.977362 0.186773 5.55908e-20)
(0.976986 0.186709 -3.56174e-19)
(0.976602 0.186627 -2.23322e-19)
(0.976214 0.186526 7.35172e-19)
(0.975822 0.1864 -7.72402e-19)
(0.975428 0.186246 2.3238e-19)
(0.975033 0.186061 -6.27841e-19)
(0.97464 0.185839 1.04578e-18)
(0.97425 0.185573 -2.12109e-19)
(0.973865 0.18526 -5.95555e-19)
(0.973485 0.184892 4.81461e-19)
(0.973113 0.18446 9.04884e-19)
(0.972748 0.183963 -8.61594e-19)
(0.972392 0.183383 5.3323e-19)
(0.972041 0.182725 -1.78933e-18)
(0.971701 0.182003 -1.99036e-19)
(0.971451 0.181176 7.78774e-19)
(0.971288 0.180275 -4.47171e-19)
(0.971099 0.179297 -8.92994e-19)
(0.970871 0.178225 -2.12278e-18)
(0.9706 0.17704 2.69066e-18)
(0.970283 0.175736 -1.03553e-18)
(0.969917 0.174301 8.21694e-19)
(0.969495 0.172723 1.65084e-18)
(0.969014 0.170993 1.28326e-18)
(0.968469 0.169104 -8.31199e-19)
(0.967855 0.167046 3.00343e-18)
(0.967167 0.164814 5.72052e-18)
(0.966403 0.162402 -5.77775e-19)
(0.965565 0.159807 -7.98928e-18)
(0.964658 0.157025 -1.09013e-17)
(0.963695 0.154046 -8.46739e-19)
(0.962695 0.150857 8.02436e-18)
(0.961694 0.14743 -1.27702e-18)
(0.960733 0.14372 1.46194e-17)
(0.959831 0.139683 -2.28403e-17)
(0.959071 0.1352 -1.21089e-17)
(0.958554 0.130067 -4.43296e-18)
(0.95838 0.124052 -9.70575e-18)
(0.958649 0.116785 6.03266e-18)
(0.959487 0.107704 -7.7211e-18)
(0.96109 0.0959067 -2.8674e-17)
(0.963644 0.0805621 -3.12305e-17)
(0.973834 0.0446131 1.30463e-17)
(0.981935 0.186744 -1.13551e-20)
(0.981703 0.186844 9.17446e-21)
(0.981471 0.186864 7.35713e-21)
(0.981229 0.186897 -5.33541e-20)
(0.980974 0.186927 5.52624e-20)
(0.980708 0.186955 -2.77001e-20)
(0.980429 0.18698 9.0867e-20)
(0.980138 0.187002 -1.36326e-19)
(0.979835 0.18702 7.34795e-21)
(0.97952 0.187032 1.01612e-20)
(0.979192 0.187038 -1.04241e-19)
(0.978853 0.187037 2.90601e-19)