/*--------------------------------*- C++ -*----------------------------------*\
  =========                 |
  \\      /  F ield         | OpenFOAM: The Open Source CFD Toolbox
   \\    /   O peration     | Website:  https://openfoam.org
    \\  /    A nd           | Version:  6.0
     \\/     M anipulation  |
\*---------------------------------------------------------------------------*/
FoamFile
{
    version     2.0;
    format      ascii;
    class       volScalarField;
    location    "20";
    object      p;
}
// * * * * * * * * * * * * * * * * * * * * * * * * * * * * * * * * * * * * * //

dimensions      [0 2 -2 0 0 0 0];

internalField   nonuniform List<scalar> 
15500
(
0.0156662
0.0157468
0.0158377
0.0159436
0.0160633
0.0162025
0.0163601
0.0165435
0.0167516
0.0169929
0.0172668
0.0175825
0.0179406
0.0183516
0.0188182
0.0193459
0.0199329
0.0205772
0.0212632
0.0219461
0.0225494
0.0229672
0.0230671
0.0227086
0.0217823
0.0202583
0.0182247
0.0156356
0.0131861
0.01189
0.0156789
0.0157601
0.0158513
0.0159572
0.016077
0.0162165
0.0163746
0.0165587
0.0167676
0.0170094
0.017284
0.0175997
0.0179595
0.0183736
0.0188496
0.0193928
0.0200067
0.0206947
0.0214466
0.0222294
0.0229806
0.0236108
0.0240012
0.0240154
0.0235377
0.022501
0.0209637
0.0187702
0.0169165
0.0149
0.0156673
0.0157552
0.0158527
0.0159646
0.0160898
0.0162342
0.0163969
0.0165853
0.0167986
0.0170452
0.0173248
0.0176456
0.0180108
0.0184302
0.0189123
0.0194617
0.0200823
0.0207753
0.0215303
0.0223134
0.0230627
0.0236868
0.0240607
0.0240337
0.0234769
0.0223029
0.0205963
0.0182629
0.0163755
0.0137341
0.0156799
0.0157709
0.0158722
0.0159884
0.0161183
0.0162682
0.0164366
0.0166312
0.0168508
0.017104
0.0173904
0.0177184
0.0180912
0.0185184
0.019009
0.0195676
0.0201979
0.0209016
0.0216668
0.0224619
0.0232265
0.0238691
0.0242634
0.0242499
0.023693
0.0224914
0.0207509
0.0184388
0.0166103
0.0142336
0.0156908
0.0157882
0.0158963
0.0160201
0.016158
0.016316
0.0164926
0.0166953
0.0169227
0.0171838
0.0174783
0.0178148
0.0181969
0.0186344
0.0191368
0.0197092
0.020357
0.0210819
0.021877
0.0227124
0.0235318
0.0242479
0.0247383
0.0248415
0.0244125
0.0233316
0.0217007
0.0195071
0.0178132
0.0155826
0.015757
0.0158529
0.0159599
0.0160833
0.0162223
0.0163836
0.0165651
0.0167748
0.0170104
0.0172809
0.0175852
0.0179324
0.018326
0.0187762
0.0192932
0.0198829
0.0205512
0.0213033
0.0221329
0.023015
0.0238962
0.0246946
0.0252931
0.0255284
0.0252411
0.0242848
0.022745
0.0206149
0.0189612
0.0166534
0.0158387
0.0159395
0.0160503
0.016177
0.0163187
0.0164827
0.0166675
0.0168815
0.017123
0.017401
0.0177146
0.0180728
0.0184791
0.0189441
0.0194787
0.0200892
0.0207829
0.0215647
0.0224327
0.0233636
0.0243085
0.0251914
0.0259024
0.026277
0.0261415
0.0253167
0.0238634
0.021769
0.0200547
0.0176876
0.0159727
0.0160738
0.0161841
0.0163098
0.0164506
0.0166145
0.0168002
0.0170171
0.017263
0.0175479
0.0178704
0.0182399
0.0186599
0.0191415
0.0196964
0.0203318
0.0210546
0.0218721
0.0227827
0.0237676
0.024783
0.0257612
0.0266023
0.0271457
0.0272079
0.0265778
0.0252786
0.023271
0.0214729
0.0190145
0.0160825
0.0161952
0.0163163
0.0164519
0.0166009
0.0167714
0.0169625
0.017184
0.0174351
0.0177265
0.0180574
0.0184382
0.0188726
0.019372
0.019949
0.0206109
0.0213655
0.0222191
0.023174
0.0242127
0.0252966
0.0263657
0.0273304
0.0280389
0.0283043
0.0278927
0.0267841
0.0248991
0.0230349
0.0203295
0.0162209
0.0163379
0.0164641
0.0166057
0.0167614
0.0169395
0.0171385
0.0173689
0.017629
0.0179307
0.0182732
0.0186677
0.0191182
0.0196369
0.0202367
0.0209252
0.0217092
0.0225974
0.0235903
0.024673
0.0258087
0.0269416
0.02799
0.0288112
0.0292218
0.0289782
0.02803
0.0262676
0.0243843
0.0213767
0.016324
0.016453
0.0165925
0.0167487
0.0169191
0.0171117
0.0173248
0.0175686
0.0178423
0.0181578
0.0185152
0.0189262
0.0193954
0.0199348
0.0205581
0.0212723
0.0220849
0.0230025
0.0240282
0.0251445
0.0263129
0.0274768
0.0285568
0.0294152
0.0298756
0.0296978
0.0288264
0.0271477
0.0252877
0.0220845
0.0164754
0.0166047
0.0167468
0.0169082
0.0170868
0.017291
0.0175178
0.0177779
0.0180688
0.018403
0.0187796
0.0192112
0.0197019
0.0202645
0.0209128
0.0216543
0.0224955
0.0234449
0.0245028
0.0256518
0.0268484
0.0280314
0.0291174
0.0299688
0.0304134
0.0302225
0.0293563
0.0277282
0.0259211
0.0227184
0.0166268
0.0167642
0.0169152
0.0170875
0.017278
0.0174954
0.0177368
0.0180127
0.0183209
0.0186737
0.0190706
0.0195243
0.0200388
0.0206269
0.0213034
0.0220758
0.0229519
0.0239388
0.0250412
0.0262371
0.0274796
0.0286996
0.0298056
0.0306541
0.0310694
0.0308331
0.0299289
0.0283148
0.0265434
0.0234648
0.01687
0.0170031
0.0171513
0.0173226
0.0175151
0.0177383
0.0179888
0.0182777
0.0186017
0.0189735
0.0193914
0.0198686
0.0204089
0.0210256
0.0217342
0.0225442
0.0234629
0.024503
0.0256673
0.0269363
0.0282594
0.0295602
0.0307377
0.031636
0.0320677
0.0318124
0.0308712
0.0292464
0.0274607
0.0245209
0.0171341
0.017273
0.0174263
0.0176031
0.0178013
0.0180309
0.0182893
0.018588
0.0189247
0.0193123
0.0197497
0.0202501
0.0208173
0.0214652
0.022211
0.0230652
0.0240394
0.0251462
0.0263961
0.0277696
0.0292142
0.030649
0.0319621
0.0329816
0.033498
0.0332735
0.0323094
0.0306377
0.0287501
0.0258431
0.0174827
0.0176168
0.017766
0.0179395
0.0181364
0.0183678
0.018631
0.0189386
0.0192873
0.0196912
0.0201483
0.0206727
0.0212686
0.0219507
0.0227382
0.0236448
0.0246836
0.0258747
0.0272289
0.0287338
0.0303363
0.0319535
0.0334632
0.0346756
0.0353501
0.0352161
0.0342532
0.0325054
0.0304286
0.0274125
0.0178313
0.0179745
0.0181316
0.0183128
0.0185165
0.0187541
0.0190242
0.0193395
0.0196989
0.0201167
0.0205923
0.0211406
0.0217663
0.0224853
0.0233192
0.0242842
0.0253984
0.0266818
0.0281581
0.0298138
0.0316008
0.0334329
0.0351803
0.0366332
0.0375143
0.0375085
0.0365549
0.0346911
0.0323381
0.0290571
0.0182589
0.0183982
0.0185523
0.0187314
0.0189352
0.0191757
0.0194513
0.019776
0.0201476
0.0205819
0.0210782
0.0216525
0.0223105
0.0230695
0.0239536
0.0249832
0.0261765
0.0275643
0.0291686
0.0309858
0.0329694
0.035032
0.0370375
0.0387555
0.0398704
0.0400136
0.0390722
0.0370637
0.0343787
0.0307278
0.0186634
0.0188137
0.0189781
0.0191674
0.0193806
0.0196299
0.0199148
0.0202496
0.0206343
0.0210853
0.0216035
0.0222057
0.0228986
0.0237008
0.0246393
0.0257364
0.0270161
0.0285083
0.0302472
0.0322302
0.0344122
0.0367066
0.038969
0.0409503
0.042295
0.0425792
0.0416336
0.0394462
0.0363856
0.0322877
0.0191279
0.0192733
0.0194349
0.0196236
0.0198393
0.0200953
0.0203901
0.0207394
0.0211418
0.021615
0.0221595
0.0227937
0.0235255
0.024375
0.0253712
0.0265403
0.0279069
0.0295101
0.0313813
0.0335272
0.0359022
0.0384196
0.0409269
0.043157
0.0447147
0.0451228
0.0441548
0.0417687
0.0383179
0.0337556
0.01954
0.0197005
0.0198768
0.0200808
0.0203111
0.0205813
0.0208909
0.0212558
0.0216767
0.0221723
0.0227445
0.023413
0.0241866
0.0250868
0.0261446
0.0273877
0.0288465
0.0305558
0.0325628
0.0348684
0.0374312
0.0401592
0.0428933
0.0453464
0.0470862
0.047585
0.046564
0.0439524
0.0400966
0.0350608
0.0200272
0.0201818
0.0203551
0.0205589
0.0207933
0.0210728
0.0213957
0.0217793
0.0222226
0.0227456
0.0233499
0.0240567
0.024876
0.0258307
0.0269529
0.0282742
0.0298229
0.0316469
0.0337847
0.0362474
0.038991
0.0419183
0.0448628
0.0475161
0.0494106
0.0499706
0.048872
0.0460187
0.0417593
0.0362752
0.0204503
0.0206216
0.0208111
0.0210319
0.0212827
0.0215783
0.0219184
0.0223205
0.0227864
0.0233365
0.023974
0.0247211
0.0255888
0.0266008
0.027791
0.0291916
0.0308377
0.0327714
0.035046
0.0376684
0.0405907
0.0437125
0.0468543
0.0496873
0.0517069
0.0522935
0.0510847
0.047962
0.0432862
0.0373605
0.020947
0.0211111
0.0212966
0.021517
0.0217724
0.0220791
0.0224353
0.02286
0.0233526
0.0239352
0.0246101
0.0254011
0.0263205
0.0273929
0.0286533
0.0301381
0.0318808
0.0339354
0.0363463
0.0391299
0.0422324
0.0455477
0.0488818
0.0518838
0.0540102
0.0545998
0.0532557
0.0498443
0.0447468
0.0384042
0.021362
0.0215482
0.0217548
0.0219967
0.0222723
0.0225983
0.0229744
0.0234203
0.023938
0.0245504
0.0252617
0.026097
0.0270692
0.0282036
0.0295377
0.0311087
0.0329568
0.0351277
0.0376875
0.0406399
0.043933
0.0474479
0.0509773
0.0541417
0.0563586
0.0569244
0.0554134
0.0516794
0.0461345
0.0393698
0.0218845
0.0220635
0.0222655
0.0225065
0.0227863
0.0231233
0.0235155
0.0239841
0.024529
0.0251747
0.0259247
0.026806
0.027833
0.0290318
0.0304412
0.0321033
0.0340547
0.0363593
0.0390685
0.0421996
0.0456931
0.0494182
0.0531518
0.0564822
0.0587845
0.0593104
0.0576087
0.0535254
0.0475153
0.0403372
0.0223238
0.0225271
0.0227516
0.0230144
0.0233141
0.0236695
0.0240807
0.0245694
0.0251389
0.0258146
0.0266018
0.0275289
0.028611
0.0298751
0.0313628
0.0331168
0.0351832
0.0376175
0.0404934
0.0438195
0.0475291
0.0514833
0.0554344
0.0589375
0.0613189
0.0617848
0.0598605
0.0553863
0.0488732
0.0412598
0.0228696
0.0230647
0.0232838
0.0235449
0.0238485
0.0242149
0.0246424
0.0251546
0.025752
0.0264619
0.0272888
0.0282632
0.029402
0.0307331
0.0322998
0.0341508
0.0363312
0.0389145
0.0419626
0.0454965
0.0494389
0.0536401
0.0578264
0.061515
0.0639774
0.0643713
0.062199
0.057301
0.0502583
0.0422059
0.0233097
0.0235356
0.0237826
0.0240704
0.0243974
0.0247846
0.0252323
0.0257652
0.0263871
0.0271268
0.0279908
0.0290115
0.0302065
0.0316042
0.0332514
0.0352001
0.0375031
0.0402346
0.0434795
0.0472394
0.0514395
0.0559101
0.0603533
0.0642387
0.0667805
0.0670829
0.0646283
0.0592592
0.0516415
0.0431195
0.0238948
0.0241122
0.0243529
0.0246379
0.0249674
0.0253643
0.0258269
0.0263815
0.0270297
0.0278018
0.0287042
0.0297714
0.031022
0.0324863
0.0342135
0.0362567
0.0386914
0.0415991
0.0450444
0.0490466
0.0535226
0.058285
0.0630065
0.0671041
0.0697283
0.0699259
0.0671599
0.0612828
0.0530603
0.0440591
0.0243735
0.0246228
0.0248918
0.0252026
0.025554
0.0259694
0.0264498
0.0270223
0.0276927
0.0284928
0.0294304
0.0305415
0.0318463
0.0333762
0.0351772
0.0373354
0.0399119
0.042993
0.0466661
0.0509314
0.055706
0.0607881
0.0658092
0.0701321
0.0728345
0.0729047
0.0697881
0.0633516
0.0544777
0.0449651
0.0249979
0.0252361
0.0254963
0.0258021
0.0261541
0.0265776
0.0270712
0.0276641
0.028359
0.0291892
0.0301633
0.0313184
0.0326785
0.0342719
0.036166
0.0384284
0.0411572
0.0444448
0.0483407
0.0528846
0.0579801
0.0634055
0.0687484
0.0733104
0.0760905
0.0760146
0.0725134
0.0654777
0.0559234
0.0458917
0.0255163
0.0257888
0.0260778
0.026408
0.0267789
0.0272163
0.0277227
0.0283286
0.0290413
0.0298961
0.030903
0.0321019
0.033517
0.0351826
0.0371552
0.0395468
0.0424401
0.0459108
0.0500711
0.0549184
0.060367
0.0661624
0.0718505
0.0766604
0.0795092
0.0792572
0.0753265
0.0676375
0.0573574
0.0467794
0.0261816
0.0264364
0.0267086
0.027025
0.0273888
0.0278286
0.0283438
0.0289672
0.0297029
0.0305874
0.0316316
0.0328769
0.0343518
0.0360866
0.0381614
0.0406696
0.0437217
0.0474307
0.0518492
0.0570269
0.0628531
0.0690439
0.0750987
0.0801671
0.0830772
0.0826226
0.0782217
0.0698389
0.058807
0.0476794
0.0265364
0.0268313
0.0271425
0.0275007
0.0279015
0.0283742
0.0289189
0.0295699
0.0303352
0.0312544
0.0323397
0.0336366
0.0351742
0.0369897
0.0391516
0.0417984
0.0450366
0.0489594
0.0536902
0.0592307
0.0654638
0.0720815
0.078523
0.0838556
0.086809
0.0861134
0.0811905
0.0720575
0.0602324
0.048535
0.0271612
0.0274407
0.0277348
0.0280755
0.0284645
0.0289346
0.0294843
0.0301507
0.0309389
0.0318902
0.0330178
0.0343683
0.035975
0.0378709
0.0401482
0.0429269
0.046353
0.0505553
0.0555934
0.0615193
0.0681864
0.0752574
0.082107
0.0877093
0.0906903
0.0897167
0.0842258
0.0742999
0.0616601
0.0493967
0.0274304
0.0277529
0.0280859
0.0284655
0.0288882
0.0293877
0.0299652
0.0306597
0.0314809
0.032473
0.0336504
0.0350636
0.0367467
0.0387394
0.0411208
0.0440677
0.0477144
0.0521678
0.0575738
0.0639142
0.0710526
0.0786075
0.0858865
0.091756
0.0947379
0.0934369
0.0873191
0.0765427
0.0630506
0.0502114
0.0276903
0.028012
0.0283524
0.0287493
0.0291965
0.0297319
0.0303482
0.0310883
0.0319561
0.0329997
0.0342353
0.0357171
0.0374856
0.0395771
0.0421013
0.045211
0.0490792
0.0538621
0.0596203
0.0664049
0.0740453
0.0821153
0.0898441
0.0959803
0.0989358
0.0972611
0.0904618
0.0787939
0.0644314
0.0510271
0.0279459
0.0283084
0.0286811
0.0291045
0.0295729
0.0301247
0.0307584
0.0315182
0.0324141
0.0334966
0.0347837
0.0363345
0.038191
0.0403984
0.0430535
0.0463648
0.0504932
0.0555703
0.0617499
0.0690195
0.0772015
0.0858249
0.0940194
0.100413
0.103302
0.101194
0.093646
0.081028
0.0657642
0.0517954
0.028164
0.0285268
0.0289054
0.0293418
0.0298284
0.0304075
0.0310712
0.031868
0.0328037
0.0339334
0.0352784
0.0369024
0.0388553
0.0411809
0.0440069
0.0475116
0.0519053
0.0573616
0.0639535
0.0717424
0.0805066
0.0897178
0.0983966
0.105037
0.107822
0.105219
0.0968646
0.0832541
0.0670775
0.0525632
0.0283088
0.0287114
0.0291213
0.0295838
0.0300914
0.0306863
0.0313672
0.0321838
0.0331485
0.0343195
0.0357203
0.0374209
0.0394747
0.0419361
0.044917
0.048662
0.0533584
0.0591589
0.0662511
0.0746073
0.0840082
0.0938436
0.10302
0.109885
0.112511
0.109341
0.100106
0.0854453
0.0683325
0.0532869
0.0283973
0.0287932
0.0292037
0.0296765
0.030202
0.0308277
0.0315429
0.032402
0.0334119
0.0346355
0.0361004
0.0378826
0.0400449
0.0426418
0.045821
0.0497925
0.0547982
0.0610488
0.0686305
0.0776043
0.0876887
0.098186
0.107873
0.11494
0.117352
0.113545
0.103362
0.0876145
0.06956
0.0540105
0.0284788
0.0289143
0.0293526
0.0298454
0.0303841
0.0310169
0.0317412
0.0326133
0.0336474
0.0349101
0.0364314
0.0382943
0.0405668
0.0433155
0.0466741
0.0509222
0.056283
0.0629488
0.0711245
0.08078
0.0916022
0.102801
0.112999
0.120232
0.122359
0.117828
0.106619
0.089729
0.0707215
0.0546953
0.0285098
0.0289381
0.0293747
0.0298737
0.0304242
0.0310796
0.031829
0.0327343
0.0338056
0.0351153
0.036699
0.0386462
0.0410355
0.0439365
0.0475201
0.0520304
0.0577636
0.0649608
0.073728
0.0841186
0.0957329
0.107669
0.118382
0.125743
0.127514
0.122175
0.109873
0.0918051
0.0718506
0.0553841
0.0284308
0.0289023
0.0293704
0.0298927
0.0304594
0.0311239
0.0318841
0.0328039
0.0339016
0.0352536
0.0368985
0.0389344
0.0414467
0.0445195
0.0483097
0.053147
0.0592984
0.0669943
0.0764781
0.0876719
0.100143
0.112848
0.124067
0.131498
0.132824
0.126577
0.113099
0.093806
0.0729068
0.0560428
0.0282337
0.0286975
0.0291665
0.0297009
0.0302871
0.0309844
0.0317796
0.0327423
0.0338861
0.0352937
0.0370108
0.0391436
0.0417902
0.0450393
0.0490917
0.0542397
0.0608334
0.0691684
0.0793616
0.0914254
0.10481
0.118316
0.130032
0.137476
0.138267
0.131023
0.116299
0.095756
0.0739277
0.0567101
0.0279788
0.0284853
0.0289841
0.0295391
0.0301384
0.0308418
0.0316455
0.0326222
0.0337933
0.0352471
0.0370329
0.039267
0.042057
0.0455073
0.0498072
0.0553402
0.0624341
0.0713788
0.0824244
0.0954412
0.109799
0.124134
0.136316
0.143695
0.143843
0.135493
0.119439
0.0976081
0.0748731
0.0573578
0.0276226
0.0281158
0.028609
0.0291694
0.0297812
0.0305099
0.0313414
0.0323548
0.0335684
0.0350779
0.0369416
0.0392856
0.0422322
0.0458935
0.0505037
0.0564099
0.0640474
0.0737554
0.0856545
0.0996938
0.115085
0.130273
0.142896
0.150131
0.14953
0.139976
0.12253
0.099394
0.0757856
0.0580227
0.0271281
0.0276619
0.0281818
0.0287597
0.0293817
0.0301141
0.0309533
0.0319813
0.033225
0.0347862
0.036728
0.0391892
0.0423053
0.0462065
0.0511162
0.0574911
0.0657326
0.0761799
0.0891016
0.104249
0.120741
0.136792
0.149805
0.15679
0.155317
0.144444
0.125525
0.10106
0.0766232
0.0586825
0.0265011
0.0270167
0.0275276
0.0281093
0.0287431
0.0295024
0.0303708
0.0314377
0.0327268
0.0343487
0.0363775
0.0389647
0.0422642
0.0464181
0.0517012
0.0585336
0.0674339
0.0788021
0.0927428
0.109083
0.126733
0.14366
0.157013
0.163646
0.161178
0.148893
0.128441
0.102652
0.0774351
0.0593687
0.0257986
0.0263514
0.0268824
0.0274723
0.0281056
0.0288571
0.0297219
0.0307941
0.0321064
0.0337776
0.0358884
0.038606
0.0421024
0.0465412
0.0521919
0.0595887
0.0692196
0.0814911
0.0966409
0.114273
0.133136
0.150935
0.164545
0.170696
0.167092
0.153278
0.131221
0.104103
0.0781802
0.0600664
0.0249614
0.0254906
0.0260051
0.02659
0.0272242
0.0279894
0.0288697
0.0299669
0.031314
0.03304
0.0352399
0.0380972
0.0418064
0.0465498
0.0526501
0.060604
0.0710415
0.0844116
0.100775
0.119785
0.139915
0.158577
0.172365
0.177906
0.173039
0.157603
0.1339
0.10547
0.0789151
0.060804
0.0239579
0.0245195
0.0250486
0.0256351
0.0262625
0.0270133
0.0278843
0.0289828
0.0303511
0.0321281
0.0344185
0.0374252
0.0413674
0.0464536
0.0530035
0.0616414
0.07296
0.0874187
0.105217
0.1257
0.147149
0.166637
0.18049
0.18526
0.178982
0.161811
0.1364
0.106682
0.0795971
0.0615737
0.022749
0.0232825
0.0237918
0.0243716
0.0249984
0.0257628
0.0266486
0.0277717
0.0291763
0.0310132
0.033405
0.0365753
0.04077
0.0462213
0.0533098
0.0626271
0.0749261
0.0907028
0.109932
0.131981
0.15479
0.175068
0.18887
0.192722
0.1849
0.165921
0.138771
0.107814
0.0802916
0.0623966
0.0213912
0.0219528
0.0224698
0.0230423
0.0236525
0.0243929
0.0252611
0.02638
0.0278039
0.029696
0.0321918
0.0355334
0.0399996
0.0458534
0.0534722
0.0636287
0.0770064
0.0941052
0.115005
0.138724
0.162912
0.183912
0.197508
0.200262
0.190746
0.169857
0.14092
0.108779
0.0809575
0.0632727
0.0197901
0.0203166
0.020806
0.0213636
0.0219655
0.0227113
0.0235882
0.0247275
0.0261882
0.0281467
0.0307521
0.0342767
0.0390281
0.04528
0.0535779
0.0645924
0.0791762
0.0978343
0.120399
0.145869
0.171457
0.193106
0.206344
0.207833
0.196507
0.173648
0.142924
0.109672
0.0816681
0.0642181
0.0178627
0.0184156
0.0189156
0.0194737
0.0200721
0.0208104
0.0216874
0.0228401
0.0243336
0.0263558
0.0290738
0.0327855
0.0378118
0.0445927
0.0535646
0.0656077
0.0815049
0.101711
0.126204
0.153509
0.180496
0.202673
0.215364
0.215394
0.20212
0.177204
0.144665
0.1104
0.0823822
0.0652385
0.0155395
0.0160852
0.0165958
0.0171898
0.0178253
0.01861
0.0195231
0.0207103
0.022245
0.0243291
0.027159
0.0310523
0.0364509
0.0437188
0.0535159
0.0666373
0.083934
0.105957
0.132354
0.161569
0.189944
0.212533
0.224488
0.222896
0.207575
0.180578
0.146241
0.111082
0.0831821
0.0663398
0.0134078
0.0140089
0.0145399
0.0151177
0.0157167
0.0164468
0.017308
0.0184567
0.0199776
0.0220907
0.0250146
0.0291188
0.0348323
0.042731
0.0533658
0.0676645
0.0865059
0.11036
0.13895
0.170153
0.199855
0.222691
0.233686
0.230283
0.212799
0.18365
0.14752
0.111613
0.0840279
0.067534
0.0115924
0.0120702
0.0124771
0.0129428
0.0134399
0.0140848
0.014869
0.0159567
0.0174463
0.0195733
0.0225876
0.0268855
0.033026
0.0415051
0.0530845
0.0686603
0.0891808
0.11516
0.145913
0.179148
0.210123
0.233037
0.242858
0.237497
0.217799
0.186495
0.14863
0.112134
0.0850079
0.0688193
0.00896885
0.00948087
0.00989086
0.0103304
0.0107794
0.0113578
0.0120749
0.013108
0.0145685
0.0167158
0.0198299
0.0243648
0.0308744
0.0400831
0.0526492
0.0696301
0.091996
0.120125
0.153351
0.188648
0.220789
0.243552
0.251959
0.244474
0.222481
0.188973
0.149414
0.112536
0.086081
0.0702114
0.00651651
0.00687538
0.00713828
0.00745173
0.00778897
0.00827658
0.00891151
0.00987995
0.0113079
0.0134741
0.0166951
0.0214621
0.028469
0.0383634
0.0520518
0.0705706
0.0949382
0.125533
0.161152
0.198517
0.231706
0.254101
0.260869
0.251163
0.226865
0.191189
0.150031
0.112986
0.0873405
0.0716958
0.00310061
0.00350167
0.00377585
0.00407023
0.00436153
0.00478135
0.0053417
0.00624617
0.00763611
0.00982109
0.0131574
0.0182018
0.0256557
0.036417
0.0512904
0.0714925
0.0980424
0.131121
0.169427
0.208845
0.242889
0.264644
0.269533
0.257487
0.230845
0.192974
0.15031
0.113365
0.0887442
0.0732926
-1.04015e-05
0.000229973
0.000343483
0.000492826
0.000647236
0.000945631
0.00139068
0.00219817
0.00353004
0.00572202
0.00917475
0.0144972
0.0225414
0.0341318
0.0503564
0.0724007
0.101311
0.137171
0.178038
0.219445
0.25416
0.275014
0.27782
0.2634
0.234467
0.194456
0.150446
0.113866
0.0903844
0.0749765
-0.00412427
-0.00386938
-0.00377297
-0.00367309
-0.00359452
-0.00339412
-0.0030538
-0.00233838
-0.00106744
0.00113247
0.00471457
0.0103645
0.0189587
0.0315942
0.049243
0.07329
0.104734
0.143379
0.187093
0.23039
0.265517
0.285152
0.285675
0.268828
0.237601
0.195447
0.15025
0.114365
0.0922149
0.0767691
-0.00817489
-0.00809254
-0.00816418
-0.00821346
-0.00827635
-0.00820494
-0.0079906
-0.00738628
-0.00618631
-0.00398307
-0.00026758
0.00571972
0.01502
0.0286641
0.0479321
0.0741595
0.108323
0.15005
0.196406
0.241461
0.276736
0.294875
0.292958
0.273747
0.240312
0.196112
0.149955
0.11508
0.0943246
0.0786295
-0.0133311
-0.0132276
-0.0133086
-0.0134008
-0.0135377
-0.0135676
-0.0134693
-0.012974
-0.0118526
-0.00965107
-0.00578988
0.000581623
0.0105522
0.0254431
0.0464095
0.074985
0.112049
0.15685
0.206087
0.252723
0.287795
0.304116
0.299624
0.278073
0.242455
0.196233
0.149364
0.115876
0.0966613
0.0805823
-0.0182027
-0.0182879
-0.0185621
-0.0188354
-0.019151
-0.019353
-0.0194244
-0.0190834
-0.0180694
-0.0158845
-0.0118845
-0.00512233
0.00567353
0.0217706
0.0446622
0.0757911
0.115961
0.164089
0.215924
0.263903
0.298446
0.312672
0.305551
0.281804
0.244133
0.196012
0.148754
0.116994
0.0993027
0.082573
-0.0240956
-0.0242036
-0.0245358
-0.024906
-0.0253491
-0.0257059
-0.0259458
-0.0257631
-0.0248671
-0.0227171
-0.018576
-0.0113886
0.000171433
0.0177701
0.0426853
0.0765572
0.120001
0.171408
0.226017
0.275043
0.308647
0.320481
0.310703
0.284854
0.245167
0.195216
0.147917
0.118291
0.102186
0.0846271
-0.0299632
-0.0302732
-0.0308117
-0.0313796
-0.0320219
-0.0325785
-0.0330211
-0.0330272
-0.0322869
-0.0301922
-0.0259326
-0.0183796
-0.00578364
0.0133136
0.040517
0.077346
0.124246
0.179126
0.2361
0.285835
0.318114
0.327351
0.314974
0.287262
0.245688
0.194098
0.147173
0.120018
0.105376
0.0866751
-0.0369643
-0.0373003
-0.0378998
-0.0385709
-0.0393547
-0.0400862
-0.0407334
-0.0409495
-0.0403877
-0.0383812
-0.0340703
-0.0259199
-0.0123324
0.00857222
0.0381906
0.0781298
0.128617
0.186859
0.246257
0.296302
0.326794
0.333226
0.318353
0.288918
0.245498
0.192405
0.146315
0.122019
0.108794
0.0887431
-0.0438554
-0.0444064
-0.0452354
-0.0461351
-0.0471601
-0.0481493
-0.0490638
-0.0495465
-0.0492048
-0.0473333
-0.0428031
-0.0341694
-0.0193069
0.003479
0.035698
0.0789741
0.133208
0.194891
0.256184
0.306072
0.3344
0.33793
0.320781
0.289887
0.244783
0.190444
0.145705
0.12455
0.112484
0.0907486
-0.0518294
-0.0524564
-0.0534024
-0.054469
-0.0557003
-0.0569364
-0.0581255
-0.0588867
-0.0587793
-0.0569877
-0.0523707
-0.0429885
-0.0268329
-0.00199035
0.033012
0.0798083
0.137883
0.202815
0.265925
0.31514
0.340866
0.341428
0.322242
0.290043
0.243304
0.187963
0.145131
0.127433
0.116354
0.0927173
-0.0599877
-0.0608506
-0.0620571
-0.0633921
-0.0649136
-0.0664622
-0.067977
-0.0690547
-0.0692058
-0.0675421
-0.0626399
-0.0526106
-0.0349655
-0.00789553
0.0301469
0.0807272
0.142748
0.210875
0.275113
0.323119
0.34591
0.343608
0.322718
0.289509
0.2413
0.185337
0.14499
0.130917
0.120422
0.0945577
-0.0694621
-0.070449
-0.0718125
-0.0733502
-0.075112
-0.0769426
-0.0787687
-0.0801589
-0.0805617
-0.0789678
-0.0738993
-0.0629589
-0.0437355
-0.0142147
0.0271106
0.0816565
0.147638
0.21864
0.283749
0.329968
0.349477
0.344439
0.322199
0.288102
0.238521
0.182311
0.145066
0.134796
0.124579
0.0962948
-0.0796818
-0.0808688
-0.0824443
-0.0842044
-0.0862294
-0.0883663
-0.0905321
-0.09226
-0.0929375
-0.0914432
-0.0860022
-0.0742047
-0.0531451
-0.0209127
0.0239937
0.0827233
0.152659
0.226276
0.291445
0.335273
0.351355
0.343869
0.320738
0.285994
0.235295
0.179331
0.145778
0.139295
0.128823
0.0978305
-0.0907381
-0.0920972
-0.0938875
-0.095917
-0.0982558
-0.100754
-0.103311
-0.105423
-0.106396
-0.104962
-0.0992289
-0.0862542
-0.0631793
-0.0279501
0.0207882
0.0838301
0.157605
0.233353
0.298129
0.338984
0.351477
0.341889
0.318276
0.282968
0.231347
0.176155
0.146893
0.144178
0.133027
0.0991896
-0.102605
-0.104202
-0.106261
-0.10859
-0.111286
-0.114198
-0.117207
-0.119758
-0.121074
-0.119722
-0.113484
-0.099309
-0.0738746
-0.0353087
0.0175972
0.0851127
0.162565
0.239948
0.303379
0.340744
0.349712
0.338542
0.31492
0.279303
0.227106
0.173299
0.148832
0.149636
0.137171
0.100277
-0.115457
-0.117294
-0.119645
-0.122331
-0.125445
-0.12884
-0.13237
-0.135427
-0.137116
-0.135814
-0.129091
-0.113342
-0.0852635
-0.0429864
0.0144124
0.0864766
0.16732
0.245625
0.307078
0.340464
0.346014
0.33377
0.310575
0.274709
0.222307
0.17052
0.151334
0.15539
0.141114
0.101115
-0.12937
-0.13151
-0.134213
-0.137302
-0.140898
-0.144851
-0.14899
-0.152628
-0.154755
-0.153505
-0.146073
-0.128627
-0.0974551
-0.0509983
0.0113398
0.0880537
0.171933
0.250377
0.308854
0.337867
0.340394
0.327687
0.305449
0.26957
0.217517
0.168389
0.154796
0.161594
0.144827
0.101615
-0.14457
-0.147039
-0.150139
-0.153702
-0.157861
-0.162467
-0.167309
-0.171631
-0.174251
-0.173026
-0.164858
-0.145262
-0.110546
-0.0593781
0.00829899
0.089707
0.176191
0.253818
0.308509
0.332877
0.332747
0.32019
0.299354
0.263581
0.212463
0.166659
0.158904
0.167927
0.148161
0.101804
-0.161268
-0.164129
-0.167686
-0.171789
-0.176597
-0.18196
-0.187645
-0.192776
-0.195999
-0.194878
-0.185622
-0.163592
-0.124672
-0.0681467
0.00533235
0.0915484
0.180127
0.255838
0.305739
0.325393
0.323195
0.311501
0.292605
0.257302
0.207845
0.165926
0.16401
0.174504
0.151084
0.101616
-0.179708
-0.183022
-0.18711
-0.191847
-0.197425
-0.203701
-0.210404
-0.216534
-0.220567
-0.219394
-0.208947
-0.183857
-0.140029
-0.0773985
0.00239542
0.0935292
0.183579
0.256125
0.300325
0.315266
0.31158
0.301371
0.284984
0.250382
0.203393
0.1659
0.169733
0.180963
0.153449
0.101076
-0.200165
-0.20401
-0.208722
-0.214214
-0.220716
-0.228103
-0.236054
-0.243441
-0.248347
-0.247269
-0.235272
-0.206616
-0.157066
-0.0873183
-0.000474014
0.09583
0.186568
0.254455
0.292155
0.302568
0.298152
0.290115
0.277007
0.243564
0.199935
0.16716
0.176351
0.187392
0.155245
0.100141
-0.222898
-0.227387
-0.232845
-0.239248
-0.246855
-0.255589
-0.265053
-0.273944
-0.280049
-0.279095
-0.265437
-0.232603
-0.176322
-0.0981781
-0.00340997
0.0984828
0.189014
0.250765
0.280908
0.287086
0.282525
0.277398
0.268397
0.23651
0.197166
0.169339
0.183407
0.193401
0.156329
0.0988372
-0.248252
-0.253493
-0.259834
-0.26731
-0.276255
-0.286611
-0.297938
-0.308721
-0.316343
-0.315787
-0.30048
-0.262837
-0.198584
-0.110473
-0.00658343
0.101834
0.191019
0.244613
0.266714
0.269095
0.265007
0.263729
0.259911
0.230191
0.195985
0.172944
0.191096
0.199066
0.156718
0.0971598
-0.276473
-0.282634
-0.290047
-0.298821
-0.309365
-0.321689
-0.335288
-0.348443
-0.358112
-0.358438
-0.341589
-0.298565
-0.225214
-0.125336
-0.0106898
0.10637
0.192684
0.236193
0.249149
0.248088
0.245013
0.248675
0.251306
0.224213
0.196026
0.177491
0.198893
0.203989
0.156292
0.095129
-0.308087
-0.315295
-0.323936
-0.334201
-0.346637
-0.361309
-0.377698
-0.393864
-0.406379
-0.408279
-0.39035
-0.341665
-0.258631
-0.145206
-0.0174635
0.111899
0.193219
0.224643
0.228469
0.224388
0.222996
0.23304
0.243626
0.219725
0.198187
0.183372
0.206917
0.208252
0.155116
0.0927661
-0.343483
-0.351868
-0.361898
-0.373885
-0.388522
-0.405989
-0.425757
-0.445736
-0.462096
-0.466939
-0.448695
-0.394823
-0.303754
-0.176412
-0.0301575
0.111412
0.1891
0.208489
0.203086
0.196994
0.198068
0.216486
0.236622
0.216255
0.201962
0.189969
0.214593
0.211474
0.153094
0.09009
-0.383006
-0.392725
-0.40433
-0.418276
-0.435474
-0.456206
-0.480001
-0.504681
-0.526368
-0.535804
-0.518686
-0.461869
-0.373313
-0.241999
-0.0571752
0.0990281
0.174206
0.182474
0.171615
0.16585
0.170892
0.200287
0.231562
0.215039
0.208165
0.197525
0.221994
0.213773
0.150345
0.0871616
-0.426993
-0.43824
-0.451652
-0.467872
-0.48801
-0.512513
-0.54097
-0.571264
-0.599742
-0.616043
-0.601282
-0.545773
-0.488972
-0.360012
-0.11513
0.0671993
0.146317
0.14737
0.132707
0.129328
0.140621
0.184233
0.228136
0.215437
0.216103
0.205302
0.228537
0.214807
0.146806
0.0839929
-0.475849
-0.488892
-0.504408
-0.523248
-0.546792
-0.575621
-0.609346
-0.646062
-0.682891
-0.706882
-0.694551
-0.644721
-0.637319
-0.483925
-0.198989
0.0208935
0.106213
0.103196
0.0875932
0.0880639
0.108803
0.170085
0.227596
0.21865
0.226415
0.213433
0.2343
0.214755
0.142662
0.0806653
-0.529976
-0.545148
-0.563169
-0.585143
-0.612743
-0.646601
-0.686298
-0.730037
-0.775877
-0.807467
-0.803577
-0.777458
-0.751261
-0.566247
-0.281511
-0.0258384
0.0594702
0.0525642
0.0354778
0.041109
0.0751264
0.15761
0.229285
0.223791
0.238232
0.221124
0.23876
0.213345
0.137886
0.0771841
-0.589715
-0.607469
-0.628543
-0.654345
-0.686867
-0.726724
-0.773271
-0.824102
-0.877297
-0.917197
-0.93711
-0.977485
-0.913021
-0.652627
-0.338134
-0.0625653
0.00960269
-0.00472551
-0.0219595
-0.00931401
0.0421187
0.148418
0.234135
0.231885
0.252031
0.228433
0.242062
0.210846
0.132721
0.0736869
-0.65507
-0.675941
-0.700712
-0.731184
-0.769613
-0.816379
-0.869819
-0.926026
-0.979119
-1.04203
-1.11043
-1.21046
-1.15368
-0.791605
-0.381705
-0.0875191
-0.039927
-0.0662151
-0.085307
-0.0636444
0.00911216
0.141497
0.241084
0.241986
0.266927
0.234582
0.24379
0.20708
0.127173
0.0702337
-0.725811
-0.750403
-0.779634
-0.815726
-0.861275
-0.916169
-0.977461
-1.03921
-1.10218
-1.20763
-1.31081
-1.41746
-1.3451
-0.935261
-0.413288
-0.105973
-0.091032
-0.132115
-0.152298
-0.119495
-0.0216726
0.137907
0.250886
0.255256
0.283294
0.239599
0.244166
0.202413
0.121533
0.067016
-0.801413
-0.830548
-0.865285
-0.908454
-0.962955
-1.02799
-1.09887
-1.17186
-1.27222
-1.39684
-1.52237
-1.57476
-1.4545
-1.03946
-0.422304
-0.121276
-0.142995
-0.198313
-0.225485
-0.178496
-0.0517153
0.136448
0.26288
0.271068
0.300308
0.242709
0.242915
0.196775
0.115849
0.0640999
-0.880685
-0.915225
-0.95658
-1.0082
-1.07304
-1.14931
-1.23225
-1.32724
-1.45529
-1.5462
-1.73652
-1.8059
-1.55459
-1.08422
-0.405388
-0.135575
-0.194942
-0.266706
-0.305186
-0.237781
-0.0782641
0.138524
0.278331
0.290435
0.318035
0.243814
0.240368
0.190631
0.110448
0.0616733
-0.960947
-1.00142
-1.05002
-1.11059
-1.18568
-1.27281
-1.37146
-1.49173
-1.61413
-1.72246
-1.89352
-1.98668
-1.6773
-1.09951
-0.368438
-0.147505
-0.239956
-0.337194
-0.396188
-0.297937
-0.102848
0.142999
0.296187
0.312108
0.335349
0.242231
0.236474
0.184042
0.10541
0.0598198
-1.03839
-1.08457
-1.14002
-1.20856
-1.29204
-1.38843
-1.5025
-1.62782
-1.72723
-1.89805
-2.07516
-2.14127
-1.80192
-1.07481
-0.314111
-0.158573
-0.279017
-0.415724
-0.498337
-0.353207
-0.122987
0.150747
0.316196
0.335543
0.351811
0.238105
0.231827
0.177608
0.101081
0.0587623
-1.10921
-1.16003
-1.2209
-1.29531
-1.38466
-1.48867
-1.61383
-1.73671