/*--------------------------------*- C++ -*----------------------------------*\
  =========                 |
  \\      /  F ield         | OpenFOAM: The Open Source CFD Toolbox
   \\    /   O peration     | Website:  https://openfoam.org
    \\  /    A nd           | Version:  6.0
     \\/     M anipulation  |
\*---------------------------------------------------------------------------*/
FoamFile
{
    version     2.0;
    format      ascii;
    class       surfaceScalarField;
    location    "20";
    object      phi;
}
// * * * * * * * * * * * * * * * * * * * * * * * * * * * * * * * * * * * * * //

dimensions      [0 3 -1 0 0 0 0];

internalField   nonuniform List<scalar> 
30763
(
-5.31023e-05
4.48227e-05
5.4607e-05
-5.13086e-05
5.25485e-05
-4.92194e-05
6.16078e-05
-4.67528e-05
7.22311e-05
-4.38722e-05
8.46854e-05
-4.04754e-05
9.92916e-05
-3.65086e-05
0.000116423
-3.18173e-05
0.000136491
-2.6328e-05
0.000160042
-1.98353e-05
0.00018762
-1.22044e-05
0.000219957
-3.20005e-06
0.00025784
7.41082e-06
0.000302191
1.99415e-05
0.00035407
3.47056e-05
0.000414707
5.20956e-05
0.000485442
7.25578e-05
0.000567728
9.65917e-05
0.000663103
0.000124757
0.000773031
0.000157664
0.000898687
0.000195957
0.00104058
0.000240227
0.00119797
0.000290967
0.00136769
0.000348391
0.00154261
0.000412182
0.00170896
0.000481114
0.00184251
0.000552501
0.00190284
0.000621322
0.00182599
0.000678951
0.00151349
0.000820003
0.000699563
-5.16622e-05
4.33453e-05
5.31224e-05
-4.99285e-05
5.08165e-05
-4.7911e-05
5.95773e-05
-4.55294e-05
6.98508e-05
-4.27487e-05
8.18916e-05
-3.94689e-05
9.6014e-05
-3.56383e-05
0.000112581
-3.11076e-05
0.000131963
-2.58054e-05
0.000154732
-1.95359e-05
0.000181354
-1.21641e-05
0.000212581
-3.4706e-06
0.000249149
6.77874e-06
0.000291941
1.8878e-05
0.000341971
3.31379e-05
0.000400448
4.99308e-05
0.000468648
6.96884e-05
0.000547965
9.28955e-05
0.00063989
0.000120089
0.000745834
0.000151859
0.000866921
0.000188819
0.00100363
0.000231536
0.00115527
0.000280475
0.00131878
0.00033584
0.00148728
0.000397328
0.00164752
0.000463771
0.00177615
0.000532568
0.00183416
0.000598915
0.00175984
0.000652558
0.0014602
0.000798179
0.000675085
-5.01978e-05
4.19189e-05
5.16038e-05
-4.85214e-05
4.91442e-05
-4.65717e-05
5.7617e-05
-4.42687e-05
6.75529e-05
-4.1582e-05
7.91947e-05
-3.84132e-05
9.28501e-05
-3.47139e-05
0.000108872
-3.03395e-05
0.000127593
-2.52207e-05
0.000149605
-1.91682e-05
0.000175305
-1.20513e-05
0.000205459
-3.65859e-06
0.000240759
6.23654e-06
0.000282045
1.79163e-05
0.000330291
3.16825e-05
0.000386683
4.78913e-05
0.000452438
6.69611e-05
0.000528891
8.93557e-05
0.000617489
0.000115595
0.000719592
0.000146244
0.000836276
0.000181894
0.000967991
0.000223088
0.00111409
0.000270274
0.00127161
0.000323652
0.00143393
0.000382936
0.00158827
0.00044701
0.00171211
0.000513336
0.00176785
0.000577303
0.00169586
0.00062956
0.0014079
0.000773974
0.000653431
-4.87366e-05
4.0545e-05
5.01049e-05
-4.71191e-05
4.75331e-05
-4.52405e-05
5.57276e-05
-4.3021e-05
6.53373e-05
-4.04327e-05
7.65935e-05
-3.7377e-05
8.97976e-05
-3.38101e-05
0.000105293
-2.95891e-05
0.000123376
-2.46502e-05
0.000144657
-1.8809e-05
0.000169468
-1.19408e-05
0.000198587
-3.84148e-06
0.000232661
5.70762e-06
0.000272496
1.6978e-05
0.00031902
3.02607e-05
0.000373401
4.58999e-05
0.000436798
6.42963e-05
0.000510489
8.59002e-05
0.00059588
0.000111209
0.000694281
0.000140769
0.000806719
0.00017515
0.000933618
0.000214874
0.00107437
0.000260376
0.00122612
0.000311851
0.00138248
0.000369029
0.00153113
0.000430836
0.00165036
0.000494801
0.00170397
0.000556467
0.00163434
0.000607296
0.00135737
0.000750145
0.000631708
-4.73496e-05
3.92188e-05
4.86598e-05
-4.57859e-05
4.5978e-05
-4.39711e-05
5.39043e-05
-4.18246e-05
6.31998e-05
-3.93239e-05
7.40846e-05
-3.63724e-05
8.68539e-05
-3.29296e-05
0.000101841
-2.88568e-05
0.000119309
-2.40926e-05
0.000139885
-1.84582e-05
0.000163837
-1.18336e-05
0.000191957
-4.02078e-06
0.00022485
5.19021e-06
0.000263285
1.60609e-05
0.000308149
2.88723e-05
0.000360591
4.39551e-05
0.000421714
6.16984e-05
0.000492743
8.25312e-05
0.00057504
0.000106938
0.000669872
0.000135443
0.000778218
0.000168596
0.000900473
0.000206902
0.00103608
0.000250781
0.00118226
0.000300426
0.00133285
0.000355577
0.001476
0.000415202
0.00159075
0.000476904
0.00164226
0.000536332
0.00157486
0.000585541
0.00130806
0.000724999
0.000610271
-4.59485e-05
3.79426e-05
4.72253e-05
-4.44419e-05
4.44813e-05
-4.26955e-05
5.21488e-05
-4.06301e-05
6.11409e-05
-3.82247e-05
7.16669e-05
-3.53819e-05
8.40164e-05
-3.20663e-05
9.85139e-05
-2.81398e-05
0.000115387
-2.35472e-05
0.000135284
-1.81139e-05
0.000158408
-1.17259e-05
0.000185565
-4.19216e-06
0.000217319
4.68997e-06
0.000254402
1.51721e-05
0.000297667
2.75251e-05
0.000348239
4.20691e-05
0.000407171
5.91755e-05
0.000475631
7.92635e-05
0.000554948
0.000102796
0.000646337
0.00013028
0.000750736
0.000162246
0.000868512
0.000199183
0.000999152
0.000241498
0.00113996
0.000289377
0.001285
0.000342575
0.00142283
0.000400097
0.00153328
0.000459621
0.0015828
0.000516895
0.00151772
0.000564482
0.00126073
0.000700778
0.000589242
-4.46307e-05
3.67103e-05
4.58509e-05
-4.3174e-05
4.30366e-05
-4.14869e-05
5.04552e-05
-3.94895e-05
5.91554e-05
-3.7166e-05
6.93365e-05
-3.44215e-05
8.1282e-05
-3.12228e-05
9.53076e-05
-2.74368e-05
0.000111609
-2.30099e-05
0.00013085
-1.77725e-05
0.000153175
-1.1615e-05
0.000179403
-4.35209e-06
0.000210058
4.21074e-06
0.000245839
1.43162e-05
0.000287561
2.62258e-05
0.000336331
4.02465e-05
0.000393149
5.67397e-05
0.000459134
7.61051e-05
0.000535574
9.87927e-05
0.000623646
0.000125291
0.000724241
0.000156113
0.000837698
0.00019173
0.000963546
0.000232535
0.00109917
0.000278714
0.00123883
0.000330029
0.00137153
0.00038552
0.00147779
0.000442947
0.00152535
0.000498161
0.00146244
0.000544123
0.00121465
0.00067605
0.000568412
-4.33035e-05
3.55243e-05
4.44948e-05
-4.19007e-05
4.16458e-05
-4.02782e-05
4.88241e-05
-3.83575e-05
5.72425e-05
-3.61238e-05
6.70905e-05
-3.34815e-05
7.86459e-05
-3.04024e-05
9.22162e-05
-2.67534e-05
0.000107965
-2.24873e-05
0.000126575
-1.74381e-05
0.000148131
-1.15025e-05
0.000173463
-4.50129e-06
0.000203058
3.75325e-06
0.000237584
1.34949e-05
0.000277819
2.49754e-05
0.000324852
3.84921e-05
0.000379632
5.43904e-05
0.000443229
7.30605e-05
0.0005169
9.49326e-05
0.00060177
0.000120481
0.000698695
0.000150198
0.000807985
0.000184542
0.000929211
0.000223893
0.00105983
0.000268431
0.00119431
0.000317929
0.00132206
0.000371459
0.0014243
0.000426862
0.00147001
0.000480098
0.00140932
0.000524422
0.00117057
0.000653076
0.000547914
-4.20769e-05
3.43781e-05
4.3212e-05
-4.07192e-05
4.03022e-05
-3.91506e-05
4.72492e-05
-3.72909e-05
5.53966e-05
-3.51314e-05
6.49242e-05
-3.25787e-05
7.61046e-05
-2.96069e-05
8.92367e-05
-2.60876e-05
0.000104454
-2.19749e-05
0.000122455
-1.7108e-05
0.000143269
-1.13874e-05
0.000167738
-4.63891e-06
0.000196312
3.31755e-06
0.000229628
1.27075e-05
0.000268429
2.37744e-05
0.000313786
3.6803e-05
0.000366602
5.21304e-05
0.000427899
7.01265e-05
0.000498894
9.12127e-05
0.000580681
0.000115843
0.000674066
0.000144496
0.000779339
0.000177613
0.000896104
0.000215562
0.00102189
0.000258518
0.00115137
0.000306262
0.00127432
0.000357897
0.00137266
0.000411344
0.00141653
0.000462677
0.00135791
0.000505394
0.00112771
0.000629913
0.000528115
-4.08337e-05
3.32755e-05
4.19441e-05
-3.95262e-05
3.90091e-05
-3.80175e-05
4.57327e-05
-3.62293e-05
5.36182e-05
-3.41534e-05
6.28363e-05
-3.16954e-05
7.36544e-05
-2.88344e-05
8.63636e-05
-2.54419e-05
0.000101069
-2.14783e-05
0.000118482
-1.67862e-05
0.000138582
-1.12718e-05
0.000162219
-4.76697e-06
0.000189809
2.90236e-06
0.000221958
1.19534e-05
0.000259377
2.26206e-05
0.00030312
3.51806e-05
0.000354042
4.99531e-05
0.000413119
6.73025e-05
0.00048154
8.76296e-05
0.00056035
0.000111375
0.000650321
0.000139002
0.000751716
0.000170934
0.000864177
0.00020753
0.000985305
0.000248959
0.00110996
0.000295011
0.00122829
0.000344815
0.00132289
0.000396372
0.00136503
0.000445873
0.00130851
0.000487063
0.00108674
0.000608263
0.000509226
-3.96847e-05
3.22102e-05
4.07421e-05
-3.84195e-05
3.77602e-05
-3.6961e-05
4.42688e-05
-3.52297e-05
5.19024e-05
-3.32226e-05
6.08228e-05
-3.08478e-05
7.12922e-05
-2.80862e-05
8.35944e-05
-2.48143e-05
9.78055e-05
-2.09931e-05
0.000114654
-1.64702e-05
0.000134064
-1.11552e-05
0.0001569
-4.88503e-06
0.000183541
2.50715e-06
0.000214565
1.12313e-05
0.000250652
2.1514e-05
0.000292838
3.36196e-05
0.000341935
4.78609e-05
0.000398874
6.45834e-05
0.000464807
8.41787e-05
0.000540749
0.000107072
0.000627429
0.000133707
0.000725086
0.000164498
0.000833395
0.000199789
0.000950024
0.000239746
0.00107001
0.000284163
0.00118388
0.0003322
0.00127485
0.000381931
0.00131526
0.000429673
0.00126069
0.000469425
0.00104684
0.000586066
0.000491183
-3.8514e-05
3.11859e-05
3.95467e-05
-3.72977e-05
3.65586e-05
-3.58966e-05
4.28593e-05
-3.42336e-05
5.02492e-05
-3.23053e-05
5.88817e-05
-3.00196e-05
6.90142e-05
-2.73613e-05
8.09232e-05
-2.42072e-05
9.4658e-05
-2.05242e-05
0.000110961
-1.6163e-05
0.000129708
-1.1039e-05
0.000151771
-4.99471e-06
0.000177498
2.13097e-06
0.000207439
1.05403e-05
0.000242242
2.04516e-05
0.000282928
3.21212e-05
0.000330264
4.58468e-05
0.00038514
6.19679e-05
0.00044868
8.08571e-05
0.000521854
0.000102927
0.000605359
0.000128607
0.000699407
0.000158296
0.000803709
0.000192328
0.000915997
0.000230863
0.00103149
0.000273703
0.00114106
0.000320034
0.00122854
0.000368003
0.00126734
0.000414056
0.00121473
0.000452439
0.00100867
0.000565192
0.000473813
-3.74337e-05
3.01961e-05
3.84133e-05
-3.62573e-05
3.53981e-05
-3.49032e-05
4.14988e-05
-3.32933e-05
4.86544e-05
-3.14288e-05
5.70101e-05
-2.92208e-05
6.68185e-05
-2.6655e-05
7.8349e-05
-2.36133e-05
9.16249e-05
-2.00626e-05
0.000107403
-1.5859e-05
0.000125509
-1.09205e-05
0.000146828
-5.09438e-06
0.000171673
1.77379e-06
0.00020057
9.87914e-06
0.000234135
1.94327e-05
0.000273375
3.068e-05
0.000319015
4.39128e-05
0.000371904
5.945e-05
0.000433131
7.76598e-05
0.000503639
9.89362e-05
0.000584082
0.000123695
0.000674652
0.000152321
0.000775091
0.000185138
0.000883189
0.000222301
0.000994334
0.000263619
0.00109975
0.000308305
0.00118385
0.000354573
0.00122103
0.000399004
0.00117022
0.000436065
0.000971454
0.00054387
0.000456955
-3.63247e-05
2.92448e-05
3.72819e-05
-3.51944e-05
3.42822e-05
-3.38939e-05
4.01897e-05
-3.23487e-05
4.71188e-05
-3.05584e-05
5.52069e-05
-2.84344e-05
6.47022e-05
-2.59656e-05
7.58673e-05
-2.30347e-05
8.87007e-05
-1.96133e-05
0.000103972
-1.55612e-05
0.000121462
-1.08011e-05
0.000142063
-5.18579e-06
0.000166059
1.43415e-06
0.00019395
9.24656e-06
0.000226322
1.84546e-05
0.000264167
2.92974e-05
0.000308172
4.20496e-05
0.000359143
5.70286e-05
0.000418145
7.45819e-05
0.000486079
9.5093e-05
0.000563568
0.000118963
0.000650782
0.000146564
0.00074749
0.000178208
0.000851547
0.000214045
0.000958502
0.000253895
0.00105991
0.000296993
0.00114077
0.000341622
0.00117644
0.000384491
0.00112743
0.000420263
0.000935866
0.000524069
0.000440549
-3.53015e-05
2.83257e-05
3.62097e-05
-3.42083e-05
3.32046e-05
-3.29516e-05
3.89265e-05
-3.14562e-05
4.56381e-05
-2.97257e-05
5.34693e-05
-2.76752e-05
6.26636e-05
-2.52932e-05
7.34772e-05
-2.24685e-05
8.5884e-05
-1.91716e-05
0.000100667
-1.52673e-05
0.000117562
-1.06807e-05
0.000137471
-5.26891e-06
0.000160649
1.11089e-06
0.000187569
8.6403e-06
0.000218791
1.75161e-05
0.000255292
2.79656e-05
0.00029772
4.02596e-05
0.000346844
5.46964e-05
0.000403696
7.16172e-05
0.00046915
9.13911e-05
0.000543793
0.000114404
0.000627773
0.000141015
0.000720886
0.000171528
0.000821044
0.000206087
0.000923953
0.000244518
0.00102148
0.000286084
0.00109919
0.000329133
0.00113335
0.000370497
0.00108599
0.000405011
0.000901202
0.000504059
0.000424591
-3.4256e-05
2.74421e-05
3.51444e-05
-3.32066e-05
3.21682e-05
-3.20007e-05
3.77108e-05
-3.05668e-05
4.42121e-05
-2.89062e-05
5.17949e-05
-2.69347e-05
6.06983e-05
-2.46438e-05
7.11724e-05
-2.19225e-05
8.31682e-05
-1.87463e-05
9.74807e-05
-1.49831e-05
0.000113803
-1.05626e-05
0.000133045
-5.3472e-06
0.000155434
8.01522e-07
0.000181419
8.05847e-06
0.000211533
1.66126e-05
0.000246738
2.66857e-05
0.000287646
3.85333e-05
0.000334986
5.24512e-05
0.000389771
6.87616e-05
0.000452831
8.78243e-05
0.000524728
0.00011001
0.000605583
0.000135667
0.000695227
0.000165088
0.000791621
0.000198412
0.00089063
0.000235474
0.000984426
0.000275563
0.00105911
0.000317087
0.00109185
0.000356999
0.00104615
0.000390289
0.000868083
0.000485686
0.000409123
-3.33116e-05
2.6587e-05
3.41514e-05
-3.22953e-05
3.11662e-05
-3.11285e-05
3.65365e-05
-2.97388e-05
4.28362e-05
-2.8132e-05
5.01805e-05
-2.62274e-05
5.88047e-05
-2.4016e-05
6.89525e-05
-2.13929e-05
8.05524e-05
-1.83319e-05
9.44114e-05
-1.47062e-05
0.000110181
-1.04472e-05
0.000128781
-5.42125e-06
0.000150409
5.04166e-07
0.000175492
7.49775e-06
0.000204537
1.57427e-05
0.000238493
2.54502e-05
0.000277935
3.68732e-05
0.00032356
5.02853e-05
0.000376344
6.60091e-05
0.0004371
8.43851e-05
0.000506349
0.000105774
0.000584197
0.000130511
0.000670497
0.000158878
0.000763263
0.000191012
0.000858507
0.000226754
0.000948691
0.000265418
0.00102044
0.000305472
0.00105177
0.000343983
0.00100756
0.000376089
0.000835826
0.000467173
0.000394177
-3.23448e-05
2.57649e-05
3.31705e-05
-3.13683e-05
3.02023e-05
-3.02481e-05
3.54063e-05
-2.89152e-05
4.15108e-05
-2.73735e-05
4.86246e-05
-2.55419e-05
5.69789e-05
-2.34148e-05
6.68116e-05
-2.08872e-05
7.803e-05
-1.7938e-05
9.14522e-05
-1.44434e-05
0.00010669
-1.03385e-05
0.00012467
-5.49515e-06
0.000145566
2.15649e-07
0.00016978
6.95609e-06
0.000197795
1.49023e-05
0.000230547
2.42612e-05
0.000268576
3.52676e-05
0.000312542
4.81988e-05
0.000363405
6.33548e-05
0.000421935
8.10692e-05
0.000488629
0.00010169
0.000563574
0.000125539
0.000646643
0.00015289
0.000735908
0.000183876
0.000827518
0.000218344
0.000914223
0.000255634
0.000983153
0.00029427
0.00101314
0.00033143
0.000970459
0.000362397
0.000805009
0.000450228
0.000379786
-3.14854e-05
2.49686e-05
3.22658e-05
-3.05383e-05
2.92696e-05
-2.94529e-05
3.43138e-05
-2.81595e-05
4.02311e-05
-2.66659e-05
4.71239e-05
-2.48952e-05
5.5219e-05
-2.28408e-05
6.4749e-05
-2.04038e-05
7.55999e-05
-1.7561e-05
8.8601e-05
-1.41935e-05
0.000103325
-1.0238e-05
0.000120709
-5.56973e-06
0.000140898
-6.58518e-08
0.000164274
6.43064e-06
0.000191296
1.40906e-05
0.000222887
2.31095e-05
0.000259554
3.37217e-05
0.000301925
4.61835e-05
0.000350928
6.07931e-05
0.000407316
7.78706e-05
0.00047155
9.77499e-05
0.000543697
0.000120743
0.000623657
0.000147116
0.000709547
0.000176995
0.000797651
0.000210236
0.000880992
0.000246202
0.000947181
0.000283473
0.000975845
0.000319329
0.000934534
0.000349207
0.000774986
0.000433058
0.000365953
-3.06033e-05
2.42027e-05
3.13732e-05
-2.96943e-05
2.83718e-05
-2.86531e-05
3.32612e-05
-2.74134e-05
3.89971e-05
-2.59808e-05
4.56757e-05
-2.42776e-05
5.35201e-05
-2.2301e-05
6.27574e-05
-1.99511e-05
7.3254e-05
-1.72106e-05
8.58496e-05
-1.39626e-05
0.00010008
-1.01484e-05
0.000116889
-5.64824e-06
0.000136398
-3.42346e-07
0.000158967
5.92022e-06
0.000185032
1.33032e-05
0.000215504
2.19984e-05
0.000250857
3.22245e-05
0.000291687
4.42397e-05
0.000338906
5.8322e-05
0.000393223
7.47852e-05
0.000455082
9.395e-05
0.000524526
0.000116119
0.000601482
0.000141548
0.00068411
0.000170361
0.000768832
0.000202419
0.000848928
0.000237111
0.000912485
0.000273065
0.000939896
0.000307666
0.000899976
0.000336502
0.000746289
0.000417313
0.000352674
-2.98401e-05
2.34596e-05
3.05634e-05
-2.89567e-05
2.75016e-05
-2.79459e-05
3.22423e-05
-2.674e-05
3.78043e-05
-2.53493e-05
4.42774e-05
-2.37e-05
5.18811e-05
-2.17885e-05
6.08372e-05
-1.95207e-05
7.09925e-05
-1.68769e-05
8.31972e-05
-1.37453e-05
9.69514e-05
-1.00683e-05
0.000113206
-5.72925e-06
0.000132059
-6.14138e-07
0.00015385
5.4227e-06
0.000178992
1.25405e-05
0.000208386
2.09206e-05
0.000242473
3.07825e-05
0.000281822
4.23601e-05
0.00032731
5.5937e-05
0.000379638
7.18073e-05
0.000439209
9.02847e-05
0.000506052
0.00011166
0.000580115
0.00013618
0.000659602
0.000163967
0.00074106
0.000194887
0.00081802
0.000228352
0.000879021
0.00026304
0.000905183
0.000296432
0.000866522
0.000324272
0.000718306
0.000401246
0.000339916
-2.90402e-05
2.27455e-05
2.97577e-05
-2.81919e-05
2.66645e-05
-2.72219e-05
3.12609e-05
-2.6066e-05
3.66539e-05
-2.47321e-05
4.29278e-05
-2.3145e-05
5.02983e-05
-2.13051e-05
5.89824e-05
-1.91172e-05
6.88087e-05
-1.65672e-05
8.06366e-05
-1.35455e-05
9.39323e-05
-9.99849e-06
0.000109653
-5.81443e-06
0.000127874
-8.82048e-07
0.000148916
4.93848e-06
0.000173169
1.17999e-05
0.000201523
1.98817e-05
0.000234392
2.93836e-05
0.000272307
4.05485e-05
0.000316139
5.36356e-05
0.000366542
6.89355e-05
0.000423902
8.67507e-05
0.000488233
0.000107361
0.000559497
0.000131007
0.000635947
0.000157806
0.000714251
0.000187631
0.000788185
0.000219915
0.000846726
0.000253384
0.000871711
0.000285611
0.000834328
0.000312497
0.000691545
0.000386492
0.000327658
-2.8352e-05
2.20525e-05
2.90258e-05
-2.75268e-05
2.5853e-05
-2.65842e-05
3.03108e-05
-2.54586e-05
3.55418e-05
-2.41625e-05
4.16246e-05
-2.26249e-05
4.87712e-05
-2.08446e-05
5.71938e-05
-1.87325e-05
6.67028e-05
-1.62719e-05
7.81674e-05
-1.33575e-05
9.10204e-05
-9.93677e-06
0.000106226
-5.90109e-06
0.000123839
-1.14495e-06
0.000144158
4.46715e-06
0.000167555
1.10839e-05
0.000194907
1.8873e-05
0.000226599
2.80375e-05
0.000263139
3.87973e-05
0.000305362
5.14141e-05
0.000353915
6.61658e-05
0.000409149
8.33427e-05
0.00047106
0.000103217
0.000539632
0.000126022
0.000613158
0.000151871
0.000688419
0.000180643
0.00075943
0.000211792
0.000815581
0.000244088
0.000839397
0.000275195
0.000803163
0.000301165
0.000665437
0.000371374
0.000315863
-2.76173e-05
2.13869e-05
2.82875e-05
-2.68263e-05
2.50724e-05
-2.59233e-05
2.93956e-05
-2.48459e-05
3.4469e-05
-2.36038e-05
4.0366e-05
-2.21245e-05
4.72953e-05
-2.04109e-05
5.54646e-05
-1.83721e-05
6.46675e-05
-1.59976e-05
7.57819e-05
-1.3184e-05
8.8209e-05
-9.8826e-06
0.000102919
-5.98967e-06
0.000119945
-1.40204e-06
0.000139569
4.01038e-06
0.00016214
1.03897e-05
0.000188527
1.79016e-05
0.000219086
2.67331e-05
0.000254295
3.71101e-05
0.000294979
4.92729e-05
0.000341741
6.34965e-05
0.000394922
8.0059e-05
0.00045449
9.92259e-05
0.000520458
0.000121221
0.000591151
0.000146156
0.000663472
0.000173915
0.000731657
0.000203972
0.00078551
0.000235139
0.000808221
0.000265168
0.00077316
0.000290255
0.000640467
0.000357503
0.000304514
-2.69946e-05
2.07404e-05
2.76199e-05
-2.62243e-05
2.43152e-05
-2.53455e-05
2.8509e-05
-2.42944e-05
3.34313e-05
-2.30858e-05
3.91503e-05
-2.16511e-05
4.58711e-05
-1.99918e-05
5.37968e-05
-1.80227e-05
6.27047e-05
-1.57304e-05
7.34812e-05
-1.30159e-05
8.5497e-05
-9.83141e-06
9.97291e-05
-6.07575e-06
0.000116189
-1.65101e-06
0.000135142
3.56817e-06
0.000156919
9.72023e-06
0.000182375
1.6961e-05
0.000211842
2.54811e-05
0.000245773
3.54802e-05
0.00028496
4.72093e-05
0.000330006
6.0923e-05
0.000381206
7.68957e-05
0.000438524
9.53814e-05
0.000501984
0.000116599
0.000569951
0.000140656
0.000639437
0.000167441
0.000704892
0.000196447
0.000756513
0.000226529
0.000778125
0.00025552
0.000744119
0.000279755
0.000616097
0.000343267
0.000293579
-2.63094e-05
2.01205e-05
2.69352e-05
-2.55708e-05
2.3588e-05
-2.47289e-05
2.76561e-05
-2.37231e-05
3.24313e-05
-2.25655e-05
3.79771e-05
-2.11854e-05
4.44954e-05
-1.95885e-05
5.21853e-05
-1.76879e-05
6.08084e-05
-1.54758e-05
7.12591e-05
-1.28553e-05
8.2879e-05
-9.78198e-06
9.66504e-05
-6.15911e-06
0.000112566
-1.89084e-06
0.000130873
3.14285e-06
0.000151883
9.0744e-06
0.000176443
1.60595e-05
0.000204858
2.42683e-05
0.000237551
3.39143e-05
0.00027531
4.5222e-05
0.000318689
5.8446e-05
0.000367975
7.38508e-05
0.000423115
9.1681e-05
0.000484144
0.00011215
0.000549471
0.000135363
0.000616209
0.000161212
0.000679027
0.000189207
0.000728498
0.000218244
0.000749075
0.000246233
0.000716153
0.000269645
0.000592794
0.000330237
0.000283047
-2.57238e-05
1.95187e-05
2.63087e-05
-2.5004e-05
2.2883e-05
-2.41843e-05
2.68305e-05
-2.32032e-05
3.14649e-05
-2.20767e-05
3.68448e-05
-2.07388e-05
4.31689e-05
-1.91927e-05
5.0632e-05
-1.7358e-05
5.89803e-05
-1.52233e-05
6.91165e-05
-1.26955e-05
8.03539e-05
-9.73115e-06
9.36808e-05
-6.23595e-06
0.00010907
-2.11935e-06
0.000126755
2.73486e-06
0.000147026
8.45596e-06
0.000170722
1.51886e-05
0.000198122
2.31081e-05
0.000229629
3.24043e-05
0.000265996
4.3308e-05
0.000307777
5.60619e-05
0.000355223
7.09194e-05
0.000408264
8.81206e-05
0.000466957
0.000107871
0.000529742
0.000130272
0.000593832
0.000155221
0.000654103
0.000182244
0.000701487
0.000210275
0.000721036
0.000237298
0.000689085
0.000259912
0.000570051
0.00031685
0.000272891
-2.5071e-05
1.89422e-05
2.56576e-05
-2.43822e-05
2.22063e-05
-2.35985e-05
2.60364e-05
-2.26612e-05
3.05335e-05
-2.15835e-05
3.5752e-05
-2.02974e-05
4.18873e-05
-1.88102e-05
4.91306e-05
-1.70395e-05
5.72139e-05
-1.49796e-05
6.70469e-05
-1.25393e-05
7.79162e-05
-9.67823e-06
9.08149e-05
-6.30665e-06
0.000105698
-2.3356e-06
0.000122783
2.34651e-06
0.000142343
7.86302e-06
0.000165206
1.43569e-05
0.000191629
2.19881e-05
0.000221987
3.09556e-05
0.000257027
4.14687e-05
0.000297254
5.37696e-05
0.000342919
6.81008e-05
0.000393926
8.46967e-05
0.000450353
0.000103755
0.000510669
0.000125376
0.000572196
0.000149459
0.00063
0.000175546
0.000675376
0.000202608
0.000693958
0.000228699
0.000663011
0.000250539
0.000548315
0.000304636
0.000263106
-2.45191e-05
1.83819e-05
2.50632e-05
-2.38471e-05
2.15497e-05
-2.30832e-05
2.52674e-05
-2.21676e-05
2.96332e-05
-2.11177e-05
3.46973e-05
-1.98702e-05
4.06516e-05
-1.843e-05
4.76837e-05
-1.67206e-05
5.55113e-05
-1.47328e-05
6.50517e-05
-1.23791e-05
7.55654e-05
-9.61992e-06
8.80508e-05
-6.36769e-06
0.000102446
-2.53685e-06
0.000118952
1.9784e-06
0.000137826
7.29876e-06
0.000159888
1.35589e-05
0.000185372
2.09203e-05
0.000214625
2.95594e-05
0.000248364
3.97008e-05
0.000287108
5.15645e-05
0.000331056
6.53909e-05
0.000380109
8.14043e-05
0.000434357
9.9798e-05
0.000492299
0.000120669
0.000551355
0.000143919
0.000606778
0.000169106
0.000650206
0.000195234
0.000667827
0.000220425
0.00063778
0.000241515
0.000527101
0.000292087
0.00025367
-2.38907e-05
1.7846e-05
2.44395e-05
-2.32476e-05
2.09204e-05
-2.25171e-05
2.45287e-05
-2.16429e-05
2.87666e-05
-2.06392e-05
3.36802e-05
-1.94407e-05
3.94588e-05
-1.80559e-05
4.62862e-05
-1.64068e-05
5.38672e-05
-1.44893e-05
6.31255e-05
-1.2218e-05
7.32968e-05
-9.55585e-06
8.53842e-05
-6.41778e-06
9.9309e-05
-2.72287e-06
0.000115258
1.63256e-06
0.000133472
6.76528e-06
0.000154763
1.27977e-05
0.000179332
1.98875e-05
0.000207514
2.82254e-05
0.000240023
3.80038e-05
0.000277317
4.94476e-05
0.000319605
6.27879e-05
0.000366764
7.82407e-05
0.000418893
9.59954e-05
0.000474532
0.000116144
0.000531187
0.000138593
0.000584308
0.000162913
0.00062586
0.00018814
0.000642581
0.000212461
0.000613474
0.000232822
0.000506839
0.000280669
0.000244577
-2.33544e-05
1.73252e-05
2.38645e-05
-2.27269e-05
2.031e-05
-2.20145e-05
2.38136e-05
-2.11609e-05
2.79294e-05
-2.01831e-05
3.26994e-05
-1.90216e-05
3.83095e-05
-1.76812e-05
4.49402e-05
-1.60903e-05
5.22832e-05
-1.4241e-05
6.12691e-05
-1.20504e-05
7.11098e-05
-9.48263e-06
8.2813e-05
-6.456e-06
9.62841e-05
-2.89207e-06
0.000111695
1.31174e-06
0.000129273
6.25127e-06
0.000149813
1.2068e-05
0.00017351
1.89085e-05
0.000200664
2.69411e-05
0.000231958
3.63751e-05
0.000267876
4.74155e-05
0.000308568
6.02867e-05
0.000353904
7.52016e-05
0.000403998
9.23417e-05
0.000457419
0.000111797
0.000511764
0.000133475
0.000562663
0.000156959
0.000602397
0.000181317
0.000618225
0.000204798
0.000589959
0.000224452
0.000487065
0.000268924
0.000235808
-2.27435e-05
1.68271e-05
2.32594e-05
-2.21444e-05
1.97249e-05
-2.14641e-05
2.31265e-05
-2.06507e-05
2.7123e-05
-1.97167e-05
3.17528e-05
-1.86012e-05
3.71993e-05
-1.73128e-05
4.36396e-05
-1.57778e-05
5.07534e-05
-1.39935e-05
5.94772e-05
-1.18798e-05
6.89999e-05
-9.40211e-06
8.03333e-05
-6.48354e-06
9.3367e-05
-3.04435e-06
0.00010826
1.00092e-06
0.000125222
5.77175e-06
0.000145048
1.13736e-05
0.000167893
1.79614e-05
0.00019405
2.57196e-05
0.000224207
3.48156e-05
0.00025877
4.54667e-05
0.000297914
5.78865e-05
0.000341477
7.22836e-05
0.000389593
8.8832e-05
0.000440855
0.00010762
0.000492958
0.000128555
0.000541704
0.000151233
0.000579691
0.000174753
0.000594685
0.000197421
0.000567306
0.000216388
0.000468195
0.000258267
0.00022736
-2.22279e-05
1.63426e-05
2.27095e-05
-2.16404e-05
1.91571e-05
-2.0974e-05
2.24615e-05
-2.01773e-05
2.63447e-05
-1.92655e-05
3.08412e-05
-1.81842e-05
3.61313e-05
-1.69373e-05
4.23889e-05
-1.54577e-05
4.92818e-05
-1.37381e-05
5.77524e-05
-1.17013e-05
6.6968e-05
-9.31363e-06
7.79444e-05
-6.49949e-06
9.05566e-05
-3.18668e-06
0.00010495
7.21104e-07
0.000121322
5.30716e-06
0.000140448
1.07091e-05
0.000162484
1.70731e-05
0.000187691
2.45422e-05
0.00021671
3.33212e-05
0.000249994
4.35958e-05
0.000287644
5.55828e-05
0.000329504
6.94813e-05
0.000375717
8.5462e-05
0.000424905
0.000103608
0.000474849
0.000123828
0.00052152
0.00014573
0.000557815
0.00016844
0.000571984
0.000190322
0.000545395
0.000208622
0.000449778
0.000247301
0.000219214
-2.16335e-05
1.58822e-05
2.21345e-05
-2.10689e-05
1.86164e-05
-2.04306e-05
2.18265e-05
-1.96715e-05
2.55992e-05
-1.88035e-05
2.99656e-05
-1.77664e-05
3.51035e-05
-1.65703e-05
4.11839e-05
-1.51439e-05
4.78634e-05
-1.34862e-05
5.609e-05
-1.15222e-05
6.50096e-05
-9.21937e-06
7.56421e-05
-6.50724e-06
8.78475e-05
-3.31088e-06
0.000101759
4.46804e-07
0.000117559
4.87734e-06
0.000136023
1.00849e-05
0.000157269
1.62084e-05
0.000181544
2.34262e-05
0.000209509
3.18899e-05
0.000241525
4.18034e-05
0.000277725
5.33735e-05
0.00031793
6.67923e-05
0.000362287
8.22266e-05
0.000409457
9.97541e-05
0.0004573
0.000119286
0.000501963
0.000140439
0.000536633
0.000162366
0.000550037
0.000183486
0.000524292
0.000201139
0.000432218
0.000237369
0.000211367
-2.11468e-05
1.54299e-05
2.15915e-05
-2.05998e-05
1.80861e-05
-1.99834e-05
2.12054e-05
-1.92387e-05
2.48725e-05
-1.83902e-05
2.91152e-05
-1.73794e-05
3.41081e-05
-1.62176e-05
4.00193e-05
-1.4838e-05
4.64943e-05
-1.32374e-05
5.44865e-05
-1.13422e-05
6.31216e-05
-9.12186e-06
7.3423e-05
-6.50611e-06
8.52373e-05
-3.42721e-06
9.86846e-05
2.0326e-07
0.000113936
4.46388e-06
0.00013175
9.48422e-06
0.000152244
1.5401e-05
0.000175636
2.23494e-05
0.000202537
3.05175e-05
0.000233359
4.00848e-05
0.000268167
5.12531e-05
0.000306779
6.42121e-05
0.000349354
7.91211e-05
0.000394583
9.60545e-05
0.000440406
0.000114924
0.000483135
0.000135354
0.000516233
0.000156525
0.000528878
0.000176909
0.000503885
0.000193933
0.000415081
0.000227135
0.000203801
-2.05751e-05
1.50022e-05
2.10477e-05
-2.00464e-05
1.75839e-05
-1.94523e-05
2.06157e-05
-1.87425e-05
2.41803e-05
-1.79349e-05
2.83023e-05
-1.69672e-05
3.31541e-05
-1.58545e-05
3.89008e-05
-1.45264e-05
4.51778e-05
-1.2985e-05
5.29433e-05
-1.11588e-05
6.13035e-05
-9.01823e-06
7.12853e-05
-6.49767e-06
8.27217e-05
-3.52728e-06
9.57216e-05
-3.5544e-08
0.00011044
4.0827e-06
0.000127641
8.92037e-06
0.000147397
1.46143e-05
0.000169922
2.13294e-05
0.000195843
2.92052e-05
0.000225478
3.84389e-05
0.000258933
4.92208e-05
0.00029599
6.17376e-05
0.00033683
7.61409e-05
0.000380163
9.25025e-05
0.000424025
0.000110732
0.000464879
0.000130465
0.000496472
0.000150905
0.00050842
0.000170575
0.000484236
0.00018699
0.000398759
0.000217885
0.000196513
-2.0105e-05
1.45848e-05
2.05378e-05
-1.95896e-05
1.70948e-05
-1.90126e-05
2.00428e-05
-1.83176e-05
2.35097e-05
-1.75287e-05
2.75168e-05
-1.65886e-05
3.22335e-05
-1.551e-05
3.78223e-05
-1.42276e-05
4.39085e-05
-1.27403e-05
5.14552e-05
-1.09784e-05
5.95505e-05
-8.91422e-06
6.92242e-05
-6.48262e-06
8.02969e-05
-3.62078e-06
9.28656e-05
-2.4508e-07
0.000107075
3.71297e-06
0.000123669
8.37894e-06
0.000142728
1.38824e-05
0.000164432
2.03437e-05
0.000189356
2.79487e-05
0.000217883
3.686e-05
0.000250033
4.72723e-05
0.000285598
5.93637e-05
0.000324768
7.32824e-05
0.000366283
8.90939e-05
0.000408257
0.000106708
0.00044731
0.000125767
0.000477447
0.000145501
0.000488704
0.00016448
0.000465235
0.000180303
0.000382827
0.000208354
0.000189487
-1.95787e-05
1.4182e-05
1.999e-05
-1.90935e-05
1.66214e-05
-1.85463e-05
1.94869e-05
-1.78838e-05
2.28577e-05
-1.7131e-05
2.67524e-05
-1.62241e-05
3.13381e-05
-1.51842e-05
3.67746e-05
-1.3942e-05
4.2678e-05
-1.25036e-05
5.00154e-05
-1.08008e-05
5.78568e-05
-8.80732e-06
6.72349e-05
-6.46182e-06
7.79576e-05
-3.69884e-06
9.01115e-05
-4.52659e-07
0.000103826
3.37474e-06
0.000119851
7.87255e-06
0.000138224
1.31654e-05
0.000159118
1.94137e-05
0.000183132
2.67466e-05
0.000210548
3.5349e-05
0.000241427
4.54058e-05
0.000275539
5.70883e-05
0.000313075
7.05408e-05
0.000352817
8.58225e-05
0.000392954
0.000102843
0.000430265
0.000121252
0.000459011
0.000140302
0.000469641
0.000158611
0.000446954
0.00017386
0.00036767
0.000199747
0.000182719
-1.91142e-05
1.37942e-05
1.95173e-05
-1.86343e-05
1.6167e-05
-1.80977e-05
1.89545e-05
-1.745e-05
2.22342e-05
-1.67166e-05
2.60218e-05
-1.58402e-05
3.04816e-05
-1.48361e-05
3.5771e-05
-1.36408e-05
4.14968e-05
-1.22559e-05
4.86308e-05
-1.06151e-05
5.62262e-05
-8.69392e-06
6.53184e-05
-6.4319e-06
7.57037e-05
-3.77006e-06
8.74572e-05
-6.31994e-07
0.000100699
3.04697e-06
0.00011616
7.38457e-06
0.000133886
1.25011e-05
0.000154014
1.8514e-05
0.000177096
2.55946e-05
0.000203475
3.39015e-05
0.000233135
4.3616e-05
0.000265848
5.49076e-05
0.000301818
6.79123e-05
0.000339855
8.26851e-05
0.000378229
9.91336e-05
0.000413864
0.000116914
0.000441268
0.000135303
0.000451271
0.000152963
0.000429275
0.000167654
0.000352872
0.000190869
0.000176194
-1.86085e-05
1.34204e-05
1.8999e-05
-1.81535e-05
1.57276e-05
-1.76425e-05
1.84386e-05
-1.70233e-05
2.16291e-05
-1.63221e-05
2.53125e-05
-1.54765e-05
2.96507e-05
-1.45089e-05
3.47985e-05
-1.33527e-05
4.03545e-05
-1.20149e-05
4.72937e-05
-1.04311e-05
5.4653e-05
-8.57728e-06
6.34703e-05
-6.39637e-06
7.35303e-05
-3.82749e-06
8.48985e-05
-8.10045e-07
9.76802e-05
2.74853e-06
0.000112614
6.92708e-06
0.000129698
1.18497e-05
0.000149073
1.76653e-05
0.000171308
2.44942e-05
0.000196643
3.25167e-05
0.000225115
4.19028e-05
0.000256456
5.28187e-05
0.000290895
6.53929e-05
0.000327266
7.96756e-05
0.000363927
9.5572e-05
0.000397945