/*--------------------------------*- C++ -*----------------------------------*\
  =========                 |
  \\      /  F ield         | OpenFOAM: The Open Source CFD Toolbox
   \\    /   O peration     | Website:  https://openfoam.org
    \\  /    A nd           | Version:  6.0
     \\/     M anipulation  |
\*---------------------------------------------------------------------------*/
FoamFile
{
    version     2.0;
    format      ascii;
    class       volVectorField;
    location    "20";
    object      U;
}
// * * * * * * * * * * * * * * * * * * * * * * * * * * * * * * * * * * * * * //

dimensions      [0 1 -1 0 0 0 0];

internalField   nonuniform List<vector> 
15500
(
(0.996174 0.0877042 -1.31331e-20)
(0.996176 0.0876954 1.49493e-21)
(0.996177 0.0876824 3.12711e-20)
(0.996178 0.0876713 8.18799e-20)
(0.996178 0.0876607 -1.53841e-19)
(0.996178 0.0876516 -2.93718e-20)
(0.996178 0.087643 2.20417e-19)
(0.996177 0.0876356 1.72836e-20)
(0.996176 0.0876283 7.80455e-21)
(0.996174 0.0876218 -1.77376e-19)
(0.996171 0.0876149 4.81085e-19)
(0.996167 0.0876093 -3.54172e-19)
(0.996161 0.0876022 -2.60979e-20)
(0.996152 0.0875945 -3.46395e-19)
(0.996139 0.087583 2.19236e-19)
(0.99612 0.0875671 -3.44972e-19)
(0.996093 0.0875441 8.29132e-19)
(0.996053 0.0875106 -1.1128e-18)
(0.995998 0.0874563 4.70056e-19)
(0.995922 0.0873686 -1.62095e-18)
(0.995818 0.0872356 1.90585e-18)
(0.995676 0.0870436 5.19152e-19)
(0.995489 0.0867736 -3.20888e-19)
(0.99525 0.0864011 -4.22075e-18)
(0.994961 0.0858913 7.46507e-18)
(0.994636 0.0851868 3.4997e-18)
(0.994318 0.0841589 -3.10226e-18)
(0.99408 0.0826198 -3.61294e-18)
(0.994188 0.079705 -5.63889e-18)
(0.987 0.0717526 7.16725e-18)
(0.996089 0.0885178 -1.55725e-20)
(0.996093 0.0885014 5.15904e-20)
(0.996097 0.0884794 -1.5158e-20)
(0.9961 0.0884587 5.54676e-20)
(0.996103 0.0884384 -1.8465e-19)
(0.996104 0.0884183 -1.41452e-19)
(0.996104 0.0883967 3.78324e-20)
(0.996103 0.0883746 -2.06227e-19)
(0.9961 0.088349 3.73062e-19)
(0.996095 0.0883225 -1.30431e-19)
(0.996088 0.088291 1.18713e-19)
(0.996079 0.0882585 2.31333e-19)
(0.996065 0.0882168 -1.04874e-19)
(0.996045 0.0881653 6.0829e-20)
(0.996015 0.0881007 -8.12904e-20)
(0.995976 0.0880221 -2.4228e-19)
(0.99592 0.0879269 6.02018e-19)
(0.995844 0.0878074 -8.73523e-20)
(0.99574 0.0876458 1.16846e-18)
(0.995605 0.0874232 2.22337e-18)
(0.995425 0.0871252 -1.84374e-18)
(0.995189 0.0867385 1.09361e-18)
(0.994883 0.086243 -1.77905e-18)
(0.994501 0.0856073 -5.71087e-19)
(0.994044 0.084768 -5.25631e-18)
(0.993541 0.0836249 -1.41762e-19)
(0.993081 0.081931 4.00986e-19)
(0.992716 0.0794875 1.29499e-18)
(0.993352 0.0751631 1.37947e-17)
(0.985373 0.0661342 4.50826e-19)
(0.99596 0.089198 4.21674e-20)
(0.995962 0.0891786 -4.04712e-20)
(0.995965 0.0891504 -2.49697e-20)
(0.995968 0.0891218 -7.66248e-20)
(0.99597 0.0890928 1.52992e-19)
(0.995971 0.0890626 -2.19409e-19)
(0.995971 0.0890299 1.35411e-19)
(0.995968 0.0889951 1.04414e-19)
(0.995963 0.0889546 -6.06198e-20)
(0.995955 0.0889106 -2.04811e-19)
(0.995943 0.0888578 7.77035e-20)
(0.995927 0.0888005 2.90923e-19)
(0.995905 0.088728 -1.46456e-19)
(0.995874 0.0886389 1.6387e-19)
(0.995835 0.0885299 -3.53489e-19)
(0.995786 0.0884007 5.33822e-19)
(0.995723 0.0882495 -8.81083e-19)
(0.995641 0.0880682 7.11977e-19)
(0.995538 0.0878385 -1.42009e-18)
(0.995413 0.087542 1.05291e-18)
(0.995258 0.0871692 1.05598e-18)
(0.995066 0.086715 -1.27563e-18)
(0.994831 0.0861708 3.06247e-18)
(0.99455 0.085521 -3.98869e-19)
(0.994229 0.0847111 -3.71157e-18)
(0.993894 0.0836665 -4.61456e-18)
(0.993643 0.0821439 -7.50452e-18)
(0.993381 0.0800524 2.62149e-18)
(0.994491 0.076726 -9.50229e-18)
(0.989003 0.0721115 -1.01024e-17)
(0.995803 0.0898721 -1.50881e-20)
(0.995799 0.089846 6.46343e-20)
(0.995796 0.0898126 -2.89547e-20)
(0.995793 0.0897782 -2.25501e-20)
(0.995791 0.0897432 -5.59444e-20)
(0.995787 0.0897057 -1.83626e-19)
(0.995782 0.0896649 1.39214e-19)
(0.995775 0.0896199 1.24029e-19)
(0.995766 0.0895672 -6.25372e-20)
(0.995752 0.0895085 9.6546e-20)
(0.995735 0.0894377 -4.61996e-20)
(0.995711 0.089359 3.42496e-20)
(0.99568 0.0892604 -3.10971e-20)
(0.995639 0.0891405 2.18888e-21)
(0.995591 0.088996 -4.73111e-19)
(0.995533 0.0888264 9.9285e-19)
(0.995463 0.0886309 -9.04729e-19)
(0.995376 0.0884001 3.26269e-19)
(0.995274 0.088115 1.45255e-18)
(0.995157 0.0877579 -1.3983e-18)
(0.995024 0.0873204 -5.92192e-19)
(0.994873 0.0868014 1.8443e-18)
(0.994704 0.0861986 -1.29699e-18)
(0.994522 0.0855086 -1.16227e-18)
(0.994336 0.0846859 1.10487e-17)
(0.994164 0.0836793 4.62188e-18)
(0.994115 0.0822583 4.62733e-18)
(0.993946 0.0803632 -3.18914e-18)
(0.99527 0.0776664 3.73902e-18)
(0.991502 0.0744384 3.983e-18)
(0.99563 0.0905558 -1.06869e-20)
(0.995615 0.0905333 -4.0995e-20)
(0.995604 0.0904972 3.76742e-20)
(0.995592 0.0904571 1.77349e-19)
(0.995581 0.0904137 -1.92641e-19)
(0.99557 0.0903665 -2.45699e-20)
(0.995557 0.0903149 1.14088e-19)
(0.995543 0.0902585 -2.78402e-19)
(0.995525 0.0901939 -2.07709e-19)
(0.995504 0.0901222 5.82036e-19)
(0.995478 0.0900366 -3.31877e-19)
(0.995446 0.0899402 4.39939e-19)
(0.995405 0.0898204 -2.50565e-19)
(0.995355 0.0896758 3.07984e-19)
(0.995296 0.089503 -5.57806e-20)
(0.995228 0.0893015 -5.44962e-20)
(0.995147 0.0890697 1.97444e-19)
(0.995049 0.0887971 -4.82463e-19)
(0.994936 0.0884631 -1.37941e-18)
(0.994811 0.0880475 5.43676e-19)
(0.994677 0.0875408 -9.29484e-19)
(0.994536 0.0869411 -7.51127e-19)
(0.994395 0.0862461 -1.63854e-19)
(0.994262 0.0854571 8.9661e-18)
(0.994157 0.0845322 -3.32207e-18)
(0.994087 0.0834349 -8.3797e-18)
(0.994188 0.0819464 -4.87435e-18)
(0.994113 0.0800055 1.36049e-18)
(0.995487 0.0774389 -1.9593e-17)
(0.992992 0.0743657 -3.54959e-18)
(0.995442 0.0912146 2.20975e-20)
(0.995417 0.0911919 2.75965e-21)
(0.995395 0.0911583 -5.78648e-20)
(0.995374 0.0911196 -2.18496e-20)
(0.995353 0.0910764 -7.39449e-21)
(0.995332 0.0910269 3.68786e-19)
(0.995309 0.0909706 -1.87231e-19)
(0.995284 0.0909067 -9.98822e-21)
(0.995256 0.0908326 -6.604e-21)
(0.995225 0.0907493 -3.15782e-20)
(0.995188 0.0906505 -1.81975e-19)
(0.995145 0.0905385 1.48692e-19)
(0.995094 0.0904006 7.06041e-19)
(0.995032 0.0902352 6.37441e-20)
(0.994963 0.090039 -1.3001e-19)
(0.994882 0.0898104 -5.1187e-19)
(0.994788 0.0895481 5.92394e-19)
(0.994676 0.0892391 -3.49233e-19)
(0.994548 0.0888603 7.74581e-19)
(0.99441 0.0883894 -1.18273e-19)
(0.994266 0.0878135 1.62895e-18)
(0.994126 0.087129 -3.12607e-19)
(0.993999 0.0863308 -1.78815e-18)
(0.993904 0.0854233 -9.52576e-18)
(0.993869 0.0843703 -3.95117e-18)
(0.993903 0.0831552 8.53598e-18)
(0.994166 0.0815876 9.99791e-19)
(0.994243 0.0796257 8.01511e-18)
(0.995638 0.0772178 2.46937e-17)
(0.994132 0.0746667 9.17838e-18)
(0.995229 0.0918782 -1.5753e-21)
(0.995196 0.0918615 -3.3275e-20)
(0.995166 0.0918292 -1.13262e-20)
(0.995136 0.0917906 3.10555e-20)
(0.995105 0.0917456 -6.16386e-20)
(0.995074 0.0916928 -6.14134e-20)
(0.99504 0.0916315 1.0797e-19)
(0.995005 0.0915608 2.3464e-19)
(0.994965 0.0914786 -2.22069e-19)
(0.994921 0.0913853 2.71136e-19)
(0.994872 0.091275 -5.54685e-19)
(0.994816 0.0911493 1.40226e-19)
(0.994752 0.0909953 -2.67211e-19)
(0.994679 0.0908115 4.74553e-19)
(0.994597 0.0905942 -1.52314e-19)
(0.994502 0.0903414 -9.89077e-20)
(0.994392 0.0900505 3.45347e-19)
(0.994263 0.0897072 -6.96582e-19)
(0.994118 0.0892862 6.23884e-19)
(0.993963 0.0887609 2.0503e-19)
(0.993808 0.0881155 -1.48332e-18)
(0.993663 0.0873432 -6.36686e-19)
(0.993544 0.0864346 1.69085e-18)
(0.993477 0.085395 2.58065e-18)
(0.993507 0.0841936 2.89838e-18)
(0.993644 0.0828373 -4.90368e-19)
(0.994075 0.0811753 5.17114e-18)
(0.994353 0.0791972 -7.31528e-18)
(0.995796 0.0769921 -1.85663e-17)
(0.994766 0.0748841 -1.95915e-18)
(0.994985 0.0925351 -8.20585e-21)
(0.994946 0.0925119 2.92124e-20)
(0.994909 0.0924792 3.73538e-20)
(0.994871 0.0924425 -3.49885e-20)
(0.994832 0.0924011 -9.45078e-20)
(0.994791 0.0923511 -1.55386e-22)
(0.994748 0.0922907 2.66762e-19)
(0.994701 0.0922183 -3.88831e-19)
(0.99465 0.0921311 2.4319e-19)
(0.994594 0.0920301 3.69806e-19)
(0.994531 0.0919093 -5.49363e-19)
(0.99446 0.0917708 -8.65581e-20)
(0.994382 0.0916022 -9.42596e-20)
(0.994297 0.0914011 1.21274e-19)
(0.9942 0.0911643 -5.43659e-19)
(0.994089 0.0908879 5.7148e-19)
(0.99396 0.0905693 1.28539e-19)
(0.993812 0.0901923 -5.20444e-19)
(0.993646 0.0897286 8.06008e-20)
(0.993471 0.0891488 2.10144e-19)
(0.993297 0.0884324 1.03788e-18)
(0.993138 0.0875683 -1.1861e-18)
(0.993014 0.0865404 1.71507e-18)
(0.992956 0.0853493 4.77979e-18)
(0.993025 0.0839659 -1.15496e-18)
(0.993235 0.0824126 -9.78152e-18)
(0.993807 0.0805804 -5.24599e-18)
(0.9943 0.0784835 3.0419e-18)
(0.995843 0.0763547 8.05541e-19)
(0.994972 0.0744421 6.87666e-18)
(0.994706 0.0932383 1.60821e-20)
(0.994663 0.0932124 -9.95746e-21)
(0.99462 0.0931711 4.35905e-20)
(0.994576 0.0931265 7.75587e-21)
(0.994529 0.0930779 8.18171e-20)
(0.99448 0.0930223 -2.11603e-19)
(0.994428 0.092957 1.6544e-19)
(0.994371 0.0928799 5.55503e-20)
(0.994309 0.0927877 -2.19679e-19)
(0.99424 0.09268 2.52108e-20)
(0.994163 0.0925508 4.66267e-19)
(0.994077 0.0924012 -4.25641e-19)
(0.993984 0.0922196 3.1121e-19)
(0.993884 0.0920027 -1.8875e-19)
(0.993772 0.091747 -6.3076e-20)
(0.993643 0.0914477 3.09058e-19)
(0.993495 0.0911011 5.27004e-19)
(0.993325 0.0906898 6.64257e-19)
(0.993138 0.0901836 -4.33224e-19)
(0.992941 0.0895493 -1.06484e-18)
(0.992748 0.0887627 -1.40613e-18)
(0.992572 0.0878077 -1.31938e-18)
(0.992438 0.0866605 -7.91716e-19)
(0.99238 0.085314 2.66945e-18)
(0.992473 0.083736 1.4549e-18)
(0.992735 0.0819564 2.09201e-18)
(0.99342 0.0799037 2.57272e-18)
(0.994129 0.0776131 -5.71655e-18)
(0.995825 0.0754372 5.63795e-18)
(0.995165 0.0738539 -2.42535e-18)
(0.994403 0.0939567 -2.82689e-20)
(0.994354 0.0939157 6.00291e-20)
(0.994305 0.0938646 -2.23661e-20)
(0.994255 0.0938125 -7.79693e-21)
(0.994201 0.0937592 6.1357e-20)
(0.994144 0.0937001 -1.60498e-19)
(0.994082 0.0936317 1.69108e-19)
(0.994015 0.0935511 1.45794e-19)
(0.993941 0.093454 -2.13278e-19)
(0.993859 0.0933399 8.90662e-20)
(0.993768 0.0932022 3.18755e-19)
(0.993666 0.0930418 -5.44148e-19)
(0.993557 0.0928477 -1.25784e-19)
(0.993442 0.0926151 1.25066e-19)
(0.993314 0.0923403 7.73283e-20)
(0.993167 0.0920174 5.87834e-20)
(0.992998 0.0916424 -3.39239e-19)
(0.992809 0.091196 -6.96249e-19)
(0.992603 0.0906466 6.48603e-19)
(0.99239 0.0899591 1.36813e-19)
(0.992185 0.0891061 2.78049e-18)
(0.992004 0.0880685 -5.99358e-19)
(0.991874 0.0868165 -8.10291e-19)
(0.991834 0.085337 -6.11227e-18)
(0.991967 0.0835948 -6.72461e-19)
(0.992292 0.0816235 9.09384e-19)
(0.993088 0.0793852 -4.80196e-18)
(0.994014 0.0769384 9.95952e-18)
(0.995889 0.0747133 1.36163e-17)
(0.995668 0.0737556 -8.54069e-18)
(0.99408 0.0947283 -1.93221e-20)
(0.994024 0.0946832 1.27814e-20)
(0.993968 0.0946193 9.01758e-20)
(0.99391 0.094553 -1.22815e-19)
(0.993848 0.0944844 1.59592e-19)
(0.993782 0.0944115 -2.97941e-20)
(0.993711 0.094331 -7.77953e-20)
(0.993633 0.0942401 -2.46788e-19)
(0.993547 0.0941344 1.33832e-19)
(0.993451 0.0940117 1.09027e-19)
(0.993345 0.0938648 -1.50909e-21)
(0.993227 0.0936932 7.68222e-20)
(0.9931 0.0934862 -4.7925e-19)
(0.992969 0.0932372 2.64622e-19)
(0.992824 0.0929419 1.35174e-19)
(0.99266 0.0925942 -2.73452e-20)
(0.992474 0.0921883 6.08581e-19)
(0.992268 0.0917049 -4.27659e-20)
(0.992048 0.0911112 -7.588e-19)
(0.991827 0.0903702 -5.65413e-19)
(0.991621 0.0894538 -3.95538e-19)
(0.991453 0.0883427 5.78961e-19)
(0.991354 0.0870052 -7.53155e-20)
(0.991366 0.0854272 -1.38516e-18)
(0.991575 0.0835751 -6.23913e-18)
(0.992 0.0814874 -1.18176e-18)
(0.992924 0.0791556 1.24422e-17)
(0.994065 0.0766605 -9.35496e-18)
(0.996111 0.0744627 8.80046e-18)
(0.996424 0.0742137 -1.06525e-17)
(0.993738 0.0954962 1.1824e-20)
(0.993673 0.095442 -3.02637e-20)
(0.993609 0.0953719 -1.53211e-20)
(0.993541 0.0952987 1.35855e-19)
(0.99347 0.0952231 -4.66935e-20)
(0.993394 0.0951421 -2.00555e-19)
(0.993312 0.0950527 1.41815e-19)
(0.993223 0.0949522 -3.11121e-19)
(0.993124 0.0948359 6.30979e-20)
(0.993015 0.0947022 7.56703e-20)
(0.992893 0.0945431 1.05397e-19)
(0.992758 0.094358 -4.0478e-19)
(0.992613 0.0941363 8.07591e-19)
(0.992465 0.0938686 -2.26043e-19)
(0.992304 0.0935506 -9.70216e-19)
(0.992123 0.0931748 6.74117e-19)
(0.99192 0.0927353 -1.55215e-19)
(0.991699 0.0922115 -5.80247e-19)
(0.991468 0.0915696 -4.39644e-19)
(0.991243 0.0907723 2.40852e-19)
(0.991045 0.0897913 -2.04889e-19)
(0.990903 0.0886093 -1.6978e-19)
(0.990855 0.0871977 3.99332e-18)
(0.990945 0.0855459 3.90728e-18)
(0.991265 0.0836292 -1.87037e-19)
(0.991823 0.0814928 -3.21876e-18)
(0.992896 0.0791541 -3.13271e-18)
(0.994246 0.0767069 3.17967e-18)
(0.996432 0.0746014 -4.52764e-18)
(0.997203 0.0748572 7.78932e-18)
(0.993378 0.0962859 -1.06304e-20)
(0.993301 0.0962391 -7.2481e-21)
(0.993226 0.0961651 1.69835e-20)
(0.993148 0.0960842 -4.19936e-20)
(0.993067 0.0959966 2.17073e-20)
(0.99298 0.0959023 8.07697e-20)
(0.992887 0.0957988 6.00478e-20)
(0.992785 0.0956844 -9.77418e-20)
(0.992673 0.0955551 2.23751e-19)
(0.99255 0.0954086 -3.11042e-19)
(0.992412 0.0952363 2.8732e-19)
(0.992259 0.0950363 -4.34581e-19)
(0.992096 0.094798 3.20583e-19)
(0.991929 0.0945095 -5.15456e-19)
(0.991751 0.0941658 6.82808e-19)
(0.991552 0.093759 2.7706e-19)
(0.991331 0.093282 -1.16847e-18)
(0.991094 0.0927135 1.2237e-18)
(0.99085 0.0920187 -3.84187e-19)
(0.990619 0.0911583 -1.40297e-18)
(0.990429 0.0901055 2.22793e-19)
(0.990313 0.0888456 8.34249e-19)
(0.990319 0.0873557 -1.31994e-18)
(0.990496 0.0856321 -2.95165e-18)
(0.99094 0.0836648 5.72545e-18)
(0.991649 0.0815079 6.12267e-18)
(0.99288 0.0791998 -4.80634e-18)
(0.994433 0.076838 6.58556e-18)
(0.996736 0.07483 -2.42488e-18)
(0.997759 0.0752646 6.74927e-18)
(0.993 0.0970401 -7.02599e-21)
(0.99291 0.0969955 7.02997e-21)
(0.992823 0.0969264 -1.993e-21)
(0.992733 0.0968485 1.15274e-20)
(0.992639 0.0967624 -7.66198e-20)
(0.992541 0.096666 4.98484e-20)
(0.992435 0.0965572 -1.34062e-19)
(0.992321 0.0964344 2.51225e-19)
(0.992195 0.0962939 -2.14848e-19)
(0.992056 0.0961344 5.50426e-20)
(0.991902 0.0959474 2.93892e-19)
(0.99173 0.0957307 3.35029e-20)
(0.991546 0.0954739 -3.08718e-20)
(0.99136 0.0951621 -3.67122e-19)
(0.991163 0.0947899 1.2742e-19)
(0.990943 0.0943488 -4.22921e-19)
(0.9907 0.0938313 8.69495e-19)
(0.990442 0.0932137 4.12901e-19)
(0.990179 0.0924593 -2.5397e-19)
(0.989934 0.0915281 9.95363e-19)
(0.989742 0.0903921 1.73328e-18)
(0.98964 0.0890399 -2.06229e-18)
(0.989687 0.087454 -4.69767e-18)
(0.98994 0.0856397 7.82423e-19)
(0.990498 0.0836029 -1.70435e-18)
(0.991354 0.0814102 -1.3719e-18)
(0.992743 0.0791162 6.46192e-18)
(0.994499 0.0768175 -3.58005e-18)
(0.996915 0.0748618 -1.28152e-19)
(0.998007 0.0751916 6.28281e-18)
(0.992601 0.0978067 8.26164e-21)
(0.9925 0.0977765 1.76099e-20)
(0.9924 0.0977124 -6.00047e-22)
(0.992298 0.0976363 1.76138e-20)
(0.992191 0.0975477 -1.21529e-19)
(0.992079 0.0974466 9.54249e-20)
(0.99196 0.0973306 1.68436e-19)
(0.991831 0.0971989 -1.94903e-19)
(0.99169 0.0970484 -3.1086e-20)
(0.991534 0.0968771 -1.01611e-19)
(0.991361 0.0966762 4.04623e-19)
(0.991169 0.0964427 -1.42328e-19)
(0.990963 0.0961668 -1.81594e-19)
(0.990755 0.09583 -7.00098e-20)
(0.990535 0.095427 3.36247e-19)
(0.99029 0.0949499 1.26838e-19)
(0.99002 0.0943885 -2.52953e-19)
(0.989734 0.0937179 -1.05967e-20)
(0.989443 0.0928993 -3.66576e-19)
(0.989174 0.0918885 -6.59306e-19)
(0.988963 0.090657 -1.48111e-18)
(0.988857 0.0891946 2.61406e-18)
(0.988923 0.087488 2.38977e-18)
(0.989229 0.0855508 -2.89202e-20)
(0.989879 0.0834053 3.76315e-18)
(0.990866 0.0811322 -1.81431e-18)
(0.992408 0.0788014 -3.67854e-18)
(0.994372 0.0765088 -3.58572e-18)
(0.996924 0.0745426 -2.01847e-17)
(0.997963 0.074618 -1.05078e-17)
(0.992174 0.0985606 -3.01121e-21)
(0.992065 0.0985337 8.98028e-21)
(0.991954 0.0984781 1.87515e-22)
(0.991839 0.0984102 -9.47127e-20)
(0.991719 0.09833 -1.30154e-21)
(0.991592 0.0982338 1.04674e-19)
(0.991458 0.0981191 -1.33027e-19)
(0.991313 0.0979846 2.01749e-19)
(0.991154 0.0978265 8.67934e-20)
(0.99098 0.0976444 6.27851e-21)
(0.990787 0.097429 -3.37787e-19)
(0.990572 0.0971781 1.77037e-19)
(0.990341 0.096882 4.8907e-19)
(0.990108 0.0965186 -3.89325e-19)
(0.989862 0.0960838 2.7703e-19)
(0.989588 0.0955685 -2.92605e-19)
(0.989286 0.0949615 2.18237e-19)
(0.988964 0.0942353 -2.05623e-19)
(0.988636 0.0933471 8.97108e-19)
(0.988329 0.0922503 3.75241e-19)
(0.988085 0.0909127 1.69073e-18)
(0.987956 0.0893235 -1.22343e-18)
(0.988018 0.0874723 -3.632e-18)
(0.98835 0.0853783 1.01343e-18)
(0.989066 0.0830801 -6.1408e-18)
(0.990167 0.0806726 7.56087e-18)
(0.991858 0.0782438 -5.32063e-18)
(0.994042 0.075894 1.4341e-17)
(0.99677 0.0738653 4.77454e-18)
(0.997743 0.0736582 -3.89617e-18)
(0.991706 0.099369 6.11382e-21)
(0.991593 0.0993547 3.69084e-21)
(0.991475 0.0993019 -4.63692e-20)
(0.99135 0.0992347 1.23778e-20)
(0.991218 0.0991525 9.83015e-21)
(0.991077 0.0990535 4.4606e-21)
(0.990926 0.0989345 -2.40631e-20)
(0.990764 0.0987941 2.21104e-19)
(0.990587 0.0986288 -3.30983e-19)
(0.990392 0.0984368 2.80076e-19)
(0.990176 0.0982087 -2.42113e-20)
(0.989936 0.097941 -1.83566e-19)
(0.989678 0.0976249 2.29822e-19)
(0.989416 0.0972347 -3.77062e-19)
(0.989141 0.0967668 1.32986e-19)
(0.988833 0.0962123 -2.71859e-19)
(0.988493 0.0955578 6.61377e-19)
(0.988128 0.0947738 6.2815e-19)
(0.987754 0.093814 9.54115e-19)
(0.987401 0.0926256 -4.55671e-19)
(0.987112 0.0911739 -1.85505e-18)
(0.986945 0.0894451 -4.32965e-19)
(0.986985 0.0874299 1.27442e-18)
(0.987324 0.0851511 3.27114e-18)
(0.988087 0.0826622 2.81165e-18)
(0.989289 0.0800734 -1.57236e-17)
(0.99113 0.0774933 3.49973e-18)
(0.993551 0.0750374 -1.66367e-17)
(0.9965 0.0729174 1.42356e-17)
(0.997454 0.0724963 5.50826e-18)
(0.991188 0.100199 2.3532e-21)
(0.991077 0.100182 -2.55448e-20)
(0.990956 0.100134 -1.66539e-20)
(0.990824 0.100072 4.56613e-20)
(0.990681 0.0999964 -8.52126e-20)
(0.990527 0.0999021 5.52039e-20)
(0.990361 0.0997849 -1.09956e-19)
(0.990181 0.0996425 -5.15033e-20)
(0.989984 0.0994706 2.45929e-20)
(0.989766 0.0992685 9.92952e-20)
(0.989525 0.0990261 -2.39629e-21)
(0.989258 0.0987406 1.13467e-19)
(0.988968 0.0984036 8.80057e-20)
(0.988674 0.0979854 4.42269e-19)
(0.988365 0.0974831 -7.23116e-20)
(0.98802 0.0968877 1.79881e-19)
(0.987637 0.0961853 -9.9413e-19)
(0.987225 0.0953419 -3.94705e-19)
(0.9868 0.0943068 -1.19594e-18)
(0.986393 0.0930241 5.2251e-19)
(0.986052 0.091453 1.48993e-18)
(0.985839 0.0895765 3.68987e-19)
(0.985848 0.0873847 7.79515e-19)
(0.986183 0.0849026 5.38033e-19)
(0.986985 0.0821966 4.22752e-18)
(0.988284 0.0793942 8.24665e-18)
(0.990282 0.076626 -7.29977e-18)
(0.992956 0.0740362 -2.37215e-18)
(0.996168 0.0718192 2.98124e-18)
(0.997207 0.0712845 1.27746e-18)
(0.990604 0.101127 2.36014e-21)
(0.990501 0.101117 -3.0228e-20)
(0.990382 0.101066 5.34787e-20)
(0.990249 0.100999 -7.9807e-20)
(0.990099 0.100916 1.05761e-19)
(0.989935 0.100815 9.36466e-20)
(0.989754 0.10069 -1.06363e-19)
(0.989556 0.100539 5.47814e-20)
(0.989338 0.100359 -2.28308e-19)
(0.989097 0.100145 6.36969e-20)
(0.988829 0.0998881 -4.90462e-20)
(0.988531 0.0995839 -3.7083e-19)
(0.988207 0.0992244 8.0163e-20)
(0.987877 0.0987773 5.00786e-19)
(0.987532 0.0982391 -1.25637e-19)
(0.987145 0.0976023 1.12634e-19)
(0.986716 0.0968491 -3.58726e-19)
(0.986253 0.095944 7.22947e-19)
(0.985774 0.0948332 -2.95024e-19)
(0.985311 0.0934526 -1.81796e-18)
(0.984915 0.0917587 -2.85792e-19)
(0.984655 0.0897296 4.36784e-19)
(0.984632 0.0873538 -7.06474e-19)
(0.984964 0.0846582 -4.06085e-18)
(0.985805 0.0817212 -6.33245e-18)
(0.987206 0.078688 -3.11409e-18)
(0.989375 0.0757137 5.26015e-18)
(0.99232 0.072981 9.5779e-18)
(0.995826 0.0706805 -1.78037e-17)
(0.997066 0.0701422 -1.43993e-18)
(0.989944 0.102109 1.16723e-20)
(0.989854 0.102089 -3.02166e-21)
(0.989741 0.102036 4.63226e-20)
(0.989609 0.101969 -1.13777e-20)
(0.989456 0.101889 -6.38709e-20)
(0.989284 0.101788 5.21646e-20)
(0.989091 0.10166 7.06705e-20)
(0.988877 0.101503 -1.33536e-19)
(0.988639 0.101311 2.81972e-19)
(0.988375 0.101082 1.18433e-19)
(0.988079 0.100806 -1.9648e-19)
(0.98775 0.10048 -3.057e-20)
(0.987388 0.100095 -4.55191e-20)
(0.987021 0.0996166 -1.03906e-19)
(0.986636 0.0990412 4.28607e-19)
(0.986205 0.0983594 -6.68179e-20)
(0.985728 0.0975539 1.5677e-19)
(0.985213 0.0965851 -8.29865e-19)
(0.984678 0.0953937 1.44065e-18)
(0.984159 0.0939133 3.50192e-19)
(0.98371 0.0920936 -1.31322e-18)
(0.983405 0.0899089 -2.12263e-18)
(0.983355 0.0873458 1.61729e-18)
(0.983692 0.0844328 -6.7517e-18)
(0.984582 0.0812599 9.13969e-18)
(0.986098 0.0779908 4.91282e-18)
(0.988455 0.0748069 6.66109e-18)
(0.991686 0.0719354 -2.42143e-18)
(0.995507 0.0695739 1.90627e-17)
(0.99708 0.0691159 -4.49871e-18)
(0.989191 0.103223 -3.13234e-21)
(0.989118 0.103207 -3.6736e-20)
(0.989016 0.103144 1.51263e-20)
(0.98889 0.103063 9.60699e-20)
(0.988739 0.102967 -1.24477e-19)
(0.988562 0.102849 5.1646e-21)
(0.988361 0.102706 -9.16539e-22)
(0.988134 0.102533 2.73023e-20)
(0.987878 0.102325 -2.48419e-20)
(0.98759 0.102079 -3.45921e-20)
(0.987268 0.101783 9.3392e-20)
(0.986907 0.101433 2.7627e-19)
(0.986508 0.101019 -2.61152e-19)
(0.9861 0.100508 3.66131e-20)
(0.985674 0.0998923 -2.2716e-19)
(0.985197 0.0991632 -9.29736e-20)
(0.984671 0.0983009 -8.07063e-21)
(0.984102 0.0972644 8.27564e-19)
(0.983513 0.095991 -1.00847e-18)
(0.982939 0.0944061 2.67202e-18)
(0.98244 0.0924571 2.09852e-18)
(0.982097 0.0901131 -8.16503e-19)
(0.982029 0.0873601 -1.00692e-18)
(0.982384 0.0842281 9.91141e-18)
(0.983339 0.0808196 -7.80725e-18)
(0.984988 0.077317 -4.24229e-18)
(0.987554 0.0739286 -3.66439e-18)
(0.991085 0.0709313 2.14975e-18)
(0.995235 0.0685329 -1.54145e-17)
(0.997231 0.0682196 9.58999e-18)
(0.988348 0.104381 -3.95675e-21)
(0.988292 0.10435 -3.30612e-20)
(0.988205 0.104283 -8.52558e-22)
(0.988087 0.104199 5.25608e-20)
(0.98794 0.1041 -3.09129e-20)
(0.987763 0.103978 1.17791e-19)
(0.987555 0.103826 -1.82179e-19)
(0.987317 0.10364 5.99272e-20)
(0.987045 0.103414 1.64411e-19)
(0.986737 0.103147 -3.57608e-19)
(0.986389 0.102826 1.29059e-20)
(0.985996 0.102447 -7.731e-20)
(0.98556 0.102001 1.38076e-19)
(0.98511 0.101454 -2.09728e-20)
(0.984641 0.100795 2.08756e-19)
(0.984119 0.100013 -7.14408e-19)
(0.983542 0.0990916 8.4672e-20)
(0.98292 0.0979833 -4.69176e-19)
(0.982276 0.0966207 3.00796e-19)
(0.98165 0.0949269 1.21654e-19)
(0.981106 0.0928434 -1.60608e-18)
(0.980732 0.0903357 -1.58229e-18)
(0.980658 0.0873893 3.42609e-18)
(0.981045 0.0840371 -5.7801e-18)
(0.982084 0.0803945 1.34674e-18)
(0.983886 0.0766639 2.86482e-18)
(0.986682 0.0730794 2.04937e-18)
(0.990526 0.0699723 -1.10966e-17)
(0.995015 0.0675582 -7.3358e-18)
(0.997513 0.0674226 -6.54646e-18)
(0.987412 0.105668 6.50426e-21)
(0.987374 0.105641 -4.25147e-21)
(0.987301 0.105561 -3.07679e-20)
(0.987194 0.10546 3.99383e-20)
(0.987053 0.10534 -7.08702e-20)
(0.986878 0.105197 1.23905e-19)
(0.986668 0.105024 -1.41565e-19)
(0.986421 0.104817 8.55206e-20)
(0.986135 0.10457 -1.71979e-19)
(0.985808 0.10428 3.62267e-19)
(0.985435 0.103932 -1.75993e-19)
(0.985013 0.103523 1.82368e-19)
(0.98454 0.103041 -7.56273e-19)
(0.984048 0.102455 4.29427e-19)
(0.983535 0.101747 -5.55479e-22)
(0.982965 0.100911 2.43077e-19)
(0.982338 0.0999235 -3.33961e-19)
(0.981664 0.0987376 3.80841e-19)
(0.980966 0.0972822 1.36387e-19)
(0.98029 0.0954719 -1.33905e-18)
(0.979706 0.0932463 2.2893e-18)
(0.979309 0.0905678 7.81673e-19)
(0.97924 0.0874217 -5.26977e-18)
(0.979676 0.0838458 1.9741e-18)
(0.980818 0.0799692 1.36322e-18)
(0.982795 0.0760154 -6.33443e-18)
(0.985842 0.0722444 -2.75169e-18)
(0.990014 0.0690423 3.64462e-17)
(0.99485 0.0666316 -1.3427e-18)
(0.99788 0.0666938 3.25525e-19)
(0.986388 0.106981 -3.19397e-21)
(0.986365 0.106938 9.88682e-21)
(0.986304 0.106854 -1.32536e-20)
(0.986208 0.10675 -1.45575e-21)
(0.986073 0.106628 1.48395e-20)
(0.985901 0.106479 5.35753e-21)
(0.985689 0.106294 1.76125e-20)
(0.985436 0.106071 -1.3046e-19)
(0.985139 0.105801 2.7747e-19)
(0.984795 0.105484 -8.79089e-20)
(0.984401 0.105104 3.04063e-20)
(0.98395 0.10466 3.58542e-21)
(0.983443 0.104139 -1.38521e-19)
(0.982909 0.103509 -3.68754e-20)
(0.982351 0.10275 7.25787e-19)
(0.981735 0.101852 8.20648e-20)
(0.981057 0.100795 5.57208e-19)
(0.980331 0.0995263 2.68864e-19)
(0.97958 0.0979679 -1.34467e-18)
(0.978856 0.0960338 9.20615e-19)
(0.978234 0.093657 -8.33261e-19)
(0.977821 0.0907982 3.51545e-18)
(0.977769 0.0874436 5.25908e-18)
(0.978268 0.0836376 4.23967e-18)
(0.979532 0.0795244 6.71066e-18)
(0.981705 0.0753497 4.74658e-18)
(0.985028 0.0714002 -3.16506e-18)
(0.98954 0.0681157 -3.53162e-18)
(0.994728 0.0657249 1.6193e-20)
(0.998324 0.0659833 7.22345e-18)
(0.985272 0.108419 -7.57524e-22)
(0.98526 0.108382 1.90553e-20)
(0.985211 0.108282 -6.66717e-20)
(0.985124 0.108159 1.42374e-20)
(0.984996 0.108012 -5.18403e-20)
(0.984828 0.107839 1.00871e-19)
(0.984616 0.107629 -2.87701e-20)
(0.984359 0.107381 5.5637e-20)
(0.984053 0.107086 -4.58424e-20)
(0.983695 0.106741 -1.58352e-19)
(0.983281 0.10633 2.54522e-19)
(0.982805 0.10585 -2.66092e-19)
(0.982265 0.105288 5.0115e-19)
(0.981689 0.104613 -2.47629e-19)
(0.981087 0.103797 -2.23592e-19)
(0.980423 0.102835 -8.27973e-19)
(0.979697 0.101702 -6.77286e-19)
(0.978917 0.100342 4.21785e-19)
(0.978114 0.0986764 3.15462e-19)
(0.977342 0.0966074 -8.22654e-19)
(0.976687 0.0940683 -7.78668e-19)
(0.976263 0.0910166 -3.92437e-19)
(0.976237 0.0874416 -2.98372e-18)
(0.976814 0.0833953 -2.76409e-18)
(0.978221 0.0790396 -9.58639e-18)
(0.980611 0.0746437 1.13894e-18)
(0.984231 0.0705213 -1.1567e-18)
(0.989099 0.0671654 -4.37361e-17)
(0.994646 0.0648078 1.84966e-17)
(0.998805 0.065263 1.07519e-17)
(0.984081 0.109838 5.941e-21)
(0.984075 0.109785 6.70474e-21)
(0.984032 0.109683 -1.76915e-20)
(0.983952 0.109559 1.13991e-19)
(0.98383 0.109412 -1.76317e-19)
(0.983664 0.109233 1.09789e-19)
(0.983452 0.109013 6.55992e-20)
(0.983191 0.108747 -1.91605e-19)
(0.982878 0.108427 1.93021e-19)
(0.982507 0.108054 -3.41203e-19)
(0.982075 0.107609 4.27849e-19)
(0.981574 0.10709 1.81358e-20)
(0.981003 0.106484 -4.14267e-19)
(0.980387 0.10576 9.56873e-20)
(0.97974 0.104886 4.61137e-20)
(0.979031 0.103853 1.10596e-19)
(0.978253 0.10264 5.77893e-19)
(0.97742 0.101184 -8.27865e-19)
(0.976565 0.099398 1.40146e-18)
(0.975745 0.0971846 4.85597e-20)
(0.975058 0.0944706 1.37634e-18)
(0.974629 0.0912119 -4.13732e-18)
(0.974638 0.0874023 2.34572e-19)
(0.975307 0.0831032 -4.25968e-19)
(0.976872 0.0784964 1.17888e-18)
(0.979501 0.0738765 6.53815e-18)
(0.983441 0.0695841 -1.26712e-18)
(0.98868 0.066167 2.16429e-17)
(0.994593 0.0638537 -1.47398e-17)
(0.999325 0.0644949 -7.51192e-18)
(0.98282 0.111358 1.97859e-21)
(0.982815 0.111313 -5.80513e-21)
(0.982776 0.111196 -5.63655e-20)
(0.982699 0.111053 7.70879e-20)
(0.982579 0.110883 -1.92986e-20)
(0.982414 0.110682 -6.15826e-21)
(0.982201 0.110438 -4.15533e-20)
(0.981936 0.110149 6.58719e-20)
(0.981615 0.109806 -1.31781e-19)
(0.981231 0.109405 -5.50025e-20)
(0.980782 0.108927 1.14899e-19)
(0.980258 0.108371 -2.12814e-19)
(0.979657 0.10772 -1.27711e-19)
(0.978999 0.106946 1.26286e-19)
(0.978308 0.106009 -2.0924e-19)
(0.977552 0.104903 -1.86859e-19)
(0.976724 0.103602 9.0197e-19)
(0.975838 0.102042 -3.3995e-19)
(0.974927 0.100132 1.20252e-19)
(0.974061 0.0977606 -6.04523e-19)
(0.973344 0.0948572 -7.18958e-20)
(0.972913 0.0913757 3.37088e-18)
(0.972966 0.0873146 5.69114e-19)
(0.97374 0.0827478 -7.5788e-19)
(0.975483 0.0778789 3.07708e-18)
(0.978371 0.0730302 -5.215e-18)
(0.982653 0.0685703 5.81874e-18)
(0.988279 0.065101 -3.64842e-17)
(0.994566 0.0628439 1.11264e-17)
(0.999854 0.06367 -1.93147e-17)
(0.9815 0.112834 2.93106e-21)
(0.98149 0.112773 -9.50365e-21)
(0.981449 0.112657 4.11325e-20)
(0.98137 0.112517 6.26844e-21)
(0.981249 0.112352 -9.02789e-20)
(0.981081 0.112149 2.15407e-20)
(0.980864 0.111897 2.05519e-20)
(0.980593 0.111593 3.01358e-20)
(0.980263 0.111225 1.5082e-20)
(0.979867 0.110796 -1.77796e-20)
(0.979401 0.110284 -1.82548e-19)
(0.978855 0.109687 1.01051e-22)
(0.978224 0.10899 2.84142e-19)
(0.977527 0.108163 6.76025e-20)
(0.976791 0.107161 3.27671e-19)
(0.975989 0.105977 2.51495e-19)
(0.97511 0.104586 -3.6545e-19)
(0.974166 0.102916 9.9748e-20)
(0.973199 0.100867 -1.35384e-18)
(0.972286 0.0983271 -1.14613e-18)
(0.971538 0.0952191 -1.79558e-18)
(0.971111 0.0914982 -5.08366e-18)
(0.971215 0.087168 -8.67514e-19)
(0.972107 0.0823177 4.50552e-18)
(0.974045 0.0771748 -7.8649e-18)
(0.977213 0.0720916 -3.17001e-19)
(0.981859 0.0674665 -5.59864e-19)
(0.987887 0.0639535 2.52587e-17)
(0.994558 0.0617662 -6.84557e-18)
(1.00041 0.0627663 3.70479e-18)
(0.980114 0.114409 -6.12343e-21)
(0.980095 0.114361 -2.9727e-21)
(0.980047 0.114228 3.82802e-20)
(0.979964 0.114069 -1.3906e-20)
(0.979838 0.11388 -1.18857e-20)
(0.979666 0.113655 3.20034e-20)
(0.979444 0.11338 -2.08157e-20)
(0.979166 0.113053 7.75553e-20)
(0.978826 0.112663 -1.04571e-19)
(0.978418 0.112207 -1.07451e-19)
(0.977934 0.111663 -1.41378e-20)
(0.977365 0.111028 1.66683e-19)
(0.976705 0.110284 -9.96694e-20)
(0.975969 0.109404 3.17767e-19)
(0.975189 0.108334 -4.284e-19)
(0.974342 0.10707 -2.11315e-19)
(0.973405 0.105583 6.19916e-19)
(0.9724 0.103797 -1.54002e-19)
(0.971375 0.101602 4.44376e-19)
(0.970414 0.098879 5.33012e-19)
(0.969639 0.0955513 5.38813e-19)
(0.96922 0.0915725 4.69555e-18)
(0.969384 0.0869546 1.2371e-18)
(0.970408 0.0818036 -1.01056e-18)
(0.972559 0.0763745 3.58725e-18)
(0.976028 0.0710513 -1.44186e-18)
(0.981059 0.0662637 1.02857e-17)
(0.987506 0.0627173 1.76861e-17)
(0.994569 0.0606142 1.09912e-17)
(1.00096 0.0617942 1.09452e-17)
(0.978677 0.115903 -2.00487e-20)
(0.978644 0.115838 2.10622e-20)
(0.978585 0.115709 -2.73673e-20)
(0.978493 0.115557 9.60253e-21)
(0.978359 0.115375 -5.64495e-21)
(0.978178 0.115151 -7.81392e-20)
(0.977948 0.114871 -4.16985e-22)
(0.97766 0.114532 2.71716e-19)
(0.977309 0.114121 -8.30499e-20)
(0.976886 0.113639 1.04437e-19)
(0.976384 0.113062 -2.24743e-19)
(0.975792 0.112388 4.0612e-19)
(0.975102 0.111597 1.30044e-19)
(0.974327 0.110663 1.43974e-19)
(0.973504 0.109521 -2.38638e-19)
(0.972602 0.108176 5.28875e-19)
(0.971603 0.106596 -7.07545e-19)
(0.970534 0.104682 -6.22114e-19)
(0.96945 0.102324 1.02297e-18)
(0.968441 0.0994063 1.10988e-18)