/*--------------------------------*- C++ -*----------------------------------*\
  =========                 |
  \\      /  F ield         | OpenFOAM: The Open Source CFD Toolbox
   \\    /   O peration     | Website:  https://openfoam.org
    \\  /    A nd           | Version:  6.0
     \\/     M anipulation  |
\*---------------------------------------------------------------------------*/
FoamFile
{
    version     2.0;
    format      ascii;
    class       volVectorField;
    location    "12";
    object      U;
}
// * * * * * * * * * * * * * * * * * * * * * * * * * * * * * * * * * * * * * //

dimensions      [0 1 -1 0 0 0 0];

internalField   nonuniform List<vector> 
62000
(
(0.965795 -0.258828 -2.54619e-21)
(0.965777 -0.258835 2.13771e-21)
(0.965763 -0.258851 2.16411e-21)
(0.965756 -0.258877 -9.43623e-21)
(0.965748 -0.258924 -1.06011e-20)
(0.965738 -0.25899 3.70254e-20)
(0.965726 -0.259068 -4.04059e-20)
(0.965713 -0.259149 2.3503e-20)
(0.965703 -0.259223 -1.0797e-20)
(0.965696 -0.259283 -5.43106e-20)
(0.965693 -0.259328 -5.76599e-21)
(0.965693 -0.259361 7.59658e-20)
(0.965695 -0.259385 1.48789e-20)
(0.965697 -0.259404 -5.25005e-20)
(0.965699 -0.25942 8.0739e-20)
(0.9657 -0.259434 -4.30483e-20)
(0.965701 -0.259447 4.23915e-20)
(0.965702 -0.259459 -5.02192e-20)
(0.965703 -0.25947 2.3684e-20)
(0.965705 -0.25948 -7.08548e-20)
(0.965707 -0.25949 9.14448e-20)
(0.965709 -0.259498 2.41026e-20)
(0.965712 -0.259506 3.21e-20)
(0.965717 -0.259512 -1.56969e-19)
(0.965723 -0.259518 5.57466e-20)
(0.965731 -0.259523 -3.03023e-20)
(0.965741 -0.259526 2.12229e-21)
(0.965753 -0.259528 -1.83367e-20)
(0.965768 -0.259529 6.43775e-20)
(0.965788 -0.259528 -2.77499e-20)
(0.965812 -0.259525 6.11017e-20)
(0.965841 -0.25952 -1.10753e-19)
(0.965878 -0.259511 1.46157e-20)
(0.965922 -0.259498 -1.26286e-20)
(0.965977 -0.259481 8.88626e-22)
(0.966043 -0.259459 2.24977e-21)
(0.966123 -0.259428 1.15471e-20)
(0.96622 -0.259385 2.11978e-20)
(0.966335 -0.259329 -1.80039e-20)
(0.966472 -0.259254 -1.94418e-19)
(0.966634 -0.259157 6.68536e-20)
(0.966824 -0.259032 4.11232e-19)
(0.967044 -0.258873 7.92611e-19)
(0.967297 -0.258673 -4.93324e-19)
(0.967585 -0.258426 -2.23226e-19)
(0.967912 -0.258122 9.07483e-19)
(0.968283 -0.257748 -7.1085e-20)
(0.968702 -0.257285 4.84643e-19)
(0.969178 -0.256704 2.37663e-18)
(0.96972 -0.255962 7.54493e-19)
(0.970332 -0.255 4.14612e-19)
(0.971017 -0.253733 4.94387e-18)
(0.971763 -0.252055 -1.36867e-18)
(0.972553 -0.249806 -6.42467e-18)
(0.973349 -0.246746 -1.51039e-18)
(0.974149 -0.242494 -6.29275e-18)
(0.974614 -0.23566 4.68055e-19)
(0.978085 -0.226093 6.6967e-19)
(0.981375 -0.189066 -2.16732e-18)
(1.06076 -0.0892619 -4.18251e-19)
(0.965709 -0.259413 -6.95273e-22)
(0.965719 -0.259416 6.6565e-21)
(0.965745 -0.259366 2.71112e-21)
(0.965775 -0.259302 -1.18803e-20)
(0.965794 -0.259255 4.91953e-21)
(0.9658 -0.259244 -3.36382e-20)
(0.965796 -0.259286 3.10241e-20)
(0.965784 -0.25938 1.75391e-20)
(0.965768 -0.259509 -3.2809e-20)
(0.965752 -0.25965 1.70983e-21)
(0.965742 -0.259781 3.10795e-20)
(0.965738 -0.259891 -2.97637e-22)
(0.96574 -0.25998 8.34213e-21)
(0.965747 -0.260051 -7.3657e-20)
(0.965756 -0.260111 1.4578e-19)
(0.965766 -0.260166 -1.28069e-19)
(0.965776 -0.260217 5.88432e-20)
(0.965786 -0.260268 -1.26523e-20)
(0.965796 -0.260317 -3.20455e-20)
(0.965806 -0.260364 8.61595e-20)
(0.965818 -0.26041 -1.33713e-19)
(0.965832 -0.260454 7.58446e-20)
(0.965848 -0.260495 -9.12339e-20)
(0.965868 -0.260532 5.49067e-20)
(0.965891 -0.260566 4.55209e-20)
(0.965919 -0.260597 -2.98243e-20)
(0.965952 -0.260623 2.61257e-21)
(0.965991 -0.260644 3.21612e-20)
(0.966037 -0.260661 2.35659e-20)
(0.966091 -0.260671 -3.44715e-20)
(0.966156 -0.260673 6.92098e-20)
(0.966231 -0.260666 6.23717e-21)
(0.966321 -0.260649 2.45447e-20)
(0.966427 -0.260624 -6.8868e-21)
(0.966553 -0.26059 -2.80364e-21)
(0.966704 -0.260539 -7.75278e-21)
(0.966882 -0.260465 3.4202e-21)
(0.96709 -0.260362 -6.0059e-21)
(0.967331 -0.260222 7.23906e-20)
(0.967609 -0.260042 1.35463e-19)
(0.967926 -0.259815 -1.20754e-19)
(0.968285 -0.259536 -9.14781e-20)
(0.968687 -0.259198 -8.8607e-19)
(0.969134 -0.258795 -6.64124e-20)
(0.969629 -0.258323 1.81841e-18)
(0.970175 -0.25777 -8.11735e-19)
(0.970779 -0.257121 -7.60873e-19)
(0.971453 -0.256342 -9.7248e-19)
(0.972208 -0.255388 -2.33184e-19)
(0.973057 -0.254183 -5.01399e-20)
(0.973998 -0.252632 -2.13483e-18)
(0.975021 -0.250607 -6.24609e-18)
(0.976075 -0.247975 4.57145e-18)
(0.977095 -0.244563 1.15878e-17)
(0.977925 -0.24018 2.90351e-18)
(0.978444 -0.234686 2.5381e-18)
(0.977816 -0.227786 4.51227e-18)
(0.976902 -0.221719 2.4408e-18)
(0.979828 -0.222806 -2.31706e-18)
(0.982081 -0.215037 -8.87365e-19)
(0.965912 -0.260428 -3.4899e-21)
(0.965938 -0.260441 -4.72594e-22)
(0.96595 -0.260385 5.66936e-22)
(0.965952 -0.2603 2.49297e-21)
(0.965937 -0.260194 6.97142e-21)
(0.965908 -0.260086 -6.65828e-21)
(0.965874 -0.260018 3.50486e-20)
(0.965837 -0.260026 -1.71032e-20)
(0.9658 -0.260117 -9.05688e-21)
(0.965764 -0.260269 -5.36229e-20)
(0.965735 -0.260449 4.54178e-20)
(0.965717 -0.260625 3.25347e-21)
(0.965711 -0.260781 -9.86798e-21)
(0.965718 -0.260913 2.59237e-20)
(0.965734 -0.261024 -4.39884e-20)
(0.965758 -0.261121 6.98571e-22)
(0.965786 -0.261212 -1.88507e-20)
(0.965817 -0.261298 1.39188e-21)
(0.96585 -0.261383 4.34175e-20)
(0.965883 -0.261465 -6.40821e-20)
(0.965917 -0.261543 3.98749e-20)
(0.965953 -0.261616 1.43974e-19)
(0.965991 -0.261684 -2.44344e-20)
(0.966032 -0.261745 -1.89849e-19)
(0.966076 -0.261799 9.64162e-20)
(0.966125 -0.261846 -4.58708e-20)
(0.966179 -0.261885 7.36187e-20)
(0.966239 -0.261915 -4.66809e-20)
(0.966308 -0.261936 -7.55578e-20)
(0.966385 -0.261946 7.32106e-20)
(0.966473 -0.261943 -4.55435e-20)
(0.966573 -0.261924 4.96922e-20)
(0.966687 -0.261892 -1.12376e-19)
(0.966818 -0.261848 7.18137e-20)
(0.966972 -0.26179 -2.56464e-20)
(0.967151 -0.261711 9.87992e-21)
(0.967361 -0.2616 8.63312e-21)
(0.967602 -0.26145 1.41988e-20)
(0.967875 -0.261256 1.55945e-20)
(0.968183 -0.261014 -1.03269e-19)
(0.968525 -0.260718 7.45812e-20)
(0.968902 -0.260368 -1.4184e-19)
(0.969311 -0.259962 5.64911e-19)
(0.96975 -0.259501 3.25164e-19)
(0.970215 -0.258987 -4.46837e-19)
(0.970705 -0.258419 1.50284e-18)
(0.971223 -0.257791 -2.42396e-19)
(0.971772 -0.257081 1.60944e-18)
(0.972361 -0.256252 -2.45755e-18)
(0.972997 -0.255239 -6.98867e-19)
(0.973679 -0.253958 -3.16536e-19)
(0.974393 -0.252298 2.41261e-19)
(0.975095 -0.250152 -1.76054e-18)
(0.975727 -0.247391 -8.62253e-19)
(0.976139 -0.243885 3.50208e-18)
(0.976282 -0.239593 2.39012e-18)
(0.975437 -0.234506 8.16083e-19)
(0.974891 -0.230921 3.91495e-18)
(0.977396 -0.222115 4.09011e-19)
(0.998588 -0.190289 -2.10172e-19)
(0.96651 -0.260992 -3.63187e-21)
(0.966429 -0.261015 1.11149e-20)
(0.966326 -0.261011 -1.74538e-21)
(0.966231 -0.260997 -1.13822e-20)
(0.966127 -0.26094 1.70827e-20)
(0.966017 -0.260831 2.91536e-20)
(0.965913 -0.260712 -3.83113e-20)
(0.965821 -0.260645 4.0785e-21)
(0.96574 -0.260668 1.27662e-20)
(0.96567 -0.260785 2.59757e-20)
(0.965611 -0.26097 -4.87174e-20)
(0.965565 -0.261183 -1.42722e-20)
(0.965537 -0.261395 -1.53696e-20)
(0.965527 -0.261589 7.17349e-20)
(0.965537 -0.26176 -4.70665e-20)
(0.965564 -0.261913 1.06117e-19)
(0.965605 -0.262055 -1.28006e-19)
(0.965657 -0.262192 -1.68206e-20)
(0.965717 -0.262327 1.27646e-19)
(0.965783 -0.262459 -4.47908e-20)
(0.965851 -0.262587 -1.61941e-20)
(0.965921 -0.262708 -1.60044e-20)
(0.965993 -0.262821 -1.3588e-19)
(0.966065 -0.262922 8.22039e-20)
(0.966139 -0.263012 -2.97125e-20)
(0.966215 -0.263088 5.25406e-20)
(0.966295 -0.26315 2.30195e-20)
(0.966379 -0.263197 9.78943e-20)
(0.966469 -0.263229 -6.29506e-20)
(0.966567 -0.263245 -6.81924e-20)
(0.966676 -0.26324 9.54802e-20)
(0.966796 -0.263214 -7.43568e-20)
(0.966931 -0.263167 1.08831e-19)
(0.967084 -0.263104 -4.65575e-20)
(0.96726 -0.263022 3.07209e-20)
(0.967465 -0.262914 2.90735e-20)
(0.967702 -0.262768 -3.11776e-21)
(0.967976 -0.262578 -1.85455e-20)
(0.968288 -0.262336 -8.83605e-21)
(0.96864 -0.262038 -2.74888e-20)
(0.969031 -0.261682 1.11808e-19)
(0.969462 -0.261265 -4.59212e-20)
(0.969931 -0.260787 -1.22488e-19)
(0.970433 -0.26025 -3.3935e-19)
(0.970964 -0.259657 -5.50166e-19)
(0.971518 -0.259007 -1.6152e-19)
(0.972092 -0.258297 -1.05795e-18)
(0.972685 -0.257507 -1.26605e-18)
(0.973299 -0.256601 -1.61068e-18)
(0.973937 -0.255516 1.25061e-18)
(0.974595 -0.254164 1.76162e-18)
(0.975266 -0.252429 -1.25208e-18)
(0.975919 -0.25019 -1.79153e-18)
(0.976525 -0.247289 -4.31892e-18)
(0.976977 -0.24352 -2.82068e-18)
(0.977327 -0.238676 -4.57093e-18)
(0.977054 -0.232426 -7.68209e-18)
(0.977365 -0.226088 1.54535e-19)
(0.983597 -0.213966 2.49137e-18)
(0.985498 -0.191881 1.15506e-18)
(0.966848 -0.262116 7.30949e-21)
(0.966605 -0.262181 -2.46869e-21)
(0.966415 -0.262232 4.04355e-21)
(0.966286 -0.262301 -5.78381e-21)
(0.966169 -0.262332 1.27762e-20)
(0.96605 -0.262281 -6.42716e-21)
(0.965939 -0.262168 3.28465e-21)
(0.965843 -0.262055 -4.9765e-20)
(0.965763 -0.262002 4.1608e-20)
(0.965695 -0.262037 -8.05822e-20)
(0.965638 -0.262152 8.86319e-20)
(0.965588 -0.262315 -1.07667e-20)
(0.965549 -0.262492 -2.23095e-20)
(0.965523 -0.26266 -9.31291e-21)
(0.965515 -0.262809 -1.54234e-21)
(0.965526 -0.26294 -9.47713e-20)
(0.965558 -0.263061 7.73987e-21)
(0.96561 -0.263179 1.01634e-19)
(0.965679 -0.263301 -3.11086e-20)
(0.965762 -0.263427 -3.06975e-20)
(0.965856 -0.263558 5.38276e-20)
(0.965957 -0.263689 -2.40754e-20)
(0.966062 -0.263818 1.01768e-19)
(0.96617 -0.26394 4.95305e-20)
(0.96628 -0.264052 3.26578e-20)
(0.966389 -0.264151 -1.19258e-19)
(0.9665 -0.264235 -1.57282e-20)
(0.966612 -0.264303 -7.90111e-20)
(0.966728 -0.264352 1.63998e-20)
(0.966849 -0.26438 -1.90642e-20)
(0.966979 -0.264385 -6.48689e-21)
(0.967119 -0.264362 4.92e-20)
(0.967273 -0.264315 -1.22906e-19)
(0.967446 -0.264246 -7.33698e-21)
(0.967644 -0.264157 -3.6244e-20)
(0.967872 -0.264037 -1.15416e-20)
(0.968139 -0.263876 -1.40566e-20)
(0.968448 -0.263665 4.12254e-21)
(0.968805 -0.263396 -5.04703e-20)
(0.969214 -0.263066 2.89579e-21)
(0.969678 -0.262669 -1.34534e-19)
(0.9702 -0.262199 1.4115e-19)
(0.970781 -0.261653 1.11505e-19)
(0.971419 -0.261028 7.11555e-20)
(0.972112 -0.260321 -3.9662e-19)
(0.972854 -0.259524 -6.53422e-19)
(0.97364 -0.258625 -1.79745e-19)
(0.974465 -0.257596 -3.47647e-19)
(0.975323 -0.256393 5.1709e-19)
(0.976208 -0.254941 -3.2615e-18)
(0.977107 -0.253146 -8.88848e-19)
(0.978 -0.25088 8.68404e-19)
(0.978851 -0.248007 -4.65033e-19)
(0.979622 -0.244362 -3.50826e-18)
(0.9802 -0.23973 2.34564e-19)
(0.98062 -0.233909 3.60674e-18)
(0.980333 -0.22677 7.29016e-18)
(0.979995 -0.220322 -5.69028e-18)
(0.984527 -0.213161 1.7432e-19)
(0.984528 -0.196331 -4.35271e-19)
(0.96636 -0.264499 -2.89857e-21)
(0.966051 -0.264604 1.1733e-20)
(0.965905 -0.264666 -1.93407e-20)
(0.965869 -0.264773 1.44457e-20)
(0.965861 -0.264865 9.3086e-21)
(0.96585 -0.264874 -9.93083e-21)
(0.965839 -0.264797 7.91149e-22)
(0.965835 -0.264678 -7.36043e-21)
(0.965841 -0.26458 -2.42469e-20)
(0.965855 -0.264544 4.65089e-20)
(0.965872 -0.264576 -7.03366e-20)
(0.965885 -0.264653 6.1113e-20)
(0.965892 -0.264745 5.10854e-20)
(0.965894 -0.264826 -7.94335e-20)
(0.965895 -0.264882 -2.39683e-20)
(0.965901 -0.264912 9.12192e-20)
(0.965918 -0.264924 -1.07278e-19)
(0.965952 -0.26493 1.43456e-19)
(0.966004 -0.26494 -2.92922e-20)
(0.966077 -0.264961 1.21882e-20)
(0.966169 -0.264996 -2.53295e-20)
(0.966277 -0.265045 -2.93716e-20)
(0.966398 -0.265104 -4.84935e-20)
(0.966529 -0.26517 8.07988e-20)
(0.966666 -0.265238 -5.52996e-20)
(0.966807 -0.265305 -4.79068e-20)
(0.96695 -0.265364 9.6606e-20)
(0.967095 -0.265415 -8.35733e-20)
(0.967242 -0.265452 1.24826e-19)
(0.967392 -0.265473 -6.63406e-20)
(0.967547 -0.265472 3.92617e-20)
(0.967711 -0.265445 -6.27718e-20)
(0.967886 -0.265393 5.37835e-20)
(0.968079 -0.265321 -1.2401e-20)
(0.968295 -0.265229 -4.87455e-21)
(0.968542 -0.265107 -4.51647e-21)
(0.968827 -0.264945 -1.32246e-20)
(0.969158 -0.264731 -5.08861e-21)
(0.96954 -0.264459 1.80716e-20)
(0.969983 -0.264123 2.04131e-19)
(0.970493 -0.263716 1.31055e-19)
(0.971077 -0.263229 -1.38846e-19)
(0.971738 -0.262654 1.55901e-19)
(0.97248 -0.261981 2.64643e-19)
(0.973303 -0.261199 2.71901e-20)
(0.974204 -0.260292 -8.43586e-19)
(0.975176 -0.259238 1.41379e-18)
(0.976211 -0.257998 1.62059e-18)
(0.977296 -0.256521 1.24301e-18)
(0.978412 -0.254727 2.21255e-18)
(0.979529 -0.252521 -1.48225e-18)
(0.980607 -0.249778 6.6555e-19)
(0.981583 -0.246383 5.59569e-18)
(0.982387 -0.242215 -9.68032e-19)
(0.982871 -0.237148 -1.80948e-18)
(0.983012 -0.231157 2.85871e-18)
(0.982198 -0.224527 -2.60162e-18)
(0.980556 -0.220404 1.86991e-20)
(0.984238 -0.216379 -5.44163e-19)
(0.982956 -0.199491 4.72234e-19)
(0.965242 -0.26778 3.59721e-21)
(0.965018 -0.267891 -1.62849e-20)
(0.965017 -0.267922 7.96818e-21)
(0.96514 -0.268014 1.4863e-20)
(0.965292 -0.268116 -3.18566e-20)
(0.965436 -0.268154 2.67334e-20)
(0.965573 -0.268106 -1.77709e-20)
(0.965707 -0.268003 1.50279e-20)
(0.965844 -0.267899 2.36567e-20)
(0.965984 -0.267838 -5.65129e-20)
(0.966123 -0.267832 8.02727e-20)
(0.966254 -0.267863 3.16786e-20)
(0.966367 -0.267903 -1.30942e-19)
(0.966459 -0.267923 -2.2216e-20)
(0.966528 -0.267906 6.66705e-20)
(0.966578 -0.267847 4.017e-20)
(0.966616 -0.267752 -4.91409e-20)
(0.966651 -0.267632 4.01212e-20)
(0.96669 -0.267501 5.91014e-20)
(0.966743 -0.267373 -3.14924e-20)
(0.966813 -0.267255 -1.71853e-20)
(0.966903 -0.267154 5.34414e-20)
(0.967014 -0.267071 1.01798e-19)
(0.967143 -0.267006 -7.9986e-20)
(0.967288 -0.266956 -7.79513e-20)
(0.967445 -0.266917 7.99659e-20)
(0.96761 -0.266886 -6.15135e-20)
(0.967783 -0.266859 -1.85242e-20)
(0.96796 -0.266831 1.69801e-19)
(0.968141 -0.266798 -7.06097e-20)
(0.968328 -0.266752 -4.06033e-20)
(0.96852 -0.266688 5.87922e-20)
(0.968723 -0.266605 3.34123e-20)
(0.968939 -0.266509 -2.78478e-20)
(0.969176 -0.266398 -1.42518e-20)
(0.969439 -0.266265 2.76434e-20)
(0.969736 -0.266096 -4.30347e-21)
(0.970074 -0.265881 6.8642e-21)
(0.970463 -0.265612 1.4432e-20)
(0.97091 -0.265283 3.03416e-20)
(0.971427 -0.264886 -1.25108e-19)
(0.97202 -0.26441 -1.57493e-19)
(0.972699 -0.263842 -3.71605e-19)
(0.973468 -0.263169 3.49474e-19)
(0.97433 -0.262374 4.66329e-19)
(0.975285 -0.261432 4.46168e-19)
(0.976328 -0.260316 -1.18254e-18)
(0.977445 -0.25898 -1.23582e-18)
(0.97862 -0.25737 1.57506e-18)
(0.979821 -0.255407 2.30846e-18)
(0.981006 -0.253001 7.31098e-19)
(0.982114 -0.250048 -4.75373e-19)
(0.98306 -0.246463 -2.10887e-19)
(0.98375 -0.242187 2.07265e-18)
(0.984011 -0.237192 -1.50454e-18)
(0.983808 -0.231602 -1.1094e-18)
(0.982553 -0.22592 -1.52951e-18)
(0.98013 -0.223647 3.98928e-19)
(0.983618 -0.220306 2.26835e-19)
(0.98287 -0.201663 5.01954e-19)
(0.96407 -0.271292 -6.4033e-21)
(0.964017 -0.271368 -5.16575e-21)
(0.964175 -0.271349 7.00321e-21)
(0.96444 -0.271394 2.48863e-20)
(0.964725 -0.271468 -5.36723e-20)
(0.964997 -0.271501 6.14535e-20)
(0.965254 -0.271461 -2.86998e-21)
(0.965504 -0.27137 -3.96878e-21)
(0.965752 -0.271276 -2.18416e-20)
(0.966003 -0.271221 5.21929e-20)
(0.966256 -0.271217 -7.99599e-20)
(0.966504 -0.27125 2.98767e-20)
(0.96674 -0.271293 -9.04238e-22)
(0.966953 -0.271314 4.36371e-20)
(0.967134 -0.271291 1.91159e-20)
(0.96728 -0.271214 -1.06352e-19)
(0.967392 -0.271082 9.03518e-20)
(0.967476 -0.270903 3.27797e-20)
(0.967541 -0.270689 -9.40955e-20)
(0.967598 -0.270455 4.59744e-20)
(0.967657 -0.270212 1.87129e-20)
(0.967727 -0.269971 -1.4378e-20)
(0.967814 -0.269741 1.27319e-20)
(0.967923 -0.269524 -9.81878e-21)
(0.968052 -0.269326 -9.37494e-20)
(0.968202 -0.269144 5.60888e-20)
(0.96837 -0.26898 -7.85664e-20)
(0.968553 -0.268829 1.41313e-19)
(0.968749 -0.26869 -2.68995e-20)
(0.968954 -0.268558 -1.56688e-20)
(0.969168 -0.268425 -5.67373e-21)
(0.96939 -0.268285 9.16837e-20)
(0.969622 -0.268137 -4.26591e-20)
(0.969866 -0.267985 -2.70289e-20)
(0.970127 -0.267829 3.72173e-20)
(0.970411 -0.267659 2.22901e-20)
(0.970722 -0.267464 -2.99009e-20)
(0.971068 -0.267232 4.94433e-21)
(0.971456 -0.266954 -7.54463e-21)
(0.971896 -0.266625 -2.61896e-20)
(0.972398 -0.266236 -2.17073e-20)
(0.972972 -0.265775 8.98103e-20)
(0.973627 -0.265228 -1.29605e-19)
(0.974369 -0.264578 -5.06005e-19)
(0.975204 -0.263803 -2.72377e-19)
(0.976132 -0.262876 2.63636e-19)
(0.97715 -0.261764 9.94897e-19)
(0.978244 -0.260418 -3.49562e-20)
(0.979393 -0.258785 -4.89784e-19)
(0.980562 -0.256788 -1.41373e-18)
(0.981699 -0.254348 3.97345e-19)
(0.982735 -0.251375 1.87435e-18)
(0.983575 -0.24781 -1.6163e-18)
(0.984115 -0.243638 1.05541e-18)
(0.984193 -0.238881 -1.33668e-18)
(0.983803 -0.233717 -4.89204e-19)
(0.982424 -0.228656 -3.89031e-19)
(0.979796 -0.227116 1.68376e-18)
(0.983455 -0.223257 1.15473e-18)
(0.983469 -0.202651 1.33715e-18)
(0.963256 -0.274554 -3.28732e-21)
(0.963372 -0.274592 2.83481e-21)
(0.963641 -0.274533 1.43324e-20)
(0.963992 -0.274534 2.27241e-20)
(0.964351 -0.274569 -6.73233e-20)
(0.964692 -0.274578 3.87898e-20)
(0.965016 -0.274529 -6.92075e-20)
(0.96533 -0.274437 1.08327e-19)
(0.965643 -0.274347 -5.06986e-20)
(0.965959 -0.274299 8.85029e-21)
(0.966283 -0.274308 9.50299e-20)
(0.966612 -0.274361 -2.15162e-19)
(0.96694 -0.274432 1.44817e-19)
(0.967257 -0.27449 1.84235e-20)
(0.96755 -0.274509 2.96937e-20)
(0.96781 -0.274473 -1.28639e-19)
(0.968029 -0.274376 6.15632e-20)
(0.968207 -0.274218 -7.31187e-20)
(0.968345 -0.274007 1.39819e-19)
(0.968451 -0.273753 -2.32542e-20)
(0.968537 -0.273465 -1.66677e-19)
(0.968613 -0.273156 6.26869e-20)
(0.96869 -0.272835 -4.56195e-21)
(0.968778 -0.272511 -2.03501e-19)
(0.968884 -0.272193 1.57268e-19)
(0.969012 -0.271883 1.07925e-19)
(0.969163 -0.271588 6.60991e-20)
(0.969336 -0.271307 -8.10174e-20)
(0.969531 -0.271042 -7.50077e-20)
(0.969743 -0.270791 3.24082e-20)
(0.969971 -0.270548 5.0771e-20)
(0.970213 -0.270308 -4.80942e-20)
(0.970468 -0.27007 -6.14989e-20)
(0.970738 -0.269836 1.28676e-19)
(0.971026 -0.269608 1.44443e-21)
(0.971333 -0.269377 -1.18736e-19)
(0.971664 -0.269132 2.96314e-21)
(0.972024 -0.26886 4.88986e-20)
(0.972419 -0.268554 1.53049e-20)
(0.972857 -0.268205 1.71718e-21)
(0.973348 -0.267807 6.30305e-20)
(0.973901 -0.267346 -2.6217e-21)
(0.974524 -0.266807 1.12613e-19)
(0.975227 -0.266171 3.38138e-20)
(0.976013 -0.265415 -2.67274e-19)
(0.976886 -0.264509 -7.65617e-19)
(0.977843 -0.263416 -3.05551e-19)
(0.97887 -0.262087 8.22666e-19)
(0.979947 -0.260468 -5.31544e-19)
(0.981037 -0.258486 -2.40089e-18)
(0.982088 -0.256068 1.99663e-18)
(0.983031 -0.253131 -2.39403e-18)
(0.98377 -0.249631 1.56315e-18)
(0.984211 -0.245567 2.14656e-19)
(0.984212 -0.240972 2.45976e-18)
(0.983815 -0.236009 -1.16683e-20)
(0.982547 -0.231123 -7.7015e-20)
(0.980003 -0.229615 -1.66688e-18)
(0.983899 -0.224991 2.91451e-18)
(0.984438 -0.20285 8.07811e-19)
(0.962889 -0.277391 4.82285e-21)
(0.963118 -0.277393 1.7157e-21)
(0.963437 -0.277308 -1.76398e-20)
(0.963818 -0.277273 1.68584e-20)
(0.9642 -0.277275 -7.49161e-21)
(0.964561 -0.27726 1.33734e-20)
(0.964904 -0.277197 4.55755e-21)
(0.965238 -0.277097 -6.68269e-20)
(0.965572 -0.277004 2.92122e-20)
(0.965913 -0.276958 -1.93933e-20)
(0.966266 -0.276975 1.22071e-20)
(0.966632 -0.277044 4.52652e-20)
(0.967008 -0.277141 -8.83588e-21)
(0.967388 -0.277238 2.62865e-20)
(0.967762 -0.277308 -1.1024e-19)
(0.968116 -0.277334 4.29343e-20)
(0.968441 -0.277305 1.75741e-20)
(0.968726 -0.277216 -4.73489e-20)
(0.968965 -0.277068 9.16232e-20)
(0.969159 -0.276866 2.71625e-20)
(0.969314 -0.276613 -4.99928e-21)
(0.969436 -0.276318 -3.22847e-20)
(0.969538 -0.27599 1.12127e-19)
(0.969632 -0.275634 -2.94313e-19)
(0.969729 -0.275262 1.55957e-19)
(0.969838 -0.27488 6.14682e-20)
(0.969967 -0.274498 -8.86185e-20)
(0.970119 -0.27412 1.49001e-19)
(0.970297 -0.273751 -7.35568e-20)
(0.970499 -0.273394 -3.14378e-20)
(0.970724 -0.273045 -4.61586e-20)
(0.97097 -0.272703 -2.05132e-20)
(0.971237 -0.272367 5.23608e-20)
(0.971524 -0.272042 -1.29884e-19)
(0.971833 -0.271729 2.2952e-19)
(0.972163 -0.271421 -2.44379e-20)
(0.972517 -0.271108 6.69884e-20)
(0.972898 -0.270778 -1.63193e-19)
(0.973309 -0.270422 -2.12231e-20)
(0.973757 -0.270032 3.09649e-20)
(0.974251 -0.269601 -2.98973e-20)
(0.974798 -0.269116 -1.36128e-20)
(0.975407 -0.26856 1.17787e-20)
(0.976084 -0.267914 8.73463e-20)
(0.976835 -0.267152 -2.381e-20)
(0.977664 -0.266242 6.01247e-19)
(0.978567 -0.265148 -7.20947e-19)
(0.979533 -0.263817 -1.40756e-19)
(0.980543 -0.262195 1.83823e-19)
(0.981563 -0.260211 1.17567e-18)
(0.982544 -0.257795 -6.68361e-19)
(0.98342 -0.254867 1.13678e-18)
(0.984102 -0.251383 -1.08443e-18)
(0.98451 -0.247342 -7.52207e-19)
(0.984527 -0.242768 -8.75814e-19)
(0.98423 -0.237792 4.06536e-19)
(0.983154 -0.232812 -2.87513e-18)
(0.980742 -0.231114 -1.42132e-18)
(0.984817 -0.225881 -9.82816e-18)
(0.985566 -0.202639 -1.31567e-18)
(0.962856 -0.279781 -1.1276e-21)
(0.963135 -0.279764 -4.44265e-21)
(0.963458 -0.27967 -3.8892e-21)
(0.963832 -0.279615 3.74991e-20)
(0.964205 -0.279595 -2.08588e-20)
(0.964556 -0.279562 -2.50627e-20)
(0.964891 -0.279485 -9.33874e-21)
(0.965218 -0.279376 -3.84393e-20)
(0.965548 -0.279276 2.43965e-20)
(0.965888 -0.279226 3.78192e-21)
(0.966242 -0.279243 1.68827e-21)
(0.966615 -0.279318 1.00341e-19)
(0.967006 -0.279431 -7.07845e-20)
(0.967412 -0.279553 -8.16211e-21)
(0.967826 -0.279661 7.74915e-20)
(0.968239 -0.279738 -4.2847e-20)
(0.96864 -0.279774 -1.6039e-20)
(0.969016 -0.279761 2.50192e-20)
(0.969357 -0.279696 7.76956e-20)
(0.969653 -0.279578 3.87826e-20)
(0.969903 -0.279407 1.00109e-20)
(0.970107 -0.279183 -1.01937e-19)
(0.970272 -0.278912 4.85059e-20)
(0.970408 -0.278595 8.3009e-20)
(0.970527 -0.278242 -1.78998e-19)
(0.970642 -0.277858 5.20276e-20)
(0.970763 -0.277452 -2.02996e-19)
(0.9709 -0.277033 1.59212e-19)
(0.971058 -0.276607 1.23563e-19)
(0.971243 -0.276181 -1.83624e-19)
(0.971454 -0.275756 -8.9511e-20)
(0.971693 -0.275333 1.01502e-19)
(0.971959 -0.274914 3.33656e-20)
(0.972252 -0.274505 -6.37388e-20)
(0.972573 -0.274111 -8.85125e-20)
(0.972921 -0.273724 -8.97294e-20)
(0.973295 -0.273337 5.66536e-20)
(0.973699 -0.272938 1.03379e-19)
(0.974134 -0.272518 3.6244e-20)
(0.974604 -0.272071 2.02952e-21)
(0.975116 -0.271588 1.38644e-19)
(0.975677 -0.271055 -5.39152e-20)
(0.976292 -0.270456 1.15123e-21)
(0.976968 -0.26977 6.23916e-20)
(0.977712 -0.26897 8.12823e-20)
(0.978523 -0.268024 -3.87072e-20)
(0.979402 -0.266891 2.36479e-19)
(0.980337 -0.26552 1.6439e-19)
(0.981313 -0.263855 5.17788e-19)
(0.982295 -0.261826 -4.02431e-19)
(0.983243 -0.259363 -4.52945e-19)
(0.984092 -0.256384 -1.41758e-20)
(0.984765 -0.252842 6.01752e-19)
(0.985194 -0.248731 -2.64273e-20)
(0.985277 -0.24406 2.07894e-19)
(0.985115 -0.238943 1.51031e-18)
(0.984222 -0.233762 2.81948e-18)
(0.981908 -0.231838 3.00754e-18)
(0.986095 -0.226167 1.07336e-17)
(0.986721 -0.202186 -5.45883e-18)
(0.963005 -0.281788 1.52783e-21)
(0.963286 -0.28176 -4.58683e-21)
(0.963588 -0.281664 1.64684e-20)
(0.963937 -0.281599 4.31176e-21)
(0.964286 -0.281566 -2.26899e-20)
(0.964615 -0.281523 -2.61205e-20)
(0.964929 -0.281439 6.19051e-20)
(0.965239 -0.281324 -6.74723e-20)
(0.965554 -0.28122 -1.62394e-20)
(0.96588 -0.281166 4.1628e-20)
(0.966224 -0.28118 3.7917e-20)
(0.966588 -0.281255 1.13268e-19)
(0.966974 -0.281372 -6.50762e-20)
(0.967382 -0.281505 -1.07722e-19)
(0.967807 -0.281633 2.3797e-20)
(0.968245 -0.281742 -8.35509e-20)
(0.968687 -0.281822 6.40729e-20)
(0.969124 -0.281866 -1.01381e-19)
(0.969542 -0.281873 1.9293e-20)
(0.969929 -0.281838 -2.94621e-20)
(0.970276 -0.281756 -1.60352e-20)
(0.970577 -0.281627 -7.76657e-20)
(0.970831 -0.281447 1.3303e-20)
(0.971043 -0.281213 1.70867e-19)
(0.971219 -0.28093 -5.71802e-20)
(0.971371 -0.280601 1.85431e-20)
(0.971513 -0.280231 5.02196e-20)
(0.971655 -0.279829 -5.38633e-20)
(0.971809 -0.279401 -1.19652e-20)
(0.971983 -0.278957 6.87708e-20)
(0.972182 -0.278499 6.86174e-20)
(0.97241 -0.278032 -4.38889e-20)
(0.972669 -0.277559 -1.4822e-19)
(0.972961 -0.27709 -2.06737e-19)
(0.973286 -0.27663 2.69656e-19)
(0.973645 -0.276176 7.92472e-20)
(0.974037 -0.275721 5.67435e-20)
(0.974463 -0.275254 2.06407e-19)
(0.974924 -0.274767 -1.34274e-19)
(0.975423 -0.274254 8.53034e-20)
(0.975964 -0.273707 4.17656e-20)
(0.976553 -0.27311 -3.76692e-20)
(0.977195 -0.272448 -1.10753e-20)
(0.977894 -0.271697 5.05096e-20)
(0.978656 -0.270832 -7.92427e-20)
(0.979481 -0.269817 4.25532e-20)
(0.980367 -0.268611 4.82732e-20)
(0.981306 -0.267161 -2.25483e-19)
(0.982281 -0.265412 -1.98177e-19)
(0.983263 -0.263292 1.90108e-19)
(0.984214 -0.260732 4.13995e-19)
(0.985076 -0.257648 3.69059e-19)
(0.985775 -0.253986 -2.99375e-19)
(0.986254 -0.249738 -5.42097e-19)
(0.986422 -0.244904 -4.87966e-20)
(0.986386 -0.239595 2.22716e-18)
(0.985625 -0.234205 -2.66307e-18)
(0.983335 -0.232126 -1.1441e-18)
(0.98756 -0.226206 -1.15541e-18)
(0.987863 -0.201685 4.33975e-18)
(0.963225 -0.283472 2.9831e-21)
(0.963483 -0.283449 -2.52145e-21)
(0.963754 -0.283363 2.32524e-21)
(0.964075 -0.2833 1.48947e-20)
(0.964397 -0.283262 2.16408e-20)
(0.964701 -0.283215 -8.45755e-20)
(0.964993 -0.283128 6.12193e-20)
(0.965282 -0.28301 1.26704e-20)
(0.965578 -0.282902 -3.99362e-21)
(0.965887 -0.282843 -2.75468e-20)
(0.966216 -0.282853 8.29906e-20)
(0.966566 -0.282925 -2.76591e-20)
(0.966939 -0.28304 -3.71842e-20)
(0.967336 -0.283175 -1.07747e-19)
(0.967755 -0.28331 2.1276e-19)
(0.968193 -0.283432 -4.52417e-20)
(0.968648 -0.283535 -3.64937e-20)
(0.969113 -0.283613 -1.03722e-19)
(0.969577 -0.283667 1.13448e-19)
(0.970028 -0.283693 5.98112e-20)
(0.970456 -0.283686 -3.00905e-20)
(0.970847 -0.283642 4.30083e-20)
(0.971196 -0.283556 -1.88286e-19)
(0.971499 -0.283419 1.64527e-20)
(0.971756 -0.283231 9.83672e-20)
(0.971976 -0.282989 -1.68637e-20)
(0.972169 -0.282696 -2.74482e-19)
(0.972345 -0.282356 3.15251e-20)
(0.972519 -0.281974 2.27196e-19)
(0.972701 -0.281559 -6.15264e-20)
(0.972901 -0.281113 -1.03565e-19)
(0.973126 -0.280643 6.62145e-20)
(0.973381 -0.280153 1.56768e-19)
(0.973671 -0.279656 3.34776e-19)
(0.974 -0.279157 -4.42658e-20)
(0.974367 -0.278656 6.98849e-20)
(0.974773 -0.278148 -4.18118e-19)
(0.97522 -0.277624 -7.65888e-20)
(0.975707 -0.277077 5.29759e-20)
(0.976237 -0.2765 -2.25742e-19)
(0.976815 -0.275885 -1.35418e-20)
(0.977442 -0.275218 7.08987e-20)
(0.978123 -0.274481 1.13505e-19)
(0.978862 -0.273651 1.76322e-19)
(0.979663 -0.272701 3.81996e-19)
(0.980525 -0.271594 -2.54694e-19)
(0.981445 -0.270289 4.00491e-19)
(0.982416 -0.268733 2.04754e-19)
(0.983421 -0.266868 -3.97854e-20)
(0.984432 -0.264623 4.04704e-19)
(0.985416 -0.261929 -4.78012e-19)
(0.986317 -0.2587 -8.65396e-19)
(0.987064 -0.25488 9.6466e-19)
(0.987606 -0.250457 1.21739e-18)
(0.987857 -0.245433 -8.75375e-19)
(0.987923 -0.239923 -5.92072e-18)
(0.987244 -0.234348 1.97503e-18)
(0.984928 -0.232161 -4.01152e-18)
(0.989153 -0.22606 -6.19537e-18)
(0.988956 -0.201138 4.1449e-18)
(0.963447 -0.28492 -3.35891e-21)
(0.963671 -0.284897 3.68222e-21)
(0.963912 -0.284817 2.51612e-20)
(0.964207 -0.284754 -3.28951e-20)
(0.964506 -0.284714 5.97962e-20)
(0.964789 -0.284665 -8.79052e-20)
(0.96506 -0.284578 2.49269e-20)
(0.965331 -0.284461 -1.14046e-21)
(0.965609 -0.284353 5.49152e-20)
(0.965903 -0.284293 -2.90812e-20)
(0.966215 -0.284301 8.43847e-21)
(0.96655 -0.284371 8.29786e-21)
(0.966908 -0.284483 -1.32269e-19)
(0.967289 -0.284616 4.0492e-20)
(0.967694 -0.28475 8.95763e-20)
(0.968121 -0.284876 2.13273e-21)
(0.96857 -0.284987 -1.43506e-19)
(0.969039 -0.285081 5.97721e-20)
(0.969521 -0.28516 2.62121e-19)
(0.970007 -0.285224 -1.72375e-19)
(0.970487 -0.285268 -1.25574e-19)
(0.970948 -0.285288 1.03919e-19)
(0.971379 -0.285279 6.46547e-20)
(0.971772 -0.285229 6.71371e-20)
(0.97212 -0.285135 -1.32728e-19)
(0.972425 -0.284991 -2.67858e-19)
(0.972692 -0.284791 2.03751e-19)
(0.972929 -0.284539 2.6466e-19)
(0.973149 -0.284234 6.75518e-20)
(0.973364 -0.283883 -1.47607e-19)
(0.973586 -0.283486 5.81983e-20)
(0.973823 -0.28305 1.0124e-19)
(0.974087 -0.282579 -1.59834e-19)
(0.974383 -0.282086 -1.99312e-20)
(0.974719 -0.281578 -2.42546e-19)
(0.975096 -0.281056 -4.19726e-20)
(0.975517 -0.280517 -6.18832e-20)
(0.975985 -0.279953 1.24732e-19)
(0.976499 -0.279358 -1.87494e-19)
(0.977062 -0.278726 3.23173e-20)
(0.977678 -0.278049 8.47173e-20)
(0.978349 -0.277312 2.54162e-20)
(0.979077 -0.276498 -3.08284e-19)
(0.979866 -0.275583 -4.07995e-19)
(0.980718 -0.274539 -2.51206e-19)
(0.981632 -0.273329 5.99571e-19)
(0.982605 -0.271911 2.10484e-19)
(0.983626 -0.270231 -1.67379e-19)
(0.984681 -0.268232 1.25236e-19)
(0.985743 -0.265843 -7.48255e-19)
(0.986778 -0.262995 3.76224e-19)
(0.987734 -0.259602 1.39643e-18)
(0.98854 -0.255605 1.01961e-19)
(0.989148 -0.250996 -2.1195e-18)
(0.98947 -0.245779 1.22185e-18)
(0.989612 -0.240084 1.61389e-18)
(0.988971 -0.23436 3.29106e-18)
(0.98658 -0.232129 1.18552e-17)
(0.990766 -0.225927 1.25018e-17)
(0.990011 -0.200635 -9.59643e-18)
(0.963628 -0.286171 -2.97054e-21)
(0.963818 -0.286153 4.29205e-21)
(0.964034 -0.286082 9.00662e-22)
(0.96431 -0.286019 1.63646e-20)
(0.964591 -0.285978 -2.48381e-20)
(0.964857 -0.285928 -5.07968e-20)
(0.965113 -0.285839 1.82923e-20)
(0.965369 -0.285721 -2.39709e-20)
(0.965634 -0.285612 5.25039e-20)
(0.965914 -0.285552 -1.03874e-20)
(0.966213 -0.28556 -3.39197e-20)
(0.966534 -0.285629 2.83371e-20)
(0.966878 -0.285741 4.47616e-20)
(0.967245 -0.285872 1.20933e-19)
(0.967634 -0.286005 -2.19363e-19)
(0.968045 -0.28613 1.10124e-19)
(0.96848 -0.286242 1.51398e-20)
(0.968939 -0.286341 -1.04682e-19)
(0.969419 -0.28643 -6.2603e-20)
(0.969916 -0.286511 2.04659e-19)
(0.970422 -0.286583 -2.09299e-19)
(0.970927 -0.286644 6.35861e-20)
(0.971419 -0.286688 -1.55755e-19)
(0.971886 -0.286705 2.63081e-19)
(0.972318 -0.286689 -5.27944e-20)
(0.97271 -0.286631 -1.36501e-19)
(0.973062 -0.286525 1.12645e-19)
(0.973377 -0.286365 1.94622e-19)
(0.973665 -0.28615 -1.71678e-19)
(0.973935 -0.285882 9.85458e-20)
(0.9742 -0.285558 -3.22721e-19)
(0.974471 -0.285183 -2.54306e-20)
(0.97476 -0.284759 1.22558e-19)
(0.975077 -0.284298 -7.31167e-20)
(0.975429 -0.283809 -1.44057e-19)
(0.975824 -0.283291 -2.97303e-19)
(0.976265 -0.282744 3.58524e-19)
(0.976756 -0.28216 -1.58305e-19)
(0.977299 -0.281534 9.23896e-20)
(0.977896 -0.280862 2.08775e-19)
(0.978552 -0.280133 1.81786e-19)
(0.979269 -0.279334 -7.76055e-20)
(0.980048 -0.278448 2.37755e-19)