/*--------------------------------*- C++ -*----------------------------------*\
  =========                 |
  \\      /  F ield         | OpenFOAM: The Open Source CFD Toolbox
   \\    /   O peration     | Website:  https://openfoam.org
    \\  /    A nd           | Version:  6.0
     \\/     M anipulation  |
\*---------------------------------------------------------------------------*/
FoamFile
{
    version     2.0;
    format      ascii;
    class       surfaceScalarField;
    location    "19";
    object      phi;
}
// * * * * * * * * * * * * * * * * * * * * * * * * * * * * * * * * * * * * * //

dimensions      [0 3 -1 0 0 0 0];

internalField   nonuniform List<scalar> 
123526
(
3.8059e-07
2.34149e-05
1.39078e-08
8.07096e-07
2.53158e-05
1.26762e-06
2.73708e-05
1.76619e-06
2.95927e-05
2.30453e-06
3.19947e-05
2.88744e-06
3.45915e-05
3.51696e-06
3.73989e-05
4.1987e-06
4.04339e-05
4.93589e-06
4.3714e-05
5.73491e-06
4.72601e-05
6.5979e-06
5.10941e-05
7.53239e-06
5.52386e-05
8.54182e-06
5.97185e-05
9.63724e-06
6.45583e-05
1.08239e-05
6.97884e-05
1.21087e-05
7.54441e-05
1.3497e-05
8.1556e-05
1.50063e-05
8.8154e-05
1.66412e-05
9.52854e-05
1.84107e-05
0.000102994
2.03307e-05
0.000111312
2.2415e-05
0.000120297
2.46679e-05
0.000130005
2.71197e-05
0.000140471
2.97721e-05
0.000151777
3.26495e-05
0.00016397
3.57694e-05
0.000177117
3.91479e-05
0.000191294
4.28128e-05
0.000206559
4.67784e-05
0.000223005
5.1077e-05
0.000240688
5.57262e-05
0.000259706
6.07571e-05
0.000280121
6.61965e-05
0.000302019
7.20716e-05
0.000325474
7.84224e-05
0.000350539
8.52707e-05
0.000377291
9.26529e-05
0.000405756
0.000100605
0.000435955
0.000109154
0.000467889
0.000118333
0.0005015
0.000128174
0.000536688
0.000138704
0.000573286
0.000149942
0.000611037
0.000161905
0.000649566
0.0001746
0.000688355
0.000188019
0.000726701
0.000202141
0.00076367
0.000216921
0.000798039
0.000232285
0.000828233
0.000248121
0.000852251
0.000264273
0.00086758
0.000280511
0.00087112
0.000296553
0.000859028
0.000312012
0.000826663
0.000326409
0.000768445
0.000339137
0.000677783
0.00034952
0.000547115
0.000356576
0.000367212
0.000129701
0.000355131
3.75773e-07
2.30267e-05
1.35991e-08
7.96301e-07
2.48961e-05
1.25019e-06
2.69172e-05
1.74156e-06
2.91022e-05
2.27197e-06
3.14644e-05
2.84627e-06
3.40181e-05
3.46634e-06
3.67789e-05
4.13779e-06
3.97633e-05
4.86379e-06
4.29879e-05
5.65053e-06
4.64742e-05
6.50025e-06
5.02442e-05
7.42016e-06
5.43195e-05
8.41387e-06
5.87245e-05
9.49193e-06
6.3481e-05
1.06599e-05
6.86203e-05
1.1924e-05
7.41808e-05
1.32901e-05
8.01897e-05
1.47748e-05
8.667e-05
1.63831e-05
9.36769e-05
1.81233e-05
0.000101254
2.00116e-05
0.000109424
2.2061e-05
0.000118248
2.42762e-05
0.00012779
2.66862e-05
0.000138061
2.92936e-05
0.00014917
3.21212e-05
0.000161143
3.51874e-05
0.000174051
3.85066e-05
0.000187975
4.21074e-05
0.000202958
4.60024e-05
0.00021911
5.02245e-05
0.000236467
5.47901e-05
0.00025514
5.97298e-05
0.000275181
6.50702e-05
0.000296678
7.08376e-05
0.000319706
7.70711e-05
0.000344306
8.37923e-05
0.00037057
9.10367e-05
0.000398513
9.88394e-05
0.000428155
0.000107227
0.000459503
0.000116233
0.000492498
0.000125889
0.000527036
0.00013622
0.000562961
0.000147247
0.000600017
0.000158987
0.000637835
0.000171446
0.000675907
0.00018462
0.000713542
0.000198486
0.000749822
0.000213
0.000783547
0.00022809
0.000813172
0.000243645
0.000836732
0.000259513
0.00085176
0.000275462
0.000855206
0.000291219
0.000843304
0.000306399
0.000811499
0.000320537
0.000754328
0.000333027
0.000665323
0.000343234
0.00053695
0.000349873
0.000360611
0.000128415
0.000351242
3.73283e-07
2.26447e-05
9.76605e-09
7.87017e-07
2.44832e-05
1.23366e-06
2.64707e-05
1.71711e-06
2.86195e-05
2.23903e-06
3.09425e-05
2.80407e-06
3.34539e-05
3.41421e-06
3.61687e-05
4.0748e-06
3.91035e-05
4.78909e-06
4.22734e-05
5.56304e-06
4.57009e-05
6.39895e-06
4.94081e-05
7.30383e-06
5.34153e-05
8.28128e-06
5.77467e-05
9.34163e-06
6.24213e-05
1.04903e-05
6.74712e-05
1.17335e-05
7.29382e-05
1.30769e-05
7.8846e-05
1.45368e-05
8.52108e-05
1.61182e-05
9.20953e-05
1.78291e-05
9.95437e-05
1.96854e-05
0.000107567
2.16999e-05
0.000116234
2.3877e-05
0.000125612
2.62454e-05
0.000135693
2.88076e-05
0.000146607
3.15856e-05
0.000158365
3.45978e-05
0.000171038
3.7858e-05
0.000184715
4.13945e-05
0.000199422
4.52194e-05
0.000215285
4.93651e-05
0.000232321
5.38473e-05
0.000250658
5.86966e-05
0.000270331
6.39383e-05
0.000291435
6.95989e-05
0.000314045
7.57164e-05
0.000338189
8.23123e-05
0.000363975
8.94215e-05
0.000391405
9.70785e-05
0.000420499
0.00010531
0.000451273
0.000114148
0.000483663
0.000123626
0.000517562
0.000133767
0.000552824
0.000144593
0.000589197
0.00015612
0.000626315
0.000168356
0.00066368
0.000181295
0.000700614
0.000194915
0.000736214
0.000209174
0.000769302
0.000223999
0.000798362
0.00023928
0.000821464
0.000254869
0.00083619
0.000270533
0.000839543
0.000286005
0.000827841
0.000300908
0.000796593
0.000314791
0.000740448
0.000327046
0.000653067
0.00033703
0.000526965
0.000343794
0.000353842
0.000126821
0.000345349
3.67337e-07
2.22697e-05
9.4731e-09
7.73899e-07
2.40777e-05
1.21264e-06
2.60324e-05
1.68758e-06
2.81456e-05
2.20021e-06
3.04301e-05
2.75523e-06
3.28998e-05
3.35449e-06
3.55696e-05
4.00336e-06
3.84555e-05
4.70497e-06
4.15718e-05
5.46523e-06
4.49415e-05
6.28639e-06
4.85869e-05
7.17528e-06
5.25272e-05
8.13556e-06
5.67863e-05
9.17718e-06
6.13805e-05
1.03057e-05
6.63425e-05
1.1527e-05
7.17177e-05
1.28468e-05
7.75261e-05
1.42809e-05
8.37774e-05
1.58344e-05
9.05417e-05
1.7515e-05
9.78638e-05
1.93385e-05
0.000105744
2.13172e-05
0.000114256
2.34557e-05
0.000123474
2.5782e-05
0.000133367
2.82985e-05
0.000144091
3.10269e-05
0.000155637
3.39851e-05
0.00016808
3.71867e-05
0.000181514
4.06595e-05
0.000195949
4.44153e-05
0.00021153
4.84859e-05
0.000228251
5.28869e-05
0.000246258
5.76477e-05
0.00026557
6.2794e-05
0.000286288
6.83511e-05
0.000308487
7.43569e-05
0.000332183
8.08323e-05
0.0003575
8.78116e-05
0.000384426
9.53291e-05
0.000412983
0.000103411
0.000443193
0.000112089
0.000474986
0.000121396
0.000508258
0.000131355
0.000542868
0.000141988
0.000578567
0.00015331
0.000614996
0.000165329
0.000651665
0.00017804
0.000687908
0.000191421
0.000722839
0.00020543
0.000755302
0.000219994
0.000783809
0.000235004
0.000806469
0.000250314
0.000820906
0.000265695
0.000824178
0.000280884
0.000812667
0.000295511
0.000781973
0.000309137
0.000726836
0.000321165
0.000641062
0.00033093
0.000517234
0.000337534
0.000347268
0.000125214
0.000339207
3.57731e-07
2.19013e-05
1.16659e-08
7.56645e-07
2.36795e-05
1.18738e-06
2.56019e-05
1.65354e-06
2.76802e-05
2.15685e-06
2.99269e-05
2.7017e-06
3.23557e-05
3.29009e-06
3.49812e-05
3.9271e-06
3.78192e-05
4.61593e-06
4.08829e-05
5.36228e-06
4.41958e-05
6.16841e-06
4.77804e-05
7.04107e-06
5.16552e-05
7.98377e-06
5.58432e-05
9.00643e-06
6.03584e-05
1.01143e-05
6.52342e-05
1.13134e-05
7.05191e-05
1.26092e-05
7.623e-05
1.40174e-05
8.23698e-05
1.55427e-05
8.90161e-05
1.7193e-05
9.62141e-05
1.89835e-05
0.000103953
2.09265e-05
0.000112314
2.30265e-05
0.000121373
2.53108e-05
0.000131084
2.7782e-05
0.000141619
3.04613e-05
0.000152958
3.33662e-05
0.000165175
3.65102e-05
0.00017837
3.99204e-05
0.000192539
4.36086e-05
0.000207842
4.76059e-05
0.000224254
5.19274e-05
0.000241936
5.66027e-05
0.000260894
6.16561e-05
0.000281233
6.71132e-05
0.00030303
7.30108e-05
0.000326286
7.93696e-05
0.000351142
8.62234e-05
0.000377573
9.36059e-05
0.000405601
0.000101543
0.000435257
0.000110066
0.000466465
0.000119207
0.000499119
0.000128989
0.000533089
0.000139433
0.000568126
0.000150555
0.000603879
0.000162362
0.000639863
0.00017485
0.000675427
0.000187995
0.0007097
0.000201757
0.000741549
0.000216063
0.000769512
0.000230805
0.000791732
0.00024584
0.000805883
0.00026094
0.000809073
0.00027585
0.000797761
0.000290205
0.000767611
0.000303577
0.000713464
0.000315385
0.000629251
0.000324944
0.00050767
0.000331399
0.000340802
0.000123197
0.000333368
3.47777e-07
2.154e-05
1.56452e-08
7.39617e-07
2.32889e-05
1.16245e-06
2.51796e-05
1.62014e-06
2.72236e-05
2.11412e-06
2.94333e-05
2.64893e-06
3.1822e-05
3.22634e-06
3.4404e-05
3.85155e-06
3.7195e-05
4.52758e-06
4.02069e-05
5.26013e-06
4.34641e-05
6.05138e-06
4.69892e-05
6.90793e-06
5.07994e-05
7.8333e-06
5.49178e-05
8.83711e-06
5.93553e-05
9.92473e-06
6.41465e-05
1.11018e-05
6.93428e-05
1.23739e-05
7.49578e-05
1.37562e-05
8.09881e-05
1.52537e-05
8.75184e-05
1.68739e-05
9.45945e-05
1.86319e-05
0.000102195
2.05396e-05
0.000110407
2.26015e-05
0.000119311
2.48445e-05
0.000128841
2.72709e-05
0.000139193
2.99019e-05
0.000150327
3.27545e-05
0.000162322
3.58419e-05
0.000175282
3.91908e-05
0.00018919
4.28127e-05
0.00020422
4.67382e-05
0.000220329
5.09824e-05
0.000237692
5.55736e-05
0.000256302
6.05367e-05
0.000276269
6.5896e-05
0.00029767
7.16881e-05
0.000320494
7.79332e-05
0.000344897
8.46646e-05
0.000370842
9.19152e-05
0.000398352
9.97109e-05
0.000427462
0.000108082
0.000458095
0.00011706
0.000490143
0.000126669
0.000523482
0.000136928
0.000557869
0.000147854
0.000592955
0.000159452
0.000628266
0.00017172
0.000663162
0.000184633
0.000696789
0.000198151
0.000728035
0.000212202
0.000755466
0.000226681
0.000777263
0.000241444
0.000791139
0.000256269
0.000794258
0.000270904
0.000783135
0.000284993
0.000753525
0.000298117
0.00070035
0.000309711
0.000617676
0.000319083
0.000498327
0.000325415
0.000334496
0.000121068
0.000327601
3.37609e-07
2.11852e-05
1.87341e-08
7.22151e-07
2.29053e-05
1.13725e-06
2.47649e-05
1.58652e-06
2.67753e-05
2.07149e-06
2.89485e-05
2.59651e-06
3.12978e-05
3.16343e-06
3.38372e-05
3.77719e-06
3.6582e-05
4.44088e-06
3.95431e-05
5.15997e-06
4.27457e-05
5.93671e-06
4.62122e-05
6.77751e-06
4.99592e-05
7.68589e-06
5.40091e-05
8.6713e-06
5.83705e-05
9.73895e-06
6.30785e-05
1.08945e-05
6.81878e-05
1.21433e-05
7.37087e-05
1.35005e-05
7.96315e-05
1.49707e-05
8.6048e-05
1.65614e-05
9.30044e-05
1.82874e-05
0.000100469
2.01605e-05
0.000108534
2.21851e-05
0.000117287
2.43875e-05
0.000126639
2.67701e-05
0.00013681
2.93536e-05
0.000147744
3.21548e-05
0.000159521
3.51866e-05
0.000172251
3.84753e-05
0.000185901
4.20322e-05
0.000200663
4.58874e-05
0.000216474
5.00554e-05
0.000233524
5.45646e-05
0.000251792
5.94389e-05
0.000271394
6.47026e-05
0.000292405
7.03913e-05
0.000314805
7.6525e-05
0.000338764
8.31364e-05
0.000364232
9.02579e-05
0.000391231
9.79148e-05
0.000419806
0.000106137
0.000449874
0.000114956
0.000481326
0.000124394
0.000514046
0.000134471
0.000547794
0.000145204
0.000582226
0.000156597
0.000616877
0.000168648
0.000651117
0.000181332
0.000684111
0.000194609
0.000714764
0.000208409
0.000741673
0.000222628
0.00076305
0.000237122
0.000776655
0.000251677
0.000779699
0.000266043
0.00076877
0.000279873
0.000739687
0.000292753
0.000687467
0.00030414
0.000606284
0.000313341
0.00048912
0.000319545
0.000328276
0.00011884
0.000321718
3.27496e-07
2.08372e-05
2.31939e-08
7.05321e-07
2.2529e-05
1.11292e-06
2.4358e-05
1.55413e-06
2.63354e-05
2.03024e-06
2.84729e-05
2.54571e-06
3.07835e-05
3.1022e-06
3.3281e-05
3.70477e-06
3.59804e-05
4.3563e-06
3.88917e-05
5.0623e-06
4.20406e-05
5.82491e-06
4.54497e-05
6.65042e-06
4.91345e-05
7.54232e-06
5.31172e-05
8.50978e-06
5.74038e-05
9.55811e-06
6.20302e-05
1.06926e-05
6.70541e-05
1.19188e-05
7.24825e-05
1.32512e-05
7.82998e-05
1.46948e-05
8.46044e-05
1.62566e-05
9.14432e-05
1.79513e-05
9.87738e-05
1.97904e-05
0.000106695
2.17783e-05
0.000115299
2.39409e-05
0.000124477
2.62805e-05
0.00013447
2.88174e-05
0.000145207
3.15681e-05
0.00015677
3.45454e-05
0.000169273
3.7775e-05
0.000182671
4.1268e-05
0.00019717
4.50541e-05
0.000212688
4.91476e-05
0.000229431
5.35759e-05
0.000247363
5.83633e-05
0.000266606
6.3533e-05
0.000287235
6.91203e-05
0.000309218
7.51447e-05
0.00033274
8.16384e-05
0.000357738
8.86332e-05
0.000384237
9.61541e-05
0.000412286
0.00010423
0.000441799
0.000112893
0.000472665
0.000122163
0.000504777
0.000132062
0.000537896
0.000142604
0.000571685
0.000153795
0.000605687
0.00016563
0.000639283
0.000178088
0.000671654
0.000191127
0.000701727
0.000204678
0.000728125
0.000218638
0.000749096
0.000232869
0.000762439
0.000247157
0.000765418
0.000261258
0.000754674
0.000274834
0.000726111
0.000287478
0.000674831
0.000298661
0.000595119
0.000307702
0.000480105
0.000313785
0.000322216
0.000116808
0.000315867
3.16679e-07
2.04951e-05
2.69409e-08
6.87501e-07
2.21591e-05
1.0878e-06
2.39581e-05
1.52103e-06
2.5903e-05
1.98868e-06
2.80054e-05
2.49495e-06
3.02781e-05
3.04159e-06
3.27345e-05
3.6334e-06
3.53894e-05
4.27331e-06
3.82517e-05
4.96665e-06
4.13479e-05
5.71553e-06
4.47006e-05
6.52618e-06
4.83244e-05
7.40197e-06
5.22411e-05
8.352e-06
5.64542e-05
9.38133e-06
6.10005e-05
1.04954e-05
6.59405e-05
1.16994e-05
7.12783e-05
1.30078e-05
7.69919e-05
1.44253e-05
8.31868e-05
1.59589e-05
8.99102e-05
1.7623e-05
9.71095e-05
1.9429e-05
0.00010489
2.1381e-05
0.000113346
2.35046e-05
0.000122354
2.5802e-05
0.000132173
2.82932e-05
0.000142716
3.09944e-05
0.000154069
3.39181e-05
0.00016635
3.70898e-05
0.0001795
4.05201e-05
0.00019374
4.42383e-05
0.000208971
4.82583e-05
0.000225411
5.26077e-05
0.000243014
5.73094e-05
0.000261903
6.23868e-05
0.000282157
6.78745e-05
0.00030373
7.37916e-05
0.000326824
8.01697e-05
0.000351361
8.70401e-05
0.000377367
9.44273e-05
0.0004049
0.00010236
0.000433867
0.000110868
0.000464158
0.000119974
0.000495673
0.000129697
0.000528176
0.000140051
0.000561334
0.000151042
0.000594699
0.000162666
0.000627664
0.000174899
0.000659425
0.000187702
0.00068893
0.000201006
0.000714827
0.000214711
0.000735396
0.00022868
0.00074848
0.000242706
0.000751389
0.000256548
0.000740831
0.000269876
0.000712775
0.000282289
0.000662414
0.000293271
0.00058413
0.000302159
0.000471209
0.000308143
0.000316212
0.00011469
0.000310203
3.07501e-07
2.01593e-05
3.07716e-08
6.71926e-07
2.17961e-05
1.0651e-06
2.35657e-05
1.49066e-06
2.54787e-05
1.94989e-06
2.75467e-05
2.44706e-06
2.9782e-05
2.98378e-06
3.2198e-05
3.56493e-06
3.48092e-05
4.19327e-06
3.76235e-05
4.87412e-06
4.06679e-05
5.60954e-06
4.39652e-05
6.4056e-06
4.75291e-05
7.26567e-06
5.1381e-05
8.19858e-06
5.55221e-05
9.20946e-06
5.99897e-05
1.03034e-05
6.48473e-05
1.14857e-05
7.00959e-05
1.27705e-05
7.57077e-05
1.41625e-05
8.17948e-05
1.56684e-05
8.84048e-05
1.73026e-05
9.54753e-05
1.9076e-05
0.000103117
2.09929e-05
0.000111429
2.30782e-05
0.000120269
2.53343e-05
0.000129916
2.77806e-05
0.00014027
3.04333e-05
0.000151416
3.33045e-05
0.000163478
3.64191e-05
0.000176385
3.9788e-05
0.000190371
4.34394e-05
0.00020532
4.73876e-05
0.000221463
5.1659e-05
0.000238741
5.62767e-05
0.000257285
6.12635e-05
0.00027717
6.66532e-05
0.000298341
7.24649e-05
0.000321012
7.87294e-05
0.000345097
8.54775e-05
0.00037062
9.27332e-05
0.000397645
0.000100525
0.000426077
0.000108882
0.000455802
0.000117825
0.00048673
0.000127375
0.000518627
0.000137544
0.000551166
0.000148338
0.000583905
0.000159752
0.000616251
0.000171764
0.000647413
0.000184333
0.000676361
0.000197393
0.000701768
0.000210847
0.000721948
0.000224559
0.00073478
0.000238327
0.000737627
0.000251914
0.000727246
0.000265
0.000699688
0.000277188
0.000650233
0.000287973
0.00057336
0.00029671
0.000462496
0.000302615
0.000310327
0.0001126
0.00030475
2.98623e-07
1.98294e-05
3.31795e-08
6.56431e-07
2.14394e-05
1.04259e-06
2.31801e-05
1.46052e-06
2.50618e-05
1.91159e-06
2.70959e-05
2.3999e-06
2.92946e-05
2.92713e-06
3.1671e-05
3.4979e-06
3.42392e-05
4.11507e-06
3.70064e-05
4.78372e-06
3.99999e-05
5.50596e-06
4.32428e-05
6.28772e-06
4.67479e-05
7.13235e-06
5.05362e-05
8.04851e-06
5.46064e-05
9.04119e-06
5.89967e-05
1.01155e-05
6.37734e-05
1.12766e-05
6.89346e-05
1.25384e-05
7.44465e-05
1.39054e-05
8.04277e-05
1.53843e-05
8.69264e-05
1.69891e-05
9.38704e-05
1.87307e-05
0.000101376
2.06132e-05
0.000109547
2.2661e-05
0.000118221
2.48766e-05
0.000127701
2.7279e-05
0.000137868
2.9884e-05
0.000148811
3.27037e-05
0.000160659
3.57625e-05
0.000173326
3.90709e-05
0.000187063
4.2657e-05
0.000201734
4.65343e-05
0.000217586
5.07294e-05
0.000234546
5.52644e-05
0.000252749
6.01621e-05
0.000272272
6.54556e-05
0.000293047
7.11635e-05
0.000315305
7.73163e-05
0.000338945
8.3944e-05
0.000363993
9.10704e-05
0.00039052
9.87231e-05
0.000418425
0.000106931
0.000447596
0.000115715
0.000477948
0.000125093
0.000509251
0.00013508
0.000541182
0.00014568
0.000573308
0.000156887
0.000605047
0.00016868
0.000635624
0.000181021
0.000664026
0.000193841
0.000688953
0.000207047
0.000708748
0.000220506
0.000721331
0.000234022
0.000724109
0.000247361
0.000713905
0.000260209
0.000686831
0.000272179
0.000638258
0.000282773
0.000562759
0.000291359
0.0004539
0.000297189
0.000304472
0.000110283
0.000299445
2.90673e-07
1.95057e-05
3.59933e-08
6.42292e-07
2.10894e-05
1.02157e-06
2.28016e-05
1.43209e-06
2.46527e-05
1.87505e-06
2.66535e-05
2.35459e-06
2.88163e-05
2.87227e-06
3.11537e-05
3.43278e-06
3.36797e-05
4.03882e-06
3.64006e-05
4.69548e-06
3.93442e-05
5.40482e-06
4.25337e-05
6.17259e-06
4.5981e-05
7.00216e-06
4.97067e-05
7.90191e-06
5.37074e-05
8.87691e-06
5.80218e-05
9.93195e-06
6.27191e-05
1.10723e-05
6.77943e-05
1.23114e-05
7.3208e-05
1.36539e-05
7.90853e-05
1.51063e-05
8.54746e-05
1.66824e-05
9.22944e-05
1.83926e-05
9.96663e-05
2.02414e-05
0.000107698
2.22525e-05
0.000116211
2.44283e-05
0.000125525
2.67876e-05
0.000135509
2.93459e-05
0.000146253
3.2115e-05
0.00015789
3.5119e-05
0.000170322
3.8368e-05
0.000183814
4.18898e-05
0.000198212
4.56978e-05
0.000213778
4.98176e-05
0.000230425
5.42716e-05
0.000248294
5.90816e-05
0.000267462
6.42804e-05
0.000287849
6.98862e-05
0.0003097
7.5929e-05
0.000332903
8.24383e-05
0.000357484
8.94373e-05
0.000383522
9.69533e-05
0.00041091
0.000105014
0.000439536
0.000113641
0.000469322
0.000122851
0.000500042
0.000132658
0.000531375
0.000143066
0.0005629
0.00015407
0.000594043
0.000165649
0.000624044
0.000177763
0.000651912
0.000190348
0.000676368
0.000203311
0.000695788
0.000216524
0.000708128
0.000229792
0.000710844
0.000242889
0.000700809
0.000255507
0.000674211
0.000267264
0.000626507
0.000277672
0.000552366
0.00028611
0.000445485
0.000291861
0.000298739
0.00010796
0.000294226
2.82171e-07
1.91873e-05
3.79158e-08
6.27307e-07
2.07452e-05
9.99813e-07
2.24296e-05
1.40295e-06
2.42505e-05
1.83808e-06
2.62187e-05
2.30913e-06
2.83461e-05
2.81772e-06
3.06453e-05
3.36832e-06
3.31299e-05
3.96366e-06
3.58052e-05
4.60867e-06
3.86998e-05
5.30536e-06
4.18368e-05
6.05947e-06
4.52273e-05
6.8742e-06
4.88917e-05
7.75793e-06
5.28241e-05
8.71544e-06
5.7064e-05
9.75171e-06
6.16833e-05
1.08717e-05
6.66741e-05
1.20887e-05
7.19915e-05
1.34072e-05
7.77667e-05
1.48336e-05
8.40487e-05
1.63815e-05
9.07464e-05
1.80612e-05
9.79871e-05
1.98768e-05
0.000105882
2.18519e-05
0.000114236
2.39888e-05
0.000123388
2.63058e-05
0.000133192
2.88182e-05
0.00014374
3.15376e-05
0.000155171
3.44877e-05
0.000167372
3.76785e-05
0.000180623
4.11372e-05
0.000194754
4.48767e-05
0.000210039
4.89229e-05
0.000226379
5.32969e-05
0.000243919
5.80207e-05
0.000262737
6.31263e-05
0.000282743
6.86318e-05
0.000304195
7.45663e-05
0.000326969
8.09589e-05
0.000351093
8.78324e-05
0.000376649
9.52135e-05
0.00040353
0.00010313
0.000431621
0.000111601
0.000460852
0.000120645
0.000490999
0.000130275
0.000521748
0.000140495
0.000552683
0.000151299
0.000583242
0.000162666
0.00061268
0.000174559
0.000640024
0.000186913
0.000664018
0.00019964
0.000683067
0.000212611
0.000695167
0.00022564
0.000697815
0.000238501
0.000687944
0.000250894
0.000661808
0.000262444
0.000614951
0.000272671
0.000542131
0.000280965
0.000437181
0.000286629
0.000293047
0.000105471
0.000289054
2.74681e-07
1.88748e-05
4.04085e-08
6.13853e-07
2.04075e-05
9.79787e-07
2.20645e-05
1.3758e-06
2.38557e-05
1.80317e-06
2.57918e-05
2.26579e-06
2.78845e-05
2.76523e-06
3.01462e-05
3.30596e-06
3.25901e-05
3.89063e-06
3.52207e-05
4.5241e-06
3.80672e-05
5.20837e-06
4.11527e-05
5.94901e-06
4.44875e-05
6.74923e-06
4.80916e-05
7.61716e-06
5.19569e-05
8.55763e-06
5.61236e-05
9.57532e-06
6.06663e-05
1.06753e-05
6.55742e-05
1.18705e-05
7.07969e-05
1.31654e-05
7.64718e-05
1.45662e-05
8.26484e-05
1.60864e-05
8.92263e-05
1.7736e-05
9.6338e-05
1.9519e-05
0.000104099
2.14587e-05
0.000112297
2.35573e-05
0.000121289
2.58327e-05
0.000130917
2.83001e-05
0.000141273
3.09708e-05
0.0001525
3.38679e-05
0.000164475
3.70014e-05
0.00017749
4.03979e-05
0.000191358
4.40705e-05
0.000206366
4.80437e-05
0.000222405
5.23393e-05
0.000239623
5.69783e-05
0.000258098
6.19922e-05
0.00027773
6.73987e-05
0.000298789
7.32266e-05
0.000321142
7.95043e-05
0.000344816
8.62541e-05
0.0003699
9.35023e-05
0.000396282
0.000101276
0.000423848
0.000109594
0.000452534
0.000118475
0.000482119
0.00012793
0.000512293
0.000137964
0.000542648
0.000148572
0.000572634
0.000159732
0.000601519
0.000171408
0.000628347
0.000183537
0.000651888
0.000196032
0.000670575
0.000208768
0.000682439
0.000221562
0.000685023
0.000234194
0.000675313
0.000246369
0.000649631
0.000257718
0.000603607
0.00026777
0.000532092
0.000275924
0.000429048
0.000281496
0.000287491
0.000103077
0.000283928
2.67064e-07
1.85678e-05
4.19915e-08
6.00098e-07
2.00756e-05
9.59515e-07
2.17057e-05
1.34845e-06
2.34678e-05
1.76825e-06
2.53724e-05
2.22265e-06
2.7431e-05
2.71329e-06
2.96558e-05
3.2444e-06
3.20598e-05
3.81871e-06
3.46465e-05
4.44087e-06
3.74456e-05
5.11293e-06
4.04805e-05
5.84032e-06
4.37606e-05
6.62622e-06
4.73055e-05
7.47863e-06
5.1105e-05
8.40223e-06
5.51998e-05
9.40175e-06
5.96673e-05
1.0482e-05
6.44938e-05
1.16559e-05
6.96236e-05
1.29276e-05
7.52e-05
1.43034e-05
8.12731e-05
1.57963e-05
8.77334e-05
1.74163e-05
9.47185e-05
1.91675e-05
0.000102348
2.10723e-05
0.000110392
2.31332e-05
0.000119228
2.53678e-05
0.000128683
2.77909e-05
0.00013885
3.04136e-05
0.000149877
3.32587e-05
0.00016163
3.63359e-05
0.000174413
3.96713e-05
0.000188023
4.32777e-05
0.00020276
4.71797e-05
0.000218503
5.13978e-05
0.000235404
5.59533e-05
0.000253543
6.08769e-05
0.000272806
6.6186e-05
0.00029348
7.19088e-05
0.00031542
7.80733e-05
0.000338652
8.47012e-05
0.000363273
9.18185e-05
0.000389166
9.94513e-05
0.000416217
0.000107619
0.000444368
0.000116339
0.000473401
0.000125622
0.000503012
0.000135474
0.000532799
0.000145888
0.000562223
0.000156845
0.000590565
0.000168309
0.000616888
0.000180217
0.000639983
0.000192486
0.000658312
0.000204994
0.000669941
0.00021756
0.000672456
0.000229969
0.0006629
0.000241931
0.000637659
0.000253084
0.000592447
0.000262966
0.000522202
0.000270986
0.000421017
0.000276462
0.000281985
0.000100617
0.000278858
2.60281e-07
1.82664e-05
4.38968e-08
5.87496e-07
1.97499e-05
9.40526e-07
2.13535e-05
1.32252e-06
2.30871e-05
1.73479e-06
2.49608e-05
2.181e-06
2.69859e-05
2.66278e-06
2.91745e-05
3.18432e-06
3.15392e-05
3.7483e-06
3.40828e-05
4.35929e-06
3.68355e-05
5.01936e-06
3.98207e-05
5.73372e-06
4.30471e-05
6.50561e-06
4.65338e-05
7.34274e-06
5.02686e-05
8.24989e-06
5.42929e-05
9.23145e-06
5.86864e-05
1.02924e-05
6.3433e-05
1.14452e-05
6.84715e-05
1.26941e-05
7.39512e-05
1.40451e-05
7.99226e-05
1.55112e-05
8.62673e-05
1.71022e-05
9.31281e-05
1.88218e-05
0.000100628
2.06924e-05
0.000108522
2.27163e-05
0.000117204
2.49107e-05
0.000126489
2.72902e-05
0.00013647
2.98656e-05
0.000147302
3.26595e-05
0.000158837
3.56813e-05
0.000171391
3.89566e-05
0.000184748
4.24981e-05
0.000199219
4.63295e-05
0.000214671
5.04717e-05
0.000231262
5.49449e-05
0.000249069
5.97796e-05
0.000267972
6.49928e-05
0.000288268
7.06122e-05
0.000309801
7.66652e-05
0.0003326
8.31732e-05
0.000356766
9.01614e-05
0.000382178
9.76558e-05
0.000408723
0.000105675
0.000436349
0.000114236
0.00046484
0.000123351
0.000493897
0.000133024
0.000523126
0.000143249
0.000551997
0.000154007
0.000579806
0.000165262
0.000605632
0.000176955
0.000628289
0.000189004
0.000646266
0.000201288
0.000657663
0.000213633
0.000660114
0.000225825
0.000650709
0.00023758
0.000625902
0.000248542
0.000581489
0.000258258
0.000512499
0.000266147
0.000413148
0.000271529
0.000276617
9.8318e-05
0.000273863
2.53227e-07
1.79702e-05
4.47624e-08
5.74375e-07
1.94297e-05
9.21046e-07
2.10074e-05
1.29614e-06
2.27129e-05
1.70107e-06
2.45562e-05
2.13933e-06
2.65485e-05
2.6126e-06
2.87014e-05
3.12487e-06
3.10276e-05
3.67883e-06
3.35289e-05
4.27893e-06
3.6236e-05
4.92715e-06
3.91724e-05
5.62875e-06
4.2346e-05
6.38676e-06
4.57756e-05
7.20892e-06
4.94469e-05
8.09971e-06
5.34019e-05
9.06373e-06
5.77228e-05
1.01056e-05
6.2391e-05
1.12377e-05
6.73399e-05
1.24642e-05
7.27247e-05
1.3791e-05
7.85963e-05
1.52308e-05
8.48276e-05
1.67931e-05
9.15662e-05
1.84818e-05
9.89396e-05
2.03187e-05
0.000106686
2.23061e-05
0.000115217
2.4461e-05
0.000124334
2.67975e-05
0.000134134
2.93265e-05
0.000144773
3.207e-05
0.000156093
3.50372e-05
0.000168424
3.82534e-05
0.000181532
4.17308e-05
0.000195742
4.54932e-05
0.000210909
4.95603e-05
0.000227194
5.39527e-05
0.000244677
5.87e-05
0.000263225
6.38188e-05
0.000283149
6.93364e-05
0.000304284
7.52797e-05
0.000326657
8.16696e-05
0.000350377
8.85311e-05
0.000375318
9.58893e-05
0.000401366
0.000103763
0.000428476
0.000112169
0.000456437
0.000121118
0.00048495
0.000130614
0.000513631
0.000140654
0.000541961
0.000151217
0.000569246
0.000162269
0.000594583
0.000173752
0.000616808
0.000185586
0.000634437
0.000197653
0.000645606
0.000209781
0.000647986
0.000221761
0.000638725
0.000233314
0.000614339
0.000244089
0.000570706
0.000253642
0.000502938
0.000261403
0.000405375
0.000266694
0.000271294
9.59903e-05
0.000268957
2.4727e-07
1.76795e-05
4.59732e-08
5.62797e-07
1.91155e-05
9.03314e-07
2.06677e-05
1.27171e-06
2.23456e-05
1.66937e-06
2.41592e-05
2.09972e-06
2.61192e-05
2.56442e-06
2.82371e-05
3.06743e-06
3.05255e-05
3.61139e-06
3.29852e-05
4.20066e-06
3.56475e-05
4.83725e-06
3.85361e-05
5.5262e-06
4.16578e-05
6.27062e-06
4.50314e-05
7.07794e-06
4.86403e-05
7.95276e-06
5.25272e-05
8.89935e-06
5.67769e-05
9.92247e-06
6.1368e-05
1.10341e-05
6.62289e-05
1.22384e-05
7.15205e-05
1.35413e-05
7.7294e-05
1.49551e-05
8.34139e-05
1.64892e-05
9.00327e-05
1.81474e-05
9.72814e-05
1.99511e-05
0.000104882
2.19026e-05
0.000113265
2.40186e-05
0.000122218
2.63129e-05
0.000131839
2.87962e-05
0.00014229
3.149e-05
0.0001534
3.44036e-05
0.000165511
3.75616e-05
0.000178375
4.09762e-05
0.000192327
4.46702e-05
0.000207214
4.86639e-05
0.0002232
5.29767e-05
0.000240364
5.76379e-05
0.000258564
6.2664e-05
0.000278124
6.80815e-05
0.000298867
7.3917e-05
0.000320823
8.0191e-05
0.000344103
8.69279e-05
0.000368582
9.41525e-05
0.000394142
0.000101883
0.000420746
0.000110136
0.000448184
0.000118923
0.000476163
0.000128247
0.000504306
0.000138105
0.000532102
0.000148477
0.000558872
0.000159331
0.000583729
0.000170609
0.000605528
0.000182234
0.000622815
0.000194088
0.000633757
0.000206005
0.000636071
0.000217777
0.000626952
0.000229132
0.000602981
0.000239724
0.000560117
0.000249117
0.000493557
0.000256752
0.000397757
0.000261955
0.000266104
9.38286e-05
0.000264148
2.41385e-07
1.73939e-05
4.61453e-08
5.5113e-07
1.88068e-05
8.85512e-07
2.0334e-05
1.24725e-06
2.19848e-05
1.63779e-06
2.37691e-05
2.06041e-06
2.56974e-05
2.51684e-06
2.77811e-05
3.0108e-06
3.00323e-05
3.54503e-06
3.24512e-05
4.12367e-06
3.50695e-05
4.74878e-06
3.79109e-05
5.42528e-06
4.09818e-05
6.15624e-06
4.43003e-05
6.94899e-06
4.7848e-05
7.80796e-06
5.16681e-05
8.7375e-06
5.58479e-05
9.74211e-06
6.03633e-05
1.08337e-05
6.51378e-05
1.20163e-05
7.03379e-05
1.32957e-05
7.60151e-05
1.46839e-05
8.20257e-05
1.61903e-05
8.85268e-05
1.78185e-05
9.56531e-05
1.95897e-05
0.000103112
2.15058e-05
0.000111349
2.35835e-05
0.000120141
2.58363e-05
0.000129587
2.82746e-05
0.000139852
3.09197e-05
0.000150755
3.37805e-05
0.00016265
3.68813e-05
0.000175274
4.02339e-05
0.000188975
4.38612e-05
0.000203587
4.77824e-05
0.000219278
5.2017e-05
0.000236129
5.65937e-05
0.000253988
6.15286e-05
0.00027319
6.68479e-05
0.000293549
7.25775e-05
0.000315094
7.87377e-05
0.000337944
8.53524e-05
0.000361968
9.24459e-05
0.00038705
0.000100036
0.000413157
0.00010814
0.000440082
0.000116767
0.000467537
0.000125923
0.000495152
0.000135604
0.000522424
0.00014579
0.000548688
0.00015645
0.000573072
0.000167528
0.000594453
0.000178947
0.000611402
0.000190594
0.000622119
0.000202304
0.000624361
0.000213873
0.000615377
0.000225034
0.00059181
0.000235447
0.000549696
0.000244681
0.000484314
0.000252191
0.000390235
0.000257308
0.000260953
9.16336e-05
0.000259438
2.3639e-07
1.71138e-05
4.64995e-08
5.40631e-07
1.85039e-05
8.69e-07
2.00066e-05
1.22419e-06
2.16308e-05
1.60765e-06
2.33863e-05
2.02256e-06
2.52835e-05
2.47064e-06
2.73335e-05
2.95561e-06
2.95483e-05
3.48013e-06
3.1927e-05
4.04827e-06
3.45022e-05
4.66211e-06
3.72974e-05
5.32637e-06
4.03183e-05
6.04418e-06
4.35828e-05
6.82257e-06
4.70703e-05
7.6661e-06
5.08248e-05
8.57877e-06
5.49359e-05
9.56527e-06
5.9377e-05
1.06371e-05
6.40666e-05
1.17982e-05
6.91768e-05
1.30544e-05
7.47596e-05
1.44175e-05
8.06627e-05
1.58965e-05
8.70482e-05
1.74953e-05
9.40544e-05
1.92344e-05
0.000101373
2.11158e-05
0.000109468
2.31558e-05
0.000118101
2.53678e-05
0.000127375
2.7762e-05
0.000137458
3.03591e-05
0.000148158
3.31681e-05
0.000159841
3.62126e-05
0.00017223
3.95046e-05
0.000185683
4.30659e-05
0.000200025
4.69162e-05
0.000215428
5.1074e-05
0.000231971
5.55678e-05
0.000249494
6.04133e-05
0.000268345
6.56362e-05
0.000288326
7.12619e-05
0.000309469
7.73105e-05
0.000331896
8.38054e-05
0.000355474
9.07706e-05
0.000380085
9.82239e-05
0.000405704
0.000106181
0.000432125
0.000114653
0.000459065
0.000123644
0.00048616
0.000133151
0.000512917
0.000143155
0.000538682
0.000153626
0.0005626
0.000164507
0.000583569
0.000175727
0.000600184
0.00018717
0.00061068
0.000198678
0.000612854
0.000210049
0.000604006
0.000221019
0.000580838
0.000231254
0.000539463
0.000240332
0.000475247
0.000247716
0.000382867
0.00025275
0.000255932
8.95875e-05
0.000254824
2.31018e-07
1.68384e-05
4.60061e-08
5.29545e-07
1.82062e-05
8.51926e-07
1.96848e-05
1.20063e-06
2.12829e-05
1.57719e-06
2.30102e-05
1.98464e-06
2.48768e-05
2.42472e-06
2.68937e-05
2.90098e-06
2.90726e-05
3.41608e-06
3.14121e-05
3.974e-06
3.39448e-05
4.57672e-06
3.66947e-05
5.22901e-06
3.96665e-05
5.93376e-06
4.28779e-05
6.69814e-06
4.63064e-05
7.52631e-06
4.99965e-05
8.42254e-06
5.40401e-05
9.39113e-06
5.84083e-05
1.04436e-05
6.30146e-05
1.15838e-05
6.80366e-05
1.28173e-05
7.35266e-05
1.41556e-05
7.93243e-05
1.5608e-05
8.55964e-05
1.71778e-05