/*--------------------------------*- C++ -*----------------------------------*\
  =========                 |
  \\      /  F ield         | OpenFOAM: The Open Source CFD Toolbox
   \\    /   O peration     | Website:  https://openfoam.org
    \\  /    A nd           | Version:  6.0
     \\/     M anipulation  |
\*---------------------------------------------------------------------------*/
FoamFile
{
    version     2.0;
    format      ascii;
    class       volScalarField;
    location    "19";
    object      p;
}
// * * * * * * * * * * * * * * * * * * * * * * * * * * * * * * * * * * * * * //

dimensions      [0 2 -2 0 0 0 0];

internalField   nonuniform List<scalar> 
248000
(
0.0185017
0.0185251
0.0185493
0.018574
0.0185995
0.0186256
0.0186525
0.0186801
0.0187085
0.0187378
0.0187681
0.0187992
0.0188314
0.0188645
0.0188988
0.0189342
0.0189709
0.0190088
0.0190481
0.0190887
0.0191308
0.0191744
0.0192196
0.0192665
0.0193151
0.0193655
0.0194179
0.0194722
0.0195287
0.0195872
0.0196481
0.0197111
0.0197767
0.0198445
0.0199151
0.019988
0.0200638
0.0201422
0.0202235
0.0203075
0.0203945
0.0204844
0.0205773
0.0206731
0.0207721
0.0208739
0.0209789
0.0210868
0.0211982
0.021313
0.0214318
0.0215541
0.0216801
0.0218095
0.0219422
0.0220777
0.0222161
0.0223565
0.0224989
0.0226425
0.0227869
0.0229314
0.0230753
0.0232177
0.0233579
0.023495
0.0236279
0.0237554
0.0238762
0.0239895
0.0240944
0.0241902
0.024276
0.0243511
0.0244151
0.0244678
0.0245094
0.0245403
0.0245615
0.0245741
0.0245796
0.0245799
0.0245767
0.024572
0.0245676
0.0245651
0.0245658
0.0245707
0.0245805
0.0245959
0.0246172
0.0246447
0.0246781
0.0247162
0.024756
0.0247918
0.0248148
0.0248115
0.0247658
0.0246587
0.0244736
0.0241962
0.0238232
0.0233577
0.0228189
0.0222279
0.0216157
0.0210063
0.0204152
0.0198469
0.0192919
0.018728
0.0181282
0.0174595
0.0167115
0.0158377
0.0149585
0.013738
0.0133613
0.0156451
0.0184696
0.018495
0.0185211
0.0185476
0.0185749
0.0186027
0.0186313
0.0186605
0.0186905
0.0187213
0.018753
0.0187855
0.018819
0.0188535
0.018889
0.0189256
0.0189634
0.0190023
0.0190427
0.0190842
0.0191273
0.0191718
0.0192178
0.0192654
0.0193148
0.0193658
0.0194187
0.0194735
0.0195303
0.0195891
0.0196502
0.0197134
0.019779
0.0198469
0.0199173
0.0199903
0.020066
0.0201443
0.0202254
0.0203093
0.0203962
0.020486
0.0205788
0.0206745
0.0207734
0.0208752
0.02098
0.0210879
0.0211992
0.0213143
0.0214336
0.0215567
0.0216837
0.0218144
0.0219486
0.0220861
0.0222265
0.0223696
0.0225149
0.0226619
0.0228102
0.0229592
0.0231082
0.0232564
0.0234031
0.0235475
0.0236886
0.0238251
0.023956
0.0240805
0.0241977
0.0243071
0.0244078
0.0244992
0.0245809
0.0246529
0.0247154
0.0247689
0.0248146
0.0248537
0.0248878
0.0249189
0.0249491
0.0249805
0.0250151
0.0250548
0.0251011
0.0251556
0.0252192
0.0252932
0.0253784
0.0254758
0.0255862
0.0257093
0.0258434
0.0259839
0.0261221
0.0262447
0.026334
0.026368
0.0263257
0.0261869
0.0259422
0.0255889
0.0251425
0.0246229
0.024064
0.023493
0.0229317
0.0223904
0.0218625
0.0213241
0.0207422
0.0200701
0.0192869
0.0183158
0.0173027
0.0158272
0.0158211
0.0171159
0.0184057
0.0184305
0.0184563
0.0184827
0.01851
0.0185381
0.0185672
0.018597
0.0186279
0.0186596
0.0186924
0.0187261
0.0187609
0.0187968
0.0188339
0.018872
0.0189116
0.0189523
0.0189944
0.0190379
0.0190829
0.0191294
0.0191775
0.0192272
0.0192787
0.0193318
0.0193869
0.0194437
0.0195025
0.0195633
0.0196263
0.0196914
0.0197589
0.0198287
0.019901
0.0199758
0.0200533
0.0201333
0.0202163
0.0203019
0.0203905
0.0204819
0.0205763
0.0206736
0.0207739
0.0208771
0.0209832
0.0210922
0.0212046
0.0213206
0.0214408
0.0215648
0.0216926
0.0218241
0.0219589
0.0220969
0.0222377
0.022381
0.0225264
0.0226734
0.0228214
0.0229699
0.0231182
0.0232655
0.023411
0.0235538
0.0236929
0.023827
0.023955
0.024076
0.0241892
0.0242937
0.0243887
0.0244734
0.0245471
0.0246097
0.0246613
0.0247022
0.0247332
0.0247554
0.0247703
0.0247794
0.0247847
0.0247878
0.0247906
0.0247947
0.0248013
0.0248115
0.0248261
0.0248462
0.0248726
0.0249069
0.0249502
0.0250038
0.0250678
0.0251396
0.0252133
0.0252777
0.0253164
0.0253075
0.0252273
0.025051
0.0247619
0.0243494
0.0238199
0.0231878
0.0224836
0.0217355
0.0209725
0.0202172
0.0194779
0.0187468
0.0180067
0.0172245
0.0163918
0.0154444
0.0145444
0.0133812
0.0138203
0.0146907
0.0183525
0.0183754
0.0183996
0.0184248
0.0184511
0.0184785
0.018507
0.0185366
0.0185674
0.0185993
0.0186324
0.0186667
0.0187024
0.0187392
0.0187773
0.0188168
0.0188576
0.0188999
0.0189436
0.0189888
0.0190356
0.019084
0.0191341
0.0191858
0.0192393
0.0192946
0.0193517
0.0194107
0.0194717
0.0195347
0.0195998
0.019667
0.0197367
0.0198086
0.0198831
0.01996
0.0200396
0.0201219
0.020207
0.0202948
0.0203855
0.0204791
0.0205756
0.020675
0.0207773
0.0208824
0.0209904
0.0211013
0.0212154
0.0213332
0.0214549
0.0215805
0.0217098
0.0218426
0.0219789
0.0221181
0.0222602
0.0224046
0.0225511
0.0226991
0.0228482
0.0229976
0.0231468
0.023295
0.0234412
0.0235846
0.0237242
0.0238587
0.0239868
0.0241077
0.0242206
0.0243245
0.0244184
0.0245013
0.0245727
0.0246322
0.0246796
0.0247154
0.02474
0.0247545
0.0247599
0.0247577
0.0247496
0.0247371
0.0247216
0.0247044
0.0246863
0.0246681
0.0246501
0.0246329
0.0246175
0.0246052
0.0245981
0.024599
0.0246103
0.0246329
0.0246653
0.0247009
0.0247282
0.0247288
0.0246803
0.0245568
0.0243363
0.0240004
0.0235446
0.0229729
0.0223052
0.0215629
0.0207737
0.0199644
0.0191522
0.018342
0.0175319
0.0167051
0.0158694
0.0149792
0.0142138
0.01334
0.0140139
0.0153286
0.0182994
0.0183214
0.0183449
0.0183695
0.0183955
0.0184225
0.0184509
0.0184805
0.0185115
0.0185436
0.0185772
0.018612
0.0186483
0.0186859
0.018725
0.0187655
0.0188076
0.0188512
0.0188964
0.0189431
0.0189916
0.0190417
0.0190935
0.0191472
0.0192027
0.0192599
0.0193192
0.0193803
0.0194434
0.0195086
0.0195759
0.0196454
0.0197172
0.0197914
0.0198681
0.0199473
0.0200292
0.0201138
0.0202012
0.0202914
0.0203845
0.0204804
0.0205793
0.020681
0.0207857
0.0208931
0.0210034
0.0211165
0.0212329
0.0213529
0.0214769
0.0216047
0.0217362
0.0218713
0.0220098
0.0221514
0.0222958
0.0224427
0.0225917
0.0227424
0.0228943
0.0230468
0.0231993
0.0233509
0.0235008
0.0236482
0.0237919
0.0239307
0.0240635
0.0241893
0.0243075
0.0244169
0.0245164
0.0246051
0.0246823
0.0247477
0.024801
0.0248425
0.0248726
0.0248922
0.0249022
0.024904
0.024899
0.0248886
0.0248737
0.0248553
0.0248337
0.0248088
0.0247802
0.0247475
0.0247109
0.0246711
0.02463
0.024591
0.0245581
0.0245357
0.0245267
0.0245308
0.0245433
0.0245531
0.0245439
0.0244933
0.0243795
0.0241805
0.0238839
0.0234827
0.0229837
0.0223952
0.0217351
0.0210239
0.0202762
0.0194982
0.0186939
0.0178542
0.0169966
0.0160859
0.0153141
0.0144751
0.0150957
0.0163949
0.0182513
0.0182731
0.0182964
0.018321
0.0183468
0.018374
0.0184025
0.0184323
0.0184635
0.018496
0.01853
0.0185653
0.0186021
0.0186404
0.0186802
0.0187215
0.0187645
0.0188091
0.0188554
0.0189033
0.018953
0.0190045
0.0190579
0.0191131
0.0191702
0.0192292
0.0192903
0.0193533
0.0194185
0.0194857
0.0195552
0.0196269
0.0197011
0.0197776
0.0198567
0.0199384
0.0200228
0.0201099
0.0201999
0.0202927
0.0203885
0.0204871
0.0205887
0.0206931
0.0208005
0.0209107
0.0210237
0.0211395
0.0212586
0.0213812
0.0215078
0.0216383
0.0217725
0.0219104
0.0220517
0.0221961
0.0223435
0.0224934
0.0226457
0.0227998
0.0229553
0.0231117
0.0232683
0.0234244
0.0235791
0.0237315
0.0238806
0.0240252
0.024164
0.0242965
0.0244216
0.0245384
0.0246456
0.0247422
0.0248276
0.0249015
0.0249635
0.0250138
0.0250527
0.0250809
0.0250995
0.0251094
0.0251121
0.0251084
0.0250991
0.0250845
0.025064
0.0250366
0.0250005
0.0249536
0.024894
0.0248206
0.0247335
0.0246347
0.024528
0.0244188
0.0243131
0.0242159
0.0241294
0.0240512
0.023974
0.0238839
0.0237652
0.0235988
0.0233713
0.0230704
0.0226937
0.0222383
0.0217114
0.0211235
0.0204816
0.019787
0.0190431
0.0182434
0.0174113
0.0165185
0.0157662
0.0149807
0.0155561
0.0166784
0.018211
0.0182328
0.0182561
0.0182808
0.0183069
0.0183343
0.0183632
0.0183935
0.0184253
0.0184584
0.0184931
0.0185291
0.0185668
0.0186059
0.0186467
0.018689
0.018733
0.0187786
0.018826
0.0188751
0.0189261
0.0189788
0.0190335
0.01909
0.0191485
0.019209
0.0192716
0.0193362
0.019403
0.019472
0.0195433
0.0196169
0.0196931
0.0197717
0.0198531
0.019937
0.0200238
0.0201133
0.0202059
0.0203013
0.0203998
0.0205011
0.0206056
0.0207129
0.0208233
0.0209365
0.0210525
0.0211714
0.0212935
0.0214192
0.0215489
0.0216824
0.0218199
0.021961
0.0221056
0.0222535
0.0224045
0.0225583
0.0227147
0.0228732
0.0230333
0.0231947
0.0233568
0.0235187
0.0236799
0.0238392
0.0239957
0.0241482
0.0242956
0.0244373
0.0245724
0.0246996
0.0248178
0.0249262
0.0250243
0.0251115
0.0251877
0.0252529
0.0253076
0.0253523
0.0253881
0.0254162
0.0254377
0.0254537
0.0254645
0.0254701
0.0254692
0.0254597
0.0254383
0.0254009
0.0253431
0.0252605
0.02515
0.0250101
0.0248419
0.0246491
0.0244374
0.024214
0.0239859
0.0237574
0.0235304
0.023301
0.0230632
0.0228058
0.0225215
0.0221997
0.0218362
0.021423
0.0209612
0.0204542
0.0199016
0.0192995
0.0186489
0.0179437
0.0172101
0.0164258
0.0157931
0.0151768
0.0158009
0.0168813
0.018172
0.0181944
0.0182183
0.0182437
0.0182705
0.0182988
0.0183286
0.0183598
0.0183925
0.0184267
0.0184625
0.0184998
0.0185387
0.0185792
0.0186214
0.0186652
0.0187107
0.0187579
0.0188069
0.0188577
0.0189103
0.0189647
0.019021
0.0190793
0.0191394
0.0192015
0.0192657
0.019332
0.0194004
0.019471
0.019544
0.0196193
0.0196972
0.0197777
0.0198609
0.0199468
0.0200357
0.0201274
0.0202222
0.02032
0.020421
0.0205249
0.0206321
0.0207423
0.0208556
0.0209719
0.0210912
0.0212133
0.0213389
0.021468
0.0216011
0.0217382
0.0218794
0.0220243
0.022173
0.0223252
0.0224807
0.0226394
0.0228009
0.022965
0.0231313
0.0232993
0.0234686
0.0236385
0.0238082
0.023977
0.0241438
0.0243072
0.0244666
0.0246211
0.0247698
0.0249116
0.0250456
0.0251711
0.0252876
0.0253949
0.0254929
0.0255816
0.0256616
0.0257338
0.0257996
0.0258604
0.0259178
0.0259731
0.026027
0.0260796
0.0261295
0.0261741
0.0262092
0.0262291
0.026227
0.0261953
0.0261269
0.0260158
0.0258584
0.0256539
0.0254048
0.0251163
0.024796
0.0244515
0.0240905
0.0237171
0.0233345
0.022941
0.022538
0.0221216
0.0216912
0.0212401
0.020768
0.0202753
0.0197572
0.0192057
0.0186192
0.0179906
0.0173452
0.0166624
0.0161358
0.0156556
0.0162769
0.0172502
0.0181324
0.0181557
0.0181807
0.0182072
0.0182352
0.0182646
0.0182956
0.0183281
0.0183623
0.0183979
0.0184352
0.018474
0.0185145
0.0185566
0.0186005
0.0186461
0.0186935
0.0187427
0.0187937
0.0188465
0.0189012
0.0189578
0.0190163
0.0190767
0.019139
0.0192033
0.0192696
0.0193378
0.0194083
0.0194808
0.0195557
0.0196329
0.0197127
0.019795
0.0198802
0.0199681
0.020059
0.0201528
0.0202498
0.0203499
0.0204532
0.0205597
0.0206695
0.0207825
0.0208988
0.0210183
0.0211408
0.0212665
0.0213956
0.0215285
0.0216654
0.0218064
0.0219516
0.0221008
0.0222539
0.0224107
0.0225712
0.0227352
0.0229024
0.0230726
0.0232454
0.0234205
0.0235974
0.0237757
0.0239546
0.0241333
0.0243107
0.0244856
0.024657
0.0248242
0.0249863
0.0251424
0.0252917
0.0254338
0.0255685
0.0256955
0.0258149
0.0259268
0.0260321
0.0261322
0.0262289
0.0263244
0.0264208
0.0265203
0.0266246
0.0267344
0.0268493
0.0269672
0.027084
0.0271935
0.0272874
0.0273561
0.0273891
0.027376
0.0273079
0.0271783
0.0269841
0.0267257
0.0264073
0.0260353
0.0256187
0.0251651
0.0246838
0.0241803
0.0236637
0.0231378
0.0226083
0.0220721
0.0215312
0.0209858
0.0204295
0.0198522
0.0192504
0.0186148
0.0179683
0.0172893
0.0167588
0.0162828
0.0167757
0.0174767
0.0181034
0.0181276
0.0181537
0.0181812
0.0182103
0.0182409
0.018273
0.0183067
0.018342
0.0183788
0.0184173
0.0184574
0.0184992
0.0185426
0.0185879
0.018635
0.0186839
0.0187347
0.0187874
0.0188421
0.0188988
0.0189574
0.019018
0.0190806
0.0191452
0.0192117
0.0192803
0.0193509
0.0194236
0.0194984
0.0195756
0.019655
0.0197371
0.0198216
0.019909
0.0199992
0.0200924
0.0201886
0.0202881
0.0203907
0.0204966
0.0206058
0.0207184
0.0208344
0.0209538
0.0210765
0.0212025
0.0213318
0.0214647
0.0216014
0.0217423
0.0218873
0.0220365
0.0221898
0.0223471
0.0225083
0.0226733
0.022842
0.0230141
0.0231893
0.0233674
0.023548
0.0237307
0.0239152
0.0241006
0.0242862
0.0244708
0.024653
0.0248316
0.0250059
0.025175
0.025338
0.0254945
0.0256442
0.0257869
0.0259224
0.0260506
0.0261718
0.0262872
0.0263986
0.0265082
0.026619
0.026734
0.0268564
0.0269893
0.0271347
0.0272939
0.0274661
0.0276487
0.0278363
0.0280208
0.0281921
0.0283377
0.0284444
0.028499
0.0284896
0.028407
0.0282454
0.0280033
0.0276826
0.0272893
0.0268308
0.0263173
0.0257584
0.0251674
0.0245544
0.0239305
0.0232971
0.0226595
0.0220195
0.0213713
0.0207052
0.0200173
0.0192985
0.0185702
0.0178122
0.0171975
0.0166533
0.0169725
0.017385
0.0181008
0.0181253
0.0181516
0.0181794
0.0182089
0.0182398
0.0182724
0.0183066
0.0183424
0.0183798
0.0184189
0.0184595
0.018502
0.0185462
0.0185922
0.01864
0.0186898
0.0187415
0.0187952
0.018851
0.0189089
0.0189689
0.019031
0.0190953
0.0191616
0.01923
0.0193006
0.0193732
0.0194481
0.0195251
0.0196045
0.0196863
0.0197707
0.0198577
0.0199476
0.0200403
0.0201362
0.0202351
0.0203373
0.0204428
0.0205517
0.0206639
0.0207796
0.0208987
0.0210214
0.0211475
0.0212771
0.0214102
0.0215469
0.0216874
0.0218321
0.0219808
0.0221337
0.0222906
0.0224515
0.0226163
0.0227847
0.0229567
0.023132
0.0233103
0.0234914
0.0236748
0.0238602
0.0240471
0.0242347
0.0244224
0.0246085
0.0247916
0.0249702
0.0251432
0.0253098
0.0254691
0.025621
0.0257651
0.025901
0.0260282
0.0261465
0.0262559
0.0263579
0.0264544
0.0265479
0.026642
0.0267403
0.0268473
0.0269673
0.0271039
0.0272603
0.0274381
0.0276365
0.0278526
0.0280798
0.0283092
0.0285284
0.0287234
0.0288784
0.0289782
0.0290083
0.0289575
0.0288177
0.0285852
0.0282608
0.0278484
0.027356
0.0267931
0.0261744
0.0255132
0.0248244
0.0241129
0.0233873
0.022652
0.0219038
0.0211353
0.0203456
0.0195288
0.0187087
0.0178715
0.0171889
0.0166198
0.0168356
0.017107
0.0181297
0.0181542
0.0181805
0.0182082
0.0182375
0.0182684
0.0183009
0.0183349
0.0183707
0.0184079
0.0184469
0.0184876
0.01853
0.0185742
0.0186203
0.0186682
0.0187182
0.0187701
0.0188242
0.0188803
0.0189387
0.0189993
0.0190622
0.0191273
0.0191946
0.0192642
0.0193361
0.0194101
0.0194865
0.0195653
0.0196466
0.0197303
0.0198169
0.0199061
0.0199985
0.0200937
0.0201922
0.0202939
0.0203991
0.0205076
0.0206196
0.020735
0.020854
0.0209765
0.0211027
0.0212323
0.0213655
0.0215021
0.0216426
0.0217867
0.0219349
0.0220871
0.0222433
0.0224033
0.0225672
0.0227346
0.0229055
0.0230796
0.0232567
0.0234365
0.0236186
0.0238026
0.0239881
0.0241745
0.024361
0.0245467
0.0247301
0.0249091
0.025082
0.0252475
0.0254047
0.0255526
0.0256911
0.0258197
0.0259374
0.0260434
0.0261369
0.0262178
0.0262872
0.0263468
0.0263992
0.0264482
0.0264978
0.026553
0.0266194
0.026702
0.026806
0.026935
0.027091
0.0272738
0.0274797
0.0277022
0.0279309
0.0281528
0.028352
0.028512
0.0286154
0.028647
0.0285937
0.0284463
0.0281998
0.0278538
0.0274117
0.0268811
0.0262748
0.0256075
0.0248957
0.0241463
0.0233706
0.0225762
0.0217635
0.0209294
0.0200781
0.01921
0.0183548
0.0175078
0.0168425
0.0163535
0.0165824
0.0168935
0.0181909
0.0182145
0.0182398
0.0182666
0.0182951
0.0183252
0.018357
0.0183904
0.0184255
0.0184623
0.0185009
0.0185412
0.0185834
0.0186273
0.0186732
0.0187209
0.0187707
0.0188226
0.0188766
0.0189328
0.0189913
0.0190521
0.0191152
0.0191807
0.0192486
0.0193187
0.0193913
0.0194663
0.0195438
0.0196237
0.0197063
0.0197916
0.0198798
0.0199709
0.0200653
0.0201627
0.0202636
0.0203679
0.0204758
0.0205872
0.0207023
0.0208208
0.0209431
0.021069
0.0211985
0.0213316
0.0214682
0.0216083
0.0217522
0.0218998
0.0220513
0.0222067
0.0223659
0.0225287
0.0226952
0.022865
0.023038
0.023214
0.0233925
0.0235734
0.0237561
0.0239404
0.0241255
0.0243109
0.0244957
0.0246788
0.0248586
0.0250327
0.0251992
0.0253565
0.0255035
0.0256392
0.0257632
0.0258748
0.0259724
0.0260544
0.0261196
0.0261672
0.0261977
0.0262127
0.0262142
0.0262056
0.0261911
0.0261757
0.0261656
0.0261668
0.026186
0.0262287
0.0262993
0.0264007
0.0265321
0.0266905
0.0268684
0.0270556
0.027238
0.0273996
0.0275228
0.0275904
0.0275862
0.0274973
0.0273139
0.0270311
0.0266477
0.0261681
0.0256024
0.0249643
0.0242705
0.0235288
0.0227523
0.0219516
0.0211308
0.0202921
0.0194454
0.0185984
0.0177875
0.017017
0.0164583
0.0161377
0.016465
0.0169249
0.0182731
0.0182957
0.0183201
0.0183461
0.0183738
0.0184031
0.0184341
0.0184669
0.0185013
0.0185376
0.0185756
0.0186154
0.0186572
0.0187008
0.0187465
0.0187941
0.0188438
0.0188956
0.0189497
0.019006
0.0190646
0.0191256
0.019189
0.0192547
0.019323
0.0193936
0.0194668
0.0195424
0.0196207
0.0197015
0.0197852
0.0198716
0.0199612
0.0200539
0.02015
0.0202493
0.0203523
0.0204588
0.0205691
0.0206832
0.020801
0.0209225
0.0210478
0.0211768
0.0213095
0.0214458
0.0215857
0.021729
0.0218762
0.022027
0.0221817
0.0223402
0.0225025
0.0226684
0.0228378
0.0230104
0.0231861
0.0233646
0.0235456
0.0237287
0.0239136
0.0240998
0.0242866
0.0244732
0.0246588
0.0248423
0.0250219
0.025195
0.0253596
0.0255138
0.0256564
0.0257865
0.0259032
0.0260053
0.0260909
0.0261574
0.0262029
0.0262262
0.0262269
0.0262057
0.0261643
0.0261052
0.0260321
0.0259496
0.0258638
0.0257814
0.0257094
0.025655
0.0256245
0.0256229
0.0256529
0.0257144
0.0258038
0.025914
0.0260341
0.0261505
0.0262468
0.0263063
0.0263117
0.0262481
0.0261028
0.0258674
0.025537
0.0251123
0.0246008
0.0240145
0.0233688
0.0226713
0.021936
0.021176
0.0203985
0.01961
0.0188259
0.0180599
0.0173531
0.0167158
0.0163109
0.0161866
0.0166327
0.0172544
0.0183732
0.0183939
0.0184165
0.0184408
0.018467
0.018495
0.0185249
0.0185567
0.0185904
0.0186259
0.0186635
0.018703
0.0187445
0.018788
0.0188337
0.0188814
0.0189314
0.0189835
0.0190379
0.0190946
0.0191538
0.0192153
0.0192793
0.0193458
0.0194147
0.0194862
0.0195602
0.0196367
0.0197159
0.0197978
0.0198826
0.0199702
0.0200611
0.0201552
0.0202528
0.0203538
0.0204586
0.0205671
0.0206796
0.0207959
0.0209162
0.0210404
0.0211684
0.0213003
0.0214359
0.0215753
0.0217182
0.0218647
0.0220149
0.0221689
0.0223269
0.0224887
0.0226545
0.022824
0.0229971
0.0231736
0.0233533
0.023536
0.0237214
0.0239091
0.0240989
0.0242902
0.0244824
0.0246746
0.0248659
0.0250553
0.0252408
0.0254201
0.0255908
0.0257511
0.0258997
0.0260355
0.0261576
0.0262642
0.0263527
0.0264199
0.0264632
0.0264807
0.0264713
0.0264348
0.026372
0.0262843
0.0261747
0.0260468
0.0259063
0.0257595
0.0256136
0.0254762
0.0253547
0.025256
0.0251851
0.0251448
0.0251349
0.0251516
0.0251877
0.0252327
0.025273
0.0252936
0.0252779
0.0252109
0.0250785
0.0248703
0.0245788
0.0242021
0.0237449
0.0232172
0.0226328
0.0219982
0.0213275
0.020635
0.0199302
0.0192221
0.0185299
0.017871
0.0172882
0.0167935
0.0165354
0.016575
0.0171049
0.0178328
0.0184794
0.0184983
0.0185195
0.0185425
0.0185676
0.0185946
0.0186236
0.0186546
0.0186876
0.0187227
0.0187598
0.0187991
0.0188406
0.0188842
0.01893
0.0189781
0.0190286
0.0190813
0.0191365
0.0191941
0.0192542
0.0193167
0.0193818
0.0194494
0.0195195
0.0195922
0.0196675
0.0197453
0.0198259
0.0199091
0.0199954
0.0200845
0.020177
0.0202727
0.0203719
0.0204747
0.0205813
0.0206918
0.0208063
0.0209248
0.0210474
0.021174
0.0213046
0.0214391
0.0215776
0.0217198
0.0218657
0.0220152
0.0221687
0.022326
0.0224874
0.022653
0.0228228
0.0229967
0.0231746
0.0233564
0.0235417
0.0237306
0.0239228
0.024118
0.0243159
0.0245161
0.0247179
0.0249206
0.0251232
0.0253248
0.0255234
0.0257168
0.0259028
0.0260795
0.0262457
0.0264003
0.0265419
0.0266686
0.0267772
0.026864
0.0269255
0.0269596
0.0269641
0.0269381
0.0268813
0.0267942
0.0266784
0.0265365
0.0263733
0.0261942
0.0260057
0.0258155
0.0256311
0.0254603
0.0253098
0.0251843
0.0250863
0.0250153
0.0249674
0.0249353
0.0249089
0.0248754
0.0248206
0.0247302
0.0245904
0.0243902
0.0241205
0.0237774
0.023364
0.0228884
0.022362
0.0217902
0.0211863
0.0205647
0.0199356
0.0193094
0.0187064
0.0181454
0.0176682
0.017285
0.0171269
0.0172624
0.0178135
0.0185657
0.0185958
0.0186123
0.0186314
0.0186525
0.0186759
0.0187015
0.0187293
0.0187593
0.0187917
0.0188262
0.0188632
0.0189023
0.0189439
0.0189877
0.019034
0.0190827
0.0191338
0.0191874
0.0192436
0.0193023
0.0193637
0.0194275
0.0194941
0.0195632
0.019635
0.0197093
0.0197863
0.0198659
0.0199483
0.0200334
0.0201214
0.0202124
0.0203067
0.0204043
0.0205054
0.0206101
0.0207187
0.0208312
0.0209478
0.0210685
0.0211935
0.0213224
0.0214556
0.0215928
0.021734
0.0218791
0.022028
0.0221807
0.0223374
0.0224983
0.0226636
0.0228334
0.023008
0.0231871
0.0233709
0.0235592
0.0237518
0.0239487
0.0241499
0.024355
0.0245639
0.0247764
0.0249917
0.0252091
0.0254279
0.0256471
0.025865
0.0260796
0.0262887
0.0264906
0.0266843
0.0268686
0.0270422
0.0272025
0.0273463
0.027469
0.0275672
0.0276379
0.0276784
0.0276871
0.0276626
0.0276042
0.0275124
0.0273888
0.0272364
0.0270599
0.0268645
0.0266573
0.0264452
0.0262363
0.0260377
0.0258556
0.0256942
0.0255554
0.0254381
0.0253382
0.0252484
0.0251592
0.0250584
0.0249339
0.0247729
0.0245646
0.0242996
0.0239729
0.0235863
0.0231467
0.0226631
0.0221393
0.0215873
0.0210211
0.0204502
0.0198848
0.0193449
0.0188486
0.0184346
0.0181102
0.0179889
0.0181446
0.0186538
0.0193541
0.0187143
0.0187294
0.0187473
0.0187674
0.01879
0.0188148
0.018842
0.0188716
0.0189035
0.0189378
0.0189746
0.0190138
0.0190554
0.0190996
0.0191463
0.0191956
0.0192476
0.0193021
0.0193593
0.0194192
0.0194819
0.0195473
0.0196154
0.0196862
0.0197597
0.0198359
0.0199148
0.0199964
0.0200809
0.020168
0.0202583
0.0203515
0.020448
0.0205478
0.0206512
0.0207581
0.020869
0.0209837
0.0211027
0.0212257
0.0213531
0.0214846
0.0216203
0.0217602
0.0219044
0.0220525
0.0222046
0.0223606
0.0225209
0.0226857
0.0228552
0.0230298
0.0232096
0.0233948
0.0235853
0.023781
0.0239821
0.0241884
0.0244001
0.0246169
0.0248388
0.0250657
0.025297
0.025532
0.0257701
0.0260105
0.0262518
0.026492
0.0267293
0.0269622
0.0271898
0.0274111
0.0276246
0.0278277
0.0280166
0.0281868
0.0283343
0.028456
0.0285486
0.0286098
0.0286375
0.0286299
0.0285864
0.0285072
0.028394
0.0282502
0.0280798
0.0278884
0.0276824
0.027469
0.0272554
0.027048
0.0268522
0.0266712
0.0265063
0.0263555
0.0262145
0.0260762
0.0259311
0.0257692
0.0255792
0.0253513
0.0250762
0.0247488
0.0243703
0.0239466
0.0234844
0.0229862
0.0224624
0.0219256
0.0213842
0.0208474
0.0203333
0.019859
0.019459
0.0191379
0.018994
0.0191069
0.0195271
0.0201226
0.0188427
0.0188563
0.0188727
0.0188915
0.0189129
0.0189368
0.0189634
0.0189924
0.0190241
0.0190582
0.0190951
0.0191344
0.0191765
0.0192211
0.0192684
0.0193184
0.0193712
0.0194267
0.0194851
0.0195462
0.0196102
0.019677
0.0197467
0.0198193
0.0198947
0.0199728
0.0200538
0.0201375
0.0202241
0.0203136
0.0204061
0.0205017
0.0206006
0.0207028
0.0208086
0.0209179
0.0210312
0.0211484
0.0212698
0.0213955
0.0215254
0.0216595
0.021798
0.0219409
0.022088
0.0222394
0.0223949
0.0225545
0.0227187
0.0228876
0.0230617
0.0232414
0.0234269
0.0236185
0.0238162
0.02402
0.02423
0.0244464
0.0246692
0.0248984
0.0251341
0.0253762
0.0256244
0.025878
0.0261365
0.0263995
0.0266655
0.026933
0.0272003
0.0274663
0.0277302
0.0279912
0.0282477
0.028497
0.0287353
0.0289579
0.0291608
0.0293405
0.0294936
0.0296172
0.0297084
0.0297647
0.0297846
0.0297669
0.0297123
0.0296225
0.0295003
0.02935
0.0291765
0.0289861
0.0287854
0.0285805
0.028377
0.028179
0.0279888
0.0278064
0.0276294
0.027453
0.02727
0.0270723
0.0268505
0.0265958
0.0262997
0.0259574
0.0255698
0.0251424
0.0246799
0.0241835
0.0236622
0.0231269
0.0225846
0.022043
0.0215183
0.0210258
0.0205968
0.0202341
0.0200241
0.0200533
0.0203594
0.0208238
0.0189734
0.0189866
0.0190029
0.0190216
0.019043
0.0190669
0.0190936
0.0191228
0.0191546
0.0191891
0.0192262
0.019266
0.0193086
0.0193538
0.0194019
0.0194528
0.0195065
0.0195631
0.0196225
0.0196849
0.0197503
0.0198186
0.0198898
0.019964
0.0200411
0.0201211
0.020204
0.0202898
0.0203785
0.0204702
0.020565
0.020663
0.0207643
0.020869
0.0209773
0.0210892
0.021205
0.0213249
0.0214489
0.0215772
0.0217099
0.0218468
0.0219882
0.0221341
0.0222845
0.0224392
0.0225983
0.0227617
0.0229299
0.0231032
0.0232821
0.0234671
0.0236585
0.0238565
0.0240615
0.0242733
0.0244922
0.0247185
0.0249523
0.0251937
0.0254427
0.0256996
0.025964
0.0262355
0.0265138
0.0267984
0.0270882
0.0273819
0.0276781
0.0279759
0.0282746
0.0285738
0.0288719
0.0291662
0.0294526
0.0297269
0.0299847
0.0302226
0.0304372
0.030625
0.0307828
0.0309075
0.0309966
0.0310482
0.0310615
0.0310372
0.0309765
0.0308825
0.0307587
0.0306102
0.0304424
0.0302606
0.0300704
0.0298757
0.0296796
0.029483
0.029285
0.0290824
0.0288699
0.028641
0.0283881
0.0281036
0.0277798
0.0274124
0.0270027
0.0265559
0.0260751
0.0255605
0.0250197
0.0244622
0.0238935
0.0233199
0.0227559
0.0222155
0.0217275
0.0212944
0.0209944
0.0209219
0.0211086
0.0214387
0.0191184
0.0191311
0.0191469
0.0191653
0.0191864
0.0192102
0.0192369
0.0192662
0.0192984
0.0193332
0.019371
0.0194114
0.0194547
0.0195008
0.0195498
0.0196016
0.0196563
0.0197139
0.0197746
0.0198382
0.0199048
0.0199745
0.0200472
0.0201229
0.0202017
0.0202834
0.0203681
0.0204558
0.0205465
0.0206402
0.0207371
0.0208372
0.0209408
0.0210478
0.0211585
0.0212728
0.0213911
0.0215135
0.0216401
0.0217711
0.0219065
0.0220462
0.0221906
0.0223395
0.0224932
0.0226514
0.0228141
0.0229814
0.0231538
0.0233315
0.0235152
0.0237054
0.0239025
0.0241069
0.0243188
0.0245382
0.0247654
0.0250009
0.0252447
0.0254971
0.0257582
0.0260283
0.0263073
0.0265947
0.0268904
0.0271941
0.027505
0.0278217
0.0281433
0.0284691
0.0287987
0.0291315
0.0294664
0.0298005
0.0301299
0.0304505
0.030758
0.031049
0.0313202
0.0315679
0.0317886
0.0319788
0.0321352
0.0322554
0.0323376
0.0323812
0.0323865
0.032355
0.032289
0.0321922
0.0320687
0.0319231
0.0317599
0.031583
0.0313954
0.0311984
0.0309919
0.0307738
0.0305404
0.0302863
0.0300055
0.0296912
0.0293369
0.0289389
0.028499
0.0280223
0.0275107
0.0269639
0.0263884
0.0257922
0.0251799
0.0245565
0.0239354
0.0233299
0.0227677
0.022252
0.021856
0.0216817
0.0217583
0.021966
0.0192714
0.019285
0.0193017
0.019321
0.019343
0.0193677
0.0193951
0.0194253
0.0194582
0.0194938
0.0195322
0.0195734
0.0196175
0.0196644
0.0197142
0.019767
0.0198227
0.0198814
0.0199431
0.0200078
0.0200756
0.0201465
0.0202204
0.0202975
0.0203776
0.0204608
0.020547
0.0206362
0.0207286
0.0208241
0.0209229
0.0210249
0.0211306
0.0212397
0.0213526
0.0214692
0.0215899
0.0217146
0.0218438
0.0219773
0.0221153
0.0222579
0.0224051
0.022557
0.0227138
0.0228754
0.0230418
0.0232129
0.0233893
0.0235714
0.0237597
0.0239548
0.0241573
0.0243675
0.0245857
0.0248119
0.0250465
0.0252899
0.0255424
0.0258041
0.0260754
0.0263566
0.0266476
0.0269481
0.0272581
0.0275775
0.0279055
0.028241
0.0285833
0.0289318
0.0292864
0.0296466
0.0300114
0.030378
0.0307427
0.0311015
0.0314505
0.0317861
0.0321055
0.0324047
0.0326801
0.0329279
0.0331446
0.033327
0.0334728
0.0335802
0.0336488
0.0336788
0.0336714
0.0336287
0.0335539
0.0334504
0.0333216
0.0331709
0.0330009
0.0328131
0.0326075
0.0323828
0.0321361
0.0318631
0.0315588
0.0312174
0.030833
0.0304029
0.0299294
0.0294179
0.0288693
0.0282829
0.0276646
0.0270213
0.0263568
0.0256756
0.0249903
0.0243145
0.0236752
0.0230778
0.0225924
0.0223284
0.0223119
0.0224178
0.0194448
0.0194588
0.0194759
0.0194955
0.019518
0.0195431
0.0195711
0.0196018
0.0196354
0.0196718
0.0197111
0.0197531
0.0197981
0.0198459
0.0198967
0.0199504
0.0200071
0.0200667
0.0201294
0.0201952
0.020264
0.020336
0.0204111
0.0204894
0.0205707
0.0206552
0.0207427
0.0208334
0.0209272
0.0210241
0.0211245
0.0212282
0.0213355
0.0214464
0.0215611
0.0216797
0.0218024
0.0219292
0.0220606
0.0221964
0.0223369
0.0224819
0.0226317
0.0227865
0.0229463
0.0231111
0.0232808
0.0234555
0.0236358
0.0238219
0.0240145
0.0242141
0.0244214
0.0246367
0.0248603
0.0250923
0.0253329
0.0255829
0.0258424
0.0261116
0.0263909
0.0266806
0.0269809
0.0272915
0.0276123
0.0279435
0.0282844
0.028634
0.0289916
0.0293572
0.0297303
0.0301109
0.0304982
0.0308892
0.0312805
0.0316686
0.0320494
0.0324199
0.0327772
0.0331175
0.033437
0.0337321
0.0339989
0.0342338
0.0344341
0.0345973
0.0347221
0.0348078
0.0348546
0.0348634
0.0348362
0.0347752
0.0346831
0.0345622
0.0344147
0.0342417
0.0340434
0.0338185
0.0335648
0.0332788
0.032956
0.0325914
0.0321798
0.0317193
0.0312128
0.030666
0.0300791
0.0294515
0.0287886
0.0280966
0.0273788
0.0266397
0.0258915
0.0251488
0.0244386
0.023769
0.0232083
0.0228721
0.0227825
0.0228094
0.0196291
0.0196448
0.0196635
0.0196847
0.0197085
0.019735
0.0197642
0.019796
0.0198306
0.0198679
0.0199081
0.019951
0.0199968
0.0200456
0.0200972
0.0201519
0.0202095
0.0202701
0.0203338
0.0204005
0.0204704
0.0205434
0.0206195
0.0206988
0.0207811
0.0208667
0.0209553
0.021047
0.021142
0.0212402
0.0213418
0.0214469
0.0215557
0.0216681
0.0217844
0.0219046
0.022029
0.0221576
0.0222909
0.0224287
0.0225712
0.0227185
0.0228706
0.0230278
0.0231903
0.0233579
0.0235307
0.0237086
0.0238923
0.024082
0.0242783
0.0244819
0.0246933
0.0249128
0.0251409
0.0253776
0.0256231
0.0258781
0.0261429
0.0264177
0.0267027
0.0269987
0.0273055
0.027623
0.0279513
0.0282907
0.0286404
0.0289994
0.0293675
0.0297445
0.0301301
0.0305245
0.0309269
0.0313345
0.0317442
0.0321527
0.0325561
0.0329515
0.0333366
0.0337074
0.0340602
0.0343917
0.0346974
0.0349741
0.0352184
0.0354273
0.0355991
0.0357322
0.035826
0.0358804
0.0358963
0.035875
0.0358181
0.0357272
0.0356037
0.0354483
0.0352609
0.0350403
0.0347846
0.0344905
0.0341542
0.0337711
0.0333366
0.0328495
0.0323132
0.0317339
0.0311114
0.0304453
0.0297407
0.0290033
0.0282364
0.0274446
0.0266405
0.0258396
0.0250698
0.0243416
0.0237224
0.0233327
0.0231891
0.0231585
0.0198377
0.0198544
0.0198738
0.0198957
0.0199202
0.0199473
0.0199772
0.0200098
0.0200452
0.0200833
0.0201244
0.0201682
0.0202149
0.0202645
0.020317
0.0203725
0.020431
0.0204925
0.0205571
0.0206247
0.0206955
0.0207694
0.0208464
0.0209266
0.0210099
0.0210964
0.021186
0.0212787
0.0213746
0.0214738
0.0215764
0.0216825
0.0217923
0.0219058
0.0220232
0.0221446
0.0222703
0.0224004
0.0225351
0.0226744
0.0228187
0.0229677
0.0231217
0.023281
0.0234456
0.0236156
0.0237909
0.0239716
0.0241582
0.024351
0.0245505
0.0247573
0.024972
0.025195
0.0254266
0.0256667
0.0259158
0.0261745
0.026443
0.0267216
0.0270105
0.0273104
0.0276214
0.0279432
0.0282761
0.0286203
0.0289751
0.0293398
0.029714
0.0300976
0.0304905
0.0308928
0.0313041
0.0317217
0.0321425
0.0325636
0.0329814
0.0333931
0.0337967
0.0341884
0.0345646