/*--------------------------------*- C++ -*----------------------------------*\
  =========                 |
  \\      /  F ield         | OpenFOAM: The Open Source CFD Toolbox
   \\    /   O peration     | Website:  https://openfoam.org
    \\  /    A nd           | Version:  6.0
     \\/     M anipulation  |
\*---------------------------------------------------------------------------*/
FoamFile
{
    version     2.0;
    format      ascii;
    class       volScalarField;
    location    "13";
    object      p;
}
// * * * * * * * * * * * * * * * * * * * * * * * * * * * * * * * * * * * * * //

dimensions      [0 2 -2 0 0 0 0];

internalField   nonuniform List<scalar> 
62000
(
0.0268872
0.0270135
0.0271383
0.0272602
0.0273825
0.0275038
0.0276277
0.0277528
0.0278832
0.028017
0.0281594
0.0283074
0.0284676
0.0286357
0.0288196
0.029014
0.0292277
0.0294546
0.0297042
0.0299699
0.0302616
0.0305718
0.0309109
0.0312701
0.03166
0.0320699
0.0325102
0.0329688
0.0334537
0.0339524
0.0344716
0.0350003
0.0355346
0.0360503
0.0365232
0.0369417
0.0372982
0.0375799
0.037775
0.0378764
0.0378883
0.0378275
0.0377281
0.0376368
0.0376048
0.0376794
0.0378594
0.0381168
0.0383199
0.0383451
0.0380641
0.037425
0.0367388
0.035857
0.0351667
0.0342807
0.0334729
0.0315231
0.0307109
0.032841
0.026924
0.0270166
0.0271164
0.02722
0.0273307
0.0274461
0.0275693
0.0276978
0.0278353
0.0279789
0.0281329
0.028294
0.0284677
0.0286496
0.0288466
0.0290535
0.029278
0.0295147
0.0297717
0.0300437
0.0303388
0.0306518
0.0309905
0.0313494
0.0317357
0.0321434
0.0325778
0.0330331
0.0335112
0.0340068
0.034519
0.035045
0.0355775
0.0360947
0.0365762
0.0370104
0.0373883
0.0376988
0.0379305
0.0380787
0.038149
0.0381602
0.0381491
0.0381664
0.0382699
0.0385145
0.0389081
0.039429
0.0399421
0.0403112
0.0403764
0.040057
0.0396766
0.0390766
0.0387194
0.0382114
0.0379752
0.036433
0.0370255
0.037811
0.0267957
0.0268558
0.0269301
0.0270136
0.0271092
0.0272146
0.0273324
0.02746
0.0276006
0.027751
0.0279152
0.0280892
0.0282782
0.028477
0.0286924
0.0289183
0.0291624
0.0294186
0.029695
0.0299857
0.0302989
0.030629
0.0309839
0.0313581
0.0317585
0.0321798
0.0326264
0.0330939
0.0335826
0.0340886
0.0346092
0.0351429
0.035681
0.0362038
0.0366902
0.0371281
0.0375066
0.0378122
0.0380324
0.0381603
0.0381989
0.0381643
0.0380905
0.0380266
0.0380308
0.0381612
0.03843
0.0388184
0.0391858
0.0393736
0.0391774
0.0384538
0.0374807
0.0360672
0.0347575
0.0332698
0.0323138
0.0304761
0.0310675
0.0298278
0.0265417
0.0266156
0.026702
0.026797
0.0269028
0.0270173
0.0271433
0.0272785
0.0274263
0.0275839
0.0277556
0.0279379
0.0281364
0.028346
0.0285735
0.028813
0.0290721
0.0293446
0.0296381
0.0299468
0.0302783
0.0306269
0.0310002
0.0313925
0.0318104
0.0322487
0.0327116
0.0331948
0.0336984
0.0342188
0.0347528
0.035299
0.0358489
0.036381
0.0368771
0.0373233
0.0377078
0.0380163
0.0382352
0.0383566
0.0383815
0.0383249
0.0382201
0.0381181
0.038083
0.0381827
0.0384457
0.0388698
0.0393247
0.0396469
0.0395897
0.0389464
0.0379078
0.0362206
0.0344028
0.0322668
0.0307292
0.0286562
0.0288081
0.0273358
0.0262886
0.0263838
0.0264878
0.0265982
0.0267175
0.0268437
0.0269798
0.0271239
0.0272796
0.0274445
0.0276232
0.0278125
0.0280184
0.0282364
0.0284735
0.0287241
0.0289961
0.0292833
0.0295937
0.0299208
0.0302724
0.0306423
0.0310376
0.0314523
0.0318924
0.0323525
0.0328363
0.0333394
0.0338619
0.0344003
0.0349517
0.0355149
0.0360801
0.0366277
0.037137
0.0375958
0.0379912
0.0383085
0.0385337
0.0386571
0.0386787
0.0386124
0.0384921
0.0383728
0.0383276
0.0384415
0.0387684
0.039339
0.0400554
0.0407738
0.0412353
0.0411782
0.0406983
0.039423
0.0377818
0.0355581
0.0337454
0.031386
0.0308816
0.0288653
0.0261427
0.0262302
0.0263277
0.0264327
0.0265481
0.0266717
0.0268067
0.0269508
0.0271077
0.0272749
0.0274573
0.0276516
0.027864
0.0280902
0.0283376
0.0286008
0.0288879
0.0291927
0.0295232
0.0298729
0.0302495
0.0306462
0.03107
0.0315142
0.0319845
0.0324746
0.0329879
0.0335193
0.0340687
0.0346327
0.0352081
0.0357939
0.0363802
0.0369441
0.0374673
0.0379345
0.0383324
0.038645
0.0388555
0.0389511
0.0389274
0.0387942
0.0385825
0.038347
0.0381662
0.0381385
0.0383442
0.0388515
0.0396086
0.0405161
0.0413309
0.0417786
0.0418796
0.0411669
0.0399196
0.0378586
0.0359424
0.0333273
0.0322061
0.0288888
0.0261875
0.0262409
0.0263087
0.0263876
0.0264809
0.0265864
0.0267073
0.026841
0.026991
0.0271546
0.0273361
0.0275321
0.0277485
0.027981
0.0282366
0.0285103
0.0288102
0.0291303
0.029479
0.0298498
0.0302505
0.0306742
0.0311276
0.0316038
0.0321077
0.0326326
0.0331811
0.0337473
0.0343304
0.0349263
0.035532
0.0361454
0.0367546
0.037338
0.0378722
0.0383422
0.0387321
0.0390228
0.0391934
0.0392248
0.0391051
0.0388358
0.0384395
0.0379639
0.0374848
0.0371062
0.0369268
0.0370491
0.0374709
0.0381504
0.0388926
0.0394456
0.0398054
0.0394359
0.0385121
0.0366735
0.0348398
0.0322469
0.030852
0.026547
0.0263188
0.0263348
0.0263702
0.026421
0.0264908
0.0265771
0.0266831
0.026806
0.0269492
0.0271095
0.0272913
0.0274907
0.0277133
0.0279544
0.0282209
0.0285074
0.0288221
0.0291588
0.0295257
0.0299169
0.03034
0.0307884
0.0312688
0.0317743
0.0323099
0.0328681
0.0334513
0.0340527
0.0346708
0.0353007
0.0359382
0.0365808
0.037216
0.037818
0.0383651
0.0388382
0.0392198
0.0394877
0.0396157
0.0395778
0.0393531
0.0389322
0.0383255
0.0375681
0.0367254
0.035897
0.0351891
0.0347276
0.0345534
0.0346845
0.0349857
0.0352647
0.0355286
0.0352469
0.0345057
0.0329169
0.0313532
0.0291505
0.0278941
0.0235393
0.0265554
0.0265436
0.0265535
0.0265813
0.0266309
0.0267002
0.0267926
0.0269055
0.0270424
0.0272002
0.0273827
0.0275862
0.0278157
0.0280662
0.0283441
0.028644
0.0289734
0.0293262
0.0297106
0.0301205
0.0305636
0.0310335
0.0315372
0.0320678
0.0326302
0.0332171
0.0338306
0.0344634
0.0351133
0.0357746
0.0364428
0.0371141
0.0377744
0.0383998
0.038964
0.039449
0.0398357
0.0400993
0.0402093
0.0401334
0.0398424
0.039316
0.0385511
0.0375676
0.0364152
0.0351818
0.0339702
0.0329177
0.0320959
0.031574
0.0312805
0.0310912
0.0310611
0.0306864
0.0300287
0.0286854
0.0275134
0.0259373
0.0250802
0.0214406
0.026826
0.0268027
0.0268021
0.0268203
0.0268616
0.0269241
0.0270111
0.0271206
0.0272561
0.0274147
0.0276007
0.0278102
0.0280485
0.0283102
0.0286017
0.028917
0.0292636
0.0296348
0.0300384
0.0304681
0.0309315
0.0314223
0.0319473
0.0325
0.0330855
0.0336968
0.0343357
0.0349951
0.0356724
0.0363617
0.0370577
0.0377563
0.0384444
0.0390951
0.0396862
0.0401978
0.0406116
0.0409021
0.0410363
0.0409776
0.0406904
0.0401454
0.0393271
0.0382399
0.0369158
0.0354251
0.0338591
0.0323537
0.0309968
0.029894
0.0290249
0.0283369
0.0279361
0.0273869
0.0267328
0.0255954
0.0248048
0.0238859
0.0234689
0.0208198
0.0272248
0.0272018
0.0272005
0.0272173
0.0272566
0.0273169
0.027402
0.0275102
0.0276454
0.027805
0.0279935
0.0282071
0.0284512
0.0287208
0.0290219
0.0293488
0.0297086
0.0300948
0.0305145
0.0309616
0.0314433
0.0319529
0.0324975
0.0330702
0.0336764
0.034309
0.0349701
0.0356527
0.0363542
0.0370686
0.0377909
0.0385167
0.0392329
0.0399171
0.0405442
0.0410991
0.0415645
0.0419154
0.0421184
0.042135
0.0419255
0.041454
0.040695
0.0396388
0.0382997
0.0367288
0.0349997
0.0332383
0.0315348
0.030016
0.0286993
0.0275885
0.0268459
0.0260929
0.0253877
0.0243696
0.0238567
0.0234568
0.023362
0.0215926
0.027716
0.0277034
0.0277114
0.0277362
0.0277825
0.0278485
0.0279384
0.0280502
0.0281886
0.028351
0.0285426
0.0287598
0.0290087
0.0292841
0.0295928
0.0299288
0.0302996
0.0306982
0.0311319
0.0315942
0.0320921
0.0326188
0.033181
0.033772
0.034397
0.0350493
0.0357308
0.0364348
0.0371589
0.0378976
0.0386457
0.0393997
0.0401491
0.0408702
0.0415444
0.0421574
0.0426953
0.0431354
0.0434451
0.043586
0.0435168
0.0431974
0.0425948
0.0416876
0.040474
0.0389851
0.0372747
0.035451
0.033597
0.0318453
0.0302331
0.0288095
0.0277734
0.0268188
0.0260028
0.0249993
0.0245974
0.0244986
0.0245326
0.0233422
0.0283812
0.0283827
0.0284025
0.0284374
0.0284918
0.0285643
0.0286592
0.0287751
0.0289164
0.0290812
0.0292745
0.0294934
0.0297437
0.0300212
0.0303325
0.0306722
0.0310479
0.031453
0.0318948
0.032367
0.0328765
0.0334163
0.0339932
0.0346
0.035242
0.0359124
0.0366132
0.037338
0.0380845
0.0388476
0.0396231
0.0404078
0.041192
0.0419582
0.0426866
0.0433691
0.0439948
0.0445433
0.0449845
0.045281
0.0453918
0.0452745
0.044891
0.0442107
0.0432178
0.0419255
0.0403667
0.0386297
0.0367825
0.0349532
0.0331874
0.0315597
0.0303016
0.0291533
0.0281839
0.0270875
0.0266362
0.0266147
0.0265882
0.0256557
0.0291241
0.0291434
0.0291802
0.0292308
0.0292997
0.0293852
0.0294915
0.0296171
0.0297666
0.0299379
0.0301367
0.03036
0.0306144
0.0308954
0.0312104
0.0315541
0.0319345
0.032345
0.0327932
0.033273
0.0337915
0.0343416
0.0349303
0.0355505
0.0362074
0.0368945
0.0376138
0.038359
0.0391283
0.039917
0.0407211
0.0415388
0.0423634
0.0431764
0.0439658
0.0447247
0.0454463
0.0461135
0.0466983
0.0471659
0.0474761
0.0475861
0.0474543
0.0470431
0.0463257
0.0452987
0.0439757
0.0424235
0.0406918
0.0388966
0.0370793
0.0353308
0.033894
0.0325612
0.0313955
0.0301188
0.0294766
0.0293497
0.0291101
0.0281702
0.0300177
0.0300544
0.0301071
0.0301723
0.0302546
0.0303521
0.0304693
0.0306046
0.0307628
0.0309417
0.0311467
0.0313752
0.0316334
0.0319175
0.0322347
0.0325804
0.0329625
0.0333753
0.0338265
0.0343105
0.0348345
0.0353918
0.0359894
0.0366206
0.0372904
0.0379927
0.0387295
0.0394948
0.0402872
0.0411024
0.0419373
0.0427903
0.0436557
0.0445215
0.0453738
0.0462121
0.0470321
0.0478194
0.0485486
0.0491872
0.0496965
0.050034
0.0501562
0.0500207
0.0495913
0.0488516
0.0477973
0.0464755
0.044916
0.0432191
0.0414172
0.0396047
0.038034
0.036525
0.0351416
0.0336216
0.032699
0.032341
0.0317929
0.0306703
0.0309829
0.0310384
0.0311095
0.0311924
0.0312915
0.0314048
0.0315366
0.0316849
0.0318548
0.0320437
0.0322578
0.0324938
0.0327588
0.0330485
0.033371
0.033721
0.0341074
0.0345241
0.0349794
0.0354678
0.0359969
0.0365604
0.0371656
0.0378062
0.0384875
0.0392038
0.0399572
0.0407422
0.0415578
0.0424003
0.0432667
0.0441564
0.0450666
0.0459835
0.0469007
0.0478178
0.0487341
0.0496374
0.0505046
0.0513054
0.052003
0.0525555
0.0529183
0.0530455
0.0528942
0.0524364
0.0516532
0.0505729
0.0492068
0.0476372
0.0458826
0.044037
0.0423462
0.0406653
0.0390455
0.0372464
0.0359859
0.0353257
0.0344175
0.0330123
0.0320928
0.0321652
0.0322518
0.0323492
0.0324616
0.0325873
0.0327306
0.0328898
0.0330696
0.033268
0.0334901
0.0337336
0.0340046
0.0342997
0.0346262
0.03498
0.0353693
0.0357889
0.0362471
0.0367388
0.0372721
0.0378408
0.0384528
0.0391018
0.0397938
0.0405232
0.0412927
0.0420971
0.0429359
0.0438058
0.0447047
0.0456321
0.0465852
0.0475563
0.0485363
0.0495298
0.0505374
0.0515488
0.0525424
0.0534899
0.0543561
0.0550999
0.0556762
0.0560368
0.0561334
0.0559294
0.0553932
0.0545375
0.0533562
0.0519147
0.0502173
0.0483512
0.0465598
0.0447137
0.0428576
0.0407652
0.0391519
0.0381614
0.0368817
0.0351578
0.0332299
0.03332
0.0334244
0.0335394
0.0336692
0.0338117
0.0339711
0.0341453
0.0343393
0.0345506
0.034785
0.0350396
0.0353212
0.0356256
0.0359611
0.0363227
0.0367195
0.0371458
0.0376103
0.0381081
0.0386475
0.0392228
0.0398422
0.0405001
0.0412027
0.0419452
0.0427305
0.0435542
0.0444161
0.0453137
0.0462447
0.0472097
0.0482081
0.0492292
0.050271
0.0513369
0.0524294
0.0535396
0.0546472
0.0557252
0.0567399
0.0576508
0.0584127
0.0589757
0.0592876
0.0593044
0.0589846
0.0583269
0.0573106
0.0559846
0.0543384
0.0524522
0.0505562
0.048546
0.0464521
0.0440667
0.0420996
0.0407776
0.0391319
0.0370881
0.0344794
0.0345848
0.034704
0.0348332
0.0349768
0.0351326
0.0353053
0.0354927
0.0356995
0.0359234
0.0361698
0.0364357
0.0367276
0.0370418
0.0373859
0.0377555
0.0381594
0.0385925
0.0390636
0.039568
0.0401142
0.0406969
0.0413247
0.0419923
0.0427063
0.0434624
0.044264
0.0451072
0.0459924
0.0469174
0.047881
0.0488835
0.0499237
0.0509966
0.0520963
0.0532304
0.0544013
0.0556008
0.0568093
0.0580009
0.0591427
0.0601949
0.0611121
0.0618434
0.0623332
0.0625324
0.0623909
0.0618963
0.0610146
0.0597814
0.0581726
0.0562595
0.054266
0.0520977
0.0497768
0.0471085
0.0448079
0.0431696
0.041179
0.0388386
0.0357557
0.0358774
0.036013
0.0361587
0.0363188
0.0364909
0.0366793
0.0368818
0.0371033
0.037341
0.037601
0.0378799
0.0381848
0.0385112
0.0388674
0.0392485
0.0396638
0.0401076
0.040589
0.0411033
0.0416594
0.0422521
0.0428903
0.0435693
0.0442961
0.0450669
0.0458856
0.0467489
0.0476576
0.0486104
0.049606
0.0506453
0.051729
0.0528485
0.054005
0.055203
0.0564461
0.0577267
0.0590255
0.0603172
0.0615696
0.0627429
0.0637919
0.0646645
0.0653028
0.0656529
0.065658
0.0652959
0.0645222
0.0633594
0.0617716
0.059822
0.0577196
0.0553919
0.0528476
0.0499087
0.0472908
0.0453552
0.043038
0.0404291
0.0371454
0.0372811
0.0374298
0.0375879
0.0377597
0.0379433
0.0381431
0.0383571
0.0385901
0.0388396
0.0391109
0.0394013
0.039717
0.0400545
0.040421
0.0408126
0.0412378
0.0416918
0.0421833
0.0427082
0.0432751
0.0438792
0.0445296
0.0452218
0.045963
0.0467501
0.0475872
0.0484716
0.0494047
0.0503856
0.0514136
0.0524897
0.0536133
0.0547814
0.0559909
0.0572495
0.05856
0.0599147
0.0612945
0.0626743
0.064022
0.065298
0.0664569
0.0674456
0.0682042
0.068675
0.0687955
0.0685355
0.0678409
0.0667246
0.0651403
0.0631424
0.0609337
0.0584509
0.0556945
0.052499
0.0495884
0.0473753
0.0447528
0.0419074
0.0385225
0.0386731
0.0388373
0.0390111
0.0391989
0.0393985
0.0396141
0.0398436
0.0400918
0.040356
0.0406422
0.040947
0.0412775
0.0416293
0.0420106
0.0424165
0.0428563
0.0433245
0.0438302
0.044369
0.0449499
0.0455682
0.0462333
0.0469409
0.0476987
0.0485038
0.049361
0.0502679
0.0512265
0.0522363
0.0532966
0.0544093
0.0555752
0.0567873
0.0580494
0.0593656
0.0607396
0.0621638
0.0636186
0.0650789
0.0665127
0.0678801
0.0691353
0.070224
0.0710847
0.0716562
0.0718711
0.0716914
0.0710559
0.0699678
0.0683723
0.0663156
0.0639876
0.061345
0.0583778
0.0549346
0.0517438
0.0492669
0.0463497
0.0432921
0.0399863
0.0401494
0.0403256
0.0405114
0.0407111
0.0409226
0.0411505
0.0413928
0.0416541
0.0419319
0.0422317
0.0425504
0.0428944
0.04326
0.0436546
0.044074
0.0445272
0.0450092
0.0455288
0.046082
0.046678
0.047312
0.0479936
0.0487186
0.049495
0.0503203
0.0511994
0.0521306
0.053116
0.0541557
0.0552497
0.0563996
0.0576052
0.0588645
0.0601763
0.0615487
0.062984
0.0644743
0.0659994
0.0675342
0.0690461
0.0704951
0.0718343
0.073009
0.0739552
0.0746091
0.0748983
0.0747788
0.074182
0.0731041
0.0714829
0.0693567
0.0669101
0.0641099
0.0609387
0.0572564
0.0538011
0.0510707
0.04787
0.0446226
0.0414475
0.0416242
0.0418148
0.042015
0.0422296
0.042456
0.0426989
0.0429557
0.0432318
0.043524
0.0438387
0.0441721
0.0445317
0.0449128
0.0453238
0.0457596
0.0462298
0.0467287
0.0472657
0.0478365
0.0484503
0.0491025
0.0498029
0.0505477
0.0513449
0.0521925
0.0530956
0.0540529
0.0550669
0.0561381
0.0572664
0.0584543
0.059703
0.0610057
0.0623686
0.0637964
0.0652919
0.0668469
0.0684409
0.070048
0.0716354
0.0731621
0.0745807
0.0758349
0.0768591
0.077586
0.0779395
0.0778683
0.0772988
0.0762192
0.0745623
0.0723579
0.0697791
0.0668136
0.0634348
0.0595152
0.0557978
0.0528161
0.0493315
0.0459068
0.0430026
0.0431909
0.0433921
0.0436027
0.0438273
0.0440637
0.0443166
0.0445842
0.0448713
0.0451755
0.0455021
0.0458484
0.0462207
0.0466154
0.0470399
0.0474902
0.0479751
0.0484897
0.049043
0.0496311
0.0502633
0.0509348
0.0516557
0.0524221
0.0532422
0.0541142
0.0550434
0.056029
0.0570735
0.0581778
0.0593425
0.0605698
0.0618597
0.0632105
0.0646234
0.0661073
0.0676633
0.0692829
0.0709447
0.0726226
0.0742829
0.0758839
0.0773771
0.0787048
0.0797993
0.0805902
0.0809971
0.0809626
0.0804076
0.0793141
0.0776107
0.0753183
0.0726076
0.0694768
0.0658928
0.0617375
0.0577641
0.0545314
0.0507646
0.0471733
0.0445204
0.0447215
0.0449364
0.0451612
0.0454004
0.0456518
0.0459198
0.0462024
0.0465046
0.0468237
0.0471659
0.0475277
0.0479165
0.0483277
0.0487698
0.0492379
0.0497416
0.0502753
0.0508483
0.0514566
0.0521096
0.0528028
0.0535462
0.0543363
0.0551814
0.05608
0.0570376
0.0580535
0.0591306
0.0602703
0.0614727
0.0627409
0.0640765
0.065473
0.0669389
0.0684798
0.0700974
0.0717828
0.0735141
0.0752643
0.0769994
0.0786758
0.080245
0.0816458
0.0828106
0.0836629
0.0841212
0.0841178
0.0835729
0.082458
0.0807018
0.0783154
0.0754589
0.0721527
0.0683557
0.0639598
0.0597242
0.0562332
0.0521758
0.0484199
0.0461097
0.0463213
0.0465465
0.0467815
0.0470312
0.0472933
0.0475728
0.0478675
0.0481826
0.0485153
0.0488715
0.049248
0.0496516
0.0500784
0.0505362
0.0510207
0.0515413
0.0520929
0.0526847
0.053313
0.0539873
0.054703
0.0554704
0.056286
0.057158
0.0580853
0.0590734
0.060122
0.0612341
0.0624111
0.063654
0.0649654
0.066346
0.067794
0.0693132
0.0709133
0.0725944
0.0743476
0.0761497
0.0779737
0.079784
0.0815366
0.0831807
0.0846543
0.0858862
0.0867972
0.0873008
0.0873234
0.0867799
0.0856359
0.0838177
0.0813291
0.0783268
0.0748441
0.0708331
0.0661933
0.0616944
0.0579387
0.0535866
0.0496688
0.0476781
0.0479018
0.0481399
0.0483883
0.0486518
0.0489279
0.0492217
0.0495306
0.0498602
0.0502075
0.0505789
0.0509709
0.0513913
0.0518352
0.0523114
0.0528149
0.0533558
0.0539282
0.0545418
0.0551928
0.0558906
0.056631
0.0574243
0.0582673
0.0591682
0.0601264
0.0611472
0.0622308
0.0633801
0.0645971
0.0658823
0.0672393
0.06867
0.0701681
0.0717447
0.0734064
0.0751535
0.0769773
0.0788535
0.0807552
0.0826446
0.0844777
0.0862009
0.0877508
0.0890533
0.0900248
0.0905755
0.0906228
0.0900798
0.0889019
0.0870175
0.0844207
0.0812614
0.077591
0.0733554
0.0684624
0.0636889
0.0596555
0.0549956
0.0509114
0.0493279
0.0495619
0.0498094
0.050067
0.0503393
0.0506246
0.0509277
0.0512468
0.0515871
0.0519463
0.05233
0.0527355
0.0531694
0.0536284
0.0541199
0.0546402
0.0551986
0.0557903
0.0564243
0.0570974
0.057819
0.0585848
0.0594053
0.0602773
0.061209
0.0622
0.0632558
0.0643766
0.0655657
0.066825
0.0681558
0.0695611
0.0710419
0.0725966
0.0742321
0.0759578
0.0777744
0.0796713
0.0816251
0.0836065
0.0855783
0.0874935
0.089298
0.0909253
0.0922988
0.0933305
0.0939259
0.0939952
0.0934471
0.0922297
0.0902706
0.0875583
0.0842424
0.0803827
0.0759195
0.0707677
0.0657144
0.0613938
0.0564194
0.0521664
0.0509205
0.0511664
0.051427
0.0516982
0.0519849
0.0522849
0.0526031
0.0529374
0.0532932
0.0536679
0.0540678
0.0544898
0.0549416
0.0554187
0.0559299
0.0564705
0.0570506
0.0576647
0.0583224
0.0590203
0.0597679
0.0605612
0.0614107
0.0623135
0.0632779
0.0643038
0.0653966
0.0665571
0.0677884
0.0690929
0.0704713
0.0719278
0.0734641
0.0750748
0.0767735
0.0785666
0.0804554
0.0824296
0.0844648
0.0865312
0.0885902
0.0905934
0.0924846
0.0941947
0.0956443
0.0967399
0.0973837
0.0974761
0.0969238
0.0956633
0.0936258
0.0907946
0.0873118
0.0832517
0.0785491
0.0731265
0.0677792
0.0631554
0.0578509
0.053421
0.0525748
0.0528302
0.0531002
0.0533809
0.0536775
0.0539879
0.0543173
0.0546639
0.0550329
0.0554219
0.0558367
0.0562746
0.0567426
0.0572371
0.057766
0.0583256
0.0589255
0.059561
0.0602414
0.0609639
0.0617378
0.0625593
0.0634391
0.0643742
0.065373
0.0664357
0.0675679
0.0687702
0.0700462
0.0713983
0.0728279
0.0743383
0.0759305
0.0776047
0.0793673
0.0812315
0.0831955
0.0852509
0.0873707
0.0895258
0.091675
0.0937695
0.09575
0.0975457
0.0990727
0.100234
0.100925
0.101039
0.100479
0.0991708
0.0970475
0.0940911
0.0904419
0.0861797
0.0812338
0.0755335
0.0698852
0.0649471
0.059305
0.0546932
0.0541969
0.0544637
0.054746
0.0550398
0.0553501
0.0556746
0.0560186
0.0563797
0.0567638
0.0571681
0.0575992
0.058054
0.0585403
0.0590538
0.0596035
0.0601847
0.0608079
0.0614677
0.0621738
0.0629232
0.0637257
0.0645773
0.0654891
0.0664582
0.0674932
0.0685946
0.069768
0.0710145
0.0723377
0.0737403
0.075223
0.0767903
0.0784449
0.0801801
0.0820128
0.0839499
0.0859937
0.0881336
0.0903435
0.092592
0.0948378
0.0970291
0.0991055
0.100992
0.102603
0.103833
0.104576
0.104715
0.104148
0.10279
0.100579
0.0974938
0.0936709
0.0891958
0.0839941
0.0780029
0.0720378
0.0667681
0.0607715
0.0559677
0.0558982
0.0561745
0.0564655
0.0567678
0.0570864
0.0574197
0.0577727
0.0581443
0.0585394
0.0589563
0.0594005
0.0598699
0.0603714
0.0609018
0.0614689
0.0620696
0.0627133
0.0633957
0.064126
0.064902
0.065733
0.0666153
0.0675601
0.0685646
0.0696374
0.0707793
0.071996
0.073289
0.0746618
0.076117
0.0776563
0.0792834
0.0809992
0.0828039
0.0847068
0.0867211
0.0888482
0.0910769
0.0933804
0.0957261
0.0980718
0.100363
0.102539
0.104519
0.106216
0.107517
0.108313
0.108476
0.1079
0.106489
0.104183
0.100964
0.096967
0.0922773
0.0868157
0.0805265
0.0742368
0.0686242
0.0622652
0.0572627
0.0575352
0.0578227
0.0581264
0.0584421
0.0587751
0.0591234
0.059492
0.0598792
0.0602907
0.060724
0.0611857
0.0616732
0.0621942
0.0627448
0.0633339
0.0639574
0.0646258
0.065334
0.0660916
0.0668964
0.067758
0.0686726
0.069652
0.0706933
0.0718055
0.0729896
0.0742515
0.0755929
0.0770173
0.0785278
0.0801253
0.0818143
0.0835977
0.0854696
0.0874483
0.0895436
0.0917577
0.09408
0.0964817
0.0989303
0.101381
0.10378
0.10606
0.108141
0.109929
0.111307
0.112159
0.11235
0.111767
0.110303
0.107899
0.104544
0.100368
0.0954531
0.0897186
0.0831173
0.0764859
0.0705118
0.0637727
0.0585601
0.0592332
0.0595293
0.0598417
0.0601664
0.0605091
0.0608677
0.0612479
0.0616481
0.0620737
0.0625226
0.0630008
0.063506
0.0640451
0.0646154
0.0652244
0.0658696
0.0665606
0.0672934
0.0680771
0.0689103
0.0698024
0.0707501
0.0717649
0.0728444
0.0739974
0.0752255
0.0765343
0.0779259
0.0794039
0.0809713
0.0826297
0.0843834
0.0862334
0.0881812
0.0902371
0.0924173
0.0947224
0.0971415
0.0996452
0.1022
0.10476
0.107269
0.109657
0.111842
0.113724
0.115181
0.116091
0.116309
0.115718
0.114199
0.111694
0.108198
0.103841
0.0986986
0.092687
0.0857661
0.0787847
0.0724376
0.06531
0.0598793
0.0608903
0.0611989
0.0615251
0.0618643
0.0622222
0.0625963
0.0629926
0.0634087
0.0638509
0.0643165
0.0648126
0.0653361
0.0658955
0.0664865
0.0671184
0.0677874
0.0685043
0.0692641
0.0700767
0.0709405
0.0718652
0.0728475
0.0738994
0.0750186
0.0762139
0.0774875
0.0788449
0.0802885
0.0818218
0.0834484
0.0851695
0.08699
0.0889138
0.0909346
0.0930739
0.0953418
0.0977416
0.100262
0.102872
0.105539
0.108214
0.110838
0.113342
0.115636
0.117618
0.11916
0.120132
0.120383
0.119786
0.118213
0.115607
0.111968
0.107424
0.102044
0.0957413
0.0884856
0.0811361
0.0743965
0.0668618
0.0612
0.0626835
0.0630009
0.0633334
0.0636772
0.0640382
0.0644162
0.0648166
0.0652388
0.0656883
0.0661637
0.0666709
0.0672082
0.0677823
0.0683909
0.0690413
0.0697317
0.0704714
0.071257
0.0720972
0.0729915
0.073949
0.074967
0.0760571
0.0772175
0.0784567
0.0797774
0.0811851
0.0826824
0.0842732
0.0859608
0.0877476
0.0896378
0.0916333
0.0937364
0.095959
0.098318
0.100816
0.10344
0.106161
0.108942
0.111736
0.11448
0.117102
0.119509
0.121594
0.123223
0.124259
0.124543
0.123941
0.122314
0.119604
0.115817
0.111084
0.105462
0.0988644
0.0912663
0.0835398
0.0763959
0.068445
0.0625423
0.0641713
0.0645045
0.0648599
0.0652315
0.0656246
0.0660357
0.0664708
0.0669266
0.0674099
0.0679174
0.0684568
0.0690247
0.06963
0.0702688
0.0709504
0.0716715
0.0724429
0.0732604
0.0741337
0.0750622
0.0760556
0.0771113
0.0782414
0.0794445
0.0807291
0.0820984
0.083558
0.0851107
0.0867605
0.0885113
0.0903649
0.0923265
0.0944005
0.096582
0.0988934
0.101346
0.103945
0.106679
0.109514
0.112416
0.115334
0.118204
0.12095
0.123477
0.125671
0.127392
0.128498
0.12882
0.128216
0.126537
0.123724
0.119789
0.11486
0.108985
0.102077
0.09412
0.0859972
0.0784283
0.0700423
0.0638847
0.066135
0.0664697
0.0668199
0.0671829
0.0675648
0.067966
0.068392
0.0688427
0.0693234
0.0698329
0.0703769
0.070954
0.0715708
0.0722247
0.0729235
0.0736652
0.0744597
0.0753034
0.0762054
0.0771657
0.0781937
0.0792869
0.0804574
0.0817039
0.0830348
0.084454
0.0859665
0.0875759
0.0892861
0.0911012
0.0930239
0.0950592
0.0972096
0.0994784
0.101879
0.104429
0.107133
0.109978
0.112931
0.115957
0.119003
0.122003
0.124877
0.127527
0.129833
0.13165
0.132827
0.133188
0.132584
0.130853
0.127936
0.123848
0.118717
0.112586
0.105363
0.0970381
0.0885092
0.0805028
0.0716716
0.0652479
0.0677183
0.068069
0.0684424
0.0688335
0.0692473
0.0696807
0.0701398
0.0706216
0.0711332
0.0716714
0.0722444
0.0728486
0.0734935
0.0741749
0.0749026
0.0756732
0.0764982
0.0773731
0.078308
0.0793026
0.080367
0.0814987
0.0827102
0.0840006
0.0853783
0.0868476
0.0884138
0.0900807
0.0918521
0.0937331
0.095726
0.0978365
0.10007
0.102422
0.104917
0.107567
0.110379
0.11334
0.116417
0.119572
0.122752
0.125888
0.128896
0.131676
0.1341
0.136019
0.137272
0.137678
0.137077
0.135298
0.132278
0.128036
0.122698
0.116297
0.108741
0.100031
0.0910758
0.0826102
0.0733143
0.06661
0.0698028
0.0701534
0.0705201
0.0709008
0.0713016
0.0717233
0.0721715
0.0726463
0.0731532
0.0736913
0.0742664
0.0748773
0.0755309
0.0762249
0.0769671
0.0777559
0.0786017
0.0795009
0.0804629
0.081488
0.0825861
0.0837545
0.0850061
0.0863397
0.0877639
0.0892835
0.0909035
0.0926282
0.094462
0.0964098
0.0984751
0.100663
0.102977
0.105422
0.10801
0.110763
0.113687
0.116767
0.11997
0.123258
0.126576
0.129852
0.132999
0.135912
0.138458
0.140481
0.141814
0.142266
0.14167
0.139843
0.136719
0.132317
0.126765
0.120089
0.112196
0.103091
0.0936987
0.0847604
0.0749893
0.0679919
0.071515
0.0718792
0.0722668
0.0726737
0.0731044
0.0735567
0.0740364
0.074541
0.0750776
0.0756432
0.0762463
0.0768831
0.0775636
0.0782836
0.0790532
0.0798692
0.0807436
0.0816718
0.0826645
0.0837218
0.0848541
0.0860591
0.0873501
0.0887262
0.0901963
0.0917655
0.0934393
0.0952222
0.0971187
0.0991345
0.101273
0.10354
0.105941
0.108473
0.111161
0.11402
0.117059
0.120263
0.123598
0.127025
0.130486
0.133908
0.137201
0.140253
0.142929
0.145062
0.14648
0.146982
0.146394
0.144523
0.141296
0.136734
0.130959
0.123995
0.115746
0.106227
0.0963755
0.0869419
0.0766759
0.06937
0.0737013
0.0740667
0.0744504
0.0748507
0.0752735
0.0757189
0.0761925
0.0766939
0.0772289
0.077796
0.078402
0.0790449
0.0797329
0.0804631
0.0812447
0.0820757
0.0829676
0.0839166
0.0849331
0.0860175
0.0871803
0.0884191
0.0897474
0.0911645
0.0926793
0.0942974
0.0960245
0.0978654
0.099825
0.101909
0.104122
0.106469
0.108955
0.111584
0.114372
0.117341
0.120498
0.123829
0.1273
0.130869
0.134479
0.138051
0.141494
0.14469
0.147497
0.149744
0.151249
0.151803
0.151225
0.149309
0.145977
0.141248
0.135245
0.127986
0.119374
0.109432
0.0991093
0.0891662
0.0783937
0.0707656
0.0757627
0.0761399
0.076536
0.0769492
0.0773842
0.077841
0.0783253
0.0788365
0.0793817
0.0799591
0.080577
0.0812323
0.0819353
0.0826816
0.0834819
0.0843326
0.0852466
0.086219
0.087261
0.0883728
0.0895656
0.090837
0.0922013
0.0936578
0.095216
0.096882
0.0986615
0.10056
0.102583
0.104736
0.107024
0.109453
0.112031
0.114753
0.117646
0.120728
0.124007
0.127471
0.131082
0.134799
0.138563
0.142293
0.145892
0.14924
0.152186
0.154553
0.15615
0.156761
0.156194
0.154237
0.1508
0.145902
0.139662
0.132094
0.123099
0.112712
0.101896
0.0914198
0.0801211
0.0721548
0.0779277
0.0783157
0.0787235
0.0791484
0.0795959
0.0800657
0.0805634
0.0810882
0.0816465
0.0822367
0.0828662
0.0835333
0.0842471
0.0850049
0.0858165
0.0866804
0.0876092
0.088599
0.0896609
0.0907959
0.0920152
0.0933164
0.0947144
0.0962086
0.0978087
0.0995214
0.101353
0.103308
0.105394
0.107617
0.109982
0.112494
0.115161
0.117984
0.120983
0.124182
0.127588
0.131187
0.134943
0.138814
0.142737
0.146629
0.150389
0.153892
0.156981
0.159471
0.161162
0.161831
0.161276
0.159275
0.155731
0.150656
0.144172
0.136287
0.126903
0.11606
0.104739
0.0937153
0.0818779
0.0735596
0.0801403
0.0805371
0.0809539
0.0813885
0.0818458
0.0823254
0.0828333
0.0833684
0.0839381
0.08454
0.0851831
0.0858639
0.0865937
0.0873676
0.0881974
0.0890797
0.0900285
0.0910389
0.0921231
0.0932818
0.0945275
0.0958576
0.097288
0.0988184
0.100459
0.102217
0.104099
0.106112
0.10826
0.110553
0.112995
0.115592
0.118354
0.121275
0.124386
0.127705
0.131242
0.134983
0.138889
0.142919
0.147008
0.15107
0.154999
0.158664
0.161904
0.164523
0.166313
0.167043
0.166503
0.16446
0.160806
0.155552
0.148815
0.140597
0.130803
0.119482
0.107631
0.0960371
0.0836418
0.074956
0.0825159
0.0829207
0.0833452
0.0837866
0.0842508
0.0847376
0.0852529
0.0857958
0.0863731
0.0869829
0.0876332
0.088322
0.0890589
0.0898411
0.0906792
0.0915718
0.0925322
0.0935569
0.0946577
0.0958363
0.0971048
0.0984614
0.0999222
0.101487
0.103167
0.104969
0.106901
0.10897
0.111181
0.113543
0.116064
0.118748
0.121602
0.124631
0.127854
0.131297
0.13497
0.138857
0.142919
0.147114
0.151374
0.15561
0.159713
0.163546
0.16694
0.169691
0.171583
0.172374
0.171848
0.16976
0.165992
0.16055
0.15355
0.144993
0.134781
0.122972
0.110578
0.0983987
0.0854325
0.0763659
0.0849099
0.085323
0.0857556
0.0862055
0.0866779
0.0871724
0.0876954
0.0882456
0.0888311
0.0894493
0.0901097
0.0908086
0.0915579
0.0923528
0.0932056
0.094113
0.0950902
0.096132
0.0972518
0.0984508
0.0997423
0.101125
0.102614
0.104213
0.10593
0.107776
0.109756
0.111881
0.114154
0.116587
0.119186
0.121958
0.124912
0.128045
0.131387
0.134959
0.138773
0.142812
0.147037
0.151403
0.155843
0.160262
0.164547
0.168555
0.17211
0.174999
0.176997
0.177853
0.177341
0.175208
0.171322
0.165688
0.158417
0.149503
0.138851
0.12653
0.113571
0.100783
0.0872276
0.0777654
0.0874268
0.0878474
0.0882873
0.0887436
0.0892228
0.0897243
0.0902545
0.0908124
0.0914052
0.0920307
0.0926973
0.0934031
0.0941582
0.0949598
0.0958191
0.0967347
0.0977212
0.098775
0.0999088
0.101125
0.102437
0.103843
0.10536
0.106991
0.108745
0.110633
0.112662
0.114842
0.117178
0.119682
0.122362
0.125224
0.128276
0.131522
0.134984
0.138691
0.14265
0.146846
0.151239
0.155784
0.160409
0.165017
0.169489
0.173678
0.177398
0.18043
0.182535
0.183456
0.182954
0.180772
0.176763
0.170926
0.163374
0.154097
0.142998
0.130154
0.116615
0.103204
0.0890467
0.0791766
0.0899424
0.0903711
0.0908187
0.0912831
0.0917698
0.0922783
0.0928156
0.0933802
0.0939806
0.0946139
0.0952901
0.0960053
0.0967721
0.0975854
0.0984585
0.0993878
0.10039
0.101459
0.10261
0.103845
0.105178
0.106608
0.108153
0.109815
0.111606
0.113536
0.115614
0.117849
0.120249
0.122826
0.125587
0.128541
0.131698
0.135055
0.138645
0.14249
0.146601
0.150962
0.155531
0.160262
0.16508
0.169887
0.174555
0.178933
0.182826
0.186006
0.188222
0.18921
0.188719
0.186485
0.182348
0.176303
0.16846
0.158801
0.147232
0.133841
0.119699
0.105644
0.0908673
0.0805757
0.0925549
0.0929915
0.0934464
0.093917
0.09441
0.0949249
0.0954685
0.0960399
0.0966465
0.0972863
0.0979679
0.0986894
0.0994613