/*--------------------------------*- C++ -*----------------------------------*\
  =========                 |
  \\      /  F ield         | OpenFOAM: The Open Source CFD Toolbox
   \\    /   O peration     | Website:  https://openfoam.org
    \\  /    A nd           | Version:  6.0
     \\/     M anipulation  |
\*---------------------------------------------------------------------------*/
FoamFile
{
    version     2.0;
    format      ascii;
    class       volVectorField;
    location    "13";
    object      U;
}
// * * * * * * * * * * * * * * * * * * * * * * * * * * * * * * * * * * * * * //

dimensions      [0 1 -1 0 0 0 0];

internalField   nonuniform List<vector> 
62000
(
(0.984708 0.173645 -4.84597e-21)
(0.984725 0.173675 4.06922e-21)
(0.984738 0.173695 4.25585e-21)
(0.984747 0.173717 -1.89386e-20)
(0.984752 0.173743 -2.20502e-20)
(0.984754 0.17377 7.69665e-20)
(0.984752 0.173798 -8.59409e-20)
(0.984747 0.173829 5.06268e-20)
(0.984741 0.17386 -2.41677e-20)
(0.984733 0.173891 -1.25598e-19)
(0.984724 0.173923 -1.69436e-20)
(0.984715 0.173954 1.80507e-19)
(0.984706 0.173983 3.76608e-20)
(0.984698 0.174011 -1.33364e-19)
(0.984691 0.174037 2.11694e-19)
(0.984685 0.174061 -1.13691e-19)
(0.984681 0.174082 1.20479e-19)
(0.984678 0.1741 -1.42954e-19)
(0.984676 0.174115 7.2127e-20)
(0.984676 0.174128 -2.25958e-19)
(0.984677 0.174137 2.99279e-19)
(0.984678 0.174143 9.11235e-20)
(0.984682 0.174146 1.34093e-19)
(0.984685 0.174146 -6.09627e-19)
(0.98469 0.174142 2.26739e-19)
(0.984695 0.174133 -1.43262e-19)
(0.984701 0.174121 -2.73386e-21)
(0.984706 0.174104 -1.20025e-19)
(0.984713 0.174083 3.7543e-19)
(0.984719 0.174058 -2.13652e-19)
(0.984726 0.17403 5.20581e-19)
(0.984731 0.173995 -1.08823e-18)
(0.984736 0.173949 1.03137e-19)
(0.984742 0.173886 -3.57576e-19)
(0.984746 0.173814 -1.14642e-19)
(0.984745 0.173741 -3.54773e-19)
(0.984741 0.173666 -1.0355e-19)
(0.984731 0.173588 -1.02609e-19)
(0.984715 0.173508 3.35793e-19)
(0.98469 0.173431 1.51878e-18)
(0.984652 0.173359 -3.58309e-19)
(0.984599 0.173297 -2.04223e-18)
(0.984524 0.173248 -3.18315e-18)
(0.984422 0.173208 1.70424e-18)
(0.984288 0.173171 5.00977e-19)
(0.984116 0.173121 -2.38887e-18)
(0.983904 0.173033 5.45592e-19)
(0.983654 0.172873 -9.97053e-19)
(0.983372 0.172609 -4.698e-18)
(0.983068 0.172219 -1.10059e-18)
(0.982757 0.17169 -5.63032e-19)
(0.982431 0.171038 -7.47085e-18)
(0.982085 0.170214 1.00406e-18)
(0.981735 0.169184 8.60381e-18)
(0.981355 0.167793 2.30682e-18)
(0.980999 0.165895 8.044e-18)
(0.980715 0.163018 -9.96956e-19)
(0.98065 0.159085 -1.67609e-18)
(0.981678 0.15165 3.76862e-18)
(0.958596 0.135019 7.33174e-19)
(0.984583 0.173435 -1.30256e-21)
(0.98462 0.173475 1.26277e-20)
(0.984659 0.173518 5.35398e-21)
(0.9847 0.173549 -2.30522e-20)
(0.98474 0.173583 9.71866e-21)
(0.984777 0.173617 -6.82802e-20)
(0.984807 0.173653 6.32377e-20)
(0.984831 0.173692 3.7363e-20)
(0.984846 0.173733 -7.07989e-20)
(0.984854 0.173777 2.94526e-21)
(0.984854 0.173824 7.09032e-20)
(0.984847 0.173874 4.10122e-22)
(0.984834 0.173925 2.13631e-20)
(0.984817 0.173978 -1.83816e-19)
(0.984796 0.174032 3.75538e-19)
(0.984774 0.174085 -3.36557e-19)
(0.984751 0.174138 1.60777e-19)
(0.984728 0.174189 -3.41279e-20)
(0.984706 0.174238 -9.55805e-20)
(0.984686 0.174284 2.69689e-19)
(0.984669 0.174326 -4.31837e-19)
(0.984653 0.174363 2.55009e-19)
(0.98464 0.174396 -3.31566e-19)
(0.984629 0.174421 1.99436e-19)
(0.984621 0.174441 1.89322e-19)
(0.984614 0.174451 -1.26766e-19)
(0.98461 0.174454 -1.42574e-21)
(0.984606 0.174447 1.45075e-19)
(0.984605 0.174433 1.247e-19)
(0.984602 0.174409 -2.62565e-19)
(0.984603 0.174379 5.41386e-19)
(0.984601 0.174335 1.13053e-19)
(0.984603 0.174263 3.50562e-19)
(0.98461 0.174163 2.52864e-20)
(0.984613 0.174053 9.54117e-20)
(0.984611 0.173951 -1.08155e-19)
(0.984601 0.173859 -3.25682e-19)
(0.984582 0.173779 -1.63512e-19)
(0.98455 0.173713 -8.84724e-19)
(0.984498 0.173668 -9.99138e-19)
(0.984419 0.173647 7.75924e-19)
(0.984304 0.173649 4.55467e-19)
(0.984145 0.173664 3.3418e-18)
(0.983931 0.173673 1.92244e-19)
(0.983657 0.173642 -5.03947e-18)
(0.983322 0.173521 1.99493e-18)
(0.982932 0.173258 1.66428e-18)
(0.982505 0.172805 1.97399e-18)
(0.982066 0.172142 4.22452e-19)
(0.981631 0.171289 8.66222e-20)
(0.981219 0.170295 3.42486e-18)
(0.980782 0.169239 9.30101e-18)
(0.980297 0.168044 -6.31901e-18)
(0.97975 0.16659 -1.52955e-17)
(0.979122 0.164543 -3.72927e-18)
(0.978494 0.161598 -2.83707e-18)
(0.978089 0.156948 -6.24755e-18)
(0.977762 0.15088 -3.31901e-18)
(0.980783 0.140552 5.284e-18)
(0.95074 0.120401 2.13699e-18)
(0.984425 0.174661 -6.3034e-21)
(0.984401 0.174623 -9.17627e-22)
(0.984394 0.174626 9.84201e-22)
(0.984405 0.174612 4.61001e-21)
(0.984433 0.174597 1.32892e-20)
(0.984472 0.174582 -1.27318e-20)
(0.984521 0.174567 6.91934e-20)
(0.984574 0.174551 -3.31885e-20)
(0.984628 0.174536 -1.81316e-20)
(0.984679 0.174523 -1.1406e-19)
(0.984725 0.174512 9.73219e-20)
(0.984762 0.174504 7.29848e-21)
(0.984791 0.174501 -2.31331e-20)
(0.98481 0.174502 6.24296e-20)
(0.98482 0.174508 -1.08537e-19)
(0.984821 0.174518 4.35283e-22)
(0.984814 0.174534 -5.20001e-20)
(0.984802 0.174554 3.0725e-22)
(0.984784 0.17458 1.24097e-19)
(0.984763 0.174608 -1.92804e-19)
(0.984739 0.174639 1.21956e-19)
(0.984714 0.174671 4.86704e-19)
(0.984689 0.174704 -6.24627e-20)
(0.984663 0.174734 -7.00749e-19)
(0.984638 0.174762 3.65903e-19)
(0.984613 0.174786 -2.04164e-19)
(0.98459 0.174805 3.3804e-19)
(0.984566 0.174816 -2.07847e-19)
(0.984545 0.174823 -4.22696e-19)
(0.984523 0.174823 4.60424e-19)
(0.984502 0.174821 -3.3088e-19)
(0.984479 0.174807 4.50947e-19)
(0.984465 0.174763 -1.2526e-18)
(0.984459 0.174696 1.09943e-18)
(0.984452 0.174626 -5.79086e-19)
(0.98444 0.174572 2.36074e-19)
(0.984422 0.174539 1.78968e-19)
(0.984395 0.174525 -6.22421e-21)
(0.984354 0.174533 -3.77641e-20)
(0.984294 0.174564 1.04601e-18)
(0.984206 0.174614 -4.00401e-19)
(0.984081 0.174674 6.16594e-19)
(0.983912 0.174723 -2.1561e-18)
(0.983693 0.174725 -1.04493e-18)
(0.983422 0.174634 1.11178e-18)
(0.983107 0.174392 -3.8308e-18)
(0.982762 0.17395 5.12546e-19)
(0.982417 0.173282 -3.33167e-18)
(0.982103 0.172415 4.71835e-18)
(0.98184 0.171435 1.22857e-18)
(0.981642 0.170466 6.54867e-19)
(0.981438 0.169653 -1.91575e-19)
(0.981206 0.168953 2.6776e-18)
(0.980907 0.168221 4.51527e-19)
(0.980531 0.167097 -5.26859e-18)
(0.980095 0.165248 -3.12279e-18)
(0.979919 0.16182 -1.82735e-18)
(0.979239 0.15725 -6.96312e-18)
(0.982918 0.150682 -8.58148e-19)
(0.961049 0.141752 5.89964e-19)
(0.984478 0.175837 -6.25099e-21)
(0.984383 0.175774 1.93003e-20)
(0.9843 0.175754 -2.94479e-21)
(0.984233 0.175731 -2.02793e-20)
(0.984186 0.175707 3.09022e-20)
(0.984163 0.175686 5.40263e-20)
(0.984162 0.175663 -7.09311e-20)
(0.984182 0.17564 7.81835e-21)
(0.984221 0.175614 2.53161e-20)
(0.984272 0.175586 5.34304e-20)
(0.984333 0.175557 -9.94359e-20)
(0.984397 0.175526 -3.12327e-20)
(0.984462 0.175495 -3.54949e-20)
(0.984522 0.175464 1.62924e-19)
(0.984576 0.175435 -1.10189e-19)
(0.984621 0.175409 2.61757e-19)
(0.984656 0.175387 -3.21159e-19)
(0.98468 0.175369 -4.84537e-20)
(0.984695 0.175357 3.49278e-19)
(0.984699 0.175351 -1.23059e-19)
(0.984696 0.175351 -4.58547e-20)
(0.984684 0.175356 -5.0002e-20)
(0.984666 0.175366 -4.63349e-19)
(0.984643 0.175378 2.68591e-19)
(0.984617 0.175393 -1.25581e-19)
(0.984586 0.175408 2.03637e-19)
(0.984554 0.175423 9.71641e-20)
(0.98452 0.175436 4.8897e-19)
(0.984484 0.175448 -3.10901e-19)
(0.984447 0.175458 -4.13891e-19)
(0.984409 0.175472 6.64861e-19)
(0.984369 0.175479 -5.53523e-19)
(0.98434 0.175461 1.02385e-18)
(0.984322 0.175427 -6.11423e-19)
(0.984303 0.175393 2.55518e-19)
(0.984279 0.175378 4.29537e-19)
(0.984249 0.175385 -1.80578e-19)
(0.984211 0.175411 2.12933e-19)
(0.984159 0.175452 -1.14554e-19)
(0.984088 0.175506 3.1757e-19)
(0.983988 0.175563 -8.9449e-19)
(0.983853 0.175605 2.40826e-19)
(0.983675 0.175604 5.09009e-19)
(0.983449 0.175516 1.23561e-18)
(0.983174 0.175291 1.58427e-18)
(0.982859 0.17487 3.41727e-19)
(0.98252 0.174215 2.46437e-18)
(0.982184 0.173316 2.69611e-18)
(0.981883 0.17223 3.19123e-18)
(0.981637 0.171077 -2.33566e-18)
(0.981465 0.17002 -3.1053e-18)
(0.981301 0.169236 2.1156e-18)
(0.981148 0.168708 2.88288e-18)
(0.98098 0.168288 6.33703e-18)
(0.980816 0.167634 3.95296e-18)
(0.980602 0.166417 6.69022e-18)
(0.980744 0.16377 1.18983e-17)
(0.979954 0.159969 -7.27992e-19)
(0.983631 0.155873 -6.42864e-18)
(0.967845 0.151682 -4.60747e-18)
(0.984833 0.176153 1.20169e-20)
(0.984761 0.176124 -4.01508e-21)
(0.984673 0.17612 6.88199e-21)
(0.984574 0.176128 -9.72431e-21)
(0.984474 0.176142 2.21521e-20)
(0.984383 0.176165 -1.09517e-20)
(0.984306 0.176192 6.08314e-21)
(0.984248 0.176222 -9.03377e-20)
(0.984213 0.176251 7.62411e-20)
(0.9842 0.176278 -1.54541e-19)
(0.984207 0.1763 1.7132e-19)
(0.984232 0.176317 -2.08564e-20)
(0.98427 0.176327 -4.68743e-20)
(0.984317 0.176331 -2.19299e-20)
(0.984368 0.176329 -4.99848e-21)
(0.984419 0.176322 -2.25964e-19)
(0.984467 0.176312 8.64342e-21)
(0.984509 0.176299 2.50881e-19)
(0.984542 0.176286 -8.30913e-20)
(0.984566 0.176272 -8.93299e-20)
(0.98458 0.176262 1.50768e-19)
(0.984584 0.176252 -7.687e-20)
(0.984578 0.176247 3.25848e-19)
(0.984564 0.176242 1.83385e-19)
(0.984542 0.17624 1.43334e-19)
(0.984514 0.176239 -4.43952e-19)
(0.984481 0.17624 -6.36566e-20)
(0.984443 0.176241 -3.61477e-19)
(0.984403 0.176244 6.79289e-20)
(0.984358 0.176248 -1.25718e-19)
(0.984311 0.17626 -5.08401e-20)
(0.984262 0.176266 4.11274e-19)
(0.984224 0.176256 -1.03146e-18)
(0.984198 0.176229 -4.81913e-20)
(0.98417 0.176201 -5.10812e-19)
(0.984138 0.176191 -2.45939e-19)
(0.984099 0.176198 5.7278e-20)
(0.984052 0.176218 -7.67549e-19)
(0.983991 0.176245 1.15245e-18)
(0.98391 0.176272 1.97132e-19)
(0.983801 0.176287 1.22423e-18)
(0.983654 0.176268 -8.70915e-19)
(0.983461 0.176183 -5.82148e-19)
(0.983215 0.175988 -2.14531e-19)
(0.982909 0.175631 1.17512e-18)
(0.982547 0.175054 1.69247e-18)
(0.982137 0.174221 4.12125e-19)
(0.981698 0.173126 7.04536e-19)
(0.981254 0.171823 -1.08863e-18)
(0.980823 0.170434 5.99056e-18)
(0.980437 0.169111 1.53178e-18)
(0.980049 0.168029 -1.47156e-18)
(0.979711 0.167172 7.17755e-19)
(0.97944 0.166398 5.33603e-18)
(0.97931 0.1654 -4.7128e-19)
(0.979235 0.163889 -5.17524e-18)
(0.979732 0.161054 -1.24475e-17)
(0.979201 0.156989 1.11217e-17)
(0.982838 0.153584 -6.57874e-18)
(0.970885 0.150447 5.22858e-18)
(0.985221 0.176262 -4.53821e-21)
(0.98526 0.176256 1.84663e-20)
(0.985258 0.176268 -3.06844e-20)
(0.985218 0.176294 2.3112e-20)
(0.985147 0.176334 1.52175e-20)
(0.985054 0.176388 -1.61885e-20)
(0.984949 0.176455 1.39566e-21)
(0.984841 0.176531 -1.24702e-20)
(0.984739 0.176613 -4.25933e-20)
(0.984649 0.176698 8.23469e-20)
(0.984575 0.176782 -1.29429e-19)
(0.984519 0.176863 1.14317e-19)
(0.984481 0.176938 1.02589e-19)
(0.984461 0.177003 -1.59859e-19)
(0.984454 0.177059 -5.33574e-20)
(0.984458 0.177104 2.01452e-19)
(0.984469 0.177139 -2.47304e-19)
(0.984482 0.177163 3.46739e-19)
(0.984496 0.177179 -6.55766e-20)
(0.984506 0.177187 3.96367e-20)
(0.984511 0.177191 -6.2139e-20)
(0.984509 0.177188 -7.99001e-20)
(0.9845 0.177183 -1.52162e-19)
(0.984483 0.177174 2.67495e-19)
(0.984458 0.177164 -1.85725e-19)
(0.984427 0.177151 -1.85913e-19)
(0.984391 0.177139 3.87276e-19)
(0.984349 0.177124 -3.79495e-19)
(0.984303 0.177113 6.10985e-19)
(0.984254 0.177103 -3.30831e-19)
(0.984201 0.177101 2.56991e-19)
(0.984147 0.177094 -4.44643e-19)
(0.984104 0.177072 4.76149e-19)
(0.984072 0.177031 -4.20113e-20)
(0.98404 0.176985 -2.38859e-20)
(0.984005 0.176953 -1.31493e-20)
(0.983967 0.176934 -2.504e-19)
(0.983923 0.176922 6.80428e-19)
(0.983869 0.176911 -5.15356e-19)
(0.983799 0.176894 -2.90248e-18)
(0.983705 0.176859 -1.1932e-18)
(0.983577 0.176785 8.25056e-19)
(0.983404 0.176642 -8.95034e-19)
(0.983176 0.176389 -9.65008e-19)
(0.98288 0.175977 -7.44112e-20)
(0.982513 0.175351 2.35011e-18)
(0.982069 0.174477 -3.3973e-18)
(0.981556 0.173339 -3.46495e-18)
(0.980986 0.17198 -2.39845e-18)
(0.980373 0.170492 -4.02388e-18)
(0.979753 0.168999 2.57496e-18)
(0.979102 0.167645 -1.08144e-18)
(0.97852 0.166403 -8.90847e-18)
(0.978075 0.165139 1.7208e-18)
(0.977911 0.163606 2.60198e-18)
(0.977928 0.161592 -4.89653e-18)
(0.978755 0.158436 3.45922e-18)
(0.978662 0.154168 3.08978e-18)
(0.982212 0.151336 1.05904e-17)
(0.974244 0.150812 -2.42843e-19)
(0.985302 0.176965 5.33342e-21)
(0.985467 0.176933 -2.4218e-20)
(0.985587 0.176928 1.18599e-20)
(0.985662 0.176931 2.24073e-20)
(0.985691 0.17695 -4.85277e-20)
(0.985675 0.176987 4.10107e-20)
(0.985621 0.177042 -2.76679e-20)
(0.985536 0.177112 2.36766e-20)
(0.985431 0.177195 3.83441e-20)
(0.985314 0.177288 -9.30212e-20)
(0.985194 0.177389 1.35934e-19)
(0.985077 0.177492 5.89199e-20)
(0.98497 0.177596 -2.35102e-19)
(0.984876 0.177694 -4.52803e-20)
(0.984795 0.177786 1.27889e-19)
(0.984728 0.177868 8.41001e-20)
(0.984674 0.17794 -1.02742e-19)
(0.98463 0.177998 9.19865e-20)
(0.984593 0.178045 1.45335e-19)
(0.984561 0.17808 -6.96757e-20)
(0.984531 0.178103 -4.06383e-20)
(0.9845 0.178115 1.51091e-19)
(0.984467 0.178119 3.17005e-19)
(0.98443 0.178113 -2.27973e-19)
(0.98439 0.178101 -2.59991e-19)
(0.984345 0.17808 2.93618e-19)
(0.984297 0.178058 -2.28898e-19)
(0.984245 0.178029 -9.641e-20)
(0.98419 0.178002 8.04015e-19)
(0.984132 0.177974 -3.58816e-19)
(0.984073 0.177952 -2.81943e-19)
(0.984015 0.177923 3.73126e-19)
(0.983967 0.177879 2.60463e-19)
(0.98393 0.17781 -2.33282e-19)
(0.983899 0.177732 -1.55278e-19)
(0.983868 0.177663 4.9023e-19)
(0.98384 0.177603 1.0167e-19)
(0.983814 0.177549 1.62488e-19)
(0.983786 0.177495 -8.47027e-19)
(0.983752 0.177436 -8.15341e-19)
(0.983705 0.177362 1.54121e-18)
(0.983636 0.177259 1.19233e-18)
(0.983533 0.177101 1.9426e-18)
(0.983383 0.176856 -1.75134e-18)
(0.98317 0.176482 -1.87738e-18)
(0.982882 0.175932 -1.25111e-18)
(0.982503 0.175171 2.96364e-18)
(0.982029 0.174179 2.82368e-18)
(0.981457 0.172977 -3.18992e-18)
(0.98079 0.171624 -4.52476e-18)
(0.980066 0.170204 -1.13037e-18)
(0.97927 0.16882 9.01634e-19)
(0.97854 0.16743 2.28917e-19)
(0.977985 0.165905 -3.24226e-18)
(0.977804 0.164064 2.73037e-18)
(0.977884 0.161788 1.73929e-18)
(0.978937 0.158601 2.58201e-18)
(0.979251 0.154537 -9.28571e-18)
(0.982503 0.152589 -7.23636e-19)
(0.978745 0.155673 -1.28176e-19)
(0.984929 0.178468 -8.96081e-21)
(0.985173 0.178391 -7.21139e-21)
(0.98539 0.178345 9.82895e-21)
(0.985577 0.178299 3.51471e-20)
(0.985724 0.178265 -7.63361e-20)
(0.985824 0.178245 8.81025e-20)
(0.985876 0.178242 -3.86312e-21)
(0.985882 0.178256 -5.46754e-21)
(0.985845 0.178286 -3.23717e-20)
(0.985772 0.178333 7.97467e-20)
(0.985674 0.178393 -1.24024e-19)
(0.985557 0.178464 4.71946e-20)
(0.98543 0.178542 -1.62557e-21)
(0.9853 0.178623 7.62201e-20)
(0.985174 0.178705 3.72026e-20)
(0.985054 0.178783 -1.97954e-19)
(0.984944 0.178856 1.74052e-19)
(0.984844 0.178919 7.01952e-20)
(0.984753 0.178973 -2.03112e-19)
(0.984671 0.179015 1.00747e-19)
(0.984595 0.179046 4.82218e-20)
(0.984525 0.179063 -3.09996e-20)
(0.984457 0.179069 4.25784e-20)
(0.984391 0.179062 -2.27261e-20)
(0.984325 0.179045 -2.84642e-19)
(0.984259 0.179017 1.9063e-19)
(0.984192 0.178983 -2.95881e-19)
(0.984125 0.178939 5.5537e-19)
(0.984057 0.178894 -1.03321e-19)
(0.983988 0.178846 -6.39043e-20)
(0.983921 0.178801 -1.71613e-20)
(0.983857 0.178745 6.25569e-19)
(0.983804 0.17867 -2.5377e-19)
(0.983764 0.178564 -1.56997e-19)
(0.983734 0.178445 3.90245e-19)
(0.983712 0.178331 3.3042e-19)
(0.9837 0.178225 -5.46557e-19)
(0.983699 0.178125 9.73442e-20)
(0.983707 0.178028 1.01938e-18)
(0.983722 0.177932 -9.74586e-20)
(0.983738 0.177831 6.30719e-19)
(0.983748 0.177718 -8.82172e-19)
(0.983741 0.177577 1.2996e-18)
(0.983704 0.177383 2.74542e-18)
(0.983619 0.177107 8.08483e-19)
(0.983468 0.176709 -1.01612e-18)
(0.983228 0.176159 -3.02374e-18)
(0.982883 0.175431 4.28498e-19)
(0.982418 0.174529 9.7441e-19)
(0.981827 0.17348 2.33679e-18)
(0.981138 0.172325 -4.63697e-19)
(0.98034 0.171126 -3.65859e-18)
(0.979589 0.169819 3.23823e-18)
(0.979015 0.168278 -2.24985e-18)
(0.978857 0.166378 4.19432e-18)
(0.97898 0.164074 1.2142e-18)
(0.980134 0.161056 5.02332e-18)
(0.98075 0.157356 6.78717e-18)
(0.983492 0.156224 8.79397e-19)
(0.983116 0.161943 1.00523e-18)
(0.984204 0.180486 -4.35108e-21)
(0.984457 0.180367 3.75838e-21)
(0.984711 0.180282 1.89786e-20)
(0.984962 0.180188 3.02493e-20)
(0.985195 0.1801 -8.99736e-20)
(0.985398 0.18002 5.21287e-20)
(0.985562 0.179951 -9.42186e-20)
(0.98568 0.179895 1.48568e-19)
(0.98575 0.179853 -7.01736e-20)
(0.985773 0.179826 1.25393e-20)
(0.985752 0.179815 1.38987e-19)
(0.985695 0.179817 -3.19027e-19)
(0.985608 0.179832 2.19614e-19)
(0.985499 0.179857 3.18157e-20)
(0.985376 0.179888 5.21234e-20)
(0.985246 0.179923 -2.17516e-19)
(0.985114 0.17996 1.08248e-19)
(0.984984 0.179994 -1.36383e-19)
(0.984859 0.180025 2.7354e-19)
(0.984741 0.180048 -3.50885e-20)
(0.984629 0.180063 -3.56298e-19)
(0.984523 0.180068 1.42446e-19)
(0.984423 0.180062 -8.1503e-21)
(0.984327 0.180043 -5.47261e-19)
(0.984235 0.180013 4.09112e-19)
(0.984146 0.179969 3.14191e-19)
(0.98406 0.179918 2.20028e-19)
(0.983975 0.179856 -2.83647e-19)
(0.983893 0.179789 -3.19057e-19)
(0.983813 0.179718 1.49619e-19)
(0.983737 0.179645 2.29305e-19)
(0.983667 0.179559 -2.83613e-19)
(0.983609 0.179448 -4.27081e-19)
(0.983565 0.179301 8.63939e-19)
(0.983536 0.179136 8.93097e-20)
(0.983522 0.178974 -1.2676e-18)
(0.983525 0.178821 1.04166e-19)
(0.983547 0.178675 8.27848e-19)
(0.983587 0.178536 7.80278e-20)
(0.983646 0.178405 1.0571e-18)
(0.983719 0.178283 -1.41182e-18)
(0.983801 0.178167 -7.96087e-20)
(0.983884 0.178049 -8.78128e-19)
(0.983953 0.177916 2.9945e-19)
(0.983992 0.177748 1.33355e-18)
(0.983981 0.177516 3.86549e-18)
(0.983892 0.177193 6.01221e-19)
(0.983705 0.17675 -2.38869e-18)
(0.983392 0.176178 1.68176e-18)
(0.982941 0.175473 6.09241e-18)
(0.982371 0.174641 -4.86711e-18)
(0.981667 0.173705 5.82306e-18)
(0.98099 0.172579 -3.74242e-18)
(0.980478 0.171134 -1.64515e-18)
(0.980384 0.169281 -8.42989e-18)
(0.980548 0.167028 -4.23035e-19)
(0.981724 0.164185 -2.88555e-18)
(0.982566 0.160745 -3.01727e-18)
(0.984717 0.160047 1.71219e-18)
(0.986267 0.166811 -8.85688e-20)
(0.983338 0.182666 6.05896e-21)
(0.98354 0.182532 2.12329e-21)
(0.983767 0.182427 -2.21584e-20)
(0.984017 0.182306 2.12324e-20)
(0.984278 0.182183 -9.46639e-21)
(0.984534 0.18206 1.70651e-20)
(0.984772 0.18194 5.94454e-21)
(0.984982 0.181826 -8.67025e-20)
(0.985153 0.181719 3.78017e-20)
(0.985281 0.181623 -2.62581e-20)
(0.985362 0.181538 1.58187e-20)
(0.985398 0.181466 6.28171e-20)
(0.985391 0.181405 -1.18772e-20)
(0.985348 0.181357 3.94992e-20)
(0.985276 0.181318 -1.68625e-19)
(0.98518 0.181288 6.51296e-20)
(0.985068 0.181264 2.88676e-20)
(0.984945 0.181243 -8.1424e-20)
(0.984818 0.181225 1.62774e-19)
(0.984689 0.181205 5.49694e-20)
(0.984562 0.181183 -5.62166e-21)
(0.984438 0.181154 -6.12839e-20)
(0.984318 0.181119 2.48108e-19)
(0.984202 0.181073 -6.92629e-19)
(0.984091 0.181018 3.63187e-19)
(0.983984 0.18095 1.57952e-19)
(0.983881 0.180874 -2.66799e-19)
(0.983783 0.180787 4.80586e-19)
(0.983688 0.180695 -2.32837e-19)
(0.983598 0.180595 -1.25248e-19)
(0.983514 0.180492 -2.48018e-19)
(0.983437 0.180373 -1.04804e-19)
(0.983373 0.180224 2.82584e-19)
(0.983325 0.180034 -8.48142e-19)
(0.983296 0.179823 1.57686e-18)
(0.983286 0.179615 -1.07373e-19)
(0.983298 0.179414 7.87549e-19)
(0.983334 0.179224 -1.98144e-18)
(0.983394 0.179045 -6.06667e-19)
(0.983479 0.178881 1.72331e-20)
(0.983588 0.178736 -4.3857e-19)
(0.983715 0.178612 -5.50262e-20)
(0.983854 0.178508 -1.49619e-18)
(0.983995 0.17842 4.91035e-19)
(0.98412 0.178336 6.67735e-19)
(0.984212 0.178235 -3.54691e-18)
(0.984242 0.178093 4.3342e-18)
(0.984187 0.177881 6.1165e-19)
(0.984016 0.177576 1.01444e-19)
(0.983713 0.177153 -3.87805e-18)
(0.983289 0.176588 1.47066e-18)
(0.982726 0.175873 -2.94803e-18)
(0.982177 0.174903 5.22906e-18)
(0.981781 0.17354 1.47041e-18)
(0.98179 0.171722 -3.92426e-18)
(0.982017 0.169483 1.6616e-18)
(0.983196 0.166715 -4.66743e-18)
(0.984248 0.163357 -9.64769e-19)
(0.985872 0.162689 -7.20854e-18)
(0.987945 0.169326 -1.66662e-18)
(0.982511 0.184742 -1.35057e-21)
(0.982625 0.184609 -5.31925e-21)
(0.982778 0.184503 -4.65201e-21)
(0.982974 0.184378 4.5132e-20)
(0.983203 0.184245 -2.51643e-20)
(0.983453 0.184106 -3.04698e-20)
(0.983711 0.183963 -1.15818e-20)
(0.983964 0.183817 -4.78752e-20)
(0.9842 0.183671 2.98351e-20)
(0.984408 0.183527 4.14801e-21)
(0.984579 0.183388 1.34752e-21)
(0.984709 0.183255 1.32693e-19)
(0.984795 0.183129 -9.48533e-20)
(0.984839 0.183012 -1.1992e-20)
(0.984844 0.182904 1.11884e-19)
(0.984814 0.182805 -6.2092e-20)
(0.984755 0.182714 -2.45557e-20)
(0.984674 0.182629 3.94912e-20)
(0.984576 0.182551 1.30611e-19)
(0.984466 0.182475 7.42375e-20)
(0.984348 0.182401 2.94739e-20)
(0.984228 0.182325 -1.86945e-19)
(0.984106 0.182247 9.75412e-20)
(0.983985 0.182162 1.90242e-19)
(0.983867 0.182071 -3.97799e-19)
(0.983751 0.181969 1.31073e-19)
(0.98364 0.181861 -5.2367e-19)
(0.983533 0.181742 4.32425e-19)
(0.983431 0.181618 3.88124e-19)
(0.983335 0.181487 -6.0093e-19)
(0.983244 0.181351 -2.96118e-19)
(0.983162 0.181196 3.96306e-19)
(0.983093 0.181009 1.33935e-19)
(0.983039 0.180777 -3.62427e-19)
(0.983008 0.180524 -4.57402e-19)
(0.982998 0.180272 -5.35435e-19)
(0.983011 0.180029 3.268e-19)
(0.983049 0.179798 7.73103e-19)
(0.983113 0.179581 2.71721e-19)
(0.983203 0.179383 -2.29548e-19)
(0.983319 0.17921 2.53514e-18)
(0.983458 0.179068 -2.83399e-19)
(0.983615 0.178961 2.50052e-18)
(0.983781 0.178888 -4.34366e-18)
(0.983943 0.178845 7.09171e-19)
(0.984084 0.178814 1.11424e-19)
(0.98418 0.178779 -1.56901e-19)
(0.984209 0.178703 -2.86091e-18)
(0.984142 0.178559 -4.37419e-18)
(0.983961 0.178303 3.7639e-18)
(0.983676 0.17789 4.76721e-18)
(0.983263 0.17729 2.40384e-18)
(0.98287 0.176383 -4.85155e-18)
(0.982626 0.175027 2.56928e-18)
(0.982775 0.173175 6.49854e-18)
(0.983104 0.170877 2.35201e-18)
(0.984312 0.168082 4.53954e-18)
(0.985598 0.164675 2.23466e-18)
(0.986847 0.163777 6.35869e-18)
(0.988476 0.169745 -4.23849e-18)
(0.981822 0.186603 1.75758e-21)
(0.981836 0.186487 -5.28847e-21)
(0.981894 0.186392 1.89867e-20)
(0.982003 0.186277 4.99892e-21)
(0.98216 0.186151 -2.6364e-20)
(0.982356 0.186015 -3.06198e-20)
(0.982582 0.185869 7.28917e-20)
(0.982827 0.185715 -8.01966e-20)
(0.983079 0.185554 -2.00562e-20)
(0.983324 0.185388 5.01842e-20)
(0.98355 0.185219 4.71234e-20)
(0.98375 0.185049 1.45191e-19)
(0.983915 0.18488 -8.142e-20)
(0.984041 0.184713 -1.42679e-19)
(0.984128 0.184551 3.16156e-20)
(0.984176 0.184394 -1.19834e-19)
(0.984188 0.184244 9.02152e-20)
(0.984168 0.184099 -1.55852e-19)
(0.984122 0.18396 2.40529e-20)
(0.984054 0.183826 -5.38475e-20)
(0.983969 0.183696 -3.5443e-20)
(0.983873 0.183567 -1.49286e-19)
(0.983768 0.183439 1.10638e-20)
(0.983659 0.183307 3.26351e-19)
(0.983548 0.183172 -1.14411e-19)
(0.983436 0.18303 3.50197e-20)
(0.983326 0.182882 1.05726e-19)
(0.983219 0.182726 -1.43917e-19)
(0.983115 0.182567 -3.1912e-20)
(0.983017 0.1824 2.10133e-19)
(0.982924 0.182229 2.34264e-19)
(0.982838 0.182039 -1.75516e-19)
(0.982764 0.181814 -5.69741e-19)
(0.982706 0.181543 -8.08859e-19)
(0.98267 0.181252 1.21012e-18)
(0.982656 0.180961 3.29066e-19)
(0.982663 0.180681 2.07835e-19)
(0.982692 0.180414 1.02859e-18)
(0.982744 0.180161 -9.13212e-19)
(0.982821 0.179928 5.67046e-19)
(0.982921 0.179722 3.36704e-20)
(0.983042 0.17955 1.51314e-20)
(0.983182 0.179419 -9.11297e-19)
(0.983333 0.179329 2.06123e-18)
(0.983486 0.179281 -2.65914e-18)
(0.983628 0.179259 1.53003e-18)
(0.98374 0.179247 -4.08823e-18)
(0.983805 0.17921 9.65326e-19)
(0.983799 0.179111 2.29539e-18)
(0.983707 0.178898 -3.82191e-18)
(0.983539 0.178511 -7.8404e-19)
(0.983271 0.177906 -1.13882e-19)
(0.983043 0.176958 -8.95319e-19)
(0.982974 0.175522 -2.61935e-18)
(0.983294 0.173566 1.71221e-19)
(0.983766 0.17115 2.38437e-18)
(0.985049 0.168265 -2.51079e-18)
(0.986605 0.164763 -6.99899e-19)
(0.987654 0.163543 -8.25329e-19)
(0.988353 0.168753 3.194e-18)
(0.981311 0.188203 3.31655e-21)
(0.981234 0.188098 -2.81272e-21)
(0.981198 0.188016 2.59241e-21)
(0.981211 0.187917 1.6703e-20)
(0.981275 0.187807 2.44665e-20)
(0.981388 0.187687 -9.58732e-20)
(0.981546 0.187556 6.98146e-20)
(0.98174 0.187413 1.47625e-20)
(0.981961 0.187259 -4.34271e-21)
(0.982197 0.187094 -3.22752e-20)
(0.982436 0.18692 1.00311e-19)
(0.982667 0.186738 -3.23858e-20)
(0.982879 0.18655 -4.57138e-20)
(0.983064 0.186358 -1.39284e-19)
(0.983218 0.186163 2.81287e-19)
(0.983336 0.185968 -5.79321e-20)
(0.983418 0.185775 -4.92755e-20)
(0.983466 0.185584 -1.50708e-19)
(0.983481 0.185396 1.67797e-19)
(0.983468 0.185212 9.51942e-20)
(0.983431 0.185031 -4.33714e-20)
(0.983374 0.184852 7.73795e-20)
(0.983302 0.184674 -3.3078e-19)
(0.983219 0.184495 2.14029e-20)
(0.983127 0.184314 1.8693e-19)
(0.983031 0.184127 -3.581e-20)
(0.982932 0.183938 -5.98784e-19)
(0.982833 0.183742 5.01221e-20)
(0.982735 0.183544 5.44782e-19)
(0.98264 0.183339 -1.49342e-19)
(0.982549 0.183131 -2.89952e-19)
(0.982463 0.182906 1.75081e-19)
(0.982386 0.182645 5.10539e-19)
(0.982324 0.182339 1.1938e-18)
(0.982284 0.182013 -1.7943e-19)
(0.982262 0.18169 2.51913e-19)
(0.982258 0.181377 -1.79769e-18)
(0.98227 0.181078 -5.00724e-19)
(0.982301 0.180791 3.18371e-19)
(0.98235 0.180523 -1.31772e-18)
(0.982417 0.180279 -2.63963e-19)
(0.982501 0.180067 5.92598e-19)
(0.982599 0.179892 5.22563e-19)
(0.982708 0.179757 1.32614e-18)
(0.98282 0.179662 4.12194e-18)
(0.98293 0.179594 -3.14234e-18)
(0.983022 0.179535 4.86142e-18)
(0.983087 0.17945 3.43999e-18)
(0.983107 0.179298 -3.67665e-20)
(0.983075 0.17902 4.12124e-18)
(0.983005 0.178551 -5.18296e-18)
(0.982871 0.17784 -5.96775e-18)
(0.982809 0.176763 4.49426e-18)
(0.982927 0.17518 3.76206e-18)
(0.983439 0.173072 -1.61123e-18)
(0.98409 0.170509 -8.39632e-18)
(0.985491 0.167521 1.92197e-18)
(0.987341 0.163946 -2.15331e-18)
(0.988344 0.162434 -3.11982e-18)
(0.988 0.167031 2.81914e-18)
(0.980964 0.189573 -3.6254e-21)
(0.980815 0.189486 3.98665e-21)
(0.980697 0.189419 2.73254e-20)
(0.980621 0.189336 -3.58521e-20)
(0.980593 0.189244 6.56579e-20)
(0.980614 0.189143 -9.70314e-20)
(0.980684 0.189031 2.75827e-20)
(0.980802 0.188906 -1.39138e-21)
(0.98096 0.188769 6.24459e-20)
(0.98115 0.188619 -3.30826e-20)
(0.981361 0.188455 1.00054e-20)
(0.981584 0.18828 1.03644e-20)
(0.981806 0.188092 -1.62098e-19)
(0.982018 0.187894 4.82845e-20)
(0.982211 0.187688 1.14251e-19)
(0.982379 0.187474 3.83062e-21)
(0.982517 0.187257 -1.95692e-19)
(0.982623 0.187036 8.00522e-20)
(0.982698 0.186814 3.81666e-19)
(0.982742 0.186591 -2.49808e-19)
(0.982757 0.18637 -1.93726e-19)
(0.982748 0.186148 1.65087e-19)
(0.982717 0.185926 1.08947e-19)
(0.98267 0.185704 1.22727e-19)
(0.982608 0.185479 -2.37006e-19)
(0.982537 0.185249 -5.23104e-19)
(0.982459 0.185018 3.93684e-19)
(0.982376 0.184782 5.74827e-19)
(0.98229 0.184545 1.67205e-19)
(0.982204 0.184302 -3.20747e-19)
(0.982119 0.184057 1.50385e-19)
(0.982037 0.183798 2.60444e-19)
(0.98196 0.183503 -4.38195e-19)
(0.981896 0.183166 -6.09598e-20)
(0.981851 0.18281 -7.69302e-19)
(0.981821 0.182458 -2.01945e-19)
(0.981803 0.182117 -2.03523e-19)
(0.981795 0.181788 5.12951e-19)
(0.981799 0.18147 -7.20326e-19)
(0.981813 0.181165 1.98983e-19)
(0.981839 0.180878 3.46061e-19)
(0.981875 0.180617 9.32156e-20)
(0.98192 0.180383 -2.01743e-18)
(0.981973 0.180181 -2.77334e-18)
(0.98203 0.180007 -2.30435e-18)
(0.98209 0.17985 4.5917e-18)
(0.982143 0.179691 3.11627e-19)
(0.982189 0.179492 -1.67246e-18)
(0.982216 0.179214 8.81894e-19)
(0.982227 0.178793 -5.13947e-18)
(0.98224 0.178164 2.334e-18)
(0.982232 0.177277 6.28213e-18)
(0.982332 0.176014 -1.86928e-19)
(0.982642 0.174244 -5.19263e-18)
(0.983355 0.171966 2.3234e-18)
(0.984204 0.16926 2.10315e-18)
(0.985756 0.166187 2.72882e-18)
(0.987904 0.162598 6.20584e-18)
(0.988971 0.160889 5.93095e-18)
(0.987692 0.165093 -6.50489e-18)
(0.980732 0.19074 -3.12981e-21)
(0.980531 0.190663 4.53772e-21)
(0.980351 0.190609 9.58005e-22)
(0.980203 0.190541 1.74878e-20)
(0.980094 0.190468 -2.66375e-20)
(0.980029 0.190386 -5.50912e-20)
(0.980011 0.190296 1.96521e-20)
(0.980043 0.190194 -2.67316e-20)
(0.980121 0.190079 5.80687e-20)
(0.980243 0.18995 -1.18439e-20)
(0.980399 0.189807 -3.93385e-20)
(0.980582 0.189648 3.2527e-20)
(0.980782 0.189473 5.35867e-20)
(0.980988 0.189284 1.49796e-19)
(0.981192 0.189081 -2.73274e-19)
(0.981383 0.188866 1.4074e-19)
(0.981555 0.188641 2.17719e-20)
(0.981703 0.188408 -1.41349e-19)
(0.981825 0.188168 -8.96939e-20)
(0.981918 0.187922 2.95749e-19)
(0.981983 0.187674 -3.13204e-19)
(0.982021 0.187421 9.37294e-20)
(0.982035 0.187166 -2.5852e-19)
(0.982027 0.186908 4.35101e-19)
(0.982002 0.186646 -8.91538e-20)
(0.981961 0.186379 -2.54163e-19)
(0.981909 0.18611 2.04545e-19)
(0.981849 0.185835 3.89052e-19)
(0.981781 0.185561 -3.69159e-19)
(0.98171 0.185282 2.27746e-19)
(0.981636 0.185002 -7.87281e-19)
(0.981561 0.184709 -8.85619e-20)
(0.981487 0.184383 3.4139e-19)
(0.981423 0.184018 -2.01253e-19)
(0.981376 0.183637 -4.10482e-19)
(0.981338 0.183259 -9.554e-19)
(0.981306 0.182893 1.19614e-18)
(0.981278 0.182536 -4.84809e-19)
(0.981253 0.182185 3.55102e-19)
(0.981233 0.181841 7.45733e-19)
(0.981216 0.181508 6.08821e-19)
(0.981203 0.181189 -3.55458e-19)
(0.981193 0.180886 1.21717e-18)
(0.981189 0.180599 2.25239e-18)
(0.981188 0.180325 -2.29644e-19)
(0.981195 0.180049 -2.86571e-18)
(0.981207 0.179754 -3.68902e-18)
(0.981228 0.179401 -2.57762e-19)
(0.981256 0.178949 2.76803e-18)
(0.981304 0.178336 -6.94065e-19)
(0.981391 0.177501 4.69294e-18)
(0.981502 0.176398 -6.64019e-18)
(0.981759 0.174923 -3.37113e-18)
(0.982257 0.172956 -1.63777e-18)
(0.983172 0.170512 -2.84332e-18)
(0.984224 0.167687 1.72277e-18)
(0.98594 0.164567 -2.11641e-18)
(0.988371 0.161031 -8.55261e-18)
(0.989563 0.159239 -9.50307e-18)
(0.987556 0.163262 3.59629e-18)
(0.980571 0.191751 -4.81327e-21)
(0.980337 0.191689 3.88972e-21)
(0.980114 0.191644 3.0963e-21)
(0.979912 0.191589 -2.22455e-20)
(0.979739 0.191528 2.30581e-20)
(0.979601 0.191462 -1.14599e-20)
(0.979505 0.191388 3.7546e-20)
(0.979455 0.191305 -5.61966e-20)
(0.979453 0.191211 3.12551e-21)
(0.979496 0.191104 4.36307e-21)