/*--------------------------------*- C++ -*----------------------------------*\
  =========                 |
  \\      /  F ield         | OpenFOAM: The Open Source CFD Toolbox
   \\    /   O peration     | Website:  https://openfoam.org
    \\  /    A nd           | Version:  6.0
     \\/     M anipulation  |
\*---------------------------------------------------------------------------*/
FoamFile
{
    version     2.0;
    format      ascii;
    class       volScalarField;
    location    "3.21";
    object      p;
}
// * * * * * * * * * * * * * * * * * * * * * * * * * * * * * * * * * * * * * //

dimensions      [0 2 -2 0 0 0 0];

internalField   nonuniform List<scalar> 
13500
(
0.097616
0.097659
0.097157
0.096769
0.095623
0.095378
0.094109
0.09511
0.095854
0.09949
0.12215
0.16396
0.097616
0.09766
0.097157
0.09677
0.095623
0.095379
0.094108
0.09511
0.09585
0.099551
0.12148
0.1589
0.097616
0.097661
0.097157
0.096771
0.095622
0.09538
0.094105
0.09511
0.095841
0.099595
0.1206
0.15441
0.097617
0.097662
0.097157
0.096773
0.095621
0.095381
0.094101
0.095108
0.095827
0.099614
0.11962
0.1509
0.097618
0.097664
0.097157
0.096775
0.09562
0.095383
0.094096
0.095106
0.095806
0.09962
0.11859
0.14793
0.09762
0.097667
0.097158
0.096778
0.095619
0.095384
0.094091
0.095103
0.095781
0.099613
0.11752
0.14528
0.097622
0.097669
0.09716
0.09678
0.095619
0.095385
0.094085
0.095098
0.09575
0.099592
0.11643
0.14288
0.097624
0.097672
0.097161
0.096783
0.095618
0.095386
0.094078
0.095093
0.095715
0.099558
0.11536
0.14067
0.097627
0.097676
0.097164
0.096786
0.095618
0.095387
0.094071
0.095087
0.095674
0.099511
0.11431
0.13863
0.097631
0.09768
0.097166
0.096789
0.095618
0.095387
0.094064
0.09508
0.095629
0.09945
0.11329
0.13673
0.097634
0.097684
0.097169
0.096793
0.095618
0.095388
0.094056
0.095072
0.095577
0.099376
0.11231
0.13494
0.097639
0.097689
0.097172
0.096797
0.095618
0.095389
0.094047
0.095062
0.095521
0.099291
0.11137
0.13325
0.097643
0.097694
0.097176
0.096801
0.095618
0.095389
0.094037
0.095052
0.095459
0.099195
0.11048
0.13165
0.097648
0.097699
0.09718
0.096805
0.095619
0.095389
0.094027
0.095041
0.095392
0.09909
0.10962
0.13014
0.097654
0.097705
0.097184
0.09681
0.09562
0.09539
0.094017
0.095028
0.095319
0.098978
0.10881
0.12869
0.09766
0.097712
0.097189
0.096815
0.09562
0.09539
0.094005
0.095015
0.095241
0.098859
0.10803
0.12731
0.097667
0.097718
0.097194
0.09682
0.095621
0.09539
0.093993
0.095
0.095157
0.098736
0.10729
0.12598
0.097674
0.097725
0.0972
0.096825
0.095623
0.09539
0.093981
0.094984
0.095068
0.09861
0.10658
0.12471
0.097681
0.097733
0.097206
0.096831
0.095624
0.095389
0.093968
0.094967
0.094973
0.098481
0.1059
0.12349
0.097689
0.097741
0.097213
0.096837
0.095625
0.095389
0.093954
0.094949
0.094874
0.098351
0.10523
0.12231
0.097698
0.09775
0.09722
0.096843
0.095627
0.095389
0.09394
0.09493
0.094769
0.098221
0.1046
0.12118
0.097707
0.097759
0.097227
0.09685
0.095629
0.095388
0.093926
0.094909
0.09466
0.098091
0.10397
0.12008
0.097716
0.097768
0.097235
0.096857
0.095631
0.095388
0.09391
0.094887
0.094547
0.097962
0.10337
0.11901
0.097726
0.097778
0.097243
0.096864
0.095633
0.095387
0.093894
0.094863
0.094429
0.097835
0.10277
0.11797
0.097736
0.097788
0.097252
0.096872
0.095636
0.095386
0.093878
0.094838
0.094308
0.097709
0.10219
0.11696
0.097747
0.097799
0.097261
0.096879
0.095638
0.095385
0.093861
0.094812
0.094184
0.097585
0.10162
0.11598
0.097759
0.09781
0.09727
0.096888
0.095641
0.095384
0.093844
0.094784
0.094056
0.097462
0.10106
0.11502
0.097771
0.097822
0.09728
0.096896
0.095644
0.095383
0.093826
0.094754
0.093926
0.097342
0.1005
0.11408
0.097783
0.097834
0.097291
0.096905
0.095648
0.095382
0.093807
0.094723
0.093793
0.097222
0.099949
0.11316
0.097796
0.097847
0.097302
0.096914
0.095651
0.09538
0.093788
0.094691
0.093658
0.097104
0.099404
0.11226
0.09781
0.09786
0.097313
0.096923
0.095655
0.095379
0.093768
0.094657
0.093522
0.096988
0.098864
0.11138
0.097824
0.097874
0.097325
0.096933
0.095659
0.095377
0.093748
0.094622
0.093385
0.096871
0.098328
0.11052
0.097839
0.097888
0.097337
0.096943
0.095663
0.095375
0.093727
0.094585
0.093246
0.096756
0.097797
0.10968
0.097854
0.097902
0.09735
0.096953
0.095667
0.095374
0.093706
0.094547
0.093107
0.09664
0.097271
0.10885
0.09787
0.097918
0.097364
0.096964
0.095672
0.095372
0.093684
0.094507
0.092967
0.096524
0.096749
0.10803
0.097886
0.097933
0.097377
0.096975
0.095677
0.09537
0.093662
0.094466
0.092828
0.096408
0.096232
0.10723
0.097903
0.097949
0.097392
0.096986
0.095682
0.095367
0.093639
0.094423
0.092688
0.096292
0.095719
0.10645
0.09792
0.097966
0.097407
0.096998
0.095687
0.095365
0.093615
0.09438
0.092548
0.096174
0.095211
0.10568
0.097938
0.097983
0.097422
0.09701
0.095693
0.095363
0.093591
0.094335
0.092409
0.096055
0.094708
0.10492
0.097957
0.098001
0.097438
0.097022
0.095698
0.09536
0.093566
0.094289
0.09227
0.095934
0.094211
0.10418
0.097976
0.098019
0.097454
0.097035
0.095705
0.095357
0.093541
0.094243
0.092132
0.095812
0.093719
0.10345
0.097996
0.098038
0.097471
0.097048
0.095711
0.095355
0.093515
0.094195
0.091994
0.095688
0.093233
0.10273
0.098016
0.098058
0.097489
0.097062
0.095718
0.095352
0.093489
0.094147
0.091857
0.095562
0.092753
0.10203
0.098037
0.098078
0.097507
0.097076
0.095725
0.095349
0.093461
0.094098
0.091721
0.095434
0.092278
0.10134
0.098059
0.098098
0.097525
0.09709
0.095732
0.095346
0.093434
0.094049
0.091585
0.095304
0.091811
0.10067
0.098081
0.098119
0.097544
0.097104
0.095739
0.095342
0.093405
0.093999
0.09145
0.095171
0.091349
0.1
0.098103
0.098141
0.097564
0.097119
0.095747
0.095339
0.093377
0.09395
0.091316
0.095037
0.090895
0.099349
0.098127
0.098163
0.097584
0.097135
0.095755
0.095336
0.093347
0.0939
0.091182
0.0949
0.090447
0.098709
0.098151
0.098186
0.097604
0.09715
0.095764
0.095332
0.093317
0.09385
0.091049
0.094761
0.090006
0.09808
0.098175
0.098209
0.097626
0.097166
0.095773
0.095328
0.093286
0.0938
0.090916
0.094619
0.089571
0.097464
0.0982
0.098233
0.097647
0.097183
0.095782
0.095325
0.093255
0.09375
0.090783
0.094475
0.089144
0.096858
0.098226
0.098257
0.09767
0.097199
0.095791
0.095321
0.093223
0.093701
0.090651
0.094329
0.088724
0.096264
0.098253
0.098282
0.097693
0.097217
0.095801
0.095317
0.093191
0.093652
0.090519
0.094181
0.08831
0.095681
0.09828
0.098308
0.097716
0.097234
0.095811
0.095313
0.093158
0.093603
0.090386
0.094031
0.087904
0.095109
0.098308
0.098334
0.09774
0.097252
0.095822
0.095308
0.093125
0.093555
0.090254
0.093879
0.087505
0.094547
0.098336
0.098361
0.097765
0.097271
0.095832
0.095304
0.093091
0.093508
0.090122
0.093725
0.087112
0.093995
0.098365
0.098389
0.09779
0.09729
0.095843
0.0953
0.093057
0.093461
0.089989
0.093568
0.086726
0.093453
0.098395
0.098417
0.097816
0.097309
0.095855
0.095295
0.093023
0.093415
0.089857
0.09341
0.086347
0.092921
0.098425
0.098445
0.097842
0.097328
0.095867
0.095291
0.092988
0.093369
0.089724
0.093251
0.085974
0.092398
0.098456
0.098475
0.097869
0.097348
0.095879
0.095287
0.092953
0.093325
0.089591
0.093089
0.085608
0.091884
0.098488
0.098505
0.097897
0.097369
0.095892
0.095282
0.092917
0.09328
0.089457
0.092926
0.085248
0.091379
0.09852
0.098535
0.097925
0.09739
0.095905
0.095278
0.092881
0.093237
0.089323
0.092762
0.084895
0.090883
0.098553
0.098566
0.097954
0.097411
0.095918
0.095273
0.092845
0.093194
0.089188
0.092596
0.084547
0.090395
0.098587
0.098598
0.097983
0.097433
0.095932
0.095268
0.092809
0.093152
0.089054
0.092429
0.084206
0.089916
0.098621
0.098631
0.098014
0.097455
0.095946
0.095264
0.092772
0.09311
0.088918
0.09226
0.08387
0.089444
0.098656
0.098664
0.098044
0.097478
0.09596
0.095259
0.092735
0.093069
0.088783
0.09209
0.08354
0.08898
0.098692
0.098698
0.098076
0.097501
0.095975
0.095255
0.092698
0.093028
0.088647
0.091919
0.083215
0.088523
0.098728
0.098732
0.098108
0.097524
0.09599
0.095251
0.092661
0.092988
0.08851
0.091747
0.082896
0.088074
0.098766
0.098768
0.09814
0.097548
0.096006
0.095247
0.092624
0.092949
0.088374
0.091574
0.082582
0.087632
0.098804
0.098804
0.098173
0.097573
0.096022
0.095242
0.092587
0.092909
0.088237
0.0914
0.082274
0.087196
0.098842
0.09884
0.098207
0.097598
0.096038
0.095239
0.092549
0.09287
0.0881
0.091225
0.08197
0.086767
0.098881
0.098877
0.098242
0.097623
0.096055
0.095235
0.092512
0.092831
0.087963
0.09105
0.081671
0.086345
0.098921
0.098915
0.098277
0.097649
0.096072
0.095231
0.092474
0.092792
0.087825
0.090873
0.081377
0.085928
0.098962
0.098954
0.098313
0.097676
0.09609
0.095228
0.092437
0.092754
0.087688
0.090696
0.081087
0.085518
0.099004
0.098993
0.09835
0.097702
0.096108
0.095225
0.092399
0.092715
0.087551
0.090519
0.080802
0.085113
0.099046
0.099033
0.098387
0.09773
0.096126
0.095222
0.092362
0.092677
0.087413
0.09034
0.080521
0.084715
0.099089
0.099074
0.098425
0.097758
0.096145
0.095219
0.092324
0.092638
0.087276
0.090161
0.080245
0.084321
0.099133
0.099116
0.098463
0.097786
0.096164
0.095217
0.092287
0.092599
0.087139
0.089982
0.079972
0.083934
0.099177
0.099158
0.098502
0.097815
0.096184
0.095215
0.092249
0.09256
0.087003
0.089802
0.079704
0.083551
0.099223
0.099201
0.098542
0.097845
0.096204
0.095214
0.092212
0.092521
0.086866
0.089622
0.07944
0.083173
0.099269
0.099245
0.098583
0.097875
0.096224
0.095212
0.092174
0.092481
0.08673
0.089442
0.079179
0.082801
0.099315
0.099289
0.098624
0.097906
0.096244
0.095212
0.092137
0.092442
0.086595
0.089261
0.078923
0.082433
0.099363
0.099335
0.098666
0.097937
0.096265
0.095211
0.092099
0.092401
0.08646
0.08908
0.07867
0.08207
0.099411
0.099381
0.098709
0.097969
0.096287
0.095212
0.092062
0.092361
0.086326
0.088899
0.07842
0.081712
0.099461
0.099427
0.098753
0.098001
0.096309
0.095212
0.092024
0.092319
0.086192
0.088718
0.078174
0.081358
0.099511
0.099475
0.098797
0.098034
0.096331
0.095213
0.091987
0.092278
0.086059
0.088536
0.077932
0.081008
0.099561
0.099524
0.098842
0.098068
0.096353
0.095215
0.091949
0.092236
0.085926
0.088355
0.077693
0.080662
0.099613
0.099573
0.098887
0.098102
0.096376
0.095217
0.091912
0.092193
0.085795
0.088173
0.077457
0.080321
0.099665
0.099623
0.098934
0.098137
0.096399
0.09522
0.091874
0.092149
0.085664
0.087991
0.077224
0.079984
0.099719
0.099674
0.098981
0.098173
0.096423
0.095223
0.091837
0.092106
0.085534
0.08781
0.076995
0.07965
0.099773
0.099726
0.099029
0.098209
0.096447
0.095227
0.0918
0.092061
0.085405
0.087628
0.076769
0.079321
0.099828
0.099778
0.099078
0.098246
0.096471
0.095231
0.091762
0.092016
0.085276
0.087447
0.076545
0.078995
0.099884
0.099832
0.099127
0.098284
0.096496
0.095236
0.091725
0.09197
0.085149
0.087265
0.076325
0.078672
0.099941
0.099886
0.099177
0.098322
0.096521
0.095242
0.091688
0.091923
0.085022
0.087084
0.076107
0.078353
0.099998
0.099942
0.099228
0.098361
0.096547
0.095248
0.091651
0.091876
0.084897
0.086902
0.075892
0.078038
0.10006
0.099998
0.09928
0.098401
0.096573
0.095255
0.091614
0.091828
0.084772
0.086721
0.07568
0.077726
0.10012
0.10006
0.099333
0.098442
0.096599
0.095262
0.091577
0.09178
0.084648
0.08654
0.075471
0.077417
0.10018
0.10011
0.099386
0.098483
0.096626
0.09527
0.09154
0.09173
0.084526
0.086359
0.075264
0.077111
0.10024
0.10017
0.099441
0.098526
0.096653
0.095279
0.091504
0.09168
0.084404
0.086178
0.075059
0.076808
0.1003
0.10023
0.099496
0.098569
0.09668
0.095288
0.091467
0.091629
0.084283
0.085998
0.074857
0.076508
0.10036
0.10029
0.099552
0.098613
0.096708
0.095298
0.091431
0.091578
0.084163
0.085818
0.074658
0.076211
0.10043
0.10036
0.099609
0.098658
0.096737
0.095309
0.091395
0.091526
0.084044
0.085637
0.074461
0.075917
0.10049
0.10042
0.099667
0.098703
0.096765
0.095321
0.091359
0.091473
0.083927
0.085457
0.074266
0.075626
0.10056
0.10048
0.099726
0.09875
0.096795
0.095333
0.091323
0.091419
0.08381
0.085278
0.074073
0.075337
0.10063
0.10055
0.099786
0.098798
0.096825
0.095346
0.091288
0.091365
0.083694
0.085098
0.073882
0.07505
0.1007
0.10062
0.099846
0.098846
0.096855
0.095359
0.091252
0.09131
0.083579
0.084919
0.073694
0.074766
0.10077
0.10068
0.099908
0.098896
0.096886
0.095373
0.091218
0.091254
0.083465
0.08474
0.073507
0.074484
0.10084
0.10075
0.099971
0.098946
0.096917
0.095388
0.091183
0.091198
0.083352
0.084561
0.073323
0.074205
0.10091
0.10082
0.10003
0.098998
0.096949
0.095404
0.091149
0.091141
0.083239
0.084382
0.07314
0.073928
0.10098
0.10089
0.1001
0.09905
0.096981
0.09542
0.091115
0.091083
0.083128
0.084204
0.072959
0.073652
0.10106
0.10097
0.10017
0.099104
0.097014
0.095438
0.091082
0.091025
0.083018
0.084026
0.07278
0.073379
0.10113
0.10104
0.10023
0.099159
0.097048
0.095456
0.091049
0.090966
0.082908
0.083848
0.072602
0.073108
0.10121
0.10111
0.1003
0.099215
0.097082
0.095474
0.091016
0.090907
0.0828
0.08367
0.072426
0.072839
0.10129
0.10119
0.10037
0.099272
0.097117
0.095494
0.090984
0.090847
0.082692
0.083492
0.072252
0.072571
0.10137
0.10127
0.10044
0.099331
0.097153
0.095514
0.090953
0.090786
0.082585
0.083315
0.072079
0.072305
0.10145
0.10135
0.10051
0.099391
0.097189
0.095535
0.090922
0.090725
0.082479
0.083138
0.071908
0.07204
0.10153
0.10143
0.10059
0.099452
0.097227
0.095557
0.090892
0.090664
0.082374
0.08296
0.071738
0.071778
0.10161
0.10151
0.10066
0.099514
0.097265
0.09558
0.090862
0.090601
0.08227
0.082784
0.071569
0.071516
0.1017
0.1016
0.10074
0.099578
0.097304
0.095604
0.090833
0.090539
0.082166
0.082607
0.071402
0.071256
0.10179
0.10168
0.10081
0.099644
0.097344
0.095629
0.090805
0.090476
0.082063
0.08243
0.071236
0.070997
0.10187
0.10177
0.10089
0.099711
0.097385
0.095655
0.090778
0.090413
0.081962
0.082254
0.071071
0.070739
0.10196
0.10186
0.10097
0.099779
0.097427
0.095681
0.090751
0.090349
0.08186
0.082077
0.070907
0.070483
0.10206
0.10195
0.10106
0.099849
0.09747
0.095709
0.090725
0.090285
0.08176
0.081901
0.070743
0.070227
0.10215
0.10204
0.10114
0.099921
0.097514
0.095738
0.0907
0.090221
0.08166
0.081725
0.070581
0.069972
0.10225
0.10214
0.10122
0.099995
0.09756
0.095768
0.090677
0.090156
0.081562
0.081549
0.07042
0.069718
0.10234
0.10224
0.10131
0.10007
0.097607
0.095799
0.090654
0.090091
0.081464
0.081373
0.07026
0.069465
0.10244
0.10233
0.1014
0.10015
0.097655
0.095831
0.090632
0.090026
0.081366
0.081197
0.0701
0.069213
0.10255
0.10244
0.10149
0.10023
0.097705
0.095865
0.090611
0.089961
0.08127
0.081021
0.069941
0.068961
0.10265
0.10254
0.10159
0.10031
0.097756
0.095899
0.090592
0.089896
0.081174
0.080845
0.069782
0.068709
0.10276
0.10265
0.10168
0.10039
0.097808
0.095936
0.090574
0.089831
0.081079
0.080669
0.069624
0.068458
0.10287
0.10275
0.10178
0.10048
0.097863
0.095973
0.090557
0.089766
0.080985
0.080493
0.069467
0.068208
0.10298
0.10287
0.10188
0.10057
0.097919
0.096012
0.090542
0.089701
0.080892
0.080317
0.06931
0.067957
0.10309
0.10298
0.10198
0.10066
0.097978
0.096053
0.090528
0.089637
0.080799
0.080141
0.069153
0.067707
0.10321
0.1031
0.10209
0.10075
0.098038
0.096095
0.090515
0.089572
0.080708
0.079966
0.068997
0.067456
0.10333
0.10322
0.1022
0.10084
0.0981
0.096139
0.090504
0.089508
0.080617
0.07979
0.068841
0.067206
0.10345
0.10334
0.10231
0.10094
0.098165
0.096184
0.090495
0.089444
0.080527
0.079614
0.068685
0.066956
0.10358
0.10347
0.10242
0.10104
0.098232
0.096232
0.090488
0.089381
0.080438
0.079438
0.068529
0.066705
0.1037
0.10359
0.10254
0.10115
0.098301
0.096282
0.090483
0.089318
0.080349
0.079262
0.068373
0.066454
0.10384
0.10373
0.10266
0.10126
0.098373
0.096333
0.090479
0.089256
0.080262
0.079087
0.068217
0.066203
0.10397
0.10386
0.10278
0.10137
0.098448
0.096387
0.090478
0.089195
0.080176
0.078911
0.068061
0.065951
0.10411
0.104
0.10291
0.10148
0.098525
0.096443
0.090479
0.089134
0.08009
0.078735
0.067905
0.065698
0.10425
0.10415
0.10304
0.1016
0.098606
0.096502
0.090483
0.089074
0.080006
0.078559
0.067749
0.065445
0.1044
0.10429
0.10318
0.10172
0.09869
0.096563
0.090488
0.089016
0.079923
0.078383
0.067593
0.065191
0.10455
0.10445
0.10331
0.10185
0.098777
0.096626
0.090497
0.088958
0.079841
0.078207
0.067436
0.064936
0.10471
0.1046
0.10346
0.10197
0.098868
0.096693
0.090508
0.088902
0.07976
0.078031
0.067278
0.06468
0.10487
0.10476
0.10361
0.10211
0.098963
0.096762
0.090522
0.088847
0.07968
0.077856
0.067121
0.064423
0.10503
0.10493
0.10376
0.10225
0.099062
0.096835
0.090539
0.088793
0.079602
0.07768
0.066962
0.064165
0.1052
0.1051
0.10391
0.10239
0.099164
0.096911
0.090559
0.088742
0.079525
0.077504
0.066804
0.063905
0.10537
0.10528
0.10408
0.10254
0.099271
0.09699
0.090582
0.088691
0.079449
0.077328
0.066644
0.063644
0.10555
0.10546
0.10424
0.10269
0.099383
0.097073
0.090609
0.088643
0.079375
0.077153
0.066484
0.063381
0.10573
0.10564
0.10442
0.10285
0.099499
0.097159
0.09064
0.088597
0.079302
0.076977
0.066323
0.063117
0.10592
0.10584
0.10459
0.10301
0.09962
0.09725
0.090674
0.088552
0.079231
0.076802
0.066161
0.062851
0.10612
0.10604
0.10478
0.10318
0.099747
0.097345
0.090712
0.08851
0.079162
0.076627
0.065999
0.062583
0.10632
0.10624
0.10497
0.10336
0.099879
0.097444
0.090755
0.088471
0.079094
0.076452
0.065835
0.062313
0.10653
0.10645
0.10517
0.10354
0.10002
0.097547
0.090801
0.088434
0.079028
0.076277
0.06567
0.062041
0.10674
0.10667
0.10537
0.10373
0.10016
0.097656
0.090853
0.0884
0.078964
0.076102
0.065505
0.061766
0.10697
0.1069
0.10558
0.10392
0.10031
0.097769
0.090909
0.088368
0.078902
0.075928
0.065338
0.061489
0.10719
0.10713
0.1058
0.10413
0.10047
0.097888
0.090969
0.08834
0.078842
0.075753
0.065169
0.06121
0.10743
0.10737
0.10602
0.10434
0.10063
0.098012
0.091035
0.088315
0.078784
0.075579
0.065
0.060928
0.10767
0.10762
0.10626
0.10455
0.1008
0.098142
0.091106
0.088293
0.078729
0.075406
0.064829
0.060642
0.10792
0.10787
0.1065
0.10478
0.10098
0.098278
0.091183
0.088275
0.078676
0.075232
0.064656
0.060354
0.10818
0.10814
0.10675
0.10501
0.10116
0.09842
0.091266
0.08826
0.078625
0.075059
0.064482
0.060063
0.10845
0.10841
0.10701
0.10525
0.10136
0.098568
0.091354
0.088249
0.078576
0.074886
0.064306
0.059768
0.10873
0.10869
0.10727
0.1055
0.10156
0.098723
0.091449
0.088242
0.07853
0.074713
0.064128
0.05947
0.10901
0.10899
0.10755
0.10576
0.10177
0.098885
0.091549
0.088239
0.078487
0.074541
0.063948
0.059168
0.10931
0.10929
0.10784
0.10603
0.10199
0.099054
0.091657
0.088241
0.078446
0.074368
0.063766
0.058861
0.10961
0.1096
0.10813
0.10631
0.10221
0.099231
0.091771
0.088247
0.078408
0.074196
0.063582
0.058551
0.10992
0.10992
0.10844
0.1066
0.10245
0.099415
0.091892
0.088257
0.078372
0.074024
0.063395
0.058236
0.11025
0.11025
0.10876
0.1069
0.1027
0.099608
0.09202
0.088272
0.07834
0.073853
0.063206
0.057917
0.11058
0.11059
0.10908
0.10721
0.10295
0.099808
0.092156
0.088292
0.07831
0.073681
0.063014
0.057593
0.11092
0.11095
0.10942
0.10753
0.10322
0.10002
0.092299
0.088317
0.078283
0.073509
0.062819
0.057263
0.11128
0.11131
0.10978
0.10787
0.1035
0.10023
0.09245
0.088347
0.078258
0.073337
0.062621
0.056928
0.11165
0.11169
0.11014
0.10821
0.10379
0.10046
0.092608
0.088382
0.078236
0.073165
0.062419
0.056587
0.11202
0.11208
0.11051
0.10857
0.10409
0.1007
0.092775
0.088422
0.078217
0.072993
0.062214
0.05624
0.11241
0.11248
0.1109
0.10894
0.1044
0.10094
0.09295
0.088467
0.078201
0.072819
0.062005
0.055886
0.11282
0.11289
0.1113
0.10932
0.10473
0.1012
0.093133
0.088517
0.078187
0.072646
0.061792
0.055526
0.11323
0.11332
0.11172
0.10971
0.10507
0.10146
0.093324
0.088573
0.078176
0.072471
0.061574
0.055158
0.11366
0.11376
0.11214
0.11012
0.10542
0.10174
0.093524
0.088634
0.078167
0.072295
0.061352
0.054783
0.11409
0.11422
0.11259
0.11054
0.10578
0.10202
0.093733
0.088699
0.07816
0.072118
0.061124
0.0544
0.11455
0.11468
0.11304
0.11097
0.10615
0.10232
0.09395
0.08877
0.078155
0.071939
0.06089
0.054008
0.11501
0.11516
0.11351
0.11142
0.10654
0.10262
0.094177
0.088846
0.078151
0.071758
0.060651
0.053606
0.11549
0.11566
0.114
0.11188
0.10695
0.10294
0.094412
0.088927
0.07815
0.071574
0.060404
0.053195
0.11598
0.11617
0.1145
0.11236
0.10736
0.10327
0.094656
0.089013
0.078149
0.071388
0.060151
0.052774
0.11649
0.1167
0.11501
0.11285
0.1078
0.1036
0.094908
0.089104
0.078149
0.071199
0.05989
0.052342
0.11701
0.11724
0.11555
0.11336
0.10824
0.10396
0.09517
0.089198
0.07815
0.071006
0.059621
0.051899
0.11755
0.11779
0.1161
0.11388
0.1087
0.10432
0.095441
0.089298
0.078151
0.070808
0.059343
0.051443
0.1181
0.11837
0.11666
0.11442
0.10918
0.10469
0.095721
0.089401
0.078152
0.070606
0.059055
0.050975
0.11867
0.11896
0.11725
0.11498
0.10967
0.10508
0.09601
0.089508
0.078153
0.070399
0.058757
0.050492
0.11926
0.11956
0.11785
0.11556
0.11018
0.10547
0.096308
0.089619
0.078152
0.070186
0.058449
0.049996
0.11986
0.12019
0.11847
0.11615
0.11071
0.10588
0.096615
0.089733
0.07815
0.069966
0.058128
0.049484
0.12048
0.12083
0.11911
0.11676
0.11125
0.10631
0.096931
0.08985
0.078146
0.069739
0.057795
0.048956
0.12111
0.1215
0.11977
0.11739
0.11182
0.10674
0.097256
0.08997
0.078139
0.069505
0.057449
0.04841
0.12177
0.12218
0.12045
0.11804
0.1124
0.10719
0.09759
0.090093
0.078129
0.069261
0.057088
0.047847
0.12245
0.12288
0.12116
0.11871
0.113
0.10766
0.097935
0.090219
0.078116
0.069008
0.056712
0.047265
0.12314
0.12361
0.12189
0.1194
0.11362
0.10813
0.098288
0.090346
0.078099
0.068745
0.056319
0.046662
0.12386
0.12436
0.12264
0.12011
0.11426
0.10863
0.098652
0.090476
0.078077
0.068471
0.05591
0.046038
0.1246
0.12513
0.12342
0.12085
0.11493
0.10914
0.099026
0.090607
0.07805
0.068185
0.055482
0.045392
0.12537
0.12593
0.12423
0.12162
0.11562
0.10967
0.099411
0.090741
0.078017
0.067887
0.055035
0.044722
0.12616
0.12676
0.12507
0.12241
0.11633
0.11021
0.099806
0.090876
0.077978
0.067575
0.054567
0.044027
0.12698
0.12762
0.12594
0.12324
0.11708
0.11078
0.10021
0.091013
0.077933
0.067249
0.054078
0.043306
0.12783
0.12851
0.12684
0.1241
0.11785
0.11136
0.10063
0.091152
0.07788
0.066907
0.053566
0.042557
0.12872
0.12944
0.12778
0.12499
0.11865
0.11197
0.10107
0.091293
0.077819
0.066549
0.05303
0.041779
0.12964
0.13041
0.12877
0.12592
0.11949
0.1126
0.10151
0.091436
0.077751
0.066174
0.052469
0.040971
0.1306
0.13141
0.12979
0.12689
0.12036
0.11326
0.10198
0.091582
0.077673
0.065781
0.051881
0.04013
0.13159
0.13246
0.13087
0.12791
0.12128
0.11395
0.10246
0.091729
0.077586
0.065369
0.051265
0.039255
0.13264
0.13356
0.13199
0.12898
0.12224
0.11467
0.10295
0.091879
0.077489
0.064936
0.050619
0.038344
0.13373
0.13472
0.13317
0.1301
0.12324
0.11542
0.10346
0.092032
0.07738
0.064481
0.049942
0.037395
0.13487
0.13593
0.13442
0.13127
0.12429
0.1162
0.104
0.092186
0.07726
0.064002
0.049231
0.036407
0.13607
0.1372
0.13572
0.13251
0.1254
0.11703
0.10455
0.092343
0.077125
0.063497
0.048484
0.035377
0.13732
0.13853
0.1371
0.13382
0.12656
0.11789
0.10512
0.092501
0.076975
0.062965
0.047699
0.034301
0.13864
0.13994
0.13856
0.1352
0.12779
0.1188
0.10572
0.09266
0.076808
0.062402
0.046873
0.033179
0.14002
0.14142
0.14009
0.13666
0.12908
0.11976
0.10633
0.092818
0.07662
0.061805
0.046002
0.032006
0.14148
0.14299
0.14171
0.1382
0.13044
0.12076
0.10697
0.092974
0.076409
0.06117
0.045083
0.030779
0.14301
0.14464
0.14342
0.13983
0.13187
0.12181
0.10763
0.093124
0.076169
0.060492
0.04411
0.029494
0.14461
0.14638
0.14524
0.14156
0.13338
0.12291
0.1083
0.093265
0.075897
0.059767
0.043078
0.028146
0.14629
0.14821
0.14715
0.14338
0.13496
0.12406
0.10899
0.093394
0.075587
0.058987
0.041982
0.02673
0.14805
0.15015
0.14917
0.14531
0.13663
0.12526
0.1097
0.093504
0.07523
0.058145
0.040813
0.025241
0.1499
0.15218
0.15131
0.14735
0.13839
0.12652
0.11041
0.093589
0.07482
0.057232
0.039563
0.02367
0.15183
0.15433
0.15356
0.1495
0.14023
0.12782
0.11113
0.093642
0.074346
0.05624
0.038224
0.022011
0.15384
0.15658
0.15594
0.15177
0.14215
0.12916
0.11184
0.093653
0.073799
0.055157
0.036785
0.020253
0.15593
0.15895
0.15845
0.15416
0.14417
0.13055
0.11255
0.093613
0.073167
0.053973
0.035236
0.018388
0.15811
0.16144
0.1611
0.15669
0.14627
0.13198
0.11323
0.093509
0.072437
0.052674
0.033564
0.016404
0.16037
0.16406
0.16389
0.15935
0.14847
0.13344
0.11388
0.093329
0.071595
0.051247
0.031756
0.014289
0.16272
0.1668
0.16684
0.16215
0.15076
0.13492
0.11449
0.093057
0.070625
0.049679
0.029801
0.012032
0.16515
0.16968
0.16995
0.1651
0.15314
0.13641
0.11504
0.092675
0.06951
0.047954
0.027683
0.0096194
0.16766
0.17272
0.17325
0.16822
0.15561
0.13792
0.11552
0.092164
0.068232
0.046055
0.025391
0.0070402
0.17027
0.17591
0.17676
0.17151
0.15818
0.13941
0.1159
0.091499
0.066768
0.043966
0.022908
0.0042821
0.17296
0.17929
0.1805
0.175
0.16085
0.14088
0.11616
0.090653
0.065093
0.041665
0.020219
0.0013335
0.17575
0.18287
0.1845
0.1787
0.16361
0.14231
0.11626
0.08959
0.063176
0.039128
0.017307
-0.0018166
0.17863
0.18667
0.18879
0.18263
0.16646
0.14367
0.11618
0.088267
0.060979
0.036326
0.014152
-0.0051798
0.1816
0.19073
0.19342
0.18681
0.16939
0.14491
0.11584
0.08663
0.058454
0.033221
0.010726
-0.0087691
0.18465
0.19507
0.19842
0.19126
0.17238
0.14599
0.11519
0.084612
0.055545
0.029769
0.0070004
-0.0126
0.18775
0.1997
0.20383
0.19598
0.17537
0.14683
0.11415
0.082133
0.052182
0.025915
0.0029361
-0.01669
0.19085
0.20465
0.20966
0.20095
0.17831
0.14733
0.11261
0.079098
0.048287
0.021598
-0.0015102
-0.021062
0.19389
0.20989
0.21591
0.20613
0.1811
0.14738
0.11044
0.075399
0.043774
0.016752
-0.0063841
-0.025739
0.19676
0.2154
0.22256
0.21143
0.18359
0.1468
0.10749
0.070921
0.038557
0.011315
-0.011727
-0.030741
0.1993
0.22111
0.22952
0.21671
0.18558
0.14541
0.10361
0.065541
0.032557
0.0052391
-0.017565
-0.036076
0.20132
0.22687
0.23663
0.22173
0.1868
0.14295
0.098602
0.059145
0.025712
-0.0014992
-0.023899
-0.04173
0.20258
0.23246
0.24358
0.22611
0.18688
0.13912
0.092271
0.051625
0.017985
-0.0088891
-0.030689
-0.047654
0.2028
0.23753
0.24986
0.22929
0.18532
0.13358
0.084418
0.042899
0.009372
-0.016881
-0.037856
-0.053762
0.20168
0.24145
0.25459
0.23037
0.18145
0.12592
0.074852
0.032918
-9.1632e-05
-0.025388
-0.04528
-0.059931
0.19898
0.24327
0.25629
0.228
0.17436
0.11568
0.06342
0.021688
-0.010323
-0.03429
-0.052818
-0.066019
0.19457
0.24145
0.25261
0.22013
0.16281
0.10234
0.050033
0.0093075
-0.021171
-0.043431
-0.060315
-0.071889
0.18859
0.23369
0.24
0.20386
0.14521
0.085342
0.034691
-0.00401
-0.032388
-0.052607
-0.067612
-0.077424
0.18174
0.21707
0.21372
0.17539
0.11954
0.064023
0.017429
-0.017976
-0.043659
-0.061572
-0.07455
-0.082546
0.17536
0.18862
0.1688
0.13063
0.083651
0.037608
-0.001813
-0.03236
-0.054687
-0.070091
-0.080995
-0.087215
0.17088
0.14554
0.10177
0.066759
0.035735
0.0052367
-0.02333
-0.047167
-0.065357
-0.078046
-0.086892
-0.091464
0.17003
0.082482
0.0083685
-0.018589
-0.02612
-0.03458
-0.048087
-0.062975
-0.076023
-0.085686
-0.092464
-0.095555
0.18521
0.0041277
-0.10804
-0.12226
-0.10103
-0.082768
-0.077553
-0.081188
-0.087889
-0.094012
-0.098555
-0.10025
0.22861
-0.0691
-0.22558
-0.22577
-0.17633
-0.13261
-0.109
-0.10106
-0.10101
-0.10329
-0.10547
-0.10571
0.10268
0.063278
0.053152
0.047113
0.042947
0.039833
0.037349
0.035222
0.033411
0.031582
0.030138
0.027742
0.122
0.078498
0.06592
0.057888
0.052407
0.04836
0.045164
0.042447
0.040157
0.037846
0.036078
0.033278
0.10934
0.073404
0.062022
0.05412
0.04871
0.044735
0.041614
0.038975
0.036776
0.034548
0.032907
0.030188
0.10427
0.073059
0.062008
0.054016
0.04847
0.044382
0.041175
0.038467
0.036227
0.033952
0.03231
0.029466
0.10361
0.075196
0.063987
0.055779
0.049988
0.045694
0.042319
0.03947
0.037119
0.034732
0.033021
0.030019
0.10293
0.076978
0.065698
0.057357
0.051368
0.046897
0.043373
0.040397
0.037945
0.03546
0.033681
0.030565
0.10178
0.078228
0.067024
0.058633
0.052498
0.047881
0.044231
0.041147
0.038608
0.036043
0.034204
0.031019
0.10057
0.079249
0.06821
0.059821
0.053572
0.048826
0.04506
0.041877
0.039255
0.036625
0.034728
0.031512
0.099422
0.080126
0.069322
0.060979
0.054646
0.049786
0.045912
0.042634
0.039933
0.037246
0.035296
0.032087
0.098332
0.080853
0.070346
0.062093
0.055711
0.050756
0.046782
0.043417
0.040641
0.037908
0.03591
0.032745
0.097277
0.081428
0.071272
0.063151
0.056755
0.051726
0.047666
0.044223
0.041378
0.03861
0.036569
0.033483
0.096253
0.081866
0.072097
0.064143
0.057769
0.05269
0.04856
0.04505
0.042142
0.039349
0.037274
0.034297
0.095261
0.082181
0.072821
0.065063
0.058743
0.053639
0.049456
0.045891
0.042931
0.040124
0.038022
0.035178
0.094305
0.082391
0.073447
0.065906
0.059668
0.054564
0.050346
0.04674
0.043738
0.040927
0.038805
0.036114
0.093386
0.082509
0.073981
0.066671
0.060539
0.055456
0.051221
0.047588
0.044554
0.041749
0.039614
0.037086
0.092503
0.08255
0.074428
0.067358
0.061349
0.056307
0.052072
0.048427
0.04537
0.04258
0.040439
0.038079
0.091659
0.082527
0.074795
0.067968
0.062096
0.057112
0.052893
0.049247
0.046179
0.043411
0.041268
0.039073
0.090852
0.08245
0.075091
0.068505
0.06278
0.057868
0.053677
0.050043
0.046972
0.044232
0.04209
0.040052
0.090081
0.08233
0.075323
0.068974
0.063401
0.058572
0.05442
0.050808
0.047743
0.045035
0.042897
0.041002
0.089347
0.082174
0.075498
0.069381
0.063962
0.059223
0.055121
0.051538
0.048486
0.045813
0.043681
0.04191
0.088646
0.08199
0.075624
0.069729
0.064466
0.059823
0.055777
0.052231
0.049197
0.04656
0.044434
0.042767
0.087977
0.081783
0.075705
0.070025
0.064916
0.060372
0.056388
0.052885
0.049873
0.047272
0.045153
0.043568
0.087339
0.081557
0.075748
0.070273
0.065316
0.060874
0.056954
0.053497
0.050513
0.047945
0.045834
0.044308
0.086729
0.081318
0.075758
0.070478
0.065668
0.061329
0.057478
0.05407
0.051114
0.048579
0.046475
0.044986
0.086145
0.081067
0.07574
0.070644
0.065978
0.061741
0.05796
0.054603
0.051678
0.049172
0.047075
0.045603
0.085585
0.080808
0.075696
0.070776
0.066249
0.062112
0.058403
0.055097
0.052205
0.049724
0.047634
0.046161
0.085048
0.080542
0.075631
0.070877
0.066483
0.062446
0.058808
0.055553
0.052695
0.050237
0.048154
0.046663
0.084532
0.080271
0.075548
0.070951
0.066685
0.062744
0.059178
0.055974
0.05315
0.050712
0.048636
0.047114
0.084035
0.079998
0.075449
0.071
0.066857
0.063011
0.059514
0.056361
0.053572
0.05115
0.049081
0.047518
0.083556
0.079722
0.075335
0.071027
0.067002
0.063247
0.05982
0.056716
0.053962
0.051553
0.049492
0.04788
0.083094
0.079445
0.07521
0.071035
0.067122
0.063455
0.060097
0.057041
0.054322
0.051923
0.049871
0.048205
0.082648
0.079167
0.075075
0.071025
0.06722
0.063639
0.060347
0.057337
0.054653
0.052264
0.05022