/*--------------------------------*- C++ -*----------------------------------*\
  =========                 |
  \\      /  F ield         | OpenFOAM: The Open Source CFD Toolbox
   \\    /   O peration     | Website:  https://openfoam.org
    \\  /    A nd           | Version:  6.0
     \\/     M anipulation  |
\*---------------------------------------------------------------------------*/
FoamFile
{
    version     2.0;
    format      ascii;
    class       surfaceScalarField;
    location    "2";
    object      phi;
}
// * * * * * * * * * * * * * * * * * * * * * * * * * * * * * * * * * * * * * //

dimensions      [0 3 -1 0 0 0 0];

internalField   nonuniform List<scalar> 
123526
(
8.34495e-05
2.25876e-05
-8.30844e-05
8.38589e-05
2.44158e-05
8.42956e-05
2.63886e-05
8.4773e-05
2.85195e-05
8.52824e-05
3.08209e-05
8.58393e-05
3.33062e-05
8.64353e-05
3.59899e-05
8.70851e-05
3.88875e-05
8.77832e-05
4.20148e-05
8.85431e-05
4.53915e-05
8.9361e-05
4.9037e-05
9.02484e-05
5.29713e-05
9.12066e-05
5.72168e-05
9.22471e-05
6.1795e-05
9.33759e-05
6.67329e-05
9.45988e-05
7.20608e-05
9.59234e-05
7.78053e-05
9.73634e-05
8.3992e-05
9.89263e-05
9.0661e-05
0.000100618
9.78479e-05
0.000102456
0.000105581
0.00010445
0.000113906
0.000106608
0.000122867
0.000108951
0.000132493
0.000111488
0.000142846
0.000114235
0.000153961
0.00011721
0.000165887
0.000120426
0.000178678
0.000123906
0.000192372
0.000127662
0.00020703
0.000131719
0.000222687
0.000136094
0.000239395
0.000140808
0.000257186
0.000145883
0.000276097
0.000151339
0.000296151
0.000157202
0.000317353
0.000163489
0.000339702
0.000170224
0.000363163
0.000177428
0.000387676
0.000185118
0.000413144
0.000193309
0.000439414
0.000202015
0.000466276
0.000211242
0.000493438
0.000220989
0.000520505
0.000231245
0.000546961
0.000241986
0.000572136
0.000253171
0.000595172
0.000264735
0.000614987
0.000276589
0.000630231
0.000288605
0.000639244
0.00030062
0.000640004
0.000312407
0.000630118
0.000323697
0.000606746
0.000334132
0.000566752
0.000343275
0.00050677
0.000350608
0.000423583
0.000355657
0.000314647
0.000357111
0.000183717
0.000357244
3.88262e-05
-0.000260031
0.000351097
8.31025e-05
2.22151e-05
-8.27433e-05
8.3503e-05
2.40134e-05
8.39313e-05
2.59532e-05
8.44007e-05
2.80487e-05
8.49024e-05
3.03119e-05
8.54515e-05
3.27561e-05
8.60391e-05
3.53951e-05
8.66807e-05
3.82442e-05
8.73695e-05
4.13182e-05
8.81204e-05
4.46378e-05
8.89273e-05
4.82223e-05
8.98039e-05
5.20907e-05
9.07479e-05
5.62647e-05
9.17743e-05
6.07637e-05
9.28844e-05
6.56151e-05
9.40879e-05
7.08521e-05
9.53879e-05
7.64982e-05
9.68017e-05
8.25732e-05
9.83325e-05
8.91237e-05
9.99901e-05
9.61856e-05
0.000101788
0.000103778
0.000103737
0.000111952
0.000105845
0.000120755
0.000108134
0.0001302
0.000110609
0.000140367
0.000113288
0.000151277
0.000116188
0.000162983
0.000119322
0.00017554
0.000122711
0.000188979
0.000126369
0.000203368
0.00013032
0.000218732
0.000134578
0.000235131
0.000139167
0.000252591
0.000144108
0.000271151
0.00014942
0.000290833
0.000155129
0.000311639
0.000161253
0.000333572
0.000167816
0.000356595
0.000174839
0.000380649
0.000182339
0.000405639
0.000190333
0.000431416
0.000198834
0.000457772
0.000207849
0.000484419
0.000217377
0.000510973
0.00022741
0.000536926
0.000237923
0.00056162
0.000248878
0.000584217
0.00026021
0.000603655
0.000271832
0.000618612
0.000283619
0.000627463
0.00029541
0.000628228
0.000306981
0.000618562
0.000318071
0.000595698
0.000328327
0.000556556
0.00033732
0.000497858
0.000344549
0.00041646
0.000349533
0.000309821
0.000350961
0.000182524
0.000350972
3.92311e-05
-0.00025273
0.000343898
8.18534e-05
2.18485e-05
-8.15007e-05
8.22483e-05
2.36167e-05
8.26702e-05
2.55239e-05
8.31335e-05
2.75842e-05
8.36283e-05
2.98095e-05
8.41708e-05
3.22126e-05
8.47515e-05
3.48072e-05
8.53858e-05
3.76079e-05
8.60669e-05
4.06288e-05
8.68093e-05
4.38916e-05
8.76072e-05
4.74154e-05
8.8474e-05
5.12183e-05
8.94079e-05
5.53217e-05
9.04228e-05
5.97423e-05
9.15206e-05
6.45084e-05
9.27104e-05
6.96562e-05
9.39952e-05
7.52057e-05
9.53918e-05
8.11715e-05
9.69029e-05
8.76062e-05
9.85384e-05
9.45459e-05
0.00010031
0.000102001
0.000102231
0.000110027
0.000104306
0.000118675
0.000106557
0.000127944
0.00010899
0.000137929
0.000111623
0.00014864
0.000114471
0.00016013
0.000117547
0.000172459
0.000120874
0.000185648
0.000124462
0.000199775
0.000128336
0.000214853
0.00013251
0.000230951
0.00013701
0.000248088
0.000141852
0.000266303
0.000147058
0.000285622
0.000152653
0.000306039
0.000158655
0.000327566
0.000165086
0.00035016
0.000171969
0.000373764
0.00017932
0.000398287
0.000187156
0.000423579
0.00019549
0.000449438
0.000204329
0.000475581
0.000213673
0.000501631
0.000223512
0.000527088
0.000233825
0.000551311
0.000244571
0.000573474
0.00025569
0.000592539
0.000267096
0.00060721
0.000278665
0.000615895
0.000290241
0.000616658
0.000301602
0.0006072
0.000312494
0.000584816
0.000322572
0.000546493
0.000331414
0.000489037
0.000338532
0.000409372
0.000343425
0.000304969
0.000345003
0.000180979
0.000344654
3.96157e-05
-0.000245385
0.000337353
8.04753e-05
2.1488e-05
-8.01243e-05
8.0865e-05
2.32267e-05
8.12813e-05
2.51023e-05
8.17375e-05
2.71283e-05
8.2225e-05
2.93164e-05
8.27587e-05
3.16792e-05
8.333e-05
3.423e-05
8.39544e-05
3.69833e-05
8.46248e-05
3.99518e-05
8.53564e-05
4.31586e-05
8.61425e-05
4.66226e-05
8.69975e-05
5.03609e-05
8.79178e-05
5.43944e-05
8.89193e-05
5.87376e-05
9.00016e-05
6.34195e-05
9.11755e-05
6.84789e-05
9.24421e-05
7.3933e-05
9.38196e-05
7.97908e-05
9.53092e-05
8.61112e-05
9.69215e-05
9.29304e-05
9.86675e-05
0.00010025
0.00010056
0.000108131
0.000102603
0.000116628
0.00010482
0.000125723
0.000107215
0.00013553
0.000109805
0.000146046
0.000112607
0.000157325
0.000115631
0.00016943
0.000118901
0.000182374
0.000122427
0.000196245
0.000126232
0.000211042
0.000130333
0.000226846
0.00013475
0.000243665
0.000139505
0.000261545
0.000144615
0.000280506
0.000150107
0.000300543
0.000155998
0.000321671
0.000162311
0.000343844
0.000169066
0.000367007
0.00017628
0.000391071
0.00018397
0.000415889
0.000192149
0.000441259
0.000200823
0.000466908
0.000209993
0.000492462
0.00021965
0.000517434
0.000229771
0.000541192
0.000240319
0.00056293
0.000251232
0.00058163
0.000262429
0.000596022
0.000273786
0.000604547
0.000285152
0.00060531
0.000296307
0.000596062
0.000307006
0.000574157
0.000316907
0.00053665
0.0003256
0.000480424
0.000332606
0.000402476
0.000337412
0.000300327
0.000339103
0.00017953
0.000338419
4.07439e-05
-0.000237824
0.000331111
7.90681e-05
2.1132e-05
-7.87259e-05
7.94507e-05
2.28419e-05
7.98593e-05
2.46864e-05
8.03074e-05
2.66787e-05
8.07862e-05
2.88304e-05
8.13107e-05
3.11536e-05
8.18724e-05
3.36614e-05
8.2486e-05
3.63679e-05
8.31453e-05
3.92849e-05
8.3864e-05
4.24365e-05
8.4637e-05
4.58416e-05
8.54769e-05
4.95161e-05
8.63823e-05
5.34808e-05
8.73667e-05
5.77477e-05
8.84316e-05
6.23466e-05
8.95864e-05
6.73192e-05
9.08332e-05
7.26794e-05
9.2189e-05
7.84311e-05
9.36555e-05
8.46392e-05
9.52429e-05
9.134e-05
9.69619e-05
9.85267e-05
9.88252e-05
0.000106265
0.000100836
0.000114612
0.000103019
0.000123538
0.000105375
0.00013317
0.000107924
0.000143494
0.000110679
0.000154565
0.000113654
0.000166452
0.00011687
0.000179155
0.000120337
0.000192774
0.000124077
0.000207297
0.000128107
0.000222811
0.000132449
0.00023932
0.000137121
0.000256869
0.000142143
0.000275481
0.000147538
0.000295144
0.000153325
0.000315882
0.000159526
0.000337642
0.000166161
0.000360373
0.000173246
0.000383987
0.000180798
0.000408338
0.00018883
0.00043323
0.000197348
0.000458394
0.000206352
0.000483462
0.000215833
0.000507957
0.00022577
0.00053126
0.000236126
0.000552579
0.000246841
0.000570918
0.000257835
0.000585033
0.000268985
0.000593397
0.000280147
0.000594153
0.0002911
0.000585101
0.000301608
0.000563653
0.000311336
0.000526929
0.000319881
0.000471891
0.000326774
0.0003956
0.000331498
0.000295623
0.000333265
0.000177768
0.000332296
4.17049e-05
-0.000230588
0.000325077
7.76689e-05
2.07831e-05
-7.73303e-05
7.80451e-05
2.24649e-05
7.8447e-05
2.42791e-05
7.8887e-05
2.62385e-05
7.93574e-05
2.83544e-05
7.98721e-05
3.06389e-05
8.04233e-05
3.31047e-05
8.10255e-05
3.57654e-05
8.16724e-05
3.86319e-05
8.23782e-05
4.17295e-05
8.31369e-05
4.50768e-05
8.39621e-05
4.86888e-05
8.48509e-05
5.25858e-05
8.58182e-05
5.67777e-05
8.68639e-05
6.1295e-05
8.79986e-05
6.61819e-05
8.92232e-05
7.14495e-05
9.05555e-05
7.70964e-05
9.19965e-05
8.31936e-05
9.35568e-05
8.97775e-05
9.52465e-05
9.68329e-05
9.70786e-05
0.00010443
9.90563e-05
0.000112631
0.000101202
0.000121389
0.00010352
0.000130849
0.000106027
0.000140984
0.000108737
0.000151852
0.000111662
0.000163523
0.000114824
0.00017599
0.000118233
0.000189361
0.000121911
0.000203614
0.000125874
0.000218845
0.000130141
0.000235048
0.000134734
0.000252273
0.00013967
0.000270542
0.000144973
0.000289839
0.000150661
0.000310193
0.000156755
0.000331548
0.000163274
0.000353853
0.000170236
0.000377026
0.000177656
0.00040092
0.000185546
0.000425342
0.000193913
0.000450029
0.000202757
0.000474621
0.000212069
0.000498649
0.000221828
0.000521505
0.000231998
0.000542416
0.000242519
0.000560403
0.000253315
0.000574248
0.000264264
0.000582457
0.000275224
0.000583211
0.000285981
0.000574358
0.000296301
0.000553367
0.000305858
0.000517422
0.000314258
0.000463562
0.000321038
0.000388918
0.000325683
0.000291126
0.000327496
0.000176175
0.0003263
4.33217e-05
-0.000223253
0.000319208
7.62847e-05
2.04399e-05
-7.59533e-05
7.66541e-05
2.20941e-05
7.70487e-05
2.38784e-05
7.7481e-05
2.58055e-05
7.79429e-05
2.78864e-05
7.84485e-05
3.01329e-05
7.89901e-05
3.25573e-05
7.95812e-05
3.51731e-05
8.02166e-05
3.79901e-05
8.09092e-05
4.10345e-05
8.1654e-05
4.4325e-05
8.24634e-05
4.78755e-05
8.33358e-05
5.17061e-05
8.42849e-05
5.58243e-05
8.53114e-05
6.02614e-05
8.64252e-05
6.50641e-05
8.76277e-05
7.02409e-05
8.89361e-05
7.5785e-05
9.03515e-05
8.17732e-05
9.18844e-05
8.82423e-05
9.35445e-05
9.51688e-05
9.53448e-05
0.000102628
9.72884e-05
0.000110684
9.93977e-05
0.000119278
0.000101676
0.000128568
0.00010414
0.000138517
0.000106804
0.000149185
0.000109681
0.000160643
0.000112789
0.000172879
0.000116141
0.000186006
0.000119757
0.000199994
0.000123652
0.000214945
0.000127849
0.000230849
0.000132363
0.000247754
0.000137216
0.000265687
0.000142429
0.000284624
0.00014802
0.000304601
0.00015401
0.000325558
0.000160418
0.000347447
0.00016726
0.000370186
0.000174551
0.000393631
0.000182304
0.000417594
0.000190525
0.000441813
0.000199213
0.000465938
0.000208361
0.000489506
0.000217946
0.000511924
0.000227935
0.000532432
0.000238268
0.000550072
0.00024887
0.00056365
0.000259622
0.000571702
0.000270387
0.000572449
0.00028095
0.000563781
0.000291086
0.000543226
0.000300476
0.000508031
0.000308732
0.000455306
0.0003154
0.000382252
0.000319969
0.000286554
0.000321804
0.000174315
0.000320428
4.46418e-05
-0.00021632
0.000313479
7.49242e-05
2.01037e-05
-7.45965e-05
7.52873e-05
2.17309e-05
7.56752e-05
2.3486e-05
7.60996e-05
2.53815e-05
7.65533e-05
2.74281e-05
7.70494e-05
2.96373e-05
7.75807e-05
3.20213e-05
7.81609e-05
3.4593e-05
7.87843e-05
3.73614e-05
7.94642e-05
4.03539e-05
8.01951e-05
4.35887e-05
8.09901e-05
4.7079e-05
8.18462e-05
5.08444e-05
8.27782e-05
5.48903e-05
8.37857e-05
5.92486e-05
8.48792e-05
6.39686e-05
8.60594e-05
6.90559e-05
8.73438e-05
7.44987e-05
8.87332e-05
8.03797e-05
9.02382e-05
8.67357e-05
9.18683e-05
9.35351e-05
9.36363e-05
0.000100858
9.55454e-05
0.000108772
9.76175e-05
0.000117203
9.98559e-05
0.000126326
0.000102277
0.000136093
0.000104896
0.000146563
0.000107723
0.000157813
0.000110779
0.000169821
0.000114073
0.000182709
0.000117628
0.000196436
0.000121458
0.000211112
0.000125582
0.00022672
0.000130021
0.000243314
0.000134792
0.000260914
0.000139917
0.000279498
0.000145413
0.000299104
0.000151301
0.000319671
0.000157599
0.00034115
0.000164324
0.000363463
0.00017149
0.000386467
0.000179109
0.000409978
0.000187187
0.000433739
0.000195724
0.000457405
0.000204711
0.000480524
0.000214127
0.000502513
0.000223939
0.000522627
0.000234088
0.000539929
0.0002445
0.000553248
0.00025506
0.000561151
0.000265632
0.000561895
0.000276006
0.000553417
0.000285962
0.000533299
0.000295187
0.00049885
0.000303301
0.000447254
0.000309859
0.000375782
0.000314355
0.00028219
0.000316194
0.000172673
0.000314682
4.65465e-05
-0.000209288
0.000307877
7.35855e-05
1.97726e-05
-7.32668e-05
7.39412e-05
2.13733e-05
7.43215e-05
2.30996e-05
7.47379e-05
2.49639e-05
7.51831e-05
2.69768e-05
7.56702e-05
2.91494e-05
7.61923e-05
3.14936e-05
7.67619e-05
3.4022e-05
7.73745e-05
3.67428e-05
7.80418e-05
3.96841e-05
7.87598e-05
4.28642e-05
7.95398e-05
4.62954e-05
8.03807e-05
4.99968e-05
8.12952e-05
5.39718e-05
8.22846e-05
5.82529e-05
8.33579e-05
6.28918e-05
8.45169e-05
6.78914e-05
8.5778e-05
7.32351e-05
8.71424e-05
7.9011e-05
8.86202e-05
8.5256e-05
9.0221e-05
9.19309e-05
9.19574e-05
9.91199e-05
9.38324e-05
0.000106894
9.58677e-05
0.000115166
9.80664e-05
0.000124125
0.000100445
0.000133712
0.000103018
0.000143988
0.000105796
0.000155033
0.000108799
0.000166815
0.000112037
0.000179468
0.000115531
0.000192939
0.000119295
0.000207345
0.00012335
0.000222663
0.000127713
0.000238948
0.000132403
0.000256223
0.000137441
0.000274459
0.000142844
0.000293701
0.000148632
0.000313884
0.000154823
0.000334961
0.000161433
0.000356856
0.000168476
0.000379428
0.000175964
0.000402495
0.000183902
0.000425806
0.000192291
0.000449022
0.00020112
0.0004717
0.000210371
0.000493267
0.000220009
0.000512994
0.000229978
0.000529961
0.000240206
0.000543023
0.000250577
0.000550775
0.000260961
0.000551511
0.000271149
0.000543211
0.000280928
0.00052351
0.000289992
0.000489779
0.000297967
0.000439272
0.000304415
0.000369323
0.000308839
0.000277745
0.000310672
0.000170789
0.000309055
4.8063e-05
-0.000202673
0.000302392
7.22741e-05
1.94484e-05
-7.1959e-05
7.26238e-05
2.1023e-05
7.29976e-05
2.27212e-05
7.34064e-05
2.4555e-05
7.38437e-05
2.65348e-05
7.43218e-05
2.86715e-05
7.4834e-05
3.09768e-05
7.53932e-05
3.34628e-05
7.59941e-05
3.61367e-05
7.66495e-05
3.90279e-05
7.73541e-05
4.21545e-05
7.81203e-05
4.55277e-05
7.89456e-05
4.91664e-05
7.98438e-05
5.30718e-05
8.08149e-05
5.7277e-05
8.18687e-05
6.18362e-05
8.30063e-05
6.67496e-05
8.42442e-05
7.19957e-05
8.55834e-05
7.7668e-05
8.70342e-05
8.38039e-05
8.86058e-05
9.03562e-05
9.03106e-05
9.74137e-05
9.21517e-05
0.00010505
9.41505e-05
0.000113166
9.631e-05
0.000121963
9.86468e-05
0.000131373
0.000101174
0.000141459
0.000103904
0.000152302
0.000106854
0.000163863
0.000110036
0.000176284
0.00011347
0.000189502
0.000117169
0.000203643
0.000121154
0.000218674
0.000125443
0.000234657
0.000130053
0.000251611
0.000135005
0.000269506
0.000140316
0.00028839
0.000146006
0.000308196
0.000152092
0.000328877
0.000158589
0.000350362
0.000165511
0.000372508
0.00017287
0.000395139
0.000180671
0.000418009
0.000188914
0.000440784
0.00019759
0.000463029
0.000206678
0.000484184
0.000216147
0.000503532
0.000225939
0.000520175
0.000235985
0.000532988
0.000246172
0.000540596
0.000256372
0.000541329
0.000266378
0.000533211
0.000275984
0.000513927
0.000284889
0.000480911
0.000292727
0.000431487
0.000299067
0.000363059
0.000303419
0.000273507
0.000305239
0.000169142
0.000303546
5.01144e-05
-0.000195938
0.000297019
7.09865e-05
1.91295e-05
-7.06783e-05
7.13297e-05
2.06786e-05
7.16966e-05
2.2349e-05
7.20982e-05
2.41528e-05
7.25276e-05
2.61001e-05
7.29972e-05
2.82016e-05
7.35005e-05
3.04685e-05
7.40496e-05
3.29129e-05
7.464e-05
3.55409e-05
7.52832e-05
3.83828e-05
7.59751e-05
4.14567e-05
7.67269e-05
4.4773e-05
7.75372e-05
4.835e-05
7.84185e-05
5.21869e-05
7.9372e-05
5.63177e-05
8.04064e-05
6.07988e-05
8.15233e-05
6.56277e-05
8.27388e-05
7.07781e-05
8.40538e-05
7.6349e-05
8.54784e-05
8.23779e-05
8.70216e-05
8.88099e-05
8.86957e-05
9.57382e-05
9.05037e-05
0.00010324
9.24666e-05
0.000111201
9.45875e-05
0.00011984
9.68826e-05
0.000129076
9.93652e-05
0.000138974
0.000102047
0.000149618
0.000104945
0.000160962
0.000108072
0.000173155
0.000111446
0.000186125
0.000115081
0.000200005
0.000118998
0.000214756
0.000123213
0.00023044
0.000127743
0.00024708
0.000132611
0.000264638
0.000137832
0.000283171
0.000143424
0.000302605
0.000149406
0.000322898
0.000155792
0.000343979
0.000162596
0.000365709
0.000169828
0.000387912
0.000177494
0.000410348
0.000185594
0.000432689
0.000194119
0.000454509
0.000203049
0.000475258
0.00021235
0.000494234
0.00022197
0.000510555
0.000231838
0.000523121
0.000241844
0.000530584
0.000251863
0.000531308
0.000261692
0.00052336
0.000271128
0.000504477
0.000279877
0.000472149
0.000287581
0.00042377
0.000293814
0.000356805
0.000298097
0.000269189
0.000299897
0.000167271
0.000298149
5.17291e-05
-0.000189613
0.000291752
6.97266e-05
1.88172e-05
-6.94218e-05
7.00641e-05
2.03412e-05
7.04246e-05
2.19845e-05
7.08189e-05
2.3759e-05
7.12405e-05
2.56744e-05
7.17014e-05
2.77413e-05
7.21951e-05
2.99707e-05
7.27341e-05
3.23741e-05
7.33132e-05
3.4957e-05
7.39449e-05
3.77507e-05
7.46238e-05
4.07729e-05
7.53624e-05
4.40333e-05
7.61576e-05
4.75498e-05
7.70234e-05
5.13196e-05
7.79591e-05
5.53772e-05
7.8975e-05
5.97814e-05
8.00713e-05
6.45272e-05
8.12647e-05
6.95835e-05
8.25555e-05
7.50546e-05
8.39542e-05
8.09782e-05
8.54692e-05
8.72918e-05
8.7113e-05
9.40933e-05
8.88883e-05
0.000101462
9.08159e-05
0.000109272
9.28988e-05
0.000117755
9.51529e-05
0.00012682
9.75914e-05
0.000136534
0.000100225
0.000146983
0.000103073
0.000158113
0.000106144
0.000170082
0.00010946
0.000182808
0.000113032
0.00019643
0.00011688
0.000210905
0.000121023
0.000226297
0.000125475
0.000242626
0.00013026
0.000259854
0.000135391
0.000278041
0.000140887
0.00029711
0.000146766
0.000317022
0.000153043
0.000337706
0.00015973
0.000359025
0.000166838
0.000380808
0.000174372
0.000402819
0.000182331
0.000424735
0.000190708
0.000446138
0.000199481
0.00046649
0.00020862
0.000485102
0.00021807
0.00050111
0.000227764
0.000513437
0.000237593
0.000520762
0.000247435
0.000521483
0.000257088
0.00051371
0.000266358
0.000495227
0.000274955
0.000463585
0.000282526
0.000416246
0.000288655
0.000350744
0.000292868
0.000265079
0.000294646
0.000165649
0.000292861
5.38508e-05
-0.000183145
0.000286589
6.84895e-05
1.85097e-05
-6.81936e-05
6.88201e-05
2.0009e-05
6.91734e-05
2.16256e-05
6.95602e-05
2.33711e-05
6.9974e-05
2.52552e-05
7.04264e-05
2.72881e-05
7.09116e-05
2.94805e-05
7.14408e-05
3.18438e-05
7.201e-05
3.43824e-05
7.263e-05
3.71286e-05
7.32972e-05
4.01001e-05
7.40218e-05
4.33055e-05
7.48033e-05
4.67627e-05
7.56529e-05
5.04666e-05
7.65723e-05
5.44525e-05
7.75694e-05
5.87814e-05
7.86464e-05
6.34457e-05
7.98181e-05
6.84098e-05
8.1086e-05
7.37832e-05
8.24594e-05
7.96035e-05
8.39474e-05
8.58012e-05
8.55615e-05
9.2478e-05
8.73049e-05
9.97163e-05
8.91979e-05
0.000107378
9.12434e-05
0.000115707
9.34573e-05
0.000124605
9.58522e-05
0.000134137
9.84394e-05
0.000144394
0.000101237
0.000155314
0.000104254
0.000167063
0.000107511
0.000179548
0.000111021
0.000192918
0.000114803
0.000207122
0.000118873
0.000222225
0.000123249
0.00023825
0.00012795
0.000255153
0.000132993
0.000272999
0.000138395
0.00029171
0.000144173
0.000311246
0.000150342
0.000331541
0.000156914
0.000352458
0.000163899
0.000373828
0.000171303
0.00039542
0.000179124
0.000416918
0.000187355
0.000437912
0.000195975
0.000457873
0.000204954
0.000476127
0.000214238
0.000491826
0.000223761
0.000503914
0.000233416
0.000511099
0.000243084
0.000511812
0.000252567
0.000504201
0.000261673
0.000486103
0.00027012
0.000455123
0.000277561
0.000408787
0.000283588
0.000344691
0.000287733
0.000260888
0.000289487
0.00016381
0.000287677
5.55007e-05
-0.000177086
0.000281525
6.72799e-05
1.82085e-05
-6.69872e-05
6.7605e-05
1.96836e-05
6.79522e-05
2.12741e-05
6.83321e-05
2.29912e-05
6.87383e-05
2.48446e-05
6.91824e-05
2.68441e-05
6.96583e-05
2.90004e-05
7.01778e-05
3.13242e-05
7.07362e-05
3.38194e-05
7.1345e-05
3.65191e-05
7.19997e-05
3.94408e-05
7.27117e-05
4.25923e-05
7.34785e-05
4.59911e-05
7.43131e-05
4.96304e-05
7.52154e-05
5.35458e-05
7.61947e-05
5.78006e-05
7.72518e-05
6.23848e-05
7.84022e-05
6.72581e-05
7.96469e-05
7.25353e-05
8.09953e-05
7.82541e-05
8.24562e-05
8.43377e-05
8.40411e-05
9.08921e-05
8.57531e-05
9.80022e-05
8.76119e-05
0.000105518
8.96208e-05
0.000113697
9.1795e-05
0.000122429
9.41472e-05
0.000131783
9.66882e-05
0.000141852
9.9436e-05
0.000152565
0.0001024
0.000164097
0.0001056
0.000176347
0.000109048
0.000189468
0.000112763
0.000203404
0.000116763
0.000218225
0.000121063
0.000233949
0.000125683
0.000250533
0.000130639
0.000268045
0.000135948
0.000286404
0.000141626
0.000305571
0.000147689
0.000325482
0.000154147
0.000346003
0.000161012
0.000366967
0.000168288
0.000388149
0.000175973
0.000409237
0.000184061
0.000429829
0.000192531
0.000449408
0.000201352
0.000467311
0.000210473
0.00048271
0.000219829
0.000494568
0.000229313
0.000501621
0.000238811
0.000502331
0.000248126
0.000494887
0.000257072
0.000477173
0.000265372
0.000446852
0.000272686
0.000401515
0.000278611
0.000338826
0.000282689
0.000256902
0.000284419
0.000162219
0.000282596
5.76361e-05
-0.000170862
0.00027656
6.60928e-05
1.79123e-05
-6.58067e-05
6.64119e-05
1.93637e-05
6.67526e-05
2.09283e-05
6.71258e-05
2.26176e-05
6.75247e-05
2.44408e-05
6.7961e-05
2.64076e-05
6.84286e-05
2.85282e-05
6.89387e-05
3.08134e-05
6.94873e-05
3.32659e-05
7.00848e-05
3.59198e-05
7.07278e-05
3.87925e-05
7.14263e-05
4.18911e-05
7.21793e-05
4.52327e-05
7.29982e-05
4.88084e-05
7.38843e-05
5.26546e-05
7.48455e-05
5.68368e-05
7.58836e-05
6.13423e-05
7.70132e-05
6.61268e-05
7.82355e-05
7.13096e-05
7.95596e-05
7.69289e-05
8.09942e-05
8.29005e-05
8.25506e-05
8.93346e-05
8.42318e-05
9.63189e-05
8.60573e-05
0.000103691
8.803e-05
0.000111722
9.01653e-05
0.000120292
9.24755e-05
0.000129471
9.49713e-05
0.000139355
9.76702e-05
0.000149865
0.000100582
0.000161184
0.000103725
0.000173202
0.000107113
0.000186078
0.000110763
0.000199753
0.000114692
0.000214294
0.000118918
0.000229724
0.000123457
0.000245994
0.000128327
0.000263177
0.000133544
0.000281189
0.000139125
0.000299994
0.000145082
0.000319529
0.000151429
0.00033966
0.000158175
0.000360226
0.000165325
0.000381005
0.000172877
0.00040169
0.000180824
0.000421887
0.000189146
0.000441089
0.000197814
0.000458647
0.000206774
0.000473748
0.000215966
0.000485377
0.000225283
0.000492294
0.000234614
0.000492996
0.000243764
0.000485708
0.000252553
0.000468364
0.000260709
0.000438678
0.000267897
0.000394306
0.000273724
0.00033297
0.000277736
0.000252837
0.000279442
0.000160419
0.000277615
5.92831e-05
-0.000165042
0.000271689
6.49322e-05
1.76222e-05
-6.4649e-05
6.5246e-05
1.90504e-05
6.55807e-05
2.05899e-05
6.59472e-05
2.22519e-05
6.63387e-05
2.40454e-05
6.6767e-05
2.59801e-05
6.72255e-05
2.80658e-05
6.77263e-05
3.03129e-05
6.82642e-05
3.27235e-05
6.88512e-05
3.53325e-05
6.94819e-05
3.81573e-05
7.01682e-05
4.12039e-05
7.0907e-05
4.44892e-05
7.17115e-05
4.80025e-05
7.25811e-05
5.17806e-05
7.35251e-05
5.58914e-05
7.4544e-05
6.03196e-05
7.56531e-05
6.50165e-05
7.6853e-05
7.01066e-05
7.81531e-05
7.56279e-05
7.95615e-05
8.14894e-05
8.10898e-05
8.78055e-05
8.27406e-05
9.46661e-05
8.45332e-05
0.000101897
8.64705e-05
0.000109783
8.85675e-05
0.000118194
9.08364e-05
0.000127201
9.32876e-05
0.000136902
9.59386e-05
0.000147213
9.87985e-05
0.000158323
0.000101886
0.000170113
0.000105214
0.000182749
0.0001088
0.000196165
0.000112661
0.000210433
0.000116812
0.000225573
0.000121273
0.000241534
0.000126058
0.000258394
0.000131185
0.000276065
0.000136668
0.000294513
0.000142523
0.000313678
0.00014876
0.000333427
0.000155389
0.000353601
0.000162415
0.000373983
0.000169836
0.000394273
0.000177644
0.000414083
0.000185821
0.000432916
0.000194337
0.000450137
0.000203141
0.000464948
0.000212171
0.000476356
0.000221324
0.000483146
0.000230491
0.000483844
0.00023948
0.000476718
0.000248115
0.000459742
0.000256129
0.000430689
0.000263195
0.000387278
0.000268923
0.000327298
0.000272871
0.000248975
0.000274553
0.000158866
0.00027273
6.14064e-05
-0.000159041
0.000266912
6.37921e-05
1.73365e-05
-6.35174e-05
6.40993e-05
1.87418e-05
6.44274e-05
2.02564e-05
6.47869e-05
2.18915e-05
6.51712e-05
2.3656e-05
6.55917e-05
2.55591e-05
6.60424e-05
2.76105e-05
6.65341e-05
2.98203e-05
6.70629e-05
3.21897e-05
6.76389e-05
3.47547e-05
6.82588e-05
3.75322e-05
6.89321e-05
4.05279e-05
6.96582e-05
4.3758e-05
7.04476e-05
4.721e-05
7.1302e-05
5.09215e-05
7.22286e-05
5.49622e-05
7.32295e-05
5.93147e-05
7.43185e-05
6.39259e-05
7.5497e-05
6.8925e-05
7.67736e-05
7.43503e-05
7.81568e-05
8.01038e-05
7.96576e-05
8.63039e-05
8.12786e-05
9.30431e-05
8.3039e-05
0.000100136
8.49415e-05
0.000107879
8.70009e-05
0.000116133
8.92291e-05
0.000124971
9.16366e-05
0.000134494
9.42403e-05
0.000144609
9.70495e-05
0.000155512
0.000100083
0.000167078
0.000103351
0.000179478
0.000106875
0.000192641
0.000110667
0.000206639
0.000114746
0.000221495
0.000119129
0.000237152
0.00012383
0.000253694
0.000128868
0.000271031
0.000134256
0.000289128
0.000140009
0.000307929
0.000146138
0.000327302
0.000152652
0.000347092
0.000159556
0.000367085
0.000166848
0.000386986
0.00017452
0.000406415
0.000182555
0.000424885
0.000190922
0.000441773
0.000199571
0.000456297
0.000208443
0.000467484
0.000217435
0.000474143
0.000226441
0.000474833
0.000235272
0.000467856
0.000243756
0.000451236
0.000251632
0.000422796
0.000258577
0.000380312
0.00026421
0.000321632
0.000268094
0.000245033
0.000269754
0.000157107
0.000267939
6.30245e-05
-0.000153451
0.000262226
6.26777e-05
1.70569e-05
-6.24057e-05
6.29801e-05
1.84397e-05
6.33024e-05
1.993e-05
6.36556e-05
2.15388e-05
6.40328e-05
2.32747e-05
6.44455e-05
2.51468e-05
6.48874e-05
2.71646e-05
6.53701e-05
2.93377e-05
6.58887e-05
3.16668e-05
6.64544e-05
3.41885e-05
6.70625e-05
3.69198e-05
6.7724e-05
3.98653e-05
6.84363e-05
4.30412e-05
6.92119e-05
4.64331e-05
7.00502e-05
5.0079e-05
7.09602e-05
5.40509e-05
7.19425e-05
5.83289e-05
7.30117e-05
6.28557e-05
7.41685e-05
6.77653e-05
7.54219e-05
7.30961e-05
7.678e-05
7.87434e-05
7.82535e-05
8.48295e-05
7.98453e-05
9.14495e-05
8.15739e-05
9.84064e-05
8.34422e-05
0.000106009
8.54646e-05
0.00011411
8.76529e-05
0.000122782
9.00174e-05
0.000132128
9.25746e-05
0.000142051
9.53338e-05
0.000152752
9.83131e-05
0.000164097
0.000101524
0.000176266
0.000104985
0.000189178
0.000108711
0.000202912
0.000112718
0.000217488
0.000117024
0.000232847
0.000121643
0.000249077
0.000126593
0.000266084
0.000131888
0.000283837
0.00013754
0.000302281
0.000143563
0.000321284
0.000149964
0.000340695
0.000156747
0.000360306
0.000163913
0.000379825
0.000171451
0.000398881
0.000179346
0.000416995
0.000187567
0.000433557
0.000196065
0.000447802
0.000204781
0.000458776
0.000213615
0.000465313
0.000222464
0.000466
0.000231139
0.000459178
0.000239475
0.000442911
0.000247215
0.000415078
0.000254042
0.000373519
0.000259581
0.000316145
0.000263402
0.00024129
0.000265041
0.000155586
0.000263241
6.51069e-05
-0.000147661
0.00025763
6.15835e-05
1.67817e-05
-6.13179e-05
6.18801e-05
1.81425e-05
6.21965e-05
1.96089e-05
6.25434e-05
2.11918e-05
6.29137e-05
2.28997e-05
6.33192e-05
2.47414e-05
6.37535e-05
2.67261e-05
6.42275e-05
2.88633e-05
6.47369e-05
3.11527e-05
6.52921e-05
3.36318e-05
6.58893e-05
3.63177e-05
6.65382e-05
3.9214e-05
6.72377e-05
4.23366e-05
6.79986e-05
4.56694e-05
6.88218e-05
4.92511e-05
6.9715e-05
5.31554e-05
7.06796e-05
5.73603e-05
7.17294e-05
6.18043e-05
7.28654e-05
6.66262e-05
7.40961e-05
7.18643e-05
7.54297e-05
7.74075e-05
7.68766e-05
8.33818e-05
7.84397e-05
8.98845e-05
8.01372e-05
9.67079e-05
8.19719e-05
0.000104173
8.3958e-05
0.000112123
8.6107e-05
0.000120631
8.84292e-05
0.000129805
9.09408e-05
0.000139538
9.3651e-05
0.000150041
9.65772e-05
0.00016117
9.97313e-05
0.00017311
0.000103131
0.000185778
0.000106791
0.000199251
0.000110728
0.000213552
0.000114958
0.000228618
0.000119497
0.00024454
0.00012436
0.000261224
0.000129562
0.000278638
0.000135116
0.000296731
0.000141034
0.000315371
0.000147323
0.000334411
0.000153989
0.000353646
0.000161029
0.000372789
0.000168437
0.000391478
0.000176193
0.000409241
0.000184271
0.000425482
0.000192621
0.00043945
0.000201184
0.000450211
0.000209863
0.000456622
0.000218557
0.0004573
0.00022708
0.000450621
0.000235271
0.000434697
0.000242877
0.000407453
0.000249588
0.000366786
0.000255035
0.000310664
0.000258796
0.000237468
0.000260414
0.000153863
0.000258633
6.66771e-05
-0.000142288
0.000253122
6.05137e-05
1.65125e-05
-6.02505e-05
6.08055e-05
1.78516e-05
6.11163e-05
1.92946e-05
6.1457e-05
2.08522e-05
6.18204e-05
2.25326e-05
6.22184e-05
2.43444e-05
6.2644e-05
2.62966e-05
6.31093e-05
2.83985e-05
6.36087e-05
3.06489e-05
6.4154e-05
3.30864e-05
6.47397e-05
3.57275e-05
6.53773e-05
3.85756e-05
6.60633e-05
4.16459e-05
6.68109e-05
4.49207e-05
6.76185e-05
4.8439e-05
6.84958e-05
5.22769e-05
6.94424e-05
5.64099e-05
7.04732e-05
6.07725e-05
7.15882e-05
6.55081e-05
7.27966e-05
7.06551e-05
7.41059e-05
7.60959e-05
7.55266e-05
8.19602e-05
7.70614e-05
8.83478e-05
7.87283e-05
9.50401e-05
8.05299e-05
0.00010237
8.24803e-05
0.000110171
8.45908e-05
0.000118519
8.68714e-05
0.000127523
8.93381e-05
0.000137071
9.19998e-05
0.000147378
9.48742e-05
0.000158295
9.79725e-05
0.000170011
0.000101312
0.000182437
0.000104907
0.000195656
0.000108774
0.000209686
0.00011293
0.000224463
0.000117389
0.000240083
0.000122167
0.000256449
0.000127278
0.000273531
0.000132736
0.000291277
0.00013855
0.000309561
0.00014473
0.000328236
0.000151279
0.000347101
0.000158197
0.000365876
0.000165476
0.000384204
0.000173097
0.000401624
0.000181034
0.000417551
0.000189237
0.00043125
0.000197651
0.000441805
0.000206177
0.000448098
0.00021472
0.000448773
0.000223094
0.000442244
0.000231141
0.000426658
0.000238617
0.000399998
0.000245214
0.000360221
0.000250571
0.000305357
0.000254272
0.000233843
0.000255871
0.000152376
0.000254113
6.87066e-05
-0.000136697
0.000248701
5.94618e-05
1.62471e-05
-5.92073e-05
5.97474e-05
1.7565e-05
6.00519e-05
1.89849e-05
6.0386e-05
2.05175e-05
6.07427e-05
2.21709e-05
6.11334e-05
2.39534e-05
6.15518e-05
2.58737e-05
6.20086e-05
2.79409e-05
6.24997e-05
3.01531e-05
6.30347e-05
3.25496e-05
6.36104e-05
3.5147e-05
6.42359e-05
3.79476e-05
6.49103e-05
4.09666e-05
6.56436e-05
4.41845e-05
6.64373e-05
4.76409e-05
6.72982e-05
5.14137e-05
6.82282e-05
5.54762e-05
6.92401e-05
5.97591e-05
7.03353e-05
6.44101e-05
7.15218e-05