/*--------------------------------*- C++ -*----------------------------------*\
  =========                 |
  \\      /  F ield         | OpenFOAM: The Open Source CFD Toolbox
   \\    /   O peration     | Website:  https://openfoam.org
    \\  /    A nd           | Version:  6.0
     \\/     M anipulation  |
\*---------------------------------------------------------------------------*/
FoamFile
{
    version     2.0;
    format      ascii;
    class       surfaceScalarField;
    location    "2";
    object      phi;
}
// * * * * * * * * * * * * * * * * * * * * * * * * * * * * * * * * * * * * * //

dimensions      [0 3 -1 0 0 0 0];

internalField   nonuniform List<scalar> 
123526
(
-8.2897e-05
2.26003e-05
8.32516e-05
-8.24693e-05
2.44399e-05
-8.20419e-05
2.643e-05
-8.15403e-05
2.85829e-05
-8.10317e-05
3.09123e-05
-8.04416e-05
3.34326e-05
-7.98383e-05
3.61599e-05
-7.91438e-05
3.91113e-05
-7.84338e-05
4.23047e-05
-7.76159e-05
4.57609e-05
-7.67804e-05
4.95026e-05
-7.58205e-05
5.3553e-05
-7.48422e-05
5.79378e-05
-7.3718e-05
6.26829e-05
-7.25642e-05
6.78196e-05
-7.12508e-05
7.33858e-05
-6.9897e-05
7.94136e-05
-6.83625e-05
8.59356e-05
-6.67637e-05
9.30026e-05
-6.49745e-05
0.000100663
-6.30952e-05
0.000108953
-6.09963e-05
0.000117938
-5.87924e-05
0.000127679
-5.6333e-05
0.000138221
-5.37383e-05
0.000149656
-5.08645e-05
0.000162045
-4.78074e-05
0.000175463
-4.44456e-05
0.000190016
-4.08431e-05
0.000205765
-3.68942e-05
0.000222846
-3.26367e-05
0.000241321
-2.80125e-05
0.000261344
-2.30542e-05
0.000282997
-1.77103e-05
0.000306411
-1.19071e-05
0.000331712
-5.57894e-06
0.000359003
1.27918e-06
0.000388428
8.71303e-06
0.000420077
1.67758e-05
0.000454041
2.55163e-05
0.000490418
3.49922e-05
0.000529238
4.52771e-05
0.000570498
5.64258e-05
0.000614142
6.84963e-05
0.000660016
8.15466e-05
0.00070786
9.55916e-05
0.000757272
0.000110687
0.000807687
0.000126752
0.000858333
0.000143839
0.000908187
0.000161775
0.000955959
0.000180574
0.000999878
0.000200241
0.00103783
0.000220204
0.00106723
0.00024079
0.00108421
0.000261119
0.00108424
0.000281572
0.00106022
0.000300985
0.00100501
0.000319291
0.000905961
0.000334933
0.000749136
0.000493091
0.000344013
-8.24976e-05
2.22251e-05
8.28338e-05
-8.20833e-05
2.40342e-05
-8.16728e-05
2.59912e-05
-8.11886e-05
2.81083e-05
-8.07017e-05
3.03987e-05
-8.01341e-05
3.28769e-05
-7.95561e-05
3.55584e-05
-7.88903e-05
3.84604e-05
-7.82098e-05
4.15994e-05
-7.74274e-05
4.49965e-05
-7.6626e-05
4.86747e-05
-7.57077e-05
5.26562e-05
-7.4766e-05
5.69666e-05
-7.36879e-05
6.16285e-05
-7.25727e-05
6.66746e-05
-7.13081e-05
7.21459e-05
-6.99928e-05
7.80719e-05
-6.85082e-05
8.44762e-05
-6.69467e-05
9.14196e-05
-6.52086e-05
9.89502e-05
-6.33644e-05
0.000107092
-6.13184e-05
0.000115916
-5.91459e-05
0.000125494
-5.67414e-05
0.000135838
-5.41733e-05
0.000147076
-5.13552e-05
0.000159242
-4.8319e-05
0.000172419
-4.50092e-05
0.000186713
-4.14208e-05
0.000202174
-3.75151e-05
0.00021895
-3.32615e-05
0.000237087
-2.86563e-05
0.000256748
-2.37007e-05
0.000278003
-1.83455e-05
0.000300989
-1.25181e-05
0.000325831
-6.1552e-06
0.00035261
7.53869e-07
0.0003815
8.24691e-06
0.00041256
1.63756e-05
0.000445886
2.51812e-05
0.000481582
3.47164e-05
0.000519673
4.50427e-05
0.000560146
5.62029e-05
0.000602961
6.82408e-05
0.000647972
8.11988e-05
0.000694924
9.50814e-05
0.000743439
0.000109935
0.000792975
0.000125677
0.000842793
0.000142369
0.000891911
0.000159845
0.000939058
0.000178148
0.000982553
0.000197312
0.00102025
0.000216759
0.00104951
0.000236848
0.00106643
0.000256667
0.00106651
0.000276677
0.00104298
0.000295624
0.000988417
0.000313563
0.000891082
0.000328715
0.000736641
0.000488889
0.000337373
-8.12093e-05
2.18566e-05
8.15384e-05
-8.08023e-05
2.3636e-05
-8.03996e-05
2.55609e-05
-7.99258e-05
2.76433e-05
-7.94499e-05
2.98962e-05
-7.88961e-05
3.23338e-05
-7.83335e-05
3.49716e-05
-7.76853e-05
3.78262e-05
-7.70258e-05
4.09131e-05
-7.62652e-05
4.42536e-05
-7.54911e-05
4.78708e-05
-7.45996e-05
5.17863e-05
-7.36925e-05
5.60248e-05
-7.26468e-05
6.06063e-05
-7.15731e-05
6.55641e-05
-7.03468e-05
7.09431e-05
-6.90784e-05
7.67687e-05
-6.76377e-05
8.30578e-05
-6.61267e-05
8.98787e-05
-6.44375e-05
9.72812e-05
-6.26457e-05
0.000105276
-6.06531e-05
0.000113941
-5.85341e-05
0.000123354
-5.61867e-05
0.000133504
-5.36728e-05
0.000144545
-5.09151e-05
0.00015649
-4.79339e-05
0.000169427
-4.46875e-05
0.000183465
-4.11551e-05
0.000198637
-3.73135e-05
0.000215112
-3.31176e-05
0.00023291
-2.85768e-05
0.000252212
-2.36826e-05
0.000273071
-1.83905e-05
0.000295628
-1.26259e-05
0.000320013
-6.32594e-06
0.000346282
5.17777e-07
0.000374635
7.94329e-06
0.000405112
1.59975e-05
0.000437803
2.47203e-05
0.000472828
3.41604e-05
0.000510199
4.43749e-05
0.000549901
5.54017e-05
0.000591907
6.72788e-05
0.000636073
8.00434e-05
0.000682155
9.36965e-05
0.000729784
0.000108282
0.000778439
0.000123719
0.000827393
0.000140073
0.000875686
0.000157182
0.000922064
0.000175098
0.000964814
0.000193871
0.00100189
0.000212908
0.00103049
0.000232595
0.00104718
0.000251994
0.00104681
0.000271615
0.0010236
0.000290154
0.000969277
0.00030773
0.000873337
0.000322496
0.000721011
0.000477794
0.000331403
-7.98017e-05
2.14968e-05
8.01255e-05
-7.94028e-05
2.3247e-05
-7.90085e-05
2.51403e-05
-7.8544e-05
2.71887e-05
-7.80778e-05
2.94049e-05
-7.75353e-05
3.18029e-05
-7.69841e-05
3.43979e-05
-7.63502e-05
3.72064e-05
-7.57038e-05
4.02429e-05
-7.49613e-05
4.35285e-05
-7.42026e-05
4.70871e-05
-7.3334e-05
5.09388e-05
-7.24457e-05
5.51083e-05
-7.14284e-05
5.96122e-05
-7.03785e-05
6.44851e-05
-6.91866e-05
6.97747e-05
-6.79489e-05
7.55033e-05
-6.6549e-05
8.16798e-05
-6.50772e-05
8.83814e-05
-6.34346e-05
9.56578e-05
-6.16901e-05
0.000103508
-5.97497e-05
0.000112016
-5.76846e-05
0.000121268
-5.53946e-05
0.000131225
-5.29399e-05
0.000142071
-5.02445e-05
0.000153798
-4.73271e-05
0.000166495
-4.41478e-05
0.00018028
-4.06833e-05
0.000195166
-3.6914e-05
0.000211343
-3.27901e-05
0.000228803
-2.83241e-05
0.00024775
-2.35104e-05
0.000268214
-1.82966e-05
0.00029035
-1.26157e-05
0.000314278
-6.40326e-06
0.00034004
3.49586e-07
0.000367862
7.67763e-06
0.00039776
1.56261e-05
0.000429827
2.4232e-05
0.000464188
3.35425e-05
0.000500848
4.36107e-05
0.000539786
5.44717e-05
0.000580989
6.61604e-05
0.000624317
7.87103e-05
0.000669529
9.21219e-05
0.000716272
0.000106436
0.000764036
0.000121576
0.000812121
0.000137608
0.000859586
0.000154371
0.000905199
0.000171933
0.000947323
0.000190337
0.000983874
0.000209013
0.00101216
0.000228307
0.00102855
0.000247335
0.00102827
0.000266569
0.00100534
0.000284739
0.000951882
0.000301959
0.000857435
0.000316374
0.00070766
0.000470564
0.000325579
-7.83796e-05
2.11433e-05
7.86961e-05
-7.79886e-05
2.28646e-05
-7.76012e-05
2.47268e-05
-7.71453e-05
2.67415e-05
-7.66872e-05
2.89214e-05
-7.61538e-05
3.12802e-05
-7.56126e-05
3.3833e-05
-7.49886e-05
3.6596e-05
-7.43552e-05
3.95826e-05
-7.36241e-05
4.28141e-05
-7.28824e-05
4.63148e-05
-7.20272e-05
5.01039e-05
-7.11602e-05
5.42054e-05
-7.01595e-05
5.86336e-05
-6.91357e-05
6.34232e-05
-6.79648e-05
6.8626e-05
-6.67578e-05
7.42603e-05
-6.53849e-05
8.0328e-05
-6.39486e-05
8.69137e-05
-6.23406e-05
9.40685e-05
-6.06373e-05
0.000101778
-5.874e-05
0.000110135
-5.67231e-05
0.000119228
-5.44848e-05
0.000128997
-5.2086e-05
0.000139652
-4.94503e-05
0.000151164
-4.65963e-05
0.000163625
-4.34844e-05
0.000177161
-4.00909e-05
0.000191764
-3.63958e-05
0.000207646
-3.23507e-05
0.000224773
-2.79687e-05
0.000243369
-2.32382e-05
0.000263446
-1.81171e-05
0.000285159
-1.25309e-05
0.000308639
-6.41953e-06
0.000333901
2.2544e-07
0.000361197
7.43804e-06
0.000390525
1.52605e-05
0.000421976
2.37287e-05
0.000455687
3.28878e-05
0.000491652
4.27886e-05
0.000529847
5.34647e-05
0.000570272
6.49486e-05
0.000612789
7.72725e-05
0.000657164
9.04364e-05
0.000703052
0.000104481
0.000749959
0.000119332
0.000797192
0.000135057
0.000843831
0.000151497
0.000888651
0.000168725
0.000929997
0.000186786
0.000965871
0.000205113
0.000993455
0.00022404
0.00100953
0.000242711
0.00100887
0.000261579
0.000986218
0.000279393
0.000933093
0.000296269
0.000840002
0.000310387
0.000692316
0.000458643
0.00031978
-7.69732e-05
2.0797e-05
7.72874e-05
-7.65881e-05
2.249e-05
-7.6207e-05
2.43217e-05
-7.57585e-05
2.63034e-05
-7.5308e-05
2.84477e-05
-7.47839e-05
3.07681e-05
-7.42518e-05
3.32795e-05
-7.36389e-05
3.5998e-05
-7.30155e-05
3.89357e-05
-7.22976e-05
4.21145e-05
-7.15667e-05
4.55586e-05
-7.07272e-05
4.92865e-05
-6.98726e-05
5.33219e-05
-6.88908e-05
5.76759e-05
-6.78822e-05
6.23844e-05
-6.67341e-05
6.75022e-05
-6.55471e-05
7.30443e-05
-6.42018e-05
7.90053e-05
-6.27923e-05
8.54777e-05
-6.12173e-05
9.25132e-05
-5.95485e-05
0.000100085
-5.76909e-05
0.000108293
-5.57165e-05
0.000117231
-5.35256e-05
0.000126816
-5.11779e-05
0.000137284
-4.8598e-05
0.000148585
-4.58043e-05
0.000160815
-4.27573e-05
0.000174106
-3.94335e-05
0.000188431
-3.58135e-05
0.000204024
-3.18482e-05
0.000220823
-2.75494e-05
0.000239073
-2.29121e-05
0.000258764
-1.78838e-05
0.000280067
-1.24001e-05
0.000303103
-6.39807e-06
0.000327871
1.29939e-07
0.00035465
7.21613e-06
0.000383417
1.49013e-05
0.000414264
2.32197e-05
0.000447335
3.22155e-05
0.000482615
4.19375e-05
0.000520076
5.24181e-05
0.000559728
6.36891e-05
0.000601436
7.57812e-05
0.000644971
8.86958e-05
0.000689998
0.000102472
0.000736031
0.00011704
0.0007824
0.000132466
0.000828198
0.000148592
0.000872224
0.000165505
0.000912888
0.000183229
0.000948157
0.000201239
0.000975372
0.000219802
0.000991078
0.000238146
0.000990495
0.000256647
0.000968046
0.000274134
0.000915843
0.000290673
0.000824113
0.000304512
0.000678931
0.000450123
0.000314044
-7.55892e-05
2.04561e-05
7.58953e-05
-7.52107e-05
2.21213e-05
-7.48359e-05
2.39229e-05
-7.43951e-05
2.58721e-05
-7.3952e-05
2.79813e-05
-7.34365e-05
3.02638e-05
-7.29126e-05
3.27343e-05
-7.23101e-05
3.54087e-05
-7.16966e-05
3.82983e-05
-7.09908e-05
4.14247e-05
-7.02723e-05
4.48129e-05
-6.94471e-05
4.84804e-05
-6.86074e-05
5.24503e-05
-6.76418e-05
5.67314e-05
-6.66514e-05
6.136e-05
-6.5522e-05
6.63946e-05
-6.43564e-05
7.18463e-05
-6.30333e-05
7.77032e-05
-6.16494e-05
8.40651e-05
-6.01017e-05
9.09845e-05
-5.8464e-05
9.84228e-05
-5.66405e-05
0.000106485
-5.47042e-05
0.000115273
-5.25557e-05
0.000124678
-5.02547e-05
0.000134963
-4.77265e-05
0.000146059
-4.49892e-05
0.000158063
-4.20039e-05
0.000171113
-3.87474e-05
0.000185166
-3.51997e-05
0.000200474
-3.13136e-05
0.00021695
-2.71014e-05
0.00023486
-2.25513e-05
0.000254178
-1.76228e-05
0.000275071
-1.22429e-05
0.000297672
-6.3539e-06
0.000321956
5.1932e-08
0.000348225
7.00599e-06
0.000376442
1.45473e-05
0.000406697
2.27094e-05
0.000439143
3.15351e-05
0.000473755
4.10721e-05
0.000510502
5.13522e-05
0.000549407
6.24064e-05
0.000590339
7.42654e-05
0.000633071
8.69312e-05
0.000677276
0.000100443
0.000722485
0.000114734
0.00076803
0.000129871
0.000813027
0.000145698
0.000856281
0.000162304
0.000896191
0.000179712
0.000930803
0.000197402
0.000957317
0.000215625
0.000972674
0.000233642
0.000971754
0.000251798
0.00094956
0.000268961
0.000897727
0.00028518
0.000807309
0.000298768
0.000664109
0.000438123
0.000308348
-7.42268e-05
2.01224e-05
7.45315e-05
-7.38538e-05
2.17604e-05
-7.34854e-05
2.35325e-05
-7.3052e-05
2.54498e-05
-7.26167e-05
2.75245e-05
-7.21107e-05
2.97699e-05
-7.15963e-05
3.22003e-05
-7.10049e-05
3.48315e-05
-7.04018e-05
3.76738e-05
-6.97089e-05
4.0749e-05
-6.90015e-05
4.40824e-05
-6.8191e-05
4.76906e-05
-6.73637e-05
5.15964e-05
-6.64153e-05
5.58058e-05
-6.54393e-05
6.03561e-05
-6.43303e-05
6.53087e-05
-6.31825e-05
7.06718e-05
-6.18834e-05
7.6426e-05
-6.05223e-05
8.26792e-05
-5.90027e-05
8.94842e-05
-5.73935e-05
9.67909e-05
-5.56035e-05
0.000104711
-5.37026e-05
0.000113351
-5.15943e-05
0.00012258
-4.93369e-05
0.000132686
-4.68572e-05
0.000143581
-4.41731e-05
0.000155363
-4.12464e-05
0.000168179
-3.8054e-05
0.000181965
-3.45771e-05
0.000196994
-3.07678e-05
0.000213155
-2.66372e-05
0.000230732
-2.21805e-05
0.000249678
-1.73463e-05
0.000270176
-1.20723e-05
0.000292348
-6.2976e-06
0.000316156
-1.56353e-08
0.000341926
6.80392e-06
0.000369603
1.4199e-05
0.000399277
2.22025e-05
0.000431108
3.0856e-05
0.000465062
4.02064e-05
0.000501104
5.02851e-05
0.000539266
6.11225e-05
0.00057942
7.27492e-05
0.00062134
8.51689e-05
0.000664712
9.84198e-05
0.000709071
0.00011244
0.000753771
0.000127293
0.000797936
0.000142825
0.000840397
0.000159134
0.000879611
0.000176225
0.000913594
0.000193619
0.000939723
0.0002115
0.000954703
0.000229213
0.00095385
0.000247022
0.000931829
0.000263883
0.000880908
0.000279787
0.000791777
0.000293131
0.000650971
0.000429113
0.000302735
-7.28935e-05
1.97932e-05
7.31868e-05
-7.25287e-05
2.14042e-05
-7.21675e-05
2.31471e-05
-7.17423e-05
2.5033e-05
-7.13147e-05
2.70737e-05
-7.08171e-05
2.92824e-05
-7.03111e-05
3.16733e-05
-6.97292e-05
3.42619e-05
-6.91362e-05
3.70574e-05
-6.84545e-05
4.00821e-05
-6.77596e-05
4.33614e-05
-6.69624e-05
4.6911e-05
-6.61499e-05
5.07536e-05
-6.52171e-05
5.48924e-05
-6.42587e-05
5.93655e-05
-6.31675e-05
6.42377e-05
-6.204e-05
6.95137e-05
-6.07618e-05
7.51676e-05
-5.94242e-05
8.13144e-05
-5.79296e-05
8.80079e-05
-5.63483e-05
9.51859e-05
-5.45889e-05
0.000102967
-5.27217e-05
0.000111462
-5.06511e-05
0.000120519
-4.8435e-05
0.00013045
-4.60013e-05
0.000141149
-4.33678e-05
0.000152715
-4.04971e-05
0.000165301
-3.73666e-05
0.000178825
-3.39569e-05
0.000193582
-3.02225e-05
0.000209433
-2.6175e-05
0.000226684
-2.18031e-05
0.000245271
-1.70672e-05
0.000265375
-1.18965e-05
0.000287129
-6.23574e-06
0.000310472
-7.78014e-08
0.000335752
6.60697e-06
0.0003629
1.38554e-05
0.000392006
2.16998e-05
0.000423237
3.01809e-05
0.00045655
3.93448e-05
0.000491908
4.92227e-05
0.000529354
5.98448e-05
0.000568761
7.12419e-05
0.00060991
8.34188e-05
0.000652491
9.6414e-05
0.000696054
0.000110168
0.000739958
0.000124744
0.00078335
0.000139992
0.000825064
0.00015601
0.000863559
0.000172798
0.000896908
0.000189893
0.000922377
0.000207451
0.000936987
0.000224856
0.000935846
0.000242336
0.000914053
0.000258894
0.000863536
0.000274499
0.000775656
0.000287616
0.000636716
0.000417385
0.000297183
-7.15824e-05
1.94712e-05
7.18753e-05
-7.12226e-05
2.10558e-05
-7.08675e-05
2.27703e-05
-7.04494e-05
2.46253e-05
-7.00294e-05
2.66328e-05
-6.9541e-05
2.88055e-05
-6.90446e-05
3.11576e-05
-6.84734e-05
3.37045e-05
-6.78912e-05
3.64543e-05
-6.72219e-05
3.94294e-05
-6.65388e-05
4.26556e-05
-6.57556e-05
4.61479e-05
-6.49567e-05
4.99284e-05
-6.40402e-05
5.39979e-05
-6.30974e-05
5.83952e-05
-6.20257e-05
6.31881e-05
-6.09169e-05
6.83783e-05
-5.96616e-05
7.39331e-05
-5.83468e-05
7.9975e-05
-5.68789e-05
8.65584e-05
-5.5325e-05
9.36098e-05
-5.3597e-05
0.000101254
-5.17627e-05
0.000109608
-4.97293e-05
0.000118495
-4.75531e-05
0.000128255
-4.5164e-05
0.000138761
-4.25793e-05
0.000150115
-3.97625e-05
0.000162477
-3.66913e-05
0.000175746
-3.33478e-05
0.000190236
-2.96856e-05
0.000205785
-2.57157e-05
0.000222717
-2.14332e-05
0.000240947
-1.67885e-05
0.000260672
-1.17212e-05
0.000282014
-6.17285e-06
0.000304901
-1.3751e-07
0.000329702
6.41377e-06
0.000356331
1.35171e-05
0.00038488
2.12041e-05
0.000415522
2.95149e-05
0.000448203
3.84948e-05
0.000482883
4.81747e-05
0.000519614
5.85849e-05
0.000558272
6.97561e-05
0.000598638
8.16946e-05
0.000640412
9.44381e-05
0.00068315
0.000107932
0.000726229
0.000122235
0.000768804
0.000137202
0.000809738
0.000152935
0.000847533
0.000169419
0.000880252
0.000186229
0.000905333
0.000203464
0.000919584
0.000220577
0.00091849
0.000237727
0.000896864
0.000253999
0.000847229
0.000269308
0.000760579
0.000282202
0.000623914
0.000408252
0.000291724
-7.03007e-05
1.91541e-05
7.05848e-05
-6.99474e-05
2.07127e-05
-6.95989e-05
2.2399e-05
-6.91877e-05
2.42237e-05
-6.87754e-05
2.61984e-05
-6.82947e-05
2.83358e-05
-6.78067e-05
3.06498e-05
-6.72451e-05
3.31554e-05
-6.6673e-05
3.58601e-05
-6.60156e-05
3.87864e-05
-6.53448e-05
4.19603e-05
-6.45762e-05
4.5396e-05
-6.37914e-05
4.91153e-05
-6.28918e-05
5.31166e-05
-6.19657e-05
5.74393e-05
-6.0913e-05
6.21544e-05
-5.98234e-05
6.72604e-05
-5.85898e-05
7.27183e-05
-5.72975e-05
7.86574e-05
-5.58548e-05
8.51331e-05
-5.43278e-05
9.20604e-05
-5.26297e-05
9.95703e-05
-5.08277e-05
0.000107785
-4.88303e-05
0.000116508
-4.66931e-05
0.0001261
-4.43474e-05
0.000136417
-4.18101e-05
0.000147564
-3.90456e-05
0.000159705
-3.60324e-05
0.000172724
-3.2752e-05
0.000186954
-2.91606e-05
0.000202206
-2.52693e-05
0.000218825
-2.10675e-05
0.000236711
-1.65169e-05
0.000256059
-1.15492e-05
0.000277001
-6.11142e-06
0.000299441
-1.96863e-07
0.000323773
6.22283e-06
0.000349896
1.3183e-05
0.0003779
2.07147e-05
0.000407966
2.88575e-05
0.000440033
3.7656e-05
0.000474056
4.7141e-05
0.000510099
5.73428e-05
0.00054804
6.82922e-05
0.000587664
7.99965e-05
0.000628676
9.2494e-05
0.000670644
0.000105732
0.000712953
0.00011977
0.000754779
0.000134463
0.00079499
0.000149916
0.000832096
0.000166108
0.00086421
0.000182629
0.000888657
0.000199555
0.000902536
0.000216373
0.000901184
0.00023321
0.000879771
0.000249193
0.00083055
0.00026422
0.000745095
0.0002769
0.000610185
0.000396861
0.000286337
-6.90407e-05
1.88441e-05
6.93248e-05
-6.86922e-05
2.03773e-05
-6.83498e-05
2.20362e-05
-6.79456e-05
2.38312e-05
-6.7541e-05
2.57738e-05
-6.70695e-05
2.78765e-05
-6.65913e-05
3.0153e-05
-6.60404e-05
3.26183e-05
-6.54793e-05
3.52788e-05
-6.48338e-05
3.81571e-05
-6.41751e-05
4.12798e-05
-6.34199e-05
4.466e-05
-6.2649e-05
4.83193e-05
-6.17651e-05
5.22536e-05
-6.0855e-05
5.65029e-05
-5.98211e-05
6.11414e-05
-5.87505e-05
6.61645e-05
-5.75393e-05
7.15266e-05
-5.62697e-05
7.73645e-05
-5.48531e-05
8.37338e-05
-5.3353e-05
9.05391e-05
-5.16855e-05
9.79171e-05
-4.99154e-05
0.000105996
-4.79538e-05
0.000114556
-4.5855e-05
0.000123983
-4.35519e-05
0.000134115
-4.10609e-05
0.000145059
-3.83476e-05
0.000156985
-3.53904e-05
0.000169759
-3.21728e-05
0.000183733
-2.86496e-05
0.000198696
-2.4832e-05
0.00021501
-2.07152e-05
0.000232555
-1.62516e-05
0.00025154
-1.13829e-05
0.000272088
-6.05316e-06
0.000294091
-2.56829e-07
0.000317965
6.03397e-06
0.00034359
1.2854e-05
0.00037106
2.02337e-05
0.00040056
2.82122e-05
0.000432021
3.68332e-05
0.000465392
4.61276e-05
0.000500749
5.61255e-05
0.000537967
6.68576e-05
0.000576836
7.83329e-05
0.000617067
9.05887e-05
0.000658235
0.000103576
0.000699742
0.000117352
0.000740768
0.000131775
0.000780213
0.000146952
0.000816625
0.000162849
0.00084811
0.000179093
0.000872168
0.000195712
0.000885712
0.000212247
0.000884386
0.000228769
0.000863149
0.000244478
0.000814769
0.000259226
0.000730508
0.000271693
0.000597761
0.000387785
0.000281049
-6.78122e-05
1.85378e-05
6.80827e-05
-6.74719e-05
2.00459e-05
-6.7137e-05
2.16776e-05
-6.67408e-05
2.34432e-05
-6.63438e-05
2.53542e-05
-6.58804e-05
2.74227e-05
-6.54099e-05
2.96623e-05
-6.48682e-05
3.2088e-05
-6.43163e-05
3.47049e-05
-6.36821e-05
3.75361e-05
-6.30347e-05
4.06083e-05
-6.22932e-05
4.39339e-05
-6.15355e-05
4.75342e-05
-6.06677e-05
5.14026e-05
-5.97735e-05
5.558e-05
-5.8758e-05
6.01435e-05
-5.7706e-05
6.50854e-05
-5.65159e-05
7.0354e-05
-5.52683e-05
7.60928e-05
-5.38764e-05
8.23582e-05
-5.24027e-05
8.90439e-05
-5.07646e-05
9.62928e-05
-4.90259e-05
0.000104238
-4.70995e-05
0.000112638
-4.50384e-05
0.000121904
-4.2777e-05
0.000131856
-4.03316e-05
0.0001426
-3.76684e-05
0.000154315
-3.47666e-05
0.00016685
-3.16088e-05
0.000180574
-2.81532e-05
0.000195253
-2.44103e-05
0.000211268
-2.03703e-05
0.000228483
-1.59962e-05
0.000247107
-1.12226e-05
0.000267272
-5.99869e-06
0.000288847
-3.18174e-07
0.000312272
5.84636e-06
0.000337412
1.2529e-05
0.00036436
1.97597e-05
0.000393308
2.7577e-05
0.00042418
3.60241e-05
0.000456921
4.51317e-05
0.000491616
5.49298e-05
0.000528145
6.54495e-05
0.000566298
7.67002e-05
0.000605793
8.87199e-05
0.000646217
0.000101462
0.000686977
0.000114981
0.000727279
0.000129141
0.000766022
0.000144047
0.000801773
0.00015966
0.000832676
0.000175625
0.000856137
0.000191947
0.000869307
0.000208195
0.000867754
0.000224417
0.000846712
0.00023985
0.000798761
0.000254329
0.000715633
0.00026659
0.000584543
0.000376806
0.000275839
-6.66032e-05
1.82386e-05
6.68743e-05
-6.62674e-05
1.97222e-05
-6.59381e-05
2.13274e-05
-6.55486e-05
2.30643e-05
-6.51589e-05
2.49442e-05
-6.47043e-05
2.69793e-05
-6.42433e-05
2.91828e-05
-6.37119e-05
3.15695e-05
-6.31708e-05
3.41438e-05
-6.2548e-05
3.69288e-05
-6.19126e-05
3.99516e-05
-6.11839e-05
4.32237e-05
-6.04403e-05
4.67662e-05
-5.95875e-05
5.05699e-05
-5.87097e-05
5.46766e-05
-5.77123e-05
5.91661e-05
-5.66795e-05
6.40279e-05
-5.55112e-05
6.92043e-05
-5.42864e-05
7.48453e-05
-5.292e-05
8.10083e-05
-5.14729e-05
8.75762e-05
-4.98647e-05
9.4698e-05
-4.81574e-05
0.000102511
-4.6266e-05
0.000110756
-4.42422e-05
0.000119863
-4.20222e-05
0.000129637
-3.96215e-05
0.000140186
-3.70076e-05
0.000151694
-3.41595e-05
0.000163994
-3.10618e-05
0.000177473
-2.76714e-05
0.000191875
-2.39988e-05
0.000207598
-2.00397e-05
0.000224487
-1.57485e-05
0.000242763
-1.10692e-05
0.000262551
-5.94849e-06
0.000283708
-3.80926e-07
0.000306694
5.66041e-06
0.000331358
1.22091e-05
0.000357794
1.92946e-05
0.000386199
2.69548e-05
0.000416489
3.52324e-05
0.000448604
4.41578e-05
0.000482638
5.37609e-05
0.000518471
6.40728e-05
0.000555896
7.51042e-05
0.000594637
8.68921e-05
0.000634286
9.93936e-05
0.000674267
0.00011266
0.000713788
0.00012656
0.000751783
0.000141198
0.000786845
0.000156524
0.000817129
0.000172219
0.000840202
0.000188247
0.000853063
0.00020422
0.00085152
0.000220141
0.00083066
0.00023531
0.000783508
0.000249523
0.000701538
0.000261579
0.000572509
0.000367886
0.000270727
-6.54235e-05
1.79437e-05
6.56857e-05
-6.50938e-05
1.94031e-05
-6.4771e-05
2.09821e-05
-6.43878e-05
2.26909e-05
-6.40054e-05
2.45403e-05
-6.35579e-05
2.65424e-05
-6.31048e-05
2.87104e-05
-6.25822e-05
3.10588e-05
-6.20506e-05
3.35912e-05
-6.14392e-05
3.63306e-05
-6.08155e-05
3.93047e-05
-6.01008e-05
4.25241e-05
-5.93706e-05
4.60096e-05
-5.85343e-05
4.97498e-05
-5.76722e-05
5.3787e-05
-5.66934e-05
5.82041e-05
-5.56789e-05
6.29877e-05
-5.45316e-05
6.80737e-05
-5.33285e-05
7.36192e-05
-5.19866e-05
7.96819e-05
-5.05654e-05
8.61346e-05
-4.89861e-05
9.31318e-05
-4.73096e-05
0.000100816
-4.54526e-05
0.000108907
-4.34657e-05
0.000117859
-4.12863e-05
0.000127459
-3.89298e-05
0.000137816
-3.63642e-05
0.000149122
-3.35695e-05
0.000161192
-3.05293e-05
0.000174431
-2.72037e-05
0.000188561
-2.36026e-05
0.000203998
-1.97167e-05
0.000220571
-1.55108e-05
0.000238501
-1.09222e-05
0.000257923
-5.90236e-06
0.000278671
-4.45308e-07
0.000301227
5.47558e-06
0.000325426
1.18932e-05
0.000351361
1.88366e-05
0.000379237
2.63431e-05
0.000408961
3.44548e-05
0.000440471
4.3202e-05
0.000473871
5.26145e-05
0.00050904
6.27233e-05
0.000545775
7.35398e-05
0.000583805
8.51012e-05
0.000622734
9.73665e-05
0.000661991
0.000110386
0.00070081
0.000124032
0.000738124
0.000138406
0.000772551
0.000153458
0.000802276
0.00016888
0.000824777
0.000184623
0.000837269
0.000200318
0.00083552
0.000215951
0.000814842
0.000230854
0.000768119
0.00024481
0.000687229
0.000256666
0.000559771
0.000357298
0.000265694
-6.42626e-05
1.76559e-05
6.45261e-05
-6.39372e-05
1.90917e-05
-6.36198e-05
2.06452e-05
-6.32431e-05
2.23263e-05
-6.2868e-05
2.41458e-05
-6.24291e-05
2.61157e-05
-6.19854e-05
2.82489e-05
-6.14728e-05
3.05597e-05
-6.0952e-05
3.30509e-05
-6.03516e-05
3.57458e-05
-5.97397e-05
3.86722e-05
-5.90373e-05
4.184e-05
-5.8321e-05
4.52695e-05
-5.7499e-05
4.89474e-05
-5.66531e-05
5.29163e-05
-5.56917e-05
5.7262e-05
-5.46963e-05
6.19683e-05
-5.35701e-05
6.69654e-05
-5.23894e-05
7.24166e-05
-5.10723e-05
7.83805e-05
-4.96772e-05
8.47196e-05
-4.81271e-05
9.15944e-05
-4.64812e-05
9.91522e-05
-4.46584e-05
0.000107093
-4.27078e-05
0.000115892
-4.05686e-05
0.000125321
-3.82555e-05
0.00013549
-3.57376e-05
0.000146598
-3.29947e-05
0.000158442
-3.00125e-05
0.000171447
-2.67494e-05
0.000185311
-2.32157e-05
0.000200467
-1.94073e-05
0.000216727
-1.52803e-05
0.000234325
-1.07818e-05
0.000253386
-5.86032e-06
0.000273733
-5.1094e-07
0.000295869
5.29254e-06
0.000319612
1.15826e-05
0.000345056
1.83877e-05
0.000372411
2.57445e-05
0.000401576
3.36946e-05
0.000432484
4.22682e-05
0.000465248
5.14947e-05
0.000499748
6.1405e-05
0.000535781
7.20115e-05
0.000573083
8.3351e-05
0.000611262
9.53855e-05
0.000649764
0.000108162
0.000687823
0.000121557
0.000724408
0.000135672
0.000758157
0.000150445
0.000787271
0.000165603
0.000809386
0.000181064
0.000821588
0.000196489
0.000819834
0.000211835
0.000799348
0.000226481
0.000753382
0.000240183
0.000673623
0.000251841
0.000548139
0.000348587
0.000260759
-6.31323e-05
1.73711e-05
6.33818e-05
-6.28151e-05
1.87835e-05
-6.25047e-05
2.03118e-05
-6.21358e-05
2.19656e-05
-6.17676e-05
2.37557e-05
-6.13363e-05
2.56938e-05
-6.08994e-05
2.77928e-05
-6.03956e-05
3.00667e-05
-5.98828e-05
3.25175e-05
-5.92932e-05
3.51685e-05
-5.86916e-05
3.80479e-05
-5.80024e-05
4.1165e-05
-5.72981e-05
4.45398e-05
-5.64917e-05
4.81564e-05
-5.56604e-05
5.20585e-05
-5.47168e-05
5.63345e-05
-5.37387e-05
6.09653e-05
-5.26328e-05
6.58754e-05
-5.1473e-05
7.12346e-05
-5.01797e-05
7.71019e-05
-4.88098e-05
8.333e-05
-4.72879e-05
9.00849e-05
-4.5672e-05
9.75186e-05
-4.38826e-05
0.000105311
-4.19679e-05
0.000113961
-3.98682e-05
0.000123222
-3.75979e-05
0.000133208
-3.51268e-05
0.00014412
-3.24355e-05
0.000155744
-2.95086e-05
0.000168518
-2.6308e-05
0.000182121
-2.28429e-05
0.000197003
-1.91044e-05
0.000212961
-1.50592e-05
0.000230227
-1.0647e-05
0.000248937
-5.82186e-06
0.000268892
-5.77862e-07
0.000290616
5.11083e-06
0.000313913
1.1276e-05
0.000338877
1.79458e-05
0.000365725
2.51563e-05
0.000394347
3.29485e-05
0.000424674
4.13523e-05
0.000456828
5.03969e-05
0.000490688
6.01133e-05
0.000526057
7.05142e-05
0.000562674
8.16367e-05
0.000600156
9.34442e-05
0.000637956
0.000105982
0.000675336
0.000119133
0.000711261
0.000132992
0.000744398
0.000147499
0.000772973
0.000162392
0.000794545
0.000177577
0.000806383
0.000192733
0.000804443
0.000207802
0.000784126
0.000222191
0.000738593
0.000235647
0.00065986
0.000247109
0.000535865
0.000338411
0.000255902
-6.20183e-05
1.70933e-05
6.22696e-05
-6.1705e-05
1.84829e-05
-6.13997e-05
1.99865e-05
-6.10369e-05
2.16137e-05
-6.06755e-05
2.3375e-05
-6.02525e-05
2.5282e-05
-5.98248e-05
2.73474e-05
-5.93305e-05
2.95852e-05
-5.88282e-05
3.19963e-05
-5.82491e-05
3.46045e-05
-5.76591e-05
3.7438e-05
-5.69816e-05
4.05054e-05
-5.62911e-05
4.38263e-05
-5.54984e-05
4.73829e-05
-5.46831e-05
5.12191e-05
-5.37563e-05
5.54264e-05
-5.27971e-05
5.99828e-05
-5.17116e-05
6.48072e-05
-5.05739e-05
7.00755e-05
-4.93047e-05
7.58477e-05
-4.79603e-05
8.19664e-05
-4.64667e-05
8.86033e-05
-4.48807e-05
9.5915e-05
-4.31245e-05
0.000103563
-4.1245e-05
0.000112066
-3.91844e-05
0.000121162
-3.69561e-05
0.000130968
-3.45313e-05
0.000141689
-3.189e-05
0.000153096
-2.9019e-05
0.000165645
-2.58786e-05
0.000178993
-2.24782e-05
0.000193606
-1.8814e-05
0.000209263
-1.48442e-05
0.000226211
-1.05181e-05
0.000244575
-5.78685e-06
0.000264147
-6.45555e-07
0.000285468
4.93127e-06
0.000308327
1.09749e-05
0.00033282
1.7513e-05
0.000359168
2.4581e-05
0.000387253
3.22192e-05
0.000417002
4.04575e-05
0.000448544
4.93248e-05
0.000481761
5.88516e-05
0.000516453
6.90517e-05
0.000552368
7.99614e-05
0.000589126
9.15473e-05
0.000626196
0.000103851
0.000662837
0.00011676
0.000698052
0.000130367
0.000730522
0.000144605
0.000758499
0.00015924
0.000779689
0.000174154
0.000791256
0.000189048
0.000789301
0.000203841
0.000769178
0.000217981
0.000724364
0.000231193
0.00064673
0.000242462
0.000524633
0.000329941
0.00025114
-6.09317e-05
1.68193e-05
6.11743e-05
-6.06244e-05
1.81864e-05
-6.03251e-05
1.96658e-05
-5.99683e-05
2.12667e-05
-5.96135e-05
2.29997e-05
-5.9197e-05
2.48761e-05
-5.87765e-05
2.69085e-05
-5.82904e-05
2.91107e-05
-5.7797e-05
3.14829e-05
-5.72286e-05
3.40487e-05
-5.66496e-05
3.68369e-05
-5.59855e-05
3.98554e-05
-5.53075e-05
4.31234e-05
-5.45306e-05
4.66209e-05
-5.373e-05
5.03927e-05
-5.28209e-05
5.45327e-05
-5.18787e-05
5.90165e-05
-5.08134e-05
6.3757e-05
-4.96959e-05
6.89366e-05
-4.845e-05
7.46157e-05
-4.713e-05
8.06275e-05
-4.56639e-05
8.71489e-05
-4.4107e-05
9.43411e-05
-4.23834e-05
0.000101847
-4.05387e-05
0.000110206
-3.85164e-05
0.000119141
-3.63295e-05
0.000128769
-3.39499e-05
0.000139303
-3.13585e-05
0.000150498
-2.85408e-05
0.000162826
-2.54606e-05
0.000175923
-2.21263e-05
0.000190272
-1.8529e-05
0.00020564
-1.46374e-05
0.00022227
-1.0394e-05
0.000240297
-5.75473e-06
0.000259494
-7.14006e-07
0.00028042
4.75338e-06
0.000302851
1.06781e-05
0.000326883
1.70873e-05
0.000352744
2.40158e-05
0.000380309
3.15036e-05
0.0004095
3.95801e-05
0.000440455
4.82739e-05
0.000473057
5.76155e-05
0.000507109
6.76188e-05
0.000542362
7.83205e-05
0.000578447
8.96883e-05
0.000614838
0.000101763
0.000650821
0.000114436
0.000685395
0.000127795
0.000717279
0.000141775
0.000744736
0.000156153
0.000765402
0.0001708
0.000776614
0.000185433
0.000774485
0.00019996
0.000754522
0.000213851
0.000710135
0.000226826
0.000633482
0.000237905
0.000512804
0.000320146
0.000246454
-5.98611e-05
1.65521e-05
6.01059e-05
-5.95575e-05
1.78974e-05
-5.92632e-05
1.9353e-05
-5.89125e-05
2.09283e-05
-5.85646e-05
2.26336e-05
-5.81564e-05
2.448e-05
-5.77448e-05
2.648e-05
-5.72682e-05
2.86474e-05
-5.67851e-05
3.09813e-05
-5.62269e-05
3.35058e-05
-5.56593e-05
3.62497e-05
-5.50065e-05
3.92201e-05
-5.43419e-05
4.24362e-05
-5.35781e-05
4.58758e-05
-5.27932e-05
4.95841e-05
-5.19002e-05
5.36579e-05
-5.09763e-05
5.80698e-05
-4.99306e-05
6.27277e-05
-4.88346e-05
6.78198e-05
-4.76119e-05
7.34072e-05
-4.63168e-05
7.93137e-05
-4.4878e-05
8.57215e-05
-4.33501e-05
9.27963e-05
-4.16586e-05
0.000100162
-3.9848e-05
0.00010838
-3.78635e-05
0.000117157
-3.57174e-05
0.000126612
-3.33824e-05
0.000136962
-3.08392e-05
0.000147949
-2.80756e-05
0.00016006
-2.50533e-05
0.000172912
-2.17812e-05
0.000187003
-1.82554e-05
0.000202083
-1.44359e-05
0.000218407
-1.02748e-05
0.000236103
-5.72534e-06
0.000254932
-7.82656e-07
0.000275472
4.57804e-06
0.000297484
1.03869e-05
0.000321063
1.66705e-05
0.000346444
2.34632e-05
0.000373493
3.08043e-05
0.000402128
3.8723e-05
0.000432496
4.72475e-05
0.000464479
5.64079e-05
0.000497879
6.62191e-05
0.000532455
7.67168e-05
0.000567842
8.78719e-05
0.000603526
9.97207e-05
0.000638794
0.000112161
0.000672679
0.000125277
0.000703905
0.000138995