/*--------------------------------*- C++ -*----------------------------------*\
  =========                 |
  \\      /  F ield         | OpenFOAM: The Open Source CFD Toolbox
   \\    /   O peration     | Website:  https://openfoam.org
    \\  /    A nd           | Version:  6.0
     \\/     M anipulation  |
\*---------------------------------------------------------------------------*/
FoamFile
{
    version     2.0;
    format      ascii;
    class       volVectorField;
    location    "2";
    object      U;
}
// * * * * * * * * * * * * * * * * * * * * * * * * * * * * * * * * * * * * * //

dimensions      [0 1 -1 0 0 0 0];

internalField   nonuniform List<vector> 
62000
(
(0.964524 0.265904 -1.76008e-20)
(0.964435 0.265865 1.48321e-20)
(0.964349 0.265767 1.57836e-20)
(0.964264 0.265674 -7.10906e-20)
(0.964181 0.265575 -8.43421e-20)
(0.9641 0.265474 2.95625e-19)
(0.964022 0.265368 -3.34643e-19)
(0.963948 0.265258 1.99192e-19)
(0.963878 0.265146 -9.70895e-20)
(0.963813 0.26503 -5.12707e-19)
(0.963754 0.264911 -7.47308e-20)
(0.963702 0.264788 7.53088e-19)
(0.963656 0.264664 1.61412e-19)
(0.963617 0.264538 -5.74869e-19)
(0.963586 0.26441 9.28397e-19)
(0.963564 0.264281 -5.04098e-19)
(0.963551 0.264149 5.4614e-19)
(0.963547 0.264017 -6.52456e-19)
(0.963553 0.263881 3.37175e-19)
(0.963569 0.263746 -1.06717e-18)
(0.963596 0.263608 1.43045e-18)
(0.963635 0.263469 4.47977e-19)
(0.963683 0.263328 6.65179e-19)
(0.963746 0.263185 -3.03127e-18)
(0.963819 0.26304 1.13613e-18)
(0.963906 0.262893 -7.36951e-19)
(0.964002 0.262741 -2.12316e-20)
(0.964115 0.262586 -6.33704e-19)
(0.964234 0.262422 1.97997e-18)
(0.964369 0.262249 -1.13762e-18)
(0.964509 0.262054 2.79664e-18)
(0.964662 0.261853 -5.91336e-18)
(0.964813 0.261654 5.6697e-19)
(0.964956 0.261476 -2.09918e-18)
(0.965092 0.261286 -6.99011e-19)
(0.965218 0.261054 -2.24715e-18)
(0.965325 0.260785 -6.97339e-19)
(0.9654 0.260479 -7.06095e-19)
(0.965432 0.260118 2.21189e-18)
(0.965415 0.259692 1.00648e-17)
(0.965337 0.259182 -2.36771e-18)
(0.965184 0.258574 -1.35663e-17)
(0.964942 0.257853 -2.10241e-17)
(0.9646 0.257008 1.1148e-17)
(0.964149 0.256027 3.13619e-18)
(0.96358 0.254912 -1.47986e-17)
(0.962903 0.253659 3.32669e-18)
(0.962124 0.252291 -5.57205e-18)
(0.961275 0.250818 -2.42663e-17)
(0.960396 0.249263 -5.0093e-18)
(0.959525 0.24763 -2.30284e-18)
(0.958802 0.245855 -2.9027e-17)
(0.958238 0.244053 3.55542e-18)
(0.957849 0.242086 2.61066e-17)
(0.957712 0.239944 6.07974e-18)
(0.957759 0.23721 1.85214e-17)
(0.95824 0.233776 -1.8149e-18)
(0.959066 0.228721 -2.5358e-18)
(0.960584 0.220974 5.43232e-18)
(0.9586 0.202108 7.14995e-19)
(0.964259 0.268817 -4.80953e-21)
(0.964116 0.268897 4.71938e-20)
(0.963971 0.268889 2.06299e-20)
(0.963821 0.268887 -8.79497e-20)
(0.963667 0.268881 3.75952e-20)
(0.96351 0.268871 -2.68907e-19)
(0.963351 0.268856 2.50646e-19)
(0.963191 0.268836 1.51308e-19)
(0.963032 0.268813 -2.89466e-19)
(0.962874 0.268784 1.13045e-20)
(0.962719 0.268751 2.98605e-19)
(0.96257 0.268711 2.93482e-21)
(0.962426 0.268666 9.41209e-20)
(0.96229 0.268616 -8.08472e-19)
(0.962164 0.268557 1.67665e-18)
(0.962048 0.268493 -1.51938e-18)
(0.961946 0.268419 7.36987e-19)
(0.961857 0.268338 -1.58e-19)
(0.961785 0.268245 -4.49802e-19)
(0.961731 0.268145 1.29307e-18)
(0.961695 0.268031 -2.09239e-18)
(0.961681 0.267907 1.25053e-18)
(0.961688 0.267769 -1.65125e-18)
(0.961721 0.267618 9.99986e-19)
(0.961776 0.267448 9.6302e-19)
(0.961861 0.267262 -6.53376e-19)
(0.961969 0.267049 -1.03e-20)
(0.962109 0.266814 7.59356e-19)
(0.962271 0.266542 6.62569e-19)
(0.962467 0.266232 -1.405e-18)
(0.962684 0.265865 2.92296e-18)
(0.962933 0.265447 6.17805e-19)
(0.963195 0.26499 1.97697e-18)
(0.963464 0.264495 1.47816e-19)
(0.963737 0.263923 5.88541e-19)
(0.964009 0.263245 -6.77397e-19)
(0.964264 0.262457 -2.12115e-18)
(0.964484 0.261546 -1.06318e-18)
(0.964642 0.260518 -5.83946e-18)
(0.964721 0.259359 -6.62284e-18)
(0.964699 0.258056 5.13837e-18)
(0.964554 0.256606 2.99025e-18)
(0.964261 0.255011 2.20426e-17)
(0.963797 0.253282 1.28133e-18)
(0.963147 0.251436 -3.23772e-17)
(0.962302 0.249501 1.23787e-17)
(0.961276 0.247501 9.58377e-18)
(0.960089 0.245478 1.11039e-17)
(0.958796 0.243445 1.58971e-18)
(0.957461 0.241416 2.25326e-19)
(0.956155 0.239361 1.50617e-17)
(0.955051 0.23716 3.68398e-17)
(0.95416 0.234841 -2.20991e-17)
(0.953539 0.23222 -5.06403e-17)
(0.953236 0.229139 -1.13145e-17)
(0.953291 0.225191 -4.62396e-18)
(0.953912 0.219994 -1.5866e-17)
(0.955142 0.212576 -6.31454e-18)
(0.957361 0.201289 1.10299e-17)
(0.956784 0.176767 3.58196e-18)
(0.96431 0.269107 -2.38104e-20)
(0.964171 0.269223 -3.74362e-21)
(0.964027 0.269246 3.56929e-21)
(0.963875 0.269277 1.79702e-20)
(0.963716 0.269308 5.2995e-20)
(0.963551 0.269339 -5.11273e-20)
(0.96338 0.269367 2.83994e-19)
(0.963203 0.269395 -1.36142e-19)
(0.963022 0.269422 -7.53112e-20)
(0.962838 0.269446 -4.87123e-19)
(0.962653 0.269469 4.1886e-19)
(0.962467 0.269487 3.21823e-20)
(0.962283 0.269503 -1.02531e-19)
(0.962103 0.269514 2.80754e-19)
(0.961929 0.269519 -4.94657e-19)
(0.961762 0.269518 8.98882e-22)
(0.961606 0.269507 -2.44601e-19)
(0.961463 0.269487 -7.58877e-22)
(0.961335 0.269453 5.94672e-19)
(0.961224 0.269407 -9.37655e-19)
(0.961132 0.269344 5.99302e-19)
(0.961063 0.269266 2.4277e-18)
(0.961018 0.269166 -3.06257e-19)
(0.960998 0.269046 -3.56889e-18)
(0.961006 0.268898 1.88041e-18)
(0.961044 0.268725 -1.06536e-18)
(0.961112 0.268515 1.77777e-18)
(0.961213 0.26827 -1.09951e-18)
(0.961344 0.267975 -2.25957e-18)
(0.961509 0.267626 2.48895e-18)
(0.961706 0.267206 -1.79998e-18)
(0.961934 0.266714 2.47199e-18)
(0.962184 0.266166 -7.05143e-18)
(0.962446 0.265556 6.44129e-18)
(0.962718 0.264846 -3.52504e-18)
(0.962993 0.264003 1.48239e-18)
(0.96326 0.263025 1.15661e-18)
(0.963503 0.261887 -6.53565e-20)
(0.963688 0.260618 -2.86446e-19)
(0.963793 0.2592 6.91272e-18)
(0.963798 0.25762 -2.65672e-18)
(0.963677 0.255882 4.07088e-18)
(0.963403 0.253992 -1.42848e-17)
(0.962951 0.251971 -6.87177e-18)
(0.962304 0.249842 6.90357e-18)
(0.961447 0.247644 -2.44995e-17)
(0.960394 0.245406 2.98037e-18)
(0.959161 0.243174 -1.92787e-17)
(0.957804 0.240964 2.56849e-17)
(0.956387 0.23878 6.08688e-18)
(0.954985 0.236586 3.69967e-18)
(0.953783 0.234239 1.49454e-20)
(0.952776 0.231731 1.11356e-17)
(0.95206 0.228884 -2.95252e-18)
(0.951649 0.225456 -2.18655e-17)
(0.951659 0.221099 -8.75843e-18)
(0.95225 0.21529 -1.10073e-17)
(0.953531 0.207137 -2.35425e-17)
(0.955866 0.194829 1.70674e-18)
(0.956397 0.16909 2.97969e-18)
(0.964336 0.269172 -2.41911e-20)
(0.964202 0.269296 7.55055e-20)
(0.964063 0.269326 -1.12628e-20)
(0.963916 0.269366 -8.14175e-20)
(0.96376 0.269407 1.25912e-19)
(0.963597 0.26945 2.2442e-19)
(0.963425 0.269492 -2.95512e-19)
(0.963246 0.269536 3.32447e-20)
(0.96306 0.26958 1.09388e-19)
(0.962868 0.269625 2.34481e-19)
(0.96267 0.26967 -4.37893e-19)
(0.962468 0.269714 -1.40515e-19)
(0.962263 0.269758 -1.62224e-19)
(0.962057 0.269799 7.48025e-19)
(0.961852 0.269836 -5.11655e-19)
(0.961651 0.26987 1.23302e-18)
(0.961455 0.269896 -1.52859e-18)
(0.961267 0.269915 -2.35905e-19)
(0.961091 0.269922 1.70411e-18)
(0.960928 0.269917 -6.05424e-19)
(0.960783 0.269895 -2.29083e-19)
(0.960658 0.269857 -2.5232e-19)
(0.960555 0.269795 -2.36498e-18)
(0.960478 0.269709 1.37896e-18)
(0.960429 0.269592 -6.54769e-19)
(0.96041 0.269444 1.06583e-18)
(0.960424 0.269252 5.1516e-19)
(0.960471 0.269018 2.6092e-18)
(0.960553 0.268725 -1.67094e-18)
(0.96067 0.268368 -2.24232e-18)
(0.960823 0.267927 3.63317e-18)
(0.96101 0.267402 -3.04324e-18)
(0.961221 0.266808 5.76595e-18)
(0.961449 0.266138 -3.58713e-18)
(0.961692 0.265349 1.54298e-18)
(0.961941 0.264414 2.6971e-18)
(0.962188 0.263325 -1.17483e-18)
(0.962426 0.262053 1.43103e-18)
(0.962612 0.260644 -7.42658e-19)
(0.962719 0.259077 2.12017e-18)
(0.962725 0.257341 -5.93279e-18)
(0.962606 0.255438 1.60084e-18)
(0.962334 0.253381 3.39053e-18)
(0.961883 0.25119 8.27187e-18)
(0.961234 0.248891 1.03336e-17)
(0.960373 0.246527 1.93584e-18)
(0.959309 0.244129 1.55048e-17)
(0.958059 0.241743 1.61606e-17)
(0.956676 0.239383 1.84115e-17)
(0.955221 0.237052 -1.26895e-17)
(0.953773 0.234706 -1.53081e-17)
(0.952523 0.232195 1.02597e-17)
(0.951461 0.229489 1.31992e-17)
(0.950697 0.226422 2.54726e-17)
(0.950231 0.222701 1.42227e-17)
(0.950227 0.218006 2.6685e-17)
(0.950814 0.21174 4.24446e-17)
(0.952144 0.203048 -6.45226e-18)
(0.954577 0.190062 -2.0466e-17)
(0.956095 0.163664 -1.49785e-17)
(0.964358 0.269193 4.75251e-20)
(0.964227 0.269317 -1.56843e-20)
(0.96409 0.269347 2.81884e-20)
(0.963946 0.269388 -3.94973e-20)
(0.963793 0.26943 9.24986e-20)
(0.963631 0.269473 -4.54279e-20)
(0.963461 0.269517 2.65309e-20)
(0.963283 0.269563 -3.91004e-19)
(0.963096 0.26961 3.32947e-19)
(0.962901 0.269659 -6.87667e-19)
(0.962699 0.26971 7.68865e-19)
(0.96249 0.269761 -9.47624e-20)
(0.962275 0.269813 -2.16791e-19)
(0.962056 0.269865 -1.02999e-19)
(0.961834 0.269915 -2.45178e-20)
(0.961611 0.269963 -1.08554e-18)
(0.961389 0.270004 3.7427e-20)
(0.96117 0.270041 1.22649e-18)
(0.960958 0.270067 -4.11947e-19)
(0.960755 0.270083 -4.48257e-19)
(0.960565 0.270083 7.60002e-19)
(0.960391 0.270068 -3.92982e-19)
(0.960236 0.270029 1.68034e-18)
(0.960103 0.269967 9.56828e-19)
(0.959996 0.269872 7.5469e-19)
(0.959918 0.269745 -2.34741e-18)
(0.959871 0.269571 -3.39277e-19)
(0.959857 0.26935 -1.94266e-18)
(0.959878 0.269068 3.66497e-19)
(0.959935 0.268713 -6.85273e-19)
(0.960029 0.268269 -2.78668e-19)
(0.960158 0.267733 2.26845e-18)
(0.960314 0.267118 -5.81331e-18)
(0.960489 0.266417 -2.79424e-19)
(0.96068 0.26559 -3.10634e-18)
(0.960882 0.264605 -1.54904e-18)
(0.961088 0.263457 3.90901e-19)
(0.961301 0.262112 -5.06602e-18)
(0.961473 0.260629 7.62281e-18)
(0.961567 0.258987 1.29807e-18)
(0.961564 0.257173 8.13225e-18)
(0.961438 0.25519 -5.85438e-18)
(0.961165 0.253051 -3.92849e-18)
(0.960719 0.250775 -1.36425e-18)
(0.96008 0.248389 7.78725e-18)
(0.959233 0.245934 1.09122e-17)
(0.958187 0.243441 2.8607e-18)
(0.956955 0.240953 4.55795e-18)
(0.955588 0.238484 -5.68881e-18)
(0.954142 0.236034 3.26781e-17)
(0.952695 0.233556 7.85264e-18)
(0.95144 0.230898 -6.90874e-18)
(0.950361 0.228019 3.72791e-18)
(0.949578 0.224762 2.28708e-17)
(0.949086 0.220808 -2.19751e-18)
(0.949075 0.215851 -2.04142e-17)
(0.94966 0.209248 -4.875e-17)
(0.951017 0.200178 4.26333e-17)
(0.953521 0.186744 -2.59073e-17)
(0.955736 0.159992 1.96719e-17)
(0.964372 0.269214 -1.83041e-20)
(0.964241 0.269336 7.53229e-20)
(0.964105 0.269364 -1.266e-19)
(0.963961 0.269403 9.64169e-20)
(0.963809 0.269443 6.49447e-20)
(0.963648 0.269484 -6.90961e-20)
(0.963478 0.269526 6.20577e-21)
(0.9633 0.26957 -5.50027e-20)
(0.963112 0.269616 -1.90942e-19)
(0.962915 0.269663 3.72435e-19)
(0.96271 0.269712 -5.94016e-19)
(0.962497 0.269761 5.29658e-19)
(0.962276 0.269811 4.83652e-19)
(0.962048 0.269862 -7.60102e-19)
(0.961815 0.269912 -2.58243e-19)
(0.961577 0.26996 9.81155e-19)
(0.961337 0.270004 -1.21818e-18)
(0.961097 0.270043 1.72686e-18)
(0.960858 0.270074 -3.28194e-19)
(0.960624 0.270097 2.03071e-19)
(0.960399 0.270105 -3.1769e-19)
(0.960184 0.270099 -4.12838e-19)
(0.959983 0.270071 -7.91742e-19)
(0.959801 0.270021 1.40529e-18)
(0.959641 0.269939 -9.82507e-19)
(0.959505 0.269824 -9.9079e-19)
(0.959398 0.269661 2.07666e-18)
(0.959321 0.269451 -2.04983e-18)
(0.959278 0.269177 3.31664e-18)
(0.959269 0.268828 -1.8065e-18)
(0.959297 0.268387 1.41085e-18)
(0.95936 0.267848 -2.45319e-18)
(0.95945 0.267227 2.68595e-18)
(0.959561 0.266515 -2.41303e-19)
(0.95969 0.265669 -1.42182e-19)
(0.959831 0.264662 -7.74699e-20)
(0.959982 0.263487 -1.6186e-18)
(0.960158 0.262107 4.49862e-18)
(0.960306 0.260594 -3.39881e-18)
(0.960379 0.258924 -1.92842e-17)
(0.960359 0.257082 -7.99248e-18)
(0.960223 0.255072 5.52564e-18)
(0.959947 0.252903 -6.18304e-18)
(0.959506 0.250596 -6.50523e-18)
(0.958881 0.248174 -5.34087e-19)
(0.958058 0.245675 1.5946e-17)
(0.957043 0.243129 -2.25511e-17)
(0.955847 0.240574 -2.19712e-17)
(0.954517 0.238022 -1.36038e-17)
(0.953102 0.235474 -2.24417e-17)
(0.951682 0.232877 1.46941e-17)
(0.950445 0.230082 -5.02193e-18)
(0.949377 0.227042 -4.09236e-17)
(0.948595 0.223611 8.76064e-18)
(0.948097 0.219456 1.02724e-17)
(0.948089 0.214276 -2.08502e-17)
(0.948677 0.207407 1.20539e-17)
(0.950056 0.198039 1.45069e-17)
(0.952613 0.184278 4.16203e-17)
(0.95536 0.157252 7.08294e-19)
(0.964374 0.269242 2.1849e-20)
(0.964243 0.269364 -1.00404e-19)
(0.964106 0.269391 4.9237e-20)
(0.963962 0.269428 9.54716e-20)
(0.963808 0.269465 -2.09549e-19)
(0.963646 0.269504 1.78906e-19)
(0.963475 0.269543 -1.22773e-19)
(0.963295 0.269583 1.06126e-19)
(0.963105 0.269626 1.75308e-19)
(0.962906 0.269669 -4.28922e-19)
(0.962698 0.269714 6.35162e-19)
(0.96248 0.26976 2.81269e-19)
(0.962254 0.269806 -1.12472e-18)
(0.962019 0.269853 -2.21992e-19)
(0.961776 0.269898 6.25223e-19)
(0.961527 0.269943 4.17215e-19)
(0.961273 0.269982 -5.13988e-19)
(0.961016 0.270018 4.64772e-19)
(0.960756 0.270045 7.42919e-19)
(0.960498 0.270065 -3.57667e-19)
(0.960243 0.270071 -2.10526e-19)
(0.959994 0.270064 7.90108e-19)
(0.959755 0.270036 1.66927e-18)
(0.959529 0.269988 -1.2093e-18)
(0.95932 0.269908 -1.38669e-18)
(0.959132 0.269796 1.57445e-18)
(0.958968 0.269638 -1.23459e-18)
(0.95883 0.269433 -5.22116e-19)
(0.958723 0.269163 4.37712e-18)
(0.958649 0.268818 -1.96315e-18)
(0.958609 0.26838 -1.54881e-18)
(0.958602 0.267843 2.06358e-18)
(0.958622 0.267221 1.46725e-18)
(0.958663 0.266506 -1.35351e-18)
(0.958722 0.265656 -9.38151e-19)
(0.958797 0.264642 3.0808e-18)
(0.958885 0.26346 6.74702e-19)
(0.959017 0.262071 1.05977e-18)
(0.959136 0.260555 -5.59829e-18)
(0.959183 0.258886 -5.45825e-18)
(0.959142 0.257048 1.02879e-17)
(0.958992 0.255042 8.10807e-18)
(0.95871 0.252878 1.33536e-17)
(0.958274 0.250572 -1.22921e-17)
(0.957666 0.248146 -1.3449e-17)
(0.956871 0.245634 -8.53663e-18)
(0.955895 0.24306 2.04997e-17)
(0.954745 0.240462 1.96458e-17)
(0.953465 0.237846 -2.09979e-17)
(0.9521 0.235213 -3.04084e-17)
(0.950726 0.232511 -4.49448e-18)
(0.949527 0.229589 5.92411e-18)
(0.948484 0.2264 1.57459e-19)
(0.947715 0.222807 -1.43579e-17)
(0.947223 0.218473 1.29052e-17)
(0.947222 0.213096 6.75411e-18)
(0.947815 0.205999 9.56699e-18)
(0.949209 0.196381 -4.39339e-17)
(0.951815 0.182343 -2.2e-18)
(0.954924 0.155058 1.92822e-18)
(0.964367 0.269283 -3.72437e-20)
(0.964235 0.269402 -3.08606e-20)
(0.964096 0.269427 4.13757e-20)
(0.96395 0.269462 1.52483e-19)
(0.963794 0.269498 -3.35303e-19)
(0.963629 0.269535 3.9191e-19)
(0.963455 0.269572 -1.60765e-20)
(0.963272 0.26961 -2.39614e-20)
(0.963079 0.26965 -1.49552e-19)
(0.962875 0.26969 3.75318e-19)
(0.962662 0.269731 -5.88825e-19)
(0.962439 0.269772 2.26134e-19)
(0.962206 0.269813 -8.15266e-21)
(0.961964 0.269854 3.75102e-19)
(0.961713 0.269893 1.8594e-19)
(0.961453 0.269931 -9.94311e-19)
(0.961186 0.269963 8.82364e-19)
(0.960914 0.269992 3.59535e-19)
(0.960636 0.270012 -1.04771e-18)
(0.960356 0.270026 5.24224e-19)
(0.960076 0.270025 2.52576e-19)
(0.959798 0.270013 -1.63272e-19)
(0.959526 0.269979 2.24916e-19)
(0.959262 0.269927 -1.2205e-19)
(0.95901 0.269843 -1.52602e-18)
(0.958774 0.269729 1.02616e-18)
(0.958557 0.26957 -1.59957e-18)
(0.958363 0.269364 3.01461e-18)
(0.958195 0.269094 -5.67206e-19)
(0.958056 0.26875 -3.50403e-19)
(0.957949 0.268314 -9.49166e-20)
(0.957873 0.267778 3.44481e-18)
(0.957822 0.267158 -1.42163e-18)
(0.957791 0.266445 -8.98707e-19)
(0.957779 0.265596 2.34804e-18)
(0.957782 0.264585 2.06584e-18)
(0.957805 0.263407 -3.53065e-18)
(0.957889 0.262023 6.3658e-19)
(0.957976 0.260521 6.73853e-18)
(0.957994 0.25887 -6.42074e-19)
(0.95793 0.257052 4.25689e-18)
(0.957763 0.25507 -6.07083e-18)
(0.957474 0.252929 9.10246e-18)
(0.957042 0.250643 1.9491e-17)
(0.95645 0.248231 5.50063e-18)
(0.955683 0.245722 -7.59365e-18)
(0.954747 0.243137 -2.27711e-17)
(0.953646 0.24051 4.48722e-18)
(0.952422 0.237842 6.45297e-18)
(0.951111 0.235137 1.27158e-17)
(0.949789 0.232337 -8.61838e-19)
(0.948633 0.229298 -2.4133e-17)
(0.947626 0.225965 2.03713e-17)
(0.946882 0.222218 -1.35266e-17)
(0.946406 0.217716 2.73219e-17)
(0.946417 0.212154 6.22105e-18)
(0.947019 0.204851 2.86987e-17)
(0.948431 0.195004 3.80189e-17)
(0.951081 0.180715 6.90548e-18)
(0.954484 0.153137 1.03883e-17)
(0.964349 0.269337 -1.82666e-20)
(0.964214 0.26946 1.58312e-20)
(0.964072 0.269484 8.22507e-20)
(0.963923 0.269519 1.33977e-19)
(0.963764 0.269553 -3.99656e-19)
(0.963595 0.269589 2.34356e-19)
(0.963417 0.269623 -4.32137e-19)
(0.96323 0.269658 6.88205e-19)
(0.963031 0.269694 -3.28422e-19)
(0.962823 0.269731 5.96724e-20)
(0.962604 0.269768 6.70769e-19)
(0.962374 0.269805 -1.55292e-18)
(0.962134 0.269842 1.07954e-18)
(0.961884 0.269877 1.59336e-19)
(0.961623 0.269911 2.63367e-19)
(0.961352 0.269942 -1.10263e-18)
(0.961073 0.269968 5.53639e-19)
(0.960786 0.269989 -7.03391e-19)
(0.960492 0.270001 1.42207e-18)
(0.960193 0.270005 -1.84161e-19)
(0.959891 0.269996 -1.87741e-18)
(0.959587 0.269974 7.55639e-19)
(0.959284 0.269932 -4.35435e-20)
(0.958986 0.269871 -2.9261e-18)
(0.958696 0.269779 2.20313e-18)
(0.958416 0.269658 1.69626e-18)
(0.958152 0.269493 1.187e-18)
(0.957905 0.269283 -1.5426e-18)
(0.95768 0.26901 -1.7382e-18)
(0.95748 0.268664 8.20571e-19)
(0.957308 0.268227 1.25001e-18)
(0.957164 0.267692 -1.55744e-18)
(0.957043 0.267074 -2.379e-18)
(0.956941 0.266363 4.97934e-18)
(0.956857 0.265519 5.48719e-19)
(0.956789 0.264514 -7.87534e-18)
(0.956745 0.263347 6.76297e-19)
(0.95678 0.261977 5.39367e-18)
(0.956834 0.260498 4.92777e-19)
(0.956823 0.258874 6.95909e-18)
(0.956734 0.257088 -9.60356e-18)
(0.956549 0.25514 -6.148e-19)
(0.956252 0.253032 -6.11026e-18)
(0.955821 0.250777 2.2933e-18)
(0.955243 0.248388 9.83802e-18)
(0.954503 0.245893 2.9775e-17)
(0.953606 0.243306 4.21284e-18)
(0.952555 0.240658 -1.8613e-17)
(0.951388 0.237948 1.39963e-17)
(0.950137 0.235176 4.83701e-17)
(0.948874 0.232288 -3.81486e-17)
(0.947769 0.229136 4.4645e-17)
(0.946804 0.22567 -2.66468e-17)
(0.946087 0.221774 -1.4621e-17)
(0.945633 0.217114 -5.61463e-17)
(0.945659 0.211376 -3.07491e-18)
(0.946273 0.20388 -1.76243e-17)
(0.947701 0.193815 -1.97455e-17)
(0.950399 0.17928 1.55074e-17)
(0.953999 0.151386 3.28357e-18)
(0.964322 0.26941 2.56728e-20)
(0.964183 0.269529 9.46343e-21)
(0.964038 0.269552 -9.6549e-20)
(0.963885 0.269585 9.36805e-20)
(0.963721 0.269617 -4.23213e-20)
(0.963549 0.269652 7.79919e-20)
(0.963366 0.269685 2.81729e-20)
(0.963172 0.269718 -4.0644e-19)
(0.962969 0.269752 1.77693e-19)
(0.962753 0.269787 -1.26979e-19)
(0.962527 0.269821 7.56983e-20)
(0.96229 0.269854 3.08076e-19)
(0.962041 0.269887 -5.85366e-20)
(0.961782 0.269917 1.98129e-19)
(0.961511 0.269945 -8.52398e-19)
(0.961229 0.269971 3.31386e-19)
(0.960937 0.269989 1.48438e-19)
(0.960636 0.270003 -4.21502e-19)
(0.960325 0.270008 8.48578e-19)
(0.960008 0.270004 2.87778e-19)
(0.959684 0.269986 -3.01567e-20)
(0.959356 0.269955 -3.24209e-19)
(0.959026 0.269904 1.32037e-18)
(0.958697 0.269833 -3.70119e-18)
(0.958371 0.269733 1.95095e-18)
(0.958052 0.269603 8.4756e-19)
(0.957743 0.26943 -1.44008e-18)
(0.957447 0.269212 2.59869e-18)
(0.957169 0.268934 -1.2694e-18)
(0.956911 0.268583 -6.81953e-19)
(0.956678 0.268144 -1.35401e-18)
(0.956469 0.267606 -5.64585e-19)
(0.956281 0.26699 1.57058e-18)
(0.956109 0.266283 -4.86096e-18)
(0.955955 0.265443 9.36353e-18)
(0.955817 0.264447 -6.45558e-19)
(0.955707 0.263293 5.0445e-18)
(0.955694 0.261942 -1.28348e-17)
(0.955715 0.260489 -3.99459e-18)
(0.955674 0.258897 3.5312e-20)
(0.95556 0.257146 -2.92035e-18)
(0.955357 0.255235 -4.317e-19)
(0.955049 0.253165 -1.04239e-17)
(0.954618 0.250943 3.39689e-18)
(0.954051 0.248583 4.94405e-18)
(0.953336 0.246105 -2.76106e-17)
(0.952475 0.243522 3.48898e-17)
(0.951471 0.240858 5.1213e-18)
(0.950359 0.238111 1.42937e-18)
(0.949165 0.235279 -3.3002e-17)
(0.947958 0.232306 1.1534e-17)
(0.946904 0.229049 -2.36332e-17)
(0.945984 0.225454 4.51555e-17)
(0.9453 0.221413 9.37453e-18)
(0.944872 0.216599 -3.75737e-17)
(0.944918 0.21069 1.41672e-17)
(0.945547 0.203007 -4.01979e-17)
(0.946997 0.192727 -8.94153e-18)
(0.949741 0.177946 -5.73905e-17)
(0.953515 0.149697 -1.31138e-17)
(0.96429 0.269498 -5.74128e-21)
(0.964148 0.269619 -2.30511e-20)
(0.963999 0.269641 -2.07539e-20)
(0.96384 0.269674 2.00509e-19)
(0.963672 0.269705 -1.12236e-19)
(0.963494 0.269737 -1.3937e-19)
(0.963306 0.269768 -5.47305e-20)
(0.963106 0.2698 -2.26617e-19)
(0.962895 0.269831 1.39504e-19)
(0.962673 0.269863 1.84848e-20)
(0.962439 0.269895 5.35427e-21)
(0.962192 0.269925 6.52579e-19)
(0.961934 0.269955 -4.70316e-19)
(0.961665 0.269982 -6.04297e-20)
(0.961382 0.270006 5.65901e-19)
(0.961088 0.270026 -3.16205e-19)
(0.960782 0.270039 -1.26017e-19)
(0.960466 0.270047 2.04535e-19)
(0.960139 0.270043 6.79617e-19)
(0.959802 0.270031 3.87648e-19)
(0.959458 0.270004 1.52722e-19)
(0.959107 0.269964 -9.90138e-19)
(0.958751 0.269903 5.16176e-19)
(0.958392 0.269822 1.01151e-18)
(0.958033 0.269711 -2.12711e-18)
(0.957677 0.269572 7.0037e-19)
(0.957327 0.26939 -2.81145e-18)
(0.956986 0.269163 2.32608e-18)
(0.956658 0.268878 2.08436e-18)
(0.956346 0.26852 -3.25145e-18)
(0.956055 0.268076 -1.59065e-18)
(0.955785 0.267537 2.14104e-18)
(0.955532 0.26692 7.32167e-19)
(0.955293 0.266214 -2.05706e-18)
(0.955071 0.26538 -2.66746e-18)
(0.954866 0.264393 -3.25179e-18)
(0.954691 0.263252 2.04127e-18)
(0.95463 0.261922 4.91644e-18)
(0.95462 0.260497 1.71159e-18)
(0.95455 0.258938 -1.54936e-18)
(0.95441 0.257223 1.67e-17)
(0.954188 0.25535 -1.69906e-18)
(0.953868 0.253318 1.72468e-17)
(0.953435 0.251132 -3.0868e-17)
(0.952877 0.248802 4.79278e-18)
(0.952183 0.246343 8.93934e-19)
(0.951355 0.243764 -1.8617e-18)
(0.950395 0.241087 -2.355e-17)
(0.949335 0.238305 -3.76867e-17)
(0.948197 0.235417 3.34303e-17)
(0.947049 0.232364 4.34641e-17)
(0.946048 0.229006 2.26424e-17)
(0.945174 0.225288 -4.37417e-17)
(0.944523 0.221106 2.31198e-17)
(0.944125 0.216144 5.60418e-17)
(0.94419 0.210066 2.30623e-17)
(0.944838 0.2022 3.92172e-17)
(0.946309 0.191707 1.9518e-17)
(0.949106 0.176675 5.53285e-17)
(0.952998 0.148045 -3.99647e-17)
(0.964255 0.269604 7.46249e-21)
(0.964109 0.269722 -2.27354e-20)
(0.963955 0.269742 8.29449e-20)
(0.963792 0.269773 2.29134e-20)
(0.963619 0.269804 -1.18025e-19)
(0.963434 0.269836 -1.4034e-19)
(0.963239 0.269866 3.36254e-19)
(0.963032 0.269897 -3.75196e-19)
(0.962814 0.269927 -9.68122e-20)
(0.962583 0.269958 2.39273e-19)
(0.962339 0.269988 2.28536e-19)
(0.962083 0.270016 7.13047e-19)
(0.961815 0.270042 -4.00452e-19)
(0.961534 0.270065 -7.11806e-19)
(0.961239 0.270085 1.5874e-19)
(0.960932 0.270101 -6.08577e-19)
(0.960612 0.270109 4.60448e-19)
(0.96028 0.27011 -8.00948e-19)
(0.959935 0.270101 1.25067e-19)
(0.95958 0.270082 -2.77866e-19)
(0.959215 0.270047 -1.82192e-19)
(0.958841 0.269999 -7.80547e-19)
(0.958459 0.269928 6.25797e-20)
(0.958072 0.269839 1.72674e-18)
(0.957682 0.269718 -6.02889e-19)
(0.957291 0.269569 1.88087e-19)
(0.956902 0.269377 5.63551e-19)
(0.956518 0.269141 -7.66382e-19)
(0.956143 0.268847 -1.65937e-19)
(0.955781 0.268483 1.12037e-18)
(0.955435 0.268034 1.25653e-18)
(0.955107 0.26749 -9.50089e-19)
(0.954793 0.266872 -3.09214e-18)
(0.954491 0.266168 -4.49217e-18)
(0.954204 0.265337 7.01846e-18)
(0.953934 0.264357 1.95368e-18)
(0.953696 0.263229 1.25653e-18)
(0.953589 0.261919 6.38539e-18)
(0.953548 0.260522 -5.7601e-18)
(0.95345 0.258994 3.55347e-18)
(0.953286 0.257313 8.64178e-20)
(0.953044 0.255477 2.62132e-19)
(0.952711 0.253481 -6.30359e-18)
(0.952275 0.251329 1.43091e-17)
(0.951723 0.249025 -1.88031e-17)
(0.951046 0.246585 1.12264e-17)
(0.950247 0.244011 -3.16167e-17)
(0.949326 0.241321 8.65465e-18)
(0.948314 0.238507 1.98425e-17)
(0.947227 0.235565 -3.36777e-17)
(0.946133 0.232436 -8.1549e-18)
(0.94518 0.228982 -1.80902e-18)
(0.944351 0.225143 -8.08209e-18)
(0.943737 0.220825 -2.44704e-17)
(0.94337 0.215714 1.56262e-18)
(0.94346 0.209472 2.27627e-17)
(0.944129 0.201423 -2.35257e-17)
(0.945628 0.190716 -6.40127e-18)
(0.948477 0.175427 -7.24996e-18)
(0.952485 0.146385 3.03445e-17)
(0.964212 0.269725 1.39582e-20)
(0.964061 0.269849 -1.18428e-20)
(0.963902 0.26987 1.12976e-20)
(0.963733 0.269902 7.37006e-20)
(0.963554 0.269933 1.10144e-19)
(0.963363 0.269964 -4.32143e-19)
(0.963161 0.269992 3.1827e-19)
(0.962947 0.270021 6.9278e-20)
(0.96272 0.270049 -1.92638e-20)
(0.962481 0.270078 -1.52491e-19)
(0.962228 0.270105 4.82268e-19)
(0.961962 0.27013 -1.55351e-19)
(0.961682 0.270154 -2.23226e-19)
(0.961389 0.270174 -6.88662e-19)
(0.961082 0.27019 1.40261e-18)
(0.960761 0.270202 -2.90533e-19)
(0.960426 0.270205 -2.49974e-19)
(0.960078 0.270201 -7.6746e-19)
(0.959717 0.270186 8.59926e-19)
(0.959342 0.27016 4.89739e-19)
(0.958957 0.270118 -2.23211e-19)
(0.95856 0.270061 4.01983e-19)
(0.958153 0.269982 -1.72531e-18)
(0.957739 0.269884 1.14585e-19)
(0.957318 0.269753 9.84279e-19)
(0.956893 0.269595 -1.89785e-19)
(0.956468 0.269393 -3.14505e-18)
(0.956044 0.269148 2.75008e-19)
(0.955625 0.268846 2.88e-18)
(0.955215 0.268473 -7.81867e-19)
(0.954817 0.268018 -1.53814e-18)
(0.954434 0.26747 9.10636e-19)
(0.954061 0.266849 2.73392e-18)
(0.953699 0.266144 6.57652e-18)
(0.953351 0.265316 -1.03456e-18)
(0.953018 0.264343 1.45096e-18)
(0.952721 0.263226 -1.09386e-17)
(0.952568 0.261935 -3.15966e-18)
(0.952499 0.260564 1.98804e-18)
(0.952374 0.259065 -8.1623e-18)
(0.952185 0.257417 -1.75058e-18)
(0.951923 0.255615 3.76684e-18)
(0.951577 0.253653 3.07328e-18)
(0.951135 0.251531 8.45767e-18)
(0.950587 0.249252 2.77713e-17)
(0.949924 0.246827 -2.19416e-17)
(0.94915 0.244257 3.48682e-17)
(0.948264 0.241554 2.61835e-17)
(0.947295 0.238708 -1.00338e-19)
(0.946258 0.235714 3.33128e-17)
(0.945216 0.232512 -4.45324e-17)
(0.944312 0.228963 -5.25497e-17)
(0.943528 0.225009 4.0183e-17)
(0.942951 0.220556 3.40473e-17)
(0.942616 0.215303 -1.4246e-17)
(0.94273 0.208896 -7.86335e-17)
(0.943424 0.200667 1.81935e-17)
(0.944951 0.189745 -1.92028e-17)
(0.947857 0.174191 -2.79487e-17)
(0.951942 0.144719 2.57283e-17)
(0.964163 0.269864 -1.50969e-20)
(0.964006 0.269985 1.66698e-20)
(0.963842 0.270005 1.17133e-19)
(0.963667 0.270036 -1.5472e-19)
(0.963481 0.270065 2.89031e-19)
(0.963284 0.270096 -4.31305e-19)
(0.963074 0.270125 1.23256e-19)
(0.962852 0.270153 -6.91459e-21)
(0.962618 0.270181 2.89073e-19)
(0.962369 0.270208 -1.53813e-19)
(0.962106 0.270235 4.74113e-20)
(0.96183 0.270258 5.02255e-20)
(0.961539 0.270279 -7.83678e-19)
(0.961234 0.270297 2.34028e-19)
(0.960914 0.27031 5.61874e-19)
(0.960578 0.270319 1.9183e-20)
(0.960229 0.270318 -9.77946e-19)
(0.959864 0.27031 4.0091e-19)
(0.959485 0.27029 1.93013e-18)
(0.959091 0.270259 -1.27096e-18)
(0.958685 0.270211 -9.87523e-19)
(0.958265 0.270147 8.48441e-19)
(0.957834 0.270061 5.55995e-19)
(0.957393 0.269955 6.30323e-19)
(0.956943 0.269816 -1.22644e-18)
(0.956486 0.269648 -2.70346e-18)
(0.956025 0.269438 2.05494e-18)
(0.955562 0.269183 2.99371e-18)
(0.955102 0.268873 8.4783e-19)
(0.954646 0.268493 -1.66028e-18)
(0.954199 0.268031 7.82087e-19)
(0.953764 0.267477 1.33089e-18)
(0.953336 0.266853 -2.31124e-18)
(0.952917 0.266147 -3.62571e-19)
(0.95251 0.265319 -4.30676e-18)
(0.952118 0.264351 -1.202e-18)
(0.951762 0.263245 -1.16815e-18)
(0.951567 0.26197 3.1203e-18)
(0.951471 0.260622 -4.28446e-18)
(0.95132 0.25915 1.23419e-18)
(0.951108 0.25753 2.02293e-18)
(0.950826 0.255758 5.28376e-19)
(0.950466 0.253825 -1.26068e-17)
(0.950016 0.251729 -1.75073e-17)
(0.94947 0.249472 -1.53519e-17)
(0.948818 0.24706 3.03592e-17)
(0.948064 0.244491 7.39419e-19)
(0.94721 0.241774 -1.21851e-17)
(0.946279 0.238897 6.39733e-18)
(0.945286 0.235851 -3.94045e-17)
(0.944291 0.232577 1.8905e-17)
(0.94343 0.228939 5.17012e-17)
(0.942689 0.224874 -3.08625e-18)
(0.94215 0.220289 -4.42821e-17)
(0.94185 0.214892 2.06592e-17)
(0.94199 0.208323 1.92998e-17)
(0.94271 0.199913 2.39914e-17)
(0.94427 0.188774 5.41419e-17)
(0.947235 0.172948 5.12719e-17)
(0.951403 0.143019 -5.91877e-17)
(0.964112 0.27002 -1.28267e-20)
(0.96395 0.270144 1.87487e-20)
(0.963781 0.270165 4.11871e-21)
(0.9636 0.270195 7.48389e-20)
(0.963407 0.270224 -1.14556e-19)
(0.963202 0.270253 -2.41992e-19)
(0.962985 0.27028 8.51782e-20)
(0.962755 0.270307 -1.2156e-19)
(0.962511 0.270333 2.62442e-19)
(0.962253 0.270359 -5.47697e-20)
(0.961979 0.270384 -1.8348e-19)
(0.961692 0.270407 1.5216e-19)
(0.961389 0.270426 2.54462e-19)
(0.961072 0.270442 7.18413e-19)
(0.960737 0.270453 -1.31847e-18)
(0.960387 0.270459 6.85104e-19)
(0.960022 0.270455 1.08201e-19)
(0.959641 0.270443 -6.9849e-19)
(0.959243 0.270418 -4.45839e-19)
(0.95883 0.270382 1.47887e-18)
(0.958402 0.270328 -1.57332e-18)
(0.95796 0.270258 4.74689e-19)
(0.957504 0.270165 -1.3098e-18)
(0.957037 0.270052 2.20826e-18)
(0.956557 0.269905 -4.53459e-19)
(0.956069 0.269729 -1.29207e-18)
(0.955574 0.26951 1.04785e-18)
(0.955074 0.269247 1.99281e-18)
(0.954573 0.268929 -1.90237e-18)
(0.954074 0.268539 1.18033e-18)
(0.953581 0.268071 -4.04592e-18)
(0.953096 0.267512 -4.52697e-19)
(0.952616 0.266883 1.78523e-18)
(0.952142 0.266174 -1.07119e-18)
(0.951679 0.265346 -2.24024e-18)
(0.95123 0.264382 -5.42766e-18)
(0.95082 0.263284 7.02812e-18)
(0.950583 0.262024 -2.80465e-18)
(0.950462 0.260696 2.11272e-18)
(0.950286 0.259247 4.30894e-18)
(0.950051 0.257653 3.4064e-18)
(0.949749 0.255907 -2.08186e-18)
(0.949374 0.254 7.30426e-18)
(0.948916 0.251927 1.3683e-17)
(0.948369 0.249688 -1.37821e-18)
(0.947725 0.247286 -1.83351e-17)
(0.946988 0.244715 -2.45203e-17)
(0.94616 0.241982 -1.85962e-18)
(0.945264 0.239072 1.82893e-17)
(0.944312 0.235976 -3.50497e-18)
(0.943362 0.232632 3.3098e-17)
(0.942545 0.228905 -5.06876e-17)
(0.941847 0.22473 -2.68324e-17)
(0.941344 0.220016 -1.11392e-17)
(0.941078 0.214479 -2.27492e-17)
(0.941246 0.207748 1.43554e-17)
(0.941995 0.199158 -1.83934e-17)
(0.943589 0.187799 -7.23884e-17)
(0.946615 0.171694 -8.10799e-17)
(0.950839 0.141294 3.22591e-17)
(0.964062 0.270192 -1.93875e-20)
(0.963895 0.270313 1.5691e-20)
(0.963719 0.270332 1.27525e-20)
(0.963531 0.270362 -9.32552e-20)
(0.963332 0.27039 9.71771e-20)
(0.963119 0.27042 -4.92504e-20)
(0.962894 0.270447 1.63167e-19)
(0.962655 0.270474 -2.46895e-19)
(0.962401 0.2705 1.29736e-20)
(0.962132 0.270526 1.86262e-20)
(0.961848 0.27055 -1.95583e-19)