/*--------------------------------*- C++ -*----------------------------------*\
  =========                 |
  \\      /  F ield         | OpenFOAM: The Open Source CFD Toolbox
   \\    /   O peration     | Website:  https://openfoam.org
    \\  /    A nd           | Version:  6.0
     \\/     M anipulation  |
\*---------------------------------------------------------------------------*/
FoamFile
{
    version     2.0;
    format      ascii;
    class       volVectorField;
    location    "10";
    object      U;
}
// * * * * * * * * * * * * * * * * * * * * * * * * * * * * * * * * * * * * * //

dimensions      [0 1 -1 0 0 0 0];

internalField   nonuniform List<vector> 
13500
(
(1 3.4107e-06 -5.4081e-18)
(1 -6.1143e-06 3.649e-18)
(1 -1.0247e-05 -1.567e-17)
(1 -1.7977e-05 -1.0795e-17)
(1 -1.9426e-05 2.0142e-17)
(1 -1.9932e-05 3.7156e-17)
(1 -1.5803e-05 3.1382e-17)
(1 2.6198e-06 -4.956e-18)
(0.99996 2.2081e-05 1.7811e-17)
(0.99984 6.1894e-05 3.6607e-18)
(0.99579 0.00074275 3.0939e-17)
(1.0192 0.010825 7.9481e-18)
(1 9.5895e-06 3.3505e-18)
(1 -8.3208e-06 -1.1082e-17)
(1 -1.8029e-05 7.4831e-18)
(1 -3.0135e-05 -4.2591e-19)
(1 -3.1853e-05 -5.3723e-19)
(1 -2.8102e-05 -4.4677e-17)
(1 -1.2334e-05 -5.4202e-17)
(0.99994 4.0415e-05 -2.8357e-17)
(0.99979 0.00010395 -1.7776e-17)
(0.99988 0.00016834 -1.8094e-18)
(0.9863 0.0021607 -1.4653e-17)
(1.0538 0.030588 -4.8127e-18)
(1 1.5775e-05 -4.3275e-18)
(1 -1.0966e-05 2.2018e-17)
(1 -2.6611e-05 3.8923e-18)
(1 -4.4086e-05 1.2447e-17)
(1 -4.5869e-05 -4.6447e-18)
(1 -3.9593e-05 3.5789e-17)
(1 -1.1342e-05 -7.6303e-18)
(0.9999 7.4269e-05 6.441e-18)
(0.99961 0.00018989 -2.1567e-17)
(1.0004 0.00028796 2.7495e-17)
(0.97616 0.0032246 -7.6689e-18)
(1.0825 0.045074 1.6915e-18)
(1 2.2289e-05 1.1313e-17)
(1 -1.5737e-05 -2.1347e-17)
(1 -3.739e-05 -1.845e-17)
(1 -6.2736e-05 -8.7334e-19)
(1 -6.4133e-05 7.1701e-18)
(1.0001 -5.6708e-05 -9.9263e-19)
(1 -1.5261e-05 7.5176e-17)
(0.99987 0.00010293 1.1606e-17)
(0.9994 0.00027889 2.5502e-17)
(1.0014 0.00042493 -9.9592e-18)
(0.96574 0.0039625 3.737e-17)
(1.1039 0.055567 -7.7009e-18)
(1 2.909e-05 -7.9494e-18)
(1 -2.0818e-05 1.845e-17)
(1 -4.7948e-05 1.5706e-17)
(1 -8.1714e-05 1.5931e-17)
(1.0001 -8.2373e-05 3.5158e-18)
(1.0001 -7.4013e-05 2.6307e-17)
(1 -1.9259e-05 -3.357e-17)
(0.99985 0.00013072 2.3578e-18)
(0.99914 0.00037344 -1.5638e-17)
(1.0027 0.00058355 -2.3758e-18)
(0.95545 0.004427 -9.6771e-18)
(1.1179 0.063207 2.1331e-18)
(0.99999 3.6085e-05 8.0452e-18)
(1 -2.6107e-05 -7.6486e-18)
(1 -5.8382e-05 4.797e-18)
(1 -0.0001009 -3.1559e-17)
(1.0001 -0.00010067 -1.0282e-19)
(1.0001 -9.1415e-05 -5.2078e-17)
(1.0001 -2.3342e-05 1.2886e-18)
(0.99984 0.00015751 -1.8923e-17)
(0.99882 0.00047218 5.9542e-18)
(1.0045 0.00077051 -2.3945e-17)
(0.94562 0.0046606 -2.3353e-17)
(1.1254 0.068608 2.0656e-18)
(0.99999 4.319e-05 -1.3315e-18)
(1 -3.1512e-05 -9.1484e-18)
(1 -6.8773e-05 -3.8983e-18)
(1.0001 -0.00012022 2.3821e-17)
(1.0001 -0.00011906 -3.2565e-17)
(1.0001 -0.00010893 1.9928e-17)
(1.0001 -2.7448e-05 2.2457e-17)
(0.99985 0.00018323 6.6571e-18)
(0.99843 0.00057377 1.3315e-17)
(1.0066 0.0009922 1.2891e-17)
(0.93655 0.0047013 1.0075e-17)
(1.1272 0.072197 3.3208e-18)
(0.99999 5.0342e-05 -2.7487e-18)
(1 -3.6965e-05 -1.8002e-18)
(1 -7.9181e-05 -3.3587e-17)
(1.0001 -0.00013966 -1.1376e-17)
(1.0001 -0.00013755 9.1141e-18)
(1.0001 -0.00012658 3.2662e-17)
(1.0001 -3.1548e-05 1.4297e-17)
(0.99986 0.00020778 5.9442e-18)
(0.99798 0.00067684 -8.7039e-18)
(1.009 0.0012524 1.8059e-17)
(0.92848 0.0045855 8.1522e-18)
(1.1244 0.074339 -1.0569e-17)
(0.99999 5.7498e-05 -8.5341e-18)
(1 -4.2428e-05 7.7374e-18)
(1 -8.9646e-05 5.6474e-17)
(1.0001 -0.00015919 -1.3646e-17)
(1.0001 -0.00015615 3.4137e-17)
(1.0001 -0.00014441 -6.4487e-17)
(1.0001 -3.5638e-05 -4.7619e-17)
(0.99989 0.00023112 1.1552e-17)
(0.99744 0.00078004 -6.5396e-18)
(1.0116 0.0015527 -9.9591e-18)
(0.92155 0.0043476 -1.5047e-17)
(1.1179 0.075337 1.3835e-17)
(0.99998 6.464e-05 5.6227e-18)
(1 -4.7881e-05 2.9126e-18)
(1 -0.00010019 -4.784e-17)
(1.0001 -0.00017883 1.9421e-17)
(1.0001 -0.00017486 -1.4887e-17)
(1.0001 -0.00016243 2.7506e-17)
(1.0001 -3.9717e-05 1.6925e-17)
(0.99994 0.00025324 2.9219e-18)
(0.99682 0.00088206 6.1537e-19)
(1.0144 0.0018925 1.5793e-18)
(0.91587 0.0040198 4.7971e-18)
(1.1087 0.075445 -7.2141e-19)
(0.99998 7.1764e-05 -3.0875e-18)
(1 -5.3323e-05 -9.5538e-18)
(1 -0.0001108 1.1727e-17)
(1.0001 -0.00019856 -3.4272e-18)
(1.0001 -0.0001937 2.2986e-18)
(1.0002 -0.00018065 -3.0149e-17)
(1.0001 -4.3787e-05 -3.8986e-17)
(1 0.00027415 -3.7098e-17)
(0.99612 0.00098168 1.8281e-17)
(1.0173 0.00227 2.0518e-18)
(0.91149 0.0036311 -1.2168e-17)
(1.0975 0.074869 -5.9701e-18)
(0.99997 7.888e-05 4.2617e-18)
(0.99999 -5.8762e-05 3.6081e-18)
(1 -0.0001215 5.652e-18)
(1.0001 -0.00021841 -2.7321e-18)
(1.0002 -0.00021266 -6.8898e-18)
(1.0002 -0.00019911 1.1402e-17)
(1.0001 -4.7855e-05 2.2567e-17)
(1.0001 0.00029389 2.292e-17)
(0.99533 0.0010778 1.1751e-17)
(1.0202 0.0026822 -2.5894e-17)
(0.90841 0.0032074 1.2295e-19)
(1.0852 0.073779 -6.9219e-18)
(0.99997 8.6001e-05 -4.2615e-18)
(0.99999 -6.4214e-05 7.097e-18)
(1 -0.00013226 1.0249e-17)
(1.0001 -0.00023839 7.1325e-18)
(1.0002 -0.00023174 -6.3917e-18)
(1.0002 -0.00021782 5.6064e-18)
(1.0002 -5.1929e-05 5.1467e-18)
(1.0002 0.00031252 -2.0471e-18)
(0.99446 0.0011693 -1.899e-17)
(1.0231 0.0031248 2.4016e-17)
(0.9066 0.0027715 1.0952e-19)
(1.0723 0.072314 1.4769e-18)
(0.99997 9.3142e-05 6.4809e-18)
(0.99999 -6.9692e-05 -5.5408e-18)
(1 -0.00014309 8.9826e-19)
(1.0001 -0.00025851 -5.9513e-18)
(1.0002 -0.00025094 1.4516e-17)
(1.0002 -0.00023679 6.8423e-18)
(1.0002 -5.6022e-05 2.0716e-17)
(1.0004 0.00033014 -7.605e-18)
(0.99351 0.0012554 -2.3241e-19)
(1.0261 0.0035932 5.9018e-18)
(0.90599 0.002343 1.8519e-17)
(1.0593 0.070584 9.4165e-19)
(0.99996 0.00010032 1.5637e-18)
(0.99999 -7.5213e-05 1.2298e-17)
(1 -0.00015396 1.7144e-17)
(1.0001 -0.00027879 -5.9352e-18)
(1.0002 -0.00027025 1.0514e-17)
(1.0002 -0.00025606 -3.1941e-18)
(1.0002 -6.015e-05 -3.6284e-17)
(1.0005 0.00034684 2.4075e-17)
(0.99248 0.0013352 -2.1431e-17)
(1.0289 0.0040822 -3.4035e-17)
(0.90649 0.0019382 -4.0586e-18)
(1.0465 0.068683 8.7368e-19)
(0.99996 0.00010754 -3.9882e-18)
(0.99998 -8.079e-05 -1.308e-17)
(1 -0.00016489 -4.1149e-17)
(1.0001 -0.00029925 9.998e-18)
(1.0002 -0.00028969 -1.5954e-17)
(1.0003 -0.00027563 1.0245e-17)
(1.0002 -6.4333e-05 -3.3988e-18)
(1.0007 0.00036276 -1.4493e-17)
(0.99138 0.0014081 4.7011e-18)
(1.0316 0.0045868 2.0326e-17)
(0.908 0.0015703 -8.5406e-18)
(1.0344 0.066683 1.2198e-17)
(0.99995 0.00011483 4.1988e-19)
(0.99998 -8.6435e-05 9.7839e-18)
(1 -0.00017585 2.8413e-17)
(1.0001 -0.00031988 -2.2527e-18)
(1.0002 -0.00030926 -1.5855e-17)
(1.0003 -0.00029551 -1.9093e-17)
(1.0002 -6.8596e-05 1.297e-17)
(1.001 0.00037804 8.3158e-18)
(0.99021 0.0014735 2.7208e-17)
(1.0341 0.0051015 -2.8467e-18)
(0.9104 0.0012494 2.1262e-18)
(1.0232 0.064642 -4.8663e-18)
(0.99995 0.00012219 -2.3551e-18)
(0.99998 -9.2157e-05 -1.1857e-17)
(1 -0.00018684 -1.2822e-17)
(1.0001 -0.00034071 7.5274e-18)
(1.0002 -0.00032896 -8.9087e-18)
(1.0003 -0.00031573 -1.5321e-17)
(1.0002 -7.2968e-05 1.2614e-17)
(1.0012 0.00039283 -5.6395e-18)
(0.98899 0.0015308 -3.3683e-17)
(1.0365 0.0056213 -1.596e-17)
(0.91359 0.00098303 9.2363e-18)
(1.0129 0.062605 -5.2854e-18)
(0.99994 0.00012961 -3.3731e-18)
(0.99997 -9.7963e-05 -4.4833e-18)
(1 -0.00019787 -9.5028e-19)
(1.0001 -0.00036173 -3.297e-17)
(1.0002 -0.00034879 7.4696e-18)
(1.0003 -0.00033629 6.6676e-18)
(1.0002 -7.7482e-05 -2.3976e-17)
(1.0015 0.00040731 -1.9267e-17)
(0.98772 0.0015796 4.9213e-18)
(1.0386 0.0061416 -1.2039e-18)
(0.91744 0.00077599 -1.0662e-17)
(1.0038 0.060607 9.9854e-19)
(0.99993 0.00013712 4.3873e-18)
(0.99997 -0.00010386 2.0549e-17)
(1 -0.00020894 2.4479e-17)
(1.0001 -0.00038296 3.1003e-18)
(1.0003 -0.00036878 2.0662e-17)
(1.0003 -0.00035721 1.1692e-17)
(1.0002 -8.2176e-05 3.4576e-18)
(1.0019 0.00042166 2.1092e-17)
(0.98641 0.0016196 2.449e-17)
(1.0405 0.0066578 1.9063e-17)
(0.92184 0.00063091 7.9727e-18)
(0.99578 0.058674 1.1869e-18)
(0.99993 0.00014471 -2.0918e-18)
(0.99996 -0.00010985 -4.9303e-18)
(1 -0.00022005 -2.608e-17)
(1.0001 -0.0004044 -2.946e-18)
(1.0003 -0.00038893 -1.5665e-17)
(1.0004 -0.0003785 -6.3301e-18)
(1.0002 -8.7093e-05 -2.2258e-18)
(1.0023 0.00043608 -1.9078e-17)
(0.98506 0.0016505 -2.3429e-17)
(1.0421 0.007166 9.7756e-18)
(0.92667 0.00054844 5.5556e-19)
(0.98899 0.056826 6.8198e-19)
(0.99992 0.00015237 5.5453e-18)
(0.99996 -0.00011593 -6.4435e-18)
(1 -0.0002312 -2.447e-17)
(1.0001 -0.00042605 5.5918e-17)
(1.0003 -0.00040925 2.2727e-17)
(1.0004 -0.00040016 -1.5494e-17)
(1.0002 -9.2281e-05 2.988e-17)
(1.0027 0.00045076 2.5791e-17)
(0.98369 0.0016721 3.8027e-17)
(1.0435 0.0076627 -3.5837e-17)
(0.93184 0.00052758 -1.4658e-17)
(0.98336 0.055074 1.7992e-19)
(0.99991 0.00016012 -4.0593e-18)
(0.99995 -0.0001221 -1.2939e-18)
(1 -0.0002424 4.1778e-17)
(1.0002 -0.00044792 -4.2279e-17)
(1.0003 -0.00042975 -2.1859e-18)
(1.0004 -0.00042222 5.1333e-17)
(1.0001 -9.7792e-05 9.2678e-18)
(1.0031 0.00046592 -3.9814e-18)
(0.98232 0.0016843 -2.3589e-17)
(1.0447 0.0081447 4.2239e-17)
(0.93723 0.00056596 -6.2221e-18)
(0.97886 0.053427 -2.8586e-19)
(0.99991 0.00016793 -2.0702e-18)
(0.99995 -0.00012837 -2.5785e-18)
(1 -0.00025365 2.1795e-18)
(1.0002 -0.00047 4.3996e-17)
(1.0003 -0.00045044 -1.234e-17)
(1.0004 -0.00044468 -3.7951e-17)
(1.0001 -0.00010368 -2.362e-17)
(1.0036 0.00048177 -4.2892e-18)
(0.98093 0.0016869 7.4636e-18)
(1.0455 0.0086094 -3.5645e-17)
(0.94277 0.00066013 1.0415e-17)
(0.97541 0.051889 3.1058e-18)
(0.9999 0.00017582 3.4211e-18)
(0.99994 -0.00013472 1.7943e-17)
(1 -0.00026497 -1.6049e-17)
(1.0002 -0.00049229 -4.6018e-18)
(1.0003 -0.00047134 -2.3694e-17)
(1.0005 -0.00046756 4.1303e-17)
(1 -0.00011002 -2.0747e-17)
(1.0041 0.0004985 1.7805e-17)
(0.97956 0.0016798 -2.2997e-18)
(1.0461 0.0090545 3.3428e-17)
(0.94836 0.00080583 -1.0183e-17)
(0.97295 0.05046 -5.1841e-18)
(0.99989 0.00018377 -6.562e-19)
(0.99994 -0.00014116 -1.032e-17)
(1 -0.00027636 -2.2483e-17)
(1.0002 -0.0005148 -1.2624e-17)
(1.0003 -0.00049246 2.298e-17)
(1.0005 -0.00049087 -5.268e-17)
(0.99999 -0.00011686 -3.2092e-18)
(1.0047 0.00051634 -2.4052e-17)
(0.97821 0.0016633 3.7199e-18)
(1.0464 0.0094783 -9.642e-18)
(0.95395 0.00099817 1.0838e-17)
(0.97138 0.049139 2.1998e-18)
(0.99988 0.00019177 3.4392e-18)
(0.99993 -0.00014767 -1.1059e-17)
(1 -0.00028784 -2.2266e-18)
(1.0002 -0.00053753 3.0722e-18)
(1.0003 -0.0005138 7.2763e-18)
(1.0005 -0.00051462 1.5221e-17)
(0.99993 -0.00012428 5.2513e-17)
(1.0053 0.00053547 2.8765e-18)
(0.97688 0.0016371 6.0652e-18)
(1.0465 0.0098792 1.0637e-17)
(0.95945 0.0012319 -9.2862e-18)
(0.97062 0.047922 1.6912e-18)
(0.99987 0.00019983 -1.9717e-18)
(0.99992 -0.00015427 1.1049e-17)
(1 -0.0002994 3.1969e-17)
(1.0002 -0.00056048 -3.0932e-17)
(1.0004 -0.00053537 -1.1323e-17)
(1.0006 -0.00053882 -2.6834e-18)
(0.99985 -0.00013235 -1.7308e-17)
(1.0059 0.00055609 2.2334e-18)
(0.9756 0.0016016 -1.0505e-17)
(1.0462 0.010256 -3.9052e-18)
(0.96483 0.0015016 -2.7147e-19)
(0.97056 0.046804 -2.067e-18)
(0.99986 0.00020793 -2.1201e-18)
(0.99992 -0.00016093 6.6166e-18)
(1 -0.00031106 -7.7116e-19)
(1.0002 -0.00058366 1.0256e-17)
(1.0004 -0.00055719 -2.0903e-17)
(1.0006 -0.00056348 3.0336e-17)
(0.99977 -0.00014116 8.645e-18)
(1.0066 0.00057838 -2.1303e-17)
(0.97436 0.0015569 -1.3482e-17)
(1.0458 0.010608 -1.5484e-17)
(0.97002 0.0018016 1.4655e-18)
(0.97111 0.045779 -3.7914e-18)
(0.99985 0.00021606 7.3697e-19)
(0.99991 -0.00016767 -1.5803e-17)
(1 -0.00032283 1.9812e-17)
(1.0002 -0.00060708 2.8386e-17)
(1.0004 -0.00057925 4.0968e-17)
(1.0006 -0.00058862 -2.2283e-17)
(0.99967 -0.00015079 -2.1484e-17)
(1.0072 0.00060251 4.3188e-18)
(0.97318 0.0015031 1.2633e-17)
(1.0451 0.010935 1.2127e-17)
(0.97499 0.0021266 6.8628e-18)
(0.97218 0.04484 3.7682e-18)
(0.99984 0.00022424 1.413e-18)
(0.9999 -0.00017447 1.2569e-17)
(1 -0.0003347 -4.5518e-17)
(1.0002 -0.00063073 -4.1083e-18)
(1.0004 -0.00060158 -3.4048e-17)
(1.0007 -0.00061424 -1.4047e-17)
(0.99956 -0.00016131 2.9469e-20)
(1.008 0.00062863 -4.9536e-18)
(0.97206 0.0014405 -2.4915e-17)
(1.0442 0.011236 -1.937e-17)
(0.97971 0.0024712 -9.3919e-18)
(0.97368 0.04398 -1.8588e-18)
(0.99983 0.00023244 -9.1553e-19)
(0.99989 -0.00018134 -8.1767e-18)
(0.99999 -0.00034669 3.5826e-17)
(1.0002 -0.00065462 -3.9265e-17)
(1.0004 -0.00062419 -2.5697e-18)
(1.0007 -0.00064035 2.9914e-17)
(0.99943 -0.00017282 8.598e-19)
(1.0087 0.00065687 4.7147e-18)
(0.97102 0.0013694 2.181e-17)
(1.043 0.011512 2.5189e-17)
(0.98414 0.0028302 5.3676e-18)
(0.97553 0.043191 -1.0403e-18)
(0.99982 0.00024067 -2.385e-18)
(0.99988 -0.00018828 -3.0176e-18)
(0.99999 -0.0003588 -1.5883e-17)
(1.0002 -0.00067877 1.9562e-17)
(1.0004 -0.00064707 3.7442e-17)
(1.0008 -0.00066696 -1.3224e-17)
(0.9993 -0.00018541 2.6799e-17)
(1.0095 0.00068734 3.5356e-18)
(0.97007 0.0012902 -2.4749e-18)
(1.0417 0.011762 1.1409e-17)
(0.98828 0.003199 -6.0199e-18)
(0.97764 0.042467 -7.2615e-19)
(0.99981 0.00024893 5.9626e-19)
(0.99987 -0.00019528 -7.9815e-18)
(0.99998 -0.00037104 5.9506e-18)
(1.0002 -0.00070318 -1.9951e-17)
(1.0004 -0.00067024 -3.9623e-17)
(1.0008 -0.00069408 8.3391e-18)
(0.99914 -0.00019916 -3.8668e-17)
(1.0103 0.00072014 -8.1023e-18)
(0.9692 0.0012032 8.0247e-18)
(1.0402 0.011987 -3.5796e-17)
(0.99209 0.003573 4.1114e-18)
(0.97994 0.0418 2.0437e-18)
(0.9998 0.00025721 1.0479e-18)
(0.99986 -0.00020236 2.1621e-17)
(0.99998 -0.00038339 9.9681e-18)
(1.0002 -0.00072785 8.1218e-18)
(1.0004 -0.00069371 3.1689e-17)
(1.0009 -0.00072171 2.4905e-18)
(0.99898 -0.00021418 2.6715e-17)
(1.0111 0.00075534 5.8037e-18)
(0.96843 0.0011089 -2.4412e-17)
(1.0386 0.012187 1.2329e-17)
(0.99558 0.0039481 2.7833e-18)
(0.98238 0.041184 2.1217e-18)
(0.99979 0.00026553 -3.6608e-18)
(0.99985 -0.00020952 -7.1184e-18)
(0.99997 -0.00039588 -8.7521e-18)
(1.0002 -0.0007528 1.335e-17)
(1.0004 -0.00071748 1.5322e-17)
(1.0009 -0.00074986 -4.952e-18)
(0.9988 -0.00023055 -2.2449e-17)
(1.0119 0.00079299 2.6467e-17)
(0.96776 0.0010078 4.5104e-18)
(1.0368 0.012362 -3.7274e-18)
(0.99873 0.0043205 1.1547e-17)
(0.98488 0.040611 -1.4762e-18)
(0.99977 0.00027387 7.5235e-18)
(0.99984 -0.00021675 8.5292e-18)
(0.99996 -0.0004085 -9.3096e-18)
(1.0002 -0.00077803 -8.3223e-18)
(1.0005 -0.00074158 -2.1984e-17)
(1.001 -0.00077853 -8.514e-18)
(0.9986 -0.00024837 1.1073e-17)
(1.0128 0.0008331 -4.2472e-17)
(0.96719 0.00090039 1.107e-17)
(1.0349 0.012514 -4.4108e-18)
(1.0016 0.0046869 -1.2236e-17)
(0.9874 0.040075 4.2898e-18)
(0.99976 0.00028225 -3.3208e-18)
(0.99983 -0.00022407 -1.4988e-17)
(0.99996 -0.00042126 -9.0286e-18)
(1.0002 -0.00080355 -1.5801e-17)
(1.0005 -0.00076601 -6.7185e-18)
(1.001 -0.00080773 2.5049e-17)
(0.99839 -0.00026773 -1.0885e-17)
(1.0136 0.00087566 4.7266e-17)
(0.96674 0.00078722 1.0451e-17)
(1.0328 0.012643 1.3383e-17)
(1.004 0.0050442 5.1601e-18)
(0.9899 0.039571 -6.9599e-18)
(0.99975 0.00029067 -1.7624e-18)
(0.99982 -0.00023148 1.1149e-17)
(0.99995 -0.00043416 1.7893e-17)
(1.0002 -0.00082937 4.2599e-17)
(1.0005 -0.00079078 8.9045e-18)
(1.0011 -0.00083746 -1.7181e-17)
(0.99816 -0.00028872 5.252e-18)
(1.0145 0.00092066 -5.088e-17)
(0.96639 0.00066887 -1.2687e-17)
(1.0307 0.012749 -7.4444e-18)
(1.0062 0.0053899 5.0713e-18)
(0.99233 0.039092 7.0023e-18)
(0.99973 0.00029913 1.349e-18)
(0.99981 -0.00023898 2.642e-18)
(0.99994 -0.00044719 -1.7578e-17)
(1.0002 -0.0008555 -7.0935e-18)
(1.0005 -0.00081591 1.1316e-17)
(1.0012 -0.00086772 2.0587e-17)
(0.99792 -0.00031144 1.8286e-17)
(1.0153 0.00096804 5.0242e-18)
(0.96617 0.00054597 1.42e-17)
(1.0286 0.012834 -3.4542e-18)
(1.0081 0.0057217 -9.0577e-18)
(0.99466 0.038636 -1.8056e-18)
(0.99972 0.00030764 -5.52e-20)
(0.9998 -0.00024659 3.0127e-18)
(0.99993 -0.00046037 3.9278e-18)
(1.0002 -0.00088194 -9.2168e-18)
(1.0005 -0.0008414 1.1052e-19)
(1.0013 -0.00089851 -1.8662e-17)
(0.99767 -0.00033598 -1.2368e-17)
(1.0162 0.0010177 3.7291e-17)
(0.96606 0.00041916 -2.148e-17)
(1.0263 0.012898 1.3414e-17)
(1.0096 0.0060375 4.7863e-18)
(0.99686 0.038196 -5.1078e-18)
(0.9997 0.0003162 -4.1821e-18)
(0.99979 -0.00025429 -1.4121e-17)
(0.99992 -0.0004737 1.0038e-17)
(1.0002 -0.00090871 -2.5192e-17)
(1.0005 -0.00086726 -2.8638e-17)
(1.0014 -0.00092984 -2.5806e-17)
(0.99739 -0.00036242 -2.5236e-17)
(1.017 0.0010696 -3.8162e-18)
(0.96607 0.00028908 1.8777e-17)
(1.0241 0.012943 -1.1511e-17)
(1.0109 0.0063359 4.7673e-19)
(0.99892 0.037768 4.8123e-18)
(0.99969 0.00032481 8.0734e-18)
(0.99977 -0.00026211 1.4764e-17)
(0.99992 -0.00048718 -1.6194e-17)
(1.0002 -0.00093581 2.0682e-17)
(1.0005 -0.00089352 -3.3685e-18)
(1.0014 -0.0009617 1.6916e-17)
(0.9971 -0.00039086 3.0339e-17)
(1.0179 0.0011235 -2.8964e-17)
(0.9662 0.00015642 -9.5327e-18)
(1.0219 0.012969 1.2166e-17)
(1.0119 0.0066155 4.1483e-18)
(1.0008 0.03735 -2.2786e-18)
(0.99967 0.00033348 -6.0596e-18)
(0.99976 -0.00027004 -4.3617e-18)
(0.99991 -0.00050081 -3.3918e-18)
(1.0002 -0.00096325 2.3683e-17)
(1.0005 -0.00092017 -7.2076e-18)
(1.0015 -0.00099409 -2.1625e-19)
(0.9968 -0.00042137 -5.938e-18)
(1.0187 0.0011793 2.3205e-17)
(0.96645 2.1856e-05 -9.0648e-18)
(1.0196 0.012976 -8.3549e-18)
(1.0126 0.0068752 -1.2268e-17)
(1.0025 0.036939 2.65e-18)
(0.99966 0.0003422 4.1207e-18)
(0.99975 -0.00027809 -5.5348e-18)
(0.9999 -0.00051461 7.7533e-18)
(1.0002 -0.00099104 -3.5944e-17)
(1.0005 -0.00094724 4.8774e-17)
(1.0016 -0.001027 7.0182e-18)
(0.99648 -0.00045405 2.3461e-17)
(1.0196 0.0012369 -1.4373e-17)
(0.96681 -0.00011394 1.0663e-19)
(1.0174 0.012967 6.222e-18)
(1.0131 0.0071144 -2.3958e-18)
(1.0041 0.036531 -9.967e-19)
(0.99964 0.00035099 -1.1787e-18)
(0.99973 -0.00028626 1.0829e-18)
(0.99989 -0.00052857 1.891e-17)
(1.0002 -0.0010192 9.7986e-18)
(1.0005 -0.00097473 -2.4392e-17)
(1.0018 -0.0010605 -1.3755e-17)
(0.99615 -0.00048897 4.1135e-18)
(1.0204 0.0012961 -6.9994e-18)
(0.96729 -0.00025029 1.517e-17)
(1.0152 0.012942 -4.0819e-18)
(1.0133 0.0073324 1.1502e-17)
(1.0054 0.036124 -3.645e-18)
(0.99962 0.00035985 -2.0534e-18)
(0.99972 -0.00029456 -1.044e-17)
(0.99988 -0.00054269 -5.6199e-18)
(1.0002 -0.0010477 3.939e-17)
(1.0005 -0.0010027 -2.1754e-17)
(1.0019 -0.0010944 -1.1716e-18)
(0.99581 -0.00052621 -6.1312e-17)
(1.0211 0.0013566 6.8658e-18)
(0.96788 -0.00038653 -2.8416e-17)
(1.0131 0.012901 -8.83e-18)
(1.0134 0.0075291 -1.1521e-17)
(1.0066 0.035716 2.1636e-18)
(0.9996 0.00036877 -8.8736e-19)
(0.9997 -0.00030299 6.4675e-18)
(0.99986 -0.00055699 -2.3199e-18)
(1.0002 -0.0010766 -2.2932e-17)
(1.0005 -0.001031 3.1262e-17)
(1.002 -0.0011289 -2.8742e-18)
(0.99545 -0.00056585 3.2487e-17)
(1.0219 0.0014182 -4.238e-18)
(0.96858 -0.00052201 1.3782e-17)
(1.011 0.012847 1.1049e-17)
(1.0133 0.0077043 9.5042e-18)
(1.0076 0.035306 -5.2486e-19)
(0.99959 0.00037775 5.0289e-18)
(0.99969 -0.00031155 -3.8739e-18)
(0.99985 -0.00057146 -8.1284e-18)
(1.0002 -0.0011059 2.5061e-17)
(1.0005 -0.0010599 2.2997e-18)
(1.0021 -0.0011639 3.5566e-17)
(0.99508 -0.00060795 5.6112e-18)
(1.0226 0.0014807 2.0213e-17)
(0.96938 -0.00065612 5.1711e-18)
(1.009 0.012779 -3.575e-18)
(1.013 0.007858 1.2385e-18)
(1.0084 0.034892 4.735e-19)
(0.99957 0.00038681 1.4358e-18)
(0.99967 -0.00032025 1.5818e-18)
(0.99984 -0.00058612 -7.3772e-18)
(1.0002 -0.0011356 -4.9905e-17)
(1.0005 -0.0010892 6.9627e-18)
(1.0023 -0.0011994 3.0997e-18)
(0.9947 -0.0006526 -2.4341e-17)
(1.0233 0.0015439 2.866e-19)
(0.97028 -0.00078825 1.5282e-17)
(1.0072 0.012699 -2.3012e-18)
(1.0126 0.0079906 -6.0369e-18)
(1.009 0.034473 2.7997e-18)
(0.99955 0.00039593 -6.1443e-18)
(0.99966 -0.00032909 6.7151e-18)
(0.99983 -0.00060095 1.2118e-18)
(1.0002 -0.0011657 2.7727e-17)
(1.0005 -0.0011191 -3.175e-17)
(1.0024 -0.0012354 -1.3629e-17)
(0.9943 -0.00069984 2.4904e-17)
(1.024 0.0016074 -1.3713e-17)
(0.97128 -0.00091785 -2.4192e-17)
(1.0054 0.012607 -1.1387e-17)
(1.012 0.0081023 7.6922e-18)
(1.0095 0.034048 9.3535e-19)
(0.99953 0.00040511 -6.5127e-19)
(0.99964 -0.00033807 -6.761e-18)
(0.99982 -0.00061598 1.2958e-17)
(1.0002 -0.0011962 1.2309e-17)
(1.0005 -0.0011494 3.9238e-17)
(1.0026 -0.0012719 5.2513e-18)
(0.9939 -0.00074975 2.2149e-17)
(1.0246 0.0016711 3.4787e-17)
(0.97236 -0.0010444 -1.089e-18)
(1.0037 0.012505 2.0032e-17)
(1.0114 0.0081938 -8.1241e-19)
(1.0098 0.033618 -2.7264e-18)
(0.99951 0.00041437 6.3076e-18)
(0.99962 -0.0003472 -9.8503e-18)
(0.9998 -0.0006312 -1.9681e-17)
(1.0002 -0.0012271 -3.2591e-18)
(1.0005 -0.0011803 -4.2608e-17)
(1.0027 -0.0013088 -1.5605e-17)
(0.99349 -0.00080239 -7.6726e-18)
(1.0252 0.0017346 2.767e-19)
(0.97353 -0.0011674 3.1529e-17)
(1.0021 0.012393 4.6282e-18)
(1.0107 0.0082656 -1.0583e-17)
(1.01 0.03318 1.6375e-18)
(0.99949 0.00042369 -7.0738e-18)
(0.9996 -0.00035648 1.2301e-17)
(0.99979 -0.00064661 1.03e-17)
(1.0002 -0.0012585 -6.5114e-18)
(1.0004 -0.0012118 3.4284e-17)
(1.0029 -0.0013463 1.8693e-17)
(0.99307 -0.0008578 -6.0699e-18)
(1.0258 0.0017976 -3.5093e-17)
(0.97478 -0.0012864 -1.0627e-18)
(1.0007 0.012273 -1.3207e-17)
(1.0099 0.0083185 1.2534e-17)
(1.01 0.032736 -2.1456e-18)
(0.99947 0.00043308 4.252e-18)
(0.99958 -0.00036591 -2.3569e-18)
(0.99977 -0.00066222 1.3652e-17)
(1.0002 -0.0012904 -2.7447e-17)
(1.0004 -0.0012438 1.1214e-17)
(1.0031 -0.0013841 -6.7069e-18)
(0.99264 -0.00091605 -1.3108e-17)
(1.0263 0.00186 -2.8275e-18)
(0.97609 -0.0014011 -3.814e-17)
(0.99939 0.012144 8.7255e-18)
(1.0091 0.0083532 -1.1494e-17)
(1.01 0.032286 7.1614e-19)
(0.99944 0.00044253 3.369e-19)
(0.99956 -0.0003755 -7.4166e-18)
(0.99976 -0.00067804 7.7617e-18)
(1.0002 -0.0013227 3.6148e-17)
(1.0004 -0.0012764 -2.6688e-17)
(1.0033 -0.0014224 2.1638e-17)
(0.9922 -0.00097719 -7.5886e-18)
(1.0267 0.0019213 6.526e-18)
(0.97747 -0.0015111 4.534e-17)
(0.99822 0.012008 -1.6206e-17)
(1.0082 0.0083706 1.7584e-17)
(1.0098 0.031829 2.0296e-18)
(0.99942 0.00045205 6.0471e-19)
(0.99954 -0.00038526 -1.5402e-18)
(0.99974 -0.00069407 -1.1158e-17)
(1.0002 -0.0013554 -5.4327e-18)
(1.0004 -0.0013096 2.3287e-17)
(1.0035 -0.0014611 1.953e-19)
(0.99177 -0.0010412 -1.4933e-17)
(1.0271 0.0019813 -1.5618e-17)
(0.97891 -0.0016162 -1.8994e-17)
(0.99719 0.011867 -1.5382e-18)
(1.0073 0.0083715 3.2343e-18)
(1.0095 0.031365 2.1402e-19)
(0.9994 0.00046163 -9.7159e-19)
(0.99952 -0.00039518 1.8271e-17)
(0.99973 -0.00071031 -7.4488e-18)
(1.0002 -0.0013887 -3.0779e-17)
(1.0004 -0.0013435 1.0756e-17)
(1.0037 -0.0015003 -5.5158e-17)
(0.99132 -0.0011083 7.4384e-18)
(1.0275 0.0020398 9.8219e-18)
(0.98039 -0.001716 8.818e-19)
(0.99629 0.011719 1.6484e-17)
(1.0065 0.008357 -1.0645e-18)
(1.0092 0.030896 -5.6752e-18)
(0.99937 0.00047128 -2.5636e-19)
(0.9995 -0.00040527 -3.5693e-19)
(0.99971 -0.00072677 1.0034e-17)
(1.0002 -0.0014224 1.9013e-17)
(1.0003 -0.001378 -4.2689e-17)
(1.0039 -0.0015398 2.3717e-18)
(0.99088 -0.0011783 1.3349e-17)
(1.0278 0.0020965 1.5411e-17)
(0.98192 -0.0018105 -1.2051e-17)
(0.99554 0.011567 -1.6064e-17)
(1.0057 0.008328 -1.7493e-17)
(1.0088 0.030421 5.9969e-18)
(0.99935 0.00048098 -1.6811e-18)
(0.99948 -0.00041553 5.1294e-19)
(0.99969 -0.00074346 -4.8374e-18)
(1.0002 -0.0014567 -1.2701e-17)
(1.0003 -0.0014132 2.3684e-17)
(1.0041 -0.0015797 2.9647e-17)
(0.99044 -0.0012514 3.8992e-18)
(1.028 0.002151 7.8228e-18)
(0.98348 -0.0018995 1.9225e-17)
(0.99493 0.011411 2.7e-18)
(1.0049 0.0082855 1.2951e-17)
(1.0084 0.029941 -3.6423e-18)
(0.99932 0.00049076 3.0958e-18)
(0.99946 -0.00042597 9.4485e-19)
(0.99967 -0.00076037 -6.9205e-18)
(1.0002 -0.0014914 1.8752e-18)
(1.0003 -0.0014491 -1.2843e-17)
(1.0043 -0.0016199 -7.1112e-18)
(0.98999 -0.0013276 -1.4388e-18)
(1.0282 0.0022032 -3.5333e-17)
(0.98506 -0.001983 3.7869e-18)
(0.99445 0.011251 -5.4984e-18)
(1.0041 0.0082304 -5.2673e-18)
(1.008 0.029457 -4.3969e-18)
(0.9993 0.00050059 -6.3203e-18)
(0.99944 -0.0004366 1.2348e-18)
(0.99965 -0.00077753 3.6712e-18)
(1.0002 -0.0015267 -2.3611e-17)
(1.0002 -0.0014858 -1.466e-17)
(1.0046 -0.0016605 -3.3071e-17)
(0.98955 -0.0014068 6.9668e-18)
(1.0284 0.0022527 1.4423e-17)
(0.98667 -0.002061 -4.0578e-17)
(0.99412 0.011089 2.5339e-17)
(1.0034 0.0081638 -5.7082e-18)
(1.0075 0.02897 2.8337e-18)
(0.99927 0.00051049 5.8034e-18)
(0.99941 -0.00044741 2.762e-18)
(0.99963 -0.00079492 1.4129e-18)
(1.0002 -0.0015625 7.4775e-18)
(1.0002 -0.0015232 -3.2487e-18)
(1.0048 -0.0017014 6.413e-17)
(0.98912 -0.0014892 2.5031e-17)
(1.0285 0.0022993 -2.2491e-17)
(0.98829 -0.0021334 3.9074e-17)
(0.99391 0.010925 -9.4543e-18)
(1.0028 0.0080866 -3.7746e-18)
(1.007 0.028479 -1.4186e-18)
(0.99924 0.00052045 1.4253e-18)
(0.99939 -0.00045841 -1.7475e-17)
(0.99961 -0.00081256 2.8304e-18)
(1.0002 -0.0015988 3.3652e-17)
(1.0001 -0.0015614 2.5083e-17)
(1.0051 -0.0017427 -1.0113e-18)
(0.98869 -0.0015748 -3.4667e-17)
(1.0285 0.0023428 6.7856e-18)
(0.98991 -0.0022005 -8.8207e-18)
(0.99384 0.010759 -1.3109e-17)
(1.0022 0.0079999 9.5957e-18)
(1.0066 0.027986 1.3191e-18)
(0.99922 0.00053047 -5.6353e-18)
(0.99937 -0.0004696 -5.8328e-18)
(0.99959 -0.00083046 -1.5337e-17)
(1.0002 -0.0016357 -2.8239e-17)
(1.0001 -0.0016005 -2.526e-17)
(1.0053 -0.0017842 -2.9169e-17)
(0.98826 -0.0016635 6.4122e-18)
(1.0284 0.002383 5.2991e-17)
(0.99153 -0.0022622 3.8515e-18)
(0.99389 0.010592 -1.155e-18)
(1.0017 0.0079046 -3.392e-18)
(1.0062 0.027492 -3.557e-18)
(0.99919 0.00054055 4.1835e-18)
(0.99934 -0.000481 5.4116e-18)
(0.99957 -0.00084863 2.3643e-17)
(1.0002 -0.0016732 1.9567e-17)
(1 -0.0016404 2.4585e-17)
(1.0056 -0.0018259 -1.0817e-18)
(0.98785 -0.0017553 -3.5746e-17)
(1.0284 0.0024196 -2.8656e-17)
(0.99315 -0.0023189 9.5766e-18)
(0.99406 0.010425 4.5372e-18)
(1.0013 0.0078015 7.661e-18)
(1.0058 0.026997 2.7443e-18)
(0.99916 0.0005507 -2.9557e-18)
(0.99931 -0.00049259 8.4987e-18)
(0.99955 -0.00086706 -1.5648e-17)
(1.0002 -0.0017112 2.8375e-18)
(0.99999 -0.0016811 1.1448e-17)
(1.0059 -0.0018679 -2.8546e-18)
(0.98744 -0.0018504 8.0106e-18)
(1.0282 0.0024523 7.9691e-18)
(0.99474 -0.0023707 3.1692e-18)
(0.99434 0.010258 1.1245e-17)
(1.001 0.0076916 -9.2179e-18)
(1.0054 0.026502 5.5349e-19)
(0.99913 0.0005609 4.4651e-18)
(0.99929 -0.00050439 5.2723e-19)
(0.99953 -0.00088577 -7.3333e-18)
(1.0002 -0.0017497 1.1335e-18)
(0.99993 -0.0017228 -1.8687e-18)
(1.0062 -0.0019102 -2.8252e-17)
(0.98705 -0.0019486 2.2431e-17)
(1.028 0.0024811 2.8321e-17)
(0.99632 -0.0024179 -1.5704e-17)
(0.99473 0.010091 -1.5664e-17)
(1.0008 0.0075757 -2.7034e-18)
(1.0051 0.026007 4.7353e-18)
(0.9991 0.00057117 -3.2439e-18)
(0.99926 -0.00051641 -4.0587e-19)
(0.9995 -0.00090477 9.1144e-18)
(1.0002 -0.0017889 -2.169e-17)
(0.99987 -0.0017654 -1.701e-17)
(1.0065 -0.0019526 3.5676e-17)
(0.98667 -0.00205 -3.4343e-18)
(1.0278 0.0025057 -2.9976e-17)
(0.99786 -0.0024608 4.0103e-18)
(0.99522 0.0099244 1.4757e-17)
(1.0006 0.0074546 9.1574e-18)
(1.0048 0.025514 -1.7077e-18)
(0.99907 0.0005815 3.2267e-19)
(0.99923 -0.00052863 2.9764e-18)
(0.99948 -0.00092407 4.9845e-18)
(1.0002 -0.0018286 1.1215e-17)
(0.9998 -0.001809 3.3385e-17)
(1.0068 -0.0019952 8.3353e-18)
(0.9863 -0.0021546 -2.9941e-17)
(1.0274 0.0025258 2.8188e-18)
(0.99937 -0.0024997 1.0348e-17)
(0.9958 0.009759 -1.3313e-17)
(1.0006 0.0073291 -6.1986e-18)
(1.0046 0.025023 -1.98e-18)
(0.99903 0.00059189 9.1661e-19)
(0.9992 -0.00054108 -5.1653e-19)
(0.99945 -0.00094367 -1.316e-17)
(1.0002 -0.001869 -2.4202e-19)
(0.99973 -0.0018537 -6.6026e-17)
(1.0071 -0.0020381 1.0289e-17)
(0.98595 -0.0022623 2.9407e-17)
(1.0271 0.0025415 -8.0872e-18)
(1.0008 -0.0025349 -1.0826e-17)
(0.99647 0.0095949 2.2128e-17)
(1.0007 0.0071999 7.4282e-18)
(1.0045 0.024535 5.1355e-18)
(0.999 0.00060234 9.8538e-19)
(0.99918 -0.00055374 -1.0741e-18)
(0.99942 -0.00096358 2.3809e-17)
(1.0002 -0.0019099 5.1807e-18)
(0.99965 -0.0018993 5.8547e-17)
(1.0074 -0.002081 -3.6223e-17)
(0.98562 -0.0023732 -9.8668e-18)
(1.0267 0.0025524 7.6246e-18)
(1.0023 -0.0025668 3.7459e-18)
(0.99721 0.0094322 -1.2454e-17)
(1.0008 0.0070676 -1.1979e-18)
(1.0044 0.024049 -3.7879e-18)
(0.99897 0.00061285 -3.8493e-18)
(0.99914 -0.00056664 1.8067e-18)
(0.9994 -0.00098382 -1.3997e-17)
(1.0002 -0.0019515 6.8191e-18)
(0.99956 -0.0019461 -2.2251e-17)
(1.0078 -0.0021241 4.913e-18)
(0.98531 -0.0024872 3.952e-17)
(1.0262 0.0025584 -2.8561e-17)
(1.0036 -0.0025958 -1.3757e-17)
(0.99802 0.0092711 -1.2345e-17)
(1.0011 0.0069329 -5.919e-18)
(1.0044 0.023568 -1.0427e-18)
(0.99893 0.00062343 4.7974e-18)
(0.99911 -0.00057976 -4.2895e-18)
(0.99937 -0.0010044 -1.3597e-17)
(1.0002 -0.0019936 -1.087e-17)
(0.99947 -0.001994 -3.643e-17)
(1.0081 -0.0021673 -2.2832e-17)
(0.98502 -0.0026042 -2.4236e-17)
(1.0257 0.0025594 2.6567e-17)
(1.005 -0.0026224 1.3356e-17)
(0.99889 0.0091117 1.8704e-17)
(1.0014 0.0067962 -2.3238e-18)
(1.0045 0.023091 5.0355e-18)
(0.9989 0.00063406 -7.7131e-18)
(0.99908 -0.00059312 6.955e-18)
(0.99934 -0.0010253 3.3301e-17)
(1.0002 -0.0020365 -2.5668e-18)
(0.99938 -0.002043 4.0314e-17)
(1.0084 -0.0022107 1.7039e-18)
(0.98475 -0.0027243 -2.3251e-17)
(1.0251 0.0025553 1.0421e-17)
(1.0062 -0.0026469 -4.8153e-18)
(0.99981 0.0089541 -3.9151e-18)
(1.0018 0.0066582 7.5362e-18)
(1.0046 0.022618 -3.4056e-18)
(0.99886 0.00064476 6.3226e-18)
(0.99905 -0.00060671 -9.4538e-18)
(0.99931 -0.0010466 -3.8843e-17)
(1.0002 -0.0020799 1.6799e-17)
(0.99928 -0.0020933 -2.875e-17)
(1.0088 -0.0022541 3.1588e-17)
(0.98451 -0.0028474 7.5684e-18)
(1.0245 0.0025459 -9.91e-18)
(1.0074 -0.0026697 -2.3158e-18)
(1.0008 0.0087983 -9.8321e-18)
(1.0023 0.0065192 -1.2307e-17)
(1.0048 0.022151 4.7174e-18)
(0.99882 0.00065552 -4.6595e-18)
(0.99902 -0.00062055 3.1444e-18)
(0.99928 -0.0010682 2.361e-17)
(1.0002 -0.002124 -2.2151e-17)
(0.99917 -0.0021448 4.6284e-17)
(1.0091 -0.0022977 -2.4544e-17)
(0.98429 -0.0029734 4.4148e-18)
(1.0239 0.0025311 -1.5696e-17)
(1.0086 -0.0026913 7.5772e-18)
(1.0018 0.0086443 -1.3844e-18)
(1.0029 0.0063797 5.2652e-18)
(1.0051 0.021689 -2.0938e-18)
(0.99878 0.00066633 5.7168e-18)
(0.99898 -0.00063463 2.4499e-18)
(0.99925 -0.0010902 -1.5752e-17)
(1.0002 -0.0021688 -4.5505e-19)
(0.99906 -0.0021976 -2.0287e-18)
(1.0095 -0.0023413 5.9288e-18)
(0.98409 -0.0031023 4.2057e-17)
(1.0232 0.0025108 1.0741e-17)
(1.0096 -0.0027121 -2.2477e-17)
(1.0028 0.0084921 -7.1568e-18)
(1.0036 0.0062399 -4.9739e-18)
(1.0055 0.021233 2.2121e-18)
(0.99875 0.00067721 -6.5551e-18)
(0.99895 -0.00064896 -9.0814e-18)