/*--------------------------------*- C++ -*----------------------------------*\
  =========                 |
  \\      /  F ield         | OpenFOAM: The Open Source CFD Toolbox
   \\    /   O peration     | Website:  https://openfoam.org
    \\  /    A nd           | Version:  6.0
     \\/     M anipulation  |
\*---------------------------------------------------------------------------*/
FoamFile
{
    version     2.0;
    format      ascii;
    class       volScalarField;
    location    "1";
    object      p;
}
// * * * * * * * * * * * * * * * * * * * * * * * * * * * * * * * * * * * * * //

dimensions      [0 2 -2 0 0 0 0];

internalField   nonuniform List<scalar> 
62000
(
0.101044
0.101863
0.102695
0.103542
0.104405
0.105286
0.106186
0.107107
0.108052
0.109022
0.110019
0.111045
0.112103
0.113195
0.114323
0.115489
0.116695
0.117943
0.119234
0.120569
0.121947
0.123369
0.124831
0.12633
0.127859
0.12941
0.130971
0.132523
0.134047
0.135513
0.136885
0.138121
0.139176
0.139998
0.140509
0.140608
0.140187
0.139124
0.137293
0.134572
0.130848
0.126041
0.120108
0.113071
0.105023
0.0961424
0.0866825
0.0769611
0.0673233
0.0581056
0.0495888
0.0419692
0.0353479
0.0297156
0.0250168
0.0211278
0.0179503
0.015358
0.0132892
0.0117476
0.102626
0.103429
0.104246
0.105077
0.105923
0.106786
0.107667
0.108568
0.109492
0.110438
0.111411
0.112411
0.11344
0.114501
0.115595
0.116724
0.117891
0.119096
0.12034
0.121625
0.122951
0.124316
0.125719
0.127157
0.128622
0.130109
0.131605
0.133095
0.134559
0.135973
0.137303
0.138512
0.139559
0.140398
0.140958
0.141149
0.14087
0.140008
0.138447
0.13607
0.132773
0.128473
0.123123
0.116733
0.109376
0.101203
0.0924356
0.0833591
0.0742902
0.0655461
0.0574007
0.050056
0.0436301
0.0381336
0.0335341
0.0297247
0.0266276
0.0241287
0.0221983
0.0209052
0.10429
0.105079
0.105881
0.106696
0.107526
0.108372
0.109236
0.110119
0.111024
0.111951
0.112902
0.11388
0.114886
0.115921
0.116988
0.118089
0.119224
0.120396
0.121605
0.122852
0.124137
0.125459
0.126817
0.128207
0.129625
0.131062
0.132509
0.133953
0.135375
0.136751
0.138054
0.139248
0.140298
0.141163
0.141778
0.142062
0.141921
0.141251
0.139945
0.137893
0.134993
0.131165
0.12636
0.120575
0.113867
0.106362
0.0982551
0.0898009
0.0812895
0.0730186
0.0652531
0.0581982
0.0519846
0.0466405
0.0421543
0.0384359
0.0354267
0.0330268
0.0312352
0.0301682
0.106052
0.106828
0.107616
0.108418
0.109234
0.110066
0.110915
0.111783
0.112672
0.113582
0.114516
0.115476
0.116462
0.117477
0.118523
0.119601
0.120712
0.121858
0.12304
0.124258
0.125512
0.126802
0.128126
0.129481
0.130862
0.132264
0.133676
0.135086
0.136478
0.137832
0.139119
0.140309
0.141372
0.14227
0.142946
0.143325
0.143319
0.142835
0.141771
0.140024
0.137498
0.134113
0.129817
0.124599
0.118502
0.11163
0.104154
0.0963
0.0883337
0.080533
0.0731529
0.066399
0.0604116
0.0552349
0.0508743
0.0472583
0.0443446
0.0420499
0.0403977
0.0395367
0.107928
0.108693
0.10947
0.11026
0.111064
0.111884
0.112721
0.113576
0.114452
0.115349
0.116269
0.117213
0.118185
0.119184
0.120213
0.121272
0.122365
0.123491
0.124652
0.125848
0.12708
0.128346
0.129645
0.130975
0.132331
0.133707
0.135095
0.136484
0.137859
0.139199
0.140483
0.141679
0.142763
0.143701
0.144443
0.144918
0.145047
0.144742
0.143909
0.142451
0.140277
0.137308
0.133491
0.128806
0.123285
0.117015
0.110141
0.102866
0.095432
0.0880979
0.0811071
0.0746639
0.0689156
0.0639197
0.0596974
0.056194
0.0533834
0.0511989
0.0496852
0.0490129
0.109916
0.110673
0.111442
0.112223
0.113019
0.11383
0.114657
0.115503
0.116369
0.117255
0.118165
0.119099
0.120059
0.121046
0.122062
0.123109
0.124189
0.125301
0.126447
0.127627
0.128843
0.130092
0.131375
0.132688
0.134027
0.135388
0.136761
0.138138
0.139505
0.140843
0.142131
0.143343
0.144455
0.14544
0.146251
0.146824
0.147087
0.146956
0.146345
0.145163
0.143322
0.140746
0.13738
0.133199
0.128224
0.122524
0.116227
0.109511
0.102597
0.0957238
0.0891242
0.0829991
0.0775003
0.0726972
0.0686238
0.0652429
0.0625424
0.0604728
0.0590967
0.0585975
0.112029
0.11278
0.113543
0.114319
0.115108
0.115912
0.116734
0.117573
0.118432
0.119311
0.120213
0.12114
0.122092
0.123071
0.124079
0.125117
0.126187
0.12729
0.128426
0.129597
0.130802
0.132041
0.133314
0.134617
0.135947
0.1373
0.138668
0.140041
0.141408
0.142753
0.144054
0.145288
0.146435
0.147472
0.148357
0.14903
0.149425
0.149465
0.149068
0.148149
0.146625
0.144422
0.141482
0.137779
0.13332
0.128165
0.122419
0.116243
0.109835
0.103418
0.0972106
0.0914096
0.0861698
0.0815701
0.0776562
0.0744066
0.0718229
0.0698717
0.0686316
0.068292
0.114268
0.115015
0.115775
0.116547
0.117333
0.118134
0.118951
0.119787
0.120642
0.121517
0.122415
0.123337
0.124285
0.12526
0.126263
0.127297
0.128362
0.12946
0.130591
0.131757
0.132957
0.134192
0.13546
0.13676
0.138088
0.139439
0.140808
0.142186
0.143561
0.144918
0.14624
0.147504
0.148692
0.149786
0.150748
0.151523
0.15205
0.152257
0.152067
0.151402
0.15018
0.148331
0.145797
0.142546
0.13858
0.133943
0.128728
0.123074
0.11716
0.111191
0.105376
0.0999033
0.0949299
0.0905429
0.0867973
0.0836873
0.081226
0.079397
0.0782909
0.078099
0.116641
0.117388
0.118146
0.118917
0.119701
0.120501
0.121317
0.122151
0.123005
0.123879
0.124776
0.125696
0.126643
0.127616
0.128618
0.12965
0.130715
0.131811
0.132942
0.134107
0.135308
0.136543
0.137812
0.139114
0.140445
0.141802
0.143178
0.144566
0.145956
0.147333
0.148681
0.149981
0.151215
0.152371
0.153414
0.154292
0.15495
0.155321
0.155333
0.154912
0.15398
0.152469
0.150321
0.147502
0.144005
0.139865
0.135158
0.130008
0.124576
0.11905
0.113625
0.108484
0.103784
0.0996176
0.096049
0.0930856
0.0907526
0.0890482
0.088074
0.0880198
0.119143
0.119891
0.120651
0.121423
0.122209
0.12301
0.123828
0.124663
0.125518
0.126394
0.127292
0.128215
0.129163
0.130139
0.131143
0.132178
0.133244
0.134344
0.135478
0.136647
0.137852
0.139092
0.140367
0.141676
0.143016
0.144383
0.145773
0.147177
0.148587
0.14999
0.151371
0.15271
0.153997
0.155218
0.156344
0.157328
0.158117
0.15865
0.158859
0.158673
0.158021
0.156834
0.155055
0.152648
0.1496
0.145936
0.141719
0.137058
0.132095
0.127004
0.121967
0.117161
0.112739
0.1088
0.105416
0.102605
0.100405
0.0988279
0.0979835
0.098058
0.121784
0.122535
0.123298
0.124074
0.124863
0.125668
0.126489
0.127328
0.128187
0.129067
0.12997
0.130897
0.13185
0.13283
0.13384
0.13488
0.135953
0.137059
0.138199
0.139376
0.140589
0.141838
0.143124
0.144444
0.145797
0.14718
0.148588
0.150014
0.15145
0.152884
0.154301
0.155686
0.157028
0.158318
0.159531
0.160622
0.161542
0.162235
0.162637
0.16268
0.162297
0.161422
0.159997
0.157985
0.155367
0.15216
0.148415
0.144226
0.139721
0.135059
0.130407
0.125936
0.121797
0.118092
0.114898
0.112247
0.110184
0.108735
0.108019
0.108214
0.124559
0.125316
0.126085
0.126866
0.127661
0.128472
0.1293
0.130145
0.131011
0.131897
0.132807
0.133741
0.134701
0.135689
0.136707
0.137756
0.138838
0.139953
0.141105
0.142292
0.143517
0.144779
0.14608
0.147416
0.148787
0.15019
0.15162
0.153073
0.154539
0.156008
0.157468
0.158902
0.160303
0.161666
0.162968
0.164167
0.165219
0.16607
0.166661
0.166928
0.166806
0.166231
0.165148
0.163514
0.16131
0.158542
0.155254
0.151523
0.147465
0.143223
0.138954
0.134819
0.130966
0.1275
0.124502
0.122014
0.120092
0.118774
0.118183
0.118493
0.12748
0.128244
0.12902
0.129809
0.130612
0.13143
0.132265
0.133119
0.133993
0.134888
0.135806
0.13675
0.13772
0.138718
0.139747
0.140807
0.1419
0.143029
0.144193
0.145395
0.146636
0.147914
0.149233
0.150589
0.151982
0.153409
0.154866
0.156349
0.15785
0.159359
0.160865
0.162352
0.163817
0.165256
0.166649
0.167958
0.169142
0.17015
0.170927
0.171412
0.171544
0.171259
0.170504
0.169236
0.16743
0.165086
0.162238
0.158953
0.155331
0.151502
0.147612
0.143812
0.140248
0.137024
0.134227
0.131908
0.13013
0.128942
0.128475
0.128894
0.130535
0.131309
0.132094
0.132893
0.133705
0.134534
0.135379
0.136244
0.137128
0.138035
0.138965
0.13992
0.140903
0.141914
0.142956
0.14403
0.145139
0.146283
0.147464
0.148683
0.149943
0.151242
0.152582
0.153961
0.155379
0.156835
0.158323
0.159841
0.16138
0.162933
0.164488
0.166033
0.167564
0.169082
0.170568
0.17199
0.173306
0.17447
0.17543
0.17613
0.176508
0.176506
0.176069
0.175153
0.173731
0.171798
0.169376
0.166524
0.163327
0.159905
0.156389
0.152924
0.14965
0.146672
0.144079
0.141932
0.140301
0.139245
0.138899
0.139423
0.133736
0.134521
0.135317
0.136127
0.136951
0.137791
0.138649
0.139526
0.140423
0.141343
0.142287
0.143256
0.144253
0.14528
0.146338
0.147428
0.148554
0.149717
0.150917
0.152157
0.153438
0.15476
0.156125
0.157531
0.158979
0.160465
0.161989
0.163545
0.165127
0.166727
0.168335
0.169941
0.171541
0.17314
0.174723
0.176257
0.177706
0.179026
0.180168
0.181077
0.181696
0.181968
0.18184
0.181266
0.180215
0.178678
0.176671
0.174238
0.171458
0.168434
0.165289
0.162157
0.159174
0.156444
0.154059
0.152087
0.150604
0.149681
0.149455
0.150079
0.137078
0.137875
0.138684
0.139507
0.140345
0.141199
0.142071
0.142962
0.143875
0.14481
0.145769
0.146755
0.147769
0.148813
0.149889
0.150999
0.152145
0.153329
0.154551
0.155814
0.15712
0.158469
0.159861
0.161298
0.162777
0.164299
0.165861
0.167458
0.169086
0.170737
0.172402
0.174071
0.175744
0.177427
0.179108
0.180757
0.182339
0.183815
0.185136
0.186251
0.187107
0.187647
0.187819
0.187576
0.186886
0.185734
0.184128
0.182106
0.179732
0.177099
0.17432
0.17152
0.168827
0.166348
0.164173
0.162378
0.161045
0.160255
0.160146
0.160867
0.140571
0.141382
0.142206
0.143044
0.143896
0.144765
0.145653
0.14656
0.147488
0.14844
0.149417
0.150421
0.151454
0.152518
0.153614
0.154745
0.155913
0.15712
0.158367
0.159656
0.160989
0.162367
0.16379
0.16526
0.166775
0.168335
0.169938
0.17158
0.173257
0.174963
0.176687
0.178423
0.180171
0.181941
0.183722
0.185486
0.187203
0.188833
0.190332
0.191652
0.19274
0.193541
0.194005
0.194085
0.193745
0.192966
0.191751
0.190127
0.188151
0.185903
0.183485
0.181013
0.178611
0.176383
0.174421
0.172804
0.171623
0.170964
0.170971
0.171787
0.144205
0.145032
0.145872
0.146726
0.147595
0.148482
0.149387
0.150312
0.151259
0.15223
0.153226
0.154251
0.155305
0.15639
0.157509
0.158664
0.159857
0.16109
0.162364
0.163681
0.165045
0.166454
0.167911
0.169417
0.17097
0.172571
0.174218
0.175909
0.177638
0.179401
0.181188
0.182993
0.184819
0.186677
0.188561
0.190443
0.192295
0.19408
0.195756
0.197277
0.198593
0.199651
0.2004
0.200794
0.200796
0.200381
0.199546
0.198312
0.196724
0.194854
0.192792
0.190646
0.188534
0.186557
0.184808
0.183371
0.182342
0.181815
0.181937
0.182845
0.147991
0.148835
0.149693
0.150564
0.151452
0.152357
0.153281
0.154226
0.155193
0.156185
0.157203
0.158249
0.159326
0.160435
0.161578
0.162759
0.163978
0.165239
0.166542
0.167891
0.169286
0.17073
0.172224
0.173768
0.175362
0.177007
0.178702
0.180443
0.182228
0.18405
0.185904
0.187781
0.189687
0.191636
0.193624
0.195625
0.197613
0.199552
0.201405
0.203126
0.204666
0.205976
0.207005
0.207706
0.208039
0.207978
0.207514
0.20666
0.205453
0.203953
0.202243
0.20042
0.198596
0.19687
0.195335
0.194079
0.193202
0.192806
0.193039
0.194038
0.151923
0.152786
0.153663
0.154555
0.155462
0.156388
0.157333
0.158299
0.159288
0.160302
0.161343
0.162413
0.163515
0.16465
0.16582
0.167028
0.168277
0.169568
0.170902
0.172284
0.173715
0.175195
0.176728
0.178313
0.179951
0.181643
0.183388
0.185183
0.187025
0.188911
0.190832
0.192784
0.194773
0.196816
0.198909
0.201031
0.203156
0.205251
0.207279
0.209197
0.210961
0.212518
0.213821
0.214822
0.21548
0.215766
0.215664
0.215182
0.214347
0.213211
0.211846
0.210343
0.208806
0.20733
0.206008
0.204933
0.204208
0.203941
0.204286
0.205372
0.156016
0.1569
0.157796
0.158708
0.159637
0.160583
0.16155
0.162538
0.16355
0.164588
0.165653
0.166749
0.167877
0.169039
0.170237
0.171475
0.172754
0.174077
0.175445
0.176863
0.17833
0.179849
0.181423
0.183052
0.184737
0.186478
0.188275
0.190127
0.19203
0.193981
0.195974
0.198002
0.200077
0.202215
0.204417
0.206661
0.208923
0.211174
0.213377
0.215492
0.217475
0.219277
0.220849
0.222144
0.22312
0.223743
0.223996
0.223876
0.223406
0.222628
0.221604
0.220416
0.219163
0.217936
0.216827
0.215932
0.215358
0.21522
0.215673
0.216847
0.160255
0.16116
0.162079
0.163013
0.163964
0.164934
0.165924
0.166937
0.167974
0.169038
0.17013
0.171252
0.172408
0.1736
0.174829
0.176098
0.17741
0.178767
0.180171
0.181626
0.183133
0.184694
0.186311
0.187986
0.18972
0.191513
0.193365
0.195276
0.197242
0.199261
0.201327
0.203436
0.205598
0.207833
0.210145
0.212513
0.214914
0.217321
0.219699
0.22201
0.224211
0.226254
0.228091
0.229675
0.230963
0.231917
0.232516
0.232753
0.232641
0.232214
0.231525
0.230649
0.229676
0.228696
0.227799
0.227083
0.226658
0.226648
0.227208
0.228468
0.164655
0.165582
0.166524
0.167481
0.168456
0.16945
0.170466
0.171504
0.172568
0.173658
0.174778
0.175929
0.177115
0.178337
0.179598
0.1809
0.182247
0.18364
0.185082
0.186576
0.188125
0.189729
0.191392
0.193116
0.1949
0.196748
0.198658
0.20063
0.202662
0.204752
0.206893
0.209084
0.211335
0.213671
0.216095
0.218588
0.22113
0.223693
0.226246
0.228752
0.231169
0.23345
0.235549
0.237417
0.23901
0.240289
0.241227
0.241812
0.242051
0.241968
0.24161
0.24104
0.240346
0.23961
0.238923
0.238384
0.238108
0.238222
0.238888
0.240234
0.169208
0.170159
0.171126
0.172108
0.173109
0.174129
0.175171
0.176237
0.177328
0.178447
0.179596
0.180778
0.181995
0.18325
0.184545
0.185882
0.187265
0.188697
0.190178
0.191714
0.193306
0.194956
0.196667
0.198441
0.200279
0.202183
0.204153
0.20619
0.20829
0.210452
0.212672
0.214947
0.217291
0.219728
0.222266
0.224886
0.227569
0.230291
0.233019
0.235719
0.238351
0.240868
0.243225
0.245373
0.247266
0.248864
0.250135
0.251062
0.251644
0.2519
0.251867
0.251599
0.251179
0.250685
0.250206
0.249842
0.249712
0.24995
0.250718
0.252149
0.173931
0.174907
0.175899
0.176907
0.177933
0.17898
0.180049
0.181143
0.182263
0.183411
0.184591
0.185804
0.187054
0.188343
0.189672
0.191046
0.192468
0.193939
0.195462
0.197041
0.198678
0.200376
0.202137
0.203964
0.205858
0.207821
0.209853
0.211956
0.214127
0.216364
0.218665
0.221027
0.223464
0.226006
0.228659
0.231408
0.234234
0.237114
0.240018
0.242912
0.245758
0.248509
0.251121
0.253545
0.255734
0.257644
0.259241
0.260504
0.261423
0.262011
0.262296
0.262327
0.262176
0.26192
0.261646
0.261455
0.261469
0.261827
0.262698
0.264212
0.178808
0.17981
0.180829
0.181865
0.182919
0.183995
0.185093
0.186216
0.187367
0.188547
0.189759
0.191006
0.19229
0.193614
0.194981
0.196393
0.197854
0.199367
0.200933
0.202558
0.204243
0.20599
0.207804
0.209685
0.211637
0.213661
0.215758
0.217929
0.220173
0.222488
0.224872
0.227323
0.229857
0.232504
0.235276
0.238155
0.241125
0.244165
0.247245
0.250333
0.253391
0.256376
0.25924
0.261936
0.264416
0.266635
0.268553
0.270144
0.271395
0.272309
0.272908
0.273231
0.273346
0.273325
0.273251
0.27323
0.273386
0.273862
0.274832
0.276429
0.183855
0.184885
0.185931
0.186995
0.188079
0.189183
0.190312
0.191466
0.192648
0.193861
0.195106
0.196388
0.197708
0.199069
0.200474
0.201926
0.203429
0.204985
0.206596
0.208267
0.210001
0.2118
0.213668
0.215607
0.217618
0.219706
0.22187
0.224111
0.226431
0.228826
0.231295
0.233837
0.236469
0.239225
0.242116
0.245128
0.248244
0.251445
0.254701
0.257983
0.261254
0.264469
0.267584
0.270549
0.273316
0.275837
0.278071
0.279985
0.281561
0.282795
0.283701
0.284312
0.284687
0.284896
0.285021
0.285166
0.28546
0.286051
0.287118
0.288798
0.189066
0.190125
0.1912
0.192294
0.193408
0.194544
0.195704
0.19689
0.198106
0.199352
0.200633
0.20195
0.203308
0.204708
0.206152
0.207646
0.209192
0.210792
0.21245
0.214171
0.215956
0.217808
0.219732
0.22173
0.223803
0.225956
0.228189
0.230504
0.232901
0.235378
0.237935
0.24057
0.243304
0.24617
0.249183
0.252328
0.255592
0.258955
0.262389
0.265865
0.269347
0.272793
0.276156
0.279388
0.282439
0.285258
0.287802
0.290034
0.291929
0.293477
0.294685
0.295577
0.296208
0.296643
0.296962
0.29727
0.297698
0.298401
0.299562
0.301324
0.194456
0.195545
0.19665
0.197774
0.198919
0.200086
0.201278
0.202497
0.203746
0.205027
0.206344
0.207698
0.209094
0.210533
0.212019
0.213555
0.215146
0.216793
0.218499
0.22027
0.222108
0.224016
0.225998
0.228056
0.230194
0.232415
0.234719
0.237109
0.239585
0.242148
0.244794
0.247525
0.250361
0.25334
0.256477
0.259758
0.263171
0.266697
0.27031
0.27398
0.277674
0.281348
0.284958
0.288454
0.291785
0.294898
0.297747
0.300291
0.302499
0.304356
0.305859
0.307028
0.307909
0.308564
0.309072
0.309538
0.310097
0.310909
0.312162
0.314005
0.20001
0.201129
0.202266
0.203422
0.204599
0.2058
0.207026
0.20828
0.209564
0.210882
0.212236
0.213629
0.215065
0.216546
0.218075
0.219655
0.221292
0.222987
0.224744
0.226567
0.22846
0.230425
0.232467
0.234589
0.236792
0.239083
0.24146
0.243928
0.246486
0.249135
0.251874
0.254702
0.257644
0.260738
0.264001
0.26742
0.270983
0.274674
0.278466
0.282332
0.286237
0.29014
0.293995
0.297752
0.30136
0.304764
0.307914
0.310764
0.31328
0.315438
0.317231
0.318671
0.319797
0.320668
0.32136
0.32198
0.322665
0.32358
0.324923
0.326847
0.205743
0.206895
0.208064
0.209253
0.210463
0.211697
0.212958
0.214248
0.215569
0.216924
0.218317
0.21975
0.221227
0.222751
0.224324
0.22595
0.227635
0.22938
0.231188
0.233065
0.235014
0.237038
0.239142
0.241329
0.243601
0.245963
0.248416
0.250963
0.253606
0.256344
0.259177
0.262106
0.265155
0.268366
0.271756
0.275315
0.279031
0.282888
0.28686
0.290922
0.295038
0.299169
0.303267
0.307285
0.311166
0.314857
0.318302
0.321454
0.324272
0.326726
0.328803
0.330507
0.331872
0.332953
0.333823
0.334592
0.335398
0.336414
0.337843
0.339847
0.21165
0.212834
0.214037
0.21526
0.216506
0.217776
0.219073
0.220399
0.221759
0.223153
0.224586
0.22606
0.22758
0.229148
0.230766
0.23244
0.234174
0.23597
0.237832
0.239765
0.241773
0.243857
0.246026
0.248279
0.250621
0.253057
0.255588
0.258217
0.260946
0.263776
0.266705
0.269736
0.272895
0.276225
0.279746
0.283446
0.287317
0.291341
0.295495
0.299753
0.304082
0.308439
0.312781
0.317056
0.321209
0.325183
0.32892
0.332369
0.335483
0.338227
0.340581
0.342544
0.344143
0.345427
0.34647
0.347382
0.348304
0.349416
0.350927
0.353009
0.217748
0.218966
0.220203
0.22146
0.22274
0.224046
0.225379
0.226744
0.228141
0.229575
0.231049
0.232565
0.234129
0.235742
0.237407
0.23913
0.240914
0.242763
0.24468
0.24667
0.248738
0.250885
0.253119
0.255441
0.257856
0.260368
0.262978
0.265692
0.26851
0.271433
0.274461
0.277597
0.280868
0.284319
0.287972
0.291816
0.295842
0.300036
0.304373
0.308828
0.313369
0.317953
0.322537
0.327068
0.33149
0.335743
0.339768
0.343509
0.346913
0.349942
0.352566
0.354782
0.356607
0.358089
0.359299
0.360347
0.36138
0.362583
0.364173
0.366333
0.224018
0.225271
0.226544
0.227837
0.229155
0.230498
0.23187
0.233274
0.234712
0.236187
0.237703
0.239264
0.240873
0.242533
0.244247
0.246019
0.247857
0.24976
0.251734
0.253783
0.255913
0.258125
0.260426
0.262819
0.265308
0.267898
0.27059
0.273391
0.276299
0.279318
0.282448
0.285691
0.289076
0.29265
0.296437
0.300427
0.304612
0.308976
0.313497
0.318151
0.322905
0.327716
0.33254
0.337326
0.342015
0.346545
0.350854
0.354882
0.358572
0.361878
0.364767
0.367228
0.369274
0.370947
0.372317
0.373495
0.374632
0.375921
0.377586
0.379822
0.230479
0.231768
0.233078
0.234408
0.235763
0.237145
0.238556
0.24
0.24148
0.242998
0.244557
0.246163
0.247818
0.249527
0.25129
0.253115
0.255006
0.256965
0.258996
0.261107
0.2633
0.265578
0.267949
0.270415
0.27298
0.27565
0.278427
0.281316
0.284317
0.287435
0.290668
0.29402
0.297521
0.301222
0.305145
0.309283
0.313628
0.318165
0.322872
0.327725
0.332691
0.33773
0.342794
0.347833
0.352786
0.35759
0.362179
0.366489
0.370458
0.374037
0.377184
0.379883
0.382142
0.383999
0.385522
0.386824
0.388059
0.389427
0.391164
0.393474
0.237126
0.238453
0.2398
0.241169
0.242563
0.243985
0.245437
0.246922
0.248444
0.250005
0.25161
0.253262
0.254965
0.256722
0.258537
0.260415
0.262361
0.264378
0.26647
0.268643
0.270901
0.273248
0.27569
0.278231
0.280874
0.283627
0.28649
0.28947
0.292568
0.295786
0.299125
0.302588
0.306209
0.310037
0.314099
0.318388
0.322894
0.327605
0.3325
0.337553
0.342733
0.347999
0.353304
0.358594
0.36381
0.368885
0.37375
0.378338
0.382582
0.386426
0.389825
0.392756
0.395221
0.397255
0.398923
0.40034
0.401667
0.403108
0.404912
0.407293
0.243985
0.245349
0.246733
0.248139
0.249571
0.251031
0.252522
0.254048
0.255612
0.257217
0.258866
0.260565
0.262316
0.264124
0.265992
0.267924
0.269927
0.272003
0.274156
0.276394
0.278719
0.281136
0.283653
0.286271
0.288995
0.291832
0.294785
0.297858
0.301054
0.304375
0.307822
0.3114
0.315141
0.3191
0.323303
0.327744
0.332414
0.337301
0.342384
0.347639
0.353034
0.358527
0.364071
0.369612
0.375088
0.380431
0.385569
0.390429
0.394943
0.399047
0.402689
0.405845
0.408509
0.410711
0.412516
0.414042
0.415452
0.416962
0.418826
0.421277
0.250963
0.252368
0.253795
0.255246
0.256723
0.258229
0.259767
0.261341
0.262954
0.264608
0.266308
0.268058
0.269863
0.271725
0.273648
0.275639
0.277702
0.27984
0.282057
0.284362
0.286758
0.289247
0.29184
0.294538
0.297345
0.30027
0.303314
0.306483
0.309779
0.313205
0.316763
0.320458
0.324323
0.328414
0.332761
0.337356
0.342192
0.347258
0.352531
0.357989
0.363599
0.369319
0.375102
0.380893
0.386628
0.392236
0.397643
0.402772
0.407549
0.411907
0.415787
0.41916
0.422014
0.424377
0.426311
0.427937
0.429422
0.430992
0.432912
0.435429
0.258219
0.259662
0.261127
0.262615
0.26413
0.265675
0.267254
0.268869
0.270525
0.272225
0.273972
0.275772
0.277627
0.279543
0.281522
0.28357
0.285694
0.287896
0.290179
0.292552
0.29502
0.297585
0.300256
0.303036
0.305929
0.308943
0.312081
0.315349
0.318748
0.322282
0.325954
0.329767
0.333757
0.337984
0.342476
0.347228
0.352232
0.357478
0.362943
0.368604
0.374431
0.380379
0.3864
0.392439
0.398431
0.404301
0.409974
0.415367
0.420403
0.425007
0.429118
0.432699
0.435736
0.43825
0.440304
0.442021
0.443575
0.445197
0.447168
0.449748
0.265584
0.26707
0.26858
0.270115
0.271679
0.273273
0.274901
0.276567
0.278275
0.280026
0.281827
0.283681
0.285593
0.287567
0.289606
0.291716
0.293903
0.296171
0.298523
0.300968
0.30351
0.306153
0.308905
0.311769
0.31475
0.317857
0.321091
0.32446
0.327964
0.331609
0.335396
0.339331
0.34345
0.347814
0.352454
0.357365
0.362539
0.367966
0.373625
0.379492
0.385535
0.391711
0.397971
0.404258
0.410505
0.416635
0.422569
0.428223
0.433511
0.438357
0.442691
0.446473
0.449683
0.45234
0.454504
0.456303
0.457915
0.459582
0.461597
0.464235
0.273247
0.274773
0.276321
0.277895
0.279497
0.281132
0.282802
0.284513
0.286265
0.288065
0.289916
0.291822
0.293789
0.29582
0.297917
0.300089
0.302341
0.304676
0.307097
0.309616
0.312234
0.314956
0.317791
0.320742
0.323814
0.327015
0.330348
0.33382
0.337433
0.341191
0.345097
0.349155
0.353405
0.357909
0.362699
0.367771
0.373117
0.378728
0.384582
0.390655
0.396916
0.403321
0.409818
0.416352
0.422851
0.42924
0.435432
0.44134
0.446876
0.451956
0.456505
0.46048
0.463854
0.466643
0.468909
0.47078
0.472442
0.474145
0.476197
0.47889
0.28101
0.282581
0.284178
0.285802
0.287455
0.289143
0.290867
0.292631
0.294439
0.296295
0.298203
0.300167
0.302194
0.304287
0.306448
0.308685
0.311005
0.31341
0.315905
0.318499
0.321196
0.324
0.326921
0.32996
0.333125
0.336424
0.339858
0.343436
0.347159
0.351033
0.355059
0.359243
0.363627
0.368272
0.373216
0.37845
0.383971
0.389768
0.395818
0.4021
0.40858
0.415213
0.421949
0.428728
0.435479
0.442122
0.448569
0.454728
0.460506
0.465813
0.47057
0.474729
0.478258
0.48117
0.483526
0.485459
0.48716
0.488891
0.490972
0.493715
0.289084
0.290697
0.292336
0.294002
0.2957
0.297432
0.299201
0.301014
0.302871
0.304778
0.306739
0.30876
0.310844
0.312996
0.31522
0.317521
0.319909
0.322385
0.324953
0.327624
0.330402
0.333289
0.336298
0.339429
0.342689
0.346087
0.349625
0.353311
0.357147
0.361139
0.365288
0.369601
0.37412
0.378911
0.384009
0.38941
0.395107
0.401091
0.40734
0.41383
0.420529
0.427391
0.434365
0.441389
0.44839
0.455285
0.461983
0.468388
0.474401
0.479929
0.484886
0.489219
0.492893
0.495918
0.498354
0.500338
0.502067
0.503816
0.50592
0.508709
0.297345
0.299003
0.300688
0.302401
0.304146
0.305926
0.307746
0.309609
0.311519
0.31348
0.315497
0.317576
0.319721
0.321936
0.324224
0.326594
0.329053
0.331602
0.334246
0.336997
0.339857
0.34283
0.345928
0.349153
0.35251
0.35601
0.359654
0.363451
0.367403
0.371515
0.37579
0.380234
0.384891
0.389829
0.395085
0.400653
0.406528
0.412702
0.419151
0.425852
0.432772
0.439864
0.447075
0.454343
0.461592
0.468737
0.475682
0.482329
0.488572
0.494313
0.499462
0.503961
0.50777
0.510895
0.513399
0.515422
0.51717
0.518926
0.521043
0.523872
0.305831
0.307537
0.309268
0.31103
0.312824
0.314655
0.316527
0.318443
0.320408
0.322425
0.3245
0.326638
0.328845
0.331124
0.333478
0.335916
0.338446
0.341069
0.343791
0.346622
0.349567
0.352628
0.355818
0.359138
0.362595
0.366199
0.369951
0.373861
0.377931
0.382166
0.38657
0.391147
0.395945
0.401032
0.406448
0.412186
0.418242
0.424607
0.431257
0.43817
0.445311
0.452633
0.460081
0.467592
0.475088
0.482479
0.489668
0.496551
0.503018
0.508966
0.514298
0.518952
0.522884
0.526099
0.52866
0.530711
0.532465
0.534219
0.536341
0.539205
0.314534
0.316287
0.318068
0.319879
0.321724
0.323607
0.325532
0.327503
0.329524
0.331599
0.333734
0.335934
0.338205
0.340551
0.342974
0.345484
0.348088
0.350789
0.353591
0.356505
0.359537
0.362688
0.365972
0.36939
0.372949
0.376659
0.380522
0.384548
0.388738
0.393099
0.397632
0.402346
0.407287
0.412525
0.418104
0.424014
0.430253
0.436811
0.443665
0.450791
0.458155
0.465707
0.473392
0.481145
0.488886
0.496521
0.50395
0.511064
0.51775
0.523896
0.529402
0.534202
0.538247
0.54154
0.544144
0.54621
0.547958
0.549697
0.551816
0.554709
0.323488
0.32529
0.32712
0.328982
0.330879
0.332815
0.334794
0.336821
0.338899
0.341034
0.343229
0.345492
0.347827
0.35024
0.352732
0.355314
0.357993
0.360772
0.363655
0.366654
0.369774
0.373017
0.376397
0.379915
0.383578
0.387397
0.391373
0.395517
0.39983
0.404318
0.408985
0.413837
0.418922
0.424316
0.430058
0.436143
0.442567
0.44932
0.456379
0.463719
0.471306
0.479089
0.487011
0.495005
0.502988
0.510865
0.51853
0.52587
0.532767
0.539104
0.544776
0.54971
0.553855
0.557213
0.55985
0.561918
0.563647
0.56536
0.567465
0.570382
0.332672
0.334524
0.336405
0.338319
0.340269
0.34226
0.344294
0.346378
0.348516
0.350711
0.352969
0.355297
0.3577
0.360182
0.362747
0.365403
0.368161
0.37102
0.373987
0.377073
0.380284
0.383621
0.387099
0.390719
0.394488
0.398418
0.40251
0.406774
0.411211
0.41583
0.420632
0.425625
0.430858
0.436407
0.442317
0.448579
0.455189
0.46214
0.469406
0.476962
0.484774
0.492788
0.500947
0.509181
0.517405
0.52552
0.533417
0.540978
0.54808
0.5546
0.560427
0.565485
0.56972
0.57313
0.575784
0.57784
0.579536
0.581211
0.583292
0.586225
0.342121
0.344023
0.345957
0.347924
0.349928
0.351973
0.354065
0.356208
0.358405
0.360661
0.362983
0.365377
0.367847
0.370399
0.373037
0.375768
0.378604
0.381545
0.384596
0.387771
0.391073
0.394506
0.398085
0.401809
0.405686
0.409729
0.413938
0.418325
0.42289
0.427641
0.43258
0.437717
0.4431
0.448808
0.454886
0.461327
0.468127
0.475277
0.482751
0.490524
0.498561
0.506807
0.515202
0.523675
0.532138
0.540489
0.548613
0.556389
0.563689
0.570384
0.576357
0.581527
0.585837
0.589287
0.591944
0.593974
0.595624
0.597248
0.599295
0.602237
0.351816
0.353771
0.355757
0.357778
0.359838
0.36194
0.36409
0.366292
0.36855
0.37087
0.373257
0.375718
0.378259
0.380884
0.383596
0.386406
0.389323
0.392348
0.395486
0.398752
0.402149
0.40568
0.40936
0.413191
0.417178
0.421336
0.425665
0.430176
0.434871
0.439757
0.444836
0.450118
0.455654
0.461523
0.467773
0.474395
0.481386
0.488737
0.496422
0.504414
0.512677
0.521155
0.529786
0.538497
0.547197
0.55578
0.564128
0.572114
0.579604
0.586465
0.592574
0.597845
0.602218
0.605693
0.608339
0.610327
0.611915
0.613474
0.615475
0.618419
0.36179
0.363798
0.365839
0.367915
0.37003
0.37219
0.374399
0.376661
0.378982
0.381366
0.383819
0.386348
0.388959
0.391656
0.394444
0.397332
0.40033
0.40344
0.406666
0.410024
0.413516
0.417147
0.420932
0.42487
0.42897
0.433246
0.437696
0.442334
0.447161
0.452184
0.457406
0.462835
0.468526
0.474559
0.480982
0.487788
0.494973
0.502527
0.510423
0.518636
0.527126
0.535836
0.544703
0.55365
0.562585
0.571396
0.579963
0.588153
0.595826
0.602844
0.609079
0.614437
0.61886
0.622345
0.624964
0.626896
0.628407
0.629887
0.631831
0.63477
0.372021
0.374083
0.376179
0.378312
0.380485
0.382704
0.384973
0.387297
0.389682
0.392131
0.394652
0.397251
0.399935
0.402708
0.405574
0.408543
0.411625
0.414823
0.41814
0.421591
0.425182
0.428914
0.432805
0.436854
0.441069
0.445463
0.450038
0.454806
0.459766
0.464929
0.470296
0.475876
0.481723
0.487922
0.494522
0.501514
0.508895
0.516654
0.524764
0.533198
0.541916
0.550859
0.559961
0.569144
0.578311
0.587348
0.596129
0.604516
0.612365
0.619531
0.62588
0.631314
0.635772
0.639252
0.641829
0.643686
0.645104
0.64649
0.648364
0.651289
0.38254
0.384658
0.386811
0.389001
0.391233
0.393512
0.395842
0.39823
0.400679
0.403195
0.405784
0.408454
0.411211
0.41406
0.417004
0.420054
0.423221
0.426507
0.429915
0.433462
0.437153
0.440988
0.444987
0.449148
0.45348
0.457996
0.462698
0.467597
0.472694
0.477999
0.483513
0.489246
0.495253
0.501621
0.508399
0.515579
0.523158
0.531124
0.539449
0.548105
0.557052
0.566228
0.575565
0.584982
0.594379
0.603637
0.612627
0.621205
0.629221
0.636525
0.642977
0.648473
0.652952
0.656412
0.65893
0.660697
0.662005
0.663281
0.665073
0.667975
0.393331
0.395506
0.397716
0.399965
0.402257
0.404597
0.40699
0.409442
0.411957
0.414541
0.417201
0.419944
0.422777
0.425704
0.428729
0.431863
0.435118
0.438494
0.441997
0.445642
0.449434
0.453376
0.457485
0.46176
0.466211
0.470852
0.475682
0.480715
0.485952
0.491401
0.497065
0.502953
0.509122
0.51566
0.52262
0.52999
0.537769
0.545945
0.554487
0.563368
0.572544
0.581953
0.591524
0.601174
0.610798
0.620275
0.629468
0.63823
0.646406
0.653838
0.66038
0.665926
0.67041
0.673833
0.676274
0.677932
0.679113
0.680263
0.681958
0.684829
0.404424
0.406657
0.408925
0.411234
0.413587
0.415989
0.418446
0.420963
0.423545
0.426199
0.42893
0.431746
0.434655
0.43766
0.440767
0.443985
0.447328
0.450796
0.454394
0.458138
0.462034
0.466083
0.470305
0.474697
0.479269
0.484036
0.488998
0.494167
0.499546
0.505142
0.510958
0.517004
0.523337
0.530049
0.537192
0.544756
0.552736
0.561124
0.569884
0.57899
0.588396
0.598038
0.607843
0.617723
0.627571
0.637262
0.646654