/*--------------------------------*- C++ -*----------------------------------*\
  =========                 |
  \\      /  F ield         | OpenFOAM: The Open Source CFD Toolbox
   \\    /   O peration     | Website:  https://openfoam.org
    \\  /    A nd           | Version:  6.0
     \\/     M anipulation  |
\*---------------------------------------------------------------------------*/
FoamFile
{
    version     2.0;
    format      ascii;
    class       surfaceScalarField;
    location    "1";
    object      phi;
}
// * * * * * * * * * * * * * * * * * * * * * * * * * * * * * * * * * * * * * //

dimensions      [0 3 -1 0 0 0 0];

internalField   nonuniform List<scalar> 
123526
(
-5.63426e-05
2.30354e-05
5.67352e-05
-5.59204e-05
2.49093e-05
-5.54636e-05
2.69361e-05
-5.49702e-05
2.91283e-05
-5.44366e-05
3.14994e-05
-5.386e-05
3.40643e-05
-5.32364e-05
3.68388e-05
-5.25625e-05
3.98404e-05
-5.18328e-05
4.30867e-05
-5.10433e-05
4.65989e-05
-5.01888e-05
5.03995e-05
-4.92649e-05
5.45117e-05
-4.82643e-05
5.89613e-05
-4.71798e-05
6.37736e-05
-4.60014e-05
6.89805e-05
-4.47264e-05
7.46188e-05
-4.33447e-05
8.07209e-05
-4.18421e-05
8.73184e-05
-4.02092e-05
9.4462e-05
-3.84406e-05
0.000102198
-3.65146e-05
0.000110564
-3.44202e-05
0.000119619
-3.21484e-05
0.000129428
-2.96692e-05
0.000140027
-2.69763e-05
0.000151512
-2.40464e-05
0.000163932
-2.08547e-05
0.000177367
-1.73869e-05
0.000191905
-1.36063e-05
0.000207612
-9.50047e-06
0.000224602
-5.02797e-06
0.000242941
-1.70991e-07
0.00026275
5.10487e-06
0.000284113
1.0825e-05
0.000307138
1.7016e-05
0.000331923
2.37233e-05
0.000358547
3.09672e-05
0.000387124
3.87867e-05
0.000417714
4.72192e-05
0.000450379
5.62885e-05
0.00048517
6.60259e-05
0.000522085
7.64647e-05
0.000561089
8.76275e-05
0.000602103
9.9537e-05
0.000644973
0.000112216
0.000689454
0.000125686
0.000735188
0.000139966
0.000781664
0.000155069
0.000828169
0.000170997
0.000873723
0.000187733
0.000916996
0.000205229
0.000956209
0.000223391
0.000989014
0.00024207
0.00101236
0.000261032
0.00102237
0.000279965
0.00101409
0.000298427
0.000981399
0.000315866
0.000916563
0.000331564
0.00080985
0.000344624
0.000648167
0.000410972
0.00035352
-5.52655e-05
2.26528e-05
5.5651e-05
-5.48506e-05
2.44955e-05
-5.44015e-05
2.64884e-05
-5.39162e-05
2.86439e-05
-5.33911e-05
3.09755e-05
-5.28236e-05
3.34976e-05
-5.22097e-05
3.62259e-05
-5.15461e-05
3.91775e-05
-5.08275e-05
4.2369e-05
-5.005e-05
4.58218e-05
-4.92084e-05
4.95588e-05
-4.82986e-05
5.36021e-05
-4.73134e-05
5.7977e-05
-4.62457e-05
6.27061e-05
-4.50859e-05
6.78217e-05
-4.38313e-05
7.33644e-05
-4.24721e-05
7.93629e-05
-4.09945e-05
8.58411e-05
-3.93893e-05
9.2858e-05
-3.76514e-05
0.000100461
-3.57597e-05
0.000108673
-3.37031e-05
0.000117563
-3.14737e-05
0.000127199
-2.90414e-05
0.000137595
-2.6401e-05
0.000148872
-2.35289e-05
0.000161061
-2.04019e-05
0.000174241
-1.70054e-05
0.000188509
-1.33044e-05
0.000203912
-9.28598e-06
0.000220584
-4.9107e-06
0.000238567
-1.60399e-07
0.000258001
4.99875e-06
0.000278955
1.0592e-05
0.000301547
1.66461e-05
0.000325871
2.32057e-05
0.000351989
3.02914e-05
0.00038004
3.79422e-05
0.000410065
4.61956e-05
0.000442128
5.50764e-05
0.000476291
6.46165e-05
0.000512547
7.48503e-05
0.000550857
8.58014e-05
0.000591154
9.74932e-05
0.000633283
0.000109949
0.000676999
0.000123189
0.000721948
0.00013723
0.000767621
0.000152085
0.000813312
0.00016775
0.000858051
0.000184208
0.000900529
0.000201408
0.000938995
0.000219256
0.000971147
0.000237605
0.000993994
0.000256228
0.00100372
0.000274818
0.00099548
0.000292941
0.000963249
0.000310057
0.000899429
0.000325453
0.00079443
0.000338235
0.000635376
0.000402249
0.00034694
-5.42099e-05
2.22771e-05
5.45885e-05
-5.38023e-05
2.40889e-05
-5.33611e-05
2.60485e-05
-5.28843e-05
2.81681e-05
-5.23683e-05
3.04607e-05
-5.18106e-05
3.29407e-05
-5.12072e-05
3.56235e-05
-5.0555e-05
3.85259e-05
-4.98484e-05
4.16634e-05
-4.9084e-05
4.50578e-05
-4.82564e-05
4.87323e-05
-4.73618e-05
5.27078e-05
-4.6393e-05
5.70093e-05
-4.53431e-05
6.16565e-05
-4.42027e-05
6.66825e-05
-4.29693e-05
7.21314e-05
-4.16333e-05
7.80281e-05
-4.01811e-05
8.43893e-05
-3.86039e-05
9.1282e-05
-3.68967e-05
9.8754e-05
-3.5039e-05
0.000106817
-3.302e-05
0.000115544
-3.0832e-05
0.000125012
-2.84456e-05
0.00013521
-2.5856e-05
0.000146284
-2.30402e-05
0.000158246
-1.99756e-05
0.000171178
-1.66479e-05
0.000185182
-1.30234e-05
0.000200289
-9.0891e-06
0.000216651
-4.80685e-06
0.000234285
-1.58685e-07
0.000253354
4.88864e-06
0.00027391
1.03606e-05
0.000296078
1.62833e-05
0.000319951
2.2701e-05
0.000345574
2.96346e-05
0.000373109
3.71227e-05
0.000402579
4.52031e-05
0.000434049
5.39012e-05
0.000467595
6.32495e-05
0.000503201
7.3283e-05
0.000540825
8.40264e-05
0.000580412
9.55035e-05
0.000621807
0.000107738
0.000664766
0.000120749
0.000708936
0.000134553
0.000753816
0.00014916
0.000798704
0.000164564
0.000842644
0.000180746
0.000884344
0.000197653
0.000922085
0.000215192
0.000953603
0.000233219
0.000975968
0.000251508
0.000985427
0.000269763
0.000977235
0.000287553
0.000945461
0.000304352
0.000882647
0.000319454
0.000779339
0.00033197
0.000622884
0.000393749
0.000340503
-5.31794e-05
2.1908e-05
5.35509e-05
-5.27793e-05
2.36896e-05
-5.2346e-05
2.56165e-05
-5.18777e-05
2.77006e-05
-5.13709e-05
2.9955e-05
-5.08231e-05
3.23936e-05
-5.02303e-05
3.50316e-05
-4.95895e-05
3.78857e-05
-4.88953e-05
4.09701e-05
-4.81443e-05
4.43071e-05
-4.73311e-05
4.792e-05
-4.64521e-05
5.18289e-05
-4.55002e-05
5.60583e-05
-4.44687e-05
6.0625e-05
-4.33482e-05
6.5563e-05
-4.21365e-05
7.09198e-05
-4.0824e-05
7.67167e-05
-3.93975e-05
8.29632e-05
-3.78484e-05
8.97341e-05
-3.61719e-05
9.7078e-05
-3.4348e-05
0.000104994
-3.23661e-05
0.000113563
-3.02189e-05
0.000122866
-2.78776e-05
0.000132869
-2.53377e-05
0.000143745
-2.25766e-05
0.000155486
-1.95726e-05
0.000168175
-1.63116e-05
0.000181923
-1.27607e-05
0.000196739
-8.90755e-06
0.000212799
-4.71474e-06
0.000230093
-1.64747e-07
0.000248805
4.77543e-06
0.000268972
1.01307e-05
0.000290725
1.59272e-05
0.000314157
2.22086e-05
0.000339295
2.89955e-05
0.000366324
3.63267e-05
0.00039525
4.42398e-05
0.000426138
5.27607e-05
0.000459076
6.19224e-05
0.000494041
7.17604e-05
0.000530989
8.23001e-05
0.000569875
9.35657e-05
0.000610544
0.000105581
0.000652753
0.000118365
0.000696155
0.000131934
0.00074025
0.000146294
0.000784347
0.00016144
0.0008275
0.000177348
0.000868438
0.000193967
0.000905467
0.000211202
0.000936367
0.000228911
0.00095826
0.000246874
0.000967465
0.000264798
0.000959316
0.000282264
0.000927997
0.000298751
0.000866168
0.000313566
0.00076453
0.000325827
0.000610642
0.000385396
0.000334201
-5.21743e-05
2.15456e-05
5.25395e-05
-5.17813e-05
2.32976e-05
-5.13558e-05
2.51923e-05
-5.08959e-05
2.72417e-05
-5.03982e-05
2.94585e-05
-4.98602e-05
3.18564e-05
-4.92781e-05
3.44505e-05
-4.86488e-05
3.72571e-05
-4.79672e-05
4.02894e-05
-4.72295e-05
4.357e-05
-4.6431e-05
4.71224e-05
-4.55677e-05
5.09659e-05
-4.46328e-05
5.51245e-05
-4.36197e-05
5.96122e-05
-4.25193e-05
6.44638e-05
-4.13293e-05
6.97301e-05
-4.00404e-05
7.5429e-05
-3.86398e-05
8.15629e-05
-3.71188e-05
8.82144e-05
-3.5473e-05
9.54326e-05
-3.36827e-05
0.000103205
-3.17376e-05
0.000111619
-2.96306e-05
0.00012076
-2.73336e-05
0.000130573
-2.48423e-05
0.000141255
-2.21347e-05
0.000152779
-1.91897e-05
0.000165231
-1.59934e-05
0.000178727
-1.25139e-05
0.000193261
-8.73916e-06
0.000209025
-4.6326e-06
0.000225987
-1.77091e-07
0.00024435
4.65968e-06
0.000264137
9.90277e-06
0.000285484
1.55777e-05
0.000308484
2.17276e-05
0.000333147
2.83731e-05
0.00035968
3.55526e-05
0.000388072
4.33038e-05
0.000418389
5.16527e-05
0.000450729
6.06328e-05
0.000485063
7.02799e-05
0.000521344
8.06198e-05
0.000559536
9.16774e-05
0.000599488
0.000103476
0.000640956
0.000116036
0.000683596
0.000129371
0.000726916
0.000143486
0.000770232
0.000158376
0.000812611
0.000174014
0.0008528
0.000190347
0.000889135
0.000207282
0.000919432
0.00022468
0.000940868
0.000242322
0.000949827
0.000259923
0.000941729
0.00027707
0.000910859
0.000293252
0.000850006
0.000307786
0.00075001
0.000319803
0.000598649
0.000377205
0.000328025
-5.11949e-05
2.11898e-05
5.15531e-05
-5.08091e-05
2.29125e-05
-5.03914e-05
2.47757e-05
-4.99399e-05
2.6791e-05
-4.94512e-05
2.89708e-05
-4.89229e-05
3.13288e-05
-4.83513e-05
3.38798e-05
-4.77334e-05
3.66397e-05
-4.7064e-05
3.96208e-05
-4.63397e-05
4.2846e-05
-4.55556e-05
4.63391e-05
-4.4708e-05
5.01184e-05
-4.379e-05
5.42074e-05
-4.27953e-05
5.86175e-05
-4.17149e-05
6.33843e-05
-4.05465e-05
6.85618e-05
-3.92811e-05
7.41646e-05
-3.7906e-05
8.0188e-05
-3.6413e-05
8.67224e-05
-3.47975e-05
9.38175e-05
-3.30403e-05
0.000101449
-3.11316e-05
0.00010971
-2.90641e-05
0.000118694
-2.68108e-05
0.00012832
-2.43671e-05
0.000138813
-2.17118e-05
0.000150124
-1.88242e-05
0.000162344
-1.5691e-05
0.000175595
-1.22808e-05
0.000189852
-8.58201e-06
0.000205327
-4.55891e-06
0.000221965
-1.94796e-07
0.000239987
4.54243e-06
0.000259401
9.67707e-06
0.000280352
1.52347e-05
0.000302929
2.12575e-05
0.000327126
2.77663e-05
0.000353173
3.47991e-05
0.000381041
4.23932e-05
0.000410797
5.05751e-05
0.000442549
5.93782e-05
0.000476262
6.88388e-05
0.000511885
7.89831e-05
0.000549395
8.98361e-05
0.000588638
0.000101422
0.000629373
0.00011376
0.000671262
0.000126862
0.000713817
0.000140736
0.000756364
0.000155371
0.000797981
0.000170741
0.000837435
0.000186793
0.000873088
0.000203434
0.000902796
0.000220524
0.000923786
0.000237852
0.000932508
0.000255135
0.000924459
0.00027197
0.000894036
0.000287854
0.000834139
0.000302113
0.000735766
0.000313895
0.000586895
0.000369161
0.000321972
-5.02399e-05
2.08405e-05
5.05917e-05
-4.98611e-05
2.25346e-05
-4.94509e-05
2.43668e-05
-4.90077e-05
2.63486e-05
-4.85279e-05
2.84922e-05
-4.80094e-05
3.0811e-05
-4.74482e-05
3.33195e-05
-4.68416e-05
3.60336e-05
-4.61844e-05
3.89645e-05
-4.54733e-05
4.21353e-05
-4.47035e-05
4.55702e-05
-4.38713e-05
4.92864e-05
-4.29701e-05
5.33072e-05
-4.19935e-05
5.76412e-05
-4.09328e-05
6.23248e-05
-3.97859e-05
6.74151e-05
-3.85437e-05
7.29235e-05
-3.7194e-05
7.88387e-05
-3.57286e-05
8.52582e-05
-3.41431e-05
9.22325e-05
-3.24187e-05
9.97253e-05
-3.05458e-05
0.000107838
-2.85173e-05
0.000116667
-2.63067e-05
0.00012611
-2.39098e-05
0.000136417
-2.13057e-05
0.000147521
-1.84742e-05
0.000159514
-1.54024e-05
0.000172524
-1.20596e-05
0.00018651
-8.43459e-06
0.000201703
-4.49239e-06
0.000218024
-2.16615e-07
0.000235712
4.42399e-06
0.000254762
9.45397e-06
0.000275324
1.4898e-05
0.000297487
2.0798e-05
0.000321228
2.71744e-05
0.000346799
3.40649e-05
0.000374152
4.15066e-05
0.000403357
4.95261e-05
0.000434531
5.81569e-05
0.000467633
6.74353e-05
0.000502609
7.73877e-05
0.000539444
8.80398e-05
0.000577987
9.94153e-05
0.000617999
0.000111534
0.000659145
0.000124407
0.000700944
0.00013804
0.000742731
0.000152424
0.000783598
0.00016753
0.00082233
0.000183304
0.000857315
0.000199655
0.000886447
0.000216444
0.000907002
0.000233463
0.000915494
0.000250434
0.0009075
0.000266962
0.000877516
0.000282554
0.000818565
0.000296545
0.000721785
0.000308099
0.000575361
0.000361248
0.000316036
-4.9309e-05
2.04975e-05
4.9654e-05
-4.89372e-05
2.21635e-05
-4.85346e-05
2.39653e-05
-4.80995e-05
2.59141e-05
-4.76285e-05
2.80221e-05
-4.71193e-05
3.03024e-05
-4.65683e-05
3.27694e-05
-4.59728e-05
3.54385e-05
-4.53276e-05
3.83201e-05
-4.46295e-05
4.14375e-05
-4.38738e-05
4.48152e-05
-4.30568e-05
4.84696e-05
-4.21721e-05
5.24233e-05
-4.12135e-05
5.66826e-05
-4.01724e-05
6.12845e-05
-3.90466e-05
6.62894e-05
-3.78273e-05
7.17053e-05
-3.65026e-05
7.75141e-05
-3.50644e-05
8.3821e-05
-3.35084e-05
9.06769e-05
-3.18163e-05
9.80342e-05
-2.99785e-05
0.000106001
-2.79884e-05
0.000114678
-2.58198e-05
0.000123942
-2.34686e-05
0.000134067
-2.09146e-05
0.000144968
-1.81379e-05
0.000156738
-1.51259e-05
0.000169513
-1.18489e-05
0.000183234
-8.29556e-06
0.000198151
-4.43193e-06
0.000214161
-2.42015e-07
0.000231523
4.30528e-06
0.000250217
9.23359e-06
0.000270398
1.45677e-05
0.000292155
2.03486e-05
0.000315449
2.65966e-05
0.000340552
3.3349e-05
0.000367402
4.06427e-05
0.000396065
4.85041e-05
0.000426672
5.69668e-05
0.000459172
6.60671e-05
0.000493511
7.58318e-05
0.000529682
8.62864e-05
0.000567535
9.74551e-05
0.000606833
0.000109357
0.000647247
0.000122004
0.000688301
0.0001354
0.00072934
0.000149534
0.000769469
0.00016438
0.000807491
0.00017988
0.000841821
0.000195944
0.000870389
0.000212437
0.000890519
0.000229153
0.000898789
0.000245818
0.000890849
0.000262046
0.000861302
0.00027735
0.000803281
0.000291081
0.000708074
0.000302414
0.000564057
0.000353483
0.000310215
-4.84005e-05
2.01609e-05
4.87399e-05
-4.80354e-05
2.17993e-05
-4.76401e-05
2.35712e-05
-4.72129e-05
2.54877e-05
-4.67505e-05
2.75608e-05
-4.62507e-05
2.98033e-05
-4.57099e-05
3.22295e-05
-4.51253e-05
3.48545e-05
-4.4492e-05
3.76877e-05
-4.38068e-05
4.07527e-05
-4.3065e-05
4.40743e-05
-4.2263e-05
4.76679e-05
-4.13947e-05
5.15559e-05
-4.04537e-05
5.57419e-05
-3.94319e-05
6.02637e-05
-3.83268e-05
6.51847e-05
-3.71303e-05
7.05098e-05
-3.58302e-05
7.62143e-05
-3.44188e-05
8.24107e-05
-3.28919e-05
8.91504e-05
-3.12315e-05
9.63748e-05
-2.94283e-05
0.000104198
-2.74758e-05
0.000112726
-2.53484e-05
0.000121816
-2.30421e-05
0.000131761
-2.0537e-05
0.000142464
-1.78139e-05
0.000154016
-1.48604e-05
0.000166561
-1.16473e-05
0.000180022
-8.1639e-06
0.000194668
-4.37666e-06
0.000210374
-2.69978e-07
0.000227418
4.18637e-06
0.000245762
9.01628e-06
0.00026557
1.42437e-05
0.000286929
1.9909e-05
0.000309785
2.60323e-05
0.000334431
3.26506e-05
0.000360785
3.98003e-05
0.000388917
4.75077e-05
0.000418966
5.58065e-05
0.000450875
6.47328e-05
0.000484586
7.43134e-05
0.000520102
8.45743e-05
0.000557275
9.55393e-05
0.000595869
0.000107228
0.000635559
0.000119651
0.000675878
0.000132812
0.000716179
0.000146701
0.000755581
0.000161288
0.000792904
0.000176519
0.00082659
0.000192302
0.000854605
0.000208503
0.000874321
0.000224921
0.000882375
0.000241286
0.000874493
0.00025722
0.000845375
0.000272242
0.000788271
0.000285717
0.000694606
0.000296836
0.000552951
0.000345831
0.000304504
-4.75146e-05
1.98303e-05
4.78472e-05
-4.71563e-05
2.14416e-05
-4.67682e-05
2.31842e-05
-4.63489e-05
2.50691e-05
-4.5895e-05
2.71078e-05
-4.54043e-05
2.93133e-05
-4.48734e-05
3.16993e-05
-4.42995e-05
3.42811e-05
-4.36778e-05
3.70667e-05
-4.30051e-05
4.00803e-05
-4.22769e-05
4.33469e-05
-4.14898e-05
4.68808e-05
-4.06374e-05
5.07043e-05
-3.97139e-05
5.48184e-05
-3.87109e-05
5.92615e-05
-3.76264e-05
6.41003e-05
-3.6452e-05
6.93363e-05
-3.51761e-05
7.49386e-05
-3.3791e-05
8.10266e-05
-3.22926e-05
8.76524e-05
-3.06634e-05
9.47465e-05
-2.88941e-05
0.000102429
-2.69784e-05
0.000110812
-2.48913e-05
0.000119729
-2.2629e-05
0.0001295
-2.01718e-05
0.000140007
-1.75011e-05
0.000151346
-1.46047e-05
0.000163665
-1.14541e-05
0.000176872
-8.03865e-06
0.000191254
-4.3258e-06
0.000206662
-3.00263e-07
0.000223393
4.06805e-06
0.000241395
8.80206e-06
0.000260838
1.39258e-05
0.000281808
1.94788e-05
0.000304234
2.5481e-05
0.00032843
3.19688e-05
0.000354299
3.89783e-05
0.000381909
4.65357e-05
0.00041141
5.46745e-05
0.000442738
6.34306e-05
0.000475832
7.2831e-05
0.000510704
8.29016e-05
0.000547207
9.36664e-05
0.000585108
0.000105144
0.000624085
0.000117347
0.00066368
0.000130277
0.000703254
0.000143923
0.00074194
0.000158256
0.000778577
0.00017322
0.000811632
0.000188726
0.000839106
0.00020464
0.000858416
0.000220765
0.000866261
0.000236836
0.000858436
0.000252481
0.000829746
0.000267228
0.000773542
0.000280453
0.000681401
0.000291364
0.000542068
0.000338329
0.000298901
-4.66495e-05
1.95059e-05
4.69763e-05
-4.62977e-05
2.10906e-05
-4.59168e-05
2.28045e-05
-4.55051e-05
2.46581e-05
-4.50596e-05
2.66632e-05
-4.4578e-05
2.88323e-05
-4.40569e-05
3.1179e-05
-4.34935e-05
3.37182e-05
-4.28833e-05
3.64572e-05
-4.2223e-05
3.94204e-05
-4.15083e-05
4.26329e-05
-4.07355e-05
4.61084e-05
-3.9899e-05
4.98686e-05
-3.89924e-05
5.39121e-05
-3.8008e-05
5.8278e-05
-3.69435e-05
6.30361e-05
-3.5791e-05
6.81847e-05
-3.45388e-05
7.36867e-05
-3.31796e-05
7.96684e-05
-3.17093e-05
8.61825e-05
-3.01107e-05
9.31488e-05
-2.83747e-05
0.000100694
-2.64952e-05
0.000108933
-2.44476e-05
0.000117682
-2.22283e-05
0.000127282
-1.9818e-05
0.000137598
-1.71985e-05
0.000148728
-1.43579e-05
0.000160825
-1.12682e-05
0.000173783
-7.91915e-06
0.000187906
-4.27876e-06
0.000203022
-3.32036e-07
0.000219447
3.95021e-06
0.000237114
8.59121e-06
0.000256199
1.3614e-05
0.000276787
1.90578e-05
0.000298791
2.49422e-05
0.000322547
3.13029e-05
0.000347939
3.81758e-05
0.000375037
4.5587e-05
0.000404
5.35695e-05
0.000434757
6.21592e-05
0.000467243
7.13831e-05
0.000501481
8.1267e-05
0.000537324
9.1835e-05
0.00057454
0.000103106
0.000612815
0.000115091
0.000651695
0.000127792
0.000690553
0.000141199
0.000728533
0.000155281
0.000764495
0.000169983
0.00079693
0.000185216
0.000823872
0.000200848
0.000842785
0.000216686
0.000850425
0.000232468
0.00084266
0.000247829
0.000814388
0.000262306
0.000759074
0.000275286
0.000668424
0.000285994
0.000531368
0.000330928
0.000293403
-4.58052e-05
1.91873e-05
4.61255e-05
-4.54599e-05
2.07459e-05
-4.5086e-05
2.24315e-05
-4.4682e-05
2.42546e-05
-4.42446e-05
2.62267e-05
-4.37718e-05
2.836e-05
-4.32601e-05
3.06681e-05
-4.27071e-05
3.31656e-05
-4.2108e-05
3.58589e-05
-4.14599e-05
3.87725e-05
-4.07582e-05
4.1932e-05
-3.99999e-05
4.53501e-05
-3.91786e-05
4.90482e-05
-3.8289e-05
5.30224e-05
-3.73227e-05
5.73127e-05
-3.62781e-05
6.19915e-05
-3.51469e-05
6.70544e-05
-3.3918e-05
7.24581e-05
-3.25842e-05
7.83354e-05
-3.11413e-05
8.474e-05
-2.95726e-05
9.15811e-05
-2.78692e-05
9.89907e-05
-2.60252e-05
0.00010709
-2.40163e-05
0.000115674
-2.18391e-05
0.000125105
-1.94748e-05
0.000135234
-1.69053e-05
0.000146159
-1.41191e-05
0.00015804
-1.1089e-05
0.000170754
-7.80469e-06
0.000184622
-4.23499e-06
0.000199453
-3.65267e-07
0.000215578
3.83356e-06
0.000232917
8.38367e-06
0.00025165
1.33083e-05
0.000271864
1.86457e-05
0.000293455
2.44153e-05
0.000316779
3.06523e-05
0.000341703
3.7392e-05
0.000368299
4.46605e-05
0.000396733
5.24904e-05
0.000426928
6.09173e-05
0.000458818
6.99682e-05
0.000492432
7.9669e-05
0.000527626
9.00435e-05
0.000564169
0.00010111
0.000601751
0.000112881
0.000639928
0.000125358
0.000678081
0.000138528
0.000715368
0.000152363
0.000750666
0.000166807
0.000782492
0.000181771
0.000808914
0.000197126
0.00082744
0.000212681
0.000834881
0.000228179
0.000827177
0.000243262
0.000799321
0.000257474
0.00074488
0.000270215
0.000655702
0.000280725
0.000520885
0.00032368
0.000288008
-4.49798e-05
1.88747e-05
4.5295e-05
-4.46407e-05
2.04077e-05
-4.42736e-05
2.20656e-05
-4.38768e-05
2.38587e-05
-4.34475e-05
2.57983e-05
-4.29833e-05
2.78966e-05
-4.24812e-05
3.01668e-05
-4.19384e-05
3.26234e-05
-4.13505e-05
3.52717e-05
-4.07143e-05
3.81368e-05
-4.00257e-05
4.12442e-05
-3.92812e-05
4.4606e-05
-3.84754e-05
4.82431e-05
-3.7602e-05
5.21494e-05
-3.66538e-05
5.63653e-05
-3.56285e-05
6.09665e-05
-3.45185e-05
6.59453e-05
-3.33124e-05
7.12524e-05
-3.20036e-05
7.70274e-05
-3.05877e-05
8.33245e-05
-2.90484e-05
9.00427e-05
-2.7377e-05
9.73198e-05
-2.55677e-05
0.000105282
-2.35967e-05
0.000113703
-2.14607e-05
0.00012297
-1.91413e-05
0.000132915
-1.66208e-05
0.00014364
-1.38879e-05
0.000155308
-1.09159e-05
0.000167783
-7.69485e-06
0.000181402
-4.19409e-06
0.000195953
-3.9925e-07
0.000211784
3.71783e-06
0.000228801
8.1797e-06
0.00024719
1.30086e-05
0.000267036
1.82423e-05
0.000288223
2.39e-05
0.000311122
3.00164e-05
0.000335588
3.66262e-05
0.00036169
4.37553e-05
0.000389605
5.1436e-05
0.000419249
5.97038e-05
0.000450551
6.85853e-05
0.000483552
7.81064e-05
0.000518106
8.82908e-05
0.000553985
9.91572e-05
0.000590885
0.000110717
0.000628369
0.000122971
0.000665826
0.000135909
0.00070243
0.0001495
0.000737074
0.000163689
0.000768302
0.000178389
0.000794212
0.000193472
0.000812357
0.000208749
0.000819604
0.000223968
0.000811961
0.000238778
0.000784512
0.000252731
0.000730931
0.000265238
0.000643195
0.000275555
0.000510571
0.000316522
0.000282713
-4.41739e-05
1.85677e-05
4.44827e-05
-4.38411e-05
2.00755e-05
-4.34807e-05
2.17062e-05
-4.30913e-05
2.34699e-05
-4.26698e-05
2.53777e-05
-4.22142e-05
2.74416e-05
-4.17212e-05
2.96746e-05
-4.11883e-05
3.2091e-05
-4.06111e-05
3.46952e-05
-3.99867e-05
3.75125e-05
-3.93107e-05
4.05689e-05
-3.85801e-05
4.38754e-05
-3.7789e-05
4.74527e-05
-3.69319e-05
5.12923e-05
-3.60012e-05
5.54354e-05
-3.4995e-05
5.99603e-05
-3.39055e-05
6.48566e-05
-3.27219e-05
7.0069e-05
-3.14373e-05
7.57437e-05
-3.00479e-05
8.19354e-05
-2.85374e-05
8.8533e-05
-2.68973e-05
9.56801e-05
-2.5122e-05
0.000103507
-2.31882e-05
0.00011177
-2.10925e-05
0.000120876
-1.8817e-05
0.000130641
-1.63444e-05
0.000141168
-1.36636e-05
0.000152628
-1.07484e-05
0.000164868
-7.58908e-06
0.000178243
-4.15566e-06
0.00019252
-4.34094e-07
0.000208063
3.60368e-06
0.000224765
7.97914e-06
0.000242816
1.27148e-05
0.000262302
1.78474e-05
0.000283091
2.33959e-05
0.000305575
2.93946e-05
0.000329591
3.58777e-05
0.000355208
4.28706e-05
0.000382614
5.04055e-05
0.000411715
5.85174e-05
0.000442441
6.7233e-05
0.000474838
7.65778e-05
0.000508763
8.65756e-05
0.00054399
9.72448e-05
0.000580219
0.000108597
0.000617021
0.000120633
0.000653795
0.000133341
0.000689727
0.000146692
0.00072373
0.000160631
0.000754369
0.00017507
0.000779779
0.000189885
0.000797551
0.000204889
0.00080461
0.000219835
0.000797029
0.000234377
0.000769984
0.000248076
0.00071725
0.000260353
0.000630937
0.000270481
0.000500469
0.000309518
0.000277517
-4.33857e-05
1.82664e-05
4.36892e-05
-4.30589e-05
1.97496e-05
-4.27052e-05
2.13535e-05
-4.23229e-05
2.30884e-05
-4.19092e-05
2.49649e-05
-4.1462e-05
2.6995e-05
-4.09782e-05
2.91915e-05
-4.04551e-05
3.15684e-05
-3.98887e-05
3.41294e-05
-3.92756e-05
3.69e-05
-3.86122e-05
3.99062e-05
-3.78949e-05
4.31585e-05
-3.71185e-05
4.66771e-05
-3.62771e-05
5.04512e-05
-3.53637e-05
5.45228e-05
-3.4376e-05
5.8973e-05
-3.33068e-05
6.37883e-05
-3.21452e-05
6.89078e-05
-3.08846e-05
7.4484e-05
-2.95211e-05
8.05723e-05
-2.80388e-05
8.70516e-05
-2.64295e-05
9.40713e-05
-2.46875e-05
0.000101766
-2.279e-05
0.000109873
-2.07339e-05
0.00011882
-1.85014e-05
0.000128409
-1.60756e-05
0.000138743
-1.34458e-05
0.000149999
-1.0586e-05
0.00016201
-7.48711e-06
0.000175145
-4.11941e-06
0.000189153
-4.69189e-07
0.000204414
3.49074e-06
0.000220806
7.78221e-06
0.000238526
1.24267e-05
0.000257659
1.74607e-05
0.000278059
2.29027e-05
0.000300134
2.87865e-05
0.000323708
3.51457e-05
0.00034885
4.20056e-05
0.000375755
4.9398e-05
0.000404324
5.73574e-05
0.000434482
6.59104e-05
0.000466286
7.50823e-05
0.000499592
8.48967e-05
0.000534176
9.53721e-05
0.000569744
0.000106519
0.000605873
0.00011834
0.000641973
0.000130823
0.000677243
0.000143937
0.000710614
0.000157629
0.000740675
0.000171813
0.000765592
0.000186364
0.000782998
0.0002011
0.000789873
0.000215777
0.000782353
0.000230056
0.000755705
0.000243506
0.000703803
0.000255558
0.000618881
0.000265501
0.000490524
0.000302598
0.000272416
-4.26154e-05
1.79706e-05
4.29128e-05
-4.22948e-05
1.94294e-05
-4.19476e-05
2.10072e-05
-4.15724e-05
2.27136e-05
-4.11663e-05
2.45595e-05
-4.07273e-05
2.65564e-05
-4.02522e-05
2.87171e-05
-3.97387e-05
3.10554e-05
-3.91825e-05
3.35738e-05
-3.85808e-05
3.62985e-05
-3.79295e-05
3.92555e-05
-3.72256e-05
4.24545e-05
-3.64634e-05
4.59155e-05
-3.56377e-05
4.96255e-05
-3.47411e-05
5.3627e-05
-3.37717e-05
5.80037e-05
-3.27223e-05
6.27396e-05
-3.15823e-05
6.7768e-05
-3.0345e-05
7.32477e-05
-2.90069e-05
7.92345e-05
-2.75523e-05
8.55979e-05
-2.5973e-05
9.24924e-05
-2.42636e-05
0.000100057
-2.24018e-05
0.000108012
-2.03843e-05
0.000116804
-1.81939e-05
0.000126219
-1.5814e-05
0.000136364
-1.32339e-05
0.00014742
-1.04285e-05
0.000159205
-7.38851e-06
0.000172106
-4.08508e-06
0.00018585
-5.04732e-07
0.000200834
3.37962e-06
0.000216923
7.58874e-06
0.000234318
1.21444e-05
0.000253105
1.7082e-05
0.000273122
2.24201e-05
0.000294797
2.81916e-05
0.000317937
3.44298e-05
0.000342613
4.11597e-05
0.000369026
4.84126e-05
0.000397072
5.62228e-05
0.000426674
6.46163e-05
0.000457894
7.36187e-05
0.000490592
8.32532e-05
0.000524544
9.35381e-05
0.000559462
0.000104484
0.00059493
0.000116093
0.000630368
0.000128353
0.000664988
0.000141235
0.000697738
0.000154684
0.000727232
0.000168616
0.000751665
0.000182908
0.000768715
0.000197381
0.00077541
0.000211794
0.000767953
0.000225815
0.000741698
0.00023902
0.000690615
0.000250852
0.000607067
0.000260614
0.000480786
0.000295832
0.00026741
-4.18614e-05
1.76803e-05
4.21542e-05
-4.15465e-05
1.91154e-05
-4.12056e-05
2.06674e-05
-4.08371e-05
2.2346e-05
-4.04385e-05
2.41618e-05
-4.00075e-05
2.61262e-05
-3.95413e-05
2.82517e-05
-3.90373e-05
3.05519e-05
-3.84915e-05
3.30287e-05
-3.79009e-05
3.57083e-05
-3.72618e-05
3.8617e-05
-3.65706e-05
4.17638e-05
-3.58227e-05
4.51683e-05
-3.50121e-05
4.88152e-05
-3.41323e-05
5.27478e-05
-3.31808e-05
5.70526e-05
-3.21509e-05
6.17105e-05
-3.1032e-05
6.66494e-05
-2.98178e-05
7.20343e-05
-2.85046e-05
7.79216e-05
-2.70771e-05
8.41712e-05
-2.55273e-05
9.0943e-05
-2.38499e-05
9.83808e-05
-2.20229e-05
0.000106185
-2.00433e-05
0.000114825
-1.78941e-05
0.00012407
-1.5559e-05
0.000134029
-1.30277e-05
0.000144889
-1.02754e-05
0.000156453
-7.29311e-06
0.000169124
-4.05244e-06
0.00018261
-5.40177e-07
0.000197323
3.26988e-06
0.000213114
7.39891e-06
0.000230191
1.18676e-05
0.000248637
1.67112e-05
0.00026828
2.19476e-05
0.000289561
2.76095e-05
0.000312276
3.37295e-05
0.000336494
4.03322e-05
0.000362424
4.74487e-05
0.000389957
5.51126e-05
0.000419011
6.33501e-05
0.000449657
7.21861e-05
0.000481756
8.1644e-05
0.000515086
9.17417e-05
0.000549364
0.00010249
0.000584181
0.000113891
0.000618967
0.000125932
0.000652946
0.000138584
0.000685084
0.000151795
0.000714019
0.000165479
0.000737977
0.000179516
0.000754675
0.00019373
0.000761194
0.000207884
0.000753798
0.000221652
0.000727927
0.000234617
0.000677649
0.000246233
0.000595444
0.000255817
0.000471197
0.000289144
0.000262495
-4.11244e-05
1.73952e-05
4.14112e-05
-4.08154e-05
1.88069e-05
-4.04808e-05
2.03337e-05
-4.01191e-05
2.1985e-05
-3.97278e-05
2.37712e-05
-3.93047e-05
2.57036e-05
-3.88469e-05
2.77946e-05
-3.83522e-05
3.00576e-05
-3.78163e-05
3.24935e-05
-3.72365e-05
3.51287e-05
-3.66091e-05
3.79901e-05
-3.59308e-05
4.10856e-05
-3.51966e-05
4.44346e-05
-3.4401e-05
4.80197e-05
-3.35373e-05
5.18847e-05
-3.26035e-05
5.61188e-05
-3.15926e-05
6.07003e-05
-3.04944e-05
6.55515e-05
-2.93027e-05
7.08434e-05
-2.80138e-05
7.66331e-05
-2.66129e-05
8.2771e-05
-2.50919e-05
8.94225e-05
-2.34458e-05
9.67355e-05
-2.1653e-05
0.000104393
-1.97105e-05
0.000112883
-1.76016e-05
0.000121962
-1.53105e-05
0.000131739
-1.28268e-05
0.000142406
-1.01265e-05
0.000153754
-7.20055e-06
0.000166199
-4.0213e-06
0.000179431
-5.7579e-07
0.000193878
3.16212e-06
0.000209377
7.21251e-06
0.000226142
1.15964e-05
0.000244255
1.6348e-05
0.000263529
2.14851e-05
0.000284425
2.70398e-05
0.000306723
3.30441e-05
0.00033049
3.95225e-05
0.000355947
4.65054e-05
0.000382975
5.40262e-05
0.000411491
6.21107e-05
0.000441575
7.07836e-05
0.000473085
8.0068e-05
0.000505804
8.9982e-05
0.000539453
0.000100536
0.00057363
0.000111732
0.000607775
0.000123558
0.000641125
0.000135984
0.000672663
0.00014896
0.000701049
0.000162401
0.000724542
0.000176187
0.000740896
0.000190147
0.000747243
0.000204047
0.00073991
0.000217566
0.000714421
0.000230295
0.000664936
0.000241699
0.000584056
0.000251109
0.000461809
0.000282609
0.000257671
-4.04027e-05
1.71154e-05
4.06845e-05
-4.00993e-05
1.85042e-05
-3.97708e-05
2.00062e-05
-3.94158e-05
2.16306e-05
-3.90317e-05
2.33879e-05
-3.86164e-05
2.5289e-05
-3.81672e-05
2.7346e-05
-3.76815e-05
2.95724e-05
-3.71556e-05
3.19682e-05
-3.65864e-05
3.456e-05
-3.59706e-05
3.73749e-05
-3.53046e-05
4.04201e-05
-3.4584e-05
4.37146e-05
-3.3803e-05
4.72391e-05
-3.29552e-05
5.10378e-05
-3.20386e-05
5.52025e-05
-3.10464e-05
5.97089e-05
-2.99685e-05
6.44739e-05
-2.8799e-05
6.96747e-05
-2.7534e-05
7.53685e-05
-2.61591e-05
8.13969e-05
-2.46665e-05
8.79303e-05
-2.30511e-05
9.51209e-05
-2.12917e-05
0.000102634
-1.93855e-05
0.000110978
-1.73161e-05
0.000119893
-1.50679e-05
0.000129491
-1.2631e-05
0.00013997
-9.98144e-06
0.000151105
-7.11073e-06
0.000163329
-3.99149e-06
0.000176312
-6.11059e-07
0.000190498
3.05585e-06
0.000205711
7.02972e-06
0.000222169
1.13306e-05
0.000239955
1.59923e-05
0.000258868
2.10323e-05
0.000279386
2.64821e-05
0.000301274
3.23734e-05
0.0003246
3.87301e-05
0.000349591
4.55823e-05
0.000376123
5.29629e-05
0.000404111
6.08973e-05
0.000433641
6.94103e-05
0.000464572
7.85246e-05
0.00049669
8.82579e-05
0.000529719
9.8621e-05
0.000563266
0.000109615
0.000596779
0.000121229
0.000629509
0.000133434
0.000660456
0.000146178
0.000688302
0.00015938
0.000711336
0.00017292
0.000727352
0.00018663
0.00073353
0.00020028
0.000726259
0.000213555
0.000701142
0.000226053
0.000652434
0.00023725
0.000572851
0.000246489
0.000452561
0.000276148
0.000252935
-3.96968e-05
1.68406e-05
3.99729e-05
-3.93991e-05
1.82069e-05
-3.90767e-05
1.96845e-05
-3.87282e-05
2.12827e-05
-3.83511e-05
2.30114e-05
-3.79434e-05
2.48817e-05
-3.75023e-05
2.69055e-05
-3.70255e-05
2.9096e-05
-3.65091e-05
3.14523e-05
-3.59504e-05
3.40015e-05
-3.53457e-05
3.67708e-05
-3.46922e-05
3.97666e-05
-3.39846e-05
4.30077e-05
-3.32182e-05
4.64726e-05
-3.23859e-05
5.02062e-05
-3.14863e-05
5.43029e-05
-3.05123e-05
5.87357e-05
-2.94544e-05
6.34163e-05
-2.83065e-05
6.85275e-05
-2.70649e-05
7.41273e-05
-2.57155e-05
8.00483e-05
-2.42505e-05
8.64659e-05
-2.26652e-05
9.35363e-05
-2.09386e-05
0.000100908
-1.9068e-05
0.000109108
-1.70373e-05
0.000117863
-1.48312e-05
0.000127286
-1.24399e-05
0.000137579
-9.84012e-06
0.000148506
-7.02333e-06
0.000160512
-3.96288e-06
0.000173252
-6.46293e-07
0.000187182
2.95163e-06
0.000202114
6.8503e-06
0.000218271
1.107e-05
0.000235736
1.56438e-05
0.000254295
2.05889e-05
0.000274442
2.59362e-05
0.000295927
3.17168e-05
0.00031882
3.79543e-05
0.000343354
4.46786e-05
0.0003694
5.19218e-05
0.000396869
5.97093e-05
0.000425855
6.80654e-05
0.000456218
7.70126e-05
0.000487745
8.65687e-05
0.000520166
9.67441e-05
0.000553094
0.00010754
0.000585986
0.000118946
0.000618107
0.000130933
0.000648474
0.000143449
0.000675791
0.000156415
0.000698376
0.000169713
0.00071406
0.000183178
0.000720075
0.000196582
0.000712866
0.000209618
0.000688119
0.000221889