/*--------------------------------*- C++ -*----------------------------------*\
  =========                 |
  \\      /  F ield         | OpenFOAM: The Open Source CFD Toolbox
   \\    /   O peration     | Website:  https://openfoam.org
    \\  /    A nd           | Version:  6.0
     \\/     M anipulation  |
\*---------------------------------------------------------------------------*/
FoamFile
{
    version     2.0;
    format      ascii;
    class       volVectorField;
    location    "1";
    object      U;
}
// * * * * * * * * * * * * * * * * * * * * * * * * * * * * * * * * * * * * * //

dimensions      [0 1 -1 0 0 0 0];

internalField   nonuniform List<vector> 
62000
(
(0.984484 0.17584 -1.82561e-20)
(0.984464 0.175871 1.53207e-20)
(0.984442 0.175869 1.61366e-20)
(0.984421 0.175866 -7.20593e-20)
(0.984399 0.175864 -8.45078e-20)
(0.984377 0.175862 2.94763e-19)
(0.984355 0.175859 -3.30512e-19)
(0.984334 0.175856 1.95136e-19)
(0.984312 0.175853 -9.38628e-20)
(0.984292 0.17585 -4.9027e-19)
(0.984272 0.175846 -6.85999e-20)
(0.984254 0.175841 7.07414e-19)
(0.984237 0.175835 1.49019e-19)
(0.984222 0.175828 -5.27497e-19)
(0.984208 0.175819 8.4105e-19)
(0.984197 0.175808 -4.52142e-19)
(0.984189 0.175794 4.82205e-19)
(0.984184 0.175777 -5.72274e-19)
(0.984182 0.175756 2.90508e-19)
(0.984184 0.17573 -9.10193e-19)
(0.984189 0.175698 1.20694e-18)
(0.984199 0.17566 3.68921e-19)
(0.984213 0.175614 5.4248e-19)
(0.984232 0.175559 -2.46492e-18)
(0.984255 0.175493 9.16469e-19)
(0.984282 0.175414 -5.7819e-19)
(0.984313 0.175321 -1.02536e-20)
(0.984348 0.175211 -4.80372e-19)
(0.984387 0.175083 1.50652e-18)
(0.984427 0.174933 -8.49797e-19)
(0.984467 0.17476 2.06425e-18)
(0.984507 0.174563 -4.2981e-18)
(0.984545 0.174335 4.14255e-19)
(0.984578 0.174082 -1.37911e-18)
(0.9846 0.173809 -4.35726e-19)
(0.984608 0.173513 -1.34556e-18)
(0.984599 0.173195 -3.69941e-19)
(0.984569 0.172856 -3.49473e-19)
(0.984514 0.172499 1.24332e-18)
(0.98443 0.172129 5.41755e-18)
(0.984314 0.171751 -1.24052e-18)
(0.984162 0.171371 -6.86486e-18)
(0.983974 0.171 -1.0182e-17)
(0.983752 0.170644 5.14576e-18)
(0.983499 0.170312 1.44251e-18)
(0.983224 0.170009 -6.124e-18)
(0.982938 0.169738 1.11128e-18)
(0.982653 0.169497 -2.09817e-18)
(0.982387 0.169275 -8.46658e-18)
(0.982151 0.169058 -1.71938e-18)
(0.981958 0.168826 -7.54851e-19)
(0.981816 0.168554 -8.82395e-18)
(0.981732 0.168212 1.34669e-18)
(0.981709 0.167767 7.60073e-18)
(0.981752 0.167177 1.70972e-18)
(0.981872 0.166384 5.43557e-18)
(0.982091 0.165288 -4.64792e-19)
(0.982454 0.163713 -5.6747e-19)
(0.983056 0.161256 1.54631e-18)
(0.983944 0.156833 1.5674e-19)
(0.984471 0.175798 -4.98928e-21)
(0.984451 0.175827 4.85566e-20)
(0.984429 0.175824 2.08653e-20)
(0.984407 0.175821 -8.91086e-20)
(0.984385 0.175818 3.77184e-20)
(0.984362 0.175814 -2.66638e-19)
(0.984339 0.17581 2.46957e-19)
(0.984316 0.175805 1.46967e-19)
(0.984293 0.1758 -2.78838e-19)
(0.98427 0.175794 1.12741e-20)
(0.984248 0.175787 2.81314e-19)
(0.984226 0.17578 2.09276e-21)
(0.984205 0.175771 8.59412e-20)
(0.984186 0.17576 -7.35886e-19)
(0.984167 0.175748 1.5078e-18)
(0.98415 0.175733 -1.35271e-18)
(0.984136 0.175716 6.47955e-19)
(0.984123 0.175696 -1.37839e-19)
(0.984113 0.175672 -3.86112e-19)
(0.984106 0.175643 1.09367e-18)
(0.984101 0.175609 -1.75148e-18)
(0.9841 0.175569 1.03475e-18)
(0.984103 0.175522 -1.34668e-18)
(0.984109 0.175466 8.10057e-19)
(0.984119 0.1754 7.66894e-19)
(0.984132 0.175322 -5.14231e-19)
(0.984149 0.175231 -3.63231e-21)
(0.984169 0.175125 5.88376e-19)
(0.984192 0.175002 5.03099e-19)
(0.984216 0.174859 -1.04542e-18)
(0.984241 0.174694 2.15455e-18)
(0.984265 0.174508 4.39966e-19)
(0.984294 0.174293 1.36825e-18)
(0.984321 0.174056 8.74721e-20)
(0.984339 0.1738 3.59177e-19)
(0.984344 0.173522 -4.22809e-19)
(0.984334 0.173223 -1.23196e-18)
(0.984305 0.172904 -6.34302e-19)
(0.984255 0.172567 -3.25394e-18)
(0.984178 0.172216 -3.54966e-18)
(0.984073 0.171855 2.73933e-18)
(0.983937 0.171491 1.50364e-18)
(0.983768 0.171131 1.08201e-17)
(0.983567 0.170781 6.21254e-19)
(0.983339 0.170451 -1.45703e-17)
(0.983089 0.170143 5.24544e-18)
(0.982827 0.169861 3.68441e-18)
(0.982565 0.169602 4.23266e-18)
(0.982316 0.169359 3.08114e-19)
(0.982094 0.169119 -7.97314e-21)
(0.98191 0.168862 4.92032e-18)
(0.981773 0.168566 1.14592e-17)
(0.98169 0.168201 -6.67033e-18)
(0.981667 0.167735 -1.56338e-17)
(0.981709 0.167126 -3.57577e-18)
(0.981828 0.166314 -1.11556e-18)
(0.982044 0.165199 -5.28408e-18)
(0.982403 0.163601 -2.01573e-18)
(0.98299 0.161115 3.88136e-18)
(0.983715 0.156689 1.23054e-18)
(0.984453 0.175755 -2.48034e-20)
(0.98443 0.175784 -3.75091e-21)
(0.984407 0.175781 3.77316e-21)
(0.984384 0.175777 1.82995e-20)
(0.98436 0.175773 5.31393e-20)
(0.984335 0.175769 -5.09517e-20)
(0.98431 0.175764 2.78911e-19)
(0.984285 0.175759 -1.3342e-19)
(0.984259 0.175752 -7.29281e-20)
(0.984234 0.175745 -4.6326e-19)
(0.984209 0.175737 3.95253e-19)
(0.984184 0.175728 2.99086e-20)
(0.984159 0.175717 -9.42287e-20)
(0.984135 0.175704 2.55061e-19)
(0.984112 0.17569 -4.44424e-19)
(0.984091 0.175673 1.51466e-21)
(0.98407 0.175654 -2.13473e-19)
(0.984051 0.175631 1.01721e-21)
(0.984034 0.175605 5.09104e-19)
(0.984019 0.175574 -7.92017e-19)
(0.984007 0.175538 5.01319e-19)
(0.983996 0.175496 1.99747e-18)
(0.983989 0.175448 -2.57373e-19)
(0.983985 0.175391 -2.87124e-18)
(0.983983 0.175325 1.49848e-18)
(0.983984 0.175248 -8.32741e-19)
(0.983989 0.175159 1.3768e-18)
(0.983996 0.175056 -8.47804e-19)
(0.984005 0.174936 -1.70711e-18)
(0.984015 0.174799 1.85209e-18)
(0.984026 0.174641 -1.3228e-18)
(0.984037 0.174464 1.78524e-18)
(0.984057 0.17426 -4.91408e-18)
(0.984079 0.174036 4.2762e-18)
(0.984093 0.173795 -2.23538e-18)
(0.984095 0.173533 9.10739e-19)
(0.984083 0.173251 6.91197e-19)
(0.984055 0.172949 -1.57675e-21)
(0.984008 0.172629 -1.17506e-19)
(0.983937 0.172295 3.8204e-18)
(0.98384 0.171949 -1.38632e-18)
(0.983715 0.171598 2.06155e-18)
(0.983561 0.171247 -7.06604e-18)
(0.983378 0.170903 -3.26251e-18)
(0.98317 0.170572 2.93438e-18)
(0.982941 0.170259 -1.08208e-17)
(0.982699 0.169966 1.16779e-18)
(0.982457 0.169691 -7.5968e-18)
(0.982225 0.169427 9.64451e-18)
(0.982016 0.169163 2.13434e-18)
(0.981841 0.168882 1.4623e-18)
(0.981709 0.16856 2.09673e-19)
(0.981629 0.168172 3.77567e-18)
(0.981606 0.167683 -1.77104e-18)
(0.981649 0.167052 -7.82101e-18)
(0.981767 0.166218 -2.82484e-18)
(0.981983 0.16508 -4.41622e-18)
(0.98234 0.163452 -8.78797e-18)
(0.982919 0.16093 9.62624e-19)
(0.983531 0.156482 1.22261e-18)
(0.984431 0.175718 -2.53053e-20)
(0.984407 0.175746 7.83473e-20)
(0.984382 0.175743 -1.18118e-20)
(0.984356 0.175739 -8.28774e-20)
(0.98433 0.175735 1.26796e-19)
(0.984303 0.17573 2.22884e-19)
(0.984275 0.175725 -2.9217e-19)
(0.984247 0.175719 3.23693e-20)
(0.984219 0.175712 1.05132e-19)
(0.984191 0.175704 2.22529e-19)
(0.984162 0.175695 -4.13435e-19)
(0.984134 0.175684 -1.30385e-19)
(0.984105 0.175672 -1.48364e-19)
(0.984077 0.175659 6.80563e-19)
(0.98405 0.175643 -4.60177e-19)
(0.984023 0.175625 1.09322e-18)
(0.983998 0.175604 -1.34185e-18)
(0.983973 0.175579 -2.0229e-19)
(0.98395 0.175551 1.45808e-18)
(0.983928 0.175519 -5.13723e-19)
(0.983908 0.175482 -1.92117e-19)
(0.98389 0.175439 -2.08081e-19)
(0.983874 0.175389 -1.92105e-18)
(0.98386 0.175332 1.1158e-18)
(0.983848 0.175266 -5.1593e-19)
(0.983839 0.17519 8.38834e-19)
(0.983832 0.175102 3.99616e-19)
(0.983828 0.175001 1.99043e-18)
(0.983824 0.174884 -1.26661e-18)
(0.983822 0.174751 -1.66945e-18)
(0.983821 0.1746 2.66473e-18)
(0.98382 0.17443 -2.20512e-18)
(0.983832 0.174236 4.02905e-18)
(0.98385 0.174023 -2.37835e-18)
(0.98386 0.173794 1.00676e-18)
(0.983859 0.173546 1.6642e-18)
(0.983847 0.173278 -6.88124e-19)
(0.983819 0.172992 7.8008e-19)
(0.983773 0.172687 -4.46953e-19)
(0.983707 0.172367 1.16578e-18)
(0.983617 0.172034 -3.22989e-18)
(0.983502 0.171695 8.3866e-19)
(0.983361 0.171352 1.7071e-18)
(0.983194 0.171013 4.10547e-18)
(0.983002 0.170683 4.72575e-18)
(0.982792 0.170365 6.09647e-19)
(0.98257 0.170062 6.72633e-18)
(0.982345 0.169772 6.66295e-18)
(0.982129 0.16949 7.54714e-18)
(0.981932 0.169204 -4.98761e-18)
(0.981767 0.168899 -5.50554e-18)
(0.981642 0.168554 3.92352e-18)
(0.981565 0.168143 5.11396e-18)
(0.981544 0.167632 8.50898e-18)
(0.981587 0.166979 4.57758e-18)
(0.981706 0.166123 1.01092e-17)
(0.981922 0.16496 1.5821e-17)
(0.982277 0.163303 -3.22422e-18)
(0.982851 0.160747 -8.01191e-18)
(0.98338 0.156272 -5.95554e-18)
(0.984407 0.175687 4.99746e-20)
(0.984381 0.175714 -1.65841e-20)
(0.984354 0.175711 2.88898e-20)
(0.984326 0.175707 -4.05973e-20)
(0.984297 0.175703 9.32956e-20)
(0.984268 0.175697 -4.5932e-20)
(0.984237 0.175692 2.58859e-20)
(0.984206 0.175685 -3.8241e-19)
(0.984175 0.175678 3.22912e-19)
(0.984144 0.175669 -6.56664e-19)
(0.984111 0.17566 7.28284e-19)
(0.984079 0.175649 -8.90112e-20)
(0.984047 0.175636 -1.99957e-19)
(0.984015 0.175621 -9.30546e-20)
(0.983983 0.175605 -2.12563e-20)
(0.983952 0.175586 -9.63296e-19)
(0.983921 0.175563 3.80467e-20)
(0.983891 0.175538 1.06733e-18)
(0.983862 0.175509 -3.52562e-19)
(0.983833 0.175476 -3.77261e-19)
(0.983807 0.175437 6.37223e-19)
(0.983781 0.175394 -3.22884e-19)
(0.983757 0.175343 1.36988e-18)
(0.983735 0.175286 7.651e-19)
(0.983715 0.17522 5.92066e-19)
(0.983696 0.175144 -1.8493e-18)
(0.98368 0.175057 -2.64133e-19)
(0.983664 0.174958 -1.48768e-18)
(0.98365 0.174844 2.80731e-19)
(0.983637 0.174715 -5.06169e-19)
(0.983624 0.174568 -2.04786e-19)
(0.983613 0.174404 1.63147e-18)
(0.983618 0.174218 -4.07433e-18)
(0.983632 0.174016 -1.92726e-19)
(0.983639 0.173798 -1.97957e-18)
(0.983636 0.173561 -9.46286e-19)
(0.983621 0.173306 1.97835e-19)
(0.983593 0.173032 -2.90002e-18)
(0.983549 0.172741 4.30013e-18)
(0.983487 0.172433 7.69042e-19)
(0.983403 0.172113 4.46638e-18)
(0.983297 0.171783 -3.1276e-18)
(0.983167 0.171448 -2.07644e-18)
(0.983013 0.171113 -6.0696e-19)
(0.982837 0.170783 3.66724e-18)
(0.982643 0.170461 4.88369e-18)
(0.982438 0.170149 1.43489e-18)
(0.98223 0.169845 2.10657e-18)
(0.982028 0.169546 -1.95093e-18)
(0.981844 0.16924 1.30651e-17)
(0.981688 0.168913 3.10776e-18)
(0.981569 0.168546 -2.40482e-18)
(0.981497 0.168112 2.06171e-18)
(0.981478 0.167579 8.65416e-18)
(0.981523 0.166905 -1.20832e-18)
(0.981642 0.166026 -7.54584e-18)
(0.981859 0.16484 -1.96432e-17)
(0.982213 0.163154 1.70981e-17)
(0.982785 0.160563 -1.12589e-17)
(0.983255 0.156059 8.21349e-18)
(0.984382 0.175663 -1.93631e-20)
(0.984354 0.17569 7.89921e-20)
(0.984325 0.175686 -1.31556e-19)
(0.984294 0.175682 9.92946e-20)
(0.984263 0.175678 6.57958e-20)
(0.98423 0.175672 -6.98313e-20)
(0.984197 0.175666 6.06611e-21)
(0.984164 0.175659 -5.41236e-20)
(0.984129 0.175652 -1.85118e-19)
(0.984094 0.175643 3.58171e-19)
(0.984058 0.175633 -5.63607e-19)
(0.984022 0.175621 4.97802e-19)
(0.983986 0.175608 4.46961e-19)
(0.98395 0.175593 -6.96925e-19)
(0.983913 0.175575 -2.3223e-19)
(0.983877 0.175555 8.76287e-19)
(0.983841 0.175532 -1.07424e-18)
(0.983806 0.175506 1.50326e-18)
(0.983771 0.175476 -2.85855e-19)
(0.983737 0.175442 1.69375e-19)
(0.983704 0.175403 -2.69679e-19)
(0.983672 0.175359 -3.44174e-19)
(0.983641 0.175308 -6.46842e-19)
(0.983611 0.17525 1.13478e-18)
(0.983583 0.175184 -7.86632e-19)
(0.983556 0.175109 -7.79113e-19)
(0.98353 0.175023 1.61773e-18)
(0.983505 0.174925 -1.57386e-18)
(0.983481 0.174814 2.51423e-18)
(0.983458 0.174687 -1.36042e-18)
(0.983435 0.174545 1.03711e-18)
(0.983414 0.174386 -1.78501e-18)
(0.983413 0.174207 1.87816e-18)
(0.983424 0.174013 -1.77093e-19)
(0.983428 0.173804 -9.68694e-20)
(0.983422 0.173578 -5.62301e-20)
(0.983406 0.173334 -9.71264e-19)
(0.983378 0.173071 2.5706e-18)
(0.983335 0.172791 -1.92301e-18)
(0.983275 0.172494 -1.07823e-17)
(0.983197 0.172184 -4.3895e-18)
(0.983098 0.171863 2.93206e-18)
(0.982977 0.171535 -3.31107e-18)
(0.982835 0.171203 -3.24544e-18)
(0.982673 0.170873 -2.55725e-19)
(0.982494 0.170547 7.63073e-18)
(0.982305 0.170227 -1.03803e-17)
(0.982111 0.169912 -9.71879e-18)
(0.981924 0.169596 -5.58506e-18)
(0.981751 0.169271 -9.21446e-18)
(0.981605 0.168924 6.23919e-18)
(0.981493 0.168536 -1.90416e-18)
(0.981425 0.16808 -1.60536e-17)
(0.98141 0.167526 3.82677e-18)
(0.981457 0.166831 3.91349e-18)
(0.981577 0.16593 -8.62501e-18)
(0.981795 0.16472 4.53287e-18)
(0.98215 0.163005 6.53387e-18)
(0.982722 0.16038 1.79425e-17)
(0.983149 0.155842 5.01517e-19)
(0.984356 0.175645 2.32853e-20)
(0.984326 0.175671 -1.06049e-19)
(0.984294 0.175668 5.18517e-20)
(0.984261 0.175664 9.8784e-20)
(0.984227 0.175659 -2.14504e-19)
(0.984192 0.175654 1.81538e-19)
(0.984156 0.175647 -1.22918e-19)
(0.984119 0.17564 1.0522e-19)
(0.984081 0.175632 1.71064e-19)
(0.984042 0.175623 -4.14696e-19)
(0.984003 0.175613 6.06529e-19)
(0.983963 0.175601 2.62962e-19)
(0.983923 0.175587 -1.04916e-18)
(0.983883 0.175571 -2.02208e-19)
(0.983842 0.175553 5.69731e-19)
(0.983801 0.175533 3.73495e-19)
(0.98376 0.175509 -4.56505e-19)
(0.98372 0.175482 4.0591e-19)
(0.98368 0.175452 6.39173e-19)
(0.98364 0.175417 -3.08511e-19)
(0.983601 0.175378 -1.79006e-19)
(0.983562 0.175333 6.56009e-19)
(0.983524 0.175281 1.36564e-18)
(0.983488 0.175224 -9.88602e-19)
(0.983452 0.175158 -1.11205e-18)
(0.983417 0.175083 1.24509e-18)
(0.983383 0.174998 -9.68335e-19)
(0.983349 0.174901 -3.98641e-19)
(0.983317 0.174792 3.3348e-18)
(0.983285 0.174668 -1.4809e-18)
(0.983252 0.174529 -1.13982e-18)
(0.983222 0.174375 1.51052e-18)
(0.983215 0.174202 1.03533e-18)
(0.983224 0.174014 -9.20691e-19)
(0.983225 0.173814 -6.07157e-19)
(0.983218 0.173596 1.89419e-18)
(0.9832 0.173361 3.76513e-19)
(0.983171 0.173108 6.26348e-19)
(0.983129 0.172838 -3.21594e-18)
(0.983072 0.172551 -3.12155e-18)
(0.982998 0.17225 5.75721e-18)
(0.982905 0.171936 4.41784e-18)
(0.982793 0.171614 7.0404e-18)
(0.982661 0.171285 -6.48265e-18)
(0.982511 0.170955 -6.91545e-18)
(0.982345 0.170625 -4.11355e-18)
(0.982169 0.170298 9.65992e-18)
(0.98199 0.169971 9.08556e-18)
(0.981815 0.16964 -9.35809e-18)
(0.981654 0.169298 -1.3547e-17)
(0.981517 0.168931 -1.59051e-18)
(0.981413 0.168522 2.6184e-18)
(0.98135 0.168046 -8.09435e-20)
(0.981338 0.167471 -5.78789e-18)
(0.981387 0.166755 5.48347e-18)
(0.98151 0.165832 2.72952e-18)
(0.98173 0.164597 3.91841e-18)
(0.982085 0.162854 -1.95702e-17)
(0.982659 0.160195 -8.86055e-19)
(0.983059 0.155621 1.05819e-18)
(0.984328 0.175634 -4.00188e-20)
(0.984296 0.17566 -3.25873e-20)
(0.984262 0.175657 4.39454e-20)
(0.984226 0.175652 1.58925e-19)
(0.98419 0.175648 -3.46019e-19)
(0.984152 0.175642 4.00259e-19)
(0.984113 0.175636 -1.71298e-20)
(0.984073 0.175628 -2.46633e-20)
(0.984032 0.17562 -1.47714e-19)
(0.98399 0.17561 3.64817e-19)
(0.983947 0.175599 -5.66852e-19)
(0.983903 0.175587 2.15459e-19)
(0.983859 0.175573 -7.52002e-21)
(0.983814 0.175557 3.46863e-19)
(0.983769 0.175539 1.68425e-19)
(0.983724 0.175518 -8.9813e-19)
(0.983678 0.175494 7.87672e-19)
(0.983633 0.175466 3.15014e-19)
(0.983587 0.175435 -9.10229e-19)
(0.983542 0.1754 4.51078e-19)
(0.983497 0.17536 2.12751e-19)
(0.983452 0.175315 -1.38528e-19)
(0.983408 0.175263 1.83082e-19)
(0.983365 0.175205 -1.0143e-19)
(0.983322 0.175139 -1.23116e-18)
(0.98328 0.175064 8.15762e-19)
(0.983238 0.17498 -1.25462e-18)
(0.983197 0.174884 2.34198e-18)
(0.983156 0.174777 -4.38344e-19)
(0.983116 0.174655 -2.68489e-19)
(0.983074 0.174519 -7.3706e-20)
(0.983036 0.174368 2.52104e-18)
(0.983025 0.1742 -1.02251e-18)
(0.983031 0.174019 -6.25558e-19)
(0.98303 0.173826 1.52363e-18)
(0.98302 0.173616 1.27974e-18)
(0.983002 0.173389 -2.11375e-18)
(0.982973 0.173144 3.7884e-19)
(0.982931 0.172883 3.8892e-18)
(0.982876 0.172604 -4.21944e-19)
(0.982805 0.17231 2.43364e-18)
(0.982717 0.172003 -3.35453e-18)
(0.982612 0.171685 5.03326e-18)
(0.982489 0.17136 1.03294e-17)
(0.98235 0.171029 2.70937e-18)
(0.982196 0.170696 -3.85862e-18)
(0.982033 0.170361 -1.11683e-17)
(0.981866 0.170023 2.34659e-18)
(0.981704 0.169679 2.8715e-18)
(0.981554 0.16932 5.26001e-18)
(0.981426 0.168935 -1.1684e-19)
(0.981328 0.168507 -1.06239e-17)
(0.981271 0.16801 8.96685e-18)
(0.981264 0.167415 -5.97177e-18)
(0.981316 0.166678 1.24481e-17)
(0.981441 0.165733 2.73832e-18)
(0.981663 0.164474 1.31367e-17)
(0.982021 0.162703 1.75011e-17)
(0.982599 0.16001 3.3629e-18)
(0.982981 0.155395 5.05905e-18)
(0.984301 0.175628 -1.98209e-20)
(0.984266 0.175654 1.71072e-20)
(0.984229 0.175651 8.7385e-20)
(0.984191 0.175646 1.40325e-19)
(0.984152 0.175641 -4.16562e-19)
(0.984111 0.175636 2.41876e-19)
(0.984069 0.175629 -4.39149e-19)
(0.984026 0.175622 6.92769e-19)
(0.983981 0.175613 -3.27277e-19)
(0.983936 0.175603 5.85723e-20)
(0.983889 0.175592 6.48832e-19)
(0.983842 0.17558 -1.48772e-18)
(0.983794 0.175565 1.0225e-18)
(0.983745 0.175549 1.46923e-19)
(0.983696 0.17553 2.40475e-19)
(0.983646 0.175509 -1.00437e-18)
(0.983595 0.175484 4.97886e-19)
(0.983545 0.175457 -6.23435e-19)
(0.983494 0.175425 1.24394e-18)
(0.983444 0.175389 -1.64378e-19)
(0.983393 0.175349 -1.60281e-18)
(0.983343 0.175304 6.36943e-19)
(0.983293 0.175252 -3.72044e-20)
(0.983243 0.175194 -2.39694e-18)
(0.983194 0.175128 1.79543e-18)
(0.983145 0.175053 1.36136e-18)
(0.983096 0.174969 9.37269e-19)
(0.983047 0.174874 -1.20612e-18)
(0.982999 0.174768 -1.33426e-18)
(0.982951 0.174648 6.23182e-19)
(0.982901 0.174515 9.42617e-19)
(0.982856 0.174367 -1.14808e-18)
(0.98284 0.174203 -1.69423e-18)
(0.982844 0.174028 3.41792e-18)
(0.982841 0.17384 3.48046e-19)
(0.98283 0.173637 -4.93187e-18)
(0.98281 0.173416 4.05577e-19)
(0.98278 0.173179 3.19318e-18)
(0.982739 0.172925 3.07061e-19)
(0.982685 0.172653 4.04695e-18)
(0.982617 0.172366 -5.4291e-18)
(0.982534 0.172064 -3.34389e-19)
(0.982435 0.17175 -3.33566e-18)
(0.98232 0.171427 1.31389e-18)
(0.98219 0.171095 5.14075e-18)
(0.982047 0.170759 1.54097e-17)
(0.981895 0.170417 1.928e-18)
(0.98174 0.170069 -9.02062e-18)
(0.981589 0.169712 6.74615e-18)
(0.981449 0.169338 2.2604e-17)
(0.98133 0.168935 -1.7582e-17)
(0.98124 0.168488 2.03689e-17)
(0.981189 0.167972 -1.20468e-17)
(0.981186 0.167356 -6.9233e-18)
(0.981242 0.166599 -2.56937e-17)
(0.981371 0.165632 -1.44227e-18)
(0.981595 0.164349 -8.15041e-18)
(0.981957 0.162549 -9.30562e-18)
(0.98254 0.159821 7.69394e-18)
(0.982912 0.155164 1.84682e-18)
(0.984273 0.175629 2.81281e-20)
(0.984236 0.175655 1.01035e-20)
(0.984197 0.175652 -1.03782e-19)
(0.984156 0.175647 9.97567e-20)
(0.984114 0.175642 -4.46172e-20)
(0.98407 0.175637 8.092e-20)
(0.984025 0.17563 2.84764e-20)
(0.983978 0.175622 -4.12268e-19)
(0.983931 0.175613 1.79454e-19)
(0.983882 0.175603 -1.25037e-19)
(0.983832 0.175592 7.51151e-20)
(0.98378 0.175579 2.97892e-19)
(0.983728 0.175564 -5.65009e-20)
(0.983675 0.175547 1.85993e-19)
(0.983621 0.175528 -7.91964e-19)
(0.983567 0.175506 3.05904e-19)
(0.983512 0.175482 1.34419e-19)
(0.983457 0.175453 -3.76397e-19)
(0.983401 0.175422 7.48948e-19)
(0.983345 0.175385 2.48631e-19)
(0.98329 0.175345 -2.77421e-20)
(0.983234 0.175299 -2.77328e-19)
(0.983178 0.175246 1.10534e-18)
(0.983122 0.175188 -3.05945e-18)
(0.983067 0.175122 1.60173e-18)
(0.983011 0.175048 6.85557e-19)
(0.982956 0.174965 -1.14382e-18)
(0.9829 0.17487 2.0399e-18)
(0.982845 0.174765 -9.91429e-19)
(0.982789 0.174646 -5.21198e-19)
(0.982733 0.174515 -1.01187e-18)
(0.98268 0.17437 -4.1759e-19)
(0.98266 0.17421 1.13196e-18)
(0.982663 0.174039 -3.33365e-18)
(0.982658 0.173856 6.17125e-18)
(0.982645 0.173658 -4.23408e-19)
(0.982624 0.173444 3.04193e-18)
(0.982594 0.173213 -7.64378e-18)
(0.982552 0.172965 -2.33374e-18)
(0.9825 0.172699 6.61395e-20)
(0.982434 0.172417 -1.70393e-18)
(0.982355 0.17212 -2.35072e-19)
(0.982261 0.17181 -5.88211e-18)
(0.982153 0.171487 2.00962e-18)
(0.982031 0.171155 2.71e-18)
(0.981898 0.170815 -1.43766e-17)
(0.981757 0.170467 1.7973e-17)
(0.981612 0.17011 2.54919e-18)
(0.981472 0.16974 9.04295e-19)
(0.981342 0.169351 -1.58194e-17)
(0.981232 0.168931 5.24696e-18)
(0.981149 0.168466 -1.08604e-17)
(0.981104 0.167931 2.13393e-17)
(0.981106 0.167295 4.11275e-18)
(0.981166 0.166518 -1.83842e-17)
(0.981299 0.165529 6.82791e-18)
(0.981527 0.164222 -1.96397e-17)
(0.981892 0.162394 -4.45422e-18)
(0.982482 0.159631 -2.8103e-17)
(0.982851 0.154927 -6.13385e-18)
(0.984244 0.175635 -6.35993e-21)
(0.984204 0.175662 -2.5222e-20)
(0.984163 0.175658 -2.23199e-20)
(0.98412 0.175654 2.15315e-19)
(0.984075 0.175648 -1.19898e-19)
(0.984028 0.175643 -1.46301e-19)
(0.98398 0.175636 -5.60715e-20)
(0.98393 0.175628 -2.31021e-19)
(0.983879 0.175619 1.43155e-19)
(0.983827 0.175609 1.97819e-20)
(0.983773 0.175597 6.52196e-21)
(0.983718 0.175584 6.36524e-19)
(0.983662 0.175569 -4.5407e-19)
(0.983605 0.175551 -5.68774e-20)
(0.983547 0.175532 5.30581e-19)
(0.983488 0.17551 -2.94001e-19)
(0.983429 0.175484 -1.15199e-19)
(0.983369 0.175456 1.84712e-19)
(0.983308 0.175424 6.03835e-19)
(0.983248 0.175387 3.36417e-19)
(0.983187 0.175346 1.266e-19)
(0.983125 0.1753 -8.5031e-19)
(0.983064 0.175247 4.35835e-19)
(0.983002 0.175189 8.37683e-19)
(0.982941 0.175122 -1.75318e-18)
(0.982879 0.175048 5.66878e-19)
(0.982817 0.174965 -2.25628e-18)
(0.982756 0.174871 1.84662e-18)
(0.982693 0.174767 1.62598e-18)
(0.982631 0.174649 -2.51313e-18)
(0.982567 0.174519 -1.21995e-18)
(0.982508 0.174376 1.60969e-18)
(0.982484 0.17422 5.3529e-19)
(0.982486 0.174052 -1.41601e-18)
(0.982479 0.173873 -1.77417e-18)
(0.982465 0.173681 -2.07001e-18)
(0.982443 0.173471 1.26668e-18)
(0.982412 0.173245 2.97317e-18)
(0.982371 0.173003 1.04536e-18)
(0.982319 0.172742 -8.87045e-19)
(0.982255 0.172465 9.76539e-18)
(0.982179 0.172172 -1.06337e-18)
(0.98209 0.171864 9.77476e-18)
(0.981988 0.171542 -1.72125e-17)
(0.981873 0.171209 2.77683e-18)
(0.981749 0.170865 4.58357e-19)
(0.981617 0.17051 -7.17821e-19)
(0.981483 0.170144 -1.22635e-17)
(0.981352 0.169763 -1.9074e-17)
(0.981231 0.16936 1.67148e-17)
(0.98113 0.168924 2.14634e-17)
(0.981055 0.16844 1.11864e-17)
(0.981016 0.167887 -2.09621e-17)
(0.981023 0.167232 1.11416e-17)
(0.981088 0.166434 2.68571e-17)
(0.981225 0.165424 1.15742e-17)
(0.981457 0.164093 1.91468e-17)
(0.981827 0.162236 9.64987e-18)
(0.982425 0.159438 2.7602e-17)
(0.982795 0.154685 -1.96576e-17)
(0.984214 0.175647 8.35973e-21)
(0.984172 0.175674 -2.52331e-20)
(0.984128 0.17567 9.10558e-20)
(0.984083 0.175666 2.4437e-20)
(0.984035 0.175661 -1.27039e-19)
(0.983985 0.175655 -1.48477e-19)
(0.983934 0.175648 3.53092e-19)
(0.983881 0.175639 -3.88972e-19)
(0.983827 0.17563 -9.7634e-20)
(0.983771 0.175619 2.43139e-19)
(0.983714 0.175608 2.28063e-19)
(0.983655 0.175594 7.00632e-19)
(0.983595 0.175579 -3.93086e-19)
(0.983534 0.175561 -6.84446e-19)
(0.983472 0.175541 1.5141e-19)
(0.983409 0.175518 -5.67592e-19)
(0.983345 0.175493 4.2764e-19)
(0.983281 0.175464 -7.27488e-19)
(0.983216 0.175431 1.1664e-19)
(0.98315 0.175394 -2.42829e-19)
(0.983084 0.175352 -1.5483e-19)
(0.983017 0.175306 -6.67939e-19)
(0.98295 0.175252 6.00554e-20)
(0.982884 0.175194 1.45655e-18)
(0.982816 0.175128 -5.02875e-19)
(0.982749 0.175053 1.56729e-19)
(0.982681 0.174971 4.6068e-19)
(0.982613 0.174877 -6.09125e-19)
(0.982544 0.174773 -1.314e-19)
(0.982475 0.174656 8.69172e-19)
(0.982405 0.174527 9.61595e-19)
(0.98234 0.174386 -7.1305e-19)
(0.982312 0.174232 -2.26317e-18)
(0.982313 0.174067 -3.15425e-18)
(0.982305 0.173893 4.70745e-18)
(0.982289 0.173704 1.27121e-18)
(0.982266 0.173499 8.02549e-19)
(0.982234 0.173277 3.91426e-18)
(0.982193 0.173039 -3.48042e-18)
(0.982142 0.172782 2.15133e-18)
(0.98208 0.172509 9.12812e-20)
(0.982007 0.172219 1.03031e-19)
(0.981921 0.171913 -3.58065e-18)
(0.981824 0.171592 8.09293e-18)
(0.981717 0.171257 -1.0506e-17)
(0.9816 0.170909 6.15288e-18)
(0.981476 0.170548 -1.69366e-17)
(0.981351 0.170174 4.33672e-18)
(0.981229 0.169781 1.01161e-17)
(0.981118 0.169364 -1.70378e-17)
(0.981025 0.168912 -3.70485e-18)
(0.980957 0.168412 -5.64246e-19)
(0.980925 0.16784 -4.1824e-18)
(0.980938 0.167167 -1.21748e-17)
(0.981008 0.166349 7.26522e-19)
(0.981149 0.165317 1.18877e-17)
(0.981386 0.163962 -1.19773e-17)
(0.981762 0.162077 -3.22037e-18)
(0.982368 0.159242 -3.47835e-18)
(0.982744 0.154439 1.50259e-17)
(0.984184 0.175664 1.58346e-20)
(0.98414 0.17569 -1.3393e-20)
(0.984094 0.175687 1.25102e-20)
(0.984045 0.175682 8.07734e-20)
(0.983995 0.175677 1.18895e-19)
(0.983943 0.17567 -4.64543e-19)
(0.983888 0.175663 3.38548e-19)
(0.983832 0.175655 7.19518e-20)
(0.983775 0.175645 -2.08777e-20)
(0.983716 0.175635 -1.56542e-19)
(0.983655 0.175623 4.85935e-19)
(0.983592 0.175609 -1.56974e-19)
(0.983528 0.175593 -2.20674e-19)
(0.983463 0.175575 -6.6782e-19)
(0.983397 0.175555 1.34337e-18)
(0.98333 0.175532 -2.77881e-19)
(0.983261 0.175506 -2.34512e-19)
(0.983193 0.175476 -7.05641e-19)
(0.983123 0.175443 7.82142e-19)
(0.983052 0.175405 4.36946e-19)
(0.982981 0.175363 -2.01156e-19)
(0.98291 0.175316 3.47139e-19)
(0.982838 0.175263 -1.48405e-18)
(0.982765 0.175204 1.01897e-19)
(0.982693 0.175137 8.26179e-19)
(0.982619 0.175063 -1.56272e-19)
(0.982546 0.17498 -2.56674e-18)
(0.982472 0.174886 2.30294e-19)
(0.982397 0.174783 2.29732e-18)
(0.982322 0.174666 -6.19791e-19)
(0.982246 0.174539 -1.19473e-18)
(0.982174 0.174399 7.0588e-19)
(0.982144 0.174246 2.02425e-18)
(0.982143 0.174085 4.64789e-18)
(0.982134 0.173913 -6.9859e-19)
(0.982117 0.173728 9.45621e-19)
(0.982093 0.173526 -6.85266e-18)
(0.982061 0.173308 -1.90907e-18)
(0.982019 0.173074 1.20453e-18)
(0.981969 0.17282 -4.95143e-18)
(0.981908 0.172549 -1.01904e-18)
(0.981837 0.172262 2.24026e-18)
(0.981755 0.171957 1.88572e-18)
(0.981663 0.171636 4.95872e-18)
(0.98156 0.171299 1.58208e-17)
(0.98145 0.170948 -1.22614e-17)
(0.981335 0.170581 1.92174e-17)
(0.981218 0.170197 1.40868e-17)
(0.981105 0.169794 -8.73012e-20)
(0.981002 0.169364 1.7491e-17)
(0.980917 0.168897 -2.28832e-17)
(0.980857 0.16838 -2.67963e-17)
(0.980831 0.167791 2.04276e-17)
(0.98085 0.167098 1.73113e-17)
(0.980926 0.16626 -7.36962e-18)
(0.981072 0.165207 -3.99651e-17)
(0.981315 0.163828 9.19284e-18)
(0.981696 0.161915 -9.93954e-18)
(0.982312 0.159043 -1.42851e-17)
(0.982697 0.154186 1.30462e-17)
(0.984155 0.175685 -1.73375e-20)
(0.984108 0.175712 1.90461e-20)
(0.984059 0.175709 1.31594e-19)
(0.984008 0.175704 -1.72624e-19)
(0.983955 0.175699 3.1758e-19)
(0.9839 0.175692 -4.69491e-19)
(0.983842 0.175685 1.33305e-19)
(0.983783 0.175677 -6.89073e-21)
(0.983722 0.175666 3.02678e-19)
(0.98366 0.175655 -1.60058e-19)
(0.983595 0.175643 4.82416e-20)
(0.983529 0.175629 4.99108e-20)
(0.983461 0.175613 -7.78646e-19)
(0.983392 0.175595 2.32408e-19)
(0.983322 0.175574 5.44822e-19)
(0.98325 0.17555 1.73371e-20)
(0.983178 0.175524 -9.20722e-19)
(0.983104 0.175494 3.7639e-19)
(0.98303 0.17546 1.76804e-18)
(0.982955 0.175422 -1.15619e-18)
(0.982879 0.175379 -8.8273e-19)
(0.982803 0.175332 7.48505e-19)
(0.982725 0.175277 4.83895e-19)
(0.982648 0.175219 5.37929e-19)
(0.98257 0.175151 -1.04187e-18)
(0.982491 0.175076 -2.25568e-18)
(0.982412 0.174993 1.70326e-18)
(0.982332 0.174899 2.43224e-18)
(0.982252 0.174797 6.77889e-19)
(0.982171 0.17468 -1.33443e-18)
(0.982088 0.174553 6.13154e-19)
(0.982011 0.174414 1.03575e-18)
(0.981978 0.174263 -1.73931e-18)
(0.981976 0.174104 -2.60157e-19)
(0.981966 0.173934 -2.95699e-18)
(0.981948 0.173752 -7.70748e-19)
(0.981923 0.173553 -7.42573e-19)
(0.98189 0.173338 1.93127e-18)
(0.981848 0.173107 -2.67783e-18)
(0.981798 0.172856 7.46245e-19)
(0.981738 0.172587 1.25616e-18)
(0.981669 0.172302 3.27525e-19)
(0.98159 0.171998 -7.47467e-18)
(0.981502 0.171676 -1.02637e-17)
(0.981405 0.171337 -8.76633e-18)
(0.981301 0.170981 1.72854e-17)
(0.981192 0.170608 6.49924e-19)
(0.981083 0.170217 -6.65622e-18)
(0.980978 0.169802 3.47869e-18)
(0.980884 0.169359 -2.10089e-17)
(0.980807 0.168878 9.89891e-18)
(0.980754 0.168345 2.69427e-17)
(0.980735 0.167738 -1.37472e-18)
(0.98076 0.167027 -2.29728e-17)
(0.980842 0.16617 1.06421e-17)
(0.980994 0.165096 9.91647e-18)
(0.981242 0.163692 1.253e-17)
(0.981631 0.16175 2.82192e-17)
(0.982257 0.158841 2.67035e-17)
(0.982652 0.153928 -2.99745e-17)
(0.984124 0.175711 -1.49243e-20)
(0.984076 0.175738 2.16522e-20)
(0.984024 0.175735 4.63066e-21)
(0.98397 0.17573 8.41093e-20)
(0.983914 0.175725 -1.27959e-19)
(0.983856 0.175718 -2.65649e-19)
(0.983796 0.175711 9.41668e-20)
(0.983733 0.175702 -1.29196e-19)
(0.983669 0.175692 2.79515e-19)
(0.983603 0.175681 -5.70509e-20)
(0.983535 0.175668 -1.88859e-19)
(0.983465 0.175653 1.56077e-19)
(0.983393 0.175637 2.55891e-19)
(0.983321 0.175618 7.11189e-19)
(0.983246 0.175597 -1.29406e-18)
(0.983171 0.175573 6.63226e-19)
(0.983094 0.175546 1.01082e-19)
(0.983016 0.175515 -6.58005e-19)
(0.982937 0.175481 -4.12023e-19)
(0.982857 0.175442 1.35391e-18)
(0.982777 0.175399 -1.4208e-18)
(0.982696 0.175351 4.26292e-19)
(0.982613 0.175296 -1.14522e-18)
(0.982531 0.175237 1.91998e-18)
(0.982448 0.175169 -3.90329e-19)
(0.982364 0.175094 -1.08956e-18)
(0.982279 0.17501 8.8015e-19)
(0.982194 0.174916 1.64185e-18)
(0.982108 0.174813 -1.54185e-18)
(0.982021 0.174696 9.41926e-19)
(0.981933 0.174569 -3.1949e-18)
(0.98185 0.174431 -3.42912e-19)
(0.981814 0.174282 1.34152e-18)
(0.981811 0.174124 -7.75887e-19)
(0.9818 0.173956 -1.55632e-18)
(0.981782 0.173777 -3.59062e-18)
(0.981756 0.17358 4.48543e-18)
(0.981722 0.173367 -1.78502e-18)
(0.98168 0.173138 1.32119e-18)
(0.98163 0.172889 2.71304e-18)
(0.981571 0.172622 2.16304e-18)
(0.981503 0.172338 -1.26598e-18)
(0.981427 0.172034 4.39047e-18)
(0.981342 0.171711 8.13051e-18)
(0.98125 0.17137 -8.23034e-19)
(0.981151 0.17101 -1.05543e-17)
(0.981049 0.170631 -1.38282e-17)
(0.980947 0.170231 -1.00752e-18)
(0.98085 0.169806 1.02157e-17)
(0.980763 0.169351 -2.13453e-18)
(0.980694 0.168855 1.80092e-17)
(0.980648 0.168306 -2.69639e-17)
(0.980637 0.167682 -1.41325e-17)
(0.980668 0.166953 -6.16176e-18)
(0.980756 0.166077 -1.20797e-17)
(0.980914 0.164981 7.58643e-18)
(0.981169 0.163554 -9.63315e-18)
(0.981565 0.161583 -3.81065e-17)
(0.982202 0.158636 -4.24256e-17)
(0.982609 0.153665 1.64095e-17)
(0.984093 0.175741 -2.28533e-20)
(0.984042 0.17577 1.84321e-20)
(0.983988 0.175766 1.47439e-20)
(0.983932 0.175761 -1.06282e-19)
(0.983873 0.175756 1.10035e-19)
(0.983812 0.175749 -5.48429e-20)
(0.983748 0.175742 1.79622e-19)
(0.983683 0.175733 -2.68721e-19)
(0.983615 0.175722 1.47983e-20)
(0.983546 0.17571 2.06434e-20)
(0.983474 0.175697 -2.03536e-19)