/*--------------------------------*- C++ -*----------------------------------*\
  =========                 |
  \\      /  F ield         | OpenFOAM: The Open Source CFD Toolbox
   \\    /   O peration     | Website:  https://openfoam.org
    \\  /    A nd           | Version:  6.0
     \\/     M anipulation  |
\*---------------------------------------------------------------------------*/
FoamFile
{
    version     2.0;
    format      ascii;
    class       volScalarField;
    location    "17";
    object      p;
}
// * * * * * * * * * * * * * * * * * * * * * * * * * * * * * * * * * * * * * //

dimensions      [0 2 -2 0 0 0 0];

internalField   nonuniform List<scalar> 
62000
(
0.0140086
0.0139782
0.0139415
0.0139069
0.0138659
0.0138269
0.0137807
0.013736
0.013683
0.0136324
0.0135718
0.0135145
0.0134452
0.0133808
0.0133023
0.0132296
0.0131406
0.0130573
0.0129558
0.0128589
0.0127425
0.012629
0.0124949
0.0123622
0.0122082
0.0120541
0.0118785
0.0117007
0.0115015
0.0112965
0.0110671
0.0108236
0.0105557
0.0102808
0.0100053
0.00971471
0.00939441
0.0090415
0.00865742
0.00824238
0.00779308
0.00730429
0.00676908
0.00617864
0.0055282
0.00480772
0.00401739
0.00316145
0.00223575
0.00129445
0.000306274
-0.000592953
-0.00152944
-0.00227668
-0.0028982
-0.0032584
-0.00347513
-0.00334071
-0.0032528
-0.00399428
0.0140176
0.0139868
0.0139497
0.0139141
0.0138722
0.0138322
0.0137855
0.0137409
0.0136888
0.0136395
0.013581
0.0135258
0.0134594
0.0133973
0.0133218
0.0132508
0.0131646
0.0130824
0.0129838
0.0128878
0.0127747
0.0126625
0.0125328
0.0124017
0.0122531
0.0121004
0.011931
0.0117538
0.0115608
0.0113558
0.0111343
0.010895
0.010638
0.0103758
0.0101047
0.00981362
0.00949158
0.00913875
0.00875732
0.0083465
0.007902
0.00741821
0.00688723
0.00629952
0.00564822
0.00492031
0.00411249
0.00322297
0.00224208
0.00122029
0.000115855
-0.000917217
-0.00204013
-0.00296586
-0.00376682
-0.00426466
-0.0046
-0.00448679
-0.00456753
-0.00489927
0.014011
0.013981
0.0139442
0.0139075
0.013864
0.0138213
0.013772
0.0137243
0.0136695
0.0136171
0.013556
0.0134982
0.0134295
0.0133652
0.0132875
0.0132144
0.0131257
0.0130408
0.012939
0.0128394
0.0127219
0.0126046
0.0124689
0.0123307
0.0121745
0.0120123
0.0118328
0.011643
0.011437
0.0112158
0.0109788
0.0107233
0.0104546
0.0101744
0.00988118
0.00955752
0.00919771
0.00880697
0.00838929
0.00794387
0.00746654
0.00695219
0.00639442
0.00578535
0.00511964
0.00438609
0.00358187
0.00270527
0.00174519
0.000749322
-0.000327666
-0.00132949
-0.00241648
-0.00328531
-0.00403304
-0.00449374
-0.00483406
-0.00479871
-0.00511108
-0.0058502
0.0140295
0.0140016
0.0139662
0.0139299
0.013886
0.013842
0.0137909
0.0137408
0.0136832
0.0136276
0.0135633
0.0135018
0.0134299
0.0133617
0.0132808
0.0132033
0.0131108
0.013021
0.0129146
0.0128094
0.0126865
0.0125627
0.0124204
0.0122746
0.0121099
0.0119382
0.0117479
0.0115457
0.0113256
0.0110887
0.0108349
0.0105637
0.0102771
0.00998269
0.00966445
0.00930886
0.00891121
0.00848031
0.00802249
0.00753753
0.00702156
0.00647047
0.0058792
0.00524212
0.00455583
0.00381133
0.00300768
0.00214233
0.00120484
0.00023577
-0.000813392
-0.00179291
-0.00286759
-0.00372935
-0.00448348
-0.00499429
-0.00543
-0.00553743
-0.0060326
-0.00699996
0.0140572
0.0140314
0.0139978
0.0139623
0.0139185
0.0138734
0.0138205
0.0137676
0.0137068
0.0136472
0.0135785
0.0135124
0.013436
0.0133636
0.0132787
0.0131976
0.0131016
0.0130084
0.0128983
0.0127893
0.012662
0.0125334
0.0123854
0.012233
0.0120608
0.0118803
0.0116801
0.0114663
0.0112334
0.0109817
0.0107121
0.0104234
0.0101234
0.0098075
0.00946743
0.00908171
0.00864818
0.00817824
0.00767972
0.00715286
0.00659391
0.00599897
0.00536396
0.00468448
0.00395878
0.00318022
0.00234967
0.00146646
0.000520632
-0.000449641
-0.00149697
-0.00247756
-0.00355497
-0.00442055
-0.0051967
-0.00576583
-0.00628905
-0.00647876
-0.00703109
-0.00799876
0.0141057
0.0140827
0.0140517
0.0140183
0.0139757
0.0139308
0.013877
0.0138223
0.013759
0.0136959
0.0136229
0.0135514
0.0134696
0.013391
0.0133006
0.0132131
0.0131113
0.0130114
0.0128952
0.0127791
0.0126453
0.0125092
0.0123539
0.0121934
0.0120125
0.0118223
0.0116113
0.0113854
0.0111385
0.0108713
0.0105841
0.0102777
0.00995467
0.00962029
0.00925271
0.0088352
0.0083643
0.00785233
0.00730815
0.00673227
0.00612089
0.00547034
0.00477706
0.00403786
0.00325265
0.00241741
0.00153673
0.000612545
-0.000359385
-0.00134232
-0.0023858
-0.00335215
-0.00440804
-0.00524666
-0.00599477
-0.0065684
-0.00711982
-0.00734999
-0.00793403
-0.00896029
0.0141679
0.0141457
0.0141156
0.0140825
0.01404
0.013994
0.0139388
0.0138819
0.0138165
0.0137501
0.0136736
0.0135973
0.0135105
0.0134267
0.0133312
0.0132389
0.0131323
0.0130276
0.0129066
0.0127855
0.0126463
0.0125044
0.0123429
0.0121754
0.0119871
0.0117885
0.0115682
0.0113317
0.0110732
0.0107925
0.0104905
0.0101664
0.00982857
0.00947079
0.0090812
0.00863587
0.00813268
0.00758447
0.0070003
0.00638059
0.00572108
0.00501751
0.00426599
0.00346322
0.00260957
0.0017027
0.000749849
-0.000242764
-0.00127392
-0.00230207
-0.00337224
-0.00434555
-0.00538598
-0.00618586
-0.00688951
-0.00744297
-0.0080033
-0.00826857
-0.00889748
-0.00997769
0.0142427
0.0142201
0.0141894
0.0141558
0.0141126
0.0140652
0.0140082
0.0139492
0.013882
0.0138136
0.0137347
0.013655
0.0135649
0.013477
0.0133783
0.0132821
0.0131726
0.0130639
0.0129396
0.0128144
0.0126715
0.0125253
0.0123598
0.0121878
0.0119949
0.0117912
0.0115655
0.0113231
0.0110576
0.0107694
0.0104583
0.0101255
0.00977353
0.00940686
0.00900185
0.00853989
0.00801724
0.0074465
0.00683672
0.00618791
0.00549512
0.00475309
0.00395671
0.00310154
0.0021869
0.00121015
0.000179731
-0.000896832
-0.00201192
-0.00312204
-0.00426226
-0.00529317
-0.00637164
-0.00719042
-0.00789109
-0.00845631
-0.00903583
-0.00932826
-0.00996944
-0.0109996
0.0143129
0.0142878
0.0142547
0.0142188
0.0141732
0.014123
0.0140628
0.0140005
0.0139303
0.0138591
0.0137775
0.0136947
0.0136012
0.0135102
0.0134089
0.0133109
0.0131999
0.0130903
0.0129651
0.0128388
0.0126946
0.0125469
0.0123795
0.0122052
0.0120099
0.0118034
0.0115747
0.0113287
0.0110598
0.0107672
0.0104517
0.0101123
0.00975767
0.00938139
0.00897035
0.00850006
0.00796805
0.00738708
0.00676599
0.00610441
0.00539662
0.00463604
0.0038157
0.0029287
0.00197169
0.000939522
-0.000161386
-0.00132401
-0.00253885
-0.00375929
-0.00501359
-0.00615637
-0.00733161
-0.00822308
-0.00897154
-0.00957883
-0.0101843
-0.0104719
-0.0110653
-0.0119659
0.0143775
0.0143505
0.014316
0.0142789
0.0142323
0.0141806
0.0141182
0.0140532
0.0139802
0.0139061
0.0138213
0.0137344
0.0136365
0.0135404
0.0134347
0.0133321
0.0132177
0.0131042
0.0129758
0.0128458
0.0126983
0.0125466
0.0123756
0.0121972
0.0119977
0.0117865
0.011553
0.0113018
0.011027
0.0107285
0.0104058
0.0100603
0.0096947
0.0093131
0.00889224
0.00841322
0.00787244
0.00728261
0.00665274
0.00598242
0.00526567
0.00449515
0.00366239
0.00275838
0.00177683
0.000709248
-0.000441045
-0.00167083
-0.00296966
-0.00429339
-0.00566201
-0.00692842
-0.00822086
-0.00921448
-0.0100309
-0.0106901
-0.0113091
-0.0115651
-0.0120772
-0.0128268
0.0144358
0.0144071
0.014371
0.0143324
0.0142848
0.0142317
0.0141674
0.0140996
0.0140237
0.0139461
0.0138575
0.0137658
0.0136623
0.0135599
0.0134478
0.0133391
0.0132189
0.0131001
0.0129663
0.0128307
0.0126773
0.0125191
0.012341
0.0121547
0.0119468
0.0117262
0.0114826
0.0112203
0.0109338
0.010622
0.0102855
0.00992349
0.00954427
0.00914221
0.00870419
0.00820655
0.00764732
0.00703968
0.00639311
0.00570774
0.00497797
0.0041965
0.00335419
0.00244053
0.00144687
0.000361515
-0.000816139
-0.00208679
-0.00344258
-0.00484147
-0.00630061
-0.00766972
-0.00906202
-0.0101394
-0.0110111
-0.0117053
-0.0123236
-0.0125376
-0.0129748
-0.0136037
0.0144998
0.0144709
0.0144346
0.0143959
0.0143488
0.0142961
0.0142317
0.0141629
0.0140854
0.0140054
0.0139139
0.0138177
0.0137088
0.0135992
0.0134797
0.0133626
0.0132345
0.0131068
0.0129644
0.0128191
0.0126559
0.0124867
0.0122972
0.0120983
0.0118768
0.0116414
0.0113817
0.011102
0.0107961
0.0104636
0.0101039
0.00971804
0.00930893
0.00888061
0.00841097
0.00788183
0.00729053
0.00665057
0.00597225
0.00525669
0.00449941
0.0036942
0.00283263
0.00190427
0.000899677
-0.000194573
-0.00138158
-0.00266653
-0.00404318
-0.00547583
-0.00697827
-0.00840391
-0.00985166
-0.0109791
-0.0118752
-0.0125833
-0.013189
-0.0133722
-0.0137641
-0.0143089
0.014572
0.014543
0.0145064
0.0144674
0.0144207
0.014369
0.0143056
0.0142372
0.0141597
0.0140793
0.0139867
0.0138885
0.0137759
0.0136614
0.0135357
0.0134118
0.0132761
0.0131404
0.0129891
0.0128341
0.01266
0.0124788
0.0122757
0.0120617
0.0118237
0.01157
0.0112903
0.0109884
0.0106585
0.0102993
0.00991076
0.00949182
0.00905041
0.00858148
0.0080723
0.00750052
0.00686513
0.00618012
0.00545672
0.00469736
0.00389901
0.0030572
0.00216516
0.00121355
0.000193478
-0.000908782
-0.00209786
-0.00338157
-0.00475656
-0.00619158
-0.00770171
-0.00914362
-0.0106071
-0.0117452
-0.0126383
-0.0133427
-0.0139377
-0.0141099
-0.0144898
-0.014986
0.0146623
0.0146351
0.0146001
0.014563
0.0145189
0.0144704
0.0144105
0.0143453
0.0142705
0.0141923
0.0141013
0.0140034
0.0138899
0.0137725
0.0136427
0.013513
0.0133707
0.013227
0.0130672
0.012902
0.0127169
0.012523
0.0123062
0.0120767
0.0118219
0.0115493
0.0112489
0.0109242
0.0105689
0.010182
0.00976236
0.00931037
0.00882866
0.00832101
0.00776629
0.00714716
0.0064619
0.00572456
0.00494721
0.00413353
0.00328206
0.00239046
0.00145433
0.000466534
-0.00057997
-0.00169762
-0.00289058
-0.00416865
-0.005529
-0.00694707
-0.00843753
-0.0098659
-0.0113144
-0.0124404
-0.0133138
-0.0140097
-0.0146006
-0.0147839
-0.0151763
-0.015641
0.0147727
0.0147477
0.0147143
0.0146783
0.0146362
0.0145904
0.0145339
0.0144722
0.0144012
0.0143265
0.014239
0.0141439
0.0140324
0.0139157
0.0137852
0.0136537
0.0135087
0.0133613
0.0131965
0.0130253
0.0128326
0.0126297
0.0124022
0.0121602
0.0118912
0.0116026
0.0112843
0.0109393
0.0105618
0.0101497
0.00970223
0.00921792
0.00870369
0.00815473
0.00755839
0.00689323
0.0061588
0.0053692
0.00453703
0.00366699
0.00275894
0.00181244
0.000825488
-0.000206729
-0.00128893
-0.00243149
-0.00363739
-0.00491649
-0.00626684
-0.00766752
-0.00913566
-0.0105437
-0.0119705
-0.0130769
-0.0139308
-0.0146237
-0.0152257
-0.0154381
-0.0158589
-0.0163033
0.0149089
0.0148871
0.0148563
0.0148224
0.0147827
0.01474
0.0146873
0.0146296
0.0145627
0.0144921
0.0144089
0.0143178
0.01421
0.0140959
0.0139676
0.0138369
0.0136922
0.0135438
0.0133777
0.0132035
0.0130071
0.0127987
0.0125646
0.0123144
0.0120359
0.011736
0.0114046
0.0110448
0.0106502
0.010219
0.00974937
0.00924116
0.00869617
0.00811758
0.00748473
0.00678056
0.00600357
0.00516737
0.00428473
0.00336095
0.00239675
0.00139331
0.000350797
-0.00073321
-0.00186087
-0.00303992
-0.00427103
-0.00556378
-0.00691481
-0.00830796
-0.00975985
-0.0111532
-0.012562
-0.0136571
-0.0145014
-0.0152046
-0.0158306
-0.0160854
-0.0165406
-0.0169638
0.0150673
0.0150481
0.015019
0.0149863
0.0149478
0.0149071
0.0148572
0.0148029
0.0147398
0.0146734
0.0145948
0.0145086
0.0144058
0.0142965
0.0141725
0.0140459
0.0139047
0.0137595
0.0135959
0.0134235
0.0132278
0.013019
0.0127833
0.01253
0.0122471
0.0119414
0.0116029
0.0112343
0.0108294
0.0103858
0.00990212
0.00937611
0.00881364
0.00820972
0.00755144
0.00681761
0.00600754
0.00513429
0.00421041
0.00324137
0.00222826
0.00117317
7.78078e-05
-0.00105854
-0.00223586
-0.00345947
-0.00472795
-0.00604943
-0.0074196
-0.00882398
-0.0102804
-0.0116781
-0.0130891
-0.0141906
-0.0150449
-0.0157754
-0.0164417
-0.0167481
-0.0172405
-0.0176426
0.0152497
0.0152337
0.0152077
0.0151776
0.0151419
0.0151043
0.0150581
0.0150077
0.0149487
0.0148865
0.0148124
0.0147307
0.0146326
0.0145276
0.0144082
0.0142856
0.0141487
0.0140072
0.0138474
0.0136782
0.0134856
0.013279
0.0130451
0.0127927
0.01251
0.0122033
0.011863
0.0114916
0.0110825
0.0106337
0.0101427
0.00960877
0.00903276
0.00841722
0.00774157
0.00698848
0.00615593
0.00525603
0.00430075
0.00329531
0.00224067
0.00113934
-6.05629e-06
-0.00119492
-0.00242551
-0.00370089
-0.00501729
-0.00638172
-0.00778729
-0.00922205
-0.0107016
-0.0121241
-0.0135559
-0.0146844
-0.0155674
-0.0163415
-0.017058
-0.0174207
-0.0179482
-0.0183242
0.015456
0.0154424
0.0154183
0.0153897
0.0153554
0.0153194
0.0152756
0.0152279
0.0151723
0.0151134
0.0150431
0.0149655
0.0148717
0.0147715
0.0146568
0.0145393
0.0144075
0.0142715
0.0141172
0.0139536
0.0137663
0.0135648
0.0133356
0.0130872
0.0128081
0.0125044
0.0121665
0.0117967
0.0113887
0.0109398
0.0104481
0.00991084
0.00933295
0.00870914
0.00802612
0.00726249
0.00641673
0.00550005
0.00452359
0.00349204
0.00240581
0.00126718
7.89787e-05
-0.00115767
-0.00244001
-0.00376956
-0.0051409
-0.0065595
-0.00801665
-0.00950043
-0.0110258
-0.0124956
-0.0139726
-0.0151495
-0.016082
-0.0169151
-0.0176934
-0.0181159
-0.0186777
-0.0190265
0.0156906
0.0156792
0.0156574
0.0156306
0.0155979
0.0155635
0.0155217
0.0154763
0.0154229
0.0153665
0.0152987
0.0152238
0.0151333
0.0150362
0.0149255
0.0148117
0.0146846
0.0145531
0.0144041
0.0142457
0.0140642
0.0138682
0.0136447
0.0134018
0.0131281
0.0128296
0.0124966
0.0121315
0.0117276
0.0112826
0.0107938
0.0102597
0.00968071
0.00905861
0.00837287
0.00760573
0.00675416
0.00582824
0.00483815
0.00378771
0.00267657
0.0015064
0.000279815
-0.00100197
-0.0023356
-0.00372151
-0.00515274
-0.00663383
-0.00815321
-0.00970006
-0.0112855
-0.0128191
-0.0143561
-0.0155973
-0.0165931
-0.0174958
-0.0183399
-0.0188225
-0.0194147
-0.0197323
0.0159474
0.0159366
0.0159152
0.0158889
0.0158564
0.0158225
0.0157815
0.0157375
0.0156859
0.0156314
0.0155659
0.0154934
0.0154055
0.0153117
0.0152043
0.0150946
0.0149717
0.0148451
0.0147013
0.0145486
0.0143728
0.0141828
0.0139653
0.0137284
0.0134608
0.0131681
0.0128411
0.0124818
0.0120838
0.0116443
0.011161
0.0106308
0.0100578
0.00943655
0.00875341
0.00798676
0.00713395
0.0062041
0.00520635
0.0041436
0.00301447
0.00181971
0.000561225
-0.000760212
-0.00214129
-0.00358198
-0.00507459
-0.00662255
-0.00821249
-0.0098328
-0.0114928
-0.0131046
-0.014718
-0.0160383
-0.0171109
-0.0180922
-0.0190084
-0.0195519
-0.0201736
-0.0204599
0.0162321
0.0162219
0.0162021
0.0161774
0.0161465
0.016114
0.0160747
0.0160326
0.0159827
0.0159298
0.0158657
0.0157944
0.0157079
0.0156152
0.0155094
0.0154012
0.0152805
0.0151561
0.0150154
0.0148659
0.0146942
0.0145084
0.0142956
0.0140637
0.0138013
0.0135141
0.0131928
0.0128392
0.012447
0.0120135
0.0115356
0.0110118
0.0104416
0.00982642
0.00914589
0.00838184
0.00753017
0.00659892
0.00559613
0.00452371
0.0033792
0.00216232
0.000874107
-0.000485245
-0.00191274
-0.00340818
-0.00496322
-0.00658089
-0.00824514
-0.00994509
-0.0116848
-0.0133824
-0.0150781
-0.0164837
-0.0176386
-0.0187018
-0.0196894
-0.0202914
-0.0209385
-0.0211918
0.0165419
0.0165313
0.0165115
0.016487
0.0164562
0.0164239
0.0163853
0.0163439
0.0162952
0.0162434
0.0161804
0.0161101
0.0160246
0.0159329
0.0158281
0.0157214
0.0156022
0.01548
0.0153416
0.015195
0.0150263
0.014844
0.0146349
0.0144067
0.0141485
0.0138655
0.0135487
0.0131997
0.0128124
0.0123836
0.0119108
0.0113908
0.0108268
0.0102132
0.00953642
0.00877468
0.00792423
0.00699227
0.00598584
0.00490583
0.00374871
0.00251299
0.00119873
-0.000194815
-0.0016653
-0.0032128
-0.00482897
-0.00651611
-0.00825699
-0.0100393
-0.0118656
-0.0136544
-0.0154406
-0.0169389
-0.0181826
-0.0193314
-0.0203929
-0.0210531
-0.0217254
-0.0219465
0.0168841
0.016873
0.0168536
0.0168295
0.0167991
0.016767
0.0167287
0.0166877
0.0166394
0.0165878
0.0165249
0.0164544
0.0163686
0.0162766
0.0161719
0.016065
0.0159462
0.0158242
0.0156866
0.0155409
0.0153736
0.0151927
0.0149855
0.0147595
0.0145036
0.0142232
0.0139091
0.0135631
0.0131787
0.0127532
0.0122833
0.011767
0.0112035
0.0105938
0.0099178
0.00915711
0.00830672
0.00737286
0.00636159
0.00527282
0.00410192
0.00284642
0.00150531
7.7093e-05
-0.00143664
-0.00303631
-0.00471351
-0.00647048
-0.00828766
-0.0101537
-0.0120652
-0.0139464
-0.0158217
-0.0174118
-0.0187437
-0.0199768
-0.0211087
-0.0218237
-0.0225172
-0.0227059
0.01725
0.0172372
0.0172163
0.0171915
0.0171602
0.0171275
0.0170888
0.0170478
0.0169998
0.0169485
0.0168858
0.0168155
0.0167298
0.0166379
0.0165331
0.0164264
0.0163078
0.0161862
0.016049
0.0159037
0.015737
0.0155567
0.0153501
0.0151246
0.0148694
0.0145896
0.0142765
0.0139312
0.013548
0.0131233
0.0126545
0.012138
0.0115766
0.0109646
0.0102884
0.0095262
0.0086735
0.00773583
0.00671834
0.00562003
0.00443527
0.00316053
0.00179378
0.000332581
-0.0012224
-0.0028721
-0.00460856
-0.0064334
-0.00832658
-0.0102752
-0.0122749
-0.0142483
-0.0162166
-0.017902
-0.0193248
-0.0206433
-0.0218467
-0.0226158
-0.023331
-0.0234884
0.0176499
0.0176358
0.0176149
0.0175905
0.0175599
0.0175277
0.0174894
0.0174488
0.0174009
0.0173496
0.0172864
0.0172151
0.0171283
0.0170346
0.0169284
0.0168197
0.0166993
0.0165758
0.016437
0.01629
0.0161218
0.01594
0.0157322
0.0155055
0.0152492
0.0149683
0.014654
0.0143077
0.0139232
0.0134973
0.0130268
0.0125093
0.0119437
0.0113305
0.0106499
0.00988376
0.00902612
0.00808188
0.00705508
0.00594425
0.00474221
0.00344546
0.00204989
0.000553862
-0.00104467
-0.002745
-0.00454171
-0.00643394
-0.00840219
-0.0104327
-0.0125158
-0.0145817
-0.0166379
-0.0184143
-0.0199246
-0.021325
-0.0225956
-0.023415
-0.0241482
-0.0242761
0.018077
0.0180612
0.0180392
0.0180141
0.0179828
0.01795
0.0179114
0.0178705
0.0178226
0.017771
0.0177074
0.0176354
0.0175474
0.0174526
0.0173448
0.0172347
0.0171127
0.0169876
0.016847
0.0166983
0.0165281
0.0163442
0.0161342
0.015905
0.0156462
0.0153625
0.0150453
0.0146959
0.0143082
0.0138788
0.0134047
0.0128822
0.0123135
0.0116927
0.0110065
0.0102332
0.00936783
0.00841413
0.00737603
0.00625049
0.00503035
0.00371034
0.00228641
0.000755311
-0.000885363
-0.00263577
-0.00449096
-0.00644922
-0.00849161
-0.0106021
-0.0127714
-0.0149266
-0.0170733
-0.0189435
-0.0205431
-0.0220262
-0.0233647
-0.0242345
-0.024987
-0.0250863
0.0185432
0.0185261
0.0185036
0.0184781
0.0184466
0.0184132
0.0183739
0.0183322
0.0182833
0.0182304
0.0181653
0.0180913
0.0180013
0.017904
0.0177938
0.0176811
0.0175565
0.0174286
0.0172851
0.0171332
0.0169599
0.0167727
0.0165591
0.0163261
0.0160633
0.0157753
0.0154537
0.0150994
0.0147066
0.0142718
0.0137916
0.0132634
0.0126855
0.0120585
0.0113627
0.0105799
0.00970418
0.00873806
0.00768542
0.00654153
0.00529959
0.00395252
0.00249659
0.000927221
-0.000758543
-0.0025609
-0.00447623
-0.00650079
-0.00861683
-0.0108063
-0.0130569
-0.0153021
-0.0175343
-0.0194929
-0.021178
-0.02274
-0.0241424
-0.0250587
-0.0258277
-0.0259012
0.0190335
0.0190143
0.0189899
0.0189633
0.0189305
0.018896
0.0188557
0.0188133
0.0187637
0.0187101
0.0186441
0.018569
0.0184774
0.0183786
0.0182666
0.018152
0.0180253
0.0178951
0.017749
0.0175941
0.0174174
0.0172263
0.0170084
0.0167706
0.0165027
0.0162091
0.0158816
0.0155209
0.0151214
0.0146793
0.0141915
0.013654
0.0130687
0.0124296
0.0117232
0.0109288
0.0100395
0.00905923
0.00798919
0.00682596
0.00556022
0.00418571
0.00269687
0.00108926
-0.000641533
-0.00249554
-0.00447027
-0.00656043
-0.00874986
-0.0110174
-0.0133529
-0.0156841
-0.0180046
-0.020055
-0.021828
-0.0234703
-0.0249379
-0.0259017
-0.0266891
-0.0267376
0.0195644
0.0195443
0.0195198
0.0194934
0.0194609
0.0194264
0.0193858
0.0193428
0.0192922
0.0192372
0.0191692
0.0190915
0.018997
0.0188947
0.0187791
0.0186606
0.0185299
0.0183954
0.0182449
0.0180853
0.0179037
0.0177073
0.0174839
0.0172402
0.016966
0.0166656
0.0163309
0.0159626
0.0155548
0.015104
0.0146065
0.0140596
0.0134615
0.0128123
0.0120922
0.0112839
0.0103797
0.00938232
0.00829269
0.00710639
0.00581385
0.0044079
0.00288275
0.00123328
-0.000545692
-0.00245389
-0.00449023
-0.00664705
-0.00891015
-0.0112553
-0.0136716
-0.0160924
-0.0184963
-0.0206335
-0.0224906
-0.02421
-0.0257393
-0.0267472
-0.0275506
-0.0275781
0.0201246
0.0201033
0.020078
0.020051
0.0200177
0.0199824
0.019941
0.019897
0.0198454
0.0197889
0.0197191
0.0196391
0.0195418
0.0194366
0.0193176
0.0191957
0.0190612
0.0189228
0.018768
0.0186038
0.018417
0.0182151
0.0179856
0.0177352
0.0174539
0.0171458
0.0168028
0.0164255
0.0160083
0.0155472
0.0150392
0.01448
0.0138715
0.0132062
0.012473
0.0116486
0.0107281
0.00971145
0.00860107
0.00739028
0.00607027
0.004632
0.00307034
0.00137842
-0.000448521
-0.00241135
-0.00450886
-0.00673271
-0.00906991
-0.0114934
-0.0139953
-0.0165015
-0.0189919
-0.0212198
-0.0231644
-0.0249632
-0.0265561
-0.0276098
-0.0284317
-0.0284389
0.0207266
0.0207049
0.0206796
0.0206524
0.0206189
0.0205828
0.0205402
0.0204946
0.0204409
0.0203819
0.0203088
0.0202252
0.020124
0.0200145
0.0198912
0.0197646
0.0196255
0.019482
0.019322
0.019152
0.0189592
0.0187507
0.0185142
0.0182562
0.0179668
0.01765
0.0172977
0.0169105
0.0164826
0.0160103
0.0154902
0.0149193
0.0142946
0.0136175
0.0128673
0.0120269
0.0110877
0.0100509
0.0089169
0.00767979
0.00632882
0.00485567
0.00325357
0.00151654
-0.00036217
-0.00238174
-0.00454349
-0.00683551
-0.00924817
-0.01175
-0.0143348
-0.0169313
-0.0195049
-0.0218188
-0.0238474
-0.0257227
-0.0273762
-0.0284728
-0.0293114
-0.0293028
0.0213567
0.0213341
0.0213075
0.0212796
0.0212447
0.0212074
0.0211632
0.021116
0.0210604
0.0209993
0.0209236
0.020837
0.0207323
0.0206191
0.0204917
0.020361
0.0202173
0.0200689
0.0199035
0.0197277
0.0195285
0.019313
0.0190688
0.0188026
0.0185043
0.0181779
0.0178155
0.0174174
0.0169781
0.0164936
0.015961
0.0153756
0.0147389
0.0140443
0.0132785
0.0124202
0.0114609
0.0104025
0.00924418
0.0079799
0.0065977
0.00508912
0.00344657
0.00166392
-0.00026639
-0.00234337
-0.00456923
-0.00693055
-0.00941964
-0.0120021
-0.0146747
-0.017358
-0.0200175
-0.0224219
-0.0245385
-0.0264932
-0.0282097
-0.0293514
-0.0302095
-0.0301855
0.0220249
0.0220026
0.0219769
0.0219498
0.0219156
0.0218783
0.0218335
0.0217851
0.0217273
0.0216633
0.0215839
0.0214928
0.021383
0.0212641
0.021131
0.0209938
0.0208437
0.0206884
0.020516
0.0203326
0.0201256
0.0199017
0.0196489
0.0193734
0.0190655
0.0187288
0.0183556
0.0179461
0.0174947
0.0169978
0.0164518
0.0158535
0.0152003
0.0144917
0.013708
0.01283
0.01185
0.0107682
0.00958439
0.00829061
0.00687513
0.00532813
0.00364246
0.00181102
-0.00017373
-0.00231092
-0.00460347
-0.00703602
-0.0096032
-0.0122667
-0.0150265
-0.0178016
-0.0205449
-0.0230354
-0.0252365
-0.0272679
-0.0290447
-0.0302288
-0.031105
-0.0310708
0.0227277
0.0227056
0.0226799
0.0226525
0.0226179
0.0225796
0.0225335
0.022483
0.022423
0.0223556
0.0222723
0.0221764
0.0220611
0.0219362
0.0217965
0.0216529
0.0214957
0.0213333
0.0211533
0.0209621
0.0207468
0.0205142
0.0202523
0.0199671
0.0196492
0.0193017
0.0189174
0.0184961
0.0180327
0.017523
0.016964
0.0163508
0.0156844
0.0149572
0.0141555
0.013257
0.0122549
0.0111494
0.0099393
0.00861596
0.00716673
0.00558137
0.00385233
0.00197202
-6.73278e-05
-0.00226519
-0.00462479
-0.00712996
-0.00977666
-0.0125244
-0.0153757
-0.0182401
-0.02107
-0.0236509
-0.0259407
-0.0280518
-0.0298916
-0.0311206
-0.032018
-0.0319737
0.0234819
0.0234611
0.0234363
0.0234087
0.0233729
0.0233322
0.0232828
0.0232281
0.0231627
0.0230892
0.022999
0.0228954
0.0227722
0.0226392
0.0224915
0.0223395
0.0221741
0.0220032
0.0218147
0.0216147
0.0213905
0.0211486
0.0208771
0.0205819
0.0202537
0.0198953
0.0194998
0.0190668
0.0185911
0.0180688
0.017496
0.0168695
0.0161854
0.0154428
0.0146208
0.0137015
0.012677
0.0115469
0.0103093
0.00895469
0.0074697
0.0058436
0.00406866
0.00213679
4.00828e-05
-0.00222116
-0.00465039
-0.00723044
-0.00995854
-0.0127914
-0.0157347
-0.0186933
-0.0216085
-0.0242757
-0.0266505
-0.0288385
-0.0307385
-0.0320099
-0.0329274
-0.0328784
0.0242802
0.0242592
0.024231
0.0241985
0.0241559
0.0241076
0.0240497
0.0239868
0.0239132
0.023832
0.0237337
0.0236231
0.0234923
0.0233523
0.0231973
0.0230385
0.0228658
0.0226878
0.0224917
0.0222839
0.0220513
0.0218007
0.0215201
0.0212152
0.0208768
0.0205077
0.0201011
0.0196564
0.0191686
0.0186333
0.0180473
0.0174053
0.0167072
0.0159449
0.0151041
0.0141636
0.0131162
0.0119612
0.0106956
0.00930951
0.00778862
0.00612177
0.00430086
0.00231737
0.000163108
-0.00216194
-0.00466143
-0.00731774
-0.0101289
-0.0130504
-0.0160888
-0.0191398
-0.0221432
-0.0249014
-0.0273654
-0.0296335
-0.0315963
-0.0329126
-0.0338534
-0.0337999
0.0249542
0.0249385
0.0249198
0.0248976
0.0248658
0.0248263
0.024776
0.024718
0.0246476
0.0245671
0.0244684
0.0243551
0.0242211
0.0240763
0.0239162
0.0237512
0.0235724
0.0233872
0.023184
0.0229683
0.0227277
0.0224685
0.022179
0.0218646
0.0215164
0.021137
0.0207196
0.0202635
0.0197636
0.0192159
0.0186161
0.0179605
0.0172447
0.0164665
0.0156054
0.0146437
0.0135731
0.0123924
0.0110978
0.00967872
0.00812013
0.0064105
0.00454134
0.00250379
0.000289376
-0.00210212
-0.00467447
-0.00740947
-0.0103058
-0.013317
-0.0164517
-0.0195996
-0.0226905
-0.0255357
-0.0280853
-0.0304302
-0.0324531
-0.033812
-0.0347754
-0.0347227
0.0257853
0.0257671
0.0257423
0.0257125
0.0256715
0.025623
0.0255627
0.0254956
0.0254157
0.0253269
0.0252197
0.0250991
0.0249577
0.0248066
0.0246402
0.0244696
0.0242848
0.024094
0.0238845
0.0236625
0.023415
0.0231483
0.0228509
0.0225279
0.0221707
0.0217815
0.0213538
0.0208868
0.0203755
0.0198154
0.0192029
0.0185321
0.0178023
0.0170046
0.0161246
0.0151413
0.0140473
0.0128406
0.0115168
0.0100645
0.00846821
0.00671581
0.00479843
0.00270677
0.000432002
-0.00202636
-0.0046723
-0.00748724
-0.0104704
-0.0135743
-0.0168077
-0.0200513
-0.023233
-0.0261703
-0.0288096
-0.0312346
-0.0333199
-0.0347239
-0.0357132
-0.0356617
0.0264644
0.0264494
0.0264319
0.0264113
0.0263804
0.0263409
0.0262889
0.0262275
0.0261517
0.0260642
0.0259571
0.0258347
0.025691
0.0255365
0.0253667
0.025192
0.0250031
0.0248075
0.0245931
0.0243653
0.0241118
0.0238384
0.0235339
0.0232031
0.0228377
0.0224397
0.0220026
0.0215255
0.0210032
0.0204316
0.019806
0.0191221
0.0183747
0.0175613
0.0166612
0.0156567
0.0145392
0.0133059
0.0119519
0.0104652
0.00882959
0.00703264
0.00506501
0.00291698
0.000579386
-0.00194847
-0.00467059
-0.00756804
-0.0106402
-0.0138381
-0.0171716
-0.0205148
-0.0237871
-0.026813
-0.0295381
-0.03204
-0.0341849
-0.0356319
-0.0366465
-0.036601
0.027288
0.0272685
0.0272428
0.0272127
0.0271714
0.0271222
0.0270605
0.0269908
0.0269069
0.0268125
0.0266987
0.0265707
0.0264217
0.0262631
0.0260894
0.0259116
0.0257195
0.0255209
0.0253031
0.0250715
0.0248137
0.0245353
0.0242252
0.023888
0.0235156
0.0231098
0.0226642
0.0221778
0.0216455
0.0210627
0.0204251
0.0197268
0.018966
0.0181338
0.0172151
0.0161893
0.0150482
0.0137882
0.012404
0.0108828
0.00920807
0.00736666
0.00534883
0.00314438
0.000743744
-0.001854
-0.00465306
-0.00763409
-0.0107967
-0.014091
-0.0175266
-0.0209687
-0.024335
-0.0274547
-0.0302704
-0.0328523
-0.035059
-0.0365516
-0.0375946
-0.037556
0.0279211
0.0279022
0.0278815
0.0278591
0.0278273
0.0277876
0.0277354
0.0276739
0.0275973
0.0275085
0.0273993
0.0272743
0.027128
0.0269711
0.0267992
0.0266222
0.026431
0.026232
0.0260134
0.0257798
0.0255194
0.0252374
0.024923
0.0245807
0.0242026
0.0237901
0.0233372
0.0228425
0.0223009
0.021708
0.0210587
0.0203484
0.0195714
0.0187242
0.0177862
0.0167396
0.0155749
0.0142879
0.0128726
0.0113161
0.00960084
0.00771338
0.00564348
0.00338047
0.000914386
-0.00175589
-0.00463452
-0.00770185
-0.0109573
-0.0143496
-0.0178885
-0.021433
-0.0248933
-0.0281037
-0.0310061
-0.0336648
-0.0359307
-0.0374671
-0.0385384
-0.0385104
0.028674
0.0286487
0.0286208
0.0285917
0.028554
0.0285102
0.0284551
0.0283919
0.0283142
0.0282247
0.0281145
0.0279888
0.0278417
0.0276842
0.0275119
0.0273348
0.0271433
0.026944
0.0267249
0.0264902
0.0262282
0.0259437
0.0256264
0.0252802
0.0248976
0.0244797
0.0240206
0.0235187
0.0229691
0.0223668
0.0217073
0.0209842
0.020195
0.0193302
0.0183745
0.0173071
0.016119
0.0148052
0.0133591
0.0117673
0.0100117
0.00807834
0.0059564
0.00363473
0.00110293
-0.0016403
-0.00459923
-0.00775375
-0.0111032
-0.0145953
-0.0182394
-0.021886
-0.0254439
-0.0287506
-0.0317445
-0.0344833
-0.0368108
-0.0383933
-0.0394956
-0.0394796
0.0294238
0.0293931
0.029359
0.0293243
0.029281
0.0292327
0.0291737
0.0291078
0.029028
0.0289369
0.0288257
0.0286991
0.0285517
0.0283941
0.0282226
0.0280461
0.0278559
0.0276571
0.0274385
0.0272035
0.0269408
0.0266549
0.0263355
0.0259865
0.0256005
0.0251783
0.0247142
0.0242064
0.0236496
0.0230393
0.0223699
0.0216365
0.0208326
0.019954
0.0189801
0.0178926
0.0166815
0.0153408
0.0138634
0.0122355
0.0104385
0.00845769
0.00628191
0.00389944
0.00129949
-0.00151941
-0.00456139
-0.00780601
-0.011252
-0.014846
-0.0185966
-0.0223481
-0.0260036
-0.0294035
-0.0324853
-0.0353011
-0.0376878
-0.0393152
-0.0404483
-0.0404473
0.0301758
0.0301417
0.030104
0.0300649
0.0300177
0.0299657
0.029904
0.0298363
0.0297554
0.0296635
0.0295514
0.0294238
0.029275
0.0291163
0.0289436
0.0287665
0.0285757
0.0283767
0.0281579
0.0279225
0.0276593
0.0273724
0.0270517
0.0267006
0.026312
0.0258865
0.0254183
0.0249055
0.0243428
0.0237251
0.0230475
0.022303
0.0214884
0.0205939
0.0196035
0.0184965
0.0172627
0.0158954
0.0143871
0.0127234
0.010885
0.00885679
0.00662709
0.00418364
0.00151518
-0.00137986
-0.00450563
-0.00784112
-0.0113847
-0.0150819
-0.0189404
-0.0227971
-0.0265539
-0.0300529
-0.0332277
-0.036124
-0.0385723
-0.0402468
-0.0414134
-0.0414283
0.0309296
0.0308928
0.0308518
0.0308091
0.0307577
0.0307016
0.0306361
0.0305652
0.0304821
0.0303887
0.0302758
0.0301476
0.0299989
0.0298402
0.0296684
0.0294919
0.0293021
0.0291037
0.0288855
0.0286501
0.0283868
0.028099
0.0277773
0.0274245
0.027034
0.0266057
0.0261342
0.0256172
0.0250493
0.0244255
0.0237398
0.0229869
0.0221596
0.0212527
0.0202458
0.0191199
0.0178639
0.0164701
0.0149305
0.0132302
0.0113494
0.00927233
0.00698687
0.00448019
0.00174069
-0.00123331
-0.00444579
-0.00787522
-0.0115192
-0.0153221
-0.0192901
-0.0232542
-0.0271121
-0.0307071
-0.0339714
-0.0369455
-0.0394536
-0.0411744
-0.0423742
-0.0424072
0.0317129
0.0316744
0.0316314
0.031586
0.0315317
0.0314723
0.0314037
0.0313298
0.031244
0.0311481
0.0310327
0.030902
0.0307506
0.0305896
0.0304154
0.0302372
0.030046
0.0298465
0.0296275
0.0293913
0.0291272
0.0288385
0.0285157
0.0281614
0.0277691
0.0273385
0.0268642
0.0263435
0.0257712
0.0251418
0.0244496
0.0236875
0.022851
0.02193
0.0209079
0.0197636
0.0184857
0.0170658
0.0154952
0.0137585
0.0118354
0.00970935
0.00736789
0.00479765
0.00198665
-0.00106695
-0.0043668
-0.00789106
-0.0116362
-0.015546
-0.0196243