/*--------------------------------*- C++ -*----------------------------------*\
  =========                 |
  \\      /  F ield         | OpenFOAM: The Open Source CFD Toolbox
   \\    /   O peration     | Website:  https://openfoam.org
    \\  /    A nd           | Version:  6.0
     \\/     M anipulation  |
\*---------------------------------------------------------------------------*/
FoamFile
{
    version     2.0;
    format      ascii;
    class       surfaceScalarField;
    location    "17";
    object      phi;
}
// * * * * * * * * * * * * * * * * * * * * * * * * * * * * * * * * * * * * * //

dimensions      [0 3 -1 0 0 0 0];

internalField   nonuniform List<scalar> 
123526
(
2.77989e-05
2.33225e-05
-2.74126e-05
2.82334e-05
2.52132e-05
2.86863e-05
2.72568e-05
2.91917e-05
2.94657e-05
2.97222e-05
3.18531e-05
3.03116e-05
3.44333e-05
3.09335e-05
3.72219e-05
3.16216e-05
4.02353e-05
3.235e-05
4.34908e-05
3.31553e-05
4.70091e-05
3.40085e-05
5.08114e-05
3.49494e-05
5.49196e-05
3.59476e-05
5.9358e-05
3.70495e-05
6.41504e-05
3.82243e-05
6.93263e-05
3.95154e-05
7.49198e-05
4.08925e-05
8.09601e-05
4.24073e-05
8.74764e-05
4.40313e-05
9.45137e-05
4.58048e-05
0.000102113
4.77137e-05
0.000110307
4.97988e-05
0.000119149
5.20394e-05
0.00012869
5.44872e-05
0.000138966
5.71237e-05
0.000150051
5.99907e-05
0.000161989
6.30886e-05
0.000174842
6.64475e-05
0.000188678
7.0081e-05
0.00020355
7.40148e-05
0.00021954
7.82688e-05
0.000236696
8.28676e-05
0.000255102
8.78319e-05
0.000274809
9.31912e-05
0.000295885
9.89746e-05
0.00031839
0.000105217
0.00034236
0.000111936
0.000367841
0.000119164
0.000394835
0.000126934
0.000423331
0.000135269
0.000453291
0.0001442
0.000484621
0.000153753
0.000517171
0.000163947
0.000550723
0.000174795
0.000584959
0.000186306
0.000619443
0.000198474
0.000653586
0.000211279
0.000686613
0.000224686
0.00071752
0.000238625
0.000745018
0.000253013
0.000767468
0.000267699
0.000782836
0.000282531
0.000788535
0.000297228
0.000781526
0.000311511
0.000757914
0.000324952
0.000713203
0.000337077
0.000641957
0.000347245
0.000538243
0.000354517
0.000395021
0.000358399
0.000206516
-2.4976e-05
0.000366548
2.73194e-05
2.29356e-05
-2.69397e-05
2.77457e-05
2.47949e-05
2.81911e-05
2.68046e-05
2.86873e-05
2.89768e-05
2.9209e-05
3.13245e-05
2.97881e-05
3.38617e-05
3.03999e-05
3.66036e-05
3.10761e-05
3.95666e-05
3.17929e-05
4.27665e-05
3.25843e-05
4.62251e-05
3.34239e-05
4.99635e-05
3.43485e-05
5.40026e-05
3.53306e-05
5.83662e-05
3.64131e-05
6.30756e-05
3.75688e-05
6.81608e-05
3.88367e-05
7.36592e-05
4.0191e-05
7.95969e-05
4.16782e-05
8.5996e-05
4.32748e-05
9.29092e-05
4.50156e-05
0.000100378
4.6892e-05
0.000108424
4.89383e-05
0.000117106
5.11405e-05
0.000126483
5.35425e-05
0.000136566
5.61336e-05
0.000147456
5.89467e-05
0.000159177
6.19911e-05
0.000171794
6.52872e-05
0.000185382
6.88582e-05
0.000199977
7.27195e-05
0.000215678
7.69006e-05
0.000232516
8.14165e-05
0.000250586
8.62912e-05
0.000269928
9.15535e-05
0.000290615
9.72324e-05
0.000312705
0.000103364
0.000336228
0.000109967
0.000361242
0.00011707
0.000387737
0.000124705
0.000415705
0.000132896
0.000445111
0.000141671
0.00047586
0.000151056
0.000507804
0.000161071
0.000540734
0.000171729
0.000574335
0.000183036
0.000608179
0.000194987
0.00064169
0.000207563
0.000674106
0.000220729
0.000704443
0.000234415
0.000731435
0.000248542
0.000753474
0.000262956
0.000768561
0.00027752
0.000774165
0.000291943
0.000767265
0.000305957
0.000744061
0.00031914
0.000700134
0.000331031
0.000630191
0.000341024
0.000528347
0.000348334
0.000387825
0.000352162
0.000202777
-2.51035e-05
0.000352493
2.68853e-05
2.25553e-05
-2.65116e-05
2.73037e-05
2.43838e-05
2.77416e-05
2.63603e-05
2.82285e-05
2.84966e-05
2.87411e-05
3.08053e-05
2.93091e-05
3.33003e-05
2.99102e-05
3.59965e-05
3.05735e-05
3.89098e-05
3.12775e-05
4.20552e-05
3.20541e-05
4.5455e-05
3.28785e-05
4.91306e-05
3.37859e-05
5.31018e-05
3.47502e-05
5.7392e-05
3.58128e-05
6.20197e-05
3.69475e-05
6.70158e-05
3.81923e-05
7.2421e-05
3.9522e-05
7.82577e-05
4.09824e-05
8.45418e-05
4.25502e-05
9.13333e-05
4.42597e-05
9.86741e-05
4.61024e-05
0.000106575
4.81119e-05
0.000115101
5.02746e-05
0.000124314
5.26334e-05
0.00013421
5.51782e-05
0.000144906
5.79407e-05
0.000156414
6.0931e-05
0.0001688
6.4168e-05
0.000182143
6.76761e-05
0.000196467
7.14688e-05
0.000211884
7.55771e-05
0.000228408
8.00128e-05
0.000246148
8.48018e-05
0.000265132
8.99689e-05
0.000285436
9.55462e-05
0.00030712
0.000101569
0.000330201
0.000108056
0.000354754
0.000115036
0.000380758
0.000122538
0.000408204
0.000130586
0.000437066
0.000139208
0.000467244
0.00014843
0.000498592
0.000158268
0.000530907
0.000168737
0.000563881
0.000179842
0.000597092
0.000191578
0.000629973
0.000203927
0.000661778
0.000216852
0.00069154
0.000230286
0.000718015
0.00024415
0.000739629
0.000258294
0.000754413
0.000272586
0.00075989
0.000286737
0.000753095
0.000300482
0.000730317
0.000313411
0.000687172
0.00032507
0.000618528
0.000334873
0.000518518
0.000342107
0.000380599
0.000346038
0.000198869
-2.66943e-05
0.00034759
2.64891e-05
2.21817e-05
-2.61216e-05
2.69001e-05
2.39801e-05
2.73307e-05
2.59241e-05
2.78088e-05
2.80251e-05
2.83127e-05
3.02957e-05
2.88705e-05
3.27494e-05
2.9461e-05
3.54007e-05
3.01123e-05
3.82654e-05
3.08037e-05
4.13573e-05
3.1566e-05
4.46996e-05
3.23757e-05
4.83137e-05
3.32664e-05
5.22183e-05
3.42136e-05
5.64364e-05
3.52565e-05
6.0984e-05
3.63711e-05
6.58927e-05
3.75929e-05
7.12062e-05
3.8899e-05
7.69438e-05
4.03323e-05
8.3115e-05
4.18721e-05
8.97867e-05
4.35503e-05
9.70014e-05
4.53599e-05
0.000104759
4.7333e-05
0.000113132
4.94569e-05
0.000122185
5.17733e-05
0.000131895
5.42726e-05
0.000142402
5.69857e-05
0.000153701
5.99227e-05
0.000165859
6.31021e-05
0.000178961
6.65479e-05
0.000193019
7.02734e-05
0.000208157
7.43087e-05
0.000224373
7.86667e-05
0.000241789
8.33691e-05
0.00026042
8.84449e-05
0.000280349
9.39219e-05
0.000301634
9.98367e-05
0.000324282
0.000106207
0.000348381
0.000113063
0.000373901
0.000120432
0.000400834
0.000128337
0.000429159
0.000136805
0.000458775
0.000145861
0.000489535
0.000155522
0.000521246
0.000165801
0.000553604
0.000176705
0.000586192
0.000188227
0.000618458
0.000200349
0.000649668
0.000213035
0.000678874
0.000226219
0.000704855
0.000239823
0.000726068
0.000253701
0.000740577
0.000267724
0.000745956
0.000281608
0.000739273
0.000295092
0.000716896
0.000307776
0.000674528
0.000319218
0.000607148
0.000328837
0.000508959
0.000335993
0.00037353
0.000339958
0.000194996
-2.72492e-05
0.000340705
2.61056e-05
2.18145e-05
-2.57437e-05
2.65092e-05
2.35834e-05
2.69323e-05
2.54953e-05
2.74018e-05
2.75617e-05
2.7897e-05
2.97948e-05
2.84444e-05
3.22078e-05
2.90247e-05
3.48151e-05
2.96639e-05
3.7632e-05
3.03433e-05
4.06714e-05
3.10916e-05
4.39571e-05
3.18871e-05
4.75107e-05
3.27615e-05
5.13498e-05
3.36919e-05
5.54971e-05
3.4716e-05
5.99659e-05
3.58107e-05
6.47888e-05
3.70105e-05
7.00124e-05
3.82933e-05
7.56526e-05
3.97011e-05
8.17129e-05
4.12134e-05
8.82672e-05
4.28617e-05
9.53582e-05
4.46391e-05
0.000102976
4.65771e-05
0.000111198
4.86633e-05
0.000120094
5.09384e-05
0.000129622
5.33932e-05
0.000139943
5.60579e-05
0.000151036
5.89426e-05
0.000162971
6.20652e-05
0.000175837
6.54496e-05
0.000189632
6.91085e-05
0.000204496
7.30721e-05
0.00022041
7.73509e-05
0.000237507
8.19708e-05
0.000255794
8.69545e-05
0.000275353
9.23333e-05
0.000296246
9.81414e-05
0.000318469
0.000104397
0.000342122
0.000111129
0.000367167
0.000118364
0.000393596
0.000126127
0.000421395
0.000134442
0.000450459
0.000143334
0.000480643
0.00015282
0.00051176
0.000162913
0.000543512
0.000173618
0.000575489
0.000184929
0.000607147
0.000196828
0.000637768
0.000209279
0.00066642
0.000222218
0.000691905
0.000235567
0.00071271
0.000249185
0.000726928
0.000262945
0.000732188
0.000276568
0.000725607
0.000289799
0.000703641
0.000302248
0.000662032
0.000313484
0.000595897
0.000322926
0.000499485
0.000329986
0.000366475
0.00033396
0.000191032
-2.76258e-05
0.00033428
2.57243e-05
2.14543e-05
-2.53693e-05
2.61202e-05
2.3194e-05
2.65359e-05
2.50746e-05
2.69967e-05
2.71069e-05
2.74832e-05
2.93032e-05
2.80208e-05
3.16763e-05
2.85907e-05
3.42404e-05
2.92185e-05
3.70104e-05
2.98859e-05
3.99982e-05
3.06207e-05
4.32285e-05
3.14023e-05
4.67227e-05
3.22607e-05
5.04976e-05
3.31751e-05
5.45754e-05
3.41804e-05
5.89669e-05
3.52564e-05
6.37055e-05
3.64343e-05
6.88406e-05
3.76949e-05
7.43852e-05
3.90772e-05
8.03366e-05
4.05631e-05
8.67753e-05
4.21817e-05
9.37447e-05
4.39278e-05
0.000101225
4.5831e-05
0.000109298
4.78802e-05
0.000118041
5.01147e-05
0.00012739
5.25258e-05
0.000137528
5.51431e-05
0.000148419
5.79764e-05
0.000160135
6.10433e-05
0.000172768
6.43671e-05
0.000186306
6.79606e-05
0.000200902
7.18526e-05
0.000216517
7.60558e-05
0.000233303
8.0591e-05
0.000251249
8.54864e-05
0.000270448
9.07683e-05
0.000290956
9.64717e-05
0.000312762
0.000102614
0.000335977
0.000109224
0.000360555
0.000116329
0.000386489
0.000123951
0.00041377
0.000132116
0.000442291
0.000140847
0.000471908
0.000150161
0.000502441
0.00016007
0.000533597
0.000170579
0.000564974
0.000181683
0.000596037
0.000193364
0.000626083
0.000205584
0.000654198
0.000218283
0.000679206
0.000231383
0.000699622
0.000244748
0.000713575
0.000258252
0.000718737
0.000271622
0.000712265
0.000284607
0.000690683
0.000296827
0.000649827
0.000307862
0.000584899
0.000317135
0.000490258
0.000324074
0.000359612
0.000328038
0.000187156
-2.76972e-05
0.000328294
2.53459e-05
2.11005e-05
-2.49966e-05
2.57343e-05
2.28117e-05
2.61429e-05
2.46614e-05
2.65949e-05
2.66603e-05
2.7073e-05
2.88203e-05
2.76004e-05
3.11542e-05
2.81606e-05
3.36758e-05
2.87765e-05
3.63997e-05
2.94326e-05
3.93367e-05
3.01537e-05
4.25125e-05
3.09217e-05
4.59484e-05
3.17645e-05
4.96601e-05
3.26628e-05
5.36696e-05
3.36499e-05
5.79852e-05
3.47066e-05
6.26409e-05
3.58635e-05
6.76892e-05
3.71016e-05
7.31399e-05
3.84593e-05
7.89842e-05
3.99188e-05
8.53096e-05
4.15087e-05
9.21596e-05
4.32238e-05
9.95046e-05
4.50933e-05
0.000107433
4.71062e-05
0.000116023
4.9301e-05
0.000125198
5.16694e-05
0.000135156
5.424e-05
0.000145848
5.70229e-05
0.000157349
6.0035e-05
0.000169755
6.32995e-05
0.00018304
6.68285e-05
0.000197371
7.06512e-05
0.000212695
7.47777e-05
0.000229173
7.92332e-05
0.000246788
8.40396e-05
0.00026563
8.92269e-05
0.000285761
9.48276e-05
0.000307157
0.000100859
0.000329944
0.000107349
0.000354063
0.000114326
0.00037951
0.00012181
0.000406284
0.000129827
0.000434272
0.000138399
0.000463334
0.000147544
0.000493295
0.000157272
0.000523868
0.00016759
0.000554656
0.00017849
0.000585135
0.000189956
0.000614615
0.000201951
0.000642198
0.000214415
0.00066673
0.000227272
0.000686755
0.000240389
0.000700429
0.000253644
0.000705478
0.000266767
0.000699102
0.000279513
0.00067791
0.00029151
0.000637784
0.000302349
0.000574045
0.000311458
0.000481118
0.000318268
0.000352805
0.000322184
0.000183237
-2.8128e-05
0.000322546
2.49677e-05
2.07533e-05
-2.46252e-05
2.53486e-05
2.24366e-05
2.57499e-05
2.42559e-05
2.61935e-05
2.6222e-05
2.66632e-05
2.83465e-05
2.71812e-05
3.06418e-05
2.77315e-05
3.31216e-05
2.83366e-05
3.58002e-05
2.89811e-05
3.86874e-05
2.96895e-05
4.18096e-05
3.04443e-05
4.51882e-05
3.1272e-05
4.8838e-05
3.21549e-05
5.27805e-05
3.31243e-05
5.70214e-05
3.4163e-05
6.15958e-05
3.5299e-05
6.65589e-05
3.65159e-05
7.19173e-05
3.78491e-05
7.76565e-05
3.92832e-05
8.38704e-05
4.08445e-05
9.06031e-05
4.25296e-05
9.78151e-05
4.43657e-05
0.0001056
4.6343e-05
0.000114042
4.84987e-05
0.000123044
5.08251e-05
0.000132826
5.335e-05
0.000143324
5.60834e-05
0.000154613
5.90419e-05
0.000166795
6.2248e-05
0.000179832
6.57141e-05
0.000193904
6.94679e-05
0.000208942
7.35215e-05
0.000225119
7.78953e-05
0.000242405
8.26166e-05
0.0002609
8.77104e-05
0.00028066
9.32103e-05
0.000301654
9.9133e-05
0.00032402
0.000105506
0.000347689
0.000112356
0.000372659
0.000119704
0.000398933
0.000127575
0.000426398
0.000135992
0.000454913
0.000144969
0.000484312
0.00015452
0.00051431
0.000164648
0.00054452
0.000175348
0.000574426
0.000186603
0.000603352
0.000198376
0.000630417
0.00021061
0.000654489
0.00022323
0.000674137
0.000236106
0.000687553
0.000249119
0.000692504
0.000262003
0.000686232
0.000274516
0.000665408
0.000286298
0.000626007
0.000296945
0.000563425
0.000305898
0.000472205
0.000312583
0.000346189
0.000316416
0.000179488
-2.8407e-05
0.000316872
2.45911e-05
2.04125e-05
-2.42537e-05
2.49651e-05
2.20682e-05
2.53591e-05
2.38578e-05
2.57945e-05
2.57916e-05
2.62555e-05
2.7881e-05
2.67637e-05
3.01384e-05
2.73042e-05
3.2577e-05
2.78979e-05
3.5211e-05
2.85313e-05
3.80491e-05
2.92268e-05
4.11186e-05
2.99686e-05
4.44407e-05
3.07817e-05
4.80296e-05
3.16494e-05
5.1906e-05
3.26018e-05
5.60737e-05
3.36225e-05
6.05682e-05
3.47388e-05
6.54475e-05
3.59344e-05
7.07153e-05
3.72444e-05
7.63513e-05
3.86535e-05
8.24559e-05
4.01876e-05
8.90735e-05
4.18431e-05
9.61551e-05
4.3647e-05
0.0001038
4.55896e-05
0.000112096
4.77072e-05
0.000120929
4.99926e-05
0.000130537
5.24728e-05
0.000140844
5.51577e-05
0.000151925
5.80634e-05
0.000163888
6.12126e-05
0.000176682
6.46165e-05
0.000190499
6.83036e-05
0.000205256
7.22834e-05
0.000221137
7.65803e-05
0.000238103
8.12158e-05
0.000256254
8.62185e-05
0.000275651
9.16192e-05
0.000296251
9.74349e-05
0.000318203
0.000103692
0.00034143
0.000110418
0.000365932
0.000117632
0.000391717
0.00012536
0.000418669
0.000133623
0.000446649
0.000142436
0.000475498
0.000151812
0.000504935
0.000161754
0.000534577
0.000172257
0.000563922
0.000183304
0.000592303
0.000194862
0.000618857
0.000206871
0.00064247
0.000219259
0.000661742
0.0002319
0.00067489
0.000244677
0.00067973
0.000257328
0.000673549
0.000269616
0.000653094
0.000281188
0.000614396
0.00029165
0.000552948
0.000300453
0.000463375
0.000307022
0.000339618
0.000310759
0.000175731
-2.89528e-05
0.000311217
2.42153e-05
2.00782e-05
-2.38849e-05
2.45818e-05
2.17069e-05
2.49687e-05
2.34673e-05
2.53959e-05
2.53693e-05
2.58489e-05
2.74243e-05
2.63479e-05
2.96444e-05
2.68788e-05
3.20426e-05
2.74621e-05
3.46327e-05
2.80843e-05
3.74226e-05
2.87675e-05
4.04402e-05
2.94965e-05
4.37069e-05
3.02952e-05
4.72358e-05
3.11483e-05
5.10474e-05
3.20838e-05
5.51431e-05
3.30875e-05
5.9559e-05
3.4184e-05
6.4356e-05
3.53595e-05
6.95348e-05
3.66463e-05
7.50694e-05
3.80314e-05
8.10665e-05
3.95383e-05
8.75709e-05
4.11652e-05
9.45244e-05
4.29372e-05
0.000102032
4.48459e-05
0.000110184
4.69262e-05
0.000118851
4.91713e-05
0.000128289
5.16076e-05
0.000138408
5.42449e-05
0.000149286
5.70991e-05
0.000161033
6.01921e-05
0.000173588
6.35355e-05
0.000187156
6.71561e-05
0.000201636
7.10657e-05
0.000217227
7.52841e-05
0.000233877
7.98374e-05
0.000251693
8.47497e-05
0.000270732
9.00532e-05
0.000290945
9.57639e-05
0.000312491
0.000101908
0.000335286
0.000108511
0.000359328
0.000115594
0.000384631
0.000123181
0.00041108
0.000131293
0.000438534
0.000139945
0.000466841
0.000149148
0.000495725
0.000158908
0.00052481
0.000169218
0.000553603
0.000180062
0.000581449
0.000191407
0.000607503
0.000203197
0.000630671
0.000215359
0.000649576
0.000227772
0.000662473
0.000240319
0.000667213
0.000252745
0.000661131
0.000264814
0.000641027
0.000276183
0.000603026
0.000286463
0.000542688
0.00029512
0.000454752
0.000301582
0.000333219
0.000305224
0.000172165
-2.91723e-05
0.00030561
2.38445e-05
1.975e-05
-2.35193e-05
2.42043e-05
2.13521e-05
2.45845e-05
2.30836e-05
2.50038e-05
2.49544e-05
2.54489e-05
2.69755e-05
2.59385e-05
2.9159e-05
2.64603e-05
3.15175e-05
2.70326e-05
3.40645e-05
2.76442e-05
3.68069e-05
2.83149e-05
3.97735e-05
2.90313e-05
4.29857e-05
2.98156e-05
4.64556e-05
3.06539e-05
5.02034e-05
3.15731e-05
5.42282e-05
3.25592e-05
5.85669e-05
3.36367e-05
6.3283e-05
3.47917e-05
6.83743e-05
3.60562e-05
7.38093e-05
3.74171e-05
7.9701e-05
3.88979e-05
8.60943e-05
4.04964e-05
9.29221e-05
4.22374e-05
0.000100294
4.41127e-05
0.000108305
4.61563e-05
0.000116809
4.83618e-05
0.000126081
5.0755e-05
0.000136016
5.33456e-05
0.000146693
5.6149e-05
0.000158229
5.9187e-05
0.000170549
6.24705e-05
0.000183871
6.60267e-05
0.000198081
6.98652e-05
0.000213387
7.40092e-05
0.000229728
7.84797e-05
0.000247213
8.3304e-05
0.000265902
8.85118e-05
0.000285735
9.41192e-05
0.000306883
0.000100152
0.000329253
0.000106635
0.000352844
0.000113589
0.000377676
0.000121037
0.000403631
0.000129001
0.00043057
0.000137495
0.000458347
0.00014653
0.00048669
0.00015611
0.00051523
0.000166232
0.000543482
0.000176877
0.000570803
0.000188015
0.000596364
0.000199591
0.00061909
0.000211533
0.00063763
0.000223723
0.000650267
0.000236046
0.000654898
0.000248252
0.000648901
0.000260108
0.000629147
0.000271279
0.000591821
0.000281382
0.000532569
0.000289896
0.000446212
0.000296255
0.000326854
0.000299811
0.000168575
-2.95557e-05
0.000300091
2.34814e-05
1.94277e-05
-2.31625e-05
2.38345e-05
2.10036e-05
2.42084e-05
2.27067e-05
2.46203e-05
2.45469e-05
2.50581e-05
2.65348e-05
2.55394e-05
2.86823e-05
2.60522e-05
3.10019e-05
2.66147e-05
3.35066e-05
2.72154e-05
3.62026e-05
2.78743e-05
3.91192e-05
2.8578e-05
4.22779e-05
2.93483e-05
4.56898e-05
3.01718e-05
4.9375e-05
3.10744e-05
5.33302e-05
3.20434e-05
5.7593e-05
3.31015e-05
6.22295e-05
3.42365e-05
6.72348e-05
3.54784e-05
7.2572e-05
3.68156e-05
7.83599e-05
3.82699e-05
8.4644e-05
3.98404e-05
9.13482e-05
4.15505e-05
9.85873e-05
4.33926e-05
0.00010646
4.53999e-05
0.000114804
4.75664e-05
0.000123912
4.99169e-05
0.000133666
5.24613e-05
0.000144147
5.52148e-05
0.000155475
5.81982e-05
0.000167565
6.14231e-05
0.000180646
6.4915e-05
0.00019459
6.86855e-05
0.000209617
7.27537e-05
0.000225653
7.71446e-05
0.000242815
8.18817e-05
0.000261159
8.69955e-05
0.000280619
9.25015e-05
0.000301377
9.84247e-05
0.00032333
0.00010479
0.000346478
0.000111618
0.000370847
0.00011893
0.000396317
0.000126748
0.000422749
0.000135087
0.000450004
0.000143957
0.000477814
0.000153363
0.000505817
0.0001633
0.000533536
0.000173752
0.000560342
0.000184687
0.000585418
0.000196054
0.000607712
0.000207782
0.000625897
0.000219754
0.000638287
0.000231859
0.000642817
0.000243851
0.000636912
0.000255498
0.000617495
0.000266476
0.000580839
0.000276405
0.000522655
0.000284777
0.000437871
0.000291035
0.000320654
0.000294513
0.000165168
-2.95708e-05
0.000294688
2.31321e-05
1.91106e-05
-2.28171e-05
2.34799e-05
2.06606e-05
2.38476e-05
2.23359e-05
2.42528e-05
2.41458e-05
2.4683e-05
2.61012e-05
2.51559e-05
2.82134e-05
2.56598e-05
3.04947e-05
2.62121e-05
3.2958e-05
2.68024e-05
3.56084e-05
2.74492e-05
3.84759e-05
2.81405e-05
4.15821e-05
2.88965e-05
4.49373e-05
2.97054e-05
4.8561e-05
3.05914e-05
5.24478e-05
3.1543e-05
5.66361e-05
3.25819e-05
6.11945e-05
3.36965e-05
6.61154e-05
3.49161e-05
7.13564e-05
3.62293e-05
7.70426e-05
3.76576e-05
8.32195e-05
3.92001e-05
8.98025e-05
4.08794e-05
9.69111e-05
4.26887e-05
0.000104648
4.46599e-05
0.000112835
4.67876e-05
0.000121782
4.90959e-05
0.000131358
5.15946e-05
0.000141646
5.42984e-05
0.00015277
5.72283e-05
0.000164634
6.03948e-05
0.000177479
6.38242e-05
0.000191162
6.75257e-05
0.000205914
7.15217e-05
0.000221653
7.58326e-05
0.000238496
8.04844e-05
0.000256503
8.55057e-05
0.000275596
9.0912e-05
0.00029597
9.67278e-05
0.000317514
0.000102978
0.000340228
0.000109681
0.000364144
0.000116861
0.000389137
0.000124537
0.000415073
0.000132724
0.000441817
0.000141432
0.000469107
0.000150667
0.000496583
0.000160424
0.00052378
0.000170687
0.000550079
0.000181425
0.00057468
0.000192588
0.000596546
0.000204107
0.000614377
0.000215867
0.000626516
0.000227758
0.000630938
0.00023954
0.000625114
0.000250983
0.000606029
0.00026177
0.000570022
0.000271528
0.000512881
0.000279761
0.000429614
0.000285918
0.000314486
0.000289324
0.000161713
-2.97743e-05
0.000289408
2.27986e-05
1.87985e-05
-2.24893e-05
2.31403e-05
2.03231e-05
2.35025e-05
2.19711e-05
2.39009e-05
2.37515e-05
2.43244e-05
2.56749e-05
2.47896e-05
2.77526e-05
2.52851e-05
2.99964e-05
2.58282e-05
3.24192e-05
2.64082e-05
3.5025e-05
2.70437e-05
3.78445e-05
2.77226e-05
4.08993e-05
2.8465e-05
4.41989e-05
2.92591e-05
4.77624e-05
3.01287e-05
5.15822e-05
3.1063e-05
5.56973e-05
3.20824e-05
6.01791e-05
3.31768e-05
6.50171e-05
3.43736e-05
7.01637e-05
3.5663e-05
7.57499e-05
3.70648e-05
8.18215e-05
3.85791e-05
8.82852e-05
4.02277e-05
9.52657e-05
4.2004e-05
0.000102869
4.39392e-05
0.000110902
4.60282e-05
0.000119691
4.82945e-05
0.000129093
5.07478e-05
0.000139191
5.34026e-05
0.000150115
5.62792e-05
0.000161757
5.93885e-05
0.00017437
6.27552e-05
0.000187797
6.63904e-05
0.000202279
7.03129e-05
0.000217725
7.45465e-05
0.000234256
7.91138e-05
0.00025193
8.40441e-05
0.000270665
8.93525e-05
0.000290662
9.50628e-05
0.000311804
0.000101199
0.000334091
0.000107781
0.000357561
0.00011483
0.000382087
0.000122367
0.000407533
0.000130406
0.000433774
0.000138956
0.00046055
0.000148025
0.000487508
0.000157605
0.000514191
0.000167684
0.000539991
0.00017823
0.000564123
0.000189194
0.000585571
0.000200507
0.000603055
0.00021206
0.000614953
0.000223743
0.000619275
0.000235318
0.000613538
0.000246561
0.000594777
0.000257161
0.000559414
0.000266751
0.000503301
0.000274845
0.000421548
0.000280899
0.000308485
0.000284237
0.00015844
-2.96378e-05
0.00028425
2.24845e-05
1.84911e-05
-2.2179e-05
2.28211e-05
1.99909e-05
2.31775e-05
2.1612e-05
2.35693e-05
2.33635e-05
2.39858e-05
2.52555e-05
2.44426e-05
2.72993e-05
2.493e-05
2.95064e-05
2.54632e-05
3.18894e-05
2.60335e-05
3.44514e-05
2.66574e-05
3.72239e-05
2.73246e-05
4.02284e-05
2.80533e-05
4.34735e-05
2.88331e-05
4.6978e-05
2.96865e-05
5.07323e-05
3.06034e-05
5.47757e-05
3.16038e-05
5.91824e-05
3.26775e-05
6.3939e-05
3.3852e-05
6.8993e-05
3.51172e-05
7.4481e-05
3.64929e-05
8.04493e-05
3.79791e-05
8.67961e-05
3.9597e-05
9.36508e-05
4.13404e-05
0.000101123
4.32399e-05
0.000109004
4.52904e-05
0.000117638
4.75149e-05
0.000126869
4.99232e-05
0.000136782
5.25293e-05
0.000147509
5.53533e-05
0.000158932
5.84055e-05
0.000171318
6.17112e-05
0.000184493
6.52792e-05
0.00019871
6.91315e-05
0.000213869
7.32874e-05
0.000230092
7.7772e-05
0.000247441
8.26128e-05
0.000265823
8.78248e-05
0.00028545
9.34316e-05
0.000306197
9.94567e-05
0.000328066
0.000105919
0.000351098
0.000112841
0.000375165
0.000120241
0.000400133
0.000128134
0.000425882
0.000136531
0.000452154
0.000145436
0.000478605
0.000154845
0.000504783
0.000164743
0.000530094
0.000175101
0.000553765
0.000185871
0.000574799
0.000196984
0.000591941
0.000208334
0.000603596
0.000219811
0.000607812
0.000231184
0.000602152
0.000242231
0.00058371
0.000252647
0.00054897
0.000262071
0.000493861
0.000270026
0.000413568
0.000275976
0.000302519
0.000279247
0.000155109
-2.97314e-05
0.000279205
2.21888e-05
1.81887e-05
-2.1889e-05
2.25193e-05
1.96641e-05
2.28701e-05
2.12591e-05
2.32551e-05
2.29822e-05
2.36649e-05
2.48436e-05
2.41142e-05
2.68541e-05
2.45932e-05
2.90253e-05
2.51175e-05
3.13692e-05
2.56777e-05
3.38883e-05
2.62908e-05
3.66147e-05
2.69459e-05
3.95699e-05
2.76615e-05
4.27616e-05
2.84271e-05
4.62084e-05
2.92646e-05
4.98984e-05
3.01646e-05
5.38717e-05
3.1146e-05
5.82047e-05
3.21997e-05
6.28816e-05
3.33518e-05
6.78448e-05
3.45932e-05
7.32365e-05
3.59428e-05
7.91033e-05
3.7401e-05
8.53353e-05
3.89883e-05
9.20665e-05
4.06991e-05
9.94101e-05
4.25629e-05
0.000107143
4.45752e-05
0.000115624
4.67583e-05
0.000124686
4.9122e-05
0.000134416
5.16799e-05
0.00014495
5.44517e-05
0.00015616
5.74479e-05
0.000168322
6.06924e-05
0.000181249
6.4196e-05
0.000195207
6.79768e-05
0.000210082
7.20577e-05
0.000226006
7.64604e-05
0.000243034
8.12132e-05
0.000261069
8.63305e-05
0.000280333
9.18356e-05
0.000300693
9.77517e-05
0.00032215
0.000104097
0.000344752
0.000110894
0.000368368
0.00011816
0.000392864
0.000125912
0.000418127
0.000134157
0.000443904
0.000142903
0.000469853
0.000152143
0.000495534
0.000161865
0.000520363
0.00017204
0.00054358
0.000182619
0.000564209
0.000193536
0.000581015
0.000204687
0.000592435
0.000215962
0.000596552
0.000227137
0.000590974
0.00023799
0.000572845
0.000248224
0.000538726
0.000257483
0.000484609
0.000265301
0.000405776
0.000271146
0.000296725
0.000274351
0.000151968
-2.95077e-05
0.000274266
2.19112e-05
1.78913e-05
-2.16151e-05
2.22367e-05
1.93428e-05
2.25812e-05
2.09121e-05
2.29597e-05
2.26074e-05
2.33619e-05
2.44386e-05
2.38029e-05
2.64164e-05
2.42734e-05
2.85522e-05
2.47878e-05
3.08577e-05
2.53383e-05
3.33347e-05
2.59399e-05
3.60158e-05
2.65836e-05
3.89226e-05
2.72859e-05
4.20621e-05
2.80378e-05
4.54524e-05
2.88598e-05
4.90794e-05
2.97433e-05
5.2984e-05
3.07063e-05
5.7245e-05
3.17404e-05
6.18437e-05
3.28707e-05
6.6718e-05
3.40887e-05
7.20153e-05
3.54127e-05
7.77827e-05
3.68434e-05
8.3902e-05
3.84007e-05
9.05121e-05
4.00792e-05
9.77294e-05
4.19079e-05
0.000105316
4.38824e-05
0.000113648
4.60246e-05
0.000122545
4.83442e-05
0.000132096
5.08545e-05
0.00014244
5.3575e-05
0.000153439
5.65157e-05
0.000165381
5.97007e-05
0.000178066
6.3139e-05
0.000191768
6.68516e-05
0.000206367
7.08573e-05
0.000221993
7.518e-05
0.000238708
7.98463e-05
0.000256402
8.48706e-05
0.000275309
9.02759e-05
0.000295288
9.60848e-05
0.000316342
0.000102316
0.000338521
0.00010899
0.000361695
0.000116125
0.000385729
0.000123737
0.000410516
0.000131835
0.000435807
0.000140424
0.000461266
0.0001495
0.00048646
0.00015905
0.000510815
0.000169044
0.000533587
0.000179437
0.000553816
0.000190162
0.00057029
0.000201117
0.000581475
0.000212194
0.00058549
0.000223173
0.000579987
0.000233835
0.000562164
0.000243891
0.000528646
0.000252987
0.000475496
0.000260668
0.000398071
0.000266407
0.000290964
0.000269546
0.000148757
-2.95367e-05
0.000269424
2.16463e-05
1.75992e-05
-2.13563e-05
2.19653e-05
1.90274e-05
2.23039e-05
2.05714e-05
2.26754e-05
2.22395e-05
2.30707e-05
2.40411e-05
2.35041e-05
2.59869e-05
2.39662e-05
2.80879e-05
2.44718e-05
3.03559e-05
2.50123e-05
3.27914e-05
2.56034e-05
3.54281e-05
2.62354e-05
3.82875e-05
2.69252e-05
4.13756e-05
2.76635e-05
4.47104e-05
2.84704e-05
4.82758e-05
2.93378e-05
5.21131e-05
3.02828e-05
5.63033e-05
3.12978e-05
6.08256e-05
3.24066e-05
6.56126e-05
3.36019e-05
7.08174e-05
3.49007e-05
7.64871e-05
3.63045e-05
8.2496e-05
3.78322e-05
8.89872e-05
3.94791e-05
9.60805e-05
4.12733e-05
0.000103524
4.32107e-05
0.000111709
4.53127e-05
0.000120444
4.75889e-05
0.000129818
5.00524e-05
0.000139976
5.27223e-05
0.000150769
5.56087e-05
0.000162495
5.87345e-05
0.000174941
6.21104e-05
0.000188393
6.57539e-05
0.000202718
6.9687e-05
0.000218055
7.39307e-05
0.00023446
7.85121e-05
0.00025182
8.34452e-05
0.000270377
8.87526e-05
0.000289981
9.44565e-05
0.000310638
0.000100575
0.000332402
0.000107129
0.00035514
0.000114136
0.000378719
0.000121612
0.000403037
0.000129565
0.000427849
0.000138001
0.000452824
0.000146916
0.000477537
0.000156296
0.000501426
0.000166114
0.000523759
0.000176323
0.000543595
0.000186859
0.000559744
0.000197622
0.000570701
0.000208504
0.00057462
0.00021929
0.000569196
0.000229764
0.000551676
0.000239642
0.000518756
0.000248578
0.000466564
0.000256123
0.000390549
0.000261756
0.000285377
0.000264828
0.000145744
-2.92578e-05
0.000264674
2.13915e-05
1.73125e-05
-2.1106e-05
2.17048e-05
1.87178e-05
2.20372e-05
2.0237e-05
2.24016e-05
2.18782e-05
2.27898e-05
2.36507e-05
2.32146e-05
2.5565e-05
2.36686e-05
2.76319e-05
2.41645e-05
2.98628e-05
2.46956e-05
3.22577e-05
2.52757e-05
3.48507e-05
2.58967e-05
3.76634e-05
2.65738e-05
4.07012e-05
2.7299e-05
4.39815e-05
2.80914e-05
4.74863e-05
2.8943e-05
5.12576e-05
2.98708e-05
5.53786e-05
3.08671e-05
5.98258e-05
3.19556e-05
6.45274e-05
3.31285e-05
6.96414e-05
3.44032e-05
7.52156e-05
3.57807e-05
8.11161e-05
3.72799e-05
8.74907e-05
3.8896e-05
9.44624e-05
4.06565e-05
0.000101765
4.25577e-05
0.000109806
4.46205e-05
0.000118381
4.68543e-05
0.000127583
4.92719e-05
0.000137558
5.18924e-05
0.000148148
5.47252e-05
0.000159662
5.77937e-05
0.000171874
6.11067e-05
0.000185079
6.46845e-05
0.000199138
6.85452e-05
0.000214188
7.27118e-05
0.00023029
7.72099e-05
0.000247321
8.20536e-05
0.000265534
8.72649e-05
0.000284771
9.28658e-05
0.000305038
9.88743e-05
0.000326394
0.00010531
0.000348705
0.000112192
0.000371838
0.000119534
0.000395696
0.000127345
0.000420039
0.000135631
0.00044454
0.000144387
0.000468783
0.000153602
0.000492214
0.000163246
0.000514117
0.000173275
0.000533566
0.000183625
0.000549395
0.000194198
0.000560125
0.000204888
0.000563946
0.000215484
0.000558594
0.000225773
0.00054137
0.000235477
0.00050903
0.000244253
0.000457771
0.000251663
0.000383116
0.000257191
0.000279822
0.000260196
0.000142656
-2.92387e-05
0.000260009
2.11416e-05
1.70314e-05
-2.08624e-05
2.14482e-05
1.84142e-05
2.17747e-05
1.99091e-05
2.21321e-05
2.1524e-05
2.25134e-05
2.32679e-05
2.29307e-05
2.51513e-05
2.33764e-05
2.71846e-05
2.38637e-05
2.93792e-05
2.43849e-05
3.17341e-05
2.49548e-05
3.42842e-05
2.55644e-05
3.7051e-05
2.62295e-05
4.00392e-05
2.69416e-05
4.3266e-05
2.77197e-05
4.67113e-05
2.85562e-05
5.04177e-05
2.94672e-05
5.44707e-05
3.04456e-05
5.88444e-05
3.15142e-05
6.3462e-05
3.26659e-05
6.84872e-05
3.39171e-05
7.39675e-05
3.52692e-05
7.97618e-05
3.67406e-05
8.6022e-05
3.83268e-05
9.28744e-05
4.00546e-05
0.000100039
4.19206e-05
0.000107938
4.39451e-05
0.000116358
4.61376e-05
0.00012539
4.85106e-05
0.000135185
5.10826e-05
0.000145576
5.38634e-05
0.000156881
5.68751e-05
0.000168864
6.01282e-05
0.000181826
6.36397e-05
0.000195621
6.74307e-05
0.000210392
7.15215e-05
0.000226196
7.5938e-05
0.000242904
8.06941e-05
0.000260779
8.58114e-05
0.000279654
9.13114e-05
0.000299538
9.72119e-05
0.000320494
0.000103532
0.000342384
0.000110291
0.000365077
0.000117502
0.000388483
0.000125174
0.000412362
0.000133312
0.000436396
0.000141913
0.000460174
0.000150965
0.000483154
0.000160438
0.000504632
0.000170291
0.000523702
0.000180457
0.000539216
0.000190844
0.000549726
0.000201344
0.000553454
0.000211752
0.000548178
0.000221858
0.000531248
0.000231389
0.000499486
0.000240009
0.000449154
0.000247284
0.000375861
0.000252707
0.000274443
0.000255645
0.000139773
-2.8913e-05
0.000255428
2.08943e-05
1.67555e-05
-2.06193e-05
2.11958e-05
1.81163e-05
2.15156e-05
1.95873e-05
2.18666e-05
2.11761e-05
2.22403e-05
2.2892e-05
2.26494e-05
2.47448e-05
2.30868e-05
2.67452e-05
2.35644e-05
2.89039e-05
2.40764e-05
3.12196e-05
2.46354e-05
3.37275e-05
2.52343e-05
3.64492e-05
2.58871e-05
3.93887e-05
2.65869e-05
4.25628e-05
2.7351e-05
4.59496e-05
2.81729e-05
4.95924e-05
2.90677e-05
5.35786e-05
3.00289e-05
5.78801e-05
3.10784e-05
6.24155e-05
3.22096e-05
6.73534e-05