/*--------------------------------*- C++ -*----------------------------------*\
  =========                 |
  \\      /  F ield         | OpenFOAM: The Open Source CFD Toolbox
   \\    /   O peration     | Website:  https://openfoam.org
    \\  /    A nd           | Version:  6.0
     \\/     M anipulation  |
\*---------------------------------------------------------------------------*/
FoamFile
{
    version     2.0;
    format      ascii;
    class       volScalarField;
    location    "8";
    object      p;
}
// * * * * * * * * * * * * * * * * * * * * * * * * * * * * * * * * * * * * * //

dimensions      [0 2 -2 0 0 0 0];

internalField   nonuniform List<scalar> 
34500
(
1.01454
1.01228
1.0092
1.00737
1.00805
1.00939
1.01021
1.00966
1.00836
1.00664
1.00507
1.00373
1.0026
1.00198
1.00163
1.01458
1.01236
1.00926
1.00732
1.008
1.00959
1.01085
1.01071
1.00967
1.00801
1.00636
1.00486
1.00353
1.00291
1.00242
1.01464
1.01238
1.00909
1.00672
1.00689
1.00817
1.0094
1.00943
1.00863
1.0072
1.00574
1.0044
1.00324
1.00292
1.00262
1.01472
1.01251
1.00912
1.00639
1.00601
1.00684
1.00787
1.00796
1.00735
1.00617
1.00496
1.0039
1.00302
1.00305
1.00313
1.01484
1.01278
1.00951
1.00665
1.0059
1.00633
1.00714
1.00721
1.00672
1.00573
1.00473
1.00388
1.00324
1.00352
1.00386
1.01499
1.01317
1.01018
1.00742
1.00648
1.00665
1.00724
1.00725
1.00681
1.00593
1.00506
1.00434
1.00384
1.00424
1.0047
1.01517
1.01362
1.01098
1.00845
1.00748
1.00747
1.00788
1.0078
1.00735
1.00652
1.0057
1.00504
1.00459
1.00503
1.00551
1.01535
1.01407
1.01181
1.00958
1.00866
1.00855
1.00882
1.00865
1.00816
1.00733
1.00652
1.00587
1.0054
1.00584
1.00631
1.01554
1.01451
1.0126
1.01067
1.00986
1.00969
1.00985
1.00959
1.00905
1.00819
1.00736
1.00669
1.0062
1.00661
1.00705
1.01574
1.01492
1.01333
1.01168
1.01098
1.0108
1.01087
1.01054
1.00994
1.00905
1.0082
1.0075
1.00697
1.00735
1.00778
1.01594
1.0153
1.01397
1.01257
1.01198
1.0118
1.01181
1.01142
1.01077
1.00985
1.00897
1.00824
1.00768
1.00804
1.00845
1.01614
1.01565
1.01453
1.01335
1.01287
1.01271
1.01266
1.01223
1.01154
1.01061
1.0097
1.00894
1.00837
1.00872
1.00912
1.01634
1.01597
1.01504
1.01404
1.01365
1.0135
1.01342
1.01295
1.01224
1.01129
1.01037
1.0096
1.00901
1.00935
1.00975
1.01654
1.01628
1.0155
1.01465
1.01434
1.01421
1.01411
1.01362
1.01289
1.01193
1.01101
1.01023
1.00965
1.00999
1.01039
1.01675
1.01658
1.01592
1.0152
1.01496
1.01484
1.01473
1.01423
1.01349
1.01253
1.01161
1.01083
1.01025
1.0106
1.01101
1.01696
1.01687
1.01632
1.01571
1.01553
1.01544
1.01531
1.01481
1.01407
1.01312
1.01221
1.01143
1.01087
1.01122
1.01164
1.01718
1.01716
1.01671
1.01619
1.01607
1.01599
1.01586
1.01536
1.01462
1.01368
1.01278
1.01202
1.01146
1.01182
1.01224
1.0174
1.01745
1.0171
1.01667
1.01659
1.01653
1.0164
1.0159
1.01518
1.01425
1.01336
1.01261
1.01208
1.01244
1.01287
1.01763
1.01775
1.01749
1.01713
1.01709
1.01706
1.01693
1.01643
1.01572
1.01481
1.01393
1.01319
1.01268
1.01305
1.01348
1.01787
1.01806
1.01788
1.0176
1.0176
1.01758
1.01746
1.01698
1.01627
1.01538
1.01452
1.0138
1.01329
1.01367
1.0141
1.01812
1.01837
1.01828
1.01807
1.01811
1.01811
1.01799
1.01751
1.01682
1.01595
1.0151
1.01439
1.0139
1.01429
1.01472
1.01838
1.01869
1.01868
1.01855
1.01863
1.01865
1.01853
1.01807
1.01739
1.01653
1.01571
1.01501
1.01453
1.01492
1.01535
1.01864
1.01902
1.0191
1.01903
1.01915
1.01919
1.01908
1.01863
1.01796
1.01712
1.01631
1.01562
1.01516
1.01554
1.01597
1.01892
1.01936
1.01953
1.01953
1.01968
1.01974
1.01965
1.01921
1.01856
1.01773
1.01693
1.01625
1.0158
1.01619
1.01662
1.0192
1.01971
1.01996
1.02003
1.02022
1.02031
1.02022
1.0198
1.01915
1.01834
1.01755
1.01688
1.01644
1.01682
1.01725
1.01949
1.02007
1.02041
1.02055
1.02078
1.02089
1.02081
1.0204
1.01977
1.01898
1.0182
1.01753
1.0171
1.01748
1.0179
1.01979
1.02044
1.02086
1.02107
1.02134
1.02148
1.02141
1.02101
1.02039
1.01961
1.01884
1.01818
1.01775
1.01813
1.01854
1.02011
1.02082
1.02133
1.02161
1.02192
1.02208
1.02203
1.02165
1.02104
1.02027
1.01951
1.01886
1.01843
1.0188
1.01921
1.02043
1.0212
1.0218
1.02215
1.02251
1.0227
1.02266
1.02229
1.02169
1.02093
1.02017
1.01952
1.0191
1.01946
1.01986
1.02076
1.0216
1.02229
1.02271
1.02311
1.02333
1.02331
1.02295
1.02236
1.02161
1.02086
1.02021
1.01979
1.02014
1.02054
1.02109
1.022
1.02278
1.02327
1.02373
1.02397
1.02396
1.02362
1.02304
1.0223
1.02155
1.0209
1.02047
1.02082
1.0212
1.02144
1.02241
1.02329
1.02385
1.02435
1.02463
1.02464
1.02431
1.02374
1.02301
1.02226
1.02161
1.02118
1.02152
1.0219
1.0218
1.02283
1.0238
1.02444
1.02499
1.0253
1.02532
1.02501
1.02445
1.02371
1.02297
1.02232
1.02189
1.02221
1.02258
1.02216
1.02327
1.02433
1.02504
1.02564
1.02598
1.02603
1.02573
1.02518
1.02445
1.02371
1.02305
1.02261
1.02293
1.02329
1.02254
1.0237
1.02486
1.02564
1.0263
1.02668
1.02674
1.02646
1.02591
1.02519
1.02444
1.02378
1.02334
1.02364
1.02399
1.02292
1.02415
1.0254
1.02626
1.02697
1.02739
1.02747
1.02721
1.02667
1.02595
1.0252
1.02454
1.02408
1.02437
1.02472
1.02331
1.02461
1.02595
1.02689
1.02766
1.02811
1.02821
1.02796
1.02743
1.02671
1.02596
1.02529
1.02483
1.0251
1.02544
1.02371
1.02508
1.02652
1.02754
1.02836
1.02885
1.02898
1.02874
1.02821
1.0275
1.02674
1.02606
1.02559
1.02586
1.0262
1.02411
1.02555
1.02708
1.02818
1.02906
1.0296
1.02975
1.02952
1.029
1.02828
1.02753
1.02683
1.02635
1.02661
1.02694
1.02453
1.02603
1.02767
1.02885
1.02979
1.03037
1.03054
1.03033
1.02982
1.0291
1.02833
1.02763
1.02714
1.02738
1.02772
1.02495
1.02652
1.02825
1.02952
1.03052
1.03114
1.03134
1.03115
1.03064
1.02992
1.02914
1.02843
1.02792
1.02815
1.02848
1.02538
1.02702
1.02886
1.03021
1.03128
1.03194
1.03217
1.03199
1.03148
1.03076
1.02997
1.02925
1.02873
1.02894
1.02928
1.02581
1.02753
1.02946
1.0309
1.03204
1.03274
1.033
1.03284
1.03233
1.0316
1.03081
1.03007
1.02953
1.02973
1.03006
1.02626
1.02805
1.03009
1.03161
1.03282
1.03357
1.03386
1.03371
1.0332
1.03247
1.03167
1.03091
1.03036
1.03055
1.03088
1.02671
1.02857
1.03071
1.03233
1.0336
1.03441
1.03472
1.03458
1.03408
1.03334
1.03253
1.03175
1.03119
1.03136
1.03169
1.02717
1.02911
1.03135
1.03307
1.03441
1.03527
1.03561
1.03549
1.03499
1.03424
1.03341
1.03262
1.03204
1.0322
1.03253
1.02763
1.02965
1.032
1.03381
1.03522
1.03613
1.0365
1.0364
1.0359
1.03515
1.0343
1.03349
1.03288
1.03303
1.03335
1.0281
1.0302
1.03266
1.03457
1.03606
1.03702
1.03742
1.03734
1.03684
1.03608
1.03521
1.03438
1.03376
1.03389
1.03421
1.02858
1.03076
1.03333
1.03534
1.0369
1.03792
1.03835
1.03828
1.03778
1.03701
1.03612
1.03527
1.03463
1.03474
1.03506
1.02906
1.03133
1.03401
1.03612
1.03777
1.03884
1.03931
1.03925
1.03875
1.03797
1.03707
1.03619
1.03552
1.03562
1.03594
1.02955
1.0319
1.0347
1.03691
1.03864
1.03977
1.04027
1.04023
1.03973
1.03893
1.03801
1.03711
1.03642
1.03649
1.03681
1.03005
1.03248
1.03541
1.03772
1.03954
1.04072
1.04126
1.04123
1.04073
1.03992
1.03898
1.03805
1.03734
1.0374
1.0377
1.03055
1.03307
1.03612
1.03854
1.04044
1.04169
1.04226
1.04225
1.04174
1.04091
1.03995
1.039
1.03825
1.03829
1.03859
1.03106
1.03367
1.03684
1.03938
1.04137
1.04268
1.04329
1.04329
1.04278
1.04194
1.04094
1.03997
1.0392
1.03922
1.03951
1.03157
1.03428
1.03757
1.04022
1.0423
1.04368
1.04432
1.04434
1.04383
1.04296
1.04194
1.04094
1.04014
1.04014
1.04043
1.03209
1.0349
1.03832
1.04109
1.04326
1.0447
1.04538
1.04542
1.0449
1.04402
1.04297
1.04194
1.04111
1.04109
1.04137
1.03262
1.03551
1.03907
1.04196
1.04423
1.04573
1.04646
1.0465
1.04598
1.04508
1.044
1.04293
1.04207
1.04203
1.0423
1.03315
1.03615
1.03984
1.04285
1.04522
1.0468
1.04756
1.04762
1.04709
1.04616
1.04506
1.04396
1.04307
1.04301
1.04327
1.03368
1.03678
1.04061
1.04375
1.04622
1.04787
1.04867
1.04874
1.04821
1.04726
1.04612
1.04498
1.04406
1.04398
1.04423
1.03422
1.03743
1.0414
1.04467
1.04724
1.04896
1.04981
1.0499
1.04935
1.04838
1.04721
1.04604
1.04508
1.04498
1.04522
1.03476
1.03808
1.0422
1.0456
1.04828
1.05007
1.05096
1.05106
1.05051
1.04951
1.0483
1.04709
1.0461
1.04597
1.0462
1.03531
1.03874
1.04301
1.04655
1.04934
1.05121
1.05214
1.05225
1.05169
1.05066
1.04943
1.04818
1.04715
1.047
1.04721
1.03586
1.03941
1.04383
1.04751
1.05041
1.05236
1.05333
1.05346
1.05288
1.05183
1.05055
1.04926
1.0482
1.04802
1.04822
1.03642
1.04008
1.04466
1.04849
1.0515
1.05353
1.05455
1.05469
1.05411
1.05302
1.0517
1.05038
1.04927
1.04907
1.04926
1.03698
1.04076
1.0455
1.04948
1.05261
1.05472
1.05578
1.05594
1.05534
1.05422
1.05286
1.05149
1.05035
1.05012
1.0503
1.03754
1.04145
1.04636
1.05049
1.05374
1.05593
1.05704
1.05721
1.0566
1.05545
1.05405
1.05264
1.05145
1.0512
1.05136
1.03811
1.04214
1.04722
1.05151
1.05488
1.05716
1.05832
1.0585
1.05787
1.05668
1.05524
1.05378
1.05256
1.05227
1.05243
1.03868
1.04285
1.0481
1.05255
1.05605
1.05842
1.05962
1.05982
1.05917
1.05795
1.05646
1.05496
1.05369
1.05338
1.05352
1.03925
1.04355
1.04898
1.0536
1.05723
1.05969
1.06094
1.06115
1.06049
1.05922
1.05769
1.05613
1.05482
1.05448
1.05461
1.03983
1.04427
1.04988
1.05467
1.05843
1.06099
1.06229
1.06251
1.06183
1.06053
1.05894
1.05734
1.05599
1.05562
1.05573
1.0404
1.04499
1.05079
1.05575
1.05965
1.0623
1.06365
1.06388
1.06318
1.06184
1.0602
1.05855
1.05715
1.05675
1.05685
1.04099
1.04572
1.05171
1.05685
1.0609
1.06364
1.06505
1.06529
1.06457
1.06319
1.0615
1.05979
1.05834
1.05792
1.058
1.04157
1.04645
1.05264
1.05796
1.06215
1.065
1.06646
1.06671
1.06597
1.06453
1.06279
1.06103
1.05954
1.05908
1.05915
1.04216
1.04719
1.05359
1.0591
1.06344
1.06638
1.0679
1.06816
1.0674
1.06592
1.06412
1.06231
1.06076
1.06027
1.06033
1.04274
1.04793
1.05454
1.06024
1.06474
1.06778
1.06935
1.06963
1.06883
1.06731
1.06545
1.06358
1.06199
1.06147
1.06151
1.04333
1.04868
1.05551
1.06141
1.06606
1.06922
1.07084
1.07113
1.07031
1.06873
1.06682
1.06489
1.06324
1.06269
1.06271
1.04392
1.04943
1.05648
1.06259
1.0674
1.07066
1.07234
1.07264
1.07179
1.07017
1.06819
1.0662
1.0645
1.06392
1.06392
1.04451
1.0502
1.05747
1.06379
1.06877
1.07214
1.07388
1.07418
1.07331
1.07163
1.06959
1.06755
1.06579
1.06518
1.06516
1.04509
1.05096
1.05846
1.065
1.07015
1.07363
1.07543
1.07574
1.07484
1.0731
1.071
1.06889
1.06708
1.06643
1.0664
1.04569
1.05173
1.05948
1.06624
1.07156
1.07516
1.07702
1.07734
1.0764
1.07461
1.07244
1.07027
1.0684
1.06772
1.06768
1.04627
1.0525
1.06049
1.06748
1.07298
1.0767
1.07862
1.07894
1.07798
1.07613
1.07389
1.07165
1.06973
1.06901
1.06895
1.04686
1.05329
1.06153
1.06875
1.07443
1.07827
1.08025
1.08059
1.07959
1.07768
1.07537
1.07307
1.07108
1.07033
1.07025
1.04745
1.05407
1.06257
1.07003
1.07589
1.07986
1.0819
1.08225
1.08121
1.07924
1.07686
1.07448
1.07244
1.07166
1.07155
1.04804
1.05486
1.06362
1.07133
1.07739
1.08149
1.08359
1.08394
1.08287
1.08083
1.07838
1.07594
1.07383
1.07301
1.07289
1.04862
1.05565
1.06468
1.07264
1.0789
1.08312
1.08529
1.08565
1.08454
1.08243
1.0799
1.07739
1.07522
1.07437
1.07423
1.04921
1.05644
1.06576
1.07398
1.08044
1.0848
1.08703
1.08739
1.08625
1.08407
1.08147
1.07888
1.07665
1.07576
1.0756
1.04979
1.05724
1.06684
1.07533
1.08199
1.08649
1.08879
1.08915
1.08796
1.08572
1.08303
1.08037
1.07807
1.07715
1.07697
1.05037
1.05804
1.06794
1.0767
1.08357
1.08821
1.09058
1.09095
1.08972
1.0874
1.08464
1.0819
1.07954
1.07857
1.07837
1.05095
1.05884
1.06905
1.07808
1.08517
1.08995
1.09239
1.09276
1.09148
1.08909
1.08624
1.08343
1.081
1.07999
1.07978
1.05152
1.05965
1.07016
1.07949
1.0868
1.09172
1.09423
1.09461
1.09329
1.09082
1.08789
1.08499
1.0825
1.08145
1.08121
1.05209
1.06046
1.07129
1.0809
1.08844
1.09351
1.0961
1.09647
1.09511
1.09256
1.08953
1.08656
1.08399
1.08291
1.08265
1.05266
1.06127
1.07243
1.08235
1.09012
1.09534
1.098
1.09838
1.09696
1.09434
1.09122
1.08816
1.08553
1.0844
1.08413
1.05322
1.06208
1.07357
1.0838
1.09181
1.09719
1.09991
1.10029
1.09883
1.09612
1.09291
1.08977
1.08706
1.0859
1.0856
1.05378
1.0629
1.07473
1.08528
1.09353
1.09907
1.10187
1.10225
1.10073
1.09794
1.09464
1.09141
1.08863
1.08743
1.08711
1.05433
1.06372
1.0759
1.08677
1.09527
1.10096
1.10384
1.10422
1.10265
1.09977
1.09637
1.09305
1.0902
1.08895
1.08862
1.05488
1.06454
1.07708
1.08828
1.09704
1.1029
1.10585
1.10624
1.10461
1.10164
1.09814
1.09473
1.09181
1.09052
1.09016
1.05542
1.06535
1.07826
1.0898
1.09882
1.10485
1.10788
1.10826
1.10657
1.10351
1.09992
1.09642
1.09341
1.09208
1.09171
1.05595
1.06617
1.07946
1.09135
1.10063
1.10683
1.10994
1.11033
1.10858
1.10543
1.10173
1.09814
1.09506
1.09369
1.09329
1.05648
1.06699
1.08066
1.09291
1.10247
1.10884
1.11203
1.11241
1.1106
1.10735
1.10355
1.09986
1.0967
1.09529
1.09487
1.057
1.06781
1.08188
1.0945
1.10433
1.11088
1.11415
1.11453
1.11266
1.10931
1.1054
1.10162
1.09838
1.09692
1.09649
1.05752
1.06863
1.0831
1.09609
1.10621
1.11294
1.11629
1.11667
1.11473
1.11128
1.10726
1.10338
1.10006
1.09856
1.09811
1.05803
1.06945
1.08434
1.09771
1.10812
1.11504
1.11847
1.11884
1.11684
1.11329
1.10916
1.10517
1.10177
1.10024
1.09976
1.05852
1.07027
1.08558
1.09934
1.11005
1.11715
1.12067
1.12103
1.11896
1.1153
1.11106
1.10697
1.10349
1.10191
1.10141
1.05902
1.07109
1.08683
1.101
1.112
1.1193
1.12291
1.12327
1.12112
1.11736
1.11299
1.10881
1.10524
1.10362
1.10311
1.0595
1.0719
1.08809
1.10266
1.11398
1.12147
1.12516
1.12551
1.1233
1.11942
1.11494
1.11064
1.10699
1.10533
1.1048
1.05997
1.07272
1.08936
1.10435
1.11599
1.12368
1.12746
1.1278
1.12551
1.12152
1.11692
1.11252
1.10878
1.10708
1.10653
1.06043
1.07353
1.09063
1.10606
1.11801
1.1259
1.12977
1.1301
1.12773
1.12362
1.1189
1.11439
1.11057
1.10882
1.10826
1.06089
1.07435
1.09192
1.10778
1.12006
1.12816
1.13212
1.13244
1.12999
1.12577
1.12092
1.1163
1.1124
1.11061
1.11002
1.06133
1.07516
1.09321
1.10952
1.12213
1.13044
1.13448
1.1348
1.13227
1.12792
1.12294
1.11821
1.11422
1.11239
1.11179
1.06177
1.07597
1.09452
1.11128
1.12423
1.13275
1.13689
1.13719
1.13458
1.13011
1.125
1.12016
1.11608
1.11421
1.11359
1.06219
1.07677
1.09583
1.11305
1.12635
1.13509
1.13931
1.1396
1.1369
1.1323
1.12706
1.12211
1.11794
1.11603
1.1154
1.06261
1.07758
1.09715
1.11485
1.1285
1.13745
1.14177
1.14205
1.13926
1.13453
1.12916
1.12409
1.11984
1.11788
1.11724
1.06301
1.07838
1.09847
1.11665
1.13066
1.13984
1.14425
1.14451
1.14162
1.13677
1.13125
1.12607
1.12173
1.11974
1.11909
1.06341
1.07918
1.09981
1.11848
1.13286
1.14226
1.14676
1.14701
1.14403
1.13904
1.13339
1.12808
1.12366
1.12163
1.12097
1.06378
1.07997
1.10115
1.12032
1.13507
1.1447
1.14929
1.14952
1.14644
1.14132
1.13552
1.1301
1.12558
1.12352
1.12285
1.06416
1.08077
1.1025
1.12219
1.13731
1.14717
1.15186
1.15207
1.14889
1.14363
1.13769
1.13215
1.12755
1.12544
1.12477
1.06451
1.08155
1.10386
1.12406
1.13956
1.14965
1.15444
1.15462
1.15135
1.14594
1.13986
1.13419
1.12951
1.12737
1.12669
1.06486
1.08234
1.10523
1.12595
1.14185
1.15218
1.15706
1.15722
1.15384
1.14829
1.14206
1.13628
1.1315
1.12933
1.12864
1.0652
1.08312
1.1066
1.12786
1.14415
1.15471
1.15969
1.15982
1.15633
1.15064
1.14426
1.13835
1.13349
1.13129
1.1306
1.06553
1.08391
1.10798
1.12979
1.14647
1.15728
1.16235
1.16246
1.15886
1.15302
1.14649
1.14046
1.13552
1.13328
1.1326
1.06584
1.08469
1.10937
1.13173
1.14881
1.15987
1.16503
1.16511
1.1614
1.1554
1.14872
1.14257
1.13754
1.13527
1.13459
1.06614
1.08547
1.11077
1.13369
1.15118
1.16248
1.16774
1.16779
1.16396
1.15782
1.15098
1.14471
1.1396
1.1373
1.13663
1.06643
1.08624
1.11217
1.13566
1.15357
1.16511
1.17046
1.17048
1.16653
1.16023
1.15324
1.14684
1.14164
1.13933
1.13866
1.06672
1.08701
1.11358
1.13765
1.15598
1.16777
1.17321
1.1732
1.16913
1.16267
1.15552
1.149
1.14373
1.14139
1.14073
1.06699
1.08778
1.115
1.13965
1.1584
1.17044
1.17597
1.17592
1.17173
1.16511
1.1578
1.15116
1.14581
1.14345
1.14281
1.06725
1.08855
1.11643
1.14168
1.16085
1.17314
1.17876
1.17867
1.17436
1.16757
1.16011
1.15334
1.14792
1.14554
1.14492
1.06751
1.08932
1.11787
1.14371
1.16331
1.17585
1.18155
1.18143
1.17698
1.17003
1.16241
1.15552
1.15002
1.14763
1.14703
1.06775
1.09009
1.11932
1.14577
1.1658
1.17859
1.18438
1.18421
1.17963
1.17251
1.16474
1.15773
1.15216
1.14976
1.14918
1.06799
1.09086
1.12077
1.14783
1.1683
1.18134
1.1872
1.18699
1.18227
1.17499
1.16705
1.15993
1.15429
1.15188
1.15134
1.06822
1.09163
1.12224
1.14992
1.17082
1.18411
1.19006
1.18979
1.18494
1.17749
1.16939
1.16215
1.15645
1.15403
1.15353
1.06845
1.0924
1.12372
1.15201
1.17335
1.18689
1.19291
1.19259
1.1876
1.17997
1.17172
1.16436
1.1586
1.15619
1.15572
1.06867
1.09317
1.12521
1.15413
1.17591
1.18969
1.19579
1.19541
1.19028
1.18248
1.17407
1.1666
1.16079
1.15837
1.15795
1.06888
1.09395
1.1267
1.15626
1.17847
1.1925
1.19866
1.19822
1.19295
1.18497
1.17641
1.16883
1.16296
1.16056
1.16018
1.06909
1.09473
1.12821
1.15841
1.18106
1.19533
1.20156
1.20105
1.19563
1.18748
1.17876
1.17108
1.16516
1.16277
1.16246
1.0693
1.09552
1.12973
1.16056
1.18365
1.19816
1.20445
1.20387
1.1983
1.18998
1.1811
1.17331
1.16735
1.16499
1.16473
1.06951
1.09631
1.13127
1.16274
1.18626
1.20101
1.20735
1.20671
1.20098
1.19248
1.18346
1.17557
1.16957
1.16724
1.16705
1.06972
1.09711
1.13282
1.16493
1.18888
1.20385
1.21025
1.20952
1.20364
1.19497
1.18579
1.17781
1.17178
1.16948
1.16937
1.06993
1.09792
1.13438
1.16714
1.19152
1.20672
1.21315
1.21235
1.20631
1.19746
1.18814
1.18007
1.17402
1.17176
1.17172
1.07015
1.09874
1.13596
1.16936
1.19417
1.20958
1.21605
1.21516
1.20895
1.19993
1.19047
1.18232
1.17624
1.17403
1.17409
1.07037
1.09958
1.13756
1.1716
1.19682
1.21245
1.21895
1.21797
1.2116
1.20241
1.19281
1.18458
1.17849
1.17634
1.17649
1.0706
1.10042
1.13917
1.17385
1.19949
1.21531
1.22184
1.22075
1.21422
1.20486
1.19511
1.18681
1.18073
1.17864
1.1789
1.07084
1.10128
1.1408
1.17612
1.20216
1.21818
1.22472
1.22353
1.21684
1.2073
1.19743
1.18907
1.183
1.18098
1.18135
1.07109
1.10216
1.14245
1.1784
1.20484
1.22104
1.22759
1.22629
1.21942
1.20972
1.19972
1.1913
1.18524
1.18332
1.18381
1.07136
1.10306
1.14412
1.1807
1.20753
1.2239
1.23045
1.22903
1.22199
1.21213
1.20201
1.19355
1.18753
1.18569
1.1863
1.07164
1.10398
1.14581
1.18301
1.21022
1.22675
1.23328
1.23174
1.22453
1.2145
1.20427
1.19577
1.18979
1.18806
1.1888
1.07195
1.10492
1.14752
1.18534
1.21291
1.22959
1.2361
1.23443
1.22705
1.21686
1.20653
1.19801
1.19208
1.19046
1.19134
1.07227
1.10589
1.14926
1.18769
1.2156
1.23241
1.23889
1.23708
1.22952
1.21917
1.20874
1.20021
1.19435
1.19286
1.19388
1.07262
1.10689
1.15102
1.19005
1.2183
1.23523
1.24165
1.2397
1.23197
1.22147
1.21096
1.20243
1.19666
1.19529
1.19646
1.073
1.10792
1.15281
1.19242
1.22099
1.23802
1.24438
1.24228
1.23437
1.22372
1.21313
1.20462
1.19894
1.19772
1.19904
1.07341
1.10898
1.15463
1.19481
1.22368
1.24079
1.24708
1.24482
1.23673
1.22594
1.21529
1.20682
1.20125
1.20018
1.20166
1.07385
1.11007
1.15647
1.1972
1.22636
1.24353
1.24973
1.2473
1.23904
1.22811
1.21741
1.20898
1.20354
1.20263
1.20427
1.07434
1.11121
1.15834
1.19962
1.22904
1.24625
1.25235
1.24974
1.2413
1.23025
1.21951
1.21116
1.20586
1.20512
1.20692
1.07486
1.11238
1.16025
1.20204
1.2317
1.24893
1.25491
1.25211
1.24349
1.23232
1.22156
1.21329
1.20816
1.2076
1.20956
1.07544
1.11361
1.16219
1.20448
1.23435
1.25158
1.25742
1.25443
1.24563
1.23436
1.22359
1.21543
1.21048
1.21011
1.21224
1.07605
1.11487
1.16416
1.20693
1.23698
1.25418
1.25986
1.25667
1.2477
1.23632
1.22556
1.21754
1.21278
1.21261
1.21491
1.07673
1.1162
1.16617
1.20939
1.2396
1.25674
1.26225
1.25885
1.24969
1.23823
1.22752
1.21965
1.21511
1.21514
1.21761
1.07746
1.11757
1.16821
1.21185
1.24219
1.25925
1.26456
1.26093
1.2516
1.24006
1.2294
1.22171
1.21741
1.21766
1.2203
1.07827
1.119
1.17029
1.21433
1.24476
1.26171
1.2668
1.26293
1.25343
1.24184
1.23126
1.22378
1.21974
1.22022
1.22303
1.07913
1.12049
1.17241
1.21681
1.2473
1.2641
1.26895
1.26484
1.25516
1.24352
1.23305
1.22581
1.22205
1.22276
1.22574
1.08007
1.12204
1.17457
1.2193
1.24981
1.26643
1.27101
1.26664
1.2568
1.24513
1.23481
1.22784
1.22438
1.22534
1.22849
1.08108
1.12366
1.17677
1.22179
1.25229
1.26868
1.27297
1.26833
1.25832
1.24664
1.2365
1.22982
1.22668
1.2279
1.23123
1.08218
1.12536
1.17902
1.22429
1.25472
1.27086
1.27483
1.2699
1.25973
1.24808
1.23814
1.2318
1.22901
1.2305
1.234
1.08337
1.12712
1.1813
1.22679
1.25711
1.27295
1.27657
1.27134
1.26101
1.24941
1.23971
1.23373
1.23131
1.23309
1.23676
1.08465
1.12897
1.18364
1.22929
1.25946
1.27496
1.27819
1.27265
1.26217
1.25064
1.24124
1.23567
1.23364
1.23572
1.23955
1.08602
1.13089
1.18601
1.23178
1.26175
1.27686
1.27968
1.2738
1.26318
1.25176
1.24268
1.23755
1.23595
1.23834
1.24235
1.08751
1.1329
1.18844
1.23428
1.26399
1.27866
1.28102
1.27479
1.26406
1.25278
1.24408
1.23944
1.23829
1.24099
1.24517
1.0891
1.135
1.19091
1.23676
1.26616
1.28034
1.2822
1.27562
1.26477
1.25367
1.24539
1.24127
1.24061
1.24364
1.24799
1.09082
1.13719
1.19344
1.23924
1.26826
1.2819
1.28323
1.27626
1.26532
1.25446
1.24665
1.24311
1.24295
1.24632
1.25084
1.09264
1.13947
1.196
1.24171
1.27029
1.28332
1.28407
1.27671
1.2657
1.2551
1.24783
1.24491
1.24528
1.249
1.25369
1.09461
1.14187
1.19863
1.24417
1.27224
1.2846
1.28473
1.27697
1.26591
1.25564
1.24896
1.24671
1.24764
1.25172
1.25656
1.0967
1.14435
1.20129
1.2466
1.2741
1.28572
1.28518
1.277
1.26592
1.25604
1.25001
1.24847
1.24999
1.25444
1.25944
1.09894
1.14696
1.20402
1.24903
1.27587
1.28668
1.28541
1.27682
1.26575
1.25632
1.25101
1.25024
1.25238
1.25719
1.26234
1.10132
1.14966
1.20679
1.25143
1.27753
1.28746
1.28542
1.27639
1.26538
1.25645
1.25193
1.25197
1.25476
1.25996
1.26524
1.10386
1.15249
1.20962
1.25381
1.2791
1.28805
1.28519
1.27572
1.26481
1.25646
1.2528
1.25372
1.25718
1.26276
1.26816
1.10655
1.15543
1.21249
1.25615
1.28053
1.28843
1.2847
1.2748
1.26402
1.25632
1.2536
1.25544
1.25961
1.26557
1.27108
1.10942
1.1585
1.21543
1.25847
1.28184
1.2886
1.28395
1.27361
1.26304
1.25607
1.25436
1.25718
1.26208
1.26842
1.27402
1.11244
1.16168
1.21841
1.26075
1.28301
1.28854
1.28292
1.27215
1.26182
1.25567
1.25504
1.25891
1.26456
1.2713
1.27697
1.11566
1.16501
1.22146
1.26299
1.28404
1.28825
1.28159
1.27041
1.2604
1.25515
1.2557
1.26066
1.26709
1.27421
1.27993
1.11905
1.16845
1.22454
1.26518
1.2849
1.28769
1.27996
1.26837
1.25875
1.25449
1.2563
1.26241
1.26965
1.27714
1.28289
1.12264
1.17204
1.2277
1.26733
1.2856
1.28688
1.27803
1.26605
1.25688
1.25372
1.25688
1.26419
1.27225
1.28013
1.28586
1.12641
1.17576
1.23088
1.2694
1.28611
1.28577
1.27576
1.26342
1.25479
1.25281
1.2574
1.26598
1.27489
1.28314
1.28883
1.13041
1.17963
1.23414
1.27143
1.28645
1.28438
1.27316
1.26049
1.25248
1.2518
1.25792
1.26781
1.27759
1.2862
1.29181
1.13458
1.18363
1.23743
1.27337
1.28657
1.28268
1.27021
1.25725
1.24994
1.25066
1.2584
1.26967
1.28032
1.28929
1.29482
1.139
1.1878
1.24078
1.27525
1.2865
1.28068
1.26693
1.2537
1.2472
1.24944
1.25889
1.27158
1.28312
1.29244
1.29787
1.1436
1.19209
1.24416
1.27703
1.28619
1.27835
1.26327
1.24983
1.24423
1.24809
1.25935
1.27352
1.28597
1.29563
1.30094
1.14845
1.19655
1.24759
1.27874
1.28566
1.27569
1.25927
1.24565
1.24107
1.24667
1.25984
1.27553
1.2889
1.29886
1.30404
1.1535
1.20114
1.25105
1.28033
1.28488
1.27268
1.25489
1.24115
1.23769
1.24515
1.26032
1.27759
1.29187
1.30214
1.30717
1.15881
1.2059
1.25456
1.28184
1.28387
1.26934
1.25015
1.23635
1.23412
1.24357
1.26083
1.27973
1.29493
1.30547
1.31032
1.16432
1.21078
1.25808
1.28321
1.28259
1.26563
1.24503
1.23123
1.23034
1.24192
1.26136
1.28193
1.29805
1.30884
1.31348
1.17009
1.21584
1.26165
1.28449
1.28106
1.26158
1.23955
1.22581
1.2264
1.24022
1.26195
1.28422
1.30124
1.31227
1.31666
1.17606
1.22101
1.26522
1.28562
1.27925
1.25715
1.23369
1.22007
1.22227
1.23846
1.26257
1.2866
1.30452
1.31574
1.31985
1.1823
1.22636
1.26884
1.28664
1.27719
1.25238
1.22746
1.21406
1.21799
1.23669
1.26327
1.28907
1.30787
1.31925
1.32304
1.18875
1.23182
1.27244
1.2875
1.27484
1.24722
1.22086
1.20773
1.21354
1.23488
1.26402
1.29165
1.31131
1.32281
1.32625
1.19545
1.23745
1.27609
1.28825
1.27223
1.24172
1.21391
1.20115
1.20896
1.23308
1.26488
1.29433
1.31483
1.32642
1.32946
1.20236
1.24318
1.27971
1.28883
1.26933
1.23584
1.20657
1.19427
1.20425
1.23128
1.26581
1.29713
1.31844
1.33008
1.33267
1.20953
1.24908
1.28337
1.2893
1.26617
1.22962
1.19891
1.18716
1.19944
1.22952
1.26687
1.30006
1.32213
1.33377
1.33586
1.21689
1.25508
1.287
1.28959
1.26271
1.22303
1.19088
1.17978
1.19451
1.2278
1.26803
1.30311
1.32592
1.33751
1.33906
1.2245
1.26123
1.29065
1.28976
1.259
1.21611
1.18254
1.17218
1.18953
1.22614
1.26934
1.3063
1.3298
1.34128
1.34223
1.2323
1.26747
1.29427
1.28975
1.255
1.20882
1.17384
1.16435
1.18447
1.22456
1.27079
1.30964
1.33377
1.34509
1.34539
1.24033
1.27386
1.29791
1.28962
1.25075
1.20123
1.16486
1.15634
1.1794
1.22309
1.27241
1.31312
1.33783
1.34893
1.34851
1.24854
1.28034
1.3015
1.28932
1.24621
1.19328
1.15555
1.14812
1.1743
1.22173
1.2742
1.31677
1.34199
1.35281
1.35161
1.25696
1.28695
1.3051
1.28889
1.24144
1.18504
1.14598
1.13977
1.16923
1.22054
1.27619
1.32057
1.34623
1.3567
1.35467
1.26554
1.29365
1.30865
1.28828
1.23639
1.17646
1.13611
1.13127
1.16418
1.2195
1.27838
1.32454
1.35057
1.36062
1.35769
1.27431
1.30046
1.31219
1.28755
1.23111
1.16762
1.12602
1.12268
1.15923
1.21868
1.2808
1.32869
1.355
1.36455
1.36064
1.28322
1.30735
1.31566
1.28664
1.22557
1.15847
1.11566
1.11398
1.15436
1.21807
1.28346
1.33302
1.35952
1.36849
1.36354
1.29229
1.31435
1.3191
1.2856
1.21981
1.14908
1.10512
1.10526
1.14965
1.21772
1.28637
1.33753
1.36412
1.37243
1.36636
1.30147
1.32139
1.32245
1.28437
1.21379
1.13941
1.09437
1.0965
1.14509
1.21765
1.28956
1.34223
1.36882
1.37638
1.36911
1.31079
1.32853
1.32574
1.28301
1.20758
1.12953
1.08348
1.08778
1.14077
1.21791
1.29305
1.34712
1.37359
1.3803
1.37175
1.32019
1.3357
1.32891
1.28146
1.20111
1.11939
1.07243
1.0791
1.13668
1.2185
1.29684
1.35222
1.37844
1.38422
1.3743
1.32968
1.34293
1.332
1.27976
1.19446
1.10909
1.06131
1.07054
1.13292
1.21949
1.30095
1.35751
1.38335
1.38809
1.37671
1.33921
1.35016
1.33491
1.27785
1.18757
1.09857
1.05009
1.06211
1.12949
1.22088
1.30541
1.363
1.38835
1.39195
1.379
1.34879
1.35741
1.33769
1.27578
1.18051
1.08793
1.03887
1.0539
1.12648
1.22274
1.31022
1.36869
1.39339
1.39574
1.38113
1.35836
1.3646
1.34024
1.27349
1.17322
1.07712
1.02763
1.04592
1.12389
1.22507
1.3154
1.37459
1.39849
1.39948
1.38313
1.36792
1.37175
1.34258
1.271
1.16577
1.06624
1.01647
1.03828
1.12184
1.22794
1.32097
1.38068
1.40362
1.40314
1.38495
1.3774
1.37878
1.34463
1.26826
1.1581
1.05525
1.0054
1.03099
1.12033
1.23135
1.32693
1.38698
1.40879
1.40674
1.38662
1.3868
1.38569
1.34639
1.2653
1.15028
1.04425
0.994522
1.02418
1.11948
1.23538
1.33331
1.39346
1.41397
1.41022
1.38809
1.39605
1.39238
1.34776
1.26205
1.14226
1.03322
0.98385
1.01786
1.1193
1.24002
1.3401
1.40013
1.41916
1.41361
1.38936
1.40512
1.39884
1.34873
1.25854
1.13409
1.02227
0.973513
1.01219
1.1199
1.24535
1.34732
1.40698
1.42432
1.41685
1.39038
1.41394
1.40495
1.3492
1.25469
1.12572
1.01138
0.963537
1.00719
1.12131
1.25138
1.35497
1.41399
1.42948
1.41997
1.39118
1.42248
1.41067
1.34914
1.25051
1.11721
1.00067
0.954076
1.00302
1.12366
1.25815
1.36305
1.42115
1.43457
1.42291
1.39171
1.43064
1.41589
1.34844
1.24592
1.1085
0.990152
0.945183
0.999757
1.12697
1.26568
1.37157
1.42846
1.43961
1.42568
1.39198
1.43838
1.42053
1.34704
1.24091
1.09964
0.979962
0.937035
0.997559
1.13137
1.27403
1.38052
1.43588
1.44456
1.42824
1.39195
1.4456
1.42446
1.34481
1.23537
1.09059
0.970137
0.929726
0.996521
1.13691
1.2832
1.3899
1.44341
1.44941
1.43059
1.39162
1.45221
1.42756
1.34167
1.22925
1.08136
0.960835
0.923473
0.99684
1.14371
1.29324
1.3997
1.45101
1.45411
1.43267
1.39095
1.45813
1.42968
1.33746
1.22242
1.0719
0.952138
0.918419
0.998642
1.15183
1.30416
1.40991
1.45867
1.45867
1.43449
1.38994
1.46325
1.43067
1.33207
1.21476
1.06223
0.944248
0.914838
1.00215
1.16139
1.31599
1.4205
1.46634
1.46304
1.436
1.38853
1.46746
1.43035
1.32531
1.20604
1.05228
0.937319
0.912954
1.00754
1.17246
1.32873
1.43147
1.47402
1.4672
1.43719
1.38673
1.47063
1.42853
1.317
1.19603
1.04203
0.931644
0.913127
1.01508
1.18516
1.3424
1.44278
1.48165
1.4711
1.438
1.38448
1.47266
1.42498
1.3069
1.18436
1.03141
0.927527
0.91571
1.02498
1.19959
1.35701
1.4544
1.48921
1.47473
1.43842
1.38178
1.47341
1.41946
1.29473
1.17053
1.02033
0.925482
0.921239
1.03759
1.21585
1.37257
1.46631
1.49664
1.47804
1.43841
1.37857
1.47277
1.41169
1.28014
1.15377
1.00877
0.926122
0.930314
1.05323
1.23406
1.38906
1.47846
1.50393
1.48101
1.43795
1.37486
1.47063
1.40135
1.26278
1.13367
0.997155
0.929537
0.94344
1.07225
1.25434
1.4065
1.49081
1.511
1.48358
1.43697
1.37058
1.46696
1.38796
1.24182
1.11035
0.985713
0.934432
0.960308
1.0947
1.2767
1.42483
1.50333
1.51784
1.48574
1.43547
1.36573
1.46176
1.37078
1.21502
1.08423
0.974379
0.939531
0.980074
1.12023
1.30102
1.44399
1.51593
1.52438
1.48742
1.43339
1.36025
1.45516
1.34745
1.18084
1.0564
0.963377
0.944432
1.00177
1.14815
1.32694
1.46379
1.52852
1.53056
1.48861
1.43073
1.35414
1.44694
1.31655
1.1431
1.02938
0.953291
0.949024
1.02437
1.17751
1.3539
1.48394
1.54095
1.5363
1.48923
1.42743
1.34734
1.43593
1.27981
1.10723
1.00513
0.944157
0.953128
1.04669
1.20711
1.38115
1.50404
1.55302
1.54148
1.48924
1.42347
1.33984
1.42049
1.2399
1.07505
0.98326
0.93509
0.956444
1.0676
1.23562
1.40778
1.52356
1.56444
1.54596
1.48853
1.4188
1.33158
1.39918
1.19837
1.04699
0.962586
0.924968
0.958453
1.0861
1.26188
1.43284
1.54193
1.57488
1.54955
1.48702
1.41333
1.32252
1.37064
1.15523
1.02277
0.941464
0.912615
0.958192
1.10112
1.28504
1.45563
1.55858
1.58397
1.55201
1.48454
1.40695
1.31259
1.33343
1.11246
1.00034
0.917174
0.896491
0.954373
1.1117
1.30465
1.47577
1.5732
1.59146
1.55315
1.48097
1.39951
1.30174
1.28538
1.07336
0.975577
0.885126
0.874429
0.945877
1.11744
1.3207
1.4932
1.58562
1.59716
1.55283
1.47614
1.39079
1.28987
1.22314
1.03655
0.942453
0.83834
0.843167
0.93156
1.11811
1.33342
1.50807
1.59584
1.601
1.55093
1.46994
1.38062
1.27689
1.13848
0.996321
0.890518
0.770285
0.800649
0.910955
1.11298
1.34254
1.52033
1.60377
1.60288
1.54733
1.46216
1.36882
1.26265
1.04134
0.957044
0.807571
0.68322
0.753231
0.890105
1.1032
1.34739
1.52946
1.60906
1.60255
1.54176
1.45254
1.35516
1.24695
0.963309
0.926552
0.70458
0.597862
0.714776
0.881307
1.09824
1.34974
1.53536
1.61138
1.59965
1.53383
1.44067
1.33924
1.22941
0.926313
0.902829
0.631962
0.546931
0.697474
0.885332
1.10616
1.35463
1.53977
1.61124
1.59421
1.52328
1.42605
1.32057
1.20949
0.926516