/*--------------------------------*- C++ -*----------------------------------*\
  =========                 |
  \\      /  F ield         | OpenFOAM: The Open Source CFD Toolbox
   \\    /   O peration     | Website:  https://openfoam.org
    \\  /    A nd           | Version:  6.0
     \\/     M anipulation  |
\*---------------------------------------------------------------------------*/
FoamFile
{
    version     2.0;
    format      ascii;
    class       surfaceScalarField;
    location    "8";
    object      phi;
}
// * * * * * * * * * * * * * * * * * * * * * * * * * * * * * * * * * * * * * //

dimensions      [0 3 -1 0 0 0 0];

internalField   nonuniform List<scalar> 
68636
(
3.72386e-05
0.00309852
5.90018e-08
7.50638e-05
0.00306319
0.000112368
0.00299491
0.000148451
0.00289469
0.000182976
0.002763
0.00021559
0.00260013
0.000245944
0.00240739
0.000273623
0.00218753
0.000298297
0.0019436
0.000319655
0.00167882
0.000337467
0.00139591
0.000351535
0.00109759
0.000361745
0.000786896
0.000367974
0.000464219
0.000123282
0.000365425
3.6891e-05
0.00306159
3.69421e-08
7.42516e-05
0.00302584
0.000111031
0.00295818
0.000146614
0.00285918
0.000180716
0.00272902
0.000212978
0.00256798
0.000243023
0.0023775
0.000270414
0.00216029
0.000294818
0.00191937
0.000315931
0.00165786
0.000333535
0.00137848
0.000347411
0.00108389
0.000357602
0.000776932
0.000363495
0.000458624
0.000125419
0.000361886
3.64706e-05
0.00302511
9.52242e-09
7.33316e-05
0.00298897
0.000109614
0.00292192
0.000144766
0.00282403
0.000178505
0.00269532
0.000210448
0.00253605
0.000240188
0.00234779
0.000267288
0.00213319
0.000291415
0.00189526
0.000312279
0.00163698
0.00032967
0.00136108
0.000343354
0.00107019
0.000353406
0.000766852
0.000359462
0.000452513
0.000125261
0.000359402
3.6007e-05
0.00298911
-1.0279e-08
7.23711e-05
0.00295261
0.000108193
0.00288613
0.000142956
0.0027893
0.000176358
0.00266198
0.000207985
0.00250448
0.000237416
0.00231844
0.000264217
0.00210647
0.000288065
0.00187152
0.000308677
0.00161647
0.000325854
0.00134402
0.000339357
0.00105682
0.000349209
0.000757166
0.000355251
0.000446697
0.000124952
0.000355947
3.55366e-05
0.00295359
-2.15879e-08
7.14221e-05
0.00291672
0.000106811
0.00285075
0.000141203
0.0027549
0.000174271
0.00262893
0.000205577
0.00247316
0.000234692
0.00228933
0.000261189
0.00207995
0.000284754
0.00184795
0.000305115
0.00159608
0.000322079
0.00132704
0.000335412
0.00104344
0.000345071
0.000747459
0.000350941
0.000440747
0.000123768
0.000351873
3.5074e-05
0.00291854
-2.52772e-08
7.0502e-05
0.00288129
0.000105477
0.00281579
0.000139507
0.00272089
0.000172237
0.00259624
0.000203214
0.00244222
0.000232005
0.0022606
0.000258195
0.00205382
0.000281477
0.00182474
0.000301588
0.00157604
0.000318339
0.00131038
0.000331508
0.00103038
0.000341
0.000738103
0.000346682
0.00043525
0.00012309
0.000347678
3.46243e-05
0.00288395
-3.62438e-08
6.96147e-05
0.00284629
0.000104191
0.00278121
0.000137862
0.00268721
0.00017025
0.00256386
0.00020089
0.00241155
0.000229352
0.00223213
0.000255231
0.00202791
0.000278231
0.00180172
0.000298093
0.00155614
0.000314633
0.00129381
0.000327641
0.00101732
0.000336988
0.000728699
0.000342517
0.000429628
0.000121807
0.000343536
3.41896e-05
0.0028498
-4.274e-08
6.87603e-05
0.00281172
0.000102949
0.00274704
0.000136262
0.00265391
0.000168303
0.00253184
0.0001986
0.00238128
0.000226729
0.00220404
0.000252296
0.00200239
0.000275013
0.00177906
0.00029463
0.00153659
0.000310961
0.00127755
0.000323808
0.00100457
0.000333022
0.000719604
0.000338432
0.000424379
0.000121037
0.000339479
3.37701e-05
0.00281606
-3.82978e-08
6.79367e-05
0.00277755
0.000101746
0.00271322
0.0001347
0.00262095
0.000166389
0.00250016
0.000196338
0.00235131
0.000224132
0.00217624
0.000249387
0.00197711
0.000271825
0.00175661
0.000291197
0.00151718
0.000307322
0.00126139
0.00032001
0.000991831
0.000329098
0.000710452
0.000334413
0.000418963
0.000119694
0.000335488
3.33649e-05
0.00278272
-2.67582e-08
6.71403e-05
0.00274377
0.000100576
0.0026798
0.00013317
0.00258836
0.000164503
0.00246885
0.000194101
0.00232174
0.000221559
0.00214881
0.000246504
0.0019522
0.000268664
0.0017345
0.000287795
0.0014981
0.000303716
0.00124554
0.000316246
0.000979383
0.000325213
0.00070159
0.000330447
0.000413871
0.00011883
0.000331559
3.29723e-05
0.00274975
-1.40176e-08
6.63667e-05
0.00271037
9.94335e-05
0.00264673
0.000131666
0.00255612
0.00016264
0.00243787
0.000191886
0.00229247
0.000219008
0.00212168
0.000243645
0.00192753
0.00026553
0.00171259
0.000284424
0.00147917
0.000300145
0.00122978
0.000312517
0.000966958
0.000321367
0.000692672
0.000326529
0.000408601
0.000117416
0.000327673
3.25903e-05
0.00271716
-7.53347e-10
6.56113e-05
0.00267735
9.83117e-05
0.00261403
0.000130182
0.00252426
0.000160795
0.00240727
0.000189689
0.00226359
0.000216478
0.00209492
0.00024081
0.00190324
0.000262424
0.00169102
0.000281084
0.00146056
0.000296609
0.00121431
0.000308826
0.000954815
0.000317561
0.000684033
0.000322657
0.000403635
0.000116466
0.000323834
3.22168e-05
0.00268492
1.52988e-08
6.48704e-05
0.00264469
9.72063e-05
0.00258169
0.000128714
0.00249274
0.000158967
0.00237702
0.00018751
0.00223502
0.000213968
0.00206845
0.000237999
0.00187918
0.000259346
0.00166965
0.000277776
0.00144209
0.000293107
0.00119894
0.000305172
0.000942696
0.000313795
0.000675339
0.000318829
0.000398488
0.000114995
0.000320031
3.18502e-05
0.00265304
3.01142e-08
6.41406e-05
0.0026124
9.61136e-05
0.00254972
0.000127259
0.0024616
0.000157151
0.00234714
0.000185346
0.00220684
0.000211478
0.00204234
0.000235212
0.00185547
0.000256296
0.0016486
0.000274499
0.00142393
0.000289641
0.00118385
0.000301556
0.000930849
0.00031007
0.000666913
0.000315044
0.000393631
0.00011398
0.00031627
3.14891e-05
0.0026215
4.09671e-08
6.34193e-05
0.00258046
9.50308e-05
0.00251811
0.000125814
0.0024308
0.000155349
0.0023176
0.000183198
0.00217897
0.000209007
0.00201651
0.000232449
0.001832
0.000253274
0.00162775
0.000271255
0.00140591
0.000286211
0.00116885
0.000297978
0.000919026
0.000306386
0.000658431
0.000311302
0.000388597
0.00011247
0.000312544
3.11321e-05
0.00259032
4.83103e-08
6.27047e-05
0.00254889
9.39559e-05
0.00248686
0.000124379
0.00240039
0.000153558
0.00228843
0.000181066
0.00215148
0.000206557
0.00199104
0.000229711
0.00180887
0.000250282
0.00160721
0.000268044
0.00138819
0.000282816
0.00115413
0.000294439
0.000907467
0.000302743
0.00065021
0.000307603
0.000383845
0.000111413
0.00030886
3.07786e-05
0.00255948
5.34662e-08
6.19954e-05
0.00251767
9.28879e-05
0.00245596
0.000122953
0.00237031
0.000151779
0.0022596
0.00017895
0.00212428
0.000204127
0.00196585
0.000226998
0.00178597
0.000247318
0.00158687
0.000264865
0.0013706
0.000279458
0.00113949
0.000290939
0.000895929
0.000299142
0.000641932
0.000303946
0.00037892
0.000109883
0.000305211
3.04279e-05
0.002529
5.60612e-08
6.12905e-05
0.0024868
9.18259e-05
0.00242543
0.000121535
0.00234061
0.000150012
0.00223113
0.00017685
0.00209746
0.000201719
0.001941
0.000224311
0.00176341
0.000244384
0.00156682
0.00026172
0.00135331
0.000276136
0.00112512
0.000287477
0.000884647
0.000295581
0.000633905
0.000300332
0.000374269
0.000108799
0.000301604
3.00797e-05
0.00249885
5.61042e-08
6.05898e-05
0.00245629
9.077e-05
0.00239524
0.000120126
0.00231124
0.000148257
0.00220299
0.000174768
0.00207093
0.000199332
0.00191641
0.000221649
0.00174106
0.000241481
0.00154697
0.000258608
0.00133614
0.000272851
0.00111083
0.000284055
0.000873385
0.000292062
0.000625822
0.00029676
0.000369448
0.000107262
0.000298034
2.97337e-05
0.00246906
5.47208e-08
5.9893e-05
0.00242613
8.97201e-05
0.00236541
0.000118726
0.00228224
0.000146516
0.00217521
0.000172703
0.00204475
0.000196968
0.00189217
0.000219015
0.00171904
0.000238608
0.0015274
0.00025553
0.00131925
0.000269603
0.00109681
0.000280672
0.000862372
0.000288584
0.000617983
0.000293229
0.000364896
0.000106164
0.000294506
2.93899e-05
0.00243961
5.27708e-08
5.92003e-05
0.00239631
8.86768e-05
0.00233593
0.000117336
0.00225357
0.000144789
0.00214775
0.000170657
0.00201886
0.000194627
0.00186818
0.000216408
0.00169723
0.000235766
0.00150802
0.000252486
0.00130249
0.000266391
0.00108286
0.000277328
0.000851377
0.000285146
0.000610088
0.00028974
0.000360177
0.000104631
0.000291015
2.90484e-05
0.00241051
5.04246e-08
5.85118e-05
0.00236685
8.76404e-05
0.0023068
0.000115956
0.00222526
0.000143077
0.00212063
0.00016863
0.00199332
0.00019231
0.00184451
0.000213829
0.00167573
0.000232955
0.00148891
0.000249476
0.00128601
0.000263216
0.00106916
0.000274022
0.000840622
0.000281749
0.000602429
0.000286292
0.000355721
0.000103527
0.000287566
2.87091e-05
0.00238175
4.79209e-08
5.78279e-05
0.00233772
8.66116e-05
0.00227801
0.000114588
0.00219727
0.00014138
0.00209383
0.000166624
0.00196805
0.000190016
0.0018211
0.000211277
0.00165444
0.000230176
0.00146999
0.0002465
0.00126964
0.000260077
0.00105554
0.000270755
0.000829886
0.000278392
0.000594716
0.000282885
0.000351101
0.000102001
0.000284154
2.83723e-05
0.00235333
4.55499e-08
5.7149e-05
0.00230894
8.55907e-05
0.00224957
0.000113231
0.00216963
0.000139699
0.00206737
0.000164637
0.00194312
0.000187748
0.001798
0.000208754
0.00163345
0.000227427
0.00145134
0.000243559
0.00125355
0.000256975
0.00104216
0.000267527
0.000819384
0.000275075
0.000587233
0.000279518
0.00034674
0.000100896
0.000280785
2.80381e-05
0.00232524
4.35326e-08
5.64754e-05
0.0022805
8.45784e-05
0.00222146
0.000111887
0.00214231
0.000138035
0.00204121
0.000162672
0.00191847
0.000185504
0.00177515
0.000206259
0.00161267
0.00022471
0.00143286
0.000240651
0.00123757
0.000253909
0.00102886
0.000264336
0.000808899
0.000271797
0.000579696
0.000276192
0.000342217
9.9385e-05
0.000277452
2.77066e-05
0.00229749
4.17541e-08
5.58073e-05
0.0022524
8.35751e-05
0.00219369
0.000110556
0.00211533
0.000136388
0.00201538
0.000160727
0.00189414
0.000183285
0.00175261
0.000203793
0.00159218
0.000222025
0.00141465
0.000237777
0.00122184
0.000250879
0.00101579
0.000261183
0.000798641
0.000268558
0.000572383
0.000272905
0.000337946
9.82818e-05
0.000274161
2.7378e-05
0.00227006
4.02899e-08
5.51452e-05
0.00222462
8.25812e-05
0.00216625
0.000109238
0.00208867
0.000134758
0.00198985
0.000158804
0.00187007
0.000181092
0.0017303
0.000201355
0.0015719
0.000219371
0.00139661
0.000234937
0.00120624
0.000247885
0.0010028
0.000258068
0.0007884
0.000265358
0.000565017
0.000269657
0.000333518
9.67833e-05
0.000270905
2.70525e-05
0.00224297
3.90596e-08
5.44893e-05
0.00219719
8.15971e-05
0.00213914
0.000107933
0.00206233
0.000133146
0.00196465
0.000156903
0.00184632
0.000178923
0.00170829
0.000198945
0.00155189
0.000216748
0.00137883
0.000232131
0.00119089
0.000244926
0.00099004
0.00025499
0.000778381
0.000262196
0.00055787
0.000266448
0.000329339
9.56827e-05
0.000267691
2.67301e-05
0.00221619
3.8118e-08
5.38399e-05
0.00217007
8.0623e-05
0.00211235
0.000106643
0.00203631
0.000131552
0.00193973
0.000155023
0.00182283
0.00017678
0.00168652
0.000196564
0.00153208
0.000214156
0.00136121
0.000229358
0.00117565
0.000242003
0.000977351
0.000251949
0.000768377
0.000259072
0.000550671
0.000263277
0.000325004
9.42052e-05
0.000264511
2.64109e-05
0.00218974
3.73263e-08
5.3197e-05
0.00214328
7.96593e-05
0.00208589
0.000105366
0.0020106
0.000129976
0.00191512
0.000153165
0.00179965
0.000174662
0.00166503
0.000194211
0.00151255
0.000211595
0.00134385
0.000226618
0.00116065
0.000239114
0.000964889
0.000248944
0.00075859
0.000255985
0.000543685
0.000260144
0.000320912
9.3106e-05
0.000261372
2.60951e-05
0.0021636
3.67384e-08
5.2561e-05
0.00211681
7.8706e-05
0.00205974
0.000104104
0.00198519
0.000128418
0.0018908
0.000151329
0.00177672
0.000172569
0.00164377
0.000191886
0.00149321
0.000209064
0.00132664
0.00022391
0.00114577
0.00023626
0.000952495
0.000245975
0.000748818
0.000252936
0.000536649
0.000257049
0.000316669
9.16161e-05
0.000258268
2.57827e-05
0.00213778
3.62411e-08
5.19318e-05
0.00209066
7.77633e-05
0.00203391
0.000102857
0.0019601
0.000126878
0.00186678
0.000149515
0.00175409
0.000170501
0.0016228
0.000189589
0.00147413
0.000206564
0.00130968
0.000221235
0.00113113
0.00023344
0.000940323
0.000243042
0.000739258
0.000249923
0.000529821
0.000253991
0.000312664
9.05178e-05
0.000255204
2.54737e-05
0.00211227
3.58911e-08
5.13097e-05
0.00206482
7.68314e-05
0.00200838
0.000101623
0.0019353
0.000125356
0.00184304
0.000147722
0.00173171
0.000168458
0.00160204
0.000187319
0.00145525
0.000204094
0.00129288
0.000218593
0.00111659
0.000230655
0.000928218
0.000240144
0.000729712
0.000246946
0.000522944
0.00025097
0.000308509
8.90355e-05
0.000252173
2.51683e-05
0.00208706
3.55767e-08
5.06945e-05
0.00203929
7.59101e-05
0.00198316
0.000100404
0.0019108
0.000123852
0.00181959
0.00014595
0.00170961
0.000166439
0.00158156
0.000185077
0.00143663
0.000201653
0.00127632
0.000215982
0.00110229
0.000227902
0.000916328
0.000237281
0.000720372
0.000244005
0.00051627
0.000247984
0.000304588
8.79465e-05
0.000249182
2.48663e-05
0.00206215
3.53646e-08
5.00865e-05
0.00201406
7.49995e-05
0.00195824
9.92e-05
0.0018866
0.000122366
0.00179642
0.0001442
0.00168776
0.000164445
0.0015613
0.000182861
0.00141819
0.000199242
0.00125992
0.000213402
0.0010881
0.000225183
0.000904504
0.000234453
0.000711047
0.0002411
0.000509548
0.000245035
0.000300521
8.64552e-05
0.000246225
2.45678e-05
0.00203754
3.51538e-08
4.94855e-05
0.00198914
7.40997e-05
0.00193363
9.80098e-05
0.00186268
0.000120898
0.00177353
0.000142471
0.00166619
0.000162475
0.0015413
0.000180673
0.0014
0.000196861
0.00124375
0.000210854
0.00107413
0.000222497
0.000892892
0.000231658
0.000701923
0.000238229
0.000503025
0.000242121
0.000296683
8.53821e-05
0.000243308
2.42729e-05
0.00201323
3.50139e-08
4.88915e-05
0.00196452
7.32105e-05
0.0019093
9.68339e-05
0.00183905
0.000119448
0.00175091
0.000140763
0.00164486
0.000160529
0.00152152
0.000178511
0.001382
0.000194508
0.00122773
0.000208337
0.00106026
0.000219843
0.000881343
0.000228898
0.000692813
0.000235393
0.000496457
0.000239242
0.000292703
8.38989e-05
0.000240422
2.39814e-05
0.00198921
3.48492e-08
4.83047e-05
0.00194019
7.23319e-05
0.00188527
9.56721e-05
0.00181571
0.000118015
0.00172857
0.000139076
0.00162381
0.000158606
0.001502
0.000176376
0.00136424
0.000192183
0.00121193
0.000205849
0.00104662
0.000217221
0.00087
0.000226171
0.0006839
0.00023259
0.000490082
0.000236397
0.000288946
8.28449e-05
0.000237577
2.36934e-05
0.00196548
3.47375e-08
4.77248e-05
0.00191615
7.14639e-05
0.00186153
9.45244e-05
0.00179264
0.0001166
0.00170648
0.000137409
0.00160298
0.000156707
0.00148268
0.000174266
0.00134666
0.000189887
0.00119629
0.000203393
0.00103308
0.000214631
0.000858719
0.000223476
0.000675001
0.000229822
0.000483663
0.000233587
0.000285051
8.13863e-05
0.00023476
2.34089e-05
0.00194203
3.45875e-08
4.71519e-05
0.00189241
7.06064e-05
0.00183807
9.33905e-05
0.00176986
0.000115202
0.00168467
0.000135763
0.00158242
0.000154831
0.00146362
0.000172182
0.00132932
0.000187619
0.00118087
0.000200965
0.00101976
0.000212073
0.000847641
0.000220814
0.000666294
0.000227087
0.000477433
0.000230809
0.000281376
8.03566e-05
0.000231978
2.31278e-05
0.00191886
3.44791e-08
4.65858e-05
0.00186894
6.97592e-05
0.00181489
9.22704e-05
0.00174734
0.000113821
0.00166311
0.000134137
0.0015621
0.000152978
0.00144477
0.000170123
0.00131215
0.000185378
0.00116559
0.000198568
0.00100653
0.000209545
0.000836623
0.000218185
0.0006576
0.000224385
0.000471161
0.000228066
0.000277567
7.89367e-05
0.000229226
2.28501e-05
0.00189597
3.43226e-08
4.60267e-05
0.00184576
6.89223e-05
0.00179199
9.1164e-05
0.0017251
0.000112457
0.00164182
0.00013253
0.00154202
0.000151147
0.00142615
0.00016809
0.00129522
0.000183164
0.00115053
0.000196199
0.00099352
0.000207048
0.000825802
0.000215587
0.000649093
0.000221715
0.000465073
0.000225354
0.000273973
7.79325e-05
0.000226509
2.25758e-05
0.00187336
3.42033e-08
4.54743e-05
0.00182286
6.80956e-05
0.00176937
9.0071e-05
0.00170311
0.000111109
0.00162077
0.000130943
0.00152218
0.000149339
0.00140774
0.000166081
0.00127846
0.000180978
0.00113561
0.000193859
0.000980607
0.000204581
0.000815039
0.00021302
0.0006406
0.000219078
0.000458944
0.000222676
0.000270249
7.65526e-05
0.000223822
2.23048e-05
0.00185101
3.40331e-08
4.49286e-05
0.00180023
6.72789e-05
0.00174701
8.89913e-05
0.0016814
0.000109778
0.00159999
0.000129376
0.00150258
0.000147553
0.00138957
0.000164097
0.00126192
0.000178818
0.0011209
0.000191548
0.000967897
0.000202144
0.00080447
0.000210485
0.000632291
0.000216473
0.000452995
0.00022003
0.000266734
7.55706e-05
0.000221169
2.20372e-05
0.00182894
3.38971e-08
4.43896e-05
0.00177787
6.64722e-05
0.00172493
8.79248e-05
0.00165994
0.000108463
0.00157944
0.000127828
0.0014832
0.000145789
0.00137159
0.000162137
0.00124556
0.000176684
0.00110633
0.000189264
0.000955286
0.000199736
0.000793959
0.00020798
0.000623995
0.000213899
0.000447005
0.000217416
0.000263093
7.42282e-05
0.000218546
2.17728e-05
0.00180713
3.37057e-08
4.38571e-05
0.00175578
6.56753e-05
0.0017031
8.68713e-05
0.00163874
0.000107165
0.00155914
0.000126298
0.00146407
0.000144046
0.00135385
0.000160201
0.00122941
0.000174576
0.00109196
0.000187009
0.000942872
0.000197358
0.000783635
0.000205505
0.000615877
0.000211356
0.000441192
0.000214833
0.000259656
7.32634e-05
0.000215956
2.15116e-05
0.00178558
3.35486e-08
4.33311e-05
0.00173396
6.48881e-05
0.00168154
8.58307e-05
0.00161779
0.000105882
0.00153909
0.000124787
0.00144515
0.000142325
0.00133629
0.000158288
0.00121343
0.000172494
0.00107773
0.00018478
0.000930555
0.000195008
0.000773368
0.000203061
0.000607772
0.000208844
0.000435339
0.000212282
0.000256095
7.19549e-05
0.000213395
2.12536e-05
0.00176428
3.33364e-08
4.28116e-05
0.0017124
6.41105e-05
0.00166024
8.48028e-05
0.00159709
0.000104614
0.00151927
0.000123295
0.00142647
0.000140624
0.00131897
0.000156399
0.00119766
0.000170437
0.00106371
0.000182579
0.000918432
0.000192687
0.000763285
0.000200646
0.000599843
0.000206362
0.000429658
0.000209761
0.000252734
7.10047e-05
0.000210867
2.09987e-05
0.00174325
3.31586e-08
4.22983e-05
0.00169109
6.33425e-05
0.00163919
8.37874e-05
0.00157664
0.000103363
0.00149969
0.000121821
0.001408
0.000138945
0.00130183
0.000154533
0.00118206
0.000168405
0.00104981
0.000180405
0.000906402
0.000190394
0.000753256
0.00019826
0.000591926
0.000203911
0.000423938
0.000207271
0.000249253
6.97273e-05
0.000208367
2.0747e-05
0.00172246
3.29239e-08
4.17914e-05
0.00167004
6.25838e-05
0.00161839
8.27845e-05
0.00155644
0.000102126
0.00148035
0.000120365
0.00138976
0.000137286
0.00128491
0.000152689
0.00116666
0.000166398
0.00103611
0.000178256
0.000894562
0.000188129
0.000743408
0.000195903
0.00058418
0.000201488
0.000418387
0.000204811
0.000245965
6.87891e-05
0.000205899
2.04983e-05
0.00170193
3.27263e-08
4.12906e-05
0.00164925
6.18344e-05
0.00159785
8.17938e-05
0.00153647
0.000100905
0.00146123
0.000118927
0.00137173
0.000135647
0.00126818
0.000150868
0.00115142
0.000164416
0.00102254
0.000176134
0.000882813
0.000185892
0.000733612
0.000193575
0.000576445
0.000199096
0.000412797
0.00020238
0.000242562
6.75403e-05
0.000203458
2.02527e-05
0.00168164
3.24741e-08
4.0796e-05
0.0016287
6.10941e-05
0.00157754
8.08152e-05
0.00151675
9.96987e-05
0.00144234
0.000117507
0.00135392
0.000134028
0.00125166
0.000149069
0.00113638
0.000162457
0.00100917
0.000174038
0.000871249
0.000183681
0.000723993
0.000191275
0.000568879
0.000196732
0.000407373
0.000199979
0.000239347
6.66135e-05
0.000201049
2.00101e-05
0.00166159
3.22601e-08
4.03074e-05
0.0016084
6.03628e-05
0.00155748
7.98486e-05
0.00149726
9.85072e-05
0.00142368
0.000116103
0.00133631
0.000132429
0.00123532
0.000147293
0.0011215
0.000160523
0.000995915
0.000171968
0.000859775
0.000181497
0.000714425
0.000189003
0.000561324
0.000194397
0.000401911
0.000197607
0.000236019
6.53919e-05
0.000198667
1.97704e-05
0.00164178
3.19893e-08
3.98247e-05
0.00158833
5.96405e-05
0.00153766
7.88938e-05
0.001478
9.73301e-05
0.00140524
0.000114717
0.00131892
0.00013085
0.00121919
0.000145537
0.00110682
0.000158612
0.00098285
0.000169922
0.000848481
0.00017934
0.000705029
0.000186758
0.000553932
0.00019209
0.00039661
0.000195263
0.000232875
6.44755e-05
0.000196316
1.95336e-05
0.00162221
3.1759e-08
3.9348e-05
0.00156852
5.8927e-05
0.00151808
7.79506e-05
0.00145897
9.61675e-05
0.00138701
0.000113348
0.00130173
0.000129289
0.00120323
0.000143804
0.00109229
0.000156724
0.000969909
0.000167901
0.000837275
0.000177209
0.000695684
0.000184541
0.000546551
0.000189811
0.000391273
0.000192948
0.000229621
6.32796e-05
0.00019399
1.92998e-05
0.00160287
3.14739e-08
3.88771e-05
0.00154893
5.82223e-05
0.00149873
7.7019e-05
0.00144017
9.5019e-05
0.00136901
0.000111996
0.00128475
0.000127748
0.00118748
0.000142091
0.00107795
0.000154859
0.00095715
0.000165905
0.000826244
0.000175104
0.000686507
0.00018235
0.00053933
0.000187559
0.000386094
0.000190661
0.000226547
6.23742e-05
0.000191695
1.90688e-05
0.00158377
3.123e-08
3.84119e-05
0.00152959
5.75261e-05
0.00147961
7.60987e-05
0.00142159
9.38847e-05
0.00135122
0.00011066
0.00126797
0.000126226
0.0011719
0.0001404
0.00106376
0.000153017
0.000944511
0.000163934
0.000815299
0.000173025
0.000677379
0.000180186
0.00053212
0.000185335
0.000380878
0.000188401
0.000223366
6.12035e-05
0.000189425
1.88406e-05
0.00156489
3.09297e-08
3.79524e-05
0.00151046
5.68384e-05
0.00146072
7.51897e-05
0.00140323
9.27641e-05
0.00133364
0.00010934
0.00125139
0.000124722
0.00115652
0.000138728
0.00104976
0.000151198
0.000932051
0.000161986
0.000804525
0.000170971
0.000668415
0.000178048
0.000525066
0.000183138
0.000375817
0.000186169
0.000220359
6.03085e-05
0.000187185
1.86152e-05
0.00154625
3.06734e-08
3.74985e-05
0.00149158
5.61592e-05
0.00144205
7.42918e-05
0.0013851
9.16573e-05
0.00131627
0.000108037
0.001235
0.000123237
0.00114131
0.000137078
0.0010359
0.0001494
0.000919708
0.000160062
0.000793836
0.000168941
0.000659499
0.000175937
0.000518022
0.000180967
0.00037072
0.000183964
0.000217249
5.91621e-05
0.000184969
1.83926e-05
0.00152781
3.03635e-08
3.70502e-05
0.00147291
5.54882e-05
0.00142361
7.34049e-05
0.00136717
9.0564e-05
0.0012991
0.000106749
0.00121881
0.00012177
0.00112629
0.000135447
0.00102223
0.000147625
0.000907539
0.000158161
0.000783314
0.000166937
0.000650743
0.000173851
0.000511132
0.000178823
0.000365774
0.000181785
0.000214308
5.82784e-05
0.000182783
1.81726e-05
0.00150961
3.0098e-08
3.66073e-05
0.00145448
5.48254e-05
0.00140539
7.25288e-05
0.00134946
8.94841e-05
0.00128214
0.000105478
0.00120281
0.00012032
0.00111144
0.000133837
0.0010087
0.000145871
0.000895485
0.000156284
0.000772874
0.000164957
0.000642035
0.00017179
0.00050425
0.000176704
0.000360794
0.000179633
0.000211268
5.71558e-05
0.00018062
1.79554e-05
0.00149162
2.97759e-08
3.61699e-05
0.00143625
5.41707e-05
0.00138738
7.16633e-05
0.00133196
8.84173e-05
0.00126538
0.000104221
0.001187
0.000118889
0.00109677
0.000132246
0.000995342
0.000144138
0.000883599
0.000154429
0.000762596
0.000163
0.000633482
0.000169754
0.000497519
0.000174612
0.000355961
0.000177507
0.000208393
5.62829e-05
0.000178485
1.77408e-05
0.00147385
2.95e-08
3.57377e-05
0.00141826
5.3524e-05
0.00136959
7.08085e-05
0.00131468
8.73636e-05
0.00124882
0.000102981
0.00117138
0.000117475
0.00108226
0.000130674
0.000982127
0.000142427
0.000871827
0.000152597
0.0007524
0.000161068
0.000624976
0.000167743
0.000490796
0.000172544
0.000351095
0.000175407
0.00020542
5.51836e-05
0.000176375
1.75288e-05
0.00145628
2.91694e-08
3.53109e-05
0.00140046
5.28851e-05
0.00135201
6.99641e-05
0.00129759
8.63227e-05
0.00123246
0.000101755
0.00115594
0.000116078
0.00106794
0.000129122
0.000969085
0.000140737
0.00086022
0.000150787
0.000742361
0.000159159
0.000616622
0.000165756
0.000484221
0.000170502
0.000346372
0.000173332
0.000202608
5.43226e-05
0.000174291
1.73194e-05
0.00143893
2.88846e-08
3.48893e-05
0.00138289
5.22541e-05
0.00133465
6.913e-05
0.00128071
8.52946e-05
0.00121629
0.000100544
0.00114068
0.000114698
0.00105378
0.000127589
0.000956181
0.000139067
0.000848723
0.000148999
0.000732403
0.000157273
0.000608313
0.000163793
0.000477653
0.000168485
0.000341617
0.000171282
0.000199702
5.32462e-05
0.000172231
1.71126e-05
0.00142178
2.85428e-08
3.44728e-05
0.00136552
5.16308e-05
0.00131748
6.83061e-05
0.00126403
8.4279e-05
0.00120031
9.93482e-05
0.00112561
0.000113335
0.00103979
0.000126074
0.000943443
0.000137417
0.000837386
0.000147233
0.000722598
0.000155411
0.000600153
0.000161855
0.000471229
0.000166492
0.000337002
0.000169257
0.000196953
5.23967e-05
0.000170197
1.69083e-05
0.00140484
2.82489e-08
3.40613e-05
0.00134837
5.10151e-05
0.00130052
6.74923e-05
0.00124755
8.32759e-05
0.00118452
9.81669e-05
0.00111071
0.000111989
0.00102596
0.000124578
0.000930841
0.000135788
0.000826157
0.000145489
0.000712871
0.000153571
0.000592036
0.00015994
0.000464813
0.000164523
0.000332355
0.000167256
0.000194112
5.13426e-05
0.000168187
1.67065e-05
0.0013881
2.79007e-08
3.36549e-05
0.00133141
5.04069e-05
0.00128376
6.66883e-05
0.00123126
8.2285e-05
0.00116892
9.7e-05
0.00109599
0.000110659
0.00101229
0.0001231
0.000918401
0.000134178
0.000815084
0.000143766
0.000703294
0.000151753
0.000584065
0.000158048
0.000458537
0.000162578
0.000327845
0.00016528
0.000191423
5.05054e-05
0.000166202
1.65071e-05
0.00137157
2.75992e-08
3.32535e-05
0.00131467
4.98061e-05
0.00126721
6.58943e-05
0.00121517
8.13063e-05
0.00115351
9.58474e-05
0.00108144
0.000109346
0.000998789
0.00012164
0.000906093
0.000132589
0.000804118
0.000142064
0.000693794
0.000149957
0.000576138
0.000156179
0.000452269
0.000160656
0.000323305
0.000163328
0.000188647
4.94735e-05
0.000164239
1.63102e-05
0.00135522
2.72399e-08
3.2857e-05
0.00129811
4.92127e-05
0.00125084
6.51099e-05
0.00119926
8.03394e-05
0.00113827
9.47089e-05
0.00106707
0.000108048
0.000985446
0.000120198
0.000893943
0.000131018
0.000793303
0.000140382
0.000684439
0.000148184
0.000568351
0.000154332
0.000446138
0.000158758
0.000318898
0.000161399
0.000186018
4.86482e-05
0.000162302
1.61157e-05
0.00133908
2.69286e-08
3.24653e-05
0.00128176
4.86265e-05
0.00123469
6.43351e-05
0.00118355
7.93845e-05
0.00112322
9.35844e-05
0.00105286
0.000106767
0.000972257
0.000118774
0.000881924
0.000129467
0.000782592
0.000138722
0.000675159
0.000146432
0.000560607
0.000152509
0.000440015
0.000156883
0.000314461
0.000159494
0.000183303
4.7638e-05
0.000160386
1.59236e-05
0.00132311
2.65613e-08
3.20784e-05
0.00126559
4.80475e-05
0.00121871
6.35697e-05
0.00116802
7.84411e-05
0.00110834
9.24735e-05
0.00103882
0.000105501
0.000959226
0.000117367
0.000870057
0.000127935
0.000772028
0.000137081
0.000666022
0.000144701
0.000553001
0.000150707
0.000434025
0.000155031
0.000310155
0.000157612
0.000180733
4.68254e-05
0.000158495
1.57338e-05
0.00130736
2.62404e-08
3.16962e-05
0.00124963
4.74755e-05
0.00120293
6.28138e-05
0.00115268
7.75094e-05
0.00109364
9.13763e-05
0.00102495
0.00010425
0.000946346
0.000115977
0.000858318
0.000126421
0.000761567
0.00013546
0.000656958
0.000142991
0.000545436
0.000148927
0.000428043
0.000153201
0.000305819
0.000155752
0.000178079
4.58367e-05
0.000156626
1.55463e-05
0.00129177
2.58607e-08
3.13187e-05
0.00123385
4.69105e-05
0.00118733
6.2067e-05
0.00113751
7.6589e-05
0.00107911
9.02925e-05
0.00101124
0.000103015
0.000933619
0.000114605
0.000846728
0.000124926
0.000751249
0.00013386
0.000648033
0.000141303
0.000538006
0.000147169
0.000422191
0.000151394
0.000301612
0.000153916
0.000175566
4.50363e-05
0.00015478
1.53611e-05
0.00127639
2.55291e-08
3.09458e-05
0.00121827
4.63525e-05
0.00117192
6.13294e-05
0.00112254
7.56799e-05
0.00106476
8.9222e-05
0.000997693
0.000101795
0.00092104
0.000113249
0.000835263
0.00012345
0.000741032
0.000132278
0.000639179
0.000139634
0.000530616
0.000145433
0.000416347
0.000149608
0.000297375
0.000152101
0.000172973
4.40688e-05
0.000152956
1.51782e-05
0.00126118
2.51415e-08
3.05774e-05
0.00120285
4.58012e-05
0.00115669
6.06008e-05
0.00110772
7.47819e-05
0.00105057
8.81645e-05
0.000984302
0.00010059
0.00090861
0.000111909
0.000823942
0.000121991
0.000730953
0.000130717
0.000630461
0.000137987
0.000523358
0.000143717
0.00041063
0.000147844
0.000293263
0.000150308
0.000170515
4.32812e-05
0.000151154
1.49976e-05
0.00124616
2.47999e-08
3.02136e-05
0.00118764
4.52567e-05
0.00114165
5.98811e-05
0.0010931
7.38949e-05
0.00103656
8.71201e-05
0.000971075
9.93999e-05
0.000896326
0.000110586
0.000812745
0.00012055
0.000720974
0.000129174
0.000621813
0.000136359
0.00051614
0.000142023
0.000404921
0.000146102
0.000289123
0.000148538
0.000167981
4.23346e-05
0.000149374
1.48191e-05
0.0012313
2.43984e-08
2.98541e-05
0.00117259
4.47188e-05
0.00112677
5.91702e-05
0.00107864
7.30187e-05
0.0010227
8.60884e-05
0.000957996
9.82241e-05
0.000884185
0.00010928
0.000801687
0.000119127
0.000711129
0.00012765
0.000613296
0.000134751
0.000509049
0.000140349
0.000399335
0.000144381
0.000285106
0.000146788
0.000165578
4.15596e-05
0.000147616
1.46428e-05
0.00121664
2.40439e-08
2.94991e-05
0.00115774
4.41876e-05
0.00111209
5.84681e-05
0.00106436
7.21534e-05
0.00100902
8.50694e-05
0.000945078
9.70629e-05
0.000872187
0.000107989
0.000790751
0.000117721
0.000701381
0.000126145
0.000604849
0.000133163
0.000501997
0.000138695
0.000393757
0.00014268
0.000281061
0.00014506
0.000163101
4.06336e-05
0.000145878
1.44687e-05
0.00120213
2.36317e-08
2.91484e-05
0.00114305
4.36628e-05
0.00109756
5.77745e-05
0.00105024
7.12985e-05
0.000995482
8.40628e-05
0.000932305
9.59158e-05
0.000860329
0.000106714
0.00077995
0.000116333
0.000691764
0.000124658
0.000596529
0.000131594
0.00049507
0.000137062
0.0003883
0.000141001
0.000277135
0.000143353
0.000160752
3.98714e-05
0.000144162
1.42967e-05
0.00118782
2.32641e-08
2.88021e-05
0.00112855
4.31444e-05
0.00108323
5.70894e-05
0.0010363
7.04542e-05
0.000982121
8.30687e-05
0.00091969
9.47829e-05
0.000848611
0.000105455
0.000769268
0.000114961
0.000682243
0.000123189
0.000588278
0.000130044
0.000488182
0.000135449
0.000382851
0.000139341
0.000273182
0.000141667
0.000158331
3.8966e-05
0.000142465
1.41269e-05
0.00117366
2.28359e-08
2.84599e-05
0.0011142
4.26324e-05
0.00106904
5.64127e-05
0.0010225
6.96202e-05
0.000968903
8.20866e-05
0.000907213
9.36638e-05
0.000837029