/*--------------------------------*- C++ -*----------------------------------*\
  =========                 |
  \\      /  F ield         | OpenFOAM: The Open Source CFD Toolbox
   \\    /   O peration     | Website:  https://openfoam.org
    \\  /    A nd           | Version:  6.0
     \\/     M anipulation  |
\*---------------------------------------------------------------------------*/
FoamFile
{
    version     2.0;
    format      ascii;
    class       volScalarField;
    location    "3.76";
    object      p;
}
// * * * * * * * * * * * * * * * * * * * * * * * * * * * * * * * * * * * * * //

dimensions      [0 2 -2 0 0 0 0];

internalField   nonuniform List<scalar> 
13500
(
0.098314
0.098453
0.097825
0.097582
0.09624
0.096101
0.094691
0.095542
0.096458
0.099522
0.1226
0.16397
0.098314
0.098454
0.097825
0.097582
0.09624
0.096102
0.09469
0.095542
0.096455
0.099584
0.12192
0.15891
0.098314
0.098455
0.097825
0.097584
0.096239
0.096103
0.094687
0.095542
0.096447
0.099626
0.12105
0.15442
0.098315
0.098456
0.097825
0.097586
0.096237
0.096105
0.094683
0.09554
0.096433
0.099645
0.12007
0.15091
0.098316
0.098458
0.097826
0.097588
0.096236
0.096107
0.094678
0.095538
0.096413
0.09965
0.11903
0.14794
0.098318
0.09846
0.097827
0.097591
0.096236
0.096109
0.094673
0.095534
0.096389
0.099642
0.11796
0.1453
0.09832
0.098463
0.097829
0.097593
0.096235
0.09611
0.094667
0.09553
0.096359
0.099621
0.11688
0.14289
0.098323
0.098466
0.097831
0.097597
0.096234
0.096112
0.094661
0.095525
0.096324
0.099586
0.1158
0.14069
0.098326
0.09847
0.097833
0.0976
0.096234
0.096113
0.094654
0.095519
0.096285
0.099537
0.11475
0.13865
0.09833
0.098473
0.097836
0.097604
0.096234
0.096115
0.094646
0.095512
0.09624
0.099474
0.11374
0.13674
0.098334
0.098478
0.097839
0.097608
0.096234
0.096116
0.094638
0.095504
0.09619
0.099399
0.11275
0.13495
0.098338
0.098483
0.097842
0.097612
0.096234
0.096118
0.094629
0.095495
0.096135
0.099312
0.11182
0.13326
0.098343
0.098488
0.097846
0.097617
0.096234
0.096119
0.09462
0.095485
0.096074
0.099215
0.11092
0.13167
0.098349
0.098494
0.097851
0.097622
0.096235
0.096121
0.09461
0.095474
0.096008
0.099108
0.11006
0.13015
0.098355
0.0985
0.097856
0.097627
0.096236
0.096122
0.094599
0.095462
0.095937
0.098994
0.10925
0.1287
0.098362
0.098507
0.097861
0.097633
0.096237
0.096124
0.094588
0.095449
0.09586
0.098873
0.10847
0.12731
0.098369
0.098514
0.097867
0.097639
0.096238
0.096125
0.094576
0.095435
0.095777
0.098748
0.10773
0.12599
0.098376
0.098521
0.097873
0.097645
0.096239
0.096126
0.094564
0.095419
0.09569
0.098619
0.10702
0.12472
0.098384
0.09853
0.097879
0.097652
0.09624
0.096128
0.094551
0.095403
0.095597
0.098488
0.10633
0.1235
0.098393
0.098538
0.097886
0.097659
0.096242
0.096129
0.094537
0.095386
0.095499
0.098356
0.10567
0.12232
0.098402
0.098547
0.097894
0.097666
0.096244
0.09613
0.094523
0.095367
0.095396
0.098223
0.10503
0.12118
0.098412
0.098557
0.097902
0.097674
0.096246
0.096132
0.094509
0.095347
0.095289
0.098091
0.10441
0.12008
0.098422
0.098567
0.09791
0.097682
0.096248
0.096133
0.094493
0.095326
0.095178
0.09796
0.1038
0.11901
0.098433
0.098577
0.097919
0.097691
0.096251
0.096134
0.094478
0.095304
0.095062
0.09783
0.10321
0.11797
0.098444
0.098588
0.097928
0.097699
0.096253
0.096136
0.094461
0.09528
0.094943
0.097702
0.10263
0.11696
0.098456
0.0986
0.097938
0.097709
0.096256
0.096137
0.094444
0.095255
0.09482
0.097575
0.10205
0.11598
0.098468
0.098612
0.097949
0.097718
0.096259
0.096138
0.094427
0.095228
0.094695
0.097451
0.10149
0.11502
0.098481
0.098624
0.097959
0.097728
0.096262
0.096139
0.094409
0.0952
0.094567
0.097328
0.10093
0.11408
0.098495
0.098637
0.097971
0.097738
0.096266
0.096141
0.094391
0.095171
0.094437
0.097206
0.10038
0.11316
0.098509
0.098651
0.097982
0.097749
0.09627
0.096142
0.094371
0.09514
0.094305
0.097086
0.099837
0.11226
0.098523
0.098665
0.097995
0.09776
0.096274
0.096143
0.094352
0.095108
0.094171
0.096967
0.099297
0.11138
0.098539
0.09868
0.098007
0.097771
0.096278
0.096145
0.094332
0.095074
0.094036
0.096849
0.098762
0.11052
0.098554
0.098695
0.098021
0.097783
0.096282
0.096146
0.094311
0.095039
0.0939
0.096731
0.098231
0.10967
0.098571
0.098711
0.098034
0.097795
0.096287
0.096147
0.094289
0.095003
0.093764
0.096614
0.097705
0.10884
0.098588
0.098727
0.098049
0.097808
0.096292
0.096148
0.094268
0.094965
0.093628
0.096496
0.097183
0.10802
0.098605
0.098744
0.098064
0.097821
0.096297
0.09615
0.094245
0.094926
0.093491
0.096379
0.096666
0.10722
0.098623
0.098761
0.098079
0.097834
0.096302
0.096151
0.094222
0.094885
0.093355
0.09626
0.096153
0.10644
0.098642
0.098779
0.098095
0.097848
0.096308
0.096152
0.094198
0.094844
0.093219
0.09614
0.095646
0.10566
0.098661
0.098798
0.098111
0.097862
0.096314
0.096153
0.094174
0.094801
0.093083
0.09602
0.095143
0.1049
0.098681
0.098817
0.098128
0.097877
0.09632
0.096155
0.094149
0.094757
0.092948
0.095898
0.094645
0.10416
0.098702
0.098836
0.098146
0.097892
0.096327
0.096156
0.094123
0.094713
0.092814
0.095774
0.094153
0.10343
0.098723
0.098857
0.098164
0.097907
0.096333
0.096157
0.094097
0.094667
0.092681
0.095648
0.093667
0.10271
0.098745
0.098878
0.098182
0.097923
0.09634
0.096158
0.09407
0.094621
0.092548
0.095521
0.093187
0.102
0.098767
0.098899
0.098201
0.097939
0.096348
0.09616
0.094043
0.094574
0.092417
0.095391
0.092712
0.10131
0.09879
0.098921
0.098221
0.097956
0.096355
0.096161
0.094015
0.094527
0.092286
0.09526
0.092244
0.10063
0.098814
0.098943
0.098241
0.097973
0.096363
0.096162
0.093986
0.09448
0.092156
0.095126
0.091783
0.099964
0.098838
0.098967
0.098262
0.09799
0.096371
0.096163
0.093956
0.094432
0.092028
0.09499
0.091328
0.099308
0.098863
0.09899
0.098283
0.098008
0.09638
0.096165
0.093926
0.094384
0.091899
0.094851
0.090879
0.098665
0.098888
0.099015
0.098305
0.098027
0.096389
0.096166
0.093895
0.094335
0.091772
0.09471
0.090438
0.098034
0.098915
0.09904
0.098328
0.098045
0.096398
0.096167
0.093864
0.094287
0.091645
0.094567
0.090004
0.097414
0.098942
0.099065
0.098351
0.098065
0.096407
0.096168
0.093832
0.094239
0.091519
0.094422
0.089576
0.096806
0.098969
0.099091
0.098375
0.098084
0.096417
0.096169
0.093799
0.094192
0.091393
0.094275
0.089156
0.09621
0.098997
0.099118
0.098399
0.098104
0.096427
0.096171
0.093766
0.094144
0.091267
0.094125
0.088742
0.095624
0.099026
0.099146
0.098424
0.098125
0.096438
0.096172
0.093732
0.094098
0.091142
0.093974
0.088336
0.095049
0.099055
0.099174
0.098449
0.098146
0.096449
0.096173
0.093697
0.094051
0.091016
0.09382
0.087937
0.094485
0.099086
0.099202
0.098475
0.098167
0.09646
0.096174
0.093662
0.094006
0.090891
0.093665
0.087544
0.093931
0.099116
0.099232
0.098502
0.098189
0.096471
0.096175
0.093626
0.09396
0.090766
0.093507
0.087159
0.093388
0.099148
0.099261
0.098529
0.098211
0.096483
0.096176
0.09359
0.093916
0.09064
0.093348
0.08678
0.092854
0.09918
0.099292
0.098557
0.098234
0.096495
0.096177
0.093554
0.093872
0.090515
0.093187
0.086408
0.09233
0.099213
0.099323
0.098586
0.098257
0.096508
0.096178
0.093517
0.093829
0.090389
0.093025
0.086042
0.091815
0.099246
0.099355
0.098615
0.09828
0.096521
0.096179
0.09348
0.093787
0.090262
0.092861
0.085683
0.09131
0.099281
0.099388
0.098645
0.098305
0.096535
0.09618
0.093442
0.093746
0.090135
0.092696
0.085331
0.090813
0.099316
0.099421
0.098675
0.098329
0.096548
0.096181
0.093404
0.093705
0.090008
0.09253
0.084984
0.090324
0.099351
0.099455
0.098706
0.098354
0.096563
0.096181
0.093366
0.093665
0.08988
0.092362
0.084644
0.089845
0.099387
0.099489
0.098738
0.098379
0.096577
0.096182
0.093327
0.093626
0.089752
0.092193
0.08431
0.089373
0.099424
0.099524
0.09877
0.098405
0.096592
0.096183
0.093288
0.093588
0.089623
0.092023
0.083981
0.088909
0.099462
0.09956
0.098803
0.098431
0.096608
0.096184
0.09325
0.09355
0.089494
0.091852
0.083658
0.088452
0.099501
0.099596
0.098837
0.098458
0.096623
0.096184
0.093211
0.093513
0.089364
0.091681
0.083341
0.088003
0.09954
0.099633
0.098871
0.098485
0.09664
0.096185
0.093172
0.093476
0.089234
0.091508
0.083029
0.087561
0.099579
0.099671
0.098906
0.098513
0.096656
0.096186
0.093133
0.09344
0.089103
0.091335
0.082722
0.087126
0.09962
0.09971
0.098942
0.098541
0.096673
0.096186
0.093094
0.093404
0.088972
0.091161
0.08242
0.086697
0.099661
0.099749
0.098978
0.09857
0.096691
0.096187
0.093055
0.093369
0.08884
0.090987
0.082123
0.086275
0.099703
0.099789
0.099015
0.098599
0.096709
0.096188
0.093016
0.093334
0.088708
0.090812
0.081831
0.085859
0.099746
0.099829
0.099053
0.098628
0.096727
0.096189
0.092978
0.093299
0.088576
0.090636
0.081544
0.08545
0.099789
0.099871
0.099091
0.098658
0.096746
0.09619
0.092939
0.093264
0.088444
0.09046
0.081261
0.085046
0.099834
0.099912
0.09913
0.098689
0.096765
0.096191
0.092901
0.09323
0.088311
0.090284
0.080982
0.084647
0.099878
0.099955
0.09917
0.09872
0.096785
0.096192
0.092863
0.093195
0.088178
0.090108
0.080708
0.084255
0.099924
0.099998
0.09921
0.098751
0.096805
0.096193
0.092825
0.09316
0.088046
0.089931
0.080438
0.083867
0.09997
0.10004
0.099251
0.098783
0.096825
0.096195
0.092788
0.093125
0.087913
0.089754
0.080172
0.083485
0.10002
0.10009
0.099293
0.098815
0.096846
0.096196
0.09275
0.09309
0.08778
0.089577
0.07991
0.083107
0.10007
0.10013
0.099335
0.098848
0.096867
0.096198
0.092713
0.093055
0.087648
0.0894
0.079652
0.082735
0.10011
0.10018
0.099378
0.098882
0.096889
0.096201
0.092677
0.093019
0.087516
0.089223
0.079398
0.082367
0.10016
0.10023
0.099422
0.098916
0.096911
0.096203
0.09264
0.092983
0.087384
0.089046
0.079147
0.082004
0.10021
0.10027
0.099467
0.09895
0.096934
0.096206
0.092604
0.092947
0.087252
0.088869
0.0789
0.081646
0.10026
0.10032
0.099512
0.098985
0.096957
0.096209
0.092568
0.09291
0.087121
0.088692
0.078656
0.081292
0.10032
0.10037
0.099558
0.09902
0.096981
0.096212
0.092533
0.092872
0.08699
0.088516
0.078415
0.080942
0.10037
0.10042
0.099605
0.099056
0.097004
0.096216
0.092497
0.092834
0.08686
0.088339
0.078178
0.080596
0.10042
0.10047
0.099652
0.099093
0.097029
0.096221
0.092462
0.092795
0.08673
0.088163
0.077945
0.080254
0.10048
0.10052
0.0997
0.09913
0.097054
0.096225
0.092428
0.092756
0.086601
0.087987
0.077714
0.079917
0.10053
0.10058
0.099749
0.099168
0.097079
0.096231
0.092393
0.092715
0.086473
0.087811
0.077486
0.079583
0.10059
0.10063
0.099799
0.099206
0.097104
0.096237
0.092359
0.092675
0.086345
0.087635
0.077262
0.079253
0.10064
0.10068
0.099849
0.099245
0.09713
0.096243
0.092325
0.092633
0.086218
0.08746
0.07704
0.078926
0.1007
0.10074
0.099901
0.099284
0.097157
0.09625
0.092291
0.092591
0.086092
0.087284
0.076822
0.078603
0.10076
0.10079
0.099953
0.099324
0.097184
0.096257
0.092257
0.092547
0.085966
0.08711
0.076606
0.078284
0.10082
0.10085
0.10001
0.099365
0.097211
0.096265
0.092224
0.092503
0.085842
0.086935
0.076392
0.077968
0.10088
0.10091
0.10006
0.099406
0.097238
0.096274
0.09219
0.092459
0.085718
0.086761
0.076182
0.077656
0.10094
0.10096
0.10011
0.099448
0.097267
0.096284
0.092157
0.092413
0.085595
0.086587
0.075974
0.077346
0.101
0.10102
0.10017
0.09949
0.097295
0.096294
0.092124
0.092367
0.085473
0.086414
0.075769
0.07704
0.10106
0.10108
0.10022
0.099534
0.097324
0.096304
0.092091
0.092319
0.085351
0.086241
0.075566
0.076737
0.10113
0.10114
0.10028
0.099578
0.097353
0.096316
0.092059
0.092271
0.085231
0.086068
0.075365
0.076437
0.10119
0.10121
0.10034
0.099622
0.097383
0.096328
0.092026
0.092222
0.085112
0.085896
0.075167
0.07614
0.10126
0.10127
0.1004
0.099668
0.097413
0.096341
0.091994
0.092173
0.084993
0.085724
0.074972
0.075846
0.10132
0.10133
0.10046
0.099714
0.097444
0.096355
0.091962
0.092122
0.084875
0.085553
0.074778
0.075555
0.10139
0.1014
0.10052
0.099761
0.097475
0.096369
0.09193
0.092071
0.084758
0.085382
0.074587
0.075266
0.10146
0.10146
0.10058
0.099808
0.097507
0.096385
0.091898
0.092019
0.084642
0.085211
0.074398
0.07498
0.10153
0.10153
0.10064
0.099857
0.097539
0.096401
0.091866
0.091966
0.084527
0.085041
0.074211
0.074697
0.1016
0.1016
0.1007
0.099907
0.097572
0.096417
0.091835
0.091912
0.084413
0.084871
0.074025
0.074416
0.10167
0.10166
0.10077
0.099957
0.097605
0.096435
0.091804
0.091858
0.084299
0.084701
0.073842
0.074138
0.10174
0.10173
0.10083
0.10001
0.097638
0.096453
0.091773
0.091803
0.084186
0.084532
0.073661
0.073861
0.10181
0.10181
0.1009
0.10006
0.097672
0.096473
0.091742
0.091747
0.084075
0.084363
0.073482
0.073588
0.10189
0.10188
0.10097
0.10011
0.097707
0.096493
0.091712
0.09169
0.083964
0.084194
0.073304
0.073316
0.10196
0.10195
0.10104
0.10017
0.097742
0.096513
0.091681
0.091633
0.083853
0.084025
0.073128
0.073047
0.10204
0.10203
0.1011
0.10022
0.097778
0.096535
0.091652
0.091575
0.083744
0.083857
0.072954
0.072779
0.10212
0.1021
0.10118
0.10028
0.097814
0.096557
0.091622
0.091517
0.083635
0.083689
0.072781
0.072514
0.1022
0.10218
0.10125
0.10034
0.097851
0.096581
0.091594
0.091458
0.083527
0.083521
0.07261
0.07225
0.10228
0.10226
0.10132
0.1004
0.097889
0.096605
0.091565
0.091398
0.08342
0.083354
0.07244
0.071988
0.10236
0.10234
0.10139
0.10046
0.097928
0.09663
0.091537
0.091338
0.083313
0.083187
0.072272
0.071728
0.10244
0.10242
0.10147
0.10052
0.097967
0.096655
0.09151
0.091277
0.083208
0.08302
0.072105
0.07147
0.10253
0.1025
0.10155
0.10058
0.098007
0.096682
0.091483
0.091216
0.083103
0.082853
0.071939
0.071213
0.10261
0.10259
0.10162
0.10064
0.098048
0.09671
0.091457
0.091155
0.082998
0.082686
0.071775
0.070958
0.1027
0.10267
0.1017
0.10071
0.098089
0.096738
0.091432
0.091093
0.082895
0.082519
0.071611
0.070704
0.10279
0.10276
0.10179
0.10078
0.098132
0.096768
0.091407
0.091031
0.082792
0.082352
0.071449
0.070451
0.10288
0.10285
0.10187
0.10085
0.098176
0.096798
0.091383
0.090968
0.08269
0.082186
0.071288
0.0702
0.10298
0.10294
0.10195
0.10092
0.09822
0.096829
0.09136
0.090905
0.082588
0.082019
0.071128
0.06995
0.10307
0.10303
0.10204
0.10099
0.098266
0.096862
0.091338
0.090842
0.082487
0.081853
0.070969
0.069701
0.10317
0.10313
0.10213
0.10106
0.098313
0.096895
0.091317
0.090779
0.082387
0.081687
0.07081
0.069453
0.10327
0.10323
0.10222
0.10114
0.098362
0.096929
0.091297
0.090716
0.082288
0.08152
0.070653
0.069206
0.10337
0.10333
0.10231
0.10122
0.098411
0.096965
0.091279
0.090653
0.082189
0.081354
0.070496
0.06896
0.10347
0.10343
0.1024
0.10129
0.098462
0.097002
0.091261
0.090589
0.082091
0.081188
0.07034
0.068714
0.10357
0.10353
0.1025
0.10138
0.098515
0.09704
0.091245
0.090526
0.081994
0.081021
0.070184
0.068469
0.10368
0.10364
0.10259
0.10146
0.098569
0.097079
0.09123
0.090463
0.081897
0.080855
0.070029
0.068225
0.10379
0.10375
0.10269
0.10155
0.098625
0.09712
0.091216
0.0904
0.081802
0.080688
0.069875
0.067982
0.1039
0.10386
0.1028
0.10164
0.098683
0.097162
0.091204
0.090337
0.081707
0.080522
0.069721
0.067739
0.10402
0.10397
0.1029
0.10173
0.098743
0.097205
0.091194
0.090275
0.081613
0.080355
0.069567
0.067496
0.10414
0.10409
0.10301
0.10182
0.098804
0.09725
0.091186
0.090213
0.08152
0.080189
0.069414
0.067253
0.10426
0.10421
0.10312
0.10192
0.098868
0.097297
0.091179
0.090152
0.081427
0.080022
0.069261
0.067011
0.10438
0.10433
0.10323
0.10202
0.098935
0.097345
0.091174
0.090091
0.081336
0.079855
0.069108
0.066768
0.10451
0.10446
0.10335
0.10212
0.099004
0.097396
0.091171
0.090031
0.081245
0.079689
0.068955
0.066526
0.10464
0.10459
0.10347
0.10223
0.099075
0.097448
0.09117
0.089972
0.081156
0.079522
0.068803
0.066283
0.10477
0.10472
0.10359
0.10234
0.099149
0.097502
0.091172
0.089914
0.081068
0.079355
0.06865
0.066041
0.10491
0.10486
0.10372
0.10245
0.099226
0.097559
0.091176
0.089857
0.08098
0.079188
0.068498
0.065798
0.10505
0.105
0.10385
0.10257
0.099306
0.097617
0.091182
0.0898
0.080894
0.079022
0.068345
0.065554
0.10519
0.10515
0.10398
0.10269
0.09939
0.097679
0.091191
0.089745
0.080809
0.078855
0.068193
0.06531
0.10534
0.1053
0.10412
0.10281
0.099477
0.097742
0.091203
0.089692
0.080726
0.078688
0.06804
0.065066
0.10549
0.10545
0.10426
0.10294
0.099567
0.097809
0.091218
0.08964
0.080643
0.078521
0.067887
0.064821
0.10565
0.10561
0.10441
0.10307
0.099661
0.097878
0.091236
0.089589
0.080563
0.078355
0.067734
0.064575
0.10581
0.10577
0.10456
0.10321
0.09976
0.097951
0.091257
0.08954
0.080483
0.078188
0.06758
0.064328
0.10598
0.10594
0.10471
0.10335
0.099862
0.098026
0.091281
0.089493
0.080406
0.078022
0.067426
0.06408
0.10615
0.10612
0.10487
0.1035
0.09997
0.098106
0.091309
0.089448
0.08033
0.077856
0.067272
0.063832
0.10633
0.1063
0.10504
0.10365
0.10008
0.098188
0.09134
0.089406
0.080255
0.07769
0.067118
0.063581
0.10651
0.10648
0.10521
0.10381
0.1002
0.098275
0.091376
0.089365
0.080183
0.077525
0.066962
0.06333
0.1067
0.10667
0.10539
0.10398
0.10032
0.098365
0.091415
0.089327
0.080112
0.077359
0.066807
0.063077
0.10689
0.10687
0.10557
0.10415
0.10045
0.09846
0.091459
0.089292
0.080044
0.077194
0.06665
0.062823
0.10709
0.10707
0.10576
0.10432
0.10058
0.098559
0.091507
0.089259
0.079977
0.07703
0.066493
0.062567
0.1073
0.10728
0.10596
0.10451
0.10072
0.098663
0.09156
0.089229
0.079913
0.076866
0.066336
0.06231
0.10751
0.1075
0.10616
0.1047
0.10087
0.098772
0.091618
0.089203
0.079851
0.076702
0.066177
0.06205
0.10773
0.10773
0.10637
0.10489
0.10102
0.098886
0.09168
0.089179
0.079792
0.076539
0.066018
0.061789
0.10795
0.10796
0.10659
0.1051
0.10118
0.099005
0.091748
0.089159
0.079735
0.076376
0.065858
0.061525
0.10819
0.1082
0.10681
0.10531
0.10134
0.09913
0.091821
0.089143
0.079681
0.076214
0.065697
0.061259
0.10843
0.10845
0.10705
0.10553
0.10152
0.099261
0.0919
0.089131
0.07963
0.076053
0.065535
0.060991
0.10868
0.1087
0.10729
0.10576
0.1017
0.099398
0.091985
0.089122
0.079581
0.075892
0.065372
0.06072
0.10894
0.10897
0.10754
0.10599
0.10189
0.099542
0.092076
0.089118
0.079536
0.075732
0.065208
0.060446
0.10921
0.10924
0.1078
0.10624
0.10208
0.099692
0.092174
0.089118
0.079493
0.075573
0.065042
0.060169
0.10948
0.10952
0.10807
0.10649
0.10229
0.099849
0.092278
0.089122
0.079453
0.075414
0.064876
0.05989
0.10977
0.10982
0.10834
0.10675
0.10251
0.10001
0.092388
0.089131
0.079417
0.075256
0.064707
0.059607
0.11006
0.11012
0.10863
0.10703
0.10273
0.10019
0.092506
0.089145
0.079384
0.075099
0.064538
0.059321
0.11036
0.11043
0.10893
0.10731
0.10296
0.10037
0.09263
0.089164
0.079355
0.074943
0.064366
0.059031
0.11068
0.11076
0.10924
0.1076
0.10321
0.10055
0.092763
0.089188
0.079328
0.074787
0.064193
0.058737
0.111
0.11109
0.10956
0.10791
0.10346
0.10075
0.092902
0.089217
0.079305
0.074632
0.064018
0.058439
0.11133
0.11143
0.10989
0.10822
0.10373
0.10095
0.09305
0.089251
0.079286
0.074478
0.063841
0.058137
0.11168
0.11179
0.11023
0.10855
0.104
0.10117
0.093205
0.089291
0.07927
0.074324
0.063661
0.05783
0.11203
0.11216
0.11058
0.10889
0.10429
0.10139
0.093369
0.089336
0.079258
0.074171
0.063479
0.057518
0.1124
0.11254
0.11095
0.10924
0.10459
0.10162
0.093541
0.089387
0.079249
0.074018
0.063294
0.057201
0.11278
0.11293
0.11133
0.1096
0.1049
0.10186
0.093721
0.089444
0.079243
0.073865
0.063106
0.056879
0.11316
0.11333
0.11172
0.10997
0.10522
0.10212
0.09391
0.089506
0.079241
0.073713
0.062916
0.056551
0.11357
0.11375
0.11212
0.11036
0.10555
0.10238
0.094107
0.089574
0.079242
0.07356
0.062721
0.056216
0.11398
0.11417
0.11254
0.11076
0.1059
0.10265
0.094313
0.089647
0.079246
0.073407
0.062523
0.055875
0.1144
0.11462
0.11297
0.11117
0.10626
0.10293
0.094529
0.089726
0.079253
0.073254
0.06232
0.055527
0.11484
0.11507
0.11341
0.1116
0.10663
0.10322
0.094753
0.089811
0.079263
0.0731
0.062113
0.055171
0.11529
0.11554
0.11387
0.11204
0.10702
0.10353
0.094986
0.089901
0.079276
0.072944
0.061901
0.054807
0.11575
0.11602
0.11434
0.11249
0.10742
0.10384
0.095228
0.089996
0.07929
0.072787
0.061684
0.054435
0.11623
0.11652
0.11483
0.11296
0.10784
0.10416
0.095479
0.090097
0.079307
0.072629
0.06146
0.054054
0.11672
0.11703
0.11533
0.11344
0.10826
0.1045
0.09574
0.090202
0.079326
0.072468
0.061231
0.053663
0.11722
0.11755
0.11585
0.11394
0.10871
0.10485
0.096009
0.090313
0.079346
0.072304
0.060994
0.053262
0.11774
0.11809
0.11639
0.11445
0.10916
0.10521
0.096287
0.090428
0.079367
0.072137
0.060749
0.05285
0.11827
0.11864
0.11694
0.11498
0.10964
0.10558
0.096575
0.090547
0.079388
0.071967
0.060497
0.052427
0.11882
0.11921
0.1175
0.11552
0.11012
0.10596
0.096871
0.090671
0.07941
0.071792
0.060235
0.051991
0.11938
0.1198
0.11808
0.11608
0.11063
0.10635
0.097177
0.090798
0.079432
0.071612
0.059964
0.051542
0.11995
0.1204
0.11868
0.11666
0.11115
0.10676
0.097491
0.090929
0.079452
0.071426
0.059682
0.05108
0.12054
0.12102
0.1193
0.11725
0.11168
0.10717
0.097814
0.091064
0.079472
0.071234
0.059389
0.050602
0.12115
0.12165
0.11994
0.11786
0.11224
0.1076
0.098146
0.091201
0.079489
0.071036
0.059084
0.050109
0.12177
0.1223
0.12059
0.11849
0.11281
0.10805
0.098487
0.091341
0.079505
0.070829
0.058766
0.049599
0.12241
0.12298
0.12127
0.11913
0.11339
0.1085
0.098838
0.091483
0.079517
0.070614
0.058434
0.049072
0.12307
0.12367
0.12197
0.1198
0.114
0.10897
0.099197
0.091628
0.079526
0.07039
0.058088
0.048527
0.12375
0.12438
0.12269
0.12049
0.11463
0.10946
0.099566
0.091774
0.079531
0.070156
0.057725
0.047961
0.12444
0.12511
0.12343
0.1212
0.11528
0.10996
0.099945
0.091923
0.079532
0.069911
0.057346
0.047375
0.12516
0.12587
0.1242
0.12193
0.11595
0.11047
0.10033
0.092073
0.079527
0.069655
0.056949
0.046767
0.12591
0.12665
0.12499
0.12269
0.11664
0.111
0.10073
0.092225
0.079517
0.069386
0.056533
0.046136
0.12667
0.12745
0.12582
0.12348
0.11736
0.11155
0.10114
0.092379
0.079501
0.069103
0.056097
0.045481
0.12747
0.12829
0.12667
0.12429
0.11811
0.11212
0.10157
0.092534
0.079479
0.068807
0.055641
0.0448
0.12829
0.12915
0.12756
0.12514
0.11889
0.11271
0.102
0.092691
0.07945
0.068496
0.055162
0.044092
0.12914
0.13005
0.12849
0.12602
0.1197
0.11332
0.10245
0.092851
0.079414
0.068169
0.05466
0.043355
0.13003
0.13099
0.12945
0.12694
0.12054
0.11396
0.10291
0.093012
0.07937
0.067826
0.054133
0.042589
0.13095
0.13197
0.13046
0.1279
0.12142
0.11462
0.10339
0.093177
0.079319
0.067465
0.053581
0.041791
0.13191
0.13299
0.13152
0.1289
0.12233
0.11532
0.10389
0.093345
0.079258
0.067086
0.053001
0.04096
0.13292
0.13405
0.13263
0.12996
0.1233
0.11604
0.1044
0.093516
0.079189
0.066687
0.052393
0.040094
0.13397
0.13517
0.13379
0.13106
0.12431
0.1168
0.10493
0.09369
0.07911
0.066268
0.051755
0.039192
0.13507
0.13635
0.13501
0.13223
0.12537
0.11759
0.10549
0.093869
0.07902
0.065826
0.051085
0.038251
0.13622
0.13758
0.1363
0.13346
0.12648
0.11843
0.10606
0.094051
0.078918
0.06536
0.050381
0.037269
0.13743
0.13888
0.13766
0.13476
0.12765
0.11931
0.10666
0.094236
0.078803
0.064868
0.04964
0.036244
0.1387
0.14025
0.1391
0.13613
0.12889
0.12023
0.10728
0.094424
0.078672
0.064347
0.04886
0.035173
0.14004
0.1417
0.14061
0.13758
0.1302
0.1212
0.10793
0.094614
0.078523
0.063794
0.048037
0.034053
0.14144
0.14322
0.14222
0.13912
0.13157
0.12222
0.10859
0.094803
0.078353
0.063204
0.047168
0.032881
0.14291
0.14483
0.14391
0.14075
0.13302
0.12329
0.10929
0.094989
0.078157
0.062574
0.046247
0.031653
0.14445
0.14652
0.14571
0.14247
0.13455
0.12442
0.11
0.09517
0.077931
0.061898
0.045269
0.030365
0.14607
0.14831
0.1476
0.14429
0.13616
0.1256
0.11073
0.095339
0.077668
0.061169
0.044228
0.02901
0.14776
0.15019
0.14961
0.14622
0.13785
0.12684
0.11148
0.095493
0.077361
0.06038
0.043116
0.027583
0.14952
0.15217
0.15172
0.14826
0.13963
0.12812
0.11223
0.095625
0.077003
0.059522
0.041926
0.026077
0.15136
0.15425
0.15395
0.15041
0.14149
0.12946
0.113
0.095727
0.076583
0.058586
0.040647
0.024483
0.15326
0.15644
0.1563
0.15268
0.14345
0.13084
0.11376
0.09579
0.076092
0.057561
0.039269
0.022792
0.15524
0.15873
0.15877
0.15508
0.14549
0.13227
0.11451
0.095803
0.075517
0.056435
0.037781
0.020994
0.15728
0.16112
0.16137
0.1576
0.14762
0.13374
0.11525
0.095756
0.074846
0.055196
0.036172
0.019078
0.15938
0.16363
0.16411
0.16025
0.14984
0.13524
0.11596
0.095636
0.074066
0.053831
0.034429
0.017032
0.16154
0.16624
0.167
0.16304
0.15215
0.13677
0.11663
0.095427
0.073162
0.052327
0.032539
0.014845
0.16376
0.16898
0.17005
0.16598
0.15456
0.13832
0.11724
0.095113
0.072116
0.05067
0.03049
0.012503
0.16603
0.17185
0.17326
0.16908
0.15706
0.13987
0.11778
0.094676
0.070912
0.048844
0.028268
0.009995
0.16835
0.17485
0.17668
0.17236
0.15966
0.14143
0.11823
0.094091
0.069529
0.046832
0.025861
0.0073107
0.17072
0.17801
0.18031
0.17583
0.16237
0.14296
0.11857
0.093333
0.067943
0.044617
0.023254
0.0044396
0.17313
0.18135
0.1842
0.17951
0.16517
0.14447
0.11877
0.092367
0.066123
0.042174
0.020431
0.0013718
0.17558
0.18487
0.18838
0.18343
0.16808
0.14591
0.11878
0.091152
0.064032
0.039475
0.017372
-0.0019028
0.17805
0.18862
0.19288
0.18762
0.17108
0.14725
0.11856
0.089633
0.061624
0.036483
0.014052
-0.0053957
0.18052
0.1926
0.19775
0.19208
0.17415
0.14844
0.11804
0.087744
0.058841
0.033152
0.01044
-0.0091216
0.18294
0.19682
0.20302
0.19682
0.17726
0.14942
0.11714
0.085406
0.055613
0.029427
0.0064962
-0.013099
0.18524
0.20129
0.2087
0.20184
0.18034
0.15009
0.11576
0.082523
0.05186
0.025245
0.0021758
-0.017353
0.1873
0.20597
0.21479
0.20708
0.1833
0.15033
0.11378
0.07899
0.047497
0.020536
-0.00257
-0.021907
0.18899
0.2108
0.22125
0.21248
0.186
0.14998
0.11104
0.074692
0.042438
0.015241
-0.0077846
-0.026786
0.19008
0.21567
0.22797
0.21787
0.18825
0.14885
0.1074
0.069513
0.036608
0.0093101
-0.013495
-0.032
0.1903
0.22038
0.23478
0.22301
0.18977
0.1467
0.10267
0.063345
0.029949
0.0027252
-0.0197
-0.037536
0.18932
0.22466
0.24133
0.22755
0.1902
0.14325
0.096671
0.05609
0.022432
-0.0044979
-0.026356
-0.043346
0.18673
0.22802
0.24705
0.23087
0.18907
0.13817
0.08921
0.04767
0.014057
-0.012305
-0.03338
-0.049338
0.18212
0.22973
0.25099
0.23207
0.18569
0.13105
0.080104
0.03804
0.0048582
-0.02061
-0.040649
-0.055387
0.17507
0.22864
0.25151
0.2297
0.17912
0.12142
0.069193
0.027198
-0.0050919
-0.029302
-0.048025
-0.061353
0.16532
0.22298
0.24601
0.22155
0.16803
0.10873
0.056366
0.015228
-0.015656
-0.03824
-0.055366
-0.067102
0.15293
0.21018
0.23058
0.2044
0.15063
0.092286
0.041566
0.0023111
-0.026609
-0.047234
-0.062523
-0.072527
0.13865
0.18705
0.19999
0.17398
0.12457
0.071236
0.024719
-0.011311
-0.03765
-0.056049
-0.069348
-0.077557
0.12412
0.15058
0.14877
0.12554
0.087134
0.044454
0.0055745
-0.025497
-0.048515
-0.064454
-0.075707
-0.082157
0.1114
0.098271
0.073177
0.055581
0.035855
0.010606
-0.016435
-0.040386
-0.059141
-0.072346
-0.081547
-0.086358
0.10314
0.025211
-0.031351
-0.039014
-0.031984
-0.032384
-0.042612
-0.056724
-0.069955
-0.079999
-0.087095
-0.090423
0.11304
-0.061838
-0.15967
-0.15414
-0.11524
-0.085489
-0.074521
-0.075983
-0.082202
-0.088436
-0.093208
-0.095115
0.15364
-0.14092
-0.28669
-0.26774
-0.19854
-0.14043
-0.10871
-0.097141
-0.095842
-0.097901
-0.10019
-0.1006
0.10278
0.063394
0.053285
0.047259
0.043101
0.039993
0.03751
0.035381
0.033562
0.031731
0.030273
0.027887
0.12212
0.078645
0.066086
0.05807
0.052602
0.048563
0.045368
0.042651
0.040352
0.03804
0.036254
0.033469
0.10947
0.073548
0.062183
0.054297
0.048899
0.044933
0.041814
0.039176
0.036969
0.034743
0.033084
0.030381
0.10441
0.073208
0.062175
0.054199
0.048665
0.044586
0.041382
0.038678
0.03643
0.034157
0.032498
0.029671
0.10375
0.075354
0.064162
0.055972
0.050194
0.045911
0.04254
0.039695
0.037337
0.034952
0.033224
0.03024
0.10308
0.077142
0.065881
0.057558
0.051584
0.047124
0.043605
0.040634
0.038176
0.035694
0.033897
0.030801
0.10194
0.078396
0.06721
0.058839
0.052719
0.048115
0.044471
0.041393
0.038848
0.036288
0.034432
0.031267
0.10073
0.079418
0.068398
0.060029
0.053797
0.049065
0.045306
0.042129
0.039502
0.036877
0.034964
0.031769
0.099585
0.080296
0.069508
0.061186
0.054871
0.050026
0.04616
0.04289
0.040185
0.037504
0.035537
0.032349
0.098496
0.081021
0.07053
0.062298
0.055934
0.050994
0.047029
0.043673
0.040894
0.038167
0.036153
0.033008
0.09744
0.081593
0.071451
0.06335
0.056973
0.051959
0.04791
0.044476
0.041629
0.038867
0.036812
0.033744
0.096415
0.082026
0.07227
0.064335
0.057979
0.052916
0.048797
0.045297
0.042388
0.039602
0.037513
0.034552
0.095422
0.082337
0.072987
0.065247
0.058944
0.053857
0.049684
0.04613
0.04317
0.040368
0.038254
0.035425
0.094464
0.082541
0.073606
0.066082
0.05986
0.054771
0.050564
0.046968
0.043966
0.04116
0.039028
0.036347
0.093542
0.082654
0.074132
0.066837
0.060719
0.055651
0.051426
0.047804
0.04477
0.041969
0.039825
0.037304
0.092658
0.082689
0.074571
0.067514
0.061517
0.056489
0.052265
0.048628
0.045573
0.042786
0.040635
0.038279
0.091811
0.08266
0.07493
0.068114
0.062253
0.057281
0.053071
0.049433
0.046367
0.0436
0.041449
0.039253
0.091001
0.082579
0.075219
0.068642
0.062925
0.058024
0.053841
0.050214
0.047145
0.044404
0.042255
0.04021
0.090229
0.082453
0.075444
0.069101
0.063535
0.058715
0.054571
0.050963
0.0479
0.045189
0.043044
0.041137
0.089492
0.082293
0.075612
0.069499
0.064086
0.059354
0.055257
0.051678
0.048627
0.045949
0.04381
0.042022
0.08879
0.082105
0.075731
0.069839
0.06458
0.059941
0.0559
0.052356
0.049323
0.046677
0.044545
0.042856
0.08812
0.081894
0.075807
0.070127
0.06502
0.060479
0.056498
0.052995
0.049983
0.047371
0.045246
0.043633
0.08748
0.081665
0.075845
0.070368
0.065411
0.06097
0.057053
0.053594
0.050608
0.048027
0.045909
0.04435
0.086869
0.081423
0.075851
0.070567
0.065756
0.061415
0.057565
0.054153
0.051196
0.048644
0.046533
0.045005
0.086285
0.08117
0.075829
0.070728
0.066059
0.061818
0.058037
0.054674
0.051746
0.049222
0.047117
0.045601
0.085725
0.080909
0.075782
0.070855
0.066323
0.062182
0.058471
0.055156
0.052261
0.04976
0.047662
0.046139
0.085188
0.080642
0.075714
0.070952
0.066552
0.062508
0.058867
0.055602
0.05274
0.050259
0.048168
0.046623
0.084672
0.08037
0.075629
0.071022
0.066748
0.0628
0.059229
0.056014
0.053185
0.050721
0.048637
0.047057
0.084175
0.080095
0.075527
0.071068
0.066916
0.06306
0.059559
0.056392
0.053597
0.051148
0.04907
0.047446
0.083697
0.079819
0.075412
0.071092
0.067057
0.063292
0.059858
0.05674
0.053979
0.051541
0.049471
0.047795
0.083235
0.079541
0.075286
0.071098
0.067174
0.063496
0.06013
0.057058
0.054331
0.051903
0.04984
0.048108
0.082788
0.079264
0.07515
0.071086
0.067269
0.063675
0.060375
0.057349
0.054656
0.052236
0.050181
0.04839
0.082356
0.078986
0.075005
0.071059
0.067344
0.063832
0.060596
0.057614
0.054955