/*--------------------------------*- C++ -*----------------------------------*\
  =========                 |
  \\      /  F ield         | OpenFOAM: The Open Source CFD Toolbox
   \\    /   O peration     | Website:  https://openfoam.org
    \\  /    A nd           | Version:  6.0
     \\/     M anipulation  |
\*---------------------------------------------------------------------------*/
FoamFile
{
    version     2.0;
    format      ascii;
    class       volScalarField;
    location    "2";
    object      p;
}
// * * * * * * * * * * * * * * * * * * * * * * * * * * * * * * * * * * * * * //

dimensions      [0 2 -2 0 0 0 0];

internalField   nonuniform List<scalar> 
15000
(
0.777272
0.779951
0.784185
0.789884
0.796333
0.803692
0.809735
0.815679
0.814666
0.811053
0.768265
0.644972
0.777049
0.778041
0.779036
0.780173
0.78098
0.781964
0.780895
0.779333
0.768785
0.754141
0.684341
0.504765
0.777124
0.778853
0.781278
0.784443
0.78773
0.791547
0.793615
0.795359
0.788662
0.778304
0.717493
0.577453
0.777182
0.779521
0.783116
0.787911
0.793124
0.799051
0.803353
0.807311
0.803033
0.795154
0.73997
0.627935
0.777148
0.779396
0.782819
0.787363
0.792185
0.797581
0.801176
0.804262
0.798657
0.789079
0.730236
0.619014
0.777089
0.779096
0.782081
0.786024
0.790067
0.794528
0.797005
0.798854
0.791557
0.780021
0.717019
0.603992
0.777042
0.77895
0.781776
0.785522
0.78931
0.793448
0.795489
0.796816
0.788719
0.776254
0.711562
0.602448
0.777001
0.778879
0.781678
0.785403
0.78916
0.793231
0.79511
0.796175
0.787575
0.774485
0.708985
0.605062
0.776954
0.778782
0.781508
0.785133
0.788768
0.792676
0.794291
0.794982
0.785755
0.771901
0.705486
0.60531
0.776901
0.778658
0.781264
0.784717
0.788137
0.791786
0.79305
0.793293
0.783377
0.768719
0.701457
0.604214
0.776844
0.778536
0.78103
0.784311
0.787512
0.790899
0.79182
0.791638
0.781091
0.765711
0.697898
0.603551
0.776786
0.778424
0.780828
0.783966
0.786973
0.790119
0.790724
0.79015
0.779037
0.763016
0.694914
0.603424
0.776724
0.778317
0.780643
0.783657
0.786485
0.789401
0.789701
0.788747
0.777101
0.760484
0.692272
0.603428
0.77666
0.778208
0.780459
0.783357
0.786015
0.788703
0.7887
0.78737
0.775215
0.758037
0.689856
0.603431
0.776592
0.778094
0.78027
0.783056
0.785548
0.788014
0.787714
0.786014
0.773375
0.75567
0.687653
0.603469
0.776521
0.777975
0.780071
0.782744
0.785077
0.787325
0.786735
0.784672
0.771575
0.75338
0.685647
0.603561
0.776447
0.777851
0.779863
0.78242
0.784592
0.786628
0.785754
0.783337
0.769807
0.751159
0.683822
0.603709
0.776369
0.777722
0.779646
0.78208
0.784092
0.78592
0.78477
0.782008
0.768075
0.749012
0.682172
0.603925
0.77629
0.777591
0.779426
0.781733
0.783582
0.785205
0.78379
0.780697
0.76639
0.746951
0.6807
0.604233
0.776207
0.777459
0.779207
0.781385
0.78307
0.784492
0.78282
0.779411
0.764761
0.744985
0.679405
0.604641
0.776122
0.777329
0.778993
0.781043
0.782565
0.783788
0.781869
0.778156
0.763193
0.743118
0.678281
0.605149
0.776035
0.777199
0.778786
0.780712
0.782074
0.783099
0.78094
0.776936
0.761687
0.741347
0.677313
0.605752
0.775945
0.777071
0.778586
0.780396
0.7816
0.78243
0.780037
0.775753
0.760243
0.739668
0.67649
0.606442
0.775852
0.776942
0.778391
0.780091
0.781144
0.781783
0.779161
0.774604
0.758855
0.738075
0.675797
0.607211
0.775757
0.776811
0.778196
0.779795
0.780704
0.781155
0.77831
0.773489
0.757521
0.736561
0.675221
0.608052
0.775659
0.776676
0.777999
0.7795
0.78027
0.78054
0.777478
0.7724
0.756232
0.735116
0.674747
0.608956
0.775559
0.776537
0.777795
0.779201
0.779838
0.779931
0.77666
0.771334
0.754984
0.733736
0.674366
0.609922
0.775456
0.776393
0.777584
0.778894
0.779399
0.779321
0.775848
0.770284
0.753772
0.732414
0.67407
0.610946
0.775352
0.776245
0.777366
0.778577
0.778953
0.778707
0.775041
0.769249
0.752595
0.731151
0.673854
0.612029
0.775245
0.776094
0.777142
0.778253
0.778499
0.77809
0.774238
0.768231
0.751454
0.729946
0.673716
0.61317
0.775137
0.775941
0.776917
0.777926
0.778042
0.777474
0.773444
0.767232
0.750353
0.728804
0.673654
0.614368
0.775028
0.775789
0.776693
0.777599
0.777588
0.776862
0.772662
0.766257
0.749294
0.727725
0.673664
0.615621
0.774918
0.775637
0.776472
0.777278
0.77714
0.776262
0.771899
0.76531
0.74828
0.726709
0.673743
0.616924
0.774808
0.775488
0.776256
0.776965
0.776704
0.775676
0.771156
0.764393
0.747311
0.725753
0.673885
0.618271
0.774696
0.775339
0.776045
0.77666
0.77628
0.775105
0.770434
0.763505
0.746386
0.724856
0.674082
0.619658
0.774584
0.775192
0.775837
0.776362
0.775866
0.774549
0.769733
0.762645
0.7455
0.724013
0.674329
0.621079
0.774472
0.775045
0.775631
0.776068
0.775461
0.774006
0.769049
0.76181
0.744653
0.72322
0.674621
0.62253
0.774359
0.774897
0.775425
0.775777
0.77506
0.773471
0.76838
0.760998
0.74384
0.722473
0.674952
0.624007
0.774245
0.77475
0.77522
0.775487
0.774663
0.772943
0.767725
0.760206
0.74306
0.721772
0.675321
0.625508
0.774131
0.774602
0.775014
0.775196
0.774268
0.772421
0.76708
0.759435
0.742311
0.721114
0.675724
0.627031
0.774016
0.774454
0.774808
0.774906
0.773875
0.771904
0.766448
0.758684
0.741595
0.720501
0.67616
0.628575
0.773901
0.774306
0.774604
0.774619
0.773486
0.771395
0.765828
0.757954
0.740912
0.719932
0.676628
0.630135
0.773786
0.774159
0.774402
0.774335
0.773103
0.770895
0.765225
0.757248
0.740263
0.719406
0.677126
0.63171
0.77367
0.774013
0.774204
0.774057
0.772728
0.770407
0.764638
0.756566
0.739647
0.718923
0.67765
0.633297
0.773554
0.773868
0.774008
0.773785
0.772363
0.769933
0.76407
0.755909
0.739064
0.71848
0.678199
0.634893
0.773438
0.773723
0.773816
0.773518
0.772007
0.76947
0.763518
0.755276
0.738512
0.718075
0.678769
0.636494
0.773322
0.773579
0.773626
0.773257
0.771659
0.76902
0.762984
0.754664
0.737989
0.717707
0.679358
0.638099
0.773206
0.773435
0.773437
0.772999
0.771317
0.768579
0.762463
0.754072
0.737492
0.71737
0.679961
0.639704
0.773089
0.77329
0.773248
0.772742
0.770979
0.768147
0.761955
0.753499
0.73702
0.717065
0.680579
0.641309
0.772973
0.773146
0.773058
0.772486
0.770645
0.76772
0.761457
0.752942
0.736571
0.716789
0.681208
0.642911
0.772858
0.773001
0.772869
0.77223
0.770312
0.767298
0.760969
0.752401
0.736145
0.716542
0.681849
0.64451
0.772742
0.772856
0.77268
0.771975
0.769982
0.766882
0.760491
0.751876
0.73574
0.716323
0.682501
0.646104
0.772628
0.772712
0.772492
0.771721
0.769655
0.766472
0.760025
0.751367
0.735358
0.716132
0.683163
0.647692
0.772514
0.772569
0.772306
0.771471
0.769333
0.76607
0.759569
0.750876
0.734999
0.715968
0.683835
0.649273
0.772401
0.772428
0.772123
0.771225
0.769017
0.765677
0.759128
0.750404
0.734662
0.715832
0.684515
0.650847
0.77229
0.772289
0.771944
0.770983
0.768708
0.765294
0.7587
0.74995
0.734348
0.715721
0.685202
0.65241
0.772179
0.772152
0.771768
0.770748
0.768408
0.764921
0.758286
0.749515
0.734056
0.715635
0.685896
0.653964
0.77207
0.772017
0.771596
0.770517
0.768114
0.764559
0.757886
0.749097
0.733784
0.715572
0.686594
0.655505
0.771961
0.771884
0.771428
0.770292
0.767829
0.764207
0.757499
0.748696
0.733532
0.715531
0.687297
0.657034
0.771855
0.771753
0.771262
0.770072
0.767549
0.763864
0.757123
0.748311
0.733298
0.715511
0.688002
0.658549
0.771749
0.771624
0.7711
0.769856
0.767276
0.763529
0.75676
0.747941
0.733082
0.71551
0.68871
0.660051
0.771645
0.771496
0.77094
0.769643
0.767008
0.763202
0.756407
0.747586
0.732882
0.715528
0.689419
0.661537
0.771542
0.771371
0.770783
0.769434
0.766746
0.762883
0.756065
0.747246
0.732699
0.715565
0.69013
0.663008
0.77144
0.771247
0.770628
0.769229
0.766489
0.762572
0.755734
0.746919
0.732531
0.715618
0.690841
0.664462
0.77134
0.771126
0.770477
0.769029
0.766239
0.76227
0.755415
0.746608
0.73238
0.715689
0.691553
0.665901
0.771242
0.771006
0.770329
0.768833
0.765995
0.761975
0.755107
0.746311
0.732244
0.715775
0.692263
0.667322
0.771144
0.770889
0.770184
0.768642
0.765757
0.761691
0.75481
0.746029
0.732123
0.715876
0.692973
0.668726
0.771049
0.770773
0.770042
0.768455
0.765526
0.761414
0.754524
0.745759
0.732016
0.715991
0.69368
0.670111
0.770954
0.77066
0.769903
0.768273
0.765301
0.761146
0.754249
0.745503
0.731922
0.716119
0.694385
0.671478
0.770862
0.770548
0.769767
0.768095
0.765081
0.760885
0.753983
0.745259
0.731839
0.716258
0.695086
0.672825
0.770771
0.770439
0.769633
0.76792
0.764867
0.760632
0.753727
0.745027
0.731769
0.716408
0.695784
0.674154
0.770682
0.770332
0.769502
0.767749
0.764658
0.760384
0.753479
0.744804
0.731708
0.716568
0.696477
0.675463
0.770595
0.770227
0.769373
0.767581
0.764453
0.760144
0.753239
0.744593
0.731658
0.716739
0.697166
0.676753
0.77051
0.770124
0.769247
0.767416
0.764252
0.759909
0.753008
0.744392
0.731618
0.716918
0.69785
0.678023
0.770427
0.770024
0.769123
0.767255
0.764057
0.759682
0.752785
0.744202
0.731588
0.717106
0.698531
0.679274
0.770347
0.769926
0.769003
0.767098
0.763867
0.759461
0.752571
0.744022
0.731568
0.717303
0.699205
0.680505
0.770269
0.769832
0.768887
0.766947
0.763683
0.759248
0.752366
0.743853
0.731558
0.717508
0.699876
0.681717
0.770193
0.76974
0.768775
0.766799
0.763506
0.759043
0.752171
0.743694
0.731557
0.71772
0.70054
0.682908
0.77012
0.769652
0.768667
0.766658
0.763335
0.758846
0.751985
0.743546
0.731565
0.71794
0.701199
0.68408
0.77005
0.769567
0.768563
0.766521
0.76317
0.758656
0.751807
0.743408
0.731582
0.718166
0.701852
0.685232
0.769982
0.769486
0.768463
0.766391
0.763013
0.758475
0.751639
0.743281
0.731607
0.718398
0.702499
0.686364
0.769917
0.769408
0.768367
0.766265
0.762861
0.7583
0.751479
0.743162
0.731639
0.718634
0.703138
0.687476
0.769854
0.769334
0.768276
0.766144
0.762716
0.758134
0.751328
0.743052
0.731679
0.718876
0.703772
0.688568
0.769795
0.769262
0.768188
0.766028
0.762577
0.757974
0.751184
0.742951
0.731725
0.719121
0.704397
0.68964
0.769738
0.769195
0.768105
0.765917
0.762444
0.757821
0.751049
0.742858
0.731778
0.719371
0.705017
0.690693
0.769684
0.76913
0.768025
0.76581
0.762316
0.757675
0.750921
0.742773
0.731836
0.719624
0.705628
0.691725
0.769633
0.769069
0.76795
0.765709
0.762195
0.757536
0.750801
0.742697
0.731902
0.71988
0.706232
0.692738
0.769585
0.769012
0.767878
0.765612
0.76208
0.757403
0.750688
0.742628
0.731972
0.720138
0.706828
0.69373
0.769541
0.768958
0.767811
0.76552
0.76197
0.757277
0.750583
0.742567
0.732049
0.7204
0.707418
0.694704
0.769499
0.768908
0.767748
0.765432
0.761867
0.757158
0.750484
0.742512
0.732129
0.720661
0.707997
0.695657
0.769461
0.768861
0.767689
0.76535
0.761769
0.757045
0.750394
0.742465
0.732215
0.720925
0.70857
0.696592
0.769426
0.768818
0.767633
0.765273
0.761677
0.756939
0.750309
0.742423
0.732304
0.721189
0.709133
0.697506
0.769395
0.76878
0.767583
0.7652
0.761591
0.756839
0.750232
0.742389
0.732398
0.721455
0.709689
0.698402
0.769367
0.768744
0.767536
0.765132
0.761511
0.756744
0.75016
0.74236
0.732495
0.721719
0.710235
0.699278
0.769343
0.768713
0.767494
0.765069
0.761436
0.756656
0.750095
0.742337
0.732596
0.721984
0.710774
0.700136
0.769322
0.768686
0.767456
0.765011
0.761367
0.756573
0.750036
0.742319
0.7327
0.722248
0.711302
0.700973
0.769306
0.768664
0.767423
0.764959
0.761304
0.756498
0.749983
0.742308
0.732807
0.722513
0.711824
0.701794
0.769293
0.768645
0.767395
0.764911
0.761247
0.756427
0.749936
0.742301
0.732917
0.722776
0.712335
0.702594
0.769285
0.768632
0.767371
0.764869
0.761196
0.756364
0.749897
0.742301
0.73303
0.723039
0.712838
0.703377
0.76928
0.768622
0.767353
0.764833
0.761152
0.756307
0.749862
0.742305
0.733145
0.7233
0.713331
0.704141
0.76928
0.768618
0.76734
0.764803
0.761114
0.756257
0.749835
0.742315
0.733264
0.72356
0.713816
0.704888
0.769284
0.768618
0.767332
0.764779
0.761082
0.756212
0.749813
0.74233
0.733383
0.723818
0.714291
0.705615
0.769292
0.768623
0.767329
0.76476
0.761056
0.756175
0.749797
0.74235
0.733506
0.724074
0.714758
0.706325
0.769304
0.768632
0.767332
0.764748
0.761037
0.756143
0.749786
0.742374
0.733629
0.724328
0.715214
0.707017
0.769321
0.768647
0.767339
0.764741
0.761024
0.756118
0.749782
0.742402
0.733754
0.72458
0.715661
0.707692
0.769343
0.768666
0.767353
0.764741
0.761016
0.756098
0.749781
0.742434
0.733879
0.724827
0.716098
0.708347
0.769369
0.76869
0.767371
0.764746
0.761015
0.756085
0.749787
0.742471
0.734006
0.725074
0.716526
0.708987
0.7694
0.76872
0.767395
0.764757
0.761019
0.756077
0.749796
0.74251
0.734132
0.725315
0.716943
0.709608
0.769435
0.768754
0.767424
0.764774
0.76103
0.756075
0.749811
0.742553
0.73426
0.725555
0.717352
0.710213
0.769475
0.768794
0.767459
0.764797
0.761045
0.756078
0.749829
0.742599
0.734386
0.725789
0.717749
0.710799
0.76952
0.768838
0.767499
0.764825
0.761067
0.756087
0.749853
0.742649
0.734514
0.726022
0.718138
0.711369
0.76957
0.768888
0.767544
0.764859
0.761094
0.7561
0.74988
0.7427
0.73464
0.726248
0.718515
0.711921
0.769624
0.768944
0.767595
0.7649
0.761127
0.75612
0.749911
0.742755
0.734766
0.726472
0.718883
0.712457
0.769684
0.769004
0.767652
0.764946
0.761165
0.756144
0.749946
0.742812
0.734891
0.72669
0.71924
0.712975
0.769749
0.76907
0.767715
0.764998
0.761209
0.756175
0.749985
0.742871
0.735016
0.726906
0.719587
0.713478
0.769819
0.769142
0.767783
0.765057
0.761258
0.756209
0.750028
0.742932
0.735139
0.727114
0.719923
0.713963
0.769894
0.76922
0.767858
0.765121
0.761314
0.75625
0.750075
0.742996
0.735261
0.72732
0.72025
0.714432
0.769975
0.769303
0.767938
0.765191
0.761374
0.756295
0.750124
0.743061
0.735381
0.727519
0.720565
0.714883
0.770061
0.769393
0.768024
0.765268
0.76144
0.756345
0.750178
0.743129
0.735501
0.727714
0.720871
0.71532
0.770153
0.769488
0.768117
0.765351
0.761512
0.7564
0.750234
0.743197
0.735618
0.727902
0.721165
0.715738
0.77025
0.769589
0.768216
0.76544
0.76159
0.756461
0.750295
0.743268
0.735734
0.728087
0.721449
0.716142
0.770353
0.769697
0.768321
0.765536
0.761674
0.756526
0.750359
0.743339
0.735847
0.728264
0.721722
0.716528
0.770462
0.769811
0.768433
0.765638
0.761764
0.756597
0.750426
0.743412
0.73596
0.728438
0.721985
0.716899
0.770576
0.769932
0.768551
0.765747
0.761859
0.756673
0.750496
0.743486
0.736069
0.728603
0.722235
0.717252
0.770697
0.770058
0.768676
0.765863
0.761961
0.756754
0.75057
0.743561
0.736176
0.728764
0.722477
0.717591
0.770824
0.770192
0.768808
0.765984
0.762068
0.756839
0.750646
0.743636
0.73628
0.728917
0.722705
0.717911
0.770956
0.770332
0.768946
0.766113
0.762181
0.75693
0.750725
0.743713
0.736382
0.729065
0.722924
0.718218
0.771096
0.770479
0.769091
0.766249
0.7623
0.757025
0.750807
0.743789
0.73648
0.729205
0.723129
0.718506
0.771241
0.770633
0.769244
0.766391
0.762426
0.757126
0.750891
0.743866
0.736575
0.72934
0.723326
0.71878
0.771393
0.770794
0.769403
0.76654
0.762556
0.75723
0.750978
0.743943
0.736667
0.729465
0.723508
0.719035
0.771551
0.770962
0.769569
0.766696
0.762693
0.75734
0.751068
0.74402
0.736755
0.729586
0.723681
0.719277
0.771717
0.771137
0.769743
0.766859
0.762836
0.757453
0.751159
0.744095
0.736839
0.729697
0.723841
0.7195
0.771889
0.771319
0.769924
0.767029
0.762985
0.757572
0.751253
0.744171
0.73692
0.729802
0.72399
0.719709
0.772067
0.771509
0.770112
0.767206
0.763139
0.757694
0.751348
0.744246
0.736996
0.729898
0.724126
0.7199
0.772253
0.771707
0.770308
0.76739
0.7633
0.757822
0.751446
0.744321
0.737069
0.729987
0.724251
0.720076
0.772447
0.771912
0.770511
0.767581
0.763467
0.757953
0.751545
0.744394
0.737136
0.730067
0.724363
0.720235
0.772647
0.772125
0.770723
0.76778
0.76364
0.75809
0.751647
0.744466
0.737199
0.73014
0.724464
0.720379
0.772855
0.772346
0.770942
0.767986
0.763819
0.75823
0.751749
0.744537
0.737257
0.730204
0.724551
0.720504
0.773071
0.772575
0.771169
0.768201
0.764005
0.758375
0.751854
0.744607
0.737311
0.73026
0.724627
0.720615
0.773294
0.772813
0.771405
0.768422
0.764197
0.758524
0.75196
0.744674
0.737359
0.730306
0.724689
0.720708
0.773525
0.773059
0.771649
0.768652
0.764395
0.758678
0.752068
0.744741
0.737403
0.730345
0.72474
0.720786
0.773765
0.773314
0.771902
0.768889
0.7646
0.758836
0.752177
0.744806
0.73744
0.730373
0.724776
0.720846
0.774013
0.773577
0.772163
0.769135
0.764812
0.758998
0.752288
0.744869
0.737473
0.730394
0.724802
0.720891
0.774269
0.77385
0.772434
0.769389
0.76503
0.759165
0.752399
0.744929
0.737499
0.730404
0.724812
0.720917
0.774533
0.774132
0.772714
0.769652
0.765255
0.759336
0.752512
0.744988
0.737519
0.730405
0.724811
0.720929
0.774807
0.774423
0.773002
0.769923
0.765487
0.759512
0.752626
0.745043
0.737533
0.730395
0.724794
0.720922
0.77509
0.774723
0.773301
0.770204
0.765726
0.759692
0.752741
0.745097
0.737541
0.730377
0.724766
0.720899
0.775381
0.775034
0.773609
0.770492
0.765972
0.759876
0.752856
0.745147
0.737542
0.730347
0.724722
0.720858
0.775682
0.775354
0.773927
0.770791
0.766225
0.760065
0.752972
0.745194
0.737536
0.730308
0.724666
0.720801
0.775993
0.775685
0.774255
0.771098
0.766485
0.760257
0.753089
0.745238
0.737523
0.730257
0.724594
0.720725
0.776313
0.776026
0.774593
0.771415
0.766753
0.760454
0.753206
0.745279
0.737503
0.730196
0.72451
0.720634
0.776644
0.776378
0.774942
0.771741
0.767027
0.760655
0.753323
0.745315
0.737474
0.730123
0.724409
0.720522
0.776984
0.77674
0.775302
0.772077
0.76731
0.76086
0.75344
0.745347
0.737439
0.730039
0.724295
0.720396
0.777335
0.777114
0.775673
0.772423
0.7676
0.761069
0.753557
0.745375
0.737394
0.729943
0.724165
0.720249
0.777697
0.777499
0.776055
0.772779
0.767897
0.761282
0.753674
0.745399
0.737342
0.729836
0.724021
0.720087
0.77807
0.777896
0.776448
0.773146
0.768202
0.761499
0.75379
0.745418
0.73728
0.729715
0.72386
0.719904
0.778454
0.778304
0.776854
0.773523
0.768516
0.761721
0.753906
0.745432
0.73721
0.729583
0.723686
0.719704
0.778849
0.778725
0.777272
0.773912
0.768837
0.761946
0.75402
0.74544
0.737129
0.729437
0.723493
0.719485
0.779256
0.779159
0.777702
0.774311
0.769167
0.762175
0.754135
0.745443
0.73704
0.729279
0.723287
0.719248
0.779676
0.779606
0.778145
0.774722
0.769504
0.762407
0.754247
0.74544
0.73694
0.729107
0.723062
0.718991
0.780107
0.780065
0.778601
0.775145
0.76985
0.762644
0.754358
0.745431
0.73683
0.728922
0.722822
0.718717
0.780551
0.780539
0.779071
0.775579
0.770205
0.762884
0.754467
0.745415
0.736709
0.728721
0.722564
0.718421
0.781009
0.781026
0.779555
0.776027
0.770569
0.763129
0.754575
0.745392
0.736577
0.728508
0.722291
0.718108
0.781479
0.781528
0.780053
0.776486
0.77094
0.763376
0.75468
0.745362
0.736433
0.728279
0.721998
0.717773
0.781964
0.782045
0.780566
0.776959
0.771322
0.763627
0.754783
0.745324
0.736278
0.728035
0.721689
0.71742
0.782462
0.782576
0.781093
0.777445
0.771712
0.763881
0.754883
0.745277
0.736109
0.727775
0.72136
0.717045
0.782975
0.783124
0.781637
0.777944
0.772111
0.764138
0.75498
0.745223
0.735929
0.7275
0.721015
0.716651
0.783503
0.783687
0.782196
0.778458
0.77252
0.764398
0.755072
0.745158
0.735734
0.727207
0.720649
0.716235
0.784046
0.784268
0.782772
0.778985
0.772938
0.764661
0.755161
0.745085
0.735527
0.726899
0.720266
0.7158
0.784605
0.784865
0.783365
0.779528
0.773365
0.764926
0.755245
0.745
0.735303
0.726572
0.719861
0.715341
0.78518
0.78548
0.783975
0.780085
0.773803
0.765195
0.755325
0.744906
0.735066
0.726228
0.719439
0.714863
0.785772
0.786113
0.784603
0.780658
0.774249
0.765464
0.755399
0.744799
0.734812
0.725865
0.718994
0.71436
0.78638
0.786764
0.785251
0.781247
0.774706
0.765736
0.755467
0.744681
0.734543
0.725484
0.71853
0.713838
0.787007
0.787435
0.785917
0.781852
0.775172
0.766009
0.755528
0.744549
0.734255
0.725082
0.718044
0.713291
0.787652
0.788127
0.786603
0.782474
0.775649
0.766283
0.755582
0.744404
0.733951
0.724662
0.717538
0.712723
0.788316
0.788838
0.78731
0.783113
0.776135
0.766558
0.755628
0.744244
0.733628
0.72422
0.717007
0.71213
0.788999
0.789571
0.788038
0.78377
0.776631
0.766833
0.755666
0.74407
0.733287
0.723758
0.716456
0.711516
0.789702
0.790326
0.788788
0.784445
0.777137
0.767108
0.755693
0.743879
0.732924
0.723272
0.715881
0.710875
0.790426
0.791104
0.789561
0.785138
0.777654
0.767383
0.755711
0.743673
0.732543
0.722766
0.715283
0.710212
0.791171
0.791906
0.790357
0.785851
0.77818
0.767655
0.755717
0.743447
0.732138
0.722234
0.71466
0.709523
0.791939
0.792732
0.791178
0.786584
0.778717
0.767926
0.755711
0.743203
0.731712
0.721681
0.714014
0.70881
0.792729
0.793584
0.792024
0.787336
0.779262
0.768194
0.755691
0.742938
0.731262
0.721101
0.713341
0.70807
0.793543
0.794462
0.792896
0.78811
0.779818
0.768459
0.755658
0.742653
0.730788
0.720497
0.712645
0.707306
0.794382
0.795367
0.793796
0.788905
0.780383
0.768719
0.755608
0.742345
0.730288
0.719865
0.71192
0.706514
0.795246
0.796301
0.794724
0.789722
0.780957
0.768974
0.755542
0.742013
0.729762
0.719208
0.71117
0.705697
0.796137
0.797265
0.795681
0.790561
0.78154
0.769222
0.755457
0.741656
0.729207
0.718521
0.710391
0.704851
0.797055
0.798259
0.796668
0.791424
0.782132
0.769462
0.755352
0.741273
0.728625
0.717807
0.709586
0.70398
0.798002
0.799285
0.797688
0.792309
0.782731
0.769693
0.755225
0.740861
0.728011
0.717061
0.70875
0.703078
0.798978
0.800344
0.79874
0.79322
0.783338
0.769914
0.755075
0.74042
0.727367
0.716287
0.707887
0.702149
0.799985
0.801439
0.799827
0.794154
0.783951
0.770122
0.754899
0.739947
0.726689
0.715479
0.706992
0.70119
0.801024
0.802569
0.800949
0.795114
0.78457
0.770316
0.754697
0.739441
0.725978
0.71464
0.706068
0.700203
0.802097
0.803737
0.802109
0.7961
0.785194
0.770494
0.754463
0.738899
0.72523
0.713765
0.70511
0.699185
0.803203
0.804945
0.803307
0.797111
0.785822
0.770654
0.754199
0.73832
0.724447
0.712858
0.704123
0.698138
0.804347
0.806194
0.804546
0.798149
0.786452
0.770793
0.753899
0.737701
0.723623
0.711913
0.7031
0.697058
0.805527
0.807487
0.805827
0.799215
0.787084
0.77091
0.753562
0.737042
0.72276
0.710932
0.702046
0.695948
0.806747
0.808824
0.807152
0.800307
0.787714
0.770999
0.753184
0.736337
0.721854
0.709912
0.700956
0.694804
0.808008
0.81021
0.808523
0.801426
0.788342
0.77106
0.752763
0.735587
0.720905
0.708853
0.699832
0.69363
0.809312
0.811645
0.809941
0.802573
0.788964
0.771087
0.752295
0.734786
0.71991
0.707753
0.69867
0.692422
0.810661
0.813132
0.811409
0.803747
0.789579
0.771077
0.751776
0.733935
0.718868
0.706612
0.697474
0.691181
0.812056
0.814675
0.812929
0.804947
0.790183
0.771027
0.751203
0.733028
0.717776
0.705427
0.696239
0.689905
0.813501
0.816276
0.814504
0.806175
0.790774
0.770931
0.750572
0.732065
0.716634
0.704199
0.694966
0.688596
0.814997
0.817938
0.816135
0.807427
0.791346
0.770784
0.749877
0.73104
0.715437
0.702924
0.693654
0.68725
0.816548
0.819664
0.817825
0.808705
0.791896
0.770581
0.749116
0.729952
0.714186
0.701604
0.692303
0.68587
0.818155
0.821459
0.819576
0.810005
0.792418
0.770316
0.748282
0.728796
0.712876
0.700234
0.690911
0.684453
0.819822
0.823326
0.821391
0.811327
0.792908
0.769982
0.747371
0.727571
0.711509
0.698816
0.689478
0.683
0.821552
0.82527
0.823271
0.812667
0.793358
0.769572
0.746376
0.72627
0.710078
0.697346
0.688003
0.681508
0.823348
0.827294
0.825221
0.814024
0.793761
0.769079
0.745294
0.724894
0.708586
0.695825
0.686485
0.67998
0.825214
0.829404
0.827241
0.815392
0.79411
0.768493
0.744116
0.723435
0.707026
0.694251
0.684923
0.678413
0.827154
0.831606
0.829335
0.816769
0.794394
0.767807
0.742839
0.721893
0.7054
0.692623
0.683317
0.676808
0.829173
0.833905
0.831504
0.818147
0.794604
0.76701
0.741453
0.720262
0.703703
0.690938
0.681665
0.675165
0.831274
0.836307
0.833749
0.819522
0.794729
0.766092
0.739955
0.71854
0.701936
0.689198
0.679968
0.673484
0.833464
0.838819
0.836073
0.820884
0.794755
0.765042
0.738335
0.716723
0.700093
0.687398
0.678224
0.671764
0.835747
0.841449
0.838477
0.822225
0.794668
0.763848
0.736588
0.714807
0.698177
0.685541
0.676433
0.670006
0.83813
0.844204
0.84096
0.823533
0.794451
0.762497
0.734707
0.712788
0.696182
0.683624
0.674595
0.668209
0.84062
0.847093
0.843522
0.824795
0.794089
0.760976
0.732684
0.710665
0.69411
0.681647
0.672709
0.666375
0.843224
0.850124
0.846161
0.825996
0.79356
0.759271
0.730513
0.708433
0.691957
0.679607
0.670774
0.664501
0.845951
0.853308
0.848875
0.827118
0.792844
0.757368
0.728187
0.706091
0.689723
0.677506
0.668791
0.66259
0.848809
0.856653
0.851657
0.828139
0.791916
0.755251
0.725699
0.703635
0.687407
0.675342
0.666758
0.660639
0.851809
0.860172
0.854502
0.829036
0.790752
0.752905
0.723044
0.701065
0.685007
0.673116
0.664677
0.658652
0.854963
0.863874
0.8574
0.82978
0.789323
0.750314
0.720216
0.698377
0.682524
0.670826
0.662546
0.656627
0.858283
0.867771
0.860337
0.830339
0.787599
0.747464
0.717211
0.695573
0.679957
0.668473
0.660367
0.654565
0.861784
0.871874
0.863298
0.830676
0.785548
0.744339
0.714024
0.69265
0.677305
0.666057
0.658138
0.652466
0.865483
0.876194
0.86626
0.830748
0.783135
0.740924
0.710654
0.68961
0.67457
0.663578
0.655861
0.650332
0.869397
0.880741
0.869196
0.830506
0.780325
0.737206
0.707099
0.686452
0.671751
0.661037
0.653535
0.648162
0.873549
0.885525
0.872073
0.829898
0.77708
0.733173
0.703359
0.683179
0.668851
0.658434
0.651162
0.645957
0.877961
0.890551
0.874847
0.828862
0.77336
0.728817
0.699437
0.679793
0.66587
0.65577
0.64874
0.643718
0.882662
0.895824
0.877469
0.827329
0.769129
0.72413
0.695336
0.676299
0.66281
0.653047
0.646272
0.641446
0.887681
0.901343
0.879875
0.825227
0.764347
0.71911
0.691063
0.672697
0.659673
0.650266
0.643758
0.639141
0.893053
0.907103
0.88199
0.822471
0.758979
0.713758
0.686627
0.668996
0.656463
0.647429
0.641199
0.636805
0.898819
0.913089
0.883725
0.818976
0.752992
0.70808
0.682038
0.665198
0.65318
0.644538
0.638596
0.634437
0.905022
0.919277
0.884973
0.814644
0.746359
0.70209
0.677309
0.661311
0.649831
0.641596
0.63595
0.632041
0.911712
0.925629
0.885611
0.809378
0.73906
0.695807
0.672456
0.657341
0.646418
0.638606
0.633261
0.629613
0.918945
0.932091
0.885492
0.803076
0.731087
0.689258
0.667496
0.653296
0.642947
0.63557
0.630533
0.627158
0.926783
0.938586
0.884451
0.795637
0.722442
0.682478
0.662448
0.649182
0.639422
0.632493
0.627764
0.624673
0.935292
0.94501
0.882298
0.786962
0.713146
0.67551
0.657332
0.645007
0.635852
0.62938
0.624957
0.62216
0.944543
0.951226
0.878818
0.776964
0.70324
0.668404
0.652167
0.640779
0.632241
0.626234
0.62211
0.619616
0.954612
0.957054
0.873775
0.765572
0.692788
0.661218
0.646973
0.636508
0.6286
0.623061
0.619225
0.617041
0.965573
0.962266
0.866909
0.752741
0.68188
0.654014
0.641767
0.632201
0.624938
0.619868
0.616299
0.614428
0.977494
0.966572
0.857945
0.738462
0.670633
0.646854
0.636566
0.627869
0.621267
0.61666
0.613331
0.611774
0.990436
0.969608
0.846596
0.722778
0.659196
0.639802
0.631381
0.623523
0.617602
0.613445
0.610315
0.609069
1.00443
0.970925
0.832575
0.705795
0.647737
0.632912
0.626221
0.619175
0.613959
0.610231
0.607246
0.606307
1.01948
0.969968
0.815614
0.687708
0.636448
0.626233
0.621095
0.614847
0.610356
0.60702
0.604104
0.603471
1.0355
0.966062
0.79549
0.668801
0.625519
0.619783
0.615999
0.610557
0.606828
0.603834
0.600894
0.600554
1.05235
0.958388
0.772069
0.649483
0.615164
0.613605
0.61095
0.606311
0.603323
0.600562
0.597491
0.597486
1.0697
0.945963
0.745361
0.630201
0.605455
0.607651
0.606037
0.602352
0.600205
0.59755
0.59417
0.594503
1.08704
0.927644
0.715755
0.611751
0.596672
0.601737
0.600752
0.597905
0.596543
0.593934
0.590285
0.591298
1.10338
0.901979
0.683637
0.594251
0.589282
0.597306
0.597236
0.595301
0.594257
0.59102
0.586595
0.58817
1.11756
0.868161
0.651964
0.57747
0.57976
0.589599
0.590947
0.59097
0.591031
0.587386
0.582271
0.5844
1.12586
0.821903
0.625601
0.570897
0.578792
0.587915
0.588659
0.589252
0.589596
0.58516
0.579565
0.58229
1.12954
0.748894
0.575355
0.546536
0.567663
0.582284
0.585725
0.58804
0.589134
0.584773
0.579401
0.582223
-0.0553285
-0.0452003
-0.0233145
-0.0129728
-0.00673242
-0.00203611
0.00117272
0.00304129
0.00384666
0.00411597
0.00424165
0.00421253
-0.0570771
-0.0477546
-0.0168649
-0.00442792
0.00203908
0.00744715
0.0111194
0.0128682
0.0131669
0.0128289
0.0124651
0.0118959
0.0619488
0.0273172
0.0313595
0.0286441
0.0249384
0.0240752
0.0239455
0.0233158
0.0223591
0.021513
0.0210884
0.0206937
0.125676
0.0659573
0.0559404
0.0476279
0.0397157
0.0361342
0.0347833
0.0337744
0.0329053
0.0323984
0.0323875
0.032501
0.148395
0.0885458
0.0770439
0.0684409
0.0590198
0.0537377
0.0513281
0.0496958
0.0484211
0.0476372
0.0474238
0.0476005
0.178967
0.121494
0.106796
0.0955548
0.083386
0.075453
0.0711117
0.0681653
0.0659652
0.0646028
0.0641353
0.0644157
0.2165
0.156989
0.136848
0.122322
0.10777
0.0976777
0.0917636
0.0878134
0.0849529
0.0831845
0.0825067
0.0827579
0.24907
0.188027
0.164263
0.147861
0.131999
0.120458
0.113309
0.10847
0.104933
0.102638
0.101585
0.101658
0.275945
0.216038
0.190727
0.173235
0.156407
0.143599
0.13523
0.129444
0.125187
0.122358
0.120961
0.120884
0.300224
0.242606
0.216456
0.197985
0.180282
0.166374
0.156916
0.150285
0.14541
0.142137
0.140446
0.140193
0.322881
0.267538
0.240785
0.221509
0.203156
0.188429
0.178115
0.170795
0.165406
0.161752
0.159779
0.159308
0.34364
0.290512
0.263484
0.243687
0.224934
0.209641
0.198676
0.1908
0.184981
0.180994
0.178749
0.178034
0.362447
0.311602
0.28462
0.264543
0.245586
0.229934
0.218492
0.210177
0.204005
0.199724
0.197215
0.196237
0.379533
0.330992
0.304276
0.28411
0.265116
0.249281
0.237513
0.228856
0.22239
0.217844
0.215078
0.213836
0.395135
0.34885
0.322556
0.302464
0.283577
0.267696
0.255714
0.246792
0.24008
0.235295
0.232288
0.230794
0.409434
0.365342
0.339593
0.319705
0.30103
0.285199
0.27309
0.263964
0.257049
0.252052
0.248824
0.247104
0.422606
0.380639
0.35552
0.335926
0.31753
0.30182
0.28965
0.280374
0.273294
0.268114
0.264697
0.262788
0.434812
0.39489
0.370447
0.351201
0.333131
0.317592
0.305416
0.296037
0.28883
0.283503
0.279934
0.277879
0.446184
0.408212
0.384463
0.3656
0.347886
0.332558
0.32042
0.310982
0.303687
0.298254
0.294575
0.292414
0.456816
0.420695
0.397643
0.379184
0.361847
0.34676
0.334701
0.325246
0.317906
0.31241
0.308663
0.306431
0.466779
0.432412
0.410053
0.392011
0.375065
0.360246
0.348303
0.338876
0.331535
0.326017
0.322236
0.319959
0.476132
0.443427
0.421752
0.404133
0.387591
0.373066
0.361276
0.351921
0.344617
0.339112
0.335324
0.33302
0.484924
0.453795
0.432793
0.415605
0.399479
0.385273
0.37367
0.364426
0.357193
0.351728
0.347952
0.345634
0.4932
0.463564
0.443226
0.426477
0.41078
0.396918
0.385531
0.376431
0.369294
0.363887
0.360136
0.357816
0.500999
0.472784