/*--------------------------------*- C++ -*----------------------------------*\
  =========                 |
  \\      /  F ield         | OpenFOAM: The Open Source CFD Toolbox
   \\    /   O peration     | Website:  https://openfoam.org
    \\  /    A nd           | Version:  6.0
     \\/     M anipulation  |
\*---------------------------------------------------------------------------*/
FoamFile
{
    version     2.0;
    format      ascii;
    class       surfaceScalarField;
    location    "2";
    object      phi;
}
// * * * * * * * * * * * * * * * * * * * * * * * * * * * * * * * * * * * * * //

dimensions      [0 3 -1 0 0 0 0];

internalField   nonuniform List<scalar> 
29696
(
2.97905e-05
0.00388713
1.72685e-09
5.98235e-05
0.00382903
8.91018e-05
0.0037152
0.000116987
0.00354793
0.000142923
0.00333169
0.000166463
0.00307227
0.000187139
0.00277966
0.000204697
0.0024644
0.00021863
0.0021542
0.000229322
0.0018648
0.000235771
0.00171943
0.00184267
0.000263241
2.95666e-05
0.00385756
8.28185e-09
5.93887e-05
0.00379921
8.8475e-05
0.0036861
0.000116196
0.0035202
0.000142006
0.00330586
0.000165465
0.00304879
0.000186133
0.00275898
0.000203782
0.00244673
0.000218139
0.00213982
0.000230114
0.00185279
0.000244891
0.00170462
0.0018037
0.000283824
2.93582e-05
0.00382818
1.45882e-08
5.89767e-05
0.00376959
8.78654e-05
0.00365721
0.000115402
0.00349266
0.000141056
0.0032802
0.000164397
0.00302545
0.000185029
0.00273834
0.000202753
0.002429
0.0002176
0.00212497
0.000230858
0.00183953
0.000251039
0.00168444
0.00175535
0.000299396
2.91523e-05
0.00379901
2.04841e-08
5.85681e-05
0.00374017
8.72593e-05
0.00362851
0.000114611
0.0034653
0.000140108
0.0032547
0.000163329
0.00300222
0.000183917
0.00271774
0.000201704
0.00241119
0.000216947
0.0021097
0.000231066
0.00182539
0.000255384
0.00166009
0.00169861
0.000312094
2.89444e-05
0.00377004
2.59024e-08
5.81564e-05
0.00371096
8.66522e-05
0.00360001
0.000113825
0.00343813
0.000139171
0.00322935
0.000162281
0.00297911
0.000182825
0.00269719
0.000200665
0.00239335
0.000216232
0.00209414
0.000230883
0.00181074
0.000258435
0.00163255
0.00163661
0.000320442
2.87373e-05
0.00374127
3.08942e-08
5.77466e-05
0.00368195
8.60491e-05
0.0035717
0.000113046
0.00341112
0.000138245
0.00320414
0.000161245
0.00295609
0.000181747
0.00267668
0.000199634
0.00237545
0.000215503
0.00207825
0.000230553
0.00179566
0.000260264
0.00160281
0.00157215
0.000324697
2.85331e-05
0.0037127
3.54188e-08
5.73417e-05
0.00365314
8.5453e-05
0.00354358
0.000112275
0.0033843
0.000137327
0.00317909
0.000160219
0.0029332
0.000180676
0.00265622
0.000198601
0.00235752
0.000214759
0.00206209
0.000230146
0.00178028
0.000260995
0.00157197
0.00150692
0.000326234
2.83313e-05
0.00368433
3.9366e-08
5.69414e-05
0.00362453
8.48634e-05
0.00351566
0.000111513
0.00335764
0.000136419
0.00315418
0.000159201
0.00291041
0.00017961
0.0026358
0.000197568
0.00233955
0.000213992
0.00204565
0.000229657
0.00176459
0.000260904
0.0015407
0.00144187
0.000325925
2.81314e-05
0.00365615
4.27497e-08
5.65446e-05
0.00359611
8.42793e-05
0.00348792
0.000110758
0.00333116
0.00013552
0.00312941
0.000158192
0.00288774
0.000178554
0.00261544
0.000196536
0.00232157
0.000213199
0.00202899
0.000229102
0.0017487
0.000260246
0.00150956
0.00137802
0.00032412
2.79335e-05
0.00362817
4.55638e-08
5.61514e-05
0.00356789
8.37006e-05
0.00346037
0.000110011
0.00330485
0.000134631
0.00310478
0.000157194
0.00286517
0.000177505
0.00259512
0.000195507
0.00230355
0.000212383
0.0020121
0.000228506
0.00173255
0.00025919
0.00147886
0.00131605
0.000321133
2.77376e-05
0.00360039
4.78455e-08
5.57621e-05
0.00353987
8.31278e-05
0.003433
0.000109271
0.00327871
0.00013375
0.00308031
0.000156206
0.00284271
0.000176465
0.00257486
0.000194479
0.00228554
0.000211544
0.00199504
0.000227885
0.00171622
0.000257857
0.0014489
0.00125659
0.000317335
2.75439e-05
0.00357279
4.9583e-08
5.53769e-05
0.00351203
8.25608e-05
0.00340581
0.000108539
0.00325272
0.000132879
0.00305596
0.000155227
0.00282036
0.000175432
0.00255465
0.000193453
0.00226751
0.000210682
0.0019778
0.000227243
0.00169964
0.00025635
0.00141977
0.00119987
0.000313048
2.73524e-05
0.00354539
5.08014e-08
5.49958e-05
0.00348439
8.19998e-05
0.00337881
0.000107815
0.00322691
0.000132015
0.00303176
0.000154256
0.00279812
0.000174406
0.0025345
0.000192429
0.00224949
0.000209797
0.00196044
0.000226579
0.00168287
0.000254749
0.00139162
0.00114613
0.000308505
2.71631e-05
0.00351817
5.15396e-08
5.46188e-05
0.00345693
8.14447e-05
0.00335198
0.000107097
0.00320125
0.00013116
0.00300769
0.000153294
0.00277598
0.000173386
0.0025144
0.000191407
0.00223146
0.000208889
0.00194294
0.000225894
0.00166585
0.000253113
0.00136438
0.00109535
0.000303876
2.6976e-05
0.00349115
5.18489e-08
5.42459e-05
0.00342966
8.08956e-05
0.00332533
0.000106388
0.00317576
0.000130314
0.00298377
0.00015234
0.00275395
0.000172374
0.00249437
0.000190387
0.00221345
0.000207959
0.00192538
0.000225182
0.00164863
0.000251476
0.0013381
0.00104756
0.000299289
2.6791e-05
0.0034643
5.17841e-08
5.38771e-05
0.00340257
8.03523e-05
0.00329885
0.000105685
0.00315042
0.000129475
0.00295997
0.000151394
0.00273203
0.000171367
0.00247439
0.000189368
0.00219543
0.000207007
0.00190772
0.000224442
0.00163118
0.000249862
0.00131267
0.00100257
0.000294829
2.66081e-05
0.00343764
5.13838e-08
5.35123e-05
0.00337567
7.98147e-05
0.00327255
0.00010499
0.00312525
0.000128644
0.00293632
0.000150457
0.00271022
0.000170367
0.00245448
0.000188353
0.00217745
0.000206035
0.00189005
0.000223669
0.00161356
0.00024828
0.00128807
0.000960325
0.000290551
2.64274e-05
0.00341116
5.06826e-08
5.31514e-05
0.00334894
7.92828e-05
0.00324641
0.000104302
0.00310022
0.000127821
0.00291279
0.000149527
0.0026885
0.000169373
0.00243463
0.000187339
0.00215948
0.000205046
0.00187233
0.000222859
0.00159573
0.000246734
0.00126418
0.000920559
0.00028648
2.62488e-05
0.00338487
4.97201e-08
5.27945e-05
0.0033224
7.87564e-05
0.00322045
0.00010362
0.00307536
0.000127006
0.00288941
0.000148605
0.00266691
0.000168385
0.00241485
0.000186328
0.00214154
0.000204039
0.00185463
0.00022201
0.00157777
0.00024522
0.00124099
0.000883185
0.000282623
2.60722e-05
0.00335874
4.85308e-08
5.24413e-05
0.00329603
7.82354e-05
0.00319465
0.000102945
0.00305065
0.000126198
0.00286615
0.00014769
0.00264541
0.000167402
0.00239513
0.000185319
0.00212361
0.000203017
0.00183692
0.000221121
0.00155965
0.000243732
0.00121836
0.000847923
0.000278975
2.58976e-05
0.0033328
4.71491e-08
5.20918e-05
0.00326983
7.77195e-05
0.00316903
0.000102276
0.00302609
0.000125396
0.00284303
0.000146782
0.00262403
0.000166425
0.00237549
0.000184313
0.00210573
0.000201981
0.00181926
0.00022019
0.00154146
0.000242259
0.00119631
0.000814693
0.00027552
2.5725e-05
0.00330703
4.55968e-08
5.1746e-05
0.00324381
7.72088e-05
0.00314356
0.000101614
0.00300168
0.000124602
0.00282004
0.000145882
0.00260274
0.000165453
0.00235591
0.000183309
0.00208786
0.000200934
0.00180162
0.000219218
0.00152316
0.000240795
0.00117472
0.000783231
0.000272238
2.55543e-05
0.00328143
4.3904e-08
5.14037e-05
0.00321796
7.67029e-05
0.00311826
0.000100958
0.00297743
0.000123815
0.00279719
0.000144988
0.00258157
0.000164486
0.00233642
0.000182307
0.00207005
0.000199877
0.00178406
0.000218205
0.00150484
0.00023933
0.00115362
0.000753484
0.000269108
2.53855e-05
0.003256
4.21015e-08
5.10649e-05
0.00319228
7.62018e-05
0.00309312
0.000100307
0.00295332
0.000123033
0.00277446
0.0001441
0.0025605
0.000163525
0.00231699
0.000181308
0.00205226
0.000198811
0.00176654
0.000217154
0.00148649
0.000237858
0.0011329
0.000725216
0.000266107
2.52184e-05
0.00323074
4.02273e-08
5.07294e-05
0.00316677
7.57055e-05
0.00306815
9.96622e-05
0.00292937
0.000122259
0.00275186
0.00014322
0.00253954
0.000162568
0.00229764
0.000180311
0.00203452
0.000197739
0.00174913
0.000216066
0.00146817
0.000236374
0.00111261
0.000698407
0.000263215
2.5053e-05
0.00320565
3.83141e-08
5.03971e-05
0.00314142
7.52136e-05
0.00304333
9.9023e-05
0.00290556
0.00012149
0.00272939
0.000142345
0.00251868
0.000161615
0.00227837
0.000179316
0.00201681
0.00019666
0.00173177
0.000214946
0.00144988
0.000234873
0.00109267
0.000672848
0.000260414
2.48892e-05
0.00318073
3.63987e-08
5.00679e-05
0.00311624
7.47261e-05
0.00301867
9.83892e-05
0.00288189
0.000120728
0.00270706
0.000141477
0.00249794
0.000160668
0.00225918
0.000178323
0.00199916
0.000195578
0.00171452
0.000213795
0.00143167
0.000233355
0.00107313
0.000648547
0.000257689
2.47269e-05
0.00315596
3.45141e-08
4.97417e-05
0.00309123
7.4243e-05
0.00299417
9.77607e-05
0.00285837
0.000119971
0.00268484
0.000140614
0.00247729
0.000159725
0.00224006
0.000177332
0.00198155
0.000194492
0.00169735
0.000212617
0.00141353
0.000231819
0.00105391
0.000625319
0.000255027
2.45661e-05
0.00313137
3.26963e-08
4.94184e-05
0.00306637
7.37639e-05
0.00296983
9.71375e-05
0.002835
0.00011922
0.00266276
0.000139758
0.00245675
0.000158787
0.00222104
0.000176343
0.001964
0.000193403
0.0016803
0.000211417
0.00139553
0.000230264
0.00103509
0.000603196
0.000252419
2.44067e-05
0.00310693
3.09717e-08
4.90979e-05
0.00304168
7.32889e-05
0.00294563
9.65193e-05
0.00281177
0.000118476
0.0026408
0.000138908
0.00243632
0.000157853
0.00220209
0.000175356
0.00194648
0.000192313
0.00166333
0.000210196
0.00137764
0.000228692
0.00101658
0.000582011
0.000249857
2.42486e-05
0.00308265
2.93682e-08
4.878e-05
0.00301715
7.28178e-05
0.0029216
9.59061e-05
0.00278868
0.000117736
0.00261897
0.000138063
0.00241599
0.000156924
0.00218323
0.000174371
0.00192904
0.000191223
0.00164649
0.000208958
0.00135991
0.000227105
0.000998451
0.000561812
0.000247337
2.40919e-05
0.00305853
2.79075e-08
4.84649e-05
0.00299277
7.23506e-05
0.00289771
9.52978e-05
0.00276573
0.000117003
0.00259726
0.000137225
0.00239577
0.000156
0.00216445
0.000173387
0.00191165
0.000190132
0.00162973
0.000207707
0.00134233
0.000225506
0.000980638
0.000542442
0.000244854
2.39364e-05
0.00303457
2.66156e-08
4.81523e-05
0.00296856
7.18872e-05
0.00287397
9.46943e-05
0.00274293
0.000116275
0.00257569
0.000136392
0.00237565
0.000155079
0.00214577
0.000172406
0.00189433
0.000189041
0.00161311
0.000206444
0.00132494
0.000223896
0.000963207
0.000523962
0.000242407
2.37821e-05
0.00301076
2.55124e-08
4.78422e-05
0.0029445
7.14274e-05
0.00285039
9.40956e-05
0.00272026
0.000115552
0.00255423
0.000135564
0.00235564
0.000154164
0.00212716
0.000171426
0.00187706
0.000187951
0.00159657
0.000205172
0.0013077
0.000222278
0.000946087
0.000506223
0.000239996
2.3629e-05
0.00298711
2.46218e-08
4.75346e-05
0.00292059
7.09713e-05
0.00282695
9.35015e-05
0.00269773
0.000114834
0.0025329
0.000134742
0.00233573
0.000153253
0.00210866
0.000170448
0.00185987
0.000186861
0.00158017
0.000203893
0.00129069
0.000220656
0.000929344
0.000489291
0.000237619
2.34771e-05
0.0029636
2.39627e-08
4.72294e-05
0.00289684
7.05188e-05
0.00280366
9.2912e-05
0.00267533
0.000114122
0.00251168
0.000133925
0.00231593
0.000152346
0.00209023
0.000169472
0.00184273
0.000185773
0.00156386
0.000202609
0.00127384
0.000219031
0.000912909
0.000473023
0.000235276
2.33262e-05
0.00294026
2.35579e-08
4.69266e-05
0.00287324
7.00698e-05
0.00278052
9.23271e-05
0.00265308
0.000113415
0.0024906
0.000133114
0.00229623
0.000151443
0.0020719
0.000168498
0.00182569
0.000184685
0.00154768
0.000201322
0.00125721
0.000217406
0.000896845
0.000457491
0.000232969
2.31764e-05
0.00291705
2.34227e-08
4.66261e-05
0.00284979
6.96244e-05
0.00275752
9.17467e-05
0.00263095
0.000112714
0.00246963
0.000132308
0.00227663
0.000150545
0.00205366
0.000167525
0.0018087
0.000183599
0.0015316
0.000200033
0.00124077
0.000215783
0.000881081
0.000442554
0.000230697
2.30277e-05
0.00289401
2.35738e-08
4.6328e-05
0.00282649
6.91824e-05
0.00273466
9.11708e-05
0.00260897
0.000112017
0.00244878
0.000131507
0.00225715
0.000149651
0.00203552
0.000166554
0.0017918
0.000182514
0.00151565
0.000198743
0.00122455
0.000214165
0.00086568
0.000428291
0.000228459
2.288e-05
0.0028711
2.40187e-08
4.60321e-05
0.00280333
6.87438e-05
0.00271195
9.05994e-05
0.00258711
0.000111326
0.00242805
0.000130712
0.00223775
0.000148762
0.00201747
0.000165586
0.00177497
0.000181431
0.00149979
0.000197453
0.00120852
0.000212551
0.000850568
0.00041456
0.000226257
2.27333e-05
0.00284834
2.47649e-08
4.57385e-05
0.00278033
6.83087e-05
0.00268938
9.00322e-05
0.00256539
0.000110639
0.00240745
0.000129921
0.00221848
0.000147877
0.00199952
0.000164619
0.00175824
0.000180349
0.00148407
0.000196164
0.00119271
0.000210944
0.000835809
0.000401446
0.00022409
2.25877e-05
0.00282573
2.58094e-08
4.54471e-05
0.00275747
6.78769e-05
0.00266695
8.94695e-05
0.00254379
0.000109957
0.00238696
0.000129136
0.00219929
0.000146997
0.00198165
0.000163654
0.00174157
0.000179269
0.00146845
0.000194877
0.00117709
0.000209345
0.000821328
0.000388809
0.000221957
2.2443e-05
0.00280326
2.71489e-08
4.51579e-05
0.00273475
6.74484e-05
0.00264466
8.8911e-05
0.00252233
0.000109281
0.00236659
0.000128355
0.00218022
0.00014612
0.00196389
0.000162691
0.00172501
0.000178191
0.00145296
0.000193593
0.0011617
0.000207755
0.000807186
0.000376738
0.000219858
2.22993e-05
0.00278093
2.8769e-08
4.48709e-05
0.00271218
6.70232e-05
0.0026225
8.83567e-05
0.00250099
0.000108609
0.00234633
0.00012758
0.00216125
0.000145248
0.00194621
0.000161731
0.00170852
0.000177114
0.00143756
0.000192311
0.0011465
0.000206174
0.00079331
0.000365094
0.000217792
2.21565e-05
0.00275875
3.06551e-08
4.45861e-05
0.00268975
6.66014e-05
0.00260049
8.78067e-05
0.00247979
0.000107942
0.0023262
0.000126809
0.00214238
0.000144381
0.00192865
0.000160773
0.00169213
0.000176039
0.00142231
0.000191032
0.00113152
0.000204602
0.000779761
0.000353969
0.000215759
2.20148e-05
0.0027367
3.27819e-08
4.43034e-05
0.00266746
6.61827e-05
0.00257861
8.72608e-05
0.00245871
0.000107279
0.00230618
0.000126043
0.00212361
0.000143517
0.00191117
0.000159817
0.00167582
0.000174966
0.00140715
0.000189757
0.00111671
0.00020304
0.000766464
0.000343225
0.000213758
2.18741e-05
0.00271479
3.51243e-08
4.4023e-05
0.00264531
6.57673e-05
0.00255687
8.6719e-05
0.00243776
0.000106621
0.00228628
0.000125282
0.00210496
0.000142658
0.0018938
0.000158864
0.00165962
0.000173894
0.00139213
0.000188485
0.00110213
0.000201489
0.00075348
0.000332958
0.000211789
2.17343e-05
0.00269302
3.76464e-08
4.37446e-05
0.0026233
6.53551e-05
0.00253525
8.61812e-05
0.00241693
0.000105968
0.00226649
0.000124526
0.0020864
0.000141803
0.00187652
0.000157914
0.00164351
0.000172825
0.00137721
0.000187217
0.00108773
0.000199949
0.000740736
0.000323031
0.00020985
2.15955e-05
0.00267138
4.03138e-08
4.34684e-05
0.00260143
6.49461e-05
0.00251378
8.56475e-05
0.00239623
0.00010532
0.00224682
0.000123774
0.00206795
0.000140952
0.00185934
0.000156966
0.0016275
0.000171758
0.00136243
0.000185954
0.00107355
0.000198419
0.000728292
0.000313543
0.00020794
2.14577e-05
0.00264988
4.30833e-08
4.31943e-05
0.00257969
6.45402e-05
0.00249243
8.51177e-05
0.00237565
0.000104675
0.00222726
0.000123026
0.00204959
0.000140106
0.00184226
0.00015602
0.00161158
0.000170694
0.00134774
0.000184695
0.00105954
0.0001969
0.000716074
0.000304358
0.000206059
2.13209e-05
0.00262852
4.59151e-08
4.29223e-05
0.00255809
6.41373e-05
0.00247121
8.45919e-05
0.0023552
0.000104036
0.00220782
0.000122284
0.00203135
0.000139264
0.00182529
0.000155078
0.00159577
0.000169631
0.0013332
0.00018344
0.00104574
0.000195391
0.000704144
0.000295578
0.000204205
2.1185e-05
0.00260728
4.87636e-08
4.26523e-05
0.00253662
6.37376e-05
0.00245012
8.40699e-05
0.00233486
0.0001034
0.00218848
0.000121545
0.0020132
0.000138426
0.0018084
0.000154139
0.00158005
0.000168571
0.00131876
0.00018219
0.00103211
0.000193894
0.000692428
0.000287068
0.000202378
2.10502e-05
0.00258618
5.15897e-08
4.23844e-05
0.00251528
6.33408e-05
0.00242917
8.35517e-05
0.00231465
0.000102769
0.00216927
0.000120811
0.00199516
0.000137592
0.00179163
0.000153203
0.00156444
0.000167514
0.00130446
0.000180946
0.00101869
0.000192408
0.000680986
0.000278933
0.000200577
2.09164e-05
0.00256521
5.4352e-08
4.21185e-05
0.00249408
6.2947e-05
0.00240834
8.30372e-05
0.00229456
0.000102142
0.00215016
0.000120081
0.00197722
0.000136762
0.00177494
0.00015227
0.00154893
0.00016646
0.00129026
0.000179706
0.00100543
0.000190932
0.000669748
0.000271039
0.000198801
2.07835e-05
0.00254438
5.70182e-08
4.18547e-05
0.00247301
6.25563e-05
0.00238764
8.25265e-05
0.00227459
0.000101519
0.00213117
0.000119356
0.00195939
0.000135936
0.00175837
0.00015134
0.00153353
0.000165409
0.0012762
0.000178472
0.000992385
0.000189467
0.000658773
0.000263494
0.000197049
2.06517e-05
0.00252366
5.95559e-08
4.15929e-05
0.00245206
6.21684e-05
0.00236706
8.20195e-05
0.00225473
0.000100901
0.00211228
0.000118635
0.00194165
0.000135115
0.00174188
0.000150414
0.00151823
0.000164361
0.00126224
0.000177243
0.000979492
0.000188014
0.00064799
0.000256164
0.000195321
2.05209e-05
0.00250308
6.19433e-08
4.1333e-05
0.00243125
6.17834e-05
0.00234661
8.1516e-05
0.002235
0.000100287
0.00209352
0.000117918
0.00192402
0.000134297
0.00172551
0.000149491
0.00150304
0.000163316
0.00124843
0.000176019
0.000966802
0.000186571
0.000637459
0.000249158
0.000193616
2.03911e-05
0.00248263
6.41588e-08
4.10752e-05
0.00241056
6.14013e-05
0.00232628
8.10162e-05
0.00221539
9.96761e-05
0.00207485
0.000117205
0.00190649
0.000133484
0.00170922
0.000148571
0.00148794
0.000162274
0.00123472
0.000174801
0.000954264
0.000185139
0.000627109
0.000242343
0.000191932
2.02623e-05
0.0024623
6.61916e-08
4.08193e-05
0.00239001
6.10221e-05
0.00230608
8.05199e-05
0.00219589
9.90697e-05
0.00205631
0.000116496
0.00188907
0.000132674
0.00169305
0.000147655
0.00147297
0.000161236
0.00122115
0.00017359
0.000941924
0.000183718
0.000617002
0.000235831
0.000190271
2.01346e-05
0.0024421
6.80301e-08
4.05654e-05
0.00236957
6.06456e-05
0.00228599
8.00271e-05
0.0021765
9.84673e-05
0.00203786
0.000115791
0.00187174
0.000131869
0.00167697
0.000146743
0.00145809
0.000160202
0.00120768
0.000172384
0.000929732
0.000182309
0.000607066
0.000229487
0.000188631
2.00079e-05
0.00242203
6.96725e-08
4.03135e-05
0.00234927
6.0272e-05
0.00226604
7.95378e-05
0.00215724
9.78688e-05
0.00201954
0.000115091
0.00185452
0.000131068
0.001661
0.000145835
0.00144333
0.000159172
0.00119435
0.000171184
0.000917732
0.00018091
0.000597362
0.000223429
0.000187012
1.98821e-05
0.00240207
7.11155e-08
4.00634e-05
0.00232908
5.99011e-05
0.00224619
7.90518e-05
0.00213809
9.72741e-05
0.00200131
0.000114394
0.0018374
0.000130271
0.00164512
0.00014493
0.00142866
0.000158146
0.00118113
0.000169991
0.000905876
0.000179522
0.000587821
0.000217519
0.000185412
1.97575e-05
0.00238225
7.23643e-08
3.98153e-05
0.00230902
5.95328e-05
0.00222648
7.85693e-05
0.00211905
9.66833e-05
0.0019832
0.000113701
0.00182038
0.000129477
0.00162935
0.000144029
0.00141412
0.000157123
0.00116804
0.000168804
0.000894208
0.000178145
0.000578502
0.000211877
0.000183833
1.96338e-05
0.00236254
7.34219e-08
3.9569e-05
0.00228908
5.91673e-05
0.00220688
7.809e-05
0.00210012
9.60962e-05
0.00196519
0.000113013
0.00180346
0.000128688
0.00161367
0.000143132
0.00139966
0.000156105
0.00115506
0.000167624
0.000882679
0.000176779
0.000569337
0.000206366
0.000182273
1.95111e-05
0.00234296
7.42987e-08
3.93246e-05
0.00226927
5.88044e-05
0.0021874
7.76141e-05
0.00208132
9.55129e-05
0.00194729
0.000112328
0.00178665
0.000127903
0.0015981
0.000142239
0.00138533
0.000155091
0.00114222
0.000166451
0.000871333
0.000175425
0.000560385
0.000201107
0.000180732
1.93895e-05
0.00232349
7.50026e-08
3.90821e-05
0.00224957
5.84442e-05
0.00216803
7.71414e-05
0.00206262
9.49332e-05
0.0019295
0.000111647
0.00176994
0.000127122
0.00158262
0.000141351
0.0013711
0.000154082
0.00112948
0.000165284
0.000860122
0.000174081
0.000551578
0.000195964
0.00017921
1.92688e-05
0.00230415
7.55478e-08
3.88414e-05
0.00223
5.80865e-05
0.00214879
7.66719e-05
0.00204403
9.43572e-05
0.00191181
0.00011097
0.00175333
0.000126344
0.00156725
0.000140466
0.00135698
0.000153078
0.00111688
0.000164124
0.000849088
0.000172749
0.000542977
0.000191058
0.000177705
1.91491e-05
0.00228493
7.59452e-08
3.86025e-05
0.00221054
5.77314e-05
0.00212966
7.62056e-05
0.00202555
9.37849e-05
0.00189423
0.000110296
0.00173681
0.000125571
0.00155197
0.000139585
0.00134296
0.000152078
0.00110438
0.000162972
0.000838184
0.000171427
0.000534512
0.000186253
0.000176219
1.90304e-05
0.00226583
7.62117e-08
3.83654e-05
0.0021912
5.73789e-05
0.00211065
7.57425e-05
0.00200719
9.32161e-05
0.00187676
0.000109627
0.00172041
0.000124802
0.0015368
0.000138708
0.00132906
0.000151082
0.00109201
0.000161826
0.000827454
0.000170117
0.000526245
0.000181673
0.000174751
1.89127e-05
0.00224684
7.63596e-08
3.813e-05
0.00217198
5.70288e-05
0.00209175
7.52824e-05
0.00198894
9.26508e-05
0.00185939
0.000108961
0.00170409
0.000124036
0.00152172
0.000137836
0.00131525
0.000150092
0.00107975
0.000160688
0.000816848
0.000168818
0.000518106
0.000177178
0.0001733
1.87959e-05
0.00222797
7.64068e-08
3.78964e-05
0.00215288
5.66812e-05
0.00207297
7.48253e-05
0.00197079
9.2089e-05
0.00184213
0.000108299
0.00168789
0.000123274
0.00150675
0.000136967
0.00130157
0.000149106
0.00106762
0.000159557
0.000806411
0.00016753
0.000510156
0.000172898
0.000171866
1.868e-05
0.00220921
7.63662e-08
3.76646e-05
0.00213389
5.6336e-05
0.00205429
7.43713e-05
0.00195275
9.15307e-05
0.00182496
0.00010764
0.00167177
0.000122517
0.00149187
0.000136103
0.00128797
0.000148125
0.00105559
0.000158433
0.000796095
0.000166253
0.000502327
0.000168691
0.000170449
1.85651e-05
0.00219057
7.62556e-08
3.74344e-05
0.00211502
5.59932e-05
0.00203574
7.39203e-05
0.00193483
9.09758e-05
0.00180791
0.000106985
0.00165577
0.000121763
0.0014771
0.000135243
0.0012745
0.00014715
0.00104369
0.000157317
0.000785942
0.000164988
0.000494681
0.000164688
0.000169049
1.84511e-05
0.00217205
7.6088e-08
3.72059e-05
0.00209626
5.56528e-05
0.00201729
7.34722e-05
0.001917
9.04243e-05
0.00179095
0.000106334
0.00163985
0.000121013
0.00146241
0.000134388
0.00126112
0.000146179
0.00103189
0.000156208
0.000775904
0.000163733
0.000487147
0.000160746
0.000167665
1.83379e-05
0.00215364
7.58811e-08
3.6979e-05
0.00207762
5.53147e-05
0.00199895
7.30269e-05
0.00189929
8.9876e-05
0.00177411
0.000105686
0.00162405
0.000120266
0.00144784
0.000133536
0.00124785
0.000145214
0.00102022
0.000155106
0.000766025
0.00016249
0.000479789
0.000156998
0.000166297
1.82256e-05
0.00213534
7.56476e-08
3.67537e-05
0.00205908
5.49789e-05
0.00198073
7.25845e-05
0.00188168
8.93311e-05
0.00175736
0.000105042
0.00160833
0.000119524
0.00143335
0.000132689
0.00123468
0.000144254
0.00100865
0.000154013
0.000756257
0.000161257
0.000472535
0.000153301
0.000164944
1.81142e-05
0.00211715
7.54052e-08
3.65301e-05
0.00204066
5.46453e-05
0.00196261
7.2145e-05
0.00186419
8.87895e-05
0.00174071
0.000104402
0.00159272
0.000118785
0.00141897
0.000131847
0.00122162
0.000143299
0.000997205
0.000152926
0.000746644
0.000160036
0.000465452
0.00014979
0.000163608
1.80036e-05
0.00209907
7.51665e-08
3.6308e-05
0.00202235
5.43139e-05
0.00194461
7.17082e-05
0.00184679
8.8251e-05
0.00172417
0.000103765
0.0015772
0.000118051
0.00140468
0.000131008
0.00120866
0.00014235
0.000985854
0.000151848
0.000737137
0.000158825
0.000458466
0.000146319
0.000162286
1.78938e-05
0.00208111
7.49489e-08
3.60874e-05
0.00200416
5.39848e-05
0.00192671
7.12741e-05
0.0018295
8.77158e-05
0.00170773
0.000103131
0.00156179
0.00011732
0.00139049
0.000130174
0.00119581
0.000141406
0.000974631
0.000150777
0.00072778
0.000157626
0.000451643
0.000143027
0.00016098
1.77848e-05
0.00206325
7.47643e-08
3.58684e-05
0.00198607
5.36578e-05
0.00190892
7.08428e-05
0.00181231
8.71837e-05
0.00169138
0.000102501
0.00154647
0.000116593
0.0013764
0.000129345
0.00118305
0.000140467
0.0009635
0.000149713
0.000718523
0.000156437
0.00044491
0.000139766
0.000159689
1.76766e-05
0.0020455
7.46295e-08
3.56508e-05
0.00196809
5.3333e-05
0.00189124
7.04141e-05
0.00179523
8.66547e-05
0.00167514
0.000101875
0.00153125
0.00011587
0.0013624
0.000128519
0.0011704
0.000139533
0.000952495
0.000148658
0.000709413
0.000155259
0.000438336
0.000136676
0.000158412
1.75691e-05
0.00202786
7.4555e-08
3.54347e-05
0.00195022
5.30102e-05
0.00187366
6.99881e-05
0.00177825
8.61289e-05
0.001659
0.000101252
0.00151612
0.00011515
0.0013485
0.000127698
0.00115785
0.000138605
0.000941578
0.000147609
0.0007004
0.000154091
0.000431845
0.000133608
0.000157149
1.74623e-05
0.00201032
7.45558e-08
3.522e-05
0.00193246
5.26895e-05
0.0018562
6.95646e-05
0.00176137
8.5606e-05
0.00164296
0.000100632
0.0015011
0.000114434
0.0013347
0.000126882
0.0011454
0.000137683
0.000930786
0.000146569
0.000691528
0.000152935
0.000425506
0.000130705
0.000155901
1.73563e-05
0.00199289
7.46405e-08
3.50067e-05
0.00191481
5.23708e-05
0.00183883
6.91437e-05
0.0017446
8.50862e-05
0.00162701
0.000100016
0.00148616
0.000113722
0.00132099
0.00012607
0.00113305
0.000136766
0.00092008
0.000145536
0.000682748
0.000151788
0.000419244
0.000127816
0.000154667
1.72509e-05
0.00197557
7.48213e-08
3.47948e-05
0.00189726
5.20541e-05
0.00182157
6.87254e-05
0.00172793
8.45695e-05
0.00161117
9.94027e-05
0.00147133
0.000113014
0.00130738
0.000125263
0.0011208
0.000135855
0.000909496
0.000144511
0.000674106
0.000150653
0.000413128
0.000125086
0.000153447
1.71463e-05
0.00195835
7.51037e-08
3.45843e-05
0.00187982
5.17394e-05
0.00180442
6.83095e-05
0.00171135
8.40556e-05
0.00159542
9.87931e-05
0.00145659
0.00011231
0.00129385
0.000124459
0.00110864
0.000134949
0.000898997
0.000143493
0.000665551
0.000149527
0.000407084
0.000122362
0.00015224
1.70422e-05
0.00194123
7.54967e-08
3.43751e-05
0.00186248
5.14267e-05
0.00178737
6.78961e-05
0.00169488
8.35448e-05
0.00157977
9.81869e-05
0.00144195
0.00011161
0.00128043
0.000123661
0.0010966
0.000134048
0.000888617
0.000142483
0.000657131
0.000148412
0.000401182
0.000119793
0.000151046
1.69389e-05
0.00192422
7.60022e-08
3.41672e-05
0.00184525
5.11158e-05
0.00177042
6.74852e-05
0.00167851
8.30369e-05
0.00156421
9.7584e-05
0.00142739
0.000110913
0.0012671
0.000122867
0.00108463
0.000133154
0.000878321
0.000141481
0.000648793
0.000147308
0.000395344
0.000117222
0.000149866
1.68361e-05
0.00190731
7.6625e-08
3.39605e-05
0.00182812
5.08069e-05
0.00175357
6.70767e-05
0.00166224
8.25318e-05
0.00154875
9.69844e-05
0.00141294
0.00011022
0.00125386
0.000122077
0.00107278
0.000132264
0.000868141
0.000140486
0.000640586
0.000146213
0.000389644
0.000114801
0.000148699
1.6734e-05
0.0018905
7.7363e-08
3.37552e-05
0.00181109
5.04998e-05
0.00173683
6.66706e-05
0.00164607
8.20297e-05
0.00153339
9.63882e-05
0.00139858
0.000109531
0.00124071
0.000121292
0.00106101
0.000131381
0.000858042
0.000139499
0.000632458
0.000145129
0.000384003
0.000112372
0.000147544
1.66324e-05
0.00187379
7.82168e-08
3.35511e-05
0.00179417
5.01946e-05
0.00172019
6.62669e-05
0.00162999
8.15304e-05
0.00151813
9.57952e-05
0.00138431
0.000108845
0.00122766
0.000120511
0.00104935
0.000130503
0.000848058
0.000138519
0.000624456
0.000144054
0.000378495
0.000110088
0.000146402
1.65315e-05
0.00185718
7.918e-08
3.33483e-05
0.00177735
4.98912e-05
0.00170364
6.58655e-05
0.00161401
8.1034e-05
0.00150295
9.52056e-05
0.00137013
0.000108164
0.0012147
0.000119735
0.00103777
0.000129631
0.000838152
0.000137546
0.000616529
0.000142989
0.00037304
0.000107789
0.000145273
1.64311e-05
0.00184067
8.02491e-08
3.31466e-05
0.00176063
4.95896e-05
0.0016872
6.54665e-05
0.00159814
8.05404e-05
0.00148788
9.46192e-05
0.00135605
0.000107486
0.00120183
0.000118963
0.0010263
0.000128764
0.000828359
0.000136582
0.000608726
0.000141935
0.000367714
0.000105632
0.000144156
1.63313e-05
0.00182426
8.14137e-08
3.29462e-05
0.00174401
4.92898e-05
0.00167086
6.50698e-05
0.00158235
8.00497e-05
0.00147289
9.40361e-05
0.00134206
0.000106812
0.00118905
0.000118196
0.0010149
0.000127903
0.000818643
0.000135624
0.000600993
0.000140889
0.000362437
0.000103454
0.00014305
1.6232e-05
0.00180795
8.26668e-08
3.27469e-05
0.00172749
4.89918e-05
0.00165461
6.46754e-05
0.00156667
7.95617e-05
0.001458
9.34563e-05
0.00132817
0.000106142
0.00117636
0.000117434
0.00100361
0.000127047
0.000809037
0.000134674
0.00059338
0.000139854
0.000357284
0.000101415
0.000141957
1.61333e-05
0.00179173
8.39948e-08
3.25488e-05
0.00171107
4.86955e-05
0.00163846
6.42832e-05
0.00155107
7.90766e-05
0.0014432
9.28797e-05
0.00131435
0.000105475
0.00116376
0.000116676
0.000992403
0.000126198
0.000799506
0.000133732
0.000585835
0.000138828
0.000352176
9.93486e-05
0.000140875
1.60351e-05
0.00177562
8.53882e-08
3.23519e-05
0.00169475
4.8401e-05
0.00162242
6.38934e-05
0.00153558
7.85942e-05
0.0014285
9.23064e-05
0.00130064
0.000104813
0.00115126
0.000115922
0.000981296
0.000125354
0.000790083
0.000132796
0.000578406
0.000137812
0.000347188
9.74179e-05
0.000139805
1.59375e-05
0.00175959
8.68316e-08
3.21561e-05
0.00167853
4.81082e-05
0.00160646
6.35058e-05
0.00152018
7.81146e-05
0.00141389
9.17364e-05
0.00128701
0.000104154
0.00113883
0.000115174
0.000970267
0.000124515
0.000780733
0.000131868
0.00057104
0.000136804
0.000342239
9.54558e-05
0.000138746
1.58404e-05
0.00174367
8.83143e-08
3.19614e-05
0.00166241
4.78171e-05
0.00159061
6.31204e-05
0.00150487
7.76377e-05
0.00139937
9.11696e-05
0.00127348
0.000103499
0.0011265
0.000114429
0.000959339
0.000123682
0.000771488
0.000130948
0.000563788
0.000135807
0.000337408
9.36256e-05
0.000137698
1.57439e-05
0.00172783
8.98205e-08
3.17679e-05
0.00164638
4.75278e-05
0.00157485
6.27373e-05
0.00148966
7.71636e-05
0.00138494
9.0606e-05
0.00126003
0.000102848
0.00111426
0.00011369
0.000948488
0.000122855
0.000762314
0.000130034
0.000556596
0.000134818
0.000332611
9.17596e-05
0.000136662
1.56478e-05
0.0017121
9.13395e-08
3.15755e-05
0.00163045
4.72401e-05
0.00155919
6.23564e-05
0.00147454
7.66922e-05
0.0013706
9.00457e-05
0.00124667
0.0001022
0.0011021
0.000112955
0.000937736
0.000122034
0.000753243
0.000129128
0.000549514
0.000133838
0.000327928
9.00227e-05
0.000135636
1.55523e-05
0.00169645
9.28562e-08
3.13843e-05
0.00161461
4.69541e-05
0.00154362
6.19778e-05
0.00145951
7.62235e-05
0.00135635
8.94887e-05
0.0012334
0.000101557
0.00109003
0.000112224
0.000927059
0.000121218
0.000744243
0.000128229
0.000542489