/*--------------------------------*- C++ -*----------------------------------*\
  =========                 |
  \\      /  F ield         | OpenFOAM: The Open Source CFD Toolbox
   \\    /   O peration     | Website:  https://openfoam.org
    \\  /    A nd           | Version:  6.0
     \\/     M anipulation  |
\*---------------------------------------------------------------------------*/
FoamFile
{
    version     2.0;
    format      ascii;
    class       volScalarField;
    location    "2";
    object      p;
}
// * * * * * * * * * * * * * * * * * * * * * * * * * * * * * * * * * * * * * //

dimensions      [0 2 -2 0 0 0 0];

internalField   nonuniform List<scalar> 
248000
(
0.126668
0.126847
0.127029
0.127215
0.127406
0.1276
0.1278
0.128003
0.128211
0.128424
0.128642
0.128865
0.129093
0.129327
0.129565
0.12981
0.130059
0.130315
0.130576
0.130843
0.131116
0.131395
0.13168
0.131971
0.132268
0.132571
0.132881
0.133197
0.133518
0.133847
0.134181
0.134521
0.134867
0.135219
0.135577
0.13594
0.136308
0.136681
0.137058
0.137441
0.137826
0.138214
0.138605
0.138998
0.139391
0.139785
0.140177
0.140568
0.140956
0.141344
0.14173
0.142114
0.142492
0.142864
0.143226
0.143577
0.14391
0.144228
0.144521
0.144789
0.145023
0.145222
0.145375
0.145478
0.145521
0.145496
0.145393
0.145208
0.144934
0.144555
0.144054
0.143416
0.142624
0.141665
0.140522
0.139181
0.137625
0.135839
0.13381
0.131524
0.128973
0.126149
0.123049
0.119676
0.116035
0.112139
0.108004
0.103656
0.0991217
0.0944363
0.0896382
0.0847673
0.0798706
0.0749857
0.0701652
0.0654352
0.0608522
0.0564226
0.0522041
0.0481812
0.0444077
0.0408491
0.0375538
0.0344749
0.0316493
0.0290248
0.0266179
0.0244175
0.0224067
0.020566
0.0188839
0.0173429
0.0159326
0.0146378
0.0134486
0.0123499
0.0113307
0.0103768
0.00949829
0.00905508
0.126953
0.127134
0.127319
0.127507
0.127699
0.127895
0.128094
0.128298
0.128506
0.128718
0.128935
0.129156
0.129382
0.129613
0.129849
0.130089
0.130335
0.130587
0.130843
0.131106
0.131373
0.131647
0.131926
0.13221
0.132501
0.132797
0.1331
0.133408
0.133722
0.134042
0.134367
0.134699
0.135036
0.135379
0.135728
0.136082
0.136441
0.136805
0.137173
0.137547
0.137923
0.138304
0.138687
0.139074
0.139461
0.13985
0.140238
0.140625
0.141012
0.1414
0.141788
0.142176
0.142561
0.142942
0.143316
0.143682
0.144036
0.144376
0.144698
0.144998
0.145271
0.145513
0.145718
0.145879
0.145988
0.146037
0.146017
0.145926
0.145755
0.145492
0.145118
0.14462
0.143982
0.14319
0.142229
0.141085
0.139741
0.138182
0.136394
0.134364
0.132082
0.129539
0.12673
0.123656
0.12032
0.116731
0.112904
0.108859
0.104621
0.100222
0.0956955
0.0910796
0.0864181
0.0817464
0.0771157
0.0725507
0.0681084
0.0637941
0.0596687
0.0557148
0.051992
0.0484628
0.045184
0.0421037
0.0392679
0.0366179
0.0341783
0.0319398
0.0298845
0.0279921
0.0262514
0.0246435
0.0231574
0.0217752
0.0204849
0.019266
0.0181013
0.0169669
0.0158741
0.0151875
0.127171
0.127359
0.127551
0.127744
0.127941
0.128141
0.128344
0.128551
0.128761
0.128975
0.129193
0.129415
0.129641
0.129872
0.130107
0.130347
0.130591
0.13084
0.131095
0.131354
0.131619
0.131889
0.132164
0.132445
0.132732
0.133024
0.133322
0.133625
0.133934
0.134249
0.134569
0.134896
0.135228
0.135565
0.135908
0.136257
0.13661
0.136969
0.137332
0.1377
0.138072
0.138448
0.138827
0.13921
0.139593
0.139979
0.140365
0.140752
0.141138
0.141527
0.141917
0.142308
0.142697
0.143085
0.143468
0.143844
0.144212
0.144567
0.144907
0.145229
0.145528
0.145799
0.146037
0.146236
0.146389
0.146487
0.146524
0.146495
0.146395
0.146209
0.145922
0.145519
0.144986
0.144311
0.143478
0.142474
0.141282
0.139887
0.138276
0.136436
0.134355
0.132025
0.129441
0.126599
0.123504
0.12016
0.116582
0.112786
0.108795
0.104636
0.100342
0.0959472
0.091493
0.0870125
0.0825554
0.0781446
0.0738371
0.0696374
0.0656073
0.0617296
0.0580661
0.0545793
0.0513295
0.0482646
0.045434
0.0427793
0.040328
0.0380714
0.0359917
0.0340677
0.0322886
0.0306345
0.0290941
0.0276477
0.0262823
0.0249739
0.0237031
0.0224442
0.0212205
0.0203815
0.127399
0.127597
0.127798
0.127999
0.128204
0.12841
0.128619
0.12883
0.129044
0.129262
0.129482
0.129706
0.129933
0.130164
0.1304
0.130639
0.130883
0.131131
0.131383
0.131641
0.131903
0.13217
0.132443
0.13272
0.133003
0.133292
0.133586
0.133885
0.13419
0.134501
0.134817
0.135139
0.135467
0.1358
0.136138
0.136483
0.136832
0.137186
0.137545
0.13791
0.138278
0.138651
0.139026
0.139406
0.139787
0.140172
0.140556
0.140942
0.141328
0.141717
0.142109
0.142503
0.142897
0.143291
0.14368
0.144066
0.144443
0.144811
0.145166
0.145504
0.145822
0.146115
0.146379
0.146608
0.146794
0.14693
0.14701
0.147029
0.146983
0.146858
0.146638
0.146309
0.145859
0.145276
0.144544
0.143651
0.142581
0.141319
0.139853
0.138168
0.136255
0.134103
0.131707
0.129063
0.126173
0.123042
0.11968
0.116103
0.11233
0.108388
0.104305
0.100113
0.0958516
0.0915516
0.0872603
0.083
0.0788261
0.074743
0.0708124
0.0670173
0.063421
0.0599862
0.0567757
0.0537373
0.0509238
0.0482754
0.045824
0.0435621
0.0414705
0.0395284
0.0377245
0.0360392
0.0344607
0.0329687
0.0315495
0.0301783
0.0288357
0.027499
0.0262065
0.0252848
0.127685
0.127889
0.128095
0.128301
0.12851
0.12872
0.128933
0.129148
0.129365
0.129585
0.129808
0.130033
0.130262
0.130494
0.13073
0.130969
0.131212
0.131459
0.131711
0.131966
0.132227
0.132492
0.132762
0.133037
0.133317
0.133603
0.133893
0.13419
0.134491
0.134798
0.135111
0.135429
0.135753
0.136083
0.136417
0.136758
0.137104
0.137455
0.137811
0.138172
0.138538
0.138908
0.139281
0.139659
0.140039
0.140422
0.140806
0.141191
0.141577
0.141968
0.142362
0.142759
0.143157
0.143555
0.143951
0.144343
0.14473
0.145108
0.145475
0.145827
0.146161
0.146472
0.146756
0.147009
0.147222
0.147389
0.147503
0.147562
0.14756
0.147483
0.147318
0.14705
0.146668
0.14616
0.145512
0.144712
0.143744
0.142595
0.141252
0.139701
0.137931
0.135934
0.133702
0.131232
0.128525
0.125583
0.122416
0.119037
0.115464
0.11172
0.107833
0.10383
0.0997502
0.0956213
0.0914891
0.0873745
0.0833317
0.0793647
0.0755349
0.0718257
0.0683008
0.0649242
0.0617595
0.0587562
0.055968
0.0533377
0.050898
0.0486413
0.0465486
0.0445992
0.0427823
0.0410783
0.0394756
0.0379537
0.0364992
0.0350875
0.0337009
0.032322
0.031002
0.0300378
0.128012
0.12822
0.128431
0.128642
0.128855
0.129069
0.129285
0.129502
0.129722
0.129944
0.130168
0.130395
0.130625
0.130858
0.131094
0.131333
0.131576
0.131823
0.132074
0.132329
0.132588
0.132852
0.13312
0.133393
0.133671
0.133954
0.134243
0.134536
0.134835
0.135139
0.135449
0.135764
0.136085
0.136412
0.136744
0.137082
0.137425
0.137773
0.138127
0.138486
0.138849
0.139218
0.139589
0.139966
0.140345
0.140727
0.141111
0.141496
0.141883
0.142275
0.142671
0.143071
0.143472
0.143875
0.144277
0.144676
0.14507
0.145458
0.145835
0.146199
0.146547
0.146874
0.147176
0.147449
0.147685
0.147878
0.148022
0.148114
0.148149
0.148115
0.147996
0.14778
0.147457
0.147013
0.146438
0.145718
0.14484
0.14379
0.142554
0.141121
0.139479
0.13762
0.135536
0.133223
0.130681
0.127911
0.124923
0.121727
0.11834
0.114781
0.111078
0.107255
0.103349
0.0993857
0.095409
0.0914387
0.087527
0.0836783
0.0799524
0.0763339
0.0728858
0.0695738
0.0664619
0.0635011
0.0607463
0.0581408
0.0557198
0.0534763
0.0513903
0.0494422
0.047621
0.045908
0.0442916
0.0427521
0.0412762
0.0398407
0.0384303
0.0370335
0.0357109
0.0347281
0.128388
0.128598
0.128809
0.129022
0.129236
0.129451
0.129669
0.129888
0.13011
0.130333
0.130559
0.130787
0.131018
0.131251
0.131488
0.131728
0.131971
0.132218
0.132469
0.132723
0.132982
0.133244
0.133512
0.133784
0.13406
0.134342
0.134629
0.13492
0.135217
0.13552
0.135827
0.136141
0.136459
0.136784
0.137114
0.13745
0.137791
0.138138
0.13849
0.138847
0.139209
0.139576
0.139947
0.140323
0.140701
0.141083
0.141467
0.141853
0.142241
0.142635
0.143033
0.143436
0.143842
0.144249
0.144657
0.145063
0.145464
0.14586
0.146247
0.146623
0.146983
0.147324
0.147643
0.147933
0.148191
0.148407
0.148578
0.148699
0.148768
0.148771
0.148694
0.148525
0.148253
0.147869
0.147359
0.146711
0.145914
0.144952
0.143815
0.14249
0.140965
0.139232
0.137284
0.135117
0.132728
0.13012
0.127298
0.124274
0.121062
0.11768
0.114151
0.110501
0.106762
0.102959
0.0991335
0.0953044
0.0915223
0.0877911
0.0841698
0.0806436
0.0772751
0.0740312
0.0709762
0.068063
0.0653467
0.062774
0.0603792
0.0581554
0.0560827
0.0541423
0.0523239
0.0506094
0.0489875
0.0474394
0.0459525
0.0445053
0.0430852
0.0416861
0.0403744
0.0393829
0.128778
0.12899
0.129205
0.12942
0.129637
0.129855
0.130075
0.130296
0.13052
0.130745
0.130973
0.131202
0.131434
0.131669
0.131907
0.132148
0.132392
0.132639
0.13289
0.133145
0.133404
0.133667
0.133934
0.134206
0.134482
0.134763
0.135049
0.13534
0.135636
0.135937
0.136243
0.136556
0.136873
0.137197
0.137525
0.13786
0.1382
0.138546
0.138896
0.139253
0.139614
0.139981
0.140352
0.140727
0.141106
0.141489
0.141873
0.14226
0.14265
0.143046
0.143447
0.143854
0.144263
0.144676
0.145089
0.145501
0.14591
0.146314
0.146711
0.147097
0.147469
0.147825
0.148159
0.148467
0.148743
0.148982
0.149177
0.149327
0.149426
0.149464
0.149425
0.1493
0.149077
0.148746
0.148296
0.147717
0.146994
0.146115
0.145069
0.143843
0.142428
0.140813
0.138992
0.13696
0.134715
0.132258
0.129595
0.126734
0.123688
0.120475
0.117114
0.113631
0.110054
0.106408
0.102732
0.0990431
0.0953907
0.0917789
0.0882645
0.0848341
0.0815489
0.0783778
0.0753843
0.0725239
0.0698519
0.0673157
0.0649511
0.0627519
0.0606971
0.0587698
0.0569592
0.0552488
0.0536274
0.0520774
0.0505868
0.0491363
0.0477157
0.0463237
0.0450293
0.0440354
0.129205
0.129418
0.129633
0.129849
0.130067
0.130286
0.130507
0.13073
0.130955
0.131182
0.131411
0.131642
0.131876
0.132112
0.132351
0.132593
0.132839
0.133087
0.133339
0.133595
0.133854
0.134118
0.134386
0.134658
0.134934
0.135215
0.135501
0.135792
0.136088
0.136389
0.136695
0.137007
0.137324
0.137647
0.137975
0.138309
0.138649
0.138994
0.139345
0.139702
0.140063
0.14043
0.140801
0.141177
0.141557
0.141941
0.142327
0.142715
0.143107
0.143506
0.14391
0.14432
0.144734
0.145152
0.145571
0.14599
0.146407
0.14682
0.147226
0.147623
0.148007
0.148376
0.148725
0.14905
0.149346
0.149606
0.149825
0.150001
0.15013
0.150201
0.1502
0.150115
0.149938
0.149659
0.149267
0.148751
0.148098
0.147298
0.146338
0.145208
0.143895
0.142393
0.140693
0.138791
0.136683
0.134371
0.131859
0.129154
0.126269
0.123218
0.12002
0.116698
0.113279
0.109786
0.106256
0.102705
0.0991815
0.0956879
0.0922808
0.0889466
0.0857465
0.0826499
0.0797207
0.0769157
0.0742911
0.071797
0.0694679
0.0672973
0.0652646
0.063354
0.0615554
0.0598533
0.0582368
0.0566896
0.0552007
0.0537526
0.0523374
0.0509578
0.0496826
0.048687
0.129648
0.129864
0.130081
0.130299
0.13052
0.130741
0.130964
0.131188
0.131415
0.131643
0.131874
0.132107
0.132342
0.13258
0.132821
0.133064
0.133311
0.133561
0.133814
0.134071
0.134332
0.134597
0.134865
0.135138
0.135416
0.135698
0.135984
0.136276
0.136572
0.136874
0.13718
0.137493
0.13781
0.138133
0.138462
0.138797
0.139136
0.139482
0.139834
0.140191
0.140553
0.140921
0.141293
0.14167
0.142052
0.142437
0.142825
0.143217
0.143611
0.144013
0.144421
0.144835
0.145254
0.145678
0.146103
0.146529
0.146954
0.147376
0.147792
0.1482
0.148596
0.148979
0.149343
0.149685
0.15
0.150281
0.150523
0.150726
0.150884
0.150988
0.151022
0.150978
0.150845
0.150616
0.150279
0.149824
0.14924
0.148515
0.147638
0.146598
0.145384
0.143989
0.142405
0.140626
0.13865
0.136477
0.13411
0.131555
0.128824
0.12593
0.12289
0.119725
0.116461
0.113119
0.109733
0.10632
0.102925
0.0995511
0.0962525
0.0930176
0.089905
0.0868867
0.0840248
0.0812796
0.0787063
0.0762566
0.0739652
0.0718265
0.0698188
0.0679282
0.0661444
0.0644539
0.0628454
0.0613048
0.0598209
0.058379
0.0569727
0.0556081
0.0543519
0.053356
0.130133
0.130348
0.130566
0.130785
0.131005
0.131227
0.131451
0.131676
0.131904
0.132134
0.132366
0.1326
0.132837
0.133076
0.133319
0.133564
0.133812
0.134063
0.134318
0.134576
0.134839
0.135105
0.135375
0.135649
0.135928
0.136211
0.136499
0.136792
0.137089
0.137392
0.137699
0.138013
0.138331
0.138655
0.138985
0.139321
0.139662
0.140009
0.140361
0.14072
0.141084
0.141453
0.141827
0.142206
0.14259
0.142978
0.143368
0.143762
0.14416
0.144566
0.144978
0.145397
0.145822
0.146251
0.146683
0.147117
0.14755
0.147981
0.148408
0.148827
0.149236
0.149633
0.150013
0.150372
0.150706
0.151008
0.151274
0.151503
0.15169
0.151826
0.151896
0.15189
0.151802
0.151621
0.151338
0.150943
0.150425
0.149773
0.148977
0.148024
0.146907
0.145616
0.144143
0.142484
0.140636
0.138597
0.13637
0.133962
0.131381
0.128639
0.125753
0.122742
0.119629
0.116434
0.11319
0.109912
0.106644
0.103389
0.1002
0.0970632
0.0940398
0.0911
0.0883079
0.0856228
0.0831033
0.0807021
0.0784523
0.0763481
0.074368
0.0724998
0.0707334
0.0690566
0.0674588
0.0659269
0.0644507
0.0630173
0.0616221
0.0602734
0.0590343
0.0580365
0.130637
0.130854
0.131073
0.131294
0.131516
0.131739
0.131965
0.132192
0.132421
0.132652
0.132886
0.133122
0.13336
0.133601
0.133845
0.134091
0.134341
0.134594
0.134851
0.135111
0.135375
0.135642
0.135914
0.13619
0.13647
0.136755
0.137045
0.137339
0.137638
0.137942
0.138251
0.138566
0.138886
0.139213
0.139544
0.139881
0.140224
0.140573
0.140927
0.141288
0.141653
0.142025
0.142401
0.142783
0.143169
0.143561
0.143955
0.144352
0.144754
0.145163
0.145581
0.146006
0.146436
0.146872
0.147311
0.147753
0.148195
0.148636
0.149073
0.149505
0.149927
0.150338
0.150734
0.151111
0.151464
0.151788
0.152078
0.152333
0.152549
0.152717
0.152822
0.152856
0.152811
0.152678
0.152448
0.152112
0.151659
0.151078
0.15036
0.149493
0.148468
0.147278
0.145913
0.14437
0.142645
0.140736
0.138646
0.136378
0.133943
0.13135
0.128614
0.125753
0.122788
0.119739
0.116635
0.113493
0.110351
0.107217
0.104136
0.101102
0.098168
0.0953115
0.0925897
0.08997
0.0875065
0.085155
0.0829481
0.0808807
0.0789302
0.0770866
0.0753393
0.0736785
0.0720929
0.0705718
0.0691048
0.0676816
0.0662983
0.0649653
0.0637413
0.0627419
0.131182
0.1314
0.131619
0.131839
0.132062
0.132286
0.132512
0.13274
0.13297
0.133202
0.133437
0.133674
0.133914
0.134156
0.134402
0.13465
0.134901
0.135156
0.135414
0.135676
0.135942
0.136211
0.136485
0.136763
0.137045
0.137332
0.137623
0.13792
0.138221
0.138527
0.138838
0.139155
0.139477
0.139805
0.140138
0.140478
0.140823
0.141174
0.141531
0.141894
0.142262
0.142637
0.143016
0.143401
0.143791
0.144185
0.144583
0.144985
0.145391
0.145806
0.146228
0.146659
0.147096
0.147539
0.147986
0.148437
0.148888
0.149339
0.149788
0.150232
0.150668
0.151093
0.151506
0.151901
0.152274
0.15262
0.152934
0.153216
0.153461
0.153661
0.153802
0.153875
0.153874
0.153789
0.153611
0.153333
0.152944
0.152433
0.151792
0.151009
0.150075
0.148982
0.147724
0.146294
0.144689
0.142907
0.140949
0.13882
0.136527
0.134079
0.13149
0.128776
0.125956
0.12305
0.120084
0.117076
0.11406
0.111043
0.108072
0.105139
0.102296
0.0995221
0.0968733
0.0943177
0.0919127
0.0896141
0.0874531
0.0854243
0.0835053
0.0816877
0.0799613
0.0783177
0.0767459
0.0752366
0.0737801
0.0723678
0.0709969
0.0696788
0.0684672
0.0674642
0.131751
0.13197
0.132191
0.132412
0.132636
0.132862
0.133089
0.133319
0.13355
0.133784
0.13402
0.134258
0.134499
0.134743
0.13499
0.13524
0.135493
0.13575
0.13601
0.136274
0.136541
0.136813
0.137088
0.137368
0.137653
0.137941
0.138235
0.138533
0.138836
0.139145
0.139458
0.139778
0.140102
0.140433
0.140769
0.141111
0.141458
0.141813
0.142172
0.142539
0.14291
0.143288
0.14367
0.144059
0.144453
0.144852
0.145254
0.14566
0.146071
0.146491
0.14692
0.147357
0.147801
0.148251
0.148707
0.149167
0.149628
0.15009
0.150551
0.151008
0.151458
0.151899
0.152329
0.152742
0.153136
0.153504
0.153843
0.154152
0.154427
0.154659
0.154836
0.154949
0.15499
0.154953
0.154828
0.154607
0.154281
0.153839
0.153273
0.152572
0.151727
0.15073
0.149575
0.148255
0.146767
0.145108
0.14328
0.141285
0.13913
0.136824
0.134378
0.131809
0.129132
0.126367
0.123538
0.120663
0.117772
0.114876
0.112013
0.109185
0.106433
0.103746
0.10117
0.0986837
0.0963378
0.0940931
0.0919789
0.0899904
0.0881044
0.0863146
0.0846103
0.0829852
0.0814282
0.0799319
0.0784864
0.0770857
0.0757269
0.0744226
0.073221
0.0722147
0.132361
0.13258
0.132801
0.133023
0.133248
0.133473
0.133702
0.133932
0.134164
0.134399
0.134636
0.134876
0.135119
0.135364
0.135612
0.135864
0.136119
0.136377
0.136639
0.136904
0.137174
0.137447
0.137725
0.138007
0.138294
0.138585
0.138881
0.139182
0.139487
0.139798
0.140114
0.140436
0.140763
0.141097
0.141435
0.141781
0.142131
0.142488
0.142851
0.143221
0.143596
0.143978
0.144365
0.144757
0.145155
0.145559
0.145966
0.146378
0.146794
0.14722
0.147655
0.148099
0.14855
0.149009
0.149474
0.149943
0.150415
0.150888
0.151361
0.151832
0.152297
0.152754
0.153201
0.153634
0.154049
0.15444
0.154804
0.15514
0.155446
0.155711
0.155924
0.156076
0.156161
0.156171
0.156098
0.155934
0.155671
0.155297
0.154805
0.154185
0.153428
0.152526
0.151471
0.15026
0.148886
0.147348
0.145647
0.143784
0.141765
0.139597
0.137293
0.134864
0.132328
0.129702
0.127009
0.124264
0.121497
0.118719
0.115967
0.11324
0.110582
0.107979
0.105479
0.10306
0.100777
0.098588
0.0965227
0.0945757
0.0927242
0.0909631
0.0892821
0.0876764
0.0861351
0.0846523
0.0832186
0.0818295
0.0804824
0.0791906
0.0779965
0.0769848
0.132997
0.133217
0.13344
0.133663
0.133889
0.134116
0.134346
0.134577
0.134811
0.135047
0.135286
0.135527
0.135771
0.136018
0.136268
0.136521
0.136777
0.137037
0.137301
0.137569
0.13784
0.138116
0.138396
0.13868
0.138969
0.139263
0.139561
0.139865
0.140173
0.140486
0.140805
0.14113
0.14146
0.141797
0.142139
0.142487
0.142841
0.143202
0.143569
0.143942
0.144321
0.144707
0.145098
0.145496
0.145898
0.146307
0.146719
0.147136
0.147559
0.147991
0.148433
0.148885
0.149344
0.149812
0.150286
0.150765
0.151248
0.151733
0.152219
0.152704
0.153184
0.153658
0.154124
0.154576
0.155012
0.155427
0.155817
0.156181
0.156516
0.156815
0.157064
0.157256
0.157385
0.157442
0.157421
0.157315
0.157113
0.156807
0.156389
0.155848
0.155176
0.154366
0.153411
0.152305
0.151043
0.149623
0.148046
0.146311
0.144425
0.142394
0.140227
0.137938
0.13554
0.133052
0.130492
0.127878
0.125234
0.122577
0.119933
0.117312
0.114746
0.112232
0.109807
0.107461
0.10524
0.103108
0.101093
0.0991886
0.0973726
0.0956417
0.093985
0.0923998
0.0908748
0.0894062
0.0879844
0.086607
0.085271
0.0839903
0.0828016
0.081785
0.133674
0.133895
0.134118
0.134341
0.134568
0.134796
0.135026
0.135258
0.135493
0.13573
0.13597
0.136213
0.136458
0.136706
0.136958
0.137213
0.137471
0.137733
0.137999
0.138268
0.138542
0.13882
0.139102
0.139389
0.13968
0.139976
0.140277
0.140583
0.140894
0.141211
0.141533
0.141861
0.142194
0.142534
0.142879
0.143231
0.143588
0.143953
0.144324
0.144702
0.145085
0.145475
0.145871
0.146273
0.146681
0.147095
0.147514
0.147937
0.148366
0.148805
0.149254
0.149714
0.150181
0.150658
0.151142
0.151632
0.152126
0.152624
0.153124
0.153623
0.154119
0.154611
0.155095
0.155568
0.156026
0.156464
0.15688
0.157272
0.157639
0.157972
0.158258
0.15849
0.158662
0.158767
0.158798
0.158748
0.158608
0.158369
0.158023
0.157561
0.156974
0.156256
0.155398
0.154396
0.153244
0.15194
0.150484
0.148876
0.14712
0.145222
0.143192
0.141039
0.138778
0.136425
0.133997
0.131512
0.128991
0.126451
0.123917
0.1214
0.118928
0.116501
0.114154
0.111879
0.109722
0.107649
0.105685
0.103825
0.102046
0.100345
0.098714
0.0971498
0.0956417
0.0941876
0.0927779
0.0914119
0.0900866
0.0888154
0.0876298
0.0866064
0.13438
0.134602
0.134825
0.135051
0.135278
0.135507
0.135739
0.135973
0.136209
0.136447
0.136689
0.136933
0.13718
0.13743
0.137683
0.13794
0.1382
0.138464
0.138731
0.139003
0.139279
0.139559
0.139844
0.140133
0.140427
0.140725
0.141029
0.141338
0.141652
0.141971
0.142296
0.142627
0.142964
0.143307
0.143656
0.144012
0.144373
0.144742
0.145117
0.145499
0.145887
0.146282
0.146683
0.147091
0.147504
0.147924
0.148349
0.148778
0.149214
0.149661
0.150118
0.150585
0.151062
0.151548
0.152043
0.152544
0.15305
0.153561
0.154075
0.154589
0.155102
0.155611
0.156114
0.156608
0.157088
0.157551
0.157994
0.158415
0.158813
0.15918
0.159503
0.159775
0.159992
0.160144
0.160227
0.160234
0.160155
0.159982
0.159708
0.159323
0.15882
0.158191
0.157429
0.156528
0.155485
0.154294
0.152957
0.151472
0.149845
0.148078
0.14618
0.144163
0.142036
0.139818
0.13752
0.135164
0.132765
0.130344
0.127919
0.125508
0.123129
0.120794
0.118524
0.116324
0.114231
0.112219
0.110306
0.108491
0.106749
0.105081
0.103476
0.101934
0.100443
0.0990037
0.0976062
0.0962515
0.0949358
0.0936729
0.0924888
0.091459
0.135125
0.135347
0.135572
0.135798
0.136026
0.136256
0.136489
0.136723
0.136961
0.137201
0.137443
0.137689
0.137937
0.138189
0.138444
0.138702
0.138964
0.13923
0.1395
0.139774
0.140052
0.140334
0.140621
0.140913
0.141209
0.141511
0.141817
0.142129
0.142446
0.142769
0.143097
0.143431
0.143771
0.144118
0.144471
0.144831
0.145196
0.145569
0.145949
0.146336
0.146729
0.147129
0.147535
0.147948
0.148367
0.148794
0.149224
0.149661
0.150104
0.150558
0.151023
0.1515
0.151985
0.152482
0.152987
0.1535
0.154019
0.154543
0.155072
0.155602
0.156131
0.156658
0.157181
0.157696
0.1582
0.158688
0.159157
0.159607
0.160038
0.160439
0.1608
0.161112
0.161373
0.161573
0.161708
0.161771
0.161753
0.161646
0.161443
0.161135
0.160715
0.160174
0.159507
0.158707
0.157769
0.156691
0.15547
0.154108
0.152606
0.150969
0.149202
0.147318
0.145323
0.143237
0.141068
0.138839
0.136561
0.134258
0.131942
0.129636
0.127352
0.125106
0.122915
0.12079
0.118764
0.116812
0.114952
0.113183
0.11148
0.109844
0.108266
0.106745
0.105273
0.103849
0.102463
0.101119
0.0998127
0.0985567
0.0973721
0.0963341
0.135902
0.136125
0.136351
0.136578
0.136808
0.137039
0.137273
0.137509
0.137748
0.137989
0.138234
0.138481
0.138731
0.138984
0.139241
0.139501
0.139765
0.140033
0.140305
0.140581
0.140861
0.141146
0.141435
0.141729
0.142029
0.142333
0.142642
0.142957
0.143277
0.143603
0.143934
0.144272
0.144616
0.144967
0.145324
0.145687
0.146057
0.146435
0.146819
0.14721
0.147608
0.148014
0.148425
0.148845
0.14927
0.149703
0.150141
0.150584
0.151034
0.151496
0.15197
0.152456
0.152951
0.153458
0.153975
0.1545
0.155031
0.15557
0.156113
0.156659
0.157206
0.157752
0.158296
0.158832
0.159359
0.159872
0.160369
0.16085
0.161312
0.161748
0.162147
0.1625
0.162805
0.163054
0.16324
0.163359
0.163401
0.16336
0.163228
0.162996
0.162656
0.162203
0.161629
0.160927
0.160094
0.159125
0.15802
0.156777
0.155398
0.153888
0.152251
0.150497
0.148634
0.146678
0.144638
0.142535
0.140378
0.138192
0.135987
0.133786
0.131598
0.129443
0.127333
0.125284
0.123325
0.121434
0.119628
0.117906
0.116242
0.114641
0.113089
0.111592
0.110138
0.108729
0.107355
0.106022
0.104723
0.103473
0.102287
0.101241
0.136718
0.136942
0.137169
0.137397
0.137628
0.13786
0.138095
0.138333
0.138573
0.138815
0.139061
0.13931
0.139561
0.139816
0.140075
0.140337
0.140603
0.140873
0.141146
0.141425
0.141707
0.141994
0.142286
0.142583
0.142885
0.143192
0.143504
0.143822
0.144145
0.144474
0.144809
0.145151
0.145498
0.145853
0.146214
0.146582
0.146956
0.147338
0.147727
0.148124
0.148527
0.148938
0.149355
0.14978
0.150212
0.150652
0.151097
0.151547
0.152005
0.152476
0.152959
0.153454
0.153959
0.154477
0.155005
0.155543
0.156088
0.15664
0.157199
0.157762
0.158327
0.158892
0.159456
0.160015
0.160566
0.161105
0.16163
0.16214
0.162635
0.163107
0.163544
0.163939
0.164288
0.164584
0.164822
0.164997
0.1651
0.165124
0.165062
0.164905
0.164647
0.16428
0.163797
0.163193
0.162463
0.161603
0.160611
0.159485
0.158229
0.156843
0.155334
0.153709
0.151975
0.150148
0.148235
0.146257
0.14422
0.142151
0.140055
0.137959
0.135867
0.133803
0.131774
0.129801
0.127911
0.126083
0.124331
0.122656
0.121033
0.119465
0.117942
0.116468
0.115032
0.113638
0.112277
0.110954
0.109663
0.108416
0.107227
0.106172
0.137568
0.137793
0.138021
0.13825
0.138482
0.138716
0.138952
0.139191
0.139433
0.139677
0.139924
0.140174
0.140427
0.140684
0.140944
0.141208
0.141476
0.141748
0.142024
0.142305
0.14259
0.142879
0.143174
0.143473
0.143778
0.144088
0.144403
0.144724
0.14505
0.145383
0.145721
0.146067
0.146418
0.146777
0.147142
0.147514
0.147893
0.148279
0.148673
0.149075
0.149484
0.149901
0.150324
0.150756
0.151194
0.151641
0.152093
0.152551
0.153017
0.153496
0.153988
0.154493
0.155009
0.155538
0.156078
0.156629
0.157187
0.157755
0.15833
0.15891
0.159492
0.160077
0.160663
0.161244
0.161819
0.162385
0.162938
0.163479
0.164007
0.164515
0.16499
0.165426
0.16582
0.166164
0.166454
0.166685
0.166848
0.166936
0.166944
0.166862
0.166683
0.166401
0.166009
0.165501
0.164873
0.164119
0.163238
0.162228
0.161091
0.159829
0.158445
0.156948
0.155342
0.153643
0.151856
0.150002
0.148085
0.146133
0.144147
0.142156
0.140161
0.138189
0.136243
0.134349
0.132526
0.130762
0.129066
0.127438
0.125856
0.124323
0.122829
0.121379
0.119962
0.118583
0.117234
0.11592
0.114636
0.113393
0.112199
0.111135
0.138453
0.13868
0.138909
0.13914
0.139373
0.139608
0.139846
0.140086
0.140329
0.140575
0.140824
0.141075
0.14133
0.141589
0.141851
0.142117
0.142387
0.142661
0.142939
0.143222
0.143509
0.143801
0.144098
0.1444
0.144708
0.145021
0.145339
0.145663
0.145993
0.146329
0.146671
0.14702
0.147375
0.147738
0.148107
0.148484
0.148867
0.149259
0.149658
0.150065
0.15048
0.150902
0.151332
0.15177
0.152215
0.152669
0.153128
0.153594
0.154069
0.154557
0.155058
0.155573
0.1561
0.156641
0.157193
0.157757
0.15833
0.158912
0.159504
0.160101
0.160702
0.161307
0.161914
0.162519
0.163119
0.163711
0.164294
0.164866
0.165427
0.165971
0.166484
0.166962
0.167401
0.167793
0.168135
0.168422
0.168645
0.168798
0.168875
0.168867
0.168767
0.16857
0.168267
0.167854
0.167326
0.166677
0.165906
0.165011
0.163993
0.162852
0.161592
0.16022
0.158741
0.157169
0.155506
0.153775
0.151978
0.150141
0.148264
0.146378
0.14448
0.1426
0.140737
0.138921
0.137169
0.135468
0.133828
0.132249
0.130708
0.129211
0.127746
0.126319
0.124921
0.123558
0.122221
0.120916
0.119638
0.118397
0.117196
0.116123
0.139376
0.139604
0.139834
0.140066
0.1403
0.140536
0.140775
0.141017
0.141261
0.141508
0.141759
0.142012
0.142269
0.142529
0.142793
0.143061
0.143333
0.14361
0.14389
0.144175
0.144465
0.14476
0.145059
0.145364
0.145675
0.145991
0.146312
0.14664
0.146973
0.147312
0.147658
0.148011
0.14837
0.148737
0.14911
0.149492
0.14988
0.150276
0.15068
0.151094
0.151514
0.151942
0.152378
0.152822
0.153275
0.153736
0.154203
0.154677
0.155161
0.155658
0.156169
0.156694
0.157232
0.157784
0.15835
0.158927
0.159514
0.160112
0.160721
0.161336
0.161956
0.162582
0.163211
0.163839
0.164464
0.165084
0.165695
0.166299
0.166894
0.167474
0.168027
0.168546
0.16903
0.169471
0.169864
0.170207
0.17049
0.170707
0.170852
0.170918
0.170896
0.170783
0.170568
0.170249
0.16982
0.169274
0.168612
0.167829
0.166928
0.165907
0.164769
0.163522
0.162168
0.16072
0.159182
0.157573
0.155895
0.154173
0.152407
0.150626
0.148826
0.147038
0.14526
0.143523
0.141842
0.140205
0.138622
0.137092
0.135594
0.134133
0.132697
0.131295
0.129917
0.128569
0.127243
0.125947
0.124674
0.123434
0.122227
0.121144
0.140328
0.140558
0.140789
0.141023
0.141259
0.141497
0.141738
0.141981
0.142227
0.142476
0.142729
0.142984
0.143243
0.143505
0.143771
0.144042
0.144316
0.144595
0.144878
0.145165
0.145458
0.145755
0.146058
0.146365
0.146679
0.146998
0.147322
0.147653
0.147989
0.148332
0.148682
0.149038
0.149402
0.149773
0.150151
0.150536
0.150929
0.151331
0.151741
0.152159
0.152586
0.15302
0.153462
0.153914
0.154373
0.154842
0.155317
0.1558
0.156292
0.156798
0.157319
0.157855
0.158404
0.158969
0.159548
0.160139
0.160741
0.161355
0.16198
0.162614
0.163254
0.1639
0.164552
0.165204
0.165855
0.166502
0.167143
0.167778
0.168408
0.169024
0.169616
0.170177
0.170706
0.171196
0.171641
0.17204
0.172383
0.172663
0.172877
0.173016
0.173072
0.173041
0.172915
0.172689
0.172357
0.171914
0.171359
0.170688
0.169902
0.168999
0.167983
0.166858
0.165628
0.164304
0.162889
0.161401
0.159841
0.158234
0.156577
0.154901
0.153199
0.151504
0.149811
0.148153
0.146543
0.144972
0.143445
0.141965
0.14051
0.139085
0.13768
0.136302
0.134943
0.133611
0.132296
0.131008
0.129739
0.128499
0.127284
0.12619
0.14131
0.141541
0.141774
0.142009
0.142247
0.142487
0.14273
0.142975
0.143224
0.143475
0.14373
0.143988
0.14425
0.144515
0.144784
0.145057
0.145334
0.145615
0.145901
0.146192
0.146487
0.146787
0.147092
0.147403
0.147719
0.148042
0.148369
0.148703
0.149043
0.149389
0.149743
0.150103
0.150471
0.150846
0.151228
0.151619
0.152017
0.152424
0.152838
0.153263
0.153695
0.154136
0.154584
0.155043
0.15551
0.155986
0.15647
0.156961
0.157462
0.157978
0.158509
0.159056
0.159617
0.160194
0.160786
0.161392
0.162009
0.162639
0.163282
0.163934
0.164594
0.165262
0.165936
0.166613
0.167289
0.167965
0.168636
0.169304
0.169967
0.17062
0.171252
0.171856
0.17243
0.172968
0.173465
0.173919
0.174322
0.174666
0.174948
0.17516
0.175293
0.175344
0.175304
0.17517
0.174935
0.174593
0.174144
0.173582
0.17291
0.172124
0.171227
0.170224
0.169117
0.167916
0.166623
0.165256
0.163814
0.162321
0.160775
0.159203
0.1576
0.155998
0.154391
0.152814
0.151275
0.14977
0.148301
0.146872
0.14546
0.144073
0.142697
0.141345
0.140005
0.138688
0.137385
0.136104
0.134839
0.133598
0.132374
0.131269
0.142325
0.142558
0.142793
0.14303
0.14327
0.143513
0.143759
0.144007
0.144259
0.144513
0.144771
0.145032
0.145296
0.145564
0.145835
0.146111
0.146391
0.146675
0.146963
0.147256
0.147554
0.147857
0.148165
0.148478
0.148797
0.149122
0.149453
0.14979
0.150133
0.150483
0.15084
0.151204
0.151576
0.151956
0.152342
0.152738
0.15314
0.153553
0.153973
0.154403
0.154842
0.155289
0.155744
0.15621
0.156684
0.157169
0.15766
0.15816
0.15867
0.159196
0.159739
0.160296
0.160869
0.161459
0.162065
0.162685
0.163318
0.163965
0.164625
0.165297
0.165977
0.166666
0.167364
0.168065
0.168768
0.169472
0.170174
0.170874
0.171572
0.172262
0.172934
0.17358
0.1742
0.174787
0.175336
0.175846
0.176308
0.176716
0.177066
0.177349
0.177559
0.177692
0.177738
0.177695
0.177556
0.177314
0.17697
0.176518
0.175958
0.175288
0.174509
0.173627
0.172641
0.171562
0.17039
0.169142
0.167817
0.166438
0.165001
0.163535
0.16203
0.160521
0.159001
0.157503
0.156037
0.154598
0.153188
0.151809
0.150441
0.149091
0.147746
0.146419
0.145099
0.143797
0.142504
0.141231
0.139968
0.138725
0.137492
0.136375
0.143432
0.143666
0.143901
0.144139
0.144378
0.14462
0.144865
0.145113
0.145363
0.145617
0.145873
0.146134