/*--------------------------------*- C++ -*----------------------------------*\
  =========                 |
  \\      /  F ield         | OpenFOAM: The Open Source CFD Toolbox
   \\    /   O peration     | Website:  https://openfoam.org
    \\  /    A nd           | Version:  6.0
     \\/     M anipulation  |
\*---------------------------------------------------------------------------*/
FoamFile
{
    version     2.0;
    format      ascii;
    class       volScalarField;
    location    "14";
    object      p;
}
// * * * * * * * * * * * * * * * * * * * * * * * * * * * * * * * * * * * * * //

dimensions      [0 2 -2 0 0 0 0];

internalField   nonuniform List<scalar> 
62000
(
0.0205147
0.0205172
0.0205169
0.0205151
0.0205081
0.0204964
0.020477
0.0204508
0.0204149
0.0203706
0.020315
0.02025
0.0201726
0.0200851
0.0199839
0.0198711
0.0197427
0.0196005
0.01944
0.0192627
0.0190637
0.0188441
0.0185983
0.0183267
0.0180232
0.0176873
0.017312
0.0168961
0.0164321
0.0159175
0.0153442
0.014709
0.0140047
0.0132308
0.0123849
0.0114636
0.0104644
0.00938838
0.00823867
0.00702046
0.00574102
0.0044105
0.00304216
0.00165203
0.000259851
-0.00111279
-0.0024415
-0.00369975
-0.00486792
-0.00591616
-0.00684323
-0.00761043
-0.0082298
-0.00861794
-0.00875106
-0.00852229
-0.00796036
-0.0067265
-0.0054554
-0.0102949
0.0204799
0.0204641
0.0204485
0.0204369
0.0204253
0.0204136
0.0203994
0.0203838
0.0203638
0.0203394
0.0203057
0.0202629
0.020207
0.02014
0.0200585
0.0199648
0.0198553
0.0197319
0.0195906
0.0194327
0.0192539
0.0190549
0.0188309
0.0185814
0.0183014
0.0179891
0.0176391
0.0172482
0.0168107
0.0163221
0.0157762
0.0151674
0.0144907
0.0137433
0.0129209
0.0120199
0.0110373
0.00997312
0.00882875
0.0076071
0.0063131
0.00495457
0.00354237
0.00209034
0.000616291
-0.000859094
-0.00231104
-0.00371077
-0.00503497
-0.00624709
-0.00734214
-0.00826969
-0.00903862
-0.00953548
-0.0097237
-0.00944261
-0.00870789
-0.00721297
-0.00590203
-0.00595195
0.0203438
0.0203059
0.0202705
0.0202426
0.0202183
0.0201972
0.0201769
0.0201603
0.0201463
0.0201355
0.020122
0.0201032
0.0200725
0.0200299
0.0199715
0.0198994
0.0198103
0.0197064
0.0195841
0.0194448
0.0192845
0.0191038
0.0188982
0.0186675
0.0184065
0.0181138
0.0177841
0.0174142
0.0169989
0.0165335
0.0160126
0.0154305
0.0147832
0.0140664
0.0132769
0.0124098
0.0114637
0.0104392
0.00933737
0.00816094
0.00691454
0.00560585
0.00424572
0.00284798
0.00143068
1.56753e-05
-0.00137025
-0.00269431
-0.00392783
-0.00502798
-0.00598493
-0.0067488
-0.00732969
-0.00763229
-0.0076685
-0.00733727
-0.00674595
-0.00584135
-0.00567354
-0.0068285
0.0201559
0.0201043
0.0200586
0.020024
0.0199969
0.0199753
0.0199548
0.0199384
0.0199278
0.019927
0.0199317
0.0199382
0.0199372
0.0199257
0.0198977
0.0198546
0.019793
0.0197155
0.0196189
0.0195047
0.0193692
0.0192131
0.0190321
0.018826
0.0185899
0.0183225
0.0180185
0.0176753
0.0172878
0.0168515
0.0163615
0.0158124
0.0151998
0.0145209
0.01377
0.0129435
0.0120404
0.0110611
0.0100067
0.008879
0.0076816
0.00642102
0.00510634
0.003749
0.00236398
0.000970012
-0.000409104
-0.0017425
-0.00300118
-0.00414031
-0.00514594
-0.00596589
-0.00660667
-0.00697782
-0.00711472
-0.00695187
-0.00663473
-0.00621014
-0.00653481
-0.00726335
0.0199099
0.0198537
0.0198049
0.01977
0.0197475
0.0197337
0.0197205
0.0197082
0.0197002
0.0197039
0.0197192
0.0197435
0.0197669
0.0197832
0.0197844
0.0197699
0.0197362
0.0196858
0.0196158
0.0195281
0.0194191
0.0192895
0.0191352
0.0189557
0.0187465
0.0185063
0.0182299
0.017915
0.0175566
0.0171508
0.0166927
0.0161772
0.0156007
0.0149581
0.0142462
0.0134601
0.0125995
0.0116652
0.0106576
0.00957768
0.00842815
0.00721397
0.00594194
0.00462003
0.00325857
0.00187059
0.000473333
-0.000908395
-0.00225046
-0.00350902
-0.00466785
-0.0056669
-0.00649882
-0.00705477
-0.00736058
-0.00733704
-0.00711123
-0.00676342
-0.00688491
-0.00690967
0.0197219
0.0196686
0.0196211
0.0195879
0.0195713
0.0195676
0.0195655
0.0195615
0.0195576
0.0195636
0.0195831
0.0196164
0.0196539
0.0196881
0.0197085
0.0197126
0.0196962
0.0196618
0.0196072
0.019535
0.0194419
0.019329
0.0191919
0.0190304
0.0188398
0.0186187
0.0183622
0.0180678
0.0177309
0.0173477
0.0169137
0.016424
0.015874
0.0152613
0.0145797
0.013827
0.0130032
0.0121096
0.0111469
0.0101166
0.00902162
0.00786708
0.00665948
0.00540547
0.0041127
0.0027901
0.00144918
0.000107719
-0.00121704
-0.0024868
-0.00368763
-0.00475727
-0.005682
-0.00633772
-0.00673802
-0.0067968
-0.00663894
-0.00643127
-0.00666462
-0.0067001
0.0196137
0.0195709
0.0195302
0.0195008
0.0194897
0.0194959
0.0195067
0.0195148
0.01952
0.0195324
0.0195585
0.0196012
0.0196526
0.019704
0.0197432
0.0197653
0.0197649
0.0197437
0.0197004
0.0196379
0.019554
0.0194501
0.0193226
0.0191712
0.0189914
0.0187819
0.0185379
0.0182568
0.0179343
0.0175667
0.0171494
0.0166778
0.0161483
0.0155556
0.0148972
0.0141696
0.0133746
0.0125144
0.0115909
0.0106066
0.00956597
0.00847583
0.00734449
0.00617984
0.00498987
0.00378239
0.00256568
0.00135214
0.000151095
-0.00100753
-0.0021196
-0.00313049
-0.0040343
-0.00471074
-0.00518571
-0.00539158
-0.00547962
-0.00570798
-0.00646618
-0.00694251
0.0195724
0.0195457
0.0195157
0.0194912
0.0194836
0.0194956
0.0195156
0.0195343
0.0195491
0.0195697
0.0196043
0.0196584
0.0197258
0.0197979
0.019861
0.0199079
0.019931
0.0199311
0.0199064
0.0198602
0.0197911
0.0197011
0.0195872
0.0194494
0.0192837
0.0190889
0.0188602
0.0185955
0.0182901
0.0179408
0.0175429
0.0170919
0.0165827
0.0160129
0.0153765
0.0146723
0.0139025
0.01307
0.0121774
0.0112283
0.0102285
0.00918709
0.0081148
0.00702212
0.00591922
0.00481513
0.00371746
0.00263517
0.00157105
0.000545002
-0.000451556
-0.00137977
-0.00225284
-0.00296988
-0.00357923
-0.00404346
-0.00453116
-0.00533181
-0.00663499
-0.00759892
0.019512
0.0195051
0.0194895
0.0194721
0.0194677
0.0194826
0.0195074
0.0195321
0.0195528
0.0195783
0.0196185
0.0196811
0.0197624
0.0198544
0.0199435
0.0200202
0.0200754
0.0201076
0.0201142
0.0200979
0.0200574
0.019995
0.0199081
0.0197971
0.0196583
0.0194906
0.0192897
0.0190535
0.0187775
0.0184584
0.0180916
0.0176722
0.0171961
0.016657
0.0160521
0.0153779
0.0146372
0.0138328
0.0129672
0.012044
0.0110695
0.0100537
0.00900916
0.00794847
0.00688417
0.00582736
0.00478647
0.00376935
0.00277426
0.00181367
0.000866639
-4.25662e-05
-0.000947494
-0.00176732
-0.00257354
-0.003346
-0.00424114
-0.00551797
-0.00714055
-0.00844332
0.0194346
0.0194458
0.0194437
0.0194331
0.01943
0.0194436
0.0194671
0.0194909
0.0195103
0.0195335
0.0195711
0.019633
0.0197177
0.0198194
0.0199246
0.020024
0.0201068
0.0201701
0.0202102
0.020229
0.0202246
0.0201991
0.02015
0.0200775
0.0199781
0.0198505
0.0196908
0.0194966
0.0192638
0.0189888
0.0186671
0.0182937
0.0178626
0.01737
0.0168086
0.0161759
0.0154735
0.0147031
0.0138661
0.012965
0.012005
0.0109958
0.00995011
0.00888136
0.00780364
0.00672998
0.00567045
0.00463339
0.00361575
0.00262573
0.00163553
0.000659033
-0.000351935
-0.00133
-0.00235562
-0.00340949
-0.0046104
-0.00616515
-0.00786741
-0.00933154
0.0192941
0.0193197
0.0193292
0.0193253
0.0193239
0.0193356
0.0193559
0.0193756
0.0193899
0.0194061
0.0194356
0.0194893
0.0195682
0.0196682
0.0197777
0.0198873
0.0199865
0.0200714
0.0201377
0.0201862
0.0202149
0.0202253
0.0202148
0.0201832
0.020127
0.0200448
0.0199323
0.0197872
0.0196052
0.0193828
0.0191149
0.0187965
0.0184221
0.017984
0.0174774
0.0168964
0.0162418
0.0155138
0.0147116
0.0138358
0.0128895
0.0118803
0.0108196
0.00972026
0.00859649
0.00746239
0.00632962
0.00520828
0.00409618
0.00300181
0.00189522
0.000787832
-0.000374484
-0.0015275
-0.002751
-0.0040125
-0.00538608
-0.00703698
-0.00865903
-0.0101438
0.0191271
0.0191602
0.0191765
0.0191767
0.0191752
0.0191834
0.0191984
0.0192119
0.0192186
0.0192255
0.0192435
0.0192844
0.0193503
0.0194391
0.0195404
0.0196462
0.0197462
0.0198369
0.0199136
0.0199773
0.0200258
0.0200604
0.0200785
0.0200795
0.0200598
0.0200175
0.0199482
0.0198494
0.0197164
0.0195456
0.0193319
0.0190697
0.0187521
0.0183737
0.0179249
0.0174007
0.0167995
0.0161198
0.0153584
0.0145131
0.0135844
0.012577
0.0115
0.0103643
0.0091832
0.00797089
0.00674024
0.00550345
0.00426107
0.00302429
0.00176635
0.000501006
-0.000824291
-0.00214217
-0.00352145
-0.00491316
-0.00635126
-0.00798377
-0.00945519
-0.0108709
0.01891
0.0189451
0.0189643
0.0189671
0.0189657
0.0189711
0.0189816
0.0189894
0.0189894
0.0189875
0.0189948
0.0190226
0.0190746
0.0191489
0.0192369
0.019331
0.0194221
0.0195068
0.019581
0.0196457
0.0196991
0.0197427
0.0197743
0.0197933
0.019796
0.0197806
0.0197424
0.0196787
0.0195845
0.0194562
0.019288
0.0190745
0.0188095
0.0184834
0.0180899
0.0176203
0.0170723
0.0164425
0.0157253
0.0149159
0.0140118
0.0130146
0.0119302
0.0107669
0.00953611
0.00825116
0.00692542
0.00557308
0.00419776
0.00281539
0.00140428
-1.44279e-05
-0.00148788
-0.00294018
-0.00442841
-0.0058874
-0.00732252
-0.0088849
-0.0101916
-0.0114886
0.0187088
0.0187393
0.0187556
0.0187562
0.018751
0.0187503
0.0187535
0.0187533
0.0187446
0.0187329
0.0187287
0.0187434
0.0187804
0.0188386
0.0189096
0.0189869
0.0190618
0.0191315
0.0191924
0.019246
0.019291
0.0193294
0.0193594
0.0193807
0.0193902
0.0193858
0.0193631
0.0193192
0.0192491
0.019149
0.0190131
0.0188359
0.0186094
0.0183274
0.0179788
0.0175562
0.0170556
0.0164719
0.0157977
0.0150256
0.0141505
0.0131707
0.0120892
0.0109114
0.00964614
0.00830543
0.00690241
0.00545266
0.00396288
0.00245351
0.000909638
-0.000639708
-0.00223434
-0.0037897
-0.00534952
-0.00683766
-0.00824031
-0.00972469
-0.010884
-0.0120425
0.0184869
0.0185092
0.0185196
0.018516
0.0185058
0.0184985
0.018494
0.0184855
0.018468
0.0184469
0.0184325
0.0184357
0.0184601
0.0185044
0.0185607
0.0186222
0.018681
0.0187341
0.0187785
0.0188157
0.0188454
0.0188696
0.0188875
0.0188993
0.0189024
0.0188951
0.0188732
0.0188341
0.0187729
0.0186858
0.018567
0.0184108
0.0182108
0.0179567
0.0176414
0.0172544
0.0167917
0.016247
0.0156113
0.0148754
0.0140316
0.0130758
0.0120079
0.0108304
0.0095495
0.00817531
0.0067201
0.00520016
0.00362434
0.00201737
0.000370112
-0.00127977
-0.00296513
-0.00459287
-0.00619689
-0.00769334
-0.00905756
-0.0104765
-0.0115124
-0.0125286
0.0182825
0.0182931
0.0182943
0.0182831
0.0182648
0.0182483
0.0182337
0.018215
0.0181874
0.0181561
0.0181312
0.0181234
0.018136
0.0181676
0.01821
0.0182566
0.0182993
0.0183353
0.0183619
0.0183807
0.0183916
0.0183973
0.0183974
0.0183925
0.0183806
0.0183606
0.0183287
0.0182826
0.0182177
0.0181305
0.0180155
0.0178672
0.0176778
0.017441
0.0171449
0.0167816
0.0163458
0.0158306
0.0152259
0.0145211
0.0137067
0.0127765
0.0117279
0.0105607
0.00927883
0.00789007
0.00640547
0.00484132
0.00320791
0.00153276
-0.000187979
-0.00190987
-0.0036597
-0.00533859
-0.0069714
-0.00847057
-0.00980407
-0.011178
-0.0121154
-0.0129958
0.018049
0.0180474
0.018039
0.0180203
0.0179947
0.0179699
0.0179465
0.0179184
0.0178813
0.0178404
0.0178061
0.0177886
0.0177917
0.017813
0.017845
0.0178801
0.0179105
0.0179329
0.0179447
0.0179472
0.0179409
0.0179283
0.0179094
0.0178856
0.0178551
0.0178174
0.0177693
0.0177089
0.017632
0.0175354
0.017414
0.0172626
0.0170751
0.0168414
0.0165543
0.0162034
0.015784
0.0152889
0.0147075
0.0140281
0.0132403
0.0123358
0.0113102
0.010161
0.00888978
0.00750213
0.00600748
0.00442161
0.00275514
0.00103756
-0.000731645
-0.00250152
-0.00429519
-0.00600868
-0.00766128
-0.00916279
-0.0104764
-0.0118232
-0.0126784
-0.013432
0.0178456
0.0178298
0.0178093
0.0177802
0.017744
0.0177079
0.0176726
0.0176324
0.0175834
0.0175309
0.0174853
0.0174569
0.0174491
0.0174598
0.0174807
0.0175044
0.0175228
0.0175325
0.0175306
0.0175186
0.0174967
0.0174674
0.0174311
0.017389
0.01734
0.0172836
0.0172173
0.0171394
0.0170463
0.0169353
0.0168017
0.0166407
0.0164452
0.0162093
0.0159216
0.0155745
0.0151628
0.0146793
0.0141131
0.0134523
0.0126853
0.011803
0.0107994
0.00967018
0.00841478
0.00703686
0.00554413
0.00395142
0.00226918
0.000527368
-0.00127183
-0.00307309
-0.00489712
-0.006637
-0.00830697
-0.00981547
-0.0111207
-0.0124549
-0.0132405
-0.0138786
0.0176163
0.0175869
0.0175547
0.0175154
0.0174693
0.0174224
0.0173757
0.0173237
0.017263
0.0171988
0.0171422
0.0171033
0.0170858
0.017087
0.017099
0.0171137
0.0171231
0.0171232
0.0171113
0.0170881
0.0170541
0.0170115
0.0169608
0.0169032
0.0168378
0.0167645
0.0166809
0.0165857
0.0164757
0.0163487
0.0162002
0.016026
0.0158208
0.015575
0.0152824
0.0149328
0.0145224
0.0140442
0.0134872
0.0128396
0.0120892
0.0112261
0.0102431
0.00913449
0.00789796
0.00653525
0.0050523
0.00346282
0.00177633
2.28371e-05
-0.00179438
-0.00361601
-0.00546175
-0.00722244
-0.0089088
-0.0104275
-0.011732
-0.0130616
-0.0137822
-0.0143147
0.0173943
0.0173507
0.0173058
0.0172549
0.0171971
0.0171378
0.0170783
0.0170134
0.0169399
0.0168636
0.0167952
0.0167455
0.0167176
0.0167091
0.0167115
0.0167169
0.016717
0.0167078
0.0166863
0.0166534
0.0166092
0.0165557
0.0164934
0.0164235
0.0163449
0.0162576
0.0161593
0.0160491
0.0159239
0.0157818
0.015619
0.0154314
0.0152129
0.0149583
0.0146568
0.0143017
0.0138886
0.013411
0.0128583
0.0122184
0.0114794
0.0106306
0.00966409
0.00857316
0.00735397
0.00600665
0.00453547
0.00295296
0.00126755
-0.000491634
-0.00232047
-0.00415722
-0.0060209
-0.00780167
-0.00950616
-0.0110396
-0.0123494
-0.0136792
-0.0143386
-0.0147759
0.0171201
0.0170638
0.017008
0.0169477
0.0168807
0.0168118
0.0167422
0.0166665
0.0165823
0.0164952
0.016417
0.0163577
0.0163214
0.0163047
0.0162999
0.016298
0.0162913
0.0162752
0.0162468
0.0162066
0.0161549
0.0160933
0.0160225
0.0159433
0.0158548
0.0157568
0.0156472
0.015525
0.0153875
0.0152329
0.0150575
0.0148577
0.0146292
0.0143629
0.0140533
0.0136912
0.0132736
0.0127943
0.0122431
0.0116081
0.0108774
0.0100401
0.00908754
0.00801218
0.00680897
0.00547656
0.00401768
0.00244369
0.000761561
-0.00100035
-0.00283826
-0.00468738
-0.00656743
-0.00836747
-0.0100909
-0.0116405
-0.0129576
-0.014288
-0.014885
-0.0152352
0.0168588
0.0167892
0.016721
0.0166492
0.0165708
0.0164897
0.0164077
0.0163194
0.0162227
0.0161236
0.0160339
0.0159641
0.0159177
0.0158919
0.0158781
0.0158679
0.015853
0.0158292
0.0157934
0.0157461
0.0156877
0.0156195
0.0155421
0.015456
0.0153604
0.0152549
0.0151373
0.0150065
0.01486
0.014696
0.0145112
0.0143022
0.0140633
0.01379
0.013472
0.0131036
0.0126811
0.012199
0.0116473
0.0110146
0.0102888
0.00945907
0.00851634
0.0074524
0.00626121
0.00494026
0.00349081
0.00192326
0.000243088
-0.00152235
-0.00336954
-0.00523162
-0.00712898
-0.00895005
-0.0106944
-0.0122625
-0.0135885
-0.0149191
-0.0154542
-0.0157262
0.0165486
0.0164669
0.0163878
0.0163061
0.0162176
0.0161261
0.016033
0.0159333
0.0158251
0.0157148
0.0156148
0.0155353
0.0154805
0.0154468
0.0154261
0.0154092
0.0153885
0.0153588
0.0153177
0.0152652
0.0152018
0.0151288
0.0150467
0.0149561
0.0148558
0.0147453
0.0146226
0.0144864
0.0143341
0.0141639
0.0139726
0.013757
0.013513
0.0132319
0.0129088
0.0125353
0.0121086
0.011624
0.0110718
0.0104405
0.00971874
0.00889516
0.00796046
0.00690582
0.00572446
0.00441272
0.00297064
0.00140755
-0.000272358
-0.00204267
-0.00390041
-0.00577664
-0.007692
-0.00953468
-0.0113004
-0.0128864
-0.0142201
-0.0155482
-0.0160187
-0.0162194
0.0162276
0.0161337
0.0160431
0.0159503
0.0158506
0.0157474
0.0156423
0.0155306
0.0154106
0.0152891
0.0151786
0.0150897
0.0150261
0.0149845
0.0149561
0.0149321
0.0149044
0.0148684
0.0148214
0.0147636
0.0146955
0.0146184
0.0145328
0.014439
0.0143358
0.0142226
0.0140972
0.0139582
0.013803
0.0136296
0.0134352
0.0132162
0.0129674
0.0126843
0.0123571
0.0119804
0.0115512
0.0110647
0.0105118
0.00988121
0.00916164
0.00834185
0.00741214
0.00636333
0.00518789
0.00388142
0.00244266
0.000880331
-0.000802895
-0.00258103
-0.00445188
-0.00634464
-0.00828014
-0.0101463
-0.0119349
-0.0135396
-0.0148807
-0.0162044
-0.0166106
-0.0167481
0.0158321
0.0157279
0.0156282
0.0155272
0.0154197
0.0153083
0.0151947
0.0150737
0.0149447
0.0148141
0.0146956
0.0145992
0.0145295
0.0144821
0.0144489
0.0144201
0.0143882
0.014348
0.0142972
0.0142357
0.0141646
0.0140847
0.0139969
0.0139014
0.0137969
0.0136827
0.0135566
0.013417
0.0132612
0.0130873
0.012892
0.012672
0.0124236
0.0121378
0.0118101
0.0114322
0.011002
0.0105152
0.00996266
0.00933355
0.00861658
0.00780046
0.00687512
0.00583099
0.00465995
0.00335679
0.00191928
0.00035527
-0.0013336
-0.0031219
-0.00500781
-0.00691878
-0.00887537
-0.0107653
-0.0125766
-0.0141985
-0.0155448
-0.0168609
-0.0172003
-0.017281
0.0154348
0.0153194
0.0152092
0.015098
0.0149803
0.0148581
0.0147337
0.0146019
0.0144622
0.0143218
0.0141941
0.0140897
0.0140126
0.0139587
0.0139194
0.013885
0.0138476
0.0138026
0.0137475
0.0136823
0.0136083
0.0135262
0.013437
0.0133408
0.0132363
0.0131226
0.0129975
0.0128591
0.0127047
0.0125323
0.0123386
0.0121203
0.011872
0.011589
0.0112616
0.0108847
0.0104552
0.00996925
0.00941786
0.00879013
0.00807512
0.00726128
0.00633843
0.00529634
0.00412687
0.00282351
0.00138408
-0.000185585
-0.00188302
-0.00368531
-0.00558772
-0.00752082
-0.00949979
-0.0114148
-0.0132496
-0.0148889
-0.0162398
-0.0175466
-0.0178198
-0.0178522
0.0149696
0.0148444
0.0147252
0.0146055
0.0144793
0.0143485
0.0142151
0.0140741
0.0139254
0.0137763
0.0136411
0.0135303
0.0134481
0.0133898
0.0133471
0.0133095
0.0132698
0.0132223
0.0131652
0.0130984
0.0130232
0.0129404
0.0128512
0.0127555
0.0126522
0.0125403
0.0124175
0.0122818
0.0121305
0.0119614
0.0117709
0.0115558
0.011312
0.0110305
0.0107066
0.0103322
0.00990512
0.00942166
0.00887288
0.00824794
0.00753588
0.0067251
0.00580493
0.0047648
0.00359613
0.00229172
0.000848841
-0.000727922
-0.00243595
-0.00425369
-0.00617436
-0.00813064
-0.0101328
-0.012073
-0.0139309
-0.0155859
-0.0169392
-0.0182342
-0.018439
-0.01843
0.0144793
0.0143437
0.0142144
0.0140851
0.0139493
0.0138087
0.0136655
0.013515
0.0133572
0.0132001
0.0130579
0.0129414
0.0128543
0.0127922
0.0127459
0.0127054
0.0126626
0.0126128
0.0125537
0.0124854
0.0124095
0.0123268
0.0122385
0.0121444
0.0120435
0.0119346
0.0118153
0.0116837
0.0115369
0.0113723
0.0111869
0.0109768
0.0107366
0.0104613
0.0101411
0.00977096
0.00934783
0.00886803
0.00832259
0.00770068
0.0069913
0.00618285
0.00526402
0.00422418
0.00305413
0.00174624
0.000297328
-0.00128945
-0.00301057
-0.00484654
-0.00678661
-0.00876878
-0.0107959
-0.0127623
-0.0146441
-0.0163152
-0.0176706
-0.018953
-0.0190908
-0.0190483
0.0138966
0.0137524
0.0136159
0.0134802
0.0133386
0.0131922
0.0130433
0.0128867
0.0127235
0.0125611
0.0124152
0.0122956
0.0122072
0.0121441
0.012098
0.0120573
0.0120152
0.0119657
0.0119073
0.0118398
0.0117652
0.0116841
0.0115981
0.0115069
0.0114095
0.0113048
0.0111903
0.011064
0.0109227
0.0107643
0.0105847
0.0103806
0.0101477
0.00987657
0.00956268
0.0091979
0.00877997
0.00830526
0.00776469
0.0071472
0.0064419
0.00563677
0.0047202
0.003681
0.00250977
0.00119813
-0.000257284
-0.00185481
-0.00358998
-0.00544504
-0.00740535
-0.00941378
-0.0114666
-0.0134596
-0.0153648
-0.0170507
-0.0184067
-0.019675
-0.0197457
-0.0196738
0.0133062
0.0131522
0.0130064
0.0128619
0.0127116
0.0125567
0.0123996
0.0122353
0.0120649
0.0118967
0.0117459
0.011623
0.0115322
0.0114679
0.0114207
0.0113797
0.0113373
0.011288
0.0112302
0.0111639
0.0110912
0.0110126
0.0109299
0.0108428
0.0107502
0.0106509
0.0105424
0.0104225
0.0102881
0.0101365
0.00996435
0.00976747
0.00954039
0.00927779
0.00896979
0.00861165
0.00820007
0.00773131
0.00719611
0.00658328
0.00588184
0.00507954
0.00416428
0.00312455
0.00195055
0.000633436
-0.000830387
-0.00244081
-0.00419182
-0.006068
-0.00804892
-0.0100875
-0.012167
-0.0141877
-0.0161174
-0.0178188
-0.0191757
-0.0204303
-0.0204373
-0.0203412
0.0126394
0.0124769
0.0123235
0.012172
0.0120151
0.0118539
0.0116906
0.0115204
0.0113448
0.0111722
0.0110187
0.0108944
0.0108039
0.0107407
0.0106959
0.0106574
0.0106181
0.0105719
0.0105175
0.0104547
0.010386
0.0103118
0.0102341
0.0101525
0.0100661
0.00997338
0.00987206
0.00975976
0.00963317
0.00948978
0.00932549
0.0091366
0.00891869
0.00866187
0.00836222
0.00801137
0.00760702
0.00714531
0.0066167
0.00600987
0.00531359
0.00451537
0.00360242
0.00256307
0.00138683
6.4715e-05
-0.00140754
-0.00303065
-0.00479801
-0.00669527
-0.00869784
-0.0107659
-0.0128736
-0.0149229
-0.0168773
-0.0185935
-0.0199505
-0.0211907
-0.0211364
-0.0210174
0.0119459
0.0117741
0.0116119
0.0114521
0.0112873
0.0111185
0.0109482
0.0107718
0.010591
0.0104148
0.010259
0.0101343
0.0100444
0.00998314
0.00994049
0.00990481
0.00986832
0.00982547
0.0097747
0.00971609
0.00965218
0.00958344
0.00951193
0.00943715
0.00935815
0.00927342
0.00918049
0.00907688
0.00895923
0.00882473
0.00866966
0.0084898
0.00827918
0.00803266
0.00774038
0.00739772
0.00700121
0.0065469
0.00602511
0.0054242
0.00473288
0.00393817
0.00302693
0.00198688
0.00080742
-0.000521261
-0.00200306
-0.00364083
-0.00542547
-0.00734584
-0.00937019
-0.0114709
-0.0136088
-0.0156885
-0.0176691
-0.0194014
-0.0207596
-0.0219865
-0.0218748
-0.0217374
0.0111562
0.0109771
0.0108091
0.0106447
0.0104765
0.0103047
0.0101321
0.00995339
0.00977138
0.00959452
0.0094401
0.00931781
0.00923237
0.00917594
0.00913947
0.00910974
0.00907989
0.0090433
0.00899919
0.00894715
0.00889027
0.00882879
0.00876511
0.0086986
0.00862837
0.00855281
0.00846938
0.00837553
0.00826768
0.00814322
0.00799784
0.00782754
0.00762772
0.00738834
0.00710558
0.00677132
0.00638294
0.00593667
0.00542257
0.0048287
0.00414353
0.00335357
0.00244517
0.00140548
0.000223634
-0.00111081
-0.00260176
-0.00425357
-0.00605555
-0.0079988
-0.0100456
-0.0121781
-0.0143479
-0.0164598
-0.0184677
-0.0202161
-0.0215756
-0.0227893
-0.0226218
-0.0224671
0.0103678
0.0101801
0.0100043
0.00983261
0.00965762
0.00947963
0.00930167
0.00911866
0.0089334
0.00875501
0.00860054
0.00848017
0.00839774
0.00834587
0.00831428
0.00829016
0.00826601
0.00823567
0.00819813
0.00815323
0.00810414
0.00805101
0.00799635
0.00793937
0.00787912
0.00781389
0.00774102
0.00765788
0.00756086
0.00744713
0.00731262
0.00715287
0.00696169
0.00673359
0.00645894
0.0061333
0.00575323
0.00531499
0.00480843
0.00422136
0.00354189
0.00275616
0.00184985
0.000809759
-0.000375493
-0.00171673
-0.00321807
-0.00488515
-0.00670584
-0.0086731
-0.0107436
-0.0129107
-0.0151149
-0.0172611
-0.0192984
-0.0210649
-0.0224273
-0.0236292
-0.0234091
-0.0232413
0.00950399
0.00930925
0.00912754
0.00895101
0.00877187
0.00859039
0.00840953
0.00822418
0.00803777
0.00785954
0.0077074
0.00759111
0.00751501
0.00747047
0.00744766
0.00743258
0.00741817
0.00739747
0.00736987
0.00733485
0.00729592
0.00725307
0.00720901
0.00716285
0.00711368
0.00705969
0.00699823
0.0069266
0.00684111
0.00673891
0.00661543
0.00646635
0.00628675
0.00606601
0.00580128
0.00548414
0.0051126
0.00468287
0.00418457
0.00360517
0.00293247
0.00215206
0.001249
0.000209588
-0.000978088
-0.0023252
-0.00383633
-0.00551792
-0.00735723
-0.00934824
-0.0114434
-0.0136443
-0.0158849
-0.0180678
-0.0201361
-0.0219217
-0.0232876
-0.0244783
-0.0242063
-0.0240257
0.00859926
0.00839504
0.00820546
0.0080228
0.00783931
0.00765522
0.00747353
0.00728909
0.0071051
0.00693126
0.00678506
0.00667669
0.00660941
0.00657494
0.00656215
0.00655748
0.00655319
0.0065428
0.00652545
0.00650092
0.00647274
0.00644084
0.00640808
0.00637339
0.00633591
0.00629369
0.00624411
0.00618439
0.00611074
0.00602009
0.00590809
0.00576993
0.00559885
0.0053898
0.00513315
0.00482495
0.00446205
0.00404067
0.00355026
0.00297802
0.00231145
0.00153565
0.000635043
-0.000404532
-0.00159557
-0.00294958
-0.00447164
-0.00616896
-0.00802827
-0.0100444
-0.0121661
-0.0144035
-0.016683
-0.0189049
-0.0210068
-0.0228138
-0.0241854
-0.0253665
-0.0250449
-0.0248548
0.00759277
0.00737814
0.00718379
0.00700167
0.00682294
0.00664646
0.00647446
0.00630019
0.00612723
0.00596437
0.00583024
0.00573369
0.00567939
0.00565742
0.00565789
0.0056657
0.00567422
0.00567584
0.00567055
0.00565753
0.00564094
0.00562039
0.00559912
0.00557589
0.00554998
0.00551938
0.00548148
0.00543342
0.00537124
0.00529203
0.00519082
0.00506302
0.00490359
0.00470189
0.00445542
0.00415612
0.00380193
0.00338923
0.00290723
0.00234284
0.00168325
0.000913019
1.58997e-05
-0.00102281
-0.00221621
-0.00357624
-0.00510856
-0.00682097
-0.00870013
-0.0107414
-0.0128906
-0.0151639
-0.0174839
-0.0197474
-0.021885
-0.023715
-0.0250936
-0.0262659
-0.0258945
-0.0256938
0.00681234
0.00658925
0.00638138
0.00618176
0.00598414
0.00578984
0.00560233
0.00541629
0.00523492
0.0050678
0.00493226
0.00483773
0.00478692
0.00477038
0.00477676
0.00479155
0.00480736
0.00481704
0.00482022
0.00481625
0.00480923
0.00479857
0.00478761
0.00477487
0.00475967
0.00473987
0.00471284
0.00467566
0.00462435
0.00455581
0.00446536
0.00434796
0.00419689
0.00400685
0.0037686
0.00347825
0.00313269
0.00272829
0.00225408
0.00169677
0.00104327
0.000277681
-0.000616878
-0.0016557
-0.00285245
-0.0042196
-0.00576335
-0.00749221
-0.00939274
-0.0114609
-0.0136396
-0.0159518
-0.0183145
-0.0206217
-0.0227973
-0.0246531
-0.0260409
-0.0272058
-0.0267859
-0.0265771
0.00584614
0.0056204
0.0054144
0.00521984
0.00502883
0.00484093
0.00465981
0.00447923
0.0043039
0.00414285
0.00401497
0.00392826
0.00388671
0.00387923
0.00389537
0.00391929
0.00394446
0.00396299
0.00397511
0.00397984
0.00398167
0.00397983
0.00397788
0.00397428
0.00396838
0.00395803
0.00394063
0.00391323
0.00387178
0.00381325
0.00373241
0.00362453
0.00348438
0.003301
0.00307268
0.00279087
0.00245388
0.00205799
0.00159194
0.0010422
0.000395491
-0.000364651
-0.00125574
-0.00229372
-0.0034929
-0.00486635
-0.00642092
-0.00816576
-0.0100876
-0.0121829
-0.0143922
-0.016743
-0.0191499
-0.021503
-0.0237189
-0.0256022
-0.0270009
-0.0281589
-0.0276896
-0.0274702
0.0051028
0.00487366
0.00465977
0.00445331
0.00424834
0.00404608
0.00385109
0.00365844
0.00347292
0.00330474
0.00317211
0.00308381
0.00304214
0.00303626
0.00305433
0.00308097
0.00310906
0.00313125
0.00314751
0.00315713
0.00316453
0.00316883
0.0031736
0.00317713
0.00317875
0.00317622
0.00316695
0.00314795
0.00311511
0.00306515
0.00299323
0.00289409
0.00276068
0.0025881
0.0023671
0.00209383
0.00176513
0.00137713
0.000918413
0.000375283
-0.000265712
-0.00102148
-0.00191016
-0.00294838
-0.00415106
-0.00553202
-0.00709869
-0.00886102
-0.0108059
-0.0129302
-0.0151724
-0.0175646
-0.0200177
-0.0224183
-0.0246768
-0.0265901
-0.0280018
-0.029154
-0.0286357
-0.0284073
0.00416215
0.00393392
0.00372664
0.00353091
0.00333871
0.00314865
0.00296488
0.00278099
0.00260307
0.00244089
0.00231456
0.00223187
0.00219662
0.00219659
0.00222077
0.00225262
0.00228578
0.00231235
0.00233289
0.00234662
0.00235832
0.00236709
0.00237668
0.00238539
0.00239255
0.00239597
0.002393
0.00238065
0.00235463
0.0023119
0.00224697
0.002155
0.00203076
0.00186344
0.00165133
0.00138599
0.00106519
0.000685089
0.000233932
-0.000302146
-0.00093679
-0.00168741
-0.0025728
-0.00361032
-0.00481565
-0.00620335
-0.0077816
-0.00956115
-0.0115292
-0.013683
-0.0159589
-0.0183922
-0.0208925
-0.0233427
-0.025646
-0.0275913
-0.0290176
-0.0301641
-0.0295951
-0.0293539
0.00348976
0.00326303
0.0030514
0.00284602
0.00264112
0.00243705
0.00223878
0.00204114
0.00185026
0.00167719
0.00154159
0.00145237
0.00141193
0.00140854
0.00142987
0.00145985
0.00149145
0.00151726
0.00153757
0.00155182
0.00156478
0.00157546
0.00158762
0.00159942
0.00161015
0.00161757
0.00161897
0.00161134
0.00159041
0.00155299
0.00149402
0.00140821
0.00128874
0.00113042
0.000924316
0.00066631
0.000352809
-2.01987e-05
-0.000464718
-0.000994786
-0.00162418
-0.00237074
-0.00325395
-0.0042919
-0.005501
-0.0068967
-0.00848789
-0.0102863
-0.0122792
-0.0144646
-0.0167766
-0.0192539
-0.0218031
-0.0243041
-0.0266539
-0.0286331
-0.0300757
-0.031217
-0.0305974
-0.0303439
0.00264137
0.00242376
0.00222214
0.00202626
0.00182941
0.00163052
0.00143503
0.00123731
0.0010453
0.000870419
0.000734285
0.000645199
0.000606788
0.000605983
0.000630804
0.000663903
0.000698555
0.000726739
0.000749011
0.000764815
0.000779156
0.000791134
0.000804707
0.00081813
0.000830708
0.000840289
0.000844186
0.000839465
0.000821818
0.000788228
0.000733124
0.000651759
0.000538879
0.000383393
0.000184435
-6.72675e-05
-0.000373926
-0.000739872
-0.00117748
-0.001701
-0.0023244
-0.00306604
-0.00394611
-0.00498351
-0.0061955
-0.00759847
-0.00920217
-0.0110192
-0.0130374
-0.0152549
-0.0176038
-0.0201248
-0.0227238
-0.0252774
-0.0276758
-0.0296908
-0.0311509
-0.0322867
-0.0316144
-0.0313443
0.00179973
0.00158603
0.0013909
0.00120306
0.00101519
0.000824834
0.00063661
0.00044434
0.000255857
8.33098e-05
-5.14401e-05
-0.000138892
-0.00017605
-0.000175357
-0.000149642
-0.00011576
-8.08974e-05
-5.25988e-05
-3.05112e-05
-1.48901e-05
-6.63317e-07
1.12677e-05
2.49785e-05
3.87003e-05
5.17456e-05
6.19989e-05
6.6852e-05
6.34208e-05
4.74519e-05
1.57553e-05
-3.66507e-05
-0.00011501
-0.000226238
-0.000375027
-0.000570219
-0.000816102
-0.00111661
-0.00147633
-0.00190794
-0.0024259
-0.00304432
-0.00378207
-0.00466004
-0.00569799
-0.00691399
-0.00832552
-0.00994312
-0.0117805
-0.0138258
-0.0160776
-0.0184656
-0.0210331
-0.0236834
-0.0262908
-0.0287389
-0.0307911
-0.0322697
-0.0333998
-0.0326747
-0.0323888
0.000935264
0.000721478
0.000527639
0.000342713
0.000158916
-2.68119e-05
-0.000210157
-0.000398112
-0.000582313
-0.000750798
-0.000880514
-0.000962696
-0.000993313
-0.000986044
-0.000953381
-0.000913446
-0.000873159
-0.000840759
-0.000815644
-0.000798123
-0.000782825
-0.00077052
-0.000756861
-0.000743446
-0.000730855
-0.000721016
-0.000716485
-0.000720002
-0.000735911
-0.000766959
-0.000818691
-0.000895688
-0.00100294
-0.00115121
-0.00134121
-0.00158218
-0.0018771
-0.00223063
-0.00265589
-0.0031676
-0.00378013
-0.00451295
-0.00538775
-0.00642517
-0.00764427
-0.00906364
-0.0106948
-0.0125525
-0.0146252
-0.016912
-0.0193396
-0.0219533
-0.0246557
-0.0273187
-0.0298186
-0.0319097
-0.0334074
-0.0345309
-0.0337506
-0.0334443
0.000131977
-8.33562e-05
-0.000279144
-0.000466388
-0.000652011
-0.000838854
-0.00102262
-0.00121033
-0.00139399
-0.00156115
-0.00168922
-0.00176859
-0.0017964
-0.00178582
-0.00175042
-0.00170785
-0.00166565
-0.00163165
-0.00160557
-0.0015875
-0.00157204
-0.00155998
-0.00154684
-0.00153419
-0.00152261
-0.00151386
-0.00151047
-0.00151505
-0.00153176
-0.00156341
-0.00161489
-0.00169119
-0.00179872
-0.00194229
-0.0021302
-0.00236694
-0.00265697
-0.00300515
-0.00342491
-0.00393128
-0.00453885
-0.00526769
-0.00614028
-0.00717826
-0.00840155
-0.00983008
-0.0114761
-0.013356
-0.0154578
-0.0177818