/*--------------------------------*- C++ -*----------------------------------*\
  =========                 |
  \\      /  F ield         | OpenFOAM: The Open Source CFD Toolbox
   \\    /   O peration     | Website:  https://openfoam.org
    \\  /    A nd           | Version:  6.0
     \\/     M anipulation  |
\*---------------------------------------------------------------------------*/
FoamFile
{
    version     2.0;
    format      ascii;
    class       surfaceScalarField;
    location    "14";
    object      phi;
}
// * * * * * * * * * * * * * * * * * * * * * * * * * * * * * * * * * * * * * //

dimensions      [0 3 -1 0 0 0 0];

internalField   nonuniform List<scalar> 
123526
(
5.47423e-05
2.30531e-05
-5.43577e-05
5.51632e-05
2.49196e-05
5.56159e-05
2.69364e-05
5.61071e-05
2.91156e-05
5.66369e-05
3.14701e-05
5.72112e-05
3.4014e-05
5.78315e-05
3.67622e-05
5.85043e-05
3.97309e-05
5.92322e-05
4.29367e-05
6.00222e-05
4.64e-05
6.0875e-05
5.01411e-05
6.18001e-05
5.41813e-05
6.27981e-05
5.85439e-05
6.38831e-05
6.32518e-05
6.50564e-05
6.83332e-05
6.63289e-05
7.38206e-05
6.77021e-05
7.97422e-05
6.91963e-05
8.61252e-05
7.08129e-05
9.30127e-05
7.25642e-05
0.000100443
7.44622e-05
0.000108447
7.65227e-05
0.000117073
7.87489e-05
0.000126372
8.11694e-05
0.000136373
8.37863e-05
0.000147146
8.66226e-05
0.00015873
8.96937e-05
0.00017118
9.30158e-05
0.000184558
9.66123e-05
0.000198909
0.000100498
0.000214303
0.0001047
0.000230781
0.000109236
0.000248412
0.000114129
0.000267234
0.000119405
0.000287299
0.000125086
0.000308643
0.000131203
0.000331285
0.000137774
0.000355243
0.000144829
0.000380497
0.000152391
0.000407004
0.000160483
0.00043469
0.000169125
0.000463422
0.000178337
0.000493011
0.000188129
0.000523189
0.000198509
0.000553588
0.000209473
0.000583715
0.000221006
0.000612921
0.000233075
0.000640369
0.000245631
0.00066498
0.000258595
0.000685394
0.000271861
0.000699896
0.000285276
0.000706371
0.000298645
0.00070221
0.000311702
0.00068428
0.000324119
0.000648797
0.000335467
0.000591389
0.000345236
0.000506952
0.000352861
0.000390103
0.000356099
0.000237184
0.000360698
4.07244e-05
-0.000232802
0.000382686
5.41388e-05
2.26692e-05
-5.3761e-05
5.45525e-05
2.4505e-05
5.49977e-05
2.64884e-05
5.54807e-05
2.86314e-05
5.60016e-05
3.0947e-05
5.6566e-05
3.34486e-05
5.71754e-05
3.61511e-05
5.78358e-05
3.907e-05
5.85501e-05
4.22211e-05
5.93249e-05
4.56254e-05
6.01613e-05
4.93035e-05
6.10682e-05
5.32753e-05
6.20468e-05
5.75638e-05
6.31104e-05
6.21894e-05
6.42608e-05
6.7181e-05
6.55082e-05
7.25742e-05
6.68547e-05
7.83937e-05
6.83196e-05
8.46608e-05
6.9905e-05
9.14253e-05
7.1622e-05
9.87261e-05
7.34835e-05
0.000106584
7.55039e-05
0.000115053
7.76872e-05
0.000124187
8.00607e-05
0.000133999
8.26272e-05
0.000144578
8.54082e-05
0.000155948
8.84201e-05
0.000168167
9.16772e-05
0.0001813
9.52042e-05
0.000195381
9.9014e-05
0.000210492
0.000103134
0.00022666
0.00010758
0.000243964
0.000112377
0.000262434
0.000117548
0.000282124
0.000123116
0.000303072
0.000129111
0.000325288
0.000135552
0.0003488
0.000142466
0.000373581
0.000149879
0.00039959
0.000157811
0.000426756
0.000166284
0.000454949
0.000175316
0.000483979
0.000184919
0.000513587
0.000195098
0.00054341
0.000205851
0.000572965
0.000217163
0.000601614
0.000229002
0.000628535
0.000241319
0.000652671
0.000254037
0.000672684
0.000267053
0.000686892
0.000280217
0.000693217
0.000293336
0.000689101
0.000306146
0.000671467
0.000318324
0.000636606
0.000329447
0.000580234
0.000339002
0.000497354
0.000346371
0.000382654
0.000350781
0.000232649
0.000351631
3.95997e-05
-0.000229837
0.000348475
5.33191e-05
2.22929e-05
-5.29487e-05
5.37249e-05
2.40982e-05
5.4162e-05
2.60485e-05
5.46365e-05
2.81557e-05
5.51487e-05
3.04325e-05
5.57043e-05
3.28921e-05
5.63045e-05
3.5549e-05
5.69555e-05
3.84186e-05
5.76598e-05
4.15153e-05
5.8424e-05
4.48614e-05
5.92489e-05
4.84771e-05
6.01434e-05
5.23815e-05
6.11086e-05
5.65971e-05
6.21572e-05
6.11417e-05
6.32915e-05
6.6045e-05
6.45209e-05
7.13455e-05
6.58478e-05
7.70648e-05
6.72908e-05
8.32181e-05
6.8852e-05
8.9862e-05
7.05423e-05
9.70356e-05
7.23742e-05
0.00010475
7.43618e-05
0.000113064
7.65088e-05
0.000122038
7.88419e-05
0.000131665
8.1364e-05
0.000142054
8.40959e-05
0.000153215
8.70538e-05
0.000165207
9.02515e-05
0.000178101
9.37134e-05
0.000191917
9.74523e-05
0.000206752
0.000101495
0.000222616
0.000105857
0.000239601
0.000110563
0.000257726
0.000115635
0.000277048
0.000121096
0.000297606
0.000126976
0.000319404
0.000133295
0.000342478
0.000140077
0.000366795
0.000147349
0.000392314
0.000155131
0.000418972
0.000163444
0.000446634
0.000172305
0.000475116
0.000181727
0.000504164
0.000191714
0.000533423
0.000202263
0.000562415
0.00021336
0.000590517
0.000224975
0.000616921
0.000237059
0.000640588
0.000249537
0.000660205
0.000262307
0.000674121
0.000275222
0.000680296
0.000288093
0.000676222
0.000300656
0.000658879
0.000312594
0.000624637
0.000323494
0.000569284
0.000332849
0.000487943
0.00034007
0.000375352
0.000344317
0.000228309
0.000345304
3.84611e-05
-0.000233338
0.000348724
5.24896e-05
2.19241e-05
-5.21263e-05
5.28872e-05
2.36998e-05
5.33153e-05
2.56179e-05
5.378e-05
2.769e-05
5.42818e-05
2.99285e-05
5.48263e-05
3.23468e-05
5.54151e-05
3.49586e-05
5.6054e-05
3.77793e-05
5.67457e-05
4.08223e-05
5.74967e-05
4.41107e-05
5.83076e-05
4.76649e-05
5.91872e-05
5.15029e-05
6.01364e-05
5.56466e-05
6.11678e-05
6.01114e-05
6.22834e-05
6.49278e-05
6.34927e-05
7.01371e-05
6.47979e-05
7.57578e-05
6.62172e-05
8.17992e-05
6.77528e-05
8.83244e-05
6.94153e-05
9.5373e-05
7.1217e-05
0.000102946
7.31715e-05
0.000111109
7.52827e-05
0.000119924
7.75765e-05
0.00012937
8.00557e-05
0.000139572
8.27406e-05
0.000150528
8.56471e-05
0.000162299
8.87887e-05
0.000174957
9.21893e-05
0.000188515
9.58612e-05
0.000203078
9.98312e-05
0.000218645
0.000104114
0.000235316
0.000108734
0.000253102
0.000113713
0.000272065
0.000119074
0.000292241
0.000124846
0.000313627
0.000131049
0.000336272
0.000137706
0.000360133
0.000144844
0.000385172
0.000152482
0.000411329
0.00016064
0.000438471
0.000169337
0.000466414
0.000178582
0.000494914
0.000188382
0.000523618
0.000198733
0.000552058
0.000209622
0.000579624
0.000221018
0.000605519
0.000232875
0.000628725
0.00024512
0.000647953
0.000257652
0.000661582
0.000270327
0.000667611
0.000282959
0.000663577
0.000295288
0.000646517
0.000307001
0.000612876
0.000317699
0.000558517
0.000326894
0.00047866
0.000334011
0.000368104
0.000338499
0.000223631
0.000339176
3.74094e-05
-0.000233289
0.000338872
5.16741e-05
2.15638e-05
-5.13202e-05
5.20621e-05
2.33104e-05
5.24806e-05
2.51965e-05
5.29353e-05
2.72337e-05
5.34271e-05
2.94346e-05
5.39608e-05
3.18118e-05
5.45386e-05
3.43791e-05
5.51658e-05
3.71513e-05
5.58457e-05
4.01411e-05
5.65838e-05
4.33725e-05
5.73817e-05
4.68658e-05
5.82471e-05
5.0638e-05
5.91815e-05
5.47107e-05
6.01967e-05
5.90969e-05
6.12951e-05
6.38277e-05
6.24852e-05
6.89475e-05
6.37698e-05
7.44714e-05
6.51663e-05
8.04029e-05
6.66771e-05
8.68117e-05
6.83121e-05
9.37376e-05
7.00838e-05
0.000101172
7.20055e-05
0.000109187
7.40809e-05
0.000117847
7.63354e-05
0.000127114
7.87719e-05
0.000137134
8.14102e-05
0.000147889
8.42658e-05
0.000159441
8.73522e-05
0.000171869
9.06924e-05
0.000185172
9.42989e-05
0.00019947
9.81978e-05
0.000214745
0.000102404
0.000231108
0.00010694
0.000248563
0.000111829
0.000267171
0.000117092
0.000286973
0.000122759
0.000307956
0.000128848
0.000330179
0.000135383
0.000353593
0.00014239
0.000378161
0.000149887
0.000403828
0.000157894
0.000430459
0.000166429
0.000457876
0.000175502
0.000485837
0.00018512
0.000513997
0.000195278
0.000541897
0.000205963
0.000568935
0.000217148
0.000594331
0.000228786
0.000617084
0.000240805
0.000635929
0.000253108
0.000649276
0.000265551
0.000655159
0.000277954
0.000651166
0.000290059
0.000634389
0.000301561
0.000601345
0.000312067
0.000547965
0.000321113
0.000469566
0.000328134
0.000361015
0.00033262
0.000219074
0.000333252
3.66714e-05
-0.000231765
0.000331684
5.08575e-05
2.12117e-05
-5.05106e-05
5.12379e-05
2.29291e-05
5.16489e-05
2.47831e-05
5.20956e-05
2.67858e-05
5.25789e-05
2.89493e-05
5.31034e-05
3.12862e-05
5.36713e-05
3.38097e-05
5.42876e-05
3.65344e-05
5.49559e-05
3.94717e-05
5.56817e-05
4.26468e-05
5.64666e-05
4.608e-05
5.73182e-05
4.97872e-05
5.82381e-05
5.37897e-05
5.9238e-05
5.80982e-05
6.032e-05
6.27445e-05
6.14925e-05
6.77759e-05
6.27581e-05
7.32043e-05
6.41336e-05
7.90277e-05
6.56213e-05
8.53222e-05
6.7231e-05
9.21278e-05
6.89747e-05
9.94268e-05
7.08653e-05
0.000107296
7.29066e-05
0.000115804
7.51234e-05
0.000124897
7.75185e-05
0.000134737
8.01115e-05
0.000145294
8.29175e-05
0.000156633
8.59497e-05
0.000168835
8.92309e-05
0.000181889
9.27731e-05
0.000195926
9.66021e-05
0.000210914
0.000100732
0.000226977
0.000105187
0.000244105
0.000109987
0.000262367
0.000115154
0.000281801
0.000120717
0.000302389
0.000126694
0.000324198
0.00013311
0.000347173
0.000139987
0.000371279
0.000147346
0.000396465
0.000155205
0.000422595
0.000163582
0.000449493
0.000172487
0.000476925
0.000181926
0.000504551
0.000191897
0.00053192
0.000202385
0.000558439
0.000213364
0.000583343
0.000224789
0.00060565
0.000236589
0.000624117
0.000248668
0.000637185
0.000260885
0.000642925
0.000273062
0.00063897
0.000284947
0.000622466
0.000296239
0.000589999
0.000306556
0.000537573
0.000315446
0.00046058
0.000322353
0.00035397
0.000326788
0.00021444
0.000327445
3.56295e-05
-0.000229736
0.000325155
5.00773e-05
2.08639e-05
-4.97353e-05
5.04532e-05
2.25519e-05
5.08595e-05
2.43742e-05
5.13009e-05
2.6343e-05
5.17781e-05
2.84702e-05
5.22952e-05
3.07679e-05
5.28546e-05
3.32489e-05
5.34608e-05
3.59274e-05
5.41176e-05
3.88138e-05
5.48301e-05
4.19341e-05
5.56004e-05
4.53086e-05
5.64358e-05
4.89521e-05
5.73385e-05
5.28858e-05
5.83196e-05
5.71177e-05
5.9382e-05
6.16806e-05
6.05336e-05
6.66246e-05
6.17774e-05
7.19589e-05
6.31296e-05
7.76757e-05
6.45926e-05
8.38574e-05
6.61756e-05
9.05445e-05
6.78906e-05
9.77101e-05
6.97497e-05
0.000105436
7.17569e-05
0.000113795
7.39363e-05
0.000122716
7.62905e-05
0.000132381
7.88387e-05
0.000142745
8.15959e-05
0.000153874
8.45748e-05
0.000165855
8.77979e-05
0.000178665
9.1277e-05
0.000192445
9.50373e-05
0.000207153
9.90928e-05
0.000222919
0.000103467
0.000239728
0.00010818
0.00025765
0.000113253
0.000276724
0.000118714
0.000296924
0.000124582
0.000318327
0.000130879
0.000340871
0.00013763
0.000364524
0.000144854
0.000389237
0.000152568
0.000414877
0.000160791
0.000441267
0.000169533
0.00046818
0.000178798
0.000495283
0.000188586
0.00052213
0.000198882
0.00054814
0.00020966
0.000572562
0.000220877
0.000594432
0.000232462
0.000612529
0.000244321
0.000625325
0.000256314
0.000630926
0.000268269
0.000627013
0.000279934
0.000610785
0.000291016
0.000578897
0.000301141
0.000527417
0.00030987
0.000451818
0.000316659
0.000347138
0.000321024
0.000210037
0.000321773
3.48347e-05
-0.000227263
0.000319299
4.93812e-05
2.05181e-05
-4.90394e-05
4.97553e-05
2.21771e-05
5.01589e-05
2.39686e-05
5.05964e-05
2.59045e-05
5.10683e-05
2.79966e-05
5.15788e-05
3.02565e-05
5.21299e-05
3.26966e-05
5.27263e-05
3.53306e-05
5.33713e-05
3.81679e-05
5.40702e-05
4.12354e-05
5.48247e-05
4.45533e-05
5.56423e-05
4.81354e-05
5.6525e-05
5.20023e-05
5.74841e-05
5.61597e-05
5.85224e-05
6.06412e-05
5.96484e-05
6.54995e-05
6.0865e-05
7.0741e-05
6.21885e-05
7.63526e-05
6.36214e-05
8.2423e-05
6.51727e-05
8.89929e-05
6.68543e-05
9.60268e-05
6.86781e-05
0.000103612
7.06479e-05
0.000111823
7.2787e-05
0.000120576
7.50983e-05
0.000130068
7.76002e-05
0.000140242
8.03073e-05
0.000151166
8.32323e-05
0.000162928
8.63969e-05
0.000175498
8.98129e-05
0.000189027
9.35049e-05
0.00020346
9.74868e-05
0.000218936
0.000101781
0.000235431
0.000106408
0.00025302
0.000111389
0.000271739
0.00011675
0.000291559
0.00012251
0.000312564
0.000128692
0.000334685
0.000135319
0.000357893
0.00014241
0.000382142
0.000149984
0.000407298
0.000158056
0.000433189
0.000166638
0.000459593
0.000175734
0.00048618
0.000185344
0.000512513
0.000195453
0.000538023
0.000206036
0.00056197
0.000217049
0.000583409
0.000228423
0.000601142
0.000240065
0.00061367
0.000251838
0.000619135
0.000263571
0.000615261
0.000275019
0.0005993
0.000285893
0.000567969
0.000295828
0.000517408
0.000304396
0.000443155
0.000311065
0.000340337
0.000315341
0.000205567
0.000316219
3.35822e-05
-0.000225057
0.000313764
4.87837e-05
2.01732e-05
-4.84449e-05
4.91548e-05
2.18042e-05
4.95546e-05
2.35661e-05
4.99869e-05
2.54705e-05
5.04531e-05
2.75285e-05
5.09563e-05
2.97517e-05
5.14993e-05
3.21522e-05
5.20857e-05
3.47431e-05
5.27196e-05
3.7533e-05
5.3405e-05
4.05496e-05
5.41446e-05
4.38129e-05
5.49443e-05
4.73358e-05
5.58071e-05
5.11385e-05
5.67431e-05
5.52241e-05
5.77562e-05
5.96269e-05
5.88539e-05
6.44021e-05
6.00403e-05
6.95532e-05
6.1331e-05
7.50619e-05
6.27295e-05
8.10231e-05
6.42444e-05
8.74777e-05
6.58879e-05
9.43818e-05
6.76716e-05
0.000101827
6.95994e-05
0.000109894
7.16942e-05
0.000118481
7.39588e-05
0.000127802
7.64112e-05
0.000137788
7.90657e-05
0.000148509
8.19346e-05
0.000160058
8.50392e-05
0.000172392
8.83909e-05
0.000185674
9.20139e-05
0.000199835
9.59215e-05
0.000215027
0.000100137
0.000231214
0.000104678
0.000248474
0.000109567
0.000266846
0.00011483
0.000286293
0.000120484
0.000306906
0.000126553
0.000328613
0.000133059
0.000351383
0.00014002
0.000375177
0.000147455
0.00039986
0.00015538
0.000425261
0.000163806
0.000451164
0.000172738
0.000477245
0.000182174
0.000503075
0.0001921
0.000528095
0.000202492
0.000551577
0.000213305
0.000572596
0.000224473
0.000589974
0.000235903
0.000602242
0.000247459
0.000607578
0.000258974
0.000603749
0.000270208
0.00058806
0.000280878
0.00055729
0.000290625
0.000507644
0.000299034
0.000434732
0.000305581
0.000333771
0.000309762
0.000201384
0.000310769
3.25949e-05
-0.000222611
0.000308367
4.82711e-05
1.98321e-05
-4.79341e-05
4.86379e-05
2.14365e-05
4.9032e-05
2.31701e-05
4.94575e-05
2.50438e-05
4.99158e-05
2.70688e-05
5.04102e-05
2.92562e-05
5.09435e-05
3.16179e-05
5.15192e-05
3.41668e-05
5.21413e-05
3.69103e-05
5.28138e-05
3.98772e-05
5.35387e-05
4.30874e-05
5.43224e-05
4.6553e-05
5.51668e-05
5.02935e-05
5.6082e-05
5.431e-05
5.70713e-05
5.86369e-05
5.81423e-05
6.3332e-05
5.92987e-05
6.83957e-05
6.05565e-05
7.38045e-05
6.19191e-05
7.96591e-05
6.33956e-05
8.6001e-05
6.49983e-05
9.27777e-05
6.67389e-05
0.000100086
6.86215e-05
0.00010801
7.06686e-05
0.000116433
7.28833e-05
0.000125586
7.52831e-05
0.000135387
7.78823e-05
0.000145909
8.06926e-05
0.000157246
8.37352e-05
0.000169348
8.7021e-05
0.000182387
9.05738e-05
0.000196282
9.4407e-05
0.000211192
9.85416e-05
0.000227076
0.000102998
0.000244015
0.000107796
0.000262045
0.000112961
0.000281125
0.000118511
0.000301354
0.000124468
0.000322653
0.000130854
0.000344993
0.000137688
0.000368339
0.000144988
0.000392556
0.000152769
0.000417474
0.000161043
0.000442885
0.000169813
0.000468468
0.000179079
0.000493803
0.000188827
0.000518338
0.000199031
0.000541363
0.00020965
0.000561967
0.000220615
0.000578996
0.000231836
0.000591009
0.000243179
0.000596216
0.000254481
0.00059243
0.000265505
0.000577003
0.000275974
0.000546773
0.000285538
0.000498013
0.000293789
0.000426394
0.000300215
0.000327224
0.000304302
0.00019712
0.000305407
3.11443e-05
-0.000220463
0.000303032
4.78089e-05
1.94971e-05
-4.74788e-05
4.81681e-05
2.1076e-05
4.85541e-05
2.2782e-05
4.89707e-05
2.46257e-05
4.94197e-05
2.66182e-05
4.99043e-05
2.87704e-05
5.04273e-05
3.10938e-05
5.09919e-05
3.36012e-05
5.16023e-05
3.62991e-05
5.2262e-05
3.92172e-05
5.29735e-05
4.23752e-05
5.37421e-05
4.57845e-05
5.45705e-05
4.94643e-05
5.54673e-05
5.34134e-05
5.64364e-05
5.76668e-05
5.7484e-05
6.22846e-05
5.86144e-05
6.72641e-05
5.98425e-05
7.25764e-05
6.11722e-05
7.8328e-05
6.26124e-05
8.45605e-05
6.41755e-05
9.12131e-05
6.58734e-05
9.83879e-05
6.77105e-05
0.000106171
6.97092e-05
0.000114433
7.18728e-05
0.000123421
7.42186e-05
0.000133041
7.67608e-05
0.000143365
7.95112e-05
0.000154494
8.24903e-05
0.000166367
8.57091e-05
0.000179167
8.91908e-05
0.000192799
9.29481e-05
0.000207434
9.70032e-05
0.00022302
0.000101374
0.000239641
0.000106081
0.000257335
0.000111149
0.000276054
0.000116595
0.000295905
0.000122442
0.000316803
0.000128711
0.000338721
0.00013542
0.000361627
0.000142587
0.000385386
0.000150227
0.000409831
0.000158351
0.000434759
0.000166963
0.000459854
0.000176062
0.000484703
0.000185634
0.000508765
0.000195655
0.000531343
0.000206082
0.000551542
0.000216848
0.000568231
0.000227864
0.000579997
0.000238998
0.000585084
0.000250091
0.000581346
0.000260909
0.000566186
0.000271181
0.000536499
0.000280566
0.000488623
0.000288662
0.000418298
0.000294968
0.00032092
0.000298971
0.000193143
0.00030013
3.00576e-05
-0.000217999
0.000297746
4.73648e-05
1.91705e-05
-4.7041e-05
4.77154e-05
2.07248e-05
4.80922e-05
2.24038e-05
4.84991e-05
2.4218e-05
4.89378e-05
2.61783e-05
4.94116e-05
2.82956e-05
4.99233e-05
3.05813e-05
5.04764e-05
3.30476e-05
5.10746e-05
3.57004e-05
5.17219e-05
3.857e-05
5.24202e-05
4.16765e-05
5.31753e-05
4.50302e-05
5.3989e-05
4.86501e-05
5.48705e-05
5.2533e-05
5.58222e-05
5.67144e-05
5.68508e-05
6.12568e-05
5.79594e-05
6.61546e-05
5.91626e-05
7.13735e-05
6.04639e-05
7.70255e-05
6.18721e-05
8.31521e-05
6.33997e-05
8.96843e-05
6.50581e-05
9.67289e-05
6.68524e-05
0.000104376
6.88046e-05
0.00011248
7.09184e-05
0.000121305
7.32111e-05
0.000130747
7.56969e-05
0.000140878
7.83874e-05
0.000151803
8.13031e-05
0.00016345
8.44547e-05
0.000176014
8.78652e-05
0.000189388
9.15475e-05
0.00020375
9.55219e-05
0.000219042
9.98082e-05
0.000235352
0.000104425
0.000252716
0.000109397
0.000271079
0.000114741
0.000290558
0.000120479
0.000311062
0.000126632
0.000332565
0.000133217
0.000355038
0.000140253
0.000378346
0.000147754
0.000402325
0.000155731
0.000426777
0.000164188
0.000451391
0.000173122
0.000475761
0.000182523
0.000499357
0.000192362
0.000521494
0.0002026
0.000541294
0.00021317
0.000557649
0.000223984
0.00056917
0.000234913
0.000574138
0.0002458
0.000570444
0.000256416
0.00055554
0.000266496
0.000526375
0.000275704
0.000479353
0.000283648
0.000410273
0.000289837
0.000314619
0.000293765
0.000189052
0.000294935
2.85655e-05
-0.000215791
0.000292518
4.691e-05
1.88523e-05
-4.65973e-05
4.72506e-05
2.03822e-05
4.76177e-05
2.20344e-05
4.80144e-05
2.38193e-05
4.84432e-05
2.57479e-05
4.89064e-05
2.78307e-05
4.94077e-05
3.00789e-05
4.99496e-05
3.25046e-05
5.05366e-05
3.51126e-05
5.11716e-05
3.79344e-05
5.18578e-05
4.09897e-05
5.25995e-05
4.42883e-05
5.34e-05
4.78489e-05
5.42669e-05
5.16662e-05
5.52039e-05
5.57766e-05
5.62158e-05
6.02449e-05
5.73067e-05
6.50627e-05
5.84893e-05
7.01907e-05
5.97677e-05
7.5746e-05
6.11493e-05
8.17701e-05
6.26467e-05
8.81857e-05
6.42709e-05
9.51042e-05
6.60272e-05
0.000102618
6.79371e-05
0.00011057
7.00048e-05
0.000119237
7.22475e-05
0.000128503
7.46793e-05
0.000138445
7.73121e-05
0.000149169
8.01659e-05
0.000160595
8.32519e-05
0.000172927
8.65923e-05
0.000186047
9.01999e-05
0.000200142
9.4096e-05
0.000215145
9.82979e-05
0.000231147
0.000102826
0.000248186
0.000107703
0.000266199
0.000112945
0.000285313
0.000118576
0.000305429
0.000124615
0.000326523
0.000131079
0.000348572
0.000137986
0.000371437
0.00014535
0.000394959
0.000153182
0.000418943
0.000161486
0.000443086
0.000170258
0.000466988
0.000179488
0.000490127
0.000189149
0.000511833
0.000199201
0.000531245
0.000209578
0.000547275
0.000220193
0.000558561
0.000230919
0.000563416
0.000241603
0.000559774
0.000252021
0.000545129
0.000261911
0.000516491
0.000270947
0.000470322
0.000278742
0.00040249
0.000284819
0.000308563
0.000288676
0.000185247
0.000289825
2.75371e-05
-0.000213217
0.000287361
4.64323e-05
1.85429e-05
-4.61261e-05
4.67648e-05
2.00488e-05
4.71233e-05
2.16743e-05
4.7511e-05
2.34304e-05
4.79303e-05
2.53275e-05
4.83836e-05
2.73762e-05
4.88743e-05
2.95874e-05
4.94052e-05
3.19729e-05
4.99807e-05
3.45367e-05
5.06039e-05
3.73112e-05
5.12776e-05
4.0316e-05
5.20066e-05
4.356e-05
5.27937e-05
4.70618e-05
5.36469e-05
5.0814e-05
5.45693e-05
5.48539e-05
5.55663e-05
5.92487e-05
5.6641e-05
6.39874e-05
5.7806e-05
6.90259e-05
5.90647e-05
7.44864e-05
6.0424e-05
8.04105e-05
6.1896e-05
8.67127e-05
6.34911e-05
9.35085e-05
6.52146e-05
0.000100893
6.70874e-05
0.000108696
6.91139e-05
0.000117209
7.1311e-05
0.000126305
7.3693e-05
0.000136062
7.62715e-05
0.000146589
7.90669e-05
0.000157799
8.20898e-05
0.000169903
8.53627e-05
0.000182773
8.88985e-05
0.000196605
9.27169e-05
0.000211325
9.68372e-05
0.000227025
0.000101277
0.000243743
0.000106061
0.000261413
0.000111205
0.000280167
0.00011673
0.000299901
0.000122656
0.000320594
0.000129001
0.000342224
0.000135781
0.000364653
0.00014301
0.000387725
0.000150699
0.00041125
0.000158852
0.000434928
0.000167465
0.000458368
0.000176527
0.000481058
0.000186012
0.000502339
0.000195879
0.000521368
0.000206065
0.000537077
0.000216484
0.000548131
0.00022701
0.000552873
0.000237495
0.000549276
0.000247717
0.000534881
0.000257422
0.000506746
0.000266289
0.0004614
0.000273939
0.000394767
0.000279905
0.000302497
0.000283693
0.000181312
0.000284799
2.614e-05
-0.000210892
0.000282285
4.59233e-05
1.82408e-05
-4.56255e-05
4.62478e-05
1.97226e-05
4.65985e-05
2.13219e-05
4.6978e-05
2.30493e-05
4.73888e-05
2.49155e-05
4.78331e-05
2.69305e-05
4.83144e-05
2.91052e-05
4.88352e-05
3.14511e-05
4.94001e-05
3.39712e-05
5.00117e-05
3.66989e-05
5.06734e-05
3.96538e-05
5.13894e-05
4.28439e-05
5.21632e-05
4.62873e-05
5.30022e-05
4.9975e-05
5.39104e-05
5.3945e-05
5.48923e-05
5.82668e-05
5.59517e-05
6.29272e-05
5.71003e-05
6.78771e-05
5.83415e-05
7.32442e-05
5.96815e-05
7.907e-05
6.11318e-05
8.52613e-05
6.27023e-05
9.19375e-05
6.43977e-05
9.91969e-05
6.62385e-05
0.000106855
6.82288e-05
0.000115217
7.03853e-05
0.000124148
7.27222e-05
0.000133724
7.52511e-05
0.000144059
7.79919e-05
0.000155057
8.09558e-05
0.000166938
8.41646e-05
0.000179564
8.7631e-05
0.000193138
9.1376e-05
0.000207579
9.54164e-05
0.000222982
9.97717e-05
0.000239386
0.000104465
0.000256718
0.000109511
0.000275118
0.000114933
0.000294477
0.000120749
0.000314775
0.000126976
0.000335994
0.000133632
0.000357996
0.000140729
0.000380626
0.000148277
0.0004037
0.00015628
0.000426924
0.000164736
0.000449912
0.000173632
0.000472163
0.000182943
0.00049303
0.000192629
0.000511687
0.000202626
0.000527084
0.000212851
0.000537914
0.00022318
0.000542551
0.000233469
0.000539005
0.0002435
0.000524862
0.000253023
0.000497235
0.000261724
0.000452711
0.000269231
0.000387281
0.000275089
0.000296675
0.000278809
0.000177665
0.00027986
2.52496e-05
-0.000208197
0.000277299
4.53855e-05
1.79458e-05
-4.50922e-05
4.57038e-05
1.94038e-05
4.60476e-05
2.09771e-05
4.64197e-05
2.26764e-05
4.68223e-05
2.4512e-05
4.72579e-05
2.6494e-05
4.77297e-05
2.86328e-05
4.82406e-05
3.09396e-05
4.87948e-05
3.34169e-05
4.93953e-05
3.60985e-05
5.00449e-05
3.90041e-05
5.07486e-05
4.2141e-05
5.15089e-05
4.55269e-05
5.23341e-05
4.91508e-05
5.32274e-05
5.30514e-05
5.41943e-05
5.73007e-05
5.52378e-05
6.18831e-05
5.63701e-05
6.6745e-05
5.7594e-05
7.20194e-05
5.89157e-05
7.77481e-05
6.03461e-05
8.38299e-05
6.18943e-05
9.03886e-05
6.35649e-05
9.75253e-05
6.53775e-05
0.000105041
6.73361e-05
0.000113258
6.94566e-05
0.000122027
7.1753e-05
0.000131427
7.42368e-05
0.000141574
7.69277e-05
0.000152365
7.98366e-05
0.000164029
8.29854e-05
0.000176415
8.63869e-05
0.000189736
9.00606e-05
0.000203903
9.40254e-05
0.000219016
9.82986e-05
0.00023511
0.000102904
0.000252111
0.000107856
0.000270163
0.000113177
0.000289155
0.000118885
0.000309065
0.000124998
0.000329879
0.00013153
0.00035146
0.000138497
0.000373655
0.000145907
0.000396286
0.000153763
0.000419062
0.000162064
0.000441605
0.000170797
0.000463423
0.000179936
0.000483883
0.000189443
0.000502171
0.000199254
0.000517261
0.000209288
0.000527869
0.000219424
0.0005324
0.000229519
0.000528899
0.000239362
0.000514996
0.000248706
0.000487854
0.000257245
0.000444122
0.000264613
0.000379845
0.000270364
0.000290831
0.000274014
0.00017388
0.000275005
2.39886e-05
-0.000205765
0.000272403
4.48187e-05
1.76559e-05
-4.45337e-05
4.51301e-05
1.90904e-05
4.54672e-05
2.06381e-05
4.58319e-05
2.23096e-05
4.62274e-05
2.41153e-05
4.66549e-05
2.60648e-05
4.71186e-05
2.81683e-05
4.76202e-05
3.04368e-05
4.81648e-05
3.28718e-05
4.87544e-05
3.55082e-05
4.93928e-05
3.83654e-05
5.00837e-05
4.14498e-05
5.08312e-05
4.47791e-05
5.16419e-05
4.83401e-05
5.25206e-05
5.21722e-05
5.34715e-05
5.63498e-05
5.44991e-05
6.08549e-05
5.56143e-05
6.56295e-05
5.6821e-05
7.0812e-05
5.81244e-05
7.64443e-05
5.95355e-05
8.24179e-05
6.10627e-05
8.88608e-05
6.27104e-05
9.58766e-05
6.44973e-05
0.000103254
6.64271e-05
0.000111327
6.85151e-05
0.000119938
7.0775e-05
0.000129166
7.32178e-05
0.000139131
7.58629e-05
0.000149719
7.87213e-05
0.00016117
8.1814e-05
0.000173321
8.51539e-05
0.000186395
8.87614e-05
0.000200295
9.26532e-05
0.000215122
9.6848e-05
0.000230914
0.000101368
0.000247589
0.000106229
0.0002653
0.000111452
0.00028393
0.000117056
0.000303459
0.000123056
0.000323877
0.000129469
0.000345046
0.000136308
0.000366815
0.000143582
0.000389011
0.000151294
0.00041135
0.000159442
0.000433457
0.000168014
0.000454854
0.000176984
0.000474915
0.000186314
0.000492846
0.000195943
0.000507638
0.00020579
0.000518032
0.000215735
0.000522463
0.000225641
0.000519012
0.000235299
0.000505355
0.000244468
0.000478701
0.000252847
0.000435762
0.000260078
0.000372644
0.000265724
0.000285234
0.000269303
0.000170391
0.000270237
2.32489e-05
-0.000202972
0.000267599
4.4231e-05
1.73718e-05
-4.3949e-05
4.45374e-05
1.87831e-05
4.48688e-05
2.03057e-05
4.52272e-05
2.19501e-05
4.56155e-05
2.37263e-05
4.60352e-05
2.56439e-05
4.64903e-05
2.77128e-05
4.69827e-05
2.99437e-05
4.75172e-05
3.23372e-05
4.80963e-05
3.49292e-05
4.8723e-05
3.77388e-05
4.94018e-05
4.07718e-05
5.01358e-05
4.40453e-05
5.09326e-05
4.75443e-05
5.17958e-05
5.13089e-05
5.27307e-05
5.54156e-05
5.37411e-05
5.98441e-05
5.48386e-05
6.45322e-05
5.60266e-05
6.96233e-05
5.73108e-05
7.51598e-05
5.87019e-05
8.1026e-05
6.02079e-05
8.73542e-05
6.18331e-05
9.42506e-05
6.35953e-05
0.000101491
6.54979e-05
0.000109424
6.75557e-05
0.000117879
6.97818e-05
0.000126939
7.21868e-05
0.000136725
7.47897e-05
0.000147115
7.76008e-05
0.000158358
8.06414e-05
0.00017028
8.39241e-05
0.000183112
8.74678e-05
0.00019675
9.12911e-05
0.000211298
9.54108e-05
0.000226793
9.98495e-05
0.000243149
0.000104623
0.000260526
0.000109751
0.0002788
0.000115252
0.000297956
0.000121143
0.000317984
0.000127439
0.000338747
0.000134153
0.000360098
0.000141294
0.000381867
0.000148865
0.000403774
0.000156863
0.000425453
0.000165277
0.000446434
0.000174081
0.000466104
0.000183238
0.000483682
0.000192687
0.000498179
0.00020235
0.000508361
0.000212108
0.00051269
0.000221829
0.000509284
0.000231305
0.000495858
0.000240303
0.000469672
0.000248526
0.000427493
0.000255622
0.000365487
0.000261163
0.000279611
0.000264671
0.000166764
0.000265549
2.21306e-05
-0.000200455
0.000262883
4.36242e-05
1.70923e-05
-4.33481e-05
4.39251e-05
1.84808e-05
4.42508e-05
1.99786e-05
4.4603e-05
2.15963e-05
4.49846e-05
2.33437e-05
4.53972e-05
2.523e-05
4.58445e-05
2.7265e-05
4.63283e-05
2.94589e-05
4.68534e-05
3.18118e-05
4.7422e-05
3.43601e-05
4.80376e-05
3.7123e-05
4.87038e-05
4.01053e-05
4.94247e-05
4.33241e-05
5.02068e-05
4.67622e-05
5.10549e-05
5.04604e-05
5.19731e-05
5.44973e-05
5.29663e-05
5.88503e-05
5.40453e-05
6.34529e-05
5.52143e-05
6.84536e-05
5.64784e-05
7.38952e-05
5.78486e-05
7.9655e-05
5.93328e-05
8.58694e-05
6.0935e-05
9.26476e-05
6.26725e-05
9.97527e-05
6.45485e-05
0.000107547
6.65772e-05
0.00011585
6.8771e-05
0.000124744
7.11403e-05
0.000134355
7.37033e-05
0.000144551
7.64703e-05
0.00015559
7.94616e-05
0.000167289
8.26897e-05
0.000179884
8.61743e-05
0.000193265
8.99314e-05
0.000207539
9.39796e-05
0.000222743
9.83402e-05
0.000238787
0.000103029
0.000255835
0.000108065
0.000273762
0.000113468
0.000292551
0.000119252
0.000312198
0.000125434
0.000332564
0.000132026
0.000353505
0.000139036
0.000374856
0.000146469
0.000396342
0.000154321
0.000417603
0.000162579
0.000438178
0.000171221
0.000457466
0.000180208
0.000474701
0.000189481
0.000488913
0.000198963
0.00049889
0.000208539
0.000503124
0.000218077
0.000499768
0.000227377
0.000486578
0.000236206
0.000460862
0.000244277
0.000419447
0.000251241
0.000358558
0.000256678
0.000274232
0.000260115
0.000163433
0.000260943
2.15272e-05
-0.00019759
0.000258254
4.30057e-05
1.6818e-05
-4.27321e-05
4.33019e-05
1.81841e-05
4.36222e-05
1.96578e-05
4.39684e-05
2.12494e-05
4.43433e-05
2.29685e-05
4.47484e-05
2.48241e-05
4.51873e-05
2.68257e-05
4.56623e-05
2.89834e-05
4.61777e-05
3.12964e-05
4.67361e-05
3.38018e-05
4.73403e-05
3.65189e-05
4.79948e-05
3.94516e-05
4.87025e-05
4.26165e-05
4.94708e-05
4.59949e-05
5.03034e-05
4.96278e-05
5.12054e-05
5.3596e-05
5.21807e-05
5.78746e-05
5.32409e-05
6.23929e-05
5.43897e-05
6.73042e-05
5.56329e-05
7.26517e-05
5.69811e-05
7.8306e-05
5.84423e-05
8.44076e-05
6.00204e-05
9.10685e-05
6.17326e-05
9.80399e-05
6.35816e-05
0.000105697
6.55811e-05
0.00011385
6.77433e-05
0.000122581
7.00779e-05
0.00013202
7.26026e-05
0.000142026
7.53272e-05
0.000152865
7.82716e-05
0.000164344
8.14482e-05
0.000176707
8.4875e-05
0.000189837
8.857e-05
0.000203843
9.25492e-05
0.000218763
9.68347e-05
0.0002345
0.000101442
0.000251227
0.000106389
0.000268813
0.000111696
0.000287243
0.000117377
0.000306515
0.000123448
0.000326491
0.000129921
0.000347029
0.000136804
0.000367969
0.000144101
0.000389041
0.000151809
0.000409891
0.000159917
0.000430066
0.000168399
0.000448978
0.000177219
0.000465874
0.000186321
0.000479804
0.000195626
0.000489578
0.000205023
0.000493715
0.000214384
0.000490402
0.00022351
0.000477434
0.000232175
0.000452167
0.000240096
0.000411484
0.000246931
0.000351667
0.000252265
0.000268822
0.00025563
0.000159958
0.000256413
2.05306e-05
-0.000195016
0.000253708
4.23756e-05
1.65476e-05
-4.21095e-05
4.26659e-05
1.78918e-05
4.29803e-05
1.93418e-05
4.33201e-05
2.09077e-05
4.36886e-05
2.2599e-05
4.40865e-05
2.44245e-05
4.45182e-05
2.63934e-05
4.49847e-05
2.85156e-05
4.54915e-05
3.07895e-05
4.60396e-05
3.32529e-05
4.66335e-05
3.59249e-05
4.72758e-05
3.88089e-05
4.79712e-05
4.19211e-05
4.87251e-05
4.52408e-05
4.95431e-05
4.88096e-05
5.04285e-05
5.27105e-05
5.13866e-05
5.69161e-05
5.24277e-05
6.13514e-05
5.35566e-05
6.61748e-05