/*--------------------------------*- C++ -*----------------------------------*\
  =========                 |
  \\      /  F ield         | OpenFOAM: The Open Source CFD Toolbox
   \\    /   O peration     | Website:  https://openfoam.org
    \\  /    A nd           | Version:  6.0
     \\/     M anipulation  |
\*---------------------------------------------------------------------------*/
FoamFile
{
    version     2.0;
    format      ascii;
    class       volVectorField;
    location    "14";
    object      U;
}
// * * * * * * * * * * * * * * * * * * * * * * * * * * * * * * * * * * * * * //

dimensions      [0 1 -1 0 0 0 0];

internalField   nonuniform List<vector> 
62000
(
(0.98466 -0.174395 -3.6642e-21)
(0.984668 -0.174392 3.04973e-21)
(0.984673 -0.17438 3.12934e-21)
(0.984678 -0.174359 -1.37172e-20)
(0.984681 -0.174331 -1.56593e-20)
(0.984685 -0.1743 5.41308e-20)
(0.984689 -0.174269 -5.94513e-20)
(0.984691 -0.174239 3.45398e-20)
(0.984693 -0.174212 -1.61238e-20)
(0.984692 -0.174188 -8.20724e-20)
(0.984689 -0.174168 -1.0119e-20)
(0.984685 -0.174151 1.14442e-19)
(0.984679 -0.174137 2.30653e-20)
(0.984672 -0.174123 -8.0753e-20)
(0.984664 -0.174111 1.25225e-19)
(0.984656 -0.1741 -6.63918e-20)
(0.984648 -0.174091 6.75393e-20)
(0.984639 -0.174082 -7.9331e-20)
(0.98463 -0.174076 3.84731e-20)
(0.98462 -0.174071 -1.17123e-19)
(0.98461 -0.174068 1.52009e-19)
(0.9846 -0.174067 4.31266e-20)
(0.984589 -0.174068 6.03372e-20)
(0.984577 -0.174071 -2.80389e-19)
(0.984566 -0.174076 1.01383e-19)
(0.984554 -0.174083 -6.00582e-20)
(0.984541 -0.174093 8.08766e-22)
(0.984529 -0.174104 -4.41675e-20)
(0.984517 -0.174118 1.4252e-19)
(0.984505 -0.174134 -7.29413e-20)
(0.984493 -0.174152 1.7151e-19)
(0.984482 -0.174171 -3.43258e-19)
(0.984473 -0.17419 3.49109e-20)
(0.984464 -0.174208 -9.83113e-20)
(0.984459 -0.174225 -2.38091e-20)
(0.984456 -0.17424 -9.24216e-20)
(0.984458 -0.174253 -6.96651e-21)
(0.984466 -0.174263 -8.985e-21)
(0.984479 -0.174267 7.14447e-20)
(0.984502 -0.174266 2.63261e-19)
(0.984535 -0.174257 -5.39773e-20)
(0.984581 -0.174238 -2.34495e-19)
(0.984642 -0.174208 -2.55638e-19)
(0.984722 -0.174162 7.70985e-20)
(0.984824 -0.174095 1.00937e-20)
(0.98495 -0.174003 6.76516e-20)
(0.985104 -0.173878 -3.20818e-20)
(0.985287 -0.17371 9.77367e-20)
(0.985502 -0.173488 6.35712e-19)
(0.985751 -0.173198 2.25725e-19)
(0.986035 -0.172816 1.42011e-19)
(0.986355 -0.172313 1.84302e-18)
(0.986712 -0.171636 -4.79799e-19)
(0.987091 -0.170727 -2.71315e-18)
(0.987481 -0.169475 -6.97393e-19)
(0.987856 -0.167745 -2.9325e-18)
(0.988154 -0.165133 2.58886e-19)
(0.989083 -0.160523 3.52188e-19)
(0.981992 -0.154289 -1.34084e-18)
(1.03447 -0.127589 -2.14691e-19)
(0.984554 -0.175677 -9.81729e-22)
(0.984563 -0.175686 9.38883e-21)
(0.984558 -0.175712 3.88533e-21)
(0.984551 -0.175725 -1.66944e-20)
(0.984546 -0.175722 6.93001e-21)
(0.984545 -0.175709 -4.7802e-20)
(0.984546 -0.175686 4.37769e-20)
(0.98455 -0.175653 2.52965e-20)
(0.984554 -0.175612 -4.72779e-20)
(0.984558 -0.175568 2.07777e-21)
(0.984559 -0.175527 4.56352e-20)
(0.984557 -0.175492 3.92243e-23)
(0.984553 -0.175463 1.29486e-20)
(0.984546 -0.17544 -1.11308e-19)
(0.984537 -0.175421 2.22399e-19)
(0.984526 -0.175404 -1.95877e-19)
(0.984515 -0.175389 9.12132e-20)
(0.984502 -0.175376 -1.92593e-20)
(0.984489 -0.175364 -5.13635e-20)
(0.984475 -0.175355 1.40557e-19)
(0.98446 -0.175348 -2.20225e-19)
(0.984445 -0.175342 1.26816e-19)
(0.984429 -0.175338 -1.58189e-19)
(0.984413 -0.175336 9.44075e-20)
(0.984397 -0.175336 8.42609e-20)
(0.984382 -0.175337 -5.55183e-20)
(0.984367 -0.175341 1.34504e-21)
(0.984353 -0.175345 6.10887e-20)
(0.98434 -0.17535 4.94e-20)
(0.98433 -0.175356 -9.12447e-20)
(0.984322 -0.175362 1.85467e-19)
(0.984318 -0.175368 3.18056e-20)
(0.984316 -0.17537 1.04926e-19)
(0.984318 -0.175366 -1.01801e-21)
(0.984326 -0.175357 2.26835e-20)
(0.984342 -0.175343 -3.67252e-20)
(0.984367 -0.175323 -8.14946e-20)
(0.984401 -0.175296 -4.9489e-20)
(0.984447 -0.175259 -1.94785e-19)
(0.984507 -0.175212 -1.71365e-19)
(0.984587 -0.175153 1.29388e-19)
(0.984688 -0.175079 4.83593e-20)
(0.984815 -0.174984 3.08028e-19)
(0.984973 -0.174864 1.57319e-20)
(0.985165 -0.174709 -1.1266e-19)
(0.985393 -0.174512 -4.2105e-20)
(0.98566 -0.174262 -1.34153e-19)
(0.985967 -0.173946 -1.89906e-19)
(0.986314 -0.173551 -1.01714e-19)
(0.986699 -0.17306 -2.41671e-20)
(0.987123 -0.172443 -7.14156e-19)
(0.987581 -0.171667 -2.29836e-18)
(0.988068 -0.170662 1.80696e-18)
(0.988539 -0.169364 4.80717e-18)
(0.988947 -0.167665 1.27338e-18)
(0.98923 -0.165541 1.14771e-18)
(0.989132 -0.162732 2.3474e-18)
(0.988996 -0.158665 1.32965e-18)
(0.986843 -0.156179 -2.41021e-18)
(0.987416 -0.170748 -5.86467e-19)
(0.984513 -0.176094 -4.76195e-21)
(0.98451 -0.176106 -6.63718e-22)
(0.984491 -0.176169 7.4584e-22)
(0.98447 -0.176221 3.35427e-21)
(0.984454 -0.176258 9.47258e-21)
(0.984442 -0.176287 -8.97253e-21)
(0.984434 -0.176309 4.77333e-20)
(0.984429 -0.176318 -2.27619e-20)
(0.984428 -0.176307 -1.22207e-20)
(0.98443 -0.176279 -7.47837e-20)
(0.984433 -0.176241 6.30198e-20)
(0.984434 -0.176204 4.60228e-21)
(0.984433 -0.176175 -1.4336e-20)
(0.984429 -0.176155 3.79104e-20)
(0.984423 -0.176145 -6.46185e-20)
(0.984417 -0.17614 5.57636e-22)
(0.984409 -0.176139 -2.9118e-20)
(0.984402 -0.17614 9.37413e-22)
(0.984394 -0.176144 6.72304e-20)
(0.984386 -0.176149 -1.01237e-19)
(0.984379 -0.176156 6.30003e-20)
(0.984371 -0.176164 2.39377e-19)
(0.984362 -0.176172 -3.46375e-20)
(0.984354 -0.176181 -3.27018e-19)
(0.984347 -0.17619 1.6749e-19)
(0.984339 -0.176198 -8.69753e-20)
(0.984333 -0.176207 1.41393e-19)
(0.984329 -0.176213 -8.72565e-20)
(0.984326 -0.176219 -1.62785e-19)
(0.984326 -0.176222 1.68537e-19)
(0.984329 -0.176224 -1.15574e-19)
(0.984336 -0.176222 1.4773e-19)
(0.984346 -0.176213 -3.9259e-19)
(0.98436 -0.176196 3.31607e-19)
(0.98438 -0.176172 -1.69008e-19)
(0.984408 -0.176141 7.00137e-20)
(0.984445 -0.176104 5.47235e-20)
(0.984492 -0.176059 9.29992e-21)
(0.984549 -0.176004 1.55581e-21)
(0.984619 -0.175938 2.21962e-19)
(0.984708 -0.175859 -5.89945e-20)
(0.984817 -0.175765 7.20541e-20)
(0.98495 -0.17565 -2.17646e-19)
(0.985111 -0.175508 -6.93874e-20)
(0.985301 -0.175331 -2.79294e-20)
(0.985521 -0.175112 -3.44157e-20)
(0.98577 -0.174843 -4.05248e-20)
(0.986046 -0.17452 2.61541e-19)
(0.986343 -0.174134 -5.40864e-19)
(0.986656 -0.173684 -1.99393e-19)
(0.98698 -0.173153 -6.30511e-20)
(0.987307 -0.172526 1.12442e-19)
(0.987626 -0.17176 -6.61917e-19)
(0.987895 -0.170815 -4.2548e-19)
(0.98806 -0.169619 1.51434e-18)
(0.988109 -0.168226 1.1318e-18)
(0.987759 -0.166495 5.80376e-19)
(0.987573 -0.163686 2.82453e-18)
(0.984491 -0.163369 1.82428e-20)
(0.997265 -0.168007 -3.03839e-19)
(0.984447 -0.176463 -4.72289e-21)
(0.984447 -0.176489 1.4391e-20)
(0.984428 -0.17657 -2.20988e-21)
(0.984403 -0.176634 -1.46768e-20)
(0.98438 -0.176681 2.2003e-20)
(0.984359 -0.176724 3.77091e-20)
(0.984338 -0.17677 -4.90719e-20)
(0.98432 -0.176812 5.28968e-21)
(0.984308 -0.176836 1.68054e-20)
(0.9843 -0.176833 3.47954e-20)
(0.984296 -0.176806 -6.42026e-20)
(0.984293 -0.176768 -1.96381e-20)
(0.984289 -0.176731 -2.17946e-20)
(0.984284 -0.176704 9.92842e-20)
(0.984276 -0.176691 -6.59038e-20)
(0.984267 -0.176689 1.5241e-19)
(0.984258 -0.176695 -1.83916e-19)
(0.98425 -0.176706 -2.61175e-20)
(0.984243 -0.176719 1.89868e-19)
(0.984238 -0.176735 -6.61843e-20)
(0.984233 -0.176753 -2.40503e-20)
(0.98423 -0.176772 -2.50733e-20)
(0.984228 -0.176792 -2.22564e-19)
(0.984228 -0.176812 1.30216e-19)
(0.984228 -0.176833 -5.46385e-20)
(0.984229 -0.176852 9.09594e-20)
(0.984232 -0.17687 4.14181e-20)
(0.984237 -0.176886 1.95555e-19)
(0.984244 -0.1769 -1.23819e-19)
(0.984254 -0.17691 -1.52876e-19)
(0.984267 -0.176917 2.3255e-19)
(0.984284 -0.17692 -1.88694e-19)
(0.984303 -0.176914 3.30347e-19)
(0.984326 -0.176899 -1.86814e-19)
(0.984355 -0.176876 8.79923e-20)
(0.984391 -0.176846 1.33799e-19)
(0.984437 -0.17681 -5.02092e-20)
(0.984492 -0.176763 4.39223e-20)
(0.984558 -0.176707 -3.85267e-20)
(0.984636 -0.176639 7.06325e-20)
(0.984732 -0.176557 -1.78466e-19)
(0.984849 -0.176456 3.70857e-20)
(0.98499 -0.176333 6.14629e-20)
(0.98516 -0.176179 1.37898e-19)
(0.98536 -0.175986 5.82951e-20)
(0.985593 -0.175747 -6.64962e-20)
(0.985855 -0.175452 -1.57388e-20)
(0.986146 -0.1751 -1.3112e-19)
(0.986456 -0.174683 -2.06719e-19)
(0.986781 -0.174204 2.38758e-19)
(0.98711 -0.173649 5.10347e-19)
(0.987434 -0.173008 -3.43633e-19)
(0.987738 -0.172248 -5.52231e-19)
(0.987983 -0.171325 -1.76396e-18)
(0.988114 -0.170165 -1.27055e-18)
(0.988169 -0.168792 -2.15723e-18)
(0.987938 -0.167026 -4.29601e-18)
(0.987866 -0.163893 4.9646e-19)
(0.98686 -0.161278 3.68341e-18)
(0.992453 -0.168627 1.56155e-18)
(0.984455 -0.176885 9.03671e-21)
(0.984465 -0.176918 -3.02799e-21)
(0.984439 -0.177003 4.97905e-21)
(0.984398 -0.177071 -7.03429e-21)
(0.984356 -0.177118 1.56176e-20)
(0.984313 -0.177158 -7.71122e-21)
(0.984269 -0.177209 4.09267e-21)
(0.984229 -0.177271 -6.07995e-20)
(0.984196 -0.177329 5.06485e-20)
(0.984171 -0.17736 -1.00442e-19)
(0.984154 -0.177359 1.09973e-19)
(0.984144 -0.177331 -1.32081e-20)
(0.984137 -0.177295 -2.89699e-20)
(0.984131 -0.177265 -1.31512e-20)
(0.984124 -0.177249 -2.75816e-21)
(0.984116 -0.177249 -1.31144e-19)
(0.984108 -0.177262 6.73363e-21)
(0.984101 -0.177282 1.41267e-19)
(0.984095 -0.177308 -4.50685e-20)
(0.984092 -0.177336 -4.65414e-20)
(0.98409 -0.177365 7.89967e-20)
(0.984091 -0.177395 -3.79261e-20)
(0.984094 -0.177425 1.58961e-19)
(0.9841 -0.177456 8.37711e-20)
(0.984108 -0.177485 6.10218e-20)
(0.984118 -0.177514 -1.993e-19)
(0.98413 -0.177541 -2.74925e-20)
(0.984145 -0.177565 -1.47643e-19)
(0.984163 -0.177586 2.87647e-20)
(0.984183 -0.177604 -4.46706e-20)
(0.984207 -0.177617 -1.71854e-20)
(0.984235 -0.177625 1.3488e-19)
(0.984266 -0.177624 -3.40748e-19)
(0.984299 -0.177613 -1.71583e-20)
(0.984338 -0.177593 -1.56638e-19)
(0.984385 -0.177566 -7.27849e-20)
(0.98444 -0.177531 5.43529e-21)
(0.984506 -0.177485 -2.0535e-19)
(0.984581 -0.177428 2.83299e-19)
(0.98467 -0.177358 5.8422e-20)
(0.984777 -0.177273 2.59291e-19)
(0.984905 -0.177168 -1.60085e-19)
(0.985061 -0.177038 -1.01605e-19)
(0.985247 -0.176873 -2.95089e-21)
(0.98547 -0.176665 7.76939e-20)
(0.985733 -0.176404 3.75946e-20)
(0.986036 -0.17608 4.74734e-20)
(0.98638 -0.175684 2.11085e-20)
(0.986758 -0.175206 1.6343e-19)
(0.987165 -0.174645 -5.72737e-19)
(0.987588 -0.17398 -1.90111e-19)
(0.988012 -0.173197 2.90497e-19)
(0.988413 -0.172262 1.9211e-20)
(0.988743 -0.171131 -1.2587e-18)
(0.98893 -0.169741 1.96739e-20)
(0.989012 -0.168127 1.72387e-18)
(0.988823 -0.166186 4.28834e-18)
(0.988544 -0.163059 -4.71207e-18)
(0.987493 -0.161675 3.78351e-18)
(0.991421 -0.173077 -1.73519e-18)
(0.98459 -0.177264 -3.40008e-21)
(0.984583 -0.177297 1.36413e-20)
(0.984516 -0.177389 -2.23407e-20)
(0.984431 -0.17747 1.65909e-20)
(0.984349 -0.177524 1.06928e-20)
(0.98427 -0.177565 -1.12965e-20)
(0.984191 -0.177617 9.37408e-22)
(0.984117 -0.177693 -8.39383e-21)
(0.984052 -0.177779 -2.8094e-20)
(0.983999 -0.177849 5.36441e-20)
(0.983959 -0.177884 -8.27816e-20)
(0.983932 -0.177881 7.21472e-20)
(0.983915 -0.177857 6.33042e-20)
(0.983906 -0.17783 -9.75107e-20)
(0.983903 -0.177815 -3.15511e-20)
(0.983903 -0.177818 1.18025e-19)
(0.983905 -0.177839 -1.41783e-19)
(0.98391 -0.177871 1.94078e-19)
(0.983916 -0.177911 -3.73118e-20)
(0.983926 -0.177955 1.97503e-20)
(0.983938 -0.178 -3.37457e-20)
(0.983952 -0.178044 -4.13932e-20)
(0.98397 -0.178089 -7.44521e-20)
(0.98399 -0.178131 1.26821e-19)
(0.984013 -0.178172 -8.6895e-20)
(0.984039 -0.178211 -8.17323e-20)
(0.984068 -0.178247 1.66965e-19)
(0.984099 -0.178279 -1.54803e-19)
(0.984134 -0.178306 2.41572e-19)
(0.984172 -0.178329 -1.29128e-19)
(0.984213 -0.178347 9.10696e-20)
(0.984258 -0.178357 -1.5263e-19)
(0.984306 -0.178358 1.54404e-19)
(0.984358 -0.178347 -1.96121e-20)
(0.984413 -0.178327 -9.72765e-21)
(0.984475 -0.178297 -6.79281e-21)
(0.984545 -0.178258 -7.58379e-20)
(0.984623 -0.178208 1.80704e-19)
(0.984711 -0.178145 -1.30023e-19)
(0.98481 -0.178069 -6.77462e-19)
(0.984925 -0.177978 -2.53713e-19)
(0.985058 -0.177868 1.47403e-19)
(0.985217 -0.177734 -1.69143e-19)
(0.985405 -0.177567 -1.15988e-19)
(0.985628 -0.17736 -6.41726e-21)
(0.985893 -0.177102 1.9034e-19)
(0.986203 -0.176781 -1.45772e-19)
(0.98656 -0.176387 -6.17659e-21)
(0.986961 -0.175907 1.59756e-19)
(0.987402 -0.175331 3.23463e-19)
(0.987867 -0.174639 -1.83278e-19)
(0.988338 -0.173811 1.85237e-19)
(0.988779 -0.17282 1.6226e-18)
(0.989133 -0.171634 -2.1641e-19)
(0.989304 -0.170225 -7.37848e-19)
(0.989315 -0.168686 1.31164e-18)
(0.989041 -0.167056 -1.37192e-18)
(0.988475 -0.164627 -1.05079e-18)
(0.987149 -0.165144 -6.16434e-18)
(0.991487 -0.176347 4.35471e-20)
(0.984723 -0.177718 3.97884e-21)
(0.984661 -0.177757 -1.78337e-20)
(0.984531 -0.17786 8.66063e-21)
(0.984396 -0.177962 1.60334e-20)
(0.98428 -0.178036 -3.42316e-20)
(0.984173 -0.178086 2.85623e-20)
(0.984069 -0.178143 -1.89561e-20)
(0.983968 -0.178227 1.60023e-20)
(0.983875 -0.178334 2.53873e-20)
(0.983795 -0.178435 -6.07765e-20)
(0.983728 -0.178504 8.73516e-20)
(0.983676 -0.17853 3.69124e-20)
(0.983638 -0.178522 -1.4647e-19)
(0.983613 -0.178499 -2.73068e-20)
(0.983601 -0.17848 7.71905e-20)
(0.9836 -0.178478 4.93247e-20)
(0.983608 -0.178495 -5.96123e-20)
(0.983624 -0.178529 5.16814e-20)
(0.983646 -0.178574 7.89467e-20)
(0.983674 -0.178625 -3.89088e-20)
(0.983707 -0.17868 -2.20465e-20)
(0.983744 -0.178735 7.60727e-20)
(0.983784 -0.17879 1.53301e-19)
(0.983828 -0.178842 -1.13042e-19)
(0.983875 -0.178892 -1.20831e-19)
(0.983925 -0.178939 1.30681e-19)
(0.983978 -0.178983 -1.0062e-19)
(0.984034 -0.179021 -3.79503e-20)
(0.984093 -0.179054 3.20105e-19)
(0.984155 -0.17908 -1.38418e-19)
(0.984221 -0.1791 -9.81328e-20)
(0.98429 -0.179111 1.3299e-19)
(0.984362 -0.179111 8.75676e-20)
(0.984438 -0.179098 -7.78243e-20)
(0.984516 -0.179073 -4.98059e-20)
(0.9846 -0.179038 1.47141e-19)
(0.984691 -0.178992 2.38029e-20)
(0.984787 -0.178933 4.88147e-20)
(0.98489 -0.17886 -2.23242e-19)
(0.985001 -0.178775 -2.07567e-19)
(0.985123 -0.178676 3.57858e-19)
(0.985258 -0.178561 2.45311e-19)
(0.98541 -0.178425 3.38881e-19)
(0.985585 -0.178264 -3.10573e-19)
(0.985787 -0.178072 -2.93269e-19)
(0.986023 -0.177841 -1.10078e-19)
(0.986297 -0.177558 2.00544e-19)
(0.986615 -0.177217 1.36901e-19)
(0.986974 -0.176801 -1.28569e-20)
(0.987374 -0.176301 6.87744e-21)
(0.9878 -0.175694 2.07541e-19)
(0.988231 -0.174962 -3.10276e-20)
(0.98863 -0.174082 -9.60456e-20)
(0.988934 -0.173036 6.40127e-19)
(0.989043 -0.171823 -5.41015e-19)
(0.988981 -0.17057 -4.90332e-19)
(0.988684 -0.169373 -8.21315e-19)
(0.988068 -0.167513 3.37845e-18)
(0.986808 -0.168478 3.63184e-19)
(0.992575 -0.178171 -9.50445e-20)
(0.984669 -0.178438 -6.66587e-21)
(0.98454 -0.178493 -5.28416e-21)
(0.984363 -0.178606 7.16469e-21)
(0.984206 -0.178727 2.51658e-20)
(0.984083 -0.178822 -5.39568e-20)
(0.98398 -0.178886 6.1461e-20)
(0.98388 -0.178946 -2.74286e-21)
(0.983783 -0.179032 -3.79279e-21)
(0.983689 -0.179148 -2.16424e-20)
(0.983603 -0.179268 5.22669e-20)
(0.983525 -0.179363 -8.02158e-20)
(0.983457 -0.179413 3.0111e-20)
(0.983399 -0.179419 -1.00309e-21)
(0.983352 -0.179399 4.68832e-20)
(0.983319 -0.179372 2.2208e-20)
(0.9833 -0.179355 -1.17688e-19)
(0.983295 -0.179355 1.01626e-19)
(0.983304 -0.179373 3.94679e-20)
(0.983327 -0.179405 -1.12991e-19)
(0.983361 -0.179446 5.51717e-20)
(0.983406 -0.179493 2.49668e-20)
(0.983458 -0.179543 -1.69775e-20)
(0.983518 -0.179594 1.97894e-20)
(0.983583 -0.179644 -1.21944e-20)
(0.983652 -0.179694 -1.3354e-19)
(0.983726 -0.179741 8.5637e-20)
(0.983804 -0.179784 -1.27645e-19)
(0.983884 -0.179823 2.32899e-19)
(0.983968 -0.179856 -4.46718e-20)
(0.984056 -0.179882 -2.62318e-20)
(0.984147 -0.179901 -7.91735e-21)
(0.984241 -0.179911 2.15245e-19)
(0.984339 -0.179909 -9.13092e-20)
(0.98444 -0.179892 -5.64622e-20)
(0.984545 -0.179863 1.24856e-19)
(0.984654 -0.179821 1.00654e-19)
(0.984768 -0.179767 -1.6504e-19)
(0.984886 -0.179698 3.01585e-20)
(0.98501 -0.179615 2.74143e-19)
(0.985138 -0.179519 -4.12671e-20)
(0.985272 -0.17941 1.62319e-19)
(0.985414 -0.179288 -1.96372e-19)
(0.985566 -0.17915 2.94894e-19)
(0.985731 -0.178995 5.08521e-19)
(0.985913 -0.178819 8.73874e-20)
(0.986119 -0.178618 -1.55668e-19)
(0.986351 -0.178383 -3.59036e-19)
(0.986618 -0.178107 1.20676e-19)
(0.986917 -0.177776 4.46283e-21)
(0.987253 -0.177381 -1.62289e-19)
(0.987611 -0.176897 1.20151e-19)
(0.987977 -0.176305 1.63445e-19)
(0.988316 -0.175584 -2.51844e-19)
(0.988573 -0.174713 2.53358e-19)
(0.988653 -0.173696 -5.24449e-19)
(0.988597 -0.172649 -2.5097e-19)
(0.988414 -0.171637 -1.27624e-18)
(0.987961 -0.169842 -2.5088e-18)
(0.986931 -0.170385 -7.48172e-19)
(0.993994 -0.178808 -6.92794e-19)
(0.98434 -0.179522 -3.20938e-21)
(0.984174 -0.179588 2.74456e-21)
(0.983995 -0.179699 1.36938e-20)
(0.983854 -0.179829 2.15282e-20)
(0.983761 -0.179937 -6.33733e-20)
(0.983693 -0.18001 3.62662e-20)
(0.98363 -0.180071 -6.45815e-20)
(0.983567 -0.180152 1.00521e-19)
(0.983504 -0.180264 -4.68542e-20)
(0.983443 -0.180389 8.22401e-21)
(0.983383 -0.180496 8.95137e-20)
(0.983325 -0.180562 -2.02771e-19)
(0.983267 -0.18058 1.3764e-19)
(0.983212 -0.180563 1.94081e-20)
(0.983161 -0.180529 3.11847e-20)
(0.98312 -0.180494 -1.29704e-19)
(0.98309 -0.180472 6.34224e-20)
(0.983076 -0.180464 -7.79494e-20)
(0.983079 -0.180469 1.52574e-19)
(0.983098 -0.180485 -2.08397e-20)
(0.983132 -0.180509 -1.89776e-19)
(0.983181 -0.180536 7.45085e-20)
(0.983242 -0.180568 -4.42401e-21)
(0.983313 -0.1806 -2.64376e-19)
(0.983392 -0.180634 1.9769e-19)
(0.983478 -0.180667 1.44966e-19)
(0.98357 -0.180699 9.53638e-20)
(0.983666 -0.180728 -1.2204e-19)
(0.983768 -0.180753 -1.2856e-19)
(0.983873 -0.180773 5.89879e-20)
(0.983983 -0.180786 8.63799e-20)
(0.984097 -0.180791 -1.00141e-19)
(0.984215 -0.180783 -1.43255e-19)
(0.984337 -0.180762 2.98788e-19)
(0.984464 -0.180727 2.61218e-20)
(0.984596 -0.18068 -4.06927e-19)
(0.984733 -0.180618 3.27445e-20)
(0.984874 -0.180541 2.51082e-19)
(0.98502 -0.180448 2.82767e-20)
(0.985171 -0.180342 2.91425e-19)
(0.985326 -0.180224 -3.49119e-19)
(0.985486 -0.180093 -1.87078e-20)
(0.985652 -0.17995 -1.85922e-19)
(0.985826 -0.179795 8.83394e-20)
(0.98601 -0.179627 2.39553e-19)
(0.98621 -0.179443 6.88947e-19)
(0.986428 -0.179238 3.19754e-20)
(0.986671 -0.179006 -2.64708e-19)
(0.986939 -0.178734 1.78628e-19)
(0.98724 -0.178413 3.67387e-19)
(0.987563 -0.178014 -1.49764e-19)
(0.987896 -0.177515 -1.99047e-20)
(0.988214 -0.176889 1.83842e-19)
(0.98847 -0.176105 7.76406e-20)
(0.988582 -0.175154 1.10648e-18)
(0.988609 -0.17412 8.54164e-20)
(0.98861 -0.17302 7.36289e-19)
(0.988362 -0.170981 1.2321e-18)
(0.987512 -0.170983 -1.74865e-18)
(0.995382 -0.178887 -2.4465e-19)
(0.983797 -0.180935 4.4171e-21)
(0.983647 -0.181003 1.53547e-21)
(0.983509 -0.181099 -1.58367e-20)
(0.983418 -0.181223 1.50077e-20)
(0.983376 -0.181333 -6.61042e-21)
(0.983361 -0.181408 1.17557e-20)
(0.983353 -0.181465 4.0112e-21)
(0.983342 -0.181535 -5.80969e-20)
(0.983328 -0.181636 2.5105e-20)
(0.983311 -0.181755 -1.69509e-20)
(0.983293 -0.181862 1.02393e-20)
(0.98327 -0.181933 3.95642e-20)
(0.98324 -0.181959 -7.3661e-21)
(0.983202 -0.181945 2.40296e-20)
(0.983157 -0.181906 -1.01158e-19)
(0.983109 -0.18186 3.8809e-20)
(0.983062 -0.181817 1.70037e-20)
(0.983024 -0.181784 -4.59684e-20)
(0.982998 -0.181761 9.05407e-20)
(0.982988 -0.181746 2.91748e-20)
(0.982996 -0.181738 -3.54323e-21)
(0.983022 -0.181733 -3.16053e-20)
(0.983063 -0.181733 1.24022e-19)
(0.98312 -0.181736 -3.36572e-19)
(0.98319 -0.181741 1.74481e-19)
(0.983271 -0.181749 7.20849e-20)
(0.983361 -0.181758 -1.17538e-19)
(0.983459 -0.181767 2.04357e-19)
(0.983564 -0.181774 -9.9656e-20)
(0.983676 -0.181778 -4.96019e-20)
(0.983793 -0.181778 -9.01697e-20)
(0.983916 -0.181773 -3.5462e-20)
(0.984045 -0.181757 1.00495e-19)
(0.98418 -0.181728 -2.87995e-19)
(0.984321 -0.181687 5.34558e-19)
(0.98447 -0.181633 -4.11156e-20)
(0.984625 -0.181566 2.44805e-19)
(0.984787 -0.181482 -6.15958e-19)
(0.984956 -0.181381 -1.72437e-19)
(0.985131 -0.181267 1.76412e-20)
(0.985313 -0.18114 -1.24037e-19)
(0.985501 -0.181 -1.26027e-20)
(0.985697 -0.180848 -3.7494e-19)
(0.9859 -0.180686 1.45634e-19)
(0.986113 -0.180512 1.52355e-19)
(0.986338 -0.180327 -6.61662e-19)
(0.986579 -0.180126 7.69649e-19)
(0.986842 -0.179904 8.79338e-20)
(0.987127 -0.179646 5.20078e-20)
(0.987443 -0.179341 -3.50167e-19)
(0.987781 -0.178959 4.39998e-20)
(0.988134 -0.178471 -3.09846e-20)
(0.988482 -0.177843 -1.02126e-19)
(0.988787 -0.177031 -9.92466e-20)
(0.988974 -0.176011 5.98956e-19)
(0.989112 -0.174845 -3.74006e-19)
(0.989283 -0.173524 1.61525e-18)
(0.98917 -0.171199 5.78735e-19)
(0.988385 -0.170877 6.49206e-18)
(0.996593 -0.17884 8.69587e-19)
(0.983184 -0.182562 -9.63511e-22)
(0.983094 -0.182618 -3.76664e-21)
(0.983022 -0.182691 -3.25733e-21)
(0.982991 -0.182796 3.12646e-20)
(0.983006 -0.182898 -1.72522e-20)
(0.983045 -0.182968 -2.05808e-20)
(0.983089 -0.183018 -7.68437e-21)
(0.983131 -0.183077 -3.13658e-20)
(0.983168 -0.183164 1.95245e-20)
(0.983201 -0.18327 2.81764e-21)
(0.983232 -0.18337 9.81448e-22)
(0.983257 -0.183439 8.17508e-20)
(0.983272 -0.183466 -5.76886e-20)
(0.983274 -0.183454 -7.13701e-21)
(0.983261 -0.183415 6.57284e-20)
(0.983232 -0.183363 -3.60327e-20)
(0.983192 -0.183309 -1.37862e-20)
(0.983147 -0.183259 2.22528e-20)
(0.983105 -0.183215 7.09626e-20)
(0.98307 -0.183174 3.84863e-20)
(0.983048 -0.183137 1.34916e-20)
(0.983043 -0.183101 -9.63651e-20)
(0.983054 -0.183068 4.78e-20)
(0.983084 -0.183037 9.0351e-20)
(0.98313 -0.183009 -1.87639e-19)
(0.98319 -0.182984 5.88515e-20)
(0.983264 -0.182963 -2.31191e-19)
(0.983349 -0.182943 1.85428e-19)
(0.983444 -0.182925 1.56857e-19)
(0.983549 -0.182907 -2.41113e-19)
(0.983663 -0.182888 -1.12599e-19)
(0.983784 -0.182866 1.4458e-19)
(0.983914 -0.182836 4.80666e-20)
(0.984053 -0.182797 -1.22434e-19)
(0.9842 -0.182748 -1.53377e-19)
(0.984358 -0.182686 -1.77476e-19)
(0.984526 -0.182612 1.12754e-19)
(0.984704 -0.182522 2.50764e-19)
(0.984892 -0.182415 9.11327e-20)
(0.985091 -0.182294 -6.0427e-20)
(0.985302 -0.182159 7.14819e-19)
(0.985524 -0.18201 -9.34007e-20)
(0.985759 -0.181847 6.31798e-19)
(0.986006 -0.181671 -1.03884e-18)
(0.986267 -0.181483 1.79208e-19)
(0.986544 -0.18128 2.44658e-20)
(0.986839 -0.181059 -8.3863e-21)
(0.987158 -0.180813 -4.80508e-19)
(0.9875 -0.180527 -6.19535e-19)
(0.987874 -0.180187 4.17476e-19)
(0.988272 -0.179758 3.56091e-19)
(0.988688 -0.179208 6.67237e-20)
(0.989104 -0.178497 8.4165e-20)
(0.989485 -0.177572 -2.09095e-19)
(0.98976 -0.176402 -8.83256e-19)
(0.989995 -0.175042 -7.15254e-19)
(0.990283 -0.173492 -1.57656e-18)
(0.990211 -0.170967 -1.28565e-18)
(0.989397 -0.170541 -6.40019e-18)
(0.997638 -0.17887 2.68232e-18)
(0.982634 -0.184266 1.22097e-21)
(0.982623 -0.184307 -3.64669e-21)
(0.982616 -0.184353 1.29475e-20)
(0.982638 -0.184436 3.35345e-21)
(0.982699 -0.184522 -1.75859e-20)
(0.982782 -0.184583 -2.0118e-20)
(0.982868 -0.184624 4.73357e-20)
(0.98295 -0.184672 -5.13247e-20)
(0.983028 -0.184746 -1.24801e-20)
(0.983104 -0.18484 3.12277e-20)
(0.983178 -0.184931 2.8664e-20)
(0.98325 -0.184994 8.65704e-20)
(0.983314 -0.18502 -4.84182e-20)
(0.983366 -0.18501 -8.27257e-20)
(0.983401 -0.184973 1.80719e-20)
(0.983414 -0.184921 -6.69325e-20)
(0.983406 -0.184864 4.9917e-20)
(0.983381 -0.184808 -8.33713e-20)
(0.983346 -0.184753 1.36456e-20)
(0.983305 -0.184698 -2.64364e-20)
(0.983268 -0.184642 -1.61979e-20)
(0.98324 -0.184583 -7.20158e-20)
(0.983225 -0.184524 7.55531e-21)
(0.983225 -0.184463 1.54523e-19)
(0.983242 -0.184404 -5.15381e-20)
(0.983275 -0.184347 1.64709e-20)
(0.983324 -0.184294 4.66453e-20)
(0.983387 -0.184244 -5.94431e-20)
(0.983464 -0.184197 -1.16828e-20)
(0.983553 -0.184152 8.06868e-20)
(0.983654 -0.184109 8.74407e-20)
(0.983767 -0.184066 -6.40784e-20)
(0.98389 -0.184019 -2.00088e-19)
(0.984025 -0.183965 -2.76679e-19)
(0.984172 -0.183905 4.17074e-19)
(0.984333 -0.183834 1.12806e-19)
(0.984508 -0.183751 7.46803e-20)
(0.984697 -0.183655 3.31814e-19)
(0.984902 -0.183542 -2.84805e-19)
(0.985123 -0.183414 1.74063e-19)
(0.985362 -0.183272 9.70199e-21)
(0.98562 -0.183113 1.62999e-21)
(0.985897 -0.182937 -2.36855e-19)
(0.986194 -0.182745 5.10445e-19)
(0.986513 -0.182534 -6.07109e-19)
(0.986855 -0.182303 3.11842e-19)
(0.987221 -0.182045 -7.79976e-19)
(0.987617 -0.181753 1.8274e-19)
(0.988041 -0.18141 3.38899e-19)
(0.988499 -0.180997 -4.1911e-19)
(0.988981 -0.18048 -1.01895e-19)
(0.989482 -0.179822 -5.43165e-20)
(0.989983 -0.178981 7.59708e-20)
(0.990447 -0.1779 2.95291e-19)
(0.990801 -0.176552 -1.99256e-21)
(0.991103 -0.175 -9.04033e-19)
(0.991448 -0.173268 1.13598e-18)
(0.991348 -0.170645 4.46079e-19)
(0.99045 -0.17027 8.30311e-19)
(0.998554 -0.179048 -2.01994e-18)
(0.982219 -0.185936 2.22194e-21)
(0.982282 -0.185957 -1.86665e-21)
(0.982323 -0.185982 1.70149e-21)
(0.982379 -0.186043 1.08486e-20)
(0.98247 -0.186112 1.56751e-20)
(0.982579 -0.186163 -6.0819e-20)
(0.982691 -0.186196 4.372e-20)
(0.9828 -0.186237 9.02412e-21)
(0.982906 -0.186302 -2.7371e-21)
(0.983012 -0.186387 -1.92845e-20)
(0.983119 -0.186469 5.86064e-20)
(0.983227 -0.186528 -1.90084e-20)
(0.983333 -0.186551 -2.6095e-20)
(0.983432 -0.186541 -7.73297e-20)
(0.983517 -0.186506 1.54077e-19)
(0.983583 -0.186458 -3.18047e-20)
(0.983625 -0.186405 -2.66249e-20)
(0.983642 -0.186352 -7.78705e-20)
(0.983639 -0.186298 8.55021e-20)
(0.983619 -0.18624 4.68849e-20)
(0.983589 -0.186179 -2.10905e-20)
(0.983558 -0.18611 3.64111e-20)
(0.98353 -0.186037 -1.53624e-19)
(0.983512 -0.185958 1.094e-20)
(0.983506 -0.185877 8.38541e-20)
(0.983515 -0.185796 -1.57726e-20)
(0.98354 -0.185716 -2.47724e-19)
(0.98358 -0.185638 2.45811e-20)
(0.983636 -0.185564 2.15921e-19)
(0.983707 -0.185493 -5.55652e-20)
(0.983792 -0.185425 -1.07723e-19)
(0.983891 -0.18536 5.9561e-20)
(0.984005 -0.185293 1.76699e-19)
(0.984133 -0.185222 4.06251e-19)
(0.984276 -0.185148 -6.26334e-20)
(0.984437 -0.185065 7.49589e-20)
(0.984616 -0.184973 -5.86369e-19)
(0.984814 -0.184869 -1.58593e-19)
(0.985033 -0.184748 9.74417e-20)
(0.985273 -0.184612 -3.90058e-19)
(0.985538 -0.184462 -7.55161e-20)
(0.985829 -0.184293 1.656e-19)
(0.986148 -0.184103 1.34896e-19)
(0.986495 -0.183892 3.18837e-19)
(0.986873 -0.183655 9.17822e-19)
(0.987283 -0.183389 -6.30203e-19)
(0.987726 -0.183086 8.66553e-19)
(0.988205 -0.182735 5.39748e-19)
(0.988717 -0.182318 7.40291e-21)
(0.989267 -0.181815 3.58664e-19)
(0.989841 -0.181188 -2.6924e-19)
(0.990432 -0.1804 1.46965e-20)
(0.991017 -0.179411 -2.85755e-19)
(0.991556 -0.178165 -5.14172e-19)
(0.99197 -0.176643 3.79733e-19)
(0.992309 -0.174926 2.71928e-18)
(0.992669 -0.173068 -8.63105e-19)
(0.992503 -0.170413 1.42285e-18)
(0.991501 -0.170152 3.28979e-18)
(0.999406 -0.179355 -1.65286e-18)
(0.981953 -0.187495 -2.33839e-21)
(0.98207 -0.187505 2.5487e-21)
(0.982136 -0.187516 1.72768e-20)
(0.982208 -0.187561 -2.24366e-20)
(0.982312 -0.187618 4.05015e-20)
(0.982432 -0.187661 -5.91382e-20)
(0.982556 -0.187689 1.66304e-20)
(0.982677 -0.187725 -7.89688e-22)
(0.982798 -0.187785 3.62915e-20)
(0.982921 -0.187864 -1.89869e-20)
(0.983049 -0.187942 5.50083e-21)
(0.983182 -0.187996 5.65947e-21)
(0.983317 -0.188018 -8.77581e-20)
(0.983453 -0.188008 2.61505e-20)
(0.983582 -0.187976 6.0013e-20)
(0.983697 -0.187932 1.76276e-21)
(0.983792 -0.187886 -9.87704e-20)
(0.983863 -0.18784 3.97423e-20)
(0.983909 -0.187793 1.84501e-19)
(0.98393 -0.187743 -1.19702e-19)
(0.983932 -0.187687 -8.92579e-20)
(0.98392 -0.187622 7.54911e-20)
(0.983902 -0.187547 4.67633e-20)
(0.983884 -0.187464 5.17433e-20)
(0.983871 -0.187373 -1.0001e-19)
(0.983867 -0.187279 -2.1136e-19)
(0.983876 -0.187182 1.6062e-19)
(0.983899 -0.187086 2.23205e-19)
(0.983938 -0.186991 5.57781e-20)
(0.983992 -0.186899 -1.15794e-19)
(0.984063 -0.18681 5.2224e-20)
(0.98415 -0.186724 8.19952e-20)
(0.984254 -0.186638 -1.48569e-19)
(0.984375 -0.18655 -2.9807e-20)
(0.984516 -0.186461 -2.52209e-19)
(0.984676 -0.186366 -6.60601e-20)
(0.984859 -0.186263 -5.27079e-20)
(0.985064 -0.186148 1.60563e-19)
(0.985295 -0.186019 -2.16006e-19)
(0.985554 -0.185875 5.82883e-20)
(0.985843 -0.185715 9.26182e-20)
(0.986165 -0.185534 2.10156e-20)
(0.986523 -0.18533 -4.99147e-19)
(0.986917 -0.185097 -6.2962e-19)
(0.987351 -0.184832 -4.98233e-19)
(0.987825 -0.184529 8.71256e-19)
(0.988341 -0.184176 -1.36315e-20)
(0.988899 -0.183762 -2.55169e-19)
(0.989496 -0.183265 9.35577e-20)
(0.990133 -0.182664 -3.75108e-19)
(0.990794 -0.181922 7.83728e-20)
(0.991468 -0.181001 -1.3472e-19)
(0.992127 -0.179864 -2.31957e-20)
(0.992727 -0.178463 8.21566e-19)
(0.993182 -0.176786 -5.38765e-19)
(0.993537 -0.174937 -7.10629e-19)
(0.993887 -0.172994 -1.28732e-18)
(0.99364 -0.170337 -4.06951e-18)
(0.992528 -0.170217 -6.04067e-18)
(1.00022 -0.179757 3.7597e-18)
(0.981813 -0.188915 -1.93228e-21)
(0.981959 -0.188916 2.77774e-21)
(0.98203 -0.18892 5.73614e-22)
(0.982103 -0.188955 1.04268e-20)
(0.982207 -0.189003 -1.57238e-20)
(0.982328 -0.18904 -3.19719e-20)
(0.982452 -0.189067 1.13844e-20)
(0.982576 -0.189101 -1.49227e-20)
(0.982701 -0.18916 3.2328e-20)
(0.982832 -0.189237 -6.44161e-21)
(0.982971 -0.189313 -2.09082e-20)
(0.983117 -0.189366 1.72731e-20)
(0.98327 -0.189387 2.76575e-20)
(0.983429 -0.189378 7.54423e-20)
(0.983589 -0.189348 -1.35964e-19)
(0.983743 -0.189309 6.88625e-20)
(0.983885 -0.189269 1.03995e-20)
(0.984008 -0.189233 -6.66042e-20)
(0.984108 -0.189198 -4.08314e-20)
(0.984182 -0.189162 1.33056e-19)
(0.98423 -0.18912 -1.37485e-19)
(0.984258 -0.189067 4.12041e-20)
(0.98427 -0.189003 -1.07736e-19)
(0.984271 -0.188928 1.7741e-19)
(0.98427 -0.188841 -3.54599e-20)
(0.98427 -0.188747 -9.6764e-20)
(0.984277 -0.188646 7.82337e-20)
(0.984294 -0.188542 1.42916e-19)
(0.984325 -0.188437 -1.33707e-19)
(0.984371 -0.188332 8.12595e-20)
(0.984433 -0.188228 -2.62098e-19)
(0.984513 -0.188127 -2.62684e-20)
(0.984611 -0.188027 1.10788e-19)
(0.984729 -0.187925 -6.3823e-20)
(0.984868 -0.187822 -1.23966e-19)
(0.985031 -0.187715 -2.86798e-19)
(0.985219 -0.187601 3.63659e-19)
(0.985433 -0.187477 -1.3645e-19)
(0.985678 -0.187337 1.06762e-19)
(0.985954 -0.187183 2.03355e-19)
(0.986267 -0.187013 1.50701e-19)
(0.986618 -0.186819 -7.91255e-20)
(0.987011 -0.186598 2.78305e-19)
(0.987449 -0.186344 4.80437e-19)