/*--------------------------------*- C++ -*----------------------------------*\
  =========                 |
  \\      /  F ield         | OpenFOAM: The Open Source CFD Toolbox
   \\    /   O peration     | Website:  https://openfoam.org
    \\  /    A nd           | Version:  6.0
     \\/     M anipulation  |
\*---------------------------------------------------------------------------*/
FoamFile
{
    version     2.0;
    format      ascii;
    class       volVectorField;
    location    "2.67";
    object      U;
}
// * * * * * * * * * * * * * * * * * * * * * * * * * * * * * * * * * * * * * //

dimensions      [0 1 -1 0 0 0 0];

internalField   nonuniform List<vector> 
13500
(
(1 1.8562e-06 -4.2437e-18)
(1 -2.9393e-06 2.8711e-18)
(1 -6.3331e-06 -1.2353e-17)
(1 -9.6081e-06 -8.5392e-18)
(1 -9.3409e-06 1.6082e-17)
(1 -8.6886e-06 2.9894e-17)
(1 3.2041e-07 2.566e-17)
(0.99998 1.3639e-05 -4.1398e-18)
(0.99991 4.1588e-05 1.5182e-17)
(0.99981 7.3162e-05 3.2609e-18)
(0.99572 0.00075601 2.8491e-17)
(1.019 0.010842 7.7382e-18)
(1 5.5941e-06 2.6291e-18)
(1 -7.9486e-06 -8.7194e-18)
(1 -1.7641e-05 5.8993e-18)
(1 -2.6595e-05 -3.3676e-19)
(1 -2.5314e-05 -4.2887e-19)
(1 -2.3177e-05 -3.5945e-17)
(0.99999 5.1681e-06 -4.432e-17)
(0.99994 4.3057e-05 -2.3687e-17)
(0.99972 0.00013719 -1.5152e-17)
(0.99985 0.00017828 -1.6127e-18)
(0.98617 0.0021911 -1.3492e-17)
(1.0534 0.030643 -4.6853e-18)
(1 9.3238e-06 -3.3958e-18)
(1 -1.309e-05 1.7324e-17)
(1 -2.905e-05 3.0684e-18)
(1 -4.3952e-05 9.8455e-18)
(1 -4.1459e-05 -3.7085e-18)
(1 -3.8219e-05 2.8793e-17)
(0.99999 1.0276e-05 -6.2386e-18)
(0.99991 7.1573e-05 5.3806e-18)
(0.9995 0.00024155 -1.8381e-17)
(1.0004 0.00029829 2.4499e-17)
(0.97596 0.0032768 -7.0539e-18)
(1.0819 0.045176 1.643e-18)
(1 1.3038e-05 8.8773e-18)
(1 -1.8457e-05 -1.6795e-17)
(1 -4.0782e-05 -1.4545e-17)
(1 -6.1868e-05 -6.9077e-19)
(1 -5.8126e-05 5.7249e-18)
(1 -5.393e-05 -7.9918e-19)
(0.99999 1.5119e-05 6.1468e-17)
(0.99988 9.8928e-05 9.6941e-18)
(0.99925 0.00035335 2.1736e-17)
(1.0013 0.00043797 -8.8739e-18)
(0.96549 0.0040391 3.4347e-17)
(1.1031 0.055717 -7.4788e-18)
(1 1.6744e-05 -6.2376e-18)
(1 -2.3849e-05 1.4516e-17)
(1 -5.2591e-05 1.2382e-17)
(1 -7.984e-05 1.2601e-17)
(1.0001 -7.4921e-05 2.8071e-18)
(1.0001 -6.9687e-05 2.1163e-17)
(0.99999 1.9984e-05 -2.7449e-17)
(0.99987 0.00012533 1.969e-18)
(0.99895 0.00047125 -1.3327e-17)
(1.0027 0.00059957 -2.1173e-18)
(0.95515 0.0045281 -8.909e-18)
(1.1171 0.063401 2.0737e-18)
(1 2.0441e-05 6.3125e-18)
(1 -2.9266e-05 -6.0177e-18)
(1 -6.4476e-05 3.7815e-18)
(1 -9.7869e-05 -2.4961e-17)
(1.0001 -9.1847e-05 -8.2186e-20)
(1.0001 -8.5504e-05 -4.1895e-17)
(1 2.4859e-05 1.0533e-18)
(0.99986 0.00015062 -1.5805e-17)
(0.99859 0.00059379 5.075e-18)
(1.0044 0.00078986 -2.1336e-17)
(0.94528 0.0047865 -2.1445e-17)
(1.1244 0.068841 2.0043e-18)
(0.99999 2.4128e-05 -1.0449e-18)
(1 -3.4712e-05 -7.1972e-18)
(1 -7.6437e-05 -3.0732e-18)
(1.0001 -0.00011597 1.884e-17)
(1.0001 -0.0001089 -2.6e-17)
(1.0001 -0.0001014 1.603e-17)
(1 2.9774e-05 1.8359e-17)
(0.99987 0.00017473 5.5607e-18)
(0.99816 0.00071956 1.1345e-17)
(1.0065 0.0010154 1.1486e-17)
(0.93619 0.0048523 9.2381e-18)
(1.1261 0.072463 3.2175e-18)
(0.99999 2.7807e-05 -2.1568e-18)
(1 -4.0188e-05 -1.4158e-18)
(1 -8.8477e-05 -2.6475e-17)
(1.0001 -0.00013414 -8.9964e-18)
(1.0001 -0.0001261 7.2772e-18)
(1.0001 -0.0001174 2.627e-17)
(1 3.4734e-05 1.1685e-17)
(0.99989 0.0001976 4.9642e-18)
(0.99766 0.00084708 -7.4152e-18)
(1.0089 0.0012801 1.6089e-17)
(0.92808 0.004762 7.4601e-18)
(1.1231 0.074629 -1.0231e-17)
(0.99999 3.1475e-05 -6.6953e-18)
(1 -4.5697e-05 6.087e-18)
(1 -0.0001006 4.4515e-17)
(1.0001 -0.00015239 -1.0791e-17)
(1.0001 -0.00014343 2.7252e-17)
(1.0001 -0.0001335 -5.1867e-17)
(1 3.973e-05 -3.8927e-17)
(0.99994 0.00021922 9.6463e-18)
(0.99708 0.00097486 -5.569e-18)
(1.0115 0.0015858 -8.8736e-18)
(0.92113 0.0045503 -1.3785e-17)
(1.1165 0.075646 1.3385e-17)
(0.99999 3.5133e-05 4.4111e-18)
(1 -5.1239e-05 2.2912e-18)
(1 -0.00011281 -3.7707e-17)
(1.0001 -0.00017072 1.5357e-17)
(1.0001 -0.00016093 -1.1884e-17)
(1.0001 -0.00014972 2.2121e-17)
(1 4.4749e-05 1.3833e-17)
(1 0.00023962 2.4386e-18)
(0.99642 0.0011014 5.2606e-19)
(1.0142 0.0019323 1.4059e-18)
(0.91544 0.0042496 4.3852e-18)
(1.1072 0.075765 -7.0116e-19)
(0.99998 3.8781e-05 -2.4219e-18)
(1 -5.6815e-05 -7.5143e-18)
(1 -0.0001251 9.243e-18)
(1.0001 -0.00018913 -2.7096e-18)
(1.0001 -0.00017858 1.8345e-18)
(1.0002 -0.00016607 -2.4243e-17)
(1 4.9778e-05 -3.1861e-17)
(1.0001 0.00025886 -3.0972e-17)
(0.99568 0.0012253 1.5566e-17)
(1.0171 0.0023181 1.8261e-18)
(0.91105 0.003889 -1.1123e-17)
(1.096 0.075195 -5.768e-18)
(0.99998 4.2418e-05 3.3429e-18)
(1 -6.2428e-05 2.8382e-18)
(1 -0.00013749 4.4545e-18)
(1.0001 -0.00020764 -2.1595e-18)
(1.0001 -0.0001964 -5.4991e-18)
(1.0002 -0.00018256 9.1692e-18)
(1 5.4799e-05 1.8443e-17)
(1.0002 0.00027702 1.9134e-17)
(0.99486 0.0013452 1.0001e-17)
(1.02 0.0027402 -2.306e-17)
(0.90795 0.0034949 1.1673e-19)
(1.0835 0.074105 -6.6775e-18)
(0.99998 4.6045e-05 -3.3423e-18)
(0.99999 -6.8079e-05 5.5815e-18)
(1 -0.00014998 8.0764e-18)
(1.0001 -0.00022623 5.6387e-18)
(1.0001 -0.0002144 -5.1005e-18)
(1.0002 -0.0001992 4.5076e-18)
(1 5.9789e-05 4.2056e-18)
(1.0003 0.00029424 -1.7087e-18)
(0.99395 0.0014597 -1.6164e-17)
(1.0229 0.0031949 2.1384e-17)
(0.90612 0.0030903 1.039e-19)
(1.0705 0.072633 1.4297e-18)
(0.99997 4.9661e-05 5.0826e-18)
(0.99999 -7.3769e-05 -4.3569e-18)
(1 -0.00016255 7.0709e-19)
(1.0001 -0.00024493 -4.7038e-18)
(1.0002 -0.00023259 1.1584e-17)
(1.0002 -0.000216 5.4998e-18)
(1 6.4721e-05 1.6922e-17)
(1.0005 0.00031069 -6.346e-18)
(0.99297 0.0015676 -1.9751e-19)
(1.0257 0.0036781 5.2519e-18)
(0.90549 0.0026947 1.6883e-17)
(1.0574 0.070893 9.1195e-19)
(0.99997 5.3267e-05 1.2259e-18)
(0.99999 -7.9501e-05 9.6695e-18)
(1 -0.00017523 1.3506e-17)
(1.0001 -0.00026373 -4.6898e-18)
(1.0002 -0.00025097 8.3879e-18)
(1.0002 -0.00023297 -2.5675e-18)
(1 6.956e-05 -2.9638e-17)
(1.0007 0.00032658 2.0087e-17)
(0.99192 0.0016678 -1.8227e-17)
(1.0285 0.0041848 -3.0293e-17)
(0.90595 0.0023249 -3.706e-18)
(1.0446 0.068977 8.4491e-19)
(0.99997 5.6863e-05 -3.1274e-18)
(0.99999 -8.5275e-05 -1.0284e-17)
(1 -0.00018802 -3.2416e-17)
(1.0001 -0.00028263 7.9014e-18)
(1.0002 -0.00026955 -1.2729e-17)
(1.0003 -0.00025012 8.2319e-18)
(1 7.4263e-05 -2.7731e-18)
(1.0009 0.00034213 -1.2092e-17)
(0.99081 0.0017591 4.0028e-18)
(1.0311 0.0047102 1.8089e-17)
(0.90742 0.0019939 -7.7784e-18)
(1.0325 0.066956 1.1738e-17)
(0.99996 6.0447e-05 3.2907e-19)
(0.99998 -9.1094e-05 7.6911e-18)
(1 -0.00020091 2.238e-17)
(1.0001 -0.00030165 -1.7795e-18)
(1.0002 -0.00028835 -1.2646e-17)
(1.0003 -0.00026746 -1.534e-17)
(1 7.8781e-05 1.0593e-17)
(1.0011 0.00035764 6.9348e-18)
(0.98964 0.0018404 2.313e-17)
(1.0336 0.0052497 -2.5328e-18)
(0.90978 0.0017122 1.933e-18)
(1.0211 0.064891 -4.683e-18)
(0.99996 6.4021e-05 -1.8462e-18)
(0.99998 -9.696e-05 -9.3193e-18)
(1 -0.00021391 -1.0099e-17)
(1.0001 -0.00032078 5.9467e-18)
(1.0002 -0.00030737 -7.1023e-18)
(1.0003 -0.000285 -1.2304e-17)
(0.99999 8.3054e-05 1.0297e-17)
(1.0014 0.00037341 -4.7046e-18)
(0.98842 0.0019108 -2.8622e-17)
(1.0358 0.0057983 -1.4194e-17)
(0.9129 0.0014873 8.3897e-18)
(1.0108 0.062826 -5.0792e-18)
(0.99995 6.7585e-05 -2.6436e-18)
(0.99998 -0.00010287 -3.5223e-18)
(1 -0.00022702 -7.4841e-19)
(1.0001 -0.00034003 -2.6041e-17)
(1.0002 -0.00032663 5.9589e-18)
(1.0003 -0.00030274 5.3581e-18)
(0.99998 8.7016e-05 -1.9568e-17)
(1.0017 0.00038978 -1.6062e-17)
(0.98716 0.0019692 4.1875e-18)
(1.0379 0.0063519 -1.0663e-18)
(0.91666 0.001324 -9.6878e-18)
(1.0017 0.060796 9.6067e-19)
(0.99995 7.1138e-05 3.4386e-18)
(0.99997 -0.00010884 1.6147e-17)
(1 -0.00024025 1.9272e-17)
(1.0001 -0.0003594 2.4524e-18)
(1.0002 -0.00034612 1.6474e-17)
(1.0004 -0.0003207 9.3894e-18)
(0.99995 9.0588e-05 2.8244e-18)
(1.002 0.00040712 1.758e-17)
(0.98588 0.0020148 2.0798e-17)
(1.0397 0.0069064 1.6949e-17)
(0.92096 0.001225 7.2314e-18)
(0.99366 0.058828 1.1399e-18)
(0.99994 7.4681e-05 -1.639e-18)
(0.99997 -0.00011486 -3.8743e-18)
(1 -0.0002536 -2.0532e-17)
(1.0002 -0.00037891 -2.322e-18)
(1.0002 -0.00036587 -1.2485e-17)
(1.0004 -0.00033889 -5.08e-18)
(0.99993 9.3682e-05 -1.8127e-18)
(1.0024 0.00042584 -1.5897e-17)
(0.98457 0.0020466 -1.9885e-17)
(1.0412 0.007458 8.6866e-18)
(0.92567 0.0011911 4.9693e-19)
(0.98683 0.056942 6.5424e-19)
(0.99994 7.8213e-05 4.3444e-18)
(0.99996 -0.00012093 -5.0617e-18)
(1 -0.00026708 -1.9258e-17)
(1.0002 -0.00039854 4.4145e-17)
(1.0003 -0.00038588 1.8112e-17)
(1.0004 -0.00035729 -1.2431e-17)
(0.99989 9.6199e-05 2.437e-17)
(1.0028 0.00044637 2.1485e-17)
(0.98326 0.0020639 3.2264e-17)
(1.0425 0.0080036 -3.1838e-17)
(0.93069 0.0012214 -1.3282e-17)
(0.98116 0.055149 1.7249e-19)
(0.99993 8.1735e-05 -3.18e-18)
(0.99996 -0.00012706 -1.0158e-18)
(1 -0.00028068 3.2878e-17)
(1.0002 -0.00041832 -3.3371e-17)
(1.0003 -0.00040616 -1.7434e-18)
(1.0004 -0.00037593 4.1188e-17)
(0.99985 9.8028e-05 7.5525e-18)
(1.0033 0.00046916 -3.3187e-18)
(0.98196 0.0020658 -2.0009e-17)
(1.0435 0.0085401 3.7519e-17)
(0.93592 0.0013135 -5.6276e-18)
(0.97659 0.053459 -2.7422e-19)
(0.99992 8.5247e-05 -1.6211e-18)
(0.99995 -0.00013324 -2.024e-18)
(1 -0.00029441 1.7122e-18)
(1.0002 -0.00043825 3.4717e-17)
(1.0003 -0.00042672 -9.8302e-18)
(1.0005 -0.00039479 -3.0443e-17)
(0.99981 9.9047e-05 -1.9256e-17)
(1.0037 0.00049468 -3.5734e-18)
(0.98067 0.0020516 6.3263e-18)
(1.0442 0.0090652 -3.165e-17)
(0.94128 0.001464 9.4254e-18)
(0.97307 0.051876 2.9716e-18)
(0.99992 8.8748e-05 2.679e-18)
(0.99995 -0.00013949 1.4087e-17)
(1 -0.00030827 -1.2627e-17)
(1.0002 -0.00045833 -3.635e-18)
(1.0003 -0.00044758 -1.8866e-17)
(1.0005 -0.00041389 3.3119e-17)
(0.99975 9.912e-05 -1.6904e-17)
(1.0042 0.00052341 1.4814e-17)
(0.97941 0.0020206 -1.9498e-18)
(1.0447 0.0095767 2.9673e-17)
(0.94668 0.0016689 -9.1991e-18)
(0.97051 0.050402 -4.9583e-18)
(0.99991 9.224e-05 -5.1382e-19)
(0.99994 -0.0001458 -8.102e-18)
(1 -0.00032227 -1.7681e-17)
(1.0002 -0.00047856 -9.9606e-18)
(1.0003 -0.00046874 1.8299e-17)
(1.0005 -0.00043322 -4.2233e-17)
(0.99969 9.8103e-05 -2.6084e-18)
(1.0048 0.00055584 -2.0014e-17)
(0.97819 0.0019724 3.1485e-18)
(1.0449 0.010073 -8.5585e-18)
(0.95204 0.0019232 9.7916e-18)
(0.96882 0.049035 2.1031e-18)
(0.9999 9.5721e-05 2.6918e-18)
(0.99994 -0.00015218 -8.6788e-18)
(1 -0.00033641 -1.7471e-18)
(1.0002 -0.00049896 2.4203e-18)
(1.0003 -0.00049022 5.7918e-18)
(1.0006 -0.00045277 1.2203e-17)
(0.99962 9.5835e-05 4.2765e-17)
(1.0053 0.00059248 2.3917e-18)
(0.97702 0.0019064 5.1299e-18)
(1.0448 0.010551 9.4327e-18)
(0.95732 0.0022219 -8.3754e-18)
(0.9679 0.047772 1.6147e-18)
(0.99989 9.9193e-05 -1.5435e-18)
(0.99993 -0.00015863 8.6708e-18)
(1 -0.00035069 2.5133e-17)
(1.0002 -0.00051952 -2.4386e-17)
(1.0003 -0.00051202 -9.0094e-18)
(1.0006 -0.00047254 -2.1472e-18)
(0.99954 9.2148e-05 -1.4096e-17)
(1.0059 0.00063382 1.8555e-18)
(0.97591 0.0018221 -8.8894e-18)
(1.0444 0.011012 -3.4669e-18)
(0.96245 0.0025595 -2.3737e-19)
(0.96765 0.046609 -1.9733e-18)
(0.99989 0.00010265 -1.659e-18)
(0.99992 -0.00016514 5.1901e-18)
(1 -0.00036512 -6.0776e-19)
(1.0002 -0.00054026 8.0863e-18)
(1.0003 -0.00053417 -1.6624e-17)
(1.0007 -0.00049252 2.4296e-17)
(0.99945 8.686e-05 7.0309e-18)
(1.0065 0.00068034 -1.7702e-17)
(0.97487 0.0017195 -1.1396e-17)
(1.0439 0.011453 -1.3726e-17)
(0.96739 0.0029304 1.3272e-18)
(0.96798 0.045541 -3.6148e-18)
(0.99988 0.00010611 5.7651e-19)
(0.99992 -0.00017174 -1.2395e-17)
(1 -0.00037971 1.5564e-17)
(1.0002 -0.00056118 2.2366e-17)
(1.0003 -0.00055667 3.2584e-17)
(1.0007 -0.00051269 -1.7843e-17)
(0.99935 7.9779e-05 -1.748e-17)
(1.0071 0.00073253 3.5924e-18)
(0.97391 0.0015983 1.0678e-17)
(1.0431 0.011873 1.0745e-17)
(0.9721 0.0033293 6.1799e-18)
(0.96881 0.044561 3.5927e-18)
(0.99987 0.00010955 1.1049e-18)
(0.99991 -0.0001784 9.8566e-18)
(1 -0.00039444 -3.5759e-17)
(1.0002 -0.00058229 -3.2405e-18)
(1.0004 -0.00057953 -2.7068e-17)
(1.0007 -0.00053306 -1.1239e-17)
(0.99924 7.0703e-05 2.4575e-20)
(1.0078 0.00079084 -4.1084e-18)
(0.97304 0.0014586 -2.1035e-17)
(1.0421 0.012272 -1.7155e-17)
(0.97656 0.0037508 -8.4405e-18)
(0.97003 0.043664 -1.7701e-18)
(0.99986 0.00011299 -7.1609e-19)
(0.9999 -0.00018515 -6.4103e-18)
(1 -0.00040934 2.8136e-17)
(1.0002 -0.00060359 -3.0922e-17)
(1.0004 -0.00060278 -2.0364e-18)
(1.0008 -0.00055359 2.3934e-17)
(0.99912 5.9421e-05 6.9942e-19)
(1.0084 0.00085567 3.9184e-18)
(0.97226 0.0013005 1.8414e-17)
(1.0409 0.01265 2.2301e-17)
(0.98073 0.0041896 4.8288e-18)
(0.97156 0.042842 -9.8832e-19)
(0.99985 0.00011641 -1.8643e-18)
(0.99989 -0.00019198 -2.3641e-18)
(1 -0.00042439 -1.2473e-17)
(1.0002 -0.0006251 1.5404e-17)
(1.0004 -0.00062642 2.975e-17)
(1.0008 -0.00057428 -1.0578e-17)
(0.999 4.5715e-05 2.1771e-17)
(1.0091 0.00092744 2.937e-18)
(0.97159 0.0011245 -2.0854e-18)
(1.0395 0.013005 1.0089e-17)
(0.98462 0.0046408 -5.396e-18)
(0.97334 0.04209 -6.8837e-19)
(0.99984 0.00011983 4.6624e-19)
(0.99988 -0.00019889 -6.2519e-18)
(1 -0.00043961 4.6695e-18)
(1.0002 -0.00064681 -1.5699e-17)
(1.0004 -0.00065047 -3.1469e-17)
(1.0009 -0.00059509 6.6658e-18)
(0.99886 2.936e-05 -3.1408e-17)
(1.0097 0.0010065 -6.7139e-18)
(0.97103 0.00093096 6.765e-18)
(1.038 0.013336 -3.1666e-17)
(0.98819 0.0050998 3.6947e-18)
(0.97529 0.041399 1.9446e-18)
(0.99983 0.00012324 8.1879e-19)
(0.99988 -0.0002059 1.6938e-17)
(1 -0.000455 7.8188e-18)
(1.0002 -0.00066873 6.395e-18)
(1.0004 -0.00067494 2.5164e-17)
(1.0009 -0.00061601 1.9874e-18)
(0.99872 1.0126e-05 2.1688e-17)
(1.0104 0.0010931 4.816e-18)
(0.97058 0.00072066 -2.0558e-17)
(1.0363 0.013645 1.0902e-17)
(0.99146 0.0055622 2.4985e-18)
(0.97736 0.040765 2.0159e-18)
(0.99982 0.00012665 -2.8591e-18)
(0.99987 -0.00021299 -5.5755e-18)
(1 -0.00047056 -6.8691e-18)
(1.0002 -0.00069088 1.0502e-17)
(1.0004 -0.00069986 1.2157e-17)
(1.001 -0.000637 -3.9579e-18)
(0.99856 -1.222e-05 -1.8218e-17)
(1.0111 0.0011875 2.1925e-17)
(0.97024 0.00049446 3.8081e-18)
(1.0346 0.013929 -3.2938e-18)
(0.99443 0.0060239 1.0334e-17)
(0.97949 0.04018 -1.4009e-18)
(0.99981 0.00013005 5.875e-18)
(0.99986 -0.00022019 6.6771e-18)
(1 -0.00048629 -7.3022e-18)
(1.0002 -0.00071326 -6.5423e-18)
(1.0004 -0.00072523 -1.7445e-17)
(1.0011 -0.00065804 -6.7978e-18)
(0.9984 -3.7911e-05 8.9824e-18)
(1.0117 0.0012899 -3.5166e-17)
(0.97002 0.00025342 9.3189e-18)
(1.0327 0.01419 -3.8939e-18)
(0.99708 0.0064812 -1.0942e-17)
(0.98164 0.039639 4.0683e-18)
(0.9998 0.00013344 -2.5929e-18)
(0.99985 -0.00022748 -1.1732e-17)
(1 -0.00050221 -7.0775e-18)
(1.0002 -0.00073587 -1.2415e-17)
(1.0004 -0.00075107 -5.3268e-18)
(1.0011 -0.0006791 1.9988e-17)
(0.99824 -6.7179e-05 -8.824e-18)
(1.0124 0.0014005 3.9119e-17)
(0.96991 -1.2555e-06 8.7855e-18)
(1.0308 0.014427 1.1816e-17)
(0.99945 0.0069306 4.6119e-18)
(0.98377 0.039136 -6.5972e-18)
(0.99979 0.00013682 -1.3754e-18)
(0.99984 -0.00023487 8.7248e-18)
(0.99999 -0.00051831 1.4023e-17)
(1.0002 -0.00075872 3.3473e-17)
(1.0004 -0.00077741 7.0608e-18)
(1.0012 -0.00070014 -1.371e-17)
(0.99806 -0.00010025 4.2582e-18)
(1.013 0.0015192 -4.2084e-17)
(0.96993 -0.00026818 -1.0655e-17)
(1.0289 0.014639 -6.5702e-18)
(1.0015 0.007369 4.5239e-18)
(0.98585 0.038665 6.6334e-18)
(0.99977 0.0001402 1.0526e-18)
(0.99983 -0.00024237 2.0655e-18)
(0.99999 -0.00053459 -1.3772e-17)
(1.0002 -0.00078183 -5.5756e-18)
(1.0004 -0.00080426 8.9657e-18)
(1.0013 -0.00072112 1.6409e-17)
(0.99788 -0.00013736 1.4808e-17)
(1.0136 0.001646 4.1662e-18)
(0.97005 -0.00054583 1.192e-17)
(1.0269 0.014826 -3.0447e-18)
(1.0033 0.0077938 -8.0755e-18)
(0.98786 0.038223 -1.7107e-18)
(0.99976 0.00014358 -4.3106e-20)
(0.99982 -0.00024998 2.3541e-18)
(0.99998 -0.00055107 3.0779e-18)
(1.0002 -0.0008052 -7.2383e-18)
(1.0004 -0.00083163 8.3742e-20)
(1.0013 -0.00074201 -1.4878e-17)
(0.99769 -0.0001787 -1.0016e-17)
(1.0142 0.0017809 3.0815e-17)
(0.97029 -0.00083256 -1.8012e-17)
(1.0249 0.014989 1.1823e-17)
(1.0049 0.0082023 4.2647e-18)
(0.98977 0.037805 -4.8311e-18)
(0.99975 0.00014695 -3.2605e-18)
(0.9998 -0.0002577 -1.104e-17)
(0.99997 -0.00056774 7.8586e-18)
(1.0002 -0.00082883 -1.9769e-17)
(1.0004 -0.00085956 -2.2675e-17)
(1.0014 -0.00076277 -2.0553e-17)
(0.9975 -0.00022449 -2.0414e-17)
(1.0148 0.0019236 -3.1559e-18)
(0.97064 -0.0011266 1.5741e-17)
(1.0229 0.015128 -1.0142e-17)
(1.0062 0.0085926 4.2371e-19)
(0.99157 0.037406 4.5502e-18)
(0.99973 0.00015032 6.2932e-18)
(0.99979 -0.00026554 1.1538e-17)
(0.99997 -0.00058461 -1.2674e-17)
(1.0002 -0.00085273 1.6231e-17)
(1.0005 -0.00088805 -2.6596e-18)
(1.0015 -0.00078336 1.3472e-17)
(0.9973 -0.00027491 2.4537e-17)
(1.0153 0.002074 -2.3902e-17)
(0.97109 -0.0014262 -7.9809e-18)
(1.021 0.015242 1.0711e-17)
(1.0073 0.0089626 3.6847e-18)
(0.99326 0.037022 -2.1525e-18)
(0.99972 0.00015369 -4.7222e-18)
(0.99978 -0.0002735 -3.4099e-18)
(0.99996 -0.00060168 -2.6503e-18)
(1.0002 -0.00087692 1.8572e-17)
(1.0005 -0.00091713 -5.6934e-18)
(1.0016 -0.00080374 -1.7073e-19)
(0.9971 -0.00033014 -4.8014e-18)
(1.0158 0.0022316 1.9145e-17)
(0.97163 -0.0017293 -7.5767e-18)
(1.0191 0.015333 -7.3551e-18)
(1.0082 0.0093108 -1.0893e-17)
(0.99482 0.036651 2.5018e-18)
(0.99971 0.00015705 3.21e-18)
(0.99977 -0.00028158 -4.3238e-18)
(0.99995 -0.00061896 6.0666e-18)
(1.0002 -0.00090139 -2.8179e-17)
(1.0005 -0.00094682 3.8569e-17)
(1.0017 -0.00082387 5.5815e-18)
(0.99689 -0.00039032 1.8945e-17)
(1.0163 0.0023961 -1.1846e-17)
(0.97227 -0.002034 1.0092e-19)
(1.0172 0.0154 5.4702e-18)
(1.0089 0.0096359 -2.118e-18)
(0.99627 0.036289 -9.4129e-19)
(0.99969 0.00016042 -9.183e-19)
(0.99976 -0.0002898 8.4522e-19)
(0.99994 -0.00063646 1.4783e-17)
(1.0002 -0.00092617 7.6821e-18)
(1.0005 -0.00097715 -1.9282e-17)
(1.0018 -0.00084371 -1.0932e-17)
(0.99669 -0.00045558 3.308e-18)
(1.0168 0.0025669 -5.7587e-18)
(0.973 -0.0023385 1.2677e-17)
(1.0154 0.015444 -3.5908e-18)
(1.0095 0.0099369 1.0196e-17)
(0.99759 0.035934 -3.4352e-18)
(0.99968 0.00016378 -1.5985e-18)
(0.99974 -0.00029815 -8.1476e-18)
(0.99994 -0.00065416 -4.3951e-18)
(1.0002 -0.00095125 3.085e-17)
(1.0005 -0.0010081 -1.718e-17)
(1.0019 -0.00086322 -9.2605e-19)
(0.99648 -0.00052604 -4.9469e-17)
(1.0172 0.0027435 5.6612e-18)
(0.97379 -0.0026407 -2.3703e-17)
(1.0137 0.015465 -7.7552e-18)
(1.0099 0.010213 -1.0195e-17)
(0.99879 0.035583 2.0398e-18)
(0.99966 0.00016714 -6.9013e-19)
(0.99973 -0.00030663 5.0478e-18)
(0.99993 -0.00067209 -1.8143e-18)
(1.0003 -0.00097664 -1.7963e-17)
(1.0005 -0.0010398 2.4689e-17)
(1.002 -0.00088237 -2.2763e-18)
(0.99628 -0.00060177 2.6204e-17)
(1.0176 0.0029252 -3.4796e-18)
(0.97466 -0.0029388 1.1509e-17)
(1.0121 0.015465 9.6998e-18)
(1.0102 0.010463 8.4093e-18)
(0.99988 0.035233 -4.932e-19)
(0.99964 0.00017051 3.912e-18)
(0.99971 -0.00031526 -3.0204e-18)
(0.99992 -0.00069025 -6.3477e-18)
(1.0003 -0.0010024 1.9606e-17)
(1.0005 -0.0010721 1.8121e-18)
(1.0021 -0.00090112 2.8221e-17)
(0.99608 -0.00068281 4.5203e-18)
(1.0179 0.0031114 1.6626e-17)
(0.97559 -0.0032309 4.3176e-18)
(1.0106 0.015444 -3.1384e-18)
(1.0103 0.010688 1.0939e-18)
(1.0009 0.034884 4.4646e-19)
(0.99963 0.00017388 1.1156e-18)
(0.9997 -0.00032404 1.2348e-18)
(0.99991 -0.00070863 -5.7564e-18)
(1.0003 -0.0010284 -3.9044e-17)
(1.0005 -0.0011052 5.4877e-18)
(1.0022 -0.00091946 2.4476e-18)
(0.99588 -0.00076918 -1.9601e-17)
(1.0182 0.0033013 2.3381e-19)
(0.97657 -0.0035154 1.272e-17)
(1.0091 0.015402 -2.0178e-18)
(1.0104 0.010887 -5.3253e-18)
(1.0017 0.034534 2.6314e-18)
(0.99961 0.00017725 -4.7768e-18)
(0.99968 -0.00033296 5.2343e-18)
(0.9999 -0.00072725 9.4867e-19)
(1.0003 -0.0010548 2.1682e-17)
(1.0005 -0.001139 -2.5033e-17)
(1.0023 -0.00093734 -1.0811e-17)
(0.99568 -0.00086088 2.0047e-17)
(1.0185 0.003494 -1.126e-17)
(0.9776 -0.0037905 -2.0108e-17)
(1.0078 0.015342 -9.9711e-18)
(1.0105 0.01106 6.7818e-18)
(1.0025 0.034181 8.77e-19)
(0.99959 0.00018062 -5.0554e-19)
(0.99967 -0.00034204 -5.2673e-18)
(0.99989 -0.00074611 1.0107e-17)
(1.0003 -0.0010816 9.614e-18)
(1.0005 -0.0011735 3.0919e-17)
(1.0024 -0.00095476 4.1531e-18)
(0.99548 -0.00095786 1.7807e-17)
(1.0187 0.0036888 2.8548e-17)
(0.97866 -0.0040549 -8.8771e-19)
(1.0066 0.015264 1.7539e-17)
(1.0104 0.011207 -7.1773e-19)
(1.0032 0.033825 -2.5602e-18)
(0.99957 0.000184 4.8996e-18)
(0.99965 -0.00035128 -7.6691e-18)
(0.99988 -0.00076521 -1.5341e-17)
(1.0003 -0.0011087 -2.5549e-18)
(1.0005 -0.0012089 -3.356e-17)
(1.0025 -0.00097171 -1.2357e-17)
(0.99529 -0.00106 -6.1806e-18)
(1.0189 0.0038847 2.1341e-19)
(0.97975 -0.0043071 2.6166e-17)
(1.0055 0.015168 4.0417e-18)
(1.0104 0.011329 -9.3054e-18)
(1.0039 0.033464 1.5352e-18)
(0.99956 0.00018738 -5.4931e-18)
(0.99963 -0.00036069 9.5799e-18)
(0.99987 -0.00078456 8.0303e-18)
(1.0003 -0.0011361 -5.0916e-18)
(1.0005 -0.001245 2.6989e-17)
(1.0026 -0.00098817 1.4784e-17)
(0.99511 -0.0011673 -4.8858e-18)
(1.0191 0.0040808 -2.8769e-17)
(0.98086 -0.004546 -8.8986e-19)
(1.0045 0.015058 -1.1549e-17)
(1.0102 0.011427 1.1015e-17)
(1.0044 0.033098 -2.011e-18)
(0.99954 0.00019077 3.3008e-18)
(0.99962 -0.00037026 -1.8333e-18)
(0.99986 -0.00080417 1.0634e-17)
(1.0003 -0.001164 -2.1423e-17)
(1.0005 -0.001282 8.814e-18)
(1.0027 -0.0010041 -5.3108e-18)
(0.99493 -0.0012795 -1.0528e-17)
(1.0192 0.0042761 -2.3094e-18)
(0.98198 -0.0047705 -3.1575e-17)
(1.0036 0.014933 7.62e-18)
(1.0101 0.011501 -1.0085e-17)
(1.005 0.032727 6.7069e-19)
(0.99952 0.00019417 2.6103e-19)
(0.9996 -0.00038001 -5.7674e-18)
(0.99985 -0.00082403 6.0391e-18)
(1.0003 -0.0011923 2.8198e-17)
(1.0005 -0.0013198 -2.0992e-17)
(1.0028 -0.0010196 1.7084e-17)
(0.99476 -0.0013965 -6.0873e-18)
(1.0193 0.0044698 5.3475e-18)
(0.98311 -0.0049799 3.7512e-17)
(1.0028 0.014795 -1.4146e-17)
(1.01 0.011551 1.5414e-17)
(1.0054 0.032349 1.8975e-18)
(0.9995 0.00019758 4.685e-19)
(0.99958 -0.00038993 -1.1939e-18)
(0.99983 -0.00084416 -8.6876e-18)
(1.0003 -0.0012209 -4.2446e-18)
(1.0004 -0.0013585 1.8297e-17)
(1.003 -0.0010347 1.3616e-19)
(0.9946 -0.001518 -1.1965e-17)
(1.0193 0.0046609 -1.2767e-17)
(0.98424 -0.0051735 -1.5702e-17)
(1.0022 0.014645 -1.3354e-18)
(1.0099 0.01158 2.821e-18)
(1.0059 0.031966 1.9844e-19)
(0.99948 0.00020099 -7.5382e-19)
(0.99956 -0.00040005 1.4204e-17)
(0.99982 -0.00086455 -5.7949e-18)
(1.0003 -0.00125 -2.399e-17)
(1.0004 -0.001398 8.4363e-18)
(1.0031 -0.0010493 -4.3528e-17)
(0.99445 -0.0016438 5.9686e-18)
(1.0194 0.0048484 8.0385e-18)
(0.98536 -0.0053508 7.2938e-19)
(1.0016 0.014484 1.4367e-17)
(1.0097 0.011587 -9.4363e-19)
(1.0062 0.031578 -5.3012e-18)
(0.99946 0.00020442 -1.9901e-19)
(0.99954 -0.00041035 -2.7866e-19)
(0.99981 -0.00088522 7.8013e-18)
(1.0003 -0.0012795 1.4812e-17)
(1.0004 -0.0014385 -3.3518e-17)
(1.0032 -0.0010635 1.8801e-18)
(0.9943 -0.0017737 1.0691e-17)
(1.0194 0.0050314 1.259e-17)
(0.98646 -0.0055115 -9.9299e-18)
(1.0011 0.014315 -1.3988e-17)
(1.0096 0.011575 -1.5286e-17)
(1.0066 0.031183 5.5976e-18)
(0.99943 0.00020785 -1.3024e-18)
(0.99952 -0.00042084 3.9709e-19)
(0.9998 -0.00090617 -3.7614e-18)
(1.0002 -0.0013094 -9.8895e-18)
(1.0004 -0.0014798 1.8581e-17)
(1.0033 -0.0010773 2.3364e-17)
(0.99416 -0.0019074 3.118e-18)
(1.0193 0.0052091 6.3807e-18)
(0.98755 -0.0056554 1.5837e-17)
(1.0007 0.014137 2.3542e-18)
(1.0095 0.011543 1.13e-17)
(1.007 0.030783 -3.3976e-18)
(0.99941 0.0002113 2.3973e-18)
(0.9995 -0.00043154 7.3206e-19)
(0.99978 -0.0009274 -5.3759e-18)
(1.0002 -0.0013398 1.461e-18)
(1.0004 -0.0015221 -1.0075e-17)
(1.0035 -0.0010909 -5.6044e-18)
(0.99404 -0.0020445 -1.1524e-18)
(1.0193 0.0053807 -2.8812e-17)
(0.98862 -0.0057828 3.1084e-18)
(1.0004 0.013953 -4.7729e-18)
(1.0094 0.011494 -4.5961e-18)
(1.0073 0.030378 -4.0946e-18)
(0.99939 0.00021476 -4.8926e-18)
(0.99948 -0.00044243 9.5645e-19)
(0.99977 -0.00094892 2.8516e-18)
(1.0002 -0.0013707 -1.8359e-17)
(1.0004 -0.0015653 -1.1486e-17)
(1.0036 -0.0011042 -2.6019e-17)
(0.99392 -0.0021848 5.5618e-18)
(1.0192 0.0055452 1.1765e-17)
(0.98967 -0.0058936 -3.3336e-17)
(1.0001 0.013762 2.2009e-17)
(1.0094 0.011428 -4.9693e-18)
(1.0076 0.029968 2.6408e-18)
(0.99936 0.00021823 4.4913e-18)
(0.99946 -0.00045354 2.1403e-18)
(0.99975 -0.00097074 1.0967e-18)
(1.0002 -0.001402 5.8224e-18)
(1.0004 -0.0016094 -2.5377e-18)
(1.0037 -0.0011173 5.0431e-17)
(0.99381 -0.0023278 1.9969e-17)
(1.0191 0.0057021 -1.8301e-17)
(0.99068 -0.0059884 3.2084e-17)
(0.99994 0.013567 -8.2114e-18)
(1.0093 0.011346 -3.2766e-18)
(1.0079 0.029554 -1.317e-18)
(0.99934 0.00022172 1.1018e-18)
(0.99944 -0.00046487 -1.3553e-17)
(0.99974 -0.00099286 2.1951e-18)
(1.0002 -0.0014339 2.615e-17)
(1.0004 -0.0016545 1.9636e-17)
(1.0039 -0.0011304 -8.1383e-19)
(0.99371 -0.0024734 -2.7665e-17)
(1.019 0.0058505 5.5403e-18)
(0.99167 -0.0060675 -7.2354e-18)
(0.99983 0.013368 -1.1364e-17)
(1.0093 0.01125 8.3361e-18)
(1.0082 0.029135 1.2281e-18)
(0.99932 0.00022522 -4.3576e-18)
(0.99942 -0.00047641 -4.5185e-18)
(0.99972 -0.0010153 -1.1891e-17)
(1.0002 -0.0014662 -2.1932e-17)
(1.0004 -0.0017006 -1.9759e-17)
(1.004 -0.0011435 -2.2918e-17)
(0.99362 -0.0026211 5.1088e-18)
(1.0188 0.00599 4.3085e-17)
(0.99262 -0.0061317 3.1533e-18)
(0.99978 0.013167 -9.9233e-19)
(1.0093 0.011141 -2.943e-18)
(1.0085 0.028713 -3.299e-18)
(0.99929 0.00022874 3.2337e-18)
(0.99939 -0.00048819 4.197e-18)
(0.9997 -0.001038 1.8325e-17)
(1.0002 -0.0014991 1.519e-17)
(1.0003 -0.0017476 1.9224e-17)
(1.0041 -0.0011566 -8.5179e-19)
(0.99353 -0.0027705 -2.8465e-17)
(1.0187 0.0061199 -2.3289e-17)
(0.99354 -0.0061815 7.8256e-18)
(0.99978 0.012963 3.9337e-18)
(1.0094 0.01102 6.6345e-18)
(1.0088 0.028289 2.5497e-18)
(0.99926 0.00023227 -2.2838e-18)
(0.99937 -0.00050019 6.5845e-18)
(0.99969 -0.0010611 -1.2125e-17)
(1.0002 -0.0015325 2.1988e-18)
(1.0003 -0.0017955 8.9391e-18)
(1.0043 -0.00117 -2.2405e-18)
(0.99346 -0.0029214 6.3908e-18)
(1.0185 0.0062398 6.4676e-18)
(0.99443 -0.0062179 2.5754e-18)
(0.99984 0.012757 9.7236e-18)
(1.0094 0.010888 -7.9789e-18)
(1.009 0.027861 5.1518e-19)
(0.99924 0.00023581 3.4482e-18)
(0.99934 -0.00051243 4.081e-19)
(0.99967 -0.0010844 -5.6762e-18)
(1.0002 -0.0015665 8.7535e-19)
(1.0003 -0.0018444 -1.4681e-18)
(1.0044 -0.0011836 -2.2133e-17)
(0.9934 -0.0030733 1.7845e-17)
(1.0183 0.0063492 2.2957e-17)
(0.99527 -0.0062417 -1.2822e-17)
(0.99993 0.012551 -1.353e-17)
(1.0095 0.010746 -2.332e-18)
(1.0093 0.027432 4.3847e-18)
(0.99921 0.00023938 -2.5049e-18)
(0.99932 -0.00052492 -3.1431e-19)
(0.99965 -0.0011081 7.0571e-18)
(1.0002 -0.0016011 -1.6811e-17)
(1.0003 -0.0018943 -1.3279e-17)
(1.0045 -0.0011977 2.7943e-17)
(0.99334 -0.003226 -2.729e-18)
(1.0181 0.006448 -2.4306e-17)
(0.99609 -0.0062538 3.2667e-18)
(1.0001 0.012344 1.2739e-17)
(1.0096 0.010595 7.9049e-18)
(1.0096 0.027001 -1.581e-18)
(0.99918 0.00024295 2.4894e-19)
(0.99929 -0.00053766 2.3023e-18)
(0.99963 -0.0011322 3.8563e-18)
(1.0002 -0.0016363 8.6905e-18)
(1.0003 -0.0019451 2.6031e-17)
(1.0047 -0.0012123 6.5154e-18)
(0.9933 -0.0033792 -2.3763e-17)
(1.0179 0.0065357 2.2783e-18)
(0.99686 -0.0062552 8.4144e-18)
(1.0002 0.012137 -1.1477e-17)
(1.0098 0.010436 -5.3445e-18)
(1.0099 0.026569 -1.8291e-18)
(0.99915 0.00024655 7.0685e-19)
(0.99927 -0.00055065 -4.004e-19)
(0.99961 -0.0011566 -1.0176e-17)
(1.0002 -0.0016721 -1.8692e-19)
(1.0002 -0.0019969 -5.1467e-17)
(1.0048 -0.0012276 8.0337e-18)
(0.99326 -0.0035325 2.3343e-17)
(1.0177 0.0066123 -6.5454e-18)
(0.99761 -0.006247 -8.8116e-18)
(1.0004 0.011931 1.9058e-17)
(1.0099 0.010269 6.3943e-18)
(1.0102 0.026136 4.7403e-18)
(0.99912 0.00025016 7.5935e-19)
(0.99924 -0.00056391 -8.3104e-19)
(0.99959 -0.0011813 1.8403e-17)
(1.0002 -0.0017085 4.0087e-18)
(1.0002 -0.0020496 4.5611e-17)
(1.0049 -0.0012437 -2.8313e-17)
(0.99323 -0.0036858 -7.8173e-18)
(1.0175 0.0066776 6.1612e-18)
(0.99831 -0.0062301 3.0359e-18)
(1.0006 0.011726 -1.0723e-17)
(1.0101 0.010096 -1.0353e-18)
(1.0105 0.025703 -3.4955e-18)
(0.99909 0.0002538 -2.9675e-18)
(0.99921 -0.00057744 1.3955e-18)
(0.99957 -0.0012063 -1.0817e-17)
(1.0002 -0.0017456 5.2715e-18)
(1.0002 -0.0021032 -1.7331e-17)
(1.0051 -0.0012607 3.8396e-18)
(0.99321 -0.0038386 3.1301e-17)
(1.0173 0.0067316 -2.3062e-17)
(0.99899 -0.0062055 -1.1159e-17)
(1.0009 0.011521 -1.0607e-17)
(1.0103 0.0099171 -5.0842e-18)
(1.0108 0.02527 -9.5992e-19)
(0.99906 0.00025745 3.6966e-18)
(0.99918 -0.00059124 -3.3142e-18)
(0.99955 -0.0012318 -1.0498e-17)
(1.0002 -0.0017834 -8.4059e-18)
(1.0001 -0.0021577 -2.8339e-17)
(1.0052 -0.0012787 -1.781e-17)
(0.99319 -0.003991 -1.9192e-17)
(1.0171 0.0067743 2.1444e-17)
(0.99963 -0.0061744 1.0818e-17)
(1.0012 0.011317 1.6063e-17)
(1.0105 0.0097332 -1.99e-18)
(1.0111 0.024838 4.6334e-18)
(0.99903 0.00026112 -5.9413e-18)
(0.99915 -0.00060533 5.3702e-18)
(0.99952 -0.0012576 2.5706e-17)
(1.0002 -0.0018219 -1.9828e-18)
(1.0001 -0.0022132 3.1354e-17)
(1.0053 -0.0012979 1.3423e-18)
(0.99319 -0.0041425 -1.8382e-17)
(1.0169 0.0068058 8.3944e-18)
(1.0002 -0.0061378 -3.9016e-18)
(1.0014 0.011114 -3.3635e-18)
(1.0107 0.0095447 6.4564e-18)
(1.0114 0.024406 -3.1334e-18)
(0.999 0.00026481 4.869e-18)
(0.99912 -0.00061971 -7.2984e-18)
(0.9995 -0.0012837 -2.9972e-17)
(1.0002 -0.0018612 1.2972e-17)
(1.0001 -0.0022695 -2.234e-17)
(1.0055 -0.0013184 2.462e-17)
(0.99319 -0.0042932 5.9915e-18)
(1.0167 0.0068262 -7.9905e-18)
(1.0008 -0.0060965 -1.8725e-18)
(1.0017 0.010913 -8.423e-18)
(1.0109 0.0093523 -1.0525e-17)
(1.0117 0.023976 4.331e-18)
(0.99897 0.00026852 -3.5866e-18)
(0.99909 -0.00063438 2.4269e-18)
(0.99948 -0.0013102 1.8212e-17)
(1.0002 -0.0019012 -1.71e-17)
(1 -0.0023267 3.5947e-17)
(1.0056 -0.0013403 -1.911e-17)
(0.99319 -0.0044428 3.4928e-18)
(1.0165 0.0068356 -1.2631e-17)
(1.0014 -0.0060516 6.1122e-18)
(1.002 0.010713 -1.1782e-18)
(1.0111 0.0091564 4.5053e-18)
(1.012 0.023546 -1.9258e-18)
(0.99893 0.00027225 4.3991e-18)
(0.99906 -0.00064936 1.8896e-18)
(0.99945 -0.0013371 -1.2143e-17)
(1.0002 -0.001942 -3.4797e-19)
(1 -0.0023848 -1.5862e-18)
(1.0057 -0.0013637 4.6214e-18)
(0.99321 -0.0045912 3.3169e-17)
(1.0162 0.0068344 8.6404e-18)
(1.0019 -0.006004 -1.8117e-17)
(1.0023 0.010513 -6.1081e-18)
(1.0114 0.0089575 -4.2369e-18)
(1.0123 0.023119 2.0239e-18)
(0.9989 0.000276 -5.0424e-18)
(0.99903 -0.00066466 -7.0025e-18)
(0.99943 -0.0013644 5.0943e-18)
(1.0002 -0.0019836 1.4797e-17)
(0.99998 -0.0024437 -3.2611e-17)
(1.0059 -0.0013887 1.5529e-17)
(0.99323 -0.0047384 -3.1936e-17)