/*--------------------------------*- C++ -*----------------------------------*\
  =========                 |
  \\      /  F ield         | OpenFOAM: The Open Source CFD Toolbox
   \\    /   O peration     | Website:  https://openfoam.org
    \\  /    A nd           | Version:  6.0
     \\/     M anipulation  |
\*---------------------------------------------------------------------------*/
FoamFile
{
    version     2.0;
    format      ascii;
    class       surfaceScalarField;
    location    "19";
    object      phi;
}
// * * * * * * * * * * * * * * * * * * * * * * * * * * * * * * * * * * * * * //

dimensions      [0 3 -1 0 0 0 0];

internalField   nonuniform List<scalar> 
123526
(
-5.40828e-05
2.30596e-05
5.44696e-05
-5.36608e-05
2.49372e-05
-5.32079e-05
2.69681e-05
-5.27141e-05
2.91649e-05
-5.21844e-05
3.15412e-05
-5.16071e-05
3.41119e-05
-5.09879e-05
3.68929e-05
-5.03135e-05
3.99015e-05
-4.95895e-05
4.31555e-05
-4.88001e-05
4.6676e-05
-4.79533e-05
5.04856e-05
-4.70307e-05
5.46074e-05
-4.6041e-05
5.90672e-05
-4.496e-05
6.38905e-05
-4.37962e-05
6.91086e-05
-4.25289e-05
7.47587e-05
-4.1167e-05
8.08729e-05
-3.96783e-05
8.74826e-05
-3.80727e-05
9.46383e-05
-3.63276e-05
0.000102386
-3.44405e-05
0.000110763
-3.23833e-05
0.000119829
-3.01673e-05
0.000129646
-2.77451e-05
0.000140253
-2.51316e-05
0.000151743
-2.22862e-05
0.000164167
-1.92047e-05
0.000177602
-1.58579e-05
0.00019214
-1.22267e-05
0.000207844
-8.28584e-06
0.000224832
-4.00842e-06
0.00024317
6.27183e-07
0.000262986
5.64756e-06
0.000284362
1.1084e-05
0.000307414
1.6974e-05
0.000332253
2.33671e-05
0.000358969
3.02839e-05
0.000387691
3.77667e-05
0.000418498
4.58592e-05
0.000451473
5.45956e-05
0.000486693
6.40184e-05
0.000524184
7.41756e-05
0.000563938
8.51038e-05
0.000605901
9.68396e-05
0.000649935
0.00010942
0.000695801
0.000122873
0.000743127
0.000137223
0.00079137
0.000152475
0.000839763
0.00016862
0.000887259
0.000185622
0.000932464
0.000203395
0.000973534
0.000221859
0.00100808
0.000240782
0.00103313
0.000259978
0.00104481
0.000279081
0.00103833
0.000297706
0.00100781
0.000315278
0.000945942
0.000331107
0.000844264
0.000343944
0.000688114
0.000454668
0.000340515
-5.3216e-05
2.26776e-05
5.3597e-05
-5.2801e-05
2.45238e-05
-5.23558e-05
2.65209e-05
-5.187e-05
2.86812e-05
-5.13489e-05
3.10181e-05
-5.07808e-05
3.35464e-05
-5.01715e-05
3.62816e-05
-4.95079e-05
3.92408e-05
-4.87957e-05
4.24409e-05
-4.80195e-05
4.59031e-05
-4.71869e-05
4.96504e-05
-4.62806e-05
5.37049e-05
-4.53083e-05
5.80918e-05
-4.42475e-05
6.28337e-05
-4.3105e-05
6.79629e-05
-4.18623e-05
7.352e-05
-4.05259e-05
7.95336e-05
-3.90669e-05
8.60275e-05
-3.74917e-05
9.30606e-05
-3.57815e-05
0.00010068
-3.393e-05
0.000108909
-3.19138e-05
0.000117816
-2.97389e-05
0.000127469
-2.73647e-05
0.000137882
-2.47989e-05
0.000149175
-2.20093e-05
0.000161379
-1.89834e-05
0.000174575
-1.57013e-05
0.000188858
-1.21352e-05
0.000204278
-8.26948e-06
0.000220968
-4.0686e-06
0.000238973
4.8191e-07
0.000258437
5.41059e-06
0.000279427
1.07494e-05
0.000302066
1.65326e-05
0.000326462
2.28088e-05
0.000352688
2.95984e-05
0.000380898
3.69422e-05
0.00041115
4.48831e-05
0.000443528
5.34542e-05
0.000478117
6.26976e-05
0.000514936
7.26608e-05
0.00055397
8.33809e-05
0.000595178
9.48954e-05
0.000638421
0.000107242
0.00068346
0.00012045
0.000729933
0.000134545
0.000777304
0.000149529
0.000824824
0.000165395
0.000871468
0.000182104
0.000915868
0.000199569
0.000956212
0.000217721
0.000990157
0.000236323
0.00101475
0.000255198
0.00102621
0.000273972
0.00101981
0.000292279
0.000989824
0.000309489
0.000928979
0.000325001
0.000829054
0.000334885
0.00067848
0.000456775
0.000333168
-5.24576e-05
2.23038e-05
5.2831e-05
-5.20512e-05
2.41193e-05
-5.16149e-05
2.60829e-05
-5.11386e-05
2.8207e-05
-5.06271e-05
3.05048e-05
-5.00689e-05
3.29907e-05
-4.94694e-05
3.56803e-05
-4.8816e-05
3.85903e-05
-4.81142e-05
4.17366e-05
-4.73486e-05
4.51408e-05
-4.65275e-05
4.88261e-05
-4.5633e-05
5.28138e-05
-4.4674e-05
5.71288e-05
-4.36272e-05
6.17905e-05
-4.25009e-05
6.68324e-05
-4.12755e-05
7.22984e-05
-3.99591e-05
7.82134e-05
-3.85219e-05
8.4594e-05
-3.69718e-05
9.15073e-05
-3.52892e-05
9.9001e-05
-3.34687e-05
0.000107086
-3.14871e-05
0.000115838
-2.93501e-05
0.00012533
-2.70183e-05
0.000135553
-2.44983e-05
0.000146653
-2.17598e-05
0.000158642
-1.87889e-05
0.000171603
-1.5568e-05
0.000185638
-1.20673e-05
0.000200777
-8.27405e-06
0.000217176
-4.15074e-06
0.000234853
3.14122e-07
0.000253973
5.15097e-06
0.000274585
1.03891e-05
0.000296817
1.60634e-05
0.00032078
2.22209e-05
0.000346527
2.88817e-05
0.000374235
3.60863e-05
0.000403942
4.38772e-05
0.000435732
5.22873e-05
0.000469702
6.13588e-05
0.000505858
7.11393e-05
0.000544184
8.16663e-05
0.000584645
9.29776e-05
0.000627105
0.000105111
0.000671325
0.000118095
0.000716949
0.000131953
0.000763452
0.000146688
0.000810099
0.000162287
0.000855882
0.000178715
0.000899462
0.000195886
0.000939051
0.000213734
0.000972351
0.000232025
0.000996454
0.000250588
0.00100767
0.00026904
0.00100131
0.000287033
0.000971833
0.000303865
0.000912054
0.000319049
0.000813841
0.000329497
0.000667928
0.000455929
0.000330178
-5.17079e-05
2.19365e-05
5.20754e-05
-5.13088e-05
2.37224e-05
-5.08811e-05
2.5654e-05
-5.04148e-05
2.77432e-05
-4.99144e-05
3.00031e-05
-4.93687e-05
3.24479e-05
-4.87825e-05
3.50928e-05
-4.81435e-05
3.79545e-05
-4.74564e-05
4.10478e-05
-4.67068e-05
4.43946e-05
-4.59013e-05
4.80187e-05
-4.50238e-05
5.19403e-05
-4.40813e-05
5.61839e-05
-4.30529e-05
6.07663e-05
-4.19447e-05
6.57217e-05
-4.07396e-05
7.10975e-05
-3.94439e-05
7.69153e-05
-3.80301e-05
8.31843e-05
-3.65045e-05
8.99796e-05
-3.48494e-05
9.73497e-05
-3.30586e-05
0.000105293
-3.111e-05
0.000113892
-2.9009e-05
0.000123227
-2.67171e-05
0.000133264
-2.42409e-05
0.000144175
-2.15506e-05
0.000155954
-1.86325e-05
0.000168684
-1.54696e-05
0.000182475
-1.20324e-05
0.00019734
-8.30854e-06
0.000213453
-4.26105e-06
0.00023081
1.21542e-07
0.000249593
4.8674e-06
0.000269833
1.00083e-05
0.000291668
1.55765e-05
0.000315204
2.16193e-05
0.00034048
2.81567e-05
0.000367694
3.52289e-05
0.000396866
4.28781e-05
0.000428078
5.11373e-05
0.000461436
6.00483e-05
0.000496939
6.96585e-05
0.000534564
8.0005e-05
0.000574287
9.11251e-05
0.000615971
0.000103056
0.00065938
0.000115823
0.000704165
0.00012945
0.000749811
0.000143936
0.000795599
0.000159272
0.000840541
0.00017542
0.00088332
0.0001923
0.000922186
0.000209847
0.000954869
0.000227831
0.000978514
0.000246081
0.000989498
0.000264214
0.000983237
0.00028189
0.000954267
0.000298366
0.000895651
0.000313213
0.00079912
0.000324087
0.000657164
0.000454074
0.00032613
-5.09583e-05
2.15733e-05
5.13221e-05
-5.0564e-05
2.33303e-05
-5.01419e-05
2.52307e-05
-4.96825e-05
2.72863e-05
-4.91905e-05
2.95098e-05
-4.86548e-05
3.1915e-05
-4.80804e-05
3.45169e-05
-4.74548e-05
3.7332e-05
-4.67832e-05
4.03738e-05
-4.60501e-05
4.36648e-05
-4.52634e-05
4.7229e-05
-4.44051e-05
5.10856e-05
-4.34841e-05
5.52589e-05
-4.24769e-05
5.9763e-05
-4.13925e-05
6.46329e-05
-4.02108e-05
6.99197e-05
-3.89408e-05
7.56414e-05
-3.75529e-05
8.18002e-05
-3.60556e-05
8.84792e-05
-3.44297e-05
9.57275e-05
-3.26708e-05
0.000103532
-3.07561e-05
0.000111981
-2.86919e-05
0.000121161
-2.64399e-05
0.000131014
-2.40071e-05
0.000141741
-2.13642e-05
0.000153312
-1.84976e-05
0.000165816
-1.53909e-05
0.000179368
-1.2015e-05
0.000193964
-8.35808e-06
0.000209797
-4.38336e-06
0.000226839
-8.0848e-08
0.000245291
4.5797e-06
0.000265168
9.62682e-06
0.00028661
1.50946e-05
0.00030973
2.10288e-05
0.000334542
2.74493e-05
0.000361271
3.43962e-05
0.000389916
4.19112e-05
0.000420558
5.00268e-05
0.000453314
5.87845e-05
0.000488174
6.82307e-05
0.00052511
7.84018e-05
0.000564107
8.93339e-05
0.000605029
0.000101062
0.000647643
0.000113613
0.000691604
0.000127006
0.000736409
0.000141243
0.000781351
0.000156313
0.000825459
0.000172183
0.000867439
0.000188773
0.000905568
0.000206022
0.000937617
0.0002237
0.000960782
0.000241637
0.000971528
0.00025945
0.000965327
0.000276806
0.000936864
0.000292951
0.000879383
0.00030743
0.000784582
0.000318299
0.000646172
0.000450371
0.000321821
-5.02406e-05
2.12157e-05
5.05986e-05
-4.98515e-05
2.29434e-05
-4.94343e-05
2.48125e-05
-4.89801e-05
2.68346e-05
-4.84935e-05
2.90221e-05
-4.79643e-05
3.13885e-05
-4.73973e-05
3.39488e-05
-4.67809e-05
3.67188e-05
-4.61197e-05
3.97109e-05
-4.53996e-05
4.2948e-05
-4.46268e-05
4.64543e-05
-4.37856e-05
5.0248e-05
-4.28821e-05
5.4353e-05
-4.18961e-05
5.87809e-05
-4.0833e-05
6.35673e-05
-3.96759e-05
6.87668e-05
-3.84309e-05
7.43941e-05
-3.70711e-05
8.04446e-05
-3.56029e-05
8.70089e-05
-3.40087e-05
9.41372e-05
-3.2283e-05
0.000101804
-3.04042e-05
0.000110106
-2.83782e-05
0.000119133
-2.61674e-05
0.000128807
-2.37787e-05
0.00013935
-2.11833e-05
0.000150718
-1.83682e-05
0.000163
-1.53171e-05
0.000176318
-1.20016e-05
0.000190649
-8.41e-06
0.000206207
-4.5065e-06
0.000222939
-2.8015e-07
0.000241067
4.29648e-06
0.000260585
9.25488e-06
0.000281644
1.46261e-05
0.000304351
2.04562e-05
0.000328709
2.67646e-05
0.00035496
3.35908e-05
0.000383086
4.09761e-05
0.000413168
4.89523e-05
0.000445332
5.75601e-05
0.000479558
6.68447e-05
0.000515815
7.68418e-05
0.000554098
8.75864e-05
0.000594269
9.91126e-05
0.000636098
0.000111445
0.000679249
0.000124605
0.000723226
0.000138592
0.000767336
0.000153399
0.000810626
0.000168993
0.000851822
0.000185299
0.000889239
0.000202254
0.00092068
0.000219631
0.000943397
0.000237256
0.00095391
0.000254756
0.000947826
0.000271795
0.000919863
0.000287631
0.000863563
0.000301743
0.000770531
0.00031261
0.000635364
0.000445672
0.000317423
-4.95381e-05
2.0867e-05
4.98873e-05
-4.91575e-05
2.25651e-05
-4.87482e-05
2.44024e-05
-4.83017e-05
2.63904e-05
-4.78221e-05
2.85415e-05
-4.73001e-05
3.08691e-05
-4.674e-05
3.33876e-05
-4.61314e-05
3.6113e-05
-4.54784e-05
3.90563e-05
-4.4768e-05
4.22407e-05
-4.40065e-05
4.56905e-05
-4.3178e-05
4.9423e-05
-4.22898e-05
5.34617e-05
-4.13206e-05
5.78154e-05
-4.02773e-05
6.25206e-05
-3.91417e-05
6.76351e-05
-3.79211e-05
7.31703e-05
-3.65873e-05
7.91148e-05
-3.5148e-05
8.5567e-05
-3.35845e-05
9.25776e-05
-3.18923e-05
0.00010011
-3.00494e-05
0.000108267
-2.80619e-05
0.000117144
-2.58926e-05
0.00012664
-2.35484e-05
0.000137005
-2.10009e-05
0.000148173
-1.82372e-05
0.000160235
-1.52416e-05
0.000173322
-1.19858e-05
0.000187393
-8.4587e-06
0.000202681
-4.62463e-06
0.000219109
-4.74044e-07
0.000236917
4.02282e-06
0.000256085
8.89364e-06
0.000276764
1.41714e-05
0.000299067
1.99002e-05
0.000322977
2.60993e-05
0.000348759
3.28075e-05
0.000376375
4.00655e-05
0.000405906
4.79043e-05
0.000437488
5.63639e-05
0.000471092
6.54884e-05
0.000506684
7.53126e-05
0.000544266
8.58707e-05
0.000583702
9.71958e-05
0.000624765
0.000109312
0.000667123
0.000122241
0.000710289
0.000135983
0.000753583
0.000150532
0.000796065
0.000165857
0.000836485
0.000181884
0.000873186
0.000198549
0.000904013
0.000215628
0.000926267
0.000232945
0.000936555
0.000250134
0.000930549
0.00026686
0.000903089
0.000282406
0.000847906
0.000296186
0.000756698
0.000307039
0.000624395
0.000439965
0.000312584
-4.88071e-05
2.05293e-05
4.91448e-05
-4.84384e-05
2.21984e-05
-4.80412e-05
2.40043e-05
-4.76071e-05
2.59584e-05
-4.71395e-05
2.80731e-05
-4.66294e-05
3.03615e-05
-4.60807e-05
3.28382e-05
-4.54838e-05
3.55187e-05
-4.48419e-05
3.84133e-05
-4.41437e-05
4.15454e-05
-4.33941e-05
4.49395e-05
-4.25798e-05
4.8612e-05
-4.17054e-05
5.25858e-05
-4.07534e-05
5.6867e-05
-3.97274e-05
6.1493e-05
-3.86129e-05
6.65245e-05
-3.7414e-05
7.19698e-05
-3.61058e-05
7.78108e-05
-3.46935e-05
8.41532e-05
-3.31605e-05
9.10486e-05
-3.15008e-05
9.84491e-05
-2.96937e-05
0.000106463
-2.77443e-05
0.000115193
-2.56163e-05
0.000124515
-2.33163e-05
0.000134703
-2.08164e-05
0.000145675
-1.81039e-05
0.000157522
-1.51631e-05
0.000170382
-1.19665e-05
0.000184197
-8.5029e-06
0.000199219
-4.73768e-06
0.000215347
-6.60035e-07
0.000232842
3.75666e-06
0.000251662
8.54293e-06
0.00027197
1.37286e-05
0.000293875
1.93579e-05
0.000317346
2.54496e-05
0.000342666
3.20417e-05
0.000369781
3.9174e-05
0.00039877
4.68771e-05
0.000429779
5.519e-05
0.000462772
6.4156e-05
0.000497709
7.3809e-05
0.000534601
8.41825e-05
0.000573314
9.53092e-05
0.000613621
0.000107213
0.000655196
0.000119915
0.000697563
0.000133417
0.000740051
0.000147713
0.00078174
0.000162773
0.000821396
0.000178525
0.000857402
0.000194901
0.000887637
0.000211684
0.000909462
0.000228692
0.000919533
0.000245572
0.000913649
0.000261988
0.000886686
0.000277257
0.000832635
0.000290744
0.000743246
0.000301481
0.000613698
0.000434289
0.000307241
-4.8036e-05
2.02013e-05
4.83653e-05
-4.76784e-05
2.18433e-05
-4.7294e-05
2.36195e-05
-4.68738e-05
2.55409e-05
-4.64215e-05
2.762e-05
-4.59271e-05
2.98699e-05
-4.53949e-05
3.2305e-05
-4.48141e-05
3.49409e-05
-4.41893e-05
3.77868e-05
-4.35074e-05
4.08666e-05
-4.27753e-05
4.42051e-05
-4.19777e-05
4.78178e-05
-4.11221e-05
5.17272e-05
-4.01883e-05
5.59368e-05
-3.91832e-05
6.04846e-05
-3.80895e-05
6.54347e-05
-3.69145e-05
7.07917e-05
-3.56309e-05
7.65312e-05
-3.42462e-05
8.2766e-05
-3.27423e-05
8.95486e-05
-3.11147e-05
9.68196e-05
-2.93419e-05
0.000104694
-2.74298e-05
0.00011328
-2.53421e-05
0.000122431
-2.30854e-05
0.000132445
-2.06322e-05
0.000143223
-1.79699e-05
0.000154859
-1.50832e-05
0.000167496
-1.19447e-05
0.000181059
-8.54374e-06
0.000195819
-4.84565e-06
0.000211653
-8.41143e-07
0.000228839
3.4987e-06
0.000247319
8.20044e-06
0.000267259
1.32958e-05
0.000288774
1.88271e-05
0.000311812
2.48127e-05
0.000336679
3.12901e-05
0.000363301
3.82982e-05
0.000391758
4.58671e-05
0.000422206
5.40349e-05
0.000454599
6.28443e-05
0.000488893
7.23285e-05
0.00052511
8.25203e-05
0.000563115
9.34521e-05
0.000602683
0.000105148
0.000643493
0.000117628
0.000685077
0.000130895
0.000726776
0.000144944
0.000767684
0.000159742
0.00080659
0.000175221
0.000841906
0.00019131
0.000871554
0.000207794
0.000892942
0.000224492
0.000902803
0.000241063
0.000897009
0.000257169
0.000870541
0.000272169
0.000817545
0.000285397
0.000729975
0.000295954
0.00060304
0.000428351
0.00030175
-4.72652e-05
1.9879e-05
4.75878e-05
-4.69156e-05
2.14958e-05
-4.6541e-05
2.32441e-05
-4.61327e-05
2.51349e-05
-4.56939e-05
2.71803e-05
-4.52148e-05
2.93934e-05
-4.46989e-05
3.17884e-05
-4.4136e-05
3.43807e-05
-4.35292e-05
3.71789e-05
-4.28668e-05
4.02071e-05
-4.21536e-05
4.34906e-05
-4.13767e-05
4.7044e-05
-4.05408e-05
5.08895e-05
-3.96288e-05
5.50282e-05
-3.86448e-05
5.94988e-05
-3.75747e-05
6.43683e-05
-3.64229e-05
6.96383e-05
-3.51655e-05
7.52777e-05
-3.38076e-05
8.14067e-05
-3.23333e-05
8.80782e-05
-3.07369e-05
9.52219e-05
-2.89981e-05
0.000102959
-2.71222e-05
0.000111402
-2.50738e-05
0.000120385
-2.28593e-05
0.00013023
-2.04515e-05
0.000140817
-1.78382e-05
0.000152245
-1.50041e-05
0.000164662
-1.19226e-05
0.000177977
-8.58274e-06
0.000192481
-4.95101e-06
0.000208025
-1.01684e-06
0.000224907
3.24549e-06
0.000243051
7.86532e-06
0.000262632
1.28713e-05
0.000283763
1.83059e-05
0.000306375
2.4187e-05
0.000330796
3.05512e-05
0.000356935
3.74368e-05
0.00038487
4.48733e-05
0.000414765
5.28983e-05
0.000446568
6.15535e-05
0.00048023
7.08717e-05
0.000515782
8.08854e-05
0.000553088
9.16262e-05
0.000591926
0.000103118
0.00063198
0.000115381
0.000672791
0.000128418
0.00071371
0.000142223
0.000753849
0.000156763
0.000792019
0.000171971
0.000826665
0.000187773
0.000855746
0.000203959
0.000876729
0.000220347
0.000886392
0.00023661
0.000880722
0.000252408
0.000854743
0.000267144
0.000802801
0.000280138
0.000717004
0.000290546
0.000592663
0.00042248
0.000296489
-4.65472e-05
1.95582e-05
4.68686e-05
-4.62003e-05
2.11513e-05
-4.58302e-05
2.28735e-05
-4.54285e-05
2.47355e-05
-4.49981e-05
2.67493e-05
-4.45298e-05
2.89275e-05
-4.40264e-05
3.12843e-05
-4.3478e-05
3.38349e-05
-4.28872e-05
3.65868e-05
-4.22421e-05
3.95648e-05
-4.15476e-05
4.27944e-05
-4.07899e-05
4.62895e-05
-3.99747e-05
5.0072e-05
-3.90837e-05
5.41407e-05
-3.81222e-05
5.85348e-05
-3.70749e-05
6.33247e-05
-3.59477e-05
6.85087e-05
-3.47155e-05
7.40494e-05
-3.33848e-05
8.00741e-05
-3.19388e-05
8.66361e-05
-3.03729e-05
9.36545e-05
-2.86668e-05
0.000101257
-2.68258e-05
0.00010956
-2.48152e-05
0.000118378
-2.26413e-05
0.000128055
-2.02774e-05
0.000138455
-1.77114e-05
0.000149678
-1.49285e-05
0.00016188
-1.19021e-05
0.000174951
-8.62198e-06
0.000189202
-5.05449e-06
0.000204461
-1.19063e-06
0.000221044
2.99758e-06
0.00023886
7.53565e-06
0.000258086
1.24541e-05
0.000278839
1.77936e-05
0.000301034
2.35717e-05
0.000325017
2.98245e-05
0.00035068
3.65895e-05
0.000378102
4.38958e-05
0.000407455
5.17803e-05
0.000438679
6.02841e-05
0.000471721
6.94395e-05
0.000506621
7.92785e-05
0.000543243
8.98326e-05
0.000581366
0.000101125
0.000620682
0.000113176
0.000660736
0.000125988
0.000700893
0.000139553
0.00074028
0.000153839
0.000777729
0.000168777
0.000811716
0.000184294
0.000840242
0.000200183
0.000860817
0.000216264
0.000870287
0.000232221
0.000864712
0.000247717
0.000839217
0.000262191
0.000788255
0.000274971
0.000704189
0.000285305
0.000582242
0.000416077
0.000291584
-4.592e-05
1.92364e-05
4.62412e-05
-4.5573e-05
2.0806e-05
-4.52031e-05
2.25028e-05
-4.48029e-05
2.43373e-05
-4.43752e-05
2.63209e-05
-4.39115e-05
2.84661e-05
-4.34144e-05
3.07867e-05
-4.28747e-05
3.32975e-05
-4.22939e-05
3.60053e-05
-4.16616e-05
3.8935e-05
-4.09806e-05
4.21125e-05
-4.02393e-05
4.55509e-05
-3.94405e-05
4.9272e-05
-3.85686e-05
5.3272e-05
-3.76262e-05
5.75911e-05
-3.66006e-05
6.23026e-05
-3.5495e-05
6.7402e-05
-3.42872e-05
7.28454e-05
-3.29814e-05
7.87672e-05
-3.15628e-05
8.52214e-05
-3.00257e-05
9.21163e-05
-2.83509e-05
9.95855e-05
-2.65433e-05
0.000107751
-2.45689e-05
0.000116406
-2.24338e-05
0.000125919
-2.0112e-05
0.000136135
-1.75916e-05
0.000147157
-1.48579e-05
0.000159147
-1.18851e-05
0.000171979
-8.6627e-06
0.000185981
-5.15833e-06
0.000200961
-1.36168e-06
0.00021725
2.75213e-06
0.000234741
7.2113e-06
0.00025362
1.20435e-05
0.000274002
1.72896e-05
0.000295786
2.29666e-05
0.000319339
2.911e-05
0.000344536
3.57567e-05
0.000371453
4.29353e-05
0.000400273
5.0682e-05
0.000430927
5.90374e-05
0.000463359
6.80333e-05
0.000497616
7.77012e-05
0.000533563
8.80721e-05
0.000570981
9.9169e-05
0.000609566
0.000111012
0.000648872
0.000123601
0.000688276
0.00013693
0.000726922
0.000150964
0.000763664
0.000165637
0.00079701
0.00018087
0.000824998
0.000196467
0.000845193
0.000212244
0.000854484
0.000227904
0.000849029
0.000243104
0.000824012
0.000257321
0.000774028
0.000269902
0.000691628
0.000280215
0.00057196
0.000409432
0.000286933
-4.5386e-05
1.89139e-05
4.57099e-05
-4.50368e-05
2.04596e-05
-4.46652e-05
2.21308e-05
-4.42632e-05
2.39379e-05
-4.38349e-05
2.5892e-05
-4.33713e-05
2.80051e-05
-4.28762e-05
3.02908e-05
-4.23394e-05
3.27635e-05
-4.17643e-05
3.54288e-05
-4.11385e-05
3.83121e-05
-4.04671e-05
4.14393e-05
-3.97359e-05
4.48229e-05
-3.89505e-05
4.84842e-05
-3.80925e-05
5.24172e-05
-3.71669e-05
5.6663e-05
-3.61586e-05
6.12978e-05
-3.50729e-05
6.6314e-05
-3.38859e-05
7.1662e-05
-3.26032e-05
7.74827e-05
-3.12091e-05
8.3831e-05
-2.96988e-05
9.06046e-05
-2.8053e-05
9.79431e-05
-2.62766e-05
0.000105974
-2.43363e-05
0.000114469
-2.22381e-05
0.00012382
-1.99566e-05
0.000133856
-1.74797e-05
0.00014468
-1.47935e-05
0.000156461
-1.18722e-05
0.000169059
-8.70602e-06
0.000182816
-5.26236e-06
0.000197521
-1.53259e-06
0.000213522
2.51042e-06
0.000230695
6.89126e-06
0.000249232
1.16394e-05
0.000269249
1.6794e-05
0.00029063
2.2372e-05
0.000313761
2.84081e-05
0.000338498
3.49388e-05
0.00036492
4.1992e-05
0.000393216
4.96035e-05
0.000423311
5.78132e-05
0.000455145
6.66525e-05
0.000488772
7.61524e-05
0.000524058
8.63433e-05
0.000560786
9.72477e-05
0.000598656
0.000108885
0.000637233
0.000121255
0.000675902
0.000134351
0.000713826
0.000148136
0.000749878
0.000162545
0.000782597
0.0001775
0.00081006
0.000192808
0.000829873
0.00020829
0.000838986
0.000223658
0.000833622
0.000238574
0.000809073
0.000252541
0.000760004
0.000264933
0.000679208
0.000275229
0.000561588
0.000402186
0.000282362
-4.49287e-05
1.8592e-05
4.52504e-05
-4.45799e-05
2.01128e-05
-4.42075e-05
2.17577e-05
-4.38042e-05
2.35368e-05
-4.33742e-05
2.54612e-05
-4.29091e-05
2.75424e-05
-4.24127e-05
2.97937e-05
-4.18759e-05
3.22292e-05
-4.13015e-05
3.48534e-05
-4.06786e-05
3.76917e-05
-4.0011e-05
4.07704e-05
-3.92865e-05
4.41011e-05
-3.85084e-05
4.77046e-05
-3.7661e-05
5.15727e-05
-3.67466e-05
5.57471e-05
-3.57527e-05
6.03071e-05
-3.46821e-05
6.52422e-05
-3.35133e-05
7.04967e-05
-3.22501e-05
7.62184e-05
-3.08783e-05
8.24628e-05
-2.93921e-05
8.91174e-05
-2.77731e-05
9.63276e-05
-2.60257e-05
0.000104226
-2.41176e-05
0.000112564
-2.20544e-05
0.000121756
-1.98111e-05
0.000131614
-1.73761e-05
0.000142245
-1.47353e-05
0.000153821
-1.1864e-05
0.000166188
-8.7519e-06
0.000179706
-5.3678e-06
0.00019414
-1.70169e-06
0.000209858
2.27048e-06
0.000226718
6.576e-06
0.00024492
1.12416e-05
0.000264579
1.63066e-05
0.000285564
2.17877e-05
0.000308279
2.77188e-05
0.000332566
3.41357e-05
0.000358501
4.1066e-05
0.000386283
4.85448e-05
0.000415828
5.66114e-05
0.000447072
6.52967e-05
0.000480078
7.46311e-05
0.000514713
8.46443e-05
0.000550759
9.53586e-05
0.000587924
0.000106792
0.00062578
0.000118945
0.000663724
0.000131809
0.000700935
0.000145347
0.00073631
0.000159496
0.000768417
0.000174175
0.000795368
0.000189202
0.000814821
0.000204395
0.000823768
0.000219482
0.000818514
0.000234126
0.000794423
0.000247854
0.000746269
0.000260061
0.000667021
0.000270307
0.000551376
0.000394833
0.000277739
-4.45149e-05
1.82736e-05
4.4834e-05
-4.41683e-05
1.97686e-05
-4.37973e-05
2.13862e-05
-4.33948e-05
2.31366e-05
-4.29648e-05
2.50304e-05
-4.24994e-05
2.70793e-05
-4.20024e-05
2.9296e-05
-4.14652e-05
3.16944e-05
-4.08909e-05
3.4278e-05
-4.02688e-05
3.70722e-05
-3.96033e-05
4.01036e-05
-3.8882e-05
4.33826e-05
-3.81092e-05
4.693e-05
-3.72682e-05
5.07349e-05
-3.6363e-05
5.48398e-05
-3.53795e-05
5.9327e-05
-3.43221e-05
6.41829e-05
-3.31681e-05
6.93462e-05
-3.19222e-05
7.49711e-05
-3.05697e-05
8.11138e-05
-2.91053e-05
8.76519e-05
-2.75107e-05
9.47364e-05
-2.57903e-05
0.000102504
-2.39122e-05
0.000110689
-2.1882e-05
0.000119725
-1.96751e-05
0.000129409
-1.72801e-05
0.00013985
-1.46832e-05
0.000151225
-1.18599e-05
0.000163365
-8.80046e-06
0.000176648
-5.47356e-06
0.000190818
-1.87082e-06
0.000206257
2.03407e-06
0.000222811
6.26489e-06
0.000240682
1.08501e-05
0.000259989
1.58276e-05
0.000280585
2.12135e-05
0.000302893
2.70416e-05
0.000326737
3.33468e-05
0.000352193
4.01562e-05
0.00037947
4.75045e-05
0.000408476
5.54301e-05
0.000439142
6.39634e-05
0.000471541
7.31342e-05
0.000505538
8.29718e-05
0.000540918
9.34975e-05
0.000577394
0.000104729
0.000614547
0.000116666
0.000651785
0.0001293
0.000688302
0.000142594
0.000723018
0.000156485
0.000754526
0.000170895
0.000780977
0.000185646
0.000800066
0.00020056
0.000808843
0.000215375
0.00080367
0.00022976
0.000780021
0.000243258
0.000732726
0.000255285
0.000654969
0.00026543
0.000541161
0.000387142
0.000273013
-4.41177e-05
1.79606e-05
4.44296e-05
-4.37768e-05
1.94292e-05
-4.34103e-05
2.10188e-05
-4.30116e-05
2.27396e-05
-4.25841e-05
2.46022e-05
-4.21207e-05
2.66179e-05
-4.16247e-05
2.87994e-05
-4.10886e-05
3.11604e-05
-4.05148e-05
3.37034e-05
-3.98942e-05
3.64539e-05
-3.923e-05
3.94385e-05
-3.85119e-05
4.26669e-05
-3.77422e-05
4.61593e-05
-3.69073e-05
4.99025e-05
-3.60082e-05
5.39398e-05
-3.50342e-05
5.83559e-05
-3.39868e-05
6.31347e-05
-3.28461e-05
6.82088e-05
-3.16149e-05
7.37391e-05
-3.02801e-05
7.97825e-05
-2.88354e-05
8.62064e-05
-2.72635e-05
9.31678e-05
-2.55683e-05
0.000100808
-2.37185e-05
0.000108842
-2.17196e-05
0.000117725
-1.95475e-05
0.000127239
-1.71909e-05
0.000137493
-1.46362e-05
0.000148671
-1.18595e-05
0.000160589
-8.8509e-06
0.000173641
-5.58028e-06
0.00018755
-2.03787e-06
0.000202717
1.79957e-06
0.000218969
5.95852e-06
0.000236518
1.04647e-05
0.000255479
1.53563e-05
0.000275692
2.06491e-05
0.0002976
2.6376e-05
0.000321009
3.25714e-05
0.000345996
3.92619e-05
0.000372777
4.64815e-05
0.000401251
5.4268e-05
0.00043135
6.26511e-05
0.00046315
7.16601e-05
0.000496518
8.13234e-05
0.000531242
9.1662e-05
0.000567039
0.000102693
0.000603498
0.000114416
0.000640039
0.000126821
0.000675872
0.000139873
0.000709938
0.00015351
0.000740859
0.000167655
0.000766819
0.000182138
0.000785561
0.000196781
0.000794176
0.000211336
0.000789097
0.000225472
0.000765881
0.000238751
0.000719443
0.0002506
0.000643142
0.000260601
0.000531198
0.000379628
0.000268199
-4.37124e-05
1.76552e-05
4.40192e-05
-4.33778e-05
1.90973e-05
-4.3018e-05
2.06588e-05
-4.26252e-05
2.23495e-05
-4.22037e-05
2.41801e-05
-4.17452e-05
2.6162e-05
-4.12541e-05
2.83076e-05
-4.07217e-05
3.06306e-05
-4.0152e-05
3.31325e-05
-3.95344e-05
3.5839e-05
-3.88744e-05
3.87769e-05
-3.81594e-05
4.1955e-05
-3.73952e-05
4.5393e-05
-3.6565e-05
4.90755e-05
-3.56737e-05
5.30462e-05
-3.47073e-05
5.73927e-05
-3.36706e-05
6.2096e-05
-3.25414e-05
6.70829e-05
-3.13246e-05
7.25207e-05
-3.00056e-05
7.84669e-05
-2.85796e-05
8.47793e-05
-2.70288e-05
9.16203e-05
-2.53574e-05
9.9136e-05
-2.35346e-05
0.000107022
-2.15656e-05
0.000115755
-1.94269e-05
0.000125102
-1.71072e-05
0.000135173
-1.45936e-05
0.000146158
-1.18618e-05
0.000157858
-8.90299e-06
0.000170684
-5.68655e-06
0.000184338
-2.20446e-06
0.000199236
1.5688e-06
0.000215194
5.65623e-06
0.000232424
1.00853e-05
0.000251046
1.48926e-05
0.000270884
2.00937e-05
0.000292399
2.5721e-05
0.000315381
3.18082e-05
0.000339907
3.83814e-05
0.000366201
4.54739e-05
0.000394155
5.31229e-05
0.000423697
6.13574e-05
0.000454911
7.02061e-05
0.000487666
7.96967e-05
0.000521748
8.98498e-05
0.000556883
0.000100682
0.000592665
0.000112192
0.000628527
0.000124372
0.000663695
0.000137185
0.000697127
0.000150572
0.000727474
0.000164459
0.000752953
0.00017868
0.000771341
0.000193062
0.000779786
0.000207365
0.000774775
0.000221263
0.000751968
0.000234332
0.000706338
0.000246008
0.000631442
0.000255835
0.000521306
0.000372005
0.000263349
-4.329e-05
1.73576e-05
4.35871e-05
-4.29643e-05
1.87735e-05
-4.26132e-05
2.03068e-05
-4.2229e-05
2.19673e-05
-4.18155e-05
2.37657e-05
-4.13648e-05
2.57134e-05
-4.08805e-05
2.78227e-05
-4.03549e-05
3.01072e-05
-3.97909e-05
3.25676e-05
-3.91795e-05
3.52298e-05
-3.85245e-05
3.81209e-05
-3.7816e-05
4.12487e-05
-3.70569e-05
4.46327e-05
-3.62342e-05
4.82552e-05
-3.53495e-05
5.21604e-05
-3.43924e-05
5.64384e-05
-3.3365e-05
6.10676e-05
-3.2248e-05
6.5969e-05
-3.10444e-05
7.13163e-05
-2.97414e-05
7.71673e-05
-2.83332e-05
8.33703e-05
-2.68029e-05
9.00933e-05
-2.51545e-05
9.74869e-05
-2.33578e-05
0.000105228
-2.14178e-05
0.000113815
-1.93116e-05
0.000122998
-1.70279e-05
0.000132889
-1.45539e-05
0.000143685
-1.18664e-05
0.000155171
-8.95572e-06
0.000167775
-5.79294e-06
0.000181178
-2.36844e-06
0.000195815
1.34015e-06
0.000211482
5.35853e-06
0.0002284
9.71156e-06
0.000246689
1.44359e-05
0.000266159
1.95468e-05
0.000287288
2.50759e-05
0.000309851
3.10564e-05
0.000333925
3.75138e-05
0.00035974
4.44808e-05
0.000387184
5.19938e-05
0.000416178
6.00813e-05
0.000446816
6.87713e-05
0.000478966
7.8091e-05
0.000512417
8.80604e-05
0.000546898
9.86956e-05
0.000582013
0.000109996
0.000617205
0.000121952
0.000651715
0.000134531
0.000684523
0.000147674
0.000714302
0.000161308
0.000739305
0.000175275
0.000757353
0.000189405
0.000765635
0.000203465
0.000760699
0.000217134
0.000738294
0.00023
0.00069347
0.000241506
0.000619959
0.000251147
0.000511705
0.000364716
0.000258521
-4.28418e-05
1.70684e-05
4.31316e-05
-4.25247e-05
1.84587e-05
-4.21827e-05
1.99643e-05
-4.18084e-05
2.1595e-05
-4.14046e-05
2.33614e-05
-4.09639e-05
2.52748e-05
-4.04894e-05
2.73476e-05
-3.99732e-05
2.95932e-05
-3.94183e-05
3.20117e-05
-3.88154e-05
3.46293e-05
-3.8169e-05
3.74732e-05
-3.74682e-05
4.05507e-05
-3.67178e-05
4.38807e-05
-3.59031e-05
4.74435e-05
-3.50282e-05
5.12836e-05
-3.40806e-05
5.54941e-05
-3.30647e-05
6.00501e-05
-3.19598e-05
6.48674e-05
-3.07705e-05
7.01257e-05
-2.94832e-05
7.58833e-05
-2.8093e-05
8.19791e-05
-2.6583e-05
8.85865e-05
-2.49572e-05
9.58604e-05
-2.3186e-05
0.00010346
-2.12745e-05
0.000111903
-1.92e-05
0.000120925
-1.69515e-05
0.000130641
-1.45166e-05
0.000141251
-1.18719e-05
0.000152527
-9.00891e-06
0.000164913
-5.89801e-06
0.000178071
-2.53147e-06
0.00019245
1.11538e-06
0.000207833
5.06475e-06
0.000224445
9.3432e-06
0.000242407
1.39859e-05
0.000261516
1.90077e-05
0.000282266
2.44399e-05
0.000304418
3.0315e-05
0.000328048
3.66579e-05
0.000353395
4.35009e-05
0.000380338
5.08794e-05
0.000408796
5.88216e-05
0.000438871
6.73548e-05
0.000470429
7.65056e-05
0.000503263
8.62936e-05
0.000537107
9.67347e-05
0.000571572
0.000107828
0.000606112
0.000119566
0.000639981
0.000131914
0.000672178
0.000144819
0.000701403
0.000158208
0.000725938
0.000171928
0.000743637
0.000185814
0.000751744
0.000199639
0.000746859
0.000213087
0.000724834
0.000225755
0.000680771
0.000237095
0.000608595
0.000246553
0.000502182
0.000357394
0.000253762
-4.23695e-05
1.67868e-05
4.26495e-05
-4.20618e-05
1.81523e-05
-4.17294e-05
1.9631e-05
-4.13654e-05
2.12324e-05
-4.09721e-05
2.29672e-05
-4.05423e-05
2.48467e-05
-4.00784e-05
2.68832e-05
-3.95734e-05
2.909e-05
-3.90289e-05
3.14667e-05
-3.84372e-05
3.40395e-05
-3.78007e-05
3.68362e-05
-3.71112e-05
3.98632e-05
-3.63704e-05
4.31394e-05
-3.55673e-05
4.66426e-05
-3.47024e-05
5.04183e-05
-3.37673e-05
5.45616e-05
-3.2763e-05
5.90454e-05
-3.16723e-05
6.37798e-05
-3.04975e-05
6.89504e-05
-2.9227e-05
7.46161e-05
-2.7855e-05
8.06066e-05
-2.63657e-05
8.71004e-05
-2.47626e-05
9.42567e-05
-2.3017e-05
0.000101717
-2.11337e-05
0.000110019
-1.90905e-05
0.000118884
-1.68768e-05
0.000128427
-1.44801e-05
0.000138855
-1.18781e-05
0.000149926
-9.06148e-06
0.000162098
-6.00237e-06
0.000175016
-2.69138e-06
0.000189142
8.9293e-07
0.000204245
4.77542e-06
0.000220557
8.98002e-06
0.000238199
1.35421e-05
0.000256953
1.84761e-05
0.000277332
2.38126e-05
0.000299081
2.95836e-05
0.000322275
3.58136e-05
0.000347162
4.2534e-05
0.000373613
4.97799e-05
0.000401545
5.75786e-05
0.000431065
6.59572e-05
0.000462041
7.49415e-05
0.000494268
8.4551e-05
0.000527483
9.48013e-05
0.000561306
0.000105692
0.000595201
0.000117215
0.000628435
0.000129339
0.000660029
0.000142012
0.000688703
0.000155162
0.000712773
0.000168644
0.000730135
0.000182293
0.000738074
0.000195889
0.000733248
0.000209123
0.000711595
0.000221598