/*--------------------------------*- C++ -*----------------------------------*\
  =========                 |
  \\      /  F ield         | OpenFOAM: The Open Source CFD Toolbox
   \\    /   O peration     | Website:  https://openfoam.org
    \\  /    A nd           | Version:  6.0
     \\/     M anipulation  |
\*---------------------------------------------------------------------------*/
FoamFile
{
    version     2.0;
    format      ascii;
    class       volVectorField;
    location    "19";
    object      U;
}
// * * * * * * * * * * * * * * * * * * * * * * * * * * * * * * * * * * * * * //

dimensions      [0 1 -1 0 0 0 0];

internalField   nonuniform List<vector> 
62000
(
(0.984725 0.173689 -2.68179e-21)
(0.984733 0.173696 2.25275e-21)
(0.984741 0.173702 2.34455e-21)
(0.984748 0.173709 -1.04114e-20)
(0.984753 0.173716 -1.20771e-20)
(0.984758 0.173725 4.21767e-20)
(0.984761 0.173734 -4.701e-20)
(0.984763 0.173743 2.76711e-20)
(0.984765 0.173753 -1.31744e-20)
(0.984765 0.173764 -6.83674e-20)
(0.984765 0.173775 -9.12746e-21)
(0.984764 0.173787 9.81634e-20)
(0.984763 0.173798 2.04325e-20)
(0.984762 0.17381 -7.23763e-20)
(0.984761 0.17382 1.14771e-19)
(0.98476 0.173831 -6.16325e-20)
(0.984759 0.173841 6.52513e-20)
(0.984759 0.17385 -7.74194e-20)
(0.984759 0.173858 3.90167e-20)
(0.984759 0.173866 -1.22338e-19)
(0.98476 0.173872 1.62016e-19)
(0.98476 0.173878 4.93658e-20)
(0.984761 0.173884 7.27466e-20)
(0.984762 0.173889 -3.30472e-19)
(0.984763 0.173893 1.22977e-19)
(0.984764 0.173897 -7.79477e-20)
(0.984765 0.173901 -1.64936e-21)
(0.984766 0.173904 -6.58795e-20)
(0.984766 0.173905 2.05403e-19)
(0.984766 0.173905 -1.17912e-19)
(0.984765 0.173902 2.88128e-19)
(0.984765 0.173899 -6.04538e-19)
(0.984763 0.173897 5.62026e-20)
(0.984758 0.173898 -2.03794e-19)
(0.98475 0.173898 -6.66768e-20)
(0.984739 0.173893 -2.07576e-19)
(0.984726 0.173883 -6.54236e-20)
(0.98471 0.173868 -6.88849e-20)
(0.984688 0.173852 2.03023e-19)
(0.984658 0.173833 9.66169e-19)
(0.984618 0.173812 -2.36233e-19)
(0.984566 0.173786 -1.38425e-18)
(0.984497 0.173754 -2.2457e-18)
(0.984408 0.17371 1.24954e-18)
(0.984294 0.173646 3.80442e-19)
(0.984151 0.173553 -1.88776e-18)
(0.983973 0.173415 4.5248e-19)
(0.983759 0.173213 -8.31731e-19)
(0.983504 0.172928 -4.04075e-18)
(0.98321 0.172536 -9.74491e-19)
(0.982877 0.172013 -5.17711e-19)
(0.982517 0.171323 -6.95869e-18)
(0.982153 0.17044 9.7602e-19)
(0.981799 0.169326 8.20168e-18)
(0.981489 0.167918 2.16504e-18)
(0.981262 0.166137 7.3954e-18)
(0.981183 0.163754 -8.57285e-19)
(0.981248 0.160662 -1.38243e-18)
(0.981865 0.154636 3.16032e-18)
(0.963904 0.139182 6.21278e-19)
(0.984658 0.174062 -7.15655e-22)
(0.984661 0.174064 6.92503e-21)
(0.984668 0.174072 2.91816e-21)
(0.984678 0.174077 -1.26087e-20)
(0.984689 0.174083 5.30518e-21)
(0.984701 0.174088 -3.71786e-20)
(0.984713 0.174094 3.44261e-20)
(0.984725 0.174101 2.02817e-20)
(0.984735 0.174109 -3.84087e-20)
(0.984743 0.174117 1.61407e-21)
(0.984749 0.174127 3.83664e-20)
(0.984752 0.174137 2.03079e-22)
(0.984754 0.174148 1.15149e-20)
(0.984753 0.174161 -9.92236e-20)
(0.984751 0.174173 2.02573e-19)
(0.984747 0.174186 -1.81538e-19)
(0.984743 0.174199 8.66879e-20)
(0.984738 0.174212 -1.83826e-20)
(0.984733 0.174225 -5.15706e-20)
(0.984728 0.174238 1.45412e-19)
(0.984724 0.17425 -2.3294e-19)
(0.984721 0.174262 1.37624e-19)
(0.984718 0.174274 -1.79062e-19)
(0.984715 0.174284 1.07703e-19)
(0.984713 0.174294 1.02571e-19)
(0.984711 0.174303 -6.8637e-20)
(0.98471 0.174312 -1.05626e-21)
(0.984707 0.174318 7.85671e-20)
(0.984704 0.174323 6.78953e-20)
(0.984699 0.174324 -1.44812e-19)
(0.984695 0.174324 2.98691e-19)
(0.984692 0.17432 6.36773e-20)
(0.984687 0.174317 1.96748e-19)
(0.984678 0.174313 1.61518e-20)
(0.98466 0.174307 5.63102e-20)
(0.984634 0.174298 -6.06365e-20)
(0.984604 0.174284 -1.90825e-19)
(0.984568 0.174268 -9.26281e-20)
(0.984521 0.174252 -5.42554e-19)
(0.984458 0.174237 -6.37717e-19)
(0.984375 0.17422 5.02011e-19)
(0.984266 0.174197 3.07074e-19)
(0.984125 0.174157 2.35068e-18)
(0.983947 0.17409 1.41136e-19)
(0.983724 0.173976 -3.81453e-18)
(0.983451 0.173792 1.56774e-18)
(0.983122 0.173511 1.36891e-18)
(0.982734 0.173105 1.64657e-18)
(0.982284 0.172544 3.88484e-19)
(0.981769 0.171797 8.05355e-20)
(0.981194 0.170816 3.09443e-18)
(0.980574 0.169553 8.65901e-18)
(0.979966 0.167946 -5.98869e-18)
(0.979418 0.165964 -1.47291e-17)
(0.978977 0.163517 -3.59348e-18)
(0.978706 0.160585 -2.48819e-18)
(0.978722 0.156759 -5.77333e-18)
(0.978656 0.152216 -2.87277e-18)
(0.980281 0.143854 4.63579e-18)
(0.958327 0.125408 1.89637e-18)
(0.984677 0.174822 -3.45333e-21)
(0.984659 0.174805 -4.96758e-22)
(0.984645 0.174806 5.43212e-22)
(0.984635 0.174803 2.51813e-21)
(0.98463 0.174799 7.23467e-21)
(0.98463 0.174796 -6.92952e-21)
(0.984636 0.174793 3.75381e-20)
(0.984645 0.17479 -1.80269e-20)
(0.984657 0.174786 -9.83266e-21)
(0.984671 0.174782 -6.15923e-20)
(0.984686 0.174779 5.25307e-20)
(0.984699 0.174775 3.92785e-21)
(0.984711 0.174771 -1.24488e-20)
(0.984721 0.174768 3.35542e-20)
(0.984728 0.174765 -5.8277e-20)
(0.984732 0.174763 2.40573e-22)
(0.984734 0.174762 -2.78845e-20)
(0.984733 0.174761 1.69294e-22)
(0.984731 0.174762 6.65598e-20)
(0.984727 0.174763 -1.0341e-19)
(0.984721 0.174766 6.53899e-20)
(0.984715 0.17477 2.61414e-19)
(0.984709 0.174776 -3.33672e-20)
(0.984701 0.174782 -3.76943e-19)
(0.984693 0.174789 1.96898e-19)
(0.984684 0.174796 -1.10264e-19)
(0.984676 0.174804 1.82761e-19)
(0.984664 0.174811 -1.12172e-19)
(0.984653 0.174818 -2.30196e-19)
(0.984638 0.174821 2.51591e-19)
(0.984625 0.174823 -1.81852e-19)
(0.984612 0.174823 2.49756e-19)
(0.984601 0.174824 -6.98404e-19)
(0.984585 0.174828 6.19212e-19)
(0.984557 0.174832 -3.29631e-19)
(0.984522 0.174833 1.34239e-19)
(0.984484 0.174831 1.01823e-19)
(0.984442 0.174829 -9.65349e-21)
(0.984392 0.174829 -3.08285e-20)
(0.984327 0.17483 6.51575e-19)
(0.984245 0.174828 -2.64221e-19)
(0.984139 0.174815 4.19588e-19)
(0.984007 0.17478 -1.51082e-18)
(0.983843 0.174707 -7.60104e-19)
(0.983645 0.174577 8.66707e-19)
(0.983408 0.174367 -2.95509e-18)
(0.98313 0.174056 4.21786e-19)
(0.98281 0.173624 -2.74151e-18)
(0.982442 0.173048 3.97618e-18)
(0.982019 0.172314 1.07554e-18)
(0.981547 0.171361 5.21673e-19)
(0.98103 0.170153 -2.27267e-19)
(0.980544 0.168625 2.48856e-18)
(0.980142 0.166764 5.81441e-19)
(0.979861 0.164523 -5.11523e-18)
(0.979723 0.161964 -2.98601e-18)
(0.979906 0.158762 -1.97178e-18)
(0.979498 0.15528 -6.58327e-18)
(0.981575 0.149844 -5.89249e-19)
(0.964948 0.140804 6.25151e-19)
(0.984716 0.175542 -3.43389e-21)
(0.984701 0.175519 1.05873e-20)
(0.984681 0.175514 -1.62603e-21)
(0.984658 0.17551 -1.10802e-20)
(0.984635 0.175508 1.68449e-20)
(0.984613 0.175507 2.93479e-20)
(0.984596 0.175508 -3.85554e-20)
(0.984584 0.175509 4.23378e-21)
(0.984578 0.175509 1.36726e-20)
(0.984578 0.175509 2.87893e-20)
(0.984583 0.175507 -5.36142e-20)
(0.984592 0.175504 -1.67782e-20)
(0.984604 0.175499 -1.90237e-20)
(0.984617 0.175493 8.73817e-20)
(0.98463 0.175485 -5.90311e-20)
(0.984642 0.175476 1.40042e-19)
(0.984653 0.175466 -1.71716e-19)
(0.984661 0.175456 -2.58705e-20)
(0.984667 0.175446 1.86548e-19)
(0.98467 0.175437 -6.57087e-20)
(0.984671 0.175429 -2.44433e-20)
(0.984669 0.175423 -2.6712e-20)
(0.984665 0.175418 -2.4793e-19)
(0.984658 0.175415 1.43529e-19)
(0.984649 0.175415 -6.75534e-20)
(0.984638 0.175415 1.09341e-19)
(0.984625 0.175419 5.22016e-20)
(0.984608 0.175421 2.64791e-19)
(0.98459 0.175426 -1.68195e-19)
(0.984566 0.175427 -2.25843e-19)
(0.984545 0.175428 3.64603e-19)
(0.984523 0.175427 -3.04286e-19)
(0.984504 0.175432 5.67576e-19)
(0.98448 0.175442 -3.43643e-19)
(0.984443 0.175453 1.40793e-19)
(0.984399 0.175459 2.42633e-19)
(0.984354 0.175461 -1.04873e-19)
(0.984307 0.175461 1.32374e-19)
(0.984254 0.17546 -6.49937e-20)
(0.984189 0.175456 1.99826e-19)
(0.98411 0.175444 -5.699e-19)
(0.984014 0.175413 1.59802e-19)
(0.983897 0.175353 3.51585e-19)
(0.983757 0.175247 8.74019e-19)
(0.983592 0.175078 1.18692e-18)
(0.983402 0.174828 2.98814e-19)
(0.983184 0.174482 1.92495e-18)
(0.982938 0.17403 2.16154e-18)
(0.982656 0.173455 2.53399e-18)
(0.982326 0.17275 -1.889e-18)
(0.981954 0.171843 -2.68753e-18)
(0.981527 0.17069 1.71615e-18)
(0.981131 0.169221 2.29982e-18)
(0.980807 0.167412 6.19262e-18)
(0.980597 0.165228 4.07581e-18)
(0.980471 0.162757 6.19472e-18)
(0.980713 0.159748 1.13152e-17)
(0.979983 0.156559 -5.17664e-19)
(0.982099 0.152644 -5.90878e-18)
(0.96906 0.146799 -4.41023e-18)
(0.984673 0.176184 6.60901e-21)
(0.984694 0.176155 -2.22089e-21)
(0.984703 0.176142 3.75231e-21)
(0.984702 0.176133 -5.3266e-21)
(0.98469 0.176129 1.20478e-20)
(0.984671 0.176129 -5.98192e-21)
(0.984647 0.176133 3.2746e-21)
(0.984621 0.17614 -4.88611e-20)
(0.984597 0.176148 4.12081e-20)
(0.984575 0.176158 -8.32265e-20)
(0.984559 0.176167 9.22288e-20)
(0.984548 0.176175 -1.12192e-20)
(0.984542 0.176181 -2.51223e-20)
(0.984541 0.176185 -1.1714e-20)
(0.984544 0.176186 -2.645e-21)
(0.98455 0.176184 -1.20576e-19)
(0.984557 0.17618 4.7375e-21)
(0.984566 0.176173 1.33782e-19)
(0.984574 0.176165 -4.4257e-20)
(0.98458 0.176155 -4.75523e-20)
(0.984585 0.176145 8.02909e-20)
(0.984587 0.176135 -4.09518e-20)
(0.984587 0.176126 1.73535e-19)
(0.984583 0.176118 9.78749e-20)
(0.984576 0.176112 7.68253e-20)
(0.984565 0.176106 -2.37033e-19)
(0.984551 0.176104 -3.4035e-20)
(0.984532 0.176101 -1.94149e-19)
(0.98451 0.176101 3.63776e-20)
(0.984482 0.176096 -6.86491e-20)
(0.984455 0.176092 -2.76121e-20)
(0.984427 0.176085 2.26901e-19)
(0.984401 0.176087 -5.69194e-19)
(0.984369 0.176095 -2.57679e-20)
(0.984323 0.176101 -2.88199e-19)
(0.984271 0.1761 -1.40247e-19)
(0.984217 0.17609 3.80864e-20)
(0.984162 0.176075 -4.53773e-19)
(0.984101 0.176054 6.98712e-19)
(0.984031 0.176025 1.16749e-19)
(0.983949 0.175981 7.75769e-19)
(0.983851 0.175913 -5.74595e-19)
(0.983735 0.175808 -3.9212e-19)
(0.9836 0.175652 -1.53938e-19)
(0.983444 0.17543 8.67138e-19)
(0.98327 0.175127 1.28596e-18)
(0.983074 0.174732 3.1236e-19)
(0.982857 0.174239 5.48814e-19)
(0.982614 0.173634 -9.08058e-19)
(0.982327 0.172911 4.81735e-18)
(0.982007 0.171992 1.22487e-18)
(0.981626 0.170822 -1.30288e-18)
(0.981265 0.169317 2.3368e-19)
(0.980956 0.167434 4.52783e-18)
(0.980739 0.165121 -1.02646e-19)
(0.980549 0.162449 -4.94406e-18)
(0.980787 0.159201 -1.09873e-17)
(0.979858 0.155703 1.01277e-17)
(0.981683 0.151971 -5.67607e-18)
(0.971588 0.146374 4.98111e-18)
(0.984515 0.176928 -2.48524e-21)
(0.984555 0.176887 1.00931e-20)
(0.984593 0.176861 -1.67396e-20)
(0.984626 0.176836 1.25886e-20)
(0.984649 0.176816 8.2464e-21)
(0.98466 0.176802 -8.79044e-21)
(0.98466 0.176793 7.50148e-22)
(0.98465 0.176789 -6.73281e-21)
(0.984633 0.176791 -2.29332e-20)
(0.984611 0.176796 4.43259e-20)
(0.984588 0.176804 -6.952e-20)
(0.984565 0.176814 6.13735e-20)
(0.984544 0.176825 5.49092e-20)
(0.984527 0.176834 -8.55626e-20)
(0.984515 0.176843 -2.84639e-20)
(0.984507 0.176849 1.07512e-19)
(0.984502 0.176853 -1.31804e-19)
(0.984501 0.176854 1.84587e-19)
(0.984502 0.176854 -3.4963e-20)
(0.984504 0.17685 2.09964e-20)
(0.984506 0.176846 -3.30295e-20)
(0.984506 0.17684 -4.24065e-20)
(0.984505 0.176835 -8.08354e-20)
(0.984501 0.176827 1.42019e-19)
(0.984494 0.176822 -9.85948e-20)
(0.984482 0.176814 -9.89679e-20)
(0.984466 0.17681 2.06356e-19)
(0.984444 0.176803 -2.02632e-19)
(0.984419 0.176798 3.28035e-19)
(0.984387 0.176788 -1.77442e-19)
(0.984356 0.176776 1.39972e-19)
(0.984322 0.17676 -2.41839e-19)
(0.98429 0.176754 2.62599e-19)
(0.984249 0.176752 -2.10198e-20)
(0.984196 0.176745 -1.24535e-20)
(0.984134 0.176726 -6.03048e-21)
(0.984072 0.176694 -1.4206e-19)
(0.984008 0.176654 4.03153e-19)
(0.983939 0.176604 -3.10386e-19)
(0.983862 0.176541 -1.7982e-18)
(0.983773 0.17646 -7.62237e-19)
(0.98367 0.17635 5.43688e-19)
(0.98355 0.1762 -6.12974e-19)
(0.983413 0.175996 -6.83201e-19)
(0.983258 0.175726 -5.96487e-20)
(0.983087 0.175374 1.78184e-18)
(0.982902 0.174934 -2.6533e-18)
(0.982704 0.1744 -2.74067e-18)
(0.982495 0.173761 -1.86898e-18)
(0.982258 0.17302 -3.22004e-18)
(0.982011 0.172098 2.11177e-18)
(0.981715 0.170948 -8.56581e-19)
(0.981443 0.169485 -7.16731e-18)
(0.981206 0.167657 1.32912e-18)
(0.981035 0.165397 2.1962e-18)
(0.980825 0.162742 -4.04395e-18)
(0.981069 0.1595 3.13427e-18)
(0.98005 0.155953 2.50433e-18)
(0.981334 0.152554 9.23993e-18)
(0.974069 0.148174 -2.13311e-19)
(0.984376 0.177719 2.88756e-21)
(0.984382 0.177673 -1.31008e-20)
(0.984406 0.177641 6.41669e-21)
(0.98444 0.177607 1.20956e-20)
(0.984479 0.177574 -2.61686e-20)
(0.984516 0.177545 2.21018e-20)
(0.984546 0.17752 -1.48845e-20)
(0.984568 0.1775 1.27331e-20)
(0.984579 0.177485 2.05674e-20)
(0.984581 0.177475 -4.98951e-20)
(0.984574 0.177471 7.28156e-20)
(0.984562 0.17747 3.14595e-20)
(0.984546 0.177474 -1.25678e-19)
(0.984528 0.177479 -2.40839e-20)
(0.98451 0.177486 6.82564e-20)
(0.984495 0.177493 4.47664e-20)
(0.984481 0.177501 -5.46778e-20)
(0.98447 0.177507 4.8887e-20)
(0.984462 0.177513 7.70141e-20)
(0.984455 0.177517 -3.70514e-20)
(0.984449 0.177521 -2.15766e-20)
(0.984444 0.177522 7.98532e-20)
(0.984437 0.177522 1.67535e-19)
(0.984428 0.177521 -1.20523e-19)
(0.984416 0.177519 -1.37486e-19)
(0.9844 0.177514 1.55375e-19)
(0.98438 0.177511 -1.2112e-19)
(0.984353 0.177503 -5.16163e-20)
(0.984323 0.177496 4.28354e-19)
(0.984286 0.177481 -1.91375e-19)
(0.984248 0.177463 -1.527e-19)
(0.984208 0.177437 2.01915e-19)
(0.984169 0.17742 1.42093e-19)
(0.984119 0.177403 -1.26636e-19)
(0.984056 0.177378 -8.59026e-20)
(0.983985 0.177337 2.77582e-19)
(0.983912 0.17728 6.17913e-20)
(0.983837 0.17721 9.30454e-20)
(0.983758 0.177129 -5.07545e-19)
(0.983671 0.177032 -5.03541e-19)
(0.983571 0.176912 9.69453e-19)
(0.983457 0.176762 7.85752e-19)
(0.983326 0.176569 1.33559e-18)
(0.983177 0.176319 -1.24528e-18)
(0.983009 0.176001 -1.40661e-18)
(0.982827 0.175596 -9.47223e-19)
(0.982635 0.175099 2.37529e-18)
(0.982439 0.174505 2.38061e-18)
(0.98225 0.173804 -2.70667e-18)
(0.982054 0.173008 -4.08298e-18)
(0.981881 0.172055 -7.37618e-19)
(0.981691 0.170912 8.57543e-19)
(0.981545 0.169517 9.01115e-20)
(0.981434 0.167824 -2.53133e-18)
(0.981375 0.165763 2.24383e-18)
(0.981209 0.163331 1.35849e-18)
(0.981491 0.160347 2.03683e-18)
(0.980491 0.156994 -7.89126e-18)
(0.981183 0.154138 -5.73362e-19)
(0.975819 0.151008 2.60171e-20)
(0.984445 0.178356 -4.78413e-21)
(0.984383 0.178326 -3.85769e-21)
(0.98435 0.178307 5.24666e-21)
(0.98434 0.178284 1.87814e-20)
(0.98435 0.178259 -4.07878e-20)
(0.984373 0.178234 4.70679e-20)
(0.984405 0.178211 -2.06809e-21)
(0.984439 0.178189 -2.92311e-21)
(0.98447 0.17817 -1.72741e-20)
(0.984495 0.178155 4.24846e-20)
(0.984512 0.178143 -6.60621e-20)
(0.98452 0.178136 2.51388e-20)
(0.984521 0.178133 -8.58267e-22)
(0.984516 0.178133 4.04924e-20)
(0.984506 0.178136 1.96942e-20)
(0.984493 0.178141 -1.04872e-19)
(0.984478 0.178149 9.2102e-20)
(0.984463 0.178156 3.70278e-20)
(0.984448 0.178166 -1.07282e-19)
(0.984433 0.178174 5.31449e-20)
(0.984418 0.178183 2.5404e-20)
(0.984403 0.178191 -1.63881e-20)
(0.984387 0.178198 2.23037e-20)
(0.984369 0.178202 -1.20621e-20)
(0.984349 0.178206 -1.49201e-19)
(0.984325 0.178206 1.00109e-19)
(0.984296 0.178205 -1.55702e-19)
(0.984262 0.178198 2.91866e-19)
(0.984224 0.17819 -5.46805e-20)
(0.984179 0.178171 -3.35201e-20)
(0.984133 0.178146 -8.86679e-21)
(0.984085 0.178111 3.36339e-19)
(0.984036 0.178082 -1.3513e-19)
(0.983975 0.17805 -8.26436e-20)
(0.9839 0.178005 2.14964e-19)
(0.983817 0.177941 1.85695e-19)
(0.983731 0.177858 -3.10782e-19)
(0.983642 0.17776 5.55482e-20)
(0.983547 0.177647 6.09439e-19)
(0.983443 0.177516 -5.60204e-20)
(0.983325 0.17736 3.98182e-19)
(0.98319 0.177169 -5.84849e-19)
(0.983033 0.176933 8.87881e-19)
(0.982855 0.176634 1.97198e-18)
(0.982652 0.176259 5.85945e-19)
(0.982432 0.175786 -8.1832e-19)
(0.982197 0.175204 -2.58176e-18)
(0.98196 0.174505 5.18838e-19)
(0.981738 0.173678 8.31881e-19)
(0.981527 0.172743 1.75144e-18)
(0.981371 0.171652 -1.5828e-19)
(0.981233 0.170398 -3.56126e-18)
(0.981173 0.168948 3.13293e-18)
(0.981167 0.167276 -2.13846e-18)
(0.981223 0.165324 4.31234e-18)
(0.981135 0.163049 1.04599e-18)
(0.981493 0.160282 4.70898e-18)
(0.980655 0.157068 6.20911e-18)
(0.980941 0.154605 9.87914e-19)
(0.976443 0.152049 1.3384e-18)
(0.984775 0.178774 -2.29008e-21)
(0.984667 0.178766 1.97588e-21)
(0.984576 0.178767 1.0016e-20)
(0.984504 0.17877 1.59891e-20)
(0.984455 0.178771 -4.7516e-20)
(0.984429 0.178772 2.75306e-20)
(0.984423 0.178773 -4.97766e-20)
(0.984431 0.178772 7.84519e-20)
(0.984449 0.178772 -3.70442e-20)
(0.98447 0.178772 6.6126e-21)
(0.984491 0.178773 7.3183e-20)
(0.984509 0.178776 -1.67828e-19)
(0.98452 0.17878 1.15446e-19)
(0.984525 0.178785 1.67098e-20)
(0.984523 0.178793 2.7233e-20)
(0.984515 0.178801 -1.1388e-19)
(0.984502 0.178812 5.66447e-20)
(0.984485 0.178823 -7.12495e-20)
(0.984464 0.178835 1.42616e-19)
(0.984441 0.178847 -1.81752e-20)
(0.984416 0.17886 -1.85374e-19)
(0.98439 0.178871 7.44357e-20)
(0.984361 0.178882 -4.16212e-21)
(0.984331 0.17889 -2.84613e-19)
(0.984297 0.178898 2.12355e-19)
(0.984261 0.1789 1.63169e-19)
(0.98422 0.1789 1.14145e-19)
(0.984174 0.178894 -1.48036e-19)
(0.984124 0.178884 -1.67671e-19)
(0.984068 0.178862 7.90028e-20)
(0.984012 0.17883 1.20034e-19)
(0.983952 0.178786 -1.50895e-19)
(0.983891 0.178744 -2.28797e-19)
(0.983816 0.178696 4.62557e-19)
(0.983727 0.178633 5.09651e-20)
(0.98363 0.178547 -7.01954e-19)
(0.983528 0.178439 5.85301e-20)
(0.983423 0.178314 4.74415e-19)
(0.983311 0.178172 4.32021e-20)
(0.983187 0.17801 6.34976e-19)
(0.983047 0.177821 -9.03712e-19)
(0.982886 0.177594 -6.09951e-20)
(0.982699 0.177317 -5.98164e-19)
(0.982483 0.17697 2.23197e-19)
(0.982234 0.176536 1.02191e-18)
(0.981958 0.175989 3.18078e-18)
(0.981658 0.175308 5.00722e-19)
(0.981347 0.174477 -2.19522e-18)
(0.98105 0.17348 1.73708e-18)
(0.980767 0.172338 6.36624e-18)
(0.980557 0.171017 -5.27668e-18)
(0.980392 0.169529 6.47695e-18)
(0.980342 0.167874 -4.03438e-18)
(0.980377 0.166052 -2.21412e-18)
(0.980508 0.164029 -8.86317e-18)
(0.980502 0.161739 -4.77763e-19)
(0.980968 0.159045 -2.82583e-18)
(0.980428 0.155885 -3.04729e-18)
(0.980595 0.153683 2.08897e-18)
(0.976677 0.151754 6.45355e-20)
(0.985223 0.179134 3.14822e-21)
(0.985132 0.179139 1.11065e-21)
(0.98503 0.179157 -1.15341e-20)
(0.984926 0.17918 1.10573e-20)
(0.98483 0.179206 -4.92973e-21)
(0.98475 0.179234 8.89607e-21)
(0.984689 0.179264 3.09723e-21)
(0.984646 0.179293 -4.51213e-20)
(0.984621 0.179322 1.96633e-20)
(0.984608 0.179349 -1.36068e-20)
(0.984604 0.179375 8.2184e-21)
(0.984604 0.1794 3.25152e-20)
(0.984605 0.179424 -6.0942e-21)
(0.984604 0.179446 2.03617e-20)
(0.984597 0.179467 -8.68026e-20)
(0.984586 0.179487 3.35576e-20)
(0.984568 0.179506 1.50095e-20)
(0.984545 0.179523 -4.16324e-20)
(0.984516 0.17954 8.33797e-20)
(0.984482 0.179556 2.81414e-20)
(0.984445 0.179572 -2.80622e-21)
(0.984404 0.179585 -3.08507e-20)
(0.98436 0.179597 1.26769e-19)
(0.984313 0.179606 -3.54123e-19)
(0.984263 0.179612 1.85012e-19)
(0.984209 0.179614 8.03165e-20)
(0.984152 0.179613 -1.37333e-19)
(0.98409 0.179603 2.47501e-19)
(0.984024 0.179589 -1.19917e-19)
(0.983954 0.179561 -6.51753e-20)
(0.983883 0.179521 -1.31053e-19)
(0.983809 0.179467 -5.491e-20)
(0.983732 0.179411 1.49191e-19)
(0.983642 0.179348 -4.53637e-19)
(0.983538 0.179266 8.49505e-19)
(0.983426 0.179159 -5.54782e-20)
(0.983311 0.179028 4.4352e-19)
(0.983192 0.178879 -1.12603e-18)
(0.983066 0.178711 -3.60052e-19)
(0.982928 0.178523 -8.7049e-22)
(0.982774 0.178306 -2.69807e-19)
(0.982597 0.178051 -4.18226e-20)
(0.982391 0.177743 -9.98843e-19)
(0.982152 0.177362 3.11096e-19)
(0.981874 0.176885 4.90838e-19)
(0.981559 0.17628 -2.93581e-18)
(0.981208 0.175521 3.80384e-18)
(0.980834 0.174579 5.96151e-19)
(0.980462 0.173431 1.07239e-19)
(0.980097 0.172094 -4.24609e-18)
(0.979805 0.170539 1.64144e-18)
(0.979573 0.168795 -3.43465e-18)
(0.979478 0.166884 6.56832e-18)
(0.979499 0.164838 1.53029e-18)
(0.979658 0.162656 -5.44061e-18)
(0.979718 0.160268 2.10315e-18)
(0.980294 0.157594 -5.8315e-18)
(0.980113 0.154532 -1.18965e-18)
(0.980379 0.152652 -7.95615e-18)
(0.977407 0.151985 -2.04176e-18)
(0.985544 0.179672 -6.91433e-22)
(0.985541 0.179668 -2.72646e-21)
(0.985495 0.179682 -2.38526e-21)
(0.985418 0.179707 2.31157e-20)
(0.985324 0.179739 -1.28792e-20)
(0.985224 0.179778 -1.55759e-20)
(0.985127 0.179823 -5.91471e-21)
(0.98504 0.179871 -2.44097e-20)
(0.984967 0.179921 1.52256e-20)
(0.984908 0.179971 2.14406e-21)
(0.984861 0.180019 7.0097e-22)
(0.984825 0.180066 6.7129e-20)
(0.984794 0.18011 -4.79347e-20)
(0.984767 0.180151 -6.05898e-21)
(0.984741 0.180188 5.62938e-20)
(0.984712 0.180221 -3.11784e-20)
(0.984679 0.180251 -1.22054e-20)
(0.984641 0.180277 1.99011e-20)
(0.984598 0.1803 6.53626e-20)
(0.984549 0.18032 3.71809e-20)
(0.984496 0.180337 1.48363e-20)
(0.984438 0.180349 -9.35364e-20)
(0.984375 0.180359 4.86308e-20)
(0.984309 0.180364 9.5977e-20)
(0.984238 0.180367 -1.99762e-19)
(0.984165 0.180362 6.61028e-20)
(0.984087 0.180354 -2.64238e-19)
(0.984006 0.180337 2.18382e-19)
(0.983921 0.180316 1.97375e-19)
(0.983833 0.180278 -3.06973e-19)
(0.983744 0.180227 -1.5046e-19)
(0.983653 0.18016 2.04166e-19)
(0.983559 0.180089 6.90113e-20)
(0.983452 0.180009 -1.92377e-19)
(0.983334 0.179908 -2.42397e-19)
(0.98321 0.17978 -2.89112e-19)
(0.983085 0.179627 1.75985e-19)
(0.982958 0.179454 4.27675e-19)
(0.982827 0.179263 1.4986e-19)
(0.982688 0.179053 -1.42988e-19)
(0.982535 0.178815 1.53563e-18)
(0.982363 0.178541 -1.48986e-19)
(0.982166 0.178216 1.64285e-18)
(0.981936 0.177819 -2.99057e-18)
(0.981666 0.177327 4.34436e-19)
(0.981356 0.176702 1.02503e-19)
(0.981002 0.175912 -3.04438e-19)
(0.980615 0.174922 -2.5066e-18)
(0.980215 0.173696 -4.30224e-18)
(0.979808 0.172249 3.96778e-18)
(0.979462 0.17055 5.39637e-18)
(0.97917 0.168634 2.86513e-18)
(0.979022 0.166543 -6.19156e-18)
(0.979002 0.164328 3.30752e-18)
(0.979153 0.162028 8.41274e-18)
(0.979246 0.159579 2.95908e-18)
(0.979891 0.156971 5.69003e-18)
(0.980035 0.154112 2.61972e-18)
(0.980468 0.152665 6.84471e-18)
(0.978877 0.153656 -4.3216e-18)
(0.985539 0.180556 8.84134e-22)
(0.985667 0.180526 -2.65983e-21)
(0.985731 0.180519 9.52484e-21)
(0.985741 0.180521 2.49504e-21)
(0.985708 0.180536 -1.31953e-20)
(0.985642 0.180561 -1.52786e-20)
(0.985557 0.180596 3.63324e-20)
(0.985462 0.180639 -3.98943e-20)
(0.985365 0.180688 -9.93043e-21)
(0.985274 0.18074 2.48716e-20)
(0.985189 0.180795 2.32631e-20)
(0.985114 0.180849 7.14324e-20)
(0.985046 0.180902 -4.01497e-20)
(0.984985 0.180951 -6.99816e-20)
(0.984927 0.180997 1.54525e-20)
(0.98487 0.181038 -5.8556e-20)
(0.984813 0.181075 4.39409e-20)
(0.984753 0.181105 -7.58119e-20)
(0.984689 0.181131 1.16467e-20)
(0.984621 0.181151 -2.60888e-20)
(0.984548 0.181166 -1.72594e-20)
(0.98447 0.181174 -7.31769e-20)
(0.984387 0.181179 5.06288e-21)
(0.9843 0.181176 1.5959e-19)
(0.984209 0.181169 -5.55954e-20)
(0.984114 0.181154 1.70925e-20)
(0.984015 0.181135 5.16797e-20)
(0.983912 0.181106 -7.19319e-20)
(0.983807 0.181071 -1.56316e-20)
(0.983699 0.181019 1.05865e-19)
(0.983591 0.180954 1.19188e-19)
(0.983481 0.18087 -9.06069e-20)
(0.98337 0.180781 -2.92314e-19)
(0.983246 0.180681 -4.15956e-19)
(0.983115 0.180559 6.33195e-19)
(0.982982 0.180407 1.71371e-19)
(0.982851 0.18023 1.06606e-19)
(0.982724 0.180033 5.5266e-19)
(0.982599 0.17982 -5.08449e-19)
(0.982471 0.179588 3.1641e-19)
(0.982337 0.179333 2.07994e-21)
(0.982192 0.179045 3.18765e-20)
(0.982029 0.178714 -5.98565e-19)
(0.981843 0.178318 1.36166e-18)
(0.981622 0.177836 -1.79201e-18)
(0.981364 0.177228 1.07946e-18)
(0.981064 0.17646 -3.17212e-18)
(0.980723 0.175492 1.03106e-18)
(0.980361 0.174282 2.23342e-18)
(0.979972 0.172836 -3.85448e-18)
(0.979625 0.171123 -1.31375e-18)
(0.979314 0.169173 -5.72441e-19)
(0.979131 0.167038 -8.13946e-19)
(0.97907 0.16478 -3.09579e-18)
(0.979188 0.162468 2.77548e-19)
(0.979273 0.160047 2.1383e-18)
(0.979923 0.157564 -2.69337e-18)
(0.980296 0.154957 -7.72738e-19)
(0.980843 0.153936 -1.17788e-18)
(0.980734 0.156374 2.95133e-18)
(0.985137 0.181811 1.63037e-21)
(0.985398 0.181743 -1.38314e-21)
(0.985591 0.181702 1.26314e-21)
(0.985722 0.181669 8.12712e-21)
(0.985794 0.181648 1.18562e-20)
(0.985814 0.181641 -4.64767e-20)
(0.98579 0.181646 3.37654e-20)
(0.985734 0.181662 7.08787e-21)
(0.985657 0.181688 -2.11245e-21)
(0.985566 0.181722 -1.54726e-20)
(0.985471 0.181761 4.79368e-20)
(0.985374 0.181803 -1.55523e-20)
(0.98528 0.181846 -2.18355e-20)
(0.985189 0.181889 -6.61328e-20)
(0.985102 0.181929 1.33578e-19)
(0.985017 0.181965 -2.75528e-20)
(0.984933 0.181997 -2.34943e-20)
(0.984848 0.182024 -7.13064e-20)
(0.984761 0.182044 7.94148e-20)
(0.98467 0.182058 4.5161e-20)
(0.984576 0.182065 -2.00858e-20)
(0.984478 0.182065 3.71641e-20)
(0.984375 0.182059 -1.57789e-19)
(0.984267 0.182044 9.81593e-21)
(0.984155 0.182023 8.9878e-20)
(0.98404 0.181993 -1.75049e-20)
(0.98392 0.181958 -2.90045e-19)
(0.983797 0.181911 2.3581e-20)
(0.983671 0.181859 2.66413e-19)
(0.983543 0.181789 -7.25835e-20)
(0.983416 0.181704 -1.44012e-19)
(0.983289 0.1816 8.56107e-20)
(0.98316 0.181489 2.56991e-19)
(0.983021 0.181365 6.07269e-19)
(0.982878 0.181217 -9.29055e-20)
(0.982738 0.181039 1.29481e-19)
(0.982607 0.180833 -9.45805e-19)
(0.982484 0.180609 -2.75441e-19)
(0.98237 0.180369 1.75024e-19)
(0.982262 0.180114 -7.24667e-19)
(0.982157 0.179839 -1.60358e-19)
(0.982051 0.179539 3.42858e-19)
(0.98194 0.179203 2.68186e-19)
(0.981816 0.178815 7.60441e-19)
(0.98167 0.178354 2.54159e-18)
(0.981497 0.177786 -2.02137e-18)
(0.981288 0.177076 3.21859e-18)
(0.98104 0.176181 2.50906e-18)
(0.980764 0.175058 2.04409e-20)
(0.980447 0.173706 3.27135e-18)
(0.980149 0.17209 -4.70275e-18)
(0.97986 0.170232 -5.66915e-18)
(0.979672 0.168181 4.43314e-18)
(0.979578 0.165997 3.78378e-18)
(0.979648 0.16377 -1.41809e-18)
(0.979691 0.161444 -8.95693e-18)
(0.980284 0.159098 2.19274e-18)
(0.980785 0.156693 -1.77039e-18)
(0.981347 0.155938 -2.67919e-18)
(0.982445 0.159185 1.74902e-18)
(0.984388 0.183368 -1.73332e-21)
(0.984746 0.183269 1.90572e-21)
(0.985051 0.183196 1.29407e-20)
(0.985303 0.183125 -1.6959e-20)
(0.985495 0.183064 3.08617e-20)
(0.985626 0.183014 -4.55131e-20)
(0.9857 0.182976 1.29233e-20)
(0.985724 0.182951 -6.37445e-22)
(0.985707 0.182937 2.89936e-20)
(0.985658 0.182933 -1.53266e-20)
(0.985587 0.182938 4.57472e-21)
(0.9855 0.18295 4.78846e-21)
(0.985404 0.182965 -7.46806e-20)
(0.985303 0.182984 2.22764e-20)
(0.9852 0.183002 5.25887e-20)
(0.985096 0.183018 1.74383e-21)
(0.984992 0.183032 -9.00428e-20)
(0.984886 0.183042 3.65276e-20)
(0.984778 0.183046 1.75827e-19)
(0.984668 0.183045 -1.14851e-19)
(0.984555 0.183037 -8.92349e-20)
(0.984438 0.183021 7.65249e-20)
(0.984316 0.182998 5.02815e-20)
(0.98419 0.182966 5.74995e-20)
(0.98406 0.182926 -1.10682e-19)
(0.983926 0.182877 -2.468e-19)
(0.983789 0.182821 1.85854e-19)
(0.983647 0.182753 2.7538e-19)
(0.983503 0.182679 8.03691e-20)
(0.983358 0.182586 -1.52351e-19)
(0.983214 0.182478 7.3347e-20)
(0.98307 0.182349 1.26147e-19)
(0.982925 0.182211 -2.15095e-19)
(0.982772 0.18206 -3.09336e-20)
(0.982619 0.181882 -3.86751e-19)
(0.982474 0.181672 -1.06861e-19)
(0.982342 0.181433 -1.02443e-19)
(0.982224 0.181176 2.68856e-19)
(0.982122 0.180905 -3.73756e-19)
(0.982034 0.18062 1.09831e-19)
(0.981957 0.180319 1.79041e-19)
(0.981891 0.179999 4.5797e-20)
(0.981831 0.179652 -1.12857e-18)
(0.981771 0.179266 -1.56252e-18)
(0.981703 0.178825 -1.38349e-18)
(0.981621 0.178297 2.69181e-18)
(0.981513 0.177652 -3.27045e-20)
(0.981373 0.17685 -1.11391e-18)
(0.981204 0.175846 5.66926e-19)
(0.980984 0.174636 -3.61246e-18)
(0.980763 0.173179 1.81028e-18)
(0.980522 0.171484 4.93632e-18)
(0.98035 0.169591 -5.66562e-19)
(0.980237 0.167549 -4.25856e-18)
(0.980256 0.165451 2.12003e-18)
(0.980241 0.163232 1.99712e-18)
(0.980741 0.160981 2.12295e-18)
(0.981305 0.158659 4.58502e-18)
(0.981808 0.157931 3.84139e-18)
(0.983628 0.161259 -3.96658e-18)
(0.983411 0.185101 -1.45023e-21)
(0.983812 0.184981 2.09895e-21)
(0.984186 0.184883 4.31936e-22)
(0.984528 0.184781 7.95901e-21)
(0.984823 0.184685 -1.21208e-20)
(0.985064 0.184596 -2.48799e-20)
(0.985247 0.184516 8.92848e-21)
(0.985372 0.184446 -1.19503e-20)
(0.985444 0.184386 2.60453e-20)
(0.985469 0.184337 -5.30154e-21)
(0.985455 0.184298 -1.75313e-20)
(0.98541 0.184267 1.45346e-20)
(0.985343 0.184243 2.38756e-20)
(0.985258 0.184224 6.66143e-20)
(0.985161 0.184207 -1.21458e-19)
(0.985057 0.184191 6.2629e-20)
(0.984946 0.184175 9.87336e-21)
(0.984831 0.184157 -6.30771e-20)
(0.984711 0.184136 -4.01953e-20)
(0.984588 0.184109 1.32632e-19)
(0.984461 0.184077 -1.40884e-19)
(0.98433 0.184038 4.207e-20)
(0.984194 0.183992 -1.18045e-19)
(0.984054 0.183937 1.97692e-19)
(0.98391 0.183874 -4.05348e-20)
(0.983762 0.183801 -1.17401e-19)
(0.983609 0.183721 9.40773e-20)
(0.983453 0.183628 1.81824e-19)
(0.983294 0.183528 -1.74905e-19)
(0.983134 0.183409 1.09259e-19)
(0.982976 0.183273 -3.79112e-19)
(0.982818 0.183116 -4.45186e-20)
(0.98266 0.182948 1.67505e-19)
(0.982494 0.182764 -9.84336e-20)
(0.982331 0.182552 -2.0228e-19)
(0.98218 0.182306 -4.80734e-19)
(0.982046 0.18203 6.07274e-19)
(0.981931 0.181735 -2.42465e-19)
(0.981835 0.181425 1.84777e-19)
(0.981759 0.181103 3.81028e-19)
(0.981702 0.180768 3.04504e-19)
(0.981664 0.180417 -1.85331e-19)
(0.981641 0.180047 6.4704e-19)
(0.981631 0.179648 1.21017e-18)
(0.981624 0.179211 -1.24156e-19)
(0.981615 0.178707 -1.59888e-18)
(0.981592 0.178112 -2.12308e-18)
(0.981546 0.177389 -1.58403e-19)
(0.981474 0.176497 1.50379e-18)
(0.981348 0.175427 -1.99797e-19)
(0.981205 0.174136 2.67798e-18)
(0.98102 0.172617 -4.3376e-18)
(0.980875 0.170896 -2.36117e-18)
(0.980756 0.169002 -6.56267e-19)
(0.980733 0.167021 -1.82475e-18)
(0.980664 0.164875 1.1553e-18)
(0.981075 0.162643 -1.56677e-18)
(0.981684 0.160273 -5.48911e-18)
(0.98211 0.159346 -5.67279e-18)
(0.984161 0.162186 1.97632e-18)
(0.982347 0.186895 -2.15899e-21)
(0.982733 0.186768 1.75006e-21)
(0.983122 0.186657 1.37343e-21)
(0.983507 0.186537 -9.8039e-21)
(0.983869 0.186416 1.01448e-20)
(0.984194 0.186296 -5.00568e-21)
(0.984472 0.18618 1.63257e-20)
(0.984696 0.18607 -2.43753e-20)
(0.984864 0.185968 1.373e-21)
(0.98498 0.185874 1.86573e-21)