/*--------------------------------*- C++ -*----------------------------------*\
  =========                 |
  \\      /  F ield         | OpenFOAM: The Open Source CFD Toolbox
   \\    /   O peration     | Website:  https://openfoam.org
    \\  /    A nd           | Version:  6.0
     \\/     M anipulation  |
\*---------------------------------------------------------------------------*/
FoamFile
{
    version     2.0;
    format      ascii;
    class       volScalarField;
    location    "3.95";
    object      p;
}
// * * * * * * * * * * * * * * * * * * * * * * * * * * * * * * * * * * * * * //

dimensions      [0 2 -2 0 0 0 0];

internalField   nonuniform List<scalar> 
13500
(
0.098645
0.098785
0.098151
0.09792
0.096545
0.096409
0.094978
0.095763
0.096728
0.09966
0.12278
0.16402
0.098645
0.098786
0.098151
0.097921
0.096544
0.09641
0.094977
0.095764
0.096725
0.099721
0.1221
0.15897
0.098645
0.098787
0.09815
0.097923
0.096543
0.096412
0.094974
0.095763
0.096717
0.099764
0.12123
0.15447
0.098646
0.098789
0.09815
0.097925
0.096541
0.096413
0.094971
0.095761
0.096703
0.099782
0.12025
0.15096
0.098647
0.098791
0.098151
0.097928
0.09654
0.096415
0.094966
0.095758
0.096684
0.099786
0.11922
0.148
0.098649
0.098794
0.098151
0.097931
0.096539
0.096417
0.094961
0.095754
0.09666
0.099778
0.11814
0.14535
0.098651
0.098797
0.098152
0.097934
0.096538
0.096419
0.094955
0.09575
0.096631
0.099756
0.11706
0.14295
0.098654
0.098801
0.098154
0.097938
0.096537
0.096421
0.094949
0.095744
0.096597
0.099721
0.11599
0.14075
0.098657
0.098805
0.098156
0.097942
0.096537
0.096423
0.094942
0.095738
0.096558
0.099672
0.11494
0.13871
0.09866
0.098809
0.098159
0.097946
0.096536
0.096424
0.094935
0.095731
0.096514
0.099609
0.11392
0.1368
0.098664
0.098814
0.098161
0.097951
0.096536
0.096426
0.094927
0.095722
0.096465
0.099533
0.11294
0.13501
0.098669
0.09882
0.098165
0.097956
0.096536
0.096428
0.094918
0.095713
0.09641
0.099446
0.112
0.13333
0.098674
0.098825
0.098169
0.097961
0.096537
0.09643
0.094909
0.095703
0.09635
0.099348
0.1111
0.13173
0.09868
0.098832
0.098173
0.097967
0.096537
0.096432
0.0949
0.095692
0.096285
0.099241
0.11025
0.13021
0.098686
0.098838
0.098178
0.097973
0.096538
0.096433
0.094889
0.09568
0.096214
0.099126
0.10943
0.12876
0.098693
0.098846
0.098183
0.097979
0.096539
0.096435
0.094879
0.095667
0.096138
0.099006
0.10866
0.12738
0.0987
0.098853
0.098188
0.097985
0.09654
0.096437
0.094867
0.095653
0.096056
0.09888
0.10791
0.12606
0.098708
0.098861
0.098194
0.097992
0.096541
0.096439
0.094855
0.095637
0.095969
0.098751
0.1072
0.12479
0.098716
0.09887
0.098201
0.098
0.096543
0.096441
0.094843
0.095621
0.095877
0.098619
0.10651
0.12356
0.098725
0.098879
0.098208
0.098007
0.096544
0.096443
0.09483
0.095603
0.09578
0.098487
0.10585
0.12239
0.098734
0.098889
0.098215
0.098016
0.096546
0.096445
0.094816
0.095585
0.095679
0.098354
0.10521
0.12125
0.098744
0.098899
0.098223
0.098024
0.096548
0.096446
0.094802
0.095565
0.095572
0.098221
0.10459
0.12015
0.098754
0.09891
0.098232
0.098033
0.096551
0.096448
0.094787
0.095543
0.095462
0.098089
0.10399
0.11908
0.098765
0.098921
0.098241
0.098042
0.096553
0.09645
0.094772
0.095521
0.095347
0.097959
0.10339
0.11804
0.098777
0.098932
0.09825
0.098052
0.096556
0.096452
0.094756
0.095497
0.095229
0.09783
0.10281
0.11703
0.098789
0.098945
0.09826
0.098061
0.096559
0.096454
0.09474
0.095472
0.095107
0.097704
0.10224
0.11605
0.098802
0.098957
0.098271
0.098072
0.096562
0.096456
0.094723
0.095446
0.094983
0.097579
0.10167
0.11508
0.098815
0.098971
0.098282
0.098083
0.096566
0.096458
0.094706
0.095418
0.094856
0.097455
0.10112
0.11415
0.098829
0.098984
0.098293
0.098094
0.09657
0.09646
0.094688
0.095388
0.094727
0.097333
0.10057
0.11323
0.098843
0.098999
0.098305
0.098105
0.096574
0.096462
0.094669
0.095358
0.094595
0.097213
0.10002
0.11233
0.098858
0.099013
0.098318
0.098117
0.096578
0.096465
0.09465
0.095326
0.094463
0.097094
0.09948
0.11145
0.098874
0.099029
0.098331
0.098129
0.096582
0.096467
0.09463
0.095292
0.094329
0.096976
0.098945
0.11058
0.09889
0.099045
0.098344
0.098142
0.096587
0.096469
0.09461
0.095257
0.094195
0.096858
0.098414
0.10974
0.098907
0.099061
0.098358
0.098155
0.096592
0.096471
0.09459
0.095221
0.09406
0.09674
0.097888
0.10891
0.098924
0.099078
0.098373
0.098169
0.096597
0.096473
0.094568
0.095183
0.093925
0.096623
0.097366
0.10809
0.098943
0.099096
0.098388
0.098183
0.096603
0.096476
0.094547
0.095144
0.093789
0.096505
0.096849
0.10729
0.098961
0.099114
0.098404
0.098197
0.096609
0.096478
0.094524
0.095104
0.093654
0.096386
0.096336
0.1065
0.09898
0.099133
0.09842
0.098212
0.096615
0.09648
0.094501
0.095063
0.09352
0.096267
0.095828
0.10573
0.099
0.099152
0.098437
0.098227
0.096621
0.096483
0.094477
0.09502
0.093386
0.096146
0.095325
0.10497
0.099021
0.099172
0.098454
0.098243
0.096628
0.096485
0.094453
0.094977
0.093253
0.096024
0.094827
0.10422
0.099042
0.099193
0.098472
0.098259
0.096635
0.096488
0.094428
0.094933
0.09312
0.0959
0.094335
0.10349
0.099064
0.099214
0.098491
0.098275
0.096642
0.09649
0.094403
0.094887
0.092989
0.095775
0.093849
0.10277
0.099086
0.099235
0.09851
0.098292
0.096649
0.096493
0.094377
0.094842
0.092858
0.095647
0.093368
0.10207
0.099109
0.099258
0.098529
0.098309
0.096657
0.096495
0.09435
0.094795
0.092728
0.095518
0.092893
0.10137
0.099133
0.099281
0.09855
0.098327
0.096665
0.096498
0.094323
0.094748
0.0926
0.095386
0.092425
0.10069
0.099157
0.099304
0.098571
0.098346
0.096674
0.096501
0.094295
0.094701
0.092472
0.095252
0.091963
0.10002
0.099182
0.099328
0.098592
0.098364
0.096682
0.096503
0.094266
0.094653
0.092345
0.095116
0.091508
0.099368
0.099208
0.099353
0.098614
0.098383
0.096691
0.096506
0.094236
0.094605
0.092219
0.094978
0.09106
0.098725
0.099234
0.099378
0.098637
0.098403
0.096701
0.096509
0.094206
0.094558
0.092094
0.094838
0.090618
0.098093
0.099261
0.099404
0.09866
0.098423
0.096711
0.096512
0.094176
0.09451
0.091969
0.094695
0.090184
0.097473
0.099289
0.099431
0.098684
0.098444
0.096721
0.096515
0.094144
0.094462
0.091845
0.09455
0.089756
0.096864
0.099317
0.099458
0.098708
0.098464
0.096731
0.096518
0.094112
0.094415
0.091721
0.094403
0.089336
0.096267
0.099346
0.099486
0.098733
0.098486
0.096742
0.096521
0.09408
0.094368
0.091598
0.094253
0.088922
0.095681
0.099376
0.099514
0.098759
0.098508
0.096753
0.096523
0.094047
0.094322
0.091475
0.094102
0.088516
0.095106
0.099406
0.099543
0.098785
0.09853
0.096764
0.096526
0.094013
0.094276
0.091353
0.093948
0.088116
0.094541
0.099437
0.099573
0.098812
0.098553
0.096776
0.096529
0.093978
0.09423
0.09123
0.093793
0.087724
0.093987
0.099469
0.099603
0.098839
0.098576
0.096788
0.096532
0.093944
0.094186
0.091107
0.093636
0.087338
0.093443
0.099502
0.099634
0.098867
0.0986
0.0968
0.096535
0.093908
0.094141
0.090985
0.093477
0.08696
0.092909
0.099535
0.099666
0.098896
0.098624
0.096813
0.096538
0.093872
0.094098
0.090862
0.093317
0.086588
0.092384
0.099568
0.099698
0.098925
0.098649
0.096826
0.096541
0.093836
0.094056
0.090739
0.093155
0.086222
0.091869
0.099603
0.099731
0.098955
0.098674
0.09684
0.096544
0.093799
0.094014
0.090615
0.092991
0.085864
0.091363
0.099638
0.099765
0.098986
0.098699
0.096854
0.096547
0.093762
0.093973
0.090491
0.092826
0.085511
0.090866
0.099674
0.099799
0.099017
0.098725
0.096868
0.09655
0.093725
0.093933
0.090367
0.09266
0.085165
0.090378
0.099711
0.099834
0.099049
0.098752
0.096883
0.096553
0.093687
0.093893
0.090242
0.092493
0.084825
0.089898
0.099748
0.09987
0.099082
0.098779
0.096898
0.096556
0.09365
0.093855
0.090116
0.092324
0.084491
0.089426
0.099786
0.099906
0.099115
0.098806
0.096914
0.096559
0.093612
0.093817
0.08999
0.092155
0.084163
0.088962
0.099825
0.099943
0.099149
0.098834
0.09693
0.096562
0.093573
0.093779
0.089864
0.091984
0.083841
0.088506
0.099864
0.09998
0.099183
0.098863
0.096946
0.096565
0.093535
0.093743
0.089737
0.091813
0.083524
0.088057
0.099904
0.10002
0.099218
0.098892
0.096963
0.096568
0.093497
0.093707
0.08961
0.091641
0.083213
0.087615
0.099945
0.10006
0.099254
0.098921
0.09698
0.096571
0.093458
0.093671
0.089482
0.091468
0.082907
0.08718
0.099987
0.1001
0.099291
0.098951
0.096998
0.096573
0.09342
0.093636
0.089353
0.091294
0.082606
0.086751
0.10003
0.10014
0.099328
0.098981
0.097016
0.096576
0.093382
0.093601
0.089224
0.09112
0.08231
0.086329
0.10007
0.10018
0.099366
0.099012
0.097035
0.096579
0.093344
0.093567
0.089095
0.090946
0.082018
0.085913
0.10012
0.10022
0.099404
0.099043
0.097054
0.096582
0.093306
0.093533
0.088965
0.090771
0.081732
0.085504
0.10016
0.10026
0.099443
0.099075
0.097073
0.096585
0.093268
0.093499
0.088836
0.090596
0.08145
0.0851
0.10021
0.10031
0.099483
0.099107
0.097093
0.096589
0.093231
0.093465
0.088706
0.09042
0.081173
0.084702
0.10025
0.10035
0.099524
0.09914
0.097113
0.096592
0.093194
0.093431
0.088575
0.090244
0.0809
0.084309
0.1003
0.10039
0.099565
0.099173
0.097134
0.096595
0.093157
0.093397
0.088445
0.090068
0.080631
0.083922
0.10035
0.10044
0.099607
0.099207
0.097155
0.096599
0.09312
0.093363
0.088315
0.089892
0.080366
0.08354
0.10039
0.10049
0.09965
0.099241
0.097176
0.096602
0.093084
0.093329
0.088184
0.089716
0.080105
0.083162
0.10044
0.10053
0.099693
0.099275
0.097198
0.096606
0.093048
0.093294
0.088054
0.08954
0.079848
0.08279
0.10049
0.10058
0.099737
0.09931
0.097221
0.09661
0.093012
0.09326
0.087924
0.089363
0.079595
0.082423
0.10054
0.10063
0.099782
0.099346
0.097243
0.096614
0.092977
0.093224
0.087794
0.089187
0.079346
0.08206
0.10059
0.10068
0.099827
0.099382
0.097267
0.096619
0.092942
0.093189
0.087664
0.089011
0.0791
0.081701
0.10065
0.10073
0.099873
0.099419
0.09729
0.096624
0.092908
0.093153
0.087535
0.088835
0.078858
0.081347
0.1007
0.10078
0.09992
0.099456
0.097314
0.096629
0.092873
0.093116
0.087406
0.08866
0.078619
0.080997
0.10075
0.10083
0.099968
0.099494
0.097339
0.096634
0.09284
0.093079
0.087277
0.088484
0.078383
0.080651
0.10081
0.10088
0.10002
0.099532
0.097364
0.09664
0.092806
0.093041
0.087149
0.088309
0.078151
0.08031
0.10086
0.10093
0.10007
0.099571
0.097389
0.096646
0.092773
0.093003
0.087022
0.088134
0.077922
0.079972
0.10092
0.10099
0.10012
0.09961
0.097415
0.096653
0.09274
0.092963
0.086895
0.087959
0.077696
0.079638
0.10097
0.10104
0.10017
0.09965
0.097441
0.09666
0.092707
0.092923
0.086769
0.087785
0.077473
0.079308
0.10103
0.10109
0.10022
0.09969
0.097468
0.096668
0.092675
0.092883
0.086643
0.087611
0.077253
0.078982
0.10109
0.10115
0.10027
0.099731
0.097495
0.096676
0.092643
0.092841
0.086518
0.087437
0.077036
0.078659
0.10115
0.10121
0.10032
0.099772
0.097522
0.096685
0.092611
0.092799
0.086394
0.087264
0.076822
0.07834
0.10121
0.10126
0.10038
0.099814
0.09755
0.096694
0.09258
0.092756
0.08627
0.087091
0.07661
0.078024
0.10127
0.10132
0.10043
0.099857
0.097579
0.096704
0.092549
0.092712
0.086148
0.086918
0.076401
0.077711
0.10133
0.10138
0.10049
0.0999
0.097607
0.096715
0.092517
0.092668
0.086026
0.086746
0.076195
0.077402
0.10139
0.10144
0.10054
0.099944
0.097637
0.096726
0.092487
0.092622
0.085904
0.086575
0.075991
0.077096
0.10146
0.1015
0.1006
0.099989
0.097666
0.096738
0.092456
0.092576
0.085784
0.086404
0.07579
0.076793
0.10152
0.10156
0.10066
0.10003
0.097696
0.096751
0.092425
0.092529
0.085664
0.086233
0.075592
0.076494
0.10159
0.10163
0.10071
0.10008
0.097727
0.096764
0.092395
0.092481
0.085545
0.086063
0.075395
0.076197
0.10165
0.10169
0.10077
0.10013
0.097758
0.096778
0.092365
0.092433
0.085427
0.085893
0.075201
0.075903
0.10172
0.10175
0.10083
0.10017
0.097789
0.096793
0.092334
0.092383
0.08531
0.085723
0.07501
0.075612
0.10179
0.10182
0.10089
0.10022
0.097821
0.096808
0.092305
0.092333
0.085194
0.085554
0.07482
0.075324
0.10185
0.10188
0.10096
0.10027
0.097853
0.096825
0.092275
0.092282
0.085078
0.085386
0.074633
0.075039
0.10192
0.10195
0.10102
0.10032
0.097886
0.096842
0.092245
0.09223
0.084963
0.085217
0.074448
0.074756
0.102
0.10202
0.10108
0.10037
0.097919
0.09686
0.092216
0.092178
0.084849
0.08505
0.074264
0.074475
0.10207
0.10209
0.10115
0.10042
0.097953
0.096878
0.092186
0.092125
0.084736
0.084882
0.074083
0.074198
0.10214
0.10216
0.10121
0.10047
0.097987
0.096898
0.092157
0.092071
0.084623
0.084715
0.073904
0.073922
0.10221
0.10223
0.10128
0.10053
0.098022
0.096918
0.092128
0.092016
0.084512
0.084549
0.073726
0.073649
0.10229
0.1023
0.10135
0.10058
0.098057
0.096939
0.0921
0.091961
0.084401
0.084382
0.07355
0.073379
0.10236
0.10238
0.10142
0.10063
0.098093
0.096961
0.092071
0.091905
0.08429
0.084216
0.073376
0.07311
0.10244
0.10245
0.10149
0.10069
0.098129
0.096984
0.092043
0.091849
0.084181
0.084051
0.073204
0.072844
0.10252
0.10253
0.10156
0.10075
0.098166
0.097007
0.092015
0.091791
0.084072
0.083885
0.073033
0.072579
0.1026
0.1026
0.10163
0.1008
0.098204
0.097032
0.091988
0.091734
0.083964
0.08372
0.072864
0.072317
0.10268
0.10268
0.1017
0.10086
0.098242
0.097057
0.091961
0.091675
0.083856
0.083555
0.072696
0.072057
0.10276
0.10276
0.10178
0.10092
0.098281
0.097083
0.091934
0.091617
0.083749
0.08339
0.07253
0.071798
0.10285
0.10284
0.10185
0.10098
0.098321
0.09711
0.091908
0.091557
0.083643
0.083226
0.072365
0.071541
0.10293
0.10293
0.10193
0.10105
0.098362
0.097138
0.091882
0.091498
0.083538
0.083061
0.072201
0.071286
0.10302
0.10301
0.10201
0.10111
0.098403
0.097166
0.091857
0.091438
0.083433
0.082897
0.072038
0.071032
0.1031
0.1031
0.10209
0.10118
0.098445
0.097196
0.091833
0.091377
0.083329
0.082733
0.071877
0.07078
0.10319
0.10318
0.10217
0.10124
0.098489
0.097226
0.091809
0.091316
0.083225
0.082569
0.071717
0.070529
0.10329
0.10327
0.10225
0.10131
0.098533
0.097258
0.091786
0.091255
0.083122
0.082405
0.071557
0.07028
0.10338
0.10336
0.10234
0.10138
0.098578
0.09729
0.091764
0.091194
0.08302
0.082241
0.071399
0.070032
0.10347
0.10346
0.10242
0.10145
0.098624
0.097323
0.091742
0.091133
0.082918
0.082077
0.071242
0.069785
0.10357
0.10355
0.10251
0.10153
0.098671
0.097358
0.091722
0.091071
0.082817
0.081914
0.071085
0.069539
0.10367
0.10365
0.1026
0.1016
0.09872
0.097393
0.091702
0.091009
0.082717
0.08175
0.070929
0.069295
0.10377
0.10375
0.10269
0.10168
0.09877
0.097429
0.091684
0.090947
0.082617
0.081586
0.070775
0.069051
0.10387
0.10385
0.10279
0.10176
0.098821
0.097467
0.091667
0.090886
0.082518
0.081422
0.07062
0.068808
0.10397
0.10395
0.10288
0.10184
0.098874
0.097506
0.091651
0.090824
0.08242
0.081258
0.070467
0.068566
0.10408
0.10406
0.10298
0.10192
0.098928
0.097546
0.091636
0.090762
0.082323
0.081095
0.070313
0.068324
0.10419
0.10417
0.10308
0.10201
0.098984
0.097587
0.091623
0.090701
0.082226
0.080931
0.070161
0.068083
0.1043
0.10428
0.10318
0.1021
0.099042
0.097629
0.091612
0.09064
0.08213
0.080767
0.070009
0.067843
0.10441
0.10439
0.10329
0.10219
0.099102
0.097673
0.091601
0.090579
0.082035
0.080603
0.069857
0.067603
0.10453
0.10451
0.10339
0.10228
0.099164
0.097719
0.091593
0.090519
0.081941
0.080438
0.069706
0.067363
0.10465
0.10462
0.1035
0.10238
0.099227
0.097766
0.091586
0.09046
0.081847
0.080274
0.069554
0.067124
0.10477
0.10475
0.10362
0.10247
0.099294
0.097815
0.091582
0.090401
0.081755
0.08011
0.069403
0.066885
0.1049
0.10487
0.10373
0.10258
0.099362
0.097865
0.091579
0.090342
0.081664
0.079946
0.069253
0.066646
0.10503
0.105
0.10385
0.10268
0.099433
0.097918
0.091578
0.090285
0.081573
0.079781
0.069102
0.066407
0.10516
0.10513
0.10397
0.10279
0.099507
0.097972
0.09158
0.090228
0.081484
0.079617
0.068951
0.066167
0.10529
0.10527
0.1041
0.1029
0.099584
0.098029
0.091584
0.090173
0.081396
0.079453
0.068801
0.065928
0.10543
0.10541
0.10423
0.10302
0.099664
0.098087
0.09159
0.090119
0.081309
0.079288
0.06865
0.065688
0.10558
0.10555
0.10436
0.10314
0.099747
0.098149
0.091599
0.090065
0.081223
0.079124
0.0685
0.065448
0.10572
0.1057
0.1045
0.10326
0.099833
0.098212
0.091611
0.090014
0.081138
0.07896
0.068349
0.065208
0.10588
0.10585
0.10464
0.10339
0.099923
0.098279
0.091626
0.089964
0.081055
0.078796
0.068198
0.064966
0.10603
0.10601
0.10479
0.10352
0.10002
0.098348
0.091644
0.089915
0.080974
0.078632
0.068047
0.064725
0.10619
0.10617
0.10494
0.10366
0.10011
0.09842
0.091665
0.089868
0.080894
0.078468
0.067895
0.064482
0.10636
0.10634
0.10509
0.1038
0.10022
0.098495
0.091689
0.089823
0.080816
0.078304
0.067743
0.064238
0.10653
0.10651
0.10525
0.10395
0.10032
0.098574
0.091717
0.089781
0.080739
0.078141
0.067591
0.063994
0.1067
0.10669
0.10542
0.1041
0.10044
0.098657
0.091749
0.08974
0.080664
0.077978
0.067439
0.063748
0.10688
0.10688
0.10559
0.10426
0.10055
0.098743
0.091785
0.089702
0.080592
0.077815
0.067286
0.063502
0.10707
0.10707
0.10576
0.10442
0.10067
0.098833
0.091824
0.089666
0.080521
0.077652
0.067133
0.063254
0.10726
0.10726
0.10595
0.10459
0.1008
0.098927
0.091868
0.089633
0.080452
0.07749
0.066979
0.063004
0.10746
0.10746
0.10614
0.10476
0.10093
0.099026
0.091917
0.089603
0.080386
0.077329
0.066824
0.062753
0.10767
0.10767
0.10633
0.10495
0.10107
0.09913
0.09197
0.089576
0.080322
0.077167
0.066669
0.062501
0.10788
0.10789
0.10653
0.10514
0.10122
0.099238
0.092028
0.089552
0.080261
0.077007
0.066513
0.062246
0.1081
0.10811
0.10674
0.10533
0.10137
0.099352
0.092092
0.089532
0.080202
0.076847
0.066357
0.06199
0.10832
0.10834
0.10696
0.10554
0.10153
0.099471
0.09216
0.089515
0.080146
0.076688
0.0662
0.061732
0.10855
0.10858
0.10719
0.10575
0.10169
0.099596
0.092234
0.089502
0.080093
0.076529
0.066042
0.061471
0.10879
0.10883
0.10742
0.10597
0.10187
0.099727
0.092314
0.089493
0.080042
0.076372
0.065883
0.061209
0.10904
0.10909
0.10766
0.10619
0.10205
0.099864
0.0924
0.089488
0.079995
0.076215
0.065723
0.060944
0.1093
0.10935
0.10791
0.10643
0.10224
0.10001
0.092492
0.089487
0.079951
0.076059
0.065562
0.060676
0.10957
0.10962
0.10817
0.10668
0.10244
0.10016
0.09259
0.08949
0.07991
0.075903
0.0654
0.060406
0.10984
0.10991
0.10844
0.10693
0.10264
0.10032
0.092696
0.089499
0.079872
0.075749
0.065237
0.060133
0.11012
0.1102
0.10871
0.10719
0.10286
0.10048
0.092808
0.089512
0.079838
0.075596
0.065073
0.059856
0.11042
0.1105
0.109
0.10747
0.10309
0.10065
0.092927
0.08953
0.079807
0.075444
0.064907
0.059577
0.11072
0.11081
0.1093
0.10775
0.10332
0.10083
0.093053
0.089553
0.07978
0.075292
0.06474
0.059294
0.11103
0.11114
0.10961
0.10805
0.10357
0.10102
0.093188
0.089582
0.079757
0.075142
0.064571
0.059007
0.11135
0.11147
0.10993
0.10835
0.10382
0.10122
0.093329
0.089615
0.079737
0.074992
0.064401
0.058717
0.11169
0.11182
0.11026
0.10867
0.10409
0.10143
0.093479
0.089655
0.079721
0.074843
0.064228
0.058422
0.11203
0.11217
0.1106
0.10899
0.10437
0.10164
0.093637
0.0897
0.079709
0.074696
0.064054
0.058123
0.11239
0.11254
0.11096
0.10933
0.10466
0.10186
0.093803
0.08975
0.0797
0.074548
0.063877
0.057819
0.11275
0.11292
0.11132
0.10969
0.10496
0.1021
0.093978
0.089807
0.079695
0.074402
0.063698
0.05751
0.11313
0.11331
0.1117
0.11005
0.10527
0.10234
0.094161
0.089869
0.079694
0.074256
0.063516
0.057196
0.11352
0.11371
0.11209
0.11042
0.10559
0.10259
0.094354
0.089937
0.079697
0.07411
0.063331
0.056877
0.11392
0.11413
0.1125
0.11081
0.10593
0.10286
0.094555
0.090011
0.079702
0.073965
0.063143
0.056551
0.11433
0.11456
0.11291
0.11121
0.10628
0.10313
0.094765
0.090091
0.079712
0.073819
0.062952
0.056219
0.11475
0.115
0.11334
0.11163
0.10665
0.10342
0.094984
0.090176
0.079724
0.073674
0.062756
0.05588
0.11519
0.11546
0.11379
0.11206
0.10702
0.10371
0.095212
0.090268
0.07974
0.073527
0.062556
0.055534
0.11564
0.11592
0.11425
0.1125
0.10741
0.10402
0.09545
0.090365
0.079759
0.07338
0.062352
0.055181
0.1161
0.11641
0.11472
0.11296
0.10782
0.10433
0.095696
0.090467
0.07978
0.073232
0.062142
0.054819
0.11658
0.1169
0.11521
0.11343
0.10823
0.10466
0.095952
0.090575
0.079803
0.073082
0.061927
0.054448
0.11707
0.11741
0.11571
0.11391
0.10867
0.105
0.096217
0.090688
0.079828
0.07293
0.061705
0.054067
0.11757
0.11794
0.11623
0.11441
0.10911
0.10535
0.096492
0.090806
0.079855
0.072775
0.061477
0.053677
0.11808
0.11848
0.11677
0.11492
0.10957
0.10571
0.096775
0.090929
0.079883
0.072618
0.061241
0.053276
0.11861
0.11903
0.11732
0.11545
0.11005
0.10609
0.097068
0.091056
0.079912
0.072457
0.060997
0.052864
0.11915
0.1196
0.11788
0.116
0.11054
0.10647
0.09737
0.091187
0.079942
0.072292
0.060745
0.05244
0.11971
0.12018
0.11846
0.11656
0.11105
0.10687
0.097681
0.091322
0.079971
0.072122
0.060483
0.052003
0.12028
0.12078
0.11906
0.11713
0.11157
0.10728
0.098
0.091461
0.079999
0.071946
0.060211
0.051552
0.12087
0.1214
0.11968
0.11773
0.11211
0.1077
0.098329
0.091603
0.080027
0.071765
0.059927
0.051087
0.12147
0.12203
0.12032
0.11834
0.11267
0.10813
0.098667
0.091748
0.080052
0.071576
0.059632
0.050606
0.12209
0.12268
0.12097
0.11896
0.11324
0.10858
0.099013
0.091895
0.080076
0.07138
0.059324
0.050109
0.12272
0.12334
0.12165
0.11961
0.11384
0.10904
0.099369
0.092045
0.080096
0.071175
0.059003
0.049594
0.12338
0.12403
0.12234
0.12028
0.11445
0.10951
0.099734
0.092197
0.080113
0.070962
0.058666
0.049061
0.12405
0.12473
0.12306
0.12096
0.11508
0.11
0.10011
0.092351
0.080126
0.070738
0.058314
0.048509
0.12474
0.12546
0.1238
0.12167
0.11573
0.1105
0.10049
0.092507
0.080135
0.070503
0.057946
0.047936
0.12545
0.12621
0.12456
0.1224
0.1164
0.11102
0.10089
0.092664
0.080139
0.070257
0.057559
0.047342
0.12618
0.12698
0.12535
0.12316
0.1171
0.11155
0.10129
0.092823
0.080137
0.069999
0.057154
0.046724
0.12694
0.12778
0.12617
0.12394
0.11782
0.1121
0.10171
0.092983
0.080129
0.069727
0.056729
0.046082
0.12772
0.12861
0.12702
0.12475
0.11857
0.11267
0.10213
0.093145
0.080115
0.069441
0.056284
0.045415
0.12853
0.12946
0.1279
0.12559
0.11934
0.11326
0.10257
0.093309
0.080094
0.06914
0.055816
0.044721
0.12937
0.13035
0.12882
0.12647
0.12015
0.11388
0.10303
0.093474
0.080066
0.068824
0.055325
0.043998
0.13024
0.13128
0.12978
0.12738
0.12099
0.11451
0.10349
0.093643
0.08003
0.068491
0.05481
0.043246
0.13115
0.13224
0.13078
0.12833
0.12187
0.11518
0.10398
0.093814
0.079987
0.068141
0.054269
0.042462
0.1321
0.13325
0.13183
0.12933
0.12279
0.11587
0.10448
0.093988
0.079935
0.067773
0.053701
0.041646
0.13309
0.1343
0.13293
0.13038
0.12375
0.1166
0.105
0.094165
0.079874
0.067385
0.053106
0.040795
0.13412
0.1354
0.13408
0.13148
0.12476
0.11736
0.10553
0.094347
0.079804
0.066977
0.05248
0.039908
0.1352
0.13656
0.13529
0.13264
0.12582
0.11815
0.10609
0.094533
0.079724
0.066547
0.051823
0.038982
0.13634
0.13778
0.13657
0.13386
0.12694
0.11899
0.10668
0.094723
0.079633
0.066094
0.051132
0.038016
0.13753
0.13906
0.13792
0.13515
0.12811
0.11987
0.10728
0.094917
0.079528
0.065614
0.050406
0.037007
0.13878
0.14041
0.13935
0.13652
0.12935
0.1208
0.10791
0.095114
0.079409
0.065107
0.04964
0.035953
0.14009
0.14184
0.14085
0.13796
0.13066
0.12177
0.10856
0.095313
0.079272
0.064568
0.048833
0.034851
0.14147
0.14335
0.14245
0.1395
0.13204
0.1228
0.10924
0.095513
0.079115
0.063993
0.04798
0.033697
0.14292
0.14494
0.14414
0.14112
0.13349
0.12388
0.10994
0.095711
0.078933
0.063379
0.047076
0.032487
0.14444
0.14661
0.14592
0.14284
0.13502
0.12501
0.11067
0.095905
0.078722
0.06272
0.046116
0.031218
0.14603
0.14838
0.14781
0.14466
0.13664
0.1262
0.11141
0.096088
0.078475
0.062008
0.045094
0.029883
0.14769
0.15024
0.1498
0.14659
0.13834
0.12745
0.11217
0.096257
0.078185
0.061238
0.044001
0.028477
0.14942
0.1522
0.1519
0.14863
0.14012
0.12874
0.11294
0.096405
0.077845
0.060399
0.042831
0.026992
0.15122
0.15425
0.15412
0.15078
0.142
0.13009
0.11372
0.096524
0.077444
0.059482
0.041573
0.02542
0.15308
0.15641
0.15646
0.15305
0.14396
0.13149
0.1145
0.096606
0.076972
0.058476
0.040216
0.023753
0.15501
0.15867
0.15892
0.15544
0.14601
0.13294
0.11528
0.096639
0.076417
0.057371
0.03875
0.021978
0.157
0.16103
0.16151
0.15796
0.14815
0.13442
0.11603
0.096612
0.075767
0.056153
0.037163
0.020086
0.15904
0.16349
0.16423
0.16061
0.15038
0.13594
0.11676
0.096513
0.075008
0.054809
0.035441
0.018063
0.16113
0.16606
0.16709
0.1634
0.15271
0.13749
0.11744
0.096326
0.074125
0.053327
0.033573
0.015899
0.16327
0.16875
0.17011
0.16634
0.15512
0.13905
0.11808
0.096036
0.073102
0.051692
0.031546
0.01358
0.16544
0.17155
0.1733
0.16943
0.15763
0.14063
0.11864
0.095624
0.071923
0.049889
0.029347
0.011096
0.16766
0.17448
0.17668
0.1727
0.16025
0.1422
0.11912
0.095067
0.070566
0.047903
0.026963
0.0084348
0.1699
0.17756
0.18027
0.17616
0.16296
0.14376
0.11949
0.094339
0.069008
0.045714
0.024381
0.0055873
0.17216
0.18079
0.18411
0.17984
0.16578
0.14529
0.11972
0.093407
0.06722
0.043301
0.021585
0.002544
0.17444
0.18421
0.18824
0.18375
0.1687
0.14676
0.11976
0.092229
0.065165
0.040636
0.018555
-0.00070417
0.17671
0.18782
0.19269
0.18793
0.17173
0.14813
0.11958
0.090751
0.062797
0.037682
0.015269
-0.0041682
0.17895
0.19166
0.1975
0.19239
0.17483
0.14937
0.11911
0.088909
0.060059
0.034393
0.011694
-0.0078619
0.1811
0.19572
0.20271
0.19714
0.17798
0.15039
0.11826
0.086622
0.05688
0.030715
0.0077919
-0.011804
0.18308
0.19999
0.20832
0.20216
0.18111
0.15112
0.11694
0.083796
0.05318
0.026581
0.003516
-0.016017
0.18476
0.20445
0.21434
0.20743
0.18413
0.15143
0.11502
0.080324
0.048873
0.021924
-0.0011834
-0.020529
0.18599
0.20902
0.22073
0.21286
0.1869
0.15116
0.11236
0.076092
0.043872
0.01668
-0.0063511
-0.025364
0.18651
0.21356
0.22736
0.21829
0.18924
0.15013
0.10881
0.070985
0.038102
0.010801
-0.012016
-0.030534
0.18604
0.21787
0.23405
0.22349
0.19087
0.1481
0.10418
0.064898
0.031508
0.0042677
-0.018176
-0.036028
0.18419
0.22163
0.24044
0.22807
0.19145
0.14479
0.0983
0.057735
0.024062
-0.0029007
-0.02479
-0.041798
0.18051
0.22433
0.24595
0.23145
0.19047
0.13988
0.090981
0.049425
0.01577
-0.010648
-0.031768
-0.047754
0.17453
0.22518
0.24957
0.23269
0.18727
0.13296
0.082042
0.039921
0.0066639
-0.018885
-0.038989
-0.053767
0.16579
0.22295
0.24962
0.2303
0.18089
0.12356
0.071324
0.029222
-0.0031834
-0.027502
-0.046312
-0.059694
0.15396
0.21579
0.24341
0.22203
0.16998
0.1111
0.058706
0.017403
-0.013643
-0.036364
-0.053597
-0.065404
0.13908
0.20101
0.22686
0.20453
0.15264
0.094871
0.044108
0.0046322
-0.024499
-0.045291
-0.060703
-0.070792
0.1219
0.17535
0.19457
0.17333
0.12641
0.073916
0.027413
-0.0088687
-0.035461
-0.054051
-0.067485
-0.075789
0.1042
0.13575
0.14088
0.12343
0.088359
0.046984
0.0083004
-0.022988
-0.046274
-0.062419
-0.073814
-0.080363
0.088264
0.079824
0.061934
0.051083
0.035752
0.012552
-0.013903
-0.037913
-0.05689
-0.070294
-0.079635
-0.084547
0.077103
0.0028503
-0.046942
-0.047128
-0.034433
-0.031684
-0.040635
-0.054456
-0.067764
-0.077956
-0.085178
-0.088603
0.084936
-0.087629
-0.17991
-0.16673
-0.12095
-0.086713
-0.073498
-0.074121
-0.080158
-0.086436
-0.0913
-0.093295
0.12441
-0.16903
-0.31066
-0.28426
-0.20737
-0.14365
-0.10876
-0.095776
-0.094
-0.095974
-0.098306
-0.098793
0.10285
0.063473
0.053374
0.047359
0.043212
0.040113
0.037639
0.035518
0.033705
0.03188
0.030425
0.028041
0.1222
0.078739
0.066192
0.05819
0.052733
0.048706
0.045522
0.042815
0.040524
0.03822
0.036437
0.033657
0.10955
0.073634
0.062281
0.054406
0.049019
0.045064
0.041955
0.039327
0.037127
0.034908
0.033253
0.030556
0.10449
0.073294
0.062271
0.054306
0.048784
0.044716
0.041522
0.038827
0.036587
0.034322
0.032666
0.029845
0.10383
0.075442
0.064261
0.056082
0.050316
0.046044
0.042683
0.039848
0.037498
0.035122
0.033397
0.03042
0.10316
0.077233
0.065982
0.057671
0.051708
0.04726
0.043752
0.040791
0.038341
0.035868
0.034075
0.030987
0.10202
0.078489
0.067314
0.058954
0.052846
0.048254
0.044621
0.041554
0.039017
0.036466
0.034614
0.031457
0.10081
0.079513
0.068503
0.060146
0.053925
0.049205
0.045458
0.042292
0.039674
0.037058
0.035149
0.031963
0.099673
0.080392
0.069615
0.061304
0.055
0.050168
0.046313
0.043054
0.040358
0.037687
0.035726
0.032547
0.098587
0.081118
0.070637
0.062416
0.056063
0.051136
0.047183
0.043839
0.041069
0.038353
0.036343
0.033209
0.097533
0.081692
0.071559
0.063469
0.057102
0.052101
0.048063
0.044642
0.041804
0.039053
0.037003
0.033947
0.09651
0.082126
0.072378
0.064454
0.058108
0.053058
0.04895
0.045462
0.042563
0.039788
0.037705
0.034756
0.095519
0.082438
0.073096
0.065366
0.059073
0.053997
0.049836
0.046294
0.043344
0.040554
0.038445
0.035628
0.094563
0.082643
0.073715
0.0662
0.059987
0.05491
0.050714
0.04713
0.044138
0.041344
0.039217
0.03655
0.093642
0.082756
0.074241
0.066954
0.060845
0.055788
0.051575
0.047964
0.04494
0.042151
0.040013
0.037506
0.092759
0.082792
0.07468
0.06763
0.061642
0.056625
0.052411
0.048786
0.045741
0.042965
0.040821
0.038478
0.091913
0.082764
0.075039
0.06823
0.062377
0.057415
0.053215
0.049588
0.046532
0.043776
0.041631
0.039449
0.091105
0.082682
0.075327
0.068757
0.063048
0.058155
0.053983
0.050366
0.047306
0.044576
0.042433
0.040403
0.090333
0.082558
0.075552
0.069216
0.063657
0.058844
0.054709
0.051112
0.048058
0.045358
0.043219
0.041326
0.089598
0.082398
0.07572
0.069612
0.064206
0.059481
0.055393
0.051824
0.048781
0.046113
0.04398
0.042206
0.088896
0.08221
0.075839
0.069952
0.064698
0.060067
0.056034
0.052499
0.049473
0.046838
0.044712
0.043035
0.088227
0.081999
0.075915
0.070239
0.065137
0.060603
0.056629
0.053135
0.050131
0.047528
0.045408
0.043808
0.087588
0.081771
0.075953
0.070479
0.065527
0.061092
0.057182
0.053731
0.050752
0.04818
0.046067
0.044519
0.086978
0.081529
0.075959
0.070678
0.065871
0.061536
0.057692
0.054287
0.051337
0.048794
0.046687
0.04517
0.086394
0.081276
0.075936
0.070838
0.066172
0.061937
0.058162
0.054805
0.051884
0.049367
0.047267
0.045761
0.085835
0.081015
0.075889
0.070965
0.066436
0.062299
0.058594
0.055286
0.052396
0.049902
0.047808
0.046294
0.085298
0.080748
0.075822
0.071061
0.066664
0.062624
0.058988
0.05573
0.052872
0.050398
0.048311
0.046774
0.084783
0.080476
0.075736
0.071131
0.06686
0.062915
0.059349
0.056139
0.053315
0.050857
0.048776
0.047203
0.084287
0.080202
0.075634
0.071176
0.067027
0.063175
0.059677
0.056516
0.053725
0.051281
0.049207
0.047588
0.083808
0.079925
0.075519
0.0712
0.067167
0.063405
0.059975
0.056861
0.054105
0.051672
0.049605
0.047933
0.083347
0.079648
0.075393
0.071206
0.067283
0.063608
0.060245
0.057178
0.054455
0.052031
0.049971
0.048243
0.082901
0.07937
0.075257
0.071194
0.067378
0.063786
0.060489
0.057467
0.054778
0.052362
0.05031
0.048523
0.082469
0.079093
0.075112
0.071166
0.067452
0.063942
0.060709
0.057731
0.055076
0.052666