/*--------------------------------*- C++ -*----------------------------------*\
  =========                 |
  \\      /  F ield         | OpenFOAM: The Open Source CFD Toolbox
   \\    /   O peration     | Website:  https://openfoam.org
    \\  /    A nd           | Version:  6.0
     \\/     M anipulation  |
\*---------------------------------------------------------------------------*/
FoamFile
{
    version     2.0;
    format      ascii;
    class       surfaceScalarField;
    location    "14";
    object      phi;
}
// * * * * * * * * * * * * * * * * * * * * * * * * * * * * * * * * * * * * * //

dimensions      [0 3 -1 0 0 0 0];

internalField   nonuniform List<scalar> 
123526
(
3.72931e-07
2.34163e-05
1.17073e-08
7.93185e-07
2.53173e-05
1.24973e-06
2.73724e-05
1.74223e-06
2.95943e-05
2.27737e-06
3.19964e-05
2.85448e-06
3.45933e-05
3.48134e-06
3.74008e-05
4.15774e-06
4.04358e-05
4.89305e-06
4.37159e-05
5.68731e-06
4.7262e-05
6.54888e-06
5.10961e-05
7.47909e-06
5.52406e-05
8.48752e-06
5.97204e-05
9.57894e-06
6.45602e-05
1.07647e-05
6.97904e-05
1.20455e-05
7.54461e-05
1.34327e-05
8.1558e-05
1.4938e-05
8.8156e-05
1.65715e-05
9.52875e-05
1.83369e-05
0.000102996
2.02553e-05
0.000111314
2.23357e-05
0.000120299
2.45868e-05
0.000130008
2.70347e-05
0.000140474
2.96853e-05
0.000151781
3.25589e-05
0.000163974
3.56767e-05
0.000177121
3.90514e-05
0.000191299
4.27137e-05
0.000206564
4.66755e-05
0.00022301
5.09712e-05
0.000240694
5.56174e-05
0.000259711
6.06466e-05
0.000280127
6.60854e-05
0.000302023
7.19598e-05
0.000325476
7.83099e-05
0.000350538
8.51585e-05
0.000377283
9.25427e-05
0.000405739
0.000100499
0.000435925
0.000109054
0.000467839
0.000118242
0.000501424
0.000128096
0.000536575
0.00013864
0.000573125
0.000149895
0.000610812
0.000161878
0.000649261
0.000174595
0.000687954
0.000188037
0.00072619
0.000202183
0.000763045
0.000216983
0.000797311
0.000232359
0.000827434
0.000248198
0.000851433
0.000264334
0.000866799
0.000280552
0.000870387
0.000296565
0.000858296
0.000312
0.000825758
0.000326379
0.000767075
0.000339102
0.000675502
0.000349505
0.000543402
0.000356528
0.00036108
0.000116749
0.000353791
3.52882e-07
2.30301e-05
2.60688e-08
7.66546e-07
2.48998e-05
1.21571e-06
2.6921e-05
1.70028e-06
2.91063e-05
2.22657e-06
3.14687e-05
2.79415e-06
3.40227e-05
3.41043e-06
3.67837e-05
4.07543e-06
3.97683e-05
4.79812e-06
4.2993e-05
5.57876e-06
4.64794e-05
6.42539e-06
5.02497e-05
7.33946e-06
5.4325e-05
8.33024e-06
5.87301e-05
9.40259e-06
6.34867e-05
1.05675e-05
6.86259e-05
1.18259e-05
7.41865e-05
1.31887e-05
8.01954e-05
1.46676e-05
8.66757e-05
1.62726e-05
9.36826e-05
1.80073e-05
0.00010126
1.98923e-05
0.000109429
2.19367e-05
0.000118254
2.41489e-05
0.000127795
2.6555e-05
0.000138067
2.91601e-05
0.000149175
3.19849e-05
0.000161148
3.50496e-05
0.000174056
3.83674e-05
0.00018798
4.19678e-05
0.000202963
4.5863e-05
0.000219115
5.00862e-05
0.00023647
5.4654e-05
0.000255143
5.95984e-05
0.000275182
6.49451e-05
0.000296676
7.07194e-05
0.000319701
7.69603e-05
0.000344296
8.36901e-05
0.000370552
9.09447e-05
0.000398483
9.87595e-05
0.000428109
0.000107162
0.000459436
0.000116184
0.000492401
0.000125858
0.000526899
0.000136209
0.000562772
0.000147259
0.000599761
0.000159021
0.000637497
0.000171504
0.00067547
0.000184699
0.000712994
0.000198582
0.00074916
0.000213105
0.000782787
0.000228191
0.000812347
0.000243727
0.000835896
0.000259555
0.000850969
0.000275465
0.000854472
0.000291178
0.000842576
0.000306332
0.000810593
0.000320459
0.000752936
0.000332948
0.000662999
0.000343197
0.000533137
0.000349865
0.000354385
0.000115843
0.000350732
3.49849e-07
2.26493e-05
2.39276e-08
7.57776e-07
2.44881e-05
1.20073e-06
2.6476e-05
1.67853e-06
2.86251e-05
2.19742e-06
3.09485e-05
2.75696e-06
3.34602e-05
3.3644e-06
3.61754e-05
4.01979e-06
3.91105e-05
4.73189e-06
4.22807e-05
5.50099e-06
4.57085e-05
6.33492e-06
4.94159e-05
7.23517e-06
5.34233e-05
8.21077e-06
5.77549e-05
9.26654e-06
6.24297e-05
1.04132e-05
6.74796e-05
1.16518e-05
7.29467e-05
1.29929e-05
7.88545e-05
1.44481e-05
8.52192e-05
1.6027e-05
9.21037e-05
1.77334e-05
9.9552e-05
1.95874e-05
0.000107575
2.15979e-05
0.000116242
2.37732e-05
0.00012562
2.61388e-05
0.0001357
2.86998e-05
0.000146614
3.14765e-05
0.000158371
3.44887e-05
0.000171043
3.77493e-05
0.000184719
4.12872e-05
0.000199425
4.51143e-05
0.000215287
4.92631e-05
0.000232321
5.375e-05
0.000250656
5.86061e-05
0.000270326
6.38566e-05
0.000291426
6.95264e-05
0.00031403
7.56538e-05
0.000338167
8.22605e-05
0.000363944
8.93816e-05
0.000391361
9.70521e-05
0.000420438
0.000105299
0.000451188
0.000114153
0.000483546
0.000123649
0.000517403
0.000133809
0.000552611
0.000144655
0.000588915
0.000156201
0.00062595
0.000168454
0.000663217
0.000181406
0.000700042
0.000195031
0.000735536
0.000209282
0.000768536
0.000224085
0.000797546
0.000239328
0.000820653
0.000254861
0.000835436
0.000270479
0.000838852
0.00028591
0.000827142
0.000300798
0.0007957
0.000314686
0.000739043
0.000326959
0.000650719
0.000336981
0.000523107
0.000343818
0.000347539
0.000114222
0.000345421
3.48024e-07
2.22745e-05
2.01888e-08
7.49705e-07
2.40828e-05
1.18576e-06
2.60379e-05
1.65617e-06
2.81515e-05
2.16696e-06
3.04364e-05
2.71779e-06
3.29065e-05
3.31573e-06
3.55767e-05
3.96086e-06
3.8463e-05
4.66179e-06
4.15796e-05
5.41877e-06
4.49497e-05
6.23953e-06
4.85954e-05
7.12548e-06
5.2536e-05
8.0855e-06
5.67954e-05
9.12428e-06
6.13898e-05
1.02524e-05
6.6352e-05
1.14707e-05
7.17272e-05
1.27897e-05
7.75357e-05
1.42208e-05
8.37869e-05
1.57733e-05
9.05511e-05
1.7451e-05
9.7873e-05
1.92735e-05
0.000105753
2.12497e-05
0.000114265
2.33875e-05
0.000123482
2.57121e-05
0.000133375
2.82284e-05
0.000144097
3.09564e-05
0.000155642
3.39153e-05
0.000168084
3.71179e-05
0.000181516
4.05926e-05
0.00019595
4.4351e-05
0.000211528
4.84249e-05
0.000228247
5.28305e-05
0.00024625
5.75982e-05
0.000265558
6.2753e-05
0.000286271
6.83192e-05
0.000308464
7.43344e-05
0.000332151
8.08201e-05
0.000357458
8.78111e-05
0.000384369
9.53414e-05
0.000412906
0.000103438
0.000443091
0.000112131
0.000474851
0.000121454
0.000508079
0.000131429
0.000542634
0.000142078
0.000578265
0.000153414
0.000614612
0.000165443
0.000651186
0.000178155
0.000687328
0.000191527
0.000722162
0.00020551
0.00075455
0.000220034
0.000783019
0.000234992
0.000805691
0.000250238
0.000820184
0.000265572
0.00082351
0.00028073
0.000811973
0.000295358
0.000781056
0.000309009
0.000725375
0.000321076
0.000638634
0.000330883
0.000513277
0.000337538
0.000340848
0.000112627
0.000339078
3.41499e-07
2.19057e-05
1.96914e-08
7.36059e-07
2.36842e-05
1.16478e-06
2.5607e-05
1.62709e-06
2.76856e-05
2.1294e-06
2.99328e-05
2.67092e-06
3.23619e-05
3.25895e-06
3.49878e-05
3.89323e-06
3.78262e-05
4.58248e-06
4.08902e-05
5.32672e-06
4.42036e-05
6.1337e-06
4.77885e-05
7.00468e-06
5.16636e-05
7.94848e-06
5.5852e-05
8.96963e-06
6.03674e-05
1.00785e-05
6.52434e-05
1.12761e-05
7.05285e-05
1.25725e-05
7.62394e-05
1.3979e-05
8.23792e-05
1.55047e-05
8.90254e-05
1.71533e-05
9.62232e-05
1.89441e-05
0.000103962
2.08857e-05
0.000112322
2.2986e-05
0.000121381
2.52696e-05
0.00013109
2.77414e-05
0.000141625
3.04209e-05
0.000152962
3.3327e-05
0.000165177
3.64724e-05
0.00017837
3.98846e-05
0.000192537
4.35754e-05
0.000207837
4.75758e-05
0.000224246
5.19018e-05
0.000241924
5.65833e-05
0.000260876
6.16446e-05
0.000281209
6.711e-05
0.000302998
7.30163e-05
0.000326244
7.93847e-05
0.000351088
8.62494e-05
0.000377503
9.36439e-05
0.000405511
0.000101594
0.000435139
0.000110131
0.000466313
0.000119286
0.000498923
0.000129081
0.000532838
0.000139536
0.000567809
0.000150665
0.000603483
0.000162472
0.00063938
0.000174948
0.000674852
0.000188068
0.000709043
0.000201788
0.000740831
0.000216039
0.00076877
0.000230718
0.000791013
0.000245684
0.000805219
0.000260742
0.000808451
0.000275632
0.000797081
0.000290007
0.000766677
0.000303424
0.000711955
0.000315292
0.000626762
0.000324907
0.000503658
0.000331391
0.000334358
0.000110902
0.000333106
3.33145e-07
2.15435e-05
2.22938e-08
7.20988e-07
2.32927e-05
1.14215e-06
2.51837e-05
1.59643e-06
2.72281e-05
2.08983e-06
2.94381e-05
2.62182e-06
3.18271e-05
3.19943e-06
3.44095e-05
3.82255e-06
3.72007e-05
4.49964e-06
4.0213e-05
5.23082e-06
4.34706e-05
6.02365e-06
4.6996e-05
6.87938e-06
5.08065e-05
7.80669e-06
5.49252e-05
8.80997e-06
5.9363e-05
9.89953e-06
6.41544e-05
1.10761e-05
6.93508e-05
1.23499e-05
7.49659e-05
1.37317e-05
8.09962e-05
1.52307e-05
8.75265e-05
1.68503e-05
9.46023e-05
1.86096e-05
0.000102202
2.05171e-05
0.000110413
2.25803e-05
0.000119317
2.48235e-05
0.000128846
2.72516e-05
0.000139197
2.98834e-05
0.000150329
3.27379e-05
0.000162323
3.58271e-05
0.00017528
3.91784e-05
0.000189185
4.28031e-05
0.000204211
4.67319e-05
0.000220317
5.09803e-05
0.000237675
5.55776e-05
0.000256279
6.05481e-05
0.000276238
6.59151e-05
0.00029763
7.17152e-05
0.000320443
7.7969e-05
0.000344833
8.471e-05
0.000370761
9.19714e-05
0.000398248
9.97784e-05
0.000427331
0.000108161
0.000457929
0.00011715
0.000489933
0.000126767
0.000523219
0.000137031
0.000557543
0.000147955
0.000592557
0.000159543
0.00062779
0.000171786
0.000662607
0.000184661
0.000696165
0.000198124
0.000727364
0.00021211
0.000754781
0.000226519
0.0007766
0.000241214
0.000790518
0.000256004
0.000793652
0.000270635
0.00078244
0.000284763
0.000752534
0.00029795
0.000698751
0.000309621
0.000615072
0.000319059
0.000494196
0.000325439
0.000327941
0.000108737
0.000327544
3.24115e-07
2.11878e-05
2.4544e-08
7.04808e-07
2.29082e-05
1.11846e-06
2.4768e-05
1.56452e-06
2.67786e-05
2.04916e-06
2.89521e-05
2.57163e-06
3.13017e-05
3.139e-06
3.38413e-05
3.75099e-06
3.65864e-05
4.41606e-06
3.95478e-05
5.13418e-06
4.27506e-05
5.91291e-06
4.62174e-05
6.75338e-06
4.99646e-05
7.66422e-06
5.40147e-05
8.64968e-06
5.83763e-05
9.71991e-06
6.30845e-05
1.08756e-05
6.81939e-05
1.21269e-05
7.37149e-05
1.34843e-05
7.96376e-05
1.49568e-05
8.6054e-05
1.65478e-05
9.30101e-05
1.8276e-05
0.000100474
2.01497e-05
0.000108539
2.21765e-05
0.00011729
2.438e-05
0.000126642
2.67649e-05
0.000136811
2.93501e-05
0.000147744
3.21538e-05
0.000159518
3.51881e-05
0.000172245
3.84796e-05
0.000185893
4.20396e-05
0.000200651
4.58982e-05
0.000216458
5.00705e-05
0.000233502
5.45856e-05
0.000251764
5.94668e-05
0.000271357
6.47374e-05
0.000292359
7.04331e-05
0.000314746
7.65741e-05
0.000338691
8.31935e-05
0.00036414
9.03235e-05
0.000391117
9.7989e-05
0.000419665
0.000106219
0.000449698
0.000115044
0.000481108
0.000124485
0.000513778
0.00013456
0.000547468
0.000145282
0.000581835
0.000156655
0.000616418
0.000168671
0.000650592
0.000181308
0.00068353
0.000194523
0.00071415
0.000208253
0.000741053
0.000222402
0.000762453
0.000236836
0.000776085
0.000251368
0.000779121
0.000265747
0.000768061
0.000279634
0.000738646
0.000292597
0.000685788
0.000304073
0.000603595
0.000313342
0.000484927
0.000319622
0.000321659
0.000106329
0.00032203
3.14767e-07
2.08387e-05
2.82284e-08
6.8881e-07
2.25308e-05
1.09492e-06
2.436e-05
1.53299e-06
2.63375e-05
2.00876e-06
2.84752e-05
2.52176e-06
3.07859e-05
3.07877e-06
3.32836e-05
3.67969e-06
3.59832e-05
4.33273e-06
3.88947e-05
5.03794e-06
4.20437e-05
5.80271e-06
4.54529e-05
6.62815e-06
4.91379e-05
7.52273e-06
5.31207e-05
8.4906e-06
5.74074e-05
9.54177e-06
6.20339e-05
1.06769e-05
6.70578e-05
1.19059e-05
7.24862e-05
1.3239e-05
7.83033e-05
1.46853e-05
8.46078e-05
1.6248e-05
9.14463e-05
1.79454e-05
9.87763e-05
1.97858e-05
0.000106697
2.17764e-05
0.0001153
2.39407e-05
0.000124477
2.62831e-05
0.000134469
2.88222e-05
0.000145204
3.15759e-05
0.000156764
3.4556e-05
0.000169265
3.77887e-05
0.00018266
4.1285e-05
0.000197154
4.50744e-05
0.000212668
4.91719e-05
0.000229404
5.36058e-05
0.00024733
5.83992e-05
0.000266564
6.35748e-05
0.000287183
6.91676e-05
0.000309153
7.51975e-05
0.00033266
8.16968e-05
0.00035764
8.86971e-05
0.000384116
9.62227e-05
0.000412138
0.000104303
0.000441617
0.000112965
0.000472444
0.000122233
0.000504509
0.000132122
0.000537577
0.000142646
0.000571309
0.00015381
0.000605253
0.000165604
0.000638795
0.000178009
0.000671123
0.000190985
0.000701171
0.000204469
0.000727566
0.000218369
0.000748549
0.000232551
0.000761897
0.000246834
0.000764831
0.000260968
0.000753918
0.00027462
0.00072498
0.000287362
0.000673031
0.000298646
0.000592294
0.000307752
0.000475797
0.000313914
0.000315461
0.000103749
0.000316433
3.03858e-07
2.04956e-05
3.17844e-08
6.70723e-07
2.21598e-05
1.06963e-06
2.3959e-05
1.49966e-06
2.59039e-05
1.96711e-06
2.80064e-05
2.47094e-06
3.02791e-05
3.01822e-06
3.27356e-05
3.60845e-06
3.53905e-05
4.24996e-06
3.8253e-05
4.94259e-06
4.13492e-05
5.69372e-06
4.4702e-05
6.50437e-06
4.83258e-05
7.38293e-06
5.22425e-05
8.33342e-06
5.64557e-05
9.36573e-06
6.1002e-05
1.04805e-05
6.59419e-05
1.16874e-05
7.12795e-05
1.29967e-05
7.69929e-05
1.4417e-05
8.31874e-05
1.59517e-05
8.99104e-05
1.76187e-05
9.71092e-05
1.9426e-05
0.000104889
2.1381e-05
0.000113344
2.35064e-05
0.000122351
2.58068e-05
0.000132168
2.83004e-05
0.00014271
3.10046e-05
0.00015406
3.39312e-05
0.000166338
3.71057e-05
0.000179484
4.05391e-05
0.00019372
4.42602e-05
0.000208946
4.82838e-05
0.000225381
5.26377e-05
0.000242976
5.73443e-05
0.000261857
6.24262e-05
0.0002821
6.79174e-05
0.000303661
7.38376e-05
0.000326739
8.02183e-05
0.000351258
8.70906e-05
0.000377243
9.44783e-05
0.000404749
0.00010241
0.000433685
0.000110913
0.000463939
0.00012001
0.000495412
0.000129717
0.00052787
0.000140048
0.000560979
0.000151006
0.000594295
0.000162586
0.000627216
0.000174767
0.000658943
0.000187512
0.000688429
0.000200759
0.000714321
0.000214417
0.000734894
0.000228357
0.00074796
0.000242397
0.000750793
0.000256293
0.000740024
0.000269715
0.000711559
0.00028224
0.000660507
0.000293334
0.000581203
0.000302284
0.000466851
0.000308318
0.000309431
0.000101278
0.000310799
2.95331e-07
2.01589e-05
3.53071e-08
6.55985e-07
2.17958e-05
1.04768e-06
2.35654e-05
1.47012e-06
2.54784e-05
1.929e-06
2.75464e-05
2.42371e-06
2.97817e-05
2.96092e-06
3.21977e-05
3.5404e-06
3.48089e-05
4.17018e-06
3.76232e-05
4.85021e-06
4.06675e-05
5.58771e-06
4.39648e-05
6.38365e-06
4.75287e-05
7.2463e-06
5.13805e-05
8.17956e-06
5.55214e-05
9.19319e-06
5.99889e-05
1.02877e-05
6.48463e-05
1.14728e-05
7.00948e-05
1.27583e-05
7.57063e-05
1.4153e-05
8.17929e-05
1.56598e-05
8.84025e-05
1.72966e-05
9.54723e-05
1.90712e-05
0.000103113
2.09908e-05
0.000111425
2.30778e-05
0.000120263
2.53366e-05
0.000129909
2.7785e-05
0.000140261
3.04404e-05
0.000151404
3.3314e-05
0.000163464
3.64311e-05
0.000176367
3.98023e-05
0.000190349
4.34559e-05
0.000205292
4.74065e-05
0.00022143
5.16811e-05
0.000238701
5.63023e-05
0.000257236
6.12916e-05
0.000277111
6.66826e-05
0.000298269
7.24946e-05
0.000320926
7.87585e-05
0.000344993
8.55047e-05
0.000370496
9.27567e-05
0.000397496
0.000100542
0.000425898
0.000108889
0.000455591
0.000117819
0.000486482
0.000127348
0.000518339
0.000137489
0.000550835
0.000148249
0.000583534
0.00015962
0.000615843
0.000171584
0.000646976
0.000184105
0.000675906
0.000197122
0.000701301
0.000210547
0.000721465
0.00022425
0.000734251
0.000238055
0.000736982
0.000251717
0.000726354
0.000264913
0.000698351
0.000277225
0.000648181
0.00028813
0.000570282
0.00029693
0.000458029
0.00030284
0.000303488
9.88527e-05
0.000305208
2.88196e-07
1.98282e-05
3.58964e-08
6.42076e-07
2.14383e-05
1.02673e-06
2.31789e-05
1.44141e-06
2.50606e-05
1.89206e-06
2.70946e-05
2.37778e-06
2.92932e-05
2.90533e-06
3.16695e-05
3.47427e-06
3.42376e-05
4.09263e-06
3.70047e-05
4.76024e-06
3.99982e-05
5.48425e-06
4.3241e-05
6.26562e-06
4.67459e-05
7.11248e-06
5.0534e-05
8.02867e-06
5.4604e-05
9.02376e-06
5.89942e-05
1.00983e-05
6.37707e-05
1.12618e-05
6.89315e-05
1.25238e-05
7.4443e-05
1.38931e-05
8.04238e-05
1.53725e-05
8.69219e-05
1.69795e-05
9.38652e-05
1.87218e-05
0.00010137
2.06064e-05
0.00010954
2.26553e-05
0.000118213
2.48731e-05
0.000127691
2.72769e-05
0.000137856
2.98839e-05
0.000148797
3.27051e-05
0.000160642
3.57655e-05
0.000173306
3.90753e-05
0.000187039
4.26623e-05
0.000201705
4.65408e-05
0.000217551
5.07376e-05
0.000234504
5.52742e-05
0.000252699
6.01723e-05
0.000272212
6.54647e-05
0.000292976
7.11703e-05
0.00031522
7.73193e-05
0.000338843
8.39418e-05
0.000363872
9.10606e-05
0.000390377
9.87032e-05
0.000418255
0.000106897
0.000447397
0.000115663
0.000477716
0.000125018
0.000508984
0.000134976
0.000540878
0.000145542
0.000572969
0.000156711
0.000604675
0.000168465
0.000635224
0.000180767
0.000663605
0.000193561
0.00068851
0.000206758
0.000708272
0.000220232
0.000720781
0.000233804
0.000723413
0.000247237
0.000712925
0.00026021
0.000685381
0.000272312
0.000636083
0.00028303
0.00055957
0.000291682
0.000449384
0.000297476
0.000297703
9.66322e-05
0.000299715
2.83448e-07
1.95039e-05
3.56717e-08
6.31141e-07
2.10876e-05
1.00859e-06
2.27998e-05
1.4157e-06
2.46507e-05
1.85784e-06
2.66514e-05
2.33452e-06
2.8814e-05
2.85213e-06
3.11513e-05
3.41048e-06
3.36772e-05
4.01733e-06
3.63978e-05
4.6726e-06
3.93413e-05
5.3833e-06
4.25306e-05
6.15031e-06
4.59777e-05
6.98165e-06
4.97033e-05
7.88104e-06
5.37037e-05
8.85793e-06
5.80179e-05
9.91274e-06
6.27149e-05
1.10549e-05
6.77897e-05
1.22938e-05
7.3203e-05
1.36379e-05
7.90798e-05
1.50902e-05
8.54686e-05
1.66678e-05
9.22876e-05
1.83781e-05
9.96587e-05
2.02283e-05
0.000107689
2.22397e-05
0.000116201
2.44168e-05
0.000125513
2.67767e-05
0.000135496
2.9336e-05
0.000146237
3.21057e-05
0.000157872
3.51101e-05
0.000170301
3.83593e-05
0.000183789
4.18807e-05
0.000198183
4.56884e-05
0.000213743
4.98082e-05
0.000230384
5.4262e-05
0.000248245
5.90705e-05
0.000267404
6.4266e-05
0.00028778
6.98671e-05
0.000309618
7.59036e-05
0.000332806
8.24049e-05
0.00035737
8.93935e-05
0.000383387
9.68965e-05
0.000410751
0.000104941
0.000439351
0.000113548
0.000469108
0.000122734
0.000499796
0.000132513
0.000531097
0.000142891
0.000562589
0.000153863
0.000593701
0.000165412
0.000623673
0.000177503
0.000651511
0.000190079
0.000675931
0.000203053
0.000695294
0.0002163
0.00070753
0.000229645
0.000710062
0.000242851
0.000699712
0.000255604
0.000672617
0.000267497
0.000624176
0.000278028
0.000549024
0.000286533
0.000440859
0.000292219
0.000291986
9.44545e-05
0.000294343
2.78049e-07
1.91852e-05
3.35964e-08
6.18688e-07
2.07431e-05
9.89239e-07
2.24273e-05
1.38859e-06
2.4248e-05
1.82282e-06
2.6216e-05
2.29075e-06
2.83432e-05
2.79913e-06
3.06423e-05
3.34733e-06
3.31267e-05
3.94323e-06
3.58018e-05
4.58655e-06
3.86962e-05
5.28426e-06
4.18331e-05
6.03721e-06
4.52234e-05
6.8533e-06
4.88875e-05
7.73617e-06
5.28197e-05
8.69509e-06
5.70593e-05
9.73055e-06
6.16783e-05
1.08517e-05
6.66688e-05
1.20679e-05
7.19857e-05
1.33874e-05
7.77604e-05
1.4813e-05
8.40419e-05
1.63617e-05
9.07389e-05
1.80407e-05
9.79788e-05
1.98569e-05
0.000105873
2.18314e-05
0.000114226
2.39687e-05
0.000123376
2.62853e-05
0.000133179
2.87977e-05
0.000143725
3.15166e-05
0.000155153
3.4466e-05
0.000167351
3.76558e-05
0.000180599
4.11128e-05
0.000194726
4.48507e-05
0.000210005
4.88955e-05
0.00022634
5.32678e-05
0.000243873
5.79884e-05
0.000262683
6.30891e-05
0.000282679
6.8588e-05
0.000304118
7.45144e-05
0.000326879
8.08973e-05
0.000350987
8.77589e-05
0.000376525
9.51258e-05
0.000403384
0.000103025
0.000431451
0.000111477
0.000460656
0.000120499
0.000490774
0.000130104
0.000521492
0.000140299
0.000552395
0.000151079
0.000582922
0.000162429
0.000612325
0.000174313
0.000639629
0.000186676
0.000663571
0.000199432
0.000682542
0.000212456
0.00069451
0.000225575
0.000696947
0.000238557
0.000686735
0.00025109
0.000660088
0.000262776
0.000612496
0.00027312
0.000538687
0.000281477
0.000432512
0.000287061
0.000286415
9.24474e-05
0.000289094
2.74452e-07
1.88727e-05
3.27789e-08
6.09319e-07
2.04052e-05
9.73003e-07
2.2062e-05
1.36519e-06
2.3853e-05
1.79124e-06
2.5789e-05
2.2505e-06
2.78815e-05
2.74927e-06
3.01429e-05
3.28726e-06
3.25867e-05
3.87201e-06
3.52171e-05
4.5034e-06
3.80633e-05
5.1882e-06
4.11486e-05
5.92725e-06
4.44832e-05
6.7283e-06
4.80871e-05
7.59491e-06
5.19521e-05
8.5362e-06
5.61186e-05
9.55258e-06
6.0661e-05
1.06531e-05
6.55686e-05
1.18469e-05
7.07909e-05
1.31421e-05
7.64653e-05
1.45415e-05
8.26414e-05
1.60617e-05
8.92187e-05
1.77099e-05
9.63297e-05
1.94928e-05
0.00010409
2.14311e-05
0.000112287
2.35292e-05
0.000121278
2.58034e-05
0.000130904
2.82699e-05
0.000141258
3.09391e-05
0.000152483
3.38346e-05
0.000164456
3.69661e-05
0.000177467
4.036e-05
0.000191331
4.40299e-05
0.000206335
4.80007e-05
0.000222369
5.22935e-05
0.00023958
5.69283e-05
0.000258048
6.19362e-05
0.00027767
6.73353e-05
0.000298718
7.31544e-05
0.000321059
7.94218e-05
0.000344718
8.61597e-05
0.000369786
9.3394e-05
0.000396149
0.000101152
0.000423693
0.000109453
0.000452354
0.000118315
0.000481911
0.000127751
0.000512055
0.000137768
0.000542377
0.000148362
0.000572326
0.000159516
0.000601169
0.000171198
0.000627945
0.000183352
0.000651415
0.000195892
0.000669999
0.000208696
0.000681702
0.000221592
0.000684045
0.000234351
0.00067397
0.000246666
0.000647763
0.000258146
0.000601005
0.000268304
0.000528517
0.00027651
0.000424287
0.000281995
0.000280902
9.0435e-05
0.000283958
2.69912e-07
1.85657e-05
3.10014e-08
5.98384e-07
2.00733e-05
9.55514e-07
2.17032e-05
1.34045e-06
2.34651e-05
1.75884e-06
2.53696e-05
2.20975e-06
2.7428e-05
2.69954e-06
2.96526e-05
3.22771e-06
3.20564e-05
3.80181e-06
3.46429e-05
4.42159e-06
3.74419e-05
5.0938e-06
4.04766e-05
5.81923e-06
4.37565e-05
6.60553e-06
4.73011e-05
7.45618e-06
5.11004e-05
8.38015e-06
5.5195e-05
9.37788e-06
5.96621e-05
1.04583e-05
6.44884e-05
1.16302e-05
6.96178e-05
1.29017e-05
7.51939e-05
1.42755e-05
8.12665e-05
1.57679e-05
8.77263e-05
1.7386e-05
9.47107e-05
1.91363e-05
0.00010234
2.10393e-05
0.000110383
2.30991e-05
0.000119218
2.53318e-05
0.000128671
2.77533e-05
0.000138836
3.03739e-05
0.000149862
3.32167e-05
0.000161612
3.62913e-05
0.000174392
3.96235e-05
0.000187999
4.32266e-05
0.000202732
4.71257e-05
0.00021847
5.13406e-05
0.000235365
5.58915e-05
0.000253497
6.08091e-05
0.000272752
6.61108e-05
0.000293416
7.18252e-05
0.000315344
7.79801e-05
0.000338563
8.45974e-05
0.000363168
9.17028e-05
0.000389043
9.93228e-05
0.000416072
0.000107477
0.000444199
0.000116184
0.000473205
0.000125455
0.000502784
0.000135298
0.000532535
0.00014571
0.000561916
0.000156674
0.000590207
0.000168157
0.000616464
0.000180104
0.00063947
0.000192431
0.000657675
0.000205017
0.000669121
0.000217692
0.000671375
0.000230229
0.000661439
0.000242327
0.00063567
0.000253602
0.000589737
0.000263574
0.000518554
0.000271629
0.000416244
0.000277015
0.000275533
8.85597e-05
0.000278923
2.6597e-07
1.82648e-05
3.07336e-08
5.88885e-07
1.97478e-05
9.39345e-07
2.13513e-05
1.31735e-06
2.30847e-05
1.72783e-06
2.49582e-05
2.17038e-06
2.69832e-05
2.65091e-06
2.91715e-05
3.16927e-06
3.15361e-05
3.73269e-06
3.40795e-05
4.34107e-06
3.6832e-05
5.00096e-06
3.98171e-05
5.71314e-06
4.30432e-05
6.48511e-06
4.65298e-05
7.32025e-06
5.02644e-05
8.22742e-06
5.42884e-05
9.20695e-06
5.86817e-05
1.02677e-05
6.34281e-05
1.14182e-05
6.84663e-05
1.26666e-05
7.39457e-05
1.40153e-05
7.99168e-05
1.54806e-05
8.6261e-05
1.70692e-05
9.31212e-05
1.87877e-05
0.000100621
2.06561e-05
0.000108514
2.26785e-05
0.000117195
2.48707e-05
0.000126478
2.72483e-05
0.000136458
2.98215e-05
0.000147288
3.26128e-05
0.000158821
3.56318e-05
0.000171373
3.89039e-05
0.000184727
4.24421e-05
0.000199194
4.62707e-05
0.000214641
5.041e-05
0.000231227
5.48791e-05
0.000249027
5.97084e-05
0.000267922
6.49153e-05
0.000288209
7.05276e-05
0.000309731
7.6573e-05
0.000332517
8.30728e-05
0.000356667
9.00526e-05
0.000382062
9.75383e-05
0.000408586
0.00010555
0.000436187
0.000114104
0.000464649
0.000123215
0.000493671
0.000132888
0.00052286
0.000143121
0.000551681
0.000153898
0.000579428
0.000165185
0.000605174
0.000176929
0.000627724
0.000189046
0.000645555
0.000201415
0.000656748
0.00021387
0.000658915
0.000226187
0.000649116
0.00023807
0.000623778
0.00024914
0.000578656
0.000258927
0.000508755
0.000266831
0.000408324
0.000272117
0.000270221
8.66548e-05
0.000273978
2.59498e-07
1.79689e-05
3.00057e-08
5.75822e-07
1.94279e-05
9.20015e-07
2.10054e-05
1.29089e-06
2.27107e-05
1.69421e-06
2.45539e-05
2.12879e-06
2.6546e-05
2.60097e-06
2.86988e-05
3.11012e-06
3.10249e-05
3.66357e-06
3.3526e-05
4.26106e-06
3.62329e-05
4.90909e-06
3.91692e-05
5.60843e-06
4.23426e-05
6.36645e-06
4.57721e-05
7.1865e-06
4.94432e-05
8.07723e-06
5.3398e-05
9.03907e-06
5.77188e-05
1.00806e-05
6.23868e-05
1.12104e-05
6.73354e-05
1.24362e-05
7.272e-05
1.37607e-05
7.85913e-05
1.51995e-05
8.48221e-05
1.67594e-05
9.15604e-05
1.84469e-05
9.89332e-05
2.02816e-05
0.000106678
2.22676e-05
0.000115209
2.44203e-05
0.000124325
2.67551e-05
0.000134123
2.9282e-05
0.000144761
3.20232e-05
0.000156079
3.4988e-05
0.000168408
3.82014e-05
0.000181513
4.1676e-05
0.000195719
4.54364e-05
0.000210881
4.95016e-05
0.000227161
5.38911e-05
0.000244638
5.86344e-05
0.000263178
6.37487e-05
0.000283094
6.92615e-05
0.000304217
7.52e-05
0.000326578
8.15853e-05
0.000350282
8.84424e-05
0.000375204
9.57972e-05
0.000401231
0.000103669
0.000428315
0.000112075
0.000456244
0.000121028
0.000484719
0.000130535
0.000513354
0.000140592
0.000541626
0.000151184
0.000568838
0.000162279
0.000594082
0.000173822
0.000616185
0.00018573
0.000633651
0.000197884
0.000644597
0.000210122
0.000646683
0.00022222
0.000637024
0.000233889
0.000612115
0.000244757
0.000567796
0.00025436
0.000499162
0.000262113
0.000400586
0.000267298
0.000265055
8.48768e-05
0.000269114
2.53874e-07
1.76786e-05
3.19843e-08
5.65133e-07
1.9114e-05
9.03092e-07
2.0666e-05
1.26754e-06
2.23438e-05
1.6634e-06
2.41572e-05
2.09014e-06
2.6117e-05
2.55354e-06
2.82349e-05
3.0534e-06
3.05231e-05
3.5967e-06
3.29827e-05
4.18335e-06
3.56449e-05
4.81964e-06
3.85333e-05
5.50636e-06
4.16549e-05
6.25072e-06
4.50283e-05
7.05599e-06
4.86371e-05
7.93072e-06
5.25239e-05
8.87522e-06
5.67735e-05
9.89804e-06
6.13644e-05
1.10075e-05
6.6225e-05
1.22112e-05
7.15164e-05
1.35118e-05
7.72897e-05
1.49248e-05
8.34092e-05
1.64567e-05
9.00276e-05
1.8114e-05
9.72758e-05
1.99158e-05
0.000104876
2.18663e-05
0.000113258
2.39805e-05
0.00012221
2.62736e-05
0.00013183
2.87553e-05
0.000142279
3.14476e-05
0.000153387
3.43595e-05
0.000165495
3.75156e-05
0.000178357
4.09286e-05
0.000192306
4.46219e-05
0.000207188
4.86151e-05
0.000223169
5.29268e-05
0.000240326
5.75862e-05
0.000258519
6.26102e-05
0.000278069
6.80259e-05
0.000298801
7.386e-05
0.000320743
8.01333e-05
0.000344008
8.68707e-05
0.000368466
9.40973e-05
0.000394003
0.000101832
0.000420579
0.000110093
0.000447982
0.000118892
0.000475919
0.000128235
0.000504009
0.000138119
0.000531739
0.00014853
0.000558426
0.000159433
0.000583176
0.000170777
0.000604839
0.000182479
0.000621947
0.000194421
0.000632651
0.000206442
0.000634658
0.000218324
0.000625136
0.000229781
0.00060065
0.000240448
0.00055712
0.00024987
0.000489729
0.000257472
0.000392969
0.000262556
0.000259949
8.30671e-05
0.000264327
2.46676e-07
1.73932e-05
3.33871e-08
5.52142e-07
1.88054e-05
8.84233e-07
2.03325e-05
1.24215e-06
2.19832e-05
1.63114e-06
2.37673e-05
2.05036e-06
2.56955e-05
2.50569e-06
2.7779e-05
2.99671e-06
3.00302e-05
3.5304e-06
3.2449e-05
4.10657e-06
3.50672e-05
4.73147e-06
3.79085e-05
5.40586e-06
4.09792e-05
6.13687e-06
4.42976e-05
6.92771e-06
4.78452e-05
7.78675e-06
5.16651e-05
8.71437e-06
5.58448e-05
9.71891e-06
6.03601e-05
1.08086e-05
6.51343e-05
1.19909e-05
7.03341e-05
1.32684e-05
7.60112e-05
1.46562e-05
8.20213e-05
1.61608e-05
8.8522e-05
1.77886e-05
9.56479e-05
1.95584e-05
0.000103106
2.14742e-05
0.000111342
2.35508e-05
0.000120133
2.58032e-05
0.000129577
2.82409e-05
0.000139841
3.08854e-05
0.000150742
3.37457e-05
0.000162635
3.6846e-05
0.000175256
4.01985e-05
0.000188953
4.38268e-05
0.00020356
4.77494e-05
0.000219246
5.19852e-05
0.00023609
5.65627e-05
0.000253941
6.14984e-05
0.000273133
6.68192e-05
0.00029348
7.25511e-05
0.00031501
7.8715e-05
0.000337843
8.53349e-05
0.000361846
9.2436e-05
0.000386902
0.000100037
0.000412978
0.000108155
0.000439865
0.000116802
0.000467273
0.000125984
0.000494828
0.000135698
0.000522027
0.000145929
0.000548197
0.000156644
0.000572464
0.000167791
0.000593696
0.000179288
0.000610454
0.00019102
0.000620925
0.000202826
0.000622857
0.000214493
0.000613476
0.000225741
0.000589409
0.000236209
0.000546659
0.000245452
0.000480498
0.000252907
0.00038553
0.000257888
0.00025499
8.1386e-05
0.000259613
2.40405e-07
1.71133e-05
3.60894e-08
5.40967e-07
1.85028e-05
8.66991e-07
2.00053e-05
1.21869e-06
2.16294e-05
1.60046e-06
2.33847e-05
2.01211e-06
2.52818e-05
2.45902e-06
2.73317e-05
2.94115e-06
2.95463e-05
3.46516e-06
3.1925e-05
4.031e-06
3.45e-05
4.64476e-06
3.72951e-05
5.30716e-06
4.03159e-05
6.02522e-06
4.35802e-05
6.80203e-06
4.70676e-05
7.64589e-06
5.08219e-05
8.55705e-06
5.49328e-05
9.5438e-06
5.93737e-05
1.06141e-05
6.4063e-05
1.17755e-05
6.9173e-05
1.30303e-05
7.47554e-05
1.43935e-05
8.06581e-05
1.58715e-05
8.70431e-05
1.74705e-05
9.40487e-05
1.9209e-05
0.000101366
2.10909e-05
0.00010946
2.31308e-05
0.000118093
2.53434e-05
0.000127365
2.77381e-05
0.000137446
3.0336e-05
0.000148144
3.3146e-05
0.000159825
3.61916e-05
0.00017221
3.94853e-05
0.000185659
4.30496e-05
0.000199996
4.69035e-05
0.000215393
5.10649e-05
0.000231929
5.55622e-05
0.000249443
6.04116e-05
0.000268283
6.56393e-05
0.000288251
7.12713e-05
0.000309378
7.73277e-05
0.000331786
8.38326e-05
0.00035534
9.08104e-05
0.000379923
9.82798e-05
0.000405508
0.000106257
0.000431887
0.000114754
0.000458774
0.000123778
0.000485803
0.000133324
0.000512479
0.000143378
0.000538142
0.000153907
0.000561933
0.000164859
0.000582742
0.000176153
0.000599157
0.000187676
0.000609398
0.000199271
0.000611259
0.000210726
0.000602016
0.000221766
0.000578361
0.000232039
0.000536377
0.000241106
0.000471421
0.000248414
0.000378209
0.000253294
0.000250091
7.96764e-05
0.000254971
2.32079e-07
1.68378e-05
3.77029e-08
5.2657e-07
1.8205e-05
8.46945e-07
1.96833e-05
1.19212e-06
2.12814e-05
1.56746e-06
2.30085e-05
1.97189e-06
2.4875e-05
2.41127e-06
2.68918e-05
2.88506e-06
2.90706e-05
3.40005e-06
3.14099e-05
3.95605e-06
3.39425e-05
4.55905e-06
3.66922e-05
5.20984e-06
3.96638e-05
5.91524e-06
4.28751e-05
6.67837e-06
4.63033e-05
7.50732e-06
4.99932e-05
8.40245e-06
5.40366e-05
9.37182e-06
5.84045e-05
1.04233e-05
6.30105e-05
1.15642e-05
6.80321e-05
1.2797e-05
7.35216e-05
1.41362e-05
7.93188e-05
1.55882e-05
8.55902e-05