/*--------------------------------*- C++ -*----------------------------------*\
  =========                 |
  \\      /  F ield         | OpenFOAM: The Open Source CFD Toolbox
   \\    /   O peration     | Website:  https://openfoam.org
    \\  /    A nd           | Version:  6.0
     \\/     M anipulation  |
\*---------------------------------------------------------------------------*/
FoamFile
{
    version     2.0;
    format      ascii;
    class       surfaceScalarField;
    location    "10";
    object      phi;
}
// * * * * * * * * * * * * * * * * * * * * * * * * * * * * * * * * * * * * * //

dimensions      [0 3 -1 0 0 0 0];

internalField   nonuniform List<scalar> 
123526
(
8.13264e-05
2.26104e-05
-8.09419e-05
8.17371e-05
2.44386e-05
8.21872e-05
2.64134e-05
8.26689e-05
2.8546e-05
8.31959e-05
3.08492e-05
8.37619e-05
3.33368e-05
8.43799e-05
3.60234e-05
8.50445e-05
3.89247e-05
8.57706e-05
4.20569e-05
8.6551e-05
4.54396e-05
8.74015e-05
4.90925e-05
8.83139e-05
5.30358e-05
8.93083e-05
5.72918e-05
9.03771e-05
6.18823e-05
9.15437e-05
6.68343e-05
9.27962e-05
7.21784e-05
9.41585e-05
7.79412e-05
9.56285e-05
8.41486e-05
9.72278e-05
9.08409e-05
9.89498e-05
9.80541e-05
0.000100823
0.000105817
0.000102847
0.000114174
0.000105038
0.000123172
0.000107413
0.000132838
0.000109983
0.000143236
0.000112761
0.0001544
0.000115769
0.00016638
0.000119017
0.000179229
0.000122532
0.000192988
0.000126322
0.000207713
0.000130417
0.000223441
0.000134829
0.000240224
0.000139586
0.000258092
0.000144709
0.00027708
0.000150216
0.000297208
0.000156131
0.000318479
0.000162474
0.000340886
0.000169267
0.000364388
0.00017653
0.000388915
0.000184282
0.000414359
0.000192537
0.000440553
0.00020131
0.000467269
0.000210605
0.000494191
0.000220424
0.000520901
0.000230755
0.00054685
0.000241576
0.000571337
0.000252844
0.000593471
0.000264495
0.00061214
0.000276437
0.000625963
0.000288536
0.000633253
0.000300629
0.000631942
0.000312486
0.000619557
0.000323836
0.000593105
0.000334317
0.000549143
0.000343496
0.000483667
0.000350795
0.000392264
0.000356116
0.000269876
0.00035674
0.000114409
0.000360866
-7.22016e-05
-0.000309399
0.00039133
8.03928e-05
2.22392e-05
-8.00206e-05
8.07901e-05
2.40375e-05
8.1226e-05
2.59793e-05
8.16934e-05
2.80756e-05
8.22044e-05
3.03396e-05
8.27535e-05
3.27848e-05
8.33524e-05
3.54255e-05
8.39971e-05
3.82768e-05
8.47015e-05
4.13537e-05
8.54603e-05
4.4677e-05
8.62881e-05
4.82663e-05
8.71788e-05
5.21408e-05
8.81502e-05
5.63226e-05
8.91972e-05
6.0831e-05
9.03403e-05
6.56938e-05
9.15702e-05
7.09445e-05
9.29073e-05
7.66067e-05
9.43522e-05
8.27005e-05
9.59231e-05
8.92725e-05
9.76159e-05
9.63591e-05
9.94556e-05
0.000103979
0.000101444
0.000112184
0.000103596
0.000121022
0.000105928
0.000130506
0.000108449
0.000140716
0.000111176
0.000151674
0.000114126
0.000163431
0.000117311
0.000176045
0.000120756
0.000189544
0.000124471
0.000203998
0.000128482
0.000219431
0.000132804
0.000235902
0.000137464
0.000253435
0.00014248
0.000272066
0.000147873
0.000291818
0.000153666
0.000312687
0.000159878
0.000334674
0.000166532
0.000357733
0.000173649
0.000381796
0.000181246
0.000406758
0.000189342
0.000432454
0.000197949
0.000458658
0.000207074
0.000485061
0.000216718
0.00051125
0.000226869
0.000536691
0.000237503
0.000560693
0.000248579
0.000582385
0.000260028
0.000600678
0.00027176
0.00061422
0.000283639
0.000621359
0.000295502
0.000620071
0.000307122
0.000607931
0.000318232
0.000582016
0.000328472
0.000538942
0.000337413
0.000474798
0.000344499
0.000385281
0.000349293
0.000265267
0.000352122
0.000111877
0.000351251
-7.08431e-05
-0.000292448
0.000334587
7.90532e-05
2.18742e-05
-7.86875e-05
7.94467e-05
2.36404e-05
7.98793e-05
2.55481e-05
8.03447e-05
2.76075e-05
8.08538e-05
2.98316e-05
8.1402e-05
3.2234e-05
8.19998e-05
3.48287e-05
8.26434e-05
3.76303e-05
8.33456e-05
4.06527e-05
8.41016e-05
4.39176e-05
8.49252e-05
4.74443e-05
8.5811e-05
5.1251e-05
8.67765e-05
5.53593e-05
8.78167e-05
5.97865e-05
8.89522e-05
6.45611e-05
9.01733e-05
6.97195e-05
9.15006e-05
7.52824e-05
9.29338e-05
8.12643e-05
9.44909e-05
8.77183e-05
9.61672e-05
9.46807e-05
9.79871e-05
0.000102162
9.99523e-05
0.000110218
0.000102076
0.0001189
0.000104375
0.000128207
0.000106858
0.000138235
0.000109541
0.000148992
0.000112441
0.000160533
0.00011557
0.000172917
0.00011895
0.000186165
0.000122595
0.000200355
0.000126528
0.000215498
0.000130766
0.000231665
0.000135332
0.000248871
0.000140248
0.000267155
0.000145532
0.000286538
0.000151208
0.000307013
0.000157297
0.000328587
0.000163821
0.00035121
0.000170802
0.000374817
0.000178258
0.000399303
0.000186206
0.000424507
0.000194658
0.000450205
0.000203621
0.000476096
0.000213095
0.000501775
0.000223067
0.000526716
0.000233512
0.000550246
0.000244385
0.00057151
0.000255617
0.000589443
0.000267117
0.000602721
0.000278748
0.000609724
0.000290351
0.000608474
0.000301698
0.000596591
0.000312531
0.000571215
0.000322494
0.000529025
0.000331164
0.000466199
0.000338027
0.000378499
0.000342551
0.00026086
0.000344298
0.000110252
0.000345472
-7.18569e-05
-0.000294038
0.00034716
7.79637e-05
2.15026e-05
-7.7591e-05
7.8363e-05
2.3238e-05
7.87983e-05
2.51142e-05
7.92635e-05
2.71399e-05
7.97691e-05
2.93273e-05
8.03111e-05
3.16898e-05
8.08995e-05
3.42412e-05
8.15311e-05
3.69961e-05
8.22179e-05
3.9967e-05
8.29557e-05
4.31766e-05
8.37574e-05
4.66439e-05
8.46188e-05
5.03858e-05
8.55565e-05
5.44235e-05
8.65673e-05
5.87717e-05
8.76708e-05
6.34599e-05
8.88593e-05
6.85274e-05
9.01523e-05
7.39918e-05
9.15513e-05
7.98624e-05
9.30731e-05
8.61988e-05
9.47143e-05
9.30376e-05
9.6498e-05
0.000100381
9.84263e-05
0.000108289
0.000100512
0.000116817
0.00010277
0.000125949
0.00010521
0.000135796
0.000107846
0.000146357
0.000110696
0.000157685
0.00011377
0.000169844
0.000117091
0.000182845
0.000120671
0.000196776
0.000124533
0.000211637
0.000128694
0.000227506
0.000133177
0.000244391
0.000138003
0.000262334
0.00014319
0.000281356
0.000148762
0.000301445
0.00015474
0.000322613
0.000161146
0.000344807
0.000168003
0.000367964
0.000175327
0.000391983
0.000183136
0.000416703
0.000191441
0.000441905
0.000200249
0.000467294
0.000209557
0.000492473
0.000219352
0.000516927
0.000229606
0.000539997
0.000240275
0.000560849
0.000251289
0.000578436
0.000262555
0.000591465
0.00027394
0.000598349
0.000285286
0.000597148
0.00029637
0.000585533
0.000306941
0.000560703
0.000316655
0.0005194
0.000325102
0.00045788
0.000331805
0.000371966
0.000336302
0.000256624
0.000338451
0.000108501
0.00033867
-7.14498e-05
-0.000290895
0.000335903
7.73823e-05
2.11263e-05
-7.70055e-05
7.77831e-05
2.28341e-05
7.82165e-05
2.4682e-05
7.86772e-05
2.6677e-05
7.91747e-05
2.88308e-05
7.97058e-05
3.11566e-05
8.02797e-05
3.36681e-05
8.08938e-05
3.63796e-05
8.1559e-05
3.93026e-05
8.22715e-05
4.24611e-05
8.30432e-05
4.58735e-05
8.38699e-05
4.95555e-05
8.47677e-05
5.35276e-05
8.57338e-05
5.78019e-05
8.67876e-05
6.24084e-05
8.79225e-05
6.73891e-05
8.91584e-05
7.27584e-05
9.04977e-05
7.85206e-05
9.19577e-05
8.47412e-05
9.35361e-05
9.14574e-05
9.52561e-05
9.86627e-05
9.71207e-05
0.000106423
9.91425e-05
0.000114797
0.000101337
0.000123754
0.000103714
0.000133422
0.000106285
0.000143786
0.00010907
0.000154902
0.000112077
0.000166838
0.000115329
0.000179595
0.000118837
0.000193269
0.000122624
0.000207851
0.000126705
0.000223426
0.000131105
0.000239994
0.000135842
0.000257602
0.000140935
0.000276268
0.000146408
0.000295976
0.000152279
0.000316745
0.000158573
0.000338518
0.00016531
0.000361231
0.000172507
0.00038479
0.00018018
0.000409033
0.000188341
0.000433748
0.000196995
0.000458644
0.000206138
0.000483333
0.000215756
0.000507312
0.000225822
0.000529935
0.000236289
0.000550384
0.000247088
0.000567639
0.000258129
0.000580429
0.000269278
0.0005872
0.000280383
0.000586051
0.000291223
0.000574698
0.00030156
0.000550394
0.000311058
0.000509941
0.000319324
0.000449674
0.000325907
0.000365445
0.000330399
0.000252219
0.000332586
0.00010639
0.00033273
-7.15076e-05
-0.000287885
0.000329767
7.70295e-05
2.07574e-05
-7.666e-05
7.74211e-05
2.24398e-05
7.78441e-05
2.42602e-05
7.8294e-05
2.62251e-05
7.87797e-05
2.8346e-05
7.92983e-05
3.06361e-05
7.98585e-05
3.31086e-05
8.04581e-05
3.57777e-05
8.11073e-05
3.86542e-05
8.18024e-05
4.17632e-05
8.25538e-05
4.51231e-05
8.33574e-05
4.87484e-05
8.42275e-05
5.2659e-05
8.51616e-05
5.68643e-05
8.61772e-05
6.13947e-05
8.72687e-05
6.62943e-05
8.84546e-05
7.15745e-05
8.97386e-05
7.7234e-05
9.11375e-05
8.33443e-05
9.26508e-05
8.99425e-05
9.43015e-05
9.7014e-05
9.60939e-05
0.00010463
9.80412e-05
0.000112852
0.00010016
0.000121635
0.000102459
0.000131124
0.000104953
0.000141293
0.000107658
0.000152199
0.000110586
0.000163911
0.000113758
0.000176425
0.000117184
0.000189845
0.000120886
0.00020415
0.00012488
0.000219433
0.000129191
0.000235689
0.000133834
0.000252963
0.000138829
0.000271277
0.000144199
0.00029061
0.000149963
0.000310986
0.000156142
0.000332342
0.000162757
0.000354621
0.000169826
0.000377727
0.000177362
0.000401502
0.000185377
0.000425739
0.000193874
0.000450154
0.00020285
0.000474365
0.00021229
0.000497881
0.000222166
0.000520069
0.000232432
0.000540131
0.000243018
0.000557064
0.000253838
0.000569627
0.000264759
0.000576295
0.000275634
0.000575205
0.000286246
0.000564118
0.000296365
0.000540341
0.000305667
0.000500735
0.00031377
0.000441705
0.000320243
0.000359152
0.000324701
0.00024803
0.000326913
0.000104584
0.00032679
-7.07434e-05
-0.00028391
0.000323203
7.66279e-05
2.04034e-05
-7.62735e-05
7.70043e-05
2.20607e-05
7.74124e-05
2.38531e-05
7.78483e-05
2.57873e-05
7.83203e-05
2.78749e-05
7.8826e-05
3.01285e-05
7.93737e-05
3.25615e-05
7.99617e-05
3.51876e-05
8.05996e-05
3.8017e-05
8.12843e-05
4.1076e-05
8.20252e-05
4.43831e-05
8.28185e-05
4.7952e-05
8.36768e-05
5.18021e-05
8.45973e-05
5.59406e-05
8.55957e-05
6.03981e-05
8.66661e-05
6.5221e-05
8.78252e-05
7.04174e-05
8.90765e-05
7.59804e-05
9.04359e-05
8.19868e-05
9.19032e-05
8.84737e-05
9.3501e-05
9.5418e-05
9.52346e-05
0.000102895
9.71172e-05
0.000110971
9.91664e-05
0.000119586
0.000101392
0.0001289
0.000103809
0.000138876
0.000106435
0.000149574
0.00010928
0.000161067
0.000112367
0.00017334
0.000115706
0.000186507
0.000119319
0.000200537
0.000123222
0.000215532
0.000127437
0.000231476
0.000131983
0.000248423
0.000136876
0.000266389
0.000142139
0.000285351
0.00014779
0.000305338
0.000153852
0.000326285
0.000160342
0.000348134
0.000167278
0.000370795
0.000174674
0.000394111
0.000182538
0.000417879
0.000190876
0.00044182
0.000199681
0.000465563
0.00020894
0.000488625
0.000218623
0.000510388
0.000228686
0.00053007
0.000239061
0.000546689
0.000249661
0.000559029
0.000260358
0.000565594
0.000271009
0.000564557
0.000281402
0.000553722
0.000291313
0.000530444
0.000300429
0.000491641
0.00030838
0.00043379
0.00031475
0.000352817
0.000319169
0.000243655
0.000321365
0.000102403
0.000320982
-7.03613e-05
-0.000279968
0.000317031
7.607e-05
2.00644e-05
-7.57306e-05
7.64323e-05
2.16961e-05
7.68266e-05
2.34598e-05
7.72495e-05
2.53627e-05
7.77088e-05
2.74163e-05
7.82027e-05
2.96331e-05
7.87387e-05
3.2026e-05
7.9316e-05
3.46085e-05
7.99436e-05
3.73899e-05
8.06193e-05
4.03979e-05
8.13521e-05
4.36509e-05
8.2139e-05
4.71621e-05
8.29915e-05
5.09506e-05
8.39072e-05
5.50217e-05
8.49001e-05
5.94065e-05
8.59642e-05
6.4154e-05
8.71142e-05
6.92689e-05
8.83532e-05
7.47392e-05
8.96949e-05
8.06466e-05
9.11391e-05
8.70281e-05
9.27069e-05
9.38519e-05
9.44036e-05
0.000101198
9.6242e-05
0.000109134
9.82399e-05
0.000117588
0.000100408
0.000126734
0.00010276
0.000136524
0.000105316
0.00014702
0.000108087
0.000158297
0.000111095
0.000170334
0.000114351
0.000183253
0.000117877
0.000197012
0.000121688
0.000211721
0.000125809
0.00022736
0.000130254
0.000243981
0.000135044
0.000261603
0.000140199
0.0002802
0.000145736
0.000299804
0.000151677
0.000320347
0.00015804
0.000341775
0.00016484
0.000363999
0.000172092
0.000386865
0.000179804
0.000410174
0.000187978
0.000433653
0.00019661
0.000456939
0.000205685
0.00047956
0.000215175
0.00050091
0.000225034
0.000520224
0.000235197
0.00053654
0.00024558
0.000548666
0.000256057
0.000555135
0.000266488
0.000554156
0.000276667
0.000543575
0.000286377
0.000520798
0.000295315
0.000482797
0.000303123
0.000426114
0.000309396
0.00034672
0.000313773
0.000239538
0.000315916
0.000100657
0.000315308
-6.91263e-05
-0.000275407
0.000311126
7.53532e-05
1.97368e-05
-7.50254e-05
7.57047e-05
2.13424e-05
7.60881e-05
2.30772e-05
7.65005e-05
2.49488e-05
7.6949e-05
2.69685e-05
7.74323e-05
2.91484e-05
7.79576e-05
3.15012e-05
7.85244e-05
3.404e-05
7.91414e-05
3.67734e-05
7.98071e-05
3.973e-05
8.05305e-05
4.29282e-05
8.13092e-05
4.63806e-05
8.21547e-05
5.01063e-05
8.30651e-05
5.41084e-05
8.40538e-05
5.84193e-05
8.51151e-05
6.30902e-05
8.62623e-05
6.81234e-05
8.74979e-05
7.35016e-05
8.88343e-05
7.9312e-05
9.02701e-05
8.55911e-05
9.18248e-05
9.22988e-05
9.35031e-05
9.9519e-05
9.53166e-05
0.000107322
9.72825e-05
0.000115622
9.94109e-05
0.000124607
0.000101717
0.000134219
0.000104219
0.000144519
0.000106929
0.000155588
0.000109869
0.000167395
0.000113051
0.000180071
0.000116498
0.000193566
0.000120225
0.000207995
0.000124254
0.000223333
0.000128605
0.000239635
0.000133292
0.00025692
0.000138339
0.000275156
0.000143763
0.000294383
0.000149584
0.000314531
0.000155819
0.000335544
0.000162483
0.000357339
0.00016959
0.000379762
0.000177148
0.00040262
0.000185158
0.000425646
0.000193616
0.000448484
0.000202507
0.000470671
0.000211802
0.000491616
0.000221459
0.000510568
0.000231412
0.000526585
0.00024158
0.000538497
0.00025184
0.000544866
0.000262058
0.000543936
0.000272029
0.00053359
0.000281545
0.000511281
0.000290312
0.000474035
0.000297982
0.000418456
0.000304164
0.000340542
0.00030849
0.000235211
0.000310561
9.85391e-05
0.000309778
-6.84386e-05
-0.000271152
0.000305451
7.45104e-05
1.94173e-05
-7.41907e-05
7.48542e-05
2.09966e-05
7.52294e-05
2.27028e-05
7.56335e-05
2.45434e-05
7.6073e-05
2.65294e-05
7.65472e-05
2.86729e-05
7.70626e-05
3.09861e-05
7.76193e-05
3.34818e-05
7.82254e-05
3.61675e-05
7.88802e-05
3.9073e-05
7.95922e-05
4.22167e-05
8.036e-05
4.561e-05
8.11949e-05
4.92722e-05
8.20959e-05
5.32044e-05
8.30763e-05
5.74399e-05
8.4131e-05
6.20328e-05
8.52729e-05
6.69827e-05
8.65047e-05
7.22679e-05
8.78372e-05
7.79808e-05
8.92691e-05
8.4158e-05
9.08179e-05
9.07513e-05
9.24876e-05
9.78487e-05
9.42881e-05
0.000105523
9.62359e-05
0.000113674
9.83398e-05
0.000122504
0.000100615
0.000131944
0.000103078
0.000142058
0.000105742
0.000152925
0.000108628
0.00016451
0.000111749
0.000176951
0.000115127
0.000190189
0.000118778
0.000204345
0.000122725
0.000219389
0.000126986
0.000235378
0.000131577
0.000252332
0.000136521
0.000270215
0.000141835
0.000289073
0.000147537
0.000308831
0.000153646
0.000329439
0.000160176
0.000350813
0.00016714
0.000372804
0.000174544
0.000395222
0.000182391
0.000417806
0.000190677
0.000440207
0.000199385
0.000461973
0.000208489
0.000482523
0.000217946
0.000501124
0.000227692
0.000516852
0.00023765
0.000528559
0.000247699
0.000534836
0.000257708
0.000533958
0.000267478
0.000523849
0.000276807
0.00050201
0.000285409
0.000465519
0.000292946
0.000411038
0.000299036
0.000334615
0.000303301
0.000231184
0.000305291
9.69137e-05
0.000304384
-6.69446e-05
-0.000266377
0.000299965
7.35768e-05
1.91037e-05
-7.32631e-05
7.39146e-05
2.0657e-05
7.4283e-05
2.2335e-05
7.468e-05
2.41452e-05
7.51116e-05
2.60983e-05
7.55775e-05
2.8206e-05
7.60836e-05
3.04803e-05
7.66306e-05
3.29335e-05
7.72259e-05
3.55724e-05
7.78694e-05
3.84276e-05
7.85691e-05
4.15174e-05
7.93243e-05
4.48524e-05
8.01459e-05
4.84514e-05
8.1034e-05
5.23137e-05
8.20015e-05
5.64735e-05
8.30445e-05
6.09874e-05
8.41757e-05
6.58529e-05
8.53983e-05
7.10436e-05
8.67227e-05
7.66577e-05
8.81477e-05
8.27319e-05
8.96897e-05
8.92107e-05
9.13521e-05
9.61859e-05
9.31435e-05
0.000103733
9.50792e-05
0.000111739
9.71668e-05
0.000120418
9.942e-05
0.000129692
0.000101855
0.000139623
0.000104485
0.000150297
0.000107329
0.000161667
0.0001104
0.000173881
0.000113721
0.000186868
0.000117307
0.00020076
0.00012118
0.000215518
0.00012536
0.000231203
0.000129863
0.000247832
0.000134709
0.000265371
0.000139918
0.000283867
0.000145507
0.000303245
0.000151495
0.000323455
0.000157894
0.000344418
0.000164717
0.000365984
0.000171971
0.000387971
0.000179659
0.000410121
0.000187775
0.000432093
0.000196304
0.000453445
0.00020522
0.000473607
0.000214483
0.000491861
0.000224028
0.000507302
0.000233782
0.000518803
0.000243625
0.00052498
0.000253433
0.000524143
0.000263009
0.00051425
0.000272157
0.000492849
0.0002806
0.000457066
0.000288007
0.000403624
0.000294004
0.000328598
0.000298203
0.000226949
0.000300115
9.49035e-05
0.000299121
-6.612e-05
-0.000262011
0.000294634
7.2581e-05
1.8795e-05
-7.22723e-05
7.29138e-05
2.03227e-05
7.32762e-05
2.19731e-05
7.3667e-05
2.37534e-05
7.40914e-05
2.56742e-05
7.45496e-05
2.77469e-05
7.50469e-05
2.99831e-05
7.55844e-05
3.23948e-05
7.61691e-05
3.49878e-05
7.68012e-05
3.77937e-05
7.7488e-05
4.08306e-05
7.82298e-05
4.41083e-05
7.90366e-05
4.7645e-05
7.99094e-05
5.14382e-05
8.08608e-05
5.55228e-05
8.18881e-05
5.99578e-05
8.30033e-05
6.47385e-05
8.42111e-05
6.98341e-05
8.55214e-05
7.53484e-05
8.69338e-05
8.13185e-05
8.84639e-05
8.76817e-05
9.01152e-05
9.45342e-05
9.18952e-05
0.000101954
9.38185e-05
0.000109815
9.58915e-05
0.000118346
9.81269e-05
0.000127457
0.00010054
0.000137211
0.000103142
0.000147696
0.000105952
0.000158858
0.000108982
0.000170851
0.000112254
0.000183597
0.000115784
0.000197231
0.000119593
0.000211712
0.000123699
0.000227099
0.000128121
0.000243414
0.000132878
0.000260617
0.000137988
0.00027876
0.00014347
0.000297766
0.000149341
0.000317588
0.000155614
0.000338148
0.000162302
0.000359302
0.000169411
0.000380867
0.000176944
0.000402595
0.000184896
0.00042415
0.000193252
0.000445098
0.000201986
0.000464884
0.000211059
0.000482802
0.000220411
0.000497964
0.000229966
0.000509267
0.000239612
0.000515352
0.000249226
0.000514559
0.000258614
0.000504888
0.000267589
0.000483927
0.000275877
0.000448857
0.000283158
0.000396454
0.00028906
0.000322848
0.000293186
0.000223045
0.000295023
9.34092e-05
0.000293972
-6.45134e-05
-0.000257139
0.000289438
7.15442e-05
1.8491e-05
-7.12401e-05
7.1872e-05
1.99937e-05
7.22286e-05
2.16171e-05
7.26131e-05
2.33683e-05
7.30302e-05
2.52574e-05
7.34807e-05
2.72958e-05
7.39692e-05
2.94947e-05
7.44974e-05
3.18657e-05
7.50715e-05
3.44137e-05
7.56923e-05
3.71715e-05
7.63665e-05
4.01566e-05
7.70947e-05
4.3378e-05
7.78864e-05
4.68537e-05
7.87433e-05
5.05791e-05
7.96773e-05
5.45896e-05
8.06864e-05
5.89467e-05
8.17828e-05
6.36432e-05
8.29716e-05
6.86439e-05
8.42629e-05
7.40582e-05
8.5657e-05
7.99237e-05
8.71693e-05
8.61705e-05
8.88036e-05
9.28996e-05
9.05673e-05
0.000100192
9.24741e-05
0.000107909
9.45299e-05
0.000116292
9.67464e-05
0.000125241
9.91378e-05
0.000134821
0.000101714
0.000145121
0.000104494
0.000156079
0.000107488
0.000167858
0.000110718
0.000180368
0.000114198
0.000193752
0.000117949
0.000207962
0.00012199
0.000223062
0.000126337
0.00023907
0.000131011
0.000255946
0.000136029
0.000273744
0.00014141
0.000292388
0.00014717
0.000311831
0.000153324
0.000331998
0.000159882
0.000352746
0.000166852
0.0003739
0.000174236
0.000395214
0.00018203
0.000416358
0.000190219
0.00043691
0.000198778
0.000456324
0.000207669
0.000473909
0.000216833
0.000488793
0.000226199
0.000499895
0.000235654
0.000505881
0.000245081
0.000505121
0.000254289
0.000495649
0.000263096
0.000475098
0.000271235
0.000440696
0.000278392
0.000389275
0.000284199
0.000316999
0.000288253
0.000218924
0.00029002
9.15003e-05
0.000288932
-6.36616e-05
-0.000252729
0.000284359
7.04808e-05
1.81916e-05
-7.01814e-05
7.08036e-05
1.96698e-05
7.11543e-05
2.12668e-05
7.15326e-05
2.29894e-05
7.19427e-05
2.48476e-05
7.23856e-05
2.68524e-05
7.28656e-05
2.90147e-05
7.33846e-05
3.13459e-05
7.39482e-05
3.38499e-05
7.45579e-05
3.65604e-05
7.52195e-05
3.94948e-05
7.59342e-05
4.26612e-05
7.67109e-05
4.60771e-05
7.75516e-05
4.9736e-05
7.84677e-05
5.36739e-05
7.94579e-05
5.79544e-05
8.05338e-05
6.25679e-05
8.17014e-05
6.74749e-05
8.29704e-05
7.279e-05
8.43422e-05
7.85511e-05
8.58319e-05
8.46818e-05
8.7444e-05
9.12872e-05
8.91856e-05
9.8451e-05
9.10707e-05
0.000106023
9.31045e-05
0.000114259
9.52983e-05
0.000123047
9.76655e-05
0.000132455
0.000100215
0.000142572
0.000102965
0.000153331
0.000105925
0.000164898
0.000109114
0.000177178
0.000112548
0.000190319
0.000116247
0.000204266
0.000120226
0.000219085
0.000124504
0.000234795
0.000129101
0.000251351
0.000134033
0.000268815
0.000139319
0.000287105
0.000144975
0.000306179
0.000151015
0.000325962
0.00015745
0.000346316
0.000164287
0.000367068
0.000171528
0.000387979
0.00017917
0.000408724
0.000187198
0.000428891
0.000195589
0.000447944
0.000204306
0.000465205
0.00021329
0.000479822
0.000222474
0.000490731
0.000231747
0.000496625
0.000240994
0.000495902
0.000250029
0.000486636
0.000258674
0.000466499
0.000266669
0.000432771
0.000273704
0.000382339
0.000279416
0.000311425
0.000283395
0.000215145
0.000285097
9.01089e-05
0.000283985
-6.20343e-05
-0.000247816
0.000279386
6.94014e-05
1.78971e-05
-6.91069e-05
6.97191e-05
1.93512e-05
7.00638e-05
2.09224e-05
7.04358e-05
2.2617e-05
7.08387e-05
2.44449e-05
7.12741e-05
2.64167e-05
7.17455e-05
2.85432e-05
7.22554e-05
3.08354e-05
7.28089e-05
3.32963e-05
7.34076e-05
3.59605e-05
7.40571e-05
3.88453e-05
7.47587e-05
4.19578e-05
7.55207e-05
4.53153e-05
7.63456e-05
4.89092e-05
7.72441e-05
5.2776e-05
7.82153e-05
5.69814e-05
7.92705e-05
6.15135e-05
8.04158e-05
6.63284e-05
8.1661e-05
7.15456e-05
8.3008e-05
7.72035e-05
8.44719e-05
8.32188e-05
8.60578e-05
8.97011e-05
8.77728e-05
9.67369e-05
8.96312e-05
0.000104165
9.16381e-05
0.000112253
9.38046e-05
0.000120881
9.61435e-05
0.000130117
9.86632e-05
0.000140053
0.000101381
0.000150614
0.000104305
0.000161975
0.000107455
0.000174029
0.000110844
0.000186931
0.000114491
0.00020062
0.000118413
0.000215165
0.000122627
0.000230584
0.00012715
0.00024683
0.000132001
0.000263966
0.000137197
0.000281912
0.000142754
0.000300625
0.000148685
0.000320034
0.000155002
0.000340002
0.000161712
0.000360361
0.000168818
0.000380875
0.000176314
0.000401229
0.000184189
0.000421016
0.000192419
0.000439712
0.000200968
0.000456653
0.00020978
0.000471001
0.000218789
0.000481715
0.000227886
0.000487509
0.000236962
0.000486813
0.00024583
0.000477731
0.000254319
0.000457981
0.000262175
0.000424885
0.000269091
0.000375387
0.00027471
0.000305749
0.000278616
0.000211147
0.000280259
8.82906e-05
0.000279129
-6.11961e-05
-0.000243396
0.000274512
6.83143e-05
1.76072e-05
-6.80246e-05
6.86269e-05
1.90379e-05
6.89659e-05
2.05837e-05
6.93318e-05
2.22509e-05
6.97278e-05
2.4049e-05
7.01558e-05
2.59885e-05
7.06189e-05
2.80799e-05
7.11199e-05
3.03338e-05
7.16634e-05
3.27524e-05
7.22513e-05
3.53713e-05
7.28887e-05
3.82075e-05
7.35773e-05
4.12673e-05
7.43249e-05
4.45675e-05
7.51341e-05
4.80977e-05
7.60152e-05
5.18949e-05
7.69677e-05
5.6027e-05
7.80021e-05
6.04794e-05
7.91252e-05
6.5204e-05
8.03462e-05
7.03253e-05
8.16675e-05
7.58816e-05
8.31039e-05
8.17832e-05
8.46612e-05
8.81437e-05
8.63466e-05
9.50524e-05
8.81746e-05
0.000102337
9.01503e-05
0.000110278
9.22852e-05
0.000118747
9.45914e-05
0.000127811
9.70774e-05
0.000137568
9.97591e-05
0.000147933
0.000102646
0.000159089
0.000105754
0.00017092
0.000109097
0.000183588
0.000112694
0.000197025
0.00011656
0.000211302
0.00012071
0.000226436
0.000125164
0.000242378
0.000129937
0.000259195
0.000135047
0.000276804
0.000140509
0.000295165
0.000146337
0.00031421
0.000152542
0.000333802
0.00015913
0.000353777
0.000166105
0.000373907
0.000173463
0.000393879
0.000181191
0.000413296
0.000189266
0.000431646
0.000197655
0.000448276
0.000206302
0.000462366
0.000215143
0.000472893
0.000224072
0.000478595
0.000232982
0.00047793
0.00024169
0.000469041
0.000250029
0.000449683
0.000257749
0.00041723
0.000264549
0.000368679
0.000270075
0.000300352
0.000273909
0.0002075
0.000275495
8.69946e-05
0.000274355
-5.95684e-05
-0.000238477
0.000269733
6.72262e-05
1.73223e-05
-6.69413e-05
6.75336e-05
1.873e-05
6.78667e-05
2.02509e-05
6.82263e-05
2.18913e-05
6.86151e-05
2.36603e-05
6.90356e-05
2.55681e-05
6.94903e-05
2.76251e-05
6.99824e-05
2.98414e-05
7.05159e-05
3.22186e-05
7.10932e-05
3.4793e-05
7.17189e-05
3.75816e-05
7.23949e-05
4.05898e-05
7.31284e-05
4.3834e-05
7.39226e-05
4.73018e-05
7.47868e-05
5.1031e-05
7.57211e-05
5.50912e-05
7.67354e-05
5.94656e-05
7.78366e-05
6.41019e-05
7.90336e-05
6.9129e-05
8.03291e-05
7.45857e-05
8.17376e-05
8.03754e-05
8.32652e-05
8.66159e-05
8.49193e-05
9.33992e-05
8.67145e-05
0.000100542
8.86563e-05
0.000108337
9.07561e-05
0.000116647
9.3026e-05
0.000125542
9.54746e-05
0.00013512
9.81173e-05
0.000145291
0.000100963
0.000156244
0.000104027
0.000167856
0.000107324
0.000180292
0.000110868
0.000193481
0.000114678
0.000207495
0.000118766
0.00022235
0.000123151
0.000237994
0.000127849
0.0002545
0.000132876
0.00027178
0.000138247
0.000289797
0.000143975
0.000308484
0.000150072
0.000327707
0.000156544
0.000347308
0.000163394
0.000367058
0.000170618
0.000386655
0.000178205
0.000405709
0.000186132
0.000423716
0.000194367
0.000440037
0.000202856
0.000453868
0.000211536
0.000464204
0.000220303
0.000469806
0.000229054
0.000469162
0.000237607
0.000460446
0.000245801
0.000441453
0.00025339
0.000409604
0.000260077
0.000361946
0.000265512
0.000294848
0.000269276
0.000203623
0.000270813
8.52545e-05
0.000269663
-5.87563e-05
-0.000234088
0.000265043
6.6141e-05
1.70423e-05
-6.58611e-05
6.64433e-05
1.84274e-05
6.67705e-05
1.9924e-05
6.71239e-05
2.15379e-05
6.75058e-05
2.32783e-05
6.7919e-05
2.51551e-05
6.83655e-05
2.71782e-05
6.88488e-05
2.93578e-05
6.93725e-05
3.16943e-05
6.99394e-05
3.42252e-05
7.05534e-05
3.6967e-05
7.12169e-05
3.99245e-05
7.19367e-05
4.31137e-05
7.2716e-05
4.65205e-05
7.35637e-05
5.0183e-05
7.44803e-05
5.41729e-05
7.5475e-05
5.8471e-05
7.65549e-05
6.30208e-05
7.77285e-05
6.79559e-05
7.89986e-05
7.33151e-05
8.03794e-05
7.89952e-05
8.18773e-05
8.5118e-05
8.34995e-05
9.17778e-05
8.52609e-05
9.87809e-05
8.71669e-05
0.000106432
8.92294e-05
0.000114585
9.14605e-05
0.000123312
9.38687e-05
0.000132713
9.64693e-05
0.000142691
9.92705e-05
0.000153444
0.000102289
0.000164838
0.000105535
0.000177045
0.000109028
0.000189991
0.000112779
0.000203745
0.000116805
0.000218326
0.000121123
0.000233679
0.000125746
0.000249878
0.000130692
0.000266837
0.000135974
0.000284517
0.000141607
0.000302855
0.000147599
0.000321719
0.000153959
0.000340953
0.000160688
0.000360334
0.000167784
0.000379566
0.000175235
0.000398265
0.000183021
0.00041594
0.000191107
0.000431961
0.000199444
0.000445542
0.000207968
0.000455696
0.00021658
0.000461207
0.000225177
0.00046059
0.000233581
0.000452054
0.000241634
0.000433436
0.000249095
0.0004022
0.000255672
0.000355452
0.000261017
0.000289619
0.000264713
0.000200097
0.000266201
8.40283e-05
0.000265046
-5.71539e-05
-0.00022921
0.00026044
6.50622e-05
1.67672e-05
-6.47873e-05
6.53593e-05
1.81301e-05
6.56806e-05
1.96028e-05
6.60278e-05
2.11909e-05
6.64028e-05
2.29032e-05
6.68086e-05
2.47495e-05
6.7247e-05
2.67395e-05
6.77217e-05
2.8883e-05
6.82358e-05
3.11797e-05
6.87925e-05
3.36677e-05
6.93953e-05
3.63638e-05
7.00468e-05
3.92717e-05
7.07531e-05
4.24071e-05
7.1518e-05
4.5754e-05
7.23499e-05
4.93512e-05
7.32492e-05
5.32723e-05
7.42249e-05
5.74957e-05
7.52841e-05
6.19608e-05
7.64348e-05
6.68058e-05
7.76801e-05
7.20694e-05
7.90338e-05
7.76422e-05
8.05023e-05
8.36495e-05
8.20926e-05
9.01882e-05
8.38199e-05
9.70538e-05
8.56896e-05
0.000104563
8.77137e-05
0.000112561
8.99044e-05
0.000121122
9.22702e-05
0.000130348
9.48265e-05
0.000140136
9.75813e-05
0.000150689
0.000100551
0.000161869
0.000103746
0.000173851
0.000107183
0.000186554
0.000110877
0.000200054
0.000114839
0.000214365
0.000119089
0.000229431
0.000123638
0.000245331
0.000128504
0.000261973
0.0001337
0.000279323
0.000139239
0.000297319
0.00014513
0.00031583
0.000151381
0.000334704
0.000157994
0.000353722
0.000164966
0.000372594
0.000172286
0.000390944
0.000179934
0.000408288
0.000187878
0.000424012
0.000196067
0.000437342
0.000204442
0.00044731
0.000212903
0.000452723
0.000221352
0.000452123
0.000229611
0.00044375
0.000237528
0.000425479
0.000244865
0.00039482
0.000251334
0.000348929
0.000256592
0.000284281
0.000260221
0.000196339
0.000261668
8.23527e-05
0.000260508
-5.63744e-05
-0.000224884
0.00025592
6.39927e-05
1.64968e-05
-6.37226e-05
6.42848e-05
1.7838e-05
6.46004e-05
1.92872e-05
6.49417e-05
2.08498e-05
6.531e-05
2.25346e-05
6.57089e-05
2.4351e-05
6.61394e-05
2.63086e-05
6.66057e-05
2.84165e-05
6.71105e-05
3.06741e-05
6.76571e-05
3.31203e-05
6.82486e-05
3.57714e-05
6.88881e-05
3.86306e-05
6.95812e-05
4.17132e-05
7.03319e-05
4.50015e-05
7.1148e-05
4.85346e-05
7.20304e-05
5.23883e-05
7.29875e-05
5.65385e-05
7.40265e-05
6.09207e-05
7.5155e-05
6.56776e-05
7.63763e-05
7.08478e-05
7.77035e-05
7.63155e-05
7.91432e-05
8.22097e-05
8.07023e-05
8.86297e-05
8.23959e-05
9.53604e-05
8.42293e-05
0.00010273
8.62147e-05
0.000110576
8.83642e-05
0.000118973
9.06866e-05
0.000128026
9.31971e-05
0.000137626
9.59039e-05
0.000147983
9.88229e-05
0.00015895
0.000101965
0.000170709
0.000105346
0.000183175
0.000108979
0.000196422
0.000112878
0.000210468
0.000117059
0.000225252
0.000121535
0.000240857
0.000126321
0.000257189
0.000131432
0.000274215
0.000136878
0.000291876
0.000142671
0.000310041
0.000148815
0.000328563
0.000155315
0.000347228
0.000162167
0.000365748
0.000169361
0.000383757
0.000176876
0.000400781
0.000184682
0.000416216
0.000192729
0.000429303
0.000200958
0.000439094
0.000209273
0.000444418
0.000217578
0.00044384
0.000225697
0.000435639
0.000233481
0.000417726
0.000240698
0.000387656
0.000247062
0.000342642
0.000252233
0.000279218
0.000255796
0.000192934
0.000257202
8.11914e-05
0.000256041
-5.48003e-05
-0.000220072
0.000251484
6.2935e-05
1.62313e-05
-6.26696e-05
6.3222e-05
1.75512e-05
6.35319e-05
1.89774e-05
6.38672e-05
2.05151e-05
6.42287e-05
2.21729e-05
6.46204e-05
2.396e-05
6.5043e-05
2.58856e-05
6.5501e-05
2.79588e-05
6.59964e-05
3.0178e-05
6.65332e-05
3.25831e-05
6.71138e-05
3.51902e-05
6.77417e-05
3.80016e-05
6.8422e-05
4.10325e-05
6.91589e-05
4.42633e-05
6.99597e-05
4.77336e-05
7.08257e-05
5.15211e-05
7.17647e-05
5.55997e-05
7.27841e-05
5.99007e-05
7.3891e-05
6.45711e-05