/*--------------------------------*- C++ -*----------------------------------*\
  =========                 |
  \\      /  F ield         | OpenFOAM: The Open Source CFD Toolbox
   \\    /   O peration     | Website:  https://openfoam.org
    \\  /    A nd           | Version:  6.0
     \\/     M anipulation  |
\*---------------------------------------------------------------------------*/
FoamFile
{
    version     2.0;
    format      ascii;
    class       volVectorField;
    location    "10";
    object      U;
}
// * * * * * * * * * * * * * * * * * * * * * * * * * * * * * * * * * * * * * //

dimensions      [0 1 -1 0 0 0 0];

internalField   nonuniform List<vector> 
62000
(
(0.965763 -0.259209 -6.51641e-22)
(0.965797 -0.259196 5.40456e-22)
(0.965842 -0.25913 6.10786e-22)
(0.965882 -0.259053 -2.83619e-21)
(0.965916 -0.258968 -3.52515e-21)
(0.965943 -0.258892 1.21343e-20)
(0.965961 -0.258839 -1.39242e-20)
(0.965972 -0.258815 8.28225e-21)
(0.965975 -0.258814 -4.07188e-21)
(0.965974 -0.258831 -2.14636e-20)
(0.965971 -0.258856 -3.11132e-21)
(0.965966 -0.258884 3.08646e-20)
(0.965962 -0.258913 6.45444e-21)
(0.965958 -0.25894 -2.27225e-20)
(0.965954 -0.258966 3.56889e-20)
(0.965951 -0.258991 -1.91324e-20)
(0.965948 -0.259016 1.96227e-20)
(0.965945 -0.25904 -2.31474e-20)
(0.965943 -0.259063 1.10181e-20)
(0.965942 -0.259087 -3.38431e-20)
(0.965943 -0.259109 4.3688e-20)
(0.965944 -0.259132 1.14866e-20)
(0.965948 -0.259153 1.53528e-20)
(0.965953 -0.259174 -7.47041e-20)
(0.96596 -0.259194 2.65951e-20)
(0.96597 -0.259214 -1.33501e-20)
(0.965982 -0.259231 2.04065e-21)
(0.965998 -0.259247 -6.63167e-21)
(0.966018 -0.259261 2.56354e-20)
(0.966041 -0.259271 -9.98373e-21)
(0.966071 -0.259278 1.86268e-20)
(0.966105 -0.25928 -2.31072e-20)
(0.966146 -0.259278 5.41676e-21)
(0.966196 -0.259273 1.46163e-20)
(0.966256 -0.259262 5.32878e-21)
(0.966329 -0.259241 2.77797e-20)
(0.966414 -0.259207 7.79675e-21)
(0.966513 -0.259159 2.23192e-20)
(0.966629 -0.259094 -3.30243e-20)
(0.966761 -0.259011 -2.65222e-19)
(0.966914 -0.258909 8.37271e-20)
(0.967088 -0.258785 4.75089e-19)
(0.96729 -0.258635 8.61476e-19)
(0.967523 -0.258456 -5.18522e-19)
(0.967796 -0.258238 -2.39477e-19)
(0.968119 -0.257967 9.30985e-19)
(0.968505 -0.257621 -5.68534e-20)
(0.968969 -0.257166 5.03897e-19)
(0.969528 -0.256555 2.51567e-18)
(0.970194 -0.255722 8.20909e-19)
(0.970973 -0.254589 4.71704e-19)
(0.971865 -0.253049 5.5916e-18)
(0.972849 -0.250973 -1.64266e-18)
(0.973909 -0.248162 -7.52433e-18)
(0.975005 -0.244317 -1.78326e-18)
(0.976151 -0.238865 -7.68909e-18)
(0.976965 -0.230585 5.21591e-19)
(0.981967 -0.217407 5.45104e-19)
(0.977874 -0.169874 -3.06286e-18)
(1.03462 -0.118739 -3.12757e-19)
(0.965886 -0.261322 -1.49848e-22)
(0.965943 -0.261298 1.50223e-21)
(0.965971 -0.261244 7.25284e-22)
(0.965969 -0.261177 -2.904e-21)
(0.965962 -0.261049 1.28724e-21)
(0.965963 -0.260874 -9.73297e-21)
(0.965968 -0.260686 9.01433e-21)
(0.965971 -0.260521 5.75931e-21)
(0.965969 -0.260401 -1.10057e-20)
(0.965964 -0.260333 3.54462e-22)
(0.965956 -0.260307 1.13891e-20)
(0.965948 -0.260311 1.16615e-22)
(0.965942 -0.260332 3.45221e-21)
(0.965939 -0.260364 -2.96195e-20)
(0.965939 -0.260399 5.98697e-20)
(0.965942 -0.260437 -5.32974e-20)
(0.965948 -0.260475 2.49945e-20)
(0.965955 -0.260514 -5.2691e-21)
(0.965964 -0.260551 -1.42473e-20)
(0.965975 -0.260589 3.78504e-20)
(0.965987 -0.260624 -5.91561e-20)
(0.966002 -0.260657 3.36036e-20)
(0.96602 -0.260686 -3.98553e-20)
(0.96604 -0.260712 2.41335e-20)
(0.966065 -0.260733 1.98405e-20)
(0.966093 -0.26075 -1.21191e-20)
(0.966127 -0.26076 1.3695e-21)
(0.966167 -0.260763 1.27329e-20)
(0.966213 -0.260759 7.90305e-21)
(0.966267 -0.260745 -1.10377e-20)
(0.966329 -0.260721 1.75712e-20)
(0.9664 -0.260686 2.84225e-23)
(0.966481 -0.260641 -1.02035e-20)
(0.966574 -0.260584 1.2313e-21)
(0.966681 -0.260511 -1.07731e-20)
(0.966804 -0.260421 9.01056e-21)
(0.966946 -0.260312 2.23719e-20)
(0.967106 -0.260185 1.23152e-20)
(0.967284 -0.260039 1.43498e-19)
(0.967481 -0.259874 1.80377e-19)
(0.967701 -0.259694 -1.69719e-19)
(0.967947 -0.259498 -7.9493e-20)
(0.968226 -0.259286 -1.02767e-18)
(0.968549 -0.259051 -9.22291e-20)
(0.968932 -0.258779 1.98737e-18)
(0.969394 -0.258444 -8.5522e-19)
(0.969962 -0.258003 -7.65177e-19)
(0.97066 -0.257394 -1.04746e-18)
(0.971516 -0.256531 -1.86529e-19)
(0.972543 -0.255308 -2.54297e-20)
(0.973741 -0.253597 -2.40016e-18)
(0.975084 -0.251253 -7.15098e-18)
(0.976512 -0.248114 5.31043e-18)
(0.977932 -0.24398 1.40962e-17)
(0.979201 -0.238607 3.69147e-18)
(0.980216 -0.231612 2.7298e-18)
(0.980219 -0.222648 6.81554e-18)
(0.981765 -0.209773 3.51121e-18)
(0.984792 -0.197416 -5.9996e-18)
(0.964419 -0.197042 -1.37159e-18)
(0.966335 -0.261517 -6.44121e-22)
(0.966275 -0.261466 -1.1865e-22)
(0.966168 -0.261494 8.21192e-23)
(0.966022 -0.26156 4.92533e-22)
(0.965883 -0.261577 1.58246e-21)
(0.965775 -0.261514 -1.51215e-21)
(0.965698 -0.261385 9.14454e-21)
(0.965642 -0.261231 -4.12553e-21)
(0.965598 -0.261098 -2.45956e-21)
(0.965562 -0.261015 -1.69037e-20)
(0.965532 -0.26099 1.44525e-20)
(0.965509 -0.261015 1.09054e-21)
(0.965497 -0.261075 -3.57374e-21)
(0.965496 -0.261156 9.5463e-21)
(0.965508 -0.261246 -1.63761e-20)
(0.965532 -0.26134 1.6215e-22)
(0.965567 -0.261435 -7.42843e-21)
(0.965611 -0.261528 3.95068e-22)
(0.965662 -0.261619 1.72174e-20)
(0.965718 -0.261707 -2.53596e-20)
(0.965778 -0.26179 1.56482e-20)
(0.965841 -0.261867 5.63353e-20)
(0.965906 -0.261936 -1.03447e-20)
(0.965974 -0.261996 -7.18346e-20)
(0.966043 -0.262044 3.60077e-20)
(0.966116 -0.26208 -1.49062e-20)
(0.966192 -0.262103 2.29009e-20)
(0.966272 -0.262111 -1.5146e-20)
(0.966357 -0.262102 -1.94808e-20)
(0.966448 -0.262077 1.05015e-20)
(0.966547 -0.262033 -4.26202e-21)
(0.966652 -0.261972 5.65103e-22)
(0.966766 -0.261893 2.60789e-20)
(0.966889 -0.261796 -4.25511e-20)
(0.967022 -0.261676 3.45524e-20)
(0.967167 -0.261535 -1.22386e-20)
(0.967325 -0.261376 -1.62352e-20)
(0.967494 -0.261202 1.56919e-20)
(0.967672 -0.261016 3.50237e-20)
(0.967856 -0.260823 -2.19037e-19)
(0.968046 -0.26063 9.44899e-20)
(0.968242 -0.260444 -1.57462e-19)
(0.968447 -0.260269 6.98802e-19)
(0.968669 -0.260104 3.84938e-19)
(0.968917 -0.259941 -3.87608e-19)
(0.96921 -0.259758 1.78276e-18)
(0.969568 -0.259517 -2.33541e-19)
(0.970016 -0.259158 1.81279e-18)
(0.970577 -0.258604 -2.76508e-18)
(0.971268 -0.257755 -7.78635e-19)
(0.972089 -0.2565 -4.51042e-19)
(0.973019 -0.254715 1.82539e-19)
(0.974009 -0.252268 -2.27322e-18)
(0.974976 -0.249008 -3.96764e-19)
(0.975803 -0.244758 5.49283e-18)
(0.976451 -0.239236 3.26949e-18)
(0.976396 -0.232127 3.34961e-18)
(0.978038 -0.221597 1.04692e-17)
(0.97803 -0.201749 -1.17061e-18)
(0.994831 -0.171051 -1.09214e-18)
(0.966283 -0.262411 -5.13846e-22)
(0.966122 -0.262384 1.63077e-21)
(0.965981 -0.262441 -2.17941e-22)
(0.965808 -0.262574 -1.84143e-21)
(0.965635 -0.262696 2.92834e-21)
(0.965494 -0.262743 5.6582e-21)
(0.96539 -0.262693 -7.27243e-21)
(0.965314 -0.262571 9.11379e-22)
(0.965253 -0.262428 3.24895e-21)
(0.965199 -0.26231 7.20576e-21)
(0.965148 -0.262242 -1.31265e-20)
(0.965099 -0.262227 -4.33709e-21)
(0.965056 -0.262256 -5.03281e-21)
(0.965024 -0.262315 2.26915e-20)
(0.965007 -0.262389 -1.5512e-20)
(0.965008 -0.26247 3.64536e-20)
(0.965029 -0.262551 -4.40055e-20)
(0.965069 -0.262632 -6.04952e-21)
(0.965126 -0.262712 4.49472e-20)
(0.965199 -0.262791 -1.57883e-20)
(0.965284 -0.262869 -5.33777e-21)
(0.965378 -0.262945 -5.58908e-21)
(0.96548 -0.263016 -4.6538e-20)
(0.965587 -0.263082 2.84444e-20)
(0.965699 -0.263138 -8.73994e-21)
(0.965813 -0.263184 1.70926e-20)
(0.965931 -0.263216 5.98668e-21)
(0.966052 -0.263233 2.36203e-20)
(0.966177 -0.263231 -1.45322e-20)
(0.966308 -0.26321 -1.00826e-20)
(0.966444 -0.263167 1.62233e-21)
(0.966588 -0.263104 2.97998e-21)
(0.96674 -0.263021 -2.78698e-20)
(0.966902 -0.262916 3.46455e-20)
(0.967075 -0.262784 -1.02632e-20)
(0.96726 -0.262628 -3.41063e-20)
(0.967457 -0.262452 2.57132e-20)
(0.967666 -0.262261 -4.72717e-20)
(0.967884 -0.262059 2.09942e-20)
(0.968107 -0.261852 -9.27894e-20)
(0.968333 -0.261649 2.35826e-19)
(0.968559 -0.261457 -6.85426e-20)
(0.968785 -0.261282 -1.6729e-19)
(0.969013 -0.261126 -5.26695e-19)
(0.969249 -0.260982 -6.13141e-19)
(0.969504 -0.260831 -1.17893e-20)
(0.969793 -0.260638 -1.37939e-18)
(0.970136 -0.260348 -1.58114e-18)
(0.970557 -0.259886 -2.20876e-18)
(0.971073 -0.259157 1.66676e-18)
(0.971697 -0.25805 2.17401e-18)
(0.972427 -0.256436 -1.83212e-18)
(0.973247 -0.254162 -2.84588e-18)
(0.974127 -0.251025 -5.68602e-18)
(0.975033 -0.246737 -3.63631e-18)
(0.976036 -0.240785 -8.82987e-18)
(0.976888 -0.232351 -1.62507e-17)
(0.980184 -0.21902 4.29338e-18)
(0.984257 -0.190513 1.18329e-17)
(0.984284 -0.169786 5.13539e-18)
(0.965507 -0.26525 4.92349e-22)
(0.96541 -0.265249 -1.28424e-22)
(0.965418 -0.265267 3.74705e-22)
(0.965393 -0.265377 -4.78056e-22)
(0.965349 -0.265508 1.25636e-21)
(0.965319 -0.265585 -5.20639e-22)
(0.965314 -0.26556 5.23336e-22)
(0.965328 -0.265438 -6.76567e-21)
(0.965349 -0.265262 5.9236e-21)
(0.965365 -0.265082 -1.41457e-20)
(0.965366 -0.264933 1.57804e-20)
(0.965348 -0.26483 -1.81992e-21)
(0.965314 -0.26477 -4.77079e-21)
(0.965267 -0.264743 -2.64977e-21)
(0.965216 -0.264732 -5.74784e-22)
(0.965168 -0.264727 -2.40446e-20)
(0.965131 -0.264721 7.76707e-22)
(0.96511 -0.264713 2.68355e-20)
(0.965108 -0.264701 -8.39751e-21)
(0.965126 -0.264688 -9.0139e-21)
(0.965166 -0.264677 1.55978e-20)
(0.965224 -0.264669 -6.95675e-21)
(0.965299 -0.264663 2.72725e-20)
(0.965388 -0.26466 1.17799e-20)
(0.96549 -0.264657 6.2733e-21)
(0.965602 -0.264652 -2.80465e-20)
(0.965723 -0.264643 -2.75025e-21)
(0.965851 -0.264628 -1.08653e-20)
(0.965988 -0.264601 3.95328e-21)
(0.966133 -0.264562 7.49723e-22)
(0.966287 -0.264506 4.0076e-21)
(0.966452 -0.264434 -1.12652e-20)
(0.96663 -0.264345 3.12734e-20)
(0.966824 -0.264237 6.30948e-21)
(0.967034 -0.264105 3.88509e-20)
(0.967263 -0.263947 2.28461e-20)
(0.967514 -0.263768 -2.88876e-21)
(0.967787 -0.26357 1.34361e-19)
(0.968081 -0.263357 -2.51946e-19)
(0.968395 -0.263131 -7.41176e-20)
(0.968727 -0.262899 -3.57282e-19)
(0.969076 -0.262665 3.30507e-19)
(0.969439 -0.262432 2.55583e-19)
(0.969817 -0.262196 1.24305e-20)
(0.970215 -0.261946 -5.56558e-19)
(0.970638 -0.261659 -8.07212e-19)
(0.971098 -0.261295 -4.58638e-19)
(0.97161 -0.260797 -7.01138e-19)
(0.972193 -0.260083 2.95505e-19)
(0.972863 -0.259052 -4.71899e-18)
(0.973636 -0.257581 -1.38352e-18)
(0.97452 -0.25552 9.95745e-19)
(0.975518 -0.252683 -1.72763e-18)
(0.976623 -0.248806 -5.8365e-18)
(0.977847 -0.243509 1.23646e-18)
(0.979265 -0.236157 6.44809e-18)
(0.980651 -0.225905 2.07665e-17)
(0.984535 -0.210602 -2.11186e-17)
(0.988213 -0.183849 1.62414e-17)
(0.984218 -0.168868 -6.43441e-18)
(0.964496 -0.269082 6.17088e-23)
(0.964586 -0.269066 -1.81421e-22)
(0.964805 -0.269022 1.73201e-22)
(0.964973 -0.269071 -6.08695e-23)
(0.965102 -0.269162 4.94978e-23)
(0.965229 -0.269221 -2.89416e-23)
(0.965369 -0.269189 5.75674e-23)
(0.965524 -0.269055 -2.13394e-22)
(0.965683 -0.268851 -1.36534e-21)
(0.965834 -0.268625 2.68251e-21)
(0.965964 -0.268414 -5.3808e-21)
(0.966061 -0.268241 5.11082e-21)
(0.966122 -0.268108 5.46694e-21)
(0.966145 -0.268006 -8.14108e-21)
(0.966134 -0.267921 -3.05153e-21)
(0.966097 -0.26784 1.14396e-20)
(0.966044 -0.267754 -1.40042e-20)
(0.965983 -0.267658 1.94334e-20)
(0.965924 -0.267551 -3.56271e-21)
(0.965874 -0.267436 1.65534e-21)
(0.965839 -0.267316 -3.26585e-21)
(0.965822 -0.267196 -3.62631e-21)
(0.965825 -0.267078 -8.31993e-21)
(0.965848 -0.266966 9.91522e-21)
(0.965891 -0.266859 -6.4154e-21)
(0.965953 -0.266759 -4.14863e-21)
(0.966032 -0.266663 6.9683e-21)
(0.966127 -0.26657 3.95839e-21)
(0.966238 -0.266478 8.11211e-22)
(0.966364 -0.266382 3.81147e-21)
(0.966506 -0.26628 -5.34376e-21)
(0.966666 -0.266171 2.57383e-20)
(0.966845 -0.266054 -2.62471e-20)
(0.967047 -0.265925 2.20819e-21)
(0.967275 -0.265777 7.59994e-22)
(0.967532 -0.265608 2.50052e-21)
(0.967823 -0.265418 6.18776e-20)
(0.968149 -0.265208 -1.31296e-19)
(0.968514 -0.264976 9.84944e-20)
(0.968918 -0.264723 8.35204e-19)
(0.969363 -0.264449 4.16011e-19)
(0.969849 -0.264154 -2.88439e-19)
(0.970376 -0.263833 4.88479e-19)
(0.970946 -0.263475 4.62065e-19)
(0.97156 -0.263063 6.64254e-20)
(0.972224 -0.262566 -1.57824e-18)
(0.972944 -0.261937 2.50536e-18)
(0.973728 -0.261112 2.69049e-18)
(0.974589 -0.260004 1.67281e-18)
(0.975536 -0.258505 3.5394e-18)
(0.976577 -0.256485 -3.08139e-18)
(0.977716 -0.253785 9.24537e-19)
(0.978951 -0.25021 9.80283e-18)
(0.980269 -0.245484 -2.9765e-18)
(0.981674 -0.239236 -3.05205e-18)
(0.983186 -0.230902 8.08566e-18)
(0.984483 -0.219921 -4.80551e-18)
(0.988017 -0.20487 -7.97575e-18)
(0.991095 -0.180649 -2.58195e-17)
(0.983107 -0.169583 -3.2938e-20)
(0.963762 -0.272827 -3.86535e-22)
(0.964041 -0.272769 1.63735e-21)
(0.964415 -0.272676 -8.19719e-22)
(0.964713 -0.27267 -1.3074e-21)
(0.96496 -0.272715 2.63279e-21)
(0.965196 -0.272748 -2.13905e-21)
(0.96544 -0.272704 1.27324e-21)
(0.965698 -0.272564 -9.54969e-22)
(0.965967 -0.272349 -1.149e-21)
(0.966238 -0.272104 2.313e-21)
(0.966498 -0.271866 -2.57228e-21)
(0.966734 -0.271661 -2.69024e-22)
(0.966935 -0.271493 2.75534e-21)
(0.967091 -0.271359 5.58348e-22)
(0.967199 -0.271243 -8.13921e-22)
(0.967261 -0.271133 -3.94205e-22)
(0.96728 -0.271016 8.4708e-22)
(0.967263 -0.270884 3.24101e-23)
(0.967221 -0.270733 -1.50336e-21)
(0.967162 -0.270564 4.61031e-23)
(0.967096 -0.270379 -5.08709e-23)
(0.967033 -0.270183 -2.56007e-21)
(0.966979 -0.269979 -6.37784e-21)
(0.966939 -0.269775 2.16299e-21)
(0.966918 -0.269572 5.27296e-21)
(0.966917 -0.269375 -8.81853e-21)
(0.966938 -0.269184 6.84156e-21)
(0.966981 -0.269 2.60183e-21)
(0.967046 -0.268823 -4.0247e-20)
(0.967133 -0.26865 2.47077e-20)
(0.967244 -0.268479 2.05394e-20)
(0.967378 -0.26831 -1.71934e-20)
(0.96754 -0.268142 -1.9115e-20)
(0.967731 -0.26797 3.80192e-20)
(0.967957 -0.267787 2.34002e-20)
(0.96822 -0.267589 -8.54862e-20)
(0.968528 -0.267373 -1.08363e-21)
(0.968883 -0.267138 -4.16167e-20)
(0.96929 -0.266878 2.50694e-19)
(0.969754 -0.266589 3.36119e-19)
(0.970278 -0.266266 -5.57327e-19)
(0.970866 -0.265905 -5.35729e-19)
(0.971519 -0.265492 -9.87495e-19)
(0.972241 -0.265012 1.07937e-18)
(0.973033 -0.264439 1.3645e-18)
(0.973898 -0.263734 8.69663e-19)
(0.974839 -0.262847 -2.52062e-18)
(0.975858 -0.261708 -2.83435e-18)
(0.976959 -0.260229 3.39137e-18)
(0.978141 -0.258299 5.88484e-18)
(0.979402 -0.25579 6.4408e-19)
(0.980732 -0.252551 -1.53044e-18)
(0.982115 -0.248397 1.0298e-19)
(0.983521 -0.243081 4.22866e-18)
(0.984932 -0.23629 -4.58723e-18)
(0.986318 -0.227592 -2.61904e-18)
(0.987294 -0.216672 -4.36903e-18)
(0.990389 -0.202432 2.36178e-17)
(0.993075 -0.179867 1.42499e-18)
(0.982723 -0.17054 -3.72677e-19)
(0.963466 -0.276006 1.15212e-21)
(0.963863 -0.275917 8.33942e-22)
(0.964303 -0.275805 -1.23244e-21)
(0.964653 -0.275769 -4.0393e-21)
(0.964946 -0.275785 8.52761e-21)
(0.965225 -0.275801 -9.5296e-21)
(0.965512 -0.275752 5.85757e-22)
(0.965815 -0.275613 7.39162e-22)
(0.966135 -0.2754 2.97655e-21)
(0.966468 -0.275154 -6.57346e-21)
(0.966807 -0.274912 9.70716e-21)
(0.967141 -0.274699 -3.4234e-21)
(0.967458 -0.274525 1.73182e-22)
(0.967744 -0.274387 -4.77328e-21)
(0.96799 -0.274273 -2.26758e-21)
(0.96819 -0.274169 1.31051e-20)
(0.968339 -0.274062 -1.1634e-20)
(0.968437 -0.273941 -4.72569e-21)
(0.968489 -0.273798 1.29969e-20)
(0.968501 -0.273631 -7.19768e-21)
(0.968481 -0.273439 -3.35868e-21)
(0.968439 -0.273224 8.73066e-22)
(0.968387 -0.27299 -3.80406e-21)
(0.968331 -0.272744 1.57367e-22)
(0.968282 -0.272487 2.58338e-20)
(0.968245 -0.272228 -1.74031e-20)
(0.968225 -0.271968 2.8418e-20)
(0.968226 -0.271712 -6.53215e-20)
(0.96825 -0.271462 3.17175e-21)
(0.9683 -0.271216 8.27617e-21)
(0.968377 -0.270975 4.65706e-22)
(0.968484 -0.27074 -8.83801e-20)
(0.968622 -0.270512 3.92139e-20)
(0.968796 -0.270285 4.7161e-20)
(0.969009 -0.270053 -8.33218e-20)
(0.969267 -0.269812 -8.63499e-20)
(0.969575 -0.269557 1.5743e-19)
(0.969939 -0.269285 -2.9605e-20)
(0.970365 -0.268986 -3.35703e-19)
(0.970857 -0.268653 1.04921e-19)
(0.971424 -0.268277 -3.13388e-19)
(0.972069 -0.267848 4.60747e-19)
(0.972797 -0.267349 -8.08393e-19)
(0.973612 -0.266758 -1.8144e-18)
(0.974517 -0.266043 -4.72498e-19)
(0.975511 -0.265163 9.22558e-19)
(0.976595 -0.26406 3.11973e-18)
(0.977766 -0.262666 -8.64505e-19)
(0.979022 -0.260891 -1.06623e-18)
(0.980351 -0.25863 -2.16854e-18)
(0.981741 -0.255761 4.20204e-20)
(0.983169 -0.252145 6.08876e-18)
(0.984607 -0.24762 -5.84765e-18)
(0.98601 -0.241972 4.38842e-18)
(0.987348 -0.234946 -1.00199e-17)
(0.988573 -0.226204 -2.54565e-18)
(0.989286 -0.215547 -1.33149e-17)
(0.992137 -0.201865 -2.02527e-17)
(0.994662 -0.180032 -3.97011e-18)
(0.982784 -0.171403 -2.62461e-18)
(0.963496 -0.278581 7.90371e-22)
(0.963934 -0.278475 -6.86705e-22)
(0.964378 -0.278363 -3.27739e-21)
(0.964727 -0.278315 -5.05769e-21)
(0.965019 -0.278317 1.50215e-20)
(0.965299 -0.278325 -8.56464e-21)
(0.965587 -0.278278 1.47087e-20)
(0.965893 -0.278146 -2.26416e-20)
(0.96622 -0.277942 1.03536e-20)
(0.966568 -0.277705 -1.73625e-21)
(0.966934 -0.27747 -1.80604e-20)
(0.96731 -0.277262 4.0935e-20)
(0.967689 -0.277094 -2.74188e-20)
(0.968058 -0.276964 -3.54418e-21)
(0.968408 -0.276864 -6.53612e-21)
(0.968728 -0.276782 2.65196e-20)
(0.969009 -0.276702 -1.31372e-20)
(0.969242 -0.276615 1.66234e-20)
(0.969425 -0.27651 -3.49844e-20)
(0.969557 -0.276381 5.10518e-21)
(0.969642 -0.276225 4.72532e-20)
(0.969685 -0.276041 -1.6689e-20)
(0.969697 -0.275827 1.28107e-21)
(0.969685 -0.275591 7.51417e-20)
(0.96966 -0.275333 -5.64635e-20)
(0.969633 -0.275059 -4.68131e-20)
(0.96961 -0.274775 -3.81327e-20)
(0.9696 -0.274484 4.03318e-20)
(0.969608 -0.274191 4.68013e-20)
(0.96964 -0.273896 -2.09341e-20)
(0.969697 -0.273604 -4.87203e-20)
(0.969786 -0.273315 5.26208e-20)
(0.969908 -0.273032 9.70586e-20)
(0.970069 -0.272752 -1.85294e-19)
(0.970272 -0.27247 -1.59571e-20)
(0.970522 -0.272181 3.44455e-19)
(0.970827 -0.27188 -6.72031e-21)
(0.971193 -0.271562 -2.95724e-19)
(0.971624 -0.271217 -5.35845e-20)
(0.972128 -0.270833 -4.29796e-19)
(0.972713 -0.2704 7.28612e-19)
(0.973385 -0.269903 9.66018e-20)
(0.97415 -0.269323 5.11116e-19)
(0.975013 -0.268631 -3.41321e-19)
(0.975975 -0.267794 -1.09332e-18)
(0.977037 -0.266766 -3.88841e-18)
(0.978196 -0.265491 -5.12894e-19)
(0.979449 -0.263897 2.93675e-18)
(0.980784 -0.261898 -2.61627e-18)
(0.982185 -0.259395 -9.92311e-18)
(0.983633 -0.256274 8.77512e-18)
(0.985095 -0.252409 -1.15465e-17)
(0.986535 -0.247657 7.73664e-18)
(0.987904 -0.241831 4.7578e-18)
(0.98917 -0.234711 2.04669e-17)
(0.990289 -0.226004 1.23933e-18)
(0.990873 -0.215533 8.12204e-18)
(0.993653 -0.202083 1.03288e-17)
(0.996141 -0.180406 -8.7084e-18)
(0.983212 -0.172 -6.06197e-19)
(0.963681 -0.280646 -1.39829e-21)
(0.96411 -0.280541 -4.68782e-22)
(0.964528 -0.280445 4.98672e-21)
(0.964854 -0.280398 -4.72048e-21)
(0.965126 -0.280397 2.08432e-21)
(0.965387 -0.280405 -3.64019e-21)
(0.965659 -0.280363 -1.1713e-21)
(0.965951 -0.280239 1.76398e-20)
(0.966264 -0.280046 -7.77627e-21)
(0.966602 -0.279818 4.88404e-21)
(0.966961 -0.279592 -3.12916e-21)
(0.967341 -0.279394 -1.13124e-20)
(0.967736 -0.279235 2.36306e-21)
(0.968139 -0.279116 -6.79905e-21)
(0.968542 -0.27903 2.91313e-20)
(0.968937 -0.278967 -1.10424e-20)
(0.969312 -0.278915 -4.27428e-21)
(0.969657 -0.278864 1.47791e-20)
(0.969962 -0.278803 -2.88504e-20)
(0.970222 -0.278724 -9.7831e-21)
(0.970433 -0.278622 1.24006e-21)
(0.970594 -0.278493 1.36492e-20)
(0.970711 -0.278331 -4.71787e-20)
(0.970788 -0.278142 1.341e-19)
(0.970835 -0.277923 -7.44981e-20)
(0.970862 -0.277678 -3.47419e-20)
(0.970879 -0.277411 5.26053e-20)
(0.970895 -0.277126 -1.01548e-19)
(0.970919 -0.276828 4.60929e-20)
(0.970958 -0.276519 2.8734e-20)
(0.971019 -0.276204 5.08107e-20)
(0.971108 -0.275884 3.28926e-20)
(0.971229 -0.275566 -6.78659e-20)
(0.971389 -0.275247 2.29145e-19)
(0.971591 -0.274923 -4.64119e-19)
(0.971842 -0.274591 3.57458e-20)
(0.972149 -0.274245 -2.81812e-19)
(0.972517 -0.273881 7.8492e-19)
(0.972953 -0.273487 2.70266e-19)
(0.973464 -0.273049 -2.66233e-20)
(0.974059 -0.272556 2.92652e-19)
(0.974743 -0.271991 9.22596e-20)
(0.975525 -0.271331 1.11803e-18)
(0.976409 -0.270547 -4.86974e-19)
(0.977397 -0.269602 -6.43082e-19)
(0.978489 -0.268448 3.71359e-18)
(0.979683 -0.267029 -5.29379e-18)
(0.98097 -0.265275 -8.74654e-19)
(0.982338 -0.263103 -3.55587e-19)
(0.983767 -0.260419 6.88278e-18)
(0.985232 -0.257117 -2.67557e-18)
(0.986696 -0.253079 6.14433e-18)
(0.988123 -0.248177 -1.31434e-17)
(0.989462 -0.24224 -3.08425e-18)
(0.99069 -0.235062 1.33007e-17)
(0.991776 -0.226362 -5.60302e-18)
(0.992332 -0.215948 1.77973e-17)
(0.995138 -0.202518 4.47906e-18)
(0.997634 -0.18072 3.25712e-17)
(0.983912 -0.172336 3.48405e-18)
(0.963901 -0.28233 3.76412e-22)
(0.964299 -0.28223 1.45846e-21)
(0.964685 -0.282152 1.25575e-21)
(0.964983 -0.282112 -1.21813e-20)
(0.96523 -0.282113 6.77516e-21)
(0.965469 -0.282126 8.0637e-21)
(0.965721 -0.282091 2.88311e-21)
(0.965993 -0.281975 1.18631e-20)
(0.966288 -0.281791 -7.78464e-21)
(0.966607 -0.281573 -1.2678e-21)
(0.966949 -0.281357 -5.97697e-22)
(0.967313 -0.281166 -3.04273e-20)
(0.967698 -0.281015 2.1463e-20)
(0.9681 -0.280904 2.53116e-21)
(0.968516 -0.280828 -2.45274e-20)
(0.968941 -0.28078 1.36969e-20)
(0.969365 -0.280747 5.80875e-21)
(0.969779 -0.280723 -8.278e-21)
(0.970172 -0.280699 -2.91852e-20)
(0.970535 -0.280665 -1.72133e-20)
(0.970859 -0.280615 -7.43823e-21)
(0.971139 -0.280545 4.26089e-20)
(0.971372 -0.280446 -2.3966e-20)
(0.971559 -0.28032 -4.40985e-20)
(0.971706 -0.280162 9.47992e-20)
(0.97182 -0.279973 -3.33826e-20)
(0.971909 -0.279755 1.31024e-19)
(0.971984 -0.27951 -1.11379e-19)
(0.972054 -0.279241 -1.05458e-19)
(0.972129 -0.27895 1.57389e-19)
(0.972218 -0.278643 8.96359e-20)
(0.972328 -0.278321 -1.17592e-19)
(0.972467 -0.277991 -4.14726e-20)
(0.972641 -0.277653 1.17442e-19)
(0.972856 -0.277303 1.7129e-19)
(0.973119 -0.276941 2.14106e-19)
(0.973436 -0.276559 -1.30675e-19)
(0.973816 -0.276154 -3.35233e-19)
(0.974262 -0.275714 -1.17634e-19)
(0.974785 -0.275226 1.18509e-19)
(0.97539 -0.274674 -1.50962e-18)
(0.976085 -0.274043 1.74376e-19)
(0.976878 -0.273308 -1.83123e-18)
(0.977774 -0.272436 3.6483e-18)
(0.978776 -0.271392 -6.64233e-19)
(0.979883 -0.270127 -9.40137e-20)
(0.981091 -0.268584 2.05764e-19)
(0.982392 -0.266695 4.15748e-18)
(0.983772 -0.264381 7.2472e-18)
(0.985209 -0.261552 -7.14865e-18)
(0.986676 -0.258106 -1.0269e-17)
(0.988137 -0.253934 -5.92466e-18)
(0.989556 -0.248916 1.26889e-17)
(0.990885 -0.242885 -7.42759e-18)
(0.992113 -0.23564 -2.00254e-17)
(0.993219 -0.226895 -8.83072e-18)
(0.993809 -0.216439 -1.73193e-17)
(0.996686 -0.202905 -9.77525e-18)
(0.9992 -0.180829 -3.07102e-17)
(0.984805 -0.172429 9.74574e-18)
(0.964096 -0.283725 -5.65792e-22)
(0.96446 -0.283636 1.68568e-21)
(0.964819 -0.283578 -6.04019e-21)
(0.965092 -0.283549 -1.55909e-21)
(0.965318 -0.283557 8.25987e-21)
(0.965538 -0.283576 9.44766e-21)
(0.965772 -0.283547 -2.23204e-20)
(0.966027 -0.283438 2.4057e-20)
(0.966304 -0.283261 5.52524e-21)
(0.966603 -0.283049 -1.46575e-20)
(0.966925 -0.282839 -1.31941e-20)
(0.967269 -0.282655 -3.96027e-20)
(0.967634 -0.282508 2.23355e-20)
(0.96802 -0.282403 3.81939e-20)
(0.968425 -0.282333 -8.52631e-21)
(0.968848 -0.282292 3.15193e-20)
(0.969285 -0.282271 -2.39519e-20)
(0.969728 -0.282264 4.16533e-20)
(0.970168 -0.282262 -6.15757e-21)
(0.970598 -0.28226 1.54138e-20)
(0.971005 -0.28225 1.0551e-20)
(0.97138 -0.282229 4.08025e-20)
(0.971718 -0.282187 -2.10469e-21)
(0.972013 -0.282124 -9.00386e-20)
(0.972265 -0.282032 3.39922e-20)
(0.972479 -0.281909 -8.95135e-21)
(0.97266 -0.281755 -3.12298e-20)
(0.972815 -0.281569 4.23145e-20)
(0.972955 -0.281352 1.12998e-20)
(0.97309 -0.281104 -6.67825e-20)
(0.973228 -0.28083 -7.16134e-20)
(0.973379 -0.280531 5.2017e-20)
(0.973554 -0.280215 1.94342e-19)
(0.973758 -0.27988 3.05592e-19)
(0.974 -0.279523 -4.59795e-19)
(0.974287 -0.279146 -1.37794e-19)
(0.974628 -0.278742 -9.13926e-20)
(0.975028 -0.278307 -5.23528e-19)
(0.975495 -0.277831 4.80135e-19)
(0.976036 -0.277298 -3.23957e-19)
(0.976658 -0.276694 -4.54631e-20)
(0.97737 -0.276002 -1.1904e-22)
(0.978179 -0.275196 6.82269e-19)
(0.979089 -0.274244 -1.72464e-18)
(0.980104 -0.273109 2.53535e-18)
(0.981223 -0.271742 -1.69321e-18)
(0.982443 -0.270089 5.09717e-18)
(0.983754 -0.268081 -1.44363e-18)
(0.985142 -0.265644 -3.82767e-18)
(0.986586 -0.26269 7.23858e-18)
(0.988058 -0.259121 1.90326e-18)
(0.989522 -0.254832 4.83357e-19)
(0.990946 -0.249706 2.30808e-18)
(0.992288 -0.243579 7.73993e-18)
(0.993547 -0.236245 -5.65178e-19)
(0.994706 -0.227412 -8.43262e-18)
(0.995354 -0.216854 1.00144e-17)
(0.998314 -0.20316 3.15059e-18)
(1.00082 -0.180775 4.15558e-18)
(0.985835 -0.172344 -7.2641e-18)
(0.964239 -0.284918 -1.20218e-21)
(0.964573 -0.284834 1.01618e-21)
(0.964911 -0.284789 -9.34609e-22)
(0.965168 -0.284766 -5.96388e-21)
(0.965378 -0.284778 -8.64874e-21)
(0.965584 -0.284801 3.37619e-20)
(0.965805 -0.284777 -2.43786e-20)
(0.966046 -0.284674 -4.94354e-21)
(0.966309 -0.284503 1.65826e-21)
(0.966594 -0.284297 1.0786e-20)
(0.966899 -0.284091 -3.22215e-20)
(0.967223 -0.283912 1.05441e-20)
(0.967568 -0.283769 1.43432e-20)
(0.967932 -0.283667 4.30865e-20)
(0.968316 -0.283601 -8.59045e-20)
(0.968723 -0.283564 1.75252e-20)
(0.96915 -0.283548 1.45176e-20)
(0.969594 -0.283549 4.5858e-20)
(0.97005 -0.28356 -5.08469e-20)
(0.970511 -0.283576 -2.90645e-20)
(0.970967 -0.283593 1.40656e-20)
(0.971408 -0.283606 -2.33933e-20)
(0.971825 -0.283607 1.02188e-19)
(0.97221 -0.283595 -6.3565e-21)
(0.972558 -0.283561 -5.749e-20)
(0.97287 -0.283502 1.05043e-20)
(0.973145 -0.283413 1.96694e-19)
(0.973391 -0.283291 -1.34601e-20)
(0.973613 -0.283137 -1.81868e-19)
(0.973822 -0.282946 5.42118e-20)
(0.974026 -0.282722 9.99928e-20)
(0.974235 -0.282465 -6.90888e-20)
(0.97446 -0.28218 -1.90189e-19)
(0.974709 -0.281868 -4.65861e-19)
(0.974992 -0.281524 6.9264e-20)
(0.975315 -0.281149 -1.32208e-19)
(0.975689 -0.280738 8.62805e-19)
(0.976122 -0.280287 2.45006e-19)
(0.976618 -0.279785 -1.75033e-19)
(0.977187 -0.279218 7.89079e-19)
(0.977837 -0.278571 1.63284e-19)
(0.978574 -0.277826 -4.02363e-19)
(0.979406 -0.276957 -3.93112e-19)
(0.980338 -0.275933 -1.11335e-18)
(0.981373 -0.274715 -3.91115e-18)
(0.982511 -0.273257 3.36996e-18)
(0.983748 -0.271503 -5.83025e-18)
(0.985075 -0.26939 -4.74609e-18)
(0.986478 -0.266841 4.18875e-20)
(0.987935 -0.263773 -7.25714e-18)
(0.989421 -0.260092 1.05897e-17)
(0.990902 -0.255692 1.37099e-17)
(0.992348 -0.250459 -1.14806e-17)
(0.993723 -0.244229 -1.06478e-17)
(0.995032 -0.236788 4.83896e-18)
(0.996261 -0.227839 2.97255e-17)
(0.996974 -0.217148 -7.75888e-18)
(1.00002 -0.203263 9.20882e-18)
(1.00251 -0.180538 1.50743e-17)
(0.986956 -0.172101 -5.90096e-18)
(0.964326 -0.285945 1.45206e-21)
(0.964638 -0.285869 -1.59023e-21)
(0.964963 -0.28584 -1.08706e-20)
(0.965208 -0.285824 1.42044e-20)
(0.965408 -0.28584 -2.58351e-20)
(0.965604 -0.285866 3.79528e-20)
(0.965816 -0.285845 -1.07802e-20)
(0.966049 -0.285745 4.46286e-22)
(0.966302 -0.285576 -2.33808e-20)
(0.966576 -0.285373 1.24186e-20)
(0.966868 -0.28517 -3.6548e-21)
(0.967178 -0.284993 -3.54303e-21)
(0.967505 -0.284853 5.67395e-20)
(0.967849 -0.284753 -1.69226e-20)
(0.968212 -0.284689 -3.91932e-20)
(0.968597 -0.284653 -1.33742e-21)
(0.969006 -0.284639 6.6293e-20)
(0.969436 -0.284641 -2.76582e-20)
(0.969886 -0.284657 -1.29134e-19)
(0.970354 -0.28468 8.45253e-20)
(0.97083 -0.28471 6.65192e-20)
(0.971306 -0.284743 -5.57232e-20)
(0.971775 -0.284772 -3.87739e-20)
(0.972225 -0.284796 -4.29564e-20)
(0.97265 -0.284806 8.26519e-20)
(0.973046 -0.284797 1.86254e-19)
(0.97341 -0.284765 -1.37473e-19)
(0.973744 -0.284703 -2.06133e-19)
(0.974051 -0.284611 -6.82341e-20)
(0.974341 -0.284481 1.23795e-19)
(0.974619 -0.284314 -5.77736e-20)
(0.974896 -0.284108 -1.11626e-19)
(0.975183 -0.283868 1.73447e-19)
(0.975488 -0.283591 1.22249e-20)
(0.975822 -0.283273 3.43185e-19)
(0.976193 -0.282916 9.12296e-20)
(0.976611 -0.282512 1.20318e-19)
(0.977084 -0.282058 -2.73973e-19)
(0.97762 -0.281544 4.14184e-19)
(0.978226 -0.280954 -1.19322e-19)
(0.978912 -0.280274 -2.31725e-19)
(0.979683 -0.279487 -7.10968e-20)
(0.980548 -0.278565 1.57612e-18)
(0.981511 -0.277478 2.37489e-18)
(0.982576 -0.276188 2.20496e-18)
(0.983742 -0.274649 -4.77812e-18)
(0.985005 -0.272806 -2.37158e-19)
(0.986358 -0.270595 2.22137e-18)
(0.987787 -0.267946 -1.28802e-18)
(0.98927 -0.264774 8.63369e-18)
(0.990784 -0.260987 -4.51161e-18)
(0.992295 -0.25648 -1.34568e-17)
(0.993778 -0.251139 9.09236e-19)
(0.995202 -0.244798 1.37265e-17)
(0.996573 -0.23724 -7.02719e-18)
(0.997877 -0.228162 -7.22707e-18)
(0.998651 -0.217325 -9.96546e-18)
(1.00177 -0.203246 -2.57344e-17)
(1.00421 -0.180201 -2.713e-17)
(0.988143 -0.171738 1.34948e-17)
(0.964372 -0.286848 1.36463e-21)
(0.964668 -0.286777 -1.97019e-21)
(0.964985 -0.286759 -4.18379e-22)
(0.965222 -0.28675 -7.54805e-21)
(0.965416 -0.28677 1.1451e-20)
(0.965607 -0.2868 2.34426e-20)
(0.965813 -0.286782 -8.48464e-21)
(0.96604 -0.286684 1.09263e-20)
(0.966287 -0.286517 -2.40868e-20)
(0.966553 -0.286315 4.70301e-21)
(0.966837 -0.286114 1.54844e-20)
(0.967135 -0.285938 -1.28233e-20)
(0.967449 -0.285799 -2.06329e-20)
(0.967777 -0.2857 -5.71113e-20)
(0.968121 -0.285635 1.03912e-19)
(0.968486 -0.285599 -5.30236e-20)
(0.968873 -0.285583 -7.82037e-21)
(0.969283 -0.285585 5.26445e-20)
(0.969717 -0.2856 3.34069e-20)
(0.970176 -0.285625 -1.09848e-19)
(0.970653 -0.285659 1.16475e-19)
(0.971142 -0.2857 -3.45807e-20)
(0.971637 -0.285742 9.59082e-20)
(0.972128 -0.285787 -1.63931e-19)
(0.972607 -0.285825 3.39957e-20)
(0.973068 -0.285853 9.78942e-20)
(0.973505 -0.285864 -7.82344e-20)
(0.973918 -0.285852 -1.50778e-19)
(0.974306 -0.285812 1.42306e-19)
(0.974676 -0.285738 -8.77565e-20)
(0.975031 -0.285627 3.19974e-19)
(0.975382 -0.285474 3.76201e-20)
(0.975737 -0.285283 -1.40977e-19)
(0.976105 -0.285049 8.78432e-20)
(0.976499 -0.284768 1.96167e-19)
(0.976924 -0.284438 4.78839e-19)
(0.977394 -0.284053 -6.24064e-19)
(0.977916 -0.283607 2.76883e-19)
(0.978499 -0.283092 -2.02685e-19)
(0.979151 -0.282492 -4.68863e-19)
(0.979881 -0.281791 -4.11204e-19)
(0.980694 -0.280972 2.66492e-19)