/*--------------------------------*- C++ -*----------------------------------*\
  =========                 |
  \\      /  F ield         | OpenFOAM: The Open Source CFD Toolbox
   \\    /   O peration     | Website:  https://openfoam.org
    \\  /    A nd           | Version:  6.0
     \\/     M anipulation  |
\*---------------------------------------------------------------------------*/
FoamFile
{
    version     2.0;
    format      ascii;
    class       volScalarField;
    location    "10";
    object      p;
}
// * * * * * * * * * * * * * * * * * * * * * * * * * * * * * * * * * * * * * //

dimensions      [0 2 -2 0 0 0 0];

internalField   nonuniform List<scalar> 
14500
(
0.070435
0.070298
0.069894
0.069356
0.068702
0.068119
0.067917
0.068047
0.070378
0.072977
0.093446
0.12506
0.070435
0.070298
0.069894
0.069356
0.068702
0.068119
0.067917
0.068046
0.070378
0.072998
0.092903
0.12187
0.070435
0.070299
0.069894
0.069356
0.068702
0.068118
0.067916
0.068042
0.070374
0.073001
0.092138
0.11853
0.070436
0.0703
0.069895
0.069357
0.068702
0.068117
0.067915
0.068036
0.070365
0.072984
0.091269
0.11561
0.070437
0.070301
0.069896
0.069357
0.068702
0.068116
0.067912
0.068029
0.070351
0.072952
0.090348
0.11308
0.070438
0.070302
0.069897
0.069358
0.068702
0.068115
0.067909
0.06802
0.070333
0.072906
0.089406
0.1108
0.07044
0.070303
0.069898
0.069359
0.068702
0.068113
0.067906
0.068011
0.07031
0.072845
0.088469
0.10867
0.070442
0.070305
0.069899
0.06936
0.068702
0.068111
0.067901
0.068001
0.070282
0.072769
0.087557
0.10666
0.070443
0.070307
0.0699
0.069361
0.068702
0.068109
0.067896
0.067989
0.070249
0.072676
0.086682
0.10477
0.070445
0.070309
0.069902
0.069362
0.068701
0.068107
0.067889
0.067977
0.070211
0.072568
0.085852
0.10299
0.070448
0.070311
0.069903
0.069363
0.068701
0.068104
0.067883
0.067963
0.070167
0.072447
0.08507
0.10133
0.07045
0.070314
0.069905
0.069364
0.0687
0.068101
0.067875
0.067948
0.070117
0.072313
0.084335
0.099765
0.070453
0.070316
0.069907
0.069365
0.068699
0.068098
0.067866
0.067932
0.070062
0.072171
0.083646
0.098295
0.070456
0.070319
0.069909
0.069367
0.068698
0.068095
0.067857
0.067914
0.07
0.07202
0.082997
0.096911
0.070459
0.070322
0.069912
0.069368
0.068697
0.068091
0.067847
0.067895
0.069932
0.071865
0.082383
0.095605
0.070463
0.070326
0.069914
0.06937
0.068696
0.068087
0.067836
0.067875
0.069858
0.071706
0.081801
0.094369
0.070467
0.070329
0.069917
0.069371
0.068695
0.068083
0.067825
0.067854
0.069777
0.071546
0.081245
0.093197
0.070471
0.070333
0.069919
0.069373
0.068694
0.068078
0.067813
0.067831
0.06969
0.071386
0.08071
0.09208
0.070475
0.070337
0.069922
0.069375
0.068693
0.068074
0.0678
0.067807
0.069598
0.071228
0.080192
0.091013
0.070479
0.070342
0.069925
0.069377
0.068692
0.068069
0.067786
0.067782
0.069499
0.071072
0.079687
0.089989
0.070484
0.070346
0.069929
0.069379
0.06869
0.068064
0.067771
0.067754
0.069396
0.070919
0.079192
0.089003
0.070489
0.070351
0.069932
0.069381
0.068689
0.068058
0.067756
0.067725
0.069287
0.07077
0.078704
0.088051
0.070494
0.070356
0.069936
0.069383
0.068687
0.068053
0.06774
0.067695
0.069174
0.070624
0.078222
0.087129
0.0705
0.070361
0.06994
0.069385
0.068685
0.068047
0.067723
0.067662
0.069057
0.070482
0.077743
0.086234
0.070506
0.070367
0.069944
0.069388
0.068684
0.06804
0.067705
0.067628
0.068936
0.070345
0.077266
0.085361
0.070512
0.070373
0.069948
0.06939
0.068682
0.068034
0.067686
0.067592
0.068813
0.07021
0.076791
0.08451
0.070518
0.070379
0.069952
0.069393
0.06868
0.068027
0.067667
0.067554
0.068686
0.070079
0.076316
0.083679
0.070525
0.070385
0.069957
0.069396
0.068678
0.06802
0.067647
0.067514
0.068558
0.06995
0.075842
0.082865
0.070532
0.070392
0.069962
0.069399
0.068676
0.068013
0.067626
0.067471
0.068428
0.069824
0.075368
0.082067
0.070539
0.070399
0.069967
0.069402
0.068673
0.068006
0.067605
0.067427
0.068298
0.069699
0.074894
0.081284
0.070547
0.070406
0.069972
0.069405
0.068671
0.067998
0.067582
0.067381
0.068166
0.069576
0.07442
0.080516
0.070555
0.070413
0.069977
0.069408
0.068669
0.06799
0.067559
0.067333
0.068035
0.069453
0.073947
0.079762
0.070563
0.070421
0.069983
0.069412
0.068667
0.067982
0.067535
0.067282
0.067904
0.069331
0.073475
0.079021
0.070571
0.070429
0.069989
0.069415
0.068664
0.067974
0.06751
0.06723
0.067773
0.069208
0.073004
0.078293
0.07058
0.070437
0.069995
0.069419
0.068662
0.067965
0.067484
0.067175
0.067643
0.069085
0.072535
0.077578
0.070589
0.070446
0.070001
0.069423
0.068659
0.067957
0.067457
0.067119
0.067514
0.068961
0.072068
0.076876
0.070599
0.070455
0.070008
0.069427
0.068657
0.067948
0.067429
0.067061
0.067387
0.068835
0.071604
0.076186
0.070608
0.070464
0.070015
0.069431
0.068654
0.067938
0.067401
0.067002
0.067261
0.068708
0.071143
0.075508
0.070619
0.070474
0.070022
0.069436
0.068651
0.067929
0.067371
0.066941
0.067137
0.068579
0.070686
0.074843
0.070629
0.070484
0.070029
0.06944
0.068648
0.067919
0.06734
0.066878
0.067014
0.068448
0.070232
0.07419
0.07064
0.070494
0.070036
0.069445
0.068646
0.06791
0.067308
0.066815
0.066893
0.068315
0.069783
0.073549
0.070651
0.070505
0.070044
0.06945
0.068643
0.0679
0.067276
0.06675
0.066773
0.06818
0.069339
0.07292
0.070663
0.070516
0.070052
0.069455
0.06864
0.06789
0.067242
0.066684
0.066655
0.068042
0.0689
0.072303
0.070675
0.070527
0.070061
0.06946
0.068637
0.067879
0.067207
0.066618
0.066539
0.067902
0.068466
0.071697
0.070687
0.070539
0.070069
0.069465
0.068634
0.067869
0.067171
0.066551
0.066424
0.06776
0.068038
0.071104
0.0707
0.070551
0.070078
0.069471
0.068631
0.067858
0.067133
0.066484
0.06631
0.067615
0.067615
0.070522
0.070713
0.070563
0.070087
0.069477
0.068629
0.067847
0.067095
0.066416
0.066198
0.067468
0.067199
0.069952
0.070726
0.070576
0.070097
0.069483
0.068626
0.067836
0.067056
0.066349
0.066086
0.067319
0.066788
0.069393
0.07074
0.070589
0.070107
0.069489
0.068623
0.067825
0.067015
0.066281
0.065975
0.067168
0.066384
0.068845
0.070754
0.070603
0.070117
0.069496
0.06862
0.067813
0.066973
0.066214
0.065864
0.067015
0.065987
0.068309
0.070769
0.070616
0.070127
0.069503
0.068617
0.067802
0.06693
0.066147
0.065754
0.06686
0.065596
0.067783
0.070784
0.070631
0.070138
0.06951
0.068614
0.06779
0.066886
0.066081
0.065644
0.066703
0.065211
0.067268
0.0708
0.070646
0.070149
0.069517
0.068611
0.067778
0.066841
0.066016
0.065534
0.066544
0.064833
0.066763
0.070816
0.070661
0.07016
0.069524
0.068609
0.067766
0.066795
0.065951
0.065423
0.066384
0.064461
0.066269
0.070832
0.070676
0.070172
0.069532
0.068606
0.067753
0.066748
0.065888
0.065312
0.066222
0.064095
0.065784
0.070849
0.070693
0.070184
0.06954
0.068603
0.067741
0.0667
0.065825
0.065201
0.066059
0.063736
0.065309
0.070866
0.070709
0.070197
0.069548
0.068601
0.067728
0.066651
0.065763
0.065088
0.065895
0.063383
0.064843
0.070884
0.070726
0.070209
0.069557
0.068598
0.067715
0.066601
0.065702
0.064975
0.065729
0.063035
0.064386
0.070902
0.070743
0.070223
0.069566
0.068596
0.067702
0.06655
0.065643
0.064861
0.065563
0.062694
0.063939
0.070921
0.070761
0.070236
0.069575
0.068594
0.067689
0.066499
0.065584
0.064746
0.065395
0.062359
0.063499
0.07094
0.07078
0.07025
0.069584
0.068591
0.067676
0.066447
0.065527
0.064629
0.065226
0.062029
0.063068
0.07096
0.070799
0.070265
0.069594
0.068589
0.067662
0.066394
0.065471
0.064512
0.065057
0.061704
0.062645
0.070981
0.070818
0.070279
0.069604
0.068587
0.067648
0.06634
0.065415
0.064393
0.064887
0.061385
0.062229
0.071001
0.070838
0.070295
0.069615
0.068586
0.067634
0.066286
0.065361
0.064273
0.064716
0.061071
0.06182
0.071023
0.070858
0.07031
0.069626
0.068584
0.06762
0.066232
0.065308
0.064152
0.064544
0.060762
0.061419
0.071045
0.070879
0.070326
0.069637
0.068582
0.067605
0.066178
0.065255
0.064029
0.064371
0.060458
0.061024
0.071067
0.070901
0.070343
0.069648
0.068581
0.067591
0.066123
0.065204
0.063906
0.064199
0.060158
0.060636
0.07109
0.070923
0.07036
0.06966
0.06858
0.067576
0.066068
0.065153
0.063781
0.064025
0.059863
0.060254
0.071114
0.070946
0.070377
0.069673
0.068579
0.067561
0.066013
0.065103
0.063655
0.063851
0.059572
0.059878
0.071138
0.070969
0.070395
0.069685
0.068578
0.067545
0.065958
0.065053
0.063527
0.063677
0.059286
0.059507
0.071163
0.070993
0.070414
0.069698
0.068577
0.06753
0.065903
0.065004
0.063399
0.063502
0.059003
0.059142
0.071189
0.071017
0.070433
0.069712
0.068577
0.067514
0.065848
0.064955
0.06327
0.063326
0.058724
0.058782
0.071215
0.071042
0.070452
0.069726
0.068577
0.067499
0.065794
0.064906
0.06314
0.063151
0.058449
0.058428
0.071242
0.071068
0.070472
0.06974
0.068577
0.067483
0.06574
0.064857
0.063009
0.062975
0.058177
0.058077
0.071269
0.071094
0.070493
0.069755
0.068577
0.067467
0.065686
0.064808
0.062878
0.062799
0.057909
0.057732
0.071297
0.071121
0.070514
0.06977
0.068577
0.06745
0.065633
0.064759
0.062746
0.062622
0.057644
0.057391
0.071326
0.071149
0.070536
0.069786
0.068578
0.067434
0.065581
0.06471
0.062613
0.062446
0.057383
0.057053
0.071356
0.071177
0.070558
0.069803
0.068579
0.067418
0.065529
0.064661
0.06248
0.062269
0.057124
0.05672
0.071386
0.071206
0.070581
0.06982
0.068581
0.067402
0.065478
0.064611
0.062347
0.062092
0.056869
0.056391
0.071417
0.071236
0.070605
0.069837
0.068582
0.067385
0.065427
0.064561
0.062214
0.061915
0.056616
0.056066
0.071448
0.071267
0.070629
0.069855
0.068584
0.067369
0.065378
0.06451
0.06208
0.061739
0.056366
0.055744
0.071481
0.071298
0.070654
0.069873
0.068586
0.067353
0.065329
0.064459
0.061946
0.061562
0.056119
0.055425
0.071514
0.07133
0.070679
0.069893
0.068589
0.067337
0.065281
0.064407
0.061812
0.061385
0.055874
0.05511
0.071548
0.071363
0.070705
0.069912
0.068592
0.067321
0.065234
0.064354
0.061679
0.061208
0.055632
0.054798
0.071583
0.071397
0.070732
0.069933
0.068595
0.067305
0.065188
0.064301
0.061545
0.061032
0.055393
0.05449
0.071619
0.071431
0.07076
0.069953
0.068598
0.067289
0.065142
0.064246
0.061412
0.060856
0.055156
0.054184
0.071655
0.071466
0.070788
0.069975
0.068602
0.067274
0.065098
0.064191
0.061279
0.06068
0.054922
0.053881
0.071693
0.071503
0.070817
0.069997
0.068607
0.067259
0.065055
0.064135
0.061146
0.060504
0.054689
0.053581
0.071731
0.07154
0.070847
0.07002
0.068611
0.067245
0.065012
0.064079
0.061014
0.060328
0.05446
0.053284
0.07177
0.071578
0.070878
0.070044
0.068616
0.067231
0.06497
0.064021
0.060882
0.060153
0.054232
0.05299
0.07181
0.071617
0.07091
0.070068
0.068622
0.067218
0.06493
0.063963
0.06075
0.059979
0.054007
0.052699
0.071851
0.071656
0.070942
0.070094
0.068628
0.067205
0.06489
0.063903
0.060619
0.059804
0.053784
0.05241
0.071894
0.071697
0.070975
0.07012
0.068634
0.067193
0.064851
0.063843
0.060489
0.059631
0.053563
0.052124
0.071937
0.071739
0.071009
0.070146
0.068641
0.067181
0.064812
0.063783
0.060359
0.059457
0.053344
0.05184
0.071981
0.071782
0.071044
0.070174
0.068648
0.06717
0.064775
0.063722
0.06023
0.059285
0.053128
0.051559
0.072026
0.071826
0.07108
0.070202
0.068655
0.067161
0.064738
0.06366
0.060102
0.059112
0.052913
0.051281
0.072072
0.071871
0.071117
0.070232
0.068663
0.067152
0.064702
0.063597
0.059974
0.058941
0.052701
0.051005
0.072119
0.071917
0.071155
0.070262
0.068672
0.067144
0.064666
0.063534
0.059847
0.05877
0.052491
0.050732
0.072168
0.071964
0.071194
0.070293
0.068681
0.067137
0.064631
0.06347
0.05972
0.058599
0.052283
0.050461
0.072217
0.072012
0.071234
0.070325
0.068691
0.067131
0.064597
0.063406
0.059595
0.05843
0.052076
0.050192
0.072268
0.072061
0.071275
0.070358
0.068701
0.067126
0.064563
0.063342
0.05947
0.058261
0.051872
0.049926
0.07232
0.072112
0.071317
0.070392
0.068712
0.067122
0.06453
0.063277
0.059346
0.058092
0.05167
0.049663
0.072373
0.072164
0.07136
0.070427
0.068723
0.06712
0.064497
0.063212
0.059223
0.057924
0.05147
0.049401
0.072427
0.072217
0.071404
0.070463
0.068735
0.067119
0.064465
0.063147
0.0591
0.057757
0.051272
0.049143
0.072483
0.072271
0.07145
0.070501
0.068748
0.067119
0.064433
0.063082
0.058978
0.057591
0.051076
0.048886
0.07254
0.072327
0.071496
0.070539
0.068762
0.067121
0.064402
0.063017
0.058858
0.057425
0.050881
0.048632
0.072599
0.072384
0.071544
0.070578
0.068776
0.067124
0.064371
0.062951
0.058738
0.057261
0.050689
0.04838
0.072658
0.072443
0.071593
0.070619
0.068791
0.067128
0.06434
0.062886
0.058619
0.057096
0.050498
0.04813
0.072719
0.072502
0.071644
0.070661
0.068807
0.067134
0.06431
0.062821
0.058501
0.056933
0.05031
0.047883
0.072782
0.072564
0.071696
0.070704
0.068824
0.067141
0.06428
0.062756
0.058383
0.05677
0.050123
0.047637
0.072846
0.072627
0.071749
0.070748
0.068841
0.06715
0.06425
0.062691
0.058267
0.056608
0.049938
0.047394
0.072912
0.072691
0.071804
0.070794
0.06886
0.067161
0.064221
0.062627
0.058152
0.056447
0.049754
0.047153
0.072979
0.072757
0.07186
0.07084
0.06888
0.067173
0.064192
0.062562
0.058037
0.056287
0.049572
0.046914
0.073048
0.072824
0.071918
0.070889
0.068901
0.067186
0.064164
0.062499
0.057924
0.056127
0.049392
0.046677
0.073118
0.072894
0.071977
0.070938
0.068922
0.067201
0.064136
0.062435
0.057811
0.055968
0.049214
0.046442
0.07319
0.072964
0.072038
0.07099
0.068945
0.067218
0.064109
0.062372
0.057699
0.055809
0.049037
0.046209
0.073264
0.073037
0.0721
0.071042
0.06897
0.067236
0.064082
0.06231
0.057589
0.055651
0.048862
0.045977
0.07334
0.073111
0.072164
0.071096
0.068995
0.067256
0.064056
0.062248
0.057479
0.055494
0.048688
0.045748
0.073417
0.073188
0.07223
0.071152
0.069022
0.067278
0.064031
0.062186
0.057371
0.055338
0.048516
0.04552
0.073497
0.073266
0.072298
0.071209
0.06905
0.067301
0.064006
0.062125
0.057263
0.055182
0.048345
0.045293
0.073578
0.073346
0.072367
0.071268
0.06908
0.067325
0.063982
0.062065
0.057157
0.055027
0.048176
0.045069
0.073661
0.073428
0.072439
0.071329
0.069112
0.067351
0.063959
0.062005
0.057051
0.054872
0.048007
0.044846
0.073747
0.073512
0.072512
0.071391
0.069145
0.067379
0.063936
0.061946
0.056947
0.054718
0.047841
0.044624
0.073834
0.073598
0.072588
0.071455
0.069179
0.067408
0.063915
0.061888
0.056843
0.054565
0.047675
0.044403
0.073923
0.073686
0.072665
0.071521
0.069216
0.067439
0.063894
0.06183
0.056741
0.054412
0.04751
0.044184
0.074015
0.073777
0.072745
0.071589
0.069254
0.067471
0.063875
0.061773
0.05664
0.05426
0.047347
0.043966
0.074109
0.073869
0.072826
0.071659
0.069294
0.067504
0.063857
0.061717
0.056539
0.054108
0.047184
0.04375
0.074205
0.073964
0.07291
0.07173
0.069336
0.06754
0.06384
0.061662
0.05644
0.053957
0.047023
0.043534
0.074304
0.074062
0.072996
0.071804
0.069381
0.067576
0.063824
0.061608
0.056342
0.053806
0.046862
0.043319
0.074405
0.074162
0.073085
0.07188
0.069427
0.067614
0.06381
0.061555
0.056246
0.053656
0.046702
0.043105
0.074509
0.074264
0.073176
0.071958
0.069476
0.067654
0.063797
0.061502
0.05615
0.053506
0.046543
0.042892
0.074615
0.074369
0.07327
0.072039
0.069526
0.067695
0.063786
0.061451
0.056055
0.053357
0.046385
0.042679
0.074724
0.074477
0.073366
0.072122
0.06958
0.067737
0.063776
0.0614
0.055962
0.053208
0.046227
0.042467
0.074835
0.074587
0.073465
0.072207
0.069635
0.067781
0.063768
0.061351
0.055869
0.05306
0.04607
0.042255
0.07495
0.074701
0.073567
0.072294
0.069694
0.067826
0.063762
0.061303
0.055778
0.052912
0.045913
0.042044
0.075067
0.074817
0.073671
0.072385
0.069755
0.067873
0.063757
0.061256
0.055688
0.052764
0.045757
0.041833
0.075187
0.074936
0.073778
0.072478
0.069818
0.067922
0.063755
0.06121
0.055599
0.052617
0.045601
0.041622
0.075311
0.075058
0.073889
0.072573
0.069885
0.067972
0.063754
0.061165
0.055511
0.05247
0.045445
0.041412
0.075437
0.075184
0.074002
0.072672
0.069954
0.068023
0.063755
0.061121
0.055425
0.052323
0.045289
0.041201
0.075567
0.075312
0.074119
0.072773
0.070026
0.068077
0.063758
0.061079
0.055339
0.052177
0.045134
0.04099
0.0757
0.075444
0.074239
0.072878
0.070101
0.068131
0.063763
0.061038
0.055255
0.052031
0.044979
0.040779
0.075836
0.07558
0.074362
0.072985
0.070179
0.068188
0.063771
0.060999
0.055172
0.051886
0.044823
0.040567
0.075976
0.075719
0.074489
0.073096
0.070261
0.068246
0.06378
0.060961
0.05509
0.05174
0.044668
0.040355
0.07612
0.075862
0.07462
0.073211
0.070345
0.068307
0.063792
0.060924
0.05501
0.051595
0.044512
0.040142
0.076267
0.076008
0.074754
0.073328
0.070433
0.068369
0.063806
0.060889
0.054931
0.051451
0.044357
0.039929
0.076419
0.076159
0.074892
0.07345
0.070525
0.068433
0.063822
0.060855
0.054852
0.051306
0.044201
0.039715
0.076574
0.076313
0.075034
0.073575
0.07062
0.068499
0.063841
0.060823
0.054775
0.051162
0.044044
0.0395
0.076733
0.076472
0.075179
0.073704
0.070718
0.068567
0.063862
0.060792
0.0547
0.051018
0.043887
0.039284
0.076897
0.076635
0.07533
0.073837
0.070821
0.068638
0.063886
0.060763
0.054625
0.050874
0.04373
0.039067
0.077065
0.076802
0.075484
0.073975
0.070927
0.068711
0.063912
0.060735
0.054552
0.050731
0.043572
0.038848
0.077238
0.076974
0.075643
0.074116
0.071037
0.068786
0.06394
0.06071
0.05448
0.050588
0.043413
0.038629
0.077415
0.077151
0.075806
0.074262
0.07115
0.068864
0.063972
0.060686
0.054409
0.050444
0.043253
0.038407
0.077597
0.077333
0.075975
0.074413
0.071269
0.068945
0.064006
0.060663
0.05434
0.050301
0.043093
0.038185
0.077784
0.077519
0.076148
0.074569
0.071391
0.069029
0.064042
0.060643
0.054272
0.050158
0.042932
0.03796
0.077976
0.077711
0.076326
0.07473
0.071517
0.069115
0.064082
0.060624
0.054205
0.050016
0.04277
0.037734
0.078174
0.077908
0.07651
0.074895
0.071649
0.069205
0.064124
0.060607
0.054139
0.049873
0.042606
0.037506
0.078377
0.078111
0.076698
0.075067
0.071784
0.069298
0.064169
0.060592
0.054074
0.04973
0.042442
0.037276
0.078585
0.07832
0.076893
0.075243
0.071925
0.069395
0.064217
0.060578
0.054011
0.049587
0.042276
0.037043
0.0788
0.078534
0.077093
0.075426
0.07207
0.069495
0.064268
0.060567
0.053949
0.049445
0.042109
0.036809
0.07902
0.078755
0.077299
0.075614
0.07222
0.069599
0.064323
0.060557
0.053888
0.049302
0.04194
0.036572
0.079247
0.078982
0.077512
0.075809
0.072376
0.069706
0.06438
0.06055
0.053828
0.049159
0.04177
0.036332
0.07948
0.079215
0.07773
0.07601
0.072537
0.069818
0.064441
0.060544
0.053769
0.049015
0.041599
0.03609
0.07972
0.079456
0.077956
0.076218
0.072704
0.069934
0.064506
0.06054
0.053711
0.048872
0.041425
0.035845
0.079967
0.079703
0.078188
0.076432
0.072876
0.070055
0.064573
0.060539
0.053655
0.048728
0.04125
0.035597
0.080221
0.079958
0.078428
0.076654
0.073055
0.07018
0.064645
0.060539
0.0536
0.048584
0.041073
0.035346
0.080482
0.08022
0.078674
0.076883
0.073239
0.070311
0.06472
0.060542
0.053545
0.04844
0.040893
0.035092
0.080751
0.08049
0.078929
0.077119
0.07343
0.070446
0.064799
0.060547
0.053492
0.048295
0.040712
0.034834
0.081029
0.080768
0.079191
0.077364
0.073628
0.070587
0.064882
0.060553
0.05344
0.048149
0.040528
0.034573
0.081314
0.081055
0.079462
0.077616
0.073833
0.070733
0.06497
0.060563
0.053389
0.048003
0.040342
0.034308
0.081608
0.081351
0.079741
0.077877
0.074045
0.070885
0.065061
0.060574
0.053339
0.047856
0.040153
0.034039
0.081911
0.081655
0.080029
0.078147
0.074265
0.071043
0.065157
0.060588
0.053289
0.047708
0.039961
0.033766
0.082223
0.081969
0.080327
0.078426
0.074492
0.071207
0.065258
0.060604
0.053241
0.04756
0.039767
0.033489
0.082545
0.082293
0.080634
0.078714
0.074728
0.071378
0.065364
0.060623
0.053194
0.04741
0.039569
0.033207
0.082877
0.082627
0.08095
0.079011
0.074973
0.071556
0.065474
0.060644
0.053147
0.047259
0.039368
0.03292
0.083219
0.082971
0.081278
0.079319
0.075226
0.071741
0.06559
0.060667
0.053101
0.047107
0.039163
0.032629
0.083572
0.083326
0.081616
0.079638
0.075488
0.071933
0.065711
0.060694
0.053056
0.046954
0.038955
0.032332
0.083936
0.083693
0.081965
0.079967
0.075761
0.072133
0.065838
0.060723
0.053011
0.046799
0.038743
0.032029
0.084312
0.084072
0.082326
0.080307
0.076043
0.072341
0.065971
0.060755
0.052968
0.046642
0.038527
0.031721
0.0847
0.084463
0.082699
0.080659
0.076336
0.072557
0.06611
0.06079
0.052924
0.046484
0.038307
0.031407
0.085101
0.084867
0.083085
0.081022
0.07664
0.072782
0.066255
0.060828
0.052882
0.046323
0.038082
0.031086
0.085515
0.085284
0.083484
0.081399
0.076955
0.073017
0.066407
0.060869
0.05284
0.04616
0.037852
0.030759
0.085942
0.085716
0.083897
0.081788
0.077283
0.07326
0.066565
0.060913
0.052798
0.045995
0.037617
0.030424
0.086384
0.086162
0.084324
0.082191
0.077623
0.073514
0.066731
0.060961
0.052757
0.045827
0.037376
0.030082
0.086841
0.086623
0.084767
0.082608
0.077976
0.073778
0.066904
0.061012
0.052716
0.045657
0.037129
0.029732
0.087314
0.0871
0.085225
0.08304
0.078342
0.074053
0.067085
0.061067
0.052675
0.045483
0.036876
0.029373
0.087803
0.087593
0.085699
0.083487
0.078723
0.074339
0.067274
0.061125
0.052634
0.045306
0.036617
0.029005
0.088309
0.088104
0.086191
0.083949
0.079118
0.074637
0.067471
0.061187
0.052593
0.045126
0.03635
0.028628
0.088832
0.088633
0.0867
0.084429
0.079529
0.074947
0.067677
0.061253
0.052552
0.044941
0.036076
0.028241
0.089375
0.089181
0.087229
0.084925
0.079956
0.07527
0.067892
0.061323
0.05251
0.044752
0.035794
0.027844
0.089937
0.089749
0.087777
0.08544
0.0804
0.075606
0.068116
0.061397
0.052469
0.044559
0.035503
0.027435
0.090519
0.090338
0.088345
0.085974
0.080861
0.075956
0.06835
0.061476
0.052426
0.04436
0.035203
0.027014
0.091123
0.090948
0.088936
0.086527
0.081341
0.07632
0.068594
0.061558
0.052383
0.044156
0.034893
0.02658
0.09175
0.091582
0.089548
0.087101
0.08184
0.076699
0.068848
0.061645
0.052338
0.043946
0.034573
0.026133
0.0924
0.09224
0.090185
0.087697
0.082358
0.077094
0.069114
0.061737
0.052293
0.04373
0.034241
0.025671
0.093075
0.092922
0.090847
0.088315
0.082897
0.077506
0.06939
0.061833
0.052246
0.043507
0.033898
0.025194
0.093776
0.093632
0.091534
0.088958
0.083458
0.077934
0.069678
0.061934
0.052196
0.043276
0.033541
0.024701
0.094505
0.09437
0.09225
0.089625
0.084042
0.07838
0.069977
0.062039
0.052145
0.043036
0.033171
0.02419
0.095262
0.095137
0.092994
0.090318
0.08465
0.078845
0.070289
0.062149
0.05209
0.042788
0.032786
0.023661
0.09605
0.095935
0.093769
0.09104
0.085282
0.079328
0.070613
0.062263
0.052033
0.042529
0.032385
0.023112
0.096871
0.096766
0.094577
0.09179
0.08594
0.079832
0.07095
0.062381
0.051971
0.04226
0.031967
0.022542
0.097725
0.097631
0.095418
0.092571
0.086625
0.080356
0.071301
0.062504
0.051905
0.041979
0.03153
0.021949
0.098615
0.098534
0.096295
0.093385
0.087338
0.080901
0.071664
0.062631
0.051834
0.041685
0.031074
0.021332
0.099543
0.099475
0.097211
0.094233
0.088082
0.081469
0.072042
0.062761
0.051756
0.041377
0.030596
0.020689
0.10051
0.10046
0.098166
0.095117
0.088856
0.08206
0.072433
0.062894
0.051672
0.041053
0.030096
0.020019
0.10152
0.10148
0.099165
0.096039
0.089664
0.082675
0.072838
0.06303
0.051579
0.040712
0.02957
0.019319
0.10258
0.10256
0.10021
0.097002
0.090505
0.083314
0.073257
0.063169
0.051477
0.040353
0.029018
0.018588
0.10368
0.10368
0.1013
0.098008
0.091383
0.08398
0.07369
0.063308
0.051363
0.039972
0.028437
0.017823
0.10484
0.10485
0.10244
0.099059
0.092299
0.084672
0.074138
0.063448
0.051238
0.039569
0.027824
0.017022
0.10605
0.10608
0.10364
0.10016
0.093254
0.085392
0.074599
0.063587
0.051097
0.03914
0.027178
0.016182
0.10732
0.10737
0.1049
0.10131
0.094252
0.08614
0.075073
0.063724
0.05094
0.038684
0.026494
0.0153
0.10865
0.10872
0.10621
0.10252
0.095294
0.086918
0.075561
0.063857
0.050764
0.038197
0.025771
0.014373
0.11004
0.11015
0.1076
0.10378
0.096383
0.087726
0.076062
0.063985
0.050566
0.037676
0.025004
0.013399
0.11151
0.11164
0.10905
0.10511
0.097521
0.088566
0.076574
0.064105
0.050343
0.037118
0.02419
0.012372
0.11306
0.11321
0.11058
0.1065
0.098711
0.089437
0.077096
0.064214
0.05009
0.036517
0.023325
0.01129
0.11468
0.11487
0.11219
0.10797
0.099956
0.090341
0.077628
0.06431
0.049805
0.03587
0.022403
0.010148
0.1164
0.11662
0.1139
0.10951
0.10126
0.091279
0.078167
0.064389
0.049482
0.035171
0.021421
0.0089405
0.1182
0.11847
0.11569
0.11114
0.10262
0.092251
0.078711
0.064446
0.049116
0.034415
0.020371
0.0076634
0.12012
0.12042
0.11759
0.11285
0.10405
0.093257
0.079257
0.064477
0.0487
0.033594
0.019249
0.0063106
0.12214
0.12248
0.1196
0.11465
0.10555
0.094297
0.079802
0.064476
0.048227
0.032702
0.018046
0.0048757
0.12428
0.12468
0.12173
0.11656
0.10712
0.095371
0.080342
0.064435
0.047689
0.031729
0.016755
0.0033519
0.12656
0.127
0.12398
0.11858
0.10877
0.096478
0.080871
0.064346
0.047075
0.030666
0.015367
0.0017315
0.12897
0.12948
0.12638
0.12072
0.11049
0.097615
0.081382
0.0642
0.046376
0.029502
0.013873
5.9885e-06
0.13155
0.13211
0.12894
0.12298
0.1123
0.098782
0.081868
0.063984
0.045577
0.028225
0.01226
-0.0018341
0.13429
0.13492
0.13166
0.12538
0.1142
0.099973
0.082319
0.063686
0.044665
0.02682
0.010518
-0.0037991
0.13722
0.13793
0.13457
0.12793
0.11619
0.10118
0.08272
0.063288
0.04362
0.02527
0.0086316
-0.0059007
0.14036
0.14115
0.13768
0.13065
0.11826
0.1024
0.083058
0.06277
0.042424
0.023558
0.0065852
-0.0081519
0.14373
0.1446
0.14101
0.13353
0.12044
0.10363
0.083312
0.062109
0.041051
0.021662
0.0043613
-0.010567
0.14735
0.14832
0.14458
0.1366
0.1227
0.10483
0.083458
0.061276
0.039475
0.019557
0.0019397
-0.013162
0.15125
0.15232
0.14843
0.13986
0.12505
0.10601
0.083465
0.060237
0.037662
0.017215
-0.00070208
-0.015955
0.15547
0.15665
0.15257
0.14334
0.12748
0.10712
0.083294
0.05895
0.035574
0.014604
-0.0035896
-0.018964
0.16004
0.16135
0.15704
0.14704
0.12998
0.10813
0.082897
0.057366
0.033166
0.011688
-0.0067516
-0.022213
0.16501
0.16645
0.16187
0.15097
0.13252
0.109
0.082214
0.055422
0.030386
0.0084239
-0.01022
-0.025725
0.17044
0.17202
0.1671
0.15514
0.13507
0.10966
0.081166
0.053047
0.027171
0.0047642
-0.014031
-0.029525
0.17638
0.17811
0.17277
0.15953
0.13757
0.11002
0.079658
0.050152
0.02345
0.0006547
-0.018224
-0.033641
0.18292
0.1848
0.17893
0.16415
0.13995
0.10997
0.077568
0.04663
0.01914
-0.0039652
-0.022843
-0.038102
0.19014
0.19218
0.18561
0.16893
0.14209
0.10935
0.074744
0.042356
0.014145
-0.0091626
-0.027933
-0.042938
0.19817
0.20035
0.19286
0.17382
0.14381
0.10796
0.070997
0.037179
0.0083578
-0.01501
-0.033545
-0.048176
0.20714
0.20944
0.20068
0.17867
0.14489
0.10553
0.066093
0.030927
0.0016603
-0.021584
-0.039723
-0.053839
0.21724
0.2196
0.20907
0.18327
0.14498
0.10172
0.059753
0.023402
-0.006073
-0.028957
-0.04651
-0.059938
0.2287
0.23098
0.21794
0.18726
0.1436
0.096075
0.051644
0.014392
-0.014965
-0.037193
-0.053928
-0.066463
0.24184
0.24376
0.22707
0.19007
0.14008
0.088049
0.041395
0.0036865
-0.025114
-0.046321
-0.061966
-0.073368
0.25707
0.25809
0.23597
0.19083
0.13355
0.076989
0.028631
-0.008882
-0.03656
-0.05631
-0.07055
-0.080555
0.27497
0.27395
0.24377
0.18824
0.12287
0.062201
0.01305
-0.023363
-0.04922
-0.067018
-0.079513
-0.087852
0.29635
0.291
0.24885
0.18048
0.10678
0.04311
-0.0054163
-0.039562
-0.062799
-0.078137
-0.088561
-0.095007
0.32222
0.30804
0.24853
0.1652
0.084118
0.019591
-0.026348
-0.056888
-0.076714
-0.089164
-0.097277
-0.10171
0.35352
0.32241
0.23903
0.14005
0.054532
-0.0075213
-0.048567
-0.074249
-0.090084
-0.099437
-0.10517
-0.10763
0.3897
0.32892
0.21631
0.10432
0.019582
-0.035986
-0.07009
-0.090185
-0.10191
-0.10829
-0.11183
-0.11256
0.42628
0.31825
0.17645
0.060227
-0.0169
-0.0627
-0.088919
-0.10355
-0.11158
-0.11547
-0.11718
-0.11656
0.46135
0.28384
0.11714
0.010346
-0.051989
-0.086306
-0.1049
-0.11475
-0.11971
-0.12159
-0.12183
-0.12021
0.50257
0.2388
0.049263
-0.04088
-0.08463
-0.10713
-0.11886
-0.12466
-0.12706
-0.12727
-0.12627
-0.12383
0.12703
0.075623
0.058936
0.050737
0.044946
0.040813
0.03757
0.034984
0.032706
0.030808
0.028977
0.027341
0.10928
0.066169
0.052638
0.045424
0.040157
0.036413
0.033474
0.031135
0.029076
0.027366
0.02572
0.024329
0.086122
0.054328
0.043783
0.037759
0.033232
0.030029
0.027519
0.025533
0.023787
0.022351
0.020968
0.019786
0.082555
0.055201
0.044321
0.038135
0.033461
0.030147
0.027559
0.025519
0.023729
0.022269
0.02086
0.019672
0.083659
0.058321
0.046622
0.040073
0.035101
0.031553
0.028788
0.026617
0.024713
0.023171
0.02168
0.020442
0.083557
0.060212
0.048198
0.041447
0.036267
0.03253
0.029623
0.027347
0.025351
0.023748
0.022192
0.020918
0.082581
0.061428
0.049443
0.042575
0.037239
0.033339
0.0303
0.027928
0.025846
0.024189
0.022575
0.021282
0.081498
0.062466
0.050673
0.043725
0.038261
0.034205
0.031031
0.028556
0.026384
0.024668
0.022993
0.021687
0.080457
0.063342
0.051861
0.044879
0.039322
0.035128
0.031823
0.029243
0.026977
0.025198
0.023459
0.022141
0.079407
0.064001
0.05294
0.04598
0.040373
0.036067
0.032644
0.029964
0.027604
0.025761
0.023957
0.022628
0.078332
0.064446
0.053882
0.046997
0.041382
0.036997
0.033473
0.030701
0.028253
0.026347
0.024479
0.023139
0.077247
0.064709
0.054686
0.047919
0.042331
0.037898
0.034293
0.031442
0.028914
0.026949
0.025019
0.023666
0.076175
0.064823
0.055356
0.048738
0.043208
0.038756
0.035092
0.032175
0.029577
0.027557
0.025569
0.024201
0.075128
0.064816
0.055899
0.049455
0.044005
0.039559
0.035856
0.032888
0.03023
0.028162
0.026121
0.024734
0.074116
0.064712
0.056326
0.050071
0.04472
0.040301
0.036576
0.03357
0.030864
0.028755
0.026665
0.025256
0.073144
0.064531
0.056651
0.050593
0.045354
0.040979
0.037248
0.034217
0.031472
0.029329
0.027195
0.025762
0.072214
0.064293
0.056885
0.05103
0.04591
0.041591
0.037867
0.034823
0.032049
0.029878
0.027706
0.026247
0.071327
0.064011
0.057042
0.051388
0.046393
0.04214
0.038435
0.035387
0.032593
0.030399
0.028194
0.026708
0.070482
0.063697
0.057132
0.051677
0.04681
0.04263
0.038952
0.035907
0.0331
0.030889
0.028658
0.027145
0.069677
0.063358
0.057166
0.051904
0.047165
0.043063
0.03942
0.036386
0.033573
0.031349
0.029095
0.027557
0.06891
0.063002
0.057152
0.052077
0.047466
0.043445
0.039842
0.036824
0.03401
0.031777
0.029505
0.027944
0.068177
0.062635
0.057097
0.052202
0.047717
0.043779
0.040221
0.037223
0.034414
0.032176
0.02989
0.028308
0.067476
0.062259
0.057008
0.052285
0.047924
0.044069
0.04056
0.037587
0.034786
0.032545
0.03025
0.02865
0.066804
0.061878
0.056891
0.052332
0.048092
0.044321
0.040862
0.037916
0.035128
0.032887
0.030585
0.02897
0.066159
0.061494
0.056749
0.052347
0.048224
0.044536
0.04113
0.038214
0.035441
0.033203
0.030898
0.02927
0.065538
0.061108
0.056586
0.052334
0.048325
0.044719
0.041368
0.038483
0.035729
0.033495
0.031189
0.029549
0.06494
0.060723