/*--------------------------------*- C++ -*----------------------------------*\
  =========                 |
  \\      /  F ield         | OpenFOAM: The Open Source CFD Toolbox
   \\    /   O peration     | Website:  https://openfoam.org
    \\  /    A nd           | Version:  6.0
     \\/     M anipulation  |
\*---------------------------------------------------------------------------*/
FoamFile
{
    version     2.0;
    format      ascii;
    class       surfaceScalarField;
    location    "1";
    object      phi;
}
// * * * * * * * * * * * * * * * * * * * * * * * * * * * * * * * * * * * * * //

dimensions      [0 3 -1 0 0 0 0];

internalField   nonuniform List<scalar> 
123526
(
4.08371e-07
2.34005e-05
1.5254e-09
8.5053e-07
2.53002e-05
1.32839e-06
2.73541e-05
1.84489e-06
2.95745e-05
2.40317e-06
3.19751e-05
3.00669e-06
3.45704e-05
3.65917e-06
3.7376e-05
4.36465e-06
4.04091e-05
5.12839e-06
4.36871e-05
5.9548e-06
4.72309e-05
6.8484e-06
5.10624e-05
7.81447e-06
5.5204e-05
8.85917e-06
5.96807e-05
9.99092e-06
6.45169e-05
1.1218e-05
6.97428e-05
1.25445e-05
7.53936e-05
1.39788e-05
8.14999e-05
1.55357e-05
8.80913e-05
1.72228e-05
9.5215e-05
1.90463e-05
0.000102914
2.10249e-05
0.000111222
2.31699e-05
0.000120193
2.54881e-05
0.000129885
2.80071e-05
0.000140332
3.07312e-05
0.000151615
3.36816e-05
0.000163779
3.68782e-05
0.000176891
4.03338e-05
0.000191026
4.40779e-05
0.000206239
4.81214e-05
0.000222621
5.24971e-05
0.000240227
5.72202e-05
0.00025915
6.23213e-05
0.000279452
6.78249e-05
0.000301214
7.37543e-05
0.000324505
8.01468e-05
0.000349377
8.70219e-05
0.000375902
9.44135e-05
0.000404104
0.000102355
0.000434002
0.000110873
0.000465595
0.000119998
0.00049883
0.000129764
0.000533607
0.000140198
0.00056977
0.000151323
0.000607068
0.00016316
0.000645142
0.00017572
0.000683486
0.000189004
0.000721415
0.000202993
0.000758011
0.000217647
0.000792067
0.000232893
0.00082202
0.000248623
0.00084587
0.000264677
0.000861095
0.000280837
0.000864544
0.000296809
0.000852337
0.000312217
0.000819745
0.000326574
0.000761078
0.000339272
0.00066956
0.000349564
0.000537168
0.000356545
0.000354139
0.000106252
0.000359051
3.99848e-07
2.30006e-05
1.36705e-09
8.32784e-07
2.48679e-05
1.30071e-06
2.68866e-05
1.80649e-06
2.90692e-05
2.35322e-06
3.14287e-05
2.94426e-06
3.39796e-05
3.58327e-06
3.67373e-05
4.2742e-06
3.97184e-05
5.0222e-06
4.29393e-05
5.83159e-06
4.64217e-05
6.70681e-06
5.01874e-05
7.65302e-06
5.42579e-05
8.67626e-06
5.86577e-05
9.7848e-06
6.34084e-05
1.09867e-05
6.85411e-05
1.22861e-05
7.40943e-05
1.36911e-05
8.00951e-05
1.52163e-05
8.65662e-05
1.6869e-05
9.35625e-05
1.86554e-05
0.000101128
2.0594e-05
0.000109283
2.26956e-05
0.000118092
2.49671e-05
0.000127614
2.74356e-05
0.000137864
3.01052e-05
0.000148946
3.29969e-05
0.000160888
3.61302e-05
0.000173758
3.95179e-05
0.000187638
4.31886e-05
0.000202568
4.71538e-05
0.000218656
5.14452e-05
0.000235936
5.60784e-05
0.000254518
6.10833e-05
0.000274448
6.64842e-05
0.000295813
7.23044e-05
0.000318685
7.85805e-05
0.000343102
8.53321e-05
0.000369151
9.25926e-05
0.000396844
0.000100395
0.0004262
0.000108765
0.000457226
0.000117733
0.000489862
0.000127332
0.000524008
0.000137588
0.000559515
0.000148523
0.000596133
0.000160157
0.000633507
0.000172502
0.000671142
0.000185554
0.000708362
0.000199298
0.000744267
0.000213691
0.000777672
0.000228665
0.000807044
0.000244112
0.000830422
0.000259875
0.000845329
0.00027574
0.000848676
0.000291422
0.000836654
0.000306548
0.000804619
0.000320641
0.000746985
0.000333105
0.000657097
0.000343205
0.000527068
0.000350046
0.000347297
0.000103805
0.000352491
3.91691e-07
2.26089e-05
1.34251e-09
8.15756e-07
2.44444e-05
1.27409e-06
2.64288e-05
1.76951e-06
2.85742e-05
2.30504e-06
3.08936e-05
2.88399e-06
3.3401e-05
3.50994e-06
3.61116e-05
4.18676e-06
3.90418e-05
4.9195e-06
4.22068e-05
5.71241e-06
4.56289e-05
6.56982e-06
4.93302e-05
7.49681e-06
5.33311e-05
8.49926e-06
5.76555e-05
9.58533e-06
6.23224e-05
1.07629e-05
6.73637e-05
1.20359e-05
7.28214e-05
1.34126e-05
7.87187e-05
1.49069e-05
8.50719e-05
1.65263e-05
9.19434e-05
1.82768e-05
9.93771e-05
2.01765e-05
0.000107384
2.22361e-05
0.000116032
2.44622e-05
0.000125388
2.68815e-05
0.000135444
2.94982e-05
0.000146329
3.23328e-05
0.000158053
3.54044e-05
0.000170687
3.87259e-05
0.000184317
4.23253e-05
0.000198969
4.62139e-05
0.000214768
5.0423e-05
0.000231727
5.49681e-05
0.000249973
5.98788e-05
0.000269538
6.51789e-05
0.000290514
7.08917e-05
0.000312973
7.70533e-05
0.000336941
8.36831e-05
0.000362521
9.08141e-05
0.000389713
9.84788e-05
0.000418536
0.000106702
0.000449003
0.000115515
0.00048105
0.000124949
0.000514575
0.000135028
0.000549435
0.000145776
0.000585386
0.00015721
0.000622073
0.000169341
0.000659011
0.000182166
0.000695537
0.000195668
0.000730765
0.000209806
0.000763534
0.000224513
0.000792338
0.000239681
0.000815254
0.000255159
0.000829852
0.000270736
0.0008331
0.000286132
0.000821259
0.000300982
0.000789769
0.000314816
0.00073315
0.00032705
0.000644862
0.000336961
0.000517156
0.000343667
0.000340589
0.000101412
0.000346056
3.8364e-07
2.2225e-05
1.2125e-09
7.99068e-07
2.40294e-05
1.24811e-06
2.59801e-05
1.7335e-06
2.80891e-05
2.25821e-06
3.03692e-05
2.82548e-06
3.2834e-05
3.43882e-06
3.54985e-05
4.102e-06
3.83788e-05
4.82e-06
4.1489e-05
5.59693e-06
4.48521e-05
6.4371e-06
4.84902e-05
7.34542e-06
5.24228e-05
8.32773e-06
5.66733e-05
9.39197e-06
6.12582e-05
1.05459e-05
6.621e-05
1.17934e-05
7.15739e-05
1.31425e-05
7.73699e-05
1.4607e-05
8.36074e-05
1.61941e-05
9.03565e-05
1.79097e-05
9.76615e-05
1.97716e-05
0.000105522
2.17903e-05
0.000114013
2.39723e-05
0.000123206
2.63439e-05
0.000133073
2.89091e-05
0.000143764
3.16881e-05
0.000155274
3.46997e-05
0.000167676
3.79566e-05
0.00018106
4.14864e-05
0.000195439
4.53002e-05
0.000210954
4.9429e-05
0.000227598
5.38879e-05
0.000245514
5.87063e-05
0.00026472
6.39076e-05
0.000285313
6.95149e-05
0.000307366
7.55637e-05
0.000330892
8.20735e-05
0.000356012
8.90768e-05
0.00038271
9.66055e-05
0.000411007
0.000104684
0.000440924
0.000113343
0.000472391
0.000122614
0.000505305
0.000132519
0.00053953
0.000143081
0.000574824
0.000154317
0.000610838
0.000166237
0.000647092
0.000178838
0.000682936
0.000192102
0.000717501
0.00020599
0.000749646
0.000220434
0.000777894
0.00023533
0.000800358
0.000250528
0.000814653
0.000265822
0.000817805
0.000280938
0.000806143
0.000295516
0.000775191
0.000309098
0.000719569
0.000321106
0.000632852
0.000330832
0.000507429
0.000337406
0.000334012
9.90719e-05
0.000339741
3.76105e-07
2.1849e-05
1.40049e-09
7.83297e-07
2.36229e-05
1.22337e-06
2.55406e-05
1.69906e-06
2.76139e-05
2.21325e-06
2.98554e-05
2.76916e-06
3.22785e-05
3.37017e-06
3.48978e-05
4.02008e-06
3.77292e-05
4.72367e-06
4.07857e-05
5.4851e-06
4.40909e-05
6.30845e-06
4.76671e-05
7.19868e-06
5.15327e-05
8.16138e-06
5.57108e-05
9.20446e-06
6.02152e-05
1.03354e-05
6.50792e-05
1.15582e-05
7.03512e-05
1.28805e-05
7.60478e-05
1.43159e-05
8.2172e-05
1.58716e-05
8.8801e-05
1.75533e-05
9.59798e-05
1.93784e-05
0.000103697
2.13574e-05
0.000112034
2.34965e-05
0.000121067
2.58216e-05
0.000130748
2.83366e-05
0.00014125
3.10615e-05
0.000152549
3.40147e-05
0.000164723
3.72086e-05
0.000177867
4.06704e-05
0.000191978
4.44113e-05
0.000207213
4.84615e-05
0.000223548
5.28361e-05
0.00024114
5.75639e-05
0.000259992
6.26683e-05
0.000280209
6.8172e-05
0.000301863
7.41101e-05
0.000324954
8.05018e-05
0.000349621
8.73791e-05
0.000375833
9.47737e-05
0.000403613
0.00010271
0.000432988
0.000111217
0.000463885
0.000120325
0.000496197
0.000130058
0.000529798
0.000140437
0.000564446
0.000151478
0.000599797
0.00016319
0.000635381
0.00017557
0.000670556
0.000188601
0.000704471
0.000202242
0.000736005
0.000216428
0.000763709
0.000231056
0.00078573
0.00024598
0.00079973
0.000260997
0.000802789
0.000275838
0.000791303
0.000290151
0.000760879
0.000303483
0.000706236
0.000315271
0.000621064
0.000324815
0.000497884
0.00033126
0.000327565
9.67853e-05
0.000333543
3.68452e-07
2.14803e-05
1.18567e-09
7.67467e-07
2.32243e-05
1.19876e-06
2.51097e-05
1.66499e-06
2.7148e-05
2.16899e-06
2.93517e-05
2.71389e-06
3.17338e-05
3.30304e-06
3.43089e-05
3.9401e-06
3.70923e-05
4.62981e-06
4.00961e-05
5.37617e-06
4.33446e-05
6.18327e-06
4.68601e-05
7.0559e-06
5.06601e-05
7.99962e-06
5.47673e-05
9.02209e-06
5.91927e-05
1.01308e-05
6.39707e-05
1.13294e-05
6.91525e-05
1.26257e-05
7.47517e-05
1.40329e-05
8.07648e-05
1.55581e-05
8.72761e-05
1.72068e-05
9.43311e-05
1.89962e-05
0.000101908
2.09364e-05
0.000110094
2.30339e-05
0.00011897
2.53137e-05
0.000128468
2.77798e-05
0.000138784
3.0452e-05
0.000149877
3.33481e-05
0.000161827
3.64806e-05
0.000174734
3.98761e-05
0.000188582
4.35456e-05
0.000203544
4.75189e-05
0.000219575
5.1811e-05
0.000236848
5.64503e-05
0.000255353
6.14596e-05
0.0002752
6.68616e-05
0.000296461
7.26908e-05
0.000319126
7.89663e-05
0.000343345
8.57196e-05
0.00036908
9.29819e-05
0.000396351
0.000100777
0.000425194
0.000109134
0.000455528
0.000118083
0.000487249
0.000127646
0.000520235
0.000137844
0.000554249
0.000148692
0.000588949
0.000160199
0.000623874
0.000172362
0.000658394
0.000185163
0.000691671
0.000198562
0.000722606
0.000212495
0.000749777
0.00022686
0.000771365
0.000241514
0.000785076
0.00025626
0.000788044
0.00027083
0.000776733
0.000284882
0.000746828
0.000297971
0.000693147
0.000309542
0.000609492
0.000318908
0.000488516
0.000325228
0.000321242
9.4548e-05
0.000327461
3.61284e-07
2.1119e-05
1.27089e-09
7.52469e-07
2.28337e-05
1.17526e-06
2.46874e-05
1.63229e-06
2.66914e-05
2.12634e-06
2.88579e-05
2.66048e-06
3.12e-05
3.238e-06
3.37316e-05
3.8625e-06
3.6468e-05
4.53863e-06
3.94202e-05
5.27034e-06
4.26131e-05
6.06159e-06
4.60691e-05
6.91713e-06
4.98047e-05
7.84233e-06
5.38423e-05
8.84482e-06
5.81903e-05
9.9318e-06
6.28839e-05
1.1107e-05
6.79774e-05
1.2378e-05
7.3481e-05
1.37577e-05
7.93851e-05
1.52531e-05
8.57809e-05
1.68697e-05
9.27146e-05
1.86242e-05
0.000100154
2.05268e-05
0.000108192
2.25836e-05
0.000116914
2.48193e-05
0.000126232
2.72378e-05
0.000136365
2.98584e-05
0.000147257
3.26989e-05
0.000158986
3.57714e-05
0.000171662
3.91021e-05
0.000185252
4.27019e-05
0.000199944
4.66001e-05
0.000215677
5.08114e-05
0.000232637
5.53638e-05
0.000250801
6.028e-05
0.000270284
6.55822e-05
0.00029116
7.13044e-05
0.000313404
7.74656e-05
0.000337185
8.40968e-05
0.000362449
9.12288e-05
0.00038922
9.88851e-05
0.000417537
0.000107094
0.000447319
0.000115885
0.000478458
0.00012528
0.00051084
0.000135299
0.00054423
0.000145958
0.000578291
0.000157263
0.000612569
0.000169212
0.000646445
0.000181786
0.000679097
0.000194948
0.000709445
0.000208632
0.000736093
0.000222739
0.000757258
0.000237129
0.000770686
0.000251608
0.000773566
0.000265914
0.000762427
0.00027971
0.000733033
0.000292559
0.000680297
0.000303917
0.000598133
0.000313109
0.000479323
0.000319307
0.000315042
9.23624e-05
0.00032149
3.53948e-07
2.07646e-05
1.06264e-09
7.37371e-07
2.24506e-05
1.15185e-06
2.42732e-05
1.59994e-06
2.62436e-05
2.08435e-06
2.83737e-05
2.60809e-06
3.06764e-05
3.1744e-06
3.31655e-05
3.78675e-06
3.58558e-05
4.44976e-06
3.87574e-05
5.16721e-06
4.18957e-05
5.94309e-06
4.52934e-05
6.78194e-06
4.89659e-05
7.68918e-06
5.29352e-05
8.67212e-06
5.72074e-05
9.73801e-06
6.18182e-05
1.08904e-05
6.6825e-05
1.21367e-05
7.22349e-05
1.34897e-05
7.80321e-05
1.49561e-05
8.43147e-05
1.65414e-05
9.11293e-05
1.8262e-05
9.84334e-05
2.01279e-05
0.000106326
2.21449e-05
0.000114897
2.43376e-05
0.00012404
2.67096e-05
0.000133993
2.928e-05
0.000144687
3.20662e-05
0.0001562
3.50801e-05
0.000168648
3.83475e-05
0.000181985
4.18791e-05
0.000196413
4.57038e-05
0.000211852
4.9836e-05
0.000228505
5.43033e-05
0.000246334
5.91281e-05
0.00026546
6.43324e-05
0.000285956
6.99496e-05
0.000307787
7.59984e-05
0.000331136
8.25095e-05
0.000355938
8.95131e-05
0.000382216
9.70326e-05
0.000410018
0.000105096
0.000439256
0.000113731
0.000469823
0.000122961
0.000501611
0.000132804
0.000534387
0.000143275
0.00056782
0.000154381
0.000601463
0.00016612
0.000634707
0.000178472
0.000666746
0.000191399
0.000696518
0.000204838
0.000722655
0.000218693
0.000743404
0.000232823
0.000756556
0.00024704
0.00075935
0.000261087
0.000748381
0.000274632
0.000719489
0.000287246
0.000667683
0.000298396
0.000586983
0.000307417
0.000470301
0.000313496
0.000308959
9.02225e-05
0.000315631
3.47304e-07
2.04173e-05
1.43015e-09
7.23425e-07
2.20751e-05
1.12991e-06
2.38672e-05
1.56933e-06
2.58046e-05
2.04431e-06
2.78991e-05
2.55786e-06
3.01632e-05
3.11308e-06
3.26105e-05
3.71352e-06
3.52556e-05
4.36356e-06
3.81075e-05
5.06711e-06
4.11923e-05
5.82787e-06
4.45328e-05
6.65051e-06
4.81434e-05
7.54011e-06
5.20458e-05
8.50409e-06
5.62435e-05
9.5493e-06
6.07732e-05
1.06794e-05
6.56949e-05
1.19016e-05
7.10129e-05
1.32285e-05
7.67052e-05
1.46666e-05
8.28767e-05
1.62214e-05
8.95745e-05
1.7909e-05
9.67461e-05
1.9739e-05
0.000104496
2.17173e-05
0.000112919
2.3868e-05
0.000121889
2.61947e-05
0.000131667
2.8716e-05
0.000142165
3.14491e-05
0.000153467
3.44058e-05
0.000165692
3.76113e-05
0.000178779
4.10762e-05
0.000192948
4.48289e-05
0.0002081
4.88837e-05
0.00022445
5.32677e-05
0.000241951
5.80029e-05
0.000260725
6.3111e-05
0.000280848
6.86251e-05
0.000302273
7.45635e-05
0.000325198
8.09564e-05
0.000349546
8.78338e-05
0.000375339
9.52185e-05
0.000402634
0.000103138
0.000431337
0.00011162
0.00046134
0.000120687
0.000492544
0.000130356
0.000524718
0.000140642
0.000557534
0.000151553
0.000590552
0.000163084
0.000623177
0.000175217
0.000654613
0.000187914
0.000683821
0.000201114
0.000709456
0.00021472
0.000729799
0.000228596
0.00074268
0.000242555
0.000745391
0.000256347
0.000734589
0.000269646
0.000706191
0.00028203
0.000655298
0.000292975
0.000576038
0.000301829
0.000461447
0.000307791
0.000302996
8.81331e-05
0.000309879
3.40297e-07
2.00766e-05
1.14723e-09
7.09015e-07
2.17067e-05
1.10759e-06
2.34689e-05
1.5385e-06
2.5374e-05
2.00432e-06
2.74335e-05
2.508e-06
2.96598e-05
3.05258e-06
3.20661e-05
3.64149e-06
3.46668e-05
4.27908e-06
3.747e-05
4.96907e-06
4.05024e-05
5.71524e-06
4.37867e-05
6.52202e-06
4.73366e-05
7.39456e-06
5.11733e-05
8.33996e-06
5.52981e-05
9.36514e-06
5.97481e-05
1.04736e-05
6.45865e-05
1.16723e-05
6.98143e-05
1.29738e-05
7.54037e-05
1.43843e-05
8.14663e-05
1.59094e-05
8.80495e-05
1.75646e-05
9.5091e-05
1.93596e-05
0.000102701
2.13002e-05
0.000110978
2.34099e-05
0.00011978
2.56922e-05
0.000129385
2.81656e-05
0.000139692
3.08469e-05
0.000150786
3.37476e-05
0.000162791
3.68926e-05
0.000175634
4.02922e-05
0.000189549
4.39745e-05
0.000204417
4.79535e-05
0.000220471
5.22558e-05
0.000237649
5.69032e-05
0.000256078
6.1917e-05
0.000275834
6.73298e-05
0.00029686
7.31597e-05
0.000319368
7.94366e-05
0.000343269
8.61897e-05
0.000368586
9.34417e-05
0.000395382
0.000101219
0.00042356
0.000109551
0.000453009
0.000118456
0.000483639
0.000127955
0.00051522
0.000138059
0.000547429
0.000148777
0.000579835
0.000160104
0.00061185
0.000172022
0.000642696
0.000184493
0.00067135
0.000197456
0.000696493
0.000210818
0.000716437
0.000224445
0.000729054
0.000238152
0.000731684
0.000251694
0.000721048
0.000264751
0.000693135
0.00027691
0.000643139
0.000287654
0.000565293
0.000296343
0.000452756
0.000302192
0.000297144
8.60861e-05
0.000304234
3.33873e-07
1.97425e-05
1.30759e-09
6.95555e-07
2.13455e-05
1.08647e-06
2.30784e-05
1.50908e-06
2.49518e-05
1.96593e-06
2.69769e-05
2.45986e-06
2.91661e-05
2.99394e-06
3.15322e-05
3.5715e-06
3.40895e-05
4.19682e-06
3.68449e-05
4.8736e-06
3.98258e-05
5.60545e-06
4.3055e-05
6.39682e-06
4.65454e-05
7.25264e-06
5.03177e-05
8.18001e-06
5.43708e-05
9.18555e-06
5.87427e-05
1.02728e-05
6.34993e-05
1.14486e-05
6.86386e-05
1.27253e-05
7.41272e-05
1.41089e-05
8.00828e-05
1.56048e-05
8.65536e-05
1.72285e-05
9.34675e-05
1.89894e-05
0.00010094
2.08931e-05
0.000109075
2.29626e-05
0.00011771
2.52017e-05
0.000127146
2.76283e-05
0.000137266
3.02589e-05
0.000148156
3.31048e-05
0.000159945
3.61906e-05
0.000172549
3.95264e-05
0.000186213
4.31398e-05
0.000200804
4.70445e-05
0.000216567
5.12667e-05
0.000233426
5.58281e-05
0.000251517
6.07494e-05
0.000270913
6.60627e-05
0.000291547
7.17861e-05
0.000313645
7.79488e-05
0.000337106
8.45797e-05
0.000361955
9.17012e-05
0.000388261
9.93396e-05
0.000415921
0.000107522
0.000444827
0.00011627
0.000474892
0.000125599
0.00050589
0.000135525
0.000537504
0.000146053
0.000569307
0.000157179
0.000600724
0.000168885
0.00063099
0.000181134
0.000659101
0.000193866
0.000683761
0.000206988
0.000703315
0.000220369
0.000715673
0.000233829
0.000718225
0.000247126
0.000707751
0.000259945
0.000680316
0.000271882
0.000631202
0.00028243
0.000554745
0.000290958
0.000444227
0.000296696
0.000291405
8.4088e-05
0.000298693
3.27119e-07
1.94146e-05
1.05061e-09
6.81733e-07
2.0991e-05
1.06513e-06
2.26951e-05
1.47963e-06
2.45374e-05
1.92778e-06
2.65289e-05
2.41233e-06
2.86817e-05
2.93631e-06
3.10084e-05
3.50289e-06
3.3523e-05
4.11637e-06
3.62315e-05
4.78024e-06
3.91619e-05
5.49821e-06
4.23372e-05
6.27445e-06
4.57691e-05
7.11404e-06
4.94782e-05
8.02369e-06
5.34611e-05
9.01015e-06
5.77564e-05
1.00767e-05
6.24328e-05
1.12302e-05
6.74853e-05
1.24825e-05
7.28748e-05
1.38399e-05
7.87256e-05
1.53074e-05
8.50861e-05
1.69003e-05
9.18747e-05
1.86278e-05
9.92127e-05
2.04954e-05
0.000107207
2.25259e-05
0.00011568
2.47226e-05
0.000124949
2.71034e-05
0.000134885
2.96844e-05
0.000145575
3.24768e-05
0.000157153
3.55047e-05
0.000169521
3.8778e-05
0.00018294
4.23238e-05
0.000197258
4.61558e-05
0.000212735
5.02997e-05
0.000229283
5.47765e-05
0.00024704
5.96071e-05
0.000266083
6.48229e-05
0.000286331
7.04416e-05
0.000308026
7.64922e-05
0.000331056
8.3003e-05
0.000355445
8.9996e-05
0.000381268
9.74973e-05
0.00040842
0.000105534
0.00043679
0.000114125
0.0004663
0.000123289
0.000496727
0.000133038
0.000527755
0.000143379
0.000558966
0.000154308
0.000589797
0.000165805
0.000619493
0.000177836
0.000647071
0.00019034
0.000671258
0.000203227
0.000690429
0.000216367
0.000702533
0.000229584
0.000705009
0.000242641
0.000694696
0.000255227
0.00066773
0.000266947
0.000619482
0.000277301
0.00054439
0.000285672
0.000435854
0.000291301
0.000285773
8.21294e-05
0.000293255
3.21191e-07
1.90932e-05
1.55227e-09
6.69257e-07
2.06436e-05
1.04543e-06
2.23194e-05
1.4521e-06
2.41312e-05
1.89169e-06
2.60897e-05
2.36699e-06
2.82067e-05
2.88087e-06
3.04947e-05
3.43663e-06
3.29674e-05
4.03832e-06
3.563e-05
4.68957e-06
3.85109e-05
5.39379e-06
4.16331e-05
6.15534e-06
4.50077e-05
6.97886e-06
4.86548e-05
7.87132e-06
5.25688e-05
8.83897e-06
5.67889e-05
9.88534e-06
6.13865e-05
1.10169e-05
6.63539e-05
1.22455e-05
7.16462e-05
1.35772e-05
7.73941e-05
1.5017e-05
8.36463e-05
1.65797e-05
9.03121e-05
1.82746e-05
9.75179e-05
2.01069e-05
0.000105375
2.20991e-05
0.000113688
2.42545e-05
0.000122794
2.65905e-05
0.000132549
2.91229e-05
0.000143043
3.1863e-05
0.000154413
3.48341e-05
0.00016655
3.80463e-05
0.000179728
4.1526e-05
0.000193779
4.52867e-05
0.000208974
4.93537e-05
0.000225216
5.37478e-05
0.000242646
5.84894e-05
0.000261342
6.36094e-05
0.000281212
6.91254e-05
0.00030251
7.50658e-05
0.000325116
8.14585e-05
0.000349052
8.83252e-05
0.000374401
9.56916e-05
0.000401054
0.000103584
0.000428898
0.000112022
0.000457863
0.000121022
0.000487726
0.000130598
0.000518178
0.000140756
0.000548809
0.00015149
0.000579062
0.000162783
0.0006082
0.000174599
0.000635255
0.000186879
0.000658978
0.000199535
0.000677774
0.000212439
0.000689629
0.000225417
0.000692031
0.000238237
0.000681876
0.000250596
0.000655372
0.000262102
0.000607976
0.000272267
0.000534225
0.000280483
0.000427638
0.000286006
0.000280251
8.02181e-05
0.000287917
3.14738e-07
1.87778e-05
1.21541e-09
6.56036e-07
2.03025e-05
1.02502e-06
2.19507e-05
1.42394e-06
2.37325e-05
1.85522e-06
2.56586e-05
2.32156e-06
2.77405e-05
2.82581e-06
2.99906e-05
3.3711e-06
3.24223e-05
3.9615e-06
3.50397e-05
4.60043e-06
3.7872e-05
5.2914e-06
4.09422e-05
6.0385e-06
4.42606e-05
6.84655e-06
4.78469e-05
7.72208e-06
5.16932e-05
8.67152e-06
5.58395e-05
9.69809e-06
6.03599e-05
1.08084e-05
6.52437e-05
1.20138e-05
7.04407e-05
1.33204e-05
7.60877e-05
1.4733e-05
8.22337e-05
1.62664e-05
8.87789e-05
1.79293e-05
9.5855e-05
1.97272e-05
0.000103577
2.16819e-05
0.000111733
2.37968e-05
0.000120679
2.6089e-05
0.000130257
2.8574e-05
0.000140558
3.12628e-05
0.000151724
3.41784e-05
0.000163634
3.73307e-05
0.000176575
4.07456e-05
0.000190364
4.44365e-05
0.000205283
4.84282e-05
0.000221224
5.27411e-05
0.000238334
5.73953e-05
0.000256688
6.24214e-05
0.000276186
6.78365e-05
0.000297095
7.36687e-05
0.000319283
7.99454e-05
0.000342775
8.6688e-05
0.000367659
9.39217e-05
0.00039382
0.000101672
0.000421148
0.000109959
0.000449576
0.000118799
0.000478887
0.000128204
0.000508773
0.000138181
0.000538833
0.000148724
0.00056852
0.000159815
0.000597109
0.00017142
0.000623651
0.000183481
0.000646918
0.00019591
0.000665346
0.000208581
0.000676957
0.000221326
0.000679287
0.000233914
0.000669289
0.000246048
0.000643239
0.000257345
0.000596679
0.000267325
0.000524245
0.000275389
0.000419572
0.000280808
0.00027483
7.83434e-05
0.000282677
3.0894e-07
1.84684e-05
1.41045e-09
6.43857e-07
1.9968e-05
1.00587e-06
2.1589e-05
1.39723e-06
2.33414e-05
1.82033e-06
2.52357e-05
2.27778e-06
2.72832e-05
2.77244e-06
2.94962e-05
3.30738e-06
3.18875e-05
3.88659e-06
3.44607e-05
4.51348e-06
3.72452e-05
5.1914e-06
4.02644e-05
5.92449e-06
4.35276e-05
6.71727e-06
4.70542e-05
7.57639e-06
5.08342e-05
8.50792e-06
5.49081e-05
9.51522e-06
5.93527e-05
1.06046e-05
6.41545e-05
1.17874e-05
6.9258e-05
1.30693e-05
7.48058e-05
1.44555e-05
8.08476e-05
1.596e-05
8.72745e-05
1.75917e-05
9.42233e-05
1.93559e-05
0.000101813
2.12739e-05
0.000109815
2.33492e-05
0.000118604
2.55985e-05
0.000128008
2.80371e-05
0.000138119
3.06757e-05
0.000149086
3.3537e-05
0.000160773
3.66306e-05
0.000173482
3.99821e-05
0.000187013
4.36045e-05
0.000201661
4.75223e-05
0.000217307
5.17557e-05
0.0002341
5.63243e-05
0.000252119
6.12581e-05
0.000271252
6.65742e-05
0.000291779
7.23001e-05
0.000313558
7.84629e-05
0.000336613
8.50834e-05
0.000361038
9.21867e-05
0.000386717
9.9798e-05
0.000413536
0.000107936
0.000441437
0.000116618
0.000470205
0.000125856
0.000499536
0.000135654
0.000529034
0.000146009
0.000558165
0.000156903
0.000586215
0.0001683
0.000612253
0.000180145
0.000635073
0.000192351
0.00065314
0.000204795
0.000664514
0.000217309
0.000666773
0.00022967
0.000656928
0.000241584
0.000631325
0.000252676
0.000585587
0.000262473
0.000514448
0.000270389
0.000411655
0.000275705
0.000269514
7.65144e-05
0.000277535
3.02698e-07
1.81647e-05
1.10009e-09
6.31129e-07
1.96396e-05
9.86273e-07
2.12339e-05
1.37023e-06
2.29575e-05
1.78541e-06
2.48206e-05
2.23431e-06
2.68344e-05
2.71978e-06
2.90108e-05
3.24472e-06
3.13626e-05
3.81315e-06
3.38923e-05
4.42826e-06
3.66301e-05
5.09353e-06
3.95993e-05
5.81279e-06
4.28083e-05
6.59079e-06
4.62764e-05
7.43371e-06
4.99912e-05
8.34784e-06
5.39941e-05
9.33619e-06
5.83643e-05
1.04052e-05
6.30857e-05
1.15658e-05
6.80974e-05
1.28238e-05
7.3548e-05
1.41839e-05
7.94874e-05
1.56603e-05
8.57982e-05
1.72615e-05
9.26222e-05
1.89927e-05
0.000100082
2.08749e-05
0.000107933
2.29114e-05
0.000116567
2.51187e-05
0.0001258
2.75118e-05
0.000135726
3.01012e-05
0.000146497
3.29093e-05
0.000157965
3.59454e-05
0.000170446
3.92348e-05
0.000183723
4.27901e-05
0.000198106
4.66356e-05
0.000213461
5.07909e-05
0.000229945
5.52755e-05
0.000247635
6.01189e-05
0.000266408
6.53378e-05
0.000286561
7.09593e-05
0.000307936
7.70101e-05
0.000330562
8.35107e-05
0.000354537
9.04858e-05
0.000379742
9.79601e-05
0.000406062
0.000105952
0.000433445
0.000114479
0.000461679
0.000123551
0.000490464
0.000133174
0.000519411
0.000143344
0.000547996
0.000154044
0.000575517
0.000165238
0.000601059
0.00017687
0.000623441
0.000188857
0.000641154
0.000201077
0.000652294
0.000213366
0.000654484
0.000225504
0.000644792
0.000237202
0.000619627
0.000248092
0.000574697
0.00025771
0.000504829
0.000265481
0.000403883
0.000270697
0.000264294
7.47194e-05
0.000272488
2.97369e-07
1.78669e-05
1.66197e-09
6.1987e-07
1.93177e-05
9.68424e-07
2.08858e-05
1.34525e-06
2.25811e-05
1.75258e-06
2.44136e-05
2.19303e-06
2.63942e-05
2.66924e-06
2.85348e-05
3.18429e-06
3.08477e-05
3.7419e-06
3.33348e-05
4.34548e-06
3.60267e-05
4.99814e-06
3.89467e-05
5.70399e-06
4.21026e-05
6.46727e-06
4.55132e-05
7.29448e-06
4.91641e-05
8.19139e-06
5.30973e-05
9.16131e-06
5.73944e-05
1.02102e-05
6.20368e-05
1.13491e-05
6.69585e-05
1.25836e-05
7.23137e-05
1.39183e-05
7.81527e-05
1.53671e-05
8.43496e-05
1.69384e-05
9.10509e-05
1.86373e-05
9.8383e-05
2.04844e-05
0.000106086
2.24829e-05
0.000114569
2.46491e-05
0.000123634
2.69977e-05
0.000133378
2.9539e-05
0.000143955
3.22949e-05
0.000155209
3.52748e-05
0.000167466
3.85032e-05
0.000180495
4.19928e-05
0.000194616
4.57673e-05
0.000209687
4.98461e-05
0.000225867
5.42483e-05
0.000243233
5.90029e-05
0.000261654
6.41264e-05
0.000281437
6.96455e-05
0.000302417
7.55863e-05
0.000324621
8.19692e-05
0.000348154
8.88182e-05
0.000372893
9.61579e-05
0.000398722
0.000104007
0.000425597
0.00011238
0.000453305
0.00012129
0.000481554
0.000130741
0.00050996
0.000140729
0.000538007
0.000151237
0.000565009
0.000162231
0.000590066
0.000173655
0.000612017
0.000185427
0.000629383
0.000197427
0.000640293
0.000209495
0.000642417
0.000221413
0.000632874
0.0002329
0.00060814
0.000243592
0.000564004
0.000253035
0.000495386
0.000260663
0.000396255
0.000265782
0.000259176
7.29687e-05
0.000267534
2.91399e-07
1.75745e-05
1.28444e-09
6.07675e-07
1.90015e-05
9.49639e-07
2.0544e-05
1.31937e-06
2.22115e-05
1.71912e-06
2.40139e-05
2.15138e-06
2.59621e-05
2.61879e-06
2.80675e-05
3.12426e-06
3.03423e-05
3.67157e-06
3.27876e-05
4.26386e-06
3.54344e-05
4.90443e-06
3.83062e-05
5.59704e-06
4.14099e-05
6.34617e-06
4.47641e-05
7.15788e-06
4.83524e-05
8.03813e-06
5.22171e-05
8.9899e-06
5.64426e-05
1.00193e-05
6.10075e-05
1.1137e-05
6.58408e-05
1.23484e-05
7.11023e-05
1.36583e-05
7.68429e-05
1.50801e-05
8.29279e-05
1.66222e-05
8.95089e-05
1.82894e-05
9.67159e-05
2.01022e-05
0.000104273
2.20636e-05
0.000112608
2.41895e-05
0.000121508
2.64945e-05
0.000131073
2.89886e-05
0.000141461
3.16935e-05
0.000152504
3.46182e-05
0.000164541
3.77869e-05
0.000177326
4.12121e-05
0.000191191
4.4917e-05
0.000205982
4.89207e-05
0.000221863
5.32421e-05
0.000238911
5.79096e-05
0.000256986
6.29395e-05
0.000276407
6.83579e-05
0.000296999
7.41907e-05
0.000318788
8.04579e-05
0.000341887
8.71831e-05
0.000366168
9.43905e-05
0.000391515
0.000102098
0.000417889
0.000110321
0.000445082
0.000119071
0.000472804
0.000128354
0.000500678
0.000138163
0.000528198
0.000148483
0.000554689
0.00015928
0.000579269
0.000170499
0.000600798
0.000182059
0.000617823
0.000193844
0.000628509
0.000205695
0.000630567
0.000217398
0.000621172
0.000228676
0.000596862
0.000239175
0.000553506
0.000248446
0.000486115
0.000255934
0.000388766
0.000260956
0.000254151
7.12493e-05
0.000262671
2.86122e-07
1.72877e-05
1.50862e-09
5.9657e-07
1.86914e-05
9.32151e-07
2.02087e-05
1.29495e-06
2.18489e-05
1.6872e-06
2.36219e-05
2.1113e-06
2.55382e-05
2.56992e-06
2.7609e-05
3.0659e-06
2.98465e-05
3.60294e-06
3.22507e-05
4.18421e-06
3.48533e-05
4.81281e-06
3.76777e-05
5.49259e-06
4.07303e-05
6.22772e-06
4.40291e-05
7.0244e-06
4.75558e-05
7.88822e-06
5.13534e-05
8.82234e-06
5.55086e-05
9.83255e-06
5.99974e-05
1.09295e-05
6.47439e-05
1.21183e-05
6.99135e-05
1.34039e-05
7.55574e-05
1.47992e-05
8.15326e-05
1.63126e-05
8.79955e-05
1.79489e-05
9.50797e-05
1.9728e-05
0.000102494
2.1653e-05
0.000110683
2.37395e-05
0.000119422
2.60018e-05
0.000128811
2.84497e-05
0.000139013
3.11045e-05
0.000149849
3.39751e-05
0.000161671
3.70854e-05
0.000174216
4.04474e-05
0.000187829
4.40841e-05
0.000202346
4.80142e-05
0.000217933
5.22563e-05
0.000234669
5.68384e-05
0.000252404
6.17763e-05
0.000271469
6.7096e-05
0.000291679
7.28228e-05
0.000313061
7.89763e-05
0.000335734
8.55798e-05
0.000359564
9.26571e-05
0.000384438
0.000100226
0.00041032
0.000108301
0.000437007
0.000116895
0.00046421
0.00012601
0.000491562
0.000135644
0.000518564
0.000145779
0.000544554
0.000156383
0.000568665
0.000167401
0.00058978
0.000178754
0.00060647
0.000190327
0.000616936
0.000201964
0.000618931
0.000213456
0.00060968
0.00022453
0.000585787
0.000234838
0.000543198
0.00024394
0.000477012
0.000251291
0.000381416
0.00025622
0.000249222
6.95726e-05
0.000257899
2.8033e-07
1.70061e-05
1.1823e-09
5.84801e-07
1.83869e-05
9.14085e-07
1.98794e-05
1.27009e-06
2.14929e-05
1.65509e-06
2.3237e-05
2.07136e-06
2.51219e-05
2.52158e-06
2.71589e-05
3.00839e-06
2.93597e-05
3.53558e-06
3.17236e-05
4.10603e-06
3.42828e-05
4.72305e-06
3.70608e-05
5.39013e-06
4.00631e-05
6.11172e-06
4.33076e-05
6.89352e-06
4.67739e-05
7.74139e-06
5.05057e-05
8.6581e-06
5.45918e-05
9.64964e-06
5.9006e-05
1.07262e-05
6.36674e-05
1.1893e-05
6.87468e-05
1.31547e-05
7.42957e-05
1.45242e-05
8.01632e-05
1.60095e-05
8.65102e-05
1.76155e-05
9.34738e-05
1.93616e-05
0.000100748
2.1251e-05
0.000108793
2.32988e-05
0.000117374
2.55192e-05
0.00012659
2.79219e-05
0.000136611
3.05277e-05
0.000147244
3.33453e-05
0.000158853
3.63982e-05
0.000171163
3.96983e-05
0.000184529
4.32681e-05
0.000198776
4.71261e-05
0.000214075
5.12904e-05
0.000230505
5.57886e-05
0.000247906
6.06363e-05
0.000266621
6.58591e-05
0.000286456
7.14817e-05
0.000307439
7.75236e-05
0.000329692
8.40077e-05
0.00035308
9.09572e-05
0.000377488
9.83895e-05
0.000402888
0.00010632
0.000429077
0.000114759
0.000455771
0.000123711
0.00048261
0.000133172
0.000509103
0.000143126
0.000534601
0.000153539
0.000558252
0.00016436
0.00057896
0.000175509
0.000595322
0.000186874
0.000605572
0.000198301
0.000607504
0.000209586
0.000598397
0.00022046
0.000574914
0.000230582
0.000533077
0.000239518
0.000468076
0.000246734
0.000374198
0.000251571
0.000244382
6.79247e-05
0.000253215
2.75504e-07
1.67299e-05
1.80272e-09
5.74579e-07
1.80883e-05
8.9783e-07
1.95566e-05
1.2473e-06
2.11438e-05
1.62509e-06
2.28594e-05
2.0336e-06
2.47137e-05
2.47529e-06
2.67173e-05
2.95303e-06
2.88821e-05
3.47024e-06
3.12065e-05
4.03012e-06
3.37231e-05
4.63554e-06
3.64555e-05
5.29031e-06
3.94085e-05
5.99835e-06
4.25996e-05
6.76574e-06
4.60067e-05
7.59776e-06
4.96737e-05
8.49755e-06
5.36921e-05
9.47061e-06
5.8033e-05
1.05272e-05
6.26108e-05
1.16724e-05
6.76016e-05
1.29107e-05
7.30574e-05
1.42549e-05
7.88192e-05
1.57127e-05