/*--------------------------------*- C++ -*----------------------------------*\
  =========                 |
  \\      /  F ield         | OpenFOAM: The Open Source CFD Toolbox
   \\    /   O peration     | Website:  https://openfoam.org
    \\  /    A nd           | Version:  6.0
     \\/     M anipulation  |
\*---------------------------------------------------------------------------*/
FoamFile
{
    version     2.0;
    format      ascii;
    class       surfaceScalarField;
    location    "1.94";
    object      phi;
}
// * * * * * * * * * * * * * * * * * * * * * * * * * * * * * * * * * * * * * //

dimensions      [0 3 -1 0 0 0 0];

internalField   nonuniform List<scalar> 
26699
(
2.0051e-05
0.005201
4.0576e-10
4.0126e-05
0.0051116
5.9639e-05
0.0049351
7.8186e-05
0.0046741
9.5416e-05
0.0043332
0.00011102
0.0039182
0.00012472
0.0034362
0.00013626
0.0028953
0.00014546
0.002305
0.00015182
0.0016755
0.00015718
0.0010154
0.00046489
3.449e-05
2.0051e-05
0.0051809
1.3087e-09
4.0127e-05
0.0050916
5.9641e-05
0.0049155
7.8189e-05
0.0046556
9.5419e-05
0.004316
0.00011102
0.0039026
0.00012471
0.0034225
0.00013624
0.0028838
0.00014545
0.0022958
0.00015107
0.0016699
0.00015893
0.0010075
0.0005586
6.5219e-05
2.0052e-05
0.0051609
2.2954e-09
4.0128e-05
0.0050715
5.9644e-05
0.004896
7.8192e-05
0.004637
9.5422e-05
0.0042988
0.00011102
0.003887
0.00012471
0.0034088
0.00013622
0.0028723
0.00014546
0.0022865
0.00015031
0.001665
0.00016021
0.00099763
0.00062834
9.0476e-05
2.0052e-05
0.0051408
3.2883e-09
4.013e-05
0.0050514
5.9646e-05
0.0048765
7.8195e-05
0.0046185
9.5425e-05
0.0042815
0.00011102
0.0038714
0.0001247
0.0033951
0.00013619
0.0028608
0.0001455
0.0022772
0.00014957
0.001661
0.00016096
0.00098623
0.00067854
0.00011076
2.0052e-05
0.0051208
4.2824e-09
4.0131e-05
0.0050313
5.9648e-05
0.004857
7.8198e-05
0.0045999
9.5428e-05
0.0042643
0.00011102
0.0038558
0.0001247
0.0033814
0.00013616
0.0028494
0.00014556
0.0022678
0.00014888
0.0016576
0.00016119
0.00097392
0.00071286
0.00012687
2.0052e-05
0.0051007
5.2776e-09
4.0133e-05
0.0050112
5.9651e-05
0.0048375
7.8201e-05
0.0045814
9.5431e-05
0.0042471
0.00011103
0.0038402
0.0001247
0.0033678
0.00013613
0.0028379
0.00014565
0.0022583
0.00014825
0.001655
0.00016097
0.0009612
0.00073435
0.00013948
2.0052e-05
0.0050807
6.2738e-09
4.0134e-05
0.0049912
5.9653e-05
0.004818
7.8204e-05
0.0045628
9.5434e-05
0.0042298
0.00011103
0.0038246
0.0001247
0.0033541
0.0001361
0.0028265
0.00014575
0.0022487
0.00014772
0.0016531
0.00016039
0.00094853
0.0007456
0.00014915
2.0053e-05
0.0050606
7.2712e-09
4.0135e-05
0.0049711
5.9655e-05
0.0047984
7.8207e-05
0.0045443
9.5437e-05
0.0042126
0.00011103
0.003809
0.0001247
0.0033404
0.00013606
0.0028152
0.00014586
0.0022389
0.00014729
0.0016516
0.00015955
0.00093626
0.00074876
0.00015639
2.0053e-05
0.0050405
8.2697e-09
4.0137e-05
0.004951
5.9658e-05
0.0047789
7.821e-05
0.0045257
9.544e-05
0.0041954
0.00011103
0.0037934
0.0001247
0.0033267
0.00013602
0.0028038
0.00014598
0.0022289
0.00014696
0.0016507
0.00015854
0.00092469
0.00074566
0.00016163
2.0053e-05
0.0050205
9.2695e-09
4.0138e-05
0.0049309
5.966e-05
0.0047594
7.8213e-05
0.0045072
9.5443e-05
0.0041782
0.00011103
0.0037778
0.0001247
0.0033131
0.00013598
0.0027926
0.00014611
0.0022188
0.00014674
0.00165
0.00015742
0.00091401
0.00073782
0.00016526
2.0053e-05
0.0050004
1.027e-08
4.0139e-05
0.0049108
5.9662e-05
0.0047399
7.8216e-05
0.0044886
9.5446e-05
0.0041609
0.00011104
0.0037623
0.00012471
0.0032994
0.00013593
0.0027813
0.00014623
0.0022085
0.00014663
0.0016496
0.00015626
0.00090438
0.00072649
0.0001676
2.0053e-05
0.0049804
1.1273e-08
4.0141e-05
0.0048907
5.9665e-05
0.0047204
7.822e-05
0.0044701
9.5449e-05
0.0041437
0.00011104
0.0037467
0.00012471
0.0032857
0.00013589
0.0027702
0.00014635
0.002198
0.00014662
0.0016494
0.00015513
0.00089586
0.00071269
0.00016893
2.0053e-05
0.0049603
1.2277e-08
4.0142e-05
0.0048707
5.9667e-05
0.0047008
7.8223e-05
0.0044515
9.5453e-05
0.0041265
0.00011104
0.0037311
0.00012472
0.0032721
0.00013583
0.002759
0.00014646
0.0021874
0.0001467
0.0016491
0.00015405
0.00088851
0.00069726
0.00016949
2.0054e-05
0.0049402
1.3282e-08
4.0143e-05
0.0048506
5.9669e-05
0.0046813
7.8226e-05
0.0044329
9.5456e-05
0.0041092
0.00011104
0.0037155
0.00012472
0.0032584
0.00013578
0.002748
0.00014655
0.0021766
0.00014686
0.0016488
0.00015307
0.0008823
0.00068086
0.00016947
2.0054e-05
0.0049202
1.4288e-08
4.0145e-05
0.0048305
5.9672e-05
0.0046618
7.8229e-05
0.0044144
9.5459e-05
0.004092
0.00011104
0.0036999
0.00012473
0.0032447
0.00013573
0.002737
0.00014664
0.0021657
0.00014709
0.0016484
0.0001522
0.0008772
0.00066403
0.00016903
2.0054e-05
0.0049001
1.5296e-08
4.0146e-05
0.0048104
5.9674e-05
0.0046422
7.8232e-05
0.0043958
9.5463e-05
0.0040748
0.00011104
0.0036843
0.00012474
0.003231
0.00013568
0.002726
0.0001467
0.0021547
0.00014739
0.0016477
0.00015145
0.00087314
0.00064718
0.0001683
2.0054e-05
0.00488
1.6305e-08
4.0148e-05
0.0047903
5.9676e-05
0.0046227
7.8235e-05
0.0043773
9.5466e-05
0.0040575
0.00011105
0.0036688
0.00012475
0.0032173
0.00013563
0.0027152
0.00014675
0.0021436
0.00014773
0.0016467
0.00015083
0.00087003
0.00063062
0.0001674
2.0054e-05
0.0048599
1.7316e-08
4.0149e-05
0.0047702
5.9679e-05
0.0046032
7.8239e-05
0.0043587
9.547e-05
0.0040403
0.00011105
0.0036532
0.00012476
0.0032036
0.00013557
0.0027044
0.00014679
0.0021323
0.00014811
0.0016454
0.00015035
0.00086779
0.00061458
0.00016639
2.0055e-05
0.0048399
1.8329e-08
4.015e-05
0.0047501
5.9681e-05
0.0045837
7.8242e-05
0.0043401
9.5473e-05
0.0040231
0.00011105
0.0036376
0.00012478
0.0031898
0.00013553
0.0026936
0.0001468
0.0021211
0.00014851
0.0016437
0.00015
0.0008663
0.00059924
0.00016535
2.0055e-05
0.0048198
1.9343e-08
4.0152e-05
0.00473
5.9683e-05
0.0045641
7.8245e-05
0.0043216
9.5477e-05
0.0040059
0.00011105
0.003622
0.00012479
0.0031761
0.00013548
0.0026829
0.0001468
0.0021098
0.00014893
0.0016415
0.00014977
0.00086545
0.00058469
0.00016432
2.0055e-05
0.0047997
2.0359e-08
4.0153e-05
0.0047099
5.9686e-05
0.0045446
7.8248e-05
0.004303
9.5481e-05
0.0039886
0.00011105
0.0036065
0.0001248
0.0031624
0.00013544
0.0026723
0.00014677
0.0020984
0.00014935
0.001639
0.00014965
0.00086514
0.00057101
0.00016333
2.0055e-05
0.0047796
2.1376e-08
4.0154e-05
0.0046898
5.9688e-05
0.0045251
7.8252e-05
0.0042845
9.5484e-05
0.0039714
0.00011105
0.0035909
0.00012482
0.0031486
0.0001354
0.0026617
0.00014674
0.0020871
0.00014976
0.0016359
0.00014964
0.00086527
0.00055823
0.00016242
2.0055e-05
0.0047596
2.2395e-08
4.0156e-05
0.0046697
5.9691e-05
0.0045055
7.8255e-05
0.0042659
9.5488e-05
0.0039542
0.00011106
0.0035753
0.00012484
0.0031348
0.00013536
0.0026512
0.00014668
0.0020758
0.00015017
0.0016324
0.00014971
0.00086573
0.00054633
0.0001616
2.0055e-05
0.0047395
2.3416e-08
4.0157e-05
0.0046496
5.9693e-05
0.004486
7.8258e-05
0.0042473
9.5492e-05
0.0039369
0.00011106
0.0035598
0.00012485
0.003121
0.00013533
0.0026407
0.00014661
0.0020645
0.00015055
0.0016285
0.00014985
0.00086643
0.00053531
0.00016087
2.0056e-05
0.0047194
2.4439e-08
4.0158e-05
0.0046295
5.9695e-05
0.0044665
7.8261e-05
0.0042288
9.5496e-05
0.0039197
0.00011106
0.0035442
0.00012487
0.0031072
0.00013531
0.0026303
0.00014653
0.0020533
0.00015092
0.0016241
0.00015006
0.00086729
0.00052512
0.00016025
2.0056e-05
0.0046993
2.5464e-08
4.016e-05
0.0046094
5.9698e-05
0.0044469
7.8265e-05
0.0042102
9.55e-05
0.0039024
0.00011106
0.0035286
0.00012489
0.0030934
0.00013529
0.0026198
0.00014644
0.0020421
0.00015125
0.0016193
0.00015032
0.00086823
0.00051572
0.00015972
2.0056e-05
0.0046792
2.649e-08
4.0161e-05
0.0045893
5.97e-05
0.0044274
7.8268e-05
0.0041916
9.5504e-05
0.0038852
0.00011106
0.0035131
0.0001249
0.0030795
0.00013528
0.0026095
0.00014634
0.0020311
0.00015156
0.0016141
0.00015061
0.00086918
0.00050705
0.00015928
2.0056e-05
0.0046592
2.7519e-08
4.0163e-05
0.0045692
5.9703e-05
0.0044078
7.8272e-05
0.0041731
9.5508e-05
0.003868
0.00011106
0.0034975
0.00012492
0.0030657
0.00013527
0.0025991
0.00014623
0.0020201
0.00015184
0.0016085
0.00015094
0.00087008
0.00049905
0.00015893
2.0056e-05
0.0046391
2.855e-08
4.0164e-05
0.0045491
5.9705e-05
0.0043883
7.8275e-05
0.0041545
9.5513e-05
0.0038507
0.00011106
0.003482
0.00012494
0.0030518
0.00013527
0.0025888
0.00014611
0.0020093
0.00015209
0.0016025
0.00015128
0.00087089
0.00049167
0.00015866
2.0057e-05
0.004619
2.9582e-08
4.0165e-05
0.004529
5.9708e-05
0.0043688
7.8278e-05
0.0041359
9.5517e-05
0.0038335
0.00011106
0.0034664
0.00012496
0.0030379
0.00013528
0.0025785
0.000146
0.0019986
0.0001523
0.0015962
0.00015163
0.00087156
0.00048483
0.00015846
2.0057e-05
0.0045989
3.0617e-08
4.0167e-05
0.0045089
5.971e-05
0.0043492
7.8282e-05
0.0041173
9.5522e-05
0.0038163
0.00011106
0.0034509
0.00012497
0.003024
0.00013529
0.0025681
0.00014588
0.001988
0.00015248
0.0015896
0.00015198
0.00087207
0.00047848
0.00015833
2.0057e-05
0.0045788
3.1655e-08
4.0168e-05
0.0044887
5.9713e-05
0.0043297
7.8285e-05
0.0040988
9.5526e-05
0.003799
0.00011107
0.0034353
0.00012499
0.0030101
0.00013531
0.0025578
0.00014576
0.0019775
0.00015264
0.0015827
0.00015233
0.00087238
0.00047257
0.00015824
2.0057e-05
0.0045587
3.2694e-08
4.017e-05
0.0044686
5.9715e-05
0.0043101
7.8289e-05
0.0040802
9.5531e-05
0.0037818
0.00011107
0.0034198
0.000125
0.0029961
0.00013533
0.0025475
0.00014564
0.0019672
0.00015276
0.0015756
0.00015266
0.00087248
0.00046703
0.0001582
2.0057e-05
0.0045386
3.3736e-08
4.0171e-05
0.0044485
5.9718e-05
0.0042906
7.8292e-05
0.0040616
9.5536e-05
0.0037645
0.00011107
0.0034043
0.00012502
0.0029822
0.00013536
0.0025371
0.00014553
0.001957
0.00015286
0.0015683
0.00015299
0.00087235
0.00046183
0.00015819
2.0057e-05
0.0045185
3.4781e-08
4.0172e-05
0.0044284
5.972e-05
0.004271
7.8296e-05
0.004043
9.5541e-05
0.0037473
0.00011107
0.0033887
0.00012503
0.0029682
0.00013539
0.0025268
0.00014542
0.001947
0.00015294
0.0015607
0.0001533
0.00087199
0.00045691
0.00015822
2.0058e-05
0.0044984
3.5828e-08
4.0174e-05
0.0044083
5.9723e-05
0.0042515
7.8299e-05
0.0040245
9.5546e-05
0.00373
0.00011107
0.0033732
0.00012505
0.0029543
0.00013543
0.0025164
0.00014532
0.0019371
0.00015299
0.0015531
0.00015359
0.0008714
0.00045223
0.00015826
2.0058e-05
0.0044783
3.6878e-08
4.0175e-05
0.0043882
5.9725e-05
0.0042319
7.8303e-05
0.0040059
9.5551e-05
0.0037128
0.00011107
0.0033577
0.00012506
0.0029403
0.00013547
0.002506
0.00014522
0.0019273
0.00015303
0.0015453
0.00015386
0.00087057
0.00044777
0.00015833
2.0058e-05
0.0044583
3.793e-08
4.0177e-05
0.0043681
5.9728e-05
0.0042124
7.8307e-05
0.0039873
9.5556e-05
0.0036955
0.00011107
0.0033422
0.00012507
0.0029263
0.00013551
0.0024956
0.00014514
0.0019177
0.00015305
0.0015373
0.00015412
0.0008695
0.00044348
0.00015841
2.0058e-05
0.0044382
3.8986e-08
4.0178e-05
0.0043479
5.973e-05
0.0041928
7.831e-05
0.0039687
9.5562e-05
0.0036783
0.00011107
0.0033267
0.00012508
0.0029123
0.00013555
0.0024851
0.00014506
0.0019082
0.00015306
0.0015293
0.00015435
0.00086821
0.00043935
0.00015849
2.0058e-05
0.0044181
4.0044e-08
4.0179e-05
0.0043278
5.9733e-05
0.0041733
7.8314e-05
0.0039502
9.5567e-05
0.003661
0.00011108
0.0033112
0.00012509
0.0028982
0.0001356
0.0024746
0.00014498
0.0018988
0.00015306
0.0015213
0.00015457
0.00086671
0.00043533
0.00015858
2.0059e-05
0.004398
4.1105e-08
4.0181e-05
0.0043077
5.9736e-05
0.0041537
7.8318e-05
0.0039316
9.5573e-05
0.0036438
0.00011108
0.0032957
0.0001251
0.0028842
0.00013565
0.002464
0.00014492
0.0018896
0.00015305
0.0015131
0.00015477
0.00086499
0.00043142
0.00015868
2.0059e-05
0.0043779
4.217e-08
4.0182e-05
0.0042876
5.9738e-05
0.0041342
7.8321e-05
0.003913
9.5579e-05
0.0036265
0.00011108
0.0032802
0.00012511
0.0028702
0.0001357
0.0024534
0.00014486
0.0018804
0.00015304
0.0015049
0.00015495
0.00086308
0.0004276
0.00015877
2.0059e-05
0.0043578
4.3237e-08
4.0184e-05
0.0042674
5.9741e-05
0.0041146
7.8325e-05
0.0038944
9.5585e-05
0.0036093
0.00011108
0.0032647
0.00012511
0.0028562
0.00013575
0.0024428
0.00014482
0.0018713
0.00015302
0.0014967
0.00015512
0.00086098
0.00042386
0.00015887
2.0059e-05
0.0043377
4.4308e-08
4.0185e-05
0.0042473
5.9744e-05
0.004095
7.8329e-05
0.0038758
9.5591e-05
0.003592
0.00011108
0.0032492
0.00012512
0.0028421
0.00013581
0.0024321
0.00014478
0.0018624
0.000153
0.0014885
0.00015527
0.00085871
0.00042017
0.00015896
2.0059e-05
0.0043175
4.5382e-08
4.0187e-05
0.0042272
5.9746e-05
0.0040755
7.8332e-05
0.0038572
9.5597e-05
0.0035747
0.00011109
0.0032337
0.00012513
0.0028281
0.00013586
0.0024214
0.00014475
0.0018535
0.00015298
0.0014803
0.00015541
0.00085628
0.00041653
0.00015905
2.0059e-05
0.0042974
4.646e-08
4.0188e-05
0.0042071
5.9749e-05
0.0040559
7.8336e-05
0.0038386
9.5603e-05
0.0035575
0.00011109
0.0032182
0.00012513
0.002814
0.00013591
0.0024106
0.00014473
0.0018447
0.00015296
0.0014721
0.00015554
0.00085369
0.00041294
0.00015914
2.006e-05
0.0042773
4.7541e-08
4.019e-05
0.0041869
5.9752e-05
0.0040364
7.834e-05
0.0038201
9.561e-05
0.0035402
0.00011109
0.0032027
0.00012514
0.0028
0.00013596
0.0023998
0.00014471
0.0018359
0.00015294
0.0014638
0.00015566
0.00085097
0.00040938
0.00015922
2.006e-05
0.0042572
4.8626e-08
4.0191e-05
0.0041668
5.9755e-05
0.0040168
7.8344e-05
0.0038015
9.5616e-05
0.0035229
0.0001111
0.0031872
0.00012514
0.002786
0.00013601
0.0023889
0.0001447
0.0018272
0.00015292
0.0014556
0.00015577
0.00084811
0.00040585
0.0001593
2.006e-05
0.0042371
4.9715e-08
4.0193e-05
0.0041467
5.9757e-05
0.0039972
7.8347e-05
0.0037829
9.5623e-05
0.0035057
0.0001111
0.0031717
0.00012515
0.0027719
0.00013606
0.002378
0.0001447
0.0018186
0.0001529
0.0014474
0.00015588
0.00084514
0.00040235
0.00015938
2.006e-05
0.004217
5.0807e-08
4.0194e-05
0.0041265
5.976e-05
0.0039777
7.8351e-05
0.0037643
9.563e-05
0.0034884
0.0001111
0.0031563
0.00012515
0.0027579
0.00013611
0.002367
0.00014471
0.00181
0.00015289
0.0014392
0.00015597
0.00084206
0.00039888
0.00015945
2.006e-05
0.0041969
5.1903e-08
4.0196e-05
0.0041064
5.9763e-05
0.0039581
7.8355e-05
0.0037457
9.5637e-05
0.0034711
0.00011111
0.0031408
0.00012515
0.0027438
0.00013616
0.002356
0.00014471
0.0018014
0.00015288
0.0014311
0.00015607
0.00083888
0.00039543
0.00015952
2.0061e-05
0.0041768
5.3004e-08
4.0197e-05
0.0040863
5.9766e-05
0.0039385
7.8359e-05
0.0037271
9.5644e-05
0.0034538
0.00011111
0.0031253
0.00012516
0.0027298
0.00013621
0.002345
0.00014473
0.0017929
0.00015288
0.0014229
0.00015615
0.0008356
0.000392
0.00015958
2.0061e-05
0.0041567
5.4108e-08
4.0199e-05
0.0040661
5.9769e-05
0.003919
7.8363e-05
0.0037085
9.5652e-05
0.0034365
0.00011112
0.0031099
0.00012516
0.0027157
0.00013625
0.0023339
0.00014475
0.0017844
0.00015288
0.0014148
0.00015624
0.00083224
0.00038859
0.00015965
2.0061e-05
0.0041365
5.5217e-08
4.02e-05
0.004046
5.9772e-05
0.0038994
7.8367e-05
0.0036899
9.5659e-05
0.0034192
0.00011112
0.0030944
0.00012516
0.0027017
0.0001363
0.0023227
0.00014477
0.0017759
0.00015288
0.0014067
0.00015632
0.00082881
0.0003852
0.00015971
2.0061e-05
0.0041164
5.633e-08
4.0202e-05
0.0040258
5.9775e-05
0.0038798
7.837e-05
0.0036713
9.5667e-05
0.0034019
0.00011112
0.003079
0.00012516
0.0026876
0.00013634
0.0023116
0.00014479
0.0017675
0.00015289
0.0013986
0.0001564
0.0008253
0.00038184
0.00015976
2.0062e-05
0.0040963
5.7447e-08
4.0203e-05
0.0040057
5.9778e-05
0.0038602
7.8374e-05
0.0036527
9.5675e-05
0.0033846
0.00011113
0.0030635
0.00012517
0.0026736
0.00013639
0.0023003
0.00014482
0.0017591
0.0001529
0.0013905
0.00015647
0.00082173
0.00037849
0.00015982
2.0062e-05
0.0040762
5.8569e-08
4.0205e-05
0.0039856
5.9781e-05
0.0038407
7.8378e-05
0.0036341
9.5683e-05
0.0033673
0.00011114
0.003048
0.00012517
0.0026596
0.00013643
0.0022891
0.00014485
0.0017506
0.00015291
0.0013824
0.00015654
0.0008181
0.00037516
0.00015987
2.0062e-05
0.0040561
5.9696e-08
4.0206e-05
0.0039654
5.9784e-05
0.0038211
7.8382e-05
0.0036155
9.5691e-05
0.00335
0.00011114
0.0030326
0.00012517
0.0026456
0.00013647
0.0022778
0.00014489
0.0017422
0.00015293
0.0013744
0.00015662
0.00081442
0.00037185
0.00015992
2.0062e-05
0.0040359
6.0827e-08
4.0208e-05
0.0039453
5.9788e-05
0.0038015
7.8386e-05
0.0035969
9.57e-05
0.0033327
0.00011115
0.0030171
0.00012517
0.0026315
0.00013651
0.0022664
0.00014492
0.0017338
0.00015295
0.0013664
0.00015669
0.00081068
0.00036857
0.00015997
2.0063e-05
0.0040158
6.1964e-08
4.021e-05
0.0039251
5.9791e-05
0.0037819
7.839e-05
0.0035783
9.5708e-05
0.0033154
0.00011115
0.0030017
0.00012517
0.0026175
0.00013655
0.0022551
0.00014496
0.0017254
0.00015297
0.0013583
0.00015675
0.00080689
0.0003653
0.00016002
2.0063e-05
0.0039957
6.3105e-08
4.0211e-05
0.003905
5.9794e-05
0.0037623
7.8394e-05
0.0035597
9.5717e-05
0.0032981
0.00011116
0.0029863
0.00012517
0.0026035
0.00013659
0.0022437
0.000145
0.001717
0.00015299
0.0013504
0.00015682
0.00080307
0.00036206
0.00016007
2.0063e-05
0.0039756
6.4251e-08
4.0213e-05
0.0038848
5.9797e-05
0.0037428
7.8397e-05
0.0035411
9.5725e-05
0.0032807
0.00011117
0.0029708
0.00012518
0.0025895
0.00013662
0.0022322
0.00014504
0.0017086
0.00015302
0.0013424
0.00015689
0.0007992
0.00035883
0.00016011
2.0063e-05
0.0039554
6.5403e-08
4.0214e-05
0.0038647
5.9801e-05
0.0037232
7.8401e-05
0.0035225
9.5734e-05
0.0032634
0.00011118
0.0029554
0.00012518
0.0025755
0.00013666
0.0022207
0.00014508
0.0017001
0.00015305
0.0013344
0.00015695
0.00079529
0.00035563
0.00016016
2.0064e-05
0.0039353
6.656e-08
4.0216e-05
0.0038445
5.9804e-05
0.0037036
7.8405e-05
0.0035039
9.5743e-05
0.0032461
0.00011119
0.0029399
0.00012518
0.0025615
0.0001367
0.0022092
0.00014512
0.0016917
0.00015307
0.0013265
0.00015702
0.00079134
0.00035245
0.0001602
2.0064e-05
0.0039152
6.7723e-08
4.0218e-05
0.0038244
5.9808e-05
0.003684
7.8409e-05
0.0034853
9.5752e-05
0.0032287
0.00011119
0.0029245
0.00012518
0.0025475
0.00013673
0.0021977
0.00014516
0.0016833
0.0001531
0.0013185
0.00015708
0.00078736
0.00034929
0.00016024
2.0064e-05
0.003895
6.8891e-08
4.0219e-05
0.0038042
5.9811e-05
0.0036644
7.8413e-05
0.0034667
9.5761e-05
0.0032114
0.0001112
0.002909
0.00012518
0.0025335
0.00013677
0.0021861
0.00014521
0.0016748
0.00015313
0.0013106
0.00015714
0.00078335
0.00034615
0.00016028
2.0065e-05
0.0038749
7.0065e-08
4.0221e-05
0.0037841
5.9815e-05
0.0036448
7.8417e-05
0.0034481
9.5771e-05
0.003194
0.00011121
0.0028936
0.00012519
0.0025196
0.0001368
0.0021745
0.00014525
0.0016664
0.00015316
0.0013027
0.00015721
0.00077931
0.00034304
0.00016032
2.0065e-05
0.0038548
7.1245e-08
4.0223e-05
0.0037639
5.9819e-05
0.0036252
7.8421e-05
0.0034295
9.578e-05
0.0031767
0.00011122
0.0028782
0.00012519
0.0025056
0.00013683
0.0021628
0.00014529
0.0016579
0.0001532
0.0012948
0.00015727
0.00077524
0.00033995
0.00016036
2.0065e-05
0.0038346
7.2431e-08
4.0224e-05
0.0037437
5.9822e-05
0.0036056
7.8425e-05
0.0034109
9.5789e-05
0.0031593
0.00011123
0.0028627
0.00012519
0.0024916
0.00013687
0.0021512
0.00014534
0.0016495
0.00015323
0.0012869
0.00015733
0.00077115
0.00033687
0.0001604
2.0065e-05
0.0038145
7.3624e-08
4.0226e-05
0.0037236
5.9826e-05
0.003586
7.8429e-05
0.0033923
9.5799e-05
0.0031419
0.00011125
0.0028473
0.0001252
0.0024777
0.0001369
0.0021395
0.00014538
0.001641
0.00015326
0.001279
0.00015738
0.00076702
0.00033382
0.00016043
2.0066e-05
0.0037944
7.4822e-08
4.0228e-05
0.0037034
5.983e-05
0.0035664
7.8433e-05
0.0033737
9.5808e-05
0.0031245
0.00011126
0.0028318
0.0001252
0.0024637
0.00013693
0.0021277
0.00014543
0.0016325
0.00015329
0.0012711
0.00015744
0.00076288
0.0003308
0.00016047
2.0066e-05
0.0037742
7.6027e-08
4.023e-05
0.0036832
5.9834e-05
0.0035468
7.8437e-05
0.0033551
9.5817e-05
0.0031072
0.00011127
0.0028164
0.00012521
0.0024498
0.00013697
0.002116
0.00014547
0.001624
0.00015333
0.0012633
0.0001575
0.00075871
0.00032779
0.00016051
2.0067e-05
0.0037541
7.7239e-08
4.0231e-05
0.0036631
5.9838e-05
0.0035272
7.8442e-05
0.0033365
9.5827e-05
0.0030898
0.00011128
0.0028009
0.00012521
0.0024359
0.000137
0.0021042
0.00014551
0.0016155
0.00015336
0.0012554
0.00015755
0.00075451
0.0003248
0.00016054
2.0067e-05
0.0037339
7.8457e-08
4.0233e-05
0.0036429
5.9842e-05
0.0035076
7.8446e-05
0.0033179
9.5836e-05
0.0030724
0.0001113
0.0027854
0.00012522
0.0024219
0.00013703
0.0020924
0.00014556
0.0016069
0.00015339
0.0012476
0.00015761
0.0007503
0.00032183
0.00016058
2.0067e-05
0.0037138
7.9682e-08
4.0235e-05
0.0036228
5.9846e-05
0.003488
7.845e-05
0.0032993
9.5845e-05
0.003055
0.00011131
0.00277
0.00012523
0.002408
0.00013706
0.0020805
0.0001456
0.0015984
0.00015343
0.0012398
0.00015766
0.00074606
0.00031889
0.00016061
2.0068e-05
0.0036936
8.0914e-08
4.0237e-05
0.0036026
5.985e-05
0.0034684
7.8455e-05
0.0032807
9.5855e-05
0.0030376
0.00011133
0.0027545
0.00012524
0.0023941
0.00013709
0.0020687
0.00014565
0.0015898
0.00015346
0.0012319
0.00015772
0.00074181
0.00031596
0.00016064
2.0068e-05
0.0036735
8.2153e-08
4.0238e-05
0.0035824
5.9855e-05
0.0034487
7.8459e-05
0.0032621
9.5864e-05
0.0030202
0.00011134
0.002739
0.00012524
0.0023802
0.00013712
0.0020568
0.00014569
0.0015813
0.00015349
0.0012241
0.00015777
0.00073753
0.00031305
0.00016067
2.0068e-05
0.0036533
8.34e-08
4.024e-05
0.0035622
5.9859e-05
0.0034291
7.8464e-05
0.0032435
9.5873e-05
0.0030028
0.00011136
0.0027235
0.00012525
0.0023663
0.00013715
0.0020449
0.00014573
0.0015727
0.00015353
0.0012164
0.00015782
0.00073324
0.00031016
0.00016071
2.0069e-05
0.0036332
8.4654e-08
4.0242e-05
0.0035421
5.9863e-05
0.0034095
7.8469e-05
0.0032249
9.5883e-05
0.0029854
0.00011137
0.002708
0.00012526
0.0023524
0.00013718
0.002033
0.00014578
0.0015641
0.00015356
0.0012086
0.00015787
0.00072893
0.00030729
0.00016074
2.0069e-05
0.003613
8.5916e-08
4.0244e-05
0.0035219
5.9868e-05
0.0033899
7.8474e-05
0.0032063
9.5892e-05
0.002968
0.00011139
0.0026925
0.00012527
0.0023386
0.00013721
0.0020211
0.00014582
0.0015555
0.00015359
0.0012008
0.00015792
0.0007246
0.00030444
0.00016077
2.007e-05
0.0035929
8.7186e-08
4.0246e-05
0.0035017
5.9872e-05
0.0033703
7.8479e-05
0.0031877
9.5901e-05
0.0029505
0.00011141
0.002677
0.00012528
0.0023247
0.00013724
0.0020091
0.00014586
0.0015469
0.00015362
0.001193
0.00015797
0.00072026
0.00030161
0.0001608
2.007e-05
0.0035727
8.8464e-08
4.0248e-05
0.0034815
5.9877e-05
0.0033506
7.8484e-05
0.0031691
9.5911e-05
0.0029331
0.00011143
0.0026615
0.0001253
0.0023108
0.00013727
0.0019971
0.00014591
0.0015382
0.00015366
0.0011853
0.00015802
0.0007159
0.00029879
0.00016083
2.0071e-05
0.0035525
8.9749e-08
4.025e-05
0.0034614
5.9882e-05
0.003331
7.8489e-05
0.0031505
9.592e-05
0.0029157
0.00011144
0.002646
0.00012531
0.0022969
0.0001373
0.0019851
0.00014595
0.0015296
0.00015369
0.0011776
0.00015806
0.00071153
0.00029599
0.00016086
2.0071e-05
0.0035324
9.1044e-08
4.0252e-05
0.0034412
5.9886e-05
0.0033114
7.8495e-05
0.0031318
9.5929e-05
0.0028982
0.00011146
0.0026305
0.00012532
0.0022831
0.00013733
0.0019731
0.00014599
0.0015209
0.00015372
0.0011698
0.00015811
0.00070714
0.00029321
0.00016089
2.0072e-05
0.0035122
9.2346e-08
4.0254e-05
0.003421
5.9891e-05
0.0032917
7.8501e-05
0.0031132
9.5939e-05
0.0028808
0.00011148
0.0026149
0.00012533
0.0022692
0.00013736
0.0019611
0.00014604
0.0015122
0.00015375
0.0011621
0.00015816
0.00070274
0.00029045
0.00016092
2.0072e-05
0.003492
9.3657e-08
4.0256e-05
0.0034008
5.9896e-05
0.0032721
7.8506e-05
0.0030946
9.5948e-05
0.0028634
0.0001115
0.0025994
0.00012535
0.0022554
0.00013739
0.0019491
0.00014608
0.0015035
0.00015379
0.0011544
0.0001582
0.00069832
0.0002877
0.00016095
2.0073e-05
0.0034719
9.4977e-08
4.0258e-05
0.0033806
5.9901e-05
0.0032524
7.8513e-05
0.003076
9.5957e-05
0.0028459
0.00011152
0.0025838
0.00012536
0.0022416
0.00013742
0.001937
0.00014612
0.0014948
0.00015382
0.0011467
0.00015825
0.00069389
0.00028497
0.00016098
2.0073e-05
0.0034517
9.6306e-08
4.026e-05
0.0033604
5.9906e-05
0.0032328
7.8519e-05
0.0030574
9.5967e-05
0.0028285
0.00011154
0.0025682
0.00012538
0.0022277
0.00013744
0.0019249
0.00014616
0.0014861
0.00015385
0.001139
0.00015829
0.00068945
0.00028225
0.00016101
2.0074e-05
0.0034315
9.7644e-08
4.0262e-05
0.0033403
5.9911e-05
0.0032131
7.8526e-05
0.0030388
9.5977e-05
0.002811
0.00011156
0.0025526
0.00012539
0.0022139
0.00013747
0.0019129
0.0001462
0.0014774
0.00015388
0.0011313
0.00015833
0.000685
0.00027955
0.00016103
2.0074e-05
0.0034114
9.8991e-08
4.0264e-05
0.0033201
5.9916e-05
0.0031935
7.8532e-05
0.0030202
9.5986e-05
0.0027936
0.00011158
0.002537
0.00012541
0.0022001
0.0001375
0.0019008
0.00014625
0.0014686
0.00015391
0.0011237
0.00015838
0.00068054
0.00027687
0.00016106
2.0075e-05
0.0033912
1.0035e-07
4.0266e-05
0.0032999
5.9921e-05
0.0031738
7.8539e-05
0.0030015
9.5996e-05
0.0027761
0.0001116
0.0025214
0.00012543
0.0021862
0.00013753
0.0018887
0.00014629
0.0014599
0.00015395
0.001116
0.00015842
0.00067606
0.0002742
0.00016109
2.0075e-05
0.003371
1.0171e-07
4.0269e-05
0.0032797
5.9926e-05
0.0031542
7.8547e-05
0.0029829
9.6006e-05
0.0027586
0.00011162
0.0025058
0.00012545
0.0021724
0.00013756
0.0018766
0.00014633
0.0014511
0.00015398
0.0011084
0.00015846
0.00067158
0.00027155
0.00016112
2.0076e-05
0.0033508
1.0309e-07
4.0271e-05
0.0032595
5.9932e-05
0.0031345
7.8554e-05
0.0029643
9.6016e-05
0.0027412
0.00011165
0.0024902
0.00012546
0.0021586
0.00013758
0.0018644
0.00014637
0.0014423
0.00015401
0.0011007
0.0001585
0.00066708
0.0002689
0.00016114
2.0077e-05
0.0033307
1.0447e-07
4.0273e-05
0.0032393
5.9937e-05
0.0031149
7.8562e-05
0.0029457
9.6027e-05
0.0027237
0.00011167
0.0024745
0.00012548
0.0021448
0.00013761
0.0018523
0.00014641
0.0014335
0.00015404
0.0010931
0.00015855
0.00066258
0.00026628
0.00016117
2.0077e-05
0.0033105
1.0587e-07
4.0276e-05
0.0032191
5.9943e-05
0.0030952
7.857e-05
0.0029271
9.6037e-05
0.0027062
0.00011169
0.0024589
0.0001255
0.002131
0.00013764
0.0018402
0.00014645
0.0014247
0.00015407
0.0010855
0.00015859
0.00065807
0.00026367
0.0001612
2.0078e-05
0.0032903
1.0727e-07
4.0278e-05
0.0031989
5.9948e-05
0.0030755
7.8578e-05
0.0029084
9.6048e-05
0.0026888
0.00011171
0.0024432
0.00012552
0.0021172
0.00013766
0.001828
0.00014649
0.0014159
0.00015411
0.0010779
0.00015863
0.00065355
0.00026107
0.00016123
2.0079e-05
0.0032701
1.0869e-07
4.0281e-05
0.0031787
5.9954e-05
0.0030558
7.8587e-05
0.0028898
9.6059e-05
0.0026713
0.00011173
0.0024276
0.00012554
0.0021034
0.00013769
0.0018159
0.00014653
0.001407
0.00015414
0.0010703
0.00015867
0.00064902
0.00025848
0.00016125
2.0079e-05
0.0032499
1.1011e-07
4.0284e-05
0.0031585
5.996e-05
0.0030362
7.8596e-05
0.0028712
9.607e-05
0.0026538
0.00011176
0.0024119
0.00012556
0.0020896
0.00013771
0.0018037
0.00014657
0.0013982
0.00015417
0.0010627
0.00015871
0.00064448
0.00025591
0.00016128
2.008e-05
0.0032297
1.1155e-07
4.0286e-05
0.0031383
5.9966e-05
0.0030165
7.8605e-05
0.0028525
9.6081e-05
0.0026364
0.00011178
0.0023962
0.00012558
0.0020758
0.00013774
0.0017916
0.00014661
0.0013893
0.0001542
0.0010551
0.00015875
0.00063994
0.00025335
0.00016131
2.0081e-05
0.0032095
1.1299e-07
4.0289e-05
0.0031181
5.9972e-05
0.0029968
7.8614e-05
0.0028339
9.6092e-05
0.0026189
0.0001118
0.0023805
0.0001256
0.002062
0.00013777
0.0017794
0.00014665
0.0013804
0.00015423
0.0010475
0.00015879
0.00063539
0.0002508
0.00016133
2.0082e-05
0.0031893
1.1445e-07
4.0292e-05
0.0030979
5.9978e-05
0.0029771
7.8623e-05
0.0028152
9.6104e-05
0.0026014
0.00011182
0.0023647
0.00012562
0.0020482
0.00013779
0.0017672
0.00014669
0.0013715
0.00015427
0.0010399
0.00015882
0.00063083
0.00024827
0.00016136
2.0083e-05
0.0031691
1.1591e-07
4.0295e-05
0.0030776
5.9984e-05
0.0029574
7.8633e-05
0.0027966
9.6116e-05
0.0025839
0.00011185
0.002349
0.00012563
0.0020344
0.00013782
0.001755
0.00014673
0.0013626
0.0001543
0.0010324
0.00015886
0.00062626
0.00024575
0.00016139
2.0083e-05
0.0031489
1.1739e-07
4.0298e-05
0.0030574
5.999e-05
0.0029377
7.8643e-05
0.0027779
9.6128e-05
0.0025664
0.00011187
0.0023333
0.00012565
0.0020206
0.00013784
0.0017428
0.00014677
0.0013537
0.00015433
0.0010248
0.0001589
0.00062169
0.00024324
0.00016141
2.0084e-05
0.0031287
1.1887e-07
4.0301e-05
0.0030372
5.9996e-05
0.002918
7.8654e-05
0.0027593
9.614e-05
0.0025489
0.00011189
0.0023175
0.00012568
0.0020068
0.00013787
0.0017307
0.00014681
0.0013447
0.00015436
0.0010172
0.00015894
0.00061712
0.00024074
0.00016144
2.0085e-05
0.0031085
1.2037e-07
4.0304e-05
0.003017
6.0003e-05
0.0028983
7.8664e-05
0.0027406
9.6152e-05
0.0025315
0.00011191
0.0023018
0.0001257
0.001993
0.00013789
0.0017185
0.00014685
0.0013358
0.0001544
0.0010097
0.00015898
0.00061254
0.00023825
0.00016147
2.0086e-05
0.0030883
1.2187e-07
4.0308e-05
0.0029968
6.0009e-05
0.0028786
7.8675e-05
0.0027219
9.6165e-05
0.002514
0.00011194
0.002286
0.00012572
0.0019792
0.00013792
0.0017063
0.00014689
0.0013268
0.00015443
0.0010022
0.00015902
0.00060795
0.00023578
0.00016149
2.0087e-05
0.0030681
1.2339e-07
4.0311e-05
0.0029765
6.0016e-05
0.0028589
7.8686e-05
0.0027033
9.6178e-05
0.0024965
0.00011196
0.0022702
0.00012574
0.0019655
0.00013794
0.0016941
0.00014693
0.0013178
0.00015446
0.00099463
0.00015905
0.00060336
0.00023331
0.00016152
2.0088e-05
0.0030479
1.2491e-07
4.0315e-05
0.0029563
6.0023e-05
0.0028392
7.8697e-05
0.0026846
9.619e-05
0.002479
0.00011198
0.0022544
0.00012576
0.0019517
0.00013796
0.0016818
0.00014697
0.0013088
0.0001545
0.0009871
0.00015909
0.00059876
0.00023086
0.00016155
2.0089e-05
0.0030277
1.2644e-07
4.0318e-05
0.0029361
6.003e-05
0.0028195
7.8708e-05
0.0026659
9.6203e-05
0.0024615
0.000112
0.0022386
0.00012578
0.0019379
0.00013799
0.0016696
0.00014701
0.0012998
0.00015453
0.00097958
0.00015913
0.00059416
0.00022842
0.00016157
2.009e-05
0.0030075
1.2798e-07
4.0322e-05
0.0029159
6.0037e-05
0.0027998
7.872e-05
0.0026472
9.6216e-05
0.002444
0.00011203
0.0022228
0.0001258
0.0019241
0.00013801
0.0016574
0.00014705
0.0012907
0.00015456
0.00097206
0.00015917
0.00058955
0.00022598
0.0001616
2.0091e-05
0.0029872
1.2953e-07
4.0326e-05
0.0028956
6.0044e-05
0.0027801
7.8732e-05
0.0026286
9.623e-05
0.0024265
0.00011205
0.002207
0.00012582
0.0019104
0.00013804
0.0016452
0.00014709
0.0012817
0.0001546
0.00096456
0.0001592
0.00058495
0.00022356
0.00016163
2.0093e-05
0.002967
1.3109e-07
4.033e-05
0.0028754
6.0051e-05
0.0027604
7.8743e-05
0.0026099
9.6243e-05
0.002409
0.00011207
0.0021912
0.00012584
0.0018966
0.00013806
0.001633
0.00014713