/*--------------------------------*- C++ -*----------------------------------*\
  =========                 |
  \\      /  F ield         | OpenFOAM: The Open Source CFD Toolbox
   \\    /   O peration     | Website:  https://openfoam.org
    \\  /    A nd           | Version:  6.0
     \\/     M anipulation  |
\*---------------------------------------------------------------------------*/
FoamFile
{
    version     2.0;
    format      ascii;
    class       volVectorField;
    location    "1.94";
    object      U;
}
// * * * * * * * * * * * * * * * * * * * * * * * * * * * * * * * * * * * * * //

dimensions      [0 1 -1 0 0 0 0];

internalField   nonuniform List<vector> 
13500
(
(1 1.449e-06 -4.2993e-18)
(1 -3.0252e-06 2.9091e-18)
(1 -6.5144e-06 -1.2515e-17)
(1 -8.8617e-06 -8.6507e-18)
(1 -9.5492e-06 1.6321e-17)
(1 -7.0579e-06 3.028e-17)
(1 2.6215e-08 2.6126e-17)
(0.99998 1.4696e-05 -4.1925e-18)
(0.99991 4.5927e-05 1.5493e-17)
(0.99981 7.116e-05 3.3244e-18)
(0.99571 0.00075544 2.8811e-17)
(1.0192 0.010829 7.8662e-18)
(1 4.3353e-06 2.6635e-18)
(1 -8.5387e-06 -8.8349e-18)
(1 -1.8197e-05 5.9767e-18)
(1 -2.5204e-05 -3.4111e-19)
(1 -2.6376e-05 -4.3522e-19)
(1 -1.8827e-05 -3.641e-17)
(1 2.8781e-06 -4.5125e-17)
(0.99993 4.6529e-05 -2.3988e-17)
(0.9997 0.000148 -1.5462e-17)
(0.99986 0.0001746 -1.644e-18)
(0.98617 0.0021855 -1.3644e-17)
(1.0539 0.030586 -4.7628e-18)
(1 7.2124e-06 -3.4402e-18)
(1 -1.4116e-05 1.7553e-17)
(1 -3.0053e-05 3.1087e-18)
(1 -4.1723e-05 9.9741e-18)
(1 -4.3501e-05 -3.7635e-18)
(1 -3.0777e-05 2.9165e-17)
(1 5.6195e-06 -6.3524e-18)
(0.9999 7.8306e-05 5.4491e-18)
(0.99947 0.00025737 -1.8758e-17)
(1.0004 0.00029694 2.4976e-17)
(0.976 0.0032583 -7.1337e-18)
(1.0826 0.045057 1.6727e-18)
(1 1.0102e-05 8.9936e-18)
(1 -1.9862e-05 -1.7018e-17)
(1 -4.2222e-05 -1.4736e-17)
(1 -5.8606e-05 -6.9977e-19)
(1 -6.1128e-05 5.8098e-18)
(1 -4.311e-05 -8.0964e-19)
(1 7.9805e-06 6.2587e-17)
(0.99987 0.00010957 9.8172e-18)
(0.99921 0.00037257 2.2181e-17)
(1.0013 0.00044412 -9.0465e-18)
(0.96558 0.0039981 3.4738e-17)
(1.1041 0.055525 -7.6141e-18)
(1 1.3006e-05 -6.3193e-18)
(1 -2.5661e-05 1.4708e-17)
(1 -5.4426e-05 1.2544e-17)
(1 -7.5569e-05 1.2765e-17)
(1.0001 -7.8838e-05 2.8488e-18)
(1.0001 -5.5458e-05 2.1435e-17)
(1 1.0263e-05 -2.7949e-17)
(0.99985 0.00014033 1.9938e-18)
(0.9989 0.00049188 -1.36e-17)
(1.0026 0.00061935 -2.1584e-18)
(0.95532 0.0044537 -9.009e-18)
(1.1183 0.063129 2.1102e-18)
(1 1.5925e-05 6.3952e-18)
(1 -3.1513e-05 -6.0973e-18)
(1 -6.6667e-05 3.8311e-18)
(1 -9.2609e-05 -2.5286e-17)
(1.0001 -9.6637e-05 -8.3381e-20)
(1.0001 -6.7831e-05 -4.2435e-17)
(1 1.2441e-05 1.0725e-18)
(0.99984 0.0001705 -1.6005e-17)
(0.99855 0.00061346 5.179e-18)
(1.0043 0.00083033 -2.1751e-17)
(0.94558 0.0046665 -2.1691e-17)
(1.1259 0.068485 2.0415e-18)
(0.99999 1.8862e-05 -1.0586e-18)
(1 -3.742e-05 -7.2923e-18)
(1 -7.8945e-05 -3.1136e-18)
(1.0001 -0.00010974 1.9086e-17)
(1.0001 -0.00011453 -2.6386e-17)
(1.0001 -8.0241e-05 1.6236e-17)
(1 1.4517e-05 1.8694e-17)
(0.99985 0.00020011 5.6311e-18)
(0.99813 0.00073545 1.1578e-17)
(1.0063 0.0010845 1.171e-17)
(0.93664 0.0046735 9.3453e-18)
(1.1278 0.07202 3.2809e-18)
(0.99999 2.1818e-05 -2.185e-18)
(1 -4.3389e-05 -1.4345e-18)
(1 -9.126e-05 -2.6822e-17)
(1.0001 -0.00012696 -9.1136e-18)
(1.0001 -0.00013252 7.3852e-18)
(1.0001 -9.27e-05 2.6608e-17)
(1 1.6483e-05 1.1899e-17)
(0.99986 0.00022921 5.0268e-18)
(0.99766 0.00085592 -7.5678e-18)
(1.0085 0.0013868 1.6403e-17)
(0.92873 0.00451 7.5477e-18)
(1.1252 0.074098 -1.0438e-17)
(0.99999 2.4797e-05 -6.783e-18)
(1 -4.9423e-05 6.1674e-18)
(1 -0.00010361 4.5099e-17)
(1.0001 -0.00014428 -1.0931e-17)
(1.0001 -0.00015062 2.7657e-17)
(1.0001 -0.00010522 -5.2533e-17)
(1 1.8324e-05 -3.9637e-17)
(0.9999 0.00025787 9.7674e-18)
(0.99712 0.00097285 -5.684e-18)
(1.0109 0.0017396 -9.0466e-18)
(0.92202 0.0042099 -1.3945e-17)
(1.1189 0.075025 1.366e-17)
(0.99999 2.78e-05 4.4688e-18)
(1 -5.5528e-05 2.3214e-18)
(1 -0.000116 -3.8202e-17)
(1.0001 -0.00016171 1.5557e-17)
(1.0001 -0.00016883 -1.2061e-17)
(1.0001 -0.00011782 2.2405e-17)
(1 2.0018e-05 1.4086e-17)
(0.99995 0.00028624 2.4688e-18)
(0.99651 0.0010842 5.3666e-19)
(1.0134 0.0021437 1.4335e-18)
(0.91659 0.0038048 4.4369e-18)
(1.11 0.075053 -7.1348e-19)
(0.99999 3.0832e-05 -2.4536e-18)
(1 -6.1707e-05 -7.6134e-18)
(1 -0.00012843 9.3643e-18)
(1.0001 -0.00017926 -2.7449e-18)
(1.0001 -0.00018715 1.8618e-18)
(1.0001 -0.0001305 -2.4554e-17)
(1 2.1541e-05 -3.2444e-17)
(1 0.00031447 -3.136e-17)
(0.99584 0.001188 1.5888e-17)
(1.016 0.002598 1.8621e-18)
(0.91249 0.0033237 -1.1254e-17)
(1.0992 0.07439 -5.891e-18)
(0.99998 3.3895e-05 3.3866e-18)
(1 -6.7964e-05 2.8757e-18)
(1 -0.0001409 4.513e-18)
(1.0001 -0.00019692 -2.1875e-18)
(1.0001 -0.00020559 -5.5807e-18)
(1.0002 -0.00014329 9.2868e-18)
(1 2.2865e-05 1.878e-17)
(1.0001 0.00034281 1.9373e-17)
(0.99511 0.0012824 1.0209e-17)
(1.0186 0.0031003 -2.3512e-17)
(0.90971 0.0027927 1.1813e-19)
(1.0872 0.073206 -6.8256e-18)
(0.99998 3.699e-05 -3.386e-18)
(1 -7.4304e-05 5.6551e-18)
(1 -0.0001534 8.1824e-18)
(1.0001 -0.00021472 5.7119e-18)
(1.0002 -0.00022415 -5.1762e-18)
(1.0002 -0.00015619 4.5654e-18)
(1.0001 2.3953e-05 4.2826e-18)
(1.0002 0.0003715 -1.73e-18)
(0.99432 0.0013653 -1.65e-17)
(1.0212 0.0036472 2.1804e-17)
(0.9082 0.0022353 1.0527e-19)
(1.0746 0.071639 1.4589e-18)
(0.99998 4.012e-05 5.1491e-18)
(0.99999 -8.0729e-05 -4.4143e-18)
(1 -0.00016595 7.1633e-19)
(1.0001 -0.00023264 -4.7648e-18)
(1.0002 -0.00024285 1.1756e-17)
(1.0002 -0.00016923 5.5701e-18)
(1.0001 2.4763e-05 1.7232e-17)
(1.0003 0.00040086 -6.4246e-18)
(0.99348 0.0014351 -2.0157e-19)
(1.0236 0.0042346 5.3555e-18)
(0.9079 0.0016718 1.7081e-17)
(1.062 0.069802 9.3048e-19)
(0.99997 4.3285e-05 1.2419e-18)
(0.99999 -8.7243e-05 9.7968e-18)
(1 -0.00017853 1.3683e-17)
(1.0001 -0.00025071 -4.7506e-18)
(1.0002 -0.00026167 8.5123e-18)
(1.0002 -0.00018241 -2.6003e-18)
(1.0001 2.5244e-05 -3.0181e-17)
(1.0005 0.00043122 2.0335e-17)
(0.9926 0.0014901 -1.8607e-17)
(1.0259 0.004858 -3.0889e-17)
(0.90868 0.0011199 -3.75e-18)
(1.0497 0.067787 8.6261e-19)
(0.99997 4.6487e-05 -3.1682e-18)
(0.99999 -9.3846e-05 -1.0419e-17)
(1 -0.00019117 -3.2841e-17)
(1.0001 -0.00026892 8.0039e-18)
(1.0002 -0.00028064 -1.2917e-17)
(1.0002 -0.00019576 8.3368e-18)
(1.0001 2.5338e-05 -2.8242e-18)
(1.0007 0.00046295 -1.2241e-17)
(0.99169 0.0015287 4.0854e-18)
(1.028 0.0055124 1.8446e-17)
(0.91045 0.0005941 -7.8693e-18)
(1.038 0.065668 1.2014e-17)
(0.99996 4.9725e-05 3.3335e-19)
(0.99999 -0.00010054 7.7923e-18)
(1 -0.00020385 2.2674e-17)
(1.0001 -0.00028728 -1.8026e-18)
(1.0002 -0.00029975 -1.2833e-17)
(1.0002 -0.00020928 -1.5536e-17)
(1.0001 2.4977e-05 1.0787e-17)
(1.0008 0.00049645 7.0198e-18)
(0.99076 0.0015496 2.3615e-17)
(1.0299 0.0061925 -2.5829e-18)
(0.91307 0.00010637 1.9553e-18)
(1.0272 0.063502 -4.7929e-18)
(0.99996 5.2998e-05 -1.8703e-18)
(0.99998 -0.00010733 -9.4418e-18)
(1 -0.00021658 -1.0231e-17)
(1.0001 -0.0003058 6.0237e-18)
(1.0002 -0.00031902 -7.2075e-18)
(1.0003 -0.000223 -1.2461e-17)
(1.0001 2.4086e-05 1.0487e-17)
(1.0011 0.00053213 -4.7625e-18)
(0.98981 0.0015515 -2.9226e-17)
(1.0316 0.0068935 -1.4475e-17)
(0.91641 -0.00033401 8.4853e-18)
(1.0173 0.061337 -5.2019e-18)
(0.99996 5.6306e-05 -2.6781e-18)
(0.99998 -0.00011421 -3.5685e-18)
(1 -0.00022937 -7.582e-19)
(1.0001 -0.00032449 -2.6377e-17)
(1.0002 -0.00033844 6.0473e-18)
(1.0003 -0.00023691 5.4264e-18)
(1.0001 2.2583e-05 -1.9927e-17)
(1.0013 0.00057041 -1.6258e-17)
(0.98886 0.0015334 4.2744e-18)
(1.0331 0.00761 -1.0881e-18)
(0.92035 -0.00072016 -9.7985e-18)
(1.0085 0.059206 9.8366e-19)
(0.99995 5.9647e-05 3.4834e-18)
(0.99998 -0.00012119 1.6359e-17)
(1 -0.00024222 1.9524e-17)
(1.0001 -0.00034334 2.4843e-18)
(1.0002 -0.00035803 1.6718e-17)
(1.0003 -0.00025104 9.5088e-18)
(1.0001 2.0376e-05 2.8762e-18)
(1.0016 0.00061172 1.7794e-17)
(0.98793 0.0014944 2.1239e-17)
(1.0342 0.0083373 1.7286e-17)
(0.92475 -0.0010474 7.3121e-18)
(1.0009 0.057137 1.1679e-18)
(0.99995 6.302e-05 -1.6603e-18)
(0.99997 -0.00012826 -3.9251e-18)
(1 -0.00025513 -2.0801e-17)
(1.0001 -0.00036236 -2.3518e-18)
(1.0003 -0.00037778 -1.267e-17)
(1.0003 -0.0002654 -5.1444e-18)
(1 1.7369e-05 -1.8462e-18)
(1.0018 0.00065649 -1.6089e-17)
(0.98701 0.001434 -2.0309e-17)
(1.0351 0.0090704 8.8598e-18)
(0.92949 -0.0013128 5.0131e-19)
(0.99433 0.055149 6.7071e-19)
(0.99994 6.6423e-05 4.4009e-18)
(0.99997 -0.00013543 -5.128e-18)
(1 -0.0002681 -1.9509e-17)
(1.0001 -0.00038157 4.4714e-17)
(1.0003 -0.00039772 1.838e-17)
(1.0003 -0.00028 -1.2588e-17)
(1 1.346e-05 2.4819e-17)
(1.0021 0.00070509 2.1744e-17)
(0.98612 0.0013518 3.2956e-17)
(1.0357 0.0098049 -3.2473e-17)
(0.93446 -0.0015155 -1.3429e-17)
(0.98885 0.053256 1.7709e-19)
(0.99993 6.9857e-05 -3.2213e-18)
(0.99996 -0.0001427 -1.029e-18)
(1 -0.00028115 3.3307e-17)
(1.0002 -0.00040097 -3.3801e-17)
(1.0003 -0.00041783 -1.7693e-18)
(1.0004 -0.00029485 4.1709e-17)
(1 8.5415e-06 7.6918e-18)
(1.0024 0.00075792 -3.359e-18)
(0.98527 0.0012477 -2.0439e-17)
(1.0361 0.010536 3.8269e-17)
(0.93957 -0.0016556 -5.6878e-18)
(0.98439 0.051465 -2.8121e-19)
(0.99993 7.3319e-05 -1.6422e-18)
(0.99996 -0.00015007 -2.0504e-18)
(1 -0.00029427 1.7344e-18)
(1.0002 -0.00042056 3.5164e-17)
(1.0003 -0.00043813 -9.9755e-18)
(1.0004 -0.00030995 -3.0828e-17)
(0.99999 2.505e-06 -1.9611e-17)
(1.0028 0.00081531 -3.6166e-18)
(0.98448 0.0011219 6.4634e-18)
(1.0362 0.01126 -3.2284e-17)
(0.94471 -0.0017348 9.5272e-18)
(0.98087 0.049782 3.0494e-18)
(0.99992 7.681e-05 2.7138e-18)
(0.99995 -0.00015754 1.4271e-17)
(1 -0.00030747 -1.2791e-17)
(1.0002 -0.00044037 -3.682e-18)
(1.0003 -0.00045862 -1.9145e-17)
(1.0004 -0.00032533 3.3538e-17)
(0.99997 -4.7601e-06 -1.7216e-17)
(1.0031 0.00087754 1.499e-17)
(0.98373 0.00097486 -1.992e-18)
(1.0361 0.011973 3.0268e-17)
(0.94982 -0.0017556 -9.2958e-18)
(0.97822 0.048208 -5.0885e-18)
(0.99991 8.0331e-05 -5.2049e-19)
(0.99995 -0.00016512 -8.2078e-18)
(1 -0.00032074 -1.7911e-17)
(1.0002 -0.00046038 -1.0089e-17)
(1.0003 -0.00047931 1.8569e-17)
(1.0004 -0.00034099 -4.2765e-17)
(0.99994 -1.3364e-05 -2.6568e-18)
(1.0035 0.00094486 -2.0252e-17)
(0.98306 0.00080732 3.2182e-18)
(1.0357 0.012671 -8.7302e-18)
(0.95482 -0.0017214 9.8947e-18)
(0.97633 0.046741 2.1589e-18)
(0.99991 8.3881e-05 2.7267e-18)
(0.99994 -0.00017281 -8.7919e-18)
(1 -0.0003341 -1.7695e-18)
(1.0002 -0.00048062 2.4513e-18)
(1.0003 -0.0005002 5.8772e-18)
(1.0005 -0.00035694 1.2357e-17)
(0.99991 -2.3412e-05 4.3554e-17)
(1.0038 0.0010174 2.42e-18)
(0.98245 0.00062029 5.2444e-18)
(1.0351 0.01335 9.6224e-18)
(0.95965 -0.001636 -8.4615e-18)
(0.97511 0.04538 1.6586e-18)
(0.9999 8.7461e-05 -1.5635e-18)
(0.99994 -0.0001806 8.7838e-18)
(1 -0.00034753 2.546e-17)
(1.0002 -0.0005011 -2.4699e-17)
(1.0003 -0.0005213 -9.142e-18)
(1.0005 -0.00037319 -2.1741e-18)
(0.99987 -3.5009e-05 -1.4356e-17)
(1.0042 0.0010954 1.8773e-18)
(0.98192 0.00041507 -9.0864e-18)
(1.0343 0.014007 -3.5365e-18)
(0.96427 -0.0015039 -2.3888e-19)
(0.97447 0.044118 -2.0266e-18)
(0.99989 9.1072e-05 -1.6804e-18)
(0.99993 -0.00018852 5.2576e-18)
(1 -0.00036105 -6.1575e-19)
(1.0002 -0.00052181 8.1901e-18)
(1.0004 -0.00054261 -1.6869e-17)
(1.0005 -0.00038976 2.4601e-17)
(0.99983 -4.825e-05 7.1609e-18)
(1.0046 0.0011787 -1.791e-17)
(0.98147 0.00019317 -1.1653e-17)
(1.0334 0.01464 -1.4002e-17)
(0.96865 -0.0013297 1.3414e-18)
(0.97431 0.042952 -3.7147e-18)
(0.99988 9.4717e-05 5.8396e-19)
(0.99992 -0.00019656 -1.2556e-17)
(1 -0.00037465 1.5766e-17)
(1.0002 -0.00054279 2.2652e-17)
(1.0004 -0.00056414 3.3063e-17)
(1.0006 -0.00040665 -1.8067e-17)
(0.99978 -6.3223e-05 -1.7804e-17)
(1.0049 0.0012675 3.6349e-18)
(0.9811 -4.3655e-05 1.0918e-17)
(1.0323 0.015244 1.0961e-17)
(0.97276 -0.0011184 6.2425e-18)
(0.97456 0.041875 3.6922e-18)
(0.99988 9.8395e-05 1.1191e-18)
(0.99992 -0.00020472 9.9846e-18)
(1 -0.00038835 -3.6222e-17)
(1.0002 -0.00056402 -3.2822e-18)
(1.0004 -0.00058589 -2.7466e-17)
(1.0006 -0.00042389 -1.138e-17)
(0.99974 -8.0005e-05 2.4994e-20)
(1.0053 0.0013614 -4.1564e-18)
(0.98081 -0.00029347 -2.1515e-17)
(1.0311 0.015818 -1.75e-17)
(0.97657 -0.00087502 -8.5248e-18)
(0.97514 0.040879 -1.8204e-18)
(0.99987 0.00010211 -7.2534e-19)
(0.99991 -0.00021301 -6.4934e-18)
(1 -0.00040212 2.85e-17)
(1.0002 -0.00058553 -3.1317e-17)
(1.0004 -0.00060787 -2.0659e-18)
(1.0006 -0.00044148 2.4233e-17)
(0.99968 -9.8661e-05 7.1234e-19)
(1.0057 0.0014604 3.9645e-18)
(0.98061 -0.0005542 1.8835e-17)
(1.0298 0.01636 2.2748e-17)
(0.9801 -0.00060444 4.8773e-18)
(0.97597 0.039959 -1.0171e-18)
(0.99986 0.00010586 -1.8883e-18)
(0.9999 -0.00022144 -2.3946e-18)
(1 -0.00041599 -1.2634e-17)
(1.0002 -0.00060733 1.5601e-17)
(1.0004 -0.00063007 3.0186e-17)
(1.0007 -0.00045945 -1.071e-17)
(0.99963 -0.00011924 2.2175e-17)
(1.006 0.0015641 2.9715e-18)
(0.98048 -0.00082363 -2.1341e-18)
(1.0284 0.016866 1.0291e-17)
(0.98332 -0.00031159 -5.4493e-18)
(0.977 0.039107 -7.0921e-19)
(0.99985 0.00010965 4.7225e-19)
(0.9999 -0.00023 -6.3326e-18)
(1 -0.00042995 4.7296e-18)
(1.0002 -0.00062942 -1.5899e-17)
(1.0004 -0.00065251 -3.1929e-17)
(1.0007 -0.00047781 6.749e-18)
(0.99957 -0.00014179 -3.199e-17)
(1.0064 0.0016723 -6.7921e-18)
(0.98043 -0.0010995 6.9222e-18)
(1.027 0.017337 -3.23e-17)
(0.98625 -1.2048e-06 3.7316e-18)
(0.97817 0.038317 2.0006e-18)
(0.99984 0.00011348 8.2931e-19)
(0.99989 -0.00023871 1.7157e-17)
(1 -0.000444 7.9192e-18)
(1.0002 -0.00065183 6.4767e-18)
(1.0004 -0.00067518 2.5531e-17)
(1.0007 -0.00049659 2.0122e-18)
(0.99951 -0.00016631 2.209e-17)
(1.0067 0.0017844 4.8723e-18)
(0.98045 -0.0013795 -2.1041e-17)
(1.0256 0.01777 1.1121e-17)
(0.98889 0.00032218 2.5234e-18)
(0.97943 0.037583 2.0753e-18)
(0.99983 0.00011735 -2.8957e-18)
(0.99988 -0.00024757 -5.6475e-18)
(1 -0.00045814 -6.9576e-18)
(1.0002 -0.00067455 1.0636e-17)
(1.0004 -0.00069808 1.2334e-17)
(1.0008 -0.00051581 -4.0073e-18)
(0.99945 -0.00019282 -1.8556e-17)
(1.0071 0.0019001 2.2181e-17)
(0.98054 -0.0016614 3.8954e-18)
(1.0241 0.018165 -3.3595e-18)
(0.99125 0.00065428 1.0436e-17)
(0.98075 0.036897 -1.4428e-18)
(0.99982 0.00012127 5.9502e-18)
(0.99987 -0.00025658 6.7631e-18)
(1 -0.00047238 -7.396e-18)
(1.0002 -0.00069761 -6.6254e-18)
(1.0005 -0.00072123 -1.7699e-17)
(1.0008 -0.0005355 -6.8824e-18)
(0.99938 -0.00022131 9.149e-18)
(1.0074 0.0020188 -3.5576e-17)
(0.9807 -0.0019429 9.5387e-18)
(1.0227 0.018521 -3.9713e-18)
(0.99336 0.00099112 -1.1051e-17)
(0.9821 0.036255 4.1917e-18)
(0.99981 0.00012523 -2.6261e-18)
(0.99986 -0.00026575 -1.1883e-17)
(1 -0.00048672 -7.168e-18)
(1.0002 -0.00072102 -1.2572e-17)
(1.0005 -0.00074462 -5.4041e-18)
(1.0009 -0.00055568 2.0236e-17)
(0.99931 -0.00025174 -8.9877e-18)
(1.0077 0.0021398 3.9575e-17)
(0.98091 -0.0022219 8.9955e-18)
(1.0213 0.018837 1.2051e-17)
(0.99523 0.001329 4.658e-18)
(0.98344 0.035651 -6.7989e-18)
(0.9998 0.00012924 -1.393e-18)
(0.99985 -0.00027508 8.8369e-18)
(1 -0.00050116 1.4202e-17)
(1.0002 -0.00074479 3.3898e-17)
(1.0005 -0.00076825 7.1633e-18)
(1.0009 -0.0005764 -1.388e-17)
(0.99924 -0.00028407 4.3372e-18)
(1.0081 0.0022627 -4.2575e-17)
(0.98118 -0.0024964 -1.0912e-17)
(1.0199 0.019114 -6.7006e-18)
(0.99688 0.0016647 4.5698e-18)
(0.98477 0.03508 6.8388e-18)
(0.99978 0.0001333 1.066e-18)
(0.99984 -0.00028458 2.0919e-18)
(1 -0.0005157 -1.3948e-17)
(1.0002 -0.00076893 -5.6463e-18)
(1.0005 -0.00079212 9.0955e-18)
(1.001 -0.00059769 1.6613e-17)
(0.99917 -0.00031825 1.5083e-17)
(1.0084 0.0023868 4.2146e-18)
(0.9815 -0.0027647 1.2208e-17)
(1.0186 0.019352 -3.1049e-18)
(0.99832 0.0019952 -8.1572e-18)
(0.98607 0.034537 -1.7633e-18)
(0.99977 0.0001374 -4.3657e-20)
(0.99983 -0.00029426 2.3841e-18)
(0.99999 -0.00053034 3.1172e-18)
(1.0002 -0.00079347 -7.3299e-18)
(1.0005 -0.00081623 8.4705e-20)
(1.001 -0.0006196 -1.5063e-17)
(0.9991 -0.00035419 -1.0202e-17)
(1.0086 0.0025114 3.1176e-17)
(0.98186 -0.0030251 -1.845e-17)
(1.0173 0.019552 1.2057e-17)
(0.99958 0.0023179 4.3083e-18)
(0.98732 0.03402 -4.9843e-18)
(0.99976 0.00014155 -3.3019e-18)
(0.99982 -0.00030411 -1.1181e-17)
(0.99999 -0.00054508 7.9584e-18)
(1.0002 -0.0008184 -2.0018e-17)
(1.0005 -0.00084058 -2.3002e-17)
(1.0011 -0.00064215 -2.0808e-17)
(0.99902 -0.00039181 -2.0793e-17)
(1.0089 0.0026359 -3.1927e-18)
(0.98225 -0.0032761 1.6125e-17)
(1.0161 0.019715 -1.0342e-17)
(1.0007 0.0026306 4.2836e-19)
(0.98852 0.033523 4.6957e-18)
(0.99975 0.00014576 6.3731e-18)
(0.99981 -0.00031414 1.1685e-17)
(0.99998 -0.00055994 -1.2835e-17)
(1.0002 -0.00084376 1.6436e-17)
(1.0005 -0.00086516 -2.6975e-18)
(1.0011 -0.00066542 1.3639e-17)
(0.99894 -0.00043103 2.4993e-17)
(1.0092 0.0027598 -2.4183e-17)
(0.98268 -0.0035166 -8.1765e-18)
(1.015 0.019841 1.0922e-17)
(1.0017 0.0029314 3.7235e-18)
(0.98967 0.033044 -2.222e-18)
(0.99973 0.00015002 -4.7821e-18)
(0.9998 -0.00032436 -3.4535e-18)
(0.99997 -0.0005749 -2.6836e-18)
(1.0002 -0.00086954 1.8805e-17)
(1.0005 -0.00088998 -5.7746e-18)
(1.0012 -0.00068944 -1.7282e-19)
(0.99887 -0.00047175 -4.8906e-18)
(1.0094 0.0028823 1.9371e-17)
(0.98313 -0.0037456 -7.7637e-18)
(1.014 0.019933 -7.4996e-18)
(1.0025 0.0032189 -1.1007e-17)
(0.99076 0.03258 2.5839e-18)
(0.99972 0.00015433 3.2506e-18)
(0.99979 -0.00033478 -4.3789e-18)
(0.99997 -0.00058998 6.1434e-18)
(1.0002 -0.00089578 -2.8533e-17)
(1.0005 -0.00091503 3.9122e-17)
(1.0012 -0.00071426 5.6504e-18)
(0.99879 -0.00051386 1.9297e-17)
(1.0097 0.0030029 -1.1986e-17)
(0.9836 -0.0039623 1.0255e-19)
(1.0131 0.019992 5.5773e-18)
(1.0032 0.0034917 -2.1416e-18)
(0.99179 0.032129 -9.7209e-19)
(0.99971 0.00015869 -9.2991e-19)
(0.99978 -0.00034539 8.5594e-19)
(0.99996 -0.00060517 1.4969e-17)
(1.0002 -0.00092248 7.7787e-18)
(1.0005 -0.00094031 -1.9558e-17)
(1.0013 -0.00073995 -1.1067e-17)
(0.99871 -0.00055726 3.3695e-18)
(1.0099 0.0031211 -5.827e-18)
(0.98409 -0.0041664 1.299e-17)
(1.0122 0.02002 -3.6612e-18)
(1.0039 0.003749 1.0306e-17)
(0.99278 0.031689 -3.5502e-18)
(0.99969 0.00016311 -1.6186e-18)
(0.99976 -0.00035621 -8.2509e-18)
(0.99995 -0.00062047 -4.4506e-18)
(1.0002 -0.00094967 3.1237e-17)
(1.0005 -0.0009658 -1.7425e-17)
(1.0014 -0.00076656 -9.3741e-19)
(0.99863 -0.00060185 -5.0388e-17)
(1.0101 0.0032365 5.7279e-18)
(0.98459 -0.0043574 -2.4291e-17)
(1.0114 0.020018 -7.9066e-18)
(1.0044 0.0039903 -1.0307e-17)
(0.99371 0.031258 2.1082e-18)
(0.99968 0.00016759 -6.9877e-19)
(0.99975 -0.00036723 5.1118e-18)
(0.99995 -0.0006359 -1.8372e-18)
(1.0002 -0.00097736 -1.8188e-17)
(1.0006 -0.00099151 2.5041e-17)
(1.0014 -0.00079415 -2.3043e-18)
(0.99855 -0.00064755 2.6691e-17)
(1.0103 0.0033484 -3.521e-18)
(0.98509 -0.0045354 1.1794e-17)
(1.0107 0.019989 9.8889e-18)
(1.005 0.0042152 8.502e-18)
(0.99459 0.030835 -5.1023e-19)
(0.99966 0.00017212 3.9611e-18)
(0.99974 -0.00037847 -3.0585e-18)
(0.99994 -0.00065144 -6.4272e-18)
(1.0002 -0.0010056 1.9851e-17)
(1.0006 -0.0010174 1.8376e-18)
(1.0015 -0.00082277 2.8568e-17)
(0.99846 -0.00069426 4.6043e-18)
(1.0105 0.0034566 1.6823e-17)
(0.9856 -0.0047004 4.4247e-18)
(1.0101 0.019934 -3.1996e-18)
(1.0054 0.0044235 1.1064e-18)
(0.99542 0.030418 4.6167e-19)
(0.99964 0.00017671 1.1294e-18)
(0.99972 -0.00038993 1.2505e-18)
(0.99993 -0.00066712 -5.8281e-18)
(1.0002 -0.0010343 -3.9532e-17)
(1.0006 -0.0010436 5.5651e-18)
(1.0016 -0.00085247 2.4777e-18)
(0.99838 -0.00074192 -1.9965e-17)
(1.0107 0.0035607 2.3665e-19)
(0.98612 -0.0048527 1.3037e-17)
(1.0095 0.019855 -2.057e-18)
(1.0058 0.0046153 -5.386e-18)
(0.99622 0.030006 2.723e-18)
(0.99963 0.00018136 -4.8366e-18)
(0.99971 -0.00040161 5.3002e-18)
(0.99992 -0.00068291 9.6073e-19)
(1.0002 -0.0010636 2.1952e-17)
(1.0006 -0.0010699 -2.5386e-17)
(1.0017 -0.00088332 -1.0944e-17)
(0.9983 -0.00079047 2.042e-17)
(1.0108 0.0036604 -1.1394e-17)
(0.98663 -0.0049927 -2.0609e-17)
(1.0091 0.019754 -1.0165e-17)
(1.0062 0.0047909 6.86e-18)
(0.99697 0.029599 9.0848e-19)
(0.99961 0.00018606 -5.118e-19)
(0.99969 -0.00041352 -5.3335e-18)
(0.99991 -0.00069884 1.0232e-17)
(1.0003 -0.0010935 9.7334e-18)
(1.0006 -0.0010964 3.1355e-17)
(1.0017 -0.00091536 4.2041e-18)
(0.99822 -0.00083987 1.8138e-17)
(1.011 0.0037555 2.8888e-17)
(0.98714 -0.0051209 -9.0997e-19)
(1.0086 0.019634 1.788e-17)
(1.0066 0.0049506 -7.2578e-19)
(0.99769 0.029197 -2.6501e-18)
(0.99959 0.00019083 4.9606e-18)
(0.99968 -0.00042566 -7.7651e-18)
(0.9999 -0.0007149 -1.5531e-17)
(1.0003 -0.0011239 -2.587e-18)
(1.0006 -0.0011231 -3.4031e-17)
(1.0018 -0.00094864 -1.2509e-17)
(0.99814 -0.00089011 -6.2955e-18)
(1.0112 0.0038457 2.1591e-19)
(0.98765 -0.005238 2.6819e-17)
(1.0083 0.019495 4.1203e-18)
(1.0069 0.0050949 -9.4158e-18)
(0.99838 0.028798 1.5902e-18)
(0.99958 0.00019565 -5.5613e-18)
(0.99966 -0.00043805 9.7e-18)
(0.99989 -0.00073109 8.1298e-18)
(1.0003 -0.001155 -5.1551e-18)
(1.0006 -0.0011499 2.7367e-17)
(1.0019 -0.0009832 1.4965e-17)
(0.99806 -0.00094117 -4.9766e-18)
(1.0113 0.0039309 -2.9111e-17)
(0.98815 -0.0053448 -9.1202e-19)
(1.008 0.01934 -1.1774e-17)
(1.0073 0.0052245 1.1147e-17)
(0.99904 0.028402 -2.0827e-18)
(0.99956 0.00020054 3.3418e-18)
(0.99965 -0.00045068 -1.8561e-18)
(0.99988 -0.00074742 1.0765e-17)
(1.0003 -0.0011867 -2.1689e-17)
(1.0006 -0.001177 8.9362e-18)
(1.002 -0.0010191 -5.3761e-18)
(0.99798 -0.00099309 -1.0723e-17)
(1.0114 0.0040109 -2.3367e-18)
(0.98865 -0.0054419 -3.2362e-17)
(1.0077 0.019171 7.768e-18)
(1.0076 0.0053399 -1.0208e-17)
(0.99968 0.02801 6.9502e-19)
(0.99954 0.00020548 2.6422e-19)
(0.99963 -0.00046356 -5.8391e-18)
(0.99987 -0.00076389 6.113e-18)
(1.0003 -0.0012191 2.8546e-17)
(1.0006 -0.0012042 -2.1284e-17)
(1.0021 -0.0010563 1.7294e-17)
(0.9979 -0.0010459 -6.2004e-18)
(1.0116 0.0040858 5.4112e-18)
(0.98914 -0.0055301 3.8447e-17)
(1.0075 0.018988 -1.4421e-17)
(1.0079 0.0054418 1.5604e-17)
(1.0003 0.027621 1.9667e-18)
(0.99952 0.00021049 4.7424e-19)
(0.99962 -0.0004767 -1.2085e-18)
(0.99985 -0.0007805 -8.7944e-18)
(1.0003 -0.0012522 -4.2974e-18)
(1.0006 -0.0012316 1.855e-17)
(1.0022 -0.0010948 1.3768e-19)
(0.99782 -0.0010997 -1.2188e-17)
(1.0117 0.0041553 -1.2918e-17)
(0.98963 -0.0056103 -1.6094e-17)
(1.0074 0.018794 -1.3615e-18)
(1.0082 0.0055309 2.858e-18)
(1.0009 0.027235 2.0641e-19)
(0.9995 0.00021555 -7.6313e-19)
(0.9996 -0.00049011 1.4381e-17)
(0.99984 -0.00079726 -5.8657e-18)
(1.0003 -0.0012859 -2.4286e-17)
(1.0006 -0.0012592 8.5518e-18)
(1.0022 -0.0011348 -4.4061e-17)
(0.99774 -0.0011545 6.0796e-18)
(1.0118 0.0042195 8.134e-18)
(0.99011 -0.0056833 7.476e-19)
(1.0073 0.018589 1.4646e-17)
(1.0085 0.005608 -9.5365e-19)
(1.0015 0.026851 -5.4962e-18)
(0.99948 0.00022068 -2.0147e-19)
(0.99958 -0.00050378 -2.8221e-19)
(0.99983 -0.00081418 7.8963e-18)
(1.0003 -0.0013204 1.4994e-17)
(1.0006 -0.0012869 -3.398e-17)
(1.0023 -0.001176 1.9033e-18)
(0.99766 -0.0012105 1.0889e-17)
(1.0119 0.0042783 1.2739e-17)
(0.99058 -0.0057499 -1.0177e-17)
(1.0072 0.018376 -1.4261e-17)
(1.0088 0.0056736 -1.5481e-17)
(1.002 0.02647 5.8048e-18)
(0.99946 0.00022586 -1.3184e-18)
(0.99956 -0.00051772 4.0191e-19)
(0.99981 -0.00083124 -3.8072e-18)
(1.0003 -0.0013556 -1.0011e-17)
(1.0005 -0.0013149 1.8836e-17)
(1.0024 -0.0012187 2.3651e-17)
(0.99759 -0.0012678 3.1758e-18)
(1.012 0.0043318 6.4553e-18)
(0.99105 -0.0058107 1.6231e-17)
(1.0071 0.018155 2.4e-18)
(1.0091 0.0057286 1.1447e-17)
(1.0025 0.026093 -3.5236e-18)
(0.99944 0.00023111 2.4266e-18)
(0.99954 -0.00053195 7.4098e-19)
(0.9998 -0.00084847 -5.441e-18)
(1.0003 -0.0013916 1.479e-18)
(1.0005 -0.001343 -1.0213e-17)
(1.0025 -0.0012627 -5.6731e-18)
(0.99752 -0.0013265 -1.1739e-18)
(1.0121 0.0043798 -2.9149e-17)
(0.99151 -0.0058666 3.1855e-18)
(1.0071 0.017926 -4.8665e-18)
(1.0094 0.0057735 -4.6556e-18)
(1.0031 0.025718 -4.2481e-18)
(0.99941 0.00023641 -4.9522e-18)
(0.99953 -0.00054646 9.6809e-19)
(0.99978 -0.00086586 2.8861e-18)
(1.0003 -0.0014284 -1.8584e-17)
(1.0005 -0.0013714 -1.1642e-17)
(1.0026 -0.0013079 -2.6337e-17)
(0.99745 -0.0013868 5.6647e-18)
(1.0122 0.0044224 1.1903e-17)
(0.99196 -0.0059182 -3.4163e-17)
(1.007 0.017692 2.244e-17)
(1.0097 0.005809 -5.0354e-18)
(1.0036 0.025346 2.7394e-18)
(0.99939 0.00024178 4.5459e-18)
(0.99951 -0.00056126 2.1664e-18)
(0.99977 -0.00088341 1.1098e-18)
(1.0003 -0.0014659 5.894e-18)
(1.0005 -0.0014 -2.5716e-18)
(1.0027 -0.0013545 5.1047e-17)
(0.99738 -0.0014488 2.0338e-17)
(1.0123 0.0044595 -1.8513e-17)
(0.99241 -0.0059661 3.2879e-17)
(1.007 0.017453 -8.3723e-18)
(1.01 0.0058356 -3.3213e-18)
(1.0041 0.024976 -1.367e-18)
(0.99937 0.0002472 1.1151e-18)
(0.99949 -0.00057636 -1.3719e-17)
(0.99975 -0.00090114 2.2213e-18)
(1.0003 -0.0015043 2.647e-17)
(1.0005 -0.0014289 1.9901e-17)
(1.0029 -0.0014022 -8.2391e-19)
(0.99732 -0.0015129 -2.8176e-17)
(1.0124 0.0044912 5.6057e-18)
(0.99286 -0.0060109 -7.4147e-18)
(1.0071 0.01721 -1.1588e-17)
(1.0103 0.0058539 8.4492e-18)
(1.0046 0.02461 1.2742e-18)
(0.99934 0.00025268 -4.4103e-18)
(0.99947 -0.00059176 -4.5735e-18)
(0.99974 -0.00091905 -1.2033e-17)
(1.0003 -0.0015436 -2.2199e-17)
(1.0005 -0.0014581 -2.0025e-17)
(1.003 -0.0014511 -2.3198e-17)
(0.99726 -0.0015791 5.2031e-18)
(1.0124 0.0045173 4.3579e-17)
(0.99329 -0.0060532 3.2313e-18)
(1.0071 0.016963 -1.0123e-18)
(1.0106 0.0058645 -2.9833e-18)
(1.005 0.024247 -3.4249e-18)
(0.99932 0.00025821 3.2727e-18)
(0.99944 -0.00060747 4.2484e-18)
(0.99972 -0.00093714 1.8543e-17)
(1.0003 -0.0015837 1.5375e-17)
(1.0005 -0.0014876 1.9482e-17)
(1.0031 -0.001501 -8.6221e-19)
(0.9972 -0.0016476 -2.899e-17)
(1.0125 0.0045379 -2.3555e-17)
(0.99373 -0.0060932 8.0188e-18)
(1.0071 0.016713 4.011e-18)
(1.0108 0.0058677 6.7276e-18)
(1.0055 0.023886 2.6466e-18)
(0.9993 0.0002638 -2.3112e-18)
(0.99942 -0.00062349 6.6646e-18)
(0.9997 -0.00095542 -1.2269e-17)
(1.0003 -0.0016246 2.2254e-18)
(1.0004 -0.0015176 9.058e-18)
(1.0032 -0.001552 -2.2678e-18)
(0.99715 -0.0017187 6.509e-18)
(1.0126 0.004553 6.5408e-18)
(0.99416 -0.0061316 2.6388e-18)
(1.0072 0.01646 9.9162e-18)
(1.0111 0.0058639 -8.0913e-18)
(1.0059 0.023529 5.3453e-19)
(0.99927 0.00026945 3.4895e-18)
(0.9994 -0.00063983 4.1304e-19)
(0.99968 -0.0009739 -5.743e-18)
(1.0003 -0.0016665 8.8577e-19)
(1.0004 -0.0015479 -1.4884e-18)
(1.0033 -0.0016039 -2.2403e-17)
(0.9971 -0.0017925 1.8174e-17)
(1.0126 0.0045624 2.3214e-17)
(0.99458 -0.0061686 -1.3139e-17)
(1.0073 0.016205 -1.3799e-17)
(1.0114 0.0058537 -2.3658e-18)
(1.0064 0.023174 4.5532e-18)
(0.99924 0.00027514 -2.5349e-18)
(0.99938 -0.0006565 -3.1812e-19)
(0.99966 -0.00099259 7.1404e-18)
(1.0003 -0.0017093 -1.7014e-17)
(1.0004 -0.0015788 -1.3456e-17)
(1.0034 -0.0016566 2.8283e-17)
(0.99706 -0.0018693 -2.7793e-18)
(1.0127 0.0045662 -2.4579e-17)
(0.995 -0.0062044 3.3471e-18)
(1.0073 0.015949 1.2992e-17)
(1.0117 0.0058372 8.0189e-18)
(1.0068 0.022823 -1.6418e-18)
(0.99922 0.00028088 2.519e-19)
(0.99935 -0.00067349 2.3301e-18)
(0.99964 -0.0010115 3.9015e-18)
(1.0003 -0.001753 8.7955e-18)
(1.0004 -0.0016103 2.6374e-17)
(1.0035 -0.0017102 6.5945e-18)
(0.99702 -0.0019492 -2.42e-17)
(1.0127 0.0045642 2.3033e-18)
(0.99541 -0.0062395 8.6216e-18)
(1.0074 0.015691 -1.1706e-17)
(1.0119 0.0058148 -5.4223e-18)
(1.0072 0.022474 -1.8997e-18)
(0.99919 0.00028667 7.1523e-19)
(0.99933 -0.00069082 -4.053e-19)
(0.99962 -0.0010306 -1.0295e-17)
(1.0003 -0.0017976 -1.8914e-19)
(1.0004 -0.0016425 -5.2144e-17)
(1.0036 -0.0017644 8.131e-18)
(0.99699 -0.0020324 2.3772e-17)
(1.0127 0.0045565 -6.6177e-18)
(0.99583 -0.006274 -9.0286e-18)
(1.0075 0.015432 1.944e-17)
(1.0122 0.0057868 6.4891e-18)
(1.0077 0.022128 4.924e-18)
(0.99916 0.0002925 7.6831e-19)
(0.99931 -0.00070849 -8.4107e-19)
(0.9996 -0.00105 1.8618e-17)
(1.0003 -0.0018432 4.0568e-18)
(1.0003 -0.0016754 4.6208e-17)
(1.0038 -0.0018192 -2.8656e-17)
(0.99697 -0.002119 -7.9606e-18)
(1.0128 0.0045431 6.2285e-18)
(0.99623 -0.006308 3.1107e-18)
(1.0076 0.015173 -1.0938e-17)
(1.0125 0.0057534 -1.0501e-18)
(1.0081 0.021785 -3.631e-18)
(0.99913 0.00029838 -3.0026e-18)
(0.99928 -0.0007265 1.4121e-18)
(0.99957 -0.0010696 -1.0943e-17)
(1.0003 -0.0018897 5.3345e-18)
(1.0003 -0.0017091 -1.7558e-17)
(1.0039 -0.0018746 3.8861e-18)
(0.99695 -0.0022093 3.1874e-17)
(1.0128 0.0045238 -2.3312e-17)
(0.99663 -0.0063418 -1.1434e-17)
(1.0077 0.014913 -1.0821e-17)
(1.0127 0.0057149 -5.1609e-18)
(1.0085 0.021444 -9.9719e-19)
(0.9991 0.00030429 3.7401e-18)
(0.99925 -0.00074486 -3.3538e-18)
(0.99955 -0.0010895 -1.0619e-17)
(1.0003 -0.0019372 -8.5065e-18)
(1.0003 -0.0017437 -2.8706e-17)
(1.004 -0.0019304 -1.8025e-17)
(0.99694 -0.0023033 -1.9544e-17)
(1.0128 0.0044986 2.1676e-17)
(0.99703 -0.0063755 1.1084e-17)
(1.0078 0.014652 1.6387e-17)
(1.013 0.0056714 -2.0209e-18)
(1.0089 0.021106 4.8139e-18)
(0.99907 0.00031023 -6.0111e-18)
(0.99923 -0.00076357 5.4341e-18)
(0.99953 -0.0011097 2.6002e-17)
(1.0003 -0.0019856 -2.0064e-18)
(1.0002 -0.0017794 3.176e-17)
(1.0041 -0.0019867 1.3588e-18)
(0.99693 -0.0024011 -1.8718e-17)
(1.0129 0.0044677 8.4833e-18)
(0.99743 -0.0064092 -3.9973e-18)
(1.0079 0.014391 -3.4313e-18)
(1.0133 0.0056231 6.5563e-18)
(1.0092 0.020771 -3.2553e-18)
(0.99904 0.00031621 4.926e-18)
(0.9992 -0.00078264 -7.3851e-18)
(0.9995 -0.0011301 -3.0316e-17)
(1.0003 -0.002035 1.3126e-17)
(1.0002 -0.0018162 -2.2627e-17)
(1.0042 -0.0020434 2.4917e-17)
(0.99693 -0.0025028 6.1012e-18)
(1.0129 0.0044308 -8.0758e-18)
(0.99781 -0.0064429 -1.9184e-18)
(1.008 0.01413 -8.5944e-18)
(1.0135 0.0055702 -1.069e-17)
(1.0096 0.020438 4.5004e-18)
(0.99901 0.00032221 -3.6285e-18)
(0.99917 -0.00080207 2.4557e-18)
(0.99947 -0.0011509 1.8421e-17)
(1.0003 -0.0020854 -1.7303e-17)
(1.0002 -0.0018543 3.6407e-17)
(1.0043 -0.0021004 -1.934e-17)
(0.99693 -0.0026084 3.5567e-18)
(1.0129 0.0043882 -1.2764e-17)
(0.9982 -0.0064767 6.2618e-18)
(1.0081 0.013869 -1.2026e-18)
(1.0137 0.0055127 4.5755e-18)
(1.01 0.020108 -2.001e-18)
(0.99897 0.00032823 4.4503e-18)
(0.99914 -0.00082187 1.9119e-18)
(0.99945 -0.001172 -1.2281e-17)
(1.0003 -0.0021367 -3.519e-19)
(1.0001 -0.0018937 -1.6075e-18)
(1.0044 -0.0021578 4.677e-18)
(0.99694 -0.0027181 3.3772e-17)
(1.0129 0.0043398 8.7308e-18)
(0.99858 -0.0065107 -1.856e-17)
(1.0082 0.013608 -6.2336e-18)
(1.014 0.0054509 -4.3055e-18)
(1.0103 0.01978 2.1034e-18)
(0.99894 0.00033427 -5.1009e-18)
(0.99912 -0.00084204 -7.0849e-18)
(0.99942 -0.0011935 5.1523e-18)
(1.0003 -0.002189 1.4971e-17)
(1.0001 -0.0019347 -3.3025e-17)
(1.0046 -0.0022155 1.5715e-17)
(0.99696 -0.0028318 -3.2517e-17)