/*--------------------------------*- C++ -*----------------------------------*\
  =========                 |
  \\      /  F ield         | OpenFOAM: The Open Source CFD Toolbox
   \\    /   O peration     | Website:  https://openfoam.org
    \\  /    A nd           | Version:  6.0
     \\/     M anipulation  |
\*---------------------------------------------------------------------------*/
FoamFile
{
    version     2.0;
    format      ascii;
    class       volScalarField;
    location    "9";
    object      p;
}
// * * * * * * * * * * * * * * * * * * * * * * * * * * * * * * * * * * * * * //

dimensions      [0 2 -2 0 0 0 0];

internalField   nonuniform List<scalar> 
62000
(
0.030502
0.0312542
0.0319756
0.0326801
0.0333629
0.0340306
0.0346814
0.0353227
0.0359532
0.0365833
0.0372114
0.0378522
0.0385018
0.0391791
0.0398789
0.0406227
0.0414042
0.0422455
0.0431399
0.0441087
0.0451446
0.0462684
0.0474707
0.0487731
0.0501621
0.0516609
0.0532521
0.054959
0.0567636
0.0586889
0.0607148
0.0628577
0.0651015
0.0674734
0.0699923
0.0726694
0.0755105
0.0785287
0.081741
0.0851672
0.0888261
0.0927287
0.09685
0.101102
0.105293
0.109102
0.112115
0.113843
0.114034
0.112665
0.110456
0.108551
0.108013
0.110134
0.113946
0.11816
0.120045
0.117862
0.115638
0.11469
0.0318798
0.0325291
0.0331434
0.0337469
0.0343348
0.0349181
0.0354937
0.036073
0.0366507
0.0372398
0.0378333
0.0384477
0.039073
0.0397316
0.0404113
0.0411385
0.0419019
0.0427285
0.0436084
0.0445659
0.0455932
0.0467101
0.0479101
0.0492091
0.0506003
0.0520962
0.0536902
0.0553897
0.0571894
0.0590935
0.0611011
0.0632113
0.0654264
0.06776
0.0702296
0.072851
0.0756346
0.078594
0.0817504
0.0851295
0.0887628
0.0926772
0.0968634
0.101248
0.105657
0.10978
0.113208
0.115436
0.116182
0.115379
0.113721
0.112428
0.112738
0.116257
0.122363
0.129856
0.135871
0.137851
0.141584
0.140616
0.0345932
0.0349031
0.0352292
0.0355866
0.0359674
0.0363806
0.0368164
0.0372851
0.0377762
0.0383016
0.0388491
0.0394334
0.0400392
0.040685
0.0413537
0.0420681
0.0428119
0.0436104
0.0444505
0.0453577
0.046323
0.0473696
0.0484917
0.049709
0.051017
0.0524305
0.0539462
0.055571
0.0573016
0.0591386
0.0610836
0.0631394
0.0653145
0.0676233
0.0700862
0.0727137
0.0755111
0.0784889
0.0816653
0.0850652
0.0887237
0.092672
0.0969005
0.101334
0.105792
0.109951
0.113371
0.115487
0.115918
0.114466
0.111664
0.108673
0.106778
0.107798
0.111554
0.117284
0.122697
0.125109
0.130905
0.126802
0.0366676
0.0368521
0.0370769
0.0373536
0.0376745
0.0380498
0.0384687
0.0389425
0.0394572
0.0400249
0.040628
0.0412809
0.0419609
0.0426867
0.0434323
0.0442194
0.0450237
0.0458689
0.0467351
0.047647
0.0485912
0.0495916
0.0506411
0.0517622
0.0529514
0.0542283
0.0555924
0.0570543
0.058613
0.0602688
0.0620266
0.0638946
0.0658931
0.0680527
0.070393
0.072924
0.0756426
0.0785569
0.0816881
0.0850639
0.0887279
0.0927215
0.0970431
0.101626
0.106301
0.110745
0.114505
0.11697
0.117664
0.116246
0.113055
0.109093
0.105583
0.104373
0.105688
0.109205
0.11335
0.115678
0.122295
0.118794
0.0366119
0.0368734
0.0371744
0.0375273
0.0379254
0.0383802
0.0388828
0.0394451
0.0400568
0.0407303
0.0414516
0.0422344
0.0430585
0.0439388
0.0448497
0.0458077
0.0467852
0.0477991
0.0488241
0.0498784
0.0509425
0.0520352
0.0531446
0.0542909
0.0554684
0.0566972
0.0579774
0.0593216
0.0607294
0.0622023
0.063746
0.0653792
0.0671371
0.069061
0.071188
0.0735223
0.0760605
0.0788156
0.081818
0.0851081
0.0887472
0.0927989
0.0972858
0.102168
0.107308
0.112412
0.117048
0.120595
0.122517
0.122361
0.12027
0.117051
0.113755
0.112118
0.112498
0.114921
0.118303
0.120632
0.127562
0.126847
0.0358909
0.0362613
0.0366556
0.0370889
0.0375554
0.0380692
0.0386238
0.0392345
0.0398927
0.0406152
0.041389
0.0422327
0.0431267
0.0440917
0.0451011
0.0461752
0.0472843
0.0484459
0.0496301
0.0508522
0.0520856
0.0533433
0.0546057
0.0558861
0.057172
0.0584784
0.0598008
0.061149
0.0625197
0.0639113
0.0653312
0.0668017
0.0683693
0.0700967
0.0720207
0.0741551
0.076499
0.0790752
0.0819287
0.0851178
0.0887274
0.0928499
0.0975409
0.102794
0.108515
0.114455
0.120225
0.125227
0.128903
0.130725
0.130675
0.129343
0.127561
0.126826
0.127511
0.129764
0.13282
0.135023
0.141918
0.143432
0.0347882
0.035257
0.0357413
0.0362554
0.036792
0.0373646
0.0379658
0.0386108
0.0392924
0.0400283
0.0408092
0.0416556
0.0425533
0.0435245
0.0445489
0.045649
0.0467994
0.0480192
0.0492802
0.0505977
0.0519435
0.053328
0.0547267
0.0561478
0.0575717
0.0590073
0.060443
0.0618824
0.0633155
0.0647355
0.0661445
0.0675674
0.0690586
0.0706815
0.0724897
0.0744945
0.0767035
0.0791511
0.0818971
0.0850183
0.0886222
0.0928292
0.0977265
0.10334
0.109615
0.116352
0.123213
0.12964
0.135083
0.138971
0.141155
0.142046
0.142244
0.143
0.144566
0.147115
0.150029
0.151963
0.158584
0.160811
0.0337304
0.0342741
0.0348256
0.0353999
0.0359887
0.0366053
0.0372418
0.0379138
0.0386118
0.0393545
0.0401302
0.0409615
0.0418327
0.042771
0.0437556
0.0448154
0.0459269
0.0471159
0.0483571
0.0496709
0.0510309
0.0524499
0.0539029
0.0553971
0.0569092
0.0584445
0.0599856
0.0615305
0.0630624
0.0645664
0.0660405
0.0675043
0.0690111
0.0706346
0.0724197
0.0743863
0.0765456
0.0789418
0.0816463
0.0847513
0.0883816
0.092679
0.0977558
0.103663
0.110375
0.117739
0.125467
0.13305
0.139965
0.14563
0.14981
0.152764
0.154899
0.157213
0.15985
0.162883
0.165784
0.1674
0.173706
0.175481
0.0323239
0.0329337
0.0335516
0.0341911
0.0348428
0.0355181
0.036208
0.0369249
0.0376603
0.038429
0.0392215
0.0400568
0.040922
0.0418404
0.042796
0.0438153
0.0448798
0.0460155
0.0472026
0.0484641
0.0497791
0.0511641
0.0525979
0.0540905
0.0556202
0.0571924
0.0587885
0.0604037
0.0620168
0.0636081
0.065168
0.0667131
0.0682957
0.0699785
0.071815
0.0738178
0.0760029
0.0784199
0.0811477
0.0842884
0.0879768
0.0923672
0.0975887
0.103708
0.110723
0.118515
0.126843
0.13525
0.143252
0.150275
0.156027
0.160669
0.164448
0.168169
0.171828
0.175396
0.178364
0.179755
0.185798
0.186564
0.0310133
0.0316722
0.0323349
0.0330157
0.0337054
0.0344157
0.0351377
0.0358843
0.0366448
0.0374347
0.0382407
0.0390826
0.0399436
0.040849
0.0417787
0.0427619
0.0437783
0.0448574
0.0459796
0.0471723
0.0484167
0.049734
0.0511068
0.0525491
0.0540429
0.0555968
0.0571942
0.0588313
0.0604862
0.0621361
0.0637697
0.0653977
0.0670667
0.0688435
0.0707666
0.072852
0.0751133
0.0776021
0.0803998
0.0836128
0.0873792
0.0918569
0.0971838
0.103435
0.110624
0.118658
0.127339
0.136261
0.144981
0.152953
0.15986
0.165794
0.170889
0.175784
0.180376
0.184497
0.18764
0.188954
0.194872
0.194569
0.029415
0.030123
0.0308343
0.0315627
0.0322977
0.0330511
0.0338125
0.0345943
0.0353859
0.0362018
0.0370298
0.0378876
0.0387597
0.039668
0.040594
0.0415635
0.0425573
0.0436023
0.0446806
0.045819
0.0470016
0.0482515
0.0495548
0.0509298
0.0523626
0.0538663
0.0554282
0.0570482
0.0587061
0.0603808
0.0620583
0.0637496
0.0655003
0.0673645
0.0693868
0.0715723
0.0739342
0.0765229
0.079418
0.082726
0.0865823
0.0911409
0.0965426
0.102867
0.110135
0.118276
0.127127
0.136329
0.145485
0.154081
0.161791
0.168674
0.174786
0.180652
0.186057
0.190729
0.194135
0.19555
0.201469
0.200275
0.0277906
0.028537
0.0292835
0.0300449
0.0308107
0.0315935
0.0323828
0.033192
0.034009
0.0348492
0.0356973
0.0365727
0.037456
0.0383719
0.0392972
0.0402602
0.0412382
0.0422603
0.0433059
0.0444038
0.0455369
0.0467305
0.0479718
0.0492818
0.0506499
0.0520931
0.0536029
0.0551834
0.0568185
0.0584887
0.0601838
0.0619129
0.0637192
0.0656622
0.0677722
0.0700565
0.0725231
0.0752191
0.0782201
0.0816293
0.0855757
0.0902034
0.0956524
0.102005
0.109284
0.117436
0.126331
0.13565
0.145041
0.154028
0.162292
0.169874
0.176788
0.18346
0.189609
0.194846
0.198614
0.200281
0.206337
0.204536
0.0258109
0.026596
0.0273834
0.0281872
0.0289962
0.0298215
0.0306525
0.0315005
0.0323549
0.0332285
0.0341089
0.0350117
0.0359214
0.0368573
0.0378003
0.0387734
0.0397569
0.0407753
0.0418101
0.0428871
0.043991
0.045146
0.0463414
0.0475991
0.0489112
0.0502976
0.0517536
0.0532872
0.0548861
0.0565354
0.0582256
0.0599705
0.0618149
0.0638094
0.0659924
0.0683616
0.0709237
0.0737215
0.0768255
0.0803335
0.0843664
0.0890545
0.0945356
0.100893
0.108149
0.116267
0.12514
0.134487
0.144
0.153236
0.161889
0.170004
0.177565
0.184939
0.191766
0.197577
0.201771
0.203818
0.210101
0.207956
0.0239175
0.0247298
0.0255413
0.0263675
0.0271975
0.0280432
0.0288942
0.0297629
0.0306374
0.0315317
0.0324307
0.033352
0.0342764
0.0352263
0.0361787
0.0371591
0.0381447
0.039162
0.0401899
0.041255
0.0423405
0.0434707
0.0446346
0.0458546
0.0471239
0.0484641
0.0498733
0.0513624
0.0529231
0.054543
0.0562181
0.0579624
0.0598216
0.0618545
0.0640882
0.0665247
0.0691664
0.0720522
0.075247
0.0788426
0.0829504
0.0876876
0.0931892
0.0995371
0.106755
0.114815
0.123636
0.132968
0.142542
0.151949
0.160903
0.169454
0.17758
0.185588
0.193075
0.199485
0.20417
0.206687
0.213283
0.211021
0.0217697
0.0226127
0.0234551
0.0243119
0.0251713
0.0260453
0.0269226
0.0278154
0.0287123
0.0296268
0.0305456
0.0314849
0.0324278
0.033394
0.034363
0.0353571
0.0363553
0.0373809
0.0384138
0.0394785
0.0405584
0.0416768
0.0428227
0.0440188
0.0452586
0.046565
0.0479375
0.0493897
0.0509154
0.0525065
0.0541596
0.0558945
0.0577601
0.0598086
0.0620782
0.0645634
0.067267
0.0702246
0.073496
0.0771673
0.08134
0.0861204
0.0916406
0.0979806
0.105164
0.113174
0.121948
0.131265
0.140889
0.150443
0.159655
0.168595
0.177235
0.18585
0.193975
0.200995
0.206205
0.209257
0.216218
0.213992
0.0196033
0.0204688
0.0213311
0.0222063
0.0230828
0.0239731
0.0248663
0.0257756
0.0266882
0.0276192
0.0285524
0.0295064
0.030461
0.0314394
0.0324171
0.0334202
0.0344241
0.0354554
0.036491
0.037557
0.0386349
0.0397481
0.0408846
0.0420667
0.043288
0.0445716
0.0459179
0.0473419
0.0488396
0.0504041
0.052037
0.0537578
0.0556171
0.0576766
0.059965
0.0624836
0.0652325
0.0682451
0.071577
0.0753092
0.0795348
0.0843502
0.0898863
0.0962209
0.103379
0.111352
0.120094
0.12941
0.139093
0.148794
0.15826
0.167576
0.176721
0.185932
0.194706
0.202362
0.208133
0.211763
0.219142
0.217067
0.0170932
0.0179853
0.0188767
0.0197822
0.0206901
0.0216114
0.0225351
0.0234727
0.0244128
0.0253681
0.0263258
0.0273011
0.0282779
0.0292748
0.030272
0.0312908
0.0323107
0.033354
0.0344005
0.0354734
0.0365559
0.0376699
0.0388038
0.0399794
0.0411904
0.0424598
0.0437886
0.0451927
0.0466689
0.048213
0.049826
0.0515327
0.0533863
0.0554426
0.0577423
0.060281
0.0630611
0.0661146
0.0694937
0.0732759
0.0775469
0.0823953
0.0879513
0.0942923
0.101445
0.109408
0.11815
0.127499
0.137273
0.147145
0.156877
0.166576
0.176225
0.186038
0.19546
0.203761
0.21011
0.214347
0.222177
0.22031
0.0146504
0.0155591
0.0164646
0.0173829
0.0183024
0.0192352
0.0201703
0.0211202
0.0220724
0.0230409
0.0240102
0.0249978
0.0259843
0.0269919
0.0279968
0.0290242
0.0300503
0.0311006
0.0321525
0.0332309
0.0343174
0.035434
0.0365687
0.0377424
0.0389487
0.0402105
0.0415287
0.0429195
0.0443809
0.0459085
0.0475072
0.0492001
0.0510418
0.0530973
0.0553985
0.0579485
0.0607486
0.0638307
0.0672446
0.0710652
0.0753726
0.0802496
0.085827
0.0921826
0.0993451
0.107322
0.116093
0.125506
0.1354
0.145471
0.155494
0.165596
0.175767
0.186195
0.196287
0.205258
0.212207
0.217076
0.225397
0.22378
0.0119562
0.0128861
0.0138128
0.0147524
0.0156923
0.0166445
0.0175973
0.0185631
0.0195299
0.0205114
0.0214936
0.0224931
0.0234926
0.0245118
0.02553
0.026569
0.0276078
0.0286688
0.0297311
0.0308179
0.0319116
0.0330334
0.0341716
0.0353466
0.0365519
0.0378102
0.0391224
0.040505
0.0419559
0.0434725
0.045058
0.0467399
0.0485743
0.05062
0.052921
0.0554751
0.0582869
0.0613887
0.064829
0.0686813
0.0730214
0.077928
0.0835335
0.0899179
0.0971126
0.105131
0.113967
0.123483
0.133539
0.143844
0.154187
0.164715
0.175424
0.186483
0.197252
0.206901
0.214464
0.219982
0.228821
0.227461
0.00923576
0.0101788
0.0111163
0.0120655
0.0130138
0.0139742
0.014935
0.0159098
0.0168852
0.0178763
0.0188666
0.0198749
0.0208805
0.0219073
0.02293
0.0239751
0.0250178
0.0260842
0.0271508
0.0282428
0.029341
0.0304673
0.0316089
0.0327862
0.0339923
0.0352494
0.0365587
0.037936
0.0393803
0.040888
0.0424652
0.044137
0.0459603
0.0480019
0.050297
0.0528512
0.0556689
0.0587831
0.062242
0.0661186
0.070486
0.0754205
0.081057
0.0874786
0.0947206
0.102803
0.111729
0.121378
0.131626
0.142195
0.152888
0.163869
0.175143
0.186854
0.198325
0.208678
0.216874
0.223063
0.232457
0.231363
0.00617099
0.00713306
0.0080921
0.0090642
0.0100366
0.0110208
0.0120051
0.0130012
0.0139975
0.0150065
0.016015
0.0170385
0.0180608
0.0191004
0.0201377
0.0211938
0.0222486
0.0233239
0.0243996
0.0254981
0.0266025
0.0277332
0.0288785
0.0300581
0.0312653
0.0325223
0.0338297
0.0352038
0.0366428
0.0381448
0.0397134
0.0413776
0.0431947
0.0452252
0.0475156
0.0500664
0.0528856
0.0560078
0.059481
0.0633788
0.0677727
0.072738
0.0784129
0.0848847
0.092193
0.100364
0.109411
0.119226
0.129702
0.140571
0.151643
0.163104
0.174961
0.187343
0.199527
0.210592
0.219437
0.226315
0.23629
0.235452
0.00316851
0.00413986
0.00510591
0.00608402
0.0070616
0.00805088
0.00904045
0.010043
0.0110454
0.0120617
0.0130762
0.0141063
0.0151325
0.0161775
0.0172171
0.0182768
0.0193331
0.0204114
0.0214889
0.0225903
0.0236972
0.0248305
0.025978
0.0271593
0.0283674
0.0296241
0.0309302
0.0323014
0.0337367
0.0352328
0.0367962
0.0384524
0.0402596
0.0422852
0.0445669
0.0471127
0.0499305
0.0530567
0.0565398
0.0604544
0.0648718
0.0698675
0.0755838
0.0821127
0.0894988
0.0977752
0.106963
0.116969
0.127697
0.138891
0.150369
0.162335
0.174803
0.187878
0.200802
0.212607
0.222124
0.229717
0.240307
0.239725
-7.29639e-05
0.000912741
0.00189332
0.00288589
0.00387705
0.00487921
0.00587991
0.00689192
0.00790257
0.00892569
0.00994689
0.0109828
0.0120161
0.0130666
0.0141135
0.0151789
0.0162419
0.0173251
0.0184077
0.0195126
0.0206227
0.021758
0.0229071
0.024089
0.0252971
0.0265529
0.027857
0.0292253
0.0306562
0.0321477
0.0337037
0.0353534
0.0371545
0.0391684
0.0414431
0.0439816
0.0467957
0.0499235
0.0534147
0.0573452
0.0617872
0.066817
0.0725816
0.0791781
0.0866572
0.095058
0.104411
0.114635
0.125645
0.137193
0.149104
0.161601
0.174699
0.188486
0.202162
0.214719
0.224928
0.233257
0.244489
0.24415
-0.00333755
-0.00234556
-0.0013611
-0.000365725
0.000627221
0.00163099
0.00263327
0.00364796
0.00466086
0.00568744
0.00671041
0.00774896
0.00878214
0.00983409
0.0108794
0.0119446
0.0130054
0.0140881
0.015169
0.0162735
0.0173828
0.0185177
0.0196661
0.0208471
0.0220537
0.0233073
0.0246084
0.0259726
0.0273989
0.0288838
0.0304341
0.0320753
0.033866
0.0358733
0.0381372
0.0406675
0.0434759
0.0466029
0.0500992
0.0540431
0.0585077
0.0635719
0.0693871
0.0760565
0.0836365
0.0921742
0.101707
0.112167
0.123477
0.135402
0.147767
0.160818
0.174572
0.189096
0.203553
0.21689
0.227816
0.236913
0.248819
0.248725
-0.00694455
-0.00593916
-0.00493877
-0.00392624
-0.00291499
-0.00189345
-0.000873726
0.000155938
0.00118345
0.00222144
0.0032563
0.00430349
0.00534679
0.00640495
0.00745817
0.0085277
0.00959392
0.0106787
0.0117621
0.0128666
0.0139757
0.0151091
0.0162556
0.0174339
0.0186373
0.019887
0.0211834
0.0225423
0.0239618
0.0254402
0.0269811
0.028614
0.0303963
0.03239
0.034644
0.0371637
0.0399644
0.043089
0.0465895
0.0505468
0.0550358
0.0601382
0.06601
0.0727606
0.0804535
0.089143
0.0988744
0.109591
0.121228
0.133553
0.146399
0.160029
0.174458
0.189738
0.20499
0.219122
0.23079
0.240675
0.25328
0.253421
-0.0105024
-0.00949343
-0.00849168
-0.00747865
-0.00646764
-0.00544634
-0.00442669
-0.00339592
-0.00236763
-0.00132769
-0.000292551
0.000755747
0.00179728
0.00285514
0.00390488
0.00497232
0.00603412
0.00711604
0.00819527
0.00929667
0.0104022
0.0115321
0.0126748
0.0138488
0.0150475
0.0162916
0.0175818
0.0189331
0.0203448
0.0218133
0.0233455
0.0249665
0.0267355
0.0287187
0.0309585
0.033466
0.0362571
0.0393773
0.0428797
0.0468486
0.0513606
0.0565018
0.0624313
0.0692673
0.0770784
0.0859296
0.0958698
0.10686
0.118836
0.131583
0.144925
0.159153
0.174284
0.190348
0.206423
0.22138
0.233818
0.244527
0.257861
0.258242
-0.014301
-0.0132836
-0.0122731
-0.0112513
-0.0102324
-0.0092038
-0.0081785
-0.00714357
-0.00611227
-0.00507069
-0.00403375
-0.00298474
-0.00194104
-0.000882793
0.000169183
0.00123685
0.00230012
0.00338125
0.00445991
0.00555879
0.00666142
0.00778708
0.00892497
0.0100932
0.0112853
0.0125219
0.0138036
0.0151457
0.0165464
0.0180043
0.0195225
0.0211311
0.0228867
0.0248522
0.0270774
0.0295698
0.0323491
0.0354629
0.0389671
0.0429476
0.0474851
0.0526679
0.0586608
0.0655879
0.073528
0.0825518
0.0927182
0.103998
0.116337
0.129526
0.143394
0.158241
0.174092
0.190958
0.207874
0.223673
0.236907
0.24846
0.262546
0.263162
-0.0181348
-0.0171174
-0.0161092
-0.0150904
-0.0140753
-0.0130503
-0.0120284
-0.0109954
-0.00996641
-0.00892565
-0.00789115
-0.00684343
-0.00580388
-0.00474797
-0.0037016
-0.00263785
-0.00158103
-0.000504648
0.000567675
0.0016612
0.00275759
0.00387698
0.00500785
0.00616836
0.00735193
0.00857887
0.00984994
0.0111799
0.012568
0.0140108
0.0155151
0.0171059
0.0188429
0.0207918
0.0229975
0.0254726
0.028238
0.0313433
0.0348471
0.0388375
0.0433998
0.0486241
0.054681
0.0617023
0.0697758
0.0789799
0.0893804
0.100962
0.113677
0.127329
0.141737
0.15722
0.173817
0.191513
0.209298
0.225968
0.240028
0.252461
0.267328
0.268189
-0.0223177
-0.0212919
-0.0202724
-0.0192408
-0.0182113
-0.0171724
-0.0161366
-0.0150922
-0.0140518
-0.0130031
-0.0119598
-0.010907
-0.0098605
-0.00880219
-0.00775143
-0.00668774
-0.00562965
-0.00455605
-0.00348624
-0.00239833
-0.00130789
-0.000196483
0.000925755
0.00207633
0.00324899
0.00446393
0.00572166
0.00703721
0.00840893
0.00983527
0.0113194
0.0128916
0.014608
0.0165333
0.0187175
0.0211728
0.0239206
0.0270167
0.0305182
0.0345199
0.0391077
0.0443772
0.0505014
0.0576232
0.0658382
0.075233
0.0858823
0.0977813
0.110895
0.125028
0.140007
0.156147
0.173506
0.192052
0.210721
0.22828
0.243192
0.256525
0.272192
0.273299
-0.0264489
-0.0254248
-0.024409
-0.0233813
-0.0223563
-0.0213214
-0.0202892
-0.0192471
-0.0182091
-0.0171616
-0.0161212
-0.0150703
-0.0140289
-0.0129741
-0.0119304
-0.0108724
-0.00982264
-0.00875612
-0.00769513
-0.0066155
-0.00553442
-0.00443278
-0.00332126
-0.00218246
-0.00102264
0.000177996
0.00142018
0.00271823
0.00407163
0.00547656
0.00694023
0.00848714
0.0101785
0.0120794
0.0142376
0.0166693
0.0193983
0.0224816
0.0259795
0.0299893
0.0346018
0.0399156
0.0461082
0.0533328
0.0616933
0.0712852
0.08219
0.0944186
0.107941
0.12258
0.138141
0.154951
0.173098
0.19252
0.212102
0.230579
0.246373
0.260643
0.277138
0.278504
-0.0308045
-0.0297766
-0.0287564
-0.0277243
-0.0266954
-0.0256572
-0.0246231
-0.0235806
-0.0225432
-0.0214976
-0.0204589
-0.019411
-0.018371
-0.0173199
-0.0162779
-0.0152242
-0.0141778
-0.0131174
-0.0120626
-0.0109916
-0.00991996
-0.00882955
-0.00773035
-0.00660527
-0.00546058
-0.00427645
-0.0030526
-0.00177435
-0.000443382
0.00093852
0.00237481
0.00389591
0.00555912
0.00742761
0.00955916
0.0119635
0.0146713
0.0177392
0.0212323
0.0252493
0.0298877
0.0352475
0.0415126
0.0488451
0.0573591
0.0671569
0.0783313
0.0909037
0.104858
0.120018
0.136191
0.153695
0.172646
0.19296
0.213468
0.232881
0.249583
0.264807
0.282147
0.283777
-0.035186
-0.0341629
-0.0331498
-0.032125
-0.0311041
-0.0300733
-0.0290465
-0.0280095
-0.0269779
-0.0259366
-0.0249039
-0.023861
-0.0228291
-0.0217842
-0.0207523
-0.0197071
-0.0186722
-0.0176217
-0.0165791
-0.0155195
-0.0144608
-0.0133836
-0.012299
-0.0111897
-0.0100623
-0.00889717
-0.00769411
-0.00643907
-0.00513295
-0.0037795
-0.00237104
-0.000882437
0.000746598
0.00258584
0.00468296
0.0070592
0.00974116
0.0127917
0.0162754
0.0202976
0.0249586
0.0303646
0.0367019
0.0441454
0.0528154
0.0628258
0.0742756
0.0872036
0.101599
0.117303
0.1341
0.152314
0.172091
0.193322
0.214781
0.235158
0.252797
0.269013
0.287224
0.289135
-0.0399153
-0.0388867
-0.0378646
-0.0368295
-0.0357964
-0.0347542
-0.0337158
-0.0326702
-0.0316301
-0.0305841
-0.029546
-0.0285018
-0.027467
-0.0264244
-0.0253928
-0.024353
-0.0233223
-0.0222808
-0.021247
-0.0201998
-0.0191539
-0.0180921
-0.0170238
-0.0159326
-0.0148249
-0.0136813
-0.0125022
-0.0112732
-0.0099965
-0.00867332
-0.00729961
-0.00584486
-0.00425001
-0.00245008
-0.000385818
0.0019579
0.00461099
0.00764056
0.0111129
0.0151385
0.0198224
0.025276
0.0316893
0.0392483
0.0480819
0.058313
0.0700516
0.0833489
0.0982068
0.114468
0.131919
0.150868
0.171489
0.193647
0.21607
0.237428
0.256028
0.27325
0.29235
0.29455
-0.044582
-0.0435585
-0.0425432
-0.041515
-0.0404891
-0.0394536
-0.0384216
-0.037381
-0.0363464
-0.035305
-0.0342735
-0.0332353
-0.0322099
-0.0311755
-0.0301559
-0.029127
-0.0281103
-0.0270815
-0.0260623
-0.0250295
-0.0239994
-0.022954
-0.0219038
-0.0208323
-0.0197463
-0.018627
-0.0174747
-0.0162757
-0.0150311
-0.0137437
-0.0124055
-0.0109902
-0.0094357
-0.00767169
-0.00564637
-0.00333911
-0.000717695
0.00228621
0.00574369
0.00976835
0.0144732
0.0199726
0.0264631
0.034139
0.0431396
0.0535962
0.0656306
0.0793065
0.0946374
0.111475
0.129594
0.149293
0.170779
0.193888
0.217296
0.239662
0.259252
0.277519
0.297533
0.300044
-0.0494507
-0.0484281
-0.0474134
-0.0463855
-0.0453607
-0.0443267
-0.0432977
-0.0422616
-0.0412322
-0.0401973
-0.039172
-0.0381413
-0.0371217
-0.0360952
-0.0350818
-0.0340618
-0.0330528
-0.0320348
-0.0310266
-0.0300077
-0.0289926
-0.0279649
-0.0269341
-0.0258846
-0.0248232
-0.0237314
-0.0226098
-0.0214444
-0.0202367
-0.0189877
-0.0176919
-0.016318
-0.0148046
-0.0130867
-0.0111003
-0.0088321
-0.0062461
-0.00327014
0.000169703
0.00419257
0.0089178
0.0144651
0.0210356
0.028833
0.0380068
0.0486976
0.0610394
0.075108
0.0909286
0.108355
0.127168
0.147649
0.170018
0.194085
0.218488
0.241878
0.262481
0.281806
0.302751
0.305588
-0.0543773
-0.0533667
-0.0523644
-0.0513479
-0.0503334
-0.0493081
-0.0482865
-0.0472558
-0.0462321
-0.0452014
-0.0441824
-0.043157
-0.0421466
-0.0411279
-0.0401263
-0.0391168
-0.0381218
-0.037117
-0.0361247
-0.0351221
-0.0341254
-0.033118
-0.0321098
-0.0310858
-0.0300527
-0.0289928
-0.0279063
-0.0267796
-0.0256132
-0.0244091
-0.0231582
-0.0218323
-0.0203682
-0.0186913
-0.0167507
-0.0145235
-0.0119759
-0.00903146
-0.00561283
-0.00159493
0.0031485
0.00874286
0.0153934
0.0233137
0.0326634
0.0435933
0.0562488
0.0707186
0.0870379
0.105069
0.124591
0.145869
0.169143
0.194189
0.219608
0.244047
0.265694
0.286116
0.308019
0.311209
-0.0597249
-0.0586997
-0.0576766
-0.0566352
-0.0555939
-0.0545442
-0.0535008
-0.0524534
-0.0514155
-0.0503763
-0.0493506
-0.048324
-0.0473123
-0.0462977
-0.0452994
-0.0442993
-0.0433132
-0.042323
-0.0413459
-0.0403632
-0.0393881
-0.0384059
-0.0374253
-0.0364324
-0.0354333
-0.0344111
-0.0333656
-0.0322833
-0.0311649
-0.0300102
-0.0288122
-0.0275378
-0.0261219
-0.0244979
-0.0226008
-0.0204177
-0.0179111
-0.0150002
-0.0116038
-0.00759113
-0.00282884
0.00281442
0.00954796
0.0175949
0.0271264
0.0383038
0.0512839
0.066168
0.0830003
0.101649
0.121901
0.144011
0.168208
0.19424
0.220685
0.246189
0.268899
0.29043
0.313308
0.316875
-0.0643001
-0.0633176
-0.0623481
-0.0613656
-0.0603847
-0.0593918
-0.0584028
-0.057403
-0.0564106
-0.0554104
-0.054424
-0.0534309
-0.0524547
-0.0514714
-0.0505065
-0.0495363
-0.0485815
-0.0476202
-0.0466732
-0.0457201
-0.0447761
-0.0438266
-0.0428808
-0.0419257
-0.0409673
-0.0399893
-0.0389914
-0.0379601
-0.036895
-0.035797
-0.0346547
-0.0334378
-0.0320789
-0.0305022
-0.0286559
-0.0265196
-0.0240568
-0.0211821
-0.0178103
-0.0138049
-0.0090253
-0.00333388
0.00348264
0.0116572
0.0213732
0.0328024
0.0461133
0.0614193
0.0787729
0.0980514
0.119051
0.142007
0.167149
0.194188
0.221681
0.248276
0.272081
0.294761
0.318642
0.322618
-0.0697885
-0.0687864
-0.0677887
-0.0667756
-0.0657638
-0.0647457
-0.0637351
-0.0627219
-0.0617198
-0.0607173
-0.0597307
-0.0587446
-0.0577762
-0.0568067
-0.0558563
-0.0549064
-0.0539734
-0.0530389
-0.0521211
-0.0512013
-0.0502931
-0.0493828
-0.0484789
-0.0475689
-0.0466586
-0.0457319
-0.0447883
-0.0438141
-0.0428088
-0.0417713
-0.0406925
-0.039536
-0.0382338
-0.0367176
-0.0349221
-0.0328366
-0.0304197
-0.027582
-0.0242346
-0.0202355
-0.0154366
-0.00969488
-0.00279313
0.0055125
0.0154189
0.0271081
0.04076
0.0565002
0.0743883
0.0943094
0.116077
0.139912
0.166016
0.194071
0.222622
0.250324
0.275243
0.299084
0.323987
0.328405
-0.0744781
-0.0735144
-0.0725664
-0.0716096
-0.070657
-0.069696
-0.0687415
-0.0677794
-0.0668276
-0.0658708
-0.0649312
-0.0639879
-0.0630651
-0.0621384
-0.0612339
-0.0603274
-0.0594403
-0.0585497
-0.0576777
-0.0568033
-0.0559423
-0.0550802
-0.0542268
-0.0533695
-0.0525143
-0.0516454
-0.050762
-0.0498507
-0.0489097
-0.0479393
-0.046926
-0.045837
-0.0446014
-0.0431418
-0.0414058
-0.039374
-0.0370058
-0.0342073
-0.0308859
-0.0268942
-0.0220769
-0.0162857
-0.00929935
-0.000861738
0.00923781
0.0211915
0.0351904
0.0513722
0.0698033
0.0903795
0.112931
0.137658
0.164746
0.193841
0.223473
0.252309
0.278375
0.303419
0.329371
0.334271
-0.0801505
-0.0791585
-0.0781737
-0.0771787
-0.0761887
-0.0751979
-0.0742192
-0.0732434
-0.0722838
-0.071329
-0.0703956
-0.0694673
-0.0685621
-0.0676598
-0.0667818
-0.065908
-0.0650562
-0.0642061
-0.0633777
-0.0625509
-0.0617405
-0.0609321
-0.0601349
-0.0593363
-0.0585422
-0.0577368
-0.0569192
-0.0560754
-0.0552046
-0.0543046
-0.0533647
-0.0523461
-0.0511777
-0.0497883
-0.0481127
-0.0461387
-0.0438217
-0.0410631
-0.0377675
-0.0337821
-0.0289444
-0.0231016
-0.0160282
-0.00745456
0.00284423
0.0150704
0.0294263
0.0460617
0.065049
0.0862941
0.109651
0.135298
0.163389
0.193534
0.22426
0.254245
0.281475
0.307735
0.334755
0.340176
-0.0849255
-0.0839725
-0.0830411
-0.0821088
-0.0811869
-0.0802641
-0.0793538
-0.0784425
-0.0775472
-0.0766525
-0.0757804
-0.074909
-0.0740631
-0.0732166
-0.0723974
-0.0715792
-0.0707852
-0.0699908
-0.0692198
-0.06845
-0.0676983
-0.0669496
-0.0662142
-0.0654794
-0.0647512
-0.064014
-0.0632666
-0.0624955
-0.0616984
-0.0608747
-0.0600097
-0.0590684
-0.0579761
-0.0566543
-0.0550477
-0.0531357
-0.0508731
-0.0481572
-0.0448894
-0.040912
-0.0360553
-0.0301621
-0.0230019
-0.0142908
-0.00378985
0.00871332
0.0234326
0.0405297
0.0600829
0.0820099
0.106187
0.132767
0.161881
0.193103
0.22495
0.256112
0.284541
0.31206
0.340175
0.346159
-0.0906063
-0.0896485
-0.0887099
-0.0877718
-0.0868469
-0.0859263
-0.0850225
-0.0841229
-0.0832425
-0.0823669
-0.0815155
-0.0806695
-0.0798499
-0.0790342
-0.0782473
-0.0774668
-0.0767135
-0.075965
-0.0752437
-0.074528
-0.073834
-0.0731464
-0.0724754
-0.0718075
-0.071149
-0.0704838
-0.0698108
-0.0691159
-0.0683973
-0.0676524
-0.0668695
-0.0660075
-0.0649928
-0.0637519
-0.062216
-0.0603711
-0.0581662
-0.0554943
-0.0522548
-0.0482849
-0.0434081
-0.0374624
-0.0302125
-0.0213596
-0.0106502
0.00213804
0.0172307
0.0348018
0.0549347
0.0775595
0.102576
0.130117
0.160274
0.192585
0.225565
0.257921
0.287566
0.316359
0.345589
0.352176
-0.0962915
-0.0953343
-0.094397
-0.0934635
-0.0925446
-0.091633
-0.0907414
-0.0898577
-0.0889983
-0.0881477
-0.0873282
-0.0865166
-0.0857387
-0.0849663
-0.0842291
-0.0834987
-0.0828001
-0.0821063
-0.0814432
-0.0807867
-0.0801549
-0.0795315
-0.0789275
-0.0783293
-0.0777432
-0.0771532
-0.0765576
-0.0759428
-0.0753055
-0.074645
-0.0739451
-0.0731697
-0.0722414
-0.071079
-0.0696228
-0.067849
-0.0657057
-0.0630815
-0.0598733
-0.0559137
-0.0510189
-0.0450224
-0.037683
-0.0286869
-0.017766
-0.00468767
0.0107853
0.0288395
0.0495635
0.0728998
0.0987719
0.127285
0.158506
0.191935
0.226078
0.259656
0.290553
0.320663
0.351037
0.35827
-0.10218
-0.101236
-0.100313
-0.0993944
-0.0984925
-0.0976
-0.0967296
-0.0958693
-0.0950344
-0.0942105
-0.0934175
-0.0926361
-0.091888
-0.0911496
-0.0904471
-0.0897569
-0.0891009
-0.0884555
-0.0878442
-0.0872445
-0.0866734
-0.0861146
-0.085579
-0.0850524
-0.0845411
-0.0840289
-0.083514
-0.0829821
-0.0824308
-0.0818567
-0.0812472
-0.08056
-0.0797192
-0.0786474
-0.0772724
-0.0755746
-0.0734967
-0.0709227
-0.0677472
-0.0637984
-0.0588852
-0.0528363
-0.0454045
-0.0362608
-0.0251219
-0.0117454
0.00411839
0.0226684
0.0439984
0.0680639
0.0948124
0.124326
0.156631
0.19119
0.226508
0.261326
0.293491
0.324934
0.356473
0.364388
-0.10805
-0.107128
-0.10623
-0.105338
-0.104465
-0.103601
-0.102762
-0.101933
-0.101132
-0.100344
-0.0995927
-0.0988529
-0.0981526
-0.0974621
-0.0968131
-0.0961761
-0.0955776
-0.0949893
-0.0944387
-0.0939006
-0.0933944
-0.0929028
-0.0924378
-0.091985
-0.0915508
-0.0911188
-0.0906872
-0.0902418
-0.0897788
-0.0892963
-0.0887774
-0.0881848
-0.0874381
-0.0864544
-0.0851685
-0.0835512
-0.0815434
-0.0790242
-0.0758857
-0.0719515
-0.0670229
-0.0609237
-0.0534001
-0.0441077
-0.0327476
-0.0190674
-0.00280494
0.0162513
0.0382007
0.0630096
0.0906517
0.121177
0.15459
0.190309
0.226834
0.262922
0.296392
0.32921
0.361943
0.370578
-0.114205
-0.113304
-0.112429
-0.111562
-0.110716
-0.109882
-0.109074
-0.108279
-0.107513
-0.106761
-0.106045
-0.105343
-0.104679
-0.104029
-0.10342
-0.102829
-0.102277
-0.101742
-0.101247
-0.100769
-0.100328
-0.0999043
-0.0995115
-0.0991343
-0.0987793
-0.09843
-0.0980844
-0.0977276
-0.0973564
-0.0969665
-0.0965444
-0.0960464
-0.095395
-0.0945108
-0.0933153
-0.0917838
-0.0898503
-0.0873891
-0.08429
-0.0803718
-0.0754281
-0.0692775
-0.0616598
-0.0522141
-0.0406266
-0.0266339
-0.00996213
0.0096143
0.0321987
0.057772
0.086328
0.117896
0.152434
0.189327
0.227072
0.264446
0.299239
0.333449
0.367398
0.376783
-0.120425
-0.119547
-0.118698
-0.117859
-0.117042
-0.11624
-0.115465
-0.114706
-0.113979
-0.113268
-0.112598
-0.111944
-0.111334
-0.110738
-0.110188
-0.109655
-0.109166
-0.108692
-0.108262
-0.10785
-0.107477
-0.107125
-0.106806
-0.106507
-0.106233
-0.105968
-0.10571
-0.105445
-0.105166
-0.104874
-0.104548
-0.104151
-0.103601
-0.102813
-0.101716
-0.100275
-0.0984209
-0.0960232
-0.0929688
-0.0890714
-0.0841163
-0.0779174
-0.0702067
-0.0606071
-0.0487883
-0.0344774
-0.0173868
0.00272126
0.025957
0.0523087
0.0817981
0.114422
0.15011
0.188208
0.227205
0.265897
0.302051
0.337693
0.372885
0.38305
-0.126943
-0.126089
-0.125264
-0.124452
-0.123665
-0.122895
-0.122155
-0.121433
-0.120744
-0.120073
-0.119443
-0.118831
-0.118262
-0.117711
-0.117206
-0.116723
-0.116286
-0.115869
-0.115499
-0.115153
-0.114848
-0.114568
-0.114325
-0.114105
-0.113914
-0.113735
-0.113567
-0.113395
-0.113213
-0.113018
-0.112795
-0.112499
-0.112052
-0.111372
-0.110375
-0.109029
-0.107259
-0.104929
-0.101923
-0.0980482
-0.0930826
-0.0868349
-0.0790293
-0.0692714
-0.057215