/*--------------------------------*- C++ -*----------------------------------*\
  =========                 |
  \\      /  F ield         | OpenFOAM: The Open Source CFD Toolbox
   \\    /   O peration     | Website:  https://openfoam.org
    \\  /    A nd           | Version:  6.0
     \\/     M anipulation  |
\*---------------------------------------------------------------------------*/
FoamFile
{
    version     2.0;
    format      ascii;
    class       surfaceScalarField;
    location    "9";
    object      phi;
}
// * * * * * * * * * * * * * * * * * * * * * * * * * * * * * * * * * * * * * //

dimensions      [0 3 -1 0 0 0 0];

internalField   nonuniform List<scalar> 
123526
(
-0.000107203
2.20063e-05
0.000107511
-0.000106817
2.38055e-05
-0.00010642
2.57524e-05
-0.000105971
2.78587e-05
-0.000105499
3.01376e-05
-0.00010497
3.26033e-05
-0.000104408
3.52714e-05
-0.000103781
3.81588e-05
-0.000103114
4.1283e-05
-0.000102367
4.46644e-05
-0.000101573
4.83259e-05
-0.000100685
5.22904e-05
-9.97408e-05
5.65842e-05
-9.86858e-05
6.12328e-05
-9.75596e-05
6.62684e-05
-9.63105e-05
7.17286e-05
-9.49781e-05
7.76468e-05
-9.35026e-05
8.40548e-05
-9.19208e-05
9.10052e-05
-9.01875e-05
9.8546e-05
-8.8323e-05
0.000106715
-8.62796e-05
0.000115575
-8.40901e-05
0.000125195
-8.16877e-05
0.000135612
-7.91082e-05
0.000146929
-7.62934e-05
0.000159201
-7.32575e-05
0.000172513
-6.99568e-05
0.000186967
-6.63881e-05
0.000202636
-6.25138e-05
0.000219656
-5.83221e-05
0.000238103
-5.37835e-05
0.00025813
-4.88896e-05
0.000279835
-4.36051e-05
0.000303366
-3.78954e-05
0.000328864
-3.17079e-05
0.000356452
-2.50301e-05
0.000386311
-1.78215e-05
0.000418568
-1.00366e-05
0.000453367
-1.63814e-06
0.000490858
7.43591e-06
0.000531141
1.72709e-05
0.00057429
2.79468e-05
0.000620362
3.9559e-05
0.000669329
5.22158e-05
0.000721068
6.60189e-05
0.000775332
8.10635e-05
0.000831716
9.73723e-05
0.000889626
0.000114935
0.000948247
0.000133601
0.00100651
0.000153211
0.001063
0.000173534
0.00111576
0.000194423
0.00116194
0.000215827
0.00119741
0.000237541
0.00121631
0.000259503
0.00121076
0.000281215
0.00117072
0.000301874
0.00108458
0.000320907
0.000925038
0.000654425
0.0003168
-0.000104692
2.16368e-05
0.000105026
-0.000104297
2.34123e-05
-0.0001039
2.53346e-05
-0.000103457
2.74156e-05
-0.000103006
2.96679e-05
-0.000102507
3.21054e-05
-0.000101995
3.47431e-05
-0.000101429
3.75971e-05
-0.000100844
4.06833e-05
-0.000100194
4.40215e-05
-9.95168e-05
4.76343e-05
-9.87585e-05
5.15432e-05
-9.79635e-05
5.57733e-05
-9.70658e-05
6.03469e-05
-9.61114e-05
6.52967e-05
-9.50374e-05
7.06641e-05
-9.38872e-05
7.64788e-05
-9.25923e-05
8.27654e-05
-9.11892e-05
8.95855e-05
-8.963e-05
9.69887e-05
-8.79296e-05
0.000105
-8.60453e-05
0.000113691
-8.39989e-05
0.000123136
-8.17367e-05
0.000133348
-7.92782e-05
0.00014446
-7.65844e-05
0.000156504
-7.36494e-05
0.000169569
-7.04523e-05
0.000183764
-6.69675e-05
0.000199143
-6.31806e-05
0.000215864
-5.90553e-05
0.000233976
-5.45834e-05
0.000253653
-4.97418e-05
0.000274975
-4.45002e-05
0.000298096
-3.88231e-05
0.000323158
-3.26567e-05
0.000350261
-2.59853e-05
0.000379617
-1.87671e-05
0.000411324
-1.09557e-05
0.000445527
-2.51519e-06
0.000482386
6.61685e-06
0.000521974
1.65272e-05
0.000564343
2.72909e-05
0.000609559
3.89873e-05
0.000657591
5.16991e-05
0.000708314
6.54935e-05
0.000761493
8.04233e-05
0.000816753
9.64704e-05
0.000873548
0.000113598
0.000931131
0.000131658
0.000988483
0.000150539
0.00104425
0.000170083
0.00109641
0.000190223
0.00114206
0.000210992
0.00117709
0.000232247
0.00119558
0.000253942
0.00118988
0.000275433
0.00114997
0.000296035
0.00106504
0.000309298
0.000912616
0.00066205
0.000303208
-0.000103985
2.12504e-05
0.00010434
-0.000103561
2.29907e-05
-0.000103122
2.48767e-05
-0.000102625
2.69205e-05
-0.000102111
2.91351e-05
-0.000101537
3.15347e-05
-0.000100945
3.41344e-05
-0.000100294
3.69504e-05
-9.96247e-05
3.99974e-05
-9.88927e-05
4.32949e-05
-9.81422e-05
4.68656e-05
-9.73215e-05
5.07293e-05
-9.64788e-05
5.491e-05
-9.55511e-05
5.9426e-05
-9.45867e-05
6.431e-05
-9.3523e-05
6.96061e-05
-9.24053e-05
7.53394e-05
-9.11627e-05
8.15261e-05
-8.98331e-05
8.82359e-05
-8.83633e-05
9.55193e-05
-8.67688e-05
0.000103388
-8.50013e-05
0.000111921
-8.30814e-05
0.000121201
-8.09516e-05
0.000131214
-7.86285e-05
0.000142123
-7.60724e-05
0.00015394
-7.32729e-05
0.000166757
-7.02109e-05
0.000180692
-6.68558e-05
0.000195777
-6.31949e-05
0.000212195
-5.91876e-05
0.000229965
-5.48263e-05
0.000249285
-5.00843e-05
0.000270214
-4.4934e-05
0.000292914
-3.93362e-05
0.00031753
-3.32371e-05
0.000344137
-2.66184e-05
0.000372974
-1.94353e-05
0.000404115
-1.16397e-05
0.000437703
-3.19405e-06
0.00047391
5.95878e-06
0.00051279
1.58942e-05
0.000554377
2.66728e-05
0.000598749
3.83528e-05
0.00064588
5.09896e-05
0.000695647
6.46196e-05
0.000747833
7.92671e-05
0.000802086
9.48994e-05
0.000857893
0.000111487
0.000914543
0.000128924
0.000971042
0.000147165
0.00102602
0.000166132
0.00107744
0.000185811
0.00112234
0.000206262
0.00115663
0.000227334
0.00117433
0.000248951
0.0011682
0.000270264
0.00112823
0.00029091
0.00104414
0.0003044
0.000898395
0.000662047
0.00030328
-0.000104421
2.08722e-05
0.000104783
-0.000103995
2.25727e-05
-0.000103547
2.44154e-05
-0.000103032
2.64127e-05
-0.000102488
2.8578e-05
-0.000101873
3.09261e-05
-0.000101223
3.34727e-05
-0.000100499
3.62348e-05
-9.97403e-05
3.92267e-05
-9.89026e-05
4.24689e-05
-9.80345e-05
4.59848e-05
-9.70844e-05
4.97938e-05
-9.61084e-05
5.39192e-05
-9.50436e-05
5.83763e-05
-9.39476e-05
6.31977e-05
-9.27592e-05
6.84303e-05
-9.15313e-05
7.40943e-05
-9.01945e-05
8.01973e-05
-8.87918e-05
8.68159e-05
-8.72701e-05
9.40006e-05
-8.56478e-05
0.000101749
-8.38749e-05
0.000110147
-8.19723e-05
0.000119282
-7.988e-05
0.000129117
-7.76132e-05
0.000139841
-7.51292e-05
0.000151447
-7.24153e-05
0.00016403
-6.94498e-05
0.000177715
-6.61985e-05
0.000192514
-6.26481e-05
0.000208634
-5.87533e-05
0.000226066
-5.45065e-05
0.000245031
-4.98818e-05
0.000265567
-4.48448e-05
0.000287848
-3.93607e-05
0.000312016
-3.33725e-05
0.000338124
-2.68609e-05
0.000366439
-1.97798e-05
0.000397009
-1.20793e-05
0.000429975
-3.72077e-06
0.000465522
5.34747e-06
0.000503689
1.51868e-05
0.000544502
2.58451e-05
0.000588052
3.73667e-05
0.000634316
4.97912e-05
0.000683175
6.31405e-05
0.000734427
7.74296e-05
0.000787737
9.263e-05
0.000842617
0.000108734
0.000898373
0.000125674
0.000954012
0.000143466
0.00100817
0.000162072
0.00105874
0.000181513
0.00110279
0.000201835
0.00113625
0.000222852
0.00115323
0.000244442
0.00114666
0.000265597
0.00110701
0.000286224
0.00102362
0.000301595
0.000882912
0.000659249
0.00030452
-0.000104574
2.05117e-05
0.000104907
-0.000104175
2.21761e-05
-0.000103755
2.39784e-05
-0.000103271
2.59306e-05
-0.000102756
2.80461e-05
-0.000102167
3.03398e-05
-0.000101536
3.28276e-05
-0.000100824
3.55271e-05
-0.000100064
3.84525e-05
-9.92142e-05
4.16251e-05
-9.83154e-05
4.507e-05
-9.73206e-05
4.88068e-05
-9.62791e-05
5.28595e-05
-9.51357e-05
5.72412e-05
-9.39437e-05
6.1986e-05
-9.26501e-05
6.71442e-05
-9.13076e-05
7.27325e-05
-8.98548e-05
7.87501e-05
-8.83374e-05
8.52808e-05
-8.67085e-05
9.23746e-05
-8.49905e-05
0.000100015
-8.31371e-05
0.000108293
-8.11726e-05
0.000117303
-7.9038e-05
0.000126978
-7.67499e-05
0.000137539
-7.42649e-05
0.000148955
-7.157e-05
0.000161322
-6.86414e-05
0.000174775
-6.54438e-05
0.000189305
-6.19605e-05
0.000205141
-5.81464e-05
0.000222247
-5.39921e-05
0.000240868
-4.94666e-05
0.000261023
-4.4541e-05
0.000282891
-3.91723e-05
0.00030662
-3.33063e-05
0.000332235
-2.69226e-05
0.000360033
-1.99744e-05
0.000390038
-1.24114e-05
0.000422387
-4.19433e-06
0.000457278
4.72361e-06
0.000494744
1.43934e-05
0.000534805
2.48543e-05
0.000577563
3.61431e-05
0.000622998
4.82932e-05
0.000670998
6.13227e-05
0.000721368
7.52481e-05
0.000773788
9.00534e-05
0.00082778
0.000105751
0.000882655
0.000122311
0.000937414
0.000139782
0.000990663
0.000158152
0.0010403
0.000177456
0.00108335
0.000197714
0.00111585
0.000218693
0.00113194
0.000240238
0.00112488
0.000261239
0.00108546
0.000281684
0.00100276
0.000298173
0.000865599
0.000652289
0.00030397
-0.000104055
2.01717e-05
0.000104378
-0.000103678
2.1806e-05
-0.000103287
2.35743e-05
-0.000102839
2.54882e-05
-0.000102366
2.75606e-05
-0.000101826
2.98058e-05
-0.000101249
3.22396e-05
-0.000100594
3.48795e-05
-9.98914e-05
3.77389e-05
-9.90952e-05
4.08397e-05
-9.82446e-05
4.42082e-05
-9.72881e-05
4.78642e-05
-9.62742e-05
5.18324e-05
-9.51427e-05
5.61246e-05
-9.39476e-05
6.07765e-05
-9.26337e-05
6.58433e-05
-9.12551e-05
7.13389e-05
-8.97514e-05
7.72556e-05
-8.81711e-05
8.36855e-05
-8.64707e-05
9.06791e-05
-8.46763e-05
9.82058e-05
-8.27465e-05
0.000106364
-8.07093e-05
0.000115252
-7.85105e-05
0.000124777
-7.61697e-05
0.000135186
-7.36463e-05
0.000146425
-7.09291e-05
0.000158592
-6.79952e-05
0.00017183
-6.48095e-05
0.000186108
-6.1356e-05
0.000201678
-5.75879e-05
0.000218475
-5.34952e-05
0.000236768
-4.90497e-05
0.000256555
-4.42131e-05
0.000278027
-3.89482e-05
0.000301327
-3.31972e-05
0.000326463
-2.69401e-05
0.000353756
-2.01303e-05
0.000383207
-1.27176e-05
0.00041495
-4.66331e-06
0.000449197
4.07633e-06
0.000485974
1.35461e-05
0.000525303
2.37802e-05
0.000567293
3.48129e-05
0.000611925
4.66761e-05
0.000659088
5.93902e-05
0.000708597
7.29775e-05
0.000760139
8.74362e-05
0.000813241
0.000102798
0.000867213
0.000119056
0.000921043
0.000136285
0.00097333
0.000154483
0.00102195
0.000173684
0.00106397
0.00019388
0.00109548
0.000214802
0.0011108
0.000236249
0.00110327
0.000257093
0.00106436
0.00027719
0.000982494
0.000293886
0.000848541
0.000644374
0.000301529
-0.000103085
1.98431e-05
0.000103392
-0.000102724
2.14503e-05
-0.000102353
2.31888e-05
-0.00010193
2.50694e-05
-0.000101487
2.71045e-05
-0.000100984
2.93079e-05
-0.000100451
3.16948e-05
-9.98474e-05
3.4282e-05
-9.92025e-05
3.70819e-05
-9.84716e-05
4.01162e-05
-9.76888e-05
4.34118e-05
-9.68037e-05
4.69881e-05
-9.58575e-05
5.08703e-05
-9.47918e-05
5.50683e-05
-9.36528e-05
5.96201e-05
-9.23861e-05
6.45853e-05
-9.10401e-05
6.99759e-05
-8.95558e-05
7.57783e-05
-8.79793e-05
8.20932e-05
-8.62687e-05
8.89729e-05
-8.44515e-05
9.63744e-05
-8.24888e-05
0.000104403
-8.04119e-05
0.000113162
-7.81703e-05
0.000122533
-7.57873e-05
0.00013279
-7.3226e-05
0.000143858
-7.04787e-05
0.000155834
-6.7525e-05
0.000168867
-6.43327e-05
0.000182905
-6.08865e-05
0.000198223
-5.71427e-05
0.000214726
-5.30914e-05
0.000232709
-4.87e-05
0.000252147
-4.39375e-05
0.000273235
-3.87589e-05
0.000296123
-3.31103e-05
0.000320795
-2.69707e-05
0.000347598
-2.0294e-05
0.00037651
-1.30308e-05
0.000407666
-5.14351e-06
0.000441287
3.40991e-06
0.000477397
1.26719e-05
0.000516017
2.26748e-05
0.000557266
3.3453e-05
0.000601123
4.50404e-05
0.000647478
5.74622e-05
0.000696151
7.07487e-05
0.000746834
8.49115e-05
0.000799053
9.99967e-05
0.000852114
0.000116016
0.000904995
0.000133054
0.000956269
0.000151113
0.00100384
0.000170216
0.00104476
0.00019033
0.00107526
0.000211151
0.00108972
0.000232442
0.00108177
0.000253094
0.00104323
0.000272754
0.000962493
0.000289161
0.00083144
0.000634731
0.00029785
-0.00010186
1.95242e-05
0.000102166
-0.000101507
2.11063e-05
-0.000101146
2.28174e-05
-0.000100737
2.46679e-05
-0.000100312
2.66698e-05
-9.98338e-05
2.88363e-05
-9.93302e-05
3.11821e-05
-9.8763e-05
3.37235e-05
-9.81619e-05
3.64713e-05
-9.74811e-05
3.94468e-05
-9.67564e-05
4.26771e-05
-9.59348e-05
4.61807e-05
-9.50589e-05
4.99823e-05
-9.40656e-05
5.40899e-05
-9.30014e-05
5.85426e-05
-9.18073e-05
6.34045e-05
-9.05306e-05
6.86852e-05
-8.91083e-05
7.43657e-05
-8.75845e-05
8.05557e-05
-8.59156e-05
8.73097e-05
-8.41277e-05
9.45735e-05
-8.21825e-05
0.00010246
-8.01116e-05
0.000111079
-7.78668e-05
0.000120288
-7.54738e-05
0.000130386
-7.28989e-05
0.000141278
-7.01374e-05
0.000153062
-6.71727e-05
0.000165893
-6.39753e-05
0.000179698
-6.05339e-05
0.000194773
-5.6806e-05
0.000210996
-5.27832e-05
0.00022868
-4.84381e-05
0.00024778
-4.3732e-05
0.000268504
-3.86278e-05
0.000290995
-3.30687e-05
0.000315217
-2.70352e-05
0.000341548
-2.04821e-05
0.000369939
-1.33607e-05
0.000400524
-5.63532e-06
0.000433538
2.73586e-06
0.000469
1.17956e-05
0.000506928
2.15767e-05
0.000547453
3.21158e-05
0.000590547
4.34502e-05
0.000636101
5.56112e-05
0.000683937
6.8637e-05
0.00073375
8.25504e-05
0.000785063
9.7408e-05
0.000837178
0.000113231
0.000889061
0.00013011
0.000939285
0.000148042
0.000985753
0.000167037
0.00102559
0.000187032
0.00105508
0.000207707
0.00106882
0.000228778
0.0010605
0.000249196
0.00102253
0.000268386
0.000943068
0.000284349
0.000815082
0.000625111
0.00029362
-0.000100509
1.92095e-05
0.000100802
-0.000100165
2.07668e-05
-9.98131e-05
2.24511e-05
-9.94149e-05
2.42727e-05
-9.90011e-05
2.62432e-05
-9.85365e-05
2.83754e-05
-9.80487e-05
3.06836e-05
-9.75036e-05
3.31835e-05
-9.69277e-05
3.58844e-05
-9.62815e-05
3.88073e-05
-9.55957e-05
4.19792e-05
-9.48238e-05
4.54174e-05
-9.40015e-05
4.9146e-05
-9.30724e-05
5.31701e-05
-9.20751e-05
5.753e-05
-9.09549e-05
6.22932e-05
-8.97519e-05
6.74671e-05
-8.84053e-05
7.30264e-05
-8.69534e-05
7.90899e-05
-8.53524e-05
8.57138e-05
-8.36251e-05
9.28336e-05
-8.17325e-05
0.00010057
-7.97044e-05
0.000109039
-7.74935e-05
0.000118076
-7.51253e-05
0.000128007
-7.25679e-05
0.000138716
-6.98191e-05
0.000150303
-6.68642e-05
0.00016293
-6.36777e-05
0.000176503
-6.025e-05
0.000191339
-5.65433e-05
0.000207286
-5.25511e-05
0.000224681
-4.82437e-05
0.000243458
-4.35917e-05
0.000263824
-3.85522e-05
0.000285933
-3.30736e-05
0.000309722
-2.71363e-05
0.000335595
-2.06965e-05
0.000363482
-1.37069e-05
0.000393516
-6.1331e-06
0.000425945
2.06662e-06
0.00046078
1.09372e-05
0.000498038
2.05136e-05
0.000537856
3.08355e-05
0.000580205
4.19443e-05
0.000624974
5.38773e-05
0.000671986
6.66795e-05
0.000720935
8.03826e-05
0.000771343
9.50492e-05
0.000822506
0.000110706
0.000873387
0.00012744
0.000922544
0.000145242
0.000967923
0.000164106
0.00100667
0.000183944
0.00103517
0.000204422
0.00104816
0.000225221
0.00103956
0.000245355
0.00100205
0.000264083
0.000924103
0.000279622
0.000799022
0.000614802
0.000289217
-9.90719e-05
1.89018e-05
9.93661e-05
-9.87327e-05
2.04349e-05
-9.83855e-05
2.20932e-05
-9.7994e-05
2.38867e-05
-9.75877e-05
2.5827e-05
-9.71331e-05
2.79266e-05
-9.66574e-05
3.01992e-05
-9.61269e-05
3.26605e-05
-9.55695e-05
3.53183e-05
-9.49451e-05
3.81932e-05
-9.42872e-05
4.13122e-05
-9.3548e-05
4.46913e-05
-9.27667e-05
4.83538e-05
-9.18844e-05
5.23019e-05
-9.09426e-05
5.65762e-05
-8.98843e-05
6.12475e-05
-8.87499e-05
6.63201e-05
-8.74765e-05
7.17626e-05
-8.61008e-05
7.77018e-05
-8.4577e-05
8.41959e-05
-8.29251e-05
9.11699e-05
-8.11048e-05
9.87525e-05
-7.91432e-05
0.000107067
-7.69925e-05
0.000115925
-7.4677e-05
0.000125682
-7.21652e-05
0.0001362
-6.94554e-05
0.000147585
-6.65347e-05
0.000160002
-6.33792e-05
0.00017334
-5.99829e-05
0.000187936
-5.63088e-05
0.00020361
-5.23531e-05
0.000220721
-4.8092e-05
0.000239177
-4.34905e-05
0.0002592
-3.85145e-05
0.000280935
-3.31111e-05
0.000304303
-2.7263e-05
0.000329733
-2.09276e-05
0.000357132
-1.40594e-05
0.00038663
-6.62527e-06
0.000418491
1.41681e-06
0.000452714
1.01147e-05
0.000489314
1.95062e-05
0.000528435
2.96344e-05
0.000570042
4.05447e-05
0.000614023
5.22794e-05
0.000660201
6.48888e-05
0.000708271
7.84106e-05
0.000757749
9.29102e-05
0.000807932
0.000108415
0.000857779
0.000125006
0.000905854
0.000142665
0.000950127
0.000161369
0.000987809
0.000181009
0.00101537
0.000201245
0.00102772
0.000221725
0.00101889
0.000241535
0.000981983
0.000259821
0.000905592
0.000275007
0.000783481
0.000604691
0.000284793
-9.75933e-05
1.85981e-05
9.78798e-05
-9.72601e-05
2.01071e-05
-9.69183e-05
2.17396e-05
-9.65326e-05
2.35054e-05
-9.61323e-05
2.54158e-05
-9.56843e-05
2.74834e-05
-9.52159e-05
2.97216e-05
-9.4695e-05
3.21456e-05
-9.41487e-05
3.47624e-05
-9.35399e-05
3.75919e-05
-9.29001e-05
4.06615e-05
-9.21856e-05
4.39858e-05
-9.14321e-05
4.75875e-05
-9.05862e-05
5.14657e-05
-8.96853e-05
5.56613e-05
-8.86768e-05
6.0248e-05
-8.75973e-05
6.52268e-05
-8.63869e-05
7.05596e-05
-8.50788e-05
7.63809e-05
-8.3628e-05
8.27503e-05
-8.20516e-05
8.95819e-05
-8.03083e-05
9.7012e-05
-7.84227e-05
0.000105171
-7.6346e-05
0.000113848
-7.41003e-05
0.000123426
-7.16536e-05
0.00013375
-6.90037e-05
0.000144926
-6.61378e-05
0.00015713
-6.30337e-05
0.000170228
-5.96853e-05
0.000184582
-5.60596e-05
0.000199982
-5.2154e-05
0.000216809
-4.79428e-05
0.000234952
-4.34006e-05
0.000254633
-3.84888e-05
0.000276003
-3.31599e-05
0.000298959
-2.73973e-05
0.000323958
-2.11604e-05
0.000350881
-1.44052e-05
0.00037986
-7.09977e-06
0.000411169
7.98322e-07
0.000444799
9.33974e-06
0.000480755
1.85653e-05
0.000519192
2.85212e-05
0.00056007
3.92561e-05
0.000603274
5.08163e-05
0.000648627
6.32556e-05
0.000695823
7.66156e-05
0.000744378
9.09613e-05
0.000793588
0.000106319
0.000842414
0.000122759
0.000889421
0.000140257
0.000932626
0.000158771
0.000969271
0.000178176
0.000995941
0.00019813
0.00100766
0.000218258
0.000998669
0.00023771
0.000962284
0.000255578
0.000887573
0.000270476
0.000768202
0.000594277
0.000280362
-9.60824e-05
1.83006e-05
9.63698e-05
-9.57529e-05
1.97861e-05
-9.54156e-05
2.13931e-05
-9.50353e-05
2.31316e-05
-9.46409e-05
2.50128e-05
-9.41999e-05
2.70489e-05
-9.37396e-05
2.92535e-05
-9.32273e-05
3.16413e-05
-9.26914e-05
3.42183e-05
-9.20936e-05
3.70045e-05
-9.14678e-05
4.00271e-05
-9.07691e-05
4.33e-05
-9.00368e-05
4.68447e-05
-8.92153e-05
5.06577e-05
-8.83457e-05
5.47801e-05
-8.73738e-05
5.92883e-05
-8.63388e-05
6.41796e-05
-8.51794e-05
6.94095e-05
-8.39296e-05
7.51193e-05
-8.25433e-05
8.13699e-05
-8.10368e-05
8.80643e-05
-7.93679e-05
9.53461e-05
-7.7559e-05
0.000103352
-7.55604e-05
0.00011185
-7.33922e-05
0.000121249
-7.10214e-05
0.000131376
-6.84445e-05
0.000142341
-6.56485e-05
0.000154327
-6.26106e-05
0.000167184
-5.93265e-05
0.000181292
-5.57624e-05
0.000196418
-5.19173e-05
0.000212961
-4.77706e-05
0.000230788
-4.32915e-05
0.000250133
-3.84499e-05
0.000271142
-3.31974e-05
0.000293694
-2.75197e-05
0.000318269
-2.13778e-05
0.000344727
-1.47294e-05
0.000373197
-7.5437e-06
0.000403965
2.22462e-07
0.000437013
8.62165e-06
0.000472332
1.76973e-05
0.00051009
2.74985e-05
0.000550237
3.80761e-05
0.000592659
4.94792e-05
0.000637178
6.17634e-05
0.000683488
7.4972e-05
0.000731103
8.9168e-05
0.000779322
0.000104374
0.000827112
0.000120651
0.000873053
0.000137964
0.000915191
0.00015626
0.000950845
0.000175398
0.000976666
0.000195039
0.000987844
0.00021479
0.000978751
0.000233863
0.000942989
0.000251332
0.000869901
0.000265982
0.000753242
0.000584071
0.000275908
-9.45659e-05
1.80064e-05
9.4841e-05
-9.42441e-05
1.94682e-05
-9.39133e-05
2.10499e-05
-9.35399e-05
2.27612e-05
-9.31515e-05
2.46132e-05
-9.27172e-05
2.66181e-05
-9.22621e-05
2.87892e-05
-9.17574e-05
3.11412e-05
-9.12276e-05
3.36793e-05
-9.06398e-05
3.6423e-05
-9.00229e-05
3.94002e-05
-8.93382e-05
4.26234e-05
-8.8619e-05
4.61139e-05
-8.78177e-05
4.98653e-05
-8.69691e-05
5.39189e-05
-8.60261e-05
5.83538e-05
-8.50227e-05
6.3164e-05
-8.39037e-05
6.82977e-05
-8.26993e-05
7.39034e-05
-8.13665e-05
8.00424e-05
-7.99194e-05
8.66067e-05
-7.83168e-05
9.37464e-05
-7.65788e-05
0.000101604
-7.46557e-05
0.000109927
-7.25652e-05
0.000119149
-7.02736e-05
0.000129082
-6.77759e-05
0.000139836
-6.50579e-05
0.000151603
-6.20969e-05
0.000164216
-5.88868e-05
0.000178077
-5.53964e-05
0.000192926
-5.16241e-05
0.000209184
-4.7547e-05
0.000226699
-4.31425e-05
0.000245705
-3.8376e-05
0.000266358
-3.32039e-05
0.00028851
-2.76127e-05
0.000312667
-2.15649e-05
0.000338667
-1.50197e-05
0.000366639
-7.94746e-06
0.000396879
-3.04133e-07
0.000429355
7.96386e-06
0.00046405
1.69019e-05
0.000501138
2.65612e-05
0.000540564
3.69941e-05
0.000582215
4.8251e-05
0.00062591
6.03881e-05
0.000671346
7.3449e-05
0.000718037
8.7493e-05
0.000765285
0.000102539
0.000812068
0.000118636
0.000856974
0.000135744
0.000898099
0.000153796
0.000932797
0.000172641
0.000957821
0.000191944
0.000968476
0.000211303
0.000959341
0.000229983
0.000924146
0.000247071
0.000852728
0.000261492
0.000738558
0.000573776
0.000271407
-9.304e-05
1.77185e-05
9.33154e-05
-9.27223e-05
1.91572e-05
-9.23961e-05
2.07139e-05
-9.20285e-05
2.23984e-05
-9.16459e-05
2.42217e-05
-9.12186e-05
2.61958e-05
-9.07712e-05
2.83339e-05
-9.0274e-05
3.06507e-05
-8.97528e-05
3.31503e-05
-8.91732e-05
3.58524e-05
-8.85661e-05
3.87852e-05
-8.78912e-05
4.19602e-05
-8.71851e-05
4.53983e-05
-8.63976e-05
4.90904e-05
-8.55674e-05
5.30781e-05
-8.46455e-05
5.74433e-05
-8.3669e-05
6.21764e-05
-8.25815e-05
6.72189e-05
-8.1415e-05
7.2726e-05
-8.01265e-05
7.87595e-05
-7.873e-05
8.52001e-05
-7.7185e-05
9.22043e-05
-7.55102e-05
9.99199e-05
-7.36565e-05
0.000108074
-7.16395e-05
0.000117124
-6.94253e-05
0.000126865
-6.70071e-05
0.00013741
-6.43702e-05
0.000148961
-6.14903e-05
0.000161331
-5.83619e-05
0.000174944
-5.49516e-05
0.000189516
-5.12583e-05
0.000205488
-4.72628e-05
0.000222687
-4.29365e-05
0.000241361
-3.82522e-05
0.000261656
-3.31649e-05
0.000283412
-2.76626e-05
0.000307156
-2.17094e-05
0.000332704
-1.52657e-05
0.000360182
-8.30253e-06
0.000389901
-7.75924e-07
0.00042181
7.36839e-06
0.000455885
1.61776e-05
0.000492304
2.57036e-05
0.000531009
3.59993e-05
0.000571885
4.71155e-05
0.000614752
5.91081e-05
0.000659306
7.20197e-05
0.000705065
8.5905e-05
0.000751335
0.000100779
0.000797106
0.00011668
0.000840989
0.00013356
0.000881111
0.000151347
0.000914901
0.000169879
0.000939175
0.000188828
0.000949384
0.000207786
0.000940237
0.000226069
0.000905676
0.000242788
0.000835837
0.000256982
0.000724108
0.000563677
0.000266853
-9.15223e-05
1.74347e-05
9.17904e-05
-9.12105e-05
1.88503e-05
-9.08898e-05
2.03824e-05
-9.05278e-05
2.20403e-05
-9.0151e-05
2.38351e-05
-8.97296e-05
2.57786e-05
-8.92879e-05
2.7884e-05
-8.87977e-05
3.01658e-05
-8.82833e-05
3.26273e-05
-8.77123e-05
3.52883e-05
-8.71136e-05
3.81771e-05
-8.64498e-05
4.13046e-05
-8.57538e-05
4.46914e-05
-8.49805e-05
4.83258e-05
-8.41642e-05
5.225e-05
-8.32608e-05
5.65483e-05
-8.23041e-05
6.12081e-05
-8.12423e-05
6.6164e-05
-8.0105e-05
7.15779e-05
-7.88522e-05
7.75117e-05
-7.7497e-05
8.38351e-05
-7.60003e-05
9.07104e-05
-7.438e-05
9.82908e-05
-7.25875e-05
0.000106282
-7.06375e-05
0.000115166
-6.84954e-05
0.00012472
-6.61537e-05
0.000135062
-6.35963e-05
0.000146398
-6.07988e-05
0.000158528
-5.77531e-05
0.000171894
-5.44276e-05
0.00018619
-5.08196e-05
0.000201876
-4.69067e-05
0.000218763
-4.26674e-05
0.0002371
-3.80691e-05
0.000257042
-3.30709e-05
0.000278403
-2.76609e-05
0.000301737
-2.18039e-05
0.000326837
-1.54616e-05
0.000353829
-8.60534e-06
0.000383033
-1.192e-06
0.000414384
6.83311e-06
0.000447847
1.55186e-05
0.000483607
2.49157e-05
0.000521601
3.50775e-05
0.000561715
4.60543e-05
0.000603768
5.79009e-05
0.000647459
7.06579e-05
0.000692307
8.43756e-05
0.000737629
9.90644e-05
0.000782427
0.000114753
0.000825325
0.00013139
0.000864502
0.000148895
0.000897423
0.000167098
0.000920993
0.000185681
0.000930773
0.000204238
0.00092166
0.000222124
0.000887688
0.000238487
0.000819439
0.000252448
0.000709972
0.00055361
0.000262246
-9.00091e-05
1.71567e-05
9.02776e-05
-8.97012e-05
1.855e-05
-8.93851e-05
2.00578e-05
-8.90286e-05
2.16897e-05
-8.86579e-05
2.34564e-05
-8.82434e-05
2.53698e-05
-8.78094e-05
2.74429e-05
-8.73268e-05
2.96902e-05
-8.68209e-05
3.21142e-05
-8.62579e-05
3.47345e-05
-8.56684e-05
3.758e-05
-8.50131e-05
4.06609e-05
-8.43283e-05
4.39973e-05
-8.35653e-05
4.75752e-05
-8.27628e-05
5.14371e-05
-8.1874e-05
5.56704e-05
-8.09357e-05
6.02591e-05
-7.98947e-05
6.51315e-05
-7.87828e-05
7.04556e-05
-7.75597e-05
7.62941e-05
-7.62395e-05
8.25053e-05
-7.47837e-05
8.92574e-05
-7.32101e-05
9.67086e-05
-7.14711e-05
0.000104543
-6.95804e-05
0.000113268
-6.7504e-05
0.000122641
-6.52332e-05
0.000132785
-6.27515e-05
0.000143912
-6.00332e-05
0.000155804
-5.70706e-05
0.000168928
-5.38296e-05
0.00018295
-5.03072e-05
0.000198352
-4.64838e-05
0.000214925
-4.23316e-05
0.000232932
-3.7824e-05
0.000252519
-3.29182e-05
0.000273488
-2.7603e-05
0.000296414
-2.18441e-05
0.00032107
-1.56039e-05
0.000347579
-8.85388e-06
0.00037627
-1.55211e-06
0.000407067
6.35605e-06
0.00043992
1.492e-05
0.00047502
2.41898e-05
0.000512304
3.42178e-05
0.000551655
4.50534e-05
0.000592893
5.67496e-05
0.00063572
6.93449e-05
0.000679657
8.28848e-05
0.00072403
9.73756e-05
0.000767857
0.000112838
0.000809789
0.000129216
0.00084803
0.000146424
0.000880122
0.000164289
0.000903028
0.000182503
0.000912436
0.000200659
0.000903374
0.000218154
0.000870032
0.000234169
0.000803275
0.000247891
0.000696034
0.000543718
0.000257604
-8.85149e-05
1.68822e-05
8.87723e-05
-8.82143e-05
1.82531e-05
-8.79045e-05
1.97368e-05
-8.7555e-05
2.13428e-05
-8.71902e-05
2.30817e-05
-8.67825e-05
2.49652e-05
-8.63541e-05
2.70064e-05
-8.5879e-05
2.92195e-05
-8.53791e-05
3.16062e-05
-8.48249e-05
3.41862e-05
-8.42425e-05
3.69889e-05
-8.35977e-05
4.00237e-05
-8.29207e-05
4.33105e-05
-8.217e-05
4.68328e-05
-8.13776e-05
5.0634e-05
-8.05032e-05
5.4804e-05
-7.95786e-05
5.93239e-05
-7.85561e-05
6.41156e-05
-7.74639e-05
6.93536e-05
-7.62657e-05
7.51007e-05
-7.4974e-05
8.12046e-05
-7.35526e-05
8.78388e-05
-7.20187e-05
9.51664e-05
-7.03258e-05
0.000102851
-6.84873e-05
0.000111422
-6.64694e-05
0.000120622
-6.42632e-05
0.000130572
-6.18515e-05
0.000141495
-5.92087e-05
0.000153157
-5.63249e-05
0.000166041
-5.31675e-05
0.000179792
-4.97318e-05
0.000194913
-4.59946e-05
0.000211179
-4.19339e-05
0.000228852
-3.7518e-05
0.00024809
-3.27069e-05
0.000268668
-2.74889e-05
0.000291189
-2.183e-05
0.000315403
-1.56931e-05
0.000341433
-9.05004e-06
0.000369617
-1.85968e-06
0.000399866
5.93194e-06
0.000432119
1.43742e-05
0.000466569
2.35158e-05
0.000503155
3.34079e-05
0.000541758
4.40984e-05
0.000582199
5.56383e-05
0.000624182
6.80638e-05
0.000667235
8.14157e-05
0.000710694
9.56973e-05
0.00075359
0.000110921
0.000794595
0.00012703
0.000831958
0.000143932
0.00086326
0.000161453
0.000885541
0.000179295
0.000894593
0.000197057
0.000885615
0.000214168
0.000852868
0.000229846
0.0007876
0.000243324
0.000682453
0.000533931
0.00025294
-8.70309e-05
1.66137e-05
8.72883e-05
-8.67344e-05
1.79627e-05
-8.64293e-05
1.94229e-05
-8.60854e-05
2.10034e-05
-8.57267e-05
2.2715e-05
-8.53261e-05
2.45692e-05
-8.49054e-05
2.65788e-05
-8.44381e-05
2.87581e-05
-8.39468e-05
3.11081e-05
-8.34006e-05
3.36484e-05
-8.28275e-05
3.64088e-05
-8.21911e-05
3.93981e-05
-8.15248e-05
4.26358e-05
-8.07838e-05
4.61034e-05
-8.00038e-05
4.98446e-05
-7.91416e-05
5.39523e-05
-7.8232e-05
5.84045e-05
-7.72257e-05
6.31173e-05
-7.61527e-05
6.82712e-05
-7.49764e-05
7.39296e-05
-7.37102e-05
7.99296e-05
-7.23187e-05
8.64501e-05
-7.08191e-05
9.36588e-05
-6.91664e-05
0.000101198
-6.73736e-05
0.000109622
-6.54077e-05
0.000118654
-6.32595e-05
0.000128418
-6.09121e-05
0.000139144
-5.83388e-05
0.000150579
-5.55306e-05
0.000163229
-5.24525e-05
0.000176715
-4.90997e-05
0.000191559
-4.54512e-05
0.000207517
-4.1479e-05
0.000224865
-3.71562e-05
0.000243753
-3.24408e-05
0.000263945
-2.73211e-05
0.000286064
-2.17636e-05
0.000309839
-1.57312e-05
0.000335391
-9.19601e-06
0.000363071
-2.11773e-06
0.000392774
5.55657e-06
0.000424428
1.38757e-05
0.00045823
2.28868e-05
0.00049412
3.26394e-05
0.000531978
4.31799e-05
0.000571624
5.4557e-05
0.000612768
6.68046e-05
0.000654941
7.99593e-05
0.000697489
9.40211e-05
0.00073946
0.000108996
0.000779555
0.000124826
0.000816049
0.000141416
0.000846591
0.000158592
0.000868282
0.000176064
0.000877017
0.000193439
0.000868127
0.000210176
0.000835994
0.000225527
0.000772126
0.000238759
0.00066905
0.000524285
0.000248276
-8.55685e-05
1.6349e-05
8.5819e-05
-8.52776e-05
1.76765e-05
-8.49778e-05
1.91133e-05
-8.46396e-05
2.06688e-05
-8.42868e-05
2.23534e-05
-8.38921e-05
2.41785e-05
-8.34777e-05
2.6157e-05
-8.30175e-05
2.8303e-05
-8.25334e-05
3.06166e-05
-8.19962e-05
3.31175e-05
-8.14316e-05
3.5836e-05
-8.08059e-05
3.87802e-05
-8.01489e-05
4.19693e-05
-7.942e-05
4.53827e-05
-7.86506e-05
4.9065e-05
-7.78019e-05
5.31114e-05
-7.69049e-05
5.74974e-05
-7.59143e-05
6.2133e-05
-7.48576e-05
6.72051e-05
-7.3701e-05
7.27775e-05
-7.24567e-05
7.86768e-05
-7.10914e-05
8.50874e-05
-6.96218e-05
9.21815e-05
-6.80042e-05
9.95815e-05
-6.62517e-05
0.000107863
-6.4332e-05
0.000116732
-6.22359e-05
0.000126316
-5.99465e-05
0.00013685
-5.74378e-05
0.000148066
-5.46989e-05
0.000160487
-5.16969e-05
0.000173713
-4.84249e-05
0.000188285
-4.48591e-05
0.000203943
-4.09765e-05
0.000220965
-3.67452e-05
0.00023951
-3.21255e-05
0.000259318
-2.71049e-05
0.000281037
-2.16496e-05
0.000304377
-1.57229e-05
0.000329457
-9.29685e-06
0.000356636
-2.33194e-06
0.000385801
5.22346e-06
0.000416865
1.34171e-05
0.00045003
2.22944e-05
0.000485237
3.19033e-05
0.000522366
4.22885e-05
0.000561238
5.34963e-05
0.000601565
6.55585e-05
0.000642886
7.85077e-05
0.000684559
9.23417e-05
0.000725646
0.00010706
0.00076487
0.000122606
0.000800548
0.000138882
0.000830367
0.000155713
0.000851497
0.000172818
0.00085993
0.000189817
0.00085115
0.000206191
0.000819603
0.000221225
0.000757127
0.000234212
0.00065602
0.000514777
0.000243629
-8.41214e-05
1.609e-05
8.4372e-05
-8.38344e-05
1.73964e-05
-8.35392e-05
1.88104e-05
-8.32064e-05
2.03413e-05
-8.28597e-05
2.19994e-05
-8.2472e-05
2.3796e-05
-8.20653e-05
2.57438e-05
-8.1613e-05
2.7857e-05
-8.11377e-05
3.01348e-05
-8.06087e-05
3.2597e-05
-8.00538e-05
3.52741e-05
-7.94367e-05
3.81738e-05
-7.87908e-05
4.1315e-05
-7.80717e-05
4.46749e-05
-7.73147e-05
4.82987e-05
-7.64778e-05
5.22846e-05
-7.55951e-05
5.6605e-05
-7.4619e-05
6.11646e-05
-7.35793e-05
6.6156e-05
-7.2441e-05
7.16441e-05
-7.12176e-05
7.74449e-05
-6.98762e-05
8.37485e-05
-6.84336e-05
9.07314e-05
-6.68476e-05
9.7996e-05
-6.51309e-05
0.000106139
-6.32525e-05
0.000114852
-6.12033e-05
0.000124262
-5.89668e-05
0.00013461
-5.65167e-05
0.000145612
-5.38433e-05
0.000157811
-5.09115e-05
0.000170783
-4.77152e-05
0.000185088
-4.42322e-05
0.000200448
-4.0434e-05
0.000217153
-3.62934e-05
0.000235357
-3.17683e-05
0.000254787
-2.68462e-05
0.00027611
-2.14934e-05
0.000299018
-1.56729e-05
0.000323629
-9.35697e-06
0.000350311
-2.50676e-06
0.000378939
4.92786e-06
0.000409416
1.29934e-05
0.000441947
2.17334e-05
0.000476477
3.11943e-05
0.000512882
4.1419e-05
0.000550985
5.24516e-05
0.000590502
6.43219e-05
0.000630977
7.70588e-05
0.00067178
9.06583e-05
0.00071199
0.000105116
0.000750357