/*--------------------------------*- C++ -*----------------------------------*\
  =========                 |
  \\      /  F ield         | OpenFOAM: The Open Source CFD Toolbox
   \\    /   O peration     | Website:  https://openfoam.org
    \\  /    A nd           | Version:  6.0
     \\/     M anipulation  |
\*---------------------------------------------------------------------------*/
FoamFile
{
    version     2.0;
    format      ascii;
    class       volVectorField;
    location    "9";
    object      U;
}
// * * * * * * * * * * * * * * * * * * * * * * * * * * * * * * * * * * * * * //

dimensions      [0 1 -1 0 0 0 0];

internalField   nonuniform List<vector> 
62000
(
(0.939462 0.343004 -3.36965e-21)
(0.939497 0.343111 2.83943e-21)
(0.93951 0.343144 3.10161e-21)
(0.939495 0.343216 -1.41527e-20)
(0.939455 0.343296 -1.71202e-20)
(0.939394 0.343387 6.00019e-20)
(0.939315 0.343487 -6.86228e-20)
(0.939223 0.343593 4.11095e-20)
(0.939123 0.343704 -2.03097e-20)
(0.939021 0.343815 -1.08191e-19)
(0.938921 0.343924 -1.64465e-20)
(0.938827 0.344025 1.6064e-19)
(0.938742 0.344117 3.49227e-20)
(0.938668 0.344196 -1.2463e-19)
(0.938608 0.344261 2.03095e-19)
(0.93856 0.344308 -1.11036e-19)
(0.938526 0.344336 1.21988e-19)
(0.938504 0.344346 -1.46009e-19)
(0.938493 0.344336 7.66399e-20)
(0.938492 0.344309 -2.45623e-19)
(0.9385 0.344264 3.32195e-19)
(0.938515 0.344204 1.07467e-19)
(0.938537 0.344129 1.61724e-19)
(0.938566 0.344042 -7.33053e-19)
(0.938599 0.343944 2.76908e-19)
(0.93864 0.343839 -1.86962e-19)
(0.938684 0.343725 -8.51577e-21)
(0.938736 0.343609 -1.68834e-19)
(0.938793 0.343489 5.20449e-19)
(0.938858 0.34337 -3.07932e-19)
(0.938928 0.34325 7.65769e-19)
(0.939005 0.343137 -1.63884e-18)
(0.939083 0.343038 1.49506e-19)
(0.939158 0.342967 -6.16698e-19)
(0.939231 0.342919 -2.07401e-19)
(0.9393 0.342889 -6.85327e-19)
(0.939359 0.342881 -2.26665e-19)
(0.939404 0.342903 -2.54929e-19)
(0.939428 0.342958 7.40415e-19)
(0.939423 0.343047 3.67644e-18)
(0.939378 0.343168 -9.1192e-19)
(0.939293 0.343286 -5.38569e-18)
(0.939172 0.343362 -8.70985e-18)
(0.939015 0.343353 4.83573e-18)
(0.93883 0.343208 1.38867e-18)
(0.938626 0.342882 -7.15375e-18)
(0.938414 0.342338 1.89186e-18)
(0.938194 0.341581 -2.95991e-18)
(0.937954 0.340656 -1.39001e-17)
(0.937653 0.339654 -2.9682e-18)
(0.937216 0.338662 -1.45649e-18)
(0.936566 0.337654 -2.04344e-17)
(0.935605 0.336459 1.85835e-18)
(0.93432 0.334621 2.43224e-17)
(0.9328 0.331526 7.12835e-18)
(0.931256 0.326449 2.49049e-17)
(0.930111 0.318686 -3.6203e-18)
(0.929607 0.307645 -6.61293e-18)
(0.930538 0.288444 1.31352e-17)
(0.902761 0.248959 2.5386e-18)
(0.94009 0.339901 -9.48755e-22)
(0.940446 0.340271 9.39794e-21)
(0.940777 0.34049 4.20626e-21)
(0.94106 0.340763 -1.77527e-20)
(0.941281 0.341066 7.65066e-21)
(0.941433 0.341394 -5.5318e-20)
(0.941511 0.341752 5.17178e-20)
(0.941514 0.342141 3.15592e-20)
(0.941443 0.342561 -6.06423e-20)
(0.941305 0.343011 2.29572e-21)
(0.941107 0.343489 6.34009e-20)
(0.94086 0.343988 7.44129e-22)
(0.940576 0.344506 2.04044e-20)
(0.940267 0.345034 -1.75133e-19)
(0.939945 0.345563 3.65752e-19)
(0.939619 0.346086 -3.3329e-19)
(0.9393 0.346592 1.63113e-19)
(0.938995 0.347072 -3.50493e-20)
(0.938709 0.347515 -1.01544e-19)
(0.938445 0.347917 2.95433e-19)
(0.938207 0.34827 -4.82365e-19)
(0.937994 0.34857 2.91336e-19)
(0.937806 0.348815 -3.9176e-19)
(0.937643 0.349005 2.38174e-19)
(0.937503 0.349139 2.35528e-19)
(0.937388 0.349219 -1.61179e-19)
(0.937294 0.349248 -5.28199e-21)
(0.937226 0.349229 1.90473e-19)
(0.937181 0.349167 1.7103e-19)
(0.937165 0.349065 -3.78348e-19)
(0.937172 0.348919 7.92129e-19)
(0.937206 0.348727 1.76521e-19)
(0.937261 0.348494 5.62663e-19)
(0.937344 0.348234 5.06449e-20)
(0.937452 0.347949 1.80637e-19)
(0.937582 0.347635 -1.95713e-19)
(0.937732 0.347285 -6.46001e-19)
(0.9379 0.346896 -3.20045e-19)
(0.938079 0.346466 -1.98458e-18)
(0.938257 0.345995 -2.42113e-18)
(0.938404 0.345481 1.93988e-18)
(0.938513 0.344861 1.17604e-18)
(0.938593 0.344088 9.06684e-18)
(0.938645 0.343145 5.52754e-19)
(0.938665 0.342027 -1.4525e-17)
(0.938649 0.34077 5.87416e-18)
(0.938583 0.339451 4.95898e-18)
(0.938427 0.338218 5.86198e-18)
(0.938111 0.33724 1.26268e-18)
(0.937522 0.336653 2.81321e-19)
(0.936495 0.336464 9.4038e-18)
(0.934933 0.336254 2.51759e-17)
(0.932701 0.335409 -1.70755e-17)
(0.929798 0.332849 -4.22878e-17)
(0.926582 0.327206 -1.07498e-17)
(0.92362 0.317448 -8.50744e-18)
(0.921733 0.302494 -1.9986e-17)
(0.920854 0.282648 -1.06971e-17)
(0.924931 0.249952 1.75415e-17)
(0.885375 0.197298 6.58114e-18)
(0.938801 0.343892 -4.93115e-21)
(0.939151 0.34407 -7.59431e-22)
(0.939555 0.344129 7.50916e-22)
(0.939993 0.344183 3.73685e-21)
(0.94044 0.344245 1.09888e-20)
(0.940875 0.344308 -1.06475e-20)
(0.941276 0.344383 5.9345e-20)
(0.941624 0.344481 -2.85666e-20)
(0.941899 0.344612 -1.5815e-20)
(0.942089 0.344784 -1.03254e-19)
(0.942185 0.345005 8.91592e-20)
(0.942183 0.345281 6.96945e-21)
(0.942085 0.345615 -2.20736e-20)
(0.941899 0.34601 6.09652e-20)
(0.941634 0.346462 -1.08416e-19)
(0.941304 0.346966 -1.03043e-22)
(0.940925 0.347511 -5.46025e-20)
(0.940511 0.348088 -4.44494e-22)
(0.940079 0.348681 1.33965e-19)
(0.93964 0.349278 -2.1456e-19)
(0.939207 0.349862 1.38091e-19)
(0.938789 0.350421 5.69713e-19)
(0.938393 0.350941 -6.78473e-20)
(0.938023 0.351413 -8.56048e-19)
(0.937682 0.351827 4.56077e-19)
(0.937372 0.352177 -2.66225e-19)
(0.937094 0.352457 4.46233e-19)
(0.936852 0.352667 -2.78855e-19)
(0.936645 0.352806 -5.8526e-19)
(0.936473 0.352873 6.60054e-19)
(0.936334 0.352857 -4.83153e-19)
(0.936227 0.352743 6.78061e-19)
(0.936157 0.352524 -1.97791e-18)
(0.936131 0.352214 1.84223e-18)
(0.936147 0.351825 -1.0261e-18)
(0.936202 0.35135 4.32826e-19)
(0.936298 0.350771 3.41029e-19)
(0.936445 0.350071 -4.40179e-20)
(0.936645 0.349241 -1.30527e-19)
(0.93689 0.348285 2.46784e-18)
(0.937153 0.347185 -1.02226e-18)
(0.937418 0.345908 1.61508e-18)
(0.937701 0.344448 -5.85534e-18)
(0.938002 0.342838 -2.93604e-18)
(0.93831 0.34115 3.1752e-18)
(0.938605 0.339515 -1.1359e-17)
(0.938852 0.338119 1.49763e-18)
(0.938985 0.337216 -9.93353e-18)
(0.938912 0.337042 1.38045e-17)
(0.938513 0.337719 3.472e-18)
(0.93763 0.339178 1.82994e-18)
(0.936228 0.340764 -4.99688e-19)
(0.934199 0.341698 7.07482e-18)
(0.931549 0.340766 1.62101e-18)
(0.928673 0.336373 -1.49125e-17)
(0.92616 0.327636 -9.62841e-18)
(0.924806 0.313508 -6.3285e-18)
(0.923506 0.29523 -2.42272e-17)
(0.930049 0.266523 -2.09102e-18)
(0.898916 0.23145 2.4077e-18)
(0.936751 0.352455 -5.13627e-21)
(0.936701 0.352438 1.60008e-20)
(0.936759 0.35235 -2.43718e-21)
(0.93692 0.352217 -1.71853e-20)
(0.937174 0.352058 2.65528e-20)
(0.937511 0.351861 4.73439e-20)
(0.937913 0.351632 -6.26241e-20)
(0.938358 0.35138 7.05737e-21)
(0.938821 0.351115 2.34295e-20)
(0.939274 0.350849 5.05733e-20)
(0.939692 0.350598 -9.48486e-20)
(0.94005 0.350375 -3.07732e-20)
(0.940329 0.350198 -3.59435e-20)
(0.940514 0.350082 1.66512e-19)
(0.940597 0.350036 -1.14911e-19)
(0.940576 0.35007 2.79877e-19)
(0.940456 0.350187 -3.49994e-19)
(0.940246 0.350387 -5.51329e-20)
(0.939958 0.350662 3.98436e-19)
(0.939609 0.351006 -1.42453e-19)
(0.939215 0.351403 -5.52112e-20)
(0.938792 0.351841 -6.0935e-20)
(0.938356 0.3523 -5.77936e-19)
(0.937919 0.352765 3.37667e-19)
(0.937493 0.353217 -1.65066e-19)
(0.937085 0.353643 2.66492e-19)
(0.936704 0.354025 1.33162e-19)
(0.936356 0.354355 6.76211e-19)
(0.936043 0.354623 -4.3665e-19)
(0.935766 0.354823 -5.97095e-19)
(0.935522 0.35493 9.90418e-19)
(0.935314 0.354918 -8.36982e-19)
(0.935148 0.354771 1.61862e-18)
(0.935036 0.354499 -1.03091e-18)
(0.934968 0.354118 4.3654e-19)
(0.93494 0.353619 7.87489e-19)
(0.93496 0.352971 -3.58539e-19)
(0.935044 0.352151 4.7752e-19)
(0.9352 0.351146 -2.34429e-19)
(0.935423 0.349958 7.70271e-19)
(0.9357 0.348552 -2.21211e-18)
(0.936005 0.346941 6.19683e-19)
(0.936347 0.345159 1.37328e-18)
(0.936721 0.343272 3.45333e-18)
(0.93711 0.341391 4.56508e-18)
(0.937484 0.339696 9.66799e-19)
(0.937805 0.338417 7.49673e-18)
(0.938005 0.337847 8.16887e-18)
(0.938011 0.338231 9.63575e-18)
(0.937739 0.339667 -6.82338e-18)
(0.937087 0.342048 -8.56563e-18)
(0.936107 0.344631 5.69592e-18)
(0.934724 0.34663 7.4698e-18)
(0.932948 0.346901 1.72873e-17)
(0.931081 0.343832 1.16393e-17)
(0.929576 0.336652 1.96295e-17)
(0.929131 0.324355 3.82664e-17)
(0.927554 0.308294 -1.5233e-18)
(0.935574 0.284501 -2.25021e-17)
(0.914321 0.260123 -1.59327e-17)
(0.935484 0.359991 9.83145e-21)
(0.935062 0.359998 -3.28503e-21)
(0.934724 0.359936 5.79591e-21)
(0.934477 0.359828 -8.18991e-21)
(0.934331 0.359684 1.91408e-20)
(0.934298 0.359484 -9.43419e-21)
(0.93438 0.359227 5.56199e-21)
(0.934572 0.358914 -8.22047e-20)
(0.934864 0.358547 7.0383e-20)
(0.935237 0.358131 -1.47202e-19)
(0.935668 0.357675 1.65636e-19)
(0.93613 0.357191 -2.05576e-20)
(0.936592 0.356696 -4.79846e-20)
(0.937027 0.356209 -2.33061e-20)
(0.937407 0.355746 -5.81435e-21)
(0.937711 0.355329 -2.51194e-19)
(0.937924 0.354971 6.45659e-21)
(0.938036 0.354688 2.88659e-19)
(0.938045 0.354487 -9.86442e-20)
(0.937957 0.354375 -1.09841e-19)
(0.937779 0.354349 1.8531e-19)
(0.937526 0.354407 -9.83368e-20)
(0.937213 0.354537 4.23903e-19)
(0.936858 0.354729 2.46907e-19)
(0.936477 0.354964 1.97439e-19)
(0.936086 0.355226 -6.11277e-19)
(0.935698 0.355494 -8.91501e-20)
(0.935327 0.355753 -5.21654e-19)
(0.934979 0.355986 9.69497e-20)
(0.93466 0.356181 -1.89103e-19)
(0.93437 0.356308 -7.90301e-20)
(0.934119 0.356329 6.36479e-19)
(0.933915 0.356218 -1.63802e-18)
(0.933767 0.355984 -8.22992e-20)
(0.933663 0.355636 -9.04746e-19)
(0.933594 0.355161 -4.56254e-19)
(0.933571 0.35452 1.28271e-19)
(0.933611 0.353685 -1.60359e-18)
(0.933721 0.352641 2.56342e-18)
(0.933893 0.351388 4.3851e-19)
(0.934129 0.349878 3.01339e-18)
(0.934398 0.348154 -2.26833e-18)
(0.934684 0.346283 -1.55298e-18)
(0.934971 0.344334 -5.71556e-19)
(0.935232 0.342421 3.44416e-18)
(0.935434 0.340727 5.03312e-18)
(0.935539 0.339472 1.43407e-18)
(0.935495 0.338937 2.40274e-18)
(0.935259 0.33933 -2.82755e-18)
(0.934801 0.34071 1.79004e-17)
(0.934085 0.342944 4.47611e-18)
(0.933267 0.34526 -3.7638e-18)
(0.932314 0.346933 2.7778e-18)
(0.931266 0.346953 1.43202e-17)
(0.930339 0.343781 -1.52402e-18)
(0.929829 0.336696 -1.51621e-17)
(0.930401 0.324752 -3.91109e-17)
(0.92904 0.3088 3.73143e-17)
(0.937776 0.286542 -2.34722e-17)
(0.923565 0.262071 1.87614e-17)
(0.935042 0.365082 -3.64456e-21)
(0.934447 0.365152 1.50139e-20)
(0.933886 0.365164 -2.52874e-20)
(0.933363 0.365152 1.93104e-20)
(0.932899 0.365118 1.305e-20)
(0.932516 0.365043 -1.39367e-20)
(0.932231 0.364919 1.27773e-21)
(0.932057 0.364738 -1.12584e-20)
(0.932003 0.364495 -3.95905e-20)
(0.932071 0.364183 7.76963e-20)
(0.932253 0.363803 -1.25625e-19)
(0.932536 0.363357 1.1299e-19)
(0.9329 0.362852 1.05488e-19)
(0.933318 0.362299 -1.66788e-19)
(0.93376 0.361712 -5.84909e-20)
(0.934198 0.36111 2.22993e-19)
(0.934602 0.360509 -2.81568e-19)
(0.934947 0.359931 4.06532e-19)
(0.935214 0.359391 -7.6366e-20)
(0.93539 0.358909 5.15859e-20)
(0.935469 0.358494 -7.66506e-20)
(0.935451 0.358158 -1.02072e-19)
(0.935346 0.357901 -2.01901e-19)
(0.935162 0.357726 3.63609e-19)
(0.934917 0.357622 -2.55465e-19)
(0.934626 0.357583 -2.64261e-19)
(0.934308 0.357588 5.55758e-19)
(0.933978 0.357625 -5.6037e-19)
(0.93365 0.357679 9.09561e-19)
(0.933333 0.357735 -4.98742e-19)
(0.933037 0.357763 3.92253e-19)
(0.932775 0.357719 -6.95095e-19)
(0.932561 0.357573 7.68793e-19)
(0.932404 0.357325 -6.75421e-20)
(0.932286 0.35698 -3.92181e-20)
(0.932199 0.356517 -1.99366e-20)
(0.932154 0.35589 -4.86237e-19)
(0.932163 0.355069 1.42628e-18)
(0.932229 0.35404 -1.13537e-18)
(0.932338 0.352799 -6.82036e-18)
(0.932503 0.351291 -2.97221e-18)
(0.932695 0.349574 2.14679e-18)
(0.932864 0.347733 -2.44836e-18)
(0.93298 0.345822 -2.73982e-18)
(0.933007 0.343934 -2.57973e-19)
(0.932907 0.34223 7.30068e-18)
(0.93265 0.340888 -1.09146e-17)
(0.932196 0.340147 -1.11637e-17)
(0.931541 0.340154 -7.15268e-18)
(0.930702 0.340918 -1.2488e-17)
(0.929712 0.342283 8.81301e-18)
(0.92883 0.343477 -2.83337e-18)
(0.92808 0.343864 -2.49842e-17)
(0.927543 0.3426 6.23636e-18)
(0.927384 0.338272 6.74157e-18)
(0.927773 0.330198 -1.55357e-17)
(0.929376 0.317561 9.25428e-18)
(0.928667 0.300511 1.24068e-17)
(0.937607 0.277793 3.83532e-17)
(0.927845 0.249724 6.04103e-19)
(0.93505 0.368546 4.15145e-21)
(0.934419 0.368662 -1.91511e-20)
(0.933783 0.368722 9.4112e-21)
(0.933142 0.368774 1.83873e-20)
(0.932512 0.368821 -4.06078e-20)
(0.931914 0.368845 3.48533e-20)
(0.931369 0.36884 -2.41269e-20)
(0.930898 0.368798 2.10187e-20)
(0.930522 0.368711 3.51782e-20)
(0.930254 0.368568 -8.68145e-20)
(0.930107 0.368362 1.30126e-19)
(0.930084 0.368085 5.92873e-20)
(0.930182 0.367735 -2.36236e-19)
(0.930387 0.367313 -4.83796e-20)
(0.930682 0.366821 1.35051e-19)
(0.931043 0.366268 9.27915e-20)
(0.931442 0.365664 -1.1495e-19)
(0.931848 0.365026 1.07199e-19)
(0.932232 0.364369 1.75379e-19)
(0.93257 0.363714 -8.27509e-20)
(0.932841 0.363077 -4.99049e-20)
(0.93303 0.362478 1.95658e-19)
(0.933132 0.361928 4.23819e-19)
(0.933145 0.361441 -3.04302e-19)
(0.933076 0.361017 -3.60203e-19)
(0.932935 0.360661 4.16046e-19)
(0.932738 0.360363 -3.27952e-19)
(0.932499 0.360117 -1.45153e-19)
(0.932235 0.359914 1.1999e-18)
(0.931958 0.359748 -5.43378e-19)
(0.931683 0.359592 -4.36658e-19)
(0.931432 0.359403 5.82077e-19)
(0.931222 0.359149 4.18069e-19)
(0.931062 0.358827 -3.86176e-19)
(0.930934 0.358436 -2.72778e-19)
(0.930832 0.357946 9.12715e-19)
(0.930764 0.357309 2.13611e-19)
(0.930739 0.356495 3.23362e-19)
(0.930754 0.35549 -1.8424e-18)
(0.930789 0.354289 -1.88822e-18)
(0.930864 0.352834 3.74702e-18)
(0.930957 0.351181 3.10296e-18)
(0.930992 0.34943 5.33935e-18)
(0.930915 0.347602 -4.99116e-18)
(0.930689 0.345762 -5.75096e-18)
(0.930275 0.344037 -3.90553e-18)
(0.929652 0.342551 9.98529e-18)
(0.928791 0.341486 1.01528e-17)
(0.927725 0.340924 -1.14941e-17)
(0.926512 0.340827 -1.76913e-17)
(0.925236 0.341021 -2.42662e-18)
(0.924256 0.340756 3.83779e-18)
(0.923639 0.339493 -1.11531e-19)
(0.923509 0.336566 -9.41696e-18)
(0.923999 0.330716 9.37248e-18)
(0.925185 0.321314 4.96302e-18)
(0.927726 0.307721 7.52015e-18)
(0.92786 0.289458 -3.75419e-17)
(0.936731 0.265872 -2.02637e-18)
(0.929902 0.235219 1.64938e-18)
(0.935244 0.371076 -6.76659e-21)
(0.934636 0.371198 -5.67227e-21)
(0.934005 0.371274 7.57095e-21)
(0.93334 0.371354 2.82613e-20)
(0.932654 0.371442 -6.25881e-20)
(0.931962 0.371523 7.37202e-20)
(0.931279 0.371593 -2.88949e-21)
(0.930627 0.371645 -4.43075e-21)
(0.930027 0.371671 -2.89125e-20)
(0.9295 0.371663 7.36852e-20)
(0.929065 0.371609 -1.16658e-19)
(0.92874 0.371501 4.52664e-20)
(0.928535 0.37133 -1.69437e-21)
(0.928453 0.371089 7.7955e-20)
(0.928492 0.370772 3.99195e-20)
(0.928641 0.37038 -2.12386e-19)
(0.928882 0.369911 1.91298e-19)
(0.929192 0.369373 8.05937e-20)
(0.929542 0.368773 -2.3697e-19)
(0.929906 0.368127 1.19683e-19)
(0.930253 0.367447 6.031e-20)
(0.930561 0.366754 -3.77553e-20)
(0.93081 0.366062 5.68751e-20)
(0.930986 0.36539 -2.9349e-20)
(0.931084 0.364748 -3.84014e-19)
(0.931103 0.364151 2.64544e-19)
(0.931049 0.363594 -4.20465e-19)
(0.930932 0.363085 7.97413e-19)
(0.930764 0.362624 -1.53188e-19)
(0.930558 0.362214 -9.41091e-20)
(0.930334 0.36184 -2.49213e-20)
(0.930115 0.361462 9.62665e-19)
(0.929923 0.361055 -3.95473e-19)
(0.929765 0.360611 -2.45008e-19)
(0.929629 0.360126 6.74302e-19)
(0.92951 0.359569 6.02058e-19)
(0.929415 0.358887 -1.04289e-18)
(0.929351 0.358055 1.93289e-19)
(0.929307 0.35706 2.19822e-18)
(0.929262 0.355895 -1.81055e-19)
(0.929238 0.354506 1.51702e-18)
(0.929229 0.352936 -2.29769e-18)
(0.929134 0.35129 3.47746e-18)
(0.928883 0.349555 7.92187e-18)
(0.928441 0.347764 2.40622e-18)
(0.927769 0.346004 -3.40957e-18)
(0.926859 0.344346 -1.10047e-17)
(0.925693 0.342919 2.33137e-18)
(0.924334 0.341744 3.5742e-18)
(0.922868 0.340744 7.2774e-18)
(0.921417 0.339739 -4.53281e-19)
(0.920416 0.338012 -1.54211e-17)
(0.919966 0.335123 1.37078e-17)
(0.920212 0.330579 -9.60367e-18)
(0.921261 0.323277 2.06286e-17)
(0.923129 0.312653 4.85085e-18)
(0.926444 0.298266 2.37224e-17)
(0.927405 0.279165 3.25678e-17)
(0.936109 0.255011 6.09645e-18)
(0.93163 0.223713 8.80859e-18)
(0.935469 0.373101 -3.14016e-21)
(0.934903 0.373239 2.72495e-21)
(0.934307 0.373322 1.44054e-20)
(0.933666 0.373411 2.37869e-20)
(0.932986 0.37351 -7.11758e-20)
(0.932275 0.373609 4.20966e-20)
(0.931545 0.373706 -7.88883e-20)
(0.93081 0.373799 1.26693e-19)
(0.930088 0.373882 -6.10349e-20)
(0.9294 0.373949 1.12707e-20)
(0.928766 0.373992 1.28798e-19)
(0.928208 0.374002 -3.00834e-19)
(0.927745 0.373968 2.11679e-19)
(0.927391 0.373882 3.26299e-20)
(0.927156 0.373734 5.43229e-20)
(0.927045 0.373516 -2.26623e-19)
(0.927052 0.373219 1.15726e-19)
(0.927165 0.372844 -1.50256e-19)
(0.927367 0.372387 3.09246e-19)
(0.927635 0.371855 -3.68642e-20)
(0.927941 0.371255 -4.22448e-19)
(0.928259 0.370599 1.74281e-19)
(0.928563 0.369901 -9.32276e-21)
(0.92883 0.369178 -7.05495e-19)
(0.929043 0.368441 5.30694e-19)
(0.92919 0.367709 4.19074e-19)
(0.929267 0.366986 2.99573e-19)
(0.929274 0.366285 -3.97757e-19)
(0.929215 0.365617 -4.61147e-19)
(0.929101 0.364995 2.21287e-19)
(0.928948 0.364416 3.30239e-19)
(0.928781 0.363849 -4.25934e-19)
(0.928622 0.363271 -6.55538e-19)
(0.928478 0.36268 1.38158e-18)
(0.92834 0.362074 1.65279e-19)
(0.928207 0.361416 -2.2547e-18)
(0.928086 0.360659 2.04916e-19)
(0.92798 0.359779 1.61908e-18)
(0.927877 0.358769 1.4019e-19)
(0.927755 0.357619 2.32756e-18)
(0.927636 0.356282 -3.46569e-18)
(0.927532 0.354785 -2.49373e-19)
(0.92733 0.353228 -2.35442e-18)
(0.926944 0.351567 8.99975e-19)
(0.926345 0.3498 4.18558e-18)
(0.9255 0.347983 1.33156e-17)
(0.924413 0.346137 2.13252e-18)
(0.923076 0.344345 -9.50204e-18)
(0.921573 0.342578 7.67318e-18)
(0.920011 0.340734 2.80867e-17)
(0.91853 0.338636 -2.32877e-17)
(0.917619 0.335606 2.86538e-17)
(0.917399 0.3313 -1.80176e-17)
(0.918011 0.325378 -1.03776e-17)
(0.919541 0.31689 -4.22109e-17)
(0.921969 0.305325 -2.4502e-18)
(0.925864 0.290442 -1.46474e-17)
(0.927517 0.270967 -1.6796e-17)
(0.936058 0.246701 1.31211e-17)
(0.933768 0.216188 1.94635e-18)
(0.935661 0.374743 4.18515e-21)
(0.93514 0.374874 1.59177e-21)
(0.934587 0.374954 -1.6048e-20)
(0.933987 0.375043 1.57218e-20)
(0.93334 0.375146 -7.17182e-21)
(0.932652 0.375251 1.34806e-20)
(0.931928 0.37536 5.03537e-21)
(0.931177 0.375471 -7.19256e-20)
(0.93041 0.375582 3.14715e-20)
(0.929644 0.375687 -2.32486e-20)
(0.928897 0.375783 1.35989e-20)
(0.92819 0.375862 5.74257e-20)
(0.927543 0.375917 -1.07613e-20)
(0.926976 0.37594 3.83214e-20)
(0.926507 0.375919 -1.66587e-19)
(0.926148 0.375846 6.49955e-20)
(0.925909 0.375708 3.02243e-20)
(0.925788 0.375499 -8.64769e-20)
(0.92578 0.375208 1.77002e-19)
(0.925873 0.374835 6.24489e-20)
(0.926046 0.374376 -5.21244e-21)
(0.926278 0.373839 -6.90532e-20)
(0.926542 0.373227 2.97583e-19)
(0.926812 0.372554 -8.505e-19)
(0.927066 0.371828 4.48301e-19)
(0.927282 0.371067 1.99002e-19)
(0.927448 0.370276 -3.53571e-19)
(0.927552 0.369473 6.46274e-19)
(0.927591 0.368674 -3.17981e-19)
(0.927568 0.367903 -1.75869e-19)
(0.927494 0.367164 -3.63485e-19)
(0.927391 0.366435 -1.46203e-19)
(0.927276 0.365703 4.22072e-19)
(0.927157 0.364968 -1.32737e-18)
(0.927026 0.364229 2.57524e-18)
(0.926886 0.363456 -1.68798e-19)
(0.926745 0.362601 1.4497e-18)
(0.926604 0.36165 -3.78753e-18)
(0.926449 0.360598 -1.26685e-18)
(0.926262 0.359436 -2.9736e-20)
(0.926062 0.358121 -1.00744e-18)
(0.925879 0.356668 -1.81692e-19)
(0.925598 0.355163 -3.91367e-18)
(0.92512 0.353537 1.23542e-18)
(0.924429 0.351755 2.01933e-18)
(0.923494 0.349847 -1.23441e-17)
(0.922336 0.347795 1.63819e-17)
(0.920952 0.345647 2.62788e-18)
(0.919442 0.343333 6.32848e-19)
(0.917924 0.340741 -1.89008e-17)
(0.916539 0.337703 7.17981e-18)
(0.915816 0.333585 -1.52073e-17)
(0.915877 0.328124 3.00976e-17)
(0.916844 0.321118 6.82731e-18)
(0.918775 0.311748 -2.73003e-17)
(0.921642 0.29955 1.09311e-17)
(0.925929 0.284449 -3.18979e-17)
(0.928101 0.264984 -7.06085e-18)
(0.936512 0.240976 -4.88631e-17)
(0.936354 0.211988 -1.15719e-17)
(0.935836 0.376138 -8.76669e-22)
(0.935354 0.376269 -3.5854e-21)
(0.934842 0.376344 -3.30925e-21)
(0.934285 0.376428 3.18871e-20)
(0.93368 0.376524 -1.79016e-20)
(0.93303 0.376624 -2.2785e-20)
(0.932337 0.37673 -9.29927e-21)
(0.931603 0.376841 -3.85624e-20)
(0.930837 0.376958 2.32616e-20)
(0.930049 0.377078 2.8055e-21)
(0.929253 0.377199 5.13844e-22)
(0.928466 0.377315 1.16613e-19)
(0.927706 0.377422 -8.49531e-20)
(0.926993 0.377512 -1.13988e-20)
(0.926347 0.377578 1.06218e-19)
(0.925787 0.377608 -5.96859e-20)
(0.925329 0.377592 -2.42123e-20)
(0.924981 0.377518 4.03473e-20)
(0.92475 0.377375 1.36673e-19)
(0.924633 0.377155 8.11852e-20)
(0.924621 0.37685 3.49629e-20)
(0.924699 0.376458 -2.07639e-19)
(0.924848 0.375978 1.10794e-19)
(0.925043 0.375414 2.26981e-19)
(0.925261 0.37477 -4.75401e-19)
(0.925478 0.374059 1.61253e-19)
(0.925673 0.373282 -6.54687e-19)
(0.925829 0.372459 5.48809e-19)
(0.925933 0.371608 5.05135e-19)
(0.92598 0.370758 -8.01345e-19)
(0.925975 0.369918 -3.87171e-19)
(0.925932 0.369076 5.38597e-19)
(0.925864 0.368222 1.85129e-19)
(0.925776 0.367363 -5.46868e-19)
(0.925661 0.366503 -7.00038e-19)
(0.925523 0.365614 -8.74834e-19)
(0.92537 0.364655 5.5207e-19)
(0.925204 0.363618 1.39761e-18)
(0.92501 0.362502 5.02585e-19)
(0.924774 0.3613 -5.27337e-19)
(0.924512 0.359974 5.70901e-18)
(0.924268 0.358527 -5.14793e-19)
(0.923937 0.357029 6.40643e-18)
(0.923409 0.355388 -1.19922e-17)
(0.92268 0.353546 1.77751e-18)
(0.921727 0.351511 3.84926e-19)
(0.920582 0.349234 -1.15435e-18)
(0.919248 0.346737 -1.1449e-17)
(0.917836 0.343926 -1.96828e-17)
(0.916465 0.340685 1.8492e-17)
(0.915271 0.336863 2.53436e-17)
(0.9148 0.331867 1.37968e-17)
(0.915169 0.325506 -2.88172e-17)
(0.916466 0.317689 1.6025e-17)
(0.918722 0.307712 4.13714e-17)
(0.921916 0.295143 1.67433e-17)
(0.926433 0.280038 3.11449e-17)
(0.928954 0.260842 1.5614e-17)
(0.937278 0.237324 4.50571e-17)
(0.939117 0.210093 -3.0722e-17)
(0.936001 0.377318 1.06538e-21)
(0.935551 0.377439 -3.29577e-21)
(0.935075 0.377507 1.22005e-20)
(0.934556 0.377586 3.55574e-21)
(0.933992 0.377679 -1.78438e-20)
(0.933382 0.377777 -2.18236e-20)
(0.932725 0.377881 5.26615e-20)
(0.932023 0.377992 -5.98399e-20)
(0.93128 0.37811 -1.6219e-20)
(0.9305 0.378233 3.9028e-20)
(0.929695 0.378362 3.83275e-20)
(0.928876 0.378492 1.22216e-19)
(0.928058 0.378623 -6.81444e-20)
(0.927257 0.378749 -1.2501e-19)
(0.926493 0.378864 2.79959e-20)
(0.925787 0.378961 -1.11515e-19)
(0.925156 0.379027 8.40043e-20)
(0.924616 0.379054 -1.51494e-19)
(0.92418 0.379026 2.19789e-20)
(0.923855 0.378937 -5.55298e-20)
(0.923642 0.378771 -3.82158e-20)
(0.923534 0.378522 -1.61314e-19)
(0.923521 0.378183 9.08567e-21)
(0.923585 0.377752 3.60032e-19)
(0.923706 0.377226 -1.26302e-19)
(0.92386 0.376612 3.97099e-20)
(0.924024 0.375907 1.21444e-19)
(0.924178 0.375127 -1.76456e-19)
(0.924302 0.374289 -3.67438e-20)
(0.924386 0.373423 2.64875e-19)
(0.924424 0.372543 3.05748e-19)
(0.924426 0.371639 -2.39492e-19)
(0.924397 0.370707 -7.66248e-19)
(0.924337 0.369757 -1.11418e-18)
(0.924241 0.368797 1.80271e-18)
(0.92411 0.367806 4.95458e-19)
(0.923953 0.366745 3.13009e-19)
(0.923771 0.365616 1.731e-18)
(0.923553 0.364423 -1.69578e-18)
(0.923285 0.363158 1.08748e-18)
(0.92298 0.361789 -1.65998e-20)
(0.922695 0.360311 1.48826e-19)
(0.922339 0.358772 -2.34117e-18)
(0.921794 0.357069 5.41876e-18)
(0.921068 0.35512 -7.4341e-18)
(0.920149 0.352921 4.74296e-18)
(0.919076 0.3504 -1.41915e-17)
(0.917858 0.347563 4.37668e-18)
(0.916612 0.344301 1.02736e-17)
(0.915452 0.340501 -1.83706e-17)
(0.914501 0.336032 -5.25519e-18)
(0.914314 0.330341 -1.66043e-18)
(0.914993 0.323292 -4.82441e-18)
(0.916584 0.314892 -1.6273e-17)
(0.91909 0.304527 1.16442e-18)
(0.922514 0.291784 1.51339e-17)
(0.927133 0.276812 -1.71384e-17)
(0.929864 0.258029 -4.92901e-18)
(0.938135 0.235104 -6.58998e-18)
(0.941755 0.209577 2.24893e-17)
(0.936129 0.378387 1.83145e-21)
(0.935706 0.378518 -1.55249e-21)
(0.93526 0.378586 1.54871e-21)
(0.934773 0.378663 1.02946e-20)
(0.934244 0.37875 1.584e-20)
(0.933671 0.37884 -6.2138e-20)
(0.933053 0.378935 4.64694e-20)
(0.932388 0.379037 1.06036e-20)
(0.931677 0.379145 -2.59482e-21)
(0.930924 0.379261 -2.34336e-20)
(0.930134 0.379385 7.66341e-20)
(0.929315 0.379514 -2.42783e-20)
(0.928478 0.37965 -3.62664e-20)
(0.927635 0.379788 -1.15261e-19)
(0.926804 0.379925 2.38877e-19)
(0.926002 0.380055 -4.91204e-20)
(0.925249 0.38017 -4.37698e-20)
(0.924562 0.380259 -1.37921e-19)
(0.923957 0.380311 1.56501e-19)
(0.923449 0.380317 9.1883e-20)
(0.923045 0.38026 -3.97216e-20)
(0.922747 0.380132 7.9695e-20)
(0.922555 0.379922 -3.39592e-19)
(0.922456 0.379622 2.02878e-20)
(0.922437 0.379223 2.01089e-19)
(0.92248 0.378726 -4.06108e-20)
(0.922562 0.378124 -6.66684e-19)
(0.922663 0.377426 5.51788e-20)
(0.922761 0.376647 6.3172e-19)
(0.92284 0.375815 -1.68935e-19)
(0.92289 0.374944 -3.51646e-19)
(0.92291 0.374026 1.98366e-19)
(0.922902 0.373057 6.45049e-19)
(0.922861 0.372051 1.59005e-18)
(0.922777 0.371021 -2.60202e-19)
(0.922654 0.369947 3.50135e-19)
(0.922498 0.368798 -2.8021e-18)
(0.922308 0.367581 -8.84904e-19)
(0.922075 0.366304 5.77371e-19)
(0.921791 0.36496 -2.46693e-18)
(0.921461 0.363523 -6.01866e-19)
(0.921151 0.36198 1.26478e-18)
(0.920789 0.360359 9.71221e-19)
(0.92025 0.35855 2.99662e-18)
(0.919557 0.356455 1.0633e-17)
(0.918703 0.354061 -8.93587e-18)
(0.917739 0.351282 1.49553e-17)
(0.916674 0.348114 1.20947e-17)
(0.915629 0.34444 -2.09205e-20)
(0.91471 0.340158 1.71775e-17)
(0.914022 0.335156 -2.45816e-17)
(0.914122 0.328916 -3.04545e-17)
(0.915093 0.321349 2.44562e-17)
(0.916936 0.312539 2.17585e-17)
(0.919624 0.301944 -9.218e-18)
(0.923198 0.28916 -5.52804e-17)
(0.927825 0.2744 1.35169e-17)
(0.930661 0.256087 -1.34896e-17)
(0.938908 0.233765 -2.08399e-17)
(0.944028 0.209756 1.70095e-17)
(0.936214 0.379326 -1.81599e-21)
(0.935811 0.37945 2.0152e-21)
(0.935389 0.379514 1.47505e-20)
(0.934929 0.379589 -1.96616e-20)
(0.93443 0.379674 3.79784e-20)
(0.933891 0.379761 -5.75086e-20)
(0.933308 0.379853 1.65112e-20)
(0.93268 0.37995 -1.14268e-21)
(0.932007 0.380053 4.13068e-20)
(0.931287 0.380161 -2.20024e-20)
(0.930526 0.380277 7.05011e-21)
(0.929727 0.3804 7.93036e-21)
(0.928897 0.380531 -1.21647e-19)
(0.928044 0.380669 3.59171e-20)
(0.927183 0.380812 9.0272e-20)
(0.926328 0.380957 3.51575e-21)
(0.925497 0.381096 -1.64158e-19)
(0.924706 0.381223 6.6415e-20)
(0.923973 0.381327 3.3637e-19)
(0.923316 0.381399 -2.22061e-19)
(0.922747 0.381423 -1.76893e-19)
(0.922275 0.38139 1.55541e-19)
(0.921905 0.381285 1.02492e-19)
(0.921635 0.381099 1.21171e-19)
(0.921456 0.380819 -2.35543e-19)
(0.921358 0.380441 -5.34905e-19)
(0.921322 0.37995 4.10329e-19)
(0.921329 0.379353 6.19955e-19)
(0.92136 0.378659 1.74433e-19)
(0.921394 0.377894 -3.37788e-19)
(0.921419 0.377068 1.69013e-19)
(0.921428 0.376172 2.78406e-19)
(0.921417 0.375204 -5.11812e-19)
(0.921376 0.374176 -9.27243e-20)
(0.921295 0.373104 -1.00432e-18)
(0.921173 0.371972 -3.11625e-19)
(0.921016 0.370751 -2.73703e-19)
(0.920822 0.369454 8.13312e-19)
(0.920582 0.368093 -1.13989e-18)
(0.920292 0.366662 3.7395e-19)
(0.919951 0.365136 5.96907e-19)
(0.919628 0.363503 1.61639e-19)
(0.919272 0.361768 -4.31471e-18)
(0.918753 0.359819 -6.22072e-18)
(0.918109 0.357547 -5.86941e-18)
(0.917338 0.354936 1.1912e-17)
(0.916498 0.35189 -2.20847e-21)
(0.915599 0.348401 -5.46011e-18)
(0.914765 0.34435 2.98779e-18)
(0.91409 0.339649 -1.97445e-17)
(0.913662 0.334206 1.00965e-17)
(0.914031 0.327532 2.87556e-17)
(0.915263 0.319574 -2.36617e-18)
(0.917311 0.310479 -2.71451e-17)
(0.920122 0.299763 1.34948e-17)
(0.923782 0.28702 1.32057e-17)
(0.928353 0.272499 1.61792e-17)
(0.931227 0.254659 3.69817e-17)
(0.939472 0.232892 3.52489e-17)
(0.945795 0.210176 -3.86221e-17)
(0.936285 0.380188 -1.3905e-21)
(0.935898 0.380313 2.06346e-21)
(0.935494 0.380373 4.8967e-22)
(0.935056 0.380444 8.82534e-21)
(0.934581 0.380523 -1.35942e-20)
(0.93407 0.380604 -3.0024e-20)
(0.933517 0.380688 1.01218e-20)
(0.932922 0.380778 -1.62233e-20)
(0.932282 0.380873 3.42009e-20)
(0.931596 0.380974 -7.551e-21)
(0.930867 0.381083 -2.56937e-20)
(0.930095 0.381199 2.12278e-20)
(0.929284 0.381324 3.69417e-20)
(0.92844 0.381457 1.07044e-19)
(0.927573 0.381598 -1.97934e-19)
(0.926694 0.381746 1.05166e-19)
(0.925819 0.381893 1.81516e-20)
(0.924961 0.382036 -1.11733e-19)
(0.924138 0.382167 -7.36841e-20)
(0.923367 0.382278 2.46743e-19)
(0.922665 0.382354 -2.67576e-19)
(0.922044 0.382387 8.08768e-20)
(0.921513 0.382363 -2.35135e-19)
(0.921078 0.382268 3.94393e-19)
(0.920737 0.382088 -8.163e-20)
(0.920484 0.381815 -2.41784e-19)
(0.920309 0.381432 1.9572e-19)
(0.920196 0.380938 3.8641e-19)
(0.920126 0.38034 -3.82408e-19)
(0.920083 0.379657 2.45054e-19)
(0.920049 0.378898 -8.39603e-19)
(0.920017 0.378051 -1.01994e-19)
(0.919977 0.377109 3.91418e-19)
(0.919916 0.376087 -2.33214e-19)
(0.919821 0.375 -4.92616e-19)
(0.91969 0.373831 -1.25762e-18)
(0.919526 0.372556 1.6714e-18)
(0.919325 0.371192 -6.6009e-19)
(0.919081 0.369753 5.58896e-19)
(0.91879 0.368232 1.16393e-18)
(0.918447 0.366606 9.34291e-19)
(0.918118 0.364865 -6.60688e-19)
(0.917772 0.362991 2.42125e-18)
(0.917281 0.360878 4.71115e-18)
(0.916692 0.35841 -4.66707e-19)
(0.916007 0.355568 -7.02083e-18)
(0.915293 0.352253 -1.00694e-17)
(0.914558 0.348457 -8.73978e-19)
(0.913926 0.344062 8.08734e-18)
(0.913482 0.338996 -1.23755e-18)
(0.913292 0.333183 1.63233e-17)
(0.913902 0.326162 -2.69968e-17)
(0.915356 0.317906 -1.51797e-17)
(0.917564 0.308612 -5.77157e-18)
(0.92045 0.297842 -1.37881e-17)
(0.924149 0.285182 9.07749e-18)
(0.928622 0.270901 -1.22449e-17)
(0.931493 0.253502 -4.74715e-17)
(0.939762 0.232213 -5.41723e-17)
(0.947001 0.210568 2.0219e-17)
(0.936354 0.380964 -1.8744e-21)
(0.93598 0.38108 1.51687e-21)
(0.93559 0.381135 1.29509e-21)
(0.935168 0.381203 -9.91229e-21)
(0.934712 0.38128 1.03973e-20)
(0.934222 0.38136 -5.53571e-21)
(0.933693 0.381443 1.87697e-20)
(0.933123 0.38153 -2.90749e-20)
(0.932511 0.381622 1.20475e-21)
(0.931854 0.381718 1.8818e-21)
(0.931154 0.38182 -2.54189e-20)