/*--------------------------------*- C++ -*----------------------------------*\
  =========                 |
  \\      /  F ield         | OpenFOAM: The Open Source CFD Toolbox
   \\    /   O peration     | Website:  https://openfoam.org
    \\  /    A nd           | Version:  6.0
     \\/     M anipulation  |
\*---------------------------------------------------------------------------*/
FoamFile
{
    version     2.0;
    format      ascii;
    class       volScalarField;
    location    "10";
    object      p;
}
// * * * * * * * * * * * * * * * * * * * * * * * * * * * * * * * * * * * * * //

dimensions      [0 2 -2 0 0 0 0];

internalField   nonuniform List<scalar> 
62000
(
0.0129984
0.0129966
0.0129948
0.0129926
0.0129902
0.0129871
0.0129837
0.0129794
0.0129744
0.0129681
0.0129609
0.012952
0.0129417
0.0129293
0.0129151
0.0128985
0.0128797
0.0128581
0.0128342
0.0128072
0.0127776
0.012745
0.01271
0.0126723
0.0126327
0.0125914
0.0125495
0.0125075
0.0124672
0.0124295
0.0123966
0.0123696
0.0123506
0.0123403
0.0123397
0.0123485
0.0123654
0.0123864
0.0124055
0.0124145
0.012404
0.0123646
0.0122893
0.012177
0.0120356
0.0118849
0.011754
0.0116736
0.0116641
0.0117117
0.0117694
0.011734
0.0115048
0.0109684
0.0100829
0.00886283
0.00742317
0.0057852
0.00432899
0.00380306
0.0130587
0.0130565
0.0130534
0.0130495
0.0130451
0.0130397
0.0130336
0.0130264
0.0130183
0.0130088
0.0129983
0.0129862
0.0129727
0.0129572
0.0129401
0.0129206
0.0128991
0.0128749
0.0128484
0.0128189
0.012787
0.0127521
0.0127149
0.0126752
0.0126338
0.0125909
0.0125478
0.0125051
0.0124643
0.0124269
0.0123945
0.012369
0.0123522
0.0123453
0.0123492
0.0123639
0.0123879
0.0124171
0.0124452
0.0124637
0.0124624
0.0124308
0.0123606
0.0122492
0.0121042
0.0119467
0.0118109
0.0117372
0.0117597
0.0118804
0.0120646
0.012208
0.0121975
0.0118794
0.011163
0.0100084
0.00850657
0.00662463
0.00496042
0.00383443
0.0131193
0.0131167
0.013113
0.0131084
0.0131027
0.0130959
0.0130879
0.0130785
0.0130677
0.0130552
0.0130412
0.0130252
0.0130074
0.0129874
0.0129653
0.0129405
0.0129134
0.0128833
0.0128505
0.0128143
0.0127752
0.0127327
0.0126874
0.0126389
0.0125882
0.0125353
0.0124813
0.012427
0.0123735
0.0123221
0.0122743
0.0122316
0.0121954
0.0121669
0.0121466
0.0121342
0.0121268
0.012119
0.0121029
0.0120682
0.0120021
0.0118903
0.0117198
0.0114823
0.0111797
0.0108284
0.0104615
0.010125
0.00986734
0.0097148
0.00966445
0.00964543
0.00957294
0.00930194
0.00873354
0.0078004
0.00657414
0.00499718
0.0036639
0.00285397
0.013177
0.013174
0.0131697
0.0131641
0.0131573
0.0131489
0.013139
0.0131274
0.0131141
0.0130987
0.0130814
0.0130617
0.0130399
0.0130155
0.0129888
0.012959
0.0129267
0.0128911
0.0128526
0.0128107
0.0127657
0.0127172
0.012666
0.0126117
0.0125553
0.0124971
0.0124383
0.0123795
0.0123224
0.0122682
0.0122185
0.0121749
0.012139
0.0121125
0.0120965
0.0120906
0.0120917
0.0120939
0.0120885
0.0120644
0.0120068
0.0118979
0.0117193
0.0114556
0.0110993
0.0106573
0.0101543
0.00963218
0.00914411
0.00873224
0.00842056
0.00817347
0.00794387
0.007612
0.00708776
0.00629529
0.0052924
0.00400314
0.00293502
0.00253211
0.0132352
0.0132316
0.0132263
0.0132192
0.0132104
0.0131998
0.0131874
0.0131728
0.0131562
0.0131371
0.0131159
0.0130921
0.0130659
0.0130369
0.0130054
0.0129708
0.0129335
0.0128929
0.0128495
0.0128028
0.0127533
0.0127007
0.012646
0.0125889
0.0125308
0.012472
0.0124141
0.0123582
0.0123063
0.01226
0.0122216
0.0121933
0.0121774
0.0121766
0.0121933
0.0122281
0.0122787
0.0123401
0.0124047
0.0124621
0.0124975
0.0124915
0.012422
0.012267
0.0120094
0.0116438
0.0111809
0.0106499
0.0100958
0.00956164
0.00908285
0.00864644
0.00823377
0.0077508
0.00712242
0.00627397
0.00525539
0.00396976
0.00285077
0.00241613
0.0132847
0.0132803
0.0132735
0.0132645
0.0132534
0.0132398
0.0132241
0.0132058
0.0131851
0.0131616
0.0131356
0.0131066
0.013075
0.0130403
0.0130029
0.0129623
0.0129188
0.012872
0.0128223
0.0127693
0.0127138
0.0126554
0.0125951
0.0125331
0.0124708
0.0124087
0.0123488
0.0122924
0.0122418
0.0121995
0.0121681
0.0121507
0.0121505
0.0121711
0.0122165
0.0122884
0.0123861
0.0125064
0.0126441
0.0127908
0.0129336
0.0130539
0.0131281
0.0131302
0.0130359
0.0128282
0.0125029
0.012073
0.011568
0.0110214
0.0104671
0.0099015
0.00932398
0.00865995
0.00784727
0.00681809
0.00562017
0.0041408
0.00277664
0.00208449
0.0133077
0.0133023
0.013294
0.013283
0.0132693
0.0132528
0.0132336
0.0132114
0.0131862
0.0131578
0.0131264
0.0130916
0.0130537
0.0130123
0.0129677
0.0129194
0.0128679
0.0128127
0.0127542
0.012692
0.0126268
0.0125584
0.0124879
0.0124154
0.0123422
0.0122692
0.0121982
0.0121308
0.0120694
0.0120169
0.0119763
0.0119512
0.0119454
0.0119635
0.0120101
0.0120884
0.012199
0.012341
0.0125118
0.0127061
0.0129143
0.0131201
0.0133013
0.013431
0.0134811
0.0134267
0.0132518
0.0129538
0.0125458
0.0120472
0.0114833
0.0108509
0.0101576
0.00934142
0.00835087
0.00712595
0.00571907
0.00401232
0.00238996
0.00147107
0.0132907
0.0132843
0.0132743
0.0132611
0.0132447
0.0132251
0.0132023
0.0131759
0.0131461
0.0131126
0.0130755
0.0130345
0.0129897
0.0129408
0.0128881
0.0128311
0.0127701
0.0127046
0.0126351
0.0125609
0.0124829
0.0124007
0.0123151
0.0122265
0.0121358
0.012044
0.0119526
0.0118633
0.0117783
0.0117005
0.011633
0.0115797
0.0115448
0.0115329
0.0115493
0.0115978
0.0116805
0.0117982
0.011951
0.0121371
0.0123503
0.0125784
0.0128023
0.012997
0.0131339
0.0131848
0.0131256
0.0129423
0.0126339
0.0122058
0.0116719
0.011025
0.0102748
0.00936632
0.00825438
0.00688785
0.00532731
0.00345919
0.00166138
0.000628324
0.0132208
0.0132134
0.0132019
0.0131867
0.0131679
0.0131453
0.0131191
0.0130888
0.0130546
0.013016
0.0129733
0.0129261
0.0128745
0.012818
0.012757
0.0126909
0.0126198
0.0125433
0.0124616
0.0123741
0.0122813
0.0121828
0.0120794
0.0119709
0.0118584
0.0117425
0.0116244
0.0115056
0.011388
0.0112741
0.0111672
0.0110708
0.0109891
0.0109268
0.010889
0.0108801
0.0109027
0.0109593
0.0110524
0.0111831
0.0113491
0.0115423
0.0117481
0.0119452
0.0121075
0.0122065
0.0122147
0.0121109
0.0118834
0.0115263
0.0110425
0.0104186
0.0096627
0.00872309
0.00755847
0.00612516
0.0044934
0.00255737
0.000683298
-0.000363147
0.013094
0.0130856
0.0130725
0.0130553
0.0130341
0.0130087
0.0129793
0.0129453
0.012907
0.0128638
0.0128159
0.0127629
0.0127048
0.0126412
0.0125722
0.0124972
0.0124163
0.0123289
0.0122349
0.0121339
0.012026
0.0119106
0.0117884
0.0116589
0.011523
0.0113808
0.0112333
0.0110817
0.0109273
0.0107725
0.0106199
0.010473
0.0103355
0.0102118
0.0101069
0.0100249
0.00996907
0.00994283
0.00995045
0.00999566
0.0100796
0.0101984
0.0103419
0.0104938
0.0106317
0.0107296
0.0107597
0.0106976
0.0105246
0.0102264
0.00979693
0.00921666
0.0084908
0.00756841
0.00640909
0.00497567
0.00334598
0.00142136
-0.000452491
-0.00145073
0.012904
0.0128948
0.0128806
0.0128619
0.012839
0.0128116
0.0127798
0.012743
0.0127014
0.0126545
0.0126023
0.0125444
0.0124808
0.0124109
0.0123348
0.0122519
0.012162
0.0120644
0.0119592
0.0118453
0.0117231
0.0115916
0.0114512
0.0113014
0.0111425
0.0109745
0.010798
0.0106137
0.0104226
0.0102265
0.0100276
0.00982891
0.00963374
0.00944611
0.00927051
0.00911086
0.00897036
0.0088531
0.00876464
0.00871071
0.00869527
0.00871816
0.00877376
0.00885048
0.00893085
0.00899257
0.00900993
0.00895771
0.00881391
0.00855872
0.00817898
0.00765021
0.00697394
0.00609874
0.00498412
0.00359693
0.00202018
0.000158768
-0.00166901
-0.00259005
0.0126615
0.0126513
0.0126358
0.0126155
0.0125909
0.0125615
0.0125275
0.0124882
0.0124437
0.0123935
0.0123376
0.0122754
0.012207
0.0121316
0.0120493
0.0119593
0.0118615
0.011755
0.0116396
0.0115143
0.0113791
0.011233
0.0110761
0.0109076
0.0107276
0.0105358
0.0103325
0.0101179
0.00989265
0.00965796
0.00941566
0.00916819
0.00891844
0.0086699
0.00842655
0.00819192
0.00796909
0.00776235
0.0075781
0.00742353
0.00730471
0.00722462
0.00718157
0.00716851
0.00717275
0.0071764
0.00715698
0.0070906
0.00695403
0.00672459
0.00638414
0.00590459
0.00528408
0.00447031
0.00342097
0.00210556
0.000608783
-0.00116429
-0.00292644
-0.00376608
0.0123712
0.0123601
0.0123434
0.0123218
0.0122955
0.0122644
0.0122284
0.0121868
0.0121397
0.0120865
0.0120272
0.0119612
0.0118885
0.0118084
0.0117207
0.0116247
0.01152
0.0114057
0.0112815
0.0111463
0.0109998
0.010841
0.0106695
0.0104846
0.010286
0.0100732
0.00984604
0.00960446
0.00934879
0.00907971
0.0087986
0.00850744
0.0082086
0.00790512
0.00760043
0.00729764
0.00699954
0.00671041
0.0064371
0.00618773
0.00596994
0.00578912
0.00564693
0.00554025
0.00546086
0.00539532
0.00532495
0.00522829
0.00508261
0.00486398
0.00455115
0.0041136
0.00354637
0.00279613
0.00181859
0.00058395
-0.000823725
-0.00250243
-0.00419642
-0.00496262
0.0120436
0.0120313
0.0120132
0.0119899
0.0119618
0.0119286
0.0118904
0.0118464
0.0117967
0.0117407
0.0116783
0.0116089
0.0115323
0.0114479
0.0113555
0.0112541
0.0111434
0.0110224
0.0108906
0.0107467
0.0105904
0.0104205
0.0102364
0.0100373
0.00982254
0.00959137
0.00934354
0.00907853
0.00879637
0.00849736
0.00818245
0.00785315
0.00751143
0.00715984
0.00680136
0.00643863
0.00607414
0.00571195
0.00535911
0.00502427
0.00471611
0.00444187
0.00420581
0.00400814
0.00384452
0.00370569
0.00357683
0.00343952
0.00327235
0.00305166
0.00275429
0.00234844
0.00182671
0.00113489
0.000226024
-0.000929829
-0.00225154
-0.00384192
-0.00547511
-0.00618322
0.011673
0.0116599
0.0116407
0.0116164
0.0115873
0.011553
0.0115134
0.011468
0.0114165
0.0113585
0.0112937
0.0112216
0.011142
0.0110541
0.0109578
0.0108519
0.0107362
0.0106094
0.010471
0.0103197
0.0101549
0.0099754
0.00978042
0.00956885
0.00934008
0.009093
0.00882717
0.00854183
0.0082367
0.00791175
0.00756754
0.00720525
0.00682636
0.00643311
0.006028
0.0056133
0.00519112
0.00476525
0.00434273
0.00393245
0.00354376
0.0031852
0.00286308
0.00258029
0.00233582
0.00212415
0.00193415
0.00175058
0.00155406
0.00132179
0.00102979
0.000645706
0.00016013
-0.000481931
-0.00132982
-0.00241468
-0.00365936
-0.00517281
-0.00675623
-0.00742197
0.0112738
0.0112596
0.0112393
0.0112138
0.0111834
0.0111478
0.0111069
0.01106
0.0110069
0.010947
0.0108802
0.0108058
0.0107235
0.0106327
0.0105328
0.0104231
0.0103028
0.0101709
0.0100267
0.00986881
0.00969653
0.00950849
0.00930384
0.00908132
0.00884014
0.00857902
0.00829733
0.00799408
0.00766877
0.00732106
0.00695121
0.00656001
0.00614871
0.0057191
0.00527335
0.00481341
0.00434101
0.00385966
0.00337623
0.00289968
0.00243972
0.00200582
0.0016058
0.0012447
0.000924298
0.00064229
0.000390954
0.000158196
-7.32043e-05
-0.000324457
-0.000619924
-0.000991676
-0.00145081
-0.00205277
-0.00284948
-0.00387357
-0.00505291
-0.0065027
-0.00804831
-0.00868764
0.0108481
0.0108331
0.0108119
0.0107853
0.0107539
0.0107172
0.010675
0.0106267
0.010572
0.0105104
0.0104416
0.0103649
0.0102802
0.0101865
0.0100836
0.00997028
0.00984603
0.00970958
0.00956026
0.00939646
0.00921743
0.00902171
0.0088083
0.00857584
0.0083234
0.00804955
0.00775349
0.00743405
0.00709052
0.00672232
0.00632944
0.0059124
0.00547208
0.00501009
0.00452826
0.00402822
0.00351141
0.00298102
0.00244372
0.00190838
0.0013849
0.000883382
0.000412803
-2.00843e-05
-0.000411207
-0.000760059
-0.00107128
-0.00135397
-0.00162301
-0.00189797
-0.00220299
-0.00256958
-0.00301029
-0.00358086
-0.00433547
-0.00530875
-0.0064337
-0.00783194
-0.00935015
-0.00997596
0.010406
0.0103899
0.0103674
0.0103394
0.0103064
0.0102681
0.0102242
0.0101742
0.0101176
0.010054
0.00998308
0.00990412
0.0098168
0.00972035
0.00961432
0.00949758
0.00936942
0.00922862
0.00907435
0.00890495
0.00871955
0.00851661
0.00829496
0.00805318
0.00779017
0.00750437
0.00719484
0.00686025
0.00649971
0.00611243
0.00569818
0.00525718
0.00479016
0.00429841
0.00378355
0.00324698
0.00268984
0.00211504
0.00152903
0.000940515
0.000359474
-0.000203544
-0.000738711
-0.0012379
-0.00169512
-0.00210745
-0.00247676
-0.00280932
-0.00311782
-0.00341988
-0.00373933
-0.00410664
-0.00453568
-0.00508238
-0.0058031
-0.0067345
-0.00781502
-0.00917228
-0.010672
-0.0112958
0.00993425
0.00991748
0.00989438
0.00986591
0.0098324
0.00979357
0.00974905
0.00969819
0.00964066
0.00957588
0.00950351
0.00942285
0.00933355
0.00923478
0.00912609
0.00900628
0.00887459
0.00872972
0.00857078
0.00839602
0.00820446
0.0079945
0.00776484
0.00751398
0.00724068
0.00694326
0.00662064
0.00627135
0.00589435
0.00548866
0.00505384
0.00458993
0.00409736
0.00357734
0.00303123
0.00246028
0.00186534
0.00124911
0.000617816
-2.00561e-05
-0.000654487
-0.0012746
-0.0018699
-0.00243113
-0.00295063
-0.00342337
-0.00384869
-0.00423023
-0.00457847
-0.00490919
-0.00524562
-0.00561721
-0.006039
-0.00656715
-0.00725989
-0.0081562
-0.00919973
-0.0105239
-0.0120116
-0.0126419
0.00944649
0.00942895
0.00940509
0.00937588
0.00934163
0.00930208
0.00925679
0.00920514
0.00914668
0.00908084
0.00900718
0.00892501
0.00883385
0.00873293
0.00862166
0.00849888
0.00836367
0.00821478
0.00805117
0.00787107
0.00767337
0.0074564
0.00721873
0.00695877
0.00667516
0.00636609
0.00603036
0.00566637
0.00527294
0.0048489
0.00439367
0.00390703
0.00338934
0.00284155
0.00226492
0.00166057
0.0010291
0.000373043
-0.000301596
-0.00098651
-0.00167168
-0.00234596
-0.0029983
-0.00361849
-0.00419744
-0.00472819
-0.00520781
-0.00563743
-0.00602553
-0.00638588
-0.00674127
-0.00711971
-0.00753763
-0.0080513
-0.0087207
-0.00958723
-0.0105998
-0.0118972
-0.013378
-0.0140222
0.00894279
0.00892477
0.00890041
0.00887067
0.00883586
0.00879569
0.0087497
0.00869718
0.00863772
0.00857066
0.00849561
0.0084118
0.00831878
0.00821567
0.00810193
0.00797623
0.00783765
0.00768481
0.00751663
0.00733118
0.0071273
0.00690323
0.00665739
0.00638813
0.00609396
0.00577296
0.00542379
0.00504474
0.00463449
0.00419173
0.00371569
0.00320603
0.00266287
0.00208713
0.0014799
0.000842213
0.000174494
-0.000520888
-0.00123809
-0.00196898
-0.00270352
-0.00343032
-0.00413785
-0.004815
-0.0054514
-0.00603831
-0.00657064
-0.00704716
-0.00747438
-0.00786418
-0.00823868
-0.00862476
-0.0090402
-0.00954138
-0.0101899
-0.0110299
-0.0120151
-0.0132897
-0.014767
-0.0154304
0.00843337
0.00841463
0.00838928
0.00835844
0.00832241
0.00828097
0.00823362
0.0081797
0.00811871
0.00805004
0.0079732
0.00788744
0.00779219
0.00768664
0.00757007
0.00744122
0.00729894
0.00714192
0.00696888
0.00677787
0.00656754
0.00633608
0.00608174
0.0058028
0.00549763
0.00516419
0.00480102
0.00440628
0.00397855
0.00351632
0.00301874
0.00248523
0.00191588
0.00131141
0.000672895
1.28182e-06
-0.000703155
-0.00143816
-0.00219801
-0.00297472
-0.00375821
-0.00453682
-0.00529856
-0.00603152
-0.00672411
-0.0073659
-0.00794981
-0.00847229
-0.00893808
-0.00935699
-0.00975089
-0.010145
-0.0105589
-0.0110491
-0.0116786
-0.0124943
-0.013455
-0.0147097
-0.0161862
-0.0168735
0.00790172
0.00788262
0.00785709
0.00782616
0.00779007
0.00774855
0.00770101
0.00764674
0.00758518
0.00751568
0.00743773
0.00735055
0.00725354
0.00714584
0.00702671
0.00689479
0.0067489
0.00658759
0.00640956
0.0062127
0.00599558
0.00575631
0.00549298
0.0052038
0.004887
0.0045404
0.00416246
0.00375118
0.00330503
0.00282238
0.00230218
0.0017438
0.00114708
0.000512792
-0.000158141
-0.00086475
-0.00160691
-0.00238242
-0.00318567
-0.00400876
-0.00484154
-0.00567205
-0.00648782
-0.00727618
-0.0080243
-0.00872017
-0.00935465
-0.00992211
-0.0104253
-0.0108724
-0.0112844
-0.0116858
-0.0120976
-0.0125765
-0.0131872
-0.0139795
-0.0149167
-0.016153
-0.0176302
-0.0183445
0.00736298
0.00734338
0.0073174
0.00728607
0.00724958
0.00720768
0.00715973
0.007105
0.00704281
0.00697254
0.00689351
0.00680497
0.00670616
0.00659629
0.00647445
0.00633932
0.00618951
0.00602365
0.00584024
0.00563714
0.00541276
0.00516515
0.00489223
0.00459213
0.00426294
0.00390236
0.00350872
0.00307989
0.00261425
0.00210998
0.00156597
0.000981328
0.000355959
-0.000309591
-0.00101433
-0.00175734
-0.00253857
-0.00335589
-0.0042037
-0.00507419
-0.00595707
-0.00684003
-0.00771014
-0.0085539
-0.00935734
-0.0101068
-0.0107913
-0.0114029
-0.0119428
-0.012417
-0.0128466
-0.0132546
-0.0136639
-0.0141316
-0.0147235
-0.0154927
-0.0164074
-0.0176264
-0.0191056
-0.01985
0.00681845
0.00679863
0.00677242
0.00674079
0.00670397
0.00666166
0.00661319
0.00655774
0.00649466
0.0064232
0.00634276
0.00625246
0.00615162
0.00603926
0.00591455
0.00577593
0.00562206
0.00545134
0.00526227
0.00505251
0.00482039
0.00456385
0.00428067
0.00396888
0.00362644
0.00325093
0.00284055
0.00239305
0.00190668
0.00137952
0.000810267
0.000198002
-0.00045764
-0.00115595
-0.00189613
-0.00267714
-0.00349906
-0.00435975
-0.00525363
-0.00617291
-0.00710712
-0.00804358
-0.00896881
-0.00986849
-0.0107274
-0.0115303
-0.0122643
-0.0129194
-0.0134948
-0.0139949
-0.0144399
-0.014853
-0.0152584
-0.0157133
-0.0162853
-0.0170309
-0.0179227
-0.0191245
-0.0206062
-0.0213828
0.00627914
0.00625878
0.0062317
0.00619904
0.00616105
0.00611746
0.00606759
0.00601065
0.00594588
0.0058726
0.00579006
0.00569744
0.00559388
0.00547849
0.00535023
0.0052076
0.00504898
0.00487285
0.00467748
0.00446045
0.00421992
0.00395375
0.00365952
0.00333518
0.00297855
0.00258706
0.00215881
0.0016914
0.00118301
0.000631517
3.56032e-05
-0.000605942
-0.00129335
-0.00202619
-0.00280349
-0.00362426
-0.0044886
-0.00539441
-0.00633604
-0.00730568
-0.00829263
-0.00928382
-0.0102651
-0.0112214
-0.0121361
-0.0129927
-0.0137758
-0.0144738
-0.0150839
-0.0156088
-0.0160684
-0.0164852
-0.0168858
-0.0173272
-0.0178785
-0.0186
-0.0194688
-0.0206536
-0.0221384
-0.022949
0.00572677
0.00570623
0.00567914
0.00564654
0.00560859
0.00556498
0.00551491
0.00545752
0.005392
0.00531758
0.00523352
0.00513892
0.00503292
0.00491451
0.00478268
0.00463577
0.00447213
0.00429008
0.00408785
0.00386285
0.00361313
0.00333645
0.00303021
0.00269231
0.00232039
0.00191176
0.00146438
0.000975763
0.000443926
-0.000133329
-0.000757522
-0.00142984
-0.00215083
-0.00291981
-0.00373605
-0.00459838
-0.00550701
-0.0064598
-0.00745102
-0.0084728
-0.0095142
-0.0105616
-0.0116003
-0.0126142
-0.0135855
-0.0144958
-0.0153281
-0.0160686
-0.0167121
-0.0172605
-0.0177321
-0.0181512
-0.018545
-0.0189708
-0.0194997
-0.0201958
-0.0210406
-0.0222076
-0.0236957
-0.0245416
0.00517705
0.00515617
0.00512873
0.0050958
0.00505747
0.00501343
0.00496282
0.00490476
0.00483828
0.00476263
0.00467688
0.00458017
0.00447143
0.00434977
0.00421392
0.00406231
0.00389302
0.00370447
0.00349464
0.00326091
0.00300115
0.00271306
0.00239383
0.00204128
0.00165292
0.00122591
0.000758113
0.000246877
-0.000309828
-0.000914407
-0.00156838
-0.00227324
-0.00302933
-0.00383634
-0.00469326
-0.00559902
-0.00655383
-0.00755551
-0.00859822
-0.00967396
-0.0107715
-0.0118767
-0.0129741
-0.0140466
-0.0150752
-0.0160398
-0.0169212
-0.0177038
-0.0183801
-0.0189509
-0.0194337
-0.0198533
-0.0202393
-0.0206484
-0.0211538
-0.0218237
-0.0226438
-0.0237927
-0.0252842
-0.0261667
0.00463286
0.00461187
0.0045842
0.00455088
0.00451202
0.00446727
0.00441575
0.00435644
0.00428841
0.00421078
0.00412269
0.00402311
0.00391107
0.00378544
0.00364509
0.00348812
0.00331269
0.00311693
0.00289887
0.0026556
0.00238495
0.00208448
0.00175122
0.00138291
0.000976923
0.000530257
4.06776e-05
-0.000494576
-0.00107766
-0.00171105
-0.00239648
-0.00313535
-0.00392844
-0.00477502
-0.00567449
-0.00662552
-0.00762842
-0.00868098
-0.00977717
-0.0109089
-0.0120644
-0.0132292
-0.0143869
-0.0155194
-0.0166063
-0.0176258
-0.0185565
-0.019381
-0.0200892
-0.0206811
-0.0211725
-0.0215914
-0.0219672
-0.0223573
-0.022837
-0.023479
-0.0242729
-0.0254027
-0.0268974
-0.0278173
0.00410317
0.0040817
0.00405305
0.00401845
0.00397804
0.00393151
0.00387797
0.0038164
0.00374578
0.00366526
0.00357385
0.00347056
0.00335424
0.00322386
0.00307803
0.00291492
0.00273239
0.00252862
0.0023014
0.00204774
0.00176524
0.00145141
0.00110305
0.000717827
0.000292972
-0.000174662
-0.000687396
-0.00124813
-0.00185905
-0.00252284
-0.0032412
-0.00401586
-0.00484734
-0.00573542
-0.00667912
-0.00767728
-0.0087302
-0.00983561
-0.0109872
-0.0121768
-0.0133923
-0.0146183
-0.0158378
-0.0170317
-0.0181779
-0.019253
-0.0202334
-0.0210997
-0.0218393
-0.0224514
-0.0229508
-0.0233669
-0.0237313
-0.024101
-0.0245539
-0.025167
-0.0259338
-0.0270436
-0.0285414
-0.0294991
0.00356666
0.00354508
0.00351636
0.00348165
0.00344099
0.003394
0.00333968
0.00327693
0.00320462
0.00312185
0.00302761
0.00292081
0.00280032
0.00266496
0.0025134
0.00234361
0.0021534
0.00194081
0.00170357
0.00143847
0.00114304
0.000814661
0.000449972
4.65461e-05
-0.000398511
-0.000888488
-0.00142581
-0.00201346
-0.00265376
-0.00334942
-0.00410233
-0.00491418
-0.00578592
-0.0067169
-0.00770664
-0.00875373
-0.0098586
-0.0110188
-0.012228
-0.0134775
-0.014755
-0.0160442
-0.0173274
-0.0185842
-0.019791
-0.0209226
-0.0219532
-0.0228613
-0.0236316
-0.0242629
-0.0247678
-0.0251799
-0.0255304
-0.0258771
-0.0263008
-0.0268829
-0.0276208
-0.0287092
-0.0302096
-0.0312057
0.00303783
0.00301596
0.00298683
0.00295157
0.00291016
0.00286226
0.00280675
0.00274252
0.00266826
0.00258304
0.00248569
0.00237515
0.00225005
0.00210934
0.00195141
0.00177434
0.00157562
0.00135341
0.00110518
0.000827681
0.000518233
0.000174189
-0.000208055
-0.000630956
-0.00109755
-0.00161126
-0.00217458
-0.00279063
-0.00346173
-0.0041908
-0.00497968
-0.00583041
-0.00674368
-0.00771939
-0.00875679
-0.00985463
-0.0110133
-0.0122303
-0.0134989
-0.0148104
-0.0161518
-0.0175063
-0.0188549
-0.020176
-0.0214448
-0.0226338
-0.0237152
-0.0246654
-0.0254662
-0.0261161
-0.0266258
-0.0270317
-0.027367
-0.0276893
-0.0280824
-0.0286322
-0.0293398
-0.0304056
-0.0319082
-0.0329425
0.0025199
0.00249797
0.00246845
0.00243244
0.00238998
0.00234064
0.00228333
0.00221676
0.00213968
0.00205099
0.0019496
0.00183427
0.00170376
0.00155673
0.00139173
0.00120648
0.00099855
0.000765786
0.000505719
0.000214789
-0.000109718
-0.00047059
-0.000871581
-0.00131522
-0.00180466
-0.00234345
-0.00293416
-0.00357998
-0.00428335
-0.00504721
-0.00587361
-0.00676452
-0.00772109
-0.0087429
-0.00982965
-0.0109799
-0.0121942
-0.0134699
-0.0148001
-0.0161756
-0.0175832
-0.019005
-0.020421
-0.0218084
-0.0231406
-0.0243883
-0.0255212
-0.0265137
-0.0273447
-0.0280122
-0.0285247
-0.0289231
-0.0292404
-0.0295353
-0.029895
-0.03041
-0.031085
-0.0321266
-0.0336307
-0.0347032
0.0020176
0.00199524
0.00196453
0.00192683
0.0018822
0.0018303
0.00177
0.00170001
0.00161898
0.00152584
0.00141935
0.00129832
0.00116129
0.00100704
0.000833857
0.000639511
0.000421253
0.000176998
-9.59817e-05
-0.000401339
-0.000742
-0.00112079
-0.0015417
-0.00200729
-0.00252082
-0.00308598
-0.00370539
-0.00438236
-0.00511932
-0.00591941
-0.00678466
-0.00771736
-0.00871845
-0.00978804
-0.0109256
-0.0121299
-0.0134015
-0.0147377
-0.0161314
-0.0175731
-0.019049
-0.0205401
-0.0220254
-0.0234808
-0.0248779
-0.0261854
-0.0273708
-0.028406
-0.0292673
-0.0299521
-0.0304669
-0.0308556
-0.0311532
-0.031419
-0.0317436
-0.0322219
-0.0328625
-0.0338782
-0.035383
-0.0364933
0.00150485
0.00148253
0.00145181
0.00141391
0.00136878
0.00131599
0.00125426
0.00118221
0.00109833
0.0010015
0.000890453
0.000763889
0.000620366
0.000458521
0.000276712
7.25009e-05
-0.000156892
-0.000413705
-0.00070068
-0.00102169
-0.00137973
-0.00177771
-0.00221978
-0.00270857
-0.00324743
-0.0038402
-0.00448956
-0.00519891
-0.00597081
-0.00680842
-0.00771396
-0.00868963
-0.00973686
-0.0108554
-0.0120452
-0.013305
-0.0146356
-0.0160342
-0.0174935
-0.0190036
-0.02055
-0.0221127
-0.0236696
-0.025195
-0.0266588
-0.0280276
-0.0292663
-0.0303447
-0.0312362
-0.0319374
-0.0324528
-0.0328303
-0.0331053
-0.0333386
-0.0336248
-0.0340633
-0.0346666
-0.0356542
-0.0371587
-0.0383065
0.00100028
0.000977905
0.000946846
0.000908205
0.000861877
0.00080743
0.000743501
0.00066862
0.000581135
0.00047989
0.000363437
0.000230527
7.95107e-05
-9.08307e-05
-0.000282376
-0.000497463
-0.000739163
-0.00100958
-0.00131167
-0.00164937
-0.00202586
-0.00244404
-0.00290833
-0.00342134
-0.00398658
-0.00460802
-0.00528841
-0.00603129
-0.00683924
-0.0077156
-0.00866254
-0.00968257
-0.0107769
-0.0119458
-0.0131892
-0.014506
-0.0158972
-0.0173602
-0.018887
-0.0204676
-0.0220867
-0.0237232
-0.0253536
-0.0269509
-0.0284831
-0.0299144
-0.0312076
-0.0323298
-0.0332517
-0.0339691
-0.0344845
-0.0348487
-0.0350991
-0.035298
-0.0355433
-0.0359397
-0.0365032
-0.0374608
-0.0389638
-0.0401481
0.000505969
0.000483643
0.000451269
0.000410356
0.000361087
0.00030301
0.000234904
0.00015514
6.2182e-05
-4.53324e-05
-0.00016868
-0.000309353
-0.000468838
-0.000648674
-0.000850575
-0.00107724
-0.00133169
-0.0016163
-0.00193398
-0.00228898
-0.00268447
-0.00312352
-0.00361066
-0.0041486
-0.00474094
-0.00539181
-0.00610404
-0.00688129
-0.00772621
-0.0086422
-0.00963162
-0.0106969
-0.0118397
-0.01306
-0.0143585
-0.0157339
-0.0171874
-0.0187165
-0.0203131
-0.0219665
-0.0236605
-0.0253731
-0.0270795
-0.0287508
-0.0303533
-0.0318488
-0.0331975
-0.034364
-0.0353165
-0.0360493
-0.0365631
-0.0369123
-0.037135
-0.0372956
-0.0374962
-0.0378463
-0.0383667
-0.0392917
-0.0407919
-0.0420121
4.90153e-06
-1.80973e-05
-5.20667e-05
-9.53414e-05
-0.000147951
-0.000210054
-0.000283057
-0.000368314
-0.000467623
-0.000582076
-0.000713235
-0.000862309
-0.00103114
-0.00122101
-0.00143398
-0.00167262
-0.00194034
-0.0022394
-0.00257301
-0.00294548
-0.00336023
-0.00382033
-0.0043306
-0.00489373
-0.0055135
-0.00619418
-0.00693869
-0.00775083
-0.00863328
-0.00958966
-0.0106223
-0.0117339
-0.012926
-0.0141993
-0.0155541
-0.0169897
-0.0185073
-0.0201046
-0.0217728
-0.023501
-0.0252722
-0.0270632
-0.0288476
-0.030595
-0.0322696
-0.0338307
-0.0352359
-0.0364473
-0.0374306
-0.0381786
-0.0386903
-0.0390223
-0.0392153
-0.0393352
-0.0394879
-0.0397887
-0.040263
-0.0411529
-0.0426487
-0.0439034
-0.000575428
-0.000597245
-0.000629379
-0.000670907
-0.000721938
-0.000783032
-0.000855644
-0.000941523
-0.00104243
-0.00115971
-0.00129481
-0.00144917
-0.00162444
-0.00182212
-0.00204413
-0.0022933
-0.00257302
-0.00288573
-0.00323459
-0.00362414
-0.00405781
-0.00453875
-0.00507195
-0.00566017
-0.00630731
-0.00701781
-0.0077947
-0.0086419
-0.00956224
-0.0105594
-0.011636
-0.0127947
-0.0140374
-0.0153646
-0.0167774
-0.0182747
-0.0198581
-0.0215254
-0.0232674
-0.0250727
-0.0269235
-0.0287953
-0.0306602
-0.0324861
-0.0342348
-0.0358632
-0.0373261
-0.038583
-0.039597
-0.0403595
-0.0408674
-0.0411803
-0.0413401
-0.041415
-0.0415152
-0.0417621
-0.0421864
-0.0430382
-0.0445278
-0.045816
-0.00113053
-0.00115366
-0.00118892
-0.00123474
-0.00129104
-0.00135781
-0.0014365
-0.00152854
-0.00163589
-0.00175971
-0.00190177
-0.00206336
-0.00224656
-0.00245273
-0.00268421
-0.00294379
-0.00323529
-0.00356104
-0.00392455
-0.00433038
-0.00478226
-0.0052833
-0.0058388
-0.00645152
-0.00712553
-0.00786548
-0.00867447
-0.00955665
-0.0105149
-0.0115532
-0.0126741
-0.0138806
-0.0151746
-0.0165571
-0.018029
-0.0195896
-0.0212408
-0.02298
-0.0247979
-0.0266824
-0.0286151
-0.03057
-0.0325177
-0.0344241
-0.0362489
-0.0379461
-0.0394678
-0.0407708
-0.0418156
-0.042592
-0.0430952
-0.0433869
-0.0435114
-0.0435384
-0.0435824
-0.0437717
-0.0441425
-0.0449536
-0.046435
-0.0477549
-0.00177363
-0.00179574
-0.00182966
-0.00187447
-0.00193007
-0.00199682
-0.00207614
-0.00216974
-0.00227947
-0.00240667
-0.00255295
-0.00271979
-0.00290908
-0.00312238
-0.00336195
-0.00363083
-0.00393292
-0.00427069
-0.00464775
-0.00506888
-0.0055379
-0.00605805
-0.00663486
-0.00727116
-0.00797122
-0.00873986
-0.00958036
-0.010497
-0.011493
-0.0125723
-0.0137377
-0.0149924
-0.0163386
-0.0177772
-0.0193097
-0.0209353
-0.022656
-0.0244693
-0.0263653
-0.0283315
-0.0303487
-0.0323893
-0.0344225
-0.036412
-0.038315
-0.0400829
-0.0416645
-0.043014
-0.0440893
-0.0448787
-0.0453755
-0.0456437
-0.045729
-0.0457035
-0.0456861
-0.0458126
-0.0461256
-0.0468926
-0.048364
-0.0497141
-0.00243419
-0.00245772
-0.00249454
-0.00254297
-0.00260283
-0.00267391
-0.00275771
-0.0028556
-0.00296973
-0.00310124
-0.00325217
-0.00342381
-0.00361857
-0.00383787
-0.00408442
-0.00436119
-0.00467251
-0.00502076
-0.00540988
-0.00584472
-0.00632939
-0.00686713
-0.00746382
-0.00812232
-0.00884713
-0.00964331
-0.0105143
-0.0114647
-0.0124976
-0.0136176
-0.0148274
-0.0161306
-0.0175294
-0.0190254
-0.0206198
-0.0223121
-0.0241042
-0.0259936
-0.02797
-0.0300204
-0.0321245
-0.0342535
-0.0363746
-0.0384495
-0.0404329
-0.0422729
-0.0439155
-0.045312
-0.0464176
-0.0472192
-0.0477081
-0.0479506
-0.0479943
-0.0479128
-0.04783
-0.0478898
-0.0481411
-0.0488612
-0.0503202
-0.0516989
-0.00322388
-0.00324633
-0.00328002
-0.00332458
-0.00338019
-0.00344718
-0.00352725
-0.0036222
-0.00373422
-0.00386471
-0.00401557
-0.00418833
-0.00438522
-0.0046078
-0.0048587
-0.00514113
-0.00545944
-0.00581618
-0.00621533
-0.00666199
-0.00716037
-0.00771386
-0.00832858
-0.00900751
-0.0097554
-0.0105775
-0.0114776
-0.0124605
-0.0135295
-0.0146895
-0.0159435
-0.0172952
-0.0187474
-0.0203012
-0.021959
-0.0237196
-0.0255852
-0.0275531
-0.0296125
-0.0317498
-0.0339439
-0.0361643
-0.0383763
-0.0405395
-0.0426056
-0.0445197
-0.0462244
-0.0476682
-0.0488035
-0.049616
-0.0500949
-0.0503088
-0.0503068
-0.0501644
-0.0500107
-0.0499982
-0.0501833
-0.050853
-0.0522977
-0.0537035
-0.00402
-0.00404418
-0.00408081
-0.00412871
-0.00418759
-0.00425756
-0.00434022
-0.00443733
-0.00455119
-0.00468326
-0.00483571
-0.00501008
-0.00520897
-0.00543394
-0.00568799
-0.00597434
-0.00629778
-0.0066608
-0.00706776
-0.00752386
-0.00803362
-0.0086005
-0.00923099
-0.00992817
-0.0106971
-0.0115433
-0.0124708
-0.0134847
-0.0145887
-0.0157879
-0.0170856
-0.0184859
-0.0199915
-0.0216045
-0.0233267
-0.0251574
-0.0270986
-0.0291475
-0.0312926
-0.0335196
-0.0358066
-0.0381214
-0.0404273
-0.0426813
-0.0448324
-0.0468223
-0.0485901
-0.0500814
-0.0512458
-0.0520679
-0.0525349
-0.0527177
-0.0526671
-0.05246
-0.0522311
-0.0521423
-0.0522574
-0.0528736
-0.0543016
-0.055733
-0.00489167
-0.00491695
-0.00495435
-0.00500261
-0.00506169
-0.00513178
-0.00521462
-0.005312
-0.00542629
-0.00555892
-0.00571209
-0.00588738
-0.00608742
-0.00631388
-0.00656985
-0.00685881
-0.00718572
-0.0075533
-0.00796609
-0.00842959
-0.00894854
-0.00952658
-0.0101706
-0.0108838
-0.0116716
-0.0125399
-0.013493
-0.0145364
-0.0156741
-0.0169116
-0.0182526
-0.0197012
-0.021261
-0.0229335
-0.0247218
-0.0266245
-0.0286437
-0.0307763
-0.0330101
-0.0353303
-0.0377137
-0.0401264
-0.0425295
-0.0448775
-0.0471163
-0.049184
-0.0510162
-0.0525551
-0.0537479
-0.0545776
-0.0550301