/*--------------------------------*- C++ -*----------------------------------*\
  =========                 |
  \\      /  F ield         | OpenFOAM: The Open Source CFD Toolbox
   \\    /   O peration     | Website:  https://openfoam.org
    \\  /    A nd           | Version:  6.0
     \\/     M anipulation  |
\*---------------------------------------------------------------------------*/
FoamFile
{
    version     2.0;
    format      ascii;
    class       surfaceScalarField;
    location    "11";
    object      phi;
}
// * * * * * * * * * * * * * * * * * * * * * * * * * * * * * * * * * * * * * //

dimensions      [0 3 -1 0 0 0 0];

internalField   nonuniform List<scalar> 
123526
(
-2.68927e-05
2.33238e-05
2.73024e-05
-2.64569e-05
2.52201e-05
-2.599e-05
2.72707e-05
-2.54837e-05
2.94883e-05
-2.49405e-05
3.18865e-05
-2.43514e-05
3.448e-05
-2.37183e-05
3.72847e-05
-2.30321e-05
4.03178e-05
-2.22929e-05
4.35972e-05
-2.14912e-05
4.71438e-05
-2.06271e-05
5.098e-05
-1.96911e-05
5.51287e-05
-1.86812e-05
5.96154e-05
-1.75852e-05
6.44652e-05
-1.6398e-05
6.9709e-05
-1.5113e-05
7.53832e-05
-1.37239e-05
8.15194e-05
-1.22143e-05
8.81481e-05
-1.05779e-05
9.53187e-05
-8.80781e-06
0.000103076
-6.88531e-06
0.000111455
-4.79914e-06
0.000120515
-2.54235e-06
0.000130314
-8.67126e-08
0.000140891
2.5724e-06
0.000152332
5.45554e-06
0.000164687
8.58461e-06
0.000178029
1.19711e-05
0.000192441
1.56478e-05
0.000207986
1.96242e-05
0.000224767
2.39373e-05
0.000242847
2.86028e-05
0.000262338
3.36555e-05
0.000283313
3.91229e-05
0.000305874
4.50295e-05
0.000330113
5.14171e-05
0.000356104
5.83075e-05
0.000383949
6.57406e-05
0.000413699
7.37568e-05
0.000445409
8.23882e-05
0.000479114
9.16755e-05
0.000514798
0.000101663
0.000552402
0.000112388
0.000591815
0.000123886
0.000632833
0.000136188
0.000675144
0.000149316
0.000718304
0.000163274
0.000761696
0.000178048
0.000804485
0.000193596
0.000845563
0.000209848
0.000883471
0.000226702
0.000916299
0.000244018
0.000941565
0.000261617
0.000956078
0.000279242
0.000955841
0.000296568
0.000935922
0.00031312
0.000890452
0.000328372
0.000812212
0.000341652
0.000693677
0.000351318
0.000523858
0.000278876
0.00034578
-2.64992e-05
2.29364e-05
2.6899e-05
-2.60725e-05
2.4801e-05
-2.56144e-05
2.68175e-05
-2.51174e-05
2.89981e-05
-2.45834e-05
3.13563e-05
-2.40043e-05
3.39067e-05
-2.33813e-05
3.66648e-05
-2.27062e-05
3.96476e-05
-2.19786e-05
4.28718e-05
-2.11898e-05
4.63589e-05
-2.03394e-05
5.01315e-05
-1.9419e-05
5.42114e-05
-1.84257e-05
5.86237e-05
-1.73484e-05
6.33906e-05
-1.61816e-05
6.85441e-05
-1.49194e-05
7.41237e-05
-1.35555e-05
8.01576e-05
-1.20738e-05
8.66693e-05
-1.04682e-05
9.37158e-05
-8.73227e-06
0.000101343
-6.84765e-06
0.000109574
-4.80317e-06
0.000118473
-2.59248e-06
0.000128107
-1.87612e-07
0.000138489
2.41527e-06
0.000149733
5.23698e-06
0.000161868
8.29829e-06
0.000174971
1.16115e-05
0.000189131
1.52078e-05
0.000204393
1.90981e-05
0.000220879
2.33175e-05
0.000238631
2.78825e-05
0.000257776
3.28276e-05
0.000278373
3.81792e-05
0.000300528
4.39636e-05
0.000324335
5.02229e-05
0.000349851
5.698e-05
0.000377197
6.42753e-05
0.00040641
7.21496e-05
0.000437541
8.06355e-05
0.000470634
8.97735e-05
0.000505665
9.96076e-05
0.000542573
0.000110173
0.000581255
0.000121501
0.000621509
0.000133618
0.00066303
0.00014654
0.000705384
0.000160267
0.000747968
0.000174779
0.000789969
0.000190034
0.000830299
0.000205968
0.000867522
0.000222488
0.000899758
0.000239467
0.000924555
0.000256738
0.000938779
0.000274053
0.000938498
0.000291092
0.000918866
0.000307393
0.000874131
0.000322401
0.000797189
0.000335515
0.000680541
0.000343519
0.00051582
0.000280542
0.000341794
-2.62115e-05
2.25572e-05
2.66032e-05
-2.57934e-05
2.43904e-05
-2.5344e-05
2.63729e-05
-2.48563e-05
2.85169e-05
-2.43317e-05
3.08355e-05
-2.37625e-05
3.33431e-05
-2.31497e-05
3.6055e-05
-2.24853e-05
3.8988e-05
-2.17688e-05
4.21576e-05
-2.09918e-05
4.55859e-05
-2.0154e-05
4.92958e-05
-1.9247e-05
5.3308e-05
-1.82685e-05
5.76471e-05
-1.72074e-05
6.23327e-05
-1.60586e-05
6.73974e-05
-1.48163e-05
7.28845e-05
-1.34745e-05
7.88183e-05
-1.20176e-05
8.52153e-05
-1.04397e-05
9.21406e-05
-8.7343e-06
9.96404e-05
-6.88372e-06
0.000107726
-4.87704e-06
0.000116469
-2.70815e-06
0.000125941
-3.49676e-07
0.000136133
2.20211e-06
0.000147184
4.96807e-06
0.000159105
7.96869e-06
0.000171974
1.12166e-05
0.000185886
1.47424e-05
0.00020087
1.85574e-05
0.000217067
2.2696e-05
0.000234495
2.71752e-05
0.0002533
3.20282e-05
0.000273524
3.72825e-05
0.00029528
4.29636e-05
0.000318661
4.91144e-05
0.000343706
5.57581e-05
0.00037056
6.29348e-05
0.000399239
7.0685e-05
0.000429796
7.90402e-05
0.000462284
8.80393e-05
0.000496671
9.77236e-05
0.000532893
0.000108125
0.000570857
0.000119271
0.000610365
0.000131185
0.000651117
0.000143877
0.000692691
0.000157347
0.000734498
0.000171577
0.000775738
0.00018653
0.000815345
0.00020215
0.000851901
0.000218355
0.000883553
0.000235027
0.000907883
0.000252007
0.000921809
0.000269045
0.00092146
0.000285827
0.000902095
0.000301894
0.000858064
0.00031664
0.000782445
0.000329472
0.000667706
0.000338302
0.000506988
0.000278794
0.000340052
-2.58643e-05
2.21848e-05
2.62467e-05
-2.54552e-05
2.39876e-05
-2.50154e-05
2.59371e-05
-2.45383e-05
2.80453e-05
-2.40248e-05
3.03253e-05
-2.34677e-05
3.2791e-05
-2.28675e-05
3.54576e-05
-2.2217e-05
3.83417e-05
-2.15149e-05
4.14576e-05
-2.07537e-05
4.4828e-05
-1.99324e-05
4.84761e-05
-1.90434e-05
5.24215e-05
-1.80835e-05
5.66887e-05
-1.70428e-05
6.12942e-05
-1.59153e-05
6.62717e-05
-1.46962e-05
7.16676e-05
-1.33789e-05
7.75031e-05
-1.19485e-05
8.37874e-05
-1.03991e-05
9.05936e-05
-8.7246e-06
9.79685e-05
-6.90744e-06
0.000105911
-4.93704e-06
0.000114501
-2.80742e-06
0.000123815
-4.91627e-07
0.00013382
2.01408e-06
0.000144681
4.7305e-06
0.000156391
7.6778e-06
0.00016903
1.08686e-05
0.000182698
1.43331e-05
0.000197408
1.80825e-05
0.000213321
2.21507e-05
0.000230429
2.65542e-05
0.000248899
3.13269e-05
0.000268756
3.64941e-05
0.000290118
4.20823e-05
0.000313078
4.8133e-05
0.000337661
5.46692e-05
0.000364029
6.17304e-05
0.000392183
6.93558e-05
0.000422176
7.75753e-05
0.000454069
8.6426e-05
0.000487826
9.59465e-05
0.000523378
0.000106166
0.000560643
0.00011711
0.000599427
0.000128799
0.000639434
0.000141245
0.000680252
0.000154446
0.000721303
0.000168389
0.0007618
0.000183045
0.000800693
0.000198364
0.000836584
0.000214274
0.000867643
0.00023066
0.00089149
0.000247368
0.0009051
0.000264147
0.000904676
0.000280681
0.000885564
0.000296516
0.000842223
0.000311015
0.000767939
0.000323547
0.000655157
0.000332624
0.00049788
0.000276155
0.000335209
-2.54292e-05
2.18209e-05
2.58067e-05
-2.50281e-05
2.35944e-05
-2.45977e-05
2.5512e-05
-2.41314e-05
2.75858e-05
-2.36302e-05
2.98282e-05
-2.30867e-05
3.22533e-05
-2.25018e-05
3.4876e-05
-2.18675e-05
3.77124e-05
-2.11834e-05
4.07759e-05
-2.04409e-05
4.40899e-05
-1.964e-05
4.76774e-05
-1.87721e-05
5.15574e-05
-1.78352e-05
5.57537e-05
-1.68181e-05
6.02804e-05
-1.57162e-05
6.51719e-05
-1.45236e-05
7.04781e-05
-1.32347e-05
7.62164e-05
-1.18341e-05
8.23897e-05
-1.03163e-05
8.90783e-05
-8.67502e-06
9.63299e-05
-6.8932e-06
0.000104132
-4.96026e-06
0.000112571
-2.87034e-06
0.000121727
-5.9686e-07
0.000131549
1.86392e-06
0.000142224
4.53252e-06
0.000153725
7.4287e-06
0.000166136
1.05648e-05
0.000179565
1.39705e-05
0.000194005
1.76567e-05
0.000209637
2.16568e-05
0.000226432
2.59873e-05
0.000244572
3.068e-05
0.000264067
3.5762e-05
0.000285042
4.12571e-05
0.000307589
4.72067e-05
0.000331717
5.36329e-05
0.000357608
6.05739e-05
0.000385247
6.80678e-05
0.000414687
7.61433e-05
0.000445998
8.48355e-05
0.000479137
9.41815e-05
0.000514035
0.000104209
0.000550618
0.000114942
0.000588696
0.0001264
0.000627977
0.000138597
0.000668057
0.000151533
0.000708368
0.0001652
0.000748136
0.000179572
0.000786323
0.000194608
0.000821552
0.000210239
0.000852019
0.000226354
0.000875382
0.000242799
0.00088867
0.000259326
0.000888156
0.000275613
0.000869291
0.000291213
0.000826626
0.000305484
0.000753672
0.00031773
0.000642911
0.000326558
0.000489052
0.000273637
0.000329085
-2.49669e-05
2.1464e-05
2.5334e-05
-2.45752e-05
2.32089e-05
-2.41548e-05
2.50957e-05
-2.36994e-05
2.71359e-05
-2.32101e-05
2.93421e-05
-2.26797e-05
3.17279e-05
-2.21089e-05
3.43078e-05
-2.14903e-05
3.70979e-05
-2.0823e-05
4.01105e-05
-2.00992e-05
4.33692e-05
-1.9318e-05
4.68975e-05
-1.84719e-05
5.07135e-05
-1.75574e-05
5.48405e-05
-1.6565e-05
5.92899e-05
-1.54887e-05
6.4097e-05
-1.43236e-05
6.93149e-05
-1.30632e-05
7.49578e-05
-1.16931e-05
8.10217e-05
-1.02073e-05
8.75948e-05
-8.59994e-06
9.47249e-05
-6.85392e-06
0.000102389
-4.95891e-06
0.000110678
-2.90906e-06
0.00011968
-6.78121e-07
0.00012932
1.73759e-06
0.000139811
4.35826e-06
0.000151107
7.20316e-06
0.000163294
1.02844e-05
0.000176486
1.36308e-05
0.000190662
1.72533e-05
0.000206017
2.11843e-05
0.000222503
2.54397e-05
0.000240319
3.00521e-05
0.000259459
3.50456e-05
0.000280053
4.04454e-05
0.000302194
4.62907e-05
0.000325876
5.26029e-05
0.0003513
5.94195e-05
0.000378435
6.67771e-05
0.000407333
7.47037e-05
0.000438076
8.32331e-05
0.000470612
9.24012e-05
0.000504872
0.000102235
0.00054079
0.000112757
0.000578178
0.00012399
0.000616751
0.000135946
0.000656108
0.00014863
0.000695691
0.000162036
0.000734737
0.000176142
0.000772223
0.000190913
0.000806788
0.00020628
0.000836657
0.000222136
0.000859527
0.000238326
0.000872485
0.000254603
0.000871884
0.000270643
0.000853259
0.000286001
0.000811268
0.000300051
0.000739618
0.00031204
0.000630908
0.000320653
0.000480411
0.000270953
0.000323285
-2.45437e-05
2.11139e-05
2.49057e-05
-2.41589e-05
2.28309e-05
-2.37461e-05
2.46876e-05
-2.32994e-05
2.66952e-05
-2.28196e-05
2.8866e-05
-2.23001e-05
3.12134e-05
-2.17411e-05
3.37518e-05
-2.11356e-05
3.64968e-05
-2.04826e-05
3.94597e-05
-1.97743e-05
4.26647e-05
-1.90101e-05
4.61355e-05
-1.8182e-05
4.98889e-05
-1.72877e-05
5.39481e-05
-1.63165e-05
5.83219e-05
-1.52636e-05
6.30462e-05
-1.41233e-05
6.81775e-05
-1.28899e-05
7.37266e-05
-1.15485e-05
7.9683e-05
-1.00935e-05
8.61421e-05
-8.51874e-06
9.31527e-05
-6.80757e-06
0.00010068
-4.94965e-06
0.000108823
-2.93915e-06
0.000117672
-7.50221e-07
0.000127134
1.62081e-06
0.000137442
4.19368e-06
0.000148537
6.98724e-06
0.000160503
1.00132e-05
0.000173462
1.33e-05
0.000187377
1.68578e-05
0.000202462
2.07188e-05
0.000218644
2.48985e-05
0.000236143
2.94276e-05
0.000254933
3.4332e-05
0.000275153
3.96342e-05
0.000296896
4.53733e-05
0.000320142
5.15699e-05
0.000345108
5.82603e-05
0.000371749
6.54804e-05
0.000400117
7.32573e-05
0.000430302
8.16243e-05
0.000462248
9.06163e-05
0.000495882
0.00010026
0.000531148
0.000110579
0.00056786
0.000121595
0.000605735
0.000133323
0.000644381
0.000145769
0.000683245
0.000158931
0.000721577
0.00017279
0.000758366
0.000187311
0.000792271
0.000202428
0.000821545
0.000218035
0.000843927
0.000233975
0.000856559
0.000250002
0.000855865
0.000265792
0.000837481
0.000280902
0.000796161
0.000294727
0.000725799
0.000306483
0.000619153
0.000315033
0.000471864
0.000267917
0.000318081
-2.4198e-05
2.07673e-05
2.45524e-05
-2.38189e-05
2.24568e-05
-2.34117e-05
2.42836e-05
-2.29711e-05
2.6259e-05
-2.24977e-05
2.83951e-05
-2.19851e-05
3.07049e-05
-2.14337e-05
3.32026e-05
-2.08372e-05
3.59036e-05
-2.01939e-05
3.8818e-05
-1.94972e-05
4.19705e-05
-1.87455e-05
4.5385e-05
-1.79323e-05
4.90774e-05
-1.70534e-05
5.30704e-05
-1.61004e-05
5.73703e-05
-1.50666e-05
6.20138e-05
-1.39479e-05
6.70604e-05
-1.27373e-05
7.25177e-05
-1.14213e-05
7.83689e-05
-9.99355e-06
8.47165e-05
-8.4485e-06
9.16098e-05
-6.76938e-06
9.90034e-05
-4.94618e-06
0.000107002
-2.97303e-06
0.000115702
-8.2448e-07
0.000124988
1.50309e-06
0.000135117
4.02909e-06
0.000146013
6.77189e-06
0.000157763
9.74303e-06
0.000170494
1.29701e-05
0.000184152
1.64634e-05
0.000198971
2.02541e-05
0.000214856
2.43572e-05
0.000232042
2.88041e-05
0.00025049
3.36178e-05
0.000270343
3.88223e-05
0.000291696
4.44551e-05
0.000314513
5.05361e-05
0.00033903
5.71009e-05
0.000365187
6.41848e-05
0.000393037
7.18142e-05
0.000422676
8.0022e-05
0.000454044
8.88429e-05
0.000487065
9.83034e-05
0.000521692
0.000108428
0.00055774
0.000119239
0.00059493
0.000130752
0.000632874
0.000142975
0.000671028
0.000155909
0.000708652
0.000169535
0.000744747
0.000183819
0.000777994
0.000198697
0.000806674
0.000214061
0.000828567
0.000229753
0.000840874
0.00024553
0.000840096
0.000261068
0.000821954
0.000275925
0.000781307
0.000289514
0.000712207
0.000301053
0.000607602
0.000309607
0.000463283
0.000264299
0.000313177
-2.39204e-05
2.04255e-05
2.42754e-05
-2.3544e-05
2.20877e-05
-2.31403e-05
2.3885e-05
-2.27036e-05
2.58287e-05
-2.22349e-05
2.79304e-05
-2.17278e-05
3.02032e-05
-2.11829e-05
3.26608e-05
-2.05932e-05
3.53185e-05
-1.99582e-05
3.81853e-05
-1.92699e-05
4.12864e-05
-1.85286e-05
4.46457e-05
-1.7726e-05
4.82784e-05
-1.68603e-05
5.22066e-05
-1.59209e-05
5.64341e-05
-1.49036e-05
6.09984e-05
-1.38024e-05
6.5962e-05
-1.2612e-05
7.13294e-05
-1.1318e-05
7.70774e-05
-9.91487e-06
8.33155e-05
-8.39659e-06
9.00938e-05
-6.74704e-06
9.73561e-05
-4.95607e-06
0.000105213
-3.01806e-06
0.000113766
-9.07912e-07
0.00012288
1.3779e-06
0.000132834
3.8584e-06
0.000143535
6.55164e-06
0.000155072
9.46881e-06
0.000167579
1.26372e-05
0.000180986
1.60664e-05
0.000195543
1.97875e-05
0.000211137
2.38153e-05
0.000228016
2.81791e-05
0.000246129
3.2904e-05
0.000265623
3.80115e-05
0.000286593
4.35391e-05
0.000308989
4.95064e-05
0.000333067
5.59481e-05
0.000358749
6.28988e-05
0.000386089
7.03848e-05
0.000415193
7.84385e-05
0.000445992
8.70947e-05
0.00047841
9.63799e-05
0.000512408
0.000106319
0.000547801
0.000116935
0.000584314
0.000128246
0.000621563
0.000140259
0.000659014
0.000152977
0.000695935
0.000166381
0.000731343
0.00018044
0.000763939
0.000195085
0.000792033
0.00021021
0.000813448
0.000225657
0.000825439
0.000241181
0.000824579
0.000256463
0.000806683
0.000271062
0.00076671
0.00028441
0.000698864
0.000295734
0.00059628
0.000304277
0.000454745
0.000260298
0.000308295
-2.36956e-05
2.00864e-05
2.4043e-05
-2.33242e-05
2.17212e-05
-2.2925e-05
2.34892e-05
-2.24929e-05
2.54011e-05
-2.20287e-05
2.74688e-05
-2.15261e-05
2.97047e-05
-2.09858e-05
3.21227e-05
-2.04016e-05
3.47376e-05
-1.97723e-05
3.75574e-05
-1.90913e-05
4.06078e-05
-1.83576e-05
4.39129e-05
-1.75646e-05
4.74868e-05
-1.67087e-05
5.13516e-05
-1.57816e-05
5.55082e-05
-1.47773e-05
5.9995e-05
-1.36915e-05
6.48775e-05
-1.25177e-05
7.01571e-05
-1.12429e-05
7.58042e-05
-9.86106e-06
8.19355e-05
-8.36671e-06
8.86014e-05
-6.7438e-06
9.57353e-05
-4.98249e-06
0.000103454
-3.07726e-06
0.000111863
-1.0034e-06
0.000120808
1.24246e-06
0.00013059
3.67913e-06
0.0001411
6.32422e-06
0.000152429
9.18885e-06
0.000164716
1.22996e-05
0.000177878
1.56664e-05
0.000192179
1.93191e-05
0.000207486
2.32722e-05
0.000224065
2.75561e-05
0.000241849
3.21927e-05
0.000260989
3.72054e-05
0.000281584
4.26303e-05
0.000303567
4.84866e-05
0.000327213
5.48086e-05
0.00035243
6.16303e-05
0.00037927
6.89779e-05
0.000407848
7.68835e-05
0.000438089
8.53819e-05
0.000469915
9.44997e-05
0.000503293
0.000104263
0.000538043
0.000114694
0.000573887
0.000125812
0.000610451
0.000137626
0.000647207
0.000150137
0.000683432
0.000163329
0.000718158
0.000177167
0.000750109
0.000191583
0.000777622
0.000206472
0.000798565
0.000221671
0.000810248
0.000236941
0.000809318
0.000251964
0.000791671
0.000266303
0.000752375
0.000279405
0.000685761
0.000290517
0.000585157
0.000298998
0.000446238
0.000255935
0.000303315
-2.34898e-05
1.97527e-05
2.38342e-05
-2.3123e-05
2.13604e-05
-2.27288e-05
2.30991e-05
-2.23021e-05
2.49795e-05
-2.18433e-05
2.70132e-05
-2.13469e-05
2.92126e-05
-2.08129e-05
3.15913e-05
-2.02351e-05
3.41637e-05
-1.96128e-05
3.69371e-05
-1.89389e-05
3.99375e-05
-1.82132e-05
4.31891e-05
-1.74284e-05
4.67053e-05
-1.65825e-05
5.05075e-05
-1.56659e-05
5.45945e-05
-1.46741e-05
5.90052e-05
-1.3602e-05
6.38081e-05
-1.24444e-05
6.90015e-05
-1.11874e-05
7.45496e-05
-9.82588e-06
8.0576e-05
-8.35406e-06
8.71317e-05
-6.75647e-06
9.41398e-05
-5.0233e-06
0.000101723
-3.14928e-06
0.000109991
-1.11014e-06
0.000118771
1.09738e-06
0.000128385
3.49173e-06
0.000138708
6.09025e-06
0.000149833
8.90382e-06
0.000161904
1.19587e-05
0.000174825
1.52644e-05
0.000188875
1.88507e-05
0.000203901
2.27319e-05
0.000220186
2.69364e-05
0.000237646
3.14883e-05
0.000256441
3.64087e-05
0.000276666
4.17339e-05
0.000298245
4.74828e-05
0.000321467
5.36891e-05
0.000346226
6.03866e-05
0.000372574
6.76011e-05
0.000400635
7.53647e-05
0.000430327
8.37119e-05
0.000461568
9.26698e-05
0.000494336
0.000102264
0.000528448
0.000112519
0.000563632
0.000123452
0.000599518
0.000135073
0.000635584
0.000147385
0.00067112
0.000160369
0.000705174
0.000173991
0.000736489
0.000188181
0.000763435
0.000202832
0.000783919
0.000217783
0.000795306
0.000232797
0.000794311
0.000247558
0.000776919
0.000261636
0.000738299
0.000274491
0.000672911
0.000285391
0.00057426
0.000293757
0.00043788
0.000251487
0.000298226
-2.32872e-05
1.94234e-05
2.3622e-05
-2.29273e-05
2.10041e-05
-2.25396e-05
2.27137e-05
-2.21195e-05
2.45628e-05
-2.1667e-05
2.65627e-05
-2.11771e-05
2.87258e-05
-2.06493e-05
3.10653e-05
-2.00788e-05
3.35956e-05
-1.94634e-05
3.6323e-05
-1.87981e-05
3.92739e-05
-1.80807e-05
4.24726e-05
-1.73061e-05
4.59318e-05
-1.64701e-05
4.96724e-05
-1.55656e-05
5.36909e-05
-1.45861e-05
5.80268e-05
-1.35285e-05
6.27515e-05
-1.23861e-05
6.78605e-05
-1.11467e-05
7.33117e-05
-9.80434e-06
7.92355e-05
-8.3542e-06
8.56834e-05
-6.78072e-06
9.25684e-05
-5.07458e-06
0.000100018
-3.23056e-06
0.000108149
-1.22489e-06
0.000116767
9.45538e-07
0.000126217
3.29893e-06
0.000136356
5.85228e-06
0.000147282
8.61642e-06
0.000159142
1.1617e-05
0.000171826
1.48637e-05
0.00018563
1.83855e-05
0.000200381
2.21963e-05
0.000216377
2.63255e-05
0.00023352
3.07943e-05
0.000251974
3.56257e-05
0.000271838
4.08546e-05
0.000293019
4.64999e-05
0.000315824
5.25948e-05
0.000340133
5.91727e-05
0.000365998
6.62594e-05
0.000393551
7.38866e-05
0.000422702
8.20887e-05
0.000453368
9.08929e-05
0.000485534
0.000100325
0.00051902
0.000110409
0.000553553
0.000121164
0.000588769
0.000132599
0.000624155
0.000144715
0.000659012
0.000157494
0.000692402
0.000170901
0.000723091
0.000184864
0.000749478
0.000199277
0.000769512
0.000213979
0.000780613
0.000228733
0.000779566
0.000243231
0.000762432
0.000257048
0.000724487
0.000269657
0.000660302
0.000280347
0.00056356
0.000288562
0.000429641
0.000246941
0.000293065
-2.30662e-05
1.91019e-05
2.34004e-05
-2.27114e-05
2.0656e-05
-2.23299e-05
2.2337e-05
-2.19165e-05
2.41552e-05
-2.14718e-05
2.61218e-05
-2.099e-05
2.8249e-05
-2.04716e-05
3.05498e-05
-1.991e-05
3.30384e-05
-1.9305e-05
3.57201e-05
-1.86492e-05
3.86219e-05
-1.7943e-05
4.17684e-05
-1.71788e-05
4.51711e-05
-1.63556e-05
4.88508e-05
-1.54632e-05
5.28016e-05
-1.44983e-05
5.70636e-05
-1.34553e-05
6.17113e-05
-1.233e-05
6.67369e-05
-1.11085e-05
7.20926e-05
-9.78662e-06
7.79154e-05
-8.35843e-06
8.42573e-05
-6.80946e-06
9.10212e-05
-5.13018e-06
9.83411e-05
-3.31584e-06
0.000106337
-1.34302e-06
0.000114796
7.91158e-07
0.000124085
3.1046e-06
0.000134045
5.61403e-06
0.000144774
8.33008e-06
0.000156428
1.12782e-05
0.00016888
1.44674e-05
0.000182442
1.79269e-05
0.000196923
2.16704e-05
0.000212635
2.57252e-05
0.000229467
3.0115e-05
0.000247588
3.48601e-05
0.000267095
3.99962e-05
0.000287885
4.55416e-05
0.000310281
5.15292e-05
0.000334147
5.79921e-05
0.000359537
6.49556e-05
0.000386588
7.24514e-05
0.000415207
8.05137e-05
0.000445306
8.91695e-05
0.000476878
9.84447e-05
0.000509743
0.000108363
0.000543633
0.000118943
0.000578188
0.000130195
0.000612902
0.000142118
0.000647089
0.000154693
0.000679825
0.000167885
0.0007099
0.000181621
0.000735743
0.000195795
0.000755343
0.000210245
0.000766171
0.00022474
0.000765076
0.000238975
0.000748204
0.000252531
0.000710932
0.000264896
0.000647942
0.000275379
0.000553081
0.00028342
0.00042161
0.000242505
0.000287879
-2.28297e-05
1.87856e-05
2.31526e-05
-2.24832e-05
2.03136e-05
-2.21098e-05
2.19663e-05
-2.17048e-05
2.3754e-05
-2.12685e-05
2.56877e-05
-2.07955e-05
2.77794e-05
-2.02857e-05
3.00419e-05
-1.97339e-05
3.24893e-05
-1.91385e-05
3.51259e-05
-1.84939e-05
3.79792e-05
-1.77988e-05
4.10739e-05
-1.70475e-05
4.44208e-05
-1.62365e-05
4.80404e-05
-1.53586e-05
5.19244e-05
-1.44081e-05
5.61137e-05
-1.33814e-05
6.06856e-05
-1.22728e-05
6.56293e-05
-1.10701e-05
7.08913e-05
-9.76826e-06
7.6615e-05
-8.36223e-06
8.2853e-05
-6.83751e-06
8.94983e-05
-5.18501e-06
9.66904e-05
-3.40006e-06
0.000104554
-1.4597e-06
0.000112858
6.38765e-07
0.000121988
2.91302e-06
0.000131772
5.37948e-06
0.000142309
8.04873e-06
0.00015376
1.09456e-05
0.000165984
1.40794e-05
0.00017931
1.74783e-05
0.000193525
2.11559e-05
0.000208959
2.51404e-05
0.000225485
2.94525e-05
0.000243277
3.41147e-05
0.000262435
3.91611e-05
0.000282841
4.461e-05
0.000304833
5.0494e-05
0.000328265
5.68456e-05
0.000353187
6.36901e-05
0.000379745
7.10588e-05
0.00040784
7.89855e-05
0.000437382
8.74971e-05
0.000468369
9.66193e-05
0.000500625
0.000106376
0.000533881
0.000116784
0.000567784
0.000127854
0.000601838
0.000139585
0.000635365
0.000151957
0.00066746
0.000164934
0.000696932
0.000178442
0.000722241
0.000192375
0.000741417
0.000206573
0.000751982
0.000220808
0.000750853
0.000234779
0.000734244
0.000248078
0.000697639
0.000260202
0.000635818
0.000270481
0.000542794
0.000278339
0.000413729
0.000238094
0.000282709
-2.25681e-05
1.84769e-05
2.28865e-05
-2.22285e-05
1.99794e-05
-2.18629e-05
2.16045e-05
-2.14666e-05
2.33622e-05
-2.10396e-05
2.52636e-05
-2.05767e-05
2.73203e-05
-2.00777e-05
2.95452e-05
-1.95369e-05
3.19519e-05
-1.89533e-05
3.45442e-05
-1.83204e-05
3.73496e-05
-1.7638e-05
4.03933e-05
-1.68993e-05
4.36852e-05
-1.61026e-05
4.72455e-05
-1.52389e-05
5.10636e-05
-1.43046e-05
5.51812e-05
-1.32945e-05
5.96781e-05
-1.22045e-05
6.4541e-05
-1.10215e-05
6.97106e-05
-9.74124e-06
7.53365e-05
-8.35831e-06
8.1472e-05
-6.8588e-06
8.80005e-05
-5.23363e-06
9.5067e-05
-3.47837e-06
0.000102801
-1.5705e-06
0.000110951
4.92526e-07
0.000119927
2.72808e-06
0.000129538
5.15235e-06
0.000139887
7.7757e-06
0.000151138
1.06227e-05
0.000163139
1.37023e-05
0.000176232
1.70425e-05
0.000190186
2.06568e-05
0.000205346
2.45715e-05
0.000221571
2.88097e-05
0.000239042
3.33912e-05
0.000257856
3.83507e-05
0.000277883
4.37062e-05
0.000299479
4.94897e-05
0.000322483
5.57335e-05
0.000346944
6.24623e-05
0.000373017
6.97073e-05
0.000400595
7.75018e-05
0.000429587
8.58724e-05
0.000459998
9.48445e-05
0.000491651
0.000104441
0.000524283
0.00011468
0.000557544
0.00012557
0.000590947
0.00013711
0.000623824
0.000149278
0.000655289
0.00016204
0.000684172
0.000175317
0.000708963
0.00018901
0.00072773
0.000202955
0.000738043
0.00021693
0.000736882
0.00023064
0.000720541
0.000243683
0.000684597
0.00025557
0.000623936
0.000265648
0.000532721
0.000273324
0.000406065
0.000233859
0.000277584
-2.22906e-05
1.81734e-05
2.25976e-05
-2.19595e-05
1.96508e-05
-2.16021e-05
2.12487e-05
-2.12145e-05
2.29771e-05
-2.07962e-05
2.48467e-05
-2.03427e-05
2.68692e-05
-1.98532e-05
2.9057e-05
-1.93232e-05
3.14238e-05
-1.87503e-05
3.39723e-05
-1.81303e-05
3.67307e-05
-1.74604e-05
3.9724e-05
-1.67364e-05
4.29617e-05
-1.59539e-05
4.64636e-05
-1.51068e-05
5.02168e-05
-1.41887e-05
5.42638e-05
-1.3197e-05
5.86871e-05
-1.21254e-05
6.34705e-05
-1.0963e-05
6.85493e-05
-9.70424e-06
7.40793e-05
-8.34482e-06
8.01141e-05
-6.87058e-06
8.65279e-05
-5.27294e-06
9.34711e-05
-3.54743e-06
0.000101077
-1.67203e-06
0.000109078
3.55746e-07
0.000117901
2.553e-06
0.000127343
4.93563e-06
0.000137506
7.51398e-06
0.000148561
1.0312e-05
0.000160342
1.33389e-05
0.000173206
1.66217e-05
0.000186904
2.01736e-05
0.000201795
2.40221e-05
0.000217725
2.8187e-05
0.000234878
3.26904e-05
0.000253354
3.75653e-05
0.000273009
4.28299e-05
0.000294216
4.85155e-05
0.000316798
5.4654e-05
0.000340807
6.127e-05
0.000366402
6.83939e-05
0.000393472
7.60589e-05
0.000421923
8.42909e-05
0.000451768
9.3115e-05
0.000482831
0.000102554
0.000514848
0.000112624
0.000547479
0.000123335
0.000580242
0.000134683
0.000612483
0.000146648
0.00064333
0.000159193
0.000671636
0.000172242
0.00069592
0.000185693
0.000714287
0.000199386
0.00072436
0.000213103
0.000723178
0.000226553
0.000707102
0.000239344
0.000671812
0.000250998
0.000612283
0.000260879
0.000522831
0.000268378
0.000398545
0.000229673
0.000272524
-2.19912e-05
1.7878e-05
2.22984e-05
-2.16652e-05
1.93309e-05
-2.13146e-05
2.09025e-05
-2.09344e-05
2.26023e-05
-2.05252e-05
2.44409e-05
-2.00814e-05
2.64298e-05
-1.96033e-05
2.85814e-05
-1.90846e-05
3.0909e-05
-1.8525e-05
3.34146e-05
-1.79174e-05
3.61266e-05
-1.72621e-05
3.90705e-05
-1.65519e-05
4.22548e-05
-1.57859e-05
4.5699e-05
-1.49543e-05
4.93882e-05
-1.40545e-05
5.33655e-05
-1.30809e-05
5.7716e-05
-1.20299e-05
6.24209e-05
-1.08884e-05
6.741e-05
-9.65288e-06
7.28451e-05
-8.31767e-06
7.87807e-05
-6.86969e-06
8.50814e-05
-5.30005e-06
9.19031e-05
-3.60468e-06
9.93829e-05
-1.76184e-06
0.000107236
2.30788e-07
0.00011591
2.39001e-06
0.000125185
4.73153e-06
0.000135166
7.26545e-06
0.000146029
1.00155e-05
0.000157593
1.29903e-05
0.000170232
1.62171e-05
0.000183679
1.97088e-05
0.000198304
2.34908e-05
0.000213943
2.75855e-05
0.000230786
3.20122e-05
0.000248929
3.68046e-05
0.000268218
4.19802e-05
0.000289041
4.75701e-05
0.000311209
5.36055e-05
0.000334772
6.01107e-05
0.000359897
6.71158e-05
0.000386467
7.46531e-05
0.000414385
8.27483e-05
0.000443672
9.1426e-05
0.000474151
0.000100708
0.000505564
0.000110611
0.000537573
0.000121142
0.000569708
0.0001323
0.000601324
0.000144061
0.000631566
0.00015639
0.000659308
0.000169209
0.000683099
0.000182419
0.000701082
0.000195862
0.000710922
0.000209322
0.000709721
0.000222516
0.000693913
0.000235059
0.00065927
0.000246484
0.000600863
0.000256173
0.000513148
0.000263503
0.000391228
0.000225667
0.000267539
-2.16845e-05
1.7587e-05
2.19804e-05
-2.13665e-05
1.90161e-05
-2.10237e-05
2.05617e-05
-2.06519e-05
2.22334e-05
-2.02512e-05
2.40417e-05
-1.98164e-05
2.59978e-05
-1.93474e-05
2.81139e-05
-1.88394e-05
3.04031e-05
-1.82904e-05
3.28665e-05
-1.76957e-05
3.5533e-05
-1.70532e-05
3.84283e-05
-1.63581e-05
4.15601e-05
-1.56065e-05
4.49477e-05
-1.47922e-05
4.8574e-05
-1.39092e-05
5.24828e-05
-1.29546e-05
5.67619e-05
-1.19227e-05
6.13898e-05
-1.08026e-05
6.62908e-05
-9.58927e-06
7.1633e-05
-8.27822e-06
7.7471e-05
-6.85609e-06
8.36607e-05
-5.31439e-06
9.03629e-05
-3.64902e-06
9.77191e-05
-1.83861e-06
0.000105428
1.1903e-07
0.000113954
2.24054e-06
0.000123065
4.54132e-06
0.000132866
7.03146e-06
0.00014354
9.73403e-06
0.000154892
1.2658e-05
0.00016731
1.58295e-05
0.000180508
1.92613e-05
0.000194873
2.29798e-05
0.000210227
2.70042e-05
0.000226762
3.13561e-05
0.000244578
3.60674e-05
0.000263508
4.11556e-05
0.000283954
4.66514e-05
0.000305713
5.25853e-05
0.000328838
5.89815e-05
0.000353501
6.58692e-05
0.00037958
7.32804e-05
0.000406975
8.12402e-05
0.000435714
8.97726e-05
0.000465621
9.8899e-05
0.000496441
0.000108635
0.000527842
0.000118988
0.00055936
0.000129955
0.000590364
0.000141513
0.000620014
0.000153625
0.000647205
0.000166215
0.000670514
0.000179186
0.00068812
0.000192381
0.000697739
0.000205587
0.000696527
0.000218528
0.000680984
0.000230828
0.000646977
0.000242029
0.000589663
0.00025153
0.00050364
0.0002587
0.000384038
0.000221695
0.000262634
-2.13646e-05
1.73029e-05
2.16573e-05
-2.10526e-05
1.87086e-05
-2.07167e-05
2.0229e-05
-2.03528e-05
2.18733e-05
-1.99605e-05
2.3652e-05
-1.95354e-05
2.55759e-05
-1.90769e-05
2.76572e-05
-1.85797e-05
2.99088e-05
-1.80426e-05
3.2331e-05
-1.74598e-05
3.4953e-05
-1.68306e-05
3.78007e-05
-1.61488e-05
4.08811e-05
-1.54127e-05
4.42131e-05
-1.46136e-05
4.77777e-05
-1.37483e-05
5.16191e-05
-1.28118e-05
5.58279e-05
-1.18002e-05
6.03797e-05
-1.07012e-05
6.51939e-05
-9.51112e-06
7.04443e-05
-8.22452e-06
7.61862e-05
-6.82876e-06
8.22664e-05
-5.3152e-06
8.88509e-05
-3.67994e-06
9.60853e-05
-1.90194e-06
0.000103651
2.09246e-08
0.000112032
2.10501e-06
0.000120982
4.36553e-06
0.000130607
6.81228e-06
0.000141094
9.46819e-06
0.000152237
1.23416e-05
0.000164437
1.54588e-05
0.000177392
1.88324e-05
0.000191501
2.24865e-05
0.000206573
2.64433e-05
0.000222807
3.0721e-05
0.000240301
3.53524e-05
0.000258878
4.03546e-05
0.000278952
4.57576e-05
0.000300311
5.15914e-05
0.000323004
5.78797e-05
0.000347212
6.46514e-05
0.000372807
7.19376e-05
0.000399688
7.9763e-05
0.000427886
8.8151e-05
0.000457231
9.71224e-05
0.000487467
0.000106692
0.000518269
0.000116867
0.000549182
0.000127644
0.000579585
0.000138999
0.000608655
0.000150896
0.000635308
0.000163259
0.000658148
0.000175992
0.000675391
0.000188941
0.000684795
0.000201898
0.000683573
0.00021459
0.000668295
0.000226651
0.000634916
0.000237633
0.000578685
0.000246951
0.000494327
0.000253971
0.000377032
0.000217885
0.000257813
-2.10428e-05
1.70228e-05
2.13246e-05
-2.07383e-05
1.84056e-05
-2.04094e-05
1.99011e-05
-2.00531e-05
2.15186e-05
-1.96683e-05
2.32682e-05
-1.92514e-05
2.51607e-05
-1.88011e-05
2.7208e-05
-1.83137e-05
2.94228e-05
-1.77865e-05
3.18045e-05
-1.72158e-05
3.4383e-05
-1.65986e-05
3.7184e-05
-1.59314e-05
4.02139e-05
-1.52091e-05
4.34914e-05
-1.44269e-05
4.69953e-05
-1.3578e-05
5.07708e-05
-1.26604e-05
5.49106e-05
-1.16677e-05
5.9388e-05
-1.059e-05
6.41171e-05
-9.42198e-06
6.92776e-05
-8.15949e-06
7.4925e-05
-6.78942e-06
8.08978e-05
-5.30366e-06
8.73667e-05
-3.69814e-06
9.44812e-05
-1.95223e-06
0.000101907
-6.37966e-08
0.000110145
1.98329e-06
0.000118936
4.20391e-06
0.000128388
6.60786e-06
0.000138691
9.21741e-06
0.000149629
1.20413e-05
0.000161614
1.51046e-05
0.000174329
1.84198e-05
0.000188186
2.20124e-05
0.000202982
2.59007e-05
0.000218918
3.01057e-05
0.000236097
3.46582e-05
0.000254326
3.95753e-05
0.000274035
4.48864e-05
0.000295
5.06211e-05
0.000317269
5.68026e-05
0.000341031
6.34592e-05
0.000366151
7.06214e-05
0.000392526
7.83133e-05
0.000420196
8.65579e-05
0.000448988
9.53751e-05
0.000478652
0.00010478
0.000508868
0.000114777
0.000539188
0.000125364
0.000569004
0.000136518
0.000597507
0.000148202
0.000623633
0.000160339
0.000646015
0.000172837
0.000662902
0.000185543
0.0006721
0.000198254
0.000670876
0.000210702
0.00065586
0.00022253
0.000623097
0.000233298
0.000567918
0.000242437
0.000485182
0.000249315
0.000370136
0.000214088
0.000253075
-2.07114e-05
1.67499e-05
2.09952e-05
-2.04106e-05