/*--------------------------------*- C++ -*----------------------------------*\
  =========                 |
  \\      /  F ield         | OpenFOAM: The Open Source CFD Toolbox
   \\    /   O peration     | Website:  https://openfoam.org
    \\  /    A nd           | Version:  6.0
     \\/     M anipulation  |
\*---------------------------------------------------------------------------*/
FoamFile
{
    version     2.0;
    format      ascii;
    class       volVectorField;
    location    "11";
    object      U;
}
// * * * * * * * * * * * * * * * * * * * * * * * * * * * * * * * * * * * * * //

dimensions      [0 1 -1 0 0 0 0];

internalField   nonuniform List<vector> 
62000
(
(0.996163 0.0870108 -4.95235e-21)
(0.996166 0.0870129 4.12677e-21)
(0.996169 0.0870191 4.23863e-21)
(0.996172 0.0870247 -1.85921e-20)
(0.996174 0.0870302 -2.12486e-20)
(0.996176 0.0870356 7.35279e-20)
(0.996178 0.0870408 -8.0864e-20)
(0.996179 0.087046 4.70234e-20)
(0.99618 0.0870511 -2.20161e-20)
(0.996181 0.0870563 -1.12464e-19)
(0.996181 0.0870611 -1.42725e-20)
(0.996182 0.0870658 1.57288e-19)
(0.996182 0.0870702 3.19981e-20)
(0.996182 0.0870742 -1.12143e-19)
(0.996183 0.0870776 1.74784e-19)
(0.996183 0.0870806 -9.2624e-20)
(0.996184 0.0870827 9.56901e-20)
(0.996184 0.0870842 -1.1244e-19)
(0.996185 0.0870849 5.52873e-20)
(0.996186 0.0870849 -1.70145e-19)
(0.996187 0.0870841 2.21923e-19)
(0.996188 0.0870826 6.50115e-20)
(0.996189 0.0870801 9.36693e-20)
(0.99619 0.087076 -4.26579e-19)
(0.996191 0.08707 1.53904e-19)
(0.996192 0.0870633 -9.07123e-20)
(0.996193 0.0870559 -2.61533e-22)
(0.996193 0.0870496 -6.78979e-20)
(0.996193 0.0870448 2.08704e-19)
(0.996193 0.0870418 -1.1242e-19)
(0.996191 0.087041 2.6386e-19)
(0.996187 0.0870427 -5.32495e-19)
(0.996181 0.0870469 5.10989e-20)
(0.996173 0.0870536 -1.6886e-19)
(0.996162 0.0870634 -5.34499e-20)
(0.996147 0.0870766 -1.69275e-19)
(0.996126 0.0870933 -4.79125e-20)
(0.9961 0.087113 -4.99129e-20)
(0.996066 0.087134 1.61837e-19)
(0.996022 0.0871533 7.47918e-19)
(0.995967 0.087166 -1.81476e-19)
(0.995901 0.087166 -1.0441e-18)
(0.995822 0.0871456 -1.67518e-18)
(0.995731 0.0870972 9.18535e-19)
(0.995628 0.0870142 2.8577e-19)
(0.995515 0.086893 -1.33644e-18)
(0.995393 0.0867343 2.8298e-19)
(0.995259 0.0865423 -5.65414e-19)
(0.995111 0.086321 -2.62577e-18)
(0.994939 0.0860664 -6.34712e-19)
(0.99473 0.0857578 -3.20739e-19)
(0.994473 0.0853473 -4.3117e-18)
(0.994166 0.0847646 6.62757e-19)
(0.993824 0.0839232 5.33187e-18)
(0.993489 0.0827345 1.42739e-18)
(0.993225 0.0811278 5.15675e-18)
(0.993129 0.0789469 -5.69686e-19)
(0.993281 0.0762379 -8.70611e-19)
(0.994499 0.0718365 2.04986e-18)
(0.975439 0.0572106 3.67764e-19)
(0.99614 0.0874325 -1.33209e-21)
(0.996139 0.0874175 1.27536e-20)
(0.996139 0.0874141 5.28396e-21)
(0.99614 0.0874097 -2.27266e-20)
(0.996143 0.0874038 9.44051e-21)
(0.996146 0.0873977 -6.52009e-20)
(0.996149 0.0873909 5.97471e-20)
(0.996153 0.0873841 3.45751e-20)
(0.996156 0.0873773 -6.46655e-20)
(0.99616 0.087371 2.81501e-21)
(0.996163 0.0873651 6.26425e-20)
(0.996166 0.0873598 1.40629e-22)
(0.996169 0.0873553 1.80067e-20)
(0.996171 0.0873518 -1.54164e-19)
(0.996173 0.0873492 3.09334e-19)
(0.996175 0.0873478 -2.73095e-19)
(0.996177 0.0873474 1.27981e-19)
(0.996179 0.0873485 -2.69428e-20)
(0.99618 0.0873509 -7.32124e-20)
(0.996182 0.0873552 2.02256e-19)
(0.996183 0.0873612 -3.18789e-19)
(0.996184 0.0873694 1.8501e-19)
(0.996184 0.0873799 -2.34905e-19)
(0.996183 0.0873914 1.4009e-19)
(0.996183 0.087407 1.27147e-19)
(0.996183 0.0874282 -8.14405e-20)
(0.996182 0.0874525 2.45036e-22)
(0.996179 0.0874818 8.58629e-20)
(0.996175 0.0875161 6.97813e-20)
(0.996168 0.0875552 -1.38327e-19)
(0.996157 0.0875981 2.75634e-19)
(0.996144 0.0876453 5.42203e-20)
(0.996125 0.0876968 1.6585e-19)
(0.9961 0.087753 1.16312e-20)
(0.996066 0.08781 4.44343e-20)
(0.996025 0.0878617 -5.15787e-20)
(0.995975 0.087903 -1.55987e-19)
(0.995916 0.0879292 -7.73487e-20)
(0.995845 0.0879345 -4.27857e-19)
(0.995761 0.0879111 -4.93802e-19)
(0.995662 0.0878495 3.85812e-19)
(0.995551 0.0877406 2.36197e-19)
(0.995428 0.0875776 1.76264e-18)
(0.995297 0.0873591 1.02839e-19)
(0.995159 0.087091 -2.78464e-18)
(0.995017 0.0867888 1.12153e-18)
(0.994868 0.086474 9.49356e-19)
(0.9947 0.0861679 1.10334e-18)
(0.994496 0.0858775 2.72215e-19)
(0.994227 0.0855756 6.79622e-20)
(0.993865 0.0851907 1.90762e-18)
(0.993394 0.0845901 5.31919e-18)
(0.992827 0.0836268 -3.75446e-18)
(0.992202 0.0821386 -9.29657e-18)
(0.991624 0.0799971 -2.32827e-18)
(0.991212 0.077142 -1.87987e-18)
(0.9912 0.0733802 -3.95199e-18)
(0.991395 0.0691313 -2.03458e-18)
(0.993827 0.0628721 3.0775e-18)
(0.976846 0.0463378 1.26211e-18)
(0.996112 0.0882319 -6.53337e-21)
(0.996094 0.088195 -9.15004e-22)
(0.996081 0.0881726 1.02275e-21)
(0.99607 0.0881527 4.62444e-21)
(0.996064 0.0881303 1.30606e-20)
(0.996061 0.0881074 -1.23888e-20)
(0.996061 0.0880838 6.59911e-20)
(0.996064 0.08806 -3.14992e-20)
(0.99607 0.0880361 -1.68833e-20)
(0.996077 0.0880128 -1.03567e-19)
(0.996085 0.0879901 8.72896e-20)
(0.996095 0.0879687 6.40668e-21)
(0.996105 0.0879487 -1.98879e-20)
(0.996115 0.0879308 5.27543e-20)
(0.996126 0.0879149 -9.01866e-20)
(0.996136 0.0879017 6.29323e-22)
(0.996146 0.0878912 -4.1193e-20)
(0.996155 0.0878839 8.76123e-22)
(0.996164 0.0878799 9.55597e-20)
(0.996171 0.0878798 -1.45235e-19)
(0.996178 0.0878838 9.06167e-20)
(0.996184 0.0878922 3.51028e-19)
(0.996189 0.0879055 -4.75002e-20)
(0.996193 0.0879227 -4.88045e-19)
(0.996195 0.08795 2.47839e-19)
(0.996197 0.0879869 -1.2963e-19)
(0.996195 0.0880282 2.05736e-19)
(0.996191 0.0880745 -1.2231e-19)
(0.996182 0.0881251 -2.34327e-19)
(0.996171 0.0881784 2.42536e-19)
(0.996155 0.0882324 -1.67696e-19)
(0.996135 0.088287 2.19848e-19)
(0.996111 0.0883439 -5.96062e-19)
(0.996079 0.088403 5.22203e-19)
(0.996036 0.0884575 -2.74737e-19)
(0.995984 0.0884962 1.13071e-19)
(0.995924 0.0885101 8.44827e-20)
(0.995858 0.0884933 -2.55618e-21)
(0.995785 0.0884396 -1.68758e-20)
(0.995704 0.0883415 5.05619e-19)
(0.995616 0.0881918 -2.01668e-19)
(0.995524 0.0879857 3.1786e-19)
(0.995434 0.0877249 -1.13183e-18)
(0.99535 0.0874207 -5.63813e-19)
(0.995277 0.0870953 6.18287e-19)
(0.995218 0.0867834 -2.13523e-18)
(0.99517 0.0865246 2.88856e-19)
(0.995119 0.0863537 -1.84924e-18)
(0.995044 0.0862814 2.59071e-18)
(0.994913 0.0862708 6.68126e-19)
(0.994694 0.0862293 3.13821e-19)
(0.994373 0.0859916 -1.73041e-19)
(0.993958 0.0853872 1.44666e-18)
(0.993476 0.0842413 6.37585e-19)
(0.993025 0.0824232 -2.9154e-18)
(0.992697 0.0799082 -1.9963e-18)
(0.992792 0.0765144 -9.69885e-19)
(0.992673 0.0728425 -4.16278e-18)
(0.994842 0.0681738 -5.15465e-19)
(0.985765 0.0580854 4.07597e-19)
(0.996083 0.0887074 -6.60858e-21)
(0.996055 0.088677 2.01744e-20)
(0.996031 0.0886491 -3.09649e-21)
(0.996011 0.0886298 -2.06404e-20)
(0.995995 0.0886085 3.09801e-20)
(0.995983 0.0885869 5.31206e-20)
(0.995977 0.0885649 -6.91568e-20)
(0.995975 0.0885428 7.45324e-21)
(0.995978 0.0885206 2.36565e-20)
(0.995985 0.0884988 4.89457e-20)
(0.995996 0.0884775 -9.03347e-20)
(0.996009 0.0884573 -2.75837e-20)
(0.996025 0.0884384 -3.05921e-20)
(0.996043 0.0884214 1.39473e-19)
(0.996062 0.0884063 -9.25849e-20)
(0.996081 0.0883938 2.14623e-19)
(0.996101 0.0883837 -2.59321e-19)
(0.99612 0.0883767 -3.73787e-20)
(0.996138 0.0883729 2.70077e-19)
(0.996155 0.0883726 -9.40909e-20)
(0.996171 0.0883764 -3.43627e-20)
(0.996184 0.0883841 -3.63499e-20)
(0.996197 0.0883966 -3.27669e-19)
(0.996207 0.0884131 1.89821e-19)
(0.996216 0.0884411 -8.28416e-20)
(0.996219 0.0884779 1.31615e-19)
(0.996217 0.0885176 5.91432e-20)
(0.996209 0.0885593 2.8182e-19)
(0.996197 0.088602 -1.73154e-19)
(0.996179 0.088643 -2.18302e-19)
(0.996157 0.0886798 3.33742e-19)
(0.99613 0.0887124 -2.68541e-19)
(0.996098 0.0887443 4.84129e-19)
(0.996057 0.0887759 -2.86341e-19)
(0.996003 0.0887987 1.21279e-19)
(0.995936 0.0887985 2.02001e-19)
(0.99586 0.0887651 -8.38038e-20)
(0.995778 0.0886929 1.00349e-19)
(0.995688 0.0885772 -5.29491e-20)
(0.995589 0.0884122 1.53511e-19)
(0.995484 0.088193 -4.3901e-19)
(0.995375 0.0879187 1.2146e-19)
(0.995267 0.0875962 2.6337e-19)
(0.995168 0.0872431 6.69814e-19)
(0.995083 0.0868891 8.53992e-19)
(0.995017 0.0865759 1.50988e-19)
(0.99497 0.086349 1.41527e-18)
(0.994936 0.0862466 1.5272e-18)
(0.9949 0.086279 1.83376e-18)
(0.99484 0.0864063 -1.30109e-18)
(0.99473 0.0865313 -1.61991e-18)
(0.994562 0.0864821 1.12586e-18)
(0.994336 0.0860842 1.52603e-18)
(0.994063 0.0851637 3.50851e-18)
(0.993812 0.0835794 2.3398e-18)
(0.993623 0.0813013 3.86821e-18)
(0.993847 0.078121 7.15843e-18)
(0.993524 0.0745549 -3.43713e-19)
(0.995017 0.0705839 -3.71265e-18)
(0.988281 0.0608287 -2.94607e-18)
(0.99611 0.0887647 1.2977e-20)
(0.99609 0.0887534 -4.33987e-21)
(0.996069 0.0887362 7.1854e-21)
(0.996048 0.088731 -1.01476e-20)
(0.996028 0.088726 2.25515e-20)
(0.996012 0.0887214 -1.11587e-20)
(0.995999 0.0887177 5.88979e-21)
(0.995991 0.0887145 -8.7626e-20)
(0.995987 0.0887116 7.29664e-20)
(0.995988 0.0887092 -1.44258e-19)
(0.995994 0.088707 1.579e-19)
(0.996004 0.0887056 -1.8992e-20)
(0.996017 0.0887049 -4.13295e-20)
(0.996034 0.0887054 -1.85903e-20)
(0.996053 0.088707 -3.86884e-21)
(0.996074 0.0887101 -1.86351e-19)
(0.996096 0.0887146 9.31455e-21)
(0.996118 0.0887208 2.00662e-19)
(0.996139 0.0887289 -6.43319e-20)
(0.99616 0.0887388 -6.69756e-20)
(0.996179 0.088751 1.13091e-19)
(0.996197 0.088765 -5.52613e-20)
(0.996213 0.0887814 2.31674e-19)
(0.996227 0.0888002 1.25109e-19)
(0.996236 0.0888283 9.28124e-20)
(0.996237 0.0888618 -2.85825e-19)
(0.996231 0.0888958 -3.88131e-20)
(0.996217 0.0889283 -2.07634e-19)
(0.996197 0.0889583 3.85745e-20)
(0.99617 0.0889827 -6.45007e-20)
(0.996137 0.0889989 -2.44883e-20)
(0.996099 0.089007 1.95864e-19)
(0.996054 0.0890127 -4.86536e-19)
(0.995997 0.0890171 -2.15093e-20)
(0.995924 0.0890103 -2.3859e-19)
(0.995833 0.088977 -1.15025e-19)
(0.995728 0.0889065 2.93504e-20)
(0.995611 0.0887944 -3.58799e-19)
(0.995479 0.0886368 5.44692e-19)
(0.995332 0.0884288 8.98533e-20)
(0.995168 0.0881659 5.98913e-19)
(0.994989 0.0878473 -4.42551e-19)
(0.9948 0.0874798 -3.06508e-19)
(0.994604 0.0870801 -1.02913e-19)
(0.994409 0.0866755 6.57086e-19)
(0.994222 0.086304 9.46686e-19)
(0.994048 0.0860054 3.04324e-19)
(0.993889 0.0858122 4.91009e-19)
(0.993743 0.0857291 -4.67099e-19)
(0.993605 0.0857142 3.47281e-18)
(0.993463 0.0856721 8.92621e-19)
(0.993326 0.0854376 -7.15782e-19)
(0.993198 0.0848457 6.58321e-19)
(0.99308 0.0837351 2.96003e-18)
(0.993024 0.0819614 -3.55681e-19)
(0.993029 0.0794817 -2.96666e-18)
(0.99349 0.0760803 -7.44205e-18)
(0.993313 0.0721466 6.56118e-18)
(0.994405 0.0681183 -3.81933e-18)
(0.988161 0.0573495 3.40325e-18)
(0.99623 0.0886912 -4.98227e-21)
(0.996227 0.088691 2.00308e-20)
(0.996219 0.0886898 -3.28579e-20)
(0.996207 0.0886994 2.44279e-20)
(0.996191 0.0887112 1.57264e-20)
(0.996175 0.0887243 -1.66384e-20)
(0.996159 0.0887394 1.36498e-21)
(0.996144 0.0887561 -1.23039e-20)
(0.996132 0.088774 -4.10219e-20)
(0.996123 0.0887932 7.82877e-20)
(0.996118 0.0888131 -1.20285e-19)
(0.996117 0.0888339 1.04629e-19)
(0.99612 0.0888554 9.10793e-20)
(0.996126 0.0888777 -1.40243e-19)
(0.996135 0.0889005 -4.50897e-20)
(0.996147 0.0889239 1.68675e-19)
(0.996161 0.0889478 -2.02338e-19)
(0.996176 0.088972 2.77059e-19)
(0.996192 0.0889967 -5.30388e-20)
(0.996207 0.0890215 2.87212e-20)
(0.996222 0.0890469 -4.79242e-20)
(0.996235 0.0890715 -5.92078e-20)
(0.996247 0.0890964 -1.08273e-19)
(0.996257 0.0891211 1.85666e-19)
(0.99626 0.0891522 -1.25793e-19)
(0.996253 0.0891847 -1.17891e-19)
(0.996237 0.0892157 2.34752e-19)
(0.996214 0.0892425 -2.15821e-19)
(0.996184 0.0892645 3.33851e-19)
(0.996147 0.0892786 -1.73996e-19)
(0.996102 0.0892821 1.27567e-19)
(0.996052 0.0892755 -2.10215e-19)
(0.995992 0.089266 2.21041e-19)
(0.995919 0.0892561 -2.01612e-20)
(0.995826 0.0892353 -1.13205e-20)
(0.995713 0.0891871 -5.45746e-21)
(0.995581 0.0891012 -1.09152e-19)
(0.995431 0.0889742 3.16764e-19)
(0.995259 0.0888033 -2.45773e-19)
(0.995062 0.0885833 -1.38123e-18)
(0.994837 0.0883086 -5.79792e-19)
(0.994583 0.0879767 4.2134e-19)
(0.994302 0.0875908 -4.65138e-19)
(0.993996 0.0871625 -5.35403e-19)
(0.993672 0.0867115 -4.73066e-20)
(0.993337 0.0862662 1.41442e-18)
(0.993001 0.0858548 -2.11081e-18)
(0.992673 0.0854989 -2.1714e-18)
(0.992365 0.0851952 -1.40689e-18)
(0.992088 0.0849001 -2.45397e-18)
(0.991851 0.0845251 1.73652e-18)
(0.991681 0.0839201 -5.87523e-19)
(0.991594 0.0829415 -5.14981e-18)
(0.991596 0.0814556 1.2132e-18)
(0.991732 0.0793349 1.43376e-18)
(0.991971 0.0765427 -3.03093e-18)
(0.992738 0.0729053 1.92638e-18)
(0.992937 0.0687656 1.95984e-18)
(0.993946 0.0648965 6.1528e-18)
(0.98919 0.055069 -1.62844e-19)
(0.99639 0.0887879 5.89759e-21)
(0.99641 0.0887813 -2.64707e-20)
(0.996421 0.0887843 1.28712e-20)
(0.996424 0.0887959 2.38369e-20)
(0.99642 0.088811 -5.0847e-20)
(0.996411 0.0888286 4.24015e-20)
(0.996397 0.0888497 -2.80432e-20)
(0.996381 0.0888738 2.36368e-20)
(0.996364 0.0889005 3.73039e-20)
(0.996347 0.0889297 -8.91745e-20)
(0.996331 0.0889608 1.2761e-19)
(0.996318 0.0889937 5.31972e-20)
(0.996307 0.0890281 -2.12051e-19)
(0.996299 0.089064 -3.88567e-20)
(0.996293 0.0891006 1.10843e-19)
(0.99629 0.0891381 7.032e-20)
(0.996289 0.0891758 -8.49176e-20)
(0.99629 0.0892137 7.35809e-20)
(0.996293 0.0892516 1.12346e-19)
(0.996295 0.0892888 -5.51491e-20)
(0.996298 0.0893256 -3.12773e-20)
(0.9963 0.0893598 1.09029e-19)
(0.996301 0.089393 2.21942e-19)
(0.9963 0.089424 -1.61841e-19)
(0.996292 0.0894589 -1.74352e-19)
(0.996271 0.0894919 1.85866e-19)
(0.996243 0.089522 -1.3891e-19)
(0.996208 0.0895466 -5.40446e-20)
(0.996168 0.0895656 4.34718e-19)
(0.99612 0.0895762 -1.84911e-19)
(0.996067 0.0895755 -1.36495e-19)
(0.996007 0.0895642 1.79343e-19)
(0.995937 0.0895513 1.20519e-19)
(0.995854 0.0895401 -1.03025e-19)
(0.995752 0.0895199 -6.95741e-20)
(0.995628 0.0894741 2.19448e-19)
(0.995484 0.089393 5.22125e-20)
(0.995317 0.0892742 7.02179e-20)
(0.995125 0.0891159 -3.79009e-19)
(0.994902 0.0889129 -3.5645e-19)
(0.994644 0.0886582 7.28588e-19)
(0.994347 0.0883463 5.88476e-19)
(0.994011 0.0879766 1.01613e-18)
(0.993636 0.0875541 -9.20478e-19)
(0.993226 0.0870894 -1.04854e-18)
(0.992787 0.0865991 -7.62092e-19)
(0.992333 0.0860987 1.88694e-18)
(0.991877 0.0855975 1.87448e-18)
(0.991442 0.085084 -2.15554e-18)
(0.991052 0.084514 -3.20353e-18)
(0.990734 0.0838085 -5.98947e-19)
(0.990533 0.0828376 6.76283e-19)
(0.99048 0.0814857 5.91686e-20)
(0.990585 0.0796561 -1.9672e-18)
(0.990894 0.0772535 1.77425e-18)
(0.991358 0.0742635 1.04359e-18)
(0.992411 0.0705812 1.55867e-18)
(0.993006 0.066565 -5.82491e-18)
(0.994042 0.0632283 -4.26014e-19)
(0.991682 0.055459 -1.2544e-19)
(0.996487 0.0891842 -9.89861e-21)
(0.996533 0.0891623 -7.84807e-21)
(0.996568 0.0891558 1.06638e-20)
(0.996594 0.0891554 3.74205e-20)
(0.996609 0.0891587 -8.01646e-20)
(0.996616 0.089165 9.11651e-20)
(0.996614 0.0891755 -4.18683e-21)
(0.996606 0.0891901 -5.6955e-21)
(0.996593 0.0892087 -3.18481e-20)
(0.996576 0.0892313 7.63934e-20)
(0.996557 0.0892575 -1.16991e-19)
(0.996536 0.0892871 4.38064e-20)
(0.996516 0.0893197 -1.4015e-21)
(0.996496 0.0893551 6.70271e-20)
(0.996477 0.0893925 3.12978e-20)
(0.99646 0.0894317 -1.66626e-19)
(0.996444 0.0894722 1.43373e-19)
(0.99643 0.0895133 5.54349e-20)
(0.996417 0.089555 -1.58903e-19)
(0.996405 0.0895964 7.74277e-20)
(0.996392 0.0896375 3.52894e-20)
(0.99638 0.0896758 -2.37733e-20)
(0.996367 0.0897128 2.84601e-20)
(0.996351 0.0897468 -1.7123e-20)
(0.996328 0.0897833 -1.88522e-19)
(0.996292 0.0898159 1.19395e-19)
(0.996251 0.0898451 -1.74888e-19)
(0.996204 0.0898686 3.10404e-19)
(0.996155 0.0898871 -5.88171e-20)
(0.9961 0.089898 -3.30914e-20)
(0.996041 0.0898984 -9.28479e-21)
(0.995976 0.0898894 2.84647e-19)
(0.995903 0.0898803 -1.14349e-19)
(0.995818 0.0898759 -6.41324e-20)
(0.995715 0.0898661 1.67583e-19)
(0.995594 0.0898335 1.38838e-19)
(0.995454 0.0897699 -2.29311e-19)
(0.995291 0.089674 4.1395e-20)
(0.995103 0.089545 4.43051e-19)
(0.994882 0.0893778 -9.2729e-21)
(0.994624 0.0891642 2.62395e-19)
(0.994323 0.0888962 -4.07875e-19)
(0.993977 0.0885693 5.83626e-19)
(0.993585 0.0881822 1.4056e-18)
(0.993148 0.0877369 5.04059e-19)
(0.992671 0.0872393 -5.73984e-19)
(0.992167 0.0866925 -1.87087e-18)
(0.991654 0.0860948 2.53472e-19)
(0.991158 0.0854276 6.73856e-19)
(0.990716 0.0846473 1.59732e-18)
(0.990362 0.0836854 -2.69748e-19)
(0.99016 0.0824327 -2.63689e-18)
(0.990147 0.0808026 2.32093e-18)
(0.990344 0.0787363 -1.60631e-18)
(0.990794 0.0761752 3.09669e-18)
(0.991434 0.07313 8.31179e-19)
(0.992693 0.0695608 3.44977e-18)
(0.993587 0.0658539 4.35357e-18)
(0.994597 0.0631676 4.57443e-19)
(0.994647 0.0573228 4.40568e-19)
(0.99645 0.0898635 -4.76568e-21)
(0.996522 0.0898198 4.08077e-21)
(0.996583 0.0897945 2.03211e-20)
(0.996635 0.0897737 3.18915e-20)
(0.996676 0.0897559 -9.39514e-20)
(0.996706 0.0897409 5.36926e-20)
(0.996726 0.0897302 -9.50847e-20)
(0.996737 0.0897241 1.47745e-19)
(0.996738 0.0897226 -6.87272e-20)
(0.996732 0.0897259 1.199e-20)
(0.996719 0.0897338 1.2959e-19)
(0.996702 0.0897465 -2.92644e-19)
(0.996682 0.0897636 1.97666e-19)
(0.996658 0.0897851 2.72105e-20)
(0.996634 0.08981 4.34503e-20)
(0.996609 0.0898385 -1.82198e-19)
(0.996583 0.0898696 8.8617e-20)
(0.996558 0.089903 -1.08369e-19)
(0.996533 0.0899384 2.11267e-19)
(0.996508 0.0899747 -2.86584e-20)
(0.996483 0.0900119 -2.62158e-19)
(0.996457 0.0900468 1.03412e-19)
(0.99643 0.0900816 -5.97294e-21)
(0.996401 0.0901134 -3.69115e-19)
(0.996365 0.0901477 2.72157e-19)
(0.996315 0.0901774 1.96123e-19)
(0.996261 0.0902039 1.26236e-19)
(0.996205 0.0902254 -1.59144e-19)
(0.996148 0.0902432 -1.67347e-19)
(0.996089 0.0902555 7.5954e-20)
(0.996027 0.0902589 1.05624e-19)
(0.995961 0.0902544 -1.26553e-19)
(0.99589 0.0902523 -1.79854e-19)
(0.995808 0.0902578 3.70869e-19)
(0.995712 0.0902611 3.99836e-20)
(0.995602 0.0902456 -5.26569e-19)
(0.995476 0.0902037 5.26356e-20)
(0.995331 0.0901355 3.30208e-19)
(0.995162 0.0900408 1.90925e-20)
(0.994963 0.0899151 4.35955e-19)
(0.994728 0.0897491 -5.87847e-19)
(0.994452 0.0895328 -1.77478e-20)
(0.994131 0.0892583 -4.16311e-19)
(0.993762 0.0889195 6.42751e-20)
(0.993345 0.0885109 6.92823e-19)
(0.992883 0.0880292 1.99742e-18)
(0.992389 0.0874675 4.58925e-19)
(0.99188 0.0868151 -1.52844e-18)
(0.991386 0.0860478 1.08635e-18)
(0.990947 0.0851236 4.25257e-18)
(0.990604 0.0839843 -3.49904e-18)
(0.99043 0.0825394 4.26404e-18)
(0.990469 0.0807281 -2.74546e-18)
(0.990744 0.078525 -1.2203e-18)
(0.991297 0.0759045 -6.13009e-18)
(0.992055 0.0728962 -3.0008e-19)
(0.99343 0.069506 -2.00213e-18)
(0.994498 0.0661347 -1.90328e-18)
(0.995381 0.0640063 6.74575e-19)
(0.997294 0.0595181 -4.38749e-19)
(0.996267 0.0907292 6.54296e-21)
(0.996358 0.0906705 2.25345e-21)
(0.996441 0.0906275 -2.342e-20)
(0.996517 0.0905868 2.2185e-20)
(0.996585 0.0905471 -9.76258e-21)
(0.996642 0.0905088 1.72813e-20)
(0.996689 0.0904734 5.81939e-21)
(0.996724 0.0904416 -8.49162e-20)
(0.996749 0.090414 3.67514e-20)
(0.996763 0.0903911 -2.44972e-20)
(0.996768 0.0903733 1.49943e-20)
(0.996765 0.0903609 5.69432e-20)
(0.996755 0.0903538 -1.06257e-20)
(0.99674 0.0903521 3.39142e-20)
(0.99672 0.0903554 -1.42146e-19)
(0.996696 0.0903635 5.46167e-20)
(0.99667 0.0903759 2.37199e-20)
(0.996642 0.0903919 -6.3214e-20)
(0.996612 0.0904119 1.2424e-19)
(0.996581 0.0904345 3.98547e-20)
(0.996548 0.0904596 -4.79264e-21)
(0.996515 0.090484 -4.26348e-20)
(0.996479 0.0905102 1.68969e-19)
(0.996441 0.0905343 -4.59189e-19)
(0.996394 0.090562 2.34775e-19)
(0.996334 0.0905856 9.49669e-20)
(0.99627 0.0906067 -1.52924e-19)
(0.996207 0.0906236 2.58776e-19)
(0.996146 0.090639 -1.23107e-19)
(0.996084 0.0906512 -6.03902e-20)
(0.996021 0.0906566 -1.13101e-19)
(0.995958 0.0906561 -4.12408e-20)
(0.99589 0.0906594 1.19872e-19)
(0.995814 0.0906731 -3.45717e-19)
(0.995729 0.0906877 6.34908e-19)
(0.995633 0.0906865 -4.25364e-20)
(0.995525 0.0906633 3.04914e-19)
(0.995402 0.090619 -7.52608e-19)
(0.995259 0.0905541 -2.29706e-19)
(0.99509 0.0904642 -1.2758e-20)
(0.994889 0.0903396 -1.34017e-19)
(0.994652 0.0901685 2.73864e-21)
(0.994373 0.0899406 -5.24994e-19)
(0.99405 0.0896459 7.71497e-20)
(0.993679 0.0892731 2.40622e-19)
(0.993265 0.0888119 -1.74485e-18)
(0.992818 0.0882478 2.13744e-18)
(0.992355 0.0875633 3.46551e-19)
(0.991905 0.0867305 -1.01378e-19)
(0.991509 0.0857099 -2.5346e-18)
(0.991212 0.0844524 1.12818e-18)
(0.991087 0.0828834 -2.18837e-18)
(0.991184 0.0809633 3.59659e-18)
(0.991525 0.0786924 1.1891e-18)
(0.992147 0.0760711 -2.43221e-18)
(0.992972 0.0731394 1.09199e-18)
(0.994392 0.0699285 -2.79617e-18)
(0.995534 0.0668388 -4.24758e-19)
(0.996215 0.0651026 -3.13675e-18)
(0.999307 0.0614473 -1.02197e-18)
(0.99597 0.091673 -1.42804e-21)
(0.99607 0.0916023 -5.56427e-21)
(0.996166 0.0915451 -4.78874e-21)
(0.996261 0.0914889 4.61204e-20)
(0.996349 0.0914315 -2.54791e-20)
(0.996431 0.0913738 -3.02256e-20)
(0.996504 0.0913172 -1.11656e-20)
(0.996566 0.0912627 -4.56499e-20)
(0.996618 0.0912109 2.86383e-20)
(0.996658 0.0911626 4.24974e-21)
(0.996688 0.0911185 1.59693e-21)
(0.996707 0.0910794 1.17549e-19)
(0.996717 0.0910456 -8.2685e-20)
(0.996719 0.0910176 -1.00078e-20)
(0.996713 0.0909951 9.24446e-20)
(0.996701 0.0909785 -5.05792e-20)
(0.996683 0.0909674 -1.90333e-20)
(0.996661 0.0909615 3.07482e-20)
(0.996635 0.090961 9.69707e-20)
(0.996606 0.090965 5.18895e-20)
(0.996574 0.090973 1.78199e-20)
(0.996539 0.0909821 -1.30317e-19)
(0.996501 0.0909951 6.42867e-20)
(0.99646 0.0910073 1.22006e-19)
(0.996409 0.0910247 -2.5089e-19)
(0.996343 0.0910392 7.66027e-20)
(0.996273 0.091052 -2.93241e-19)
(0.996206 0.0910617 2.28633e-19)
(0.996143 0.0910717 1.89082e-19)
(0.99608 0.0910809 -2.85222e-19)
(0.996019 0.0910851 -1.28125e-19)
(0.995958 0.0910849 1.63847e-19)
(0.995895 0.0910902 5.33254e-20)
(0.995826 0.0911073 -1.38906e-19)
(0.99575 0.0911272 -1.66414e-19)
(0.995668 0.0911338 -1.91706e-19)
(0.995577 0.0911215 1.19983e-19)
(0.995476 0.0910918 2.749e-19)
(0.995358 0.0910455 9.85701e-20)
(0.995219 0.0909788 -8.5936e-20)
(0.995053 0.0908812 8.44992e-19)
(0.994856 0.0907397 -6.88752e-20)
(0.994623 0.0905424 8.6561e-19)
(0.994351 0.0902761 -1.50876e-18)
(0.994038 0.0899257 1.51225e-19)
(0.993685 0.0894759 7.59803e-20)
(0.993302 0.0889065 -2.97668e-19)
(0.992905 0.0881957 -1.13741e-18)
(0.992522 0.0873138 -2.09417e-18)
(0.992193 0.0862241 1.8717e-18)
(0.99196 0.0848856 2.50444e-18)
(0.991897 0.0832366 1.22101e-18)
(0.992054 0.0812535 -3.12716e-18)
(0.99245 0.0789552 1.62671e-18)
(0.993116 0.0763609 4.4187e-18)
(0.993971 0.0735136 1.05229e-18)
(0.995389 0.0704547 2.72013e-18)
(0.996544 0.0675765 1.02883e-18)
(0.996995 0.0660839 1.90465e-18)
(1.00069 0.0629051 -8.92797e-19)
(0.995618 0.0926026 1.81283e-21)
(0.995715 0.092528 -5.40453e-21)
(0.995815 0.0924631 1.91426e-20)
(0.995916 0.0923979 4.90748e-21)
(0.996017 0.0923295 -2.5942e-20)
(0.996116 0.0922588 -2.95171e-20)
(0.996208 0.092187 6.94351e-20)
(0.996294 0.0921154 -7.50511e-20)
(0.99637 0.0920446 -1.80683e-20)
(0.996437 0.0919758 4.55338e-20)
(0.996493 0.0919099 4.15352e-20)
(0.996538 0.091848 1.24573e-19)
(0.996573 0.0917906 -7.01412e-20)
(0.996597 0.0917385 -1.18082e-19)
(0.996612 0.0916918 2.57607e-20)
(0.996619 0.0916511 -9.36294e-20)
(0.996618 0.0916163 7.00667e-20)
(0.99661 0.0915871 -1.14994e-19)
(0.996596 0.0915646 1.94211e-20)
(0.996577 0.0915476 -3.56071e-20)
(0.996552 0.091536 -2.15008e-20)
(0.996523 0.0915271 -9.69714e-20)
(0.99649 0.0915241 1.06489e-20)
(0.996452 0.0915218 2.07791e-19)
(0.996403 0.091526 -6.8676e-20)
(0.996336 0.0915292 2.17377e-20)
(0.996265 0.0915313 5.85459e-20)
(0.996197 0.0915311 -7.26515e-20)
(0.996134 0.0915326 -1.38898e-20)
(0.996073 0.0915353 9.30553e-20)
(0.996014 0.0915342 1.00129e-19)
(0.995956 0.0915301 -7.26472e-20)
(0.995897 0.0915316 -2.17233e-19)
(0.995833 0.0915456 -2.9142e-19)
(0.995765 0.0915637 4.41129e-19)
(0.995693 0.0915692 1.14832e-19)
(0.995616 0.0915577 7.19811e-20)
(0.995532 0.0915307 3.18067e-19)
(0.995434 0.0914894 -2.87117e-19)
(0.995319 0.09143 1.68869e-19)
(0.995183 0.0913416 -1.81381e-20)
(0.995021 0.0912104 3.19849e-20)
(0.99483 0.0910231 -3.03887e-19)
(0.994606 0.0907648 6.44575e-19)
(0.994348 0.0904175 -7.86181e-19)
(0.994057 0.0899626 4.45575e-19)
(0.993742 0.0893766 -1.37561e-18)
(0.993417 0.0886351 5.66865e-19)
(0.993109 0.0877081 1.03246e-18)
(0.992854 0.086562 -1.68776e-18)
(0.992692 0.0851632 -7.77321e-19)
(0.992696 0.0834598 -4.4014e-19)
(0.992911 0.0814402 -2.15817e-19)
(0.993354 0.0791357 -1.22676e-18)
(0.994049 0.076578 1.56485e-19)
(0.994912 0.073809 3.59593e-19)
(0.996304 0.0708707 -8.03053e-19)
(0.997439 0.0681465 -2.30888e-19)
(0.99767 0.0667944 -4.78485e-19)
(1.00156 0.0638798 3.85265e-19)
(0.995261 0.0934661 3.32265e-21)
(0.995348 0.0933879 -2.79719e-21)
(0.995441 0.0933188 2.52647e-21)
(0.99554 0.0932495 1.60898e-20)
(0.995644 0.0931759 2.31556e-20)
(0.995749 0.0930988 -8.99708e-20)
(0.995853 0.0930193 6.45504e-20)
(0.995954 0.0929383 1.32107e-20)
(0.996049 0.0928564 -4.08828e-21)
(0.996138 0.0927744 -2.82793e-20)
(0.996217 0.0926936 8.54409e-20)
(0.996286 0.0926151 -2.79125e-20)
(0.996346 0.0925397 -3.7919e-20)
(0.996395 0.0924685 -1.11012e-19)
(0.996433 0.0924017 2.1994e-19)
(0.996462 0.0923406 -4.57221e-20)
(0.996482 0.092285 -3.77354e-20)
(0.996493 0.0922353 -1.08752e-19)
(0.996497 0.0921924 1.18966e-19)
(0.996493 0.0921559 6.44792e-20)
(0.996482 0.0921253 -2.94739e-20)
(0.996466 0.0920984 4.92915e-20)
(0.996443 0.0920789 -2.08409e-19)
(0.996413 0.0920613 1.51452e-20)
(0.996373 0.092051 1.12325e-19)
(0.99631 0.0920417 -2.06434e-20)
(0.996241 0.0920317 -3.11861e-19)
(0.996175 0.0920194 3.0414e-20)
(0.996114 0.0920097 2.55354e-19)
(0.996055 0.0920025 -6.37513e-20)
(0.995999 0.091992 -1.2061e-19)
(0.995944 0.0919787 6.42628e-20)
(0.995888 0.0919712 1.87411e-19)
(0.995828 0.0919757 4.2291e-19)
(0.995765 0.0919837 -6.53496e-20)
(0.995699 0.0919793 6.8958e-20)
(0.995632 0.0919582 -5.69541e-19)
(0.995558 0.091922 -1.60863e-19)
(0.995475 0.0918718 9.39166e-20)
(0.995377 0.0918039 -3.6287e-19)
(0.995262 0.0917072 -8.38149e-20)
(0.995127 0.0915671 1.62246e-19)
(0.994969 0.0913696 9.67187e-20)
(0.994786 0.0910987 2.90638e-19)
(0.994575 0.0907348 9.73485e-19)
(0.994339 0.0902572 -7.47301e-19)
(0.994086 0.0896408 1.14382e-18)
(0.99383 0.0888602 9.21931e-19)
(0.993594 0.087886 2.95573e-20)
(0.993413 0.0866883 1.12396e-18)
(0.993322 0.0852397 -1.69819e-18)
(0.993391 0.0834962 -1.98515e-18)
(0.993661 0.0814545 1.52251e-18)
(0.994144 0.0791541 1.2672e-18)
(0.994856 0.0766346 -3.85754e-19)
(0.995718 0.0739345 -2.84282e-18)
(0.997075 0.0710922 7.06153e-19)
(0.99818 0.0684854 -2.43582e-19)
(0.998225 0.0672163 -2.45221e-19)
(1.00209 0.0644569 -3.06796e-19)
(0.994926 0.0942334 -3.51797e-21)
(0.994997 0.094161 3.83753e-21)
(0.995077 0.0940937 2.58537e-20)
(0.995167 0.094026 -3.3582e-20)
(0.995265 0.0939526 6.04019e-20)
(0.995369 0.0938745 -8.8103e-20)
(0.995476 0.0937924 2.47808e-20)
(0.995584 0.0937072 -1.13496e-21)
(0.995691 0.0936195 5.36499e-20)
(0.995793 0.0935301 -2.80797e-20)
(0.99589 0.0934402 8.09329e-21)
(0.99598 0.0933512 8.22154e-21)
(0.996061 0.0932638 -1.28024e-19)
(0.996132 0.093179 3.83985e-20)
(0.996194 0.0930976 8.67333e-20)
(0.996247 0.0930206 2.36365e-21)
(0.996289 0.0929484 -1.4053e-19)
(0.996322 0.0928814 5.68241e-20)
(0.996346 0.0928211 2.59317e-19)
(0.996361 0.0927671 -1.68213e-19)
(0.996368 0.0927193 -1.24378e-19)
(0.996368 0.0926757 1.04513e-19)
(0.99636 0.0926405 6.45966e-20)
(0.996345 0.0926081 7.06111e-20)
(0.996317 0.0925833 -1.36023e-19)
(0.996263 0.0925611 -2.79061e-19)
(0.996198 0.0925383 2.05211e-19)
(0.996136 0.0925126 2.73613e-19)
(0.996079 0.0924896 6.60798e-20)
(0.996023 0.0924696 -1.34489e-19)
(0.995969 0.0924462 5.84772e-20)
(0.995916 0.0924198 8.83064e-20)
(0.995862 0.0923976 -1.57308e-19)
(0.995804 0.0923863 -3.25664e-20)
(0.995743 0.0923777 -2.51267e-19)
(0.995681 0.0923551 -6.50423e-20)
(0.995618 0.0923152 -4.55543e-20)
(0.995551 0.0922593 1.47822e-19)
(0.995475 0.0921882 -1.91362e-19)
(0.995388 0.0920983 5.43373e-20)
(0.995287 0.0919781 7.49832e-20)
(0.99517 0.0918127 1.41655e-20)
(0.995036 0.0915879 -4.40155e-19)
(0.994883 0.0912869 -5.61094e-19)
(0.99471 0.0908893 -5.02276e-19)
(0.99452 0.0903739 8.761e-19)
(0.99432 0.0897148 -1.15806e-19)
(0.994123 0.0888868 -3.71709e-19)
(0.993953 0.0878621 1.66868e-19)
(0.993839 0.0866143 -1.09683e-18)
(0.993814 0.0851217 5.6398e-19)
(0.993942 0.0833462 1.44939e-18)
(0.994261 0.0812905 -2.81898e-19)
(0.994778 0.0789992 -1.1576e-18)
(0.995504 0.0765165 6.08274e-19)
(0.996359 0.0738774 5.44009e-19)
(0.997682 0.0711144 3.46809e-19)
(0.998758 0.0686047 3.62052e-19)
(0.998658 0.0673928 -4.18607e-19)
(1.00238 0.0647384 7.86994e-19)
(0.994626 0.0948983 -2.93453e-21)
(0.994678 0.0948296 4.21586e-21)
(0.994742 0.0947656 8.62048e-22)
(0.994818 0.0947016 1.57289e-20)
(0.994905 0.0946316 -2.37296e-20)
(0.995001 0.0945563 -4.80502e-20)
(0.995104 0.0944765 1.7206e-20)
(0.995212 0.0943925 -2.22763e-20)
(0.995323 0.0943045 4.84078e-20)
(0.995433 0.0942134 -9.59765e-21)
(0.995542 0.0941202 -3.11091e-20)
(0.995646 0.0940261 2.57216e-20)
(0.995744 0.0939321 4.08796e-20)
(0.995835 0.0938393 1.10758e-19)
(0.995917 0.0937486 -1.99367e-19)
(0.995991 0.0936611 1.00349e-19)
(0.996055 0.0935774 1.47324e-20)
(0.99611 0.0934981 -9.59281e-20)
(0.996155 0.093425 -5.82445e-20)
(0.996191 0.0933578 1.89376e-19)
(0.996219 0.0932963 -1.94706e-19)
(0.996237 0.0932391 5.83576e-20)
(0.996247 0.0931905 -1.50167e-19)
(0.996249 0.0931449 2.47998e-19)
(0.996237 0.0931066 -4.9308e-20)
(0.996194 0.0930722 -1.30315e-19)
(0.996134 0.0930366 1.02277e-19)
(0.996078 0.0929971 1.78971e-19)
(0.996025 0.0929595 -1.60872e-19)
(0.995972 0.0929247 9.41588e-20)
(0.995921 0.0928856 -2.94767e-19)
(0.995869 0.0928422 -2.7877e-20)
(0.995816 0.0928017 1.16843e-19)
(0.995759 0.09277 -6.59463e-20)
(0.995698 0.0927387 -1.23443e-19)
(0.995637 0.0926917 -2.75168e-19)
(0.995574 0.0926256 3.39846e-19)
(0.995508 0.0925416 -1.22566e-19)
(0.995436 0.0924401 9.56134e-20)
(0.995353 0.0923177 1.71687e-19)
(0.99526 0.0921626 1.19115e-19)
(0.995154 0.0919596 -6.30932e-20)
(0.995036 0.0916945 2.25267e-19)
(0.994904 0.0913505 3.93946e-19)