/*--------------------------------*- C++ -*----------------------------------*\
  =========                 |
  \\      /  F ield         | OpenFOAM: The Open Source CFD Toolbox
   \\    /   O peration     | Website:  https://openfoam.org
    \\  /    A nd           | Version:  6.0
     \\/     M anipulation  |
\*---------------------------------------------------------------------------*/
FoamFile
{
    version     2.0;
    format      ascii;
    class       volScalarField;
    location    "1";
    object      p;
}
// * * * * * * * * * * * * * * * * * * * * * * * * * * * * * * * * * * * * * //

dimensions      [0 2 -2 0 0 0 0];

internalField   nonuniform List<scalar> 
62000
(
0.11404
0.115519
0.117018
0.11854
0.120086
0.12166
0.123265
0.124904
0.126582
0.128302
0.130069
0.131886
0.133761
0.135697
0.137703
0.139782
0.141944
0.144193
0.14654
0.14899
0.151553
0.154234
0.157043
0.159984
0.163064
0.166284
0.169646
0.173143
0.176768
0.180502
0.184319
0.188178
0.192024
0.195781
0.199345
0.202593
0.205376
0.207531
0.208853
0.20908
0.207911
0.205045
0.200205
0.193175
0.183849
0.172276
0.15869
0.143537
0.12743
0.111105
0.0952988
0.0806601
0.067639
0.0564438
0.0471057
0.0394313
0.0332534
0.0282677
0.0243568
0.0214801
0.117672
0.119149
0.120646
0.122164
0.123706
0.125273
0.126871
0.1285
0.130166
0.13187
0.133619
0.135414
0.137262
0.139167
0.141135
0.14317
0.145281
0.147473
0.149753
0.152126
0.154603
0.157188
0.159889
0.162711
0.165659
0.168735
0.17194
0.17527
0.178715
0.18226
0.185881
0.189543
0.193193
0.196763
0.20016
0.203271
0.205963
0.20809
0.20947
0.209861
0.20899
0.206576
0.202359
0.196131
0.187778
0.177322
0.164955
0.151056
0.13617
0.120963
0.106118
0.0922614
0.0798469
0.0691125
0.060136
0.0527644
0.0468808
0.0422032
0.0386825
0.0363857
0.121141
0.122613
0.124104
0.125616
0.127151
0.128711
0.1303
0.13192
0.133575
0.135266
0.136999
0.138777
0.140605
0.142485
0.144426
0.146429
0.148503
0.150651
0.152881
0.155198
0.15761
0.160122
0.162741
0.16547
0.168316
0.171279
0.17436
0.177556
0.180859
0.184253
0.187717
0.19122
0.194715
0.198138
0.201405
0.204414
0.207046
0.20917
0.210622
0.211183
0.210602
0.208618
0.204987
0.199509
0.192064
0.182654
0.171432
0.158722
0.145004
0.130883
0.11699
0.103924
0.0921401
0.0818975
0.0733125
0.0662703
0.0606986
0.0563435
0.0532144
0.0514598
0.124499
0.125966
0.127452
0.128959
0.130488
0.132042
0.133624
0.135235
0.136881
0.138562
0.140283
0.142047
0.14386
0.145723
0.147642
0.149622
0.151668
0.153785
0.155979
0.158254
0.160618
0.163075
0.165632
0.168291
0.171058
0.173935
0.17692
0.180012
0.183203
0.186479
0.189821
0.1932
0.196574
0.199884
0.203056
0.205995
0.208593
0.210735
0.212274
0.213012
0.212715
0.211143
0.208067
0.203293
0.196701
0.188273
0.178129
0.166547
0.153949
0.14088
0.127925
0.115655
0.104517
0.0947905
0.0866209
0.0799332
0.0746901
0.0706734
0.067939
0.0666917
0.127798
0.129261
0.130744
0.132247
0.133772
0.135321
0.136897
0.138503
0.140142
0.141816
0.143529
0.145283
0.147085
0.148935
0.15084
0.152803
0.154829
0.156923
0.15909
0.161335
0.163664
0.166081
0.168592
0.1712
0.173908
0.17672
0.179633
0.182646
0.185752
0.188939
0.192188
0.195474
0.198758
0.201987
0.205092
0.207987
0.210577
0.212757
0.214397
0.215316
0.2153
0.214125
0.211576
0.207468
0.201678
0.194175
0.18505
0.17454
0.163014
0.150967
0.138936
0.127462
0.116986
0.107798
0.100069
0.0937581
0.0888622
0.0851965
0.082858
0.0820889
0.131055
0.132519
0.134001
0.135502
0.137026
0.138574
0.140149
0.141752
0.143389
0.145059
0.146768
0.148517
0.150313
0.152156
0.154052
0.156005
0.158019
0.160098
0.162248
0.164473
0.166778
0.169167
0.171646
0.174217
0.176885
0.179649
0.182511
0.185467
0.188511
0.191632
0.194814
0.198034
0.201255
0.204429
0.207494
0.210372
0.212974
0.215211
0.216964
0.218071
0.218332
0.217541
0.215496
0.21202
0.206989
0.200361
0.192202
0.182713
0.172218
0.161161
0.150038
0.139359
0.129554
0.120922
0.113653
0.107741
0.103208
0.099907
0.0979655
0.0976482
0.134311
0.135776
0.13726
0.138764
0.140289
0.141839
0.143415
0.145019
0.146656
0.148327
0.150035
0.151784
0.153578
0.155419
0.157312
0.15926
0.161268
0.16334
0.16548
0.167693
0.169984
0.172356
0.174815
0.177363
0.180003
0.182736
0.185563
0.18848
0.191483
0.19456
0.197698
0.200874
0.204056
0.2072
0.210248
0.21313
0.215765
0.218073
0.219952
0.221251
0.221789
0.221372
0.219811
0.216937
0.212626
0.206827
0.199586
0.191071
0.181566
0.171471
0.16124
0.151354
0.142229
0.13417
0.127381
0.121886
0.117733
0.114806
0.113262
0.113375
0.137578
0.139049
0.140538
0.142047
0.143577
0.145132
0.146713
0.148322
0.149963
0.151638
0.153351
0.155103
0.1569
0.158744
0.160639
0.162587
0.164596
0.166667
0.168805
0.171014
0.1733
0.175665
0.178114
0.180649
0.183275
0.185991
0.188798
0.191693
0.194671
0.197724
0.200836
0.20399
0.207154
0.210289
0.213341
0.216245
0.21893
0.221326
0.223341
0.224839
0.225652
0.2256
0.224506
0.222208
0.218584
0.213575
0.20721
0.199628
0.191077
0.181915
0.172559
0.163462
0.155022
0.147548
0.141256
0.136196
0.132435
0.129895
0.128748
0.129271
0.140887
0.142366
0.143863
0.145379
0.146918
0.14848
0.150069
0.151686
0.153335
0.155018
0.156738
0.158498
0.160302
0.162152
0.164054
0.166009
0.168023
0.170099
0.172242
0.174454
0.176742
0.179108
0.181556
0.18409
0.186712
0.189422
0.192223
0.19511
0.198079
0.201123
0.204228
0.207377
0.210542
0.213686
0.21676
0.219705
0.222456
0.224952
0.227113
0.228816
0.229904
0.23021
0.229568
0.227824
0.224856
0.220601
0.215073
0.208385
0.200753
0.192499
0.184003
0.175688
0.167939
0.161061
0.155282
0.150672
0.147319
0.145172
0.144422
0.145341
0.144238
0.145728
0.147237
0.148765
0.150315
0.151889
0.15349
0.155119
0.156779
0.158474
0.160206
0.161978
0.163794
0.165656
0.167569
0.169536
0.171561
0.173648
0.175801
0.178024
0.180322
0.182696
0.185153
0.187693
0.190322
0.193038
0.195843
0.198735
0.201709
0.204759
0.207871
0.211031
0.214214
0.217383
0.220497
0.223498
0.226329
0.228938
0.231254
0.233166
0.234529
0.235189
0.234987
0.233776
0.23144
0.227908
0.223182
0.217354
0.210611
0.20324
0.195587
0.188049
0.180992
0.174721
0.169466
0.165321
0.162387
0.160643
0.16029
0.16159
0.147656
0.149161
0.150684
0.152227
0.153791
0.15538
0.156995
0.158639
0.160315
0.162025
0.163773
0.165561
0.167393
0.169271
0.1712
0.173183
0.175225
0.177327
0.179497
0.181736
0.184049
0.186439
0.188912
0.191468
0.194112
0.196843
0.199664
0.202572
0.205563
0.208631
0.211765
0.21495
0.218165
0.221375
0.224542
0.227614
0.230538
0.23327
0.23575
0.237876
0.239516
0.240523
0.24075
0.240057
0.238328
0.235491
0.231536
0.226536
0.220653
0.214141
0.207316
0.200548
0.194186
0.188529
0.183811
0.180142
0.177639
0.176305
0.176349
0.17802
0.151146
0.152668
0.154209
0.155769
0.157352
0.158959
0.160593
0.162255
0.16395
0.165679
0.167446
0.169253
0.171105
0.173004
0.174954
0.176957
0.17902
0.181145
0.183336
0.185597
0.187933
0.190345
0.192841
0.19542
0.198087
0.200843
0.203689
0.206623
0.209642
0.21274
0.215908
0.219131
0.222391
0.225656
0.228889
0.232044
0.235073
0.237938
0.24059
0.242936
0.244853
0.246204
0.246851
0.246661
0.24552
0.243353
0.240142
0.235943
0.230893
0.225218
0.219208
0.213202
0.207535
0.202497
0.198326
0.195146
0.193083
0.192165
0.192606
0.19464
0.154728
0.15627
0.157831
0.159412
0.161016
0.162643
0.164298
0.165982
0.167698
0.169449
0.171239
0.173069
0.174945
0.176867
0.178841
0.18087
0.182959
0.185109
0.187327
0.189615
0.191979
0.194421
0.196946
0.199555
0.202253
0.205042
0.207921
0.21089
0.213947
0.217086
0.220298
0.223572
0.226888
0.23022
0.233531
0.236781
0.239925
0.242933
0.245763
0.248334
0.250529
0.252222
0.253282
0.253581
0.253009
0.251491
0.248998
0.245572
0.241331
0.236474
0.231263
0.226012
0.221039
0.216627
0.213012
0.210328
0.208716
0.20822
0.209059
0.211448
0.158395
0.15996
0.161545
0.16315
0.164777
0.166429
0.168109
0.169818
0.17156
0.173337
0.175153
0.17701
0.178914
0.180864
0.182867
0.184925
0.187044
0.189226
0.191476
0.193797
0.196194
0.19867
0.201231
0.203877
0.206614
0.209442
0.212363
0.215376
0.21848
0.221669
0.224936
0.22827
0.231654
0.235063
0.238464
0.241818
0.245087
0.248246
0.251263
0.254063
0.256538
0.25857
0.260036
0.260814
0.260797
0.259907
0.258111
0.255436
0.251982
0.247924
0.243498
0.238995
0.234714
0.230931
0.227879
0.225702
0.224547
0.224479
0.225716
0.228457
0.162167
0.163758
0.165369
0.167
0.168655
0.170334
0.172041
0.173778
0.175549
0.177355
0.179201
0.181089
0.183023
0.185005
0.187041
0.189132
0.191286
0.193503
0.195789
0.198147
0.200583
0.203099
0.205702
0.208391
0.211172
0.214047
0.217017
0.220082
0.223241
0.226489
0.22982
0.233224
0.236686
0.240182
0.243682
0.247151
0.250553
0.253872
0.257081
0.260114
0.262871
0.265241
0.267107
0.268353
0.268877
0.268598
0.267478
0.265533
0.262845
0.259567
0.255913
0.25215
0.24856
0.245409
0.242926
0.241263
0.240574
0.240938
0.242573
0.245662
0.166043
0.167663
0.169303
0.170963
0.172648
0.174357
0.176095
0.177864
0.179666
0.181505
0.183384
0.185305
0.187274
0.189292
0.191365
0.193494
0.195686
0.197943
0.200269
0.20267
0.20515
0.207712
0.210361
0.213099
0.215931
0.218859
0.221885
0.22501
0.228231
0.231546
0.23495
0.238433
0.241981
0.245573
0.249182
0.252774
0.256318
0.259803
0.263211
0.266482
0.269523
0.272229
0.274491
0.276199
0.277251
0.277569
0.277107
0.275873
0.273932
0.271419
0.268525
0.265494
0.262592
0.260075
0.258166
0.257024
0.256807
0.257607
0.259642
0.263076
0.170042
0.171693
0.173364
0.175056
0.176773
0.178514
0.180285
0.182088
0.183925
0.185798
0.187713
0.189671
0.191678
0.193735
0.195847
0.198017
0.200251
0.202551
0.204923
0.207371
0.209899
0.212511
0.215212
0.218005
0.220894
0.223881
0.22697
0.23016
0.233451
0.236841
0.240325
0.243895
0.247538
0.251235
0.254961
0.258684
0.262378
0.266036
0.269648
0.27316
0.276487
0.279529
0.282184
0.284345
0.285916
0.286815
0.286995
0.286454
0.285243
0.283479
0.281332
0.279026
0.276808
0.274926
0.273596
0.27298
0.273241
0.274481
0.276916
0.280696
0.174151
0.175836
0.177542
0.179269
0.181021
0.182799
0.184606
0.186446
0.18832
0.190233
0.192187
0.194186
0.196234
0.198333
0.200488
0.202703
0.204984
0.207332
0.209754
0.212252
0.214834
0.2175
0.220259
0.223111
0.226062
0.229115
0.232272
0.235534
0.238902
0.242374
0.245945
0.24961
0.253356
0.257165
0.261016
0.264878
0.268728
0.272566
0.276388
0.280146
0.283761
0.287139
0.290183
0.292793
0.294872
0.296342
0.29715
0.297287
0.296791
0.295762
0.294351
0.292761
0.291226
0.289978
0.28923
0.289145
0.289888
0.291572
0.29441
0.298535
0.178391
0.180113
0.181855
0.183619
0.185408
0.187225
0.189071
0.19095
0.192865
0.194819
0.196816
0.198858
0.20095
0.203095
0.205297
0.20756
0.209891
0.21229
0.214765
0.217318
0.219957
0.222682
0.225503
0.22842
0.231438
0.234562
0.237793
0.241134
0.244585
0.248145
0.251811
0.255577
0.259433
0.263362
0.267345
0.271353
0.275367
0.27939
0.283426
0.287435
0.29134
0.295054
0.298485
0.301537
0.304117
0.306146
0.307569
0.308369
0.308572
0.308264
0.307578
0.306698
0.30584
0.305227
0.305064
0.305513
0.306743
0.308874
0.312115
0.316587
0.182757
0.184517
0.186299
0.188104
0.189933
0.191791
0.193679
0.195601
0.197559
0.199557
0.201599
0.203687
0.205827
0.208021
0.210274
0.212589
0.214973
0.217427
0.219959
0.222572
0.225271
0.228061
0.230948
0.233934
0.237024
0.240224
0.243535
0.24696
0.2505
0.254155
0.257921
0.261795
0.265769
0.269825
0.273946
0.278107
0.28229
0.286506
0.290762
0.295024
0.299222
0.303273
0.30709
0.31058
0.313655
0.316234
0.31826
0.31971
0.320601
0.321002
0.321031
0.320853
0.320668
0.320689
0.321112
0.322099
0.323819
0.3264
0.330046
0.334866
0.187268
0.189069
0.190893
0.192739
0.194611
0.196511
0.198443
0.200409
0.202413
0.204457
0.206546
0.208683
0.210874
0.213119
0.215425
0.217794
0.220235
0.222748
0.22534
0.228015
0.23078
0.233638
0.236595
0.239655
0.242823
0.246103
0.249499
0.253014
0.256649
0.260404
0.264277
0.268266
0.272362
0.276552
0.280819
0.285139
0.289498
0.29391
0.298391
0.302911
0.307404
0.311792
0.315993
0.319918
0.323481
0.326602
0.329221
0.331309
0.332874
0.333973
0.334706
0.335222
0.335706
0.336359
0.337369
0.338896
0.341109
0.344142
0.348196
0.353367
0.191908
0.193753
0.195621
0.197511
0.199429
0.201375
0.203354
0.205368
0.207421
0.209515
0.211655
0.213844
0.216087
0.218388
0.22075
0.223178
0.225678
0.228254
0.23091
0.233652
0.236487
0.239416
0.242448
0.245586
0.248835
0.252202
0.255687
0.259297
0.263032
0.266893
0.27088
0.274989
0.279215
0.283544
0.287962
0.292447
0.296988
0.301603
0.306313
0.311094
0.315885
0.320613
0.325197
0.329555
0.3336
0.337256
0.340459
0.343175
0.345405
0.34719
0.348619
0.349821
0.350971
0.352254
0.35385
0.35592
0.358629
0.362116
0.366578
0.372104
0.196697
0.198587
0.200501
0.202438
0.204403
0.206398
0.208426
0.21049
0.212593
0.214739
0.216933
0.219177
0.221477
0.223835
0.226256
0.228745
0.231309
0.23395
0.236673
0.239486
0.242393
0.245397
0.248509
0.251729
0.255064
0.258521
0.262101
0.265811
0.269651
0.273624
0.277729
0.281965
0.286326
0.290801
0.295376
0.300032
0.30476
0.309582
0.314526
0.319573
0.324664
0.329732
0.334699
0.339487
0.344011
0.348194
0.351973
0.355307
0.358189
0.360651
0.362766
0.364648
0.366457
0.368368
0.370551
0.373163
0.376369
0.380312
0.385186
0.39107
0.201628
0.203567
0.205529
0.207516
0.209531
0.211577
0.213656
0.215773
0.21793
0.220131
0.222381
0.224682
0.227041
0.229459
0.231943
0.234497
0.237127
0.239836
0.242631
0.245517
0.248501
0.251585
0.254779
0.258086
0.261512
0.265063
0.268743
0.272557
0.276507
0.280597
0.284826
0.289194
0.293696
0.298322
0.303061
0.307893
0.312813
0.317848
0.323031
0.328347
0.333742
0.339151
0.344502
0.349718
0.354717
0.359423
0.363771
0.367714
0.371241
0.374369
0.377163
0.379718
0.382181
0.384717
0.387486
0.390642
0.394347
0.398747
0.404034
0.41028
0.206722
0.208711
0.210723
0.212761
0.214828
0.216925
0.219058
0.221229
0.223441
0.225699
0.228007
0.230368
0.232787
0.235269
0.237818
0.240438
0.243137
0.245919
0.248787
0.25175
0.254814
0.257981
0.261262
0.264659
0.26818
0.27183
0.275614
0.279537
0.283603
0.287814
0.292172
0.296677
0.301326
0.306109
0.311016
0.31603
0.321147
0.3264
0.331826
0.337415
0.343117
0.348869
0.354604
0.360246
0.365717
0.370941
0.37585
0.380395
0.384557
0.388343
0.391806
0.395026
0.398139
0.401295
0.404648
0.408347
0.412552
0.417411
0.423113
0.429726
0.211961
0.214002
0.216067
0.218159
0.22028
0.222433
0.224622
0.22685
0.229122
0.231439
0.233807
0.236231
0.238715
0.241263
0.24388
0.24657
0.249342
0.252198
0.255144
0.258188
0.261335
0.264589
0.26796
0.271451
0.27507
0.278823
0.282715
0.286753
0.290938
0.295276
0.299769
0.304416
0.309217
0.314162
0.319243
0.324444
0.329764
0.335239
0.340913
0.346778
0.35279
0.358888
0.365007
0.371076
0.377017
0.382754
0.388219
0.39336
0.398148
0.402585
0.40671
0.410589
0.414346
0.41812
0.422055
0.426297
0.431001
0.43632
0.442439
0.449424
0.217364
0.219459
0.22158
0.223727
0.225904
0.228115
0.230362
0.232649
0.234981
0.23736
0.239792
0.242281
0.244831
0.247448
0.250135
0.252898
0.255745
0.258678
0.261705
0.264832
0.268065
0.27141
0.274875
0.278464
0.282185
0.286046
0.29005
0.294206
0.298516
0.302986
0.307617
0.312412
0.317369
0.322482
0.327743
0.333136
0.338664
0.344366
0.350291
0.356438
0.362762
0.369207
0.375712
0.382206
0.388614
0.394861
0.400877
0.406606
0.412013
0.417093
0.42187
0.426402
0.430797
0.435184
0.439699
0.444482
0.449686
0.455464
0.462004
0.469365
0.222926
0.225078
0.227256
0.229461
0.231697
0.233967
0.236275
0.238624
0.241019
0.243462
0.24596
0.248516
0.251136
0.253823
0.256583
0.259422
0.262347
0.265361
0.268471
0.271685
0.275009
0.278446
0.282009
0.2857
0.289527
0.293499
0.297621
0.301899
0.306338
0.310944
0.315719
0.320667
0.325786
0.331071
0.336516
0.342107
0.347847
0.353781
0.359963
0.366394
0.373034
0.37983
0.386721
0.393641
0.400515
0.407269
0.413831
0.420142
0.426163
0.431877
0.437301
0.44248
0.447507
0.452505
0.457596
0.462919
0.468622
0.474861
0.481821
0.489564
0.228666
0.230876
0.233112
0.235376
0.237672
0.240003
0.242373
0.244785
0.247244
0.249753
0.252318
0.254943
0.257634
0.260395
0.26323
0.266147
0.269152
0.27225
0.275446
0.27875
0.282166
0.285701
0.289365
0.293161
0.297099
0.301186
0.305428
0.309833
0.314406
0.319152
0.324076
0.329181
0.334468
0.339931
0.345565
0.351359
0.357316
0.363486
0.369928
0.376648
0.383607
0.390755
0.398034
0.405379
0.412719
0.419977
0.427081
0.433969
0.440595
0.446938
0.453
0.458818
0.464472
0.470074
0.475739
0.481599
0.4878
0.4945
0.501884
0.510014
0.234562
0.236833
0.23913
0.241457
0.243816
0.24621
0.248645
0.251123
0.253649
0.256228
0.258863
0.26156
0.264325
0.267162
0.270076
0.273073
0.276163
0.279347
0.282632
0.286029
0.289542
0.293177
0.296945
0.300851
0.304902
0.309108
0.313475
0.318011
0.322722
0.327614
0.332691
0.337958
0.343417
0.349062
0.354891
0.360892
0.367071
0.373483
0.380189
0.387201
0.394484
0.401986
0.409655
0.417427
0.42523
0.43299
0.440633
0.448094
0.455321
0.462285
0.468979
0.475432
0.481708
0.48791
0.494145
0.50054
0.507237
0.514397
0.522205
0.530728
0.240636
0.242969
0.245329
0.247719
0.250142
0.252603
0.255104
0.25765
0.260246
0.262895
0.265602
0.268374
0.271216
0.274131
0.277126
0.280206
0.283382
0.286655
0.290033
0.293525
0.297137
0.300876
0.304752
0.30877
0.312938
0.317268
0.321764
0.326435
0.331288
0.33633
0.341565
0.347
0.352635
0.358468
0.364497
0.370709
0.377115
0.383772
0.390747
0.398056
0.405664
0.413524
0.421584
0.429783
0.43805
0.44631
0.454488
0.462516
0.470338
0.477917
0.485235
0.492315
0.499207
0.506004
0.512805
0.519731
0.526924
0.534542
0.542778
0.551697
0.246879
0.249277
0.251702
0.254159
0.256649
0.259177
0.261748
0.264364
0.267031
0.269753
0.272536
0.275384
0.278305
0.281301
0.284379
0.287546
0.29081
0.294176
0.297649
0.30124
0.304955
0.3088
0.312788
0.316922
0.321212
0.325668
0.330296
0.335108
0.340107
0.345303
0.350701
0.356307
0.362125
0.36815
0.374383
0.380812
0.387449
0.394356
0.401605
0.409214
0.417151
0.425373
0.433826
0.442453
0.451183
0.459942
0.468653
0.477245
0.485656
0.493845
0.501782
0.509484
0.516987
0.524374
0.531737
0.539191
0.546876
0.554953
0.563615
0.572937
0.253315
0.255778
0.25827
0.260792
0.26335
0.265947
0.268587
0.271275
0.274015
0.276812
0.279671
0.282597
0.285598
0.288678
0.291841
0.295097
0.298452
0.301913
0.305483
0.309176
0.312998
0.316953
0.321055
0.325309
0.329724
0.334311
0.339076
0.344031
0.349181
0.354536
0.360102
0.365884
0.371887
0.37811
0.384551
0.391202
0.398075
0.405237
0.412764
0.420677
0.428948
0.437532
0.446381
0.455437
0.46463
0.473887
0.483127
0.49228
0.501275
0.510067
0.518615
0.526933
0.53504
0.543012
0.550931
0.558909
0.567083
0.575618
0.584708
0.594438
0.259915
0.262447
0.265008
0.267601
0.27023
0.272899
0.275612
0.278375
0.28119
0.284065
0.287003
0.290011
0.293095
0.296261
0.299513
0.30286
0.30631
0.309868
0.31354
0.317338
0.321268
0.325337
0.329557
0.333934
0.338477
0.343199
0.348105
0.353208
0.358513
0.364031
0.369768
0.375732
0.381927
0.388351
0.395006
0.401883
0.408997
0.416417
0.424227
0.432448
0.441056
0.450007
0.459254
0.46874
0.478398
0.488151
0.49792
0.507629
0.517205
0.526595
0.535749
0.544676
0.553383
0.561935
0.570406
0.578904
0.587564
0.596553
0.606072
0.616214
0.266707
0.269308
0.27194
0.274604
0.277305
0.280048
0.282836
0.285674
0.288568
0.291522
0.294541
0.297633
0.300803
0.304057
0.3074
0.31084
0.314387
0.318045
0.321821
0.325726
0.329769
0.333954
0.338296
0.342799
0.347475
0.352335
0.357386
0.362641
0.368106
0.373791
0.379705
0.385854
0.392244
0.398875
0.405749
0.412857
0.420216
0.427901
0.435996
0.44453
0.453478
0.462799
0.472446
0.482364
0.492486
0.502735
0.51303
0.523293
0.533444
0.543426
0.55318
0.56271
0.57201
0.581135
0.590152
0.599165
0.608307
0.617748
0.627697
0.638255
0.273679
0.276353
0.279058
0.281796
0.284572
0.28739
0.290255
0.293172
0.296145
0.299181
0.302284
0.305461
0.308719
0.312063
0.3155
0.319036
0.322683
0.326444
0.330327
0.334343
0.338501
0.342806
0.347273
0.351907
0.356719
0.361722
0.366922
0.372333
0.377962
0.383819
0.389914
0.396253
0.402845
0.409686
0.416784
0.424128
0.431737
0.439689
0.448076
0.456927
0.46622
0.475913
0.485963
0.496315
0.506902
0.517647
0.528467
0.53928
0.550003
0.560573
0.570922
0.581048
0.590937
0.600629
0.610186
0.619709
0.629329
0.63922
0.649596
0.660574
0.280866
0.283612
0.286389
0.2892
0.292049
0.294942
0.297882
0.300877
0.30393
0.307047
0.310235
0.313499
0.316847
0.320284
0.323816
0.327451
0.3312
0.335068
0.33906
0.343191
0.347468
0.351896
0.356493
0.361261
0.366213
0.371362
0.376716
0.382288
0.388085
0.394119
0.4004
0.406934
0.41373
0.420789
0.428114
0.435698
0.443562
0.451788
0.46047
0.469641
0.479282
0.489352
0.499807
0.510594
0.521647
0.532887
0.544229
0.555591
0.566882
0.578034
0.588972
0.599688
0.610156
0.620408
0.6305
0.640526
0.65062
0.660957
0.671761
0.683162
0.288133
0.290958
0.293817
0.296711
0.299646
0.302625
0.305653
0.308736
0.311879
0.315087
0.318368
0.321726
0.325171
0.328707
0.33234
0.33608
0.339937
0.343915
0.348022
0.352271
0.356671
0.361227
0.365957
0.370864
0.37596
0.381261
0.386772
0.392509
0.398479
0.404695
0.411166
0.4179
0.424906
0.432185
0.439743
0.447573
0.455696
0.464199
0.473181
0.482678
0.49267
0.50312
0.513983
0.525208
0.536727
0.548463
0.560328
0.572235
0.584091
0.595821
0.607342
0.618642
0.629685
0.640492
0.65111
0.661634
0.672195
0.682975
0.694204
0.706031
0.295714
0.298613
0.301545
0.304513
0.307521
0.310576
0.313682
0.316846
0.320071
0.323365
0.326734
0.330184
0.333724
0.337358
0.341092
0.344936
0.348902
0.352994
0.357217
0.361589
0.366116
0.370804
0.37567
0.38072
0.385965
0.391421
0.397095
0.403002
0.409149
0.415551
0.422216
0.429155
0.436376
0.443881
0.451676
0.459756
0.468143
0.476928
0.486214
0.49604
0.506388
0.51722
0.528494
0.540159
0.552146
0.564376
0.576762
0.589213
0.601629
0.613933
0.626031
0.637907
0.649517
0.660869
0.672008
0.683023
0.694046
0.705265
0.716918
0.72917
0.303355
0.306337
0.309354
0.31241
0.315508
0.318654
0.321852
0.325109
0.32843
0.331819
0.335286
0.338836
0.342478
0.346217
0.350059
0.354014
0.358095
0.362304
0.36665
0.371148
0.375805
0.380629
0.385637
0.390834
0.396232
0.401848
0.407688
0.413769
0.420099
0.426691
0.433556
0.440703
0.448144
0.45588
0.463918
0.472252
0.480907
0.489979
0.499573
0.509733
0.52044
0.531659
0.543347
0.555453
0.56791
0.580636
0.593542
0.606534
0.619508
0.632381
0.645051
0.657498
0.669667
0.681559
0.693211
0.704709
0.716187
0.727839
0.739913
0.752592
0.311333
0.314392
0.317485
0.320617
0.323793
0.327018
0.330297
0.333638
0.337045
0.340525
0.344085
0.347732
0.351474
0.355317
0.359266
0.363332
0.367528
0.371857
0.376327
0.380954
0.385746
0.390709
0.395863
0.401211
0.406766
0.412545
0.418557
0.424816
0.431332
0.438119
0.445189
0.45255
0.460215
0.468186
0.476471
0.485065
0.493994
0.503356
0.513263
0.52376
0.534831
0.546439
0.558544
0.571094
0.58402
0.597243
0.610668
0.624199
0.637727
0.651164
0.664399
0.677409
0.69013
0.702553
0.714708
0.726683
0.73861
0.750689
0.763181
0.776285
0.319356
0.322501
0.325685
0.32891
0.332181
0.335503
0.338881
0.342321
0.34583
0.349412
0.353077
0.35683
0.360681
0.364635
0.368698
0.372882
0.3772
0.381653
0.386252
0.391013
0.395943
0.401049
0.406352
0.411855
0.417571
0.423519
0.429705
0.436148
0.442855
0.449842
0.45712
0.4647
0.472595
0.480805
0.489342
0.4982
0.507407
0.517064
0.527289
0.538128
0.549566
0.561568
0.574092
0.587088
0.600487
0.614206
0.62815
0.642218
0.656298
0.670294
0.68409
0.697657
0.710922
0.723867
0.736518
0.74896
0.761327
0.773827
0.786734
0.800264
0.327731
0.330958
0.334224
0.337532
0.340887
0.344294
0.34776
0.351292
0.354894
0.358572
0.362335
0.366191
0.370148
0.374211
0.378387
0.382688
0.387126
0.391706
0.396435
0.401331
0.406403
0.411655
0.41711
0.422772
0.428653
0.434774
0.441139
0.447769
0.454672
0.461863
0.469354
0.477158
0.485286
0.493742
0.502536
0.511662
0.521151
0.531109
0.541655
0.55284
0.564649
0.577048
0.589995
0.603439
0.617311
0.631526
0.645988
0.660591
0.675219
0.68977
0.70412
0.718235
0.732035
0.745494
0.758631
0.771532
0.784332
0.797247
0.810563
0.824517
0.33628
0.339593
0.342946
0.346343
0.349788
0.353287
0.356846
0.360473
0.364172
0.367951
0.371818
0.37578
0.379847
0.384024
0.388318
0.39274
0.397304
0.402014
0.406877
0.411913
0.41713
0.422532
0.428144
0.433968
0.440018
0.446315
0.452864
0.459685
0.466788
0.474188
0.481897
0.489929
0.498296
0.507001
0.516057
0.525457
0.535233
0.545495
0.556368
0.567903
0.580088
0.592887
0.60626
0.620155
0.634502
0.649215
0.664193
0.67933
0.694503
0.709604
0.724502
0.739159
0.753486
0.76745
0.781064
0.794413
0.807636
0.820957
0.834678
0.849058
0.345052
0.348455
0.351898
0.355387
0.358925
0.362519
0.366176
0.369902
0.373702
0.377585
0.381557
0.385628
0.389807
0.394099
0.398511
0.403055
0.407747
0.412588
0.417588
0.422766
0.428131
0.433687
0.439458
0.445448
0.451671
0.458148
0.464885
0.471902
0.479209
0.486822
0.494755
0.503019
0.511629
0.520589
0.529911
0.539589
0.549657
0.560229
0.571431
0.583321
0.595885
0.609088
0.622889
0.637237
0.652061
0.667271
0.682766
0.698434
0.714148
0.729794
0.745235
0.760425
0.775269
0.789726
0.803808
0.817595
0.831233
0.844953
0.859074
0.873875
0.354032
0.357526
0.361062
0.364645
0.368279
0.371971
0.375727
0.379554
0.383458
0.387447
0.39153
0.395713
0.400008
0.40442
0.408956
0.413628
0.418452
0.423429
0.428571
0.433895
0.439411
0.445124
0.451059
0.457219
0.463619
0.47028
0.477209
0.484426
0.491941
0.499773
0.507932
0.516434
0.525292
0.53451
0.544103
0.554065
0.564429
0.575315
0.586853
0.599101
0.612049
0.62566
0.639893
0.654697
0.669998
0.685707
0.701718
0.717916
0.734167
0.750354
0.76633
0.782046
0.797398
0.81234
0.826877
0.841092
0.855133
0.869242
0.883756
0.898981
0.363268
0.366855
0.370485
0.374164
0.377895
0.381686
0.385543
0.389474
0.393485
0.397582
0.401775
0.406073
0.410485
0.415017
0.419677
0.424477
0.429434
0.43455
0.439834
0.445307
0.450977
0.456851
0.462953
0.469287
0.475867
0.482716
0.489841
0.497262
0.504991
0.513044
0.521435
0.530178
0.539289
0.548772
0.55864
0.56889
0.579555
0.590759
0.602636
0.615248
0.628583
0.642605
0.657273
0.672534
0.688315
0.704523
0.721049
0.737774
0.75456
0.771282
0.787786
0.804018
0.819869
0.835284
0.850265
0.864897
0.87933
0.89382
0.908721
0.924365
0.372726
0.376408
0.380136
0.383912
0.387743
0.391636
0.395597
0.399633
0.403752
0.407961
0.412269
0.416684
0.421218
0.425875
0.430664
0.435598
0.440693
0.445951
0.451382
0.457008
0.462836
0.468874
0.475146
0.481657
0.488422
0.495463
0.502787
0.510417
0.518362
0.526642
0.535269
0.544259
0.553628
0.563378
0.573528
0.58407
0.595041
0.606568
0.61879
0.631769
0.645496
0.659933
0.675039
0.690761
0.707023
0.723731
0.740771
0.758022
0.775338
0.79259
0.809616
0.826356
0.842695
0.858572
0.873986
0.889021
0.903834
0.918694
0.933974
0.950038
0.382453
0.386232
0.390058
0.393934
0.397867
0.401863
0.40593
0.410075
0.414304
0.418626
0.423049
0.427583
0.432239
0.437022
0.441941
0.447008
0.452242
0.457644
0.463224
0.469005
0.474994
0.481199
0.487646
0.494337
0.50129
0.508527
0.516055
0.523897
0.532063
0.540574
0.549442
0.558683
0.568313
0.578337
0.588772
0.599611
0.610893
0.622748
0.635318
0.648669
0.662792
0.677648
0.693195
0.709379
0.726124
0.743331
0.760885
0.778658
0.796501
0.814277
0.831817
0.849056
0.865872
0.882199
0.898032
0.913458
0.928639
0.943858
0.959511
0.975991
0.392421
0.396299
0.400225
0.404204
0.40824
0.412342
0.416517
0.420771
0.425113
0.42955
0.434093
0.438749
0.443531
0.448445
0.453498
0.458703
0.464081
0.469631
0.475364
0.481303
0.487457
0.493832
0.500457
0.507333
0.514476
0.521913
0.529649
0.537708
0.546099
0.554845
0.563958
0.573454
0.583351
0.593653
0.604378
0.61552
0.627117
0.639305
0.652229
0.665957
0.680479
0.695758
0.71175
0.7284
0.745628
0.763336
0.781402
0.799696
0.818061
0.836355
0.854403
0.872131
0.889413
0.906178
0.922417
0.93822
0.953755
0.969321
0.985337
1.00223
0.402672
0.406652
0.41068
0.414762
0.418904
0.423113
0.427397
0.431763
0.43622
0.440774
0.445436
0.450216
0.455124
0.460168
0.465355
0.4707
0.476222
0.481921
0.48781
0.49391
0.500231
0.50678
0.513585
0.520649
0.527988
0.535628
0.543576
0.551855
0.560477
0.569461
0.578824
0.588581
0.598749
0.609334
0.620354
0.631803
0.643721
0.656245
0.669527
0.683636
0.698563
0.714268
0.730707
0.747824
0.765538
0.783746
0.802324
0.821134
0.840019
0.858823
0.877371
0.895578
0.913313
0.930503
0.947135
0.9633
0.979176
0.995076
1.01145
1.02875
0.413173
0.417255
0.421388
0.425576
0.429826
0.434145
0.43854
0.443021
0.447594
0.452268
0.457054
0.46196
0.467
0.472179
0.477506
0.482994
0.488665
0.494518
0.500565
0.50683
0.513323
0.520048
0.527038
0.534293
0.541831
0.549679
0.557842
0.566346
0.575202
0.58443
0.594047
0.604069
0.614514
0.625385
0.636706
0.648467
0.66071
0.673577
0.687222
0.701717
0.717052
0.733187
0.750077
0.767664
0.785866
0.804574
0.823662
0.842987
0.862385
0.881693
0.900733
0.91941
0.937588
0.955188
0.972197
0.988708
1.00491
1.02113
1.03785
1.05556
0.423964
0.428151
0.432391
0.436687
0.441046
0.445476
0.449986
0.454583
0.459275
0.464071
0.468981
0.474016
0.479187
0.484502
0.489968
0.495601
0.501422
0.50743
0.513638
0.52007
0.526737
0.533643
0.54082
0.548271
0.556012
0.564071
0.572454
0.581187
0.590281
0.599759
0.609635
0.619926
0.630651
0.641816
0.653441
0.665519
0.678092
0.691307
0.705319
0.720204
0.735952
0.75252
0.769863
0.787923
0.806612
0.82582
0.845418
0.865253
0.88516
0.904965
0.924489
0.943623
0.96223
0.980227
0.997598
1.01444
1.03095
1.04748
1.06453
1.08264
0.435018
0.439313
0.443661
0.448067
0.452538
0.457083
0.461708
0.466424
0.471237
0.476157
0.481195
0.486362
0.491669
0.497124
0.502734
0.508517
0.514492
0.52066
0.527033
0.533636
0.54048
0.54757
0.55494
0.562589
0.570537
0.578811
0.587418
0.596386
0.605723
0.615453
0.625593
0.636158
0.64717
0.658632
0.670567
0.682967
0.695876
0.709442
0.723827
0.739107
0.755271
0.772278
0.790078
0.808611
0.82779
0.847499
0.867603
0.887947
0.908357
0.928651
0.94865
0.968232
0.987255
1.00563
1.02335
1.0405
1.05731
1.07413
1.0915
1.11001
0.446377
0.45078
0.455239
0.459757
0.464341
0.469001
0.473745
0.478581
0.483518
0.488564
0.493731
0.49903
0.504474
0.510069
0.515825
0.521757
0.527888
0.534217
0.540757
0.547535
0.55456
0.561837
0.569402
0.577255
0.585413
0.593908
0.602743
0.611948
0.621533
0.631522
0.64193
0.652774
0.664076
0.675841
0.688091
0.700818
0.714067
0.727991
0.742753
0.758431
0.775016
0.792463
0.810723
0.829732
0.849401
0.86961
0.890219
0.911067
0.931974
0.95275
0.973214
0.993231
1.01266
1.0314
1.04945
1.0669
1.08398