/*--------------------------------*- C++ -*----------------------------------*\
  =========                 |
  \\      /  F ield         | OpenFOAM: The Open Source CFD Toolbox
   \\    /   O peration     | Website:  https://openfoam.org
    \\  /    A nd           | Version:  6.0
     \\/     M anipulation  |
\*---------------------------------------------------------------------------*/
FoamFile
{
    version     2.0;
    format      ascii;
    class       volVectorField;
    location    "1";
    object      U;
}
// * * * * * * * * * * * * * * * * * * * * * * * * * * * * * * * * * * * * * //

dimensions      [0 1 -1 0 0 0 0];

internalField   nonuniform List<vector> 
62000
(
(0.965338 0.261801 -1.55543e-20)
(0.965293 0.261851 1.30996e-20)
(0.965246 0.261854 1.399e-20)
(0.965197 0.261857 -6.30754e-20)
(0.965145 0.261861 -7.50112e-20)
(0.965092 0.261865 2.62717e-19)
(0.965037 0.261871 -2.97644e-19)
(0.964981 0.261879 1.77201e-19)
(0.964923 0.261887 -8.65091e-20)
(0.964865 0.261896 -4.5706e-19)
(0.964806 0.261907 -6.70955e-20)
(0.964747 0.261919 6.71133e-19)
(0.964688 0.261933 1.44067e-19)
(0.96463 0.261947 -5.12675e-19)
(0.964573 0.261962 8.28465e-19)
(0.964519 0.261978 -4.49631e-19)
(0.964468 0.261995 4.8764e-19)
(0.96442 0.262011 -5.8225e-19)
(0.964377 0.262027 3.01604e-19)
(0.964339 0.262042 -9.53589e-19)
(0.964308 0.262055 1.2784e-18)
(0.964285 0.262066 4.01841e-19)
(0.96427 0.262072 5.97029e-19)
(0.964264 0.262072 -2.7149e-18)
(0.96427 0.262065 1.0174e-18)
(0.964287 0.262048 -6.62766e-19)
(0.964317 0.26202 -2.11898e-20)
(0.96436 0.261976 -5.72096e-19)
(0.964418 0.261913 1.7822e-18)
(0.964491 0.261828 -1.02527e-18)
(0.964579 0.261715 2.52191e-18)
(0.964682 0.26157 -5.33728e-18)
(0.964799 0.261385 5.11141e-19)
(0.964928 0.261153 -1.89715e-18)
(0.965067 0.260869 -6.28878e-19)
(0.96521 0.260528 -2.01796e-18)
(0.965352 0.260124 -6.11546e-19)
(0.965488 0.259649 -6.06663e-19)
(0.9656 0.259119 1.95993e-18)
(0.965678 0.258537 8.7822e-18)
(0.965711 0.257905 -2.03618e-18)
(0.965687 0.25723 -1.15103e-17)
(0.965598 0.256525 -1.74184e-17)
(0.965432 0.255804 8.98511e-18)
(0.965185 0.255089 2.4507e-18)
(0.964858 0.254398 -1.1082e-17)
(0.964459 0.253751 2.33216e-18)
(0.964007 0.253162 -3.84518e-18)
(0.963529 0.252635 -1.57815e-17)
(0.963056 0.25216 -3.08416e-18)
(0.962624 0.251716 -1.32249e-18)
(0.962262 0.251263 -1.61783e-17)
(0.961994 0.25075 2.00776e-18)
(0.961836 0.250121 1.35572e-17)
(0.961803 0.249303 3.0908e-18)
(0.961912 0.248216 9.31256e-18)
(0.962191 0.246726 -8.795e-19)
(0.962708 0.244636 -1.17064e-18)
(0.963577 0.241496 2.60618e-18)
(0.964764 0.236208 2.99682e-19)
(0.965372 0.261795 -4.31901e-21)
(0.965331 0.261844 4.23995e-20)
(0.965288 0.261845 1.85739e-20)
(0.965242 0.261847 -7.90172e-20)
(0.965195 0.261848 3.37827e-20)
(0.965146 0.26185 -2.41784e-19)
(0.965095 0.261853 2.25251e-19)
(0.965042 0.261857 1.36047e-19)
(0.964988 0.26186 -2.60166e-19)
(0.964933 0.261865 1.01397e-20)
(0.964876 0.261871 2.68402e-19)
(0.964819 0.261877 2.68223e-21)
(0.964761 0.261883 8.47128e-20)
(0.964703 0.26189 -7.26213e-19)
(0.964646 0.261898 1.50599e-18)
(0.96459 0.261906 -1.36383e-18)
(0.964536 0.261914 6.61469e-19)
(0.964485 0.261921 -1.4191e-19)
(0.964436 0.261928 -4.03135e-19)
(0.964392 0.261934 1.16097e-18)
(0.964353 0.261938 -1.87754e-18)
(0.964319 0.261939 1.12199e-18)
(0.964293 0.261936 -1.48338e-18)
(0.964274 0.261927 8.97394e-19)
(0.964264 0.261912 8.64799e-19)
(0.964263 0.261887 -5.87825e-19)
(0.964274 0.261851 -9.53792e-21)
(0.964296 0.261801 6.83069e-19)
(0.96433 0.261734 5.9726e-19)
(0.964377 0.261645 -1.26537e-18)
(0.964438 0.261532 2.63579e-18)
(0.964511 0.261388 5.56795e-19)
(0.964596 0.261207 1.79041e-18)
(0.964692 0.260983 1.28253e-19)
(0.964797 0.260711 5.29215e-19)
(0.964905 0.260387 -6.14151e-19)
(0.965015 0.260004 -1.89311e-18)
(0.965127 0.259559 -9.57359e-19)
(0.965223 0.259062 -5.14927e-18)
(0.965288 0.258517 -5.7627e-18)
(0.965314 0.257924 4.4495e-18)
(0.965291 0.257289 2.54302e-18)
(0.96521 0.256623 1.82572e-17)
(0.965061 0.255938 1.02436e-18)
(0.96484 0.255252 -2.53131e-17)
(0.964547 0.254581 9.30729e-18)
(0.964188 0.253944 6.79613e-18)
(0.963779 0.253352 7.62531e-18)
(0.963343 0.252809 8.8594e-19)
(0.962907 0.252308 1.05612e-19)
(0.962504 0.251828 8.91211e-18)
(0.962161 0.251335 2.06861e-17)
(0.961904 0.25078 -1.19304e-17)
(0.961751 0.250111 -2.69756e-17)
(0.961717 0.249257 -6.00249e-18)
(0.961823 0.248135 -2.08255e-18)
(0.962098 0.246613 -8.40917e-18)
(0.962606 0.244487 -3.19428e-18)
(0.963452 0.241311 5.80007e-18)
(0.964386 0.236033 1.76021e-18)
(0.965393 0.261782 -2.17595e-20)
(0.965353 0.261831 -3.41664e-21)
(0.965312 0.261831 3.25748e-21)
(0.965268 0.261831 1.64058e-20)
(0.965223 0.261832 4.83005e-20)
(0.965176 0.261833 -4.65924e-20)
(0.965127 0.261834 2.58701e-19)
(0.965076 0.261835 -1.24e-19)
(0.965023 0.261836 -6.84296e-20)
(0.964969 0.261838 -4.42947e-19)
(0.964914 0.26184 3.80605e-19)
(0.964857 0.261842 2.93024e-20)
(0.9648 0.261844 -9.2926e-20)
(0.964742 0.261846 2.5452e-19)
(0.964685 0.261849 -4.48475e-19)
(0.964628 0.261851 7.57614e-22)
(0.964571 0.261852 -2.2149e-19)
(0.964516 0.261853 -7.77326e-22)
(0.964464 0.261853 5.37565e-19)
(0.964414 0.26185 -8.47947e-19)
(0.964368 0.261846 5.4192e-19)
(0.964326 0.261839 2.19474e-18)
(0.964289 0.261828 -2.7492e-19)
(0.964259 0.261811 -3.22555e-18)
(0.964236 0.261788 1.69913e-18)
(0.964221 0.261756 -9.65044e-19)
(0.964215 0.261714 1.60952e-18)
(0.964218 0.261658 -9.94956e-19)
(0.964232 0.261585 -2.04378e-18)
(0.964257 0.261494 2.25863e-18)
(0.964292 0.261379 -1.63033e-18)
(0.964339 0.261235 2.23536e-18)
(0.964397 0.261058 -6.38363e-18)
(0.964464 0.26084 5.82057e-18)
(0.964538 0.260577 -3.17928e-18)
(0.964615 0.260267 1.33556e-18)
(0.964698 0.259904 1.0418e-18)
(0.964788 0.259483 -4.18091e-20)
(0.964869 0.259016 -2.30274e-19)
(0.964922 0.258503 6.0631e-18)
(0.964941 0.257944 -2.27691e-18)
(0.964916 0.257344 3.4367e-18)
(0.964839 0.256711 -1.18342e-17)
(0.964703 0.256057 -5.54496e-18)
(0.964502 0.255396 5.2832e-18)
(0.964235 0.254742 -1.86467e-17)
(0.963909 0.254112 2.12735e-18)
(0.963536 0.253516 -1.34123e-17)
(0.963135 0.252957 1.71117e-17)
(0.962732 0.252429 3.82491e-18)
(0.962355 0.251914 2.4254e-18)
(0.962031 0.251381 2.08402e-19)
(0.961787 0.250785 6.38739e-18)
(0.961638 0.250074 -2.49648e-18)
(0.961607 0.249181 -1.25776e-17)
(0.961712 0.248019 -4.60545e-18)
(0.961986 0.24646 -6.69649e-18)
(0.962488 0.244289 -1.33022e-17)
(0.96332 0.241068 1.32176e-18)
(0.964069 0.235775 1.69092e-18)
(0.965405 0.261771 -2.24415e-20)
(0.965367 0.261818 6.9988e-20)
(0.965326 0.261818 -1.04563e-20)
(0.965283 0.261818 -7.53115e-20)
(0.965239 0.261818 1.16358e-19)
(0.965192 0.261817 2.07122e-19)
(0.965144 0.261817 -2.72596e-19)
(0.965093 0.261817 3.06208e-20)
(0.965041 0.261816 1.00641e-19)
(0.964988 0.261816 2.15557e-19)
(0.964933 0.261815 -4.0227e-19)
(0.964876 0.261815 -1.28948e-19)
(0.964819 0.261814 -1.48694e-19)
(0.96476 0.261813 6.85426e-19)
(0.964702 0.261811 -4.6827e-19)
(0.964643 0.261809 1.12714e-18)
(0.964584 0.261805 -1.39673e-18)
(0.964526 0.261801 -2.15385e-19)
(0.96447 0.261795 1.5548e-18)
(0.964415 0.261786 -5.51978e-19)
(0.964363 0.261776 -2.09379e-19)
(0.964314 0.261762 -2.29883e-19)
(0.964269 0.261744 -2.15315e-18)
(0.964229 0.26172 1.25435e-18)
(0.964194 0.26169 -5.95957e-19)
(0.964166 0.261652 9.6783e-19)
(0.964145 0.261603 4.69691e-19)
(0.964132 0.261541 2.37027e-18)
(0.964127 0.261465 -1.51837e-18)
(0.964132 0.261369 -2.0356e-18)
(0.964146 0.261253 3.30463e-18)
(0.96417 0.261109 -2.76651e-18)
(0.964202 0.260934 5.23765e-18)
(0.964243 0.260721 -3.25318e-18)
(0.96429 0.260467 1.40527e-18)
(0.96434 0.260168 2.44301e-18)
(0.964396 0.259821 -1.05651e-18)
(0.964467 0.259421 1.25527e-18)
(0.964534 0.258979 -6.72161e-19)
(0.964577 0.258494 1.8517e-18)
(0.964588 0.257965 -5.15493e-18)
(0.964561 0.257395 1.3675e-18)
(0.964488 0.256792 2.82329e-18)
(0.964361 0.256165 6.78652e-18)
(0.964177 0.255526 8.10368e-18)
(0.963934 0.254888 1.28765e-18)
(0.963636 0.254264 1.14959e-17)
(0.963294 0.253664 1.14929e-17)
(0.962926 0.253091 1.27966e-17)
(0.962553 0.25254 -8.48452e-18)
(0.962201 0.251994 -9.49743e-18)
(0.961897 0.251425 6.48791e-18)
(0.961665 0.25079 8.28609e-18)
(0.961523 0.25004 1.41916e-17)
(0.961495 0.249108 7.58658e-18)
(0.9616 0.247908 1.57924e-17)
(0.961872 0.24631 2.44407e-17)
(0.96237 0.244096 -4.65186e-18)
(0.963193 0.24083 -1.17104e-17)
(0.963798 0.235517 -8.28332e-18)
(0.965413 0.261762 4.47113e-20)
(0.965374 0.261809 -1.4775e-20)
(0.965334 0.261808 2.642e-20)
(0.965291 0.261807 -3.70444e-20)
(0.965246 0.261806 8.65681e-20)
(0.9652 0.261805 -4.25526e-20)
(0.965151 0.261804 2.47236e-20)
(0.965101 0.261802 -3.64522e-19)
(0.965048 0.261801 3.10111e-19)
(0.964994 0.261799 -6.39386e-19)
(0.964939 0.261797 7.1442e-19)
(0.964881 0.261794 -8.81284e-20)
(0.964823 0.261791 -2.00985e-19)
(0.964763 0.261787 -9.49884e-20)
(0.964703 0.261782 -2.25449e-20)
(0.964641 0.261777 -1.00268e-18)
(0.96458 0.26177 3.51157e-20)
(0.964519 0.261761 1.13018e-18)
(0.964459 0.261751 -3.79105e-19)
(0.964399 0.261738 -4.11934e-19)
(0.964341 0.261722 6.97439e-19)
(0.964286 0.261703 -3.60516e-19)
(0.964233 0.261679 1.54186e-18)
(0.964184 0.261649 8.78241e-19)
(0.964139 0.261613 6.92189e-19)
(0.964099 0.261569 -2.15018e-18)
(0.964065 0.261515 -3.10825e-19)
(0.964038 0.261448 -1.78015e-18)
(0.964017 0.261367 3.3435e-19)
(0.964004 0.261269 -6.26482e-19)
(0.963999 0.26115 -2.56806e-19)
(0.964001 0.261006 2.06795e-18)
(0.964011 0.260833 -5.29345e-18)
(0.964029 0.260624 -2.60535e-19)
(0.964051 0.260376 -2.81558e-18)
(0.964076 0.260087 -1.39892e-18)
(0.964109 0.259753 3.29189e-19)
(0.964163 0.259372 -4.51222e-18)
(0.964217 0.258951 6.74412e-18)
(0.96425 0.258491 1.17264e-18)
(0.964254 0.257987 7.08525e-18)
(0.964224 0.257444 -5.01807e-18)
(0.964153 0.256866 -3.33379e-18)
(0.964035 0.256263 -1.0755e-18)
(0.963865 0.255643 6.1598e-18)
(0.963641 0.255019 8.33e-18)
(0.963368 0.254402 2.27141e-18)
(0.963055 0.253799 3.42808e-18)
(0.962715 0.253213 -3.59556e-18)
(0.96237 0.252641 2.20203e-17)
(0.962042 0.252066 5.16121e-18)
(0.961756 0.251463 -4.11325e-18)
(0.961537 0.250792 3.05286e-18)
(0.961403 0.250004 1.39184e-17)
(0.961379 0.249035 -1.7793e-18)
(0.961484 0.247797 -1.18445e-17)
(0.961757 0.246161 -2.98876e-17)
(0.962252 0.243904 2.55423e-17)
(0.963069 0.240593 -1.62067e-17)
(0.963564 0.235256 1.13486e-17)
(0.965416 0.261758 -1.74478e-20)
(0.965377 0.261805 7.17175e-20)
(0.965336 0.261804 -1.20372e-19)
(0.965293 0.261803 9.15583e-20)
(0.965248 0.261801 6.15239e-20)
(0.965201 0.261799 -6.5452e-20)
(0.965151 0.261797 5.83326e-21)
(0.9651 0.261795 -5.18998e-20)
(0.965047 0.261792 -1.79683e-19)
(0.964992 0.261789 3.50262e-19)
(0.964935 0.261786 -5.57614e-19)
(0.964876 0.261781 4.9661e-19)
(0.964816 0.261776 4.52472e-19)
(0.964754 0.26177 -7.10814e-19)
(0.964692 0.261763 -2.40904e-19)
(0.964628 0.261755 9.14547e-19)
(0.964563 0.261745 -1.13406e-18)
(0.964499 0.261733 1.60566e-18)
(0.964434 0.261719 -3.05277e-19)
(0.96437 0.261702 1.8841e-19)
(0.964307 0.261682 -2.94749e-19)
(0.964245 0.261658 -3.82464e-19)
(0.964185 0.261629 -7.30783e-19)
(0.964128 0.261595 1.29841e-18)
(0.964074 0.261554 -9.06813e-19)
(0.964024 0.261505 -9.1398e-19)
(0.963978 0.261446 1.91314e-18)
(0.963937 0.261375 -1.89192e-18)
(0.963902 0.26129 3.04829e-18)
(0.963873 0.261189 -1.66122e-18)
(0.96385 0.261068 1.29116e-18)
(0.963834 0.260923 -2.25407e-18)
(0.963824 0.260751 2.45455e-18)
(0.96382 0.260545 -2.27017e-19)
(0.96382 0.260302 -1.31587e-19)
(0.963822 0.260022 -7.55716e-20)
(0.963835 0.259699 -1.47496e-18)
(0.963873 0.259333 4.00431e-18)
(0.963916 0.258932 -3.00621e-18)
(0.963938 0.258491 -1.69607e-17)
(0.963936 0.25801 -6.95726e-18)
(0.963903 0.25749 4.7188e-18)
(0.963834 0.256935 -5.26962e-18)
(0.963721 0.256352 -5.32916e-18)
(0.963563 0.25575 -4.20088e-19)
(0.963357 0.255138 1.25695e-17)
(0.963106 0.254526 -1.72175e-17)
(0.962817 0.25392 -1.62073e-17)
(0.962503 0.253323 -9.46519e-18)
(0.962183 0.252732 -1.53591e-17)
(0.961878 0.252131 1.0125e-17)
(0.96161 0.251496 -3.15967e-18)
(0.961403 0.250791 -2.59445e-17)
(0.961278 0.249968 5.94696e-18)
(0.961259 0.248963 6.19438e-18)
(0.961366 0.247687 -1.32402e-17)
(0.961639 0.246013 6.97448e-18)
(0.962133 0.243714 9.60051e-18)
(0.962948 0.240359 2.5847e-17)
(0.963357 0.234992 6.61823e-19)
(0.965414 0.26176 2.11044e-20)
(0.965375 0.261807 -9.68368e-20)
(0.965333 0.261806 4.74921e-20)
(0.96529 0.261804 9.17545e-20)
(0.965244 0.261802 -2.01015e-19)
(0.965196 0.261799 1.71414e-19)
(0.965145 0.261797 -1.17379e-19)
(0.965093 0.261794 1.01289e-19)
(0.965038 0.26179 1.66939e-19)
(0.964982 0.261786 -4.07813e-19)
(0.964923 0.261781 6.02875e-19)
(0.964863 0.261776 2.65996e-19)
(0.9648 0.261769 -1.06428e-18)
(0.964736 0.261761 -2.09585e-19)
(0.964671 0.261752 5.89709e-19)
(0.964604 0.261742 3.92594e-19)
(0.964537 0.261729 -4.83477e-19)
(0.964468 0.261715 4.35729e-19)
(0.9644 0.261698 6.96247e-19)
(0.964331 0.261678 -3.34909e-19)
(0.964262 0.261654 -1.96719e-19)
(0.964194 0.261627 7.37765e-19)
(0.964127 0.261594 1.5564e-18)
(0.964063 0.261556 -1.1259e-18)
(0.964 0.26151 -1.28944e-18)
(0.96394 0.261457 1.46281e-18)
(0.963883 0.261394 -1.1455e-18)
(0.96383 0.261319 -4.82437e-19)
(0.963782 0.261231 4.05133e-18)
(0.963738 0.261126 -1.81777e-18)
(0.9637 0.261003 -1.42754e-18)
(0.963667 0.260858 1.89559e-18)
(0.963638 0.260686 1.34635e-18)
(0.963615 0.260482 -1.25049e-18)
(0.963596 0.260244 -8.60167e-19)
(0.963577 0.25997 2.8047e-18)
(0.96357 0.259657 5.90367e-19)
(0.963594 0.259304 9.58548e-19)
(0.963627 0.258919 -4.994e-18)
(0.963641 0.258496 -4.85243e-18)
(0.963632 0.258034 9.02578e-18)
(0.963596 0.257534 6.99844e-18)
(0.963527 0.256999 1.12932e-17)
(0.96342 0.256434 -1.03463e-17)
(0.963271 0.255847 -1.10969e-17)
(0.96308 0.255246 -6.74851e-18)
(0.962847 0.254637 1.58345e-17)
(0.96258 0.254029 1.4848e-17)
(0.96229 0.253422 -1.53272e-17)
(0.961993 0.252812 -2.19182e-17)
(0.961708 0.252187 -2.74393e-18)
(0.961457 0.251523 4.14659e-18)
(0.961264 0.250786 -6.87956e-20)
(0.961148 0.249928 -9.15819e-18)
(0.961134 0.248888 8.48172e-18)
(0.961244 0.247576 4.20561e-18)
(0.961519 0.245864 5.93799e-18)
(0.962013 0.243522 -2.87891e-17)
(0.96283 0.240123 -1.28562e-18)
(0.963172 0.234721 1.42366e-18)
(0.96541 0.261768 -3.64344e-20)
(0.965369 0.261815 -3.00672e-20)
(0.965327 0.261813 4.0418e-20)
(0.965282 0.261811 1.48332e-19)
(0.965235 0.261809 -3.25608e-19)
(0.965186 0.261806 3.79901e-19)
(0.965134 0.261803 -1.57739e-20)
(0.96508 0.261799 -2.33323e-20)
(0.965024 0.261794 -1.4414e-19)
(0.964966 0.261789 3.60821e-19)
(0.964905 0.261784 -5.65186e-19)
(0.964842 0.261777 2.16648e-19)
(0.964778 0.26177 -7.81704e-21)
(0.964711 0.26176 3.5757e-19)
(0.964643 0.26175 1.76667e-19)
(0.964573 0.261737 -9.45441e-19)
(0.964502 0.261723 8.37711e-19)
(0.964429 0.261706 3.40379e-19)
(0.964356 0.261687 -9.90314e-19)
(0.964283 0.261664 4.95365e-19)
(0.964209 0.261637 2.37798e-19)
(0.964135 0.261606 -1.53212e-19)
(0.964062 0.26157 2.11272e-19)
(0.963989 0.261529 -1.1387e-19)
(0.963918 0.26148 -1.43196e-18)
(0.963849 0.261422 9.60686e-19)
(0.963783 0.261356 -1.495e-18)
(0.963719 0.261277 2.81982e-18)
(0.963658 0.261186 -5.25208e-19)
(0.963602 0.261079 -3.274e-19)
(0.963549 0.260954 -8.809e-20)
(0.9635 0.260808 3.1933e-18)
(0.963455 0.260636 -1.32026e-18)
(0.963414 0.260434 -8.44469e-19)
(0.963377 0.260199 2.16272e-18)
(0.963339 0.259931 1.89399e-18)
(0.963315 0.259625 -3.21374e-18)
(0.963326 0.259284 5.77353e-19)
(0.963349 0.258912 6.02406e-18)
(0.963355 0.258505 -6.16323e-19)
(0.963341 0.25806 3.77399e-18)
(0.963301 0.257577 -5.27333e-18)
(0.963232 0.257059 7.88256e-18)
(0.963129 0.25651 1.64295e-17)
(0.962988 0.255936 4.43396e-18)
(0.962809 0.255343 -6.1762e-18)
(0.962593 0.254738 -1.79866e-17)
(0.962345 0.254127 3.64701e-18)
(0.962076 0.25351 4.70118e-18)
(0.9618 0.252884 8.73756e-18)
(0.961535 0.252236 -3.15097e-19)
(0.9613 0.251545 -1.68378e-17)
(0.96112 0.250776 1.40599e-17)
(0.961013 0.249885 -9.25912e-18)
(0.961005 0.248811 1.89999e-17)
(0.961119 0.247463 4.15689e-18)
(0.961396 0.245713 1.95815e-17)
(0.961892 0.24333 2.56312e-17)
(0.962713 0.239887 4.77516e-18)
(0.963004 0.234444 6.87199e-18)
(0.965402 0.261782 -1.81062e-20)
(0.965361 0.261828 1.56923e-20)
(0.965318 0.261826 8.11749e-20)
(0.965272 0.261824 1.31809e-19)
(0.965223 0.261821 -3.93044e-19)
(0.965172 0.261818 2.30085e-19)
(0.965119 0.261814 -4.22817e-19)
(0.965063 0.26181 6.72353e-19)
(0.965005 0.261805 -3.2029e-19)
(0.964945 0.261799 5.80341e-20)
(0.964882 0.261793 6.50542e-19)
(0.964817 0.261785 -1.50418e-18)
(0.964749 0.261777 1.04366e-18)
(0.96468 0.261766 1.53012e-19)
(0.964609 0.261754 2.53109e-19)
(0.964535 0.26174 -1.05945e-18)
(0.96446 0.261724 5.30792e-19)
(0.964384 0.261705 -6.72751e-19)
(0.964306 0.261684 1.35823e-18)
(0.964228 0.261658 -1.77387e-19)
(0.964148 0.26163 -1.7872e-18)
(0.964069 0.261596 7.16255e-19)
(0.963989 0.261557 -4.16993e-20)
(0.96391 0.261512 -2.76759e-18)
(0.963831 0.26146 2.08298e-18)
(0.963753 0.2614 1.60132e-18)
(0.963677 0.26133 1.12048e-18)
(0.963603 0.261248 -1.44837e-18)
(0.963532 0.261155 -1.62672e-18)
(0.963463 0.261045 7.65628e-19)
(0.963396 0.260919 1.174e-18)
(0.963333 0.260771 -1.45175e-18)
(0.963274 0.260599 -2.21671e-18)
(0.963217 0.260398 4.62721e-18)
(0.963162 0.260166 4.98753e-19)
(0.963107 0.259902 -7.25128e-18)
(0.963067 0.259603 6.09457e-19)
(0.963067 0.259271 4.89304e-18)
(0.963082 0.258911 4.60799e-19)
(0.96308 0.258517 6.23245e-18)
(0.96306 0.258086 -8.46465e-18)
(0.963017 0.257618 -5.30438e-19)
(0.962947 0.257115 -5.2548e-18)
(0.962847 0.256579 2.01258e-18)
(0.962713 0.256016 8.17517e-18)
(0.962544 0.255431 2.44411e-17)
(0.962342 0.254829 3.19352e-18)
(0.962112 0.254215 -1.44632e-17)
(0.961861 0.253589 1.07232e-17)
(0.961604 0.252947 3.59726e-17)
(0.961357 0.252277 -2.78096e-17)
(0.961138 0.25156 3.19668e-17)
(0.960971 0.250762 -1.87659e-17)
(0.960873 0.249839 -1.05796e-17)
(0.960871 0.24873 -3.91759e-17)
(0.96099 0.247347 -2.16902e-18)
(0.961271 0.245559 -1.21318e-17)
(0.961771 0.243135 -1.35878e-17)
(0.962598 0.239647 1.09017e-17)
(0.96285 0.234159 2.47816e-18)
(0.965393 0.261802 2.57624e-20)
(0.965351 0.261849 9.43203e-21)
(0.965306 0.261847 -9.65149e-20)
(0.965259 0.261844 9.34756e-20)
(0.965209 0.261841 -4.21509e-20)
(0.965156 0.261837 7.73737e-20)
(0.965101 0.261833 2.77668e-20)
(0.965043 0.261828 -4.01518e-19)
(0.964983 0.261823 1.75538e-19)
(0.96492 0.261816 -1.24728e-19)
(0.964855 0.261809 7.45778e-20)
(0.964787 0.261801 3.01703e-19)
(0.964716 0.261791 -5.75482e-20)
(0.964644 0.26178 1.92948e-19)
(0.964569 0.261766 -8.28961e-19)
(0.964492 0.261751 3.21964e-19)
(0.964413 0.261733 1.43149e-19)
(0.964333 0.261713 -4.07616e-19)
(0.964251 0.261689 8.18406e-19)
(0.964167 0.261662 2.76313e-19)
(0.964082 0.261631 -2.9664e-20)
(0.963997 0.261595 -3.13115e-19)
(0.963911 0.261553 1.26323e-18)
(0.963825 0.261506 -3.53406e-18)
(0.963739 0.261451 1.86385e-18)
(0.963653 0.261388 8.08987e-19)
(0.963568 0.261315 -1.36488e-18)
(0.963484 0.261231 2.4612e-18)
(0.963402 0.261135 -1.19957e-18)
(0.963322 0.261022 -6.42942e-19)
(0.963243 0.260895 -1.26708e-18)
(0.963167 0.260746 -5.33542e-19)
(0.963093 0.260574 1.46963e-18)
(0.963022 0.260374 -4.53321e-18)
(0.962952 0.260143 8.71254e-18)
(0.962881 0.259882 -6.08211e-19)
(0.962826 0.259589 4.61565e-18)
(0.962815 0.259265 -1.16848e-17)
(0.962822 0.258915 -3.59713e-18)
(0.962814 0.258533 6.92298e-20)
(0.962788 0.258114 -2.61931e-18)
(0.962742 0.257659 -3.73363e-19)
(0.962671 0.257168 -9.11766e-18)
(0.962573 0.256643 3.03951e-18)
(0.962444 0.25609 4.2174e-18)
(0.962285 0.255511 -2.27262e-17)
(0.962095 0.254911 2.83428e-17)
(0.961879 0.254293 4.03852e-18)
(0.961646 0.253658 1.31445e-18)
(0.961406 0.253001 -2.49669e-17)
(0.961176 0.252311 8.32527e-18)
(0.960972 0.251569 -1.70078e-17)
(0.960817 0.250742 3.28917e-17)
(0.960729 0.249788 6.38233e-18)
(0.960734 0.248647 -2.76935e-17)
(0.960858 0.247229 1.02166e-17)
(0.961144 0.245404 -2.9e-17)
(0.961648 0.242939 -6.45617e-18)
(0.962485 0.239404 -3.98494e-17)
(0.962706 0.233867 -8.3568e-18)
(0.965382 0.261827 -5.83653e-21)
(0.965338 0.261875 -2.33571e-20)
(0.965292 0.261873 -2.09368e-20)
(0.965243 0.26187 2.02402e-19)
(0.965191 0.261866 -1.13247e-19)
(0.965137 0.261862 -1.40029e-19)
(0.96508 0.261858 -5.46123e-20)
(0.96502 0.261853 -2.26127e-19)
(0.964957 0.261846 1.39687e-19)
(0.964892 0.26184 1.87592e-20)
(0.964824 0.261832 5.71935e-21)
(0.964753 0.261823 6.46182e-19)
(0.96468 0.261812 -4.6489e-19)
(0.964604 0.261799 -5.92977e-20)
(0.964526 0.261785 5.56098e-19)
(0.964445 0.261769 -3.10507e-19)
(0.964362 0.261749 -1.23632e-19)
(0.964277 0.261727 1.99365e-19)
(0.96419 0.261702 6.61597e-19)
(0.964102 0.261673 3.75644e-19)
(0.964012 0.26164 1.46623e-19)
(0.963921 0.261602 -9.5848e-19)
(0.963828 0.261558 4.99079e-19)
(0.963736 0.261509 9.71486e-19)
(0.963642 0.261451 -2.04433e-18)
(0.963549 0.261385 6.71483e-19)
(0.963455 0.26131 -2.69039e-18)
(0.963362 0.261223 2.22301e-18)
(0.96327 0.261125 1.9867e-18)
(0.963179 0.26101 -3.08862e-18)
(0.963089 0.260881 -1.51631e-18)
(0.963001 0.260731 2.02932e-18)
(0.962914 0.260558 6.93335e-19)
(0.962829 0.260358 -1.9287e-18)
(0.962745 0.260129 -2.50607e-18)
(0.962659 0.259871 -3.03517e-18)
(0.962591 0.259582 1.89548e-18)
(0.96257 0.259265 4.5145e-18)
(0.96257 0.258923 1.57424e-18)
(0.962556 0.258551 -1.37745e-18)
(0.962525 0.258142 1.49775e-17)
(0.962475 0.257698 -1.57868e-18)
(0.962403 0.257218 1.51157e-17)
(0.962306 0.256703 -2.67009e-17)
(0.962182 0.256157 4.22498e-18)
(0.96203 0.255583 7.30585e-19)
(0.961851 0.254984 -1.2762e-18)
(0.961649 0.254363 -1.91144e-17)
(0.96143 0.253719 -2.98098e-17)
(0.961206 0.253048 2.60201e-17)
(0.960991 0.252338 3.32575e-17)
(0.960802 0.251572 1.71896e-17)
(0.960658 0.250718 -3.21984e-17)
(0.96058 0.249734 1.69571e-17)
(0.960593 0.24856 4.0592e-17)
(0.960723 0.247108 1.72037e-17)
(0.961014 0.245245 2.82671e-17)
(0.961524 0.242739 1.40039e-17)
(0.962372 0.239157 3.90553e-17)
(0.962569 0.233567 -2.66409e-17)
(0.965368 0.261859 7.67976e-21)
(0.965323 0.261907 -2.33422e-20)
(0.965275 0.261905 8.49682e-20)
(0.965224 0.261902 2.32728e-20)
(0.965171 0.261898 -1.20385e-19)
(0.965115 0.261894 -1.42517e-19)
(0.965055 0.261889 3.41089e-19)
(0.964993 0.261884 -3.79504e-19)
(0.964929 0.261877 -9.71491e-20)
(0.964861 0.261869 2.41176e-19)
(0.96479 0.261861 2.29367e-19)
(0.964716 0.261851 7.13295e-19)
(0.964639 0.261839 -4.00906e-19)
(0.96456 0.261826 -7.09369e-19)
(0.964478 0.261811 1.58128e-19)
(0.964394 0.261793 -6.02644e-19)
(0.964307 0.261773 4.56284e-19)
(0.964218 0.261749 -7.89765e-19)
(0.964126 0.261723 1.24356e-19)
(0.964032 0.261692 -2.72332e-19)
(0.963937 0.261657 -1.77578e-19)
(0.96384 0.261617 -7.60363e-19)
(0.963742 0.261571 6.27559e-20)
(0.963642 0.261519 1.67958e-18)
(0.963542 0.261459 -5.87094e-19)
(0.963441 0.261391 1.82299e-19)
(0.963339 0.261314 5.46142e-19)
(0.963238 0.261224 -7.3639e-19)
(0.963136 0.261124 -1.61041e-19)
(0.963035 0.261007 1.07312e-18)
(0.962935 0.260876 1.19746e-18)
(0.962835 0.260725 -8.99549e-19)
(0.962736 0.260552 -2.93813e-18)
(0.962638 0.260352 -4.26766e-18)
(0.96254 0.260123 6.61745e-18)
(0.962441 0.259868 1.84544e-18)
(0.96236 0.259582 1.18648e-18)
(0.962331 0.25927 5.92122e-18)
(0.962325 0.258936 -5.28366e-18)
(0.962304 0.258571 3.25602e-18)
(0.962269 0.258171 1.15554e-19)
(0.962215 0.257736 1.89355e-19)
(0.962142 0.257265 -5.52727e-18)
(0.962045 0.256758 1.24741e-17)
(0.961925 0.256218 -1.62091e-17)
(0.961779 0.255648 9.51723e-18)
(0.961609 0.25505 -2.62854e-17)
(0.961419 0.254424 6.85536e-18)
(0.961214 0.253772 1.57664e-17)
(0.961005 0.253087 -2.64176e-17)
(0.960804 0.252359 -5.88051e-18)
(0.960628 0.251569 -9.95728e-19)
(0.960496 0.250689 -6.31327e-18)
(0.960427 0.249675 -1.84086e-17)
(0.960448 0.24847 1.09988e-18)
(0.960586 0.246984 1.75619e-17)
(0.960883 0.245084 -1.75769e-17)
(0.9614 0.242536 -4.66391e-18)
(0.96226 0.238907 -4.94365e-18)
(0.96244 0.233259 2.0341e-17)
(0.965354 0.261897 1.45533e-20)
(0.965307 0.261945 -1.23484e-20)
(0.965257 0.261942 1.17099e-20)
(0.965205 0.261939 7.61876e-20)
(0.965149 0.261935 1.13392e-19)
(0.965091 0.26193 -4.44881e-19)
(0.96503 0.261925 3.26933e-19)
(0.964965 0.261919 7.06904e-20)
(0.964898 0.261912 -1.99915e-20)
(0.964827 0.261904 -1.55499e-19)
(0.964753 0.261895 4.89394e-19)
(0.964676 0.261884 -1.57943e-19)
(0.964596 0.261872 -2.2572e-19)
(0.964514 0.261858 -6.93564e-19)
(0.964428 0.261842 1.40871e-18)
(0.96434 0.261823 -2.91953e-19)
(0.964248 0.261802 -2.49807e-19)
(0.964155 0.261777 -7.64797e-19)
(0.964058 0.261749 8.55168e-19)
(0.96396 0.261717 4.8496e-19)
(0.963859 0.26168 -2.22941e-19)
(0.963757 0.261639 3.94721e-19)
(0.963652 0.26159 -1.69645e-18)
(0.963546 0.261537 1.13965e-19)
(0.963439 0.261475 9.62252e-19)
(0.96333 0.261405 -1.84156e-19)
(0.963221 0.261325 -3.06288e-18)
(0.963111 0.261234 2.68207e-19)
(0.963001 0.261131 2.79036e-18)
(0.96289 0.261013 -7.60153e-19)
(0.962779 0.26088 -1.48101e-18)
(0.962669 0.260727 8.84556e-19)
(0.962559 0.260553 2.61929e-18)
(0.962449 0.260353 6.27282e-18)
(0.962339 0.260124 -9.78838e-19)
(0.962227 0.25987 1.38224e-18)
(0.962134 0.259587 -1.02497e-17)
(0.962096 0.259279 -2.90372e-18)
(0.962084 0.258951 1.82727e-18)
(0.962059 0.258594 -7.49216e-18)
(0.962019 0.258201 -1.56483e-18)
(0.961962 0.257774 3.40091e-18)
(0.961886 0.257309 2.82041e-18)
(0.96179 0.256809 7.53056e-18)
(0.961673 0.256274 2.42099e-17)
(0.961532 0.255707 -1.88198e-17)
(0.96137 0.255108 2.9502e-17)
(0.96119 0.254478 2.16906e-17)
(0.960997 0.253817 -1.15652e-19)
(0.960801 0.253119 2.68063e-17)
(0.960614 0.252372 -3.50432e-17)
(0.960451 0.251561 -4.08266e-17)
(0.96033 0.250655 3.09452e-17)
(0.960271 0.249613 2.60545e-17)
(0.9603 0.248377 -1.09824e-17)
(0.960445 0.246856 -5.92591e-17)
(0.960749 0.24492 1.35038e-17)
(0.961274 0.24233 -1.43341e-17)
(0.962148 0.238652 -2.01423e-17)
(0.962314 0.232943 1.76111e-17)
(0.965338 0.26194 -1.59358e-20)
(0.96529 0.261989 1.75837e-20)
(0.965238 0.261986 1.22954e-19)
(0.965184 0.261983 -1.62213e-19)
(0.965126 0.261979 3.01758e-19)
(0.965066 0.261974 -4.49427e-19)
(0.965002 0.261968 1.28342e-19)
(0.964935 0.261962 -6.99065e-21)
(0.964865 0.261954 2.98464e-19)
(0.964791 0.261945 -1.58783e-19)
(0.964715 0.261936 4.87175e-20)
(0.964634 0.261925 5.11441e-20)
(0.964551 0.261912 -7.99894e-19)
(0.964465 0.261897 2.39131e-19)
(0.964375 0.26188 5.70597e-19)
(0.964283 0.26186 1.91523e-20)
(0.964187 0.261838 -9.86826e-19)
(0.964089 0.261812 4.05409e-19)
(0.963988 0.261782 1.93693e-18)
(0.963884 0.261748 -1.27467e-18)
(0.963778 0.26171 -9.87168e-19)
(0.96367 0.261667 8.44757e-19)
(0.963559 0.261617 5.53842e-19)
(0.963447 0.261562 6.23732e-19)
(0.963333 0.261498 -1.21312e-18)
(0.963218 0.261425 -2.66375e-18)
(0.963101 0.261344 2.02007e-18)
(0.962983 0.26125 2.92898e-18)
(0.962864 0.261146 8.32781e-19)
(0.962744 0.261025 -1.62929e-18)
(0.962623 0.260891 7.6048e-19)
(0.962503 0.260736 1.30172e-18)
(0.962382 0.260561 -2.23682e-18)
(0.96226 0.26036 -3.40895e-19)
(0.962139 0.260132 -4.12962e-18)
(0.962015 0.259879 -1.12835e-18)
(0.961911 0.259597 -1.1124e-18)
(0.961866 0.259293 2.91012e-18)
(0.961849 0.25897 -4.01109e-18)
(0.961818 0.258618 1.13051e-18)
(0.961773 0.258231 1.87941e-18)
(0.961713 0.25781 4.89742e-19)
(0.961636 0.257352 -1.1332e-17)
(0.96154 0.256857 -1.55832e-17)
(0.961424 0.256326 -1.3396e-17)
(0.961288 0.25576 2.6336e-17)
(0.961133 0.25516 8.62343e-19)
(0.960962 0.254526 -1.01923e-17)
(0.96078 0.253855 5.30444e-18)
(0.960596 0.253144 -3.20411e-17)
(0.960421 0.25238 1.50761e-17)
(0.96027 0.251547 4.08176e-17)
(0.96016 0.250616 -2.15033e-18)
(0.960112 0.249545 -3.44308e-17)
(0.960149 0.248279 1.58667e-17)
(0.960302 0.246725 1.46741e-17)
(0.960613 0.244752 1.83157e-17)
(0.961148 0.242121 4.06519e-17)
(0.962036 0.238393 3.75639e-17)
(0.962192 0.232619 -4.04445e-17)
(0.965321 0.261988 -1.37126e-20)
(0.965271 0.262038 2.00099e-20)
(0.965218 0.262035 4.36065e-21)
(0.965161 0.262031 7.92799e-20)
(0.965102 0.262027 -1.21248e-19)
(0.965039 0.262022 -2.54833e-19)
(0.964972 0.262017 9.01026e-20)
(0.964903 0.26201 -1.26894e-19)
(0.96483 0.262001 2.74669e-19)
(0.964754 0.261992 -5.69216e-20)
(0.964674 0.261982 -1.90321e-19)
(0.96459 0.261971 1.5784e-19)
(0.964503 0.261957 2.62646e-19)
(0.964413 0.261941 7.39044e-19)
(0.96432 0.261923 -1.35468e-18)
(0.964223 0.261903 7.01702e-19)
(0.964123 0.261879 1.09393e-19)
(0.964021 0.261852 -7.11142e-19)
(0.963915 0.261821 -4.51877e-19)
(0.963806 0.261786 1.49642e-18)
(0.963695 0.261746 -1.58746e-18)
(0.963581 0.261701 4.78556e-19)
(0.963464 0.261649 -1.31082e-18)
(0.963346 0.261593 2.21166e-18)
(0.963225 0.261527 -4.53595e-19)
(0.963103 0.261452 -1.28544e-18)
(0.962978 0.261369 1.04194e-18)
(0.962852 0.261273 1.97111e-18)
(0.962725 0.261167 -1.87088e-18)
(0.962597 0.261044 1.15466e-18)
(0.962467 0.260908 -3.95966e-18)
(0.962337 0.260752 -4.37761e-19)
(0.962205 0.260576 1.73063e-18)
(0.962073 0.260374 -1.03936e-18)
(0.961941 0.260145 -2.16901e-18)
(0.961805 0.259893 -5.20293e-18)
(0.961691 0.259612 6.66871e-18)
(0.961639 0.259311 -2.66461e-18)
(0.961617 0.258992 1.97748e-18)
(0.961582 0.258644 4.04492e-18)
(0.961533 0.258262 3.2087e-18)
(0.961469 0.257846 -1.90743e-18)
(0.96139 0.257392 6.6201e-18)
(0.961294 0.256901 1.22773e-17)
(0.96118 0.256373 -1.23677e-18)
(0.961047 0.255807 -1.60093e-17)
(0.960898 0.255205 -2.10376e-17)
(0.960735 0.254566 -1.54574e-18)
(0.960563 0.253887 1.54401e-17)
(0.96039 0.253162 -3.13359e-18)
(0.960226 0.252381 2.71365e-17)
(0.960087 0.251527 -4.06322e-17)
(0.959988 0.250571 -2.12288e-17)
(0.959949 0.249474 -9.11878e-18)
(0.959995 0.248177 -1.79189e-17)
(0.960156 0.246591 1.11783e-17)
(0.960476 0.244581 -1.40647e-17)
(0.96102 0.241907 -5.48156e-17)
(0.961924 0.238129 -5.96296e-17)
(0.962071 0.232287 2.21187e-17)
(0.965302 0.262042 -2.09826e-20)
(0.96525 0.262092 1.69776e-20)
(0.965195 0.26209 1.37374e-20)
(0.965137 0.262086 -1.00013e-19)
(0.965075 0.262082 1.04132e-19)
(0.96501 0.262077 -5.25118e-20)
(0.964941 0.262071 1.73533e-19)
(0.964869 0.262063 -2.61888e-19)
(0.964793 0.262054 1.40548e-20)
(0.964714 0.262045 2.00476e-20)
(0.964631 0.262034 -2.05129e-19)