/*--------------------------------*- C++ -*----------------------------------*\
  =========                 |
  \\      /  F ield         | OpenFOAM: The Open Source CFD Toolbox
   \\    /   O peration     | Website:  https://openfoam.org
    \\  /    A nd           | Version:  6.0
     \\/     M anipulation  |
\*---------------------------------------------------------------------------*/
FoamFile
{
    version     2.0;
    format      ascii;
    class       surfaceScalarField;
    location    "1.74";
    object      phi;
}
// * * * * * * * * * * * * * * * * * * * * * * * * * * * * * * * * * * * * * //

dimensions      [0 3 -1 0 0 0 0];

internalField   nonuniform List<scalar> 
26699
(
2.0051e-05
0.005201
3.9532e-10
4.0126e-05
0.0051116
5.9639e-05
0.0049351
7.8186e-05
0.0046741
9.5416e-05
0.0043332
0.00011102
0.0039182
0.00012472
0.0034362
0.00013626
0.0028953
0.00014546
0.002305
0.00015182
0.0016755
0.00015718
0.0010154
0.00046489
3.45e-05
2.0051e-05
0.0051809
1.2658e-09
4.0127e-05
0.0050916
5.9641e-05
0.0049155
7.8189e-05
0.0046556
9.5419e-05
0.004316
0.00011102
0.0039026
0.00012471
0.0034225
0.00013624
0.0028838
0.00014544
0.0022958
0.00015107
0.0016699
0.00015895
0.0010075
0.0005586
6.5237e-05
2.0052e-05
0.0051609
2.2128e-09
4.0128e-05
0.0050715
5.9643e-05
0.004896
7.8192e-05
0.004637
9.5422e-05
0.0042988
0.00011102
0.003887
0.00012471
0.0034088
0.00013622
0.0028723
0.00014545
0.0022865
0.00015032
0.001665
0.00016025
0.00099759
0.00062835
9.0495e-05
2.0052e-05
0.0051408
3.1664e-09
4.013e-05
0.0050514
5.9646e-05
0.0048765
7.8195e-05
0.0046185
9.5424e-05
0.0042815
0.00011102
0.0038714
0.0001247
0.0033951
0.00013619
0.0028608
0.00014549
0.0022772
0.00014958
0.0016609
0.00016101
0.00098616
0.00067858
0.00011078
2.0052e-05
0.0051208
4.1213e-09
4.0131e-05
0.0050313
5.9648e-05
0.004857
7.8198e-05
0.0045999
9.5427e-05
0.0042643
0.00011102
0.0038558
0.0001247
0.0033814
0.00013616
0.0028494
0.00014555
0.0022678
0.0001489
0.0016576
0.00016126
0.0009738
0.00071295
0.00012689
2.0052e-05
0.0051007
5.0772e-09
4.0133e-05
0.0050112
5.965e-05
0.0048375
7.8201e-05
0.0045814
9.543e-05
0.0042471
0.00011103
0.0038402
0.0001247
0.0033678
0.00013614
0.0028379
0.00014563
0.0022583
0.00014829
0.0016549
0.00016107
0.00096102
0.00073452
0.0001395
2.0052e-05
0.0050807
6.0339e-09
4.0134e-05
0.0049912
5.9653e-05
0.004818
7.8204e-05
0.0045628
9.5433e-05
0.0042299
0.00011103
0.0038246
0.0001247
0.0033541
0.0001361
0.0028265
0.00014573
0.0022487
0.00014777
0.0016529
0.00016052
0.00094827
0.00074586
0.00014918
2.0053e-05
0.0050606
6.9915e-09
4.0135e-05
0.0049711
5.9655e-05
0.0047984
7.8207e-05
0.0045443
9.5436e-05
0.0042126
0.00011103
0.003809
0.0001247
0.0033404
0.00013607
0.0028151
0.00014583
0.002239
0.00014734
0.0016514
0.00015971
0.00093591
0.00074914
0.00015643
2.0053e-05
0.0050405
7.95e-09
4.0137e-05
0.004951
5.9657e-05
0.0047789
7.821e-05
0.0045257
9.5439e-05
0.0041954
0.00011103
0.0037934
0.0001247
0.0033268
0.00013603
0.0028038
0.00014595
0.002229
0.00014703
0.0016503
0.00015873
0.00092421
0.00074618
0.00016168
2.0053e-05
0.0050205
8.9093e-09
4.0138e-05
0.0049309
5.966e-05
0.0047594
7.8213e-05
0.0045072
9.5442e-05
0.0041782
0.00011103
0.0037778
0.0001247
0.0033131
0.00013599
0.0027925
0.00014606
0.002219
0.00014682
0.0016495
0.00015765
0.00091338
0.00073851
0.00016532
2.0053e-05
0.0050004
9.8696e-09
4.0139e-05
0.0049108
5.9662e-05
0.0047399
7.8216e-05
0.0044886
9.5445e-05
0.0041609
0.00011104
0.0037623
0.0001247
0.0032994
0.00013595
0.0027813
0.00014617
0.0022087
0.00014672
0.001649
0.00015653
0.00090357
0.00072736
0.00016768
2.0054e-05
0.0049804
1.0831e-08
4.0141e-05
0.0048907
5.9664e-05
0.0047204
7.8219e-05
0.00447
9.5448e-05
0.0041437
0.00011104
0.0037467
0.00012471
0.0032857
0.0001359
0.0027701
0.00014628
0.0021984
0.00014672
0.0016485
0.00015544
0.00089485
0.00071377
0.00016903
2.0054e-05
0.0049603
1.1793e-08
4.0142e-05
0.0048707
5.9667e-05
0.0047008
7.8222e-05
0.0044515
9.5451e-05
0.0041265
0.00011104
0.0037311
0.00012471
0.0032721
0.00013586
0.0027589
0.00014637
0.0021879
0.0001468
0.0016481
0.0001544
0.00088725
0.00069856
0.00016961
2.0054e-05
0.0049402
1.2756e-08
4.0144e-05
0.0048506
5.9669e-05
0.0046813
7.8226e-05
0.0044329
9.5455e-05
0.0041092
0.00011104
0.0037155
0.00012472
0.0032584
0.00013581
0.0027478
0.00014645
0.0021772
0.00014697
0.0016476
0.00015346
0.00088076
0.0006824
0.00016962
2.0054e-05
0.0049202
1.3721e-08
4.0145e-05
0.0048305
5.9671e-05
0.0046618
7.8229e-05
0.0044144
9.5458e-05
0.004092
0.00011104
0.0036999
0.00012472
0.0032447
0.00013576
0.0027368
0.00014652
0.0021664
0.00014721
0.0016469
0.00015263
0.00087535
0.00066581
0.00016921
2.0054e-05
0.0049001
1.4687e-08
4.0146e-05
0.0048104
5.9674e-05
0.0046423
7.8232e-05
0.0043958
9.5461e-05
0.0040748
0.00011104
0.0036843
0.00012473
0.003231
0.00013572
0.0027258
0.00014658
0.0021556
0.0001475
0.001646
0.00015191
0.00087094
0.00064922
0.00016851
2.0055e-05
0.00488
1.5654e-08
4.0148e-05
0.0047903
5.9676e-05
0.0046227
7.8235e-05
0.0043773
9.5465e-05
0.0040576
0.00011105
0.0036687
0.00012474
0.0032173
0.00013567
0.0027149
0.00014661
0.0021446
0.00014784
0.0016447
0.00015133
0.00086744
0.00063292
0.00016763
2.0055e-05
0.0048599
1.6622e-08
4.0149e-05
0.0047702
5.9678e-05
0.0046032
7.8238e-05
0.0043587
9.5468e-05
0.0040403
0.00011105
0.0036532
0.00012475
0.0032036
0.00013563
0.002704
0.00014663
0.0021336
0.00014821
0.0016432
0.00015088
0.00086478
0.00061715
0.00016665
2.0055e-05
0.0048399
1.7592e-08
4.015e-05
0.0047501
5.9681e-05
0.0045837
7.8241e-05
0.0043401
9.5471e-05
0.0040231
0.00011105
0.0036376
0.00012476
0.0031899
0.00013559
0.0026932
0.00014663
0.0021226
0.0001486
0.0016412
0.00015054
0.00086283
0.00060206
0.00016563
2.0055e-05
0.0048198
1.8563e-08
4.0152e-05
0.00473
5.9683e-05
0.0045641
7.8245e-05
0.0043216
9.5475e-05
0.0040059
0.00011105
0.003622
0.00012477
0.0031762
0.00013555
0.0026824
0.00014662
0.0021115
0.000149
0.0016388
0.00015033
0.0008615
0.00058777
0.00016463
2.0055e-05
0.0047997
1.9536e-08
4.0153e-05
0.0047099
5.9685e-05
0.0045446
7.8248e-05
0.004303
9.5479e-05
0.0039886
0.00011105
0.0036064
0.00012479
0.0031625
0.00013552
0.0026717
0.00014659
0.0021005
0.0001494
0.001636
0.00015022
0.00086068
0.00057432
0.00016367
2.0056e-05
0.0047796
2.051e-08
4.0154e-05
0.0046898
5.9688e-05
0.0045251
7.8251e-05
0.0042845
9.5482e-05
0.0039714
0.00011106
0.0035909
0.0001248
0.0031487
0.00013549
0.002661
0.00014654
0.0020894
0.00014979
0.0016328
0.0001502
0.00086026
0.00056174
0.00016277
2.0056e-05
0.0047596
2.1486e-08
4.0156e-05
0.0046697
5.969e-05
0.0045055
7.8254e-05
0.0042659
9.5486e-05
0.0039542
0.00011106
0.0035753
0.00012481
0.003135
0.00013546
0.0026503
0.00014648
0.0020784
0.00015016
0.0016291
0.00015026
0.00086017
0.00055003
0.00016197
2.0056e-05
0.0047395
2.2464e-08
4.0157e-05
0.0046496
5.9693e-05
0.004486
7.8258e-05
0.0042473
9.549e-05
0.0039369
0.00011106
0.0035597
0.00012483
0.0031212
0.00013544
0.0026397
0.00014641
0.0020674
0.00015052
0.001625
0.00015039
0.0008603
0.00053917
0.00016126
2.0056e-05
0.0047194
2.3443e-08
4.0159e-05
0.0046295
5.9695e-05
0.0044665
7.8261e-05
0.0042288
9.5494e-05
0.0039197
0.00011106
0.0035441
0.00012484
0.0031074
0.00013543
0.0026291
0.00014633
0.0020565
0.00015086
0.0016204
0.00015058
0.00086058
0.00052911
0.00016064
2.0056e-05
0.0046993
2.4425e-08
4.016e-05
0.0046094
5.9697e-05
0.0044469
7.8264e-05
0.0042102
9.5498e-05
0.0039025
0.00011106
0.0035286
0.00012485
0.0030936
0.00013542
0.0026186
0.00014624
0.0020457
0.00015116
0.0016155
0.00015081
0.00086093
0.0005198
0.00016012
2.0057e-05
0.0046792
2.5408e-08
4.0161e-05
0.0045893
5.97e-05
0.0044274
7.8267e-05
0.0041916
9.5502e-05
0.0038852
0.00011106
0.003513
0.00012487
0.0030798
0.00013541
0.002608
0.00014614
0.002035
0.00015144
0.0016102
0.00015107
0.0008613
0.00051119
0.00015968
2.0057e-05
0.0046592
2.6393e-08
4.0163e-05
0.0045692
5.9702e-05
0.0044078
7.8271e-05
0.0041731
9.5506e-05
0.003868
0.00011107
0.0034975
0.00012488
0.003066
0.00013541
0.0025975
0.00014604
0.0020244
0.00015169
0.0016046
0.00015135
0.00086163
0.00050321
0.00015933
2.0057e-05
0.0046391
2.7381e-08
4.0164e-05
0.0045491
5.9705e-05
0.0043883
7.8274e-05
0.0041545
9.551e-05
0.0038508
0.00011107
0.0034819
0.0001249
0.0030522
0.00013542
0.002587
0.00014593
0.0020138
0.00015191
0.0015986
0.00015165
0.00086189
0.00049581
0.00015905
2.0057e-05
0.004619
2.837e-08
4.0166e-05
0.004529
5.9707e-05
0.0043688
7.8278e-05
0.0041359
9.5515e-05
0.0038335
0.00011107
0.0034663
0.00012491
0.0030383
0.00013543
0.0025765
0.00014583
0.0020034
0.00015209
0.0015923
0.00015196
0.00086203
0.00048892
0.00015885
2.0057e-05
0.0045989
2.9362e-08
4.0167e-05
0.0045089
5.971e-05
0.0043492
7.8281e-05
0.0041173
9.5519e-05
0.0038163
0.00011107
0.0034508
0.00012492
0.0030245
0.00013544
0.0025659
0.00014573
0.0019932
0.00015226
0.0015858
0.00015226
0.00086202
0.00048249
0.0001587
2.0058e-05
0.0045788
3.0355e-08
4.0168e-05
0.0044888
5.9712e-05
0.0043297
7.8284e-05
0.0040988
9.5524e-05
0.0037991
0.00011107
0.0034352
0.00012494
0.0030106
0.00013546
0.0025554
0.00014562
0.001983
0.00015239
0.001579
0.00015256
0.00086185
0.00047645
0.00015859
2.0058e-05
0.0045587
3.1351e-08
4.017e-05
0.0044686
5.9715e-05
0.0043101
7.8288e-05
0.0040802
9.5528e-05
0.0037818
0.00011107
0.0034197
0.00012495
0.0029967
0.00013549
0.0025449
0.00014553
0.001973
0.0001525
0.001572
0.00015285
0.00086151
0.00047077
0.00015854
2.0058e-05
0.0045386
3.235e-08
4.0171e-05
0.0044485
5.9717e-05
0.0042906
7.8291e-05
0.0040616
9.5533e-05
0.0037646
0.00011107
0.0034042
0.00012496
0.0029828
0.00013551
0.0025343
0.00014544
0.001963
0.00015259
0.0015649
0.00015313
0.00086097
0.00046539
0.00015851
2.0058e-05
0.0045185
3.3351e-08
4.0173e-05
0.0044284
5.972e-05
0.004271
7.8295e-05
0.004043
9.5538e-05
0.0037473
0.00011108
0.0033886
0.00012497
0.002969
0.00013554
0.0025238
0.00014535
0.0019532
0.00015266
0.0015576
0.00015339
0.00086024
0.00046027
0.00015851
2.0058e-05
0.0044985
3.4355e-08
4.0174e-05
0.0044083
5.9722e-05
0.0042515
7.8298e-05
0.0040245
9.5543e-05
0.0037301
0.00011108
0.0033731
0.00012499
0.002955
0.00013558
0.0025132
0.00014527
0.0019435
0.00015272
0.0015501
0.00015364
0.00085931
0.00045537
0.00015854
2.0059e-05
0.0044784
3.5361e-08
4.0175e-05
0.0043882
5.9725e-05
0.0042319
7.8302e-05
0.0040059
9.5548e-05
0.0037128
0.00011108
0.0033576
0.000125
0.0029411
0.00013561
0.0025026
0.0001452
0.001934
0.00015276
0.0015426
0.00015388
0.00085819
0.00045067
0.00015858
2.0059e-05
0.0044583
3.637e-08
4.0177e-05
0.0043681
5.9727e-05
0.0042124
7.8305e-05
0.0039873
9.5553e-05
0.0036956
0.00011108
0.003342
0.00012501
0.0029272
0.00013565
0.0024919
0.00014513
0.0019245
0.00015279
0.0015349
0.0001541
0.00085689
0.00044613
0.00015864
2.0059e-05
0.0044382
3.7381e-08
4.0178e-05
0.0043479
5.973e-05
0.0041928
7.8309e-05
0.0039687
9.5559e-05
0.0036783
0.00011108
0.0033265
0.00012502
0.0029133
0.00013569
0.0024812
0.00014507
0.0019151
0.00015281
0.0015272
0.0001543
0.0008554
0.00044173
0.0001587
2.0059e-05
0.0044181
3.8396e-08
4.018e-05
0.0043278
5.9733e-05
0.0041733
7.8312e-05
0.0039502
9.5564e-05
0.0036611
0.00011109
0.003311
0.00012502
0.0028993
0.00013573
0.0024705
0.00014502
0.0019058
0.00015282
0.0015194
0.00015449
0.00085373
0.00043745
0.00015877
2.006e-05
0.004398
3.9413e-08
4.0181e-05
0.0043077
5.9735e-05
0.0041537
7.8316e-05
0.0039316
9.557e-05
0.0036438
0.00011109
0.0032955
0.00012503
0.0028854
0.00013577
0.0024598
0.00014498
0.0018966
0.00015283
0.0015115
0.00015466
0.0008519
0.00043327
0.00015884
2.006e-05
0.0043779
4.0434e-08
4.0182e-05
0.0042876
5.9738e-05
0.0041342
7.8319e-05
0.003913
9.5576e-05
0.0036266
0.00011109
0.0032799
0.00012504
0.0028714
0.00013581
0.002449
0.00014494
0.0018875
0.00015284
0.0015036
0.00015482
0.00084992
0.00042917
0.00015892
2.006e-05
0.0043578
4.1457e-08
4.0184e-05
0.0042675
5.9741e-05
0.0041146
7.8323e-05
0.0038944
9.5582e-05
0.0036093
0.00011109
0.0032644
0.00012505
0.0028575
0.00013585
0.0024382
0.00014492
0.0018784
0.00015284
0.0014957
0.00015497
0.00084778
0.00042516
0.00015899
2.006e-05
0.0043377
4.2484e-08
4.0185e-05
0.0042473
5.9743e-05
0.0040951
7.8327e-05
0.0038758
9.5588e-05
0.0035921
0.00011109
0.0032489
0.00012506
0.0028435
0.00013589
0.0024274
0.0001449
0.0018694
0.00015284
0.0014877
0.00015511
0.00084551
0.0004212
0.00015907
2.006e-05
0.0043176
4.3514e-08
4.0187e-05
0.0042272
5.9746e-05
0.0040755
7.833e-05
0.0038572
9.5595e-05
0.0035748
0.0001111
0.0032334
0.00012506
0.0028296
0.00013594
0.0024165
0.00014488
0.0018604
0.00015284
0.0014798
0.00015524
0.00084311
0.00041731
0.00015914
2.0061e-05
0.0042975
4.4547e-08
4.0188e-05
0.0042071
5.9749e-05
0.0040559
7.8334e-05
0.0038387
9.5601e-05
0.0035575
0.0001111
0.0032179
0.00012507
0.0028156
0.00013598
0.0024056
0.00014487
0.0018515
0.00015285
0.0014718
0.00015537
0.00084059
0.00041346
0.00015921
2.0061e-05
0.0042774
4.5584e-08
4.019e-05
0.0041869
5.9752e-05
0.0040364
7.8337e-05
0.0038201
9.5608e-05
0.0035403
0.0001111
0.0032024
0.00012508
0.0028016
0.00013602
0.0023947
0.00014487
0.0018427
0.00015285
0.0014638
0.00015548
0.00083796
0.00040967
0.00015928
2.0061e-05
0.0042572
4.6625e-08
4.0191e-05
0.0041668
5.9755e-05
0.0040168
7.8341e-05
0.0038015
9.5615e-05
0.003523
0.00011111
0.0031869
0.00012508
0.0027876
0.00013606
0.0023837
0.00014487
0.0018339
0.00015286
0.0014558
0.00015559
0.00083523
0.00040591
0.00015935
2.0061e-05
0.0042371
4.7669e-08
4.0193e-05
0.0041467
5.9758e-05
0.0039973
7.8345e-05
0.0037829
9.5622e-05
0.0035057
0.00011111
0.0031715
0.00012509
0.0027737
0.0001361
0.0023727
0.00014488
0.0018251
0.00015287
0.0014478
0.00015569
0.0008324
0.00040219
0.00015941
2.0062e-05
0.004217
4.8717e-08
4.0194e-05
0.0041266
5.976e-05
0.0039777
7.8348e-05
0.0037643
9.5629e-05
0.0034884
0.00011111
0.003156
0.00012509
0.0027597
0.00013615
0.0023616
0.00014489
0.0018164
0.00015288
0.0014399
0.00015579
0.00082949
0.00039851
0.00015947
2.0062e-05
0.0041969
4.9768e-08
4.0196e-05
0.0041064
5.9763e-05
0.0039581
7.8352e-05
0.0037457
9.5636e-05
0.0034711
0.00011112
0.0031405
0.0001251
0.0027457
0.00013619
0.0023505
0.00014491
0.0018076
0.00015289
0.0014319
0.00015589
0.00082649
0.00039487
0.00015953
2.0062e-05
0.0041768
5.0824e-08
4.0197e-05
0.0040863
5.9766e-05
0.0039386
7.8356e-05
0.0037271
9.5644e-05
0.0034539
0.00011112
0.003125
0.0001251
0.0027317
0.00013623
0.0023394
0.00014493
0.0017989
0.00015291
0.0014239
0.00015598
0.00082342
0.00039126
0.00015959
2.0062e-05
0.0041567
5.1883e-08
4.0199e-05
0.0040661
5.977e-05
0.003919
7.8359e-05
0.0037085
9.5652e-05
0.0034366
0.00011113
0.0031095
0.00012511
0.0027177
0.00013627
0.0023283
0.00014495
0.0017903
0.00015292
0.0014159
0.00015607
0.00082027
0.00038768
0.00015964
2.0063e-05
0.0041366
5.2947e-08
4.02e-05
0.004046
5.9773e-05
0.0038994
7.8363e-05
0.00369
9.5659e-05
0.0034193
0.00011113
0.0030941
0.00012511
0.0027037
0.00013631
0.0023171
0.00014497
0.0017816
0.00015294
0.0014079
0.00015615
0.00081707
0.00038414
0.0001597
2.0063e-05
0.0041165
5.4015e-08
4.0202e-05
0.0040259
5.9776e-05
0.0038798
7.8367e-05
0.0036714
9.5667e-05
0.003402
0.00011114
0.0030786
0.00012512
0.0026898
0.00013634
0.0023058
0.000145
0.0017729
0.00015297
0.0014
0.00015624
0.0008138
0.00038063
0.00015975
2.0063e-05
0.0040963
5.5087e-08
4.0203e-05
0.0040057
5.9779e-05
0.0038603
7.837e-05
0.0036528
9.5675e-05
0.0033847
0.00011114
0.0030631
0.00012512
0.0026758
0.00013638
0.0022946
0.00014503
0.0017643
0.00015299
0.001392
0.00015632
0.00081047
0.00037715
0.0001598
2.0064e-05
0.0040762
5.6164e-08
4.0205e-05
0.0039856
5.9782e-05
0.0038407
7.8374e-05
0.0036342
9.5684e-05
0.0033673
0.00011115
0.0030477
0.00012513
0.0026618
0.00013642
0.0022833
0.00014506
0.0017557
0.00015301
0.0013841
0.0001564
0.00080709
0.0003737
0.00015984
2.0064e-05
0.0040561
5.7245e-08
4.0206e-05
0.0039654
5.9786e-05
0.0038211
7.8378e-05
0.0036156
9.5692e-05
0.00335
0.00011115
0.0030322
0.00012513
0.0026478
0.00013646
0.002272
0.00014509
0.001747
0.00015304
0.0013761
0.00015647
0.00080366
0.00037028
0.00015989
2.0064e-05
0.004036
5.8331e-08
4.0208e-05
0.0039453
5.9789e-05
0.0038015
7.8381e-05
0.003597
9.57e-05
0.0033327
0.00011116
0.0030167
0.00012514
0.0026339
0.0001365
0.0022606
0.00014513
0.0017384
0.00015307
0.0013682
0.00015655
0.00080018
0.00036689
0.00015993
2.0064e-05
0.0040158
5.9421e-08
4.021e-05
0.0039252
5.9792e-05
0.0037819
7.8385e-05
0.0035784
9.5709e-05
0.0033154
0.00011117
0.0030013
0.00012514
0.0026199
0.00013653
0.0022492
0.00014516
0.0017298
0.0001531
0.0013602
0.00015662
0.00079665
0.00036354
0.00015998
2.0065e-05
0.0039957
6.0517e-08
4.0211e-05
0.003905
5.9796e-05
0.0037624
7.8389e-05
0.0035598
9.5718e-05
0.0032981
0.00011118
0.0029858
0.00012515
0.0026059
0.00013657
0.0022378
0.0001452
0.0017211
0.00015312
0.0013523
0.00015669
0.00079308
0.00036021
0.00016002
2.0065e-05
0.0039756
6.1617e-08
4.0213e-05
0.0038849
5.9799e-05
0.0037428
7.8393e-05
0.0035412
9.5726e-05
0.0032807
0.00011119
0.0029704
0.00012515
0.0025919
0.00013661
0.0022263
0.00014523
0.0017125
0.00015315
0.0013444
0.00015676
0.00078947
0.00035691
0.00016006
2.0065e-05
0.0039555
6.2723e-08
4.0214e-05
0.0038647
5.9803e-05
0.0037232
7.8396e-05
0.0035226
9.5735e-05
0.0032634
0.0001112
0.0029549
0.00012516
0.002578
0.00013664
0.0022148
0.00014527
0.0017039
0.00015318
0.0013365
0.00015683
0.00078582
0.00035365
0.0001601
2.0066e-05
0.0039353
6.3833e-08
4.0216e-05
0.0038446
5.9806e-05
0.0037036
7.84e-05
0.003504
9.5744e-05
0.003246
0.00011121
0.0029394
0.00012516
0.002564
0.00013668
0.0022033
0.00014531
0.0016953
0.00015321
0.0013286
0.0001569
0.00078214
0.00035041
0.00016014
2.0066e-05
0.0039152
6.4949e-08
4.0218e-05
0.0038244
5.981e-05
0.003684
7.8404e-05
0.0034854
9.5753e-05
0.0032287
0.00011122
0.002924
0.00012517
0.0025501
0.00013671
0.0021918
0.00014534
0.0016866
0.00015324
0.0013207
0.00015697
0.00077842
0.0003472
0.00016018
2.0066e-05
0.0038951
6.6071e-08
4.0219e-05
0.0038043
5.9814e-05
0.0036644
7.8408e-05
0.0034668
9.5762e-05
0.0032113
0.00011123
0.0029085
0.00012518
0.0025361
0.00013675
0.0021802
0.00014538
0.001678
0.00015327
0.0013128
0.00015703
0.00077466
0.00034402
0.00016021
2.0067e-05
0.0038749
6.7197e-08
4.0221e-05
0.0037841
5.9818e-05
0.0036448
7.8412e-05
0.0034483
9.5771e-05
0.003194
0.00011124
0.002893
0.00012519
0.0025222
0.00013678
0.0021686
0.00014542
0.0016693
0.0001533
0.0013049
0.00015709
0.00077087
0.00034086
0.00016025
2.0067e-05
0.0038548
6.833e-08
4.0223e-05
0.003764
5.9822e-05
0.0036252
7.8416e-05
0.0034297
9.578e-05
0.0031766
0.00011125
0.0028776
0.00012519
0.0025082
0.00013681
0.002157
0.00014546
0.0016607
0.00015333
0.001297
0.00015716
0.00076705
0.00033774
0.00016028
2.0068e-05
0.0038347
6.9468e-08
4.0224e-05
0.0037438
5.9826e-05
0.0036056
7.8421e-05
0.0034111
9.5789e-05
0.0031593
0.00011126
0.0028621
0.0001252
0.0024943
0.00013685
0.0021454
0.0001455
0.0016521
0.00015337
0.0012891
0.00015722
0.00076319
0.00033464
0.00016032
2.0068e-05
0.0038145
7.0613e-08
4.0226e-05
0.0037236
5.983e-05
0.003586
7.8425e-05
0.0033925
9.5798e-05
0.0031419
0.00011128
0.0028466
0.00012521
0.0024804
0.00013688
0.0021337
0.00014554
0.0016434
0.0001534
0.0012813
0.00015728
0.00075931
0.00033156
0.00016035
2.0068e-05
0.0037944
7.1763e-08
4.0228e-05
0.0037035
5.9834e-05
0.0035664
7.843e-05
0.0033739
9.5807e-05
0.0031245
0.00011129
0.0028311
0.00012522
0.0024664
0.00013691
0.002122
0.00014557
0.0016347
0.00015343
0.0012734
0.00015734
0.0007554
0.00032852
0.00016039
2.0069e-05
0.0037742
7.2919e-08
4.023e-05
0.0036833
5.9838e-05
0.0035468
7.8434e-05
0.0033553
9.5816e-05
0.0031071
0.00011131
0.0028156
0.00012523
0.0024525
0.00013695
0.0021103
0.00014561
0.0016261
0.00015346
0.0012656
0.0001574
0.00075146
0.00032549
0.00016042
2.0069e-05
0.0037541
7.4082e-08
4.0231e-05
0.0036632
5.9842e-05
0.0035272
7.8439e-05
0.0033367
9.5825e-05
0.0030897
0.00011132
0.0028001
0.00012524
0.0024386
0.00013698
0.0020985
0.00014565
0.0016174
0.00015349
0.0012578
0.00015745
0.00074749
0.0003225
0.00016045
2.007e-05
0.003734
7.5251e-08
4.0233e-05
0.003643
5.9846e-05
0.0035076
7.8444e-05
0.0033181
9.5834e-05
0.0030723
0.00011134
0.0027846
0.00012525
0.0024247
0.00013701
0.0020868
0.00014569
0.0016087
0.00015352
0.0012499
0.00015751
0.00074349
0.00031952
0.00016048
2.007e-05
0.0037138
7.6426e-08
4.0235e-05
0.0036228
5.9851e-05
0.0034879
7.8449e-05
0.0032995
9.5844e-05
0.003055
0.00011135
0.0027691
0.00012527
0.0024108
0.00013704
0.002075
0.00014573
0.0016
0.00015355
0.0012421
0.00015756
0.00073948
0.00031657
0.00016051
2.0071e-05
0.0036937
7.7608e-08
4.0237e-05
0.0036027
5.9855e-05
0.0034683
7.8454e-05
0.0032809
9.5853e-05
0.0030376
0.00011137
0.0027536
0.00012528
0.0023969
0.00013707
0.0020632
0.00014576
0.0015914
0.00015357
0.0012343
0.00015762
0.00073543
0.00031365
0.00016054
2.0071e-05
0.0036735
7.8797e-08
4.0239e-05
0.0035825
5.986e-05
0.0034487
7.846e-05
0.0032623
9.5863e-05
0.0030202
0.00011139
0.0027381
0.00012529
0.0023829
0.0001371
0.0020514
0.0001458
0.0015827
0.0001536
0.0012265
0.00015767
0.00073136
0.00031074
0.00016058
2.0072e-05
0.0036534
7.9993e-08
4.0241e-05
0.0035623
5.9864e-05
0.0034291
7.8466e-05
0.0032437
9.5872e-05
0.0030027
0.00011141
0.0027225
0.00012531
0.002369
0.00013714
0.0020396
0.00014584
0.001574
0.00015363
0.0012187
0.00015772
0.00072727
0.00030786
0.00016061
2.0072e-05
0.0036332
8.1195e-08
4.0243e-05
0.0035422
5.9869e-05
0.0034095
7.8472e-05
0.0032251
9.5882e-05
0.0029853
0.00011142
0.002707
0.00012532
0.0023552
0.00013717
0.0020277
0.00014588
0.0015652
0.00015366
0.0012109
0.00015777
0.00072316
0.000305
0.00016063
2.0073e-05
0.0036131
8.2404e-08
4.0245e-05
0.003522
5.9874e-05
0.0033898
7.8478e-05
0.0032065
9.5892e-05
0.0029679
0.00011144
0.0026914
0.00012534
0.0023413
0.0001372
0.0020159
0.00014591
0.0015565
0.00015369
0.0012031
0.00015783
0.00071903
0.00030216
0.00016066
2.0073e-05
0.0035929
8.362e-08
4.0247e-05
0.0035018
5.9878e-05
0.0033702
7.8484e-05
0.0031879
9.5902e-05
0.0029505
0.00011146
0.0026759
0.00012535
0.0023274
0.00013722
0.002004
0.00014595
0.0015478
0.00015372
0.0011954
0.00015787
0.00071487
0.00029935
0.00016069
2.0074e-05
0.0035727
8.4844e-08
4.0249e-05
0.0034816
5.9883e-05
0.0033506
7.8491e-05
0.0031693
9.5912e-05
0.0029331
0.00011148
0.0026603
0.00012537
0.0023135
0.00013725
0.0019921
0.00014599
0.0015391
0.00015375
0.0011876
0.00015792
0.0007107
0.00029655
0.00016072
2.0075e-05
0.0035526
8.6074e-08
4.0251e-05
0.0034615
5.9888e-05
0.0033309
7.8498e-05
0.0031506
9.5922e-05
0.0029157
0.0001115
0.0026447
0.00012538
0.0022996
0.00013728
0.0019802
0.00014603
0.0015303
0.00015378
0.0011799
0.00015797
0.0007065
0.00029377
0.00016075
2.0075e-05
0.0035324
8.7312e-08
4.0253e-05
0.0034413
5.9893e-05
0.0033113
7.8505e-05
0.003132
9.5933e-05
0.0028982
0.00011152
0.0026292
0.0001254
0.0022857
0.00013731
0.0019683
0.00014606
0.0015216
0.00015381
0.0011721
0.00015802
0.00070229
0.00029101
0.00016078
2.0076e-05
0.0035123
8.8556e-08
4.0256e-05
0.0034211
5.9898e-05
0.0032916
7.8512e-05
0.0031134
9.5943e-05
0.0028808
0.00011154
0.0026136
0.00012541
0.0022719
0.00013734
0.0019564
0.0001461
0.0015128
0.00015383
0.0011644
0.00015807
0.00069806
0.00028827
0.00016081
2.0077e-05
0.0034921
8.9808e-08
4.0258e-05
0.0034009
5.9904e-05
0.003272
7.852e-05
0.0030948
9.5954e-05
0.0028634
0.00011156
0.0025979
0.00012543
0.002258
0.00013737
0.0019444
0.00014614
0.001504
0.00015386
0.0011567
0.00015811
0.00069381
0.00028555
0.00016083
2.0077e-05
0.0034719
9.1066e-08
4.0261e-05
0.0033807
5.9909e-05
0.0032524
7.8528e-05
0.0030762
9.5965e-05
0.0028459
0.00011158
0.0025823
0.00012545
0.0022441
0.00013739
0.0019325
0.00014617
0.0014953
0.00015389
0.0011489
0.00015816
0.00068954
0.00028285
0.00016086
2.0078e-05
0.0034517
9.2332e-08
4.0263e-05
0.0033605
5.9915e-05
0.0032327
7.8536e-05
0.0030576
9.5976e-05
0.0028285
0.0001116
0.0025667
0.00012546
0.0022303
0.00013742
0.0019205
0.00014621
0.0014865
0.00015392
0.0011412
0.0001582
0.00068526
0.00028017
0.00016089
2.0079e-05
0.0034316
9.3604e-08
4.0266e-05
0.0033404
5.992e-05
0.003213
7.8544e-05
0.0030389
9.5987e-05
0.002811
0.00011162
0.0025511
0.00012548
0.0022164
0.00013745
0.0019086
0.00014625
0.0014777
0.00015395
0.0011335
0.00015825
0.00068096
0.0002775
0.00016091
2.0079e-05
0.0034114
9.4883e-08
4.0268e-05
0.0033202
5.9926e-05
0.0031934
7.8553e-05
0.0030203
9.5999e-05
0.0027936
0.00011164
0.0025354
0.0001255
0.0022026
0.00013747
0.0018966
0.00014628
0.0014689
0.00015398
0.0011258
0.00015829
0.00067665
0.00027485
0.00016094
2.008e-05
0.0033912
9.6169e-08
4.0271e-05
0.0033
5.9932e-05
0.0031737
7.8562e-05
0.0030017
9.6011e-05
0.0027761
0.00011166
0.0025198
0.00012551
0.0021887
0.0001375
0.0018846
0.00014632
0.00146
0.00015401
0.0011181
0.00015833
0.00067232
0.00027221
0.00016097
2.0081e-05
0.003371
9.7461e-08
4.0274e-05
0.0032798
5.9938e-05
0.0031541
7.8571e-05
0.0029831
9.6022e-05
0.0027587
0.00011169
0.0025041
0.00012553
0.0021749
0.00013753
0.0018726
0.00014635
0.0014512
0.00015403
0.0011105
0.00015838
0.00066798
0.0002696
0.00016099
2.0082e-05
0.0033509
9.8759e-08
4.0277e-05
0.0032596
5.9944e-05
0.0031344
7.8581e-05
0.0029644
9.6034e-05
0.0027412
0.00011171
0.0024884
0.00012555
0.002161
0.00013755
0.0018606
0.00014639
0.0014424
0.00015406
0.0011028
0.00015842
0.00066363
0.000267
0.00016102
2.0083e-05
0.0033307
1.0006e-07
4.028e-05
0.0032394
5.995e-05
0.0031147
7.859e-05
0.0029458
9.6046e-05
0.0027238
0.00011173
0.0024728
0.00012556
0.0021472
0.00013758
0.0018486
0.00014643
0.0014335
0.00015409
0.0010951
0.00015846
0.00065926
0.00026441
0.00016105
2.0084e-05
0.0033105
1.0137e-07
4.0283e-05
0.0032192
5.9956e-05
0.0030951
7.86e-05
0.0029271
9.6059e-05
0.0027063
0.00011175
0.0024571
0.00012558
0.0021334
0.0001376
0.0018366
0.00014646
0.0014247
0.00015412
0.0010875
0.0001585
0.00065488
0.00026184
0.00016107
2.0085e-05
0.0032903
1.0269e-07
4.0286e-05
0.003199
5.9963e-05
0.0030754
7.861e-05
0.0029085
9.6071e-05
0.0026889
0.00011177
0.0024414
0.0001256
0.0021195
0.00013763
0.0018245
0.0001465
0.0014158
0.00015415
0.0010798
0.00015854
0.00065048
0.00025928
0.0001611
2.0086e-05
0.0032701
1.0401e-07
4.029e-05
0.0031788
5.9969e-05
0.0030557
7.8621e-05
0.0028898
9.6083e-05
0.0026714
0.00011179
0.0024257
0.00012562
0.0021057
0.00013765
0.0018125
0.00014654
0.0014069
0.00015418
0.0010722
0.00015858
0.00064608
0.00025674
0.00016112
2.0087e-05
0.0032499
1.0533e-07
4.0293e-05
0.0031586
5.9976e-05
0.003036
7.8631e-05
0.0028712
9.6096e-05
0.0026539
0.00011181
0.00241
0.00012563
0.0020919
0.00013768
0.0018004
0.00014657
0.001398
0.00015421
0.0010645
0.00015862
0.00064166
0.00025421
0.00016115
2.0088e-05
0.0032297
1.0666e-07
4.0297e-05
0.0031384
5.9982e-05
0.0030163
7.8642e-05
0.0028525
9.6108e-05
0.0026365
0.00011183
0.0023942
0.00012565
0.0020781
0.0001377
0.0017884
0.00014661
0.0013891
0.00015424
0.0010569
0.00015866
0.00063724
0.0002517
0.00016118
2.0089e-05
0.0032095
1.0799e-07
4.0301e-05
0.0031182
5.9989e-05
0.0029966
7.8652e-05
0.0028339
9.6121e-05
0.002619
0.00011185
0.0023785
0.00012567
0.0020642
0.00013772
0.0017763
0.00014665
0.0013802
0.00015427
0.0010493
0.0001587
0.0006328
0.0002492
0.0001612
2.009e-05
0.0031893
1.0933e-07
4.0304e-05
0.003098
5.9996e-05
0.0029769
7.8663e-05
0.0028152
9.6134e-05
0.0026015
0.00011187
0.0023628
0.00012568
0.0020504
0.00013775
0.0017643
0.00014668
0.0013713
0.0001543
0.0010417
0.00015874
0.00062835
0.00024671
0.00016123
2.0092e-05
0.0031691
1.1067e-07
4.0308e-05
0.0030777
6.0003e-05
0.0029573
7.8674e-05
0.0027965
9.6146e-05
0.0025841
0.00011189
0.002347
0.0001257
0.0020366
0.00013777
0.0017522
0.00014672
0.0013623
0.00015432
0.0010341
0.00015878
0.0006239
0.00024424
0.00016125
2.0093e-05
0.0031489
1.1201e-07
4.0312e-05
0.0030575
6.001e-05
0.0029376
7.8685e-05
0.0027778
9.6159e-05
0.0025666
0.00011191
0.0023313
0.00012572
0.0020228
0.0001378
0.0017401
0.00014675
0.0013533
0.00015435
0.0010265
0.00015882
0.00061943
0.00024178
0.00016128
2.0094e-05
0.0031287
1.1335e-07
4.0316e-05
0.0030373
6.0017e-05
0.0029179
7.8697e-05
0.0027592
9.6171e-05
0.0025491
0.00011193
0.0023155
0.00012574
0.002009
0.00013782
0.001728
0.00014679
0.0013444
0.00015438
0.0010189
0.00015886
0.00061496
0.00023933
0.00016131
2.0096e-05
0.0031085
1.147e-07
4.032e-05
0.0030171
6.0025e-05
0.0028982
7.8708e-05
0.0027405
9.6184e-05
0.0025316
0.00011195
0.0022997
0.00012575
0.0019952
0.00013784
0.0017159
0.00014683
0.0013354
0.00015441
0.0010113
0.0001589
0.00061048
0.00023689
0.00016133
2.0097e-05
0.0030883
1.1604e-07
4.0325e-05
0.0029968
6.0032e-05
0.0028784
7.8719e-05
0.0027218
9.6197e-05
0.0025142
0.00011197
0.002284
0.00012577
0.0019814
0.00013787
0.0017038
0.00014686
0.0013264
0.00015444
0.0010037
0.00015893
0.00060599
0.00023447
0.00016136
2.0098e-05
0.0030681
1.1739e-07
4.0329e-05
0.0029766
6.0039e-05
0.0028587
7.8731e-05
0.0027031
9.6209e-05
0.0024967
0.00011199
0.0022682
0.00012579
0.0019676
0.00013789
0.0016917
0.0001469
0.0013174
0.00015447
0.00099614
0.00015897
0.00060149
0.00023205
0.00016138
2.01e-05
0.0030479
1.1874e-07
4.0333e-05
0.0029564
6.0047e-05
0.002839
7.8742e-05
0.0026844
9.6221e-05
0.0024792
0.00011201
0.0022524
0.00012581
0.0019538
0.00013791
0.0016796
0.00014694
0.0013084
0.0001545
0.00098857
0.00015901
0.00059699
0.00022965
0.00016141
2.0101e-05
0.0030276
1.2009e-07
4.0338e-05
0.0029361
6.0054e-05
0.0028193
7.8753e-05
0.0026657
9.6234e-05
0.0024617
0.00011203
0.0022366
0.00012582
0.00194
0.00013794
0.0016675
0.00014697
0.0012993
0.00015454
0.00098101
0.00015905
0.00059248
0.00022726
0.00016144
2.0103e-05
0.0030074
1.2143e-07
4.0342e-05
0.0029159
6.0062e-05
0.0027996
7.8765e-05
0.002647
9.6246e-05
0.0024442
0.00011205
0.0022208
0.00012584
0.0019262
0.00013796
0.0016554
0.00014701
0.0012903
0.00015457
0.00097345
0.00015908
0.00058796
0.00022488
0.00016146
2.0104e-05
0.0029872
1.2278e-07
4.0347e-05
0.0028957
6.0069e-05
0.0027799
7.8776e-05
0.0026283
9.6258e-05
0.0024268
0.00011207
0.002205
0.00012586
0.0019124
0.00013798
0.0016433
0.00014705
0.0012812
0.0001546
0.0009659
0.00015912
0.00058344
0.00022251
0.00016149
2.0106e-05
0.002967
1.2413e-07
4.0351e-05
0.0028754
6.0077e-05
0.0027601
7.8787e-05
0.0026096
9.6271e-05
0.0024093
0.00011208
0.0021892
0.00012588
0.0018986
0.00013801
0.0016312
0.00014708