/*--------------------------------*- C++ -*----------------------------------*\
  =========                 |
  \\      /  F ield         | OpenFOAM: The Open Source CFD Toolbox
   \\    /   O peration     | Website:  https://openfoam.org
    \\  /    A nd           | Version:  6.0
     \\/     M anipulation  |
\*---------------------------------------------------------------------------*/
FoamFile
{
    version     2.0;
    format      ascii;
    class       volVectorField;
    location    "4";
    object      U;
}
// * * * * * * * * * * * * * * * * * * * * * * * * * * * * * * * * * * * * * //

dimensions      [0 1 -1 0 0 0 0];

internalField   nonuniform List<vector> 
62000
(
(1.00002 -1.06155e-05 -9.01666e-21)
(1.00002 4.2356e-06 7.12796e-21)
(1.00002 1.54062e-05 6.95378e-21)
(1.00002 2.61189e-05 -2.90006e-20)
(1.00002 3.68654e-05 -3.15671e-20)
(1.00003 4.78234e-05 1.04049e-19)
(1.00003 5.92654e-05 -1.09265e-19)
(1.00003 7.12866e-05 6.0737e-20)
(1.00003 8.41537e-05 -2.72615e-20)
(1.00003 9.7981e-05 -1.33756e-19)
(1.00003 0.000113166 -1.65398e-20)
(1.00003 0.000129724 1.7308e-19)
(1.00004 0.000148006 3.40923e-20)
(1.00004 0.000168054 -1.15374e-19)
(1.00004 0.000190281 1.74317e-19)
(1.00004 0.000214653 -8.95284e-20)
(1.00004 0.000241559 9.04858e-20)
(1.00004 0.000270904 -1.03245e-19)
(1.00004 0.000303087 4.98019e-20)
(1.00003 0.000337971 -1.50659e-19)
(1.00003 0.00037589 1.9256e-19)
(1.00003 0.000416678 5.66408e-20)
(1.00002 0.000460607 8.12698e-20)
(1.00002 0.000507398 -3.57974e-19)
(1.00001 0.000557162 1.29749e-19)
(1.00001 0.000609531 -8.07761e-20)
(0.999996 0.000664176 -2.1215e-21)
(0.999983 0.000720602 -6.69064e-20)
(0.999968 0.000777947 2.02039e-19)
(0.99995 0.000835187 -1.1681e-19)
(0.999927 0.000890576 2.82161e-19)
(0.999899 0.00094284 -5.87687e-19)
(0.999864 0.00098953 5.09531e-20)
(0.999822 0.00102861 -2.15297e-19)
(0.999772 0.00105604 -7.14819e-20)
(0.999711 0.0010666 -2.36955e-19)
(0.999638 0.00105558 -7.54172e-20)
(0.999551 0.00101762 -9.07262e-20)
(0.999447 0.000946539 2.445e-19)
(0.999325 0.000835722 1.23811e-18)
(0.999184 0.000678736 -3.16627e-19)
(0.999022 0.000470065 -1.82943e-18)
(0.99884 0.000206021 -2.98323e-18)
(0.998642 -0.000114244 1.63972e-18)
(0.998432 -0.000487895 5.45833e-19)
(0.998217 -0.000907408 -2.33072e-18)
(0.998009 -0.00136086 3.64338e-19)
(0.997819 -0.00183198 -9.42229e-19)
(0.997662 -0.00230261 -4.0566e-18)
(0.997552 -0.00275421 -9.42296e-19)
(0.997499 -0.00317173 -4.32569e-19)
(0.997512 -0.00354519 -4.89078e-18)
(0.997592 -0.00387273 8.89097e-19)
(0.997736 -0.0041627 4.19512e-18)
(0.997942 -0.00442878 8.70432e-19)
(0.998202 -0.00469812 2.72307e-18)
(0.998514 -0.00501075 -1.90061e-19)
(0.998881 -0.005467 -2.07713e-19)
(0.999587 -0.00582617 5.13607e-19)
(0.992475 -0.0113612 6.86593e-20)
(1.00019 0.000142003 -2.41184e-21)
(1.00019 0.000178187 2.19477e-20)
(1.00019 0.000204355 8.65144e-21)
(1.00019 0.000230626 -3.53088e-20)
(1.00019 0.000256854 1.39666e-20)
(1.00019 0.000283209 -9.19537e-20)
(1.0002 0.000310087 8.0384e-20)
(1.0002 0.000337356 4.45186e-20)
(1.0002 0.000365609 -7.97143e-20)
(1.0002 0.000394627 3.27706e-21)
(1.0002 0.000425293 7.12036e-20)
(1.0002 0.000457278 2.22928e-22)
(1.00021 0.000491466 1.90772e-20)
(1.00021 0.000527615 -1.57557e-19)
(1.0002 0.00056642 3.06363e-19)
(1.0002 0.000607759 -2.62441e-19)
(1.0002 0.000652074 1.1976e-19)
(1.00019 0.000699189 -2.43769e-20)
(1.00019 0.000749355 -6.56011e-20)
(1.00018 0.000802378 1.77533e-19)
(1.00017 0.000858279 -2.74632e-19)
(1.00015 0.000916716 1.56923e-19)
(1.00014 0.000977546 -1.97737e-19)
(1.00012 0.0010401 1.15424e-19)
(1.00009 0.00110376 1.07823e-19)
(1.00006 0.00116761 -6.99818e-20)
(1.00002 0.00122992 -2.19984e-21)
(0.999981 0.00128936 7.6032e-20)
(0.99993 0.00134298 6.54366e-20)
(0.999869 0.00138814 -1.43896e-19)
(0.999797 0.00142002 2.89696e-19)
(0.999712 0.00143528 6.5825e-20)
(0.999611 0.0014301 1.94483e-19)
(0.999492 0.00140045 2.46397e-20)
(0.999354 0.00133708 6.35862e-20)
(0.999194 0.00122921 -6.14663e-20)
(0.99901 0.00106781 -2.19701e-19)
(0.998798 0.000844662 -1.00002e-19)
(0.998557 0.000551426 -6.68208e-19)
(0.998284 0.000180267 -8.23938e-19)
(0.99798 -0.000274923 6.53033e-19)
(0.997646 -0.000816918 4.18291e-19)
(0.997287 -0.00144377 3.18154e-18)
(0.996909 -0.00214772 1.90883e-19)
(0.996525 -0.00291487 -5.07428e-18)
(0.996148 -0.00372459 2.0089e-18)
(0.995797 -0.00455154 1.60596e-18)
(0.995494 -0.00536737 1.87556e-18)
(0.995259 -0.00614438 2.7188e-19)
(0.995114 -0.00686022 4.00916e-20)
(0.995073 -0.00749938 2.60258e-18)
(0.995147 -0.00806041 6.25364e-18)
(0.995337 -0.00854707 -3.70854e-18)
(0.995637 -0.00898532 -8.17662e-18)
(0.996041 -0.00940532 -1.74424e-18)
(0.996539 -0.009864 -8.08333e-19)
(0.997134 -0.010425 -2.01185e-18)
(0.997834 -0.0112362 -7.62266e-19)
(0.99896 -0.0118763 9.07406e-19)
(0.99368 -0.0166633 2.35134e-19)
(1.00034 0.000244027 -1.16182e-20)
(1.00034 0.000284152 -1.56289e-21)
(1.00034 0.000309087 1.63423e-21)
(1.00034 0.000333578 7.05646e-21)
(1.00034 0.0003572 1.90328e-20)
(1.00034 0.000380004 -1.71811e-20)
(1.00034 0.000402399 8.74241e-20)
(1.00034 0.000424247 -3.97994e-20)
(1.00034 0.000446233 -2.05002e-20)
(1.00035 0.00046793 -1.20547e-19)
(1.00035 0.000490319 9.75758e-20)
(1.00035 0.000512815 6.85238e-21)
(1.00035 0.000536284 -2.07428e-20)
(1.00034 0.00056025 5.30944e-20)
(1.00034 0.000585388 -8.77252e-20)
(1.00034 0.000611338 5.43805e-22)
(1.00034 0.000638428 -3.80516e-20)
(1.00033 0.000666268 4.59372e-22)
(1.00032 0.000694986 8.39108e-20)
(1.00031 0.000724273 -1.24849e-19)
(1.0003 0.000753851 7.60818e-20)
(1.00028 0.000783302 2.9314e-19)
(1.00026 0.000812185 -3.66841e-20)
(1.00024 0.000839631 -3.97066e-19)
(1.00021 0.000864705 2.01339e-19)
(1.00018 0.000886383 -1.09908e-19)
(1.00014 0.000902338 1.78153e-19)
(1.00009 0.000911234 -1.05672e-19)
(1.00004 0.00090942 -2.18877e-19)
(0.999969 0.000894098 2.32315e-19)
(0.99989 0.000859689 -1.69083e-19)
(0.999798 0.00080281 2.36431e-19)
(0.999689 0.000720162 -6.67361e-19)
(0.999562 0.000608395 6.21549e-19)
(0.999413 0.000457884 -3.4281e-19)
(0.999244 0.00025657 1.44318e-19)
(0.999049 -4.10992e-06 1.02614e-19)
(0.998827 -0.000331533 -1.64079e-20)
(0.998575 -0.000732466 -2.5433e-20)
(0.998292 -0.00121264 7.85885e-19)
(0.997978 -0.0017758 -3.53452e-19)
(0.997633 -0.00242167 5.82173e-19)
(0.997264 -0.00314467 -2.0283e-18)
(0.996875 -0.00393319 -1.01869e-18)
(0.996479 -0.00476968 1.22119e-18)
(0.99609 -0.00563034 -3.77311e-18)
(0.995726 -0.00648772 5.36426e-19)
(0.995408 -0.00731303 -3.1736e-18)
(0.995158 -0.00807944 4.30724e-18)
(0.994999 -0.00876763 1.05676e-18)
(0.994946 -0.00936569 4.97702e-19)
(0.995013 -0.00987722 -1.29401e-19)
(0.995205 -0.0103095 1.67755e-18)
(0.995515 -0.0106897 1.40127e-19)
(0.995942 -0.0110504 -2.70569e-18)
(0.996476 -0.0114431 -1.24367e-18)
(0.997124 -0.0119191 -7.20451e-19)
(0.997897 -0.012591 -1.7955e-18)
(0.998976 -0.0128306 -2.10401e-19)
(0.996517 -0.0155258 -1.66024e-20)
(1.00042 0.000313178 -1.13793e-20)
(1.00042 0.000347431 3.30489e-20)
(1.00042 0.000366335 -4.79573e-21)
(1.00042 0.000384771 -3.05723e-20)
(1.00042 0.000402031 4.36839e-20)
(1.00042 0.000418043 7.14834e-20)
(1.00042 0.000433169 -8.87674e-20)
(1.00042 0.000446932 9.15645e-21)
(1.00042 0.000459999 2.78874e-20)
(1.00042 0.00047161 5.53325e-20)
(1.00042 0.000482831 -9.80675e-20)
(1.00042 0.000492868 -2.8853e-20)
(1.00041 0.000502724 -3.09424e-20)
(1.00041 0.000511716 1.35912e-19)
(1.00041 0.000520417 -8.75055e-20)
(1.00041 0.00052851 1.97314e-19)
(1.0004 0.000536076 -2.31226e-19)
(1.0004 0.000542677 -3.28172e-20)
(1.00039 0.000548176 2.29453e-19)
(1.00038 0.00055229 -7.7853e-20)
(1.00037 0.000554347 -2.74792e-20)
(1.00036 0.000553994 -2.91709e-20)
(1.00034 0.000550581 -2.61557e-19)
(1.00032 0.00054311 1.46871e-19)
(1.0003 0.000530608 -6.70879e-20)
(1.00027 0.000512023 1.0634e-19)
(1.00024 0.00048484 4.8407e-20)
(1.0002 0.000447936 2.47686e-19)
(1.00015 0.000397427 -1.52597e-19)
(1.00009 0.00033087 -2.05661e-19)
(1.00003 0.00024254 3.23824e-19)
(0.999947 0.00012912 -2.66514e-19)
(0.999855 -1.11791e-05 5.09706e-19)
(0.999746 -0.000181265 -3.21513e-19)
(0.999619 -0.000390232 1.22877e-19)
(0.999473 -0.000649452 2.30373e-19)
(0.999305 -0.000966554 -1.00564e-19)
(0.999113 -0.00134768 1.47112e-19)
(0.998893 -0.00179795 -5.00116e-20)
(0.998644 -0.00232119 2.02685e-19)
(0.998364 -0.00291943 -6.72638e-19)
(0.998055 -0.00359072 2.07163e-19)
(0.99772 -0.00432771 4.61518e-19)
(0.997363 -0.0051175 1.07076e-18)
(0.996994 -0.00594187 1.61003e-18)
(0.996624 -0.00677695 5.19739e-19)
(0.996271 -0.00759606 2.26535e-18)
(0.995955 -0.00837202 2.45381e-18)
(0.995697 -0.00908019 2.56344e-18)
(0.995519 -0.00970385 -1.82487e-18)
(0.99544 -0.0102338 -2.38973e-18)
(0.995475 -0.0106759 1.29778e-18)
(0.995632 -0.0110393 1.4786e-18)
(0.995909 -0.0113488 3.80167e-18)
(0.996305 -0.0116367 2.20327e-18)
(0.996816 -0.0119459 2.49503e-18)
(0.997446 -0.0123184 3.85454e-18)
(0.998209 -0.0128445 2.76118e-19)
(0.999126 -0.0127967 -8.67487e-19)
(0.998137 -0.0148092 -1.2704e-19)
(1.00043 0.000363986 2.13256e-20)
(1.00043 0.000398871 -6.7717e-21)
(1.00043 0.000413625 1.07044e-20)
(1.00043 0.000426719 -1.43503e-20)
(1.00043 0.000437631 3.03766e-20)
(1.00043 0.000446278 -1.42804e-20)
(1.00042 0.000453021 7.2561e-21)
(1.00042 0.000457632 -1.03e-19)
(1.00042 0.000460775 8.21448e-20)
(1.00042 0.000461692 -1.56112e-19)
(1.00042 0.000461462 1.64034e-19)
(1.00041 0.00045923 -1.88438e-20)
(1.00041 0.000455845 -3.98859e-20)
(1.00041 0.000450516 -1.76752e-20)
(1.0004 0.000443841 -3.6118e-21)
(1.0004 0.000435279 -1.63926e-19)
(1.00039 0.000424906 7.15205e-21)
(1.00039 0.000411997 1.67114e-19)
(1.00038 0.000396548 -5.25324e-20)
(1.00037 0.0003781 -5.40089e-20)
(1.00036 0.000355871 8.87279e-20)
(1.00035 0.000329438 -4.30956e-20)
(1.00034 0.000298125 1.75833e-19)
(1.00032 0.000260688 9.4986e-20)
(1.00031 0.000216277 7.23317e-20)
(1.00028 0.000163752 -2.18153e-19)
(1.00026 0.000100563 -3.026e-20)
(1.00022 2.57869e-05 -1.68295e-19)
(1.00019 -6.44623e-05 3.14997e-20)
(1.00014 -0.000172325 -5.88073e-20)
(1.00009 -0.000303404 -2.10224e-20)
(1.00002 -0.000460474 1.93203e-19)
(0.99995 -0.000644968 -4.86834e-19)
(0.999861 -0.00085858 -1.39203e-20)
(0.999757 -0.00110947 -2.66313e-19)
(0.999637 -0.00140874 -1.37302e-19)
(0.999499 -0.00176249 6.93451e-20)
(0.999339 -0.00217586 -4.47502e-19)
(0.999154 -0.00265259 7.15595e-19)
(0.998944 -0.00319492 6.90576e-20)
(0.998705 -0.00380373 8.49037e-19)
(0.998438 -0.004476 -6.21292e-19)
(0.998144 -0.00520351 -4.17398e-19)
(0.997827 -0.00597305 -2.75413e-19)
(0.997494 -0.00676671 1.06768e-18)
(0.997155 -0.00756159 1.61222e-18)
(0.996825 -0.00833256 2.07846e-19)
(0.996523 -0.00905449 4.50705e-19)
(0.996267 -0.00970504 -1.13971e-18)
(0.996082 -0.0102697 4.40782e-18)
(0.995984 -0.0107413 9.73155e-19)
(0.995994 -0.0111266 -1.08745e-18)
(0.996119 -0.0114363 -1.28629e-19)
(0.996361 -0.0116921 2.52649e-18)
(0.996722 -0.0119266 1.05211e-19)
(0.997201 -0.012177 -2.06945e-18)
(0.997797 -0.0124813 -3.03451e-18)
(0.998534 -0.0129218 2.12493e-18)
(0.999298 -0.0127355 -7.50978e-20)
(0.999055 -0.0144241 -1.9966e-19)
(1.00036 0.000402908 -7.76985e-21)
(1.00037 0.000431292 2.97196e-20)
(1.00037 0.000439492 -4.63369e-20)
(1.00037 0.000446441 3.2764e-20)
(1.00037 0.000451064 2.00884e-20)
(1.00036 0.000453253 -2.02551e-20)
(1.00036 0.000453283 1.61397e-21)
(1.00036 0.00045058 -1.37072e-20)
(1.00035 0.000445721 -4.39912e-20)
(1.00035 0.000437625 8.04202e-20)
(1.00035 0.000427487 -1.18988e-19)
(1.00034 0.00041431 9.97106e-20)
(1.00034 0.000399184 8.39949e-20)
(1.00033 0.000381119 -1.24585e-19)
(1.00033 0.000360722 -3.89999e-20)
(1.00032 0.000337546 1.41293e-19)
(1.00032 0.000311531 -1.64785e-19)
(1.00031 0.00028186 2.19869e-19)
(1.00031 0.000248428 -4.04954e-20)
(1.0003 0.000210786 2.20517e-20)
(1.00029 0.000167838 -3.49497e-20)
(1.00028 0.000119259 -4.26429e-20)
(1.00027 6.43077e-05 -7.89534e-20)
(1.00026 1.55104e-06 1.31962e-19)
(1.00024 -6.96476e-05 -8.89122e-20)
(1.00022 -0.000150516 -8.60564e-20)
(1.0002 -0.000243552 1.75159e-19)
(1.00018 -0.000349437 -1.63436e-19)
(1.00015 -0.000472082 2.6738e-19)
(1.00011 -0.000613112 -1.39277e-19)
(1.00007 -0.000778084 1.13842e-19)
(1.00002 -0.000969457 -1.8221e-19)
(0.999962 -0.0011876 2.11221e-19)
(0.999891 -0.00143378 -8.4013e-21)
(0.999808 -0.00171544 -8.70144e-21)
(0.999711 -0.00204255 7.44801e-22)
(0.999599 -0.0024202 -9.51799e-20)
(0.999468 -0.00285252 3.83997e-19)
(0.999317 -0.00334211 -3.23989e-19)
(0.999142 -0.00388994 -1.77839e-18)
(0.998942 -0.00449605 -7.67867e-19)
(0.998715 -0.00515691 6.15889e-19)
(0.998463 -0.0058639 -5.62097e-19)
(0.998188 -0.00660412 -7.83456e-19)
(0.997894 -0.0073606 -5.00154e-20)
(0.997591 -0.00811186 1.87341e-18)
(0.997291 -0.00883477 -2.72924e-18)
(0.99701 -0.00950636 -2.74637e-18)
(0.996767 -0.0101066 -1.88986e-18)
(0.996583 -0.0106226 -2.7979e-18)
(0.996478 -0.0110489 1.46988e-18)
(0.996472 -0.0113926 -6.52382e-19)
(0.996573 -0.0116648 -4.39005e-18)
(0.996788 -0.0118847 5.1957e-19)
(0.997119 -0.0120844 1.03583e-18)
(0.997568 -0.0122975 -1.29381e-18)
(0.998131 -0.0125601 1.02218e-18)
(0.998841 -0.0129513 9.28227e-20)
(0.999483 -0.0126915 2.20866e-19)
(0.999634 -0.0141572 -1.79225e-19)
(1.00023 0.000434268 8.65867e-21)
(1.00024 0.000460854 -3.70167e-20)
(1.00024 0.000464172 1.70766e-20)
(1.00024 0.000465491 3.01596e-20)
(1.00024 0.000463928 -6.13302e-20)
(1.00024 0.000459288 4.87557e-20)
(1.00024 0.000451889 -3.08074e-20)
(1.00023 0.000441459 2.48906e-20)
(1.00023 0.000428531 3.76135e-20)
(1.00022 0.000412031 -8.64898e-20)
(1.00022 0.000393077 1.19004e-19)
(1.00021 0.000370701 4.80478e-20)
(1.00021 0.000345699 -1.83765e-19)
(1.00021 0.000317053 -3.24243e-20)
(1.0002 0.000285361 9.00751e-20)
(1.00019 0.000250022 5.55746e-20)
(1.00019 0.000210964 -6.48779e-20)
(1.00018 0.000167113 5.53971e-20)
(1.00018 0.000118621 8.19105e-20)
(1.00017 6.49133e-05 -3.91341e-20)
(1.00016 4.82893e-06 -2.18096e-20)
(1.00015 -6.19458e-05 7.46621e-20)
(1.00014 -0.000136097 1.50368e-19)
(1.00013 -0.000219332 -1.06854e-19)
(1.00012 -0.00031199 -1.16236e-19)
(1.0001 -0.000415446 1.26358e-19)
(1.00009 -0.000532091 -9.61128e-20)
(1.00007 -0.000662434 -4.08433e-20)
(1.00004 -0.000810278 3.21823e-19)
(1.00002 -0.000976926 -1.37937e-19)
(0.999982 -0.00116774 -1.12626e-19)
(0.999943 -0.00138451 1.51269e-19)
(0.999897 -0.00162775 1.06744e-19)
(0.999841 -0.00189758 -8.44314e-20)
(0.999775 -0.00220056 -6.32745e-20)
(0.999697 -0.0025464 2.18677e-19)
(0.999608 -0.0029387 7.56866e-20)
(0.999502 -0.00338098 7.00597e-20)
(0.999379 -0.00387491 -4.27449e-19)
(0.999236 -0.0044205 -3.80753e-19)
(0.99907 -0.0050173 9.00815e-19)
(0.99888 -0.00566155 7.38867e-19)
(0.998666 -0.00634465 1.3255e-18)
(0.99843 -0.00705434 -1.15092e-18)
(0.998175 -0.00777484 -1.27772e-18)
(0.997907 -0.00848637 -9.73055e-19)
(0.997639 -0.00916783 2.23631e-18)
(0.997384 -0.00979832 2.0502e-18)
(0.99716 -0.0103598 -2.2248e-18)
(0.996987 -0.0108408 -2.85654e-18)
(0.996883 -0.0112367 -7.13978e-19)
(0.99687 -0.0115547 4.39743e-19)
(0.996958 -0.0118056 1.40377e-19)
(0.997156 -0.0120062 -1.27293e-18)
(0.997465 -0.0121877 7.94756e-19)
(0.997891 -0.0123811 4.64616e-19)
(0.998429 -0.0126215 5.34201e-19)
(0.999116 -0.0129851 -4.64999e-19)
(0.99967 -0.0126821 -6.08189e-20)
(1.00003 -0.0139794 -2.31174e-19)
(1.00005 0.000457075 -1.36285e-20)
(1.00008 0.000472752 -1.03237e-20)
(1.00008 0.000469717 1.32735e-20)
(1.00008 0.000465519 4.43979e-20)
(1.00008 0.000458945 -9.06141e-20)
(1.00007 0.000449655 9.83019e-20)
(1.00007 0.000437917 -4.26769e-21)
(1.00006 0.000422956 -5.55358e-21)
(1.00006 0.000405185 -3.01174e-20)
(1.00005 0.00038309 6.92253e-20)
(1.00005 0.000357872 -1.02081e-19)
(1.00004 0.000328479 3.69205e-20)
(1.00004 0.000295931 -1.08193e-21)
(1.00003 0.000259083 5.2868e-20)
(1.00002 0.000218446 2.39487e-20)
(1.00002 0.000173732 -1.22675e-19)
(1.00001 0.000124582 1.02474e-19)
(1.00001 7.00082e-05 3.87038e-20)
(0.999999 9.9865e-06 -1.08612e-19)
(0.999993 -5.58644e-05 5.12179e-20)
(0.999985 -0.000129132 2.32215e-20)
(0.999977 -0.000209853 -1.55375e-20)
(0.999968 -0.000298796 1.80644e-20)
(0.999958 -0.00039782 -1.10144e-20)
(0.999947 -0.000506953 -1.15016e-19)
(0.999934 -0.000627691 7.49496e-20)
(0.999919 -0.000762305 -1.13102e-19)
(0.999903 -0.000911097 2.00513e-19)
(0.999883 -0.00107788 -4.16184e-20)
(0.999861 -0.00126346 -2.15125e-20)
(0.999835 -0.0014732 -6.17858e-21)
(0.999804 -0.00170857 2.18566e-19)
(0.999767 -0.00196933 -8.38258e-20)
(0.999722 -0.00225544 -3.82113e-20)
(0.999669 -0.00257297 1.42426e-19)
(0.999607 -0.00293059 1.23919e-19)
(0.999535 -0.00333115 -2.09944e-19)
(0.99945 -0.00377758 3.67569e-20)
(0.999349 -0.00427087 4.77921e-19)
(0.999232 -0.00481032 2.70563e-20)
(0.999094 -0.00539522 2.84848e-19)
(0.998936 -0.00602185 -4.83405e-19)
(0.998756 -0.00668187 6.82481e-19)
(0.998554 -0.00736383 1.71768e-18)
(0.998334 -0.00805326 6.39571e-19)
(0.998102 -0.00873209 -6.70347e-19)
(0.997866 -0.00938114 -2.07554e-18)
(0.997639 -0.00998139 2.02314e-19)
(0.997438 -0.0105166 6.74254e-19)
(0.997282 -0.010976 1.55634e-18)
(0.997187 -0.0113557 -2.87816e-19)
(0.997177 -0.0116622 -1.82317e-18)
(0.997262 -0.0119062 1.34618e-18)
(0.997452 -0.0121016 -7.50706e-19)
(0.997751 -0.0122785 1.00126e-18)
(0.998164 -0.0124657 2.43375e-19)
(0.998684 -0.0126969 4.15501e-19)
(0.99936 -0.0130457 -5.61211e-20)
(0.999852 -0.0127129 -2.79326e-19)
(1.00031 -0.0138738 -7.23326e-19)
(0.999841 0.000472641 -6.06848e-21)
(0.99987 0.000492627 4.93443e-21)
(0.999874 0.000488148 2.34592e-20)
(0.999873 0.000481151 3.50645e-20)
(0.999871 0.000470828 -9.83031e-20)
(0.999867 0.000456949 5.35631e-20)
(0.999862 0.000439829 -9.07823e-20)
(0.999857 0.000419239 1.3488e-19)
(0.999851 0.000395538 -6.01717e-20)
(0.999845 0.000367336 1.00673e-20)
(0.999839 0.000335822 1.04637e-19)
(0.999832 0.00030004 -2.27208e-19)
(0.999826 0.000260744 1.48159e-19)
(0.999819 0.000216769 2.00157e-20)
(0.999813 0.000168737 3.02677e-20)
(0.999806 0.000116165 -1.23574e-19)
(0.9998 5.87829e-05 5.85076e-20)
(0.999793 -4.75023e-06 -6.9693e-20)
(0.999786 -7.40379e-05 1.31674e-19)
(0.999779 -0.000149641 -1.63446e-20)
(0.999771 -0.000233172 -1.55733e-19)
(0.999763 -0.000324637 6.19063e-20)
(0.999755 -0.000424716 -3.09723e-21)
(0.999746 -0.000535593 -2.10642e-19)
(0.999735 -0.000656908 1.52419e-19)
(0.999724 -0.000790374 1.11393e-19)
(0.999711 -0.000938111 7.22854e-20)
(0.999697 -0.00110031 -9.72448e-20)
(0.99968 -0.0012807 -1.08047e-19)
(0.999661 -0.0014798 5.10417e-20)
(0.99964 -0.00170286 6.57122e-20)
(0.999614 -0.00195071 -8.8982e-20)
(0.999584 -0.00222361 -1.29059e-19)
(0.999547 -0.00252053 2.73957e-19)
(0.999504 -0.00284693 3.82918e-20)
(0.999453 -0.00321145 -4.39088e-19)
(0.999394 -0.00361574 5.34263e-20)
(0.999325 -0.0040625 2.99664e-19)
(0.999243 -0.00455226 5.86868e-21)
(0.999146 -0.00508377 4.55514e-19)
(0.999032 -0.00565629 -6.56454e-19)
(0.998899 -0.00626633 -1.62523e-20)
(0.998747 -0.00690591 -5.00793e-19)
(0.998576 -0.00756447 5.89233e-20)
(0.998388 -0.00822889 8.1968e-19)
(0.998188 -0.00888268 2.28349e-18)
(0.997984 -0.00950849 5.02224e-19)
(0.997786 -0.0100889 -1.58624e-18)
(0.997611 -0.010609 1.0112e-18)
(0.997476 -0.0110587 3.6289e-18)
(0.997397 -0.0114342 -2.65559e-18)
(0.997398 -0.0117413 2.77905e-18)
(0.997489 -0.0119896 -1.50265e-18)
(0.997681 -0.012191 -4.44015e-19)
(0.997979 -0.0123735 -1.95179e-18)
(0.998389 -0.0125639 -3.73239e-20)
(0.998901 -0.0127942 -1.66517e-19)
(0.999574 -0.0131347 2.15104e-19)
(1.00003 -0.0127767 -7.42411e-19)
(1.00053 -0.0138185 -4.38526e-19)
(0.999592 0.000485174 7.63948e-21)
(0.999626 0.000498256 2.50871e-21)
(0.99963 0.000489329 -2.47516e-20)
(0.99963 0.000478997 2.23121e-20)
(0.999628 0.000465727 -9.33918e-21)
(0.999625 0.000449355 1.58158e-20)
(0.999621 0.00043007 5.08513e-21)
(0.999616 0.000407214 -7.08537e-20)
(0.99961 0.000380971 2.93528e-20)
(0.999604 0.000349528 -1.86771e-20)
(0.999598 0.000314243 1.10402e-20)
(0.999592 0.00027409 4.0321e-20)
(0.999586 0.000230199 -6.96045e-21)
(0.999579 0.000181209 2.23413e-20)
(0.999573 0.000127811 -9.03755e-20)
(0.999566 6.9796e-05 3.38022e-20)
(0.999559 6.72147e-06 1.49549e-20)
(0.999552 -6.27897e-05 -3.6196e-20)
(0.999545 -0.000138377 7.0122e-20)
(0.999538 -0.000220487 2.21702e-20)
(0.999531 -0.000311124 -2.18535e-21)
(0.999523 -0.000410025 -2.03969e-20)
(0.999514 -0.000517908 8.71629e-20)
(0.999505 -0.000637178 -2.33279e-19)
(0.999495 -0.00076707 1.15164e-19)
(0.999484 -0.000909496 4.63169e-20)
(0.999473 -0.00106642 -8.23131e-20)
(0.999459 -0.00123789 1.40593e-19)
(0.999445 -0.00142767 -6.85131e-20)
(0.999428 -0.00163584 -3.5121e-20)
(0.999409 -0.00186775 -7.44149e-20)
(0.999387 -0.00212398 -2.35294e-20)
(0.999361 -0.00240421 7.86583e-20)
(0.99933 -0.00270754 -2.40808e-19)
(0.999293 -0.00303916 4.537e-19)
(0.999251 -0.00340685 -2.40906e-20)
(0.999202 -0.00381184 2.55394e-19)
(0.999144 -0.00425658 -6.40525e-19)
(0.999075 -0.00474129 -2.20985e-19)
(0.998994 -0.00526435 -3.43496e-20)
(0.998899 -0.00582514 -1.24743e-19)
(0.998788 -0.00642048 7.15131e-21)
(0.99866 -0.00704286 -5.77761e-19)
(0.998515 -0.00768264 6.61936e-20)
(0.998356 -0.00832796 2.7578e-19)
(0.998185 -0.00896385 -1.98352e-18)
(0.99801 -0.00957456 2.34501e-18)
(0.997843 -0.010144 3.49883e-19)
(0.997695 -0.0106585 -9.38201e-20)
(0.997584 -0.0111081 -2.15961e-18)
(0.997526 -0.011489 8.379e-19)
(0.997544 -0.011806 -1.40502e-18)
(0.997649 -0.0120676 1.79377e-18)
(0.997851 -0.0122832 5.53323e-19)
(0.998157 -0.0124787 -3.33569e-19)
(0.998572 -0.0126789 5.76288e-20)
(0.999087 -0.0129134 4.34807e-19)
(0.999766 -0.0132489 2.74454e-19)
(1.0002 -0.0128665 2.48414e-18)
(1.0007 -0.0138007 7.32745e-19)
(0.999322 0.000494812 -1.48604e-21)
(0.999358 0.000509925 -5.5437e-21)
(0.999363 0.000499201 -4.53205e-21)
(0.999363 0.000486206 4.15052e-20)
(0.999362 0.000469932 -2.18169e-20)
(0.999359 0.000450179 -2.46329e-20)
(0.999356 0.000427225 -8.74497e-21)
(0.999352 0.000400937 -3.40626e-20)
(0.999347 0.000371397 2.04558e-20)
(0.999342 0.00033686 2.97417e-21)
(0.999336 0.000298548 1.0064e-21)
(0.99933 0.000255588 7.39506e-20)
(0.999325 0.000208674 -5.02004e-20)
(0.999318 0.0001565 -5.97586e-21)
(0.999312 9.97567e-05 5.23387e-20)
(0.999306 3.81299e-05 -2.75664e-20)
(0.999299 -2.88281e-05 -9.61462e-21)
(0.999292 -0.000102791 1.62918e-20)
(0.999285 -0.00018295 4.84357e-20)
(0.999278 -0.000269863 2.52807e-20)
(0.99927 -0.00036559 8.55808e-21)
(0.999262 -0.000469754 -6.06466e-20)
(0.999253 -0.000582983 2.83733e-20)
(0.999244 -0.000708029 5.65509e-20)
(0.999234 -0.000843661 -1.1201e-19)
(0.999224 -0.00099207 3.45476e-20)
(0.999212 -0.00115504 -1.35399e-19)
(0.999199 -0.00133258 1.06658e-19)
(0.999185 -0.00152837 9.12444e-20)
(0.999169 -0.0017423 -1.44871e-19)
(0.999152 -0.00197968 -5.98041e-20)
(0.999132 -0.00224047 8.52569e-20)
(0.999109 -0.00252513 2.79361e-20)
(0.999081 -0.00283186 -8.733e-20)
(0.999049 -0.00316546 -9.81813e-20)
(0.999012 -0.00353395 -1.23897e-19)
(0.99897 -0.00393755 7.84102e-20)
(0.99892 -0.00437881 2.0311e-19)
(0.998862 -0.00485775 7.38012e-20)
(0.998794 -0.00537252 -9.12002e-20)
(0.998713 -0.0059227 8.10608e-19)
(0.998619 -0.00650551 -4.35805e-20)
(0.998511 -0.00711394 9.43046e-19)
(0.998389 -0.00773926 -1.69158e-18)
(0.998255 -0.0083708 1.57028e-19)
(0.998111 -0.00899497 9.00746e-20)
(0.997965 -0.00959743 -3.22559e-19)
(0.997826 -0.0101633 -1.17904e-18)
(0.997706 -0.0106797 -1.99976e-18)
(0.997623 -0.0111368 1.58838e-18)
(0.99759 -0.0115306 1.82991e-18)
(0.99763 -0.0118645 7.02119e-19)
(0.997754 -0.0121457 -1.50619e-18)
(0.997973 -0.0123815 5.23967e-19)
(0.998294 -0.0125953 9.47083e-19)
(0.998723 -0.0128094 -2.53169e-19)
(0.999247 -0.0130509 -4.29326e-19)
(0.99994 -0.0133827 -5.75409e-19)
(1.00037 -0.0129749 -2.83289e-18)
(1.00086 -0.013808 3.07907e-18)
(0.999052 0.000501025 1.64504e-21)
(0.999086 0.000505159 -4.70267e-21)
(0.99909 0.000489872 1.57242e-20)
(0.99909 0.000473718 3.83085e-21)
(0.999089 0.000455405 -1.93487e-20)
(0.999087 0.000434568 -2.09566e-20)
(0.999083 0.000411441 4.70503e-20)
(0.999079 0.000385242 -4.86323e-20)
(0.999074 0.000355874 -1.12505e-20)
(0.999068 0.000321005 2.69963e-20)
(0.999063 0.000281949 2.35649e-20)
(0.999057 0.000237819 6.7656e-20)
(0.999051 0.000189592 -3.71163e-20)
(0.999044 0.000135874 -5.95814e-20)
(0.999038 7.7204e-05 1.23998e-20)
(0.999032 1.38189e-05 -4.40577e-20)
(0.999025 -5.51745e-05 3.15568e-20)
(0.999018 -0.000131246 -4.99349e-20)
(0.99901 -0.000213806 8.28087e-21)
(0.999003 -0.000303077 -1.38519e-20)
(0.998995 -0.000401699 -8.03794e-21)
(0.998987 -0.000508829 -3.87791e-20)
(0.998978 -0.000625226 3.97874e-21)
(0.998969 -0.000753807 7.87741e-20)
(0.998959 -0.000892913 -2.36607e-20)
(0.998948 -0.00104496 8.34351e-21)
(0.998936 -0.00121158 2.12547e-20)
(0.998923 -0.00139265 -3.00903e-20)
(0.998909 -0.00159198 -4.13394e-21)
(0.998894 -0.001809 3.9394e-20)
(0.998877 -0.00204924 4.65897e-20)
(0.998858 -0.0023125 -3.82715e-20)
(0.998836 -0.00259873 -1.03976e-19)
(0.998811 -0.00290645 -1.3508e-19)
(0.998781 -0.00324038 2.38065e-19)
(0.998748 -0.00360783 5.68778e-20)
(0.99871 -0.00400879 3.15507e-20)
(0.998667 -0.00444584 1.8022e-19)
(0.998616 -0.0049189 -2.04695e-19)
(0.998557 -0.00542594 1.20858e-19)
(0.998488 -0.00596686 -4.25929e-20)
(0.998408 -0.00653931 5.52898e-20)
(0.998317 -0.00713679 -3.29691e-19)
(0.998214 -0.00775142 6.98826e-19)
(0.998102 -0.00837368 -8.59778e-19)
(0.997983 -0.00899121 4.86257e-19)
(0.997863 -0.00959093 -1.50006e-18)
(0.997752 -0.0101589 6.08258e-19)
(0.997661 -0.0106831 9.94574e-19)
(0.997606 -0.0111534 -1.42269e-18)
(0.9976 -0.0115654 -6.09568e-19)
(0.997666 -0.0119214 -3.2547e-19)
(0.997814 -0.012227 -1.34419e-20)
(0.998057 -0.0124873 -2.45323e-19)
(0.998398 -0.0127229 6.07764e-20)
(0.998847 -0.0129538 -6.24721e-19)
(0.999388 -0.0132039 6.47169e-19)
(1.0001 -0.0135321 2.3604e-19)
(1.00053 -0.0130975 2.74603e-19)
(1.00099 -0.0138343 -2.4568e-18)
(0.998773 0.000502529 2.49606e-21)
(0.998802 0.000516154 -2.00265e-21)
(0.998805 0.000502614 1.70418e-21)
(0.998805 0.000486487 1.04052e-20)
(0.998804 0.00046719 1.42879e-20)
(0.998802 0.000444577 -5.29412e-20)
(0.998798 0.000418968 3.62264e-20)
(0.998794 0.000390361 7.03727e-21)
(0.998789 0.000358562 -2.09327e-21)
(0.998784 0.000321429 -1.37627e-20)
(0.998778 0.000280235 3.99634e-20)
(0.998772 0.000234296 -1.28856e-20)
(0.998766 0.000184225 -1.6653e-20)
(0.99876 0.00012865 -4.57899e-20)
(0.998754 6.82624e-05 8.84106e-20)
(0.998747 3.10581e-06 -1.81817e-20)
(0.998741 -6.7608e-05 -1.4887e-20)
(0.998734 -0.000145781 -3.89585e-20)
(0.998727 -0.000230236 4.16031e-20)
(0.998719 -0.000321401 2.17912e-20)
(0.998711 -0.000421958 -8.22102e-21)
(0.998703 -0.000530964 1.67553e-20)
(0.998694 -0.00064909 -6.60386e-20)
(0.998684 -0.000779665 4.32708e-21)
(0.998674 -0.000920516 3.56573e-20)
(0.998663 -0.00107441 -7.34764e-21)
(0.99865 -0.00124279 -9.59631e-20)
(0.998637 -0.00142554 1.03716e-20)
(0.998623 -0.00162642 8.35598e-20)
(0.998607 -0.00184472 -1.72644e-20)
(0.99859 -0.00208599 -4.28504e-20)
(0.998571 -0.00234944 1.47388e-20)
(0.99855 -0.00263596 7.03375e-20)
(0.998525 -0.00294324 1.72596e-19)
(0.998497 -0.00327577 -3.23787e-20)
(0.998465 -0.00364125 1.91564e-20)
(0.998431 -0.0040388 -2.76239e-19)
(0.998391 -0.00447129 -1.09791e-19)
(0.998346 -0.00493863 6.17237e-20)
(0.998294 -0.00543868 -2.3573e-19)
(0.998234 -0.00597171 -8.27019e-20)
(0.998166 -0.00653582 1.3517e-19)
(0.998089 -0.00712499 4.45642e-20)
(0.998003 -0.00773219 2.4612e-19)
(0.99791 -0.0083489 9.63588e-19)
(0.997813 -0.00896392 -7.64677e-19)
(0.997718 -0.00956528 1.15362e-18)
(0.997634 -0.0101399 9.14881e-19)
(0.997572 -0.0106762 4.01827e-20)
(0.997546 -0.011164 8.62654e-19)
(0.997569 -0.0115982 -1.10954e-18)
(0.997663 -0.0119799 -9.19576e-19)
(0.997839 -0.012313 4.06882e-19)
(0.998109 -0.0126007 4.44533e-20)
(0.998477 -0.0128604 1.94254e-19)
(0.998951 -0.0131098 1.32419e-18)
(0.999514 -0.0133689 -4.61107e-19)
(1.00025 -0.0136934 9.2018e-19)
(1.0007 -0.01323 1.72676e-18)
(1.00113 -0.0138732 -2.38382e-18)
(0.998479 0.000503339 -2.07075e-21)
(0.998501 0.000511181 2.1585e-21)
(0.998503 0.000494943 1.37627e-20)
(0.998504 0.000477665 -1.7028e-20)
(0.998503 0.000457898 2.91106e-20)
(0.998502 0.000435643 -4.04963e-20)
(0.998499 0.000411043 1.08507e-20)
(0.998496 0.000383607 -5.02925e-22)
(0.998493 0.000352866 2.13609e-20)
(0.998488 0.000316166 -1.05774e-20)
(0.998484 0.000274978 2.67989e-21)
(0.998479 0.000228594 2.92886e-21)
(0.998474 0.000178107 -4.27932e-20)
(0.998469 0.000121926 1.27096e-20)
(0.998463 6.08413e-05 2.70793e-20)
(0.998458 -4.70475e-06 5.05333e-22)
(0.998451 -7.57291e-05 -4.04942e-20)
(0.998445 -0.000154177 1.48146e-20)
(0.998438 -0.000238872 6.90716e-20)
(0.998431 -0.000330092 -4.33004e-20)
(0.998422 -0.000431019 -2.97541e-20)
(0.998414 -0.000540331 2.59927e-20)
(0.998405 -0.00065877 1.29631e-20)
(0.998394 -0.000789956 1.56744e-20)
(0.998384 -0.000931192 -2.97171e-20)
(0.998372 -0.00108556 -6.06804e-20)
(0.998359 -0.00125434 4.817e-20)
(0.998345 -0.00143733 6.6798e-20)
(0.99833 -0.00163844 9.22845e-21)
(0.998313 -0.00185654 -2.36034e-20)
(0.998295 -0.00209746 1.38121e-20)
(0.998276 -0.00236028 1.0705e-20)
(0.998254 -0.00264546 -3.97982e-20)
(0.998229 -0.00295111 -1.98418e-20)
(0.998202 -0.00328175 -7.43874e-20)
(0.998171 -0.00364449 -3.46815e-20)
(0.998139 -0.00403832 -1.92739e-21)
(0.998102 -0.00446631 6.45532e-20)
(0.99806 -0.00492837 -6.7801e-20)
(0.998014 -0.00542231 3.63511e-20)
(0.997961 -0.0059488 2.49526e-20)
(0.997902 -0.0065064 3.6479e-23)
(0.997836 -0.00708956 -3.28301e-19)
(0.997765 -0.00769202 -4.39433e-19)
(0.997689 -0.00830624 -4.78618e-19)
(0.997613 -0.00892203 7.73177e-19)
(0.997541 -0.00952842 -2.21315e-19)
(0.997483 -0.010113 -3.51871e-19)
(0.997448 -0.0106647 1.27635e-19)
(0.997452 -0.011173 -7.40445e-19)
(0.997505 -0.0116322 3.0812e-19)
(0.99763 -0.0120421 4.33488e-19)
(0.997837 -0.0124049 -1.80839e-19)
(0.998137 -0.0127218 3.32395e-19)
(0.998535 -0.0130072 -2.54114e-19)
(0.999039 -0.0132758 -4.12842e-19)
(0.999629 -0.0135442 -9.35702e-19)
(1.0004 -0.0138644 -2.78421e-18)
(1.00086 -0.0133705 -3.6037e-18)
(1.00125 -0.0139222 5.52375e-18)
(0.998184 0.000503358 -1.19714e-21)
(0.998197 0.000516154 1.65488e-21)