/*--------------------------------*- C++ -*----------------------------------*\
  =========                 |
  \\      /  F ield         | OpenFOAM: The Open Source CFD Toolbox
   \\    /   O peration     | Website:  https://openfoam.org
    \\  /    A nd           | Version:  6.0
     \\/     M anipulation  |
\*---------------------------------------------------------------------------*/
FoamFile
{
    version     2.0;
    format      ascii;
    class       volScalarField;
    location    "13";
    object      p;
}
// * * * * * * * * * * * * * * * * * * * * * * * * * * * * * * * * * * * * * //

dimensions      [0 2 -2 0 0 0 0];

internalField   nonuniform List<scalar> 
4920
(
0.0191306
0.0192729
0.01947
0.0197385
0.020105
0.0205965
0.0212509
0.0220995
0.0231498
0.0243294
0.0253936
0.0257898
0.0245382
0.0209882
0.017161
0.0192658
0.0194091
0.0196101
0.0198845
0.0202578
0.0207589
0.0214264
0.0223026
0.0234179
0.0247528
0.0261743
0.0272887
0.0272211
0.0255465
0.0219007
0.0195861
0.0197322
0.0199415
0.0202286
0.0206187
0.0211396
0.0218303
0.0227345
0.023884
0.0252653
0.0267384
0.0278972
0.0276893
0.0256141
0.0206014
0.0201092
0.0202545
0.0204662
0.0207628
0.02117
0.0217157
0.022437
0.0233787
0.0245798
0.0260333
0.0276182
0.0289363
0.0287654
0.0262573
0.0210278
0.0208725
0.0210238
0.0212364
0.0215312
0.0219398
0.0224949
0.0232392
0.0242222
0.0254915
0.0270658
0.0288496
0.0305196
0.0307688
0.0283148
0.0230417
0.0217555
0.0219219
0.0221481
0.0224574
0.0228817
0.0234575
0.024232
0.0252608
0.0266032
0.0282854
0.030249
0.0322248
0.0328618
0.0304895
0.0244769
0.0228125
0.0229983
0.0232414
0.0235658
0.0240074
0.0246062
0.0254153
0.0264939
0.0279007
0.0296699
0.0317245
0.0338229
0.0345691
0.0320324
0.0249431
0.0239645
0.0241696
0.0244377
0.0247942
0.0252727
0.0259152
0.0267764
0.0279174
0.0293972
0.0312315
0.0333376
0.0354408
0.0360694
0.0331077
0.0249973
0.025324
0.0255425
0.0258287
0.0262073
0.0267175
0.0274036
0.0283255
0.0295438
0.0311087
0.0330389
0.0351885
0.0372573
0.0376448
0.0341158
0.0252603
0.0267584
0.0269936
0.0273093
0.0277327
0.0283002
0.0290583
0.0300681
0.0313899
0.033077
0.0351238
0.0373839
0.0394826
0.0396364
0.0354554
0.0259776
0.0284921
0.0287362
0.029067
0.0295152
0.0301238
0.0309455
0.0320476
0.0334907
0.0353214
0.0375528
0.0399724
0.0421554
0.0420961
0.0372123
0.0271695
0.0303278
0.0305976
0.030968
0.0314728
0.0321521
0.0330643
0.0342808
0.0358675
0.0378843
0.0403272
0.0429965
0.0453652
0.0451568
0.0394814
0.0287739
0.032491
0.032777
0.033172
0.0337157
0.0344545
0.035454
0.0367928
0.0385447
0.0407707
0.0435023
0.0464527
0.0490426
0.0486656
0.0421081
0.0306649
0.0347969
0.0351126
0.0355499
0.0361569
0.0369794
0.0380915
0.0395802
0.041527
0.0440147
0.0470564
0.0503697
0.0532511
0.0527151
0.0450994
0.032832
0.0373948
0.0377432
0.0382199
0.0388804
0.0397811
0.041008
0.0426602
0.0448283
0.0476065
0.0510229
0.0547247
0.0578907
0.0571133
0.048269
0.0351308
0.0400188
0.0404226
0.0409735
0.0417363
0.0427634
0.0441513
0.0460058
0.0484332
0.0515447
0.0553788
0.0595528
0.0630663
0.0620077
0.0517048
0.0376562
0.0428691
0.0433378
0.0439635
0.0448236
0.0459785
0.047537
0.0496127
0.052334
0.0558384
0.060172
0.0648603
0.0686915
0.0671925
0.0551832
0.0402143
0.0458306
0.0463766
0.0470988
0.0480852
0.0493983
0.0511538
0.0534958
0.0565601
0.0605208
0.0654303
0.0707304
0.0749118
0.0728599
0.0588451
0.042986
0.0491471
0.0497538
0.0505516
0.0516468
0.0531102
0.0550777
0.0576962
0.0611505
0.0656471
0.071231
0.0771763
0.0816196
0.0787428
0.0624286
0.0457431
0.0528276
0.0534748
0.0543277
0.0555155
0.0571232
0.0593028
0.0622399
0.0661356
0.0712339
0.0775798
0.0842536
0.0889703
0.0850622
0.06618
0.0487478
0.0566705
0.0574015
0.0583408
0.0596437
0.0614102
0.0638278
0.0671055
0.0714908
0.0772887
0.0844949
0.0919382
0.0967892
0.091455
0.0697173
0.0516887
0.0606277
0.06145
0.0624955
0.0639371
0.0658902
0.0685718
0.0722386
0.0771922
0.0837622
0.0919358
0.10025
0.105216
0.0981248
0.073369
0.0548728
0.0644437
0.0653835
0.0665695
0.0682012
0.0704038
0.0734245
0.0775611
0.0831615
0.0906356
0.0999194
0.109144
0.114024
0.104593
0.0766747
0.0579779
0.0684906
0.0694986
0.0707758
0.072556
0.0749913
0.0783654
0.0830273
0.0893871
0.0978745
0.108407
0.11865
0.123359
0.11109
0.080086
0.061348
0.072169
0.0733174
0.0747628
0.0767752
0.0795225
0.0833346
0.0886178
0.0958182
0.105505
0.117449
0.128753
0.132917
0.117022
0.083063
0.0646582
0.076009
0.0772522
0.0788239
0.08103
0.0840766
0.0883456
0.0942952
0.102507
0.11351
0.127045
0.13947
0.142809
0.122613
0.0861853
0.0682684
0.079242
0.0806652
0.082465
0.0849867
0.08845
0.0932898
0.100068
0.109387
0.121966
0.137268
0.150792
0.152617
0.127182
0.0888894
0.0718408
0.0830999
0.084535
0.0863887
0.0890617
0.092849
0.0982531
0.105902
0.116558
0.13085
0.148078
0.162696
0.162364
0.131024
0.091903
0.0756948
0.0860336
0.0876372
0.0897178
0.0927365
0.097013
0.103131
0.11184
0.123924
0.140228
0.159596
0.175109
0.171455
0.13341
0.0946552
0.0795272
0.089433
0.0911069
0.0932987
0.0965183
0.101192
0.108002
0.117793
0.131573
0.150019
0.17167
0.187893
0.179793
0.134754
0.0980122
0.083587
0.0915586
0.0934737
0.0959965
0.0996824
0.104962
0.112631
0.123719
0.139262
0.160303
0.184484
0.200892
0.186638
0.134371
0.101391
0.0875865
0.0944185
0.0963586
0.0989539
0.10282
0.108532
0.117002
0.129388
0.147121
0.170895
0.197714
0.21379
0.19183
0.13292
0.105705
0.0916236
0.0962454
0.0983153
0.101121
0.105335
0.111566
0.120919
0.134824
0.1548
0.181952
0.21168
0.226269
0.194579
0.129876
0.110389
0.0955189
0.0984912
0.100471
0.103251
0.107556
0.114176
0.124347
0.139876
0.162723
0.19323
0.225815
0.23779
0.194795
0.126206
0.116299
0.0991779
0.0994368
0.101502
0.104437
0.10905
0.116125
0.127431
0.144819
0.17038
0.205087
0.240586
0.247881
0.191892
0.121569
0.122791
0.102496
0.100919
0.102801
0.105673
0.110317
0.117964
0.130087
0.149402
0.178547
0.216982
0.255054
0.255824
0.186037
0.117155
0.130472
0.10518
0.101094
0.103041
0.106018
0.110985
0.118833
0.132237
0.153783
0.185868
0.229469
0.269695
0.261053
0.177055
0.112817
0.138702
0.107278
0.10063
0.102307
0.105171
0.110079
0.11864
0.133148
0.157041
0.19368
0.241568
0.282945
0.262583
0.165363
0.109696
0.147697
0.108272
0.0978964
0.0994179
0.102154
0.107286
0.116281
0.132671
0.15944
0.199817
0.254034
0.29509
0.260046
0.151343
0.107647
0.15678
0.108349
0.0929122
0.0939822
0.0965307
0.101767
0.111903
0.129754
0.160125
0.206194
0.265047
0.303919
0.252648
0.135774
0.107531
0.165811
0.106934
0.0841215
0.0850068
0.0874787
0.0931509
0.10385
0.12471
0.158871
0.209516
0.275411
0.309484
0.240362
0.119417
0.109011
0.174214
0.104343
0.0726189
0.0726853
0.074628
0.0801727
0.0923691
0.11552
0.155014
0.212628
0.28221
0.308976
0.222581
0.102993
0.112289
0.181542
0.0999641
0.056216
0.0551313
0.056245
0.0617438
0.0749591
0.102248
0.147166
0.210629
0.286311
0.303303
0.200989
0.087718
0.11679
0.187441
0.0942564
0.032737
0.0301968
0.0302077
0.0356948
0.0507043
0.0807575
0.134704
0.206678
0.284037
0.289392
0.17648
0.0749571
0.122444
0.191558
0.0868444
0.000584891
-0.00406135
-0.00540633
-0.000520274
0.0165638
0.0530474
0.115194
0.194902
0.275616
0.267289
0.147933
0.0631093
0.1276
0.19378
0.0782829
-0.042637
-0.0500658
-0.0537672
-0.0472484
-0.0255946
0.0147805
0.0888425
0.177222
0.255877
0.241159
0.123185
0.0521526
0.130088
0.193321
0.0684667
-0.0989119
-0.109779
-0.113223
-0.104889
-0.0775293
-0.0323647
0.0474862
0.139347
0.227657
0.220261
0.107245
0.0388632
0.12735
0.189476
0.057574
-0.167828
-0.181936
-0.186978
-0.172828
-0.139162
-0.0911969
-0.0306346
0.0635713
0.19149
0.206297
0.0884862
0.0178222
0.118288
0.18203
0.0461519
-0.251716
-0.269705
-0.270556
-0.250519
-0.217507
-0.188912
-0.181923
-0.0727677
0.139127
0.175618
0.0474518
-0.0188068
0.10037
0.171415
0.0347245
-0.348905
-0.364415
-0.361919
-0.35042
-0.337964
-0.364417
-0.415717
-0.265507
0.0647162
0.109645
-0.0117843
-0.0680581
0.0741041
0.157949
0.0251518
-0.47382
-0.493238
-0.497818
-0.51451
-0.595059
-0.676449
-0.759358
-0.497445
-0.0724887
-0.0214978
-0.0817555
-0.121506
0.0421669
0.141956
0.0170721
-0.658607
-0.697891
-0.754201
-0.854893
-1.12567
-1.27503
-1.30259
-0.836404
-0.368273
-0.281793
-0.15647
-0.166386
0.0134924
0.128946
0.0124226
-0.917559
-1.00819
-1.17928
-1.48954
-1.9095
-2.0311
-2.05837
-1.3962
-0.818816
-0.666764
-0.226808
-0.199865
-0.00788047
0.121815
0.0114633
-1.18367
-1.3254
-1.62686
-2.1388
-2.54782
-2.7472
-2.77784
-1.79564
-1.08776
-1.01769
-0.258539
-0.20259
-0.0108061
0.123753
0.0156276
-1.30321
-1.48901
-1.87291
-2.44695
-2.94725
-3.47803
-2.70676
-1.91734
-1.12798
-1.11927
-0.238759
-0.156151
0.0136545
0.135551
0.0244289
-1.10718
-1.41539
-1.8513
-2.37031
-2.97968
-4.45095
-2.00007
-1.84013
-0.83272
-0.750354
-0.127918
0.00702816
0.0679112
0.155011
0.037026
-0.49082
-0.897458
-1.23901
-1.38364
-1.50825
-2.58279
-0.353817
-0.583997
0.220793
-0.0453518
0.110432
0.270597
0.126892
0.174474
0.0494608
0.365516
0.182024
0.275665
1.17988
2.76503
4.26353
3.23137
2.03618
1.12884
0.508677
0.347431
0.460872
0.1714
0.189054
0.0583126
1.33012
1.66664
2.44312
4.21037
6.8495
8.3706
5.96521
3.9837
1.30998
0.711058
0.437942
0.541554
0.199673
0.196687
0.0619573
2.54458
3.46108
4.65047
6.66619
9.15139
9.48299
6.78287
4.28468
1.03072
0.677479
0.448858
0.567489
0.209923
0.199954
0.0632653
0.0392176
0.0394184
0.0372711
0.0354045
0.0343213
0.0335265
0.0326518
0.0316814
0.0309249
0.0303237
0.0250258
0.0223895
0.0197378
0.0182988
0.0174977
0.016587
0.0152554
0.0136027
0.0117267
0.00941184
0.0209087
0.0216443
0.0226152
0.0232065
0.0231081
0.0223764
0.0212734
0.020145
0.0194989
0.0191172
0.0218726
0.0223631
0.0221887
0.021021
0.0191858
0.0171826
0.0153659
0.0139424
0.0130674
0.0122152
0.0219407
0.0210527
0.0194578
0.017441
0.0154547
0.0138859
0.0128982
0.0124959
0.0127819
0.0132706
0.0200889
0.0183489
0.0163381
0.0144643
0.0130274
0.0121958
0.0119597
0.0122067
0.0129762
0.0137685
0.0176925
0.0156655
0.0138013
0.0123351
0.0114003
0.011044
0.0111929
0.0116946
0.0125754
0.013355
0.0159492
0.0138475
0.0121866
0.01098
0.0102907
0.0101359
0.0104453
0.0110642
0.0120312
0.0128585
0.0151
0.0129049
0.011201
0.00996993
0.00923173
0.00906518
0.00942696
0.0101418
0.0113258
0.0123939
0.0150354
0.0125078
0.0104898
0.00888329
0.00782733
0.00746323
0.00778434
0.00863937
0.0101614
0.0115973
0.0154555
0.0124413
0.00978904
0.00750273
0.00584871
0.0050883
0.00528354
0.00625744
0.00822111
0.0102166
0.0161991
0.0125106
0.00895988
0.00569309
0.00317958
0.00183694
0.00180633
0.00290463
0.00547686
0.00815943
0.0171191
0.0126135
0.00793459
0.0034439
-0.000149523
-0.00223074
-0.00256094
-0.00130949
0.00198894
0.0056171
0.0182151
0.0127431
0.00672853
0.000775444
-0.00411802
-0.00711
-0.00782831
-0.00640044
-0.00215996
0.00260223
0.0194534
0.0129184
0.0054282
-0.00218372
-0.00858309
-0.0126715
-0.0138952
-0.0122871
-0.00700321
-0.000855248
0.0208465
0.0131722
0.00404283
-0.00545428
-0.0136212
-0.0190378
-0.0208864
-0.0190994
-0.0125731
-0.00482358
0.0223926
0.0135791
0.00270695
-0.00885637
-0.0190454
-0.0260091
-0.0286195
-0.026673
-0.018793
-0.00923435
0.02412
0.0141249
0.00134374
-0.0125538
-0.025064
-0.0338066
-0.0372574
-0.0350973
-0.0256092
-0.0139525
0.0260534
0.0148882
0.000136353
-0.0163033
-0.0313588
-0.0420425
-0.0464272
-0.0440028
-0.0327444
-0.0187638
0.0281284
0.0157567
-0.00122823
-0.0204957
-0.0383335
-0.0510635
-0.0562872
-0.0533949
-0.0399948
-0.0232283
0.030388
0.01683
-0.00251024
-0.0247753
-0.0455272
-0.0603424
-0.0663659
-0.0628903
-0.0471622
-0.0275788
0.0328237
0.0179312
-0.00414338
-0.0297162
-0.0535326
-0.070393
-0.0769732
-0.0725775
-0.0540874
-0.0312435
0.0354832
0.0192351
-0.00576261
-0.03479
-0.0617145
-0.0805632
-0.087611
-0.0821579
-0.0607478
-0.0345894
0.0383593
0.0204388
-0.00801016
-0.0408039
-0.0708486
-0.0914968
-0.0986213
-0.0916587
-0.0667955
-0.0367583
0.0414309
0.0217612
-0.0103876
-0.0470473
-0.080166
-0.102486
-0.109542
-0.100946
-0.0724757
-0.0385755
0.0447033
0.0227988
-0.013611
-0.054438
-0.0905335
-0.11423
-0.120802
-0.110062
-0.0774889
-0.0391432
0.0481065
0.023851
-0.0170543
-0.0620729
-0.101012
-0.125933
-0.131886
-0.11897
-0.0822351
-0.0394746
0.0515622
0.0243906
-0.0215499
-0.070894
-0.112389
-0.138124
-0.142996
-0.12748
-0.0860997
-0.0384354
0.0550056
0.024742
-0.026379
-0.0799166
-0.123697
-0.150024
-0.153662
-0.135601
-0.0896148
-0.0371869
0.0582536
0.0242746
-0.0324665
-0.0901121
-0.135688
-0.162076
-0.163995
-0.143067
-0.0920661
-0.0344594
0.0612881
0.0234098
-0.0389637
-0.100403
-0.147383
-0.173566
-0.173626
-0.149991
-0.0941232
-0.0314952
0.0638333
0.0215004
-0.0467603
-0.111622
-0.159322
-0.184712
-0.18246
-0.155976
-0.0949216
-0.0269365
0.0659283
0.0190078
-0.0549705
-0.122754
-0.170692
-0.195014
-0.190349
-0.161277
-0.0952568
-0.0220908
0.0671586
0.0152525
-0.0644398
-0.134548
-0.181905
-0.204574
-0.197125
-0.165421
-0.0942659
-0.0156287
0.067655
0.0108104
-0.0742157
-0.146056
-0.192328
-0.213132
-0.202865
-0.168764
-0.0929061
-0.00901146
0.0669969
0.00519854
-0.0848908
-0.157742
-0.202082
-0.220576
-0.207266
-0.170783
-0.0901993
-0.00102584
0.0653801
-0.00102256
-0.0956037
-0.168868
-0.210824
-0.226892
-0.210595
-0.171915
-0.0870093
0.00686836
0.0623431
-0.00819454
-0.10673
-0.17969
-0.218512
-0.231868
-0.212493
-0.171547
-0.0824933
0.0158309
0.0581687
-0.0157538
-0.117538
-0.189693
-0.225105
-0.235774
-0.213449
-0.17027
-0.0776491
0.0244668
0.0525666
-0.0236486
-0.127975
-0.198788
-0.230307
-0.238293
-0.213037
-0.167548
-0.0717502
0.0337815
0.0458004
-0.0314975
-0.137493
-0.206618
-0.234225
-0.239779
-0.211779
-0.164035
-0.0657338
0.0425654
0.0377667
-0.0390061
-0.145739
-0.21283
-0.236396
-0.239854
-0.209152
-0.159256
-0.0589653
0.0517111
0.028699
-0.046072
-0.152518
-0.217368
-0.23716
-0.238995
-0.20566
-0.153968
-0.0523447
0.0601383
0.018952
-0.051899
-0.157215
-0.219794
-0.236108
-0.236934
-0.200931
-0.147868
-0.0454097
0.0685795
0.00911334
-0.0563115
-0.159851
-0.220286
-0.233695
-0.234166
-0.195549
-0.14163
-0.038893
0.0761844
0.00016511
-0.0581168
-0.159791
-0.218535
-0.229658
-0.230244
-0.18932
-0.135121
-0.032482
0.0835322
-0.00765728
-0.0576687
-0.157534
-0.215059
-0.224576
-0.225533
-0.182874
-0.128913
-0.0267626
0.0899321
-0.0135121
-0.0541131
-0.152881
-0.209949
-0.218543
-0.219869
-0.176163
-0.123003
-0.021542
0.0958071
-0.0171449
-0.0479522
-0.146535
-0.203872
-0.212265
-0.213773
-0.169748
-0.117816
-0.0172252
0.100678
-0.0178229
-0.0389402
-0.138837
-0.197042
-0.205819
-0.207583
-0.163878
-0.113545
-0.0137508
0.104817
-0.0165059
-0.0285024
-0.131024
-0.190466
-0.200013
-0.202094
-0.159033
-0.110469
-0.0113747
0.107879
-0.0127465
-0.0168632
-0.123083
-0.184461
-0.195483
-0.197964
-0.155609
-0.108852
-0.0101131
0.110056
-0.0072855
-0.00583668
-0.11591
-0.179373
-0.192447
-0.195496
-0.153769
-0.108741
-0.0100451
0.111173
0.000163086
0.00443849
-0.110036
-0.175674
-0.191169
-0.194871
-0.153597
-0.110164
-0.0110973
0.111408
0.0090372
0.0139529
-0.104955
-0.173082
-0.191183
-0.195712
-0.154777
-0.112755
-0.0130403
0.11087
0.0186107
0.0224836
-0.100297
-0.171161
-0.191847
-0.197355
-0.15679
-0.115903
-0.0154238
0.110082
0.0269639
0.0288527
-0.0967637
-0.170083
-0.192916
-0.199329
-0.1591
-0.118935
-0.0177094
0.10948
0.0326971
0.0325779
-0.0946601
-0.169884
-0.194146
-0.201242
-0.161185
-0.121236
-0.0193026
0.109465
0.0347856
0.0339479
-0.0939822
-0.170328
-0.195252
-0.202722
-0.162591
-0.122535
-0.0199044
0.109819
0.0352924
0.0343942
-0.0938965
-0.170744
-0.195959
-0.203473
-0.163243
-0.122982
-0.0198002
0.110047
0.0327516
0.0330728
0.0332667
0.0334214
0.0333008
0.0326154
0.0312091
0.0291534
0.0266239
0.0238165
0.0209072
0.0179956
0.0151635
0.0123787
0.0095514
0.00570091
0.0100868
0.0111357
0.0127041
0.014267
0.015396
0.0159626
0.0159696
0.0155389
0.0147755
0.0137589
0.0125403
0.0111629
0.00960289
0.00783676
0.00564946
0.00293904
0.0228139
0.0238349
0.0249519
0.0258942
0.0263184
0.0260681
0.0251006
0.023527
0.0214852
0.0191094
0.0165621
0.0139153
0.0112134
0.00842528
0.00532441
0.00210125
0.0142061
0.0151734
0.0163628
0.0174977
0.0182675
0.0185783
0.018404
0.0178514
0.0169874
0.0158633
0.014454
0.0127541
0.0107152
0.00830254
0.00532895
0.00209437
0.0160598
0.0168711
0.0176101
0.018168
0.0184195
0.0183445
0.0179284
0.0172593
0.0164168
0.0153887
0.0141493
0.0126068
0.0106638
0.00827008
0.00526687
0.0019834
0.0154171
0.0158917
0.0162966
0.0166133
0.0167453
0.0166795
0.0163532
0.0158399
0.0152125
0.0144849
0.0135725
0.0123399
0.010627
0.00833705
0.00532957
0.00189211
0.0140328
0.0142686
0.0144927
0.014735
0.0148868
0.0149211
0.0147455
0.0144154
0.0140105
0.0135376
0.0129204
0.0119815
0.0105094
0.00836049
0.00540429
0.00183667
0.013086
0.0131914
0.01333
0.0135339
0.0136816
0.0137243
0.0135757
0.0133021
0.0130084
0.0127213
0.0123428
0.011664
0.0104155
0.0084105
0.00551605
0.00181368
0.0125366
0.0125823
0.0126542
0.0127917
0.0128713
0.0128492
0.0126554
0.012373
0.0121332
0.0119855
0.0118259
0.0113869
0.0103456
0.00847103
0.0056387
0.00181055
0.0120893
0.0122057
0.0123129
0.0124305
0.0124247
0.0122725
0.0119499
0.0115813
0.0113452
0.0113264
0.0113696
0.0111649
0.0103321
0.00858843
0.00581618
0.00184167
0.0113262
0.0115783
0.0117696
0.0119022
0.0118421
0.011597
0.0111863
0.0107687
0.0106048
0.0107251
0.0109794
0.0109918
0.0103475
0.00871727
0.00600401
0.00189329
0.0103181
0.010778
0.0111048
0.0112837
0.0112
0.010886
0.0103996
0.0100081
0.00990908
0.0102003
0.0106646
0.0108942
0.0104436
0.00891911
0.0062505
0.00197542
0.00916059
0.0099629
0.0105408
0.0108225
0.0107215
0.010299
0.00973463
0.00929618
0.00928515
0.00973851
0.0104065
0.0108517
0.0105793
0.00914174
0.0065103
0.00207438
0.0080809
0.00927127
0.0101096
0.0104813
0.0103465
0.00979986
0.00910131
0.00863202
0.00869272
0.00932616
0.0102349
0.0109195
0.0108191
0.00944778
0.0068227
0.00219021
0.00684243
0.00856977
0.00979703
0.0103276
0.0101614
0.00946027
0.00859208
0.00804341
0.00817127
0.00899267
0.0101465
0.0110624
0.0111061
0.00977625
0.00714246
0.0023114
0.00557772
0.00787635
0.0095085
0.0102174
0.0100713
0.00925876
0.00824351
0.00760717
0.0077934
0.00881252
0.0102193
0.0113615
0.0115119
0.0101862
0.00749748
0.00242676
0.00415097
0.00718071
0.00938275
0.0103876
0.0103062
0.00937434
0.00815515
0.0074022
0.00761198
0.00880489
0.0104404
0.0117663
0.0119706
0.0106149
0.00784728
0.00253002
0.00261709
0.00645759
0.00930021
0.0106538
0.0106618
0.00961559
0.0082265
0.00737647
0.00765886
0.00904119
0.0108906
0.0123487
0.0125403
0.0111039
0.00820061
0.00259911
0.00121617
0.00582427
0.00921974
0.0108155
0.0108699
0.00976895
0.00834466
0.00751873
0.00791049
0.00947541
0.0114983
0.013028
0.0131476
0.0115971
0.00853126
0.00264018
-2.49466e-05
0.0051454
0.00892783
0.0107268
0.0109234
0.00996412
0.00863229
0.00793289
0.00848651
0.0102166
0.0123568
0.0138722
0.0138409
0.012121
0.00883221
0.00262279
-0.00117515
0.00468153
0.00899149
0.0110694
0.0114279
0.0105795
0.00934645
0.00873487
0.00938174
0.0112146
0.0133852
0.0148003
0.014555
0.0126327
0.00909331
0.00256556
-0.00208039
0.00440436
0.00923082
0.0116033
0.0121775
0.0114499
0.0103562
0.00988658
0.0106669
0.0125599
0.0146466
0.0158485
0.0153095
0.0131317
0.00928843
0.00243199
-0.00245604
0.00454094
0.00975284
0.0123583
0.0130606
0.0125627
0.011643
0.0113343
0.0122175
0.0141097
0.0160211
0.016932
0.0160519
0.013595
0.00942788
0.00225487
-0.00247558
0.00490358
0.0104556
0.0132933
0.0142708
0.0139626
0.013318
0.0132187
0.0141793
0.0159751
0.0175681
0.0180733
0.0167822
0.0140011
0.0094708
0.00199357
-0.00190346
0.00583672
0.0116971
0.0147821
0.015971
0.0160087
0.0155163
0.0155035
0.0164209
0.0180126
0.0191805
0.0192102
0.0174728
0.0143512
0.00944758
0.00169291
-0.000870206
0.00715462
0.0133608
0.0167999
0.0183837
0.018586
0.0183477
0.0183642
0.0190967
0.020309
0.0208821
0.0203264
0.0180892
0.014599
0.00930611
0.00131309
0.000850333
0.00919459
0.0158032
0.0195912
0.0214616
0.0220759
0.0217892
0.0216547
0.0220242
0.0227271
0.0225989
0.0214
0.0186393
0.0147741
0.00909687
0.00090754
0.00326451
0.0118773
0.0187985
0.0230521
0.0253965
0.0261003
0.0259733
0.0255824
0.0253731
0.0253649
0.0243521
0.0223996
0.0190689
0.0148131
0.00875956
0.000437063
0.00635623
0.0151948
0.0226028
0.0272275
0.0299455
0.0310887
0.0307158
0.0298806
0.0289185
0.0280887
0.0260985
0.0233433
0.0194216
0.0147725
0.00836126
-4.07238e-05
0.0104341
0.0195172
0.0271475
0.032277
0.0354126
0.0365584
0.0361771
0.0347301
0.0327598
0.0309251
0.027795
0.0241499
0.0196117
0.0145749
0.00784093
-0.000560384
0.0154828
0.0248113
0.0328876
0.0382363
0.0416623
0.0430372
0.0420439
0.0397773
0.0366561
0.0337594
0.0294349
0.0248769
0.0197152
0.0142999
0.00727755
-0.00106538
0.02169
0.0312023
0.0394579
0.0452427
0.0487936
0.0498471
0.0484473
0.0451507
0.0406705
0.0365845
0.030938
0.0254096
0.0196222
0.0138585
0.00660931
-0.00158696
0.0288405
0.0386002
0.0472574
0.0530721
0.0566297
0.0574283
0.0549454
0.0504812
0.0445867
0.0393255
0.0323437
0.0258465
0.0194383
0.0133483
0.00592144
-0.00207307
0.0374066
0.0473648
0.0560553
0.0619411
0.0651086
0.0650919
0.0616961
0.0558754
0.0484245
0.0419204
0.0335209
0.0260391
0.0190383
0.0126799
0.00515841
-0.00254978
0.0473738
0.0574138
0.0661189
0.071615
0.0742214
0.0733181
0.068323
0.0610693
0.0520642
0.0443721
0.034571
0.0261287
0.0185544
0.0119641
0.00440554
-0.0029744
0.0582405
0.0684726
0.0770018
0.082031
0.0837221
0.0814553
0.0750183
0.0661779
0.0555167
0.0465932
0.0353293
0.0259403
0.0178476
0.0111103
0.00361185
-0.00336973
0.0701599
0.0804128
0.0887028
0.0930554
0.0936657
0.0898985
0.0814507
0.0710188
0.0587389
0.0486496
0.0359496
0.0256487
0.0170678
0.0102349
0.00285778
-0.00370288
0.0827964
0.0932162
0.101083
0.104491
0.103653
0.0980607
0.0877487
0.0756292
0.0616699
0.0503982
0.0362336
0.0250658
0.0160778
0.009256
0.00210001
-0.00399288
0.09638
0.106688
0.113978
0.116247
0.113774
0.106189
0.0936471
0.0799151
0.0643492
0.0519697
0.0363798
0.0243907
0.0150377
0.00828853
0.00140778
-0.00421879
0.110277
0.120651
0.127102
0.127901
0.123507
0.113816
0.0992234
0.0838632
0.0666713
0.0531859
0.0361628
0.023422
0.0138111
0.00725762
0.000742796
-0.00439705
0.124721
0.134794
0.140262
0.13941
0.132959
0.121121
0.104323
0.0874728
0.0687502
0.0542333
0.0358179
0.0223756
0.0125611
0.00627169
0.000161933
-0.00451601
0.139077
0.148979
0.153125
0.150316
0.141704
0.127813
0.108949
0.0906516
0.0704186
0.0549007
0.0351176
0.0210649
0.0111703
0.0052688
-0.000367266
-0.00458889
0.153472
0.162893
0.165591
0.160687
0.149877
0.133983
0.113097
0.0935196
0.0718782
0.0554313
0.0343146
0.0197058
0.00979469
0.00434406
-0.000803728
-0.00461265
0.167503
0.176405
0.177356
0.170148
0.157238
0.139561
0.116719
0.0959366
0.0729083
0.0555352
0.0331784
0.018119
0.00833033
0.00344436
-0.00117628
-0.00459763
0.181234
0.189426
0.188424
0.178828
0.16394
0.14457
0.119923
0.0981126
0.0737763
0.055445
0.0319719
0.0165114
0.00691997
0.00264925
-0.00145711
-0.00454575
0.194513
0.201768
0.198475
0.186465
0.169894
0.149066
0.122544
0.0998239
0.074146
0.0548505
0.0304935
0.0147406
0.00548428
0.00191469
-0.00167135
-0.00446395
0.207311
0.213397
0.207507
0.193098
0.175102
0.15289
0.124805
0.101372
0.0742882
0.0540291
0.0290309
0.0130081
0.00414957
0.00130097
-0.0018041
-0.00435772
0.219493
0.224114
0.215283
0.198683
0.179648
0.156246
0.126433
0.102389
0.0738034
0.0526764
0.027345
0.0112301
0.00286642
0.000771469
-0.00187746
-0.00423079
0.231012
0.233902
0.221775
0.203203
0.183415
0.158837
0.127742
0.103176
0.0730305
0.0511142
0.0256377
0.00960354
0.00175225
0.000371768
-0.00188452
-0.00408975
0.241905
0.242688
0.226911
0.206845
0.186639
0.161008
0.128363
0.103295
0.0715613
0.0490581
0.0237609
0.00805152
0.000769824
6.97494e-05
-0.00184371
-0.00393514
0.252553
0.250478
0.230557
0.209437
0.189025
0.162338
0.128722
0.103118
0.0697964
0.0468504
0.0219036
0.00670364
-4.08037e-06
-0.0001082
-0.00175385
-0.00377394
0.263039
0.257255
0.232868
0.211371
0.190941
0.163317
0.128359
0.102153
0.0672986
0.0442202
0.0199584
0.00548788
-0.000610354
-0.000195625
-0.00163014
-0.00360397
0.273376
0.262631
0.233456
0.212199
0.191887
0.163419
0.127808
0.100803
0.0644474
0.0414917
0.0181187
0.00449894
-0.0010045
-0.000180572
-0.0014736
-0.00343179
0.283416
0.266479
0.232779
0.212504
0.192358
0.163258
0.126599
0.0985777
0.0608359
0.0384251
0.0162982
0.00367915
-0.00123099
-9.78612e-05
-0.00129635
-0.00325299
0.292931
0.268113
0.230215
0.211618
0.19179
0.162296
0.125247
0.0958899
0.0568353
0.035314
0.0146631
0.00309548
-0.00127061
5.68427e-05
-0.00109943
-0.00307398
0.302557
0.268422
0.22695
0.210337
0.190749
0.161097
0.123147
0.0923196
0.0521513
0.0319295
0.0131095
0.00268404
-0.00117613
0.000248872
-0.000892005
-0.00288876
0.310574
0.266917
0.223084
0.208223
0.188606
0.158919
0.120578
0.08831
0.0474248
0.0286025
0.0117433
0.00246495
-0.00095325
0.000480708
-0.000673614
-0.00270363
0.310891
0.261661
0.218865
0.205856
0.185826
0.156269
0.117008
0.0838377
0.042885
0.0253619
0.0104551
0.0023392
-0.000675429
0.000717534
-0.000451266
-0.00251152
0.298785
0.251617
0.211642
0.201757
0.181512
0.15276
0.112803
0.0795754
0.0390996
0.0226248
0.0093524
0.00230264
-0.000359778
0.000966044
-0.00022228
-0.002319
0.276823
0.239488
0.202426
0.195927
0.176235
0.148651
0.108057
0.075676
0.0359567
0.0202366
0.00831878
0.00226281
-7.5258e-05
0.00119637
8.47578e-06
-0.00211818
0.243479
0.222771
0.192467
0.188065
0.170086
0.143922
0.103466
0.0724713
0.0334705
0.0182471
0.00740446
0.00223752
0.000190965
0.00142623
0.000245674
-0.00191585
0.190742
0.201286
0.184283
0.179513
0.16377
0.138952
0.0993937
0.0699835
0.0314831
0.0164512
0.00645498
0.00213141
0.000382438
0.00162148
0.000477177
-0.00170754
0.127664
0.178558
0.177911
0.172425
0.157878
0.134219
0.0963022
0.0683879
0.0301399
0.0149561
0.00552481
0.00197
0.00052577
0.00179564
0.000697818
-0.00150668
0.0843096
0.154635
0.173981
0.168294
0.152999
0.130288
0.094689
0.0677764
0.0294719
0.0137388
0.00453329
0.00167311
0.000569439
0.00191824
0.000896802
-0.00130871
0.0730109
0.132885
0.171306
0.166518
0.149758
0.128053
0.0947429
0.0681044
0.0295048
0.0129167
0.00358572
0.00130519
0.000565961
0.00202446
0.00108399
-0.00111962
0.0765981
0.122378
0.168172
0.165305
0.148017
0.12785
0.0964499
0.0692926
0.0301955
0.0124867
0.0026472
0.000798078
0.000455352
0.00208481
0.00125314
-0.000931825
0.082502
0.116958
0.161114
0.162234
0.14738
0.129464
0.0990078
0.0709368
0.0313309
0.01247
0.00182929
0.000228946
0.000289822
0.00213392
0.00141464
-0.00075136
0.0883113
0.112533
0.150747
0.157935
0.147955
0.131684
0.101705
0.0726473
0.0327805
0.0128362
0.00112468
-0.000464251
-7.70952e-06
0.00213136
0.00155818
-0.000571937
0.0942231
0.110344
0.142068
0.154365
0.148701
0.133137
0.103597
0.073978
0.0342937
0.013527
0.000639221
-0.00118328
-0.000378301
0.0021104
0.00169337
-0.000400102
0.0994776
0.110225
0.135579
0.150591
0.148282
0.133396
0.104784
0.0750593
0.0359496
0.0145328
0.000394444
-0.00196126
-0.000900709
0.00202215
0.00180658
-0.000230515
0.103694
0.111214
0.130783
0.146356
0.146646
0.132771
0.105243
0.0757685
0.0375319
0.0157242
0.000447368
-0.00268781
-0.00150153
0.0019037
0.00190937
-6.91972e-05
0.107091
0.112821
0.127548
0.141985
0.14393
0.131207
0.105086
0.0761945
0.0391215
0.017113
0.000800048
-0.00338681
-0.00224963
0.00170145
0.00198605
8.89047e-05
0.11002
0.114792
0.12557
0.137659
0.140213
0.128723
0.104147
0.0761315
0.040454
0.0185163
0.00142926
-0.00396293
-0.0030507
0.00145896
0.00204975
0.000238342
0.112585
0.116738
0.124424
0.133625
0.135848
0.125395
0.102517
0.0756893
0.0416509
0.0199746
0.00232512
-0.00440632
-0.00394945
0.00112212
0.00208201
0.000383969
0.114682
0.118216
0.123466
0.129756
0.130965
0.121324
0.100201
0.0747461
0.0424926
0.0212747
0.00339889
-0.00464757
-0.00484204
0.000740581
0.00209851
0.000521472
0.115876
0.118624
0.12208
0.125938
0.12586
0.116752
0.0973199
0.0734427
0.0431402
0.0225083
0.00463674
-0.00467735
-0.0057517
0.000261937
0.00207736
0.00065558
0.115513
0.117566
0.11976
0.121806
0.120484
0.111752
0.0939868
0.0717193
0.0434094
0.0234743
0.00590771
-0.00447726
-0.0065753
-0.0002558
0.00203549
0.000782344
0.113404
0.114816
0.116299
0.117267
0.115047
0.106582
0.0902587
0.0696912
0.0434518
0.0242992
0.0072183
-0.00405358
-0.00731382
-0.000854195
0.00194728
0.000905399
0.109457
0.110502
0.111704
0.112164
0.109393
0.101149
0.0862505
0.0673113
0.0431194
0.0248057
0.00840787
-0.00345919
-0.00789233
-0.00146969
0.00183136
0.00102152
0.104068
0.104817
0.106092
0.106537
0.103592
0.0956274
0.0818987
0.064641
0.0425376
0.0251394
0.00951575
-0.00271476
-0.00830811
-0.00212968
0.00165988
0.00113278
0.097503
0.0981853
0.0997462
0.10039
0.0974583
0.0897998
0.0773268
0.061656
0.0415854
0.0251447
0.0103935
-0.00190944
-0.00852757
-0.00276576
0.00145569
0.0012359
0.0905414
0.0910976
0.092948
0.0938384
0.0910736
0.0838458
0.0724303
0.0583666
0.0403549
0.0249603
0.0111176
-0.00104526
-0.00854956
-0.00338703
0.00119398
0.00133024
0.0834881
0.0840213
0.0860381
0.0870852
0.0843917
0.0775765
0.0673716
0.0548179
0.0387738
0.0244589
0.0115588
-0.000229254
-0.00839478
-0.00393715
0.000901893
0.00141295
0.0768061
0.0771451
0.0791688
0.080111
0.0775456
0.0712771
0.062086
0.0510267
0.0369297
0.0237717
0.0118191
0.000552746
-0.00807178
-0.00441846
0.000560463
0.00148083
0.0702266
0.0704796
0.0722826
0.0730967
0.0706059
0.0648468
0.0568101
0.0471099
0.0348012
0.0227963
0.0117882
0.00118499
-0.0076456
-0.00479698
0.000202482
0.00153227
0.0640169
0.0640103
0.0654919
0.0660091
0.0637085
0.058599
0.0514716
0.0430443
0.0324274
0.0216337
0.0115678
0.00170511
-0.00712131
-0.00507025
-0.000179836
0.00156267
0.0579923
0.0577589
0.0587754
0.0590916
0.0569489
0.0523552
0.046209
0.0389116
0.0298091
0.0201963
0.0110627
0.00200514
-0.00659009
-0.00523789
-0.000554444
0.00157275
0.0522918
0.0517726
0.0523632
0.052329
0.0503122
0.0463011
0.040894
0.0346386
0.0269581
0.0185697
0.0103754
0.00215206
-0.00604071
-0.00529795
-0.000920588
0.0015586
0.0468103
0.0460966
0.0461945
0.0458676
0.0439019
0.0402645
0.0356423
0.030333
0.0239227
0.0167019
0.00943084
0.00205314
-0.0055713
-0.00527994
-0.0012519
0.00152495
0.0416074
0.0406924
0.0404074
0.0396752
0.0376732
0.0344442
0.0304029
0.0259542
0.020718
0.0146623
0.00832626