/*--------------------------------*- C++ -*----------------------------------*\
  =========                 |
  \\      /  F ield         | OpenFOAM: The Open Source CFD Toolbox
   \\    /   O peration     | Website:  https://openfoam.org
    \\  /    A nd           | Version:  6.0
     \\/     M anipulation  |
\*---------------------------------------------------------------------------*/
FoamFile
{
    version     2.0;
    format      ascii;
    class       surfaceScalarField;
    location    "13";
    object      phi;
}
// * * * * * * * * * * * * * * * * * * * * * * * * * * * * * * * * * * * * * //

dimensions      [0 3 -1 0 0 0 0];

internalField   nonuniform List<scalar> 
9714
(
-0.000107011
8.2364e-05
0.000112879
-9.8701e-05
0.000114496
-8.71198e-05
0.000159168
-7.09354e-05
0.000221283
-4.82981e-05
0.000307583
-1.65024e-05
0.000427423
2.82385e-05
0.000593587
9.11454e-05
0.000823394
0.000179262
0.00113908
0.00030178
0.00156617
0.000469624
0.00212512
0.000692907
0.00280291
0.000971642
0.00347419
0.00127105
0.00370511
0.0023348
0.0014426
-0.000100944
7.67876e-05
0.000106402
-9.3233e-05
0.000106743
-8.24882e-05
0.000148378
-6.74782e-05
0.000206249
-4.64801e-05
0.000286555
-1.69969e-05
0.000397921
2.44993e-05
0.000552079
8.28426e-05
0.000765038
0.000164565
0.00105733
0.000278198
0.00145252
0.000433825
0.00196948
0.000640785
0.00259593
0.000898947
0.00321594
0.00117388
0.00342998
0.00217112
0.00133704
-9.52604e-05
7.16132e-05
0.000100295
-8.81096e-05
9.95482e-05
-7.81424e-05
0.000138363
-6.42132e-05
0.000192296
-4.47303e-05
0.000267045
-1.7383e-05
0.000370557
2.10968e-05
0.000513588
7.51825e-05
0.000710939
0.000150936
0.000981565
0.000256252
0.00134718
0.000400471
0.00182525
0.000592208
0.00240419
0.000831359
0.00297678
0.0010866
0.00317475
0.00201583
0.00124213
-8.9821e-05
6.68258e-05
9.45236e-05
-8.31893e-05
9.28898e-05
-7.3953e-05
0.000129092
-6.10502e-05
0.000179375
-4.30009e-05
0.000248972
-1.7664e-05
0.000345203
1.79903e-05
0.000477924
6.81045e-05
0.000660815
0.000138285
0.000911366
0.000235861
0.00124959
0.000369478
0.00169163
0.000547102
0.00222657
0.000768716
0.00275514
0.00100584
0.00293759
0.00186961
0.00115187
-8.46794e-05
6.23886e-05
8.89837e-05
-7.85426e-05
8.67171e-05
-6.99939e-05
0.000120498
-5.80372e-05
0.000167399
-4.13129e-05
0.000232224
-1.78381e-05
0.000321713
1.51902e-05
0.000444887
6.16018e-05
0.000614392
0.000126597
0.000846361
0.000216956
0.00115922
0.00034071
0.00156787
0.000505228
0.00206206
0.000710537
0.00254983
0.000930617
0.0027175
0.00173335
0.00106701
-7.96792e-05
5.8292e-05
8.37196e-05
-7.39892e-05
8.10181e-05
-6.60827e-05
0.00011256
-5.50278e-05
0.000156334
-3.95657e-05
0.000216742
-1.78543e-05
0.000299986
1.27048e-05
0.000414319
5.56585e-05
0.000571429
0.000115812
0.00078619
0.000199456
0.00107556
0.00031403
0.0014533
0.00046637
0.00190974
0.000656505
0.00235972
0.000860693
0.00251342
0.00160558
0.000988559
-7.50274e-05
5.44937e-05
7.87084e-05
-6.97634e-05
7.57354e-05
-6.24541e-05
0.000105205
-5.22163e-05
0.000146085
-3.79041e-05
0.000202407
-1.78111e-05
0.000279878
1.04666e-05
0.000386033
5.02075e-05
0.000531678
0.000105867
0.000730519
0.000183267
0.000998147
0.000289315
0.00134725
0.000430355
0.00176871
0.000606422
0.00218362
0.000795826
0.00232396
0.00148527
0.00091618
-7.05962e-05
5.09862e-05
7.40635e-05
-6.57123e-05
7.08592e-05
-5.89551e-05
9.84167e-05
-4.94952e-05
0.000136622
-3.6274e-05
0.000189166
-1.77049e-05
0.000261294
8.44074e-06
0.000359879
4.5199e-05
0.00049491
9.66869e-05
0.000679014
0.0001683
0.000926517
0.000266444
0.00124911
0.000397018
0.00163817
0.000560079
0.00202062
0.000735735
0.00214852
0.00137224
0.000849002
-6.66107e-05
4.77263e-05
6.97456e-05
-6.20916e-05
6.63292e-05
-5.58423e-05
9.21141e-05
-4.70732e-05
0.000127844
-3.48276e-05
0.000176895
-1.76361e-05
0.000244085
6.5617e-06
0.000335673
4.05707e-05
0.00046089
8.82051e-05
0.000631362
0.000154467
0.00086024
0.0002453
0.00115828
0.000366198
0.00151728
0.000517247
0.00186953
0.000680112
0.00198556
0.00126585
0.000786424
-6.28691e-05
4.4711e-05
6.58263e-05
-5.86701e-05
6.21407e-05
-5.28843e-05
8.62884e-05
-4.47717e-05
0.00011973
-3.34495e-05
0.00016555
-1.75524e-05
0.000228171
4.82931e-06
0.000313282
3.62921e-05
0.000429417
8.03663e-05
0.000587271
0.000141683
0.000798905
0.00022576
0.0010742
0.000337717
0.00140538
0.00047768
0.00172967
0.000628662
0.00183487
0.00116655
0.000728115
-5.95307e-05
4.19051e-05
6.22145e-05
-5.56383e-05
5.82445e-05
-5.02777e-05
8.08732e-05
-4.27482e-05
0.000112196
-3.22505e-05
0.000155027
-1.75213e-05
0.000213424
3.20384e-06
0.00029255
3.23275e-05
0.000400284
7.31177e-05
0.000546463
0.000129871
0.000742133
0.000207716
0.000996369
0.000311418
0.00130168
0.000441147
0.00159987
0.000581076
0.00169477
0.00107366
0.000673819
-5.63953e-05
3.93073e-05
5.89328e-05
-5.27732e-05
5.46376e-05
-4.78018e-05
7.5861e-05
-4.08253e-05
0.000105222
-3.11074e-05
0.000145287
-1.7475e-05
0.000199776
1.70764e-06
0.000273363
2.86646e-05
0.00037332
6.64235e-05
0.000508689
0.000118966
0.000689569
0.000191054
0.00092428
0.000287136
0.00120565
0.000407417
0.00147972
0.000537091
0.00156537
0.000987276
0.00062337
-5.35595e-05
3.68895e-05
5.5879e-05
-5.01945e-05
5.12811e-05
-4.55802e-05
7.12004e-05
-3.90992e-05
9.87444e-05
-3.00836e-05
0.000136249
-1.74464e-05
0.000187126
3.2253e-07
0.000255591
2.52869e-05
0.000348353
6.02479e-05
0.000473714
0.000108904
0.00064089
0.000175685
0.000857506
0.000264735
0.0011166
0.000376286
0.00136808
0.000496423
0.00144508
0.000906784
0.000576561
-5.08554e-05
3.46532e-05
5.3054e-05
-4.77252e-05
4.81763e-05
-4.34465e-05
6.68883e-05
-3.74428e-05
9.27487e-05
-2.90925e-05
0.000127882
-1.73912e-05
0.00017541
-9.32643e-07
0.000239135
2.21889e-05
0.000325238
5.45592e-05
0.000441318
9.96318e-05
0.000595799
0.00016151
0.000795618
0.000244067
0.00103409
0.000347559
0.00126473
0.000458843
0.00133398
0.000832138
0.000533203
-4.83948e-05
3.25689e-05
5.0362e-05
-4.54975e-05
4.52819e-05
-4.15332e-05
6.2871e-05
-3.59472e-05
8.71692e-05
-2.81914e-05
0.000120106
-1.73289e-05
0.000164539
-2.06199e-06
0.000223884
1.93414e-05
0.000303812
4.93351e-05
0.000411312
9.10942e-05
0.000554016
0.000148457
0.000738269
0.000225023
0.000957511
0.00032106
0.00116859
0.000424113
0.00123055
0.000762818
0.000493049
-4.59918e-05
3.06451e-05
4.78709e-05
-4.32949e-05
4.26093e-05
-3.96196e-05
5.9159e-05
-3.44483e-05
8.20089e-05
-2.72647e-05
0.000112908
-1.71932e-05
0.000154471
-3.07845e-06
0.000209746
1.6764e-05
0.00028397
4.45437e-05
0.000383499
8.32515e-05
0.000515289
0.000136441
0.000685081
0.000207476
0.000886507
0.000296621
0.00107956
0.000392043
0.00113516
0.000698641
0.000455918
-4.38177e-05
2.88491e-05
4.54734e-05
-4.13153e-05
4.0113e-05
-3.79027e-05
5.56936e-05
-3.3085e-05
7.71969e-05
-2.63952e-05
0.000106207
-1.7063e-05
0.000145111
-3.9499e-06
0.000196636
1.44191e-05
0.000265564
4.01677e-05
0.000357728
7.60574e-05
0.000479404
0.000125401
0.000635767
0.000191334
0.000820557
0.000274096
0.000996649
0.000362425
0.00104634
0.000639184
0.000421568
-4.16145e-05
2.71933e-05
4.322e-05
-3.92786e-05
3.78113e-05
-3.61137e-05
5.24966e-05
-3.16527e-05
7.27537e-05
-2.54643e-05
0.000100013
-1.68096e-05
0.000136454
-4.69699e-06
0.000184488
1.23281e-05
0.000248527
3.61895e-05
0.00033385
6.94698e-05
0.000446118
0.000115259
0.000589986
0.000176484
0.000759346
0.000253342
0.000919899
0.000335097
0.00096451
0.000584339
0.00038984
-3.95827e-05
2.56477e-05
4.10267e-05
-3.74112e-05
3.56632e-05
-3.44682e-05
4.95167e-05
-3.03158e-05
6.86186e-05
-2.45606e-05
9.4259e-05
-1.65508e-05
0.00012842
-5.30355e-06
0.00017324
1.04546e-05
0.000232731
3.2571e-05
0.000311718
6.34468e-05
0.000415261
0.000105966
0.000547518
0.000162856
0.000702425
0.000234233
0.000848303
0.000309877
0.000888126
0.000533585
0.00036049
-3.75642e-05
2.42238e-05
3.89852e-05
-3.55359e-05
3.36845e-05
-3.28067e-05
4.67701e-05
-2.89635e-05
6.48026e-05
-2.36413e-05
8.8941e-05
-1.62065e-05
0.00012099
-5.819e-06
0.000162812
8.79423e-06
0.000218111
2.92968e-05
0.000291201
5.79522e-05
0.000386613
9.74509e-05
0.000508024
0.000150347
0.000649511
0.000216645
0.000782087
0.000286634
0.000818032
0.000486973
0.000333402
-3.57627e-05
2.28868e-05
3.6993e-05
-3.38804e-05
3.1826e-05
-3.13377e-05
4.41941e-05
-2.77463e-05
6.12324e-05
-2.27786e-05
8.39806e-05
-1.58865e-05
0.000114076
-6.21707e-06
0.000153149
7.31144e-06
0.00020454
2.63307e-05
0.000272173
5.29427e-05
0.000360035
8.96732e-05
0.000471352
0.000138901
0.000600236
0.000200468
0.000720269
0.000265199
0.000752432
0.000443966
0.00030835
-3.39122e-05
2.16574e-05
3.51476e-05
-3.2149e-05
3.01168e-05
-2.9791e-05
4.18228e-05
-2.64674e-05
5.79403e-05
-2.1874e-05
7.9398e-05
-1.54683e-05
0.000107682
-6.54499e-06
0.000144181
6.01311e-06
0.000191977
2.36605e-05
0.000254521
4.83888e-05
0.000335311
8.25702e-05
0.000437161
0.000128425
0.000554332
0.000185589
0.000663202
0.00024546
0.000692549
0.000404539
0.000285232
-3.22545e-05
2.05029e-05
3.33437e-05
-3.06117e-05
2.85119e-05
-2.8409e-05
3.96002e-05
-2.5302e-05
5.48627e-05
-2.10135e-05
7.51267e-05
-1.50826e-05
0.000101734
-6.77056e-06
0.000135875
4.86005e-06
0.000180306
2.1245e-05
0.000238131
4.42523e-05
0.000312352
7.61096e-05
0.000405369
0.000118874
0.00051151
0.000171911
0.000609825
0.000227262
0.000636198
0.00036834
0.000263843
-3.05753e-05
1.94413e-05
3.16767e-05
-2.90369e-05
2.70363e-05
-2.69948e-05
3.75544e-05
-2.41198e-05
5.20238e-05
-2.01519e-05
7.11776e-05
-1.46354e-05
9.6228e-05
-6.95835e-06
0.000128155
3.8558e-06
0.000169501
1.90814e-05
0.000222902
4.05092e-05
0.000290933
7.02383e-05
0.000375597
0.000110158
0.000471484
0.000159332
0.000560783
0.000210519
0.000585192
0.000335113
0.000244104
-2.90992e-05
1.84385e-05
3.00376e-05
-2.76716e-05
2.5642e-05
-2.57592e-05
3.56256e-05
-2.30629e-05
4.9357e-05
-1.9351e-05
6.74831e-05
-1.42311e-05
9.10925e-05
-7.05706e-06
0.000120999
2.96146e-06
0.000159432
1.71329e-05
0.000208737
3.71251e-05
0.000270994
6.49336e-05
0.000347867
0.000102244
0.000434091
0.000147766
0.000514906
0.000195081
0.00053688
0.000304755
0.000225839
-2.75836e-05
1.75162e-05
2.85355e-05
-2.62485e-05
2.43587e-05
-2.44745e-05
3.38477e-05
-2.19803e-05
4.68924e-05
-1.85398e-05
6.40613e-05
-1.37622e-05
8.63328e-05
-7.14067e-06
0.000114329
2.20106e-06
0.000150107
1.54004e-05
0.000195531
3.40909e-05
0.000252303
6.01471e-05
0.000321705
9.50419e-05
0.000399048
0.000137118
0.00047307
0.000180886
0.000493578
0.000276861
0.00020899
-2.62441e-05
1.66413e-05
2.70622e-05
-2.4998e-05
2.3142e-05
-2.33327e-05
3.21673e-05
-2.09879e-05
4.45742e-05
-1.77654e-05
6.08575e-05
-1.3336e-05
8.18878e-05
-7.13688e-06
0.000108143
1.52536e-06
0.000141386
1.38528e-05
0.000183214
3.137e-05
0.000234866
5.58701e-05
0.000297281
8.85243e-05
0.000366302
0.000127311
0.000433849
0.000167792
0.000452092
0.000251866
0.000193404
-2.48442e-05
1.58415e-05
2.57248e-05
-2.36776e-05
2.20294e-05
-2.21334e-05
3.0627e-05
-1.99757e-05
4.24384e-05
-1.69953e-05
5.78922e-05
-1.2864e-05
7.77634e-05
-7.13618e-06
0.000102362
9.68802e-07
0.000133304
1.25007e-05
0.000171686
2.89615e-05
0.000218388
5.20538e-05
0.000274005
8.25905e-05
0.000335565
0.000118263
0.000398566
0.000155762
0.000415387
0.000228605
0.000178982
-2.36699e-05
1.5073e-05
2.43809e-05
-2.2594e-05
2.09602e-05
-2.11391e-05
2.91524e-05
-1.90989e-05
4.0408e-05
-1.62954e-05
5.50939e-05
-1.24444e-05
7.38935e-05
-7.05751e-06
9.69904e-05
4.78702e-07
0.000125709
1.13024e-05
0.000160905
2.68316e-05
0.000202978
4.86943e-05
0.000252224
7.72203e-05
0.000306948
0.000109907
0.000365444
0.000144659
0.000379702
0.000208416
0.000165595
-2.24369e-05
1.43663e-05
2.31723e-05
-2.14359e-05
1.9976e-05
-2.00832e-05
2.77918e-05
-1.81978e-05
3.85259e-05
-1.55875e-05
5.2492e-05
-1.19788e-05
7.02904e-05
-6.98886e-06
9.19515e-05
1.02534e-07
0.000118675
1.028e-05
0.000150739
2.49843e-05
0.00018822
4.5739e-05
0.000231207
7.23056e-05
0.000280167
0.000102175
0.00033619
0.000134464
0.000348571
0.000189238
0.000153242
-2.13741e-05
1.36889e-05
2.19867e-05
-2.04414e-05
1.90321e-05
-1.91629e-05
2.64917e-05
-1.7371e-05
3.67401e-05
-1.49153e-05
5.00381e-05
-1.1546e-05
6.69105e-05
-6.83609e-06
8.72752e-05
-2.30013e-07
0.000112017
9.38446e-06
0.000141209
2.33891e-05
0.00017439
4.31825e-05
0.000211501
6.7826e-05
0.000255419
9.5011e-05
0.000308499
0.000125042
0.000317677
0.000173557
0.000141836
-2.02739e-05
1.30617e-05
2.09016e-05
-1.94034e-05
1.81582e-05
-1.8204e-05
2.52861e-05
-1.65431e-05
3.50766e-05
-1.42428e-05
4.77506e-05
-1.10779e-05
6.37574e-05
-6.70889e-06
8.28742e-05
-4.5514e-07
0.000105868
8.6485e-06
0.000132117
2.20507e-05
0.000160856
4.09601e-05
0.000192281
6.36684e-05
0.000232489
8.8363e-05
0.000284664
0.000116388
0.000291152
0.000157796
0.000131306
-1.92878e-05
1.24622e-05
1.98429e-05
-1.84711e-05
1.73231e-05
-1.73386e-05
2.41375e-05
-1.5756e-05
3.3502e-05
-1.35966e-05
4.55927e-05
-1.06371e-05
6.07969e-05
-6.49462e-06
7.87833e-05
-6.68798e-07
9.99292e-05
8.01378e-06
0.000123546
2.09536e-05
0.000148142
3.9058e-05
0.000174309
5.98233e-05
0.000211674
8.21931e-05
0.00026182
0.000108378
0.000264344
0.000146242
0.000121609
-1.82982e-05
1.19003e-05
1.8859e-05
-1.75402e-05
1.65397e-05
-1.64693e-05
2.30598e-05
-1.49928e-05
3.20196e-05
-1.29583e-05
4.35639e-05
-1.01691e-05
5.80038e-05
-6.34218e-06
7.48576e-05
-7.5217e-07
9.44572e-05
7.54479e-06
0.000115163
2.0103e-05
0.000135331
3.74056e-05
0.000156707
5.61919e-05
0.000192711
7.64688e-05
0.00024271
0.000101011
0.000241706
0.000133483
0.000112644
-1.74237e-05
1.13557e-05
1.79071e-05
-1.67015e-05
1.57816e-05
-1.56848e-05
2.20199e-05
-1.42698e-05
3.05991e-05
-1.2364e-05
4.16184e-05
-9.74559e-06
5.53534e-05
-6.06405e-06
7.12051e-05
-8.43016e-07
8.90119e-05
7.17783e-06
0.000107263
1.94848e-05
0.000123258
3.59666e-05
0.000140319
5.27759e-05
0.000175835
7.11557e-05
0.000223723
9.41753e-05
0.000218202
0.000125056
0.000104411
-1.65374e-05
1.08409e-05
1.70196e-05
-1.58768e-05
1.5063e-05
-1.49096e-05
2.10346e-05
-1.36034e-05
2.92463e-05
-1.17567e-05
3.97973e-05
-9.28167e-06
5.28492e-05
-5.86761e-06
6.76652e-05
-7.74616e-07
8.41028e-05
6.9878e-06
9.93014e-05
1.90901e-05
0.000110714
3.46726e-05
0.000124509
4.94974e-05
0.000160851
6.62365e-05
0.000208412
8.78618e-05
0.000198877
0.000114877
9.67803e-05
-1.57557e-05
1.03458e-05
1.61811e-05
-1.51122e-05
1.43749e-05
-1.42076e-05
2.00956e-05
-1.29001e-05
2.79794e-05
-1.12025e-05
3.80608e-05
-8.85774e-06
5.04939e-05
-5.51825e-06
6.44106e-05
-7.5292e-07
7.90131e-05
6.89184e-06
9.17769e-05
1.88918e-05
9.89465e-05
3.34624e-05
0.000110212
4.63812e-05
0.000148055
6.16822e-05
0.00019257
8.19936e-05
0.000178564
0.000109623
8.97962e-05
-1.49687e-05
9.87611e-06
1.53907e-05
-1.43676e-05
1.37214e-05
-1.34839e-05
1.92075e-05
-1.22964e-05
2.67681e-05
-1.06438e-05
3.64419e-05
-8.40567e-06
4.82587e-05
-5.30365e-06
6.11889e-05
-5.68221e-07
7.44632e-05
6.99097e-06
8.38353e-05
1.88797e-05
8.65419e-05
3.22885e-05
9.6996e-05
4.33801e-05
0.000137089
5.74882e-05
0.000180305
7.65392e-05
0.000162507
0.000102117
8.32937e-05
-1.42561e-05
9.42025e-06
1.46337e-05
-1.36652e-05
1.30916e-05
-1.28374e-05
1.83562e-05
-1.16814e-05
2.56259e-05
-1.01515e-05
3.48832e-05
-8.00284e-06
4.61572e-05
-4.96157e-06
5.81594e-05
-4.65258e-07
6.95291e-05
7.1629e-06
7.63526e-05
1.89643e-05
7.48473e-05
3.10671e-05
8.4985e-05
4.05263e-05
0.000127624
5.36085e-05
0.000166202
7.14587e-05
0.00014452
9.78588e-05
7.73509e-05
-1.35423e-05
8.98123e-06
1.39024e-05
-1.29956e-05
1.24846e-05
-1.22097e-05
1.75417e-05
-1.11475e-05
2.45292e-05
-9.62476e-06
3.34462e-05
-7.63658e-06
4.41053e-05
-4.76867e-06
5.51351e-05
-2.06234e-07
6.52406e-05
7.50638e-06
6.8041e-05
1.9128e-05
6.28289e-05
2.97983e-05
7.52985e-05
3.77972e-05
0.000120211
5.00472e-05
0.000156234
6.67041e-05
0.00013177
9.29412e-05
7.17991e-05
-1.29082e-05
8.54306e-06
1.31798e-05
-1.23716e-05
1.18865e-05
-1.16318e-05
1.67507e-05
-1.0564e-05
2.34972e-05
-9.20504e-06
3.20434e-05
-7.28915e-06
4.21783e-05
-4.42667e-06
5.22843e-05
-9.64505e-08
6.0171e-05
7.79412e-06
6.03702e-05
1.91692e-05
5.14689e-05
2.83616e-05
6.63376e-05
3.52063e-05
0.000113513
4.67361e-05
0.000143436
6.2258e-05
0.000116304
8.95994e-05
6.67262e-05
-1.22287e-05
8.12302e-06
1.24877e-05
-1.17215e-05
1.13172e-05
-1.10085e-05
1.60059e-05
-1.00429e-05
2.25257e-05
-8.75996e-06
3.07699e-05
-6.97537e-06
4.03317e-05
-4.29255e-06
4.95149e-05
1.81893e-07
5.60261e-05
8.20633e-06
5.14772e-05
1.91962e-05
4.03246e-05
2.68878e-05
6.06092e-05
3.27611e-05
0.000108803
4.36797e-05
0.000135279
5.80607e-05
0.000107032
8.73153e-05
6.19579e-05
-1.15404e-05
7.71977e-06
1.17937e-05
-1.10535e-05
1.07805e-05
-1.03693e-05
1.53256e-05
-9.5041e-06
2.16585e-05
-8.37503e-06
2.9652e-05
-6.64449e-06
3.8825e-05
-4.04264e-06
4.6694e-05
1.99326e-07
5.06299e-05
8.26982e-06
4.38481e-05
1.87535e-05
2.96702e-05
2.52501e-05
5.38529e-05
3.05085e-05
0.000103276
4.08262e-05
0.000122553
5.41166e-05
9.28621e-05
8.24535e-05
5.7581e-05
-1.0831e-05
7.33281e-06
1.10871e-05
-1.03312e-05
1.02865e-05
-9.72142e-06
1.47248e-05
-8.91991e-06
2.09716e-05
-7.85725e-06
2.87796e-05
-6.44251e-06
3.70454e-05
-3.97661e-06
4.41009e-05
3.99816e-07
4.69562e-05
7.94228e-06
3.4994e-05
1.73343e-05
2.02465e-05
2.29802e-05
5.08697e-05
2.81047e-05
9.9655e-05
3.80969e-05
0.000115736
5.04315e-05
8.71627e-05
8.27816e-05
5.34673e-05
-1.00307e-05
6.96677e-06
1.03379e-05
-9.54909e-06
9.84469e-06
-8.9011e-06
1.4257e-05
-8.2816e-06
2.03712e-05
-7.51091e-06
2.78435e-05
-5.95023e-06
3.56175e-05
-3.7398e-06
4.11476e-05
-4.23835e-08
4.09543e-05
6.51266e-06
2.92544e-05
1.53951e-05
1.05056e-05
2.08722e-05
4.38179e-05
2.56389e-05
9.38559e-05
3.51168e-05
0.000102271
4.66692e-05
7.29922e-05
7.55005e-05
4.95751e-05
-9.12235e-06
6.62249e-06
9.47722e-06
-8.56466e-06
9.46795e-06
-8.25239e-06
1.38366e-05
-7.76796e-06
2.00393e-05
-6.87179e-06
2.69518e-05
-5.24316e-06
3.31605e-05
-3.80755e-06
3.97927e-05
-5.65839e-07
3.88548e-05
6.04688e-06
2.11385e-05
1.60514e-05
1.16448e-06
2.09026e-05
4.23302e-05
2.41008e-05
9.27572e-05
3.22091e-05
9.80045e-05
4.27861e-05
7.12575e-05
7.83011e-05
4.57059e-05
-8.11364e-06
6.27495e-06
8.56183e-06
-7.84882e-06
9.14686e-06
-7.48169e-06
1.38705e-05
-7.50324e-06
1.99369e-05
-5.93923e-06
2.50808e-05
-3.73105e-06
3.15933e-05
-3.80519e-06
3.79516e-05
-1.19746e-06
3.35712e-05
8.021e-06
1.32587e-05
1.85461e-05
-1.04933e-05
2.22953e-05
3.57433e-05
2.39454e-05
8.91422e-05
3.00087e-05
8.62835e-05
3.90125e-05
5.80494e-05
6.80283e-05
4.21231e-05
-6.99424e-06
5.97234e-06
7.51519e-06
-6.56288e-06
9.16125e-06
-7.30763e-06
1.45488e-05
-7.21549e-06
2.01788e-05
-4.98519e-06
2.32049e-05
-2.00573e-06
2.72756e-05
-2.38145e-06
3.88847e-05
3.82523e-07
3.25152e-05
1.01239e-05
2.36068e-06
1.85089e-05
-1.70257e-05
2.22611e-05
3.69371e-05
2.40411e-05
9.06438e-05
2.89044e-05
8.64357e-05
3.63996e-05
6.16153e-05
7.3024e-05
3.93464e-05
-5.56363e-06
5.68017e-06
6.31366e-06
-6.01033e-06
9.77614e-06
-7.00052e-06
1.62922e-05
-6.17121e-06
1.93798e-05
-2.4532e-06
1.9218e-05
2.74517e-06
2.29878e-05
-3.84163e-07
3.87987e-05
1.41423e-06
2.8232e-05
1.01292e-05
-4.26367e-06
1.45617e-05
-2.21928e-05
1.92542e-05
2.83364e-05
2.31238e-05
8.37637e-05
2.79976e-05
7.39045e-05
3.47258e-05
4.82713e-05
5.9913e-05
3.77211e-05
-4.6269e-06
6.05076e-06
4.93873e-06
-5.18188e-06
1.11056e-05
-4.04106e-06
1.51508e-05
-2.4461e-06
1.83486e-05
5.59507e-07
1.63282e-05
4.43814e-06
1.75537e-05
-5.09457e-07
4.42946e-05
1.30045e-07
2.9655e-05
4.93249e-06
-9.58503e-06
6.67006e-06
-2.15085e-05
1.39757e-05
2.70291e-05
2.04849e-05
8.14571e-05
2.6151e-05
7.41443e-05
3.30223e-05
5.30002e-05
6.51364e-05
3.62427e-05
-1.55641e-06
7.13831e-06
1.54718e-06
-1.27158e-06
1.11424e-05
3.42972e-06
1.12421e-05
5.84725e-06
1.56381e-05
2.5248e-06
1.96882e-05
5.2855e-06
1.5597e-05
-4.0381e-06
5.06991e-05
-4.34904e-06
2.82104e-05
-1.76331e-06
-1.00322e-05
-2.35583e-06
-2.08587e-05
7.05348e-06
1.50356e-05
1.65845e-05
6.89868e-05
2.34091e-05
5.98716e-05
3.06077e-05
3.91294e-05
5.11109e-05
3.42976e-05
5.14559e-06
7.92617e-06
-4.74502e-06
7.35519e-06
9.38113e-06
1.02498e-05
8.27831e-06
1.5905e-05
1.05265e-05
4.85047e-06
3.05064e-05
2.95118e-06
1.62463e-05
-9.06624e-06
6.44013e-05
-6.92133e-06
2.83877e-05
-7.8888e-06
-9.753e-06
-1.18959e-05
-1.6057e-05
1.91026e-07
6.95972e-06
1.23655e-05
6.03128e-05
2.05248e-05
5.62231e-05
2.81104e-05
4.04352e-05
5.28528e-05
3.20723e-05
1.04264e-05
5.01909e-06
-6.70199e-06
1.39618e-05
5.99508e-06
1.52861e-05
7.34487e-06
1.66705e-05
8.72395e-06
9.9071e-07
4.63469e-05
-4.68509e-06
2.29277e-05
-1.58506e-05
6.99599e-05
-4.65048e-06
1.47253e-05
-5.47263e-06
-6.44643e-06
-1.58249e-05
-5.20046e-06
-2.83775e-06
-8.72883e-06
9.65592e-06
4.45559e-05
1.82056e-05
4.05217e-05
2.57407e-05
2.63976e-05
3.84356e-05
2.95946e-05
8.69282e-06
1.38738e-06
-4.68445e-06
1.33678e-05
1.49237e-06
1.08417e-05
9.57524e-06
4.84079e-06
1.5057e-05
-9.09363e-06
6.00849e-05
-1.09648e-05
2.31214e-05
-1.48494e-05
7.61204e-05
-1.91233e-06
6.14264e-06
-1.41409e-06
-7.9608e-06
-1.29657e-05
4.51075e-06
-1.47494e-06
-1.96889e-05
9.74209e-06
3.48857e-05
1.71771e-05
3.37446e-05
2.3918e-05
2.35777e-05
3.58191e-05
2.71555e-05
1.75846e-06
-1.8364e-06
1.43591e-06
3.4926e-06
-3.02839e-07
1.102e-06
1.21963e-05
-1.34397e-06
1.71944e-05
-5.16118e-06
6.39391e-05
-1.65929e-05
3.54701e-05
2.06956e-05
3.53221e-05
2.06025e-05
2.80037e-06
1.10153e-05
3.63933e-06
1.59856e-06
1.38117e-05
4.65319e-06
-2.57302e-05
1.32592e-05
2.36468e-05
1.68909e-05
2.3388e-05
2.20834e-05
1.26476e-05
2.32642e-05
2.43476e-05
-1.23269e-05
-2.16007e-06
1.28539e-05
-1.36581e-05
1.11582e-06
-9.3202e-06
7.80221e-06
-7.06708e-06
1.51803e-05
4.25546e-06
5.28227e-05
1.00676e-05
2.93153e-05
4.77429e-05
-4.96903e-07
2.88724e-05
2.57069e-05
1.82107e-05
1.37581e-05
2.38459e-05
7.18739e-06
1.48392e-05
-1.78375e-05
1.62263e-05
2.19419e-05
1.69631e-05
1.97978e-05
2.03986e-05
7.99542e-06
1.75742e-05
2.13011e-05
-2.28348e-05
-3.85181e-07
2.11606e-05
-2.23213e-05
7.30395e-07
-1.72801e-05
2.95231e-06
-1.68951e-05
1.48852e-05
-2.89829e-06
3.91048e-05
-2.69397e-06
2.94265e-05
1.70818e-05
-1.5968e-05
1.31823e-05
2.37173e-05
1.83901e-05
9.48557e-06
2.23196e-05
3.24859e-06
1.2183e-05
-8.71423e-06
1.73147e-05
1.52093e-05
1.80979e-05
1.17167e-05
1.8499e-05
2.57405e-06
9.66721e-06
1.75664e-05
-2.5797e-05
1.22396e-06
2.44525e-05
-2.59788e-05
1.01985e-06
-2.65777e-05
3.73187e-06
-2.57962e-05
1.43853e-05
-1.43827e-05
2.80488e-05
-1.0026e-05
2.58208e-05
5.6467e-06
-2.46281e-05
1.07694e-05
1.63161e-05
1.86201e-05
2.24209e-06
1.83554e-05
3.60127e-06
1.31053e-05
-4.22156e-06
2.12625e-05
5.02874e-06
1.99493e-05
3.043e-06
1.62507e-05
6.76203e-07
3.53203e-06
1.28628e-05
-3.01585e-05
1.50186e-06
2.99867e-05
-3.04305e-05
1.4442e-06
-2.9616e-05
3.14122e-06
-2.24601e-05
7.52031e-06
-7.82258e-06
1.38897e-05
-2.20004e-06
2.17903e-05
3.78619e-06
-1.16618e-05
1.4257e-05
3.06968e-06
1.74467e-05
-3.41297e-07
1.88752e-05
2.28628e-06
1.63716e-05
-2.73304e-06
2.00741e-05
-1.86275e-06
1.65595e-05
-3.6979e-06
1.23268e-05
-1.22543e-06
-3.07286e-06
7.23941e-06
-2.69566e-05
2.85897e-05
-2.54372e-05
-2.22287e-05
-1.4646e-05
-6.32616e-07
2.18409e-05
1.00118e-05
1.30876e-05
1.27467e-05
1.503e-05
1.22916e-05
1.04219e-05
6.72147e-06
5.49278e-06
2.41865e-06
0.00144711
4.74643e-05
0.00145202
4.70258e-05
0.00145767
4.67084e-05
0.00146391
4.64561e-05
0.00147045
4.63279e-05
0.00147718
4.62881e-05
0.00148407
4.62817e-05
0.00149114
4.62801e-05
0.00149824
4.62825e-05
4.65146e-05
0.00150507
0.00134021
4.4284e-05
0.00134467
4.25687e-05
0.00134985
4.15191e-05
0.00135539
4.0916e-05
0.00136116
4.0551e-05
0.00136724
4.02088e-05
0.00137379
3.97202e-05
0.00138112
3.8948e-05
0.00138954
3.78452e-05
3.627e-05
0.00139978
0.00124245
4.39576e-05
0.0012441
4.09162e-05
0.00124665
3.89618e-05
0.00124992
3.76421e-05
0.00125382
3.66399e-05
0.00125833
3.57029e-05
0.00126338
3.46638e-05
0.00126897
3.33444e-05
0.00127499
3.18101e-05
3.05698e-05
0.00128069
0.00115308
4.27444e-05
0.00115541
3.85832e-05
0.00115853
3.58282e-05
0.00116224
3.39356e-05
0.00116637
3.24973e-05
0.00117087
3.11966e-05
0.00117572
2.98039e-05
0.00118095
2.80964e-05
0.00118685
2.58936e-05
2.3989e-05
0.00119343
0.00106885
4.08981e-05
0.00107166
3.57625e-05
0.00107519
3.2291e-05
0.0010792
2.99178e-05
0.00108352
2.81659e-05
0.00108806
2.66475e-05
0.00109277
2.50768e-05
0.00109766
2.31912e-05
0.00110271
2.08247e-05
1.87951e-05
0.0011079
0.000990022
3.9432e-05
0.000992525
3.32557e-05
0.000995826
2.89798e-05
0.000999697
2.60384e-05
0.00100394
2.3912e-05
0.00100843
2.21472e-05
0.00101309
2.04013e-05
0.00101788
1.8374e-05
0.00102286
1.58304e-05
1.36791e-05
0.00102797
0.000917081
3.85276e-05
0.000919063
3.12742e-05
0.00092191
2.61287e-05
0.000925403
2.25424e-05
0.000929341
1.99663e-05
0.000933581
1.78941e-05
0.000938034
1.59328e-05
0.000942644
1.37367e-05
0.00094748
1.0966e-05
8.60926e-06
0.00095253
0.000849639
3.78917e-05
0.000851264
2.96533e-05
0.00085371
2.36775e-05
0.0008568
1.94601e-05
0.000860337
1.64111e-05
0.000864204
1.40221e-05
0.000868288
1.18148e-05
0.000872547
9.44858e-06
0.000877033
6.43e-06
3.88564e-06
0.00088175
0.000787103
3.72078e-05
0.000788581
2.81507e-05
0.000790783
2.14811e-05
0.000793523
1.6683e-05
0.000796706
1.32381e-05
0.000800149
1.05349e-05
0.000803825
8.13473e-06
0.000807625
5.60118e-06
0.000811683
2.36963e-06
-2.55616e-07
0.000815804
0.00072901
3.62714e-05
0.000730543
2.65976e-05
0.00073261
1.93605e-05
0.000735148
1.41302e-05
0.000737994
1.03446e-05
0.000741087
7.43479e-06
0.000744314
4.8791e-06
0.000747655
2.26685e-06
0.000751181
-1.18457e-06
-3.71501e-06
0.000754667
0.000674992
3.50721e-05
0.000676631
2.49269e-05
0.000678679
1.728e-05
0.000681063
1.17219e-05
0.000683676
7.71378e-06
0.000686437
4.66384e-06
0.000689276
2.03525e-06
0.000692148
-6.21201e-07
0.000695229
-4.22882e-06
-6.59507e-06
0.000698067
0.000624816
3.36118e-05
0.000626608
2.31097e-05
0.00062869
1.51625e-05
0.000630994
9.38319e-06
0.000633426
5.24099e-06
0.000635917
2.14666e-06
0.000638402
-4.80022e-07
0.000640858
-3.07332e-06
0.000643438
-6.85224e-06
-8.7843e-06
0.000645688
0.000578253
3.19523e-05
0.000580201
2.11777e-05
0.000582346
1.30383e-05
0.000584604
7.13116e-06
0.000586906
2.9583e-06
0.000589165
-1.09799e-07
0.000591348
-2.66231e-06
0.000593383
-5.13717e-06
0.000595558
-8.99568e-06
-1.05702e-05
0.000597237
0.000535114
3.00901e-05
0.00053723
1.91022e-05
0.000539454
1.08153e-05
0.000541708
4.8438e-06
0.000543917
7.2076e-07
0.00054599
-2.23465e-06
0.000547884
-4.5854e-06
0.000549538
-6.81578e-06
0.000551226
-1.07421e-05
-1.15352e-05
0.000552303
0.000495152
2.81288e-05
0.000497412
1.69858e-05
0.000499719
8.62334e-06
0.000501993
2.68601e-06
0.000504131
-1.3398e-06
0.000506044
-4.09184e-06
0.000507664
-6.20883e-06
0.000508943
-8.15574e-06
0.000510249
-1.20792e-05
-1.23002e-05
0.000510767
0.000458192
2.60084e-05
0.000460592
1.46986e-05
0.000462999
6.26673e-06
0.000465309
3.78902e-07
0.000467408
-3.47264e-06
0.000469165
-5.89701e-06
0.000470523
-7.64008e-06
0.000471455
-9.14188e-06
0.0004723
-1.30346e-05
-1.21457e-05
0.000472327
0.000423977
2.38998e-05
0.000426502
1.24899e-05
0.000429004
4.07667e-06
0.000431361
-1.69594e-06
0.000433425
-5.31961e-06
0.000435029
-7.3939e-06
0.000436157
-8.80268e-06
0.000436737
-9.90811e-06
0.000437244
-1.37473e-05
-1.22905e-05
0.00043687
0.000392362
2.1589e-05
0.000395021
1.00368e-05
0.000397631
1.58829e-06
0.000400032
-4.0788e-06
0.000402075
-7.33707e-06
0.00040352
-8.95495e-06
0.000404427
-9.79288e-06
0.000404664
-1.03128e-05
0.000404762
-1.39977e-05
-1.1435e-05
0.000404176
0.000363096
1.94413e-05
0.000365866
7.8461e-06
0.000368572
-5.27379e-07
0.000371013
-5.94126e-06
0.000373013
-8.91877e-06
0.000374329
-1.0094e-05
0.000375022
-1.06184e-05
0.000374954
-1.07103e-05
0.000374769
-1.43726e-05
-1.15503e-05
0.000373876
0.000336062
1.69918e-05
0.000338943
5.22159e-06
0.000341749
-3.17927e-06
0.000344205
-8.33937e-06
0.000346185
-1.08486e-05
0.000347343
-1.13973e-05
0.000347834
-1.12489e-05
0.000347467
-1.06009e-05
0.000346946
-1.40325e-05
-9.98921e-06
0.000345831
0.000311036
1.47888e-05
0.000314014
3.03924e-06
0.00031688
-5.20279e-06
0.000319337
-9.98358e-06
0.000321283
-1.21305e-05
0.000322299
-1.22156e-05
0.000322625
-1.176e-05
0.000321976
-1.07188e-05
0.000321264
-1.41684e-05
-1.00688e-05
0.000319999
0.000287935
1.21387e-05
0.000291025
1.33196e-07
0.000293924
-8.06887e-06
0.000296362
-1.24537e-05
0.000298276
-1.39638e-05
0.000299126
-1.3258e-05
0.00029928
-1.1911e-05
0.000298345
-9.96091e-06
0.000297401
-1.30151e-05
-7.95975e-06
0.000296134
0.000266529
9.94055e-06
0.000269711
-2.0103e-06
0.000272615
-9.89227e-06
0.000275018
-1.37972e-05
0.000276886
-1.4938e-05
0.000277606
-1.37813e-05
0.000277619
-1.21526e-05
0.000276462
-9.8834e-06
0.000275381
-1.30584e-05
-8.37919e-06
0.000273976
0.000246752
7.17732e-06
0.000250005
-5.20607e-06
0.00025292
-1.29355e-05
0.000255274
-1.62712e-05
0.000257096
-1.66664e-05
0.000257664
-1.4502e-05
0.000257513
-1.18112e-05
0.000256105
-8.43592e-06
0.000254853
-1.11626e-05
-5.66297e-06
0.000253487
0.000228433
5.02281e-06
0.000231728
-7.30444e-06
0.000234626
-1.4592e-05
0.000236908
-1.73615e-05
0.000238687
-1.72958e-05
0.000239131
-1.47627e-05
0.000238868
-1.16411e-05
0.000237262
-8.09275e-06
0.000235915
-1.09596e-05
-6.19309e-06
0.000234497
0.000211533
2.16551e-06
0.00021482
-1.07255e-05
0.000217685
-1.77826e-05
0.0002199
-1.97693e-05
0.000221622
-1.88326e-05
0.000221949
-1.50557e-05
0.000221518
-1.0644e-05
0.000219683
-5.7847e-06
0.0002182
-8.10401e-06
-2.91097e-06
0.000216939
0.00019589
2.78739e-07
0.000199131
-1.25995e-05
0.000201942
-1.92072e-05
0.000204064
-2.06248e-05
0.000205742
-1.93464e-05
0.000205985
-1.51909e-05
0.000205459
-1.03582e-05
0.000203465
-5.26504e-06
0.000201893
-7.94682e-06
-3.9043e-06
0.000200673
0.0001814
-2.52258e-06
0.000184575
-1.5981e-05
0.000187324
-2.23092e-05
0.000189362
-2.27717e-05
0.000190995
-2.05925e-05
0.000191149
-1.50446e-05
0.000190481
-8.81749e-06
0.000188255
-2.28472e-06
0.000186588
-4.45034e-06
-3.96541e-07
0.000185606
0.000167937
-3.97081e-06
0.000171081
-1.74224e-05
0.000173751
-2.32616e-05
0.000175673
-2.3218e-05
0.00017727
-2.0861e-05
0.00017737
-1.50595e-05
0.000176646
-8.46376e-06
0.000174277
-1.70225e-06
0.000172571
-4.55434e-06
-2.11991e-06
0.000171644
0.000155478
-6.5522e-06
0.000158543