/*--------------------------------*- C++ -*----------------------------------*\
  =========                 |
  \\      /  F ield         | OpenFOAM: The Open Source CFD Toolbox
   \\    /   O peration     | Website:  https://openfoam.org
    \\  /    A nd           | Version:  6.0
     \\/     M anipulation  |
\*---------------------------------------------------------------------------*/
FoamFile
{
    version     2.0;
    format      ascii;
    class       volVectorField;
    location    "2.54";
    object      U;
}
// * * * * * * * * * * * * * * * * * * * * * * * * * * * * * * * * * * * * * //

dimensions      [0 1 -1 0 0 0 0];

internalField   nonuniform List<vector> 
13500
(
(1 1.7485e-06 -4.2481e-18)
(1 -2.9463e-06 2.8746e-18)
(1 -6.4015e-06 -1.2366e-17)
(1 -9.4751e-06 -8.5482e-18)
(1 -9.3926e-06 1.6105e-17)
(1 -8.4734e-06 2.992e-17)
(1 4.1576e-07 2.5711e-17)
(0.99998 1.3586e-05 -4.1438e-18)
(0.99991 4.2663e-05 1.5214e-17)
(0.99981 7.2427e-05 3.2692e-18)
(0.99571 0.00075631 2.8514e-17)
(1.019 0.01084 7.753e-18)
(1 5.2841e-06 2.6318e-18)
(1 -8.0572e-06 -8.7299e-18)
(1 -1.777e-05 5.9054e-18)
(1 -2.6451e-05 -3.3709e-19)
(1 -2.5475e-05 -4.2947e-19)
(1 -2.2696e-05 -3.5977e-17)
(0.99999 5.2239e-06 -4.4407e-17)
(0.99994 4.2879e-05 -2.371e-17)
(0.99971 0.00014023 -1.5184e-17)
(0.99986 0.0001759 -1.6168e-18)
(0.98616 0.0021923 -1.3503e-17)
(1.0535 0.030635 -4.6942e-18)
(1 8.7922e-06 -3.3993e-18)
(1 -1.3226e-05 1.7344e-17)
(1 -2.9347e-05 3.0717e-18)
(1 -4.3645e-05 9.8559e-18)
(1 -4.1868e-05 -3.7137e-18)
(1 -3.7309e-05 2.8819e-17)
(0.99999 1.0177e-05 -6.251e-18)
(0.99991 7.1398e-05 5.3859e-18)
(0.99949 0.00024653 -1.842e-17)
(1.0004 0.00029438 2.4561e-17)
(0.97595 0.0032788 -7.0595e-18)
(1.082 0.045158 1.6465e-18)
(1 1.2281e-05 8.8865e-18)
(1 -1.8587e-05 -1.6816e-17)
(1 -4.1284e-05 -1.4561e-17)
(1 -6.1312e-05 -6.9148e-19)
(1 -5.8832e-05 5.733e-18)
(1 -5.2486e-05 -7.9991e-19)
(0.99999 1.4809e-05 6.159e-17)
(0.99988 9.8872e-05 9.7035e-18)
(0.99924 0.00036015 2.1782e-17)
(1.0013 0.00043285 -8.8965e-18)
(0.96547 0.0040418 3.4375e-17)
(1.1032 0.055687 -7.4944e-18)
(1 1.5762e-05 -6.2441e-18)
(1 -2.398e-05 1.4533e-17)
(1 -5.3288e-05 1.2395e-17)
(1 -7.9043e-05 1.2614e-17)
(1.0001 -7.5913e-05 2.8111e-18)
(1.0001 -6.7704e-05 2.1181e-17)
(0.99999 1.9442e-05 -2.7503e-17)
(0.99987 0.00012545 1.9709e-18)
(0.99893 0.00047971 -1.3355e-17)
(1.0027 0.00059368 -2.1227e-18)
(0.95512 0.0045313 -8.9161e-18)
(1.1171 0.063357 2.0779e-18)
(1 1.9234e-05 6.3191e-18)
(1 -2.9401e-05 -6.0249e-18)
(1 -6.5363e-05 3.7854e-18)
(1 -9.6831e-05 -2.4987e-17)
(1.0001 -9.3124e-05 -8.2291e-20)
(1.0001 -8.2967e-05 -4.1932e-17)
(1 2.4058e-05 1.0554e-18)
(0.99986 0.00015099 -1.5821e-17)
(0.99857 0.00060372 5.0858e-18)
(1.0045 0.00078374 -2.1391e-17)
(0.94525 0.0047897 -2.1462e-17)
(1.1245 0.068781 2.0086e-18)
(0.99999 2.2697e-05 -1.046e-18)
(1 -3.4851e-05 -7.2057e-18)
(1 -7.7513e-05 -3.0764e-18)
(1.0001 -0.00011468 1.886e-17)
(1.0001 -0.00011047 -2.6037e-17)
(1.0001 -9.8294e-05 1.6044e-17)
(1 2.8678e-05 1.8396e-17)
(0.99987 0.00017543 5.5661e-18)
(0.99814 0.0007307 1.1369e-17)
(1.0065 0.0010097 1.1516e-17)
(0.93615 0.0048551 9.2457e-18)
(1.1262 0.072386 3.2248e-18)
(0.99999 2.6152e-05 -2.159e-18)
(1 -4.0332e-05 -1.4175e-18)
(1 -8.9741e-05 -2.6503e-17)
(1.0001 -0.00013261 -9.0057e-18)
(1.0001 -0.00012795 7.2875e-18)
(1.0001 -0.0001137 2.6293e-17)
(1 3.3304e-05 1.1709e-17)
(0.9999 0.00019873 4.969e-18)
(0.99763 0.00085912 -7.4309e-18)
(1.0089 0.0012757 1.6131e-17)
(0.92804 0.004764 7.4663e-18)
(1.1233 0.074536 -1.0255e-17)
(0.99999 2.9598e-05 -6.7023e-18)
(1 -4.5847e-05 6.0942e-18)
(1 -0.00010205 4.4562e-17)
(1.0001 -0.00015061 -1.0802e-17)
(1.0001 -0.00014558 2.7291e-17)
(1.0001 -0.00012919 -5.1912e-17)
(1 3.7926e-05 -3.9004e-17)
(0.99994 0.00022091 9.6556e-18)
(0.99705 0.00098741 -5.5808e-18)
(1.0115 0.0015835 -8.8965e-18)
(0.92109 0.0045508 -1.3796e-17)
(1.1167 0.075534 1.3417e-17)
(0.99999 3.3035e-05 4.4157e-18)
(1 -5.1396e-05 2.2939e-18)
(1 -0.00011444 -3.7747e-17)
(1.0001 -0.00016868 1.5373e-17)
(1.0001 -0.00016337 -1.1901e-17)
(1.0001 -0.00014478 2.214e-17)
(1 4.2528e-05 1.3861e-17)
(1 0.00024199 2.4409e-18)
(0.99639 0.001114 5.2718e-19)
(1.0142 0.0019332 1.4096e-18)
(0.9154 0.0042479 4.3888e-18)
(1.1074 0.075635 -7.0255e-19)
(0.99998 3.6463e-05 -2.4244e-18)
(1 -5.6981e-05 -7.5231e-18)
(1 -0.00012692 9.2528e-18)
(1.0001 -0.00018684 -2.7124e-18)
(1.0001 -0.00018132 1.8371e-18)
(1.0002 -0.00016047 -2.4264e-17)
(1 4.7092e-05 -3.1924e-17)
(1.0001 0.00026206 -3.1002e-17)
(0.99565 0.0012374 1.5599e-17)
(1.0171 0.0023233 1.8309e-18)
(0.91101 0.0038843 -1.1133e-17)
(1.0962 0.075046 -5.7825e-18)
(0.99998 3.9883e-05 3.3463e-18)
(1 -6.2605e-05 2.8416e-18)
(1 -0.00013949 4.4593e-18)
(1.0001 -0.00020509 -2.1617e-18)
(1.0001 -0.00019944 -5.5069e-18)
(1.0002 -0.00017628 9.1772e-18)
(1 5.1599e-05 1.848e-17)
(1.0002 0.00028124 1.9152e-17)
(0.99483 0.0013561 1.0022e-17)
(1.02 0.0027511 -2.312e-17)
(0.90792 0.0034861 1.1683e-19)
(1.0838 0.073936 -6.6951e-18)
(0.99998 4.3294e-05 -3.3458e-18)
(0.99999 -6.8267e-05 5.588e-18)
(1 -0.00015214 8.085e-18)
(1.0001 -0.00022343 5.6444e-18)
(1.0001 -0.00021774 -5.1078e-18)
(1.0002 -0.00019222 4.5115e-18)
(1 5.6019e-05 4.214e-18)
(1.0003 0.00029968 -1.7103e-18)
(0.99394 0.0014687 -1.6199e-17)
(1.0228 0.0032131 2.144e-17)
(0.90609 0.0030764 1.0401e-19)
(1.0708 0.072443 1.4331e-18)
(0.99998 4.6697e-05 5.0879e-18)
(0.99999 -7.3972e-05 -4.362e-18)
(1 -0.0001649 7.0785e-19)
(1.0001 -0.00024186 -4.7086e-18)
(1.0002 -0.00023623 1.16e-17)
(1.0002 -0.0002083 5.5045e-18)
(1 6.0321e-05 1.6956e-17)
(1.0005 0.00031758 -6.352e-18)
(0.99296 0.0015739 -1.9792e-19)
(1.0257 0.003705 5.2659e-18)
(0.90545 0.0026746 1.6897e-17)
(1.0577 0.070681 9.141e-19)
(0.99997 5.0091e-05 1.2271e-18)
(0.99999 -7.9719e-05 9.6808e-18)
(1 -0.00017775 1.352e-17)
(1.0001 -0.00026039 -4.6946e-18)
(1.0002 -0.00025491 8.3998e-18)
(1.0002 -0.00022452 -2.5697e-18)
(1 6.4464e-05 -2.9697e-17)
(1.0006 0.00033518 2.0106e-17)
(0.99193 0.0016704 -1.8265e-17)
(1.0284 0.0042221 -3.0373e-17)
(0.90593 0.0022973 -3.7092e-18)
(1.045 0.068742 8.4698e-19)
(0.99997 5.3477e-05 -3.1306e-18)
(0.99999 -8.5512e-05 -1.0295e-17)
(1 -0.0001907 -3.2451e-17)
(1.0001 -0.00027903 7.9094e-18)
(1.0002 -0.0002738 -1.2747e-17)
(1.0003 -0.0002409 8.2388e-18)
(1 6.84e-05 -2.7787e-18)
(1.0009 0.00035275 -1.2103e-17)
(0.99083 0.0017568 4.0113e-18)
(1.031 0.0047599 1.8137e-17)
(0.90739 0.0019577 -7.7848e-18)
(1.0329 0.066698 1.1771e-17)
(0.99996 5.6855e-05 3.2941e-19)
(0.99998 -9.1352e-05 7.7e-18)
(1 -0.00020375 2.2404e-17)
(1.0001 -0.00029778 -1.7813e-18)
(1.0002 -0.0002929 -1.2664e-17)
(1.0003 -0.00025745 -1.5353e-17)
(1 7.2073e-05 1.0614e-17)
(1.0011 0.0003706 6.9412e-18)
(0.98967 0.0018321 2.318e-17)
(1.0334 0.0053135 -2.5396e-18)
(0.90975 0.0016661 1.9345e-18)
(1.0216 0.064608 -4.6963e-18)
(0.99996 6.0225e-05 -1.8481e-18)
(0.99998 -9.7241e-05 -9.33e-18)
(1 -0.00021691 -1.0109e-17)
(1.0001 -0.00031664 5.9527e-18)
(1.0002 -0.00031223 -7.1125e-18)
(1.0003 -0.00027418 -1.2315e-17)
(1 7.5417e-05 1.0318e-17)
(1.0014 0.00038908 -4.709e-18)
(0.98848 0.0018951 -2.8684e-17)
(1.0356 0.0058783 -1.4232e-17)
(0.91286 0.0014299 8.3963e-18)
(1.0113 0.062518 -5.0941e-18)
(0.99995 6.3587e-05 -2.6463e-18)
(0.99998 -0.00010318 -3.5264e-18)
(1 -0.00023018 -7.4921e-19)
(1.0001 -0.00033562 -2.6067e-17)
(1.0002 -0.00033179 5.9674e-18)
(1.0003 -0.00029109 5.3626e-18)
(0.99998 7.8356e-05 -1.9607e-17)
(1.0017 0.00040856 -1.6077e-17)
(0.98724 0.0019447 4.1964e-18)
(1.0376 0.0064501 -1.0693e-18)
(0.91662 0.0012543 -9.6955e-18)
(1.0022 0.060462 9.6345e-19)
(0.99995 6.6942e-05 3.4421e-18)
(0.99997 -0.00010918 1.6166e-17)
(1 -0.00024356 1.9293e-17)
(1.0001 -0.00035473 2.4549e-18)
(1.0002 -0.00035158 1.6497e-17)
(1.0004 -0.00030818 9.3972e-18)
(0.99996 8.0805e-05 2.83e-18)
(1.002 0.00042947 1.7596e-17)
(0.98599 0.0019799 2.0843e-17)
(1.0393 0.0070248 1.6995e-17)
(0.92091 0.0011419 7.2368e-18)
(0.99425 0.058467 1.1433e-18)
(0.99994 7.0289e-05 -1.6407e-18)
(0.99997 -0.00011523 -3.8787e-18)
(1 -0.00025705 -2.0554e-17)
(1.0001 -0.00037397 -2.3242e-18)
(1.0002 -0.00037163 -1.2503e-17)
(1.0004 -0.00032548 -5.0842e-18)
(0.99994 8.2666e-05 -1.8164e-18)
(1.0024 0.00045223 -1.5911e-17)
(0.98472 0.0019997 -1.9928e-17)
(1.0408 0.0075987 8.7102e-18)
(0.92561 0.0010936 4.9714e-19)
(0.98747 0.056553 6.5624e-19)
(0.99994 7.363e-05 4.3489e-18)
(0.99996 -0.00012133 -5.0675e-18)
(1 -0.00027067 -1.9278e-17)
(1.0002 -0.00039335 4.4188e-17)
(1.0003 -0.00039194 1.8138e-17)
(1.0004 -0.00034297 -1.2441e-17)
(0.9999 8.3832e-05 2.4419e-17)
(1.0028 0.00047731 2.1504e-17)
(0.98346 0.0020032 3.2334e-17)
(1.042 0.0081686 -3.1924e-17)
(0.93061 0.0011086 -1.3292e-17)
(0.98183 0.054732 1.7306e-19)
(0.99993 7.6963e-05 -3.1833e-18)
(0.99996 -0.0001275 -1.0169e-18)
(1 -0.0002844 3.2913e-17)
(1.0002 -0.00041287 -3.3404e-17)
(1.0003 -0.00041251 -1.7459e-18)
(1.0004 -0.00036066 4.1221e-17)
(0.99987 8.4182e-05 7.5678e-18)
(1.0032 0.0005052 -3.3217e-18)
(0.9822 0.0019896 -2.0052e-17)
(1.043 0.0087315 3.7621e-17)
(0.93582 0.0011846 -5.6314e-18)
(0.97729 0.053014 -2.7508e-19)
(0.99992 8.0291e-05 -1.6228e-18)
(0.99995 -0.00013374 -2.0263e-18)
(1 -0.00029825 1.7141e-18)
(1.0002 -0.00043253 3.4751e-17)
(1.0003 -0.00043336 -9.8442e-18)
(1.0005 -0.00037856 -3.0468e-17)
(0.99982 8.3586e-05 -1.9295e-17)
(1.0037 0.0005364 -3.5766e-18)
(0.98097 0.0019581 6.3401e-18)
(1.0436 0.0092847 -3.1737e-17)
(0.94114 0.0013185 9.432e-18)
(0.97378 0.051402 2.9811e-18)
(0.99992 8.3613e-05 2.6818e-18)
(0.99995 -0.00014004 1.4103e-17)
(1 -0.00031223 -1.264e-17)
(1.0002 -0.00045236 -3.6386e-18)
(1.0003 -0.00045451 -1.8893e-17)
(1.0005 -0.00039665 3.3146e-17)
(0.99977 8.1899e-05 -1.6938e-17)
(1.0041 0.00057141 1.4826e-17)
(0.97977 0.001908 -1.954e-18)
(1.044 0.0098262 2.9754e-17)
(0.9465 0.0015063 -9.2051e-18)
(0.97122 0.049898 -4.9742e-18)
(0.99991 8.6929e-05 -5.1436e-19)
(0.99994 -0.00014641 -8.1111e-18)
(1 -0.00032634 -1.77e-17)
(1.0002 -0.00047234 -9.9704e-18)
(1.0003 -0.00047595 1.8325e-17)
(1.0005 -0.00041495 -4.2267e-17)
(0.99971 7.8969e-05 -2.6138e-18)
(1.0047 0.00061074 -2.0031e-17)
(0.97861 0.0018389 3.1555e-18)
(1.0441 0.010354 -8.582e-18)
(0.95183 0.0017432 9.798e-18)
(0.96952 0.048502 2.1099e-18)
(0.9999 9.0241e-05 2.6946e-18)
(0.99994 -0.00015285 -8.6885e-18)
(1 -0.00034058 -1.7489e-18)
(1.0002 -0.0004925 2.4227e-18)
(1.0003 -0.0004977 5.8001e-18)
(1.0006 -0.00043344 1.2213e-17)
(0.99965 7.4628e-05 4.2851e-17)
(1.0052 0.0006549 2.3937e-18)
(0.97751 0.0017503 5.1413e-18)
(1.044 0.010866 9.4588e-18)
(0.95706 0.0020244 -8.3805e-18)
(0.96858 0.047211 1.6201e-18)
(0.9999 9.3548e-05 -1.5451e-18)
(0.99993 -0.00015937 8.6805e-18)
(1 -0.00035496 2.516e-17)
(1.0002 -0.00051283 -2.441e-17)
(1.0003 -0.00051978 -9.0222e-18)
(1.0006 -0.00045212 -2.1489e-18)
(0.99957 6.8701e-05 -1.4124e-17)
(1.0057 0.00070439 1.857e-18)
(0.97648 0.0016419 -8.9091e-18)
(1.0436 0.01136 -3.4764e-18)
(0.96214 0.0023445 -2.3732e-19)
(0.9683 0.04602 -1.9797e-18)
(0.99989 9.6852e-05 -1.6607e-18)
(0.99992 -0.00016596 5.1958e-18)
(1 -0.00036947 -6.0842e-19)
(1.0002 -0.00053334 8.0942e-18)
(1.0003 -0.00054219 -1.6648e-17)
(1.0006 -0.00047099 2.4315e-17)
(0.99949 6.1002e-05 7.0452e-18)
(1.0063 0.00075969 -1.7716e-17)
(0.97552 0.0015136 -1.1422e-17)
(1.043 0.011837 -1.3764e-17)
(0.96702 0.0026981 1.3281e-18)
(0.96859 0.044924 -3.6269e-18)
(0.99988 0.00010015 5.771e-19)
(0.99992 -0.00017264 -1.2409e-17)
(1 -0.00038412 1.5581e-17)
(1.0002 -0.00055404 2.2387e-17)
(1.0004 -0.00056495 3.263e-17)
(1.0007 -0.00049001 -1.7857e-17)
(0.9994 5.1335e-05 -1.7516e-17)
(1.0069 0.00082124 3.5954e-18)
(0.97465 0.0013654 1.0702e-17)
(1.0421 0.012293 1.0774e-17)
(0.97168 0.00308 6.1834e-18)
(0.96935 0.043917 3.6048e-18)
(0.99987 0.00010345 1.106e-18)
(0.99991 -0.0001794 9.8675e-18)
(1 -0.00039892 -3.5797e-17)
(1.0002 -0.00057493 -3.2437e-18)
(1.0004 -0.00058806 -2.7107e-17)
(1.0007 -0.0005092 -1.1248e-17)
(0.9993 3.9499e-05 2.4616e-20)
(1.0075 0.00088948 -4.1117e-18)
(0.97387 0.0011977 -2.1083e-17)
(1.0411 0.012729 -1.7203e-17)
(0.97607 0.0034848 -8.445e-18)
(0.9705 0.042994 -1.7762e-18)
(0.99986 0.00010675 -7.1683e-19)
(0.9999 -0.00018625 -6.4173e-18)
(1 -0.00041386 2.8166e-17)
(1.0002 -0.00059603 -3.0951e-17)
(1.0004 -0.00061155 -2.0392e-18)
(1.0008 -0.00052852 2.3952e-17)
(0.99919 2.5284e-05 7.0084e-19)
(1.0081 0.00096478 3.9216e-18)
(0.97318 0.0010108 1.8456e-17)
(1.0398 0.013143 2.2363e-17)
(0.98019 0.0039075 4.8315e-18)
(0.97195 0.042147 -9.918e-19)
(0.99985 0.00011004 -1.8662e-18)
(0.99989 -0.00019319 -2.3666e-18)
(1 -0.00042895 -1.2486e-17)
(1.0002 -0.00061733 1.5419e-17)
(1.0004 -0.00063542 2.9793e-17)
(1.0008 -0.00054797 -1.0586e-17)
(0.99908 8.4778e-06 2.1816e-17)
(1.0087 0.0010475 2.9394e-18)
(0.97261 0.00080529 -2.0902e-18)
(1.0384 0.013535 1.0117e-17)
(0.98401 0.0043432 -5.3986e-18)
(0.97364 0.04137 -6.9088e-19)
(0.99984 0.00011333 4.6672e-19)
(0.99989 -0.00020023 -6.2587e-18)
(1 -0.00044419 4.6745e-18)
(1.0002 -0.00063885 -1.5714e-17)
(1.0004 -0.00065969 -3.1513e-17)
(1.0009 -0.00056751 6.6709e-18)
(0.99895 -1.1136e-05 -3.1473e-17)
(1.0093 0.0011378 -6.719e-18)
(0.97213 0.00058208 6.7807e-18)
(1.0369 0.013903 -3.1754e-17)
(0.98752 0.0047872 3.6967e-18)
(0.97549 0.040656 1.9514e-18)
(0.99983 0.00011663 8.1963e-19)
(0.99988 -0.00020736 1.6957e-17)
(1 -0.00045959 7.8271e-18)
(1.0002 -0.0006606 6.4011e-18)
(1.0004 -0.00068438 2.5199e-17)
(1.0009 -0.00058714 1.9889e-18)
(0.99882 -3.3773e-05 2.1733e-17)
(1.0099 0.0012361 4.8198e-18)
(0.97177 0.00034216 -2.0606e-17)
(1.0352 0.014247 1.0933e-17)
(0.99073 0.0052354 2.4998e-18)
(0.97746 0.039999 2.0231e-18)
(0.99982 0.00011992 -2.862e-18)
(0.99987 -0.0002146 -5.5815e-18)
(1 -0.00047515 -6.8765e-18)
(1.0002 -0.00068258 1.0512e-17)
(1.0004 -0.00070949 1.2174e-17)
(1.001 -0.00060682 -3.9609e-18)
(0.99869 -5.9649e-05 -1.8256e-17)
(1.0106 0.0013423 2.1942e-17)
(0.97153 8.6748e-05 3.8168e-18)
(1.0335 0.014567 -3.303e-18)
(0.99364 0.0056835 1.0339e-17)
(0.97948 0.039393 -1.406e-18)
(0.99981 0.00012322 5.881e-18)
(0.99986 -0.00022194 6.6843e-18)
(1 -0.00049088 -7.31e-18)
(1.0002 -0.00070479 -6.5484e-18)
(1.0004 -0.00073505 -1.747e-17)
(1.001 -0.00062653 -6.8029e-18)
(0.99854 -8.8975e-05 9.0009e-18)
(1.0112 0.0014567 -3.5193e-17)
(0.97139 -0.00018276 9.3408e-18)
(1.0317 0.014861 -3.9048e-18)
(0.99625 0.006128 -1.0947e-17)
(0.98152 0.038832 4.0832e-18)
(0.9998 0.00012651 -2.5956e-18)
(0.99985 -0.00022939 -1.1744e-17)
(1 -0.00050676 -7.0849e-18)
(1.0002 -0.00072726 -1.2427e-17)
(1.0004 -0.00076106 -5.3342e-18)
(1.0011 -0.00064624 2.0002e-17)
(0.99839 -0.00012196 -8.8422e-18)
(1.0117 0.0015792 3.9148e-17)
(0.97137 -0.00046481 8.8065e-18)
(1.0298 0.01513 1.1849e-17)
(0.99857 0.0065654 4.6141e-18)
(0.98355 0.038311 -6.6215e-18)
(0.99979 0.00012982 -1.3768e-18)
(0.99984 -0.00023696 8.7341e-18)
(1 -0.00052282 1.4038e-17)
(1.0002 -0.00074997 3.3504e-17)
(1.0004 -0.00078755 7.0707e-18)
(1.0012 -0.00066593 -1.372e-17)
(0.99823 -0.00015879 4.267e-18)
(1.0123 0.0017096 -4.2115e-17)
(0.97146 -0.00075767 -1.0681e-17)
(1.0279 0.015373 -6.5886e-18)
(1.0006 0.0069926 4.526e-18)
(0.98552 0.037823 6.6582e-18)
(0.99978 0.00013312 1.0537e-18)
(0.99983 -0.00024464 2.0677e-18)
(0.99999 -0.00053906 -1.3786e-17)
(1.0002 -0.00077295 -5.5808e-18)
(1.0005 -0.00081453 8.9783e-18)
(1.0012 -0.00068556 1.6421e-17)
(0.99807 -0.00019965 1.4838e-17)
(1.0129 0.001848 4.1694e-18)
(0.97166 -0.0010595 1.1949e-17)
(1.0259 0.01559 -3.0532e-18)
(1.0024 0.0074068 -8.0792e-18)
(0.98742 0.037364 -1.717e-18)
(0.99976 0.00013643 -4.3149e-20)
(0.99982 -0.00025244 2.3565e-18)
(0.99998 -0.00055547 3.0811e-18)
(1.0002 -0.0007962 -7.245e-18)
(1.0005 -0.00084202 8.3835e-20)
(1.0013 -0.00070511 -1.4889e-17)
(0.99791 -0.00024472 -1.0037e-17)
(1.0134 0.0019939 3.0838e-17)
(0.97196 -0.0013684 -1.8056e-17)
(1.024 0.01578 1.1857e-17)
(1.0039 0.0078056 4.2667e-18)
(0.98923 0.036931 -4.8495e-18)
(0.99975 0.00013975 -3.2638e-18)
(0.99981 -0.00026036 -1.1052e-17)
(0.99998 -0.00057206 7.8668e-18)
(1.0002 -0.00081973 -1.9787e-17)
(1.0005 -0.00087003 -2.2707e-17)
(1.0014 -0.00072454 -2.0568e-17)
(0.99774 -0.00029414 -2.0456e-17)
(1.0139 0.0021471 -3.1583e-18)
(0.97235 -0.0016822 1.5779e-17)
(1.0221 0.015945 -1.0171e-17)
(1.0052 0.0081867 4.2394e-19)
(0.99095 0.036517 4.5677e-18)
(0.99974 0.00014307 6.2995e-18)
(0.99979 -0.00026842 1.155e-17)
(0.99997 -0.00058884 -1.2687e-17)
(1.0002 -0.00084355 1.6246e-17)
(1.0005 -0.00089859 -2.6633e-18)
(1.0014 -0.00074384 1.3482e-17)
(0.99757 -0.00034805 2.4588e-17)
(1.0144 0.0023071 -2.392e-17)
(0.97285 -0.001999 -8.0004e-18)
(1.0202 0.016082 1.0741e-17)
(1.0063 0.0085484 3.6864e-18)
(0.99255 0.036121 -2.1608e-18)
(0.99972 0.0001464 -4.727e-18)
(0.99978 -0.0002766 -3.4135e-18)
(0.99997 -0.00060581 -2.653e-18)
(1.0002 -0.00086767 1.8588e-17)
(1.0005 -0.0009277 -5.7013e-18)
(1.0015 -0.00076296 -1.7084e-19)
(0.99739 -0.00040656 -4.8114e-18)
(1.0148 0.0024736 1.916e-17)
(0.97342 -0.0023166 -7.5953e-18)
(1.0184 0.016194 -7.3757e-18)
(1.0072 0.008889 -1.0898e-17)
(0.99404 0.035738 2.5116e-18)
(0.99971 0.00014974 3.2132e-18)
(0.99977 -0.00028492 -4.3283e-18)
(0.99996 -0.00062297 6.0729e-18)
(1.0002 -0.00089209 -2.8204e-17)
(1.0005 -0.00095739 3.8622e-17)
(1.0016 -0.00078189 5.5854e-18)
(0.99722 -0.00046975 1.8984e-17)
(1.0152 0.0026457 -1.1855e-17)
(0.97408 -0.002633 1.011e-19)
(1.0167 0.016281 5.4855e-18)
(1.008 0.0092073 -2.1191e-18)
(0.99542 0.035366 -9.45e-19)
(0.99969 0.00015308 -9.1921e-19)
(0.99976 -0.00029339 8.461e-19)
(0.99995 -0.00064032 1.4798e-17)
(1.0002 -0.00091682 7.689e-18)
(1.0005 -0.00098768 -1.9309e-17)
(1.0017 -0.0008006 -1.094e-17)
(0.99704 -0.00053769 3.3151e-18)
(1.0156 0.0028231 -5.7629e-18)
(0.97481 -0.002946 1.2708e-17)
(1.015 0.016342 -3.6009e-18)
(1.0085 0.0095021 1.0201e-17)
(0.99669 0.035001 -3.449e-18)
(0.99968 0.00015644 -1.6001e-18)
(0.99974 -0.000302 -8.1561e-18)
(0.99994 -0.00065788 -4.3996e-18)
(1.0002 -0.00094188 3.0878e-17)
(1.0005 -0.0010186 -1.7204e-17)
(1.0018 -0.00081908 -9.2666e-19)
(0.99687 -0.0006104 -4.9573e-17)
(1.016 0.0030048 5.6654e-18)
(0.9756 -0.0032537 -2.3761e-17)
(1.0134 0.016379 -7.7768e-18)
(1.009 0.0097728 -1.02e-17)
(0.99785 0.034642 2.048e-18)
(0.99966 0.00015981 -6.9081e-19)
(0.99973 -0.00031075 5.053e-18)
(0.99993 -0.00067564 -1.8161e-18)
(1.0002 -0.00096728 -1.7979e-17)
(1.0005 -0.0010501 2.4723e-17)
(1.0019 -0.00083731 -2.2778e-18)
(0.99669 -0.00068789 2.6259e-17)
(1.0163 0.0031903 -3.4822e-18)
(0.97645 -0.0035543 1.1537e-17)
(1.0119 0.016392 9.7269e-18)
(1.0093 0.010019 8.4134e-18)
(0.99891 0.034286 -4.9525e-19)
(0.99965 0.0001632 3.9159e-18)
(0.99972 -0.00031967 -3.0235e-18)
(0.99993 -0.00069362 -6.3542e-18)
(1.0002 -0.00099301 1.9623e-17)
(1.0005 -0.0010823 1.8146e-18)
(1.0019 -0.00085527 2.824e-17)
(0.99652 -0.00077013 4.5299e-18)
(1.0166 0.0033785 1.6638e-17)
(0.97735 -0.0038459 4.3282e-18)
(1.0105 0.016383 -3.1472e-18)
(1.0096 0.01024 1.0945e-18)
(0.99987 0.033932 4.483e-19)
(0.99963 0.00016659 1.1166e-18)
(0.9997 -0.00032874 1.2361e-18)
(0.99992 -0.0007118 -5.7622e-18)
(1.0002 -0.0010191 -3.9079e-17)
(1.0005 -0.0011151 5.4952e-18)
(1.002 -0.00087297 2.4492e-18)
(0.99635 -0.00085706 -1.9642e-17)
(1.0169 0.0035688 2.3399e-19)
(0.97829 -0.0041269 1.2752e-17)
(1.0092 0.016352 -2.0234e-18)
(1.0097 0.010435 -5.3279e-18)
(1.0007 0.033577 2.6425e-18)
(0.99961 0.00017 -4.7815e-18)
(0.99969 -0.00033797 5.2396e-18)
(0.99991 -0.00073021 9.4966e-19)
(1.0002 -0.0010456 2.1701e-17)
(1.0005 -0.0011486 -2.5067e-17)
(1.0021 -0.00089039 -1.0818e-17)
(0.99619 -0.0009486 2.009e-17)
(1.0171 0.0037602 -1.1269e-17)
(0.97926 -0.0043958 -2.0157e-17)
(1.008 0.0163 -9.9989e-18)
(1.0098 0.010606 6.7853e-18)
(1.0015 0.033221 8.8079e-19)
(0.9996 0.00017343 -5.0602e-19)
(0.99967 -0.00034737 -5.2727e-18)
(0.9999 -0.00074883 1.0117e-17)
(1.0002 -0.0010724 9.6223e-18)
(1.0005 -0.0011828 3.0961e-17)
(1.0022 -0.00090756 4.1558e-18)
(0.99603 -0.0010446 1.7845e-17)
(1.0173 0.0039517 2.8569e-17)
(0.98025 -0.0046514 -8.8985e-19)
(1.0069 0.016229 1.7588e-17)
(1.0099 0.010752 -7.1808e-19)
(1.0023 0.032864 -2.571e-18)
(0.99958 0.00017687 4.9044e-18)
(0.99965 -0.00035695 -7.6768e-18)
(0.99989 -0.00076769 -1.5356e-17)
(1.0002 -0.0010996 -2.5572e-18)
(1.0005 -0.0012177 -3.3605e-17)
(1.0023 -0.00092447 -1.2365e-17)
(0.99587 -0.001145 -6.1937e-18)
(1.0175 0.0041425 2.1352e-19)
(0.98126 -0.0048925 2.6231e-17)
(1.0059 0.016139 4.053e-18)
(1.0099 0.010874 -9.3103e-18)
(1.0029 0.032503 1.5418e-18)
(0.99956 0.00018033 -5.4984e-18)
(0.99964 -0.0003667 9.5895e-18)
(0.99988 -0.00078677 8.0384e-18)
(1.0002 -0.0011272 -5.0961e-18)
(1.0005 -0.0012534 2.7026e-17)
(1.0024 -0.00094116 1.4794e-17)
(0.99572 -0.0012495 -4.8962e-18)
(1.0176 0.0043317 -2.879e-17)
(0.98228 -0.0051182 -8.9208e-19)
(1.005 0.016033 -1.1582e-17)
(1.0099 0.010972 1.1021e-17)
(1.0035 0.032138 -2.0196e-18)
(0.99954 0.00018381 3.304e-18)
(0.99962 -0.00037663 -1.8351e-18)
(0.99987 -0.00080609 1.0644e-17)
(1.0002 -0.0011553 -2.1442e-17)
(1.0005 -0.0012897 8.8257e-18)
(1.0026 -0.00095764 -5.3143e-18)
(0.99557 -0.0013579 -1.055e-17)
(1.0177 0.0045182 -2.3111e-18)
(0.98331 -0.0053277 -3.1652e-17)
(1.0042 0.015911 7.6413e-18)
(1.0098 0.011047 -1.0091e-17)
(1.0041 0.031769 6.7362e-19)
(0.99952 0.0001873 2.6127e-19)
(0.9996 -0.00038675 -5.7731e-18)
(0.99986 -0.00082566 6.0451e-18)
(1.0002 -0.0011837 2.8222e-17)
(1.0005 -0.0013269 -2.102e-17)
(1.0027 -0.00097396 1.7095e-17)
(0.99543 -0.0014701 -6.1004e-18)
(1.0178 0.0047013 5.3514e-18)
(0.98433 -0.0055206 3.7604e-17)
(1.0035 0.015775 -1.4185e-17)
(1.0098 0.0111 1.5423e-17)
(1.0046 0.031397 1.9058e-18)
(0.9995 0.00019081 4.6894e-19)
(0.99958 -0.00039706 -1.195e-18)
(0.99984 -0.00084547 -8.6962e-18)
(1.0002 -0.0012126 -4.2483e-18)
(1.0005 -0.0013647 1.8321e-17)
(1.0028 -0.00099016 1.3616e-19)
(0.9953 -0.0015857 -1.1991e-17)
(1.0178 0.0048799 -1.2776e-17)
(0.98535 -0.0056965 -1.5741e-17)
(1.0029 0.015626 -1.3391e-18)
(1.0098 0.011131 2.8228e-18)
(1.005 0.031019 1.994e-19)
(0.99948 0.00019435 -7.5454e-19)
(0.99957 -0.00040756 1.4218e-17)
(0.99983 -0.00086553 -5.8006e-18)
(1.0002 -0.0012419 -2.4011e-17)
(1.0005 -0.0014034 8.4473e-18)
(1.0029 -0.0010063 -4.3556e-17)
(0.99517 -0.0017046 5.9814e-18)
(1.0178 0.0050534 8.0443e-18)
(0.98635 -0.0058552 7.3118e-19)
(1.0024 0.015465 1.4407e-17)
(1.0097 0.011143 -9.4404e-19)
(1.0055 0.030638 -5.3247e-18)
(0.99946 0.0001979 -1.992e-19)
(0.99955 -0.00041827 -2.7895e-19)
(0.99982 -0.00088585 7.809e-18)
(1.0002 -0.0012717 1.4824e-17)
(1.0005 -0.0014428 -3.3562e-17)
(1.003 -0.0010224 1.8814e-18)
(0.99505 -0.0018263 1.0714e-17)
(1.0178 0.0052208 1.2599e-17)
(0.98734 -0.0059968 -9.954e-18)
(1.002 0.015294 -1.4027e-17)
(1.0097 0.011136 -1.5295e-17)
(1.0059 0.030252 5.6225e-18)
(0.99944 0.00020147 -1.3036e-18)
(0.99953 -0.00042918 3.9746e-19)
(0.9998 -0.00090642 -3.7651e-18)
(1.0002 -0.001302 -9.8978e-18)
(1.0005 -0.001483 1.8606e-17)
(1.0031 -0.0010386 2.3379e-17)
(0.99494 -0.0019507 3.1248e-18)
(1.0178 0.0053816 6.3851e-18)
(0.9883 -0.0061215 1.5875e-17)
(1.0016 0.015114 2.3608e-18)
(1.0097 0.01111 1.1307e-17)
(1.0063 0.029862 -3.4127e-18)
(0.99942 0.00020506 2.3996e-18)
(0.99951 -0.0004403 7.3275e-19)
(0.99979 -0.00092727 -5.3811e-18)
(1.0002 -0.0013328 1.4622e-18)
(1.0005 -0.001524 -1.0088e-17)
(1.0032 -0.0010549 -5.608e-18)
(0.99483 -0.0020775 -1.1549e-18)
(1.0178 0.0055349 -2.8832e-17)
(0.98925 -0.0062296 3.1159e-18)
(1.0013 0.014926 -4.7863e-18)
(1.0097 0.011067 -4.5989e-18)
(1.0067 0.029468 -4.1131e-18)
(0.99939 0.00020867 -4.8972e-18)
(0.99949 -0.00045164 9.5735e-19)
(0.99978 -0.00094838 2.8544e-18)
(1.0002 -0.0013641 -1.8375e-17)
(1.0005 -0.0015657 -1.1501e-17)
(1.0033 -0.0010714 -2.6036e-17)
(0.99473 -0.0022062 5.5738e-18)
(1.0177 0.0056801 1.1773e-17)
(0.99016 -0.0063216 -3.3416e-17)
(1.0011 0.014732 2.2071e-17)
(1.0097 0.011009 -4.9724e-18)
(1.007 0.029071 2.6527e-18)
(0.99937 0.00021231 4.4955e-18)
(0.99946 -0.0004632 2.1423e-18)
(0.99976 -0.00096977 1.0977e-18)
(1.0002 -0.0013959 5.8273e-18)
(1.0004 -0.0016083 -2.5409e-18)
(1.0035 -0.0010882 5.0463e-17)
(0.99464 -0.0023367 2.0012e-17)
(1.0176 0.0058168 -1.8313e-17)
(0.99105 -0.0063982 3.2161e-17)
(1.001 0.014531 -8.2345e-18)
(1.0097 0.010936 -3.2787e-18)
(1.0074 0.028671 -1.323e-18)
(0.99935 0.00021597 1.1028e-18)
(0.99944 -0.00047499 -1.3565e-17)
(0.99975 -0.00099144 2.1972e-18)
(1.0002 -0.0014283 2.6172e-17)
(1.0004 -0.0016516 1.9661e-17)
(1.0036 -0.0011054 -8.1438e-19)
(0.99456 -0.0024686 -2.7725e-17)
(1.0176 0.0059445 5.5442e-18)
(0.99192 -0.00646 -7.2527e-18)
(1.0009 0.014326 -1.1396e-17)
(1.0098 0.010849 8.3415e-18)
(1.0077 0.028268 1.2336e-18)
(0.99932 0.00021964 -4.3616e-18)
(0.99942 -0.00048701 -4.5227e-18)
(0.99973 -0.0010134 -1.1902e-17)
(1.0002 -0.0014612 -2.195e-17)
(1.0004 -0.0016957 -1.9784e-17)
(1.0037 -0.0011231 -2.2933e-17)
(0.99448 -0.0026017 5.1198e-18)
(1.0175 0.0060626 4.3112e-17)
(0.99275 -0.006508 3.1609e-18)
(1.0009 0.014116 -9.9513e-19)
(1.0099 0.01075 -2.9449e-18)
(1.0081 0.027862 -3.3141e-18)
(0.9993 0.00022335 3.2366e-18)
(0.9994 -0.00049927 4.201e-18)
(0.99971 -0.0010356 1.8342e-17)
(1.0002 -0.0014947 1.5203e-17)
(1.0004 -0.0017406 1.9248e-17)
(1.0038 -0.0011414 -8.5233e-19)
(0.99441 -0.0027356 -2.8527e-17)
(1.0173 0.006171 -2.3303e-17)
(0.99355 -0.0065429 7.8442e-18)
(1.0009 0.013903 3.9447e-18)
(1.01 0.01064 6.6391e-18)
(1.0084 0.027455 2.5613e-18)
(0.99927 0.00022707 -2.2858e-18)
(0.99937 -0.00051177 6.5907e-18)
(0.9997 -0.0010582 -1.2136e-17)
(1.0002 -0.0015288 2.2006e-18)
(1.0004 -0.0017863 8.9502e-18)
(1.0039 -0.0011604 -2.2419e-18)
(0.99434 -0.0028702 6.4046e-18)
(1.0172 0.0062694 6.4715e-18)
(0.99432 -0.0065658 2.5815e-18)
(1.0009 0.013688 9.751e-18)
(1.0101 0.010519 -7.9845e-18)
(1.0088 0.027046 5.175e-19)
(0.99924 0.00023082 3.4513e-18)
(0.99935 -0.00052452 4.0848e-19)
(0.99968 -0.001081 -5.6814e-18)
(1.0002 -0.0015636 8.7602e-19)
(1.0004 -0.0018327 -1.47e-18)
(1.0041 -0.0011802 -2.2147e-17)
(0.99428 -0.0030051 1.7883e-17)
(1.0171 0.0063576 2.297e-17)
(0.99506 -0.0065776 -1.2853e-17)
(1.001 0.013471 -1.3568e-17)
(1.0102 0.010388 -2.3337e-18)
(1.0091 0.026636 4.4049e-18)
(0.99922 0.00023459 -2.5072e-18)
(0.99932 -0.00053754 -3.146e-19)
(0.99966 -0.0011041 7.0636e-18)
(1.0002 -0.001599 -1.6824e-17)
(1.0004 -0.0018799 -1.3296e-17)
(1.0042 -0.0012009 2.7961e-17)
(0.99423 -0.0031401 -2.7349e-18)
(1.017 0.0064354 -2.4321e-17)
(0.99577 -0.0065794 3.2744e-18)
(1.0011 0.013252 1.2774e-17)
(1.0104 0.010249 7.9106e-18)
(1.0094 0.026225 -1.5883e-18)
(0.99919 0.00023839 2.4916e-19)
(0.9993 -0.00055081 2.3045e-18)
(0.99964 -0.0011276 3.8598e-18)
(1.0002 -0.001635 8.6975e-18)
(1.0003 -0.0019279 2.6063e-17)
(1.0043 -0.0012226 6.5195e-18)
(0.99419 -0.0032751 -2.3815e-17)
(1.0168 0.0065028 2.2795e-18)
(0.99645 -0.0065723 8.4343e-18)
(1.0013 0.013032 -1.1509e-17)
(1.0105 0.010102 -5.3484e-18)
(1.0097 0.025814 -1.8375e-18)
(0.99916 0.00024221 7.0748e-19)
(0.99927 -0.00056436 -4.0078e-19)
(0.99962 -0.0011513 -1.0185e-17)
(1.0002 -0.0016718 -1.8707e-19)
(1.0003 -0.0019765 -5.153e-17)
(1.0044 -0.0012455 8.0387e-18)
(0.99415 -0.0034099 2.3393e-17)
(1.0167 0.0065599 -6.549e-18)
(0.9971 -0.0065572 -8.8324e-18)
(1.0015 0.012811 1.9112e-17)
(1.0107 0.0099475 6.3992e-18)
(1.0101 0.025402 4.7624e-18)
(0.99913 0.00024606 7.6002e-19)
(0.99925 -0.00057819 -8.318e-19)
(0.9996 -0.0011754 1.842e-17)
(1.0002 -0.0017092 4.0119e-18)
(1.0003 -0.002026 4.5666e-17)
(1.0046 -0.0012696 -2.833e-17)
(0.99412 -0.0035443 -7.8342e-18)
(1.0165 0.0066066 6.1645e-18)
(0.99773 -0.0065352 3.0431e-18)
(1.0017 0.01259 -1.0753e-17)
(1.0109 0.009787 -1.036e-18)
(1.0104 0.024991 -3.5117e-18)
(0.9991 0.00024994 -2.9701e-18)
(0.99922 -0.0005923 1.3967e-18)
(0.99958 -0.0011998 -1.0827e-17)
(1.0002 -0.0017474 5.2756e-18)
(1.0003 -0.0020761 -1.7352e-17)
(1.0047 -0.0012949 3.8419e-18)
(0.99409 -0.0036782 3.1368e-17)
(1.0164 0.006643 -2.3074e-17)
(0.99833 -0.0065073 -1.1186e-17)
(1.0019 0.012368 -1.0637e-17)
(1.0111 0.0096208 -5.0883e-18)
(1.0107 0.024581 -9.6438e-19)
(0.99907 0.00025384 3.6998e-18)
(0.99919 -0.0006067 -3.3172e-18)
(0.99956 -0.0012245 -1.0508e-17)
(1.0002 -0.0017864 -8.4125e-18)
(1.0002 -0.0021269 -2.8372e-17)
(1.0048 -0.0013217 -1.7821e-17)
(0.99407 -0.0038115 -1.9234e-17)
(1.0162 0.0066694 2.1455e-17)
(0.9989 -0.0064746 1.0844e-17)
(1.0021 0.012147 1.6108e-17)
(1.0113 0.0094495 -1.9917e-18)
(1.011 0.024171 4.655e-18)
(0.99904 0.00025778 -5.9465e-18)
(0.99916 -0.00062141 5.375e-18)
(0.99954 -0.0012496 2.5728e-17)
(1.0002 -0.0018262 -1.9843e-18)
(1.0002 -0.0021785 3.1391e-17)
(1.0049 -0.00135 1.3431e-18)
(0.99405 -0.0039442 -1.8422e-17)
(1.0161 0.0066858 8.3982e-18)
(0.99945 -0.0064378 -3.9107e-18)
(1.0023 0.011925 -3.373e-18)
(1.0115 0.0092737 6.4618e-18)
(1.0113 0.023762 -3.148e-18)
(0.99901 0.00026174 4.8732e-18)
(0.99913 -0.00063642 -7.3049e-18)
(0.99951 -0.0012749 -2.9998e-17)
(1.0002 -0.0018667 1.2982e-17)
(1.0002 -0.0022307 -2.2366e-17)
(1.0051 -0.0013799 2.4635e-17)
(0.99405 -0.0040762 6.0044e-18)
(1.0159 0.0066925 -7.9942e-18)
(0.99998 -0.0063981 -1.8769e-18)
(1.0026 0.011704 -8.4469e-18)
(1.0118 0.0090938 -1.0534e-17)
(1.0117 0.023355 4.3513e-18)
(0.99897 0.00026573 -3.5897e-18)
(0.9991 -0.00065175 2.4291e-18)
(0.99949 -0.0013007 1.8228e-17)
(1.0002 -0.0019082 -1.7113e-17)
(1.0002 -0.0022836 3.5988e-17)
(1.0052 -0.0014114 -1.9122e-17)
(0.99404 -0.0042074 3.5003e-18)
(1.0158 0.0066896 -1.2637e-17)
(1.0005 -0.0063561 6.1264e-18)
(1.0028 0.011483 -1.1816e-18)
(1.012 0.0089103 4.5092e-18)
(1.012 0.022948 -1.9348e-18)
(0.99894 0.00026976 4.4028e-18)
(0.99907 -0.0006674 1.8912e-18)
(0.99947 -0.0013267 -1.2153e-17)
(1.0002 -0.0019505 -3.4822e-19)
(1.0001 -0.0023372 -1.5882e-18)
(1.0053 -0.0014446 4.6242e-18)
(0.99404 -0.004338 3.324e-17)
(1.0156 0.0066775 8.6441e-18)
(1.001 -0.0063127 -1.8159e-17)
(1.0031 0.011262 -6.1254e-18)
(1.0123 0.0087236 -4.2408e-18)
(1.0123 0.022544 2.0334e-18)
(0.99891 0.00027382 -5.0467e-18)
(0.99904 -0.00068338 -7.0086e-18)
(0.99944 -0.0013532 5.0987e-18)
(1.0002 -0.0019936 1.4808e-17)
(1.0001 -0.0023915 -3.2648e-17)
(1.0055 -0.0014796 1.5538e-17)
(0.99405 -0.0044679 -3.2005e-17)
(1.0155 0.0066562 1.0371e-17)