/*--------------------------------*- C++ -*----------------------------------*\
  =========                 |
  \\      /  F ield         | OpenFOAM: The Open Source CFD Toolbox
   \\    /   O peration     | Website:  https://openfoam.org
    \\  /    A nd           | Version:  6.0
     \\/     M anipulation  |
\*---------------------------------------------------------------------------*/
FoamFile
{
    version     2.0;
    format      ascii;
    class       volScalarField;
    location    "10";
    object      p;
}
// * * * * * * * * * * * * * * * * * * * * * * * * * * * * * * * * * * * * * //

dimensions      [0 2 -2 0 0 0 0];

internalField   nonuniform List<scalar> 
62000
(
0.0364624
0.0368525
0.037228
0.037605
0.0379703
0.0383361
0.0386917
0.0390484
0.0393951
0.0397449
0.0400857
0.0404333
0.0407731
0.0411246
0.0414714
0.0418351
0.0421988
0.0425843
0.0429752
0.0433922
0.0438196
0.0442769
0.0447479
0.0452521
0.0457709
0.0463245
0.046892
0.047493
0.0481076
0.0487559
0.0494199
0.050117
0.0508395
0.051621
0.0524931
0.0534855
0.054633
0.0559918
0.057639
0.059673
0.0622025
0.0653451
0.0692218
0.0739232
0.0794414
0.0856007
0.0920261
0.098077
0.103059
0.106232
0.107439
0.107012
0.106073
0.105959
0.107084
0.109299
0.110851
0.109819
0.110168
0.112994
0.0377438
0.0382798
0.0387535
0.0391946
0.039591
0.0399595
0.040293
0.0406084
0.0408975
0.0411786
0.0414414
0.0417063
0.0419595
0.0422247
0.0424848
0.0427654
0.043049
0.0433601
0.0436825
0.0440374
0.0444102
0.0448179
0.0452475
0.045712
0.0461992
0.0467187
0.0472597
0.047827
0.0484127
0.0490196
0.0496474
0.0502994
0.0509839
0.0517236
0.0525473
0.053488
0.054584
0.0558919
0.0574913
0.0594837
0.0619846
0.0651203
0.0690249
0.073804
0.0794712
0.0858763
0.0926722
0.099237
0.104874
0.108814
0.110831
0.111234
0.111201
0.11221
0.114978
0.119567
0.12438
0.126872
0.132954
0.136167
0.0397593
0.0401093
0.0404318
0.0407506
0.0410513
0.0413466
0.041624
0.0418968
0.0421523
0.0424061
0.0426439
0.0428844
0.0431103
0.0433439
0.0435648
0.0437985
0.0440242
0.0442681
0.0445116
0.0447794
0.0450563
0.0453632
0.0456878
0.046047
0.0464304
0.0468496
0.0472969
0.0477765
0.0482825
0.0488141
0.0493733
0.0499653
0.0506051
0.0513162
0.0521293
0.0530708
0.054174
0.0554925
0.0571031
0.0591043
0.0616081
0.0647403
0.0686327
0.0733906
0.0790303
0.0854042
0.0921667
0.0986804
0.104201
0.107871
0.1093
0.108655
0.107015
0.10582
0.10604
0.108138
0.111227
0.112882
0.119543
0.119277
0.0405037
0.0406448
0.0408041
0.0409991
0.0412167
0.041468
0.041739
0.0420409
0.0423565
0.0426978
0.0430441
0.0434092
0.0437684
0.0441388
0.0444927
0.0448501
0.0451844
0.0455172
0.0458259
0.046133
0.0464212
0.0467119
0.0469931
0.0472843
0.0475773
0.0478883
0.0482129
0.0485596
0.0489251
0.049309
0.0497151
0.0501529
0.0506465
0.0512338
0.0519435
0.0528009
0.0538318
0.0550887
0.0566502
0.0586134
0.0610923
0.0642162
0.0681214
0.072922
0.0786501
0.0851791
0.0921863
0.0990449
0.104986
0.109081
0.110776
0.110027
0.107731
0.105113
0.103238
0.102885
0.103884
0.104228
0.110022
0.109958
0.0391093
0.0391824
0.039283
0.0394292
0.0396111
0.0398431
0.0401142
0.0404377
0.0407999
0.041214
0.0416611
0.0421547
0.0426692
0.0432185
0.0437711
0.0443422
0.044898
0.0454539
0.0459788
0.0464889
0.0469591
0.0474061
0.0478125
0.0481956
0.0485449
0.0488773
0.0491895
0.0494927
0.0497853
0.050068
0.0503452
0.0506323
0.0509653
0.0513886
0.0519448
0.0526537
0.053542
0.0546673
0.0561145
0.0579865
0.0604065
0.0635181
0.0674726
0.072404
0.0783772
0.0853089
0.09293
0.100663
0.107762
0.113275
0.116519
0.117252
0.116119
0.114032
0.111896
0.110637
0.11046
0.109826
0.114465
0.116282
0.0369989
0.0371034
0.0372191
0.0373656
0.0375342
0.0377419
0.0379812
0.03827
0.0385984
0.0389851
0.0394158
0.0399089
0.0404429
0.041036
0.0416588
0.042328
0.0430096
0.043717
0.0444156
0.0451165
0.0457882
0.0464402
0.0470475
0.0476203
0.0481409
0.0486214
0.0490543
0.0494484
0.0498005
0.0501087
0.0503765
0.0506206
0.0508812
0.0512174
0.0516686
0.0522623
0.0530285
0.0540325
0.0553683
0.0571463
0.059502
0.0625964
0.0665974
0.0716586
0.0778793
0.0852272
0.0935
0.102195
0.110626
0.117864
0.123155
0.126086
0.127065
0.126643
0.125455
0.124335
0.123639
0.122088
0.125428
0.127904
0.0348114
0.0349712
0.0351302
0.0353067
0.0354907
0.0356981
0.0359209
0.0361768
0.0364576
0.0367834
0.037144
0.0375614
0.0380199
0.0385425
0.0391064
0.0397332
0.0403942
0.0411065
0.0418377
0.0426003
0.0433611
0.0441278
0.0448707
0.0455951
0.0462769
0.0469222
0.0475172
0.0480659
0.0485596
0.0489912
0.0493587
0.0496758
0.0499848
0.050339
0.050788
0.0513559
0.0520794
0.053031
0.0543106
0.0560338
0.0583446
0.0614168
0.0654274
0.0705402
0.0768798
0.0844571
0.0931349
0.102492
0.111919
0.120547
0.127592
0.132537
0.13559
0.136998
0.137065
0.136452
0.135488
0.133031
0.135012
0.136384
0.0328497
0.0330641
0.0332701
0.0334844
0.0336956
0.0339182
0.0341431
0.0343866
0.0346394
0.0349213
0.0352212
0.0355622
0.0359296
0.0363499
0.0368034
0.037317
0.0378673
0.0384775
0.0391212
0.0398159
0.0405333
0.0412836
0.0420388
0.0428038
0.0435528
0.0442892
0.0449954
0.0456711
0.0463031
0.0468779
0.0473876
0.0478385
0.0482653
0.0487242
0.0492528
0.0498799
0.0506428
0.0516175
0.0529046
0.0546195
0.0569075
0.0599453
0.0639092
0.0689601
0.0752351
0.0827762
0.0915005
0.101064
0.110943
0.120348
0.128511
0.134862
0.139487
0.142386
0.143587
0.143501
0.142405
0.139135
0.139877
0.13924
0.0309435
0.0311969
0.0314399
0.0316886
0.0319305
0.0321786
0.0324222
0.0326754
0.0329277
0.0331962
0.0334693
0.033768
0.0340782
0.0344248
0.0347904
0.0352024
0.0356408
0.036132
0.0366542
0.0372301
0.0378367
0.0384899
0.0391662
0.0398752
0.0405937
0.0413274
0.0420591
0.0427888
0.0435009
0.0441789
0.0448087
0.0453904
0.0459538
0.0465402
0.0471901
0.0479232
0.0487772
0.0498263
0.0511666
0.0529073
0.0551873
0.0581767
0.0620407
0.0669285
0.0729778
0.0802498
0.088704
0.0980647
0.107891
0.117482
0.126111
0.133208
0.13879
0.142703
0.144732
0.145073
0.143912
0.140041
0.139741
0.137061
0.0291943
0.0294818
0.0297557
0.0300318
0.0302974
0.0305651
0.0308241
0.0310882
0.0313455
0.0316122
0.0318747
0.0321528
0.0324298
0.0327305
0.0330352
0.0333717
0.0337202
0.0341085
0.0345171
0.0349718
0.0354536
0.0359829
0.0365414
0.0371435
0.0377712
0.0384344
0.0391203
0.0398318
0.0405553
0.0412737
0.0419716
0.0426434
0.0433106
0.0440144
0.0447796
0.0456258
0.0465852
0.0477265
0.0491366
0.0509144
0.0531866
0.056108
0.0598263
0.0644729
0.0701784
0.0770144
0.0849721
0.0938338
0.103235
0.112565
0.121155
0.128465
0.134505
0.139016
0.141609
0.142277
0.141141
0.136887
0.135789
0.131543
0.0273715
0.027689
0.0279927
0.0282983
0.0285921
0.0288864
0.0291694
0.0294538
0.0297273
0.0300048
0.0302724
0.0305482
0.0308155
0.0310965
0.0313717
0.0316666
0.0319611
0.032282
0.0326103
0.0329722
0.0333509
0.0337692
0.0342124
0.0346991
0.035216
0.0357783
0.0363782
0.0370235
0.0377048
0.0384078
0.0391167
0.0398254
0.0405533
0.0413292
0.0421807
0.0431171
0.0441666
0.0453901
0.0468631
0.0486715
0.0509265
0.0537624
0.0573055
0.0616685
0.0669705
0.0732874
0.0806338
0.0888393
0.0976066
0.106409
0.114638
0.121811
0.12795
0.132754
0.135688
0.136603
0.13554
0.131107
0.129401
0.124183
0.0255946
0.0259404
0.026271
0.0266019
0.0269191
0.027235
0.0275377
0.02784
0.0281289
0.0284193
0.0286957
0.0289761
0.0292417
0.0295149
0.0297739
0.0300439
0.0303034
0.030579
0.0308508
0.0311451
0.0314453
0.0317753
0.0321219
0.0325062
0.0329179
0.0333761
0.0338776
0.0344349
0.0350433
0.0356921
0.0363691
0.0370674
0.0378037
0.0386107
0.0395036
0.0404928
0.0415997
0.0428771
0.0443884
0.0462061
0.0484253
0.051156
0.0545034
0.0585629
0.0634401
0.0692121
0.0759104
0.0834033
0.0914502
0.0996005
0.107307
0.114146
0.120186
0.125098
0.128251
0.129364
0.12843
0.123944
0.1218
0.116146
0.0237629
0.0241262
0.0244751
0.024825
0.0251619
0.0254975
0.0258198
0.0261404
0.0264468
0.0267522
0.0270423
0.0273329
0.0276066
0.0278827
0.0281408
0.0284032
0.0286487
0.0289015
0.0291418
0.029394
0.029642
0.029909
0.0301829
0.0304856
0.0308089
0.0311743
0.0315817
0.0320477
0.0325713
0.0331463
0.0337622
0.0344154
0.0351248
0.0359154
0.0368095
0.0378098
0.0389349
0.0402302
0.041748
0.0435484
0.0457114
0.0483224
0.0514677
0.0552282
0.0596958
0.0649472
0.0710261
0.0778316
0.0851706
0.0926566
0.0997935
0.106227
0.112065
0.116984
0.120265
0.121539
0.120738
0.116283
0.113801
0.108085
0.0220134
0.0223921
0.0227546
0.0231163
0.0234636
0.0238083
0.0241389
0.0244677
0.0247816
0.0250944
0.0253907
0.0256867
0.0259632
0.0262406
0.0264961
0.0267525
0.026987
0.0272238
0.0274417
0.0276648
0.0278758
0.0280977
0.0283178
0.0285581
0.0288111
0.0290992
0.0294244
0.0298055
0.0302448
0.0307384
0.0312798
0.0318663
0.0325169
0.0332637
0.0341209
0.0350948
0.0362002
0.0374762
0.038966
0.0407191
0.0428016
0.0452779
0.0482193
0.0516927
0.0557781
0.0605513
0.0660653
0.0722433
0.0789303
0.0857945
0.0923873
0.0984119
0.104031
0.108919
0.112297
0.113713
0.11305
0.108649
0.105916
0.100376
0.0201493
0.020542
0.0209191
0.0212957
0.0216576
0.0220167
0.0223608
0.0227017
0.0230264
0.0233484
0.0236528
0.0239553
0.0242378
0.0245188
0.0247769
0.0250331
0.0252649
0.0254946
0.0257011
0.0259067
0.026094
0.0262847
0.0264661
0.0266595
0.0268576
0.0270831
0.0273388
0.027645
0.0280054
0.0284189
0.0288794
0.0293879
0.029966
0.0306409
0.0314358
0.0323523
0.0334051
0.0346291
0.0360601
0.0377395
0.0397217
0.0420547
0.0447983
0.0480067
0.0517505
0.0561046
0.0611287
0.066765
0.0728895
0.0792139
0.0853242
0.090983
0.0963913
0.10124
0.104685
0.106221
0.105668
0.101326
0.0983841
0.0931226
0.0182861
0.0186928
0.0190828
0.0194714
0.019844
0.0202127
0.0205655
0.0209145
0.0212465
0.0215752
0.0218849
0.0221917
0.0224762
0.0227585
0.0230151
0.0232682
0.0234939
0.0237157
0.0239106
0.0241014
0.0242694
0.0244359
0.0245871
0.0247438
0.0248981
0.0250723
0.0252695
0.0255101
0.0257993
0.0261359
0.0265167
0.0269423
0.0274343
0.0280278
0.0287389
0.0295753
0.0305497
0.0316941
0.0330394
0.034621
0.0364842
0.0386646
0.0412136
0.0441755
0.0476131
0.0516007
0.056203
0.0613769
0.0670229
0.0728884
0.0785901
0.0839361
0.0891737
0.0939962
0.0975095
0.0991518
0.0986908
0.0943867
0.0912855
0.0863358
0.0163252
0.0167383
0.0171359
0.0175329
0.0179149
0.0182933
0.018656
0.0190141
0.019355
0.0196911
0.020008
0.0203206
0.0206108
0.0208967
0.0211566
0.0214105
0.0216361
0.0218543
0.0220434
0.0222241
0.0223784
0.022526
0.0226532
0.0227798
0.0228977
0.0230284
0.023175
0.0233578
0.0235817
0.0238469
0.0241487
0.0244905
0.0248956
0.0253937
0.0260107
0.0267501
0.0276268
0.0286711
0.0299104
0.0313766
0.0331083
0.0351321
0.0374937
0.0402303
0.0433991
0.0470734
0.0513217
0.0561127
0.0613668
0.0668588
0.0722246
0.0773197
0.0824178
0.0872261
0.0907961
0.0925273
0.0921235
0.0878404
0.0846041
0.0799322
0.0144134
0.0148316
0.0152327
0.015632
0.0160151
0.0163937
0.0167562
0.0171142
0.0174547
0.0177909
0.0181071
0.0184189
0.0187069
0.0189906
0.0192464
0.0194956
0.0197144
0.019925
0.0201042
0.0202732
0.0204129
0.0205428
0.020648
0.0207479
0.0208336
0.0209256
0.0210268
0.0211568
0.0213207
0.0215175
0.0217444
0.0220026
0.0223151
0.0227183
0.0232311
0.0238631
0.0246285
0.025557
0.026674
0.0280096
0.029598
0.0314591
0.0336359
0.0361606
0.0390862
0.0424854
0.0464296
0.0508971
0.0558234
0.0610065
0.0660987
0.070991
0.0759902
0.080804
0.0844368
0.0862481
0.0858835
0.0816012
0.0782678
0.0738273
0.0123764
0.0127995
0.0132059
0.0136111
0.0139999
0.0143842
0.0147514
0.015113
0.0154561
0.0157934
0.0161101
0.0164212
0.0167084
0.0169899
0.0172436
0.0174892
0.0177039
0.0179082
0.0180797
0.018238
0.0183645
0.0184775
0.0185621
0.0186367
0.0186921
0.0187479
0.0188065
0.0188868
0.0189933
0.0191254
0.0192778
0.0194537
0.0196767
0.0199773
0.0203834
0.0209006
0.0215453
0.0223473
0.0233312
0.0245266
0.0259651
0.0276619
0.0296591
0.0319861
0.0346933
0.0378525
0.0415376
0.0457352
0.0503937
0.0553279
0.0601992
0.0649349
0.0698585
0.074686
0.0783744
0.080253
0.0799039
0.0756123
0.0722044
0.0679228
0.0103401
0.010768
0.0111783
0.0115862
0.0119768
0.0123618
0.0127289
0.0130901
0.0134318
0.0137674
0.014081
0.0143884
0.0146699
0.0149453
0.0151905
0.0154271
0.0156307
0.0158234
0.0159815
0.0161254
0.0162352
0.0163293
0.0163919
0.0164408
0.0164659
0.0164862
0.0165032
0.016535
0.0165859
0.0166536
0.0167343
0.0168282
0.0169578
0.0171597
0.0174541
0.0178522
0.0183701
0.0190378
0.0198798
0.0209262
0.0222072
0.0237351
0.0255526
0.0276881
0.0301897
0.0331294
0.0365829
0.0405441
0.0449715
0.0496952
0.0543832
0.0589916
0.0638672
0.0687223
0.0724724
0.0744153
0.0740751
0.069768
0.0663224
0.0621409
0.00820546
0.00863202
0.00904214
0.00945086
0.00984304
0.0102299
0.010599
0.0109612
0.0113037
0.0116385
0.0119511
0.0122558
0.0125348
0.0128053
0.0130459
0.0132754
0.0134714
0.013654
0.0138004
0.0139297
0.0140228
0.014097
0.0141365
0.0141584
0.0141523
0.0141362
0.0141112
0.0140945
0.0140895
0.0140941
0.0141015
0.0141139
0.0141535
0.0142505
0.0144334
0.014709
0.0150957
0.0156241
0.0163189
0.0172112
0.018331
0.0196891
0.0213293
0.0232803
0.0255892
0.0283278
0.0315744
0.0353292
0.0395602
0.0441089
0.0486453
0.053156
0.0579942
0.0628799
0.066686
0.0686871
0.0683468
0.0640274
0.0605669
0.0564162
0.00612965
0.00655366
0.00695964
0.00736294
0.0077486
0.00812803
0.00848928
0.00884356
0.00917777
0.00950454
0.00980812
0.0101037
0.0103717
0.0106314
0.0108587
0.0110747
0.0112551
0.0114216
0.0115501
0.0116604
0.0117325
0.0117835
0.0117972
0.01179
0.0117509
0.0116969
0.0116285
0.0115622
0.0115007
0.0114405
0.0113758
0.0113054
0.0112506
0.0112469
0.0113146
0.0114658
0.0117181
0.012103
0.0126453
0.0133781
0.014331
0.0155148
0.0169753
0.0187417
0.0208609
0.0234057
0.0264558
0.030019
0.0340694
0.0384618
0.0428637
0.0472904
0.0521085
0.0570337
0.0609019
0.0629641
0.0626285
0.0583055
0.0548658
0.0506974
0.00394175
0.00436367
0.00476801
0.00517003
0.00555408
0.00593168
0.00629001
0.00664014
0.00696889
0.00728869
0.00758441
0.00787076
0.00812929
0.00837775
0.00859386
0.0087967
0.00896342
0.0091139
0.00922507
0.00931535
0.00936529
0.00939131
0.00937698
0.00933821
0.00926365
0.0091695
0.0090557
0.00893789
0.00881788
0.00869215
0.00855217
0.0083985
0.00825142
0.00814056
0.00809351
0.00811777
0.00823302
0.0084712
0.00885807
0.00942805
0.0102117
0.0112196
0.0125002
0.0140836
0.0160177
0.0183754
0.0212407
0.0246254
0.0285142
0.0327677
0.0370563
0.0414144
0.0462164
0.0511808
0.0551081
0.0572319
0.0569041
0.0525904
0.0491927
0.0449528
0.00176803
0.00218789
0.00258898
0.00298661
0.00336512
0.00373604
0.00408681
0.00442886
0.00474849
0.00505874
0.00534318
0.00561754
0.00586155
0.00609502
0.00629331
0.00647769
0.00662341
0.00675232
0.00683984
0.00690535
0.00692849
0.00692571
0.00687989
0.00680649
0.00669362
0.00655655
0.00639483
0.00622291
0.00604253
0.00584817
0.00563264
0.00539288
0.00514853
0.00493346
0.00476771
0.00466326
0.00463892
0.00472726
0.00495462
0.00535733
0.00596643
0.00679386
0.00788971
0.00928644
0.0110321
0.0132026
0.0158823
0.0190931
0.0228227
0.0269467
0.0311239
0.03542
0.0402164
0.0452269
0.0492203
0.0514136
0.0511065
0.0468197
0.0434973
0.0391523
-0.00049859
-8.56585e-05
0.000309568
0.000702144
0.00107626
0.00144281
0.0017891
0.00212541
0.0024388
0.00274087
0.00301676
0.00328041
0.00351367
0.00373364
0.00391829
0.00408607
0.00421441
0.00432278
0.00438811
0.00442816
0.00442351
0.00438973
0.00430988
0.00419892
0.00404465
0.00386167
0.00364891
0.00342022
0.00317613
0.00291149
0.002616
0.00228867
0.00194758
0.00162154
0.00133666
0.00110065
0.00093384
0.000869515
0.000934631
0.0011673
0.00159925
0.00224369
0.00315272
0.00436059
0.00591754
0.00790059
0.0103993
0.0134394
0.0170205
0.0210212
0.025106
0.0293469
0.034138
0.0391949
0.0432543
0.0455226
0.0452472
0.0410046
0.037776
0.0332866
-0.0026939
-0.00228926
-0.00190401
-0.00152275
-0.00116111
-0.000808034
-0.000475826
-0.000153743
0.000144787
0.000431988
0.000691673
0.000938736
0.00115312
0.00135393
0.00151664
0.00166176
0.00176478
0.00184699
0.00188381
0.00189389
0.00185693
0.00178853
0.00167117
0.00151938
0.00132057
0.00108842
0.000821601
0.000532719
0.000222419
-0.000116628
-0.000493116
-0.000912063
-0.0013552
-0.00179092
-0.00219943
-0.00256943
-0.0028815
-0.00310183
-0.00320292
-0.00314478
-0.00289533
-0.00243913
-0.00172333
-0.000709959
0.0006516
0.00244316
0.00475454
0.00762309
0.0110512
0.0149343
0.01892
0.0231082
0.027902
0.0330117
0.0371451
0.0394993
0.039273
0.0350982
0.031994
0.0273383
-0.00498181
-0.00458466
-0.00420669
-0.00383247
-0.00347845
-0.00313338
-0.00281052
-0.0024992
-0.00221298
-0.00193982
-0.00169527
-0.00146505
-0.00126798
-0.00108667
-0.000943847
-0.000821079
-0.000741384
-0.00068536
-0.000676572
-0.000697737
-0.000768501
-0.000873983
-0.00103168
-0.00122742
-0.00147416
-0.00175878
-0.00208322
-0.00243538
-0.00281589
-0.00323151
-0.00369427
-0.00420663
-0.00475298
-0.00530513
-0.00583871
-0.00634629
-0.00680683
-0.00718662
-0.00745672
-0.00757658
-0.0075123
-0.00724825
-0.00672891
-0.00591487
-0.00475118
-0.00315534
-0.00103018
0.0016644
0.00494721
0.00871247
0.0126205
0.0167554
0.0215504
0.0267143
0.0309246
0.0333736
0.0332121
0.029123
0.026159
0.0213096
-0.00723227
-0.00684305
-0.00647448
-0.00611097
-0.00576906
-0.00543736
-0.00512898
-0.00483279
-0.00456299
-0.00430683
-0.00408129
-0.00387096
-0.0036967
-0.00353881
-0.00342272
-0.00332756
-0.00327857
-0.00325416
-0.00327966
-0.00333668
-0.00344593
-0.00359231
-0.00379407
-0.00403729
-0.00433538
-0.00467602
-0.0050614
-0.00548063
-0.00593411
-0.00643096
-0.00698123
-0.00759213
-0.00824665
-0.00891547
-0.00957898
-0.0102272
-0.0108395
-0.0113826
-0.011826
-0.012129
-0.0122554
-0.0121896
-0.0118741
-0.0112662
-0.0103084
-0.0089143
-0.00698438
-0.00446712
-0.00133722
0.00231474
0.00613254
0.0102198
0.0150198
0.0202435
0.024539
0.0270953
0.0270184
0.023041
0.0202455
0.0151901
-0.00955787
-0.00918102
-0.00882395
-0.0084713
-0.00813978
-0.00781873
-0.00752134
-0.00723776
-0.00698124
-0.00674074
-0.00653134
-0.00633985
-0.00618454
-0.006049
-0.00595552
-0.00588667
-0.00586499
-0.00587177
-0.00593043
-0.00602455
-0.00617359
-0.0063635
-0.00661218
-0.00690614
-0.00725904
-0.00765909
-0.00810907
-0.00859851
-0.00912916
-0.00970939
-0.0103529
-0.0110639
-0.0118291
-0.0126206
-0.0134167
-0.0142086
-0.0149775
-0.0156867
-0.0163083
-0.0167972
-0.0171192
-0.0172555
-0.017149
-0.0167522
-0.0160048
-0.0148181
-0.0130847
-0.0107492
-0.00776636
-0.00423102
-0.000480906
0.00355305
0.00835775
0.0136441
0.0180291
0.0207038
0.0207291
0.0168812
0.0142671
0.00898723
-0.0117917
-0.011429
-0.011088
-0.010753
-0.0104405
-0.0101397
-0.00986334
-0.0096012
-0.00936704
-0.00914915
-0.00896405
-0.00879744
-0.00866973
-0.00856226
-0.00850009
-0.00846348
-0.00847723
-0.00852053
-0.00861862
-0.00875403
-0.00894727
-0.00918409
-0.00948309
-0.00983098
-0.0102418
-0.0107046
-0.0112223
-0.0117857
-0.012396
-0.0130644
-0.0138022
-0.0146189
-0.0154986
-0.0164142
-0.0173474
-0.0182874
-0.0192155
-0.0200962
-0.0209002
-0.021582
-0.0221055
-0.0224512
-0.0225608
-0.0223826
-0.0218543
-0.0208821
-0.0193556
-0.0172061
-0.0143802
-0.0109583
-0.00729163
-0.00330391
0.00151066
0.00686337
0.0113454
0.0141517
0.0143009
0.0106111
0.00820597
0.00269515
-0.0141074
-0.0137573
-0.013429
-0.0131067
-0.0128078
-0.0125213
-0.012261
-0.0120167
-0.0118021
-0.0116059
-0.0114438
-0.0113023
-0.0112004
-0.0111214
-0.0110883
-0.0110838
-0.0111309
-0.011211
-0.0113481
-0.0115263
-0.0117653
-0.0120515
-0.0124035
-0.0128083
-0.0132803
-0.0138089
-0.0143976
-0.0150377
-0.0157317
-0.0164901
-0.017328
-0.0182514
-0.0192484
-0.0202951
-0.0213663
-0.0224589
-0.02355
-0.024607
-0.0255977
-0.0264777
-0.0272074
-0.027768
-0.0280987
-0.0281452
-0.0278413
-0.0270903
-0.0257731
-0.023815
-0.0211422
-0.0178393
-0.0142366
-0.0103001
-0.00547523
-5.31472e-05
0.00453121
0.00748229
0.00777391
0.00425919
0.00207421
-0.00367825
-0.016383
-0.0160462
-0.0157329
-0.0154271
-0.0151464
-0.0148795
-0.0146401
-0.0144175
-0.0142262
-0.014054
-0.0139184
-0.0138044
-0.0137333
-0.0136859
-0.0136883
-0.0137203
-0.0138076
-0.013929
-0.0141107
-0.0143354
-0.0146241
-0.0149628
-0.0153709
-0.0158355
-0.0163715
-0.016969
-0.0176316
-0.0183517
-0.019132
-0.0199851
-0.0209238
-0.0219591
-0.0230789
-0.0242541
-0.0254709
-0.0267176
-0.0279774
-0.0292148
-0.0303993
-0.0314834
-0.0324277
-0.0332099
-0.0337701
-0.0340486
-0.0339786
-0.0334565
-0.0323594
-0.0305987
-0.0280901
-0.0249071
-0.0213844
-0.0174863
-0.0126479
-0.00715425
-0.00246087
0.000649007
0.00110624
-0.00220238
-0.00413966
-0.0101347
-0.0187482
-0.0184276
-0.0181297
-0.0178388
-0.0175725
-0.0173206
-0.0170967
-0.0168917
-0.0167189
-0.0165681
-0.0164546
-0.0163659
-0.0163205
-0.0163029
-0.0163355
-0.0164023
-0.0165256
-0.0166877
-0.0169124
-0.0171845
-0.0175238
-0.0179171
-0.0183836
-0.0189106
-0.0195134
-0.0201824
-0.0209221
-0.0217251
-0.0225955
-0.023545
-0.02459
-0.0257388
-0.0269812
-0.0282942
-0.0296556
-0.0310612
-0.0324939
-0.0339169
-0.0353003
-0.0365943
-0.0377587
-0.0387685
-0.0395638
-0.0400813
-0.0402515
-0.0399657
-0.0390924
-0.0375347
-0.0351896
-0.0321341
-0.0286757
-0.0248193
-0.0199638
-0.0143949
-0.00958611
-0.00630264
-0.0056604
-0.00874652
-0.0104252
-0.0166675
-0.0210244
-0.0207219
-0.0204442
-0.0201749
-0.0199318
-0.0197042
-0.0195057
-0.0193265
-0.0191809
-0.0190578
-0.0189741
-0.0189162
-0.0189049
-0.0189222
-0.0189936
-0.0191003
-0.0192674
-0.0194746
-0.0197478
-0.0200706
-0.0204638
-0.0209142
-0.0214416
-0.0220334
-0.0227053
-0.0234486
-0.024268
-0.0251571
-0.0261199
-0.0271701
-0.0283223
-0.0295892
-0.03096
-0.032408
-0.0339199
-0.0354889
-0.0370981
-0.0387129
-0.0403008
-0.0418125
-0.0432043
-0.0444501
-0.0454882
-0.0462538
-0.0466733
-0.0466331
-0.045994
-0.0446477
-0.0424778
-0.0395553
-0.0361749
-0.032347
-0.0274689
-0.0218233
-0.0168922
-0.0134192
-0.0125662
-0.0153953
-0.0167865
-0.0232724
-0.023369
-0.0230828
-0.0228218
-0.0225695
-0.0223447
-0.0221365
-0.0219595
-0.021804
-0.0216842
-0.0215894
-0.0215355
-0.0215099
-0.0215317
-0.0215851
-0.0216933
-0.0218402
-0.0220489
-0.0223015
-0.0226222
-0.0229968
-0.0234448
-0.0239541
-0.0245442
-0.0252031
-0.0259467
-0.026767
-0.027669
-0.028647
-0.0297059
-0.0308589
-0.0321237
-0.0335107
-0.0350104
-0.0366024
-0.0382655
-0.0400007
-0.0417911
-0.0436015
-0.0453993
-0.0471337
-0.0487591
-0.0502467
-0.0515346
-0.0525558
-0.0532323
-0.053445
-0.0530457
-0.0519163
-0.0499249
-0.0471426
-0.0438321
-0.0400315
-0.0351248
-0.0293978
-0.0243355
-0.020656
-0.0195715
-0.0221272
-0.0232183
-0.0299452
-0.0256529
-0.0253886
-0.0251511
-0.024924
-0.0247255
-0.0245449
-0.0243962
-0.0242698
-0.0241805
-0.0241168
-0.0240966
-0.0241057
-0.0241659
-0.0242583
-0.0244095
-0.0246005
-0.0248569
-0.0251585
-0.0255316
-0.0259609
-0.0264669
-0.0270375
-0.0276928
-0.0284213
-0.0292389
-0.0301391
-0.0311265
-0.0321967
-0.0333543
-0.0346147
-0.0359941
-0.0375059
-0.0391419
-0.0408739
-0.0426945
-0.0445989
-0.0465744
-0.0485857
-0.0505993
-0.0525632
-0.0544298
-0.0561674
-0.057714
-0.0590005
-0.0599442
-0.0604195
-0.0602708
-0.0593676
-0.0575674
-0.0549331
-0.0517043
-0.0479182
-0.0429766
-0.0371654
-0.0319627
-0.0280584
-0.0267137
-0.0289583
-0.029718
-0.0366757
-0.0281119
-0.0278671
-0.0276475
-0.0274353
-0.0272503
-0.0270834
-0.0269501
-0.0268412
-0.0267719
-0.0267311
-0.0267365
-0.0267745
-0.0268655
-0.0269928
-0.0271801
-0.027412
-0.0277111
-0.0280605
-0.028484
-0.0289686
-0.0295332
-0.030167
-0.0308896
-0.0316902
-0.0325846
-0.0335673
-0.0346431
-0.0358083
-0.0370688
-0.038439
-0.0399383
-0.0415778
-0.0433485
-0.0452313
-0.0472087
-0.0492863
-0.051451
-0.0536672
-0.0559009
-0.0580991
-0.0602127
-0.0622068
-0.0640199
-0.0655802
-0.0667995
-0.0675454
-0.067654
-0.0669832
-0.0653791
-0.0629003
-0.059748
-0.0559736
-0.050989
-0.0450863
-0.0397307
-0.0355819
-0.0339553
-0.0358714
-0.0362837
-0.0434588
-0.0302376
-0.030019
-0.0298333
-0.0296621
-0.0295226
-0.0294029
-0.0293186
-0.0292578
-0.0292377
-0.0292446
-0.0292997
-0.0293859
-0.0295281
-0.0297059
-0.0299467
-0.0302321
-0.0305872
-0.0309928
-0.0314749
-0.0320198
-0.0326475
-0.0333474
-0.0341398
-0.0350147
-0.035988
-0.0370554
-0.0382219
-0.039485
-0.0408502
-0.0423342
-0.0439545
-0.0457255
-0.0476387
-0.0496682
-0.0518101
-0.0540653
-0.056424
-0.0588503
-0.0613097
-0.063749
-0.0661175
-0.068377
-0.0704664
-0.072311
-0.0738162
-0.074843
-0.0752198
-0.0747915
-0.0733953
-0.0710798
-0.0680127
-0.0642407
-0.0592064
-0.0532065
-0.047685
-0.0432696
-0.0413285
-0.0428749
-0.0429051
-0.0502827
-0.0329343
-0.0327265
-0.0325456
-0.0323759
-0.032236
-0.0321179
-0.0320367
-0.0319834
-0.0319734
-0.0319952
-0.0320678
-0.0321767
-0.0323442
-0.032552
-0.032826
-0.0331495
-0.0335465
-0.0339991
-0.0345325
-0.0351335
-0.0358219
-0.0365871
-0.0374496
-0.0383994
-0.0394528
-0.0406064
-0.0418652
-0.0432274
-0.0446996
-0.0462984
-0.0480441
-0.0499487
-0.0520039
-0.0541924
-0.0565007
-0.0589391
-0.0614964
-0.0641371
-0.0668269
-0.0695123
-0.0721415
-0.0746739
-0.0770484
-0.0791868
-0.0809869
-0.0823033
-0.0829555
-0.0827765
-0.081593
-0.0794469
-0.0764615
-0.072689
-0.0675968
-0.0614885
-0.0557842
-0.0510797
-0.0488014
-0.0499588
-0.0495867
-0.0571403
-0.0352556
-0.0350725
-0.0349234
-0.0347915
-0.0346934
-0.0346185
-0.0345816
-0.0345716
-0.0346058
-0.0346703
-0.0347873
-0.0349394
-0.0351528
-0.0354062
-0.0357292
-0.036102
-0.0365518
-0.0370579
-0.0376482
-0.0383084
-0.0390595
-0.0398908
-0.0408238
-0.0418488
-0.0429825
-0.0442225
-0.0455739
-0.0470362
-0.048616
-0.0503323
-0.0522038
-0.0542463
-0.0564524
-0.0587975
-0.0612814
-0.0639084
-0.0666701
-0.0695314
-0.0724583
-0.0753976
-0.0782962
-0.0811113
-0.0837821
-0.0862252
-0.0883308
-0.0899475
-0.090886
-0.0909657
-0.0900048
-0.0880339
-0.0851361
-0.0813578
-0.0762011
-0.0699748
-0.0640708
-0.0590516
-0.0564003
-0.0571243
-0.0563124
-0.0640215
-0.0382092
-0.0380346
-0.0378865
-0.037751
-0.0376463
-0.0375657
-0.0375241
-0.0375135
-0.0375497
-0.0376213
-0.0377483
-0.0379158
-0.0381476
-0.0384245
-0.0387743
-0.0391793
-0.0396656
-0.0402137
-0.0408509
-0.0415635
-0.0423722
-0.0432662
-0.0442675
-0.045366
-0.046579
-0.0479047
-0.0493486
-0.050911
-0.0525999
-0.0544339
-0.0564355
-0.0586181
-0.0609749
-0.0634893
-0.0661519
-0.0689739
-0.0719463
-0.0750342
-0.0782044
-0.0814043
-0.0845799
-0.0876865
-0.090663
-0.0934205
-0.0958411
-0.0977672
-0.0989996
-0.0993447
-0.0986102
-0.0968188
-0.0940046
-0.0902178
-0.0849869
-0.0786281
-0.072504
-0.0671453
-0.0640974
-0.0643667
-0.0630913
-0.0709263
-0.0407701
-0.0406165
-0.0404961
-0.0403943
-0.0403272
-0.0402857
-0.0402845
-0.0403136
-0.0403902
-0.0405009
-0.0406687
-0.0408755
-0.0411491
-0.0414671
-0.0418609
-0.0423098
-0.0428431
-0.0434389
-0.0441271
-0.0448929
-0.045759
-0.0467143
-0.0477819
-0.0489521
-0.0502427
-0.0516529
-0.0531885
-0.0548512
-0.056649
-0.0586031
-0.0607346
-0.0630615
-0.0655772
-0.0682597
-0.0711103
-0.0741344
-0.077325
-0.0806476
-0.08407
-0.0875404
-0.0910038
-0.0944132
-0.0977069
-0.10079
-0.103537
-0.105783
-0.10732
-0.107939
-0.107438
-0.105829
-0.103103
-0.0993035
-0.0939913
-0.0874869
-0.0811221
-0.0753946
-0.0719113
-0.0716795
-0.0699027
-0.0778443
-0.0438262
-0.0436855
-0.0435739
-0.0434787
-0.0434183
-0.043384
-0.0433921
-0.0434317
-0.0435211
-0.0436457
-0.0438288
-0.0440526
-0.0443445
-0.0446831
-0.0450996
-0.0455748
-0.0461382
-0.0467687
-0.0474966
-0.0483076
-0.0492243
-0.050236
-0.0513661
-0.0526051
-0.0539713
-0.0554644
-0.0570911
-0.0588536
-0.0607613
-0.0628356
-0.0651013
-0.0675741
-0.0702497
-0.0731127
-0.0761554
-0.0793894
-0.0828059
-0.0863712
-0.0900541
-0.0938039
-0.0975648
-0.101287
-0.104908
-0.108327
-0.111411
-0.113987
-0.115836
-0.116735
-0.116471
-0.115046
-0.112403
-0.108587
-0.103182
-0.0965158
-0.0898872
-0.0837646
-0.0798212
-0.0790652
-0.0767617
-0.0847827
-0.046812
-0.0466918
-0.0465997
-0.0465246
-0.046483
-0.0464675
-0.0464938
-0.0465518
-0.0466606
-0.0468052
-0.0470111
-0.047258
-0.047577
-0.0479432
-0.0483914
-0.0488992
-0.0494991
-0.0501675
-0.0509372
-0.051793
-0.0527593
-0.0538252
-0.0550155
-0.056321
-0.0577608
-0.0593357
-0.0610524
-0.062915
-0.0649327
-0.0671299
-0.06953
-0.0721538
-0.0749973
-0.0780401
-0.0812847
-0.0847362
-0.0883874
-0.0922054
-0.09616
-0.100201
-0.104272
-0.108321
-0.112282
-0.116049
-0.11948
-0.122398
-0.124569
-0.125754
-0.125732
-0.124492
-0.121933
-0.118097
-0.112592
-0.105748
-0.0988322
-0.0922823
-0.0878381
-0.0865113
-0.0836447
-0.0917293
-0.0499414
-0.0498429
-0.0497722
-0.049717
-0.0496951
-0.0496988
-0.0497444
-0.0498217
-0.0499492
-0.0501127
-0.0503361
-0.050602
-0.0509387
-0.0513247
-0.0517928
-0.0523241
-0.0529497
-0.0536484
-0.0544523
-0.0553479
-0.0563593
-0.0574762
-0.0587242
-0.0600943
-0.0616062
-0.0632618
-0.0650687
-0.0670315
-0.0691612
-0.071482
-0.0740214
-0.076798
-0.0798106
-0.0830449
-0.0864956
-0.0901729
-0.0940681
-0.0981487
-0.102385
-0.106729
-0.111122
-0.115508
-0.11982
-0.123947
-0.127738
-0.131006
-0.133507
-0.134986
-0.135207
-0.134151
-0.131669
-0.127807
-0.122189
-0.115149
-0.107921
-0.100917
-0.095946
-0.0940253
-0.0905706
-0.098697
-0.0530739
-0.0529939
-0.0529417
-0.052906
-0.0529034
-0.0529264
-0.0529912
-0.0530876
-0.0532352
-0.0534188
-0.0536648
-0.053953
-0.0543155
-0.0547272
-0.0552248
-0.0557857
-0.0564445
-0.0571773
-0.0580191
-0.0589555
-0.0600124
-0.0611797
-0.0624845
-0.0639182
-0.0655015
-0.0672378
-0.0691349
-0.0711992
-0.0734418
-0.0758896
-0.0785688
-0.0815034
-0.0846924
-0.0881183
-0.0917849
-0.0956965
-0.0998458
-0.104201
-0.108732
-0.113392
-0.118121
-0.122859
-0.127537
-0.132037
-0.136199
-0.139829
-0.142669
-0.144447
-0.144913
-0.144041
-0.141635
-0.13774
-0.132
-0.124746
-0.117181
-0.109687
-0.104148
-0.101589
-0.0975138
-0.105672
-0.0563556
-0.0562903
-0.0562526
-0.0562305
-0.056242
-0.0562797
-0.0563599
-0.0564726
-0.0566365
-0.0568373
-0.0570995
-0.0574054
-0.0577846
-0.0582152
-0.0587316
-0.059315
-0.0599981
-0.0607599
-0.0616344
-0.0626088
-0.063709
-0.0649258
-0.0662867
-0.0677839
-0.069439
-0.0712564
-0.0732448
-0.0754118
-0.0777698
-0.0803459
-0.0831704
-0.0862651
-0.0896329
-0.0932624
-0.0971499
-0.101305
-0.105719
-0.110359
-0.115198
-0.120186
-0.125264
-0.130367
-0.135424
-0.140309
-0.144855
-0.148857
-0.152046
-0.154126
-0.15484
-0.154145
-0.151809
-0.147873
-0.141996
-0.134509
-0.12658
-0.118568
-0.112434
-0.109215
-0.104497
-0.11267
-0.0596226
-0.05957
-0.0595444