/*--------------------------------*- C++ -*----------------------------------*\
  =========                 |
  \\      /  F ield         | OpenFOAM: The Open Source CFD Toolbox
   \\    /   O peration     | Website:  https://openfoam.org
    \\  /    A nd           | Version:  6.0
     \\/     M anipulation  |
\*---------------------------------------------------------------------------*/
FoamFile
{
    version     2.0;
    format      ascii;
    class       surfaceScalarField;
    location    "10";
    object      phi;
}
// * * * * * * * * * * * * * * * * * * * * * * * * * * * * * * * * * * * * * //

dimensions      [0 3 -1 0 0 0 0];

internalField   nonuniform List<scalar> 
123526
(
-0.000107178
2.20043e-05
0.000107549
-0.000106772
2.38009e-05
-0.000106347
2.57445e-05
-0.000105874
2.7847e-05
-0.000105374
3.01214e-05
-0.000104817
3.25824e-05
-0.000104225
3.52456e-05
-0.000103567
3.81282e-05
-0.000102865
4.1248e-05
-0.000102086
4.46257e-05
-0.000101253
4.82841e-05
-0.000100333
5.22466e-05
-9.93487e-05
5.65394e-05
-9.82647e-05
6.11883e-05
-9.7101e-05
6.62253e-05
-9.58284e-05
7.16881e-05
-9.44661e-05
7.76097e-05
-9.29758e-05
8.40224e-05
-9.13746e-05
9.09781e-05
-8.96377e-05
9.8525e-05
-8.77658e-05
0.000106701
-8.57313e-05
0.000115568
-8.35462e-05
0.000125195
-8.11652e-05
0.00013562
-7.86011e-05
0.000146945
-7.58184e-05
0.000159224
-7.28078e-05
0.000172544
-6.95469e-05
0.000187005
-6.60113e-05
0.000202682
-6.2184e-05
0.000219705
-5.80329e-05
0.000238157
-5.35398e-05
0.000258182
-4.86729e-05
0.000279885
-4.34018e-05
0.000303409
-3.7696e-05
0.000328899
-3.1505e-05
0.000356478
-2.48111e-05
0.000386325
-1.75693e-05
0.000418566
-9.7318e-06
0.000453346
-1.2615e-06
0.000490817
7.89474e-06
0.000531088
1.78015e-05
0.000574247
2.85169e-05
0.000620358
4.01109e-05
0.000669405
5.26677e-05
0.000721278
6.62786e-05
0.00077574
8.10413e-05
0.000832381
9.7034e-05
0.00089057
0.000114305
0.000949423
0.000132812
0.00100775
0.000152455
0.00106407
0.000172971
0.00111642
0.00019423
0.00116213
0.00021592
0.00119763
0.000237856
0.00121767
0.000259791
0.00121498
0.000281439
0.00117949
0.000301925
0.00109994
0.000320464
0.00094947
0.00068375
0.000315984
-0.000105061
2.16429e-05
0.000105421
-0.00010467
2.34174e-05
-0.000104266
2.53377e-05
-0.000103828
2.74152e-05
-0.000103373
2.96625e-05
-0.000102876
3.20932e-05
-0.000102357
3.47223e-05
-0.000101788
3.75662e-05
-0.000101186
4.0641e-05
-0.000100522
4.39669e-05
-9.98104e-05
4.7567e-05
-9.90221e-05
5.14634e-05
-9.81709e-05
5.56819e-05
-9.72235e-05
6.02453e-05
-9.61915e-05
6.5187e-05
-9.50482e-05
7.05488e-05
-9.38046e-05
7.63608e-05
-9.2426e-05
8.26475e-05
-9.09231e-05
8.94707e-05
-8.92749e-05
9.68799e-05
-8.74777e-05
0.0001049
-8.55089e-05
0.000113602
-8.33767e-05
0.00012306
-8.1042e-05
0.000133287
-7.85139e-05
0.000144414
-7.57643e-05
0.000156475
-7.27795e-05
0.000169558
-6.95453e-05
0.000183771
-6.60323e-05
0.000199168
-6.22316e-05
0.000215905
-5.81069e-05
0.000234033
-5.36472e-05
0.000253723
-4.88214e-05
0.000275054
-4.36008e-05
0.000298181
-3.79557e-05
0.000323248
-3.18361e-05
0.000350356
-2.52253e-05
0.000379713
-1.80809e-05
0.00041142
-1.03569e-05
0.000445619
-2.01848e-06
0.000482475
6.99163e-06
0.000522074
1.67503e-05
0.000564484
2.73271e-05
0.000609776
3.88007e-05
0.000657926
5.12611e-05
0.000708812
6.4798e-05
0.000762197
7.94945e-05
0.00081768
9.53972e-05
0.000874662
0.000112508
0.000932313
0.000130736
0.000989521
0.000149953
0.00104488
0.000169895
0.00109647
0.000190488
0.00114165
0.000211505
0.00117681
0.000232856
0.00119663
0.000254349
0.00119394
0.000275619
0.00115863
0.000295828
0.00108032
0.000308522
0.000937164
0.000690242
0.000302728
-0.000103611
2.12614e-05
0.000103992
-0.000103194
2.30071e-05
-0.000102757
2.48983e-05
-0.000102283
2.69468e-05
-0.000101788
2.91649e-05
-0.000101256
3.15664e-05
-0.000100702
3.41657e-05
-0.000100109
3.69786e-05
-9.94921e-05
4.00196e-05
-9.88274e-05
4.33079e-05
-9.81318e-05
4.68662e-05
-9.73774e-05
5.07147e-05
-9.65798e-05
5.48777e-05
-9.57034e-05
5.93745e-05
-9.47619e-05
6.42384e-05
-9.37228e-05
6.95147e-05
-9.25981e-05
7.52295e-05
-9.13465e-05
8.14001e-05
-8.99781e-05
8.80968e-05
-8.8466e-05
9.53711e-05
-8.68053e-05
0.000103235
-8.49693e-05
0.000111768
-8.29648e-05
0.000121052
-8.0751e-05
0.000131074
-7.83359e-05
0.000141996
-7.56913e-05
0.00015383
-7.28032e-05
0.000166668
-6.96588e-05
0.000180625
-6.6228e-05
0.000195736
-6.25038e-05
0.00021218
-5.84487e-05
0.000229978
-5.40536e-05
0.000249327
-4.92866e-05
0.000270282
-4.41211e-05
0.000293008
-3.85273e-05
0.000317649
-3.24555e-05
0.000344281
-2.58882e-05
0.000373144
-1.87822e-05
0.000404311
-1.10916e-05
0.000437926
-2.78218e-06
0.000474162
6.20364e-06
0.000513084
1.59458e-05
0.000554737
2.6513e-05
0.000599204
3.79759e-05
0.000646458
5.04102e-05
0.000696374
6.3884e-05
0.000748719
7.84517e-05
0.000803111
9.41283e-05
0.000858982
0.000110891
0.000915553
0.000128639
0.000971764
0.000147272
0.00102626
0.00016658
0.00107714
0.000186553
0.0011217
0.000207033
0.0011563
0.000227983
0.00117562
0.000249215
0.00117266
0.000270193
0.00113744
0.000290331
0.00106006
0.000303529
0.000923612
0.000690661
0.000302592
-0.000103571
2.08733e-05
0.000103954
-0.000103139
2.25803e-05
-0.000102675
2.44308e-05
-0.000102161
2.6437e-05
-0.000101612
2.86121e-05
-0.000101011
3.09704e-05
-0.000100376
3.35267e-05
-9.96896e-05
3.62973e-05
-9.89695e-05
3.92958e-05
-9.81987e-05
4.25416e-05
-9.73941e-05
4.60574e-05
-9.6537e-05
4.9862e-05
-9.56425e-05
5.39784e-05
-9.46854e-05
5.84218e-05
-9.36771e-05
6.32252e-05
-9.2594e-05
6.8436e-05
-9.14447e-05
7.40757e-05
-9.01934e-05
8.01528e-05
-8.8846e-05
8.67456e-05
-8.73772e-05
9.39056e-05
-8.57778e-05
0.000101632
-8.40195e-05
0.000110012
-8.2105e-05
0.000119135
-7.9991e-05
0.000128961
-7.7682e-05
0.000139685
-7.51473e-05
0.000151296
-7.23706e-05
0.000163889
-6.93369e-05
0.00017759
-6.60149e-05
0.000192413
-6.23958e-05
0.00020856
-5.84416e-05
0.000226025
-5.41418e-05
0.000245026
-4.94657e-05
0.000265601
-4.43852e-05
0.00028792
-3.88719e-05
0.000312129
-3.28753e-05
0.000338281
-2.63769e-05
0.000366643
-1.93322e-05
0.000397264
-1.16947e-05
0.000430285
-3.42912e-06
0.000465893
5.51923e-06
0.000504131
1.52246e-05
0.000545027
2.57486e-05
0.000588674
3.71502e-05
0.00063505
4.94886e-05
0.000684027
6.28117e-05
0.000735385
7.71523e-05
0.000788758
9.25087e-05
0.000843608
0.000108852
0.00089919
0.0001261
0.000954479
0.000144188
0.00100815
0.000162961
0.00105827
0.000182465
0.00110216
0.000202581
0.00113618
0.000223277
0.00115495
0.000244359
0.00115164
0.000265118
0.00111668
0.000285237
0.00104004
0.000300212
0.000908591
0.000688295
0.000302645
-0.000103816
2.05037e-05
0.000104185
-0.000103401
2.21715e-05
-0.000102951
2.39788e-05
-0.000102446
2.59379e-05
-0.000101899
2.80624e-05
-0.000101291
3.0367e-05
-0.000100634
3.28675e-05
-9.99126e-05
3.5581e-05
-9.91414e-05
3.85209e-05
-9.83021e-05
4.17077e-05
-9.74145e-05
4.51653e-05
-9.64592e-05
4.89123e-05
-9.54577e-05
5.29712e-05
-9.43849e-05
5.73544e-05
-9.32609e-05
6.20951e-05
-9.20632e-05
6.72433e-05
-9.08089e-05
7.28155e-05
-8.94636e-05
7.88118e-05
-8.80398e-05
8.53169e-05
-8.65129e-05
9.23821e-05
-8.4877e-05
9.99921e-05
-8.31037e-05
0.000108241
-8.11958e-05
0.000117223
-7.91085e-05
0.000126875
-7.68444e-05
0.000137418
-7.43703e-05
0.000148821
-7.16672e-05
0.000161184
-6.87174e-05
0.000174639
-6.54868e-05
0.000189181
-6.19642e-05
0.000205037
-5.81094e-05
0.000222171
-5.39112e-05
0.000240827
-4.93367e-05
0.000261022
-4.43588e-05
0.000282934
-3.89468e-05
0.000306711
-3.30506e-05
0.000332381
-2.66505e-05
0.00036024
-1.97014e-05
0.000390312
-1.21556e-05
0.000422736
-3.97695e-06
0.00045771
4.8853e-06
0.000495264
1.44964e-05
0.000535411
2.49099e-05
0.000578256
3.61747e-05
0.00062378
4.8338e-05
0.000671859
6.14348e-05
0.000722283
7.54865e-05
0.000774703
9.04863e-05
0.000828602
0.000106412
0.000883263
0.000123201
0.000937676
0.000140828
0.000990522
0.00015918
0.00103987
0.000178337
0.00108298
0.000198202
0.00111622
0.000218723
0.00113429
0.000239694
0.00113053
0.000260287
0.00109579
0.000280277
0.00101983
0.000296081
0.000892363
0.000682827
0.000300985
-0.00010358
2.01552e-05
0.000103925
-0.000103193
2.17891e-05
-0.000102775
2.35581e-05
-0.000102307
2.54743e-05
-0.000101799
2.75508e-05
-0.00010123
2.98025e-05
-0.000100611
3.22454e-05
-9.99226e-05
3.48969e-05
-9.91756e-05
3.77705e-05
-9.83512e-05
4.08875e-05
-9.74635e-05
4.42736e-05
-9.64946e-05
4.79475e-05
-9.54608e-05
5.19327e-05
-9.43421e-05
5.62398e-05
-9.31548e-05
6.09031e-05
-9.18838e-05
6.59763e-05
-9.0545e-05
7.14724e-05
-8.91124e-05
7.73832e-05
-8.75997e-05
8.38005e-05
-8.59894e-05
9.07752e-05
-8.42783e-05
9.82778e-05
-8.24429e-05
0.000106408
-8.0488e-05
0.000115266
-7.83714e-05
0.00012476
-7.60963e-05
0.00013514
-7.36296e-05
0.000146355
-7.09516e-05
0.000158504
-6.80429e-05
0.00017173
-6.48679e-05
0.000186005
-6.14129e-05
0.000201581
-5.76366e-05
0.000218395
-5.35254e-05
0.000236715
-4.90462e-05
0.000256537
-4.41687e-05
0.00027805
-3.88623e-05
0.000301399
-3.30759e-05
0.000326591
-2.6789e-05
0.000353951
-1.99558e-05
0.000383476
-1.25281e-05
0.000415305
-4.46913e-06
0.000449647
4.26806e-06
0.000486522
1.37402e-05
0.000525933
2.39934e-05
0.000567996
3.507e-05
0.000612696
4.70095e-05
0.000659911
5.98407e-05
0.00070944
7.35805e-05
0.000760949
8.82246e-05
0.000813937
0.000103761
0.000867702
0.00012015
0.000921242
0.000137397
0.000973235
0.000155416
0.00102173
0.000174309
0.00106401
0.000193989
0.00109647
0.000214371
0.00111384
0.00023523
0.0011096
0.000255681
0.00107522
0.000275404
0.00100004
0.000291299
0.000876279
0.000675908
0.000298072
-0.000102832
1.98241e-05
0.000103162
-0.000102467
2.1429e-05
-0.000102076
2.31653e-05
-0.000101642
2.50444e-05
-0.000101173
2.70793e-05
-0.000100651
2.92841e-05
-0.000100082
3.16745e-05
-9.9449e-05
3.42679e-05
-9.87586e-05
3.7077e-05
-9.79902e-05
4.01236e-05
-9.71547e-05
4.34345e-05
-9.62313e-05
4.70288e-05
-9.52338e-05
5.09308e-05
-9.41388e-05
5.51496e-05
-9.29621e-05
5.97215e-05
-9.16862e-05
6.4705e-05
-9.03284e-05
7.011e-05
-8.88631e-05
7.5922e-05
-8.7307e-05
8.22403e-05
-8.5645e-05
8.91166e-05
-8.38781e-05
9.65076e-05
-8.19868e-05
0.00010452
-7.99797e-05
0.000113256
-7.78188e-05
0.000122601
-7.55098e-05
0.000132829
-7.30224e-05
0.000143867
-7.03382e-05
0.000155818
-6.74385e-05
0.000168829
-6.4288e-05
0.000182853
-6.08726e-05
0.000198165
-5.71499e-05
0.000214673
-5.3106e-05
0.00023267
-4.87055e-05
0.000252132
-4.3918e-05
0.000273254
-3.87106e-05
0.000296185
-3.30322e-05
0.00032091
-2.68613e-05
0.000347777
-2.01519e-05
0.000376764
-1.28556e-05
0.000408005
-4.93548e-06
0.000441723
3.65236e-06
0.00047793
1.29582e-05
0.000516623
2.30225e-05
0.000557927
3.38836e-05
0.00060183
4.55776e-05
0.000648212
5.8131e-05
0.000696882
7.15618e-05
0.000747515
8.58718e-05
0.000799623
0.000101061
0.000852512
0.000117111
0.000905182
0.000134047
0.000956303
0.000151806
0.00100393
0.000170493
0.0010453
0.000190021
0.00107686
0.000210273
0.00109345
0.000230998
0.00108874
0.000251298
0.00105463
0.000270674
0.000980458
0.000286422
0.000860135
0.00066725
0.000294574
-0.000101762
1.9503e-05
0.000102079
-0.000101411
2.10816e-05
-0.000101038
2.27889e-05
-0.000100626
2.46357e-05
-0.000100184
2.66343e-05
-9.96955e-05
2.87983e-05
-9.91666e-05
3.1143e-05
-9.85805e-05
3.36851e-05
-9.79424e-05
3.6436e-05
-9.72332e-05
3.94175e-05
-9.64592e-05
4.26573e-05
-9.56008e-05
4.61738e-05
-9.46655e-05
4.99918e-05
-9.36313e-05
5.41189e-05
-9.25069e-05
5.85933e-05
-9.12763e-05
6.3478e-05
-8.9951e-05
6.87812e-05
-8.85077e-05
7.44821e-05
-8.69595e-05
8.06891e-05
-8.52945e-05
8.74547e-05
-8.35134e-05
9.47238e-05
-8.16005e-05
0.000102609
-7.95661e-05
0.000111219
-7.73767e-05
0.000120413
-7.50407e-05
0.000130491
-7.25314e-05
0.000141358
-6.98333e-05
0.000153118
-6.69299e-05
0.000165925
-6.37878e-05
0.00017971
-6.03941e-05
0.000194771
-5.67075e-05
0.000210987
-5.27132e-05
0.000228676
-4.83767e-05
0.00024779
-4.36654e-05
0.000268536
-3.85469e-05
0.000291061
-3.29693e-05
0.000315329
-2.69109e-05
0.000341716
-2.03254e-05
0.000370176
-1.31648e-05
0.000400841
-5.39256e-06
0.000433947
3.03342e-06
0.000469499
1.21592e-05
0.000507492
2.20217e-05
0.000548058
3.26577e-05
0.000591186
4.41025e-05
0.000636758
5.6384e-05
0.000684589
6.95236e-05
0.000734361
8.35318e-05
0.000785595
9.84203e-05
0.000837599
0.000114186
0.000889373
0.000130869
0.000939577
0.000148418
0.000986259
0.000166934
0.0010267
0.000186327
0.00105738
0.000206442
0.00107324
0.000226999
0.00106807
0.000247121
0.00103435
0.000266126
0.000961324
0.000281745
0.000844279
0.000657823
0.000290951
-0.000100512
1.91904e-05
0.000100824
-0.00010017
2.07442e-05
-9.98075e-05
2.24243e-05
-9.9409e-05
2.42414e-05
-9.89842e-05
2.62072e-05
-9.85167e-05
2.83348e-05
-9.80148e-05
3.06388e-05
-9.74611e-05
3.31354e-05
-9.68628e-05
3.58347e-05
-9.61991e-05
3.8758e-05
-9.54783e-05
4.19331e-05
-9.46777e-05
4.53776e-05
-9.38064e-05
4.91163e-05
-9.28375e-05
5.31544e-05
-9.17805e-05
5.75319e-05
-9.06142e-05
6.23159e-05
-8.935e-05
6.75126e-05
-8.79602e-05
7.30959e-05
-8.64577e-05
7.91828e-05
-8.48279e-05
8.58279e-05
-8.30721e-05
9.29649e-05
-8.11743e-05
0.000100714
-7.91464e-05
0.000109189
-7.69567e-05
0.000118224
-7.46161e-05
0.000128148
-7.21009e-05
0.000138843
-6.93983e-05
0.000150413
-6.64949e-05
0.000163021
-6.336e-05
0.000176574
-5.99828e-05
0.000191393
-5.63238e-05
0.000207329
-5.23699e-05
0.000224721
-4.80858e-05
0.000243502
-4.34406e-05
0.000263884
-3.8401e-05
0.000286016
-3.29158e-05
0.00030984
-2.69633e-05
0.000335761
-2.04976e-05
0.000363707
-1.3471e-05
0.000393811
-5.84798e-06
0.00042632
2.41268e-06
0.000461234
1.1355e-05
0.000498545
2.10143e-05
0.000538395
3.14277e-05
0.000580768
4.26318e-05
0.00062555
5.46574e-05
0.00067256
6.75314e-05
0.000721486
8.12724e-05
0.000771852
9.59025e-05
0.000822971
0.00011143
0.000873841
0.000127905
0.000923111
0.000145279
0.000968842
0.000163643
0.00100831
0.000182896
0.00103807
0.000202854
0.00105318
0.000223207
0.0010476
0.000243112
0.00101421
0.000261759
0.000942508
0.000277319
0.000828388
0.000647402
0.00028733
-9.91581e-05
1.88829e-05
9.94622e-05
-9.88229e-05
2.04125e-05
-9.8468e-05
2.20665e-05
-9.80788e-05
2.38553e-05
-9.76648e-05
2.57903e-05
-9.7211e-05
2.78842e-05
-9.67258e-05
3.0151e-05
-9.61938e-05
3.26066e-05
-9.56213e-05
3.52594e-05
-9.49906e-05
3.81304e-05
-9.4308e-05
4.12473e-05
-9.35539e-05
4.46267e-05
-9.27339e-05
4.82926e-05
-9.18241e-05
5.22479e-05
-9.08295e-05
5.65334e-05
-8.97305e-05
6.12201e-05
-8.85334e-05
6.63119e-05
-8.72111e-05
7.17769e-05
-8.5772e-05
7.77406e-05
-8.42013e-05
8.426e-05
-8.24972e-05
9.12581e-05
-8.06439e-05
9.88624e-05
-7.86517e-05
0.000107194
-7.64904e-05
0.000116064
-7.41712e-05
0.000125827
-7.16725e-05
0.000136345
-6.89837e-05
0.000147723
-6.60938e-05
0.00016013
-6.29752e-05
0.000173454
-5.96191e-05
0.000188037
-5.5989e-05
0.0002037
-5.20724e-05
0.000220804
-4.78368e-05
0.000239261
-4.32509e-05
0.000259291
-3.82833e-05
0.000281043
-3.28834e-05
0.000304437
-2.70298e-05
0.000329905
-2.06776e-05
0.000357353
-1.37801e-05
0.00038691
-6.30251e-06
0.000418838
1.79596e-06
0.000453131
1.05591e-05
0.000489776
2.00218e-05
0.000528926
3.02232e-05
0.000570559
4.12021e-05
0.000614563
5.29932e-05
0.000660757
6.56288e-05
0.000708836
7.91353e-05
0.000758326
9.35426e-05
0.00080854
0.000108868
0.000858476
0.000125162
0.000906776
0.000142377
0.000951515
0.000160591
0.000990013
0.000179691
0.00101889
0.000199467
0.00103331
0.000219579
0.00102737
0.00023923
0.000994398
0.000257535
0.000924054
0.000273072
0.000812605
0.000636561
0.000283671
-9.77394e-05
1.85811e-05
9.80392e-05
-9.74099e-05
2.00869e-05
-9.7061e-05
2.17154e-05
-9.6679e-05
2.34765e-05
-9.62728e-05
2.53817e-05
-9.58289e-05
2.74433e-05
-9.53552e-05
2.96751e-05
-9.48377e-05
3.20923e-05
-9.42831e-05
3.47022e-05
-9.36745e-05
3.75253e-05
-9.30194e-05
4.05893e-05
-9.22984e-05
4.39095e-05
-9.15184e-05
4.75091e-05
-9.06548e-05
5.13883e-05
-8.97136e-05
5.55884e-05
-8.86732e-05
6.01836e-05
-8.75401e-05
6.51751e-05
-8.62849e-05
7.0525e-05
-8.49146e-05
7.63671e-05
-8.34121e-05
8.27602e-05
-8.1774e-05
8.96172e-05
-7.99825e-05
9.70731e-05
-7.80467e-05
0.000105256
-7.59357e-05
0.000113955
-7.36605e-05
0.000123549
-7.12001e-05
0.000133885
-6.8545e-05
0.000145066
-6.56861e-05
0.00015727
-6.25977e-05
0.000170365
-5.92735e-05
0.000184712
-5.56788e-05
0.000200106
-5.18039e-05
0.000216929
-4.76168e-05
0.00023507
-4.30891e-05
0.000254756
-3.81899e-05
0.000276138
-3.28704e-05
0.000299115
-2.71101e-05
0.000324143
-2.08653e-05
0.000351105
-1.40904e-05
0.000380132
-6.75175e-06
0.000411495
1.19157e-06
0.000445183
9.78402e-06
0.000481179
1.90615e-05
0.000519644
2.90654e-05
0.000560551
3.98373e-05
0.000603788
5.1416e-05
0.000649176
6.38385e-05
0.000696413
7.71378e-05
0.000745027
9.13492e-05
0.000794334
0.000106494
0.00084333
0.000122623
0.00089066
0.000139684
0.000934418
0.000157741
0.000971944
0.000176666
0.000999921
0.00019623
0.00101366
0.000216069
0.00100744
0.000235431
0.000974845
0.000253409
0.000905941
0.00026891
0.000796827
0.000625251
0.000279884
-9.62816e-05
1.82832e-05
9.65751e-05
-9.59577e-05
1.97655e-05
-9.56142e-05
2.13688e-05
-9.52383e-05
2.31028e-05
-9.48384e-05
2.49789e-05
-9.44019e-05
2.70092e-05
-9.39364e-05
2.92071e-05
-9.34294e-05
3.15878e-05
-9.28869e-05
3.41572e-05
-9.22945e-05
3.69354e-05
-9.16582e-05
3.99503e-05
-9.09619e-05
4.32159e-05
-9.02106e-05
4.67547e-05
-8.93833e-05
5.05639e-05
-8.84833e-05
5.46851e-05
-8.74922e-05
5.91955e-05
-8.64133e-05
6.40932e-05
-8.52191e-05
6.93337e-05
-8.39135e-05
7.50588e-05
-8.24795e-05
8.13287e-05
-8.09108e-05
8.80461e-05
-7.91889e-05
9.53532e-05
-7.73203e-05
0.000103385
-7.52738e-05
0.000111909
-7.30585e-05
0.000121332
-7.06536e-05
0.00013148
-6.80497e-05
0.000142461
-6.52382e-05
0.000154458
-6.21951e-05
0.000167321
-5.89154e-05
0.000181432
-5.53666e-05
0.000196559
-5.15401e-05
0.000213102
-4.74068e-05
0.000230932
-4.29389e-05
0.000250282
-3.81081e-05
0.000271302
-3.2867e-05
0.000293871
-2.71964e-05
0.00031847
-2.10539e-05
0.00034496
-1.43953e-05
0.000373469
-7.18823e-06
0.000404284
6.08829e-07
0.000437381
9.04121e-06
0.000472741
1.81464e-05
0.000510532
2.79685e-05
0.000550722
3.85517e-05
0.000593196
4.99382e-05
0.000637778
6.21693e-05
0.00068417
7.52824e-05
0.000731897
8.9316e-05
0.000780278
0.000104294
0.000828316
0.000120262
0.000874654
0.000137163
0.000917411
0.000155046
0.000953984
0.000173772
0.000981124
0.000193095
0.000994249
0.000212633
0.000987785
0.00023168
0.000955633
0.000249336
0.000888128
0.000264749
0.000781167
0.000613835
0.000275918
-9.48021e-05
1.79911e-05
9.50927e-05
-9.44829e-05
1.94502e-05
-9.41447e-05
2.10284e-05
-9.37743e-05
2.27357e-05
-9.33806e-05
2.45829e-05
-9.29508e-05
2.65823e-05
-9.24929e-05
2.87471e-05
-9.19942e-05
3.10921e-05
-9.1462e-05
3.36224e-05
-9.08809e-05
3.63577e-05
-9.02594e-05
3.9326e-05
-8.95801e-05
4.25403e-05
-8.88511e-05
4.60223e-05
-8.80497e-05
4.97662e-05
-8.71823e-05
5.38141e-05
-8.6229e-05
5.82456e-05
-8.51951e-05
6.30556e-05
-8.40517e-05
6.81933e-05
-8.28034e-05
7.38073e-05
-8.14315e-05
7.99593e-05
-7.99293e-05
8.65412e-05
-7.82768e-05
9.37025e-05
-7.64787e-05
0.000101585
-7.45028e-05
0.000109934
-7.23565e-05
0.000119184
-7.00183e-05
0.000129142
-6.74781e-05
0.000139919
-6.47275e-05
0.000151706
-6.17428e-05
0.000164336
-5.85198e-05
0.000178208
-5.50274e-05
0.000193067
-5.12586e-05
0.000209333
-4.71851e-05
0.000226855
-4.2782e-05
0.000245872
-3.80219e-05
0.000266536
-3.28595e-05
0.000288705
-2.72768e-05
0.000312885
-2.12332e-05
0.000338913
-1.46858e-05
0.000366919
-7.60344e-06
0.000397198
5.60704e-08
0.000429717
8.33918e-06
0.000464454
1.72849e-05
0.000501582
2.694e-05
0.000541063
3.73505e-05
0.000582783
4.85617e-05
0.000626565
6.06176e-05
0.000672114
7.35589e-05
0.000718958
8.74254e-05
0.000766418
0.000102241
0.000813503
0.000118045
0.000858865
0.000134776
0.000900651
0.000152466
0.000936288
0.000170967
0.000962596
0.000190023
0.000975135
0.000209238
0.0009685
0.000227948
0.000936774
0.000245281
0.000870698
0.000260544
0.000765684
0.000602363
0.000271757
-9.33124e-05
1.77032e-05
9.35968e-05
-9.2999e-05
1.91393e-05
-9.26661e-05
2.06928e-05
-9.23018e-05
2.23735e-05
-9.19139e-05
2.41924e-05
-9.14906e-05
2.61613e-05
-9.10392e-05
2.82935e-05
-9.05482e-05
3.06035e-05
-9.00238e-05
3.30955e-05
-8.94527e-05
3.57891e-05
-8.8842e-05
3.87126e-05
-8.81767e-05
4.18778e-05
-8.74634e-05
4.53058e-05
-8.66826e-05
4.89883e-05
-8.58391e-05
5.29673e-05
-8.49159e-05
5.73253e-05
-8.39168e-05
6.20535e-05
-8.28154e-05
6.70945e-05
-8.16147e-05
7.26039e-05
-8.02972e-05
7.8644e-05
-7.88546e-05
8.50962e-05
-7.72669e-05
9.21165e-05
-7.5537e-05
9.98526e-05
-7.36321e-05
0.00010803
-7.15578e-05
0.000117107
-6.92918e-05
0.000126876
-6.68229e-05
0.000137449
-6.4142e-05
0.000149025
-6.12255e-05
0.000161418
-5.80692e-05
0.000175052
-5.46429e-05
0.000189642
-5.09398e-05
0.00020563
-4.6934e-05
0.000222845
-4.26009e-05
0.000241533
-3.79153e-05
0.000261846
-3.28335e-05
0.00028362
-2.73389e-05
0.000307388
-2.13922e-05
0.000332964
-1.49521e-05
0.000360475
-7.98858e-06
0.00039023
-4.58999e-07
0.000422182
7.68431e-06
0.000456305
1.64821e-05
0.000492778
2.59825e-05
0.000531556
3.62336e-05
0.000572523
4.72823e-05
0.000615506
5.91746e-05
0.00066021
7.19528e-05
0.000706165
8.56565e-05
0.000752695
0.000100309
0.000798819
0.000115941
0.000843198
0.000132485
0.000884009
0.000149962
0.000918741
0.000168216
0.000944281
0.000186981
0.000956285
0.000205856
0.000949509
0.000224215
0.000918259
0.00024122
0.000853538
0.000256271
0.000750399
0.000590978
0.00026742
-9.18205e-05
1.74206e-05
9.21006e-05
-9.15122e-05
1.8834e-05
-9.11848e-05
2.03631e-05
-9.08263e-05
2.20175e-05
-9.04444e-05
2.38082e-05
-9.00277e-05
2.57469e-05
-8.95831e-05
2.78468e-05
-8.90993e-05
3.01222e-05
-8.85827e-05
3.25766e-05
-8.80201e-05
3.52293e-05
-8.7419e-05
3.8109e-05
-8.67646e-05
4.12267e-05
-8.60646e-05
4.46029e-05
-8.52994e-05
4.82264e-05
-8.44753e-05
5.214e-05
-8.35751e-05
5.64283e-05
-8.26041e-05
6.10794e-05
-8.15361e-05
6.60292e-05
-8.03749e-05
7.14399e-05
-7.91029e-05
7.73743e-05
-7.77121e-05
8.37029e-05
-7.61821e-05
9.05882e-05
-7.4515e-05
9.81834e-05
-7.26775e-05
0.000106194
-7.06737e-05
0.000115102
-6.84805e-05
0.000124682
-6.60857e-05
0.000135052
-6.34792e-05
0.000146417
-6.06369e-05
0.000158575
-5.75542e-05
0.000171968
-5.42011e-05
0.00018629
-5.05713e-05
0.000201999
-4.6639e-05
0.000218909
-4.23818e-05
0.00023727
-3.7775e-05
0.000257234
-3.27767e-05
0.000278619
-2.73713e-05
0.00030198
-2.15209e-05
0.00032711
-1.51857e-05
0.000354136
-8.33634e-06
0.000383377
-9.30539e-07
0.000414772
7.08048e-06
0.00044829
1.57393e-05
0.000484116
2.50949e-05
0.000522197
3.51961e-05
0.00056242
4.6091e-05
0.000604611
5.78264e-05
0.000648476
7.04453e-05
0.00069355
8.39857e-05
0.000739162
9.84688e-05
0.000784343
0.000113917
0.000827766
0.000130261
0.000867643
0.000147507
0.000901496
0.000165492
0.000926283
0.000183947
0.000937789
0.000202471
0.000930934
0.000220468
0.000900144
0.000237141
0.000836796
0.000251931
0.000735435
0.000579771
0.00026294
-9.03327e-05
1.7142e-05
9.06069e-05
-9.00298e-05
1.8533e-05
-8.97076e-05
2.00379e-05
-8.93549e-05
2.16665e-05
-8.89787e-05
2.34293e-05
-8.85684e-05
2.53382e-05
-8.813e-05
2.74062e-05
-8.76536e-05
2.96475e-05
-8.71439e-05
3.20647e-05
-8.65898e-05
3.46773e-05
-8.59972e-05
3.75141e-05
-8.53533e-05
4.05853e-05
-8.46641e-05
4.39111e-05
-8.39128e-05
4.74777e-05
-8.31039e-05
5.13283e-05
-8.22232e-05
5.55502e-05
-8.12744e-05
6.0128e-05
-8.0234e-05
6.49912e-05
-7.91048e-05
7.03083e-05
-7.78711e-05
7.61425e-05
-7.6524e-05
8.23536e-05
-7.50442e-05
8.911e-05
-7.34329e-05
9.657e-05
-7.16569e-05
0.000104419
-6.97193e-05
0.000113162
-6.75963e-05
0.000122559
-6.52747e-05
0.000132729
-6.27434e-05
0.000143885
-5.99779e-05
0.000155808
-5.69724e-05
0.000168962
-5.36972e-05
0.000183015
-5.01454e-05
0.000198448
-4.62924e-05
0.000215052
-4.21155e-05
0.000233087
-3.75915e-05
0.000252705
-3.26797e-05
0.000273704
-2.73653e-05
0.000296663
-2.16116e-05
0.000321354
-1.53799e-05
0.000347901
-8.64158e-06
0.000376634
-1.35497e-06
0.000407481
6.52951e-06
0.0004404
1.50561e-05
0.000475583
2.42735e-05
0.000512973
3.42313e-05
0.000552455
4.49775e-05
0.000593855
5.65592e-05
0.000636884
6.90188e-05
0.000681077
8.23921e-05
0.000725771
9.66982e-05
0.000770009
0.000111952
0.000812481
0.000128077
0.000851427
0.000145074
0.000884438
0.000162774
0.000908528
0.000180907
0.000919578
0.000199069
0.000912659
0.000216702
0.000882361
0.000233039
0.000820307
0.000247534
0.000720718
0.000568726
0.000258358
-8.88543e-05
1.6869e-05
8.91254e-05
-8.85562e-05
1.82378e-05
-8.82393e-05
1.97189e-05
-8.78923e-05
2.13218e-05
-8.75222e-05
2.30571e-05
-8.71183e-05
2.49365e-05
-8.66869e-05
2.69728e-05
-8.62173e-05
2.91804e-05
-8.57156e-05
3.15608e-05
-8.51692e-05
3.41336e-05
-8.45855e-05
3.6928e-05
-8.39505e-05
3.99535e-05
-8.32722e-05
4.32298e-05
-8.25321e-05
4.67409e-05
-8.17372e-05
5.05302e-05
-8.08719e-05
5.46878e-05
-7.99422e-05
5.91952e-05
-7.89239e-05
6.39755e-05
-7.78216e-05
6.92032e-05
-7.66192e-05
7.49421e-05
-7.53092e-05
8.10411e-05
-7.38722e-05
8.76744e-05
-7.23096e-05
9.50053e-05
-7.05884e-05
0.000102698
-6.8711e-05
0.000111283
-6.66534e-05
0.000120502
-6.44016e-05
0.000130476
-6.19436e-05
0.000141426
-5.92543e-05
0.000153118
-5.6327e-05
0.000166035
-5.31316e-05
0.000179821
-4.96611e-05
0.000194977
-4.58901e-05
0.000211278
-4.17974e-05
0.000228988
-3.73595e-05
0.000248262
-3.25369e-05
0.000268879
-2.73153e-05
0.000291439
-2.16592e-05
0.000315695
-1.55305e-05
0.000341769
-8.90139e-06
0.000370001
-1.73086e-06
0.000400306
6.031e-06
0.000432634
1.44295e-05
0.000467181
2.35131e-05
0.000503886
3.33307e-05
0.000542635
4.39304e-05
0.000583255
5.53582e-05
0.000625458
6.76558e-05
0.000668784
8.08562e-05
0.000712579
9.49759e-05
0.0007559
0.000110022
0.000797453
0.000125917
0.000835515
0.000142651
0.000867709
0.000160052
0.000891125
0.00017785
0.000901754
0.000195649
0.000894824
0.000212915
0.000865008
0.000228916
0.000804264
0.000243096
0.00070641
0.000557972
0.000253715
-8.73884e-05
1.66001e-05
8.76537e-05
-8.70958e-05
1.79471e-05
-8.67843e-05
1.94048e-05
-8.64433e-05
2.09824e-05
-8.60792e-05
2.26905e-05
-8.56819e-05
2.45408e-05
-8.5257e-05
2.65459e-05
-8.47948e-05
2.872e-05
-8.43002e-05
3.1064e-05
-8.37621e-05
3.35975e-05
-8.31864e-05
3.635e-05
-8.25609e-05
3.93304e-05
-8.18918e-05
4.25581e-05
-8.11631e-05
4.60147e-05
-8.03798e-05
4.97443e-05
-7.95289e-05
5.38394e-05
-7.86149e-05
5.82787e-05
-7.7616e-05
6.29788e-05
-7.65359e-05
6.81207e-05
-7.53603e-05
7.37684e-05
-7.40815e-05
7.97601e-05
-7.26813e-05
8.62755e-05
-7.11608e-05
9.34828e-05
-6.94878e-05
0.000101026
-6.76644e-05
0.000109458
-6.56664e-05
0.000118504
-6.34794e-05
0.000128287
-6.1091e-05
0.000139037
-5.84753e-05
0.000150501
-5.56249e-05
0.000163184
-5.25092e-05
0.000176706
-4.91203e-05
0.000191588
-4.54335e-05
0.000207587
-4.14266e-05
0.000224976
-3.70771e-05
0.000243908
-3.23457e-05
0.000264145
-2.72187e-05
0.00028631
-2.16611e-05
0.000310134
-1.56356e-05
0.00033574
-9.1148e-06
0.000363476
-2.05851e-06
0.000393245
5.58313e-06
0.000424987
1.3856e-05
0.000458903
2.28076e-05
0.000494929
3.24863e-05
0.00053295
4.2939e-05
0.000572794
5.4211e-05
0.000614177
6.63422e-05
0.000656642
7.93628e-05
0.000699544
9.32869e-05
0.000741953
0.000108114
0.000782598
0.000123766
0.000819783
0.000140224
0.000851198
0.000157317
0.000873987
0.000174776
0.000884225
0.00019221
0.000877284
0.000209112
0.000847967
0.000224778
0.000788455
0.000238637
0.000692349
0.000547369
0.000249045
-8.59374e-05
1.63364e-05
8.61985e-05
-8.56499e-05
1.76619e-05
-8.53438e-05
1.90963e-05
-8.50087e-05
2.0649e-05
-8.46506e-05
2.23303e-05
-8.42599e-05
2.41517e-05
-8.38419e-05
2.61259e-05
-8.3387e-05
2.8267e-05
-8.29001e-05
3.05751e-05
-8.23699e-05
3.30696e-05
-8.18028e-05
3.57807e-05
-8.11861e-05
3.87166e-05
-8.05268e-05
4.18962e-05
-7.98083e-05
4.52992e-05
-7.90368e-05
4.897e-05
-7.81985e-05
5.30039e-05
-7.72993e-05
5.73767e-05
-7.63171e-05
6.19989e-05
-7.52567e-05
6.70578e-05
-7.4104e-05
7.26175e-05
-7.28521e-05
7.8506e-05
-7.14835e-05
8.49082e-05
-6.99995e-05
9.19969e-05
-6.83687e-05
9.9396e-05
-6.65932e-05
0.000107681
-6.4649e-05
0.000116559
-6.25214e-05
0.000126159
-6.01977e-05
0.000136713
-5.76517e-05
0.000147954
-5.48752e-05
0.000160407
-5.18372e-05
0.000173669
-4.85294e-05
0.00018828
-4.49262e-05
0.00020398
-4.1006e-05
0.00022105
-3.67458e-05
0.000239643
-3.2107e-05
0.000259503
-2.70756e-05
0.000281276
-2.16173e-05
0.000304673
-1.56954e-05
0.000329815
-9.28271e-06
0.00035706
-2.33981e-06
0.000386298
5.18269e-06
0.000417461
1.33307e-05
0.000450751
2.21506e-05
0.000486106
3.16896e-05
0.000523409
4.19936e-05
0.00056249
5.3106e-05
0.000603067
6.50655e-05
0.000644689
7.78992e-05
0.00068672
9.16187e-05
0.000728246
0.000106218
0.000768017
0.000121616
0.000804371
0.000137791
0.000835033
0.000154569
0.000857217
0.000171684
0.000867096
0.000188757
0.000860189
0.000205299
0.000831361
0.000220636
0.0007731
0.000234175
0.000678722
0.000537087
0.000244376
-8.45034e-05
1.60765e-05
8.47591e-05
-8.42211e-05
1.73809e-05
-8.392e-05
1.87926e-05
-8.35906e-05
2.03207e-05
-8.32384e-05
2.19756e-05
-8.28541e-05
2.37687e-05
-8.24426e-05
2.57124e-05
-8.19952e-05
2.78209e-05
-8.15155e-05
3.00935e-05
-8.09938e-05
3.25496e-05
-8.04348e-05
3.52199e-05
-7.98278e-05
3.81117e-05
-7.91777e-05
4.1244e-05
-7.84701e-05
4.4594e-05
-7.77095e-05
4.8207e-05
-7.68841e-05
5.21809e-05
-7.59982e-05
5.64885e-05
-7.50319e-05
6.10348e-05
-7.3989e-05
6.60127e-05
-7.2857e-05
7.14871e-05
-7.16287e-05
7.72757e-05
-7.02879e-05
8.35685e-05
-6.88359e-05
9.0543e-05
-6.72423e-05
9.78031e-05
-6.55092e-05
0.000105946
-6.36132e-05
0.000114663
-6.15395e-05
0.000124083
-5.92753e-05
0.000134448
-5.67943e-05
0.000145472
-5.40878e-05
0.0001577
-5.11245e-05
0.000170706
-4.78953e-05
0.00018505
-4.43748e-05
0.000200456
-4.05404e-05
0.00021721
-3.63695e-05
0.000235468
-3.18234e-05
0.000254954
-2.68883e-05
0.000276338
-2.15299e-05
0.000299312
-1.57119e-05
0.000323993
-9.40741e-06
0.000350751
-2.57772e-06
0.000379464
4.82581e-06
0.000410052
1.28487e-05
0.000442723
2.1536e-05
0.000477413
3.09335e-05
0.000514006
4.10858e-05
0.000552332
5.20346e-05
0.000592111
6.38168e-05
0.000632899
7.64566e-05
0.00067407
8.99639e-05
0.000714723
0.000104326
0.000753631