/*--------------------------------*- C++ -*----------------------------------*\
  =========                 |
  \\      /  F ield         | OpenFOAM: The Open Source CFD Toolbox
   \\    /   O peration     | Website:  https://openfoam.org
    \\  /    A nd           | Version:  6.0
     \\/     M anipulation  |
\*---------------------------------------------------------------------------*/
FoamFile
{
    version     2.0;
    format      ascii;
    class       volVectorField;
    location    "0.97";
    object      U;
}
// * * * * * * * * * * * * * * * * * * * * * * * * * * * * * * * * * * * * * //

dimensions      [0 1 -1 0 0 0 0];

internalField   nonuniform List<vector> 
13500
(
(1 2.0904e-06 -4.3554e-18)
(1 -4.3082e-06 2.9502e-18)
(1 -5.0487e-06 -1.2657e-17)
(1 -9.5499e-06 -8.7943e-18)
(1 -7.5894e-06 1.6492e-17)
(1 -6.8367e-06 3.0897e-17)
(1 8.4734e-07 2.6416e-17)
(0.99998 1.5934e-05 -4.2873e-18)
(0.99991 4.2231e-05 1.5699e-17)
(0.99975 9.1357e-05 3.3953e-18)
(0.9962 0.00065905 2.8996e-17)
(1.0187 0.01087 8.0735e-18)
(1 6.4884e-06 2.6983e-18)
(1 -1.2755e-05 -8.9596e-18)
(1 -1.4136e-05 6.0443e-18)
(1 -2.8121e-05 -3.4701e-19)
(1 -2.067e-05 -4.3981e-19)
(1 -2.025e-05 -3.7152e-17)
(0.99999 6.0351e-06 -4.5624e-17)
(0.99993 4.7296e-05 -2.4531e-17)
(0.99973 0.00013463 -1.5668e-17)
(0.99958 0.00025174 -1.6785e-18)
(0.988 0.0018359 -1.3731e-17)
(1.0522 0.030738 -4.8883e-18)
(1 1.0953e-05 -3.4851e-18)
(1 -2.1416e-05 1.7801e-17)
(1 -2.3108e-05 3.1438e-18)
(1 -4.7293e-05 1.014e-17)
(1 -3.336e-05 -3.8029e-18)
(1 -3.4724e-05 2.976e-17)
(0.99999 1.233e-05 -6.4217e-18)
(0.99989 7.7347e-05 5.5723e-18)
(0.99954 0.0002328 -1.9007e-17)
(0.99975 0.00044304 2.5502e-17)
(0.97956 0.0025962 -7.1809e-18)
(1.0796 0.045372 1.7206e-18)
(1 1.5467e-05 9.1108e-18)
(1 -3.0308e-05 -1.7258e-17)
(1 -3.214e-05 -1.4903e-17)
(1 -6.7025e-05 -7.1152e-19)
(1 -4.6057e-05 5.8703e-18)
(1 -5.0007e-05 -8.2578e-19)
(0.99999 1.9038e-05 6.3275e-17)
(0.99986 0.0001062 1.004e-17)
(0.99934 0.00033451 2.2476e-17)
(1.0002 0.0006715 -9.2377e-18)
(0.97128 0.0029619 3.4973e-17)
(1.0996 0.056063 -7.8312e-18)
(1 2.0053e-05 -6.4017e-18)
(1 -3.9333e-05 1.4916e-17)
(1 -4.1128e-05 1.2686e-17)
(1 -8.6991e-05 1.2978e-17)
(1 -5.8662e-05 2.8783e-18)
(1.0001 -6.5686e-05 2.1874e-17)
(0.99999 2.6135e-05 -2.8256e-17)
(0.99984 0.00013388 2.0392e-18)
(0.99912 0.00043763 -1.3781e-17)
(1.0009 0.00093939 -2.2043e-18)
(0.96354 0.0029845 -9.0668e-18)
(1.1122 0.063952 2.1696e-18)
(1 2.4711e-05 6.4785e-18)
(1 -4.8488e-05 -6.1835e-18)
(1 -5.0072e-05 3.8742e-18)
(1 -0.0001072 -2.5708e-17)
(1.0001 -7.1174e-05 -8.4414e-20)
(1.0001 -8.1807e-05 -4.3304e-17)
(0.99999 3.3653e-05 1.0841e-18)
(0.99983 0.00016022 -1.6369e-17)
(0.99887 0.00054039 5.2477e-18)
(1.0019 0.0012518 -2.2205e-17)
(0.95664 0.0027123 -2.1841e-17)
(1.1183 0.069656 2.1006e-18)
(0.99999 2.944e-05 -1.0724e-18)
(1 -5.7781e-05 -7.3955e-18)
(1 -5.8969e-05 -3.1487e-18)
(1.0001 -0.00012768 1.9404e-17)
(1.0001 -8.3563e-05 -2.6659e-17)
(1.0001 -9.8447e-05 1.657e-17)
(0.99999 4.168e-05 1.8898e-17)
(0.99983 0.00018507 5.759e-18)
(0.9986 0.00064124 1.1732e-17)
(1.0029 0.0016125 1.1954e-17)
(0.95082 0.0021926 9.4134e-18)
(1.1188 0.073605 3.3785e-18)
(0.99999 3.4238e-05 -2.2135e-18)
(1 -6.7215e-05 -1.4548e-18)
(1 -6.7816e-05 -2.7123e-17)
(1.0001 -0.00014844 -9.2659e-18)
(1.0001 -9.5821e-05 7.4618e-18)
(1.0001 -0.00011566 2.7155e-17)
(1 5.0274e-05 1.2028e-17)
(0.99984 0.00020834 5.1413e-18)
(0.99831 0.00073865 -7.6687e-18)
(1.0041 0.002022 1.6744e-17)
(0.94622 0.0014739 7.6059e-18)
(1.1149 0.076163 -1.0751e-17)
(0.99999 3.9105e-05 -6.8712e-18)
(1 -7.6794e-05 6.2547e-18)
(1 -7.6618e-05 4.5605e-17)
(1.0001 -0.00016951 -1.1114e-17)
(1.0001 -0.00010795 2.7942e-17)
(1.0001 -0.0001335 -5.3613e-17)
(1 5.9476e-05 -4.0068e-17)
(0.99985 0.00022991 9.9903e-18)
(0.99799 0.00083119 -5.7601e-18)
(1.0053 0.002478 -9.2345e-18)
(0.94289 0.00060468 -1.4049e-17)
(1.1076 0.077632 1.4072e-17)
(0.99999 4.4039e-05 4.527e-18)
(1 -8.6518e-05 2.3543e-18)
(1 -8.5378e-05 -3.863e-17)
(1.0001 -0.0001909 1.5817e-17)
(1.0001 -0.00011993 -1.2185e-17)
(1.0001 -0.000152 2.2866e-17)
(1 6.9327e-05 1.4239e-17)
(0.99989 0.0002497 2.5255e-18)
(0.99765 0.00091763 5.4337e-19)
(1.0065 0.002976 1.4636e-18)
(0.94081 -0.00036774 4.4727e-18)
(1.0979 0.078261 -7.3383e-19)
(0.99999 4.9037e-05 -2.4854e-18)
(1 -9.6391e-05 -7.7213e-18)
(1 -9.4097e-05 9.4692e-18)
(1.0001 -0.00021261 -2.791e-18)
(1.0001 -0.00013178 1.8807e-18)
(1.0002 -0.00017124 -2.506e-17)
(1 7.9874e-05 -3.2794e-17)
(0.99993 0.00026761 -3.2076e-17)
(0.99729 0.00099695 1.6101e-17)
(1.0076 0.0035098 1.9015e-18)
(0.93992 -0.001399 -1.1344e-17)
(1.0868 0.07825 -6.0711e-18)
(0.99998 5.4099e-05 3.4306e-18)
(1 -0.00010641 2.9164e-18)
(1 -0.00010278 4.5634e-18)
(1.0001 -0.00023467 -2.2243e-18)
(1.0001 -0.00014349 -5.6378e-18)
(1.0002 -0.00019126 9.4783e-18)
(1 9.1163e-05 1.8983e-17)
(0.99999 0.00028353 1.9816e-17)
(0.99693 0.0010683 1.0347e-17)
(1.0086 0.0040719 -2.4004e-17)
(0.94009 -0.0024486 1.1819e-19)
(1.0749 0.077758 -7.0377e-18)
(0.99998 5.922e-05 -3.4299e-18)
(1 -0.00011659 5.7352e-18)
(1 -0.00011143 8.2734e-18)
(1.0001 -0.00025708 5.8077e-18)
(1.0001 -0.00015505 -5.2288e-18)
(1.0002 -0.00021213 4.6597e-18)
(1 0.00010324 4.3287e-18)
(1.0001 0.00029736 -1.7695e-18)
(0.99655 0.0011311 -1.6722e-17)
(1.0096 0.0046542 2.2262e-17)
(0.94117 -0.0034812 1.0533e-19)
(1.0629 0.076914 1.5024e-18)
(0.99998 6.4399e-05 5.2159e-18)
(1 -0.00012692 -4.4769e-18)
(1 -0.00012005 7.2413e-19)
(1.0001 -0.00027987 -4.8449e-18)
(1.0001 -0.00016646 1.1875e-17)
(1.0002 -0.00023392 5.6855e-18)
(1 0.00011613 1.7417e-17)
(1.0001 0.00030901 -6.5721e-18)
(0.99618 0.0011849 -2.0447e-19)
(1.0104 0.0052482 5.4709e-18)
(0.94299 -0.0044668 1.723e-17)
(1.0513 0.075818 9.5799e-19)
(0.99997 6.9632e-05 1.2579e-18)
(1 -0.0001374 9.9357e-18)
(1 -0.00012865 1.3834e-17)
(1.0001 -0.00030305 -4.8307e-18)
(1.0001 -0.00017771 8.5981e-18)
(1.0002 -0.00025671 -2.6541e-18)
(0.99999 0.00012986 -3.0504e-17)
(1.0002 0.00031835 2.0803e-17)
(0.9958 0.0012293 -1.8863e-17)
(1.0111 0.0058456 -3.1551e-17)
(0.9454 -0.0053816 -3.7814e-18)
(1.0404 0.074548 8.8832e-19)
(0.99997 7.4916e-05 -3.2093e-18)
(1 -0.00014804 -1.0567e-17)
(1 -0.00013722 -3.3205e-17)
(1.0001 -0.00032662 8.1385e-18)
(1.0001 -0.0001888 -1.3048e-17)
(1.0003 -0.00028055 8.51e-18)
(0.99999 0.00014445 -2.8538e-18)
(1.0003 0.0003253 -1.2523e-17)
(0.99544 0.0012643 4.1398e-18)
(1.0116 0.0064384 1.8842e-17)
(0.94822 -0.0062075 -7.9394e-18)
(1.0304 0.073163 1.2402e-17)
(0.99997 8.0245e-05 3.3766e-19)
(1 -0.00015884 7.9028e-18)
(1 -0.00014579 2.2924e-17)
(1.0001 -0.00035062 -1.833e-18)
(1.0002 -0.00019974 -1.2962e-17)
(1.0003 -0.00030554 -1.5859e-17)
(0.99998 0.00015986 1.0902e-17)
(1.0005 0.00032975 7.1819e-18)
(0.99508 0.0012898 2.3944e-17)
(1.0121 0.0070194 -2.6394e-18)
(0.95132 -0.0069326 1.9736e-18)
(1.0215 0.07171 -4.9471e-18)
(0.99996 8.5617e-05 -1.8945e-18)
(0.99999 -0.0001698 -9.5757e-18)
(1 -0.00015435 -1.0344e-17)
(1.0002 -0.00037506 6.1252e-18)
(1.0002 -0.00021053 -7.2793e-18)
(1.0003 -0.00033174 -1.272e-17)
(0.99997 0.00017605 1.0598e-17)
(1.0006 0.00033163 -4.8722e-18)
(0.99475 0.0013057 -2.9638e-17)
(1.0124 0.0075821 -1.4797e-17)
(0.95455 -0.0075501 8.565e-18)
(1.0138 0.070221 -5.3738e-18)
(0.99996 9.1026e-05 -2.7127e-18)
(0.99999 -0.00018092 -3.6191e-18)
(1 -0.00016291 -7.6661e-19)
(1.0002 -0.00039995 -2.6822e-17)
(1.0002 -0.00022116 6.1083e-18)
(1.0004 -0.00035922 5.5391e-18)
(0.99996 0.00019294 -2.0138e-17)
(1.0008 0.00033087 -1.6635e-17)
(0.99443 0.0013121 4.3321e-18)
(1.0126 0.0081213 -1.1162e-18)
(0.95781 -0.0080579 -9.8896e-18)
(1.0073 0.06872 1.0159e-18)
(0.99995 9.6466e-05 3.5284e-18)
(0.99999 -0.00019219 1.6591e-17)
(1 -0.00017148 1.9738e-17)
(1.0002 -0.0004253 2.5259e-18)
(1.0002 -0.00023165 1.6884e-17)
(1.0004 -0.00038808 9.7069e-18)
(0.99994 0.00021038 2.9069e-18)
(1.0009 0.00032743 1.8207e-17)
(0.99414 0.001309 2.1544e-17)
(1.0127 0.0086326 1.7672e-17)
(0.96101 -0.0084579 7.3819e-18)
(1.0019 0.067226 1.2073e-18)
(0.99995 0.00010193 -1.6817e-18)
(0.99999 -0.00020363 -3.9808e-18)
(1 -0.00018007 -2.1029e-17)
(1.0002 -0.00045115 -2.3917e-18)
(1.0002 -0.00024201 -1.2796e-17)
(1.0004 -0.00041837 -5.2521e-18)
(0.99992 0.0002282 -1.8651e-18)
(1.0011 0.00032128 -1.6463e-17)
(0.99388 0.0012965 -2.0607e-17)
(1.0128 0.0091128 9.0615e-18)
(0.96408 -0.0087552 5.0682e-19)
(0.99754 0.065749 6.9393e-19)
(0.99994 0.00010742 4.4576e-18)
(0.99998 -0.00021523 -5.2008e-18)
(1 -0.00018869 -1.9722e-17)
(1.0002 -0.0004775 4.5469e-17)
(1.0002 -0.00025227 1.8562e-17)
(1.0005 -0.00045017 -1.2852e-17)
(0.9999 0.00024615 2.5078e-17)
(1.0013 0.00031245 2.225e-17)
(0.99364 0.0012746 3.3443e-17)
(1.0128 0.0095597 -3.3218e-17)
(0.96698 -0.0089571 -1.3557e-17)
(0.99414 0.064298 1.8367e-19)
(0.99994 0.00011291 -3.2628e-18)
(0.99998 -0.00022698 -1.0436e-18)
(1 -0.00019736 3.3671e-17)
(1.0002 -0.00050437 -3.4372e-17)
(1.0002 -0.00026245 -1.787e-18)
(1.0005 -0.00048355 4.2582e-17)
(0.99988 0.00026393 7.7715e-18)
(1.0015 0.00030096 -3.4367e-18)
(0.99343 0.0012435 -2.0743e-17)
(1.0128 0.0099721 3.915e-17)
(0.96968 -0.0090726 -5.7435e-18)
(0.99157 0.062876 -2.911e-19)
(0.99993 0.00011842 -1.6633e-18)
(0.99998 -0.0002389 -2.0795e-18)
(1 -0.00020609 1.753e-18)
(1.0002 -0.00053178 3.5758e-17)
(1.0002 -0.00027261 -1.0074e-17)
(1.0005 -0.00051857 -3.1474e-17)
(0.99985 0.00028115 -1.9815e-17)
(1.0017 0.00028691 -3.7006e-18)
(0.99326 0.0012032 6.5615e-18)
(1.0127 0.01035 -3.3033e-17)
(0.97217 -0.0091116 9.62e-18)
(0.98972 0.061488 3.1607e-18)
(0.99992 0.00012392 2.7487e-18)
(0.99997 -0.00025097 1.4474e-17)
(1 -0.0002149 -1.2931e-17)
(1.0002 -0.00055975 -3.7442e-18)
(1.0002 -0.00028278 -1.9332e-17)
(1.0006 -0.0005553 3.4241e-17)
(0.99983 0.00029739 -1.7394e-17)
(1.0019 0.00027038 1.5342e-17)
(0.99312 0.0011539 -2.0222e-18)
(1.0126 0.010693 3.0973e-17)
(0.97443 -0.0090845 -9.3874e-18)
(0.98846 0.060133 -5.2745e-18)
(0.99992 0.00012941 -5.2718e-19)
(0.99997 -0.00026321 -8.3241e-18)
(1 -0.00022381 -1.8105e-17)
(1.0002 -0.00058829 -1.0259e-17)
(1.0002 -0.00029305 1.8751e-17)
(1.0006 -0.0005938 -4.3663e-17)
(0.9998 0.00031215 -2.6835e-18)
(1.0021 0.00025154 -2.0728e-17)
(0.993 0.0010959 3.2689e-18)
(1.0126 0.011004 -8.9339e-18)
(0.97649 -0.0090014 9.9924e-18)
(0.9877 0.058813 2.239e-18)
(0.99991 0.00013487 2.7616e-18)
(0.99997 -0.0002756 -8.9164e-18)
(1 -0.00023284 -1.7883e-18)
(1.0002 -0.00061743 2.4929e-18)
(1.0002 -0.00030349 5.9345e-18)
(1.0007 -0.00063411 1.2617e-17)
(0.99977 0.00032489 4.4002e-17)
(1.0023 0.00023055 2.4772e-18)
(0.99292 0.0010295 5.329e-18)
(1.0125 0.011283 9.8485e-18)
(0.97834 -0.0088721 -8.5463e-18)
(0.98734 0.057525 1.7223e-18)
(0.9999 0.00014031 -1.5835e-18)
(0.99996 -0.00028816 8.9082e-18)
(1 -0.00024202 2.5735e-17)
(1.0002 -0.0006472 -2.5117e-17)
(1.0002 -0.00031422 -9.2308e-18)
(1.0007 -0.0006763 -2.2201e-18)
(0.99974 0.00033501 -1.4504e-17)
(1.0026 0.00020762 1.922e-18)
(0.99287 0.00095506 -9.2311e-18)
(1.0124 0.011532 -3.6193e-18)
(0.98001 -0.0087054 -2.4216e-19)
(0.98728 0.056271 -2.1037e-18)
(0.9999 0.00014571 -1.7019e-18)
(0.99996 -0.00030088 5.332e-18)
(1 -0.00025139 -6.2258e-19)
(1.0003 -0.0006776 8.3287e-18)
(1.0002 -0.00032535 -1.7031e-17)
(1.0008 -0.00072042 2.5119e-17)
(0.99971 0.00034192 7.2336e-18)
(1.0028 0.000183 -1.8335e-17)
(0.99285 0.0008731 -1.1843e-17)
(1.0123 0.011754 -1.4331e-17)
(0.98152 -0.0085095 1.3541e-18)
(0.98746 0.055047 -3.8607e-18)
(0.99989 0.00015106 5.9142e-19)
(0.99995 -0.00031376 -1.2734e-17)
(1 -0.00026097 1.5935e-17)
(1.0003 -0.00070867 2.3036e-17)
(1.0002 -0.00033704 3.3382e-17)
(1.0009 -0.00076652 -1.8448e-17)
(0.99968 0.00034498 -1.7985e-17)
(1.003 0.00015693 3.7206e-18)
(0.99286 0.00078422 1.1097e-17)
(1.0122 0.011951 1.1218e-17)
(0.98288 -0.0082916 6.3067e-18)
(0.98781 0.053854 3.8374e-18)
(0.99988 0.00015635 1.1334e-18)
(0.99995 -0.00032681 1.0126e-17)
(1 -0.0002708 -3.661e-17)
(1.0003 -0.00074045 -3.3378e-18)
(1.0002 -0.00034946 -2.7729e-17)
(1.0009 -0.00081466 -1.162e-17)
(0.99965 0.00034358 2.5351e-20)
(1.0032 0.00012973 -4.2566e-18)
(0.99289 0.00068911 -2.1876e-17)
(1.0121 0.012125 -1.791e-17)
(0.98412 -0.0080578 -8.616e-18)
(0.98829 0.052691 -1.8944e-18)
(0.99987 0.00016157 -7.346e-19)
(0.99994 -0.00034003 -6.5852e-18)
(1 -0.00028094 2.8805e-17)
(1.0003 -0.00077297 -3.1847e-17)
(1.0002 -0.00036279 -2.0849e-18)
(1.001 -0.00086488 2.4745e-17)
(0.99963 0.00033717 7.196e-19)
(1.0035 0.0001017 4.0586e-18)
(0.99294 0.00058853 1.915e-17)
(1.0121 0.012279 2.328e-17)
(0.98525 -0.0078132 4.9286e-18)
(0.98885 0.051555 -1.06e-18)
(0.99986 0.0001667 -1.9123e-18)
(0.99994 -0.00035343 -2.4284e-18)
(0.99999 -0.00029144 -1.2769e-17)
(1.0003 -0.00080627 1.5865e-17)
(1.0002 -0.00037724 3.0474e-17)
(1.001 -0.00091724 -1.0936e-17)
(0.99961 0.00032521 2.2397e-17)
(1.0037 7.3168e-05 3.0423e-18)
(0.99302 0.00048332 -2.1713e-18)
(1.012 0.012414 1.0529e-17)
(0.98629 -0.0075621 -5.5107e-18)
(0.98947 0.050445 -7.4053e-19)
(0.99985 0.00017174 4.7826e-19)
(0.99993 -0.00036702 -6.422e-18)
(0.99999 -0.00030235 4.7798e-18)
(1.0003 -0.00084041 -1.6169e-17)
(1.0002 -0.00039306 -3.2232e-17)
(1.0011 -0.00097177 6.8919e-18)
(0.99959 0.00030726 -3.2311e-17)
(1.0039 4.4492e-05 -6.9568e-18)
(0.99311 0.00037434 7.0413e-18)
(1.012 0.012533 -3.3051e-17)
(0.98726 -0.007308 3.7716e-18)
(0.99012 0.049362 2.0835e-18)
(0.99984 0.00017666 8.3983e-19)
(0.99992 -0.00038081 1.7399e-17)
(0.99998 -0.00031375 8.003e-18)
(1.0003 -0.00087544 6.5863e-18)
(1.0002 -0.00041048 2.5773e-17)
(1.0012 -0.0010285 2.0548e-18)
(0.99958 0.00028296 2.2311e-17)
(1.0041 1.6023e-05 4.9894e-18)
(0.99322 0.00026246 -2.1409e-17)
(1.012 0.012637 1.1378e-17)
(0.98816 -0.0070535 2.551e-18)
(0.99078 0.048303 2.1638e-18)
(0.99983 0.00018146 -2.9324e-18)
(0.99992 -0.00039482 -5.7272e-18)
(0.99998 -0.0003257 -7.0316e-18)
(1.0003 -0.00091142 1.0816e-17)
(1.0002 -0.00042976 1.245e-17)
(1.0012 -0.0010875 -4.0922e-18)
(0.99957 0.00025207 -1.8741e-17)
(1.0044 -1.188e-05 2.272e-17)
(0.99334 0.00014856 3.9612e-18)
(1.0119 0.012728 -3.4366e-18)
(0.98901 -0.0068007 1.056e-17)
(0.99144 0.047268 -1.5053e-18)
(0.99982 0.00018611 6.0254e-18)
(0.99991 -0.00040907 6.8584e-18)
(0.99997 -0.00033829 -7.4742e-18)
(1.0004 -0.00094843 -6.7375e-18)
(1.0002 -0.00045116 -1.7865e-17)
(1.0013 -0.0011487 -7.0285e-18)
(0.99957 0.00021447 9.2398e-18)
(1.0046 -3.8866e-05 -3.6443e-17)
(0.99348 3.3464e-05 9.7063e-18)
(1.0119 0.012808 -4.0617e-18)
(0.98982 -0.0065513 -1.1184e-17)
(0.99209 0.046256 4.3767e-18)
(0.99981 0.00019061 -2.6593e-18)
(0.9999 -0.00042358 -1.205e-17)
(0.99997 -0.00035161 -7.2435e-18)
(1.0004 -0.00098655 -1.2785e-17)
(1.0002 -0.00047496 -5.4546e-18)
(1.0014 -0.0012122 2.0665e-17)
(0.99957 0.00017014 -9.0764e-18)
(1.0048 -6.4591e-05 4.0543e-17)
(0.99363 -8.2034e-05 9.1561e-18)
(1.0119 0.012877 1.2325e-17)
(0.99059 -0.0063063 4.7151e-18)
(0.99273 0.045266 -7.1019e-18)
(0.9998 0.00019493 -1.4105e-18)
(0.9999 -0.00043838 8.9612e-18)
(0.99996 -0.00036575 1.4351e-17)
(1.0004 -0.0010259 3.4471e-17)
(1.0002 -0.0005014 7.2301e-18)
(1.0015 -0.0012779 -1.4175e-17)
(0.99958 0.00011922 4.3801e-18)
(1.005 -8.8734e-05 -4.3619e-17)
(0.99378 -0.00019723 -1.1109e-17)
(1.0119 0.012936 -6.8525e-18)
(0.99133 -0.0060667 4.629e-18)
(0.99335 0.044297 7.1478e-18)
(0.99979 0.00019906 1.0795e-18)
(0.99989 -0.0004535 2.1213e-18)
(0.99995 -0.00038082 -1.4094e-17)
(1.0004 -0.0010665 -5.7419e-18)
(1.0002 -0.00053071 9.1796e-18)
(1.0016 -0.0013457 1.6966e-17)
(0.99959 6.196e-05 1.523e-17)
(1.0052 -0.000111 4.3166e-18)
(0.99395 -0.00031148 1.2429e-17)
(1.0118 0.012986 -3.1744e-18)
(0.99205 -0.005833 -8.2638e-18)
(0.99396 0.04335 -1.8424e-18)
(0.99978 0.00020297 -4.4213e-20)
(0.99988 -0.00046899 2.4175e-18)
(0.99995 -0.00039692 3.1498e-18)
(1.0004 -0.0011084 -7.4539e-18)
(1.0003 -0.00056312 8.5125e-20)
(1.0016 -0.0014156 -1.5383e-17)
(0.99961 -1.2832e-06 -1.0302e-17)
(1.0053 -0.00013112 3.1945e-17)
(0.99411 -0.00042427 -1.8787e-17)
(1.0118 0.013029 1.2327e-17)
(0.99274 -0.0056054 4.3659e-18)
(0.99454 0.042422 -5.2154e-18)
(0.99976 0.00020665 -3.3433e-18)
(0.99987 -0.00048487 -1.1338e-17)
(0.99994 -0.00041415 8.0412e-18)
(1.0004 -0.0011519 -2.0357e-17)
(1.0003 -0.00059881 -2.3214e-17)
(1.0017 -0.0014873 -2.125e-17)
(0.99963 -7.0042e-05 -2.0995e-17)
(1.0055 -0.00014888 -3.2712e-18)
(0.99429 -0.00053513 1.642e-17)
(1.0118 0.013063 -1.0573e-17)
(0.99341 -0.0053843 4.3489e-19)
(0.9951 0.041515 4.9152e-18)
(0.99975 0.00021008 6.4528e-18)
(0.99986 -0.0005012 1.1849e-17)
(0.99993 -0.00043262 -1.2968e-17)
(1.0004 -0.0011968 1.6713e-17)
(1.0003 -0.00063791 -2.7216e-18)
(1.0018 -0.0015607 1.3929e-17)
(0.99965 -0.00014377 2.5236e-17)
(1.0057 -0.00016409 -2.4782e-17)
(0.99446 -0.00064374 -8.3278e-18)
(1.0118 0.01309 1.1163e-17)
(0.99406 -0.0051697 3.7778e-18)
(0.99565 0.040626 -2.327e-18)
(0.99974 0.00021323 -4.8418e-18)
(0.99985 -0.00051803 -3.502e-18)
(0.99992 -0.00045245 -2.7111e-18)
(1.0005 -0.0012434 1.9122e-17)
(1.0003 -0.00068052 -5.8267e-18)
(1.0019 -0.0016357 -1.7648e-19)
(0.99968 -0.00022184 -4.9381e-18)
(1.0059 -0.00017664 1.9851e-17)
(0.99464 -0.00074983 -7.9089e-18)
(1.0118 0.01311 -7.6654e-18)
(0.99469 -0.0049615 -1.1169e-17)
(0.99617 0.039757 2.708e-18)
(0.99972 0.00021608 3.2911e-18)
(0.99984 -0.0005354 -4.4402e-18)
(0.99991 -0.00047373 6.2071e-18)
(1.0005 -0.0012917 -2.9014e-17)
(1.0003 -0.00072667 3.9478e-17)
(1.002 -0.0017118 5.7707e-18)
(0.99972 -0.0003036 1.9483e-17)
(1.006 -0.00018645 -1.2284e-17)
(0.99482 -0.00085324 1.0313e-19)
(1.0118 0.013123 5.6993e-18)
(0.99531 -0.0047598 -2.177e-18)
(0.99668 0.038905 -1.0186e-18)
(0.99971 0.00021862 -9.4151e-19)
(0.99983 -0.00055336 8.6787e-19)
(0.99991 -0.00049655 1.5123e-17)
(1.0005 -0.0013417 7.9099e-18)
(1.0003 -0.00077635 -1.9736e-17)
(1.0021 -0.001789 -1.1303e-17)
(0.99975 -0.00038837 3.4014e-18)
(1.0062 -0.00019348 -5.9727e-18)
(0.99499 -0.00095388 1.3233e-17)
(1.0117 0.01313 -3.7416e-18)
(0.99592 -0.0045645 1.0464e-17)
(0.99717 0.038071 -3.724e-18)
(0.99969 0.00022082 -1.6387e-18)
(0.99982 -0.00057196 -8.366e-18)
(0.9999 -0.00052099 -4.4965e-18)
(1.0005 -0.0013935 3.1762e-17)
(1.0003 -0.00082948 -1.7582e-17)
(1.0021 -0.0018667 -9.5733e-19)
(0.99979 -0.00047546 -5.0872e-17)
(1.0063 -0.00019777 5.8704e-18)
(0.99517 -0.0010517 -2.475e-17)
(1.0117 0.01313 -8.0782e-18)
(0.99651 -0.0043754 -1.0472e-17)
(0.99765 0.037255 2.2115e-18)
(0.99968 0.00022265 -7.0741e-19)
(0.99981 -0.00059125 5.1831e-18)
(0.99989 -0.00054711 -1.8562e-18)
(1.0005 -0.001447 -1.8494e-17)
(1.0003 -0.00088592 2.5266e-17)
(1.0022 -0.0019447 -2.3533e-18)
(0.99983 -0.0005642 2.6947e-17)
(1.0064 -0.00019941 -3.6093e-18)
(0.99535 -0.0011468 1.2016e-17)
(1.0117 0.013124 1.0103e-17)
(0.99708 -0.0041924 8.6392e-18)
(0.99811 0.036455 -5.3587e-19)
(0.99966 0.00022412 4.0101e-18)
(0.9998 -0.00061127 -3.101e-18)
(0.99988 -0.00057497 -6.4927e-18)
(1.0005 -0.0015022 2.0184e-17)
(1.0003 -0.00094548 1.8541e-18)
(1.0023 -0.0020225 2.9177e-17)
(0.99987 -0.00065397 4.6482e-18)
(1.0066 -0.0001985 1.7244e-17)
(0.99553 -0.0012392 4.5079e-18)
(1.0117 0.013112 -3.2688e-18)
(0.99765 -0.0040153 1.1254e-18)
(0.99856 0.035673 4.8462e-19)
(0.99965 0.00022519 1.1433e-18)
(0.99979 -0.00063205 1.268e-18)
(0.99987 -0.00060459 -5.8872e-18)
(1.0006 -0.0015591 -4.0195e-17)
(1.0003 -0.0010079 5.6144e-18)
(1.0024 -0.0021 2.5302e-18)
(0.99992 -0.00074417 -2.0155e-17)
(1.0067 -0.00019523 2.4264e-19)
(0.99571 -0.0013291 1.3286e-17)
(1.0117 0.013094 -2.1012e-18)
(0.9982 -0.0038441 -5.4793e-18)
(0.99899 0.034906 2.8609e-18)
(0.99963 0.00022585 -4.8962e-18)
(0.99978 -0.00065361 5.3738e-18)
(0.99986 -0.00063596 9.7081e-19)
(1.0006 -0.0016175 2.232e-17)
(1.0003 -0.0010729 -2.5612e-17)
(1.0025 -0.0021766 -1.1177e-17)
(0.99996 -0.0008343 2.0614e-17)
(1.0068 -0.00018979 -1.168e-17)
(0.99589 -0.0014166 -2.1005e-17)
(1.0116 0.013069 -1.0382e-17)
(0.99874 -0.0036786 6.9808e-18)
(0.99942 0.034155 9.557e-19)
(0.99961 0.0002261 -5.1805e-19)
(0.99977 -0.00067598 -5.4074e-18)
(0.99985 -0.00066908 1.0336e-17)
(1.0006 -0.0016773 9.896e-18)
(1.0004 -0.0011402 3.1632e-17)
(1.0025 -0.002252 4.2934e-18)
(1 -0.00092391 1.8309e-17)
(1.0069 -0.00018243 2.9612e-17)
(0.99607 -0.0015018 -9.2899e-19)
(1.0116 0.013039 1.8261e-17)
(0.99926 -0.0035187 -7.3799e-19)
(0.99983 0.03342 -2.7854e-18)
(0.99959 0.00022592 5.0214e-18)
(0.99975 -0.00069915 -7.8724e-18)
(0.99984 -0.00070387 -1.5687e-17)
(1.0006 -0.0017384 -2.6306e-18)
(1.0004 -0.0012093 -3.4331e-17)
(1.0026 -0.0023259 -1.2775e-17)
(1 -0.0010126 -6.3556e-18)
(1.007 -0.00017339 2.2136e-19)
(0.99625 -0.001585 2.7338e-17)
(1.0116 0.013002 4.2072e-18)
(0.99978 -0.0033642 -9.5915e-18)
(1.0002 0.032699 1.6726e-18)
(0.99957 0.00022532 -5.6294e-18)
(0.99974 -0.00072312 9.8342e-18)
(0.99983 -0.00074028 8.2117e-18)
(1.0006 -0.0018006 -5.2416e-18)
(1.0004 -0.00128 2.7608e-17)
(1.0027 -0.0023981 1.5283e-17)
(1.0001 -0.0011001 -5.024e-18)
(1.0071 -0.00016295 -2.9841e-17)
(0.99643 -0.0016662 -9.2901e-19)
(1.0116 0.01296 -1.2023e-17)
(1.0003 -0.0032151 1.1358e-17)
(1.0006 0.031994 -2.1902e-18)
(0.99955 0.00022429 3.3826e-18)
(0.99973 -0.00074787 -1.8817e-18)
(0.99982 -0.0007782 1.0872e-17)
(1.0006 -0.0018637 -2.2051e-17)
(1.0004 -0.0013517 9.014e-18)
(1.0028 -0.0024682 -5.4904e-18)
(1.0001 -0.0011862 -1.0824e-17)
(1.0072 -0.0001514 -2.3951e-18)
(0.99661 -0.0017458 -3.2995e-17)
(1.0116 0.012912 7.9319e-18)
(1.0008 -0.0030712 -1.0407e-17)
(1.001 0.031303 7.3142e-19)
(0.99953 0.00022285 2.6741e-19)
(0.99971 -0.00077336 -5.9194e-18)
(0.99981 -0.00081751 6.1736e-18)
(1.0006 -0.0019274 2.9022e-17)
(1.0004 -0.0014242 -2.147e-17)
(1.0028 -0.002536 1.7661e-17)
(1.0002 -0.0012708 -6.2587e-18)
(1.0073 -0.00013904 5.5468e-18)
(0.99679 -0.0018239 3.9202e-17)
(1.0116 0.012859 -1.4725e-17)
(1.0012 -0.0029324 1.5914e-17)
(1.0014 0.030626 2.0699e-18)
(0.99951 0.000221 4.7996e-19)
(0.99969 -0.00079954 -1.2249e-18)
(0.99979 -0.00085805 -8.8821e-18)
(1.0007 -0.0019915 -4.3693e-18)
(1.0004 -0.0014969 1.8711e-17)
(1.0029 -0.0026014 1.4021e-19)
(1.0002 -0.0013537 -1.2302e-17)
(1.0074 -0.00012616 -1.3241e-17)
(0.99697 -0.0019006 -1.641e-17)
(1.0116 0.012799 -1.3898e-18)
(1.0017 -0.0027986 2.9208e-18)
(1.0018 0.029963 2.181e-19)
(0.99949 0.00021876 -7.7242e-19)
(0.99968 -0.00082636 1.4578e-17)
(0.99978 -0.00089966 -5.9239e-18)
(1.0007 -0.0020558 -2.4689e-17)
(1.0004 -0.0015697 8.6252e-18)
(1.0029 -0.0026643 -4.4996e-17)
(1.0002 -0.001435 6.1367e-18)
(1.0074 -0.00011303 8.3377e-18)
(0.99715 -0.0019761 7.6228e-19)
(1.0115 0.012735 1.4954e-17)
(1.0022 -0.0026697 -9.6836e-19)
(1.0021 0.029314 -5.7867e-18)
(0.99946 0.00021615 -2.0394e-19)
(0.99966 -0.00085373 -2.8615e-19)
(0.99977 -0.00094217 7.9743e-18)
(1.0007 -0.0021199 1.5242e-17)
(1.0004 -0.0016421 -3.4273e-17)
(1.003 -0.0027245 1.9439e-18)
(1.0003 -0.0015146 1.0991e-17)
(1.0075 -9.9957e-05 1.3057e-17)
(0.99734 -0.0020505 -1.038e-17)
(1.0115 0.012665 -1.4559e-17)
(1.0026 -0.0025456 -1.5807e-17)
(1.0025 0.028677 6.1132e-18)
(0.99944 0.00021319 -1.3343e-18)
(0.99964 -0.00088158 4.0732e-19)
(0.99975 -0.00098539 -3.8449e-18)
(1.0007 -0.0021838 -1.0177e-17)
(1.0004 -0.0017138 1.8998e-17)
(1.0031 -0.0027822 2.4152e-17)
(1.0003 -0.0015928 3.2056e-18)
(1.0076 -8.7189e-05 6.6161e-18)
(0.99752 -0.002124 1.6555e-17)
(1.0115 0.01259 2.4504e-18)
(1.0031 -0.0024263 1.1695e-17)
(1.0028 0.028054 -3.711e-18)
(0.99942 0.00020992 2.4558e-18)
(0.99962 -0.00090981 7.51e-19)
(0.99974 -0.0010291 -5.4944e-18)
(1.0007 -0.0022471 1.5034e-18)
(1.0004 -0.0017846 -1.03e-17)
(1.0031 -0.0028372 -5.7932e-18)
(1.0003 -0.0016695 -1.1848e-18)
(1.0077 -7.4985e-05 -2.9874e-17)
(0.9977 -0.0021968 3.2503e-18)
(1.0115 0.012509 -4.9681e-18)
(1.0035 -0.0023116 -4.7561e-18)
(1.0032 0.027444 -4.4755e-18)
(0.99939 0.00020636 -5.0116e-18)
(0.99961 -0.00093833 9.8112e-19)
(0.99972 -0.0010731 2.9143e-18)
(1.0007 -0.0023095 -1.889e-17)
(1.0005 -0.0018543 -1.1742e-17)
(1.0032 -0.0028897 -2.6894e-17)
(1.0004 -0.001745 5.7177e-18)
(1.0077 -6.3583e-05 1.2199e-17)
(0.99788 -0.0022688 -3.4854e-17)
(1.0115 0.012424 2.2908e-17)
(1.0039 -0.0022015 -5.1488e-18)
(1.0035 0.026846 2.8857e-18)
(0.99936 0.00020255 4.6003e-18)
(0.99958 -0.00096703 2.1957e-18)
(0.9997 -0.0011173 1.1208e-18)
(1.0007 -0.002371 5.9917e-18)
(1.0005 -0.0019227 -2.5929e-18)
(1.0032 -0.0029398 5.2125e-17)
(1.0004 -0.0018194 2.0529e-17)
(1.0078 -5.3202e-05 -1.8971e-17)
(0.99807 -0.0023403 3.3546e-17)
(1.0115 0.012333 -8.5471e-18)
(1.0043 -0.002096 -3.3992e-18)
(1.0038 0.026259 -1.4408e-18)
(0.99934 0.00019853 1.1283e-18)
(0.99956 -0.00099581 -1.3905e-17)
(0.99968 -0.0011614 2.2429e-18)
(1.0007 -0.0024314 2.6904e-17)
(1.0005 -0.0019897 2.007e-17)
(1.0033 -0.0029876 -8.4218e-19)
(1.0004 -0.0018928 -2.844e-17)
(1.0079 -4.4044e-05 5.7458e-18)
(0.99825 -0.0024112 -7.5658e-18)
(1.0115 0.012238 -1.183e-17)
(1.0047 -0.0019948 8.6454e-18)
(1.0041 0.025685 1.3424e-18)
(0.99931 0.00019433 -4.4628e-18)
(0.99954 -0.0010246 -4.6351e-18)
(0.99966 -0.0012052 -1.215e-17)
(1.0007 -0.0024904 -2.2563e-17)
(1.0005 -0.0020552 -2.0194e-17)
(1.0033 -0.0030333 -2.3687e-17)
(1.0004 -0.0019656 5.2518e-18)
(1.0079 -3.6295e-05 4.4654e-17)
(0.99844 -0.0024818 3.2978e-18)
(1.0115 0.012138 -1.0333e-18)
(1.0051 -0.001898 -3.0538e-18)
(1.0045 0.025123 -3.6101e-18)
(0.99928 0.00018999 3.3116e-18)
(0.99952 -0.0010532 4.306e-18)
(0.99964 -0.0012487 1.8722e-17)
(1.0007 -0.0025481 1.5626e-17)
(1.0005 -0.0021192 1.9646e-17)
(1.0034 -0.0030771 -8.8052e-19)
(1.0005 -0.0020377 -2.9262e-17)
(1.008 -3.0122e-05 -2.4135e-17)
(0.99862 -0.0025521 8.1851e-18)
(1.0115 0.012034 4.0947e-18)
(1.0055 -0.0018055 6.8914e-18)
(1.0048 0.024571 2.7894e-18)
(0.99925 0.00018554 -2.3386e-18)
(0.99949 -0.0010817 6.7545e-18)
(0.99962 -0.0012916 -1.2387e-17)
(1.0007 -0.0026043 2.2613e-18)
(1.0005 -0.0021816 9.1336e-18)
(1.0034 -0.0031192 -2.3154e-18)
(1.0005 -0.0021096 6.5698e-18)
(1.008 -2.5674e-05 6.7011e-18)
(0.99881 -0.002622 2.6949e-18)
(1.0115 0.011925 1.0123e-17)
(1.0058 -0.0017172 -8.2896e-18)
(1.0051 0.024031 5.6321e-19)
(0.99922 0.00018102 3.5307e-18)
(0.99947 -0.0011098 4.186e-19)
(0.9996 -0.0013339 -5.7979e-18)
(1.0007 -0.0026589 8.9998e-19)
(1.0005 -0.0022426 -1.5012e-18)
(1.0034 -0.0031598 -2.2873e-17)
(1.0005 -0.0021812 1.8344e-17)
(1.0081 -2.3089e-05 2.378e-17)
(0.99899 -0.0026918 -1.3412e-17)
(1.0115 0.011812 -1.4086e-17)
(1.0062 -0.0016332 -2.4263e-18)
(1.0054 0.023502 4.8002e-18)
(0.99918 0.00017646 -2.5648e-18)
(0.99944 -0.0011376 -3.2239e-19)
(0.99958 -0.0013755 7.2088e-18)
(1.0007 -0.002712 -1.729e-17)
(1.0004 -0.0023023 -1.3568e-17)
(1.0035 -0.0031991 2.8876e-17)
(1.0006 -0.0022528 -2.8053e-18)
(1.0081 -2.2485e-05 -2.518e-17)
(0.99918 -0.0027615 3.4176e-18)
(1.0115 0.011694 1.3263e-17)
(1.0066 -0.0015532 8.2225e-18)
(1.0057 0.022983 -1.731e-18)
(0.99915 0.00017189 2.5485e-19)
(0.99942 -0.0011649 2.3612e-18)
(0.99955 -0.0014162 3.9388e-18)
(1.0007 -0.0027636 8.9382e-18)
(1.0004 -0.0023606 2.6592e-17)
(1.0035 -0.0032373 6.7322e-18)
(1.0006 -0.0023246 -2.4427e-17)
(1.0082 -2.3971e-05 2.3588e-18)
(0.99937 -0.002831 8.8044e-18)
(1.0115 0.011573 -1.195e-17)
(1.0069 -0.0014773 -5.5621e-18)
(1.006 0.022474 -2.0028e-18)
(0.99912 0.00016735 7.2359e-19)
(0.99939 -0.0011918 -4.1081e-19)
(0.99953 -0.0014561 -1.0392e-17)
(1.0007 -0.0028137 -1.9221e-19)
(1.0004 -0.0024178 -5.2574e-17)
(1.0035 -0.0032747 8.3e-18)
(1.0006 -0.0023966 2.3995e-17)
(1.0083 -2.7641e-05 -6.7781e-18)
(0.99955 -0.0029006 -9.2192e-18)
(1.0115 0.011447 1.9845e-17)
(1.0072 -0.0014055 6.6601e-18)
(1.0062 0.021976 5.1918e-18)
(0.99908 0.00016284 7.7724e-19)
(0.99936 -0.0012181 -8.5231e-19)
(0.9995 -0.001495 1.8794e-17)
(1.0007 -0.0028623 4.1222e-18)
(1.0004 -0.002474 4.6588e-17)
(1.0036 -0.0033114 -2.9253e-17)
(1.0006 -0.0024691 -8.0354e-18)
(1.0083 -3.358e-05 6.3783e-18)
(0.99974 -0.0029701 3.1776e-18)
(1.0115 0.011318 -1.1166e-17)
(1.0076 -0.0013376 -1.0766e-18)
(1.0065 0.021487 -3.8285e-18)
(0.99904 0.0001584 -3.0376e-18)
(0.99933 -0.0012439 1.4308e-18)
(0.99947 -0.0015331 -1.1046e-17)
(1.0007 -0.0029096 5.42e-18)
(1.0004 -0.0025293 -1.7702e-17)
(1.0036 -0.0033477 3.9671e-18)
(1.0007 -0.0025421 3.2174e-17)
(1.0084 -4.1861e-05 -2.3871e-17)
(0.99993 -0.0030397 -1.1679e-17)
(1.0115 0.011184 -1.1047e-17)
(1.0079 -0.0012736 -5.3001e-18)
(1.0068 0.021008 -1.0513e-18)
(0.99901 0.00015404 3.7836e-18)
(0.9993 -0.0012691 -3.3982e-18)
(0.99944 -0.0015704 -1.0719e-17)
(1.0007 -0.0029556 -8.6429e-18)
(1.0004 -0.0025839 -2.894e-17)
(1.0036 -0.0033838 -1.8399e-17)
(1.0007 -0.0026158 -1.9728e-17)
(1.0084 -5.2552e-05 2.2194e-17)
(1.0001 -0.0031094 1.1323e-17)
(1.0116 0.011047 1.6729e-17)
(1.0082 -0.0012135 -2.0776e-18)
(1.0071 0.020538 5.0755e-18)
(0.99897 0.00014977 -6.0808e-18)
(0.99926 -0.0012938 5.5058e-18)
(0.99941 -0.0016067 2.6245e-17)
(1.0007 -0.0030005 -2.0386e-18)
(1.0004 -0.002638 3.2018e-17)
(1.0037 -0.0034198 1.388e-18)
(1.0007 -0.0026901 -1.8895e-17)
(1.0084 -6.571e-05 8.6842e-18)
(1.0003 -0.0031792 -4.0835e-18)
(1.0116 0.010907 -3.503e-18)
(1.0085 -0.0011573 6.7389e-18)
(1.0074 0.020078 -3.4322e-18)
(0.99893 0.0001456 4.983e-18)
(0.99923 -0.0013179 -7.4825e-18)
(0.99938 -0.0016423 -3.0599e-17)
(1.0007 -0.0030444 1.3335e-17)
(1.0004 -0.0026917 -2.281e-17)
(1.0037 -0.0034559 2.5432e-17)
(1.0008 -0.0027654 6.1586e-18)
(1.0085 -8.1389e-05 -8.2679e-18)
(1.0005 -0.0032493 -1.9601e-18)
(1.0116 0.010762 -8.7742e-18)
(1.0088 -0.0011048 -1.0993e-17)
(1.0076 0.019626 4.745e-18)
(0.99889 0.00014154 -3.6703e-18)
(0.9992 -0.0013414 2.488e-18)
(0.99935 -0.0016772 1.8592e-17)
(1.0007 -0.0030874 -1.7578e-17)
(1.0004 -0.0027451 3.6701e-17)
(1.0037 -0.0034922 -1.9738e-17)
(1.0008 -0.0028415 3.5902e-18)
(1.0085 -9.9634e-05 -1.3064e-17)
(1.0007 -0.0033195 6.3996e-18)
(1.0116 0.010615 -1.2279e-18)
(1.0091 -0.0010561 4.7043e-18)
(1.0079 0.019183 -2.11e-18)
(0.99885 0.00013758 4.5014e-18)
(0.99916 -0.0013644 1.9369e-18)
(0.99931 -0.0017113 -1.2395e-17)
(1.0007 -0.0031297 -3.5715e-19)
(1.0003 -0.0027985 -1.621e-18)
(1.0037 -0.003529 4.774e-18)
(1.0008 -0.0029186 3.4093e-17)
(1.0086 -0.00012049 8.9359e-18)
(1.0009 -0.00339 -1.897e-17)
(1.0116 0.010464 -6.3644e-18)
(1.0094 -0.0010112 -4.4325e-18)
(1.0082 0.018749 2.2173e-18)
(0.99881 0.00013372 -5.1594e-18)
(0.99913 -0.0013869 -7.1774e-18)