/*--------------------------------*- C++ -*----------------------------------*\
  =========                 |
  \\      /  F ield         | OpenFOAM: The Open Source CFD Toolbox
   \\    /   O peration     | Website:  https://openfoam.org
    \\  /    A nd           | Version:  6.0
     \\/     M anipulation  |
\*---------------------------------------------------------------------------*/
FoamFile
{
    version     2.0;
    format      ascii;
    class       volScalarField;
    location    "16";
    object      p;
}
// * * * * * * * * * * * * * * * * * * * * * * * * * * * * * * * * * * * * * //

dimensions      [0 2 -2 0 0 0 0];

internalField   nonuniform List<scalar> 
62000
(
0.0164848
0.0165023
0.016523
0.0165466
0.0165738
0.0166042
0.0166388
0.0166769
0.0167197
0.0167664
0.0168182
0.0168743
0.016936
0.0170025
0.0170755
0.0171537
0.0172395
0.0173314
0.017432
0.0175399
0.0176576
0.0177841
0.0179216
0.0180694
0.0182293
0.0184013
0.0185865
0.018786
0.0190011
0.0192336
0.0194843
0.019754
0.0200445
0.0203583
0.0207001
0.0210712
0.0214705
0.0218958
0.0223422
0.0228019
0.0232628
0.0237085
0.0241171
0.0244642
0.0247214
0.0248592
0.0248541
0.0246711
0.0243
0.0236966
0.0228619
0.0217715
0.0204588
0.0190697
0.0176352
0.0162147
0.0148639
0.0132598
0.0123809
0.0131672
0.0165007
0.0165168
0.0165365
0.0165594
0.0165862
0.0166164
0.0166508
0.0166891
0.016732
0.0167788
0.0168307
0.0168869
0.0169486
0.0170149
0.0170875
0.0171653
0.0172503
0.0173412
0.0174406
0.0175472
0.0176635
0.0177884
0.0179244
0.018071
0.0182298
0.0184013
0.0185866
0.0187868
0.0190036
0.019239
0.0194941
0.0197703
0.0200695
0.0203965
0.0207555
0.0211489
0.0215769
0.0220382
0.02253
0.0230464
0.0235773
0.0241087
0.0246211
0.0250922
0.0254957
0.0258034
0.0259923
0.0260261
0.0258911
0.0255333
0.0249413
0.0240669
0.0229246
0.0216514
0.0202782
0.0188674
0.0175103
0.0158099
0.0153444
0.01529
0.0165211
0.01654
0.0165613
0.016585
0.0166119
0.0166417
0.0166754
0.0167125
0.0167541
0.0167995
0.0168501
0.0169049
0.0169655
0.0170307
0.0171024
0.0171794
0.0172637
0.0173541
0.0174529
0.0175589
0.0176745
0.0177987
0.0179339
0.0180794
0.0182368
0.0184064
0.0185896
0.0187871
0.0190006
0.0192318
0.019482
0.0197523
0.0200454
0.0203649
0.0207153
0.0210984
0.021514
0.0219612
0.0224369
0.0229349
0.0234451
0.0239535
0.0244406
0.024884
0.0252576
0.0255333
0.0256885
0.0256879
0.0255174
0.025121
0.0244795
0.0235283
0.0222649
0.0208066
0.0191858
0.0175002
0.0159072
0.0141548
0.0138254
0.0132939
0.0165767
0.0165985
0.0166219
0.0166472
0.016675
0.0167048
0.0167379
0.0167737
0.0168135
0.0168565
0.0169044
0.0169562
0.0170137
0.0170757
0.0171443
0.0172181
0.0172995
0.0173869
0.0174829
0.017586
0.017699
0.0178206
0.0179533
0.0180963
0.0182511
0.0184178
0.0185977
0.0187915
0.0190008
0.0192272
0.019472
0.0197368
0.0200233
0.0203362
0.0206786
0.0210524
0.0214579
0.0218941
0.0223577
0.0228423
0.0233382
0.0238316
0.0243038
0.0247333
0.0250953
0.0253642
0.0255212
0.0255374
0.0254055
0.025076
0.0245333
0.0237002
0.022555
0.0211749
0.019578
0.0178617
0.0162096
0.0144808
0.0141463
0.0139235
0.0166569
0.0166782
0.0167016
0.0167268
0.0167547
0.0167845
0.0168173
0.0168525
0.0168913
0.0169328
0.0169787
0.0170281
0.0170826
0.0171414
0.0172063
0.0172763
0.0173535
0.0174367
0.0175283
0.0176271
0.0177356
0.0178528
0.0179812
0.01812
0.0182707
0.0184332
0.0186089
0.0187984
0.019003
0.0192244
0.0194642
0.0197233
0.0200046
0.0203112
0.0206474
0.0210148
0.0214142
0.0218444
0.022302
0.0227806
0.0232708
0.0237595
0.0242288
0.0246579
0.025023
0.0253011
0.0254775
0.0255317
0.0254673
0.0252494
0.0248746
0.0242674
0.0233928
0.0222879
0.0209306
0.0193858
0.017803
0.016057
0.0155966
0.0153276
0.0167503
0.0167683
0.0167889
0.0168118
0.0168379
0.0168662
0.016898
0.0169321
0.0169701
0.0170106
0.0170554
0.0171032
0.017156
0.0172125
0.0172749
0.0173417
0.0174155
0.0174947
0.0175821
0.0176761
0.0177797
0.0178917
0.0180147
0.018148
0.0182932
0.0184502
0.0186205
0.0188042
0.0190028
0.0192178
0.0194503
0.0197016
0.0199734
0.0202703
0.0205957
0.0209523
0.0213402
0.0217577
0.0222004
0.0226614
0.0231311
0.0235959
0.0240371
0.0244325
0.0247571
0.0249873
0.0251094
0.025109
0.0250002
0.0247657
0.0244246
0.0239158
0.0232113
0.0223211
0.0212013
0.019874
0.0184436
0.0167588
0.0162519
0.0158205
0.0168667
0.0168818
0.0168992
0.0169188
0.0169415
0.0169666
0.0169952
0.0170265
0.0170616
0.0170995
0.0171416
0.0171868
0.0172368
0.0172903
0.0173493
0.0174124
0.0174822
0.017557
0.0176397
0.0177288
0.017827
0.0179334
0.0180504
0.0181774
0.0183161
0.0184667
0.0186304
0.0188075
0.0189995
0.0192073
0.0194321
0.0196743
0.0199365
0.0202224
0.0205371
0.0208831
0.0212603
0.0216661
0.0220951
0.0225397
0.02299
0.0234316
0.0238441
0.024202
0.0244762
0.0246383
0.0246709
0.0245592
0.0243219
0.0239562
0.0235035
0.0229289
0.0222278
0.0214133
0.0204386
0.0193104
0.0180949
0.0166259
0.0162389
0.0159662
0.0170068
0.0170208
0.0170358
0.0170523
0.0170712
0.017092
0.0171159
0.0171422
0.0171722
0.017205
0.017242
0.0172821
0.0173271
0.0173755
0.0174295
0.0174875
0.0175521
0.0176215
0.0176987
0.0177819
0.0178742
0.0179743
0.0180849
0.0182052
0.0183372
0.0184811
0.0186382
0.0188091
0.0189951
0.0191975
0.0194168
0.0196538
0.0199105
0.0201923
0.0205045
0.0208508
0.0212311
0.0216421
0.0220781
0.022532
0.0229942
0.02345
0.0238777
0.0242484
0.0245279
0.024681
0.0246822
0.02451
0.0241802
0.0236954
0.0231143
0.0224237
0.0216513
0.0208234
0.0199178
0.0189397
0.0179331
0.0167207
0.0164818
0.0165135
0.017157
0.0171722
0.0171873
0.0172025
0.0172191
0.0172363
0.0172557
0.0172766
0.0173006
0.0173268
0.017357
0.0173899
0.0174276
0.0174687
0.0175153
0.0175661
0.0176234
0.0176857
0.0177558
0.0178321
0.0179176
0.0180109
0.0181148
0.0182285
0.018354
0.0184917
0.0186431
0.0188088
0.0189908
0.0191903
0.0194081
0.0196448
0.0199035
0.0201897
0.0205107
0.0208709
0.0212709
0.021708
0.0221773
0.0226734
0.0231889
0.0237105
0.0242165
0.0246766
0.0250523
0.0253016
0.0253885
0.0252807
0.0249824
0.0244917
0.0238706
0.0231198
0.0222899
0.0214265
0.0205309
0.0196216
0.0187177
0.0176347
0.017389
0.017508
0.0172989
0.0173157
0.0173313
0.0173459
0.0173607
0.0173751
0.0173907
0.0174068
0.0174252
0.0174451
0.0174683
0.0174938
0.0175238
0.017557
0.0175958
0.0176385
0.017688
0.0177426
0.0178051
0.0178741
0.0179524
0.0180389
0.0181363
0.0182438
0.0183635
0.0184958
0.0186424
0.0188043
0.0189835
0.0191819
0.0194003
0.0196401
0.0199045
0.0202003
0.0205356
0.0209163
0.0213439
0.0218169
0.0223322
0.0228873
0.0234783
0.0240949
0.0247174
0.0253164
0.0258517
0.0262764
0.0265453
0.0266137
0.0264703
0.0260998
0.0255573
0.024841
0.0240141
0.0231274
0.0222058
0.0212748
0.0203314
0.0191773
0.0187095
0.0185769
0.0174113
0.0174291
0.0174453
0.01746
0.0174741
0.017487
0.0175002
0.0175131
0.0175274
0.0175424
0.01756
0.0175794
0.0176027
0.0176288
0.0176601
0.0176953
0.0177372
0.0177842
0.0178393
0.0179011
0.0179727
0.0180528
0.0181443
0.0182463
0.0183611
0.0184889
0.0186315
0.0187899
0.0189664
0.0191631
0.0193816
0.0196232
0.0198921
0.0201951
0.0205415
0.0209377
0.0213865
0.0218876
0.0224406
0.0230463
0.0237051
0.0244112
0.0251487
0.0258911
0.0265997
0.0272257
0.0277177
0.0280198
0.0281043
0.0279387
0.0275612
0.0269587
0.0261908
0.0253059
0.0243373
0.0233182
0.0222205
0.0208393
0.019997
0.0193856
0.0174796
0.0174963
0.0175116
0.0175253
0.0175383
0.0175501
0.0175619
0.017573
0.017585
0.0175972
0.0176115
0.017627
0.017646
0.0176673
0.0176935
0.0177233
0.0177595
0.0178006
0.0178499
0.0179059
0.0179719
0.0180467
0.0181332
0.0182307
0.0183413
0.0184651
0.0186037
0.018758
0.0189303
0.019123
0.0193379
0.0195767
0.0198434
0.0201455
0.0204918
0.0208894
0.0213414
0.0218492
0.0224143
0.023041
0.0237341
0.0244925
0.0253052
0.0261505
0.0269938
0.027788
0.0284793
0.0290049
0.0293234
0.0293852
0.0292102
0.0287649
0.0280991
0.0272441
0.0262373
0.025111
0.0238201
0.0221573
0.0209063
0.019772
0.0174868
0.0175013
0.0175153
0.0175282
0.0175411
0.0175529
0.0175648
0.0175761
0.0175881
0.0176
0.0176137
0.0176282
0.0176456
0.0176649
0.0176885
0.0177153
0.0177481
0.0177855
0.0178308
0.0178828
0.0179446
0.0180153
0.0180978
0.0181915
0.0182984
0.0184182
0.0185522
0.018701
0.0188667
0.0190516
0.0192577
0.0194866
0.0197426
0.020032
0.0203637
0.0207443
0.0211768
0.0216637
0.0222081
0.0228175
0.0235005
0.0242607
0.0250922
0.0259795
0.0268935
0.027792
0.0286227
0.0293202
0.0298339
0.0301007
0.0301218
0.0298444
0.0293007
0.0285038
0.0274846
0.0262765
0.0248199
0.0229165
0.0213209
0.0197545
0.0174445
0.017455
0.0174658
0.0174764
0.0174876
0.0174985
0.0175102
0.0175218
0.0175346
0.0175475
0.0175623
0.0175777
0.017596
0.0176158
0.0176397
0.0176661
0.0176982
0.0177343
0.0177778
0.0178275
0.0178867
0.0179544
0.0180338
0.0181241
0.0182273
0.0183428
0.0184712
0.0186127
0.0187689
0.018942
0.0191339
0.0193463
0.0195822
0.019848
0.020151
0.0204972
0.0208892
0.0213295
0.0218227
0.0223783
0.0230081
0.0237195
0.0245118
0.0253753
0.0262883
0.0272151
0.0281083
0.0289047
0.0295494
0.0299709
0.0301571
0.030036
0.0296248
0.0289129
0.0279247
0.0266907
0.0251442
0.023097
0.0212751
0.0194288
0.0173512
0.0173583
0.0173664
0.0173749
0.0173848
0.017395
0.0174067
0.0174188
0.0174326
0.017447
0.0174635
0.0174809
0.0175012
0.017523
0.0175485
0.0175763
0.0176092
0.0176458
0.0176891
0.017738
0.0177957
0.0178614
0.0179381
0.0180252
0.0181245
0.018235
0.0183568
0.0184891
0.0186335
0.0187913
0.0189647
0.0191545
0.0193638
0.0195969
0.0198607
0.0201597
0.0204956
0.0208709
0.0212908
0.0217661
0.0223111
0.0229362
0.0236451
0.0244341
0.0252884
0.0261802
0.0270693
0.0278974
0.0286102
0.0291331
0.0294438
0.0294577
0.0291768
0.0285707
0.0276546
0.0264584
0.0249079
0.0228281
0.0209043
0.0189296
0.0172197
0.0172235
0.0172286
0.0172349
0.0172428
0.0172519
0.017263
0.0172752
0.0172897
0.0173053
0.0173236
0.0173431
0.0173658
0.01739
0.017418
0.0174481
0.017483
0.017521
0.0175652
0.0176142
0.0176713
0.0177355
0.0178099
0.0178937
0.0179887
0.0180935
0.0182075
0.0183294
0.0184599
0.0186002
0.0187519
0.0189158
0.0190937
0.0192894
0.019508
0.0197528
0.0200245
0.0203252
0.0206601
0.0210407
0.0214827
0.0219989
0.0225966
0.0232769
0.024032
0.0248421
0.0256749
0.0264801
0.027207
0.0277821
0.0281796
0.0283044
0.0281498
0.0276657
0.02686
0.0257589
0.0242837
0.0222662
0.0203449
0.0183621
0.0170426
0.017045
0.0170494
0.0170552
0.0170634
0.0170728
0.0170847
0.017098
0.0171139
0.0171312
0.0171513
0.0171731
0.0171981
0.0172248
0.0172552
0.0172877
0.0173246
0.0173643
0.0174095
0.0174589
0.0175156
0.0175783
0.0176502
0.0177305
0.0178206
0.017919
0.0180244
0.0181347
0.0182503
0.0183718
0.0185007
0.0186369
0.0187822
0.0189386
0.0191104
0.0192995
0.0195056
0.0197303
0.0199785
0.020262
0.0205973
0.0209988
0.0214762
0.0220351
0.0226734
0.0233789
0.0241276
0.0248773
0.0255837
0.0261773
0.0266311
0.0268463
0.0268079
0.026452
0.0257787
0.0248125
0.0234661
0.0215763
0.0197275
0.0178138
0.0168506
0.0168519
0.0168549
0.0168597
0.0168668
0.0168757
0.0168873
0.0169008
0.0169172
0.0169355
0.0169568
0.0169801
0.0170069
0.0170355
0.0170677
0.017102
0.0171405
0.0171814
0.0172274
0.0172768
0.0173326
0.0173934
0.0174623
0.0175383
0.0176229
0.0177142
0.0178102
0.0179085
0.0180086
0.0181112
0.0182171
0.0183262
0.0184391
0.0185578
0.0186846
0.0188209
0.0189654
0.0191189
0.019286
0.0194784
0.0197128
0.0200045
0.020365
0.0208032
0.0213219
0.0219154
0.0225675
0.0232448
0.0239096
0.0244987
0.0249877
0.0252758
0.0253454
0.0251193
0.0245915
0.023782
0.0225952
0.0208662
0.0191292
0.017324
0.0166418
0.0166434
0.0166468
0.0166517
0.016659
0.0166679
0.0166794
0.0166928
0.0167092
0.0167276
0.0167492
0.0167729
0.0168002
0.0168296
0.0168626
0.0168976
0.0169367
0.0169779
0.0170236
0.0170723
0.0171265
0.0171848
0.01725
0.0173211
0.0173994
0.0174831
0.0175693
0.0176552
0.0177401
0.0178241
0.0179081
0.0179914
0.0180746
0.018158
0.0182442
0.0183331
0.0184229
0.0185138
0.0186102
0.0187233
0.0188698
0.0190655
0.019323
0.0196536
0.0200638
0.0205535
0.0211133
0.0217176
0.0223356
0.0229111
0.0234228
0.0237715
0.0239371
0.0238333
0.0234488
0.0228001
0.0217793
0.0202186
0.0186055
0.0169193
0.0164314
0.0164338
0.0164372
0.0164421
0.0164489
0.0164574
0.0164682
0.0164809
0.0164965
0.0165141
0.0165351
0.0165582
0.0165849
0.0166138
0.0166463
0.0166808
0.0167193
0.0167596
0.0168041
0.0168509
0.0169026
0.0169574
0.0170181
0.0170835
0.0171549
0.0172304
0.0173065
0.01738
0.01745
0.0175165
0.01758
0.0176397
0.0176956
0.0177483
0.0177987
0.017847
0.0178904
0.017929
0.0179666
0.0180141
0.0180878
0.0182036
0.0183749
0.0186144
0.0189316
0.0193307
0.019808
0.020345
0.0209172
0.0214755
0.0220032
0.0224027
0.0226559
0.0226664
0.0224186
0.0219235
0.0210618
0.019659
0.0181669
0.0165924
0.0162012
0.0162059
0.0162118
0.0162188
0.0162276
0.0162374
0.0162494
0.0162627
0.0162785
0.016296
0.0163163
0.0163387
0.0163644
0.016392
0.0164231
0.0164561
0.0164928
0.0165312
0.0165733
0.0166173
0.0166655
0.0167159
0.0167714
0.0168304
0.0168942
0.0169608
0.0170265
0.0170877
0.0171436
0.0171935
0.0172383
0.0172766
0.0173088
0.0173342
0.0173544
0.0173685
0.0173737
0.0173699
0.0173607
0.0173564
0.0173733
0.0174268
0.0175308
0.0176989
0.0179428
0.01827
0.0186812
0.0191639
0.0196992
0.0202443
0.0207861
0.021231
0.0215602
0.0216718
0.0215458
0.0211888
0.020468
0.0192034
0.0178191
0.0163394
0.0159798
0.0159862
0.0159933
0.0160012
0.0160106
0.0160209
0.016033
0.0160464
0.0160619
0.0160788
0.0160983
0.0161195
0.0161437
0.0161695
0.0161986
0.0162291
0.016263
0.0162982
0.0163368
0.0163768
0.0164204
0.0164654
0.0165146
0.0165664
0.0166219
0.016679
0.016734
0.0167833
0.0168254
0.0168601
0.0168874
0.0169068
0.0169175
0.0169198
0.016914
0.0168999
0.0168742
0.0168367
0.0167908
0.0167466
0.0167198
0.0167257
0.0167781
0.0168915
0.0170786
0.0173499
0.0177093
0.0181495
0.0186559
0.0191915
0.0197473
0.0202325
0.0206317
0.0208345
0.0208173
0.0205812
0.0199817
0.0188324
0.0175417
0.0161375
0.0157552
0.0157643
0.0157737
0.0157836
0.0157945
0.0158059
0.0158186
0.015832
0.0158471
0.0158633
0.0158816
0.0159011
0.0159233
0.0159469
0.0159732
0.0160007
0.0160312
0.0160626
0.0160968
0.0161321
0.0161702
0.0162092
0.0162514
0.0162953
0.0163418
0.0163891
0.0164332
0.0164706
0.0164996
0.0165196
0.0165312
0.0165328
0.016525
0.0165064
0.0164787
0.0164408
0.0163897
0.0163253
0.016251
0.0161765
0.0161174
0.0160885
0.0161036
0.0161775
0.016324
0.0165552
0.0168782
0.0172893
0.0177777
0.018311
0.0188827
0.0194064
0.0198668
0.0201481
0.0202237
0.0200905
0.0195915
0.018536
0.0173238
0.0159764
0.0155383
0.0155497
0.0155606
0.0155718
0.0155834
0.0155952
0.0156078
0.0156209
0.0156354
0.0156504
0.0156673
0.015685
0.015705
0.0157258
0.0157491
0.015773
0.0157996
0.0158266
0.015856
0.0158857
0.0159178
0.01595
0.0159848
0.0160202
0.0160574
0.0160944
0.0161276
0.0161531
0.0161693
0.0161755
0.0161718
0.0161575
0.0161319
0.0160952
0.0160478
0.0159894
0.0159169
0.0158305
0.0157333
0.015635
0.0155509
0.0154956
0.0154826
0.0155271
0.0156434
0.0158453
0.0161417
0.0165326
0.0170098
0.017545
0.018134
0.0186937
0.0192124
0.0195654
0.0197233
0.0196783
0.0192633
0.018284
0.0171399
0.0158338
0.0153042
0.0153189
0.0153333
0.0153476
0.0153623
0.0153765
0.0153912
0.0154056
0.0154208
0.0154358
0.015452
0.0154685
0.0154866
0.015505
0.0155253
0.0155458
0.0155683
0.0155907
0.015615
0.0156391
0.0156649
0.0156901
0.015717
0.0157438
0.0157714
0.0157979
0.0158199
0.0158336
0.0158371
0.0158296
0.0158115
0.0157814
0.0157399
0.0156855
0.0156202
0.0155431
0.0154515
0.0153459
0.0152295
0.015112
0.0150082
0.0149327
0.014899
0.0149222
0.0150174
0.0151992
0.015479
0.0158585
0.0163325
0.0168752
0.017484
0.0180802
0.0186512
0.019067
0.019296
0.0193265
0.0189816
0.0180652
0.0169805
0.0157034
0.0150808
0.0150976
0.0151138
0.0151298
0.0151457
0.0151612
0.0151769
0.0151921
0.0152077
0.0152228
0.0152386
0.0152541
0.0152707
0.015287
0.0153045
0.0153215
0.01534
0.0153577
0.0153766
0.0153947
0.0154138
0.0154315
0.0154503
0.015468
0.0154857
0.0155015
0.0155122
0.015514
0.0155047
0.0154838
0.0154511
0.0154059
0.015348
0.0152772
0.0151943
0.0150993
0.0149897
0.0148662
0.0147321
0.0145968
0.0144755
0.0143822
0.0143307
0.0143359
0.0144137
0.0145799
0.0148468
0.0152194
0.0156932
0.0162465
0.0168751
0.0175072
0.0181308
0.0186069
0.0189014
0.0189995
0.0187162
0.0178542
0.0168254
0.0155686
0.0148551
0.0148748
0.0148936
0.0149118
0.0149297
0.0149469
0.0149637
0.0149797
0.0149956
0.0150107
0.015026
0.0150405
0.0150556
0.0150698
0.0150847
0.0150985
0.0151131
0.0151263
0.01514
0.0151522
0.0151646
0.0151749
0.0151855
0.0151942
0.0152018
0.0152068
0.015206
0.0151956
0.0151736
0.0151388
0.0150918
0.0150309
0.0149572
0.014869
0.0147686
0.0146556
0.0145279
0.0143865
0.0142349
0.0140826
0.0139445
0.013835
0.0137674
0.0137573
0.013821
0.0139751
0.0142337
0.0146034
0.0150819
0.0156488
0.0162999
0.0169692
0.017642
0.0181732
0.0185273
0.0186869
0.018459
0.0176464
0.0166707
0.0154281
0.014638
0.0146597
0.01468
0.0146996
0.0147185
0.0147364
0.0147537
0.0147699
0.0147859
0.0148006
0.0148153
0.0148288
0.0148424
0.0148547
0.0148671
0.0148778
0.0148887
0.0148974
0.0149061
0.0149124
0.0149182
0.0149211
0.0149235
0.014923
0.0149206
0.0149147
0.0149022
0.0148795
0.0148443
0.0147957
0.0147335
0.0146571
0.0145661
0.0144608
0.0143419
0.0142102
0.0140636
0.0139034
0.0137332
0.0135625
0.0134062
0.0132789
0.013194
0.0131674
0.0132161
0.0133578
0.0136078
0.0139753
0.0144585
0.0150406
0.0157137
0.0164214
0.0171449
0.0177316
0.0181443
0.0183631
0.0181887
0.0174243
0.0165029
0.0152706
0.0144042
0.0144291
0.0144528
0.0144756
0.0144977
0.0145183
0.014538
0.0145561
0.0145733
0.0145888
0.0146036
0.0146168
0.0146294
0.0146402
0.0146504
0.0146584
0.0146659
0.0146706
0.0146744
0.0146753
0.0146747
0.0146704
0.0146647
0.0146551
0.0146427
0.0146258
0.0146015
0.0145662
0.0145176
0.0144545
0.0143771
0.0142838
0.0141759
0.0140514
0.0139135
0.0137617
0.0135948
0.0134143
0.013224
0.0130332
0.0128574
0.0127108
0.0126075
0.0125636
0.0125971
0.0127266
0.0129692
0.0133354
0.0138258
0.0144243
0.0151224
0.0158702
0.0166422
0.0172818
0.0177509
0.0180274
0.0179055
0.0171895
0.0163227
0.0150983
0.0141837
0.0142104
0.0142355
0.0142598
0.0142832
0.0143052
0.0143263
0.0143456
0.0143639
0.0143801
0.0143953
0.0144083
0.0144203
0.0144298
0.0144383
0.0144437
0.0144479
0.0144485
0.0144475
0.0144426
0.0144356
0.014424
0.01441
0.0143913
0.0143687
0.0143406
0.0143043
0.0142562
0.0141938
0.0141158
0.0140221
0.0139119
0.0137849
0.0136416
0.0134827
0.0133096
0.0131207
0.012918
0.012705
0.0124915
0.0122928
0.0121237
0.0119984
0.0119339
0.0119489
0.0120634
0.0122958
0.0126594
0.0131554
0.0137713
0.0144939
0.0152828
0.0161058
0.0168004
0.0173276
0.017663
0.0175954
0.0169304
0.0161218
0.014904
0.0139648
0.0139938
0.0140213
0.0140476
0.0140729
0.0140965
0.0141187
0.014139
0.0141579
0.0141745
0.0141897
0.0142024
0.0142137
0.0142219
0.0142286
0.0142316
0.0142327
0.0142295
0.0142239
0.0142137
0.0142003
0.0141815
0.0141594
0.0141316
0.0140988
0.0140595
0.0140109
0.0139496
0.0138731
0.0137796
0.0136693
0.0135407
0.013395
0.0132301
0.0130496
0.0128535
0.0126408
0.0124136
0.0121758
0.011937
0.011713
0.0115188
0.0113692
0.0112818
0.0112767
0.0113746
0.0115964
0.0119567
0.0124594
0.013093
0.013843
0.0146745
0.0155469
0.0162952
0.0168803
0.0172755
0.0172637
0.0166523
0.0159031
0.0146911
0.0137582
0.013789
0.0138176
0.013845
0.0138709
0.0138951
0.0139178
0.0139383
0.0139574
0.0139738
0.0139888
0.0140008
0.0140112
0.014018
0.0140229
0.0140235
0.0140216
0.0140146
0.0140045
0.0139889
0.0139693
0.0139433
0.0139131
0.0138761
0.0138331
0.0137825
0.0137215
0.0136469
0.0135556
0.0134463
0.0133184
0.0131712
0.0130044
0.0128184
0.0126142
0.0123937
0.0121552
0.0119013
0.0116357
0.0113683
0.0111153
0.0108921
0.010714
0.0105996
0.0105701
0.0106479
0.0108554
0.0112101
0.0117171
0.0123694
0.013146
0.0140218
0.014945
0.0157496
0.0163953
0.016853
0.0169004
0.0163469
0.0156611
0.0144546
0.0135374
0.013571
0.0136028
0.0136332
0.0136623
0.0136891
0.0137141
0.0137365
0.0137569
0.0137743
0.0137895
0.0138014
0.013811
0.0138168
0.0138199
0.0138183
0.0138135
0.013803
0.0137886
0.0137679
0.0137423
0.0137094
0.0136712
0.0136251
0.0135719
0.0135099
0.0134363
0.0133479
0.0132417
0.0131157
0.01297
0.0128028
0.0126155
0.0124056
0.0121773
0.0119305
0.0116643
0.0113812
0.0110855
0.0107871
0.0105024
0.0102476
0.0100384
0.00989456
0.00983847
0.00989412
0.0100861
0.010434
0.0109458
0.0116162
0.0124223
0.0133431
0.0143159
0.0151759
0.0158828
0.0164046
0.0165133
0.0160208
0.0153996
0.0141985
0.0133345
0.0133695
0.0134025
0.0134341
0.0134642
0.0134923
0.0135184
0.0135419
0.0135632
0.0135812
0.0135968
0.0136086
0.0136178
0.0136224
0.013624
0.01362
0.0136122
0.0135979
0.013579
0.0135529
0.0135211
0.0134808
0.0134345
0.0133791
0.0133156
0.0132419
0.0131555
0.0130531
0.0129313
0.0127885
0.012624
0.0124368
0.0122266
0.0119937
0.011739
0.0114644
0.0111684
0.010854
0.0105253
0.0101926
0.00987278
0.0095824
0.00933813
0.00916059
0.00907384
0.00910348
0.00927631
0.00961459
0.0101288
0.0108176
0.011653
0.0126194
0.0136427
0.0145607
0.0153315
0.0159202
0.0160941
0.0156674
0.015115
0.0139194
0.013138
0.0131754
0.0132104
0.0132438
0.0132754
0.0133047
0.0133316
0.0133556
0.013377
0.013395
0.0134101
0.0134213
0.0134294
0.0134327
0.0134324
0.0134261
0.0134153
0.0133974
0.0133741
0.0133427
0.0133048
0.0132574
0.0132028
0.0131381
0.013064
0.0129785
0.012879
0.0127622
0.0126248
0.0124644
0.012281
0.0120724
0.0118401
0.011581
0.0112995
0.0109954
0.0106678
0.01032
0.00995634
0.00958724
0.00923
0.0089018
0.00862005
0.00840659
0.00828704
0.00828879
0.00844101
0.00876842
0.00928477
0.00999117
0.0108575
0.0118696
0.0129425
0.0139175
0.0147528
0.01541
0.0156514
0.0152932
0.0148105
0.0136209
0.0129615
0.0129996
0.0130346
0.013068
0.0130991
0.013128
0.0131543
0.0131778
0.0131987
0.0132159
0.0132305
0.0132406
0.0132477
0.0132493
0.0132472
0.0132382
0.0132246
0.0132027
0.013175
0.0131381
0.0130939
0.013039
0.0129762
0.0129019
0.012817
0.0127196
0.0126067
0.0124753
0.0123215
0.0121434
0.01194
0.0117101
0.0114529
0.0111689
0.0108584
0.0105236
0.0101629
0.00977979
0.00937874
0.00897044
0.00857261
0.0082031
0.00788017
0.00762693
0.00747075
0.00744092
0.00756904
0.00788269
0.00839869
0.0091222
0.010019
0.0110765
0.0121996
0.0132339
0.0141361
0.0148643
0.0151769
0.0148923
0.0144834
0.0133007
0.012747
0.0127891
0.0128294
0.0128682
0.0129051
0.012939
0.01297
0.0129969
0.0130204
0.0130393
0.0130546
0.0130647
0.0130709
0.0130712
0.013067
0.0130557
0.0130388
0.0130133
0.012981
0.0129387
0.012888
0.0128258
0.0127543
0.0126701
0.0125743
0.0124645
0.0123379
0.0121913
0.012021
0.0118242
0.0116006
0.0113477
0.0110671
0.0107549
0.0104156
0.0100488
0.00965366
0.00923381
0.00879387
0.00834468
0.00790447
0.00749173
0.00712562
0.00683065
0.00663593
0.00657281
0.00667537
0.0069739
0.0074888
0.008228
0.00915567
0.0102581
0.0114307
0.0125235
0.0134929
0.0142933
0.014679
0.0144707
0.0141367
0.0129619
0.0126468
0.0126871
0.0127227
0.0127559
0.0127862
0.0128139
0.0128388
0.0128605
0.0128791
0.0128938
0.0129052
0.0129116
0.0129143
0.0129108
0.0129027
0.0128869
0.0128652
0.0128341
0.0127959
0.0127468
0.0126886
0.0126178
0.0125369
0.0124423
0.0123349
0.0122123
0.0120715
0.0119094
0.0117217
0.0115061
0.0112614
0.010986
0.010679
0.0103406
0.00997055
0.00957103
0.00914028
0.00868219
0.00820142
0.00770894
0.00722352
0.00676441
0.00635177
0.00601152
0.00577472
0.00567482
0.00574852
0.00602899
0.00654007
0.00729372
0.00825103
0.00939739
0.0106203
0.0117734
0.0128118
0.013687
0.0141498
0.014023
0.0137681
0.0126029
0.0124155
0.0124629
0.0125075
0.0125498
0.0125894
0.0126252
0.0126574
0.0126848
0.0127082
0.0127261
0.0127397
0.0127471
0.0127497
0.0127454
0.0127354
0.012717
0.0126917
0.0126563
0.0126125
0.0125572
0.0124916
0.0124124
0.012322
0.0122167
0.0120973
0.0119615
0.0118062
0.011628
0.0114229
0.0111876
0.0109218
0.0106225
0.0102912
0.00992313
0.00952296
0.00908979
0.00862256
0.00812522
0.00760243
0.00706532
0.0065332
0.00602609
0.00556519
0.00517794
0.00489734
0.00475908
0.00480245
0.00506339
0.00556942
0.00633557
0.0073218
0.00851132
0.0097837
0.0109964
0.012104
0.0130551
0.013597
0.0135544
0.0133801
0.0122265
0.0123045
0.0123514
0.0123932
0.0124317
0.0124665
0.0124978
0.0125253
0.0125487
0.0125682
0.0125827
0.012593
0.0125973
0.0125969
0.012589
0.0125753
0.0125524
0.0125224
0.0124813
0.0124313
0.0123689
0.0122954
0.0122073
0.0121071
0.0119908
0.0118593
0.0117102
0.0115401
0.0113458
0.0111228
0.0108681
0.0105805
0.010258
0.00989936
0.00950429
0.00907218
0.00860488
0.0081003
0.0075624
0.00699583
0.00641187
0.00583043
0.00527243
0.00476012
0.00432257
0.00399483
0.0038149
0.00382477
0.00406324
0.00456128
0.00533795
0.00635106
0.00758242
0.00890481
0.0101789
0.0113576
0.0123871
0.0130124
0.0130599
0.0129709
0.0118314
0.0120381
0.0120926
0.0121443
0.0121932
0.0122391
0.0122805
0.0123176
0.0123491
0.0123756
0.0123955
0.0124101
0.0124174
0.0124187
0.0124117
0.0123976
0.0123736
0.0123411
0.0122968
0.0122423
0.0121744
0.0120941
0.011998
0.0118885
0.0117616
0.0116183
0.011456
0.0112713
0.0110608
0.01082
0.0105455
0.0102364
0.00988955
0.00950613
0.00908071
0.00861758
0.00811549
0.00757271
0.00699335
0.00638196
0.00574996
0.00511789
0.00450755
0.00394231
0.00345286
0.00307639
0.00285325
0.00282817
0.0030426
0.00353114
0.00431598
0.00535467
0.0066267
0.00799845
0.00933314
0.0105832
0.0116928
0.0124036
0.0125442
0.0125423
0.01142
0.0119052
0.0119594
0.0120081
0.0120529
0.0120936
0.0121301
0.0121622
0.0121895
0.0122121
0.0122289
0.0122406
0.0122454
0.0122442
0.0122346
0.0122177
0.0121904
0.0121543
0.0121056
0.0120462
0.0119724
0.0118854
0.0117815
0.0116632
0.0115262
0.0113714
0.0111964
0.0109974
0.0107711
0.0105126
0.0102187
0.00988789
0.00951779
0.00910686
0.008654
0.00815814
0.00762069
0.00703884
0.00641668
0.00575872
0.00507655
0.00439138
0.00372593
0.00310477
0.00256028
0.00213187
0.00186238
0.00179927
0.00198681
0.00246285
0.00325338
0.00431508
0.00562631
0.00704802
0.0084451
0.0097687
0.0109613
0.0117627
0.0120029
0.0120932
0.0109913
0.0116221
0.0116827
0.0117391
0.0117917
0.0118402
0.0118839
0.0119227
0.0119558
0.0119837
0.012005
0.0120205
0.0120286
0.01203
0.0120226
0.012007
0.0119806
0.0119441
0.0118944
0.0118325
0.0117554
0.0116635
0.0115535
0.0114275
0.0112815
0.0111161
0.0109289
0.0107162
0.0104745
0.0101989
0.00988569
0.00953389
0.00913961
0.00870383
0.00821998
0.00769234
0.00711875
0.00649703
0.00583122
0.00512575
0.00439233
0.00365287
0.00293102
0.00225251
0.00165149
0.00116963
0.000852284
0.000749727
0.000908829
0.00137079
0.0021647
0.00324778
0.00459684
0.00606765
0.0075267
0.00892465
0.0102022
0.0110968
0.01144
0.011625
0.0105472
0.0113534
0.011418
0.0114787
0.011536
0.0115893
0.0116379
0.0116815
0.0117192
0.0117511
0.011776
0.0117943
0.0118046
0.0118076
0.0118009
0.0117855
0.0117584
0.0117208
0.011669
0.0116045
0.0115237
0.0114274
0.0113117
0.0111789
0.0110246
0.0108494
0.010651
0.0104253
0.010169
0.00987671
0.0095449
0.00917196
0.00875474
0.00829119
0.00777963
0.0072183
0.00660815
0.00594568
0.00523491
0.00448022
0.00369349
0.00289735
0.00211641
0.00137767
0.000717062
0.000178657
-0.000189554
-0.000334436
-0.000206438
0.000238601
0.00103325
0.00213494
0.00352048
0.00504111
0.00656399
0.00803884
0.00940499
0.0103986
0.0108517
0.011137
0.0100871
0.0110526
0.0111195
0.0111826
0.0112426
0.0112988
0.0113506
0.0113975
0.0114387
0.0114743
0.0115029
0.011525
0.0115389
0.0115453
0.0115418
0.0115291
0.0115044
0.0114683
0.0114174
0.0113526
0.0112706
0.0111716
0.011052
0.0109136
0.0107523
0.0105684
0.0103598
0.010122
0.00985173
0.00954361
0.0091935
0.00880026
0.00835924
0.00787104
0.00732816
0.00673435
0.006087
0.00538294
0.00462638
0.00382157
0.00298055
0.0021266
0.00128535
0.000484995
-0.000236637
-0.00083308
-0.00125361
-0.00144218
-0.00134669
-0.000919906
-0.00012648
0.000992585
0.00241317
0.00398279
0.00556943
0.00712246
0.0085796
0.00967512
0.0102419
0.0106306
0.00961266
0.0107358
0.0108053
0.0108707
0.0109329
0.0109914
0.0110458
0.0110955
0.01114
0.0111789
0.011211
0.0112364
0.0112536
0.011263
0.0112621
0.0112515
0.0112283
0.0111933
0.0111427
0.0110778
0.0109948
0.010894
0.0107712
0.0106286
0.0104614
0.01027
0.0100523
0.00980345
0.00952031
0.00919697
0.00882962
0.00841633
0.00795317
0.00743769
0.00686705
0.00623899
0.00555388
0.00480734
0.00400362
0.00314698
0.00224956
0.00133542
0.000431148
-0.000433696
-0.00121942
-0.00187689
-0.00235265
-0.00258753
-0.00252693
-0.00212082
-0.00133116
-0.000197234
0.00125776
0.00287725
0.00452966
0.00616364
0.00771603
0.00891967
0.00960745
0.0101053
0.00912372
0.010341
0.0104148
0.0104848
0.0105518
0.0106151
0.0106742
0.0107285
0.0107776
0.0108212
0.0108582
0.0108887
0.0109114
0.0109261
0.010931
0.0109258
0.0109081
0.0108777
0.0108314
0.0107694
0.0106886
0.0105884
0.010465
0.0103199
0.0101486
0.0099513
0.00972585
0.00946735
0.00917237
0.00883517
0.00845126
0.00801922
0.00753344
0.00699399
0.00639193
0.0057309
0.00500732
0.00421752
0.00336583
0.0024564
0.00150157
0.000526022
-0.000442534
-0.00137338
-0.0022246
-0.00294472
-0.00347704
-0.00375965
-0.00373489
-0.0033506
-0.0025656
-0.00141769
7.05456e-05
0.00173922
0.00345766
0.0051742
0.00682443
0.00813932
0.00895197
0.00956244
0.00862174
0.0099037
0.00998135
0.0100556
0.0101276
0.0101963
0.0102614
0.0103222
0.010378
0.0104283
0.0104721
0.0105091
0.0105381
0.010559
0.0105694
0.0105696
0.0105566
0.0105308
0.0104884
0.01043
0.0103519
0.0102537
0.0101309
0.00998525
0.00981158
0.00961008
0.00937861
0.00911191
0.00880664
0.00845663
0.00805764
0.00760737
0.0071008
0.00653465
0.00590513
0.00520923
0.00444681
0.00361284
0.00271172
0.00174766
0.000733117
-0.000306399
-0.00134218
-0.00234197
-0.00326195
-0.0040476
-0.00463943
-0.00497198
-0.00498527
-0.0046244
-0.00384656
-0.00268644
-0.0011647
0.000554293
0.00234084
0.00414285
0.00589543
0.00732805
0.00827278
0.00900197
0.00810688
0.00939525
0.00947593
0.00955395
0.00963044
0.00970428
0.00977504
0.00984202
0.0099046
0.00996228
0.010014
0.0100594
0.0100972
0.0101272
0.0101471
0.0101565
0.0101529
0.0101358
0.0101017
0.0100504
0.0099787
0.00988541
0.00976619
0.00962235
0.00944862
0.00924498
0.00900935
0.00873618
0.00842205
0.00806086
0.00764772
0.00718068
0.00665293
0.00606382
0.00540318
0.00467395
0.00387209
0.00299306
0.00204154
0.00102172
-5.38016e-05
-0.00115874