/*--------------------------------*- C++ -*----------------------------------*\
  =========                 |
  \\      /  F ield         | OpenFOAM: The Open Source CFD Toolbox
   \\    /   O peration     | Website:  https://openfoam.org
    \\  /    A nd           | Version:  6.0
     \\/     M anipulation  |
\*---------------------------------------------------------------------------*/
FoamFile
{
    version     2.0;
    format      ascii;
    class       surfaceScalarField;
    location    "16";
    object      phi;
}
// * * * * * * * * * * * * * * * * * * * * * * * * * * * * * * * * * * * * * //

dimensions      [0 3 -1 0 0 0 0];

internalField   nonuniform List<scalar> 
123526
(
-2.69233e-05
2.3325e-05
2.73154e-05
-2.64986e-05
2.52212e-05
-2.60389e-05
2.72717e-05
-2.55418e-05
2.94892e-05
-2.50039e-05
3.18872e-05
-2.44223e-05
3.44805e-05
-2.37931e-05
3.72851e-05
-2.31127e-05
4.03181e-05
-2.2376e-05
4.35973e-05
-2.15784e-05
4.71439e-05
-2.07161e-05
5.098e-05
-1.97832e-05
5.51288e-05
-1.87748e-05
5.96155e-05
-1.76814e-05
6.44654e-05
-1.64962e-05
6.97094e-05
-1.52139e-05
7.53838e-05
-1.3828e-05
8.15202e-05
-1.23219e-05
8.81493e-05
-1.06899e-05
9.53203e-05
-8.92437e-06
0.000103078
-7.00816e-06
0.000111458
-4.92792e-06
0.000120518
-2.67957e-06
0.000130318
-2.31741e-07
0.000140895
2.41656e-06
0.000152338
5.29004e-06
0.000164694
8.40667e-06
0.000178037
1.1782e-05
0.00019245
1.54454e-05
0.000207996
1.94102e-05
0.000224778
2.37106e-05
0.000242859
2.8364e-05
0.000262351
3.34034e-05
0.000283328
3.88566e-05
0.000305889
4.47523e-05
0.000330129
5.11343e-05
0.000356118
5.80258e-05
0.000383959
6.54675e-05
0.000413704
7.35007e-05
0.000445404
8.21576e-05
0.000479096
9.14778e-05
0.000514762
0.000101504
0.000552342
0.000112269
0.000591725
0.000123803
0.000632706
0.000136133
0.000674972
0.000149275
0.000718075
0.000163235
0.000761386
0.000178
0.000804052
0.00019354
0.000844937
0.000209798
0.000882553
0.000226682
0.000914984
0.000244054
0.000939793
0.000261715
0.000953923
0.000279396
0.000953568
0.000296742
0.00093401
0.000313289
0.00088948
0.000328479
0.000812825
0.000341629
0.000695926
0.000351547
0.000526008
0.000284964
0.000347114
-2.65785e-05
2.29389e-05
2.69623e-05
-2.61624e-05
2.48036e-05
-2.57119e-05
2.682e-05
-2.52247e-05
2.90006e-05
-2.46972e-05
3.13588e-05
-2.41268e-05
3.39089e-05
-2.35094e-05
3.66668e-05
-2.28416e-05
3.96494e-05
-2.21183e-05
4.28733e-05
-2.13352e-05
4.63601e-05
-2.04883e-05
5.01324e-05
-1.95721e-05
5.42122e-05
-1.85816e-05
5.86243e-05
-1.75076e-05
6.33911e-05
-1.63435e-05
6.85445e-05
-1.50842e-05
7.41242e-05
-1.37231e-05
8.01582e-05
-1.22442e-05
8.667e-05
-1.06418e-05
9.37168e-05
-8.90865e-06
0.000101344
-7.02751e-06
0.000109575
-4.98589e-06
0.000118476
-2.77918e-06
0.00012811
-3.77482e-07
0.000138493
2.22101e-06
0.000149738
5.03959e-06
0.000161874
8.09723e-06
0.000174978
1.14082e-05
0.000189138
1.50028e-05
0.0002044
1.88931e-05
0.000220886
2.31142e-05
0.000238638
2.76823e-05
0.000257782
3.263e-05
0.000278378
3.79853e-05
0.000300531
4.3776e-05
0.000324335
5.0046e-05
0.000349845
5.68184e-05
0.000377184
6.41337e-05
0.000406386
7.20324e-05
0.000437502
8.05461e-05
0.000470578
8.97132e-05
0.00050559
9.95749e-05
0.000542476
0.000110162
0.000581132
0.000121505
0.000621358
0.000133626
0.000662845
0.000146542
0.000705152
0.000160259
0.000747664
0.000174765
0.000789541
0.000190032
0.000829667
0.000206005
0.000866579
0.000222592
0.000898396
0.000239653
0.00092273
0.000256991
0.000936579
0.000274342
0.000936214
0.00029136
0.000916987
0.000307598
0.00087324
0.000322472
0.00079794
0.000335426
0.000682958
0.000343745
0.000517659
0.000285895
0.000342774
-2.62217e-05
2.25598e-05
2.65986e-05
-2.58133e-05
2.43937e-05
-2.53712e-05
2.63768e-05
-2.48933e-05
2.85213e-05
-2.4376e-05
3.08404e-05
-2.38166e-05
3.33483e-05
-2.32111e-05
3.60605e-05
-2.25564e-05
3.89936e-05
-2.1847e-05
4.21632e-05
-2.1079e-05
4.55914e-05
-2.02484e-05
4.9301e-05
-1.93496e-05
5.33129e-05
-1.83779e-05
5.76517e-05
-1.73241e-05
6.23369e-05
-1.61817e-05
6.74012e-05
-1.49458e-05
7.28879e-05
-1.36099e-05
7.88212e-05
-1.21582e-05
8.52178e-05
-1.05852e-05
9.21428e-05
-8.88376e-06
9.96423e-05
-7.03694e-06
0.000107728
-5.03256e-06
0.000116471
-2.86599e-06
0.000125943
-5.07998e-07
0.000136134
2.04344e-06
0.000147185
4.81115e-06
0.000159106
7.81408e-06
0.000171974
1.10661e-05
0.000185885
1.45974e-05
0.000200868
1.84196e-05
0.000217063
2.25676e-05
0.000234489
2.70571e-05
0.000253292
3.19207e-05
0.000273513
3.71854e-05
0.000295264
4.28789e-05
0.000318639
4.90441e-05
0.000343677
5.57036e-05
0.000370522
6.28971e-05
0.000399189
7.06642e-05
0.000429732
7.90354e-05
0.000462204
8.8048e-05
0.000496574
9.77419e-05
0.000532779
0.000108147
0.000570724
0.000119291
0.00061021
0.000131199
0.000650934
0.000143887
0.000692463
0.00015736
0.000734189
0.00017161
0.00077529
0.000186607
0.000814668
0.000202299
0.000850888
0.000218592
0.000882102
0.000235347
0.000905971
0.000252369
0.000919547
0.000269401
0.00091917
0.000286104
0.000900264
0.00030205
0.000857275
0.000316616
0.000783341
0.000329304
0.000670241
0.000338288
0.00050863
0.000284402
0.000339725
-2.58389e-05
2.21868e-05
2.62096e-05
-2.54374e-05
2.39906e-05
-2.50029e-05
2.59412e-05
-2.45334e-05
2.80505e-05
-2.40253e-05
3.03315e-05
-2.34763e-05
3.27981e-05
-2.28822e-05
3.54657e-05
-2.224e-05
3.83505e-05
-2.15443e-05
4.14669e-05
-2.07913e-05
4.48378e-05
-1.99768e-05
4.8486e-05
-1.90957e-05
5.24314e-05
-1.81428e-05
5.66983e-05
-1.71095e-05
6.13034e-05
-1.5989e-05
6.62802e-05
-1.47768e-05
7.16754e-05
-1.34662e-05
7.75099e-05
-1.20419e-05
8.37931e-05
-1.04982e-05
9.05982e-05
-8.82817e-06
9.79718e-05
-7.01515e-06
0.000105914
-5.04719e-06
0.000114502
-2.9196e-06
0.000123814
-6.03667e-07
0.000133818
1.90277e-06
0.000144678
4.6221e-06
0.000156386
7.57299e-06
0.000169022
1.0769e-05
0.000182688
1.42398e-05
0.000197396
1.79968e-05
0.000213305
2.20742e-05
0.000230411
2.64878e-05
0.000248878
3.12689e-05
0.000268729
3.64449e-05
0.000290085
4.20422e-05
0.000313039
4.8103e-05
0.000337614
5.46492e-05
0.000363973
6.17195e-05
0.000392116
6.93525e-05
0.000422096
7.7578e-05
0.000453975
8.64324e-05
0.000487716
9.59547e-05
0.000523252
0.000106174
0.000560499
0.00011712
0.00059926
0.000128814
0.000639234
0.000141276
0.000679995
0.00015451
0.000720948
0.000168508
0.000761284
0.000183242
0.000799926
0.000198657
0.000835466
0.000214658
0.000866091
0.000231109
0.000889508
0.000247818
0.000902819
0.000264534
0.000902433
0.000280926
0.000883846
0.000296583
0.000841592
0.000310867
0.00076902
0.000323249
0.000657817
0.000332395
0.000499424
0.00028195
0.000334767
-2.54591e-05
2.18198e-05
2.58235e-05
-2.50641e-05
2.35939e-05
-2.46366e-05
2.55124e-05
-2.41747e-05
2.75871e-05
-2.3675e-05
2.98307e-05
-2.31351e-05
3.22569e-05
-2.2551e-05
3.48807e-05
-2.19199e-05
3.77182e-05
-2.12364e-05
4.07827e-05
-2.04968e-05
4.40974e-05
-1.9697e-05
4.76854e-05
-1.88319e-05
5.15658e-05
-1.78965e-05
5.57622e-05
-1.68823e-05
6.02887e-05
-1.57827e-05
6.51798e-05
-1.4593e-05
7.04852e-05
-1.33067e-05
7.62226e-05
-1.19086e-05
8.23946e-05
-1.03934e-05
8.90819e-05
-8.75395e-06
9.63319e-05
-6.97397e-06
0.000104133
-5.04161e-06
0.000112569
-2.95226e-06
0.000121724
-6.77636e-07
0.000131543
1.78448e-06
0.000142215
4.45604e-06
0.000153714
7.35538e-06
0.000166122
1.04957e-05
0.000179547
1.39061e-05
0.000193985
1.75979e-05
0.000209613
2.16046e-05
0.000226404
2.59413e-05
0.00024454
3.06398e-05
0.00026403
3.57256e-05
0.000284997
4.12255e-05
0.000307537
4.71805e-05
0.000331657
5.36119e-05
0.000357539
6.05575e-05
0.000385168
6.80553e-05
0.000414596
7.61344e-05
0.000445893
8.48306e-05
0.000479017
9.41824e-05
0.000513898
0.000104219
0.00055046
0.000114969
0.000588508
0.000126456
0.000627745
0.000138696
0.000667752
0.000151698
0.000707946
0.00016545
0.000747531
0.000179925
0.000785451
0.000195065
0.000820325
0.000210778
0.000850377
0.000226927
0.000873354
0.000243325
0.000886412
0.000259728
0.000886018
0.000275813
0.00086774
0.000291181
0.000826205
0.000305205
0.000754966
0.000317277
0.000645719
0.00032624
0.000490422
0.000278724
0.000329422
-2.51004e-05
2.14592e-05
2.54586e-05
-2.47121e-05
2.32039e-05
-2.42914e-05
2.50907e-05
-2.3837e-05
2.71311e-05
-2.33449e-05
2.93378e-05
-2.28134e-05
3.17242e-05
-2.22383e-05
3.43049e-05
-2.1617e-05
3.70958e-05
-2.09441e-05
4.01093e-05
-2.02163e-05
4.33689e-05
-1.94293e-05
4.6898e-05
-1.85783e-05
5.07145e-05
-1.76584e-05
5.48419e-05
-1.66614e-05
5.92915e-05
-1.55805e-05
6.40984e-05
-1.44114e-05
6.93159e-05
-1.31475e-05
7.49581e-05
-1.17742e-05
8.1021e-05
-1.02858e-05
8.75927e-05
-8.67562e-06
9.47213e-05
-6.9274e-06
0.000102383
-5.02962e-06
0.000110671
-2.97757e-06
0.000119671
-7.43518e-07
0.000129308
1.67481e-06
0.000139795
4.29893e-06
0.000151089
7.14685e-06
0.000163273
1.02315e-05
0.000176461
1.35815e-05
0.000190634
1.72078e-05
0.000205986
2.11434e-05
0.000222468
2.54034e-05
0.000240279
3.00181e-05
0.000259413
3.50139e-05
0.000279999
4.0416e-05
0.000302132
4.62649e-05
0.000325806
5.25818e-05
0.000351221
5.94035e-05
0.000378345
6.67674e-05
0.00040723
7.4702e-05
0.000437956
8.32429e-05
0.000470474
9.24278e-05
0.00050471
0.000102286
0.000540598
0.000112845
0.000577944
0.00012413
0.000616456
0.000136156
0.00065572
0.000148929
0.000695166
0.000162441
0.000734013
0.000176659
0.000771225
0.000191529
0.000805448
0.000206956
0.00083494
0.000222807
0.000857489
0.0002389
0.000870299
0.000254998
0.000869897
0.000270785
0.000851925
0.00028587
0.00081109
0.00029965
0.000741145
0.000311441
0.000633881
0.00032025
0.000481548
0.000274577
0.000324306
-2.47556e-05
2.11051e-05
2.5107e-05
-2.43742e-05
2.28207e-05
-2.39608e-05
2.46761e-05
-2.35139e-05
2.66827e-05
-2.30299e-05
2.88528e-05
-2.25069e-05
3.11997e-05
-2.19407e-05
3.37379e-05
-2.1329e-05
3.6483e-05
-2.06664e-05
3.94461e-05
-1.99498e-05
4.26514e-05
-1.91749e-05
4.61225e-05
-1.83373e-05
4.98764e-05
-1.7432e-05
5.3936e-05
-1.64509e-05
5.831e-05
-1.53877e-05
6.30345e-05
-1.42379e-05
6.81657e-05
-1.29953e-05
7.37146e-05
-1.16452e-05
7.96705e-05
-1.01824e-05
8.61289e-05
-8.60009e-06
9.31385e-05
-6.88242e-06
0.000100665
-5.018e-06
0.000108806
-3.00222e-06
0.000117654
-8.07806e-07
0.000127113
1.56749e-06
0.000137419
4.1448e-06
0.000148511
6.94186e-06
0.000160475
9.97138e-06
0.000173431
1.32614e-05
0.000187343
1.68228e-05
0.000202423
2.0688e-05
0.000218602
2.48715e-05
0.000236095
2.9404e-05
0.000254879
3.43101e-05
0.000275091
3.96156e-05
0.000296825
4.53599e-05
0.00032006
5.15638e-05
0.000345015
5.82637e-05
0.000371643
6.54962e-05
0.000399995
7.32895e-05
0.000430161
8.16784e-05
0.000462083
9.07004e-05
0.000495686
0.000100384
0.000530912
0.000110757
0.00056757
0.000121843
0.000605368
0.000133658
0.000643905
0.000146207
0.000682617
0.00015948
0.00072074
0.000173445
0.00075726
0.000188046
0.000790848
0.000203192
0.000819794
0.000218751
0.000841928
0.000234547
0.000854498
0.000250349
0.000854088
0.00026585
0.000836412
0.000280661
0.000796265
0.000294208
0.000727576
0.000305757
0.000622313
0.000314442
0.000472835
0.000269902
0.00031909
-2.44032e-05
2.07583e-05
2.47476e-05
-2.40295e-05
2.24453e-05
-2.36241e-05
2.42699e-05
-2.3186e-05
2.62431e-05
-2.27109e-05
2.83771e-05
-2.21976e-05
3.06851e-05
-2.16415e-05
3.31813e-05
-2.10405e-05
3.5881e-05
-2.03893e-05
3.87945e-05
-1.96849e-05
4.19463e-05
-1.89229e-05
4.53603e-05
-1.80993e-05
4.90524e-05
-1.72089e-05
5.30454e-05
-1.62442e-05
5.73452e-05
-1.51987e-05
6.19886e-05
-1.40683e-05
6.70352e-05
-1.28466e-05
7.24924e-05
-1.15197e-05
7.83434e-05
-1.0082e-05
8.46906e-05
-8.52719e-06
9.15834e-05
-6.8395e-06
9.89763e-05
-5.00787e-06
0.000106974
-3.02767e-06
0.000115673
-8.72199e-07
0.000124957
1.46079e-06
0.000135085
3.99204e-06
0.000145979
6.73902e-06
0.000157727
9.71423e-06
0.000170455
1.29452e-05
0.000184111
1.64428e-05
0.000198925
2.02386e-05
0.000214806
2.43474e-05
0.000231986
2.87984e-05
0.000250427
3.36169e-05
0.000270271
3.88274e-05
0.000291612
4.4469e-05
0.000314417
5.05622e-05
0.00033892
5.71426e-05
0.000365061
6.42464e-05
0.000392889
7.19012e-05
0.000422504
8.01414e-05
0.00045384
8.90035e-05
0.000486821
9.85162e-05
0.000521396
0.000108706
0.000557376
0.000119596
0.000594474
0.000131201
0.000632295
0.000143527
0.000670287
0.000156561
0.0007077
0.000170274
0.000743541
0.000184609
0.000776506
0.000199477
0.000804917
0.000214751
0.000826641
0.000230258
0.000838973
0.000245775
0.000838551
0.000260999
0.000821163
0.000275547
0.000781687
0.000288871
0.000714214
0.000300211
0.000610926
0.000308733
0.000464249
0.000265012
0.000313533
-2.40316e-05
2.04189e-05
2.4368e-05
-2.36662e-05
2.2078e-05
-2.32699e-05
2.38723e-05
-2.28413e-05
2.58127e-05
-2.23766e-05
2.79113e-05
-2.18741e-05
3.01811e-05
-2.13295e-05
3.26359e-05
-2.07407e-05
3.5291e-05
-2.01023e-05
3.81555e-05
-1.94115e-05
4.12546e-05
-1.86641e-05
4.46123e-05
-1.78559e-05
4.82436e-05
-1.69819e-05
5.21708e-05
-1.60348e-05
5.63976e-05
-1.50081e-05
6.09613e-05
-1.3898e-05
6.59246e-05
-1.26981e-05
7.12918e-05
-1.13947e-05
7.70396e-05
-9.98252e-06
8.32776e-05
-8.45531e-06
9.00557e-05
-6.7976e-06
9.73178e-05
-4.99853e-06
0.000105174
-3.0536e-06
0.000113727
-9.36598e-07
0.00012284
1.35465e-06
0.000132793
3.84053e-06
0.000143493
6.53822e-06
0.000155028
9.46004e-06
0.000167532
1.26331e-05
0.000180937
1.60679e-05
0.00019549
1.97958e-05
0.000211078
2.38308e-05
0.00022795
2.82025e-05
0.000246054
3.29347e-05
0.000265536
3.80523e-05
0.000286493
4.35932e-05
0.000308874
4.95777e-05
0.000332934
5.6041e-05
0.000358596
6.30183e-05
0.00038591
7.05371e-05
0.000414984
7.86307e-05
0.000445745
8.73354e-05
0.000478115
9.66789e-05
0.000512052
0.000106687
0.000547367
0.000117382
0.000583778
0.000128779
0.000620898
0.000140882
0.000658184
0.000153679
0.000694904
0.00016714
0.000730081
0.000181212
0.000762437
0.000195805
0.000790325
0.000210799
0.000811648
0.000226026
0.000823745
0.000241266
0.000823308
0.000256223
0.000806198
0.000270518
0.000767385
0.000283626
0.000701093
0.000294781
0.000599761
0.000303111
0.000455905
0.000260347
0.000307769
-2.36443e-05
2.0087e-05
2.39739e-05
-2.3287e-05
2.1719e-05
-2.28995e-05
2.34839e-05
-2.24807e-05
2.53925e-05
-2.20265e-05
2.74565e-05
-2.15355e-05
2.96888e-05
-2.10033e-05
3.21031e-05
-2.04276e-05
3.47143e-05
-1.98033e-05
3.75308e-05
-1.91273e-05
4.05781e-05
-1.83956e-05
4.38803e-05
-1.7604e-05
4.74518e-05
-1.67477e-05
5.13143e-05
-1.58194e-05
5.54691e-05
-1.48127e-05
5.99544e-05
-1.37239e-05
6.48356e-05
-1.25467e-05
7.01142e-05
-1.12678e-05
7.57604e-05
-9.8818e-06
8.1891e-05
-8.38275e-06
8.85563e-05
-6.75534e-06
9.56897e-05
-4.98903e-06
0.000103408
-3.07933e-06
0.000111816
-1.00057e-06
0.000120761
1.24937e-06
0.000130542
3.69045e-06
0.000141051
6.33961e-06
0.000152378
9.20893e-06
0.000164662
1.2325e-05
0.00017782
1.56983e-05
0.000192116
1.93594e-05
0.000207416
2.33225e-05
0.000223987
2.76158e-05
0.000241759
3.22637e-05
0.000260887
3.72898e-05
0.000281465
4.27319e-05
0.000303431
4.86096e-05
0.000327055
5.49575e-05
0.000352246
6.18104e-05
0.000379056
6.9195e-05
0.000407597
7.71441e-05
0.000437794
8.5693e-05
0.000469563
9.48688e-05
0.000502873
0.000104697
0.000537536
0.000115198
0.000573273
0.000126388
0.000609704
0.000138269
0.000646299
0.00015083
0.000682337
0.000164042
0.000716863
0.000177852
0.00074862
0.000192177
0.000775993
0.000206897
0.000796917
0.00022185
0.000808777
0.000236821
0.000808319
0.000251521
0.000791476
0.000265571
0.000753309
0.000278468
0.000688161
0.000289456
0.00058873
0.000297611
0.000447691
0.000255819
0.000302055
-2.32582e-05
1.97614e-05
2.35812e-05
-2.29081e-05
2.13671e-05
-2.25287e-05
2.31035e-05
-2.21189e-05
2.49811e-05
-2.16747e-05
2.70115e-05
-2.11946e-05
2.92073e-05
-2.06741e-05
3.1582e-05
-2.01114e-05
3.41504e-05
-1.95009e-05
3.69198e-05
-1.88399e-05
3.99162e-05
-1.81241e-05
4.31641e-05
-1.73496e-05
4.66767e-05
-1.65113e-05
5.04756e-05
-1.56023e-05
5.45596e-05
-1.46161e-05
5.89676e-05
-1.35491e-05
6.37681e-05
-1.2395e-05
6.89595e-05
-1.11409e-05
7.45059e-05
-9.78133e-06
8.05307e-05
-8.31051e-06
8.7085e-05
-6.71343e-06
9.40918e-05
-4.97975e-06
0.000101673
-3.10507e-06
0.000109941
-1.0642e-06
0.000118719
1.1449e-06
0.000128332
3.54182e-06
0.000138654
6.14321e-06
0.000149776
8.96091e-06
0.000161844
1.20211e-05
0.000174759
1.53339e-05
0.000188803
1.89295e-05
0.00020382
2.28215e-05
0.000220094
2.70383e-05
0.000237542
3.1603e-05
0.00025632
3.65394e-05
0.000276527
4.18841e-05
0.000298085
4.76566e-05
0.000321281
5.38908e-05
0.000346011
6.06208e-05
0.000372324
6.78728e-05
0.000400344
7.56789e-05
0.000429986
8.40736e-05
0.000461168
9.30834e-05
0.000493862
0.000102733
0.000527886
0.000113042
0.000562963
0.000124026
0.00059872
0.000135687
0.000634638
0.000148015
0.00067001
0.000160981
0.000703898
0.000174535
0.00073507
0.000188596
0.000761935
0.00020305
0.000782466
0.000217737
0.000794091
0.000232448
0.000793608
0.000246899
0.000777024
0.000260711
0.000739494
0.0002734
0.000675466
0.000284229
0.0005779
0.000292257
0.000439661
0.000251526
0.000296558
-2.28909e-05
1.94411e-05
2.32094e-05
-2.25465e-05
2.10214e-05
-2.21738e-05
2.273e-05
-2.17714e-05
2.45775e-05
-2.13358e-05
2.65753e-05
-2.08652e-05
2.87356e-05
-2.03555e-05
3.10719e-05
-1.98044e-05
3.35985e-05
-1.92068e-05
3.63219e-05
-1.85597e-05
3.92686e-05
-1.78589e-05
4.24632e-05
-1.71006e-05
4.59181e-05
-1.62797e-05
4.96546e-05
-1.53893e-05
5.36691e-05
-1.4423e-05
5.80012e-05
-1.33774e-05
6.27224e-05
-1.22461e-05
6.78279e-05
-1.10164e-05
7.3276e-05
-9.68301e-06
7.91968e-05
-8.2402e-06
8.56419e-05
-6.67315e-06
9.25241e-05
-4.97176e-06
9.99717e-05
-3.13166e-06
0.0001081
-1.12818e-06
0.000116715
1.04073e-06
0.000126163
3.39423e-06
0.0001363
5.94869e-06
0.000147221
8.71571e-06
0.000159076
1.17209e-05
0.000171753
1.49743e-05
0.000185549
1.85055e-05
0.000200289
2.23279e-05
0.000216272
2.64689e-05
0.000233399
3.09521e-05
0.000251836
3.57999e-05
0.000271678
4.10487e-05
0.000292835
4.67174e-05
0.000315611
5.28394e-05
0.000339887
5.9448e-05
0.000365714
6.65689e-05
0.000393221
7.42336e-05
0.00042232
8.24758e-05
0.000452923
9.13213e-05
0.000485014
0.000100794
0.000518411
0.000110914
0.00055284
0.000121694
0.000587936
0.000133139
0.000623189
0.000145238
0.000657906
0.000157964
0.000691167
0.000171268
0.00072176
0.000185072
0.000748123
0.000199266
0.000768262
0.000213696
0.000779648
0.000228155
0.000779133
0.000242362
0.000762797
0.000255944
0.000725888
0.000268427
0.000662951
0.000279101
0.000567186
0.000287047
0.00043166
0.000247177
0.000291318
-2.25568e-05
1.91248e-05
2.28702e-05
-2.22172e-05
2.068e-05
-2.18499e-05
2.23616e-05
-2.14537e-05
2.41797e-05
-2.1025e-05
2.61456e-05
-2.05621e-05
2.82713e-05
-2.0061e-05
3.057e-05
-1.95197e-05
3.3056e-05
-1.89329e-05
3.57345e-05
-1.82979e-05
3.86327e-05
-1.76104e-05
4.17752e-05
-1.68667e-05
4.51737e-05
-1.60617e-05
4.88491e-05
-1.51885e-05
5.27954e-05
-1.42409e-05
5.7053e-05
-1.32153e-05
6.16963e-05
-1.21057e-05
6.67176e-05
-1.08993e-05
7.20691e-05
-9.59097e-06
7.78878e-05
-8.1751e-06
8.42256e-05
-6.63712e-06
9.09855e-05
-4.96707e-06
9.83013e-05
-3.16068e-06
0.000106293
-1.19368e-06
0.000114748
9.35921e-07
0.000124032
3.24693e-06
0.000133988
5.75542e-06
0.000144712
8.47272e-06
0.000156358
1.1424e-05
0.000168801
1.46191e-05
0.000182353
1.80869e-05
0.000196821
2.18406e-05
0.000212517
2.59076e-05
0.000229332
3.03099e-05
0.000247432
3.50705e-05
0.000266916
4.02247e-05
0.00028768
4.5791e-05
0.000310044
5.18022e-05
0.000333875
5.82909e-05
0.000359224
6.52823e-05
0.000386229
7.28073e-05
0.000414793
8.08989e-05
0.000444831
8.95822e-05
0.00047633
9.88805e-05
0.000509112
0.000108814
0.000542906
0.000119395
0.000577355
0.000130628
0.000611957
0.000142503
0.000646033
0.000154994
0.000678678
0.000168056
0.000708702
0.000181611
0.000734571
0.000195555
0.000754322
0.000209735
0.000765472
0.000223948
0.000764923
0.00023792
0.000748827
0.000251276
0.000712534
0.000263554
0.000650673
0.000274073
0.000556673
0.000281965
0.000423776
0.000242872
0.000286294
-2.22586e-05
1.88123e-05
2.25693e-05
-2.19228e-05
2.03429e-05
-2.15598e-05
2.19977e-05
-2.11684e-05
2.3787e-05
-2.07451e-05
2.57217e-05
-2.02886e-05
2.78137e-05
-1.97948e-05
3.00757e-05
-1.92616e-05
3.25219e-05
-1.8684e-05
3.51567e-05
-1.80592e-05
3.80074e-05
-1.73833e-05
4.1099e-05
-1.66522e-05
4.44424e-05
-1.58612e-05
4.8058e-05
-1.50034e-05
5.19375e-05
-1.40727e-05
5.61222e-05
-1.30657e-05
6.06891e-05
-1.19761e-05
6.56277e-05
-1.07917e-05
7.08845e-05
-9.50718e-06
7.66028e-05
-8.1171e-06
8.28351e-05
-6.60701e-06
8.94748e-05
-4.96723e-06
9.66611e-05
-3.19345e-06
0.000104519
-1.26189e-06
0.000112816
8.29462e-07
0.00012194
3.09903e-06
0.000131718
5.5626e-06
0.000142248
8.23125e-06
0.000153689
1.11297e-05
0.000165902
1.42675e-05
0.000179215
1.7673e-05
0.000193415
2.13593e-05
0.000208831
2.53528e-05
0.000225337
2.96759e-05
0.000243108
3.43505e-05
0.00026224
3.94114e-05
0.000282618
4.48767e-05
0.000304578
5.07785e-05
0.000327972
5.7149e-05
0.000352853
6.40127e-05
0.000379364
7.14e-05
0.000407404
7.93433e-05
0.000436886
8.78671e-05
0.000467804
9.69943e-05
0.000499982
0.000106745
0.000533153
0.000117131
0.000566965
0.000128157
0.000600927
0.000139815
0.000634371
0.000152078
0.000666408
0.000164905
0.00069587
0.00017822
0.000721249
0.000191921
0.000740613
0.000205859
0.000751522
0.000219834
0.000750934
0.000233574
0.00073507
0.00024671
0.000699376
0.000258785
0.000638569
0.000269147
0.000546276
0.000276993
0.000415881
0.000238376
0.000281419
-2.19943e-05
1.85033e-05
2.2301e-05
-2.16623e-05
2.00093e-05
-2.13032e-05
2.16378e-05
-2.09161e-05
2.33986e-05
-2.04976e-05
2.53025e-05
-2.00463e-05
2.73612e-05
-1.95584e-05
2.95872e-05
-1.9032e-05
3.19944e-05
-1.8462e-05
3.45863e-05
-1.78461e-05
3.73906e-05
-1.71799e-05
4.04324e-05
-1.646e-05
4.37218e-05
-1.56813e-05
4.72788e-05
-1.48374e-05
5.10931e-05
-1.3922e-05
5.52063e-05
-1.29318e-05
5.96984e-05
-1.18606e-05
6.4556e-05
-1.06965e-05
6.97199e-05
-9.43415e-06
7.53398e-05
-8.06822e-06
8.14688e-05
-6.58457e-06
8.79905e-05
-4.97362e-06
9.50498e-05
-3.23113e-06
0.000102775
-1.33375e-06
0.000110918
7.20532e-07
0.000119885
2.94981e-06
0.000129488
5.36957e-06
0.000139827
7.99066e-06
0.000151068
1.08373e-05
0.000163055
1.39189e-05
0.000176133
1.72633e-05
0.000190071
2.08831e-05
0.000205211
2.48047e-05
0.000221415
2.90495e-05
0.000238862
3.36394e-05
0.00025765
3.86084e-05
0.000277648
4.39742e-05
0.000299211
4.97684e-05
0.000322177
5.60224e-05
0.000346598
6.27605e-05
0.000372624
7.00124e-05
0.000400152
7.78099e-05
0.000429087
8.61772e-05
0.000459436
9.51369e-05
0.000491022
0.000104708
0.000523581
0.000114905
0.000556769
0.00012573
0.000590103
0.000137176
0.000622927
0.00014922
0.000654367
0.000161818
0.000683276
0.000174901
0.00070817
0.000188367
0.000727152
0.00020207
0.000737825
0.000215812
0.000737197
0.000229326
0.000721561
0.000242246
0.000686463
0.00025412
0.000626699
0.000264321
0.000536086
0.000272114
0.000408105
0.000233892
0.000276634
-2.17538e-05
1.81984e-05
2.20574e-05
-2.14256e-05
1.96801e-05
-2.10706e-05
2.12823e-05
-2.06878e-05
2.30149e-05
-2.02741e-05
2.48883e-05
-1.98279e-05
2.69141e-05
-1.93458e-05
2.91047e-05
-1.88256e-05
3.14736e-05
-1.82628e-05
3.40233e-05
-1.76547e-05
3.67821e-05
-1.69974e-05
3.97751e-05
-1.62873e-05
4.30115e-05
-1.55198e-05
4.65112e-05
-1.46882e-05
5.02615e-05
-1.37867e-05
5.43047e-05
-1.28119e-05
5.87235e-05
-1.17579e-05
6.35017e-05
-1.06127e-05
6.85745e-05
-9.37119e-06
7.40979e-05
-8.0282e-06
8.01255e-05
-6.56972e-06
8.65315e-05
-4.98638e-06
9.34661e-05
-3.27398e-06
0.000101062
-1.4096e-06
0.000109054
6.08766e-07
0.000117867
2.79888e-06
0.000127298
5.17594e-06
0.00013745
7.75057e-06
0.000148492
1.05466e-05
0.000160259
1.3573e-05
0.000173106
1.68573e-05
0.000186786
2.04121e-05
0.000201656
2.42626e-05
0.000217563
2.84307e-05
0.000234693
3.29371e-05
0.000253142
3.78157e-05
0.000272768
4.30838e-05
0.000293942
4.87721e-05
0.000316488
5.49118e-05
0.000340457
6.15266e-05
0.000366008
6.86457e-05
0.000393031
7.63004e-05
0.000421431
8.45147e-05
0.00045122
9.33107e-05
0.000482224
0.000102708
0.000514181
0.000112719
0.000546754
0.000123349
0.000579469
0.00013459
0.000611681
0.000146421
0.000642531
0.000158799
0.000670892
0.000171657
0.000695306
0.000184894
0.000713907
0.000198368
0.000724341
0.000211883
0.00072367
0.000225175
0.000708254
0.000237881
0.000673737
0.000249556
0.000614997
0.000259596
0.000526014
0.000267318
0.00040034
0.000229246
0.000271902
-2.15288e-05
1.78977e-05
2.18269e-05
-2.12054e-05
1.9355e-05
-2.08553e-05
2.09311e-05
-2.04775e-05
2.26356e-05
-2.00689e-05
2.44788e-05
-1.9628e-05
2.6472e-05
-1.91515e-05
2.86275e-05
-1.86375e-05
3.09585e-05
-1.80814e-05
3.34667e-05
-1.74808e-05
3.61806e-05
-1.68319e-05
3.91256e-05
-1.61311e-05
4.23101e-05
-1.53739e-05
4.57536e-05
-1.45541e-05
4.94411e-05
-1.36656e-05
5.34157e-05
-1.27052e-05
5.77627e-05
-1.16671e-05
6.24631e-05
-1.05397e-05
6.74467e-05
-9.31793e-06
7.28756e-05
-7.99662e-06
7.88038e-05
-6.56211e-06
8.50964e-05
-5.00517e-06
9.19088e-05
-3.32171e-06
9.93784e-05
-1.4892e-06
0.000107221
4.94331e-07
0.000115882
2.64634e-06
0.000125145
4.98176e-06
0.000135114
7.51096e-06
0.000145963
1.02573e-05
0.000157512
1.32298e-05
0.000170133
1.64553e-05
0.00018356
1.99458e-05
0.000198165
2.37271e-05
0.000213782
2.78194e-05
0.000230599
3.22441e-05
0.000248716
3.7034e-05
0.000267978
4.2206e-05
0.000288769
4.77906e-05
0.000310902
5.38182e-05
0.000334428
6.03122e-05
0.000359514
6.73013e-05
0.000386041
7.48165e-05
0.000413915
8.28813e-05
0.000443155
9.15178e-05
0.000473587
0.000100745
0.000504954
0.000110577
0.000536924
0.000121017
0.00056903
0.00013206
0.00060064
0.000143683
0.00063091
0.000155848
0.000658732
0.000168487
0.000682672
0.000181502
0.000700898
0.000194752
0.000711097
0.000208044
0.000710385
0.000221116
0.000695189
0.000233612
0.00066125
0.00024509
0.000603527
0.000254966
0.000516154
0.000262598
0.000392732
0.000224687
0.000267204
-2.13079e-05
1.76023e-05
2.16018e-05
-2.09894e-05
1.90356e-05
-2.06446e-05
2.05857e-05
-2.02722e-05
2.22622e-05
-1.98693e-05
2.40754e-05
-1.94346e-05
2.60364e-05
-1.89645e-05
2.81571e-05
-1.84573e-05
3.04506e-05
-1.79085e-05
3.29178e-05
-1.73157e-05
3.55875e-05
-1.66754e-05
3.84852e-05
-1.59839e-05
4.16185e-05
-1.52371e-05
4.50067e-05
-1.44286e-05
4.86326e-05
-1.35528e-05
5.25398e-05
-1.26064e-05
5.68163e-05
-1.15839e-05
6.14403e-05
-1.04738e-05
6.63364e-05
-9.27118e-06
7.16725e-05
-7.97097e-06
7.75033e-05
-6.55974e-06
8.36846e-05
-5.02848e-06
9.03772e-05
-3.37314e-06
9.77225e-05
-1.57165e-06
0.000105419
3.77942e-07
0.000113932
2.49277e-06
0.00012303
4.78748e-06
0.000132819
7.27226e-06
0.000143477
9.97004e-06
0.000154813
1.28896e-05
0.000167213
1.60573e-05
0.000180393
1.94853e-05
0.000194737
2.3198e-05
0.000210068
2.72165e-05
0.00022658
3.1561e-05
0.000244371
3.62638e-05
0.000263274
4.13419e-05
0.00028369
4.68249e-05
0.000305418
5.27429e-05
0.000328509
5.91188e-05
0.000353137
6.59811e-05
0.000379178
7.33601e-05
0.000406534
8.12791e-05
0.000435234
8.97602e-05
0.000465104
9.88224e-05
0.000495889
0.000108479
0.000527264
0.000118735
0.000558771
0.000129585
0.000589786
0.000141008
0.000619483
0.000152965
0.00064677
0.00016539
0.000670241
0.000178188
0.000688094
0.000191219
0.000698058
0.000204291
0.000697302
0.000217146
0.00068232
0.000229433
0.000648946
0.000240717
0.000592221
0.000250427
0.000506416
0.000257952
0.000385171
0.000220052
0.000262537
-2.10852e-05
1.73123e-05
2.13732e-05
-2.07726e-05
1.87216e-05
-2.04337e-05
2.02461e-05
-2.00676e-05
2.18949e-05
-1.96711e-05
2.36783e-05
-1.92429e-05
2.56072e-05
-1.87798e-05
2.76934e-05
-1.82799e-05
2.99498e-05
-1.7739e-05
3.23764e-05
-1.71546e-05
3.50024e-05
-1.65233e-05
3.78534e-05
-1.58417e-05
4.09363e-05
-1.51055e-05
4.427e-05
-1.43087e-05
4.78352e-05
-1.34457e-05
5.16762e-05
-1.25133e-05
5.58835e-05
-1.15062e-05
6.04326e-05
-1.0413e-05
6.52429e-05
-9.22912e-06
7.0488e-05
-7.94945e-06
7.62233e-05
-6.56093e-06
8.22955e-05
-5.0547e-06
8.88707e-05
-3.42683e-06
9.60941e-05
-1.65565e-06
0.000103647
2.60736e-07
0.000112015
2.33915e-06
0.000120952
4.59398e-06
0.000130563
7.03521e-06
0.000141036
9.68537e-06
0.000152163
1.2553e-05
0.000164345
1.56642e-05
0.000177281
1.90305e-05
0.00019137
2.26768e-05
0.000206422
2.66226e-05
0.000222633
3.08886e-05
0.000240104
3.55063e-05
0.000258656
4.04925e-05
0.000278704
4.58763e-05
0.000300034
5.16872e-05
0.000322698
5.79479e-05
0.000346875
6.46863e-05
0.000372439
7.19325e-05
0.000399288
7.97097e-05
0.000427457
8.80394e-05
0.000456774
9.69408e-05
0.000486988
0.000106427
0.000517778
0.000116504
0.000548695
0.000127166
0.000579127
0.000138393
0.000608259
0.000150148
0.000635021
0.000162364
0.00065803
0.000174949
0.000675516
0.000187764
0.000685252
0.000200619
0.000684455
0.000213259
0.000669689
0.000225339
0.000636877
0.000236429
0.000581143
0.000245975
0.000496891
0.000253378
0.000377799
0.000215582
0.000257905
-2.08547e-05
1.70283e-05
2.1138e-05
-2.05479e-05
1.84141e-05
-2.02154e-05
1.99132e-05
-1.98559e-05
2.15347e-05
-1.94665e-05
2.32887e-05
-1.90458e-05
2.51859e-05
-1.85906e-05
2.7238e-05
-1.80989e-05
2.94576e-05
-1.75667e-05
3.18441e-05
-1.69915e-05
3.44269e-05
-1.63699e-05
3.72318e-05
-1.56986e-05
4.0265e-05
-1.49736e-05
4.3545e-05
-1.41887e-05
4.70504e-05
-1.33389e-05
5.08263e-05
-1.24208e-05
5.49654e-05
-1.14293e-05
5.94409e-05
-1.03532e-05
6.41667e-05
-9.18811e-06
6.93225e-05
-7.92901e-06
7.49639e-05
-6.56306e-06
8.09291e-05
-5.08164e-06
8.73889e-05
-3.4809e-06
9.44928e-05
-1.73959e-06
0.000101906
1.44134e-07
0.000110131
2.18676e-06
0.000118909
4.40239e-06
0.000128347
6.80086e-06
0.000138637
9.4043e-06
0.000149559
1.22211e-05
0.000161528
1.52768e-05
0.000174225
1.85831e-05
0.000188064
2.21636e-05
0.00020284
2.60388e-05
0.000218757
3.02279e-05
0.000235914
3.47626e-05
0.00025412
3.96589e-05
0.000273807
4.49458e-05
0.000294746
5.06523e-05
0.00031699
5.68006e-05
0.000340726
6.34184e-05
0.00036582
7.05352e-05
0.00039217
7.81741e-05
0.000419816
8.63564e-05
0.00044859
9.51013e-05
0.000478241
0.000104422
0.000508455
0.000114324
0.00053879
0.000124803
0.000568645
0.000135839
0.000597219
0.000147395
0.000623461
0.000159407
0.000646013
0.000171782
0.000663136
0.000184383
0.000672643
0.000197023
0.000671806
0.000209451
0.00065725
0.000221325
0.000624988
0.000232222
0.000570225
0.000241602
0.000487487
0.000248873
0.000370498
0.0002111
0.000253315
-2.0616e-05
1.67498e-05
2.08923e-05
-2.03158e-05