/*--------------------------------*- C++ -*----------------------------------*\
  =========                 |
  \\      /  F ield         | OpenFOAM: The Open Source CFD Toolbox
   \\    /   O peration     | Website:  https://openfoam.org
    \\  /    A nd           | Version:  6.0
     \\/     M anipulation  |
\*---------------------------------------------------------------------------*/
FoamFile
{
    version     2.0;
    format      ascii;
    class       volVectorField;
    location    "16";
    object      U;
}
// * * * * * * * * * * * * * * * * * * * * * * * * * * * * * * * * * * * * * //

dimensions      [0 1 -1 0 0 0 0];

internalField   nonuniform List<vector> 
62000
(
(0.996174 0.0872923 -4.46045e-21)
(0.996174 0.0872952 3.71574e-21)
(0.996173 0.087298 3.82706e-21)
(0.996173 0.0873006 -1.68172e-20)
(0.996173 0.0873028 -1.92904e-20)
(0.996173 0.0873047 6.67267e-20)
(0.996173 0.0873064 -7.3561e-20)
(0.996173 0.0873075 4.28279e-20)
(0.996173 0.087308 -2.01466e-20)
(0.996174 0.087308 -1.03309e-19)
(0.996174 0.0873077 -1.35169e-20)
(0.996175 0.0873069 1.44947e-19)
(0.996175 0.0873058 2.97484e-20)
(0.996176 0.0873046 -1.04249e-19)
(0.996176 0.0873032 1.63213e-19)
(0.996177 0.0873019 -8.65855e-20)
(0.996178 0.0873007 9.03264e-20)
(0.996178 0.0872996 -1.06103e-19)
(0.996179 0.0872986 5.2669e-20)
(0.996179 0.0872975 -1.62935e-19)
(0.99618 0.0872966 2.13227e-19)
(0.99618 0.0872954 6.36128e-20)
(0.99618 0.0872944 9.24796e-20)
(0.99618 0.0872928 -4.18013e-19)
(0.99618 0.0872922 1.51584e-19)
(0.996179 0.0872923 -9.11626e-20)
(0.996177 0.0872928 -1.21666e-21)
(0.996175 0.0872938 -7.03057e-20)
(0.996171 0.0872955 2.13685e-19)
(0.996167 0.0872976 -1.17466e-19)
(0.996161 0.0872996 2.77708e-19)
(0.996152 0.0873018 -5.65628e-19)
(0.996142 0.0873045 5.29213e-20)
(0.996127 0.0873081 -1.8712e-19)
(0.996108 0.0873121 -6.01993e-20)
(0.996085 0.087314 -1.91616e-19)
(0.996056 0.0873122 -5.63585e-20)
(0.996021 0.0873055 -6.06387e-20)
(0.995978 0.0872917 1.86462e-19)
(0.995926 0.0872685 8.82047e-19)
(0.995864 0.0872328 -2.16038e-19)
(0.99579 0.0871814 -1.24309e-18)
(0.995703 0.0871108 -1.99116e-18)
(0.995602 0.0870176 1.0883e-18)
(0.995485 0.0868978 3.4161e-19)
(0.995351 0.0867483 -1.56851e-18)
(0.9952 0.0865638 3.14777e-19)
(0.995031 0.0863394 -6.59344e-19)
(0.994848 0.0860662 -3.0359e-18)
(0.994656 0.0857362 -7.24563e-19)
(0.994462 0.0853399 -3.62851e-19)
(0.994282 0.0848705 -4.57389e-18)
(0.994119 0.0843302 7.27378e-19)
(0.993974 0.0836903 4.89749e-18)
(0.99386 0.082903 1.21096e-18)
(0.993779 0.0818845 4.17505e-18)
(0.993764 0.0804349 -4.38382e-19)
(0.993815 0.0784528 -6.70857e-19)
(0.994566 0.074307 1.67472e-18)
(0.980032 0.0629034 3.08973e-19)
(0.996205 0.0878238 -1.1974e-21)
(0.996199 0.0878249 1.1483e-20)
(0.996193 0.0878259 4.78828e-21)
(0.996187 0.0878274 -2.05189e-20)
(0.996181 0.0878281 8.54389e-21)
(0.996176 0.0878285 -5.92159e-20)
(0.996172 0.0878281 5.42714e-20)
(0.996168 0.0878268 3.15719e-20)
(0.996165 0.0878243 -5.91221e-20)
(0.996162 0.0878208 2.49704e-21)
(0.99616 0.0878167 5.76362e-20)
(0.996158 0.0878119 2.44782e-22)
(0.996157 0.0878065 1.68158e-20)
(0.996156 0.0878011 -1.43397e-19)
(0.996155 0.0877957 2.88933e-19)
(0.996154 0.0877909 -2.55681e-19)
(0.996154 0.0877868 1.20443e-19)
(0.996154 0.0877833 -2.5319e-20)
(0.996153 0.0877807 -6.96548e-20)
(0.996153 0.0877784 1.93737e-19)
(0.996152 0.0877773 -3.0651e-19)
(0.996151 0.0877759 1.78755e-19)
(0.99615 0.0877759 -2.29143e-19)
(0.996147 0.0877755 1.36625e-19)
(0.996145 0.0877795 1.25901e-19)
(0.99614 0.0877861 -8.0994e-20)
(0.996134 0.087794 -5.76207e-22)
(0.996126 0.087802 8.58913e-20)
(0.996114 0.0878103 7.10143e-20)
(0.9961 0.0878172 -1.44499e-19)
(0.996083 0.0878211 2.89051e-19)
(0.996061 0.0878212 5.89292e-20)
(0.996034 0.0878189 1.80888e-19)
(0.996 0.0878143 1.39243e-20)
(0.995957 0.087805 5.11961e-20)
(0.995906 0.0877865 -5.71516e-20)
(0.995844 0.0877548 -1.76418e-19)
(0.995772 0.0877063 -8.7044e-20)
(0.995686 0.0876373 -5.01063e-19)
(0.995586 0.0875442 -5.8273e-19)
(0.995471 0.0874232 4.59576e-19)
(0.995337 0.0872714 2.75874e-19)
(0.995184 0.0870863 2.11067e-18)
(0.995008 0.0868659 1.27512e-19)
(0.994807 0.0866068 -3.32277e-18)
(0.994578 0.0863055 1.32756e-18)
(0.994322 0.0859516 1.10079e-18)
(0.994041 0.085535 1.31085e-18)
(0.993741 0.085038 2.50491e-19)
(0.993441 0.0844488 4.66848e-20)
(0.993156 0.0837605 2.17199e-18)
(0.992917 0.0829791 5.75089e-18)
(0.992717 0.082131 -3.77537e-18)
(0.992545 0.0811792 -8.99592e-18)
(0.992421 0.0800314 -2.12292e-18)
(0.992337 0.078563 -1.4014e-18)
(0.992394 0.076432 -3.27229e-18)
(0.992276 0.0736375 -1.61926e-18)
(0.99416 0.0680105 2.65299e-18)
(0.981219 0.0565194 1.09941e-18)
(0.996246 0.0882895 -5.85046e-21)
(0.996241 0.088293 -8.35785e-22)
(0.996233 0.0882918 9.04524e-22)
(0.996225 0.0882932 4.15811e-21)
(0.996216 0.0882944 1.18147e-20)
(0.996207 0.0882956 -1.12071e-20)
(0.996198 0.0882963 6.002e-20)
(0.99619 0.0882961 -2.85609e-20)
(0.996182 0.0882945 -1.53672e-20)
(0.996175 0.0882918 -9.50147e-20)
(0.996168 0.0882881 8.01219e-20)
(0.996162 0.0882835 5.91706e-21)
(0.996157 0.088278 -1.84391e-20)
(0.996153 0.0882722 4.908e-20)
(0.996149 0.0882664 -8.41778e-20)
(0.996145 0.088261 4.43587e-22)
(0.996142 0.0882562 -3.90016e-20)
(0.996139 0.0882519 4.80609e-22)
(0.996136 0.0882485 9.08298e-20)
(0.996133 0.0882451 -1.39019e-19)
(0.99613 0.0882427 8.69329e-20)
(0.996126 0.0882396 3.40904e-19)
(0.996122 0.0882376 -4.43609e-20)
(0.996118 0.0882352 -4.78953e-19)
(0.996113 0.0882376 2.44104e-19)
(0.996105 0.0882419 -1.30066e-19)
(0.996094 0.0882467 2.07074e-19)
(0.996081 0.0882495 -1.22848e-19)
(0.996064 0.0882505 -2.4029e-19)
(0.996044 0.0882472 2.52385e-19)
(0.996021 0.0882375 -1.76155e-19)
(0.995993 0.0882205 2.33994e-19)
(0.995961 0.0881975 -6.44402e-19)
(0.995921 0.0881684 5.72325e-19)
(0.995874 0.0881309 -3.05014e-19)
(0.995818 0.08808 1.25337e-19)
(0.995753 0.0880119 9.4806e-20)
(0.995679 0.0879231 -6.74132e-21)
(0.995594 0.0878106 -2.48324e-20)
(0.995498 0.0876718 5.99548e-19)
(0.995389 0.0875049 -2.41138e-19)
(0.995267 0.0873091 3.8114e-19)
(0.99513 0.0870845 -1.36133e-18)
(0.994973 0.0868315 -6.7641e-19)
(0.994795 0.0865473 7.4308e-19)
(0.994592 0.0862279 -2.55133e-18)
(0.994365 0.0858598 3.45616e-19)
(0.994117 0.0854297 -2.22017e-18)
(0.993861 0.0849185 3.11772e-18)
(0.993614 0.0843181 8.00732e-19)
(0.993401 0.083635 4.21268e-19)
(0.993255 0.0828991 -1.11984e-19)
(0.993158 0.0821647 1.6549e-18)
(0.993102 0.0814298 1.34028e-19)
(0.993098 0.0806058 -3.22762e-18)
(0.993112 0.079597 -1.71251e-18)
(0.993289 0.0780659 -1.24081e-18)
(0.992884 0.0759834 -3.83532e-18)
(0.994954 0.0719391 -2.44669e-19)
(0.987491 0.0665079 4.42658e-19)
(0.996255 0.0886239 -5.87765e-21)
(0.996259 0.0886344 1.79746e-20)
(0.996258 0.0886344 -2.73578e-21)
(0.996255 0.0886371 -1.84864e-20)
(0.99625 0.0886404 2.78377e-20)
(0.996242 0.0886438 4.79843e-20)
(0.996233 0.088647 -6.24076e-20)
(0.996223 0.0886496 6.76864e-21)
(0.996212 0.088651 2.15906e-20)
(0.996201 0.0886515 4.48803e-20)
(0.996191 0.0886511 -8.27045e-20)
(0.99618 0.0886495 -2.54792e-20)
(0.996171 0.0886469 -2.84516e-20)
(0.996161 0.0886438 1.29408e-19)
(0.996153 0.0886403 -8.62289e-20)
(0.996144 0.0886368 2.01273e-19)
(0.996137 0.0886335 -2.43766e-19)
(0.996129 0.0886301 -3.58088e-20)
(0.996122 0.0886271 2.56893e-19)
(0.996115 0.0886234 -8.95317e-20)
(0.996108 0.0886199 -3.28964e-20)
(0.9961 0.0886146 -3.51951e-20)
(0.996093 0.0886093 -3.2067e-19)
(0.996085 0.0886027 1.84804e-19)
(0.996075 0.0885993 -8.30465e-20)
(0.996062 0.0885952 1.30597e-19)
(0.996046 0.0885902 5.94958e-20)
(0.996027 0.0885809 2.87586e-19)
(0.996005 0.0885679 -1.76758e-19)
(0.99598 0.0885485 -2.27003e-19)
(0.995952 0.0885202 3.52481e-19)
(0.995919 0.0884821 -2.85326e-19)
(0.995883 0.0884359 5.22995e-19)
(0.99584 0.0883815 -3.15663e-19)
(0.995791 0.0883163 1.3144e-19)
(0.995734 0.0882367 2.24772e-19)
(0.99567 0.0881393 -9.58537e-20)
(0.995597 0.0880214 1.19611e-19)
(0.995516 0.0878805 -6.00962e-20)
(0.995425 0.0877149 1.81377e-19)
(0.995325 0.087524 -5.22499e-19)
(0.995214 0.0873078 1.46044e-19)
(0.99509 0.0870671 3.18509e-19)
(0.994949 0.0868017 7.86508e-19)
(0.994787 0.0865075 1.0451e-18)
(0.994601 0.0861772 2.42339e-19)
(0.994391 0.0857932 1.63798e-18)
(0.994158 0.0853379 1.78768e-18)
(0.993914 0.0847888 2.06664e-18)
(0.993678 0.084138 -1.49851e-18)
(0.993475 0.0833961 -1.98893e-18)
(0.99334 0.0826051 1.30343e-18)
(0.993254 0.0818334 1.73235e-18)
(0.993219 0.0811037 3.91485e-18)
(0.993253 0.080332 2.37068e-18)
(0.993304 0.0794378 3.9939e-18)
(0.993563 0.0781105 6.78584e-18)
(0.993006 0.0761541 -6.31024e-19)
(0.994744 0.0726816 -3.6224e-18)
(0.989635 0.0679043 -2.89552e-18)
(0.996228 0.0889611 1.14331e-20)
(0.996241 0.0889742 -3.80548e-21)
(0.99625 0.0889764 6.3867e-21)
(0.996256 0.0889782 -8.9795e-21)
(0.996258 0.0889803 2.01265e-20)
(0.996257 0.0889818 -9.90304e-21)
(0.996252 0.088983 5.34498e-21)
(0.996245 0.0889835 -7.89913e-20)
(0.996236 0.088983 6.5886e-20)
(0.996225 0.0889818 -1.31262e-19)
(0.996212 0.08898 1.43833e-19)
(0.996199 0.0889774 -1.73217e-20)
(0.996186 0.088974 -3.81016e-20)
(0.996172 0.0889704 -1.73727e-20)
(0.996158 0.0889664 -3.77582e-21)
(0.996145 0.0889626 -1.74812e-19)
(0.996132 0.0889589 7.65879e-21)
(0.996119 0.088955 1.89077e-19)
(0.996106 0.0889512 -6.13221e-20)
(0.996093 0.0889462 -6.45584e-20)
(0.996081 0.088941 1.084e-19)
(0.996068 0.0889332 -5.39205e-20)
(0.996055 0.0889244 2.26307e-19)
(0.996041 0.0889134 1.24483e-19)
(0.996025 0.0889037 9.40747e-20)
(0.996006 0.0888908 -2.84417e-19)
(0.995984 0.0888759 -3.89959e-20)
(0.995958 0.0888555 -2.11913e-19)
(0.99593 0.0888302 3.88145e-20)
(0.995899 0.0887973 -6.8277e-20)
(0.995865 0.0887543 -2.63583e-20)
(0.995828 0.0887007 2.10968e-19)
(0.995786 0.0886375 -5.24639e-19)
(0.995739 0.0885647 -2.34463e-20)
(0.995686 0.0884804 -2.65085e-19)
(0.995628 0.0883815 -1.29281e-19)
(0.995562 0.0882652 3.54336e-20)
(0.995488 0.0881288 -4.15045e-19)
(0.995407 0.0879699 6.37788e-19)
(0.995317 0.0877871 1.04163e-19)
(0.995221 0.08758 7.08517e-19)
(0.995115 0.0873488 -5.20224e-19)
(0.994998 0.0870938 -3.54371e-19)
(0.994866 0.0868137 -1.42105e-19)
(0.994714 0.0865029 7.67574e-19)
(0.994538 0.0861517 1.12215e-18)
(0.994336 0.0857401 2.61832e-19)
(0.994104 0.0852465 4.50508e-19)
(0.993852 0.0846449 -7.3446e-19)
(0.993593 0.0839221 3.79873e-18)
(0.993349 0.0830827 9.40976e-19)
(0.993153 0.0821638 -9.47623e-19)
(0.992992 0.08123 2.8859e-19)
(0.992884 0.0803109 3.18614e-18)
(0.992864 0.0793236 -2.00312e-19)
(0.992886 0.0782003 -3.11529e-18)
(0.993196 0.0766862 -7.18717e-18)
(0.992669 0.0744887 6.39839e-18)
(0.993994 0.0709528 -3.93469e-18)
(0.990588 0.0659127 3.48467e-18)
(0.996162 0.0893852 -4.3616e-21)
(0.996176 0.0893955 1.75699e-20)
(0.996189 0.0893971 -2.88905e-20)
(0.996201 0.0893959 2.15275e-20)
(0.99621 0.0893932 1.39636e-20)
(0.996217 0.0893888 -1.4739e-20)
(0.996219 0.0893828 1.23529e-21)
(0.996219 0.0893754 -1.10286e-20)
(0.996215 0.0893667 -3.70459e-20)
(0.996208 0.0893572 7.08052e-20)
(0.996199 0.0893473 -1.09508e-19)
(0.996187 0.0893369 9.54822e-20)
(0.996174 0.0893261 8.39839e-20)
(0.996159 0.0893155 -1.29415e-19)
(0.996144 0.0893052 -4.21744e-20)
(0.996127 0.0892955 1.57627e-19)
(0.996111 0.0892864 -1.90271e-19)
(0.996094 0.0892776 2.62234e-19)
(0.996077 0.089269 -4.96655e-20)
(0.996059 0.0892595 2.8259e-20)
(0.996041 0.0892499 -4.54785e-20)
(0.996023 0.0892375 -5.70272e-20)
(0.996005 0.0892242 -1.05879e-19)
(0.995985 0.0892082 1.83119e-19)
(0.995962 0.0891923 -1.24283e-19)
(0.995936 0.0891716 -1.18436e-19)
(0.995907 0.0891484 2.36777e-19)
(0.995875 0.0891191 -2.21311e-19)
(0.995841 0.0890845 3.44334e-19)
(0.995804 0.0890417 -1.80102e-19)
(0.995765 0.0889885 1.35259e-19)
(0.995723 0.088924 -2.25517e-19)
(0.995678 0.0888493 2.40272e-19)
(0.995628 0.0887643 -2.03122e-20)
(0.995573 0.0886672 -1.18889e-20)
(0.995514 0.0885556 -5.6946e-21)
(0.995448 0.0884269 -1.272e-19)
(0.995377 0.0882779 3.67115e-19)
(0.9953 0.088106 -2.84823e-19)
(0.995219 0.0879099 -1.6316e-18)
(0.995134 0.0876899 -6.89358e-19)
(0.995045 0.0874462 4.94716e-19)
(0.99495 0.0871796 -5.43936e-19)
(0.994847 0.0868892 -6.11788e-19)
(0.994731 0.0865704 -4.95386e-20)
(0.994596 0.0862149 1.54414e-18)
(0.994439 0.0858041 -2.2506e-18)
(0.994254 0.0853177 -2.27663e-18)
(0.994042 0.0847288 -1.53358e-18)
(0.993807 0.0840202 -2.53246e-18)
(0.993565 0.0831863 1.58161e-18)
(0.993343 0.0822512 -6.54332e-19)
(0.993127 0.0812641 -5.25528e-18)
(0.992946 0.0802494 9.58953e-19)
(0.992858 0.079123 1.5292e-18)
(0.992824 0.0778305 -2.81542e-18)
(0.993137 0.0761934 2.00647e-18)
(0.992683 0.0739084 1.78565e-18)
(0.993588 0.0704722 6.33458e-18)
(0.991939 0.0660989 -6.37534e-20)
(0.996059 0.0898461 5.16705e-21)
(0.996065 0.0898557 -2.324e-20)
(0.996074 0.0898552 1.12912e-20)
(0.996084 0.089852 2.10546e-20)
(0.996096 0.0898453 -4.50712e-20)
(0.996107 0.0898355 3.76675e-20)
(0.996116 0.0898228 -2.50613e-20)
(0.996123 0.0898075 2.11788e-20)
(0.996127 0.0897899 3.37287e-20)
(0.996127 0.0897707 -8.07879e-20)
(0.996125 0.0897507 1.16267e-19)
(0.99612 0.0897299 4.91861e-20)
(0.996112 0.0897089 -1.95095e-19)
(0.996101 0.0896883 -3.64898e-20)
(0.996089 0.0896685 1.02916e-19)
(0.996074 0.0896498 6.60942e-20)
(0.996058 0.0896322 -7.98697e-20)
(0.996041 0.0896154 6.98919e-20)
(0.996022 0.0895995 1.07967e-19)
(0.996003 0.089583 -5.21643e-20)
(0.995982 0.0895668 -2.98286e-20)
(0.99596 0.089548 1.06665e-19)
(0.995937 0.0895287 2.19281e-19)
(0.995913 0.0895068 -1.58135e-19)
(0.995884 0.0894845 -1.73403e-19)
(0.995852 0.0894566 1.8695e-19)
(0.995816 0.0894259 -1.39977e-19)
(0.995779 0.0893889 -5.59685e-20)
(0.995739 0.0893464 4.50134e-19)
(0.995697 0.0892952 -1.93367e-19)
(0.995654 0.0892331 -1.46465e-19)
(0.995608 0.0891595 1.90187e-19)
(0.995559 0.089075 1.30456e-19)
(0.995506 0.0889793 -1.14966e-19)
(0.99545 0.0888712 -7.80816e-20)
(0.995389 0.0887484 2.51065e-19)
(0.995325 0.0886079 5.70764e-20)
(0.995256 0.0884459 8.41197e-20)
(0.995185 0.0882595 -4.56977e-19)
(0.995114 0.0880476 -4.47826e-19)
(0.995044 0.087811 8.7511e-19)
(0.994977 0.0875508 7.03606e-19)
(0.994912 0.0872688 1.19168e-18)
(0.994848 0.0869664 -1.10273e-18)
(0.994783 0.0866419 -1.22709e-18)
(0.994713 0.0862918 -8.18382e-19)
(0.994632 0.0859034 1.98936e-18)
(0.994531 0.0854621 1.92708e-18)
(0.994407 0.0849453 -2.12566e-18)
(0.994254 0.0843349 -3.0527e-18)
(0.994078 0.0836168 -6.10628e-19)
(0.993894 0.0827997 5.93038e-19)
(0.993684 0.0819118 9.7637e-20)
(0.993477 0.0809618 -1.8428e-18)
(0.993343 0.0798567 1.57942e-18)
(0.993249 0.0785426 9.61523e-19)
(0.993508 0.0769025 1.40884e-18)
(0.993088 0.074625 -5.50554e-18)
(0.993559 0.0713211 -3.84051e-19)
(0.992952 0.0671217 1.23881e-19)
(0.995953 0.0902375 -8.76014e-21)
(0.995944 0.090252 -6.98733e-21)
(0.99594 0.0902535 9.44575e-21)
(0.995942 0.0902537 3.33943e-20)
(0.995948 0.0902496 -7.17362e-20)
(0.995957 0.0902415 8.18227e-20)
(0.995967 0.0902289 -3.63792e-21)
(0.995977 0.0902126 -5.03904e-21)
(0.995986 0.0901924 -2.88931e-20)
(0.995994 0.0901696 6.99009e-20)
(0.995999 0.0901447 -1.07268e-19)
(0.996002 0.0901182 4.02546e-20)
(0.996001 0.0900908 -1.3343e-21)
(0.995998 0.0900634 6.25273e-20)
(0.995992 0.0900364 2.96455e-20)
(0.995983 0.0900105 -1.57043e-19)
(0.995971 0.0899858 1.35777e-19)
(0.995956 0.0899618 5.32115e-20)
(0.99594 0.0899389 -1.52435e-19)
(0.995921 0.0899156 7.45404e-20)
(0.9959 0.0898927 3.45388e-20)
(0.995877 0.0898674 -2.26836e-20)
(0.995851 0.089842 2.87396e-20)
(0.995823 0.089814 -1.6345e-20)
(0.995791 0.0897855 -1.88702e-19)
(0.995753 0.0897509 1.20725e-19)
(0.995712 0.0897134 -1.7868e-19)
(0.995669 0.0896693 3.20385e-19)
(0.995624 0.0896193 -5.91424e-20)
(0.995575 0.0895599 -3.43295e-20)
(0.995526 0.0894886 -9.18288e-21)
(0.995473 0.0894052 3.11249e-19)
(0.995419 0.0893102 -1.24384e-19)
(0.99536 0.0892031 -7.4362e-20)
(0.995298 0.0890826 1.93355e-19)
(0.995231 0.0889466 1.65806e-19)
(0.99516 0.0887911 -2.78051e-19)
(0.995086 0.0886116 4.98722e-20)
(0.995011 0.0884043 5.4651e-19)
(0.994938 0.0881681 -4.80502e-20)
(0.99487 0.0879041 3.55808e-19)
(0.99481 0.0876142 -5.21247e-19)
(0.994757 0.0873015 7.93281e-19)
(0.994715 0.0869692 1.74349e-18)
(0.994683 0.0866198 5.05649e-19)
(0.994658 0.0862554 -7.05937e-19)
(0.994637 0.0858711 -2.15418e-18)
(0.99461 0.0854604 4.16087e-19)
(0.994571 0.0850079 6.45988e-19)
(0.994507 0.0844978 1.33634e-18)
(0.994414 0.0839096 -1.35021e-19)
(0.994297 0.083238 -2.4996e-18)
(0.99413 0.0824886 2.15527e-18)
(0.993937 0.081648 -1.46248e-18)
(0.993788 0.0806056 2.91288e-18)
(0.993653 0.0792907 7.28754e-19)
(0.993844 0.0776211 3.28178e-18)
(0.99345 0.075251 4.40626e-18)
(0.993576 0.0718605 7.81459e-19)
(0.993093 0.0669015 1.27612e-18)
(0.995894 0.0905062 -4.28198e-21)
(0.995867 0.0905319 3.66614e-21)
(0.995848 0.0905408 1.8369e-20)
(0.995834 0.09055 2.89778e-20)
(0.995827 0.090555 -8.53209e-20)
(0.995825 0.0905553 4.88752e-20)
(0.995828 0.0905508 -8.70636e-20)
(0.995834 0.0905415 1.35549e-19)
(0.995842 0.0905275 -6.31872e-20)
(0.99585 0.0905094 1.10929e-20)
(0.995858 0.0904881 1.2064e-19)
(0.995865 0.0904641 -2.72991e-19)
(0.99587 0.0904379 1.84965e-19)
(0.995872 0.0904107 2.58595e-20)
(0.995871 0.0903831 4.15766e-20)
(0.995868 0.0903558 -1.73122e-19)
(0.995861 0.090329 8.45871e-20)
(0.99585 0.0903024 -1.0419e-19)
(0.995836 0.0902763 2.0457e-19)
(0.995819 0.0902492 -2.70737e-20)
(0.995799 0.0902222 -2.56598e-19)
(0.995775 0.0901923 1.01343e-19)
(0.995748 0.0901621 -5.79735e-21)
(0.995718 0.0901291 -3.69925e-19)
(0.995682 0.0900954 2.71931e-19)
(0.99564 0.0900553 1.98505e-19)
(0.995594 0.0900119 1.30606e-19)
(0.995544 0.0899617 -1.63752e-19)
(0.995492 0.0899047 -1.75749e-19)
(0.995435 0.0898369 7.99803e-20)
(0.995377 0.0897561 1.15342e-19)
(0.995315 0.0896622 -1.39605e-19)
(0.99525 0.0895557 -2.05293e-19)
(0.995181 0.089436 4.19086e-19)
(0.995105 0.0893017 4.5758e-20)
(0.995024 0.0891501 -6.29485e-19)
(0.994935 0.0889764 5.41017e-20)
(0.994843 0.0887745 4.24117e-19)
(0.994749 0.0885398 3.84363e-20)
(0.994656 0.0882707 5.69903e-19)
(0.994568 0.0879682 -8.08001e-19)
(0.994487 0.0876341 -5.55076e-20)
(0.994416 0.0872718 -5.33074e-19)
(0.994359 0.0868858 2.14345e-19)
(0.994318 0.0864816 8.96278e-19)
(0.994293 0.086066 2.78857e-18)
(0.994283 0.0856411 3.81247e-19)
(0.994281 0.0852085 -1.79029e-18)
(0.994281 0.08476 1.38715e-18)
(0.994265 0.0842838 4.82289e-18)
(0.994228 0.0837557 -3.85551e-18)
(0.994167 0.083159 4.57445e-18)
(0.994049 0.0824798 -2.77486e-18)
(0.993891 0.081682 -1.54313e-18)
(0.993762 0.0806367 -6.05819e-18)
(0.993635 0.0792481 -3.33401e-19)
(0.993799 0.0774565 -1.96644e-18)
(0.993492 0.0748854 -2.20372e-18)
(0.993478 0.0712483 1.7762e-18)
(0.992744 0.0653118 3.21486e-19)
(0.995907 0.0906751 5.99008e-21)
(0.995869 0.0907107 2.09077e-21)
(0.995835 0.0907298 -2.15516e-20)
(0.995805 0.0907502 2.04571e-20)
(0.995781 0.0907675 -9.0257e-21)
(0.995763 0.0907805 1.60604e-20)
(0.995751 0.090789 5.47731e-21)
(0.995745 0.0907925 -7.93728e-20)
(0.995742 0.0907909 3.42922e-20)
(0.995743 0.0907846 -2.31519e-20)
(0.995746 0.090774 1.40077e-20)
(0.99575 0.0907597 5.38689e-20)
(0.995753 0.090742 -1.00773e-20)
(0.995755 0.0907221 3.24221e-20)
(0.995755 0.0907006 -1.36209e-19)
(0.995753 0.0906781 5.22074e-20)
(0.995747 0.0906549 2.2714e-20)
(0.995738 0.0906308 -6.15674e-20)
(0.995725 0.0906061 1.2122e-19)
(0.995708 0.0905793 3.94231e-20)
(0.995687 0.0905515 -4.47685e-21)
(0.995662 0.0905199 -4.25147e-20)
(0.995633 0.0904873 1.69254e-19)
(0.9956 0.0904512 -4.63222e-19)
(0.995559 0.090414 2.37262e-19)
(0.995512 0.0903699 9.74825e-20)
(0.99546 0.0903219 -1.5812e-19)
(0.995404 0.0902665 2.71312e-19)
(0.995342 0.0902035 -1.27939e-19)
(0.995276 0.090128 -6.52949e-20)
(0.995207 0.090038 -1.24936e-19)
(0.995133 0.0899336 -4.91095e-20)
(0.995054 0.0898156 1.35261e-19)
(0.994968 0.0896833 -4.05461e-19)
(0.994875 0.0895349 7.59776e-19)
(0.994772 0.0893674 -5.02894e-20)
(0.994659 0.0891745 3.94416e-19)
(0.994539 0.0889488 -1.0045e-18)
(0.994414 0.0886844 -3.21196e-19)
(0.994287 0.088379 3.58534e-22)
(0.994161 0.0880328 -2.45778e-19)
(0.994038 0.0876469 -4.14442e-20)
(0.993922 0.0872241 -9.21263e-19)
(0.993818 0.0867689 3.173e-19)
(0.99373 0.0862881 4.62979e-19)
(0.993661 0.0857911 -2.60308e-18)
(0.993613 0.0852849 3.38775e-18)
(0.993582 0.0847771 5.06031e-19)
(0.993565 0.0842657 1.90527e-19)
(0.993547 0.0837429 -3.3464e-18)
(0.993524 0.0831824 1.14011e-18)
(0.99349 0.0825604 -2.41155e-18)
(0.993412 0.0818497 4.82487e-18)
(0.993302 0.0809971 9.42949e-19)
(0.993228 0.0798623 -4.20363e-18)
(0.993169 0.0783299 1.56569e-18)
(0.99338 0.0763646 -4.49428e-18)
(0.993246 0.073594 -1.00067e-18)
(0.993323 0.0697513 -6.66672e-18)
(0.992544 0.0632616 -1.73823e-18)
(0.995972 0.0908231 -1.33059e-21)
(0.995934 0.0908645 -5.20378e-21)
(0.995895 0.0908911 -4.51367e-21)
(0.995856 0.0909195 4.33289e-20)
(0.995818 0.0909463 -2.39228e-20)
(0.995784 0.09097 -2.8572e-20)
(0.995756 0.0909903 -1.06551e-20)
(0.995732 0.0910063 -4.35094e-20)
(0.995714 0.0910176 2.70732e-20)
(0.9957 0.0910244 3.90785e-21)
(0.99569 0.0910268 1.40805e-21)
(0.995682 0.0910249 1.12939e-19)
(0.995676 0.091019 -7.95268e-20)
(0.995671 0.09101 -9.70594e-21)
(0.995665 0.0909983 8.96407e-20)
(0.995657 0.0909845 -4.90762e-20)
(0.995647 0.0909688 -1.86945e-20)
(0.995634 0.090951 3.00016e-20)
(0.995618 0.0909312 9.57011e-20)
(0.995598 0.090908 5.2057e-20)
(0.995573 0.0908824 1.87629e-20)
(0.995544 0.0908518 -1.2992e-19)
(0.99551 0.090819 6.51333e-20)
(0.995472 0.0907816 1.2461e-19)
(0.995426 0.0907422 -2.55778e-19)
(0.995373 0.0906955 7.96511e-20)
(0.995313 0.0906442 -3.05362e-19)
(0.995248 0.0905848 2.40615e-19)
(0.995177 0.0905167 2.04763e-19)
(0.9951 0.0904344 -3.08606e-19)
(0.995018 0.0903361 -1.43396e-19)
(0.994931 0.0902222 1.87021e-19)
(0.994836 0.0900938 6.17957e-20)
(0.994734 0.0899502 -1.69786e-19)
(0.994621 0.0897896 -2.12234e-19)
(0.994495 0.089608 -2.54307e-19)
(0.994356 0.0893981 1.56524e-19)
(0.994206 0.0891512 3.79429e-19)
(0.994048 0.0888604 1.33852e-19)
(0.993883 0.0885223 -1.28576e-19)
(0.993713 0.0881361 1.3926e-18)
(0.993541 0.0877019 -1.37853e-19)
(0.99337 0.0872208 1.51605e-18)
(0.993205 0.0866964 -2.79736e-18)
(0.993051 0.0861349 4.45107e-19)
(0.992914 0.0855467 8.112e-20)
(0.992799 0.084941 -1.62852e-19)
(0.992705 0.0843286 -2.4025e-18)
(0.992634 0.0837117 -3.90025e-18)
(0.992577 0.0830857 3.5426e-18)
(0.992534 0.0824239 4.6874e-18)
(0.992504 0.0816995 2.50267e-18)
(0.992456 0.0808786 -4.74599e-18)
(0.992402 0.0799001 2.54531e-18)
(0.992413 0.0786228 6.15708e-18)
(0.992473 0.0769239 2.64068e-18)
(0.992801 0.0747991 4.38374e-18)
(0.992903 0.0719202 2.17068e-18)
(0.993236 0.068039 6.31685e-18)
(0.992872 0.0615574 -4.79601e-18)
(0.996035 0.091035 1.71288e-21)
(0.996013 0.0910735 -5.11571e-21)
(0.995982 0.0911015 1.81895e-20)
(0.995945 0.0911315 4.73046e-21)
(0.995903 0.0911619 -2.47495e-20)
(0.995861 0.0911905 -2.83348e-20)
(0.99582 0.091217 6.66578e-20)
(0.995781 0.0912407 -7.22515e-20)
(0.995746 0.0912606 -1.7575e-20)
(0.995716 0.0912769 4.39442e-20)
(0.995689 0.0912891 4.03031e-20)
(0.995665 0.0912975 1.21363e-19)
(0.995644 0.0913017 -6.80014e-20)
(0.995625 0.0913026 -1.15316e-19)
(0.995607 0.0913003 2.51817e-20)
(0.995588 0.0912953 -9.21853e-20)
(0.995569 0.0912875 6.88516e-20)
(0.995547 0.0912766 -1.14181e-19)
(0.995522 0.0912626 1.87441e-20)
(0.995494 0.091244 -3.62875e-20)
(0.995462 0.0912219 -2.24807e-20)
(0.995426 0.0911933 -9.88743e-20)
(0.995384 0.0911615 9.52222e-21)
(0.995338 0.0911237 2.1194e-19)
(0.995285 0.0910831 -7.09573e-20)
(0.995224 0.0910344 2.17705e-20)
(0.995155 0.0909805 6.07378e-20)
(0.995081 0.0909177 -7.80189e-20)
(0.994999 0.0908453 -1.56251e-20)
(0.994911 0.0907572 1.04143e-19)
(0.994817 0.0906519 1.12894e-19)
(0.994717 0.0905298 -8.30688e-20)
(0.994608 0.0903929 -2.58634e-19)
(0.99449 0.0902403 -3.61938e-19)
(0.99436 0.09007 5.55864e-19)
(0.994215 0.0898779 1.49057e-19)
(0.994054 0.0896555 9.29315e-20)
(0.99388 0.0893931 4.81358e-19)
(0.993693 0.089083 -4.5033e-19)
(0.993497 0.088721 2.81482e-19)
(0.99329 0.0883051 -6.38415e-22)
(0.993075 0.0878343 3.1141e-20)
(0.992854 0.087308 -5.59318e-19)
(0.992632 0.0867277 1.28968e-18)
(0.992416 0.0860984 -1.73929e-18)
(0.99221 0.0854294 1.07611e-18)
(0.992023 0.0847299 -3.12877e-18)
(0.991859 0.0840118 8.83301e-19)
(0.991723 0.0832791 2.07338e-18)
(0.991611 0.0825292 -3.59778e-18)
(0.991535 0.0817357 -8.6025e-19)
(0.991496 0.0808719 -1.72511e-19)
(0.991474 0.0799036 -9.18916e-19)
(0.991483 0.0787699 -2.76122e-18)
(0.991594 0.077339 1.77219e-19)
(0.991805 0.0754924 2.57942e-18)
(0.99229 0.0732603 -2.63856e-18)
(0.992648 0.0703825 -7.08856e-19)
(0.993302 0.0666319 -9.05513e-19)
(0.993753 0.0605452 3.51958e-18)
(0.996032 0.0913757 3.16108e-21)
(0.996039 0.0914077 -2.65659e-21)
(0.99603 0.0914306 2.42421e-21)
(0.996009 0.0914549 1.54698e-20)
(0.995977 0.0914805 2.2379e-20)
(0.995938 0.0915052 -8.67961e-20)
(0.995895 0.0915292 6.23989e-20)
(0.995849 0.0915515 1.28949e-20)
(0.995804 0.0915716 -3.88773e-21)
(0.99576 0.0915892 -2.75342e-20)
(0.995718 0.091604 8.36461e-20)
(0.995679 0.0916159 -2.71335e-20)
(0.995642 0.0916245 -3.71339e-20)
(0.995607 0.0916302 -1.09443e-19)
(0.995574 0.0916331 2.1719e-19)
(0.99554 0.0916333 -4.4907e-20)
(0.995507 0.0916306 -3.72306e-20)
(0.995472 0.0916243 -1.0852e-19)
(0.995436 0.0916144 1.18874e-19)
(0.995396 0.0915992 6.50435e-20)
(0.995354 0.0915796 -2.94846e-20)
(0.995307 0.0915526 5.04597e-20)
(0.995255 0.0915212 -2.13194e-19)
(0.995199 0.0914828 1.47484e-20)
(0.995137 0.0914407 1.15752e-19)
(0.995066 0.0913898 -2.13727e-20)
(0.994988 0.091333 -3.31469e-19)
(0.994903 0.0912669 2.94304e-20)
(0.994811 0.0911904 2.77209e-19)
(0.994713 0.0910972 -7.10665e-20)
(0.994609 0.0909858 -1.36195e-19)
(0.994497 0.0908571 7.55512e-20)
(0.994377 0.0907134 2.2483e-19)
(0.994247 0.090554 5.25086e-19)
(0.994105 0.0903772 -8.14844e-20)
(0.993947 0.0901784 1.06294e-19)
(0.993772 0.0899487 -8.13464e-19)
(0.993582 0.0896774 -2.42463e-19)
(0.993378 0.0893566 1.53848e-19)
(0.993161 0.0889814 -6.37254e-19)
(0.992931 0.0885492 -1.48369e-19)
(0.992687 0.0880575 3.11078e-19)
(0.992433 0.0875041 2.39583e-19)
(0.992172 0.0868884 7.21854e-19)
(0.991909 0.0862134 2.50674e-18)
(0.991651 0.085486 -2.05424e-18)
(0.991407 0.0847141 3.3604e-18)
(0.991182 0.0839084 2.63274e-18)
(0.990989 0.0830731 -4.79219e-21)
(0.990829 0.0822064 3.51778e-18)
(0.990721 0.0812821 -4.83715e-18)
(0.990675 0.0802758 -5.77964e-18)
(0.990681 0.0791571 4.47497e-18)
(0.990755 0.0778712 3.81602e-18)
(0.990972 0.0763027 -1.57671e-18)
(0.991341 0.0743456 -8.83972e-18)
(0.991993 0.072061 2.05989e-18)
(0.992588 0.0692634 -2.00227e-18)
(0.993547 0.0657438 -2.99025e-18)
(0.995013 0.0602053 2.56662e-18)
(0.995918 0.0918625 -3.35804e-21)
(0.99596 0.0918822 3.66129e-21)
(0.995984 0.0918953 2.48301e-20)
(0.99599 0.091909 -3.22661e-20)
(0.995981 0.0919242 5.83357e-20)
(0.995958 0.091939 -8.52108e-20)
(0.995925 0.0919536 2.3961e-20)
(0.995884 0.0919674 -1.14858e-21)
(0.995839 0.0919799 5.23887e-20)
(0.99579 0.091991 -2.74045e-20)
(0.99574 0.0920005 7.97544e-21)
(0.99569 0.0920082 8.15097e-21)
(0.995641 0.0920136 -1.26352e-19)
(0.995592 0.0920173 3.77013e-20)
(0.995544 0.0920188 8.59244e-20)
(0.995496 0.0920183 2.46734e-21)
(0.995449 0.0920154 -1.40256e-19)
(0.9954 0.0920092 5.65943e-20)
(0.99535 0.0919995 2.60924e-19)
(0.995298 0.0919844 -1.69024e-19)
(0.995243 0.0919646 -1.26297e-19)
(0.995184 0.091937 1.06393e-19)
(0.995121 0.0919044 6.67407e-20)
(0.995053 0.0918639 7.38357e-20)
(0.994981 0.0918191 -1.41236e-19)
(0.9949 0.0917648 -2.95031e-19)
(0.994811 0.0917043 2.15709e-19)
(0.994717 0.0916341 2.96505e-19)
(0.994616 0.0915533 7.69311e-20)
(0.994509 0.0914549 -1.48839e-19)
(0.994396 0.091338 6.74025e-20)
(0.994277 0.0912037 1.0761e-19)
(0.994149 0.0910546 -1.86298e-19)
(0.994011 0.0908905 -3.21179e-20)
(0.993862 0.0907095 -3.26277e-19)
(0.993697 0.0905072 -9.23588e-20)
(0.993516 0.0902744 -7.92092e-20)
(0.99332 0.0900001 2.28881e-19)
(0.99311 0.089676 -3.10569e-19)
(0.992886 0.0892974 9.64733e-20)
(0.992647 0.0888609 1.48207e-19)
(0.992392 0.0883629 3.75467e-20)
(0.992123 0.0877999 -1.03735e-18)
(0.991843 0.0871692 -1.47127e-18)
(0.991556 0.0864714 -1.37707e-18)
(0.991268 0.0857107 2.72528e-18)
(0.99099 0.0848925 -4.06632e-20)
(0.990728 0.0840251 -1.20187e-18)
(0.990497 0.0831114 6.30621e-19)
(0.990305 0.0821492 -4.04432e-18)
(0.990179 0.0811126 2.0056e-18)
(0.990135 0.07998 5.51896e-18)
(0.990172 0.0787273 -4.34791e-19)
(0.990312 0.0773087 -4.79406e-18)
(0.99063 0.0756285 2.28946e-18)
(0.991149 0.0735964 2.14248e-18)
(0.991955 0.0712979 2.49448e-18)
(0.992745 0.0686145 5.42682e-18)
(0.99395 0.0653487 4.919e-18)
(0.996424 0.0603367 -5.7854e-18)
(0.995679 0.0924821 -2.79349e-21)
(0.995756 0.0924897 4.01738e-21)
(0.995814 0.0924906 8.31415e-22)
(0.995854 0.0924909 1.51155e-20)
(0.995874 0.0924921 -2.28027e-20)
(0.995878 0.0924927 -4.64532e-20)
(0.995866 0.0924931 1.6505e-20)
(0.995842 0.0924929 -2.17673e-20)
(0.995807 0.0924919 4.70366e-20)
(0.995764 0.0924902 -9.40267e-21)
(0.995715 0.0924877 -3.05517e-20)
(0.995663 0.0924845 2.51821e-20)
(0.995608 0.09248 4.03026e-20)
(0.995552 0.0924748 1.09698e-19)
(0.995494 0.0924685 -1.97478e-19)
(0.995436 0.0924612 9.97005e-20)
(0.995376 0.0924523 1.48926e-20)
(0.995316 0.0924408 -9.5951e-20)
(0.995254 0.0924264 -5.88161e-20)
(0.995189 0.0924071 1.91334e-19)
(0.995122 0.0923835 -1.97864e-19)
(0.995052 0.092352 5.90532e-20)
(0.994977 0.0923156 -1.55445e-19)
(0.994898 0.0922707 2.56912e-19)
(0.994815 0.0922214 -5.12491e-20)
(0.994724 0.0921622 -1.38271e-19)
(0.994627 0.0920964 1.07704e-19)
(0.994524 0.0920209 1.93602e-19)
(0.994415 0.0919347 -1.77141e-19)
(0.994301 0.0918309 1.05689e-19)
(0.994182 0.0917084 -3.42818e-19)
(0.994057 0.091569 -3.63676e-20)
(0.993924 0.0914152 1.42206e-19)
(0.993783 0.0912471 -8.17466e-20)
(0.993631 0.0910634 -1.63231e-19)
(0.993466 0.0908595 -3.89099e-19)
(0.993286 0.0906263 4.96459e-19)
(0.993091 0.0903527 -1.88923e-19)
(0.992884 0.0900305 1.53192e-19)
(0.992664 0.0896552 3.0282e-19)
(0.992428 0.089223 2.29351e-19)
(0.992177 0.0887295 -1.52926e-19)
(0.991909 0.0881699 5.68191e-19)
(0.991628 0.0875398 1.09322e-18)