/*--------------------------------*- C++ -*----------------------------------*\
  =========                 |
  \\      /  F ield         | OpenFOAM: The Open Source CFD Toolbox
   \\    /   O peration     | Website:  https://openfoam.org
    \\  /    A nd           | Version:  6.0
     \\/     M anipulation  |
\*---------------------------------------------------------------------------*/
FoamFile
{
    version     2.0;
    format      ascii;
    class       volScalarField;
    location    "2.34";
    object      p;
}
// * * * * * * * * * * * * * * * * * * * * * * * * * * * * * * * * * * * * * //

dimensions      [0 2 -2 0 0 0 0];

internalField   nonuniform List<scalar> 
13500
(
0.097904
0.097928
0.097461
0.096973
0.096091
0.095554
0.09483
0.095477
0.096625
0.10087
0.12245
0.16552
0.097905
0.097928
0.097461
0.096973
0.096091
0.095554
0.09483
0.095477
0.096621
0.10093
0.12177
0.16045
0.097905
0.097929
0.097462
0.096974
0.096091
0.095554
0.094828
0.095476
0.096611
0.10098
0.12089
0.15596
0.097906
0.09793
0.097463
0.096975
0.096091
0.095554
0.094825
0.095474
0.096596
0.101
0.11991
0.15246
0.097907
0.097931
0.097464
0.096976
0.096092
0.095554
0.094821
0.09547
0.096575
0.10101
0.11887
0.14951
0.097909
0.097933
0.097465
0.096977
0.096092
0.095554
0.094817
0.095465
0.096549
0.10101
0.1178
0.14688
0.097911
0.097935
0.097467
0.096978
0.096092
0.095553
0.094813
0.095459
0.096518
0.10099
0.11671
0.1445
0.097913
0.097937
0.097469
0.09698
0.096092
0.095552
0.094808
0.095452
0.096483
0.10096
0.11564
0.14231
0.097916
0.09794
0.097472
0.096982
0.096093
0.095551
0.094802
0.095444
0.096442
0.10092
0.11459
0.14029
0.097919
0.097943
0.097474
0.096984
0.096093
0.09555
0.094795
0.095434
0.096396
0.10086
0.11357
0.13841
0.097923
0.097946
0.097477
0.096986
0.096094
0.095549
0.094789
0.095423
0.096345
0.10079
0.11259
0.13665
0.097926
0.09795
0.097481
0.096988
0.096095
0.095547
0.094781
0.095411
0.096288
0.10071
0.11165
0.13498
0.097931
0.097954
0.097484
0.096991
0.096096
0.095545
0.094773
0.095398
0.096227
0.10062
0.11075
0.1334
0.097935
0.097958
0.097488
0.096994
0.096097
0.095543
0.094764
0.095383
0.09616
0.10051
0.1099
0.1319
0.097941
0.097963
0.097493
0.096997
0.096098
0.095541
0.094755
0.095367
0.096087
0.10041
0.10908
0.13047
0.097946
0.097969
0.097497
0.097
0.096099
0.095539
0.094745
0.095349
0.09601
0.10029
0.10829
0.12911
0.097952
0.097974
0.097503
0.097004
0.0961
0.095536
0.094735
0.09533
0.095927
0.10017
0.10755
0.1278
0.097958
0.09798
0.097508
0.097008
0.096102
0.095533
0.094724
0.09531
0.095839
0.10005
0.10683
0.12654
0.097965
0.097986
0.097514
0.097012
0.096103
0.09553
0.094712
0.095288
0.095746
0.099928
0.10613
0.12533
0.097972
0.097993
0.09752
0.097016
0.096105
0.095527
0.0947
0.095265
0.095648
0.099803
0.10546
0.12416
0.09798
0.098
0.097526
0.097021
0.096107
0.095523
0.094688
0.09524
0.095545
0.099677
0.10481
0.12303
0.097988
0.098008
0.097533
0.097025
0.096109
0.09552
0.094675
0.095213
0.095438
0.099552
0.10418
0.12194
0.097997
0.098016
0.09754
0.09703
0.096111
0.095516
0.094661
0.095185
0.095328
0.099427
0.10356
0.12088
0.098006
0.098024
0.097548
0.097035
0.096113
0.095512
0.094647
0.095156
0.095213
0.099303
0.10295
0.11985
0.098015
0.098033
0.097556
0.097041
0.096115
0.095507
0.094632
0.095125
0.095095
0.099181
0.10236
0.11884
0.098025
0.098042
0.097564
0.097047
0.096118
0.095503
0.094617
0.095092
0.094974
0.09906
0.10178
0.11787
0.098035
0.098052
0.097573
0.097053
0.09612
0.095498
0.094601
0.095058
0.09485
0.098941
0.1012
0.11691
0.098046
0.098062
0.097582
0.097059
0.096123
0.095493
0.094585
0.095023
0.094723
0.098823
0.10063
0.11598
0.098057
0.098072
0.097591
0.097065
0.096126
0.095488
0.094568
0.094985
0.094595
0.098706
0.10007
0.11506
0.098069
0.098083
0.097601
0.097072
0.096129
0.095482
0.094551
0.094947
0.094465
0.09859
0.09951
0.11417
0.098081
0.098095
0.097611
0.097079
0.096132
0.095477
0.094533
0.094907
0.094333
0.098474
0.098959
0.1133
0.098094
0.098107
0.097622
0.097087
0.096135
0.095471
0.094515
0.094865
0.0942
0.09836
0.098414
0.11244
0.098107
0.098119
0.097633
0.097094
0.096139
0.095465
0.094497
0.094823
0.094067
0.098245
0.097874
0.1116
0.098121
0.098131
0.097644
0.097102
0.096142
0.095459
0.094477
0.094779
0.093932
0.09813
0.097339
0.11078
0.098135
0.098145
0.097656
0.09711
0.096146
0.095452
0.094457
0.094734
0.093797
0.098015
0.09681
0.10997
0.09815
0.098158
0.097669
0.097119
0.09615
0.095446
0.094437
0.094687
0.093662
0.097899
0.096286
0.10918
0.098165
0.098172
0.097681
0.097127
0.096154
0.095439
0.094416
0.09464
0.093526
0.097782
0.095768
0.1084
0.09818
0.098187
0.097695
0.097137
0.096159
0.095432
0.094395
0.094592
0.09339
0.097664
0.095256
0.10764
0.098197
0.098202
0.097708
0.097146
0.096163
0.095425
0.094373
0.094544
0.093254
0.097544
0.09475
0.1069
0.098213
0.098218
0.097722
0.097156
0.096168
0.095418
0.094351
0.094494
0.093118
0.097423
0.09425
0.10616
0.09823
0.098234
0.097737
0.097166
0.096173
0.09541
0.094328
0.094444
0.092982
0.0973
0.093756
0.10544
0.098248
0.09825
0.097752
0.097176
0.096178
0.095403
0.094305
0.094394
0.092846
0.097175
0.093269
0.10474
0.098266
0.098267
0.097767
0.097187
0.096183
0.095395
0.094281
0.094343
0.09271
0.097048
0.092788
0.10404
0.098285
0.098285
0.097783
0.097197
0.096188
0.095387
0.094256
0.094292
0.092574
0.096919
0.092314
0.10336
0.098305
0.098303
0.097799
0.097209
0.096194
0.095379
0.094231
0.09424
0.092438
0.096788
0.091847
0.1027
0.098324
0.098322
0.097816
0.09722
0.0962
0.095371
0.094206
0.094188
0.092302
0.096655
0.091387
0.10204
0.098345
0.098341
0.097833
0.097232
0.096206
0.095363
0.09418
0.094137
0.092166
0.096519
0.090934
0.1014
0.098366
0.09836
0.097851
0.097245
0.096212
0.095355
0.094153
0.094085
0.092029
0.096382
0.090488
0.10077
0.098387
0.098381
0.097869
0.097257
0.096218
0.095346
0.094126
0.094033
0.091893
0.096241
0.09005
0.10015
0.09841
0.098401
0.097887
0.09727
0.096225
0.095338
0.094099
0.093981
0.091756
0.096099
0.089618
0.099536
0.098432
0.098423
0.097906
0.097284
0.096232
0.095329
0.094071
0.093929
0.091619
0.095955
0.089193
0.098937
0.098456
0.098444
0.097926
0.097298
0.096239
0.095321
0.094042
0.093878
0.091482
0.095808
0.088776
0.098349
0.098479
0.098467
0.097946
0.097312
0.096246
0.095313
0.094013
0.093826
0.091344
0.095659
0.088365
0.097771
0.098504
0.09849
0.097967
0.097326
0.096254
0.095304
0.093984
0.093775
0.091206
0.095508
0.087962
0.097203
0.098529
0.098513
0.097988
0.097341
0.096261
0.095296
0.093954
0.093724
0.091067
0.095355
0.087566
0.096645
0.098555
0.098537
0.098009
0.097357
0.096269
0.095287
0.093924
0.093673
0.090929
0.0952
0.087176
0.096096
0.098581
0.098562
0.098032
0.097372
0.096277
0.095279
0.093893
0.093622
0.090789
0.095043
0.086793
0.095556
0.098608
0.098587
0.098054
0.097389
0.096286
0.09527
0.093861
0.093572
0.09065
0.094884
0.086417
0.095025
0.098635
0.098613
0.098077
0.097405
0.096294
0.095262
0.093829
0.093521
0.090509
0.094723
0.086047
0.094503
0.098663
0.09864
0.098101
0.097422
0.096303
0.095254
0.093797
0.093471
0.090369
0.09456
0.085684
0.093989
0.098692
0.098667
0.098125
0.09744
0.096312
0.095246
0.093764
0.093421
0.090228
0.094396
0.085327
0.093483
0.098721
0.098694
0.09815
0.097457
0.096322
0.095238
0.093731
0.09337
0.090087
0.09423
0.084977
0.092985
0.098751
0.098723
0.098175
0.097476
0.096331
0.09523
0.093697
0.09332
0.089945
0.094063
0.084632
0.092495
0.098782
0.098752
0.098201
0.097494
0.096341
0.095222
0.093663
0.093271
0.089804
0.093894
0.084294
0.092013
0.098813
0.098781
0.098228
0.097514
0.096351
0.095214
0.093628
0.093221
0.089662
0.093723
0.083961
0.091538
0.098845
0.098811
0.098255
0.097533
0.096361
0.095207
0.093593
0.093171
0.089519
0.093551
0.083635
0.091069
0.098878
0.098842
0.098282
0.097553
0.096372
0.0952
0.093558
0.093121
0.089377
0.093378
0.083314
0.090608
0.098911
0.098874
0.09831
0.097574
0.096383
0.095192
0.093522
0.093071
0.089235
0.093204
0.082999
0.090154
0.098945
0.098906
0.098339
0.097595
0.096394
0.095185
0.093486
0.093022
0.089092
0.093029
0.082689
0.089706
0.09898
0.098939
0.098368
0.097617
0.096405
0.095179
0.093449
0.092972
0.088949
0.092852
0.082384
0.089265
0.099015
0.098972
0.098398
0.097639
0.096417
0.095172
0.093412
0.092922
0.088807
0.092674
0.082085
0.08883
0.099051
0.099007
0.098429
0.097661
0.096429
0.095166
0.093375
0.092872
0.088664
0.092495
0.08179
0.088401
0.099088
0.099041
0.09846
0.097685
0.096441
0.09516
0.093337
0.092822
0.088522
0.092316
0.081501
0.087978
0.099126
0.099077
0.098491
0.097708
0.096453
0.095154
0.093299
0.092772
0.088379
0.092135
0.081217
0.087561
0.099164
0.099113
0.098524
0.097732
0.096466
0.095148
0.093261
0.092722
0.088237
0.091953
0.080937
0.087149
0.099203
0.099151
0.098557
0.097757
0.096479
0.095143
0.093222
0.092672
0.088095
0.091771
0.080662
0.086743
0.099243
0.099188
0.09859
0.097782
0.096492
0.095138
0.093183
0.092621
0.087954
0.091588
0.080392
0.086342
0.099283
0.099227
0.098625
0.097808
0.096506
0.095133
0.093144
0.092571
0.087812
0.091404
0.080126
0.085947
0.099324
0.099266
0.098659
0.097835
0.09652
0.095129
0.093104
0.09252
0.087671
0.09122
0.079865
0.085557
0.099366
0.099306
0.098695
0.097861
0.096534
0.095124
0.093064
0.092469
0.087531
0.091035
0.079607
0.085171
0.099409
0.099347
0.098731
0.097889
0.096549
0.09512
0.093024
0.092418
0.087391
0.090849
0.079354
0.084791
0.099453
0.099389
0.098768
0.097917
0.096564
0.095117
0.092984
0.092367
0.087251
0.090663
0.079105
0.084415
0.099497
0.099431
0.098806
0.097946
0.096579
0.095114
0.092943
0.092316
0.087112
0.090476
0.07886
0.084044
0.099542
0.099474
0.098844
0.097975
0.096594
0.095111
0.092902
0.092264
0.086973
0.090289
0.078619
0.083677
0.099588
0.099518
0.098883
0.098005
0.09661
0.095108
0.092862
0.092212
0.086835
0.090101
0.078381
0.083315
0.099635
0.099563
0.098923
0.098036
0.096627
0.095106
0.09282
0.09216
0.086697
0.089913
0.078147
0.082957
0.099682
0.099609
0.098963
0.098067
0.096643
0.095104
0.092779
0.092108
0.08656
0.089725
0.077917
0.082603
0.099731
0.099655
0.099004
0.098099
0.09666
0.095102
0.092738
0.092055
0.086424
0.089536
0.07769
0.082253
0.09978
0.099703
0.099046
0.098131
0.096678
0.095101
0.092696
0.092002
0.086288
0.089347
0.077466
0.081907
0.09983
0.099751
0.099089
0.098165
0.096696
0.095101
0.092655
0.091949
0.086153
0.089157
0.077246
0.081565
0.099881
0.0998
0.099132
0.098199
0.096714
0.0951
0.092613
0.091896
0.086019
0.088967
0.077029
0.081227
0.099933
0.09985
0.099177
0.098233
0.096733
0.095101
0.092571
0.091842
0.085885
0.088777
0.076815
0.080893
0.099986
0.099901
0.099222
0.098268
0.096752
0.095101
0.092529
0.091788
0.085752
0.088587
0.076604
0.080561
0.10004
0.099953
0.099268
0.098304
0.096772
0.095102
0.092487
0.091734
0.08562
0.088397
0.076396
0.080234
0.10009
0.10001
0.099314
0.098341
0.096792
0.095104
0.092445
0.09168
0.085489
0.088206
0.076191
0.07991
0.10015
0.10006
0.099362
0.098379
0.096812
0.095106
0.092403
0.091625
0.085359
0.088016
0.075988
0.079588
0.10021
0.10011
0.099411
0.098417
0.096834
0.095108
0.092361
0.09157
0.085229
0.087825
0.075788
0.079271
0.10026
0.10017
0.09946
0.098456
0.096855
0.095111
0.092319
0.091514
0.0851
0.087634
0.075591
0.078956
0.10032
0.10023
0.09951
0.098496
0.096877
0.095115
0.092277
0.091459
0.084972
0.087443
0.075396
0.078644
0.10038
0.10028
0.099562
0.098537
0.0969
0.095119
0.092235
0.091403
0.084845
0.087251
0.075204
0.078335
0.10044
0.10034
0.099614
0.098578
0.096923
0.095123
0.092193
0.091346
0.084719
0.08706
0.075014
0.078028
0.10051
0.1004
0.099667
0.09862
0.096947
0.095129
0.092151
0.09129
0.084593
0.086869
0.074826
0.077725
0.10057
0.10046
0.099721
0.098664
0.096971
0.095134
0.09211
0.091233
0.084469
0.086677
0.07464
0.077424
0.10063
0.10053
0.099777
0.098708
0.096996
0.095141
0.092068
0.091176
0.084345
0.086486
0.074457
0.077125
0.1007
0.10059
0.099833
0.098753
0.097022
0.095148
0.092026
0.091118
0.084222
0.086294
0.074275
0.076829
0.10077
0.10066
0.09989
0.098799
0.097048
0.095155
0.091985
0.09106
0.0841
0.086103
0.074095
0.076535
0.10083
0.10072
0.099949
0.098846
0.097075
0.095163
0.091944
0.091002
0.083979
0.085911
0.073917
0.076244
0.1009
0.10079
0.10001
0.098894
0.097103
0.095172
0.091903
0.090943
0.083858
0.085719
0.073741
0.075954
0.10097
0.10086
0.10007
0.098943
0.097131
0.095182
0.091863
0.090885
0.083739
0.085528
0.073567
0.075667
0.10104
0.10093
0.10013
0.098993
0.09716
0.095192
0.091822
0.090825
0.083621
0.085336
0.073394
0.075381
0.10112
0.101
0.10019
0.099044
0.09719
0.095203
0.091782
0.090766
0.083503
0.085144
0.073223
0.075098
0.10119
0.10107
0.10026
0.099096
0.09722
0.095215
0.091743
0.090706
0.083386
0.084953
0.073053
0.074816
0.10127
0.10114
0.10032
0.09915
0.097252
0.095228
0.091703
0.090646
0.08327
0.084761
0.072885
0.074536
0.10134
0.10122
0.10039
0.099204
0.097284
0.095241
0.091664
0.090586
0.083155
0.084569
0.072718
0.074257
0.10142
0.10129
0.10046
0.09926
0.097317
0.095256
0.091626
0.090525
0.083041
0.084378
0.072552
0.07398
0.1015
0.10137
0.10053
0.099317
0.097351
0.095271
0.091588
0.090465
0.082928
0.084186
0.072387
0.073704
0.10158
0.10145
0.1006
0.099376
0.097386
0.095287
0.09155
0.090403
0.082815
0.083994
0.072224
0.07343
0.10167
0.10153
0.10068
0.099436
0.097422
0.095304
0.091514
0.090342
0.082704
0.083803
0.072061
0.073157
0.10175
0.10162
0.10075
0.099497
0.097459
0.095322
0.091477
0.090281
0.082593
0.083611
0.0719
0.072885
0.10184
0.1017
0.10083
0.09956
0.097497
0.095341
0.091441
0.090219
0.082483
0.083419
0.071739
0.072614
0.10193
0.10179
0.1009
0.099624
0.097536
0.095361
0.091406
0.090157
0.082374
0.083228
0.071579
0.072344
0.10202
0.10188
0.10098
0.09969
0.097576
0.095382
0.091372
0.090095
0.082266
0.083036
0.07142
0.072075
0.10211
0.10197
0.10107
0.099758
0.097618
0.095404
0.091339
0.090032
0.082158
0.082844
0.071261
0.071807
0.1022
0.10206
0.10115
0.099827
0.097661
0.095427
0.091306
0.08997
0.082052
0.082652
0.071103
0.07154
0.1023
0.10215
0.10123
0.099898
0.097705
0.095451
0.091274
0.089908
0.081946
0.08246
0.070946
0.071273
0.1024
0.10225
0.10132
0.099971
0.09775
0.095477
0.091243
0.089845
0.081841
0.082269
0.070788
0.071006
0.1025
0.10235
0.10141
0.10005
0.097797
0.095504
0.091213
0.089782
0.081737
0.082077
0.070632
0.07074
0.1026
0.10245
0.1015
0.10012
0.097846
0.095532
0.091184
0.08972
0.081634
0.081885
0.070475
0.070475
0.1027
0.10255
0.1016
0.1002
0.097896
0.095562
0.091156
0.089657
0.081531
0.081693
0.070319
0.070209
0.10281
0.10266
0.10169
0.10028
0.097948
0.095593
0.09113
0.089594
0.08143
0.081501
0.070163
0.069944
0.10292
0.10277
0.10179
0.10037
0.098001
0.095626
0.091104
0.089532
0.081329
0.081309
0.070007
0.069679
0.10303
0.10288
0.10189
0.10045
0.098057
0.09566
0.09108
0.08947
0.081229
0.081116
0.069851
0.069413
0.10315
0.10299
0.10199
0.10054
0.098114
0.095696
0.091057
0.089407
0.08113
0.080924
0.069695
0.069148
0.10327
0.10311
0.1021
0.10063
0.098173
0.095734
0.091036
0.089345
0.081032
0.080732
0.069539
0.068882
0.10339
0.10323
0.10221
0.10072
0.098235
0.095773
0.091016
0.089284
0.080934
0.080539
0.069383
0.068616
0.10351
0.10335
0.10232
0.10082
0.098298
0.095814
0.090998
0.089222
0.080838
0.080347
0.069226
0.068349
0.10364
0.10348
0.10244
0.10092
0.098364
0.095857
0.090981
0.089161
0.080742
0.080154
0.069069
0.068082
0.10377
0.10361
0.10255
0.10102
0.098433
0.095903
0.090966
0.0891
0.080647
0.079961
0.068911
0.067815
0.1039
0.10374
0.10267
0.10113
0.098504
0.09595
0.090953
0.08904
0.080553
0.079768
0.068753
0.067546
0.10404
0.10387
0.1028
0.10124
0.098578
0.096
0.090942
0.088981
0.08046
0.079575
0.068595
0.067277
0.10418
0.10401
0.10293
0.10135
0.098654
0.096052
0.090933
0.088922
0.080368
0.079382
0.068436
0.067006
0.10432
0.10416
0.10306
0.10146
0.098734
0.096106
0.090926
0.088864
0.080277
0.079189
0.068276
0.066735
0.10447
0.1043
0.10319
0.10158
0.098816
0.096163
0.090922
0.088806
0.080187
0.078996
0.068115
0.066462
0.10462
0.10446
0.10333
0.1017
0.098902
0.096223
0.09092
0.088749
0.080098
0.078802
0.067953
0.066188
0.10478
0.10461
0.10348
0.10183
0.098991
0.096285
0.09092
0.088694
0.080009
0.078609
0.067791
0.065912
0.10494
0.10477
0.10363
0.10196
0.099084
0.096351
0.090923
0.088639
0.079922
0.078415
0.067627
0.065635
0.10511
0.10494
0.10378
0.1021
0.099181
0.096419
0.090928
0.088585
0.079836
0.078221
0.067463
0.065356
0.10528
0.10511
0.10394
0.10224
0.099281
0.096491
0.090937
0.088533
0.079751
0.078027
0.067297
0.065076
0.10545
0.10528
0.1041
0.10238
0.099386
0.096566
0.090948
0.088482
0.079667
0.077833
0.06713
0.064793
0.10563
0.10546
0.10427
0.10253
0.099495
0.096644
0.090963
0.088432
0.079585
0.077638
0.066961
0.064508
0.10582
0.10565
0.10444
0.10269
0.099608
0.096727
0.090981
0.088384
0.079503
0.077444
0.066791
0.064221
0.10601
0.10584
0.10462
0.10285
0.099726
0.096813
0.091002
0.088337
0.079423
0.077249
0.06662
0.063932
0.10621
0.10604
0.1048
0.10301
0.099849
0.096903
0.091027
0.088293
0.079344
0.077054
0.066447
0.06364
0.10641
0.10624
0.10499
0.10319
0.099978
0.096997
0.091056
0.08825
0.079266
0.076859
0.066272
0.063346
0.10662
0.10645
0.10519
0.10336
0.10011
0.097096
0.091088
0.088208
0.07919
0.076664
0.066096
0.063049
0.10683
0.10667
0.10539
0.10355
0.10025
0.097199
0.091125
0.088169
0.079115
0.076469
0.065917
0.062749
0.10705
0.10689
0.1056
0.10374
0.1004
0.097307
0.091165
0.088133
0.079042
0.076273
0.065737
0.062445
0.10728
0.10712
0.10581
0.10394
0.10055
0.09742
0.091211
0.088098
0.07897
0.076077
0.065554
0.062139
0.10752
0.10736
0.10604
0.10414
0.1007
0.097538
0.09126
0.088066
0.0789
0.075881
0.06537
0.061829
0.10776
0.1076
0.10627
0.10435
0.10087
0.097662
0.091315
0.088037
0.078831
0.075685
0.065183
0.061515
0.10801
0.10785
0.10651
0.10457
0.10104
0.097791
0.091374
0.08801
0.078764
0.075488
0.064993
0.061198
0.10827
0.10812
0.10675
0.1048
0.10122
0.097926
0.091439
0.087986
0.078698
0.075292
0.064802
0.060876
0.10854
0.10839
0.10701
0.10503
0.1014
0.098067
0.091509
0.087965
0.078634
0.075094
0.064607
0.060551
0.10881
0.10866
0.10727
0.10528
0.10159
0.098214
0.091584
0.087947
0.078572
0.074897
0.06441
0.060221
0.1091
0.10895
0.10754
0.10553
0.10179
0.098368
0.091665
0.087933
0.078512
0.074699
0.064209
0.059886
0.10939
0.10925
0.10783
0.10579
0.102
0.098528
0.091752
0.087922
0.078453
0.074501
0.064006
0.059546
0.10969
0.10955
0.10812
0.10606
0.10222
0.098696
0.091845
0.087914
0.078396
0.074302
0.063799
0.059202
0.11
0.10987
0.10842
0.10634
0.10245
0.098871
0.091944
0.087909
0.078341
0.074102
0.063589
0.058852
0.11032
0.1102
0.10873
0.10663
0.10268
0.099053
0.09205
0.087909
0.078288
0.073902
0.063375
0.058496
0.11065
0.11053
0.10905
0.10693
0.10293
0.099243
0.092162
0.087912
0.078236
0.073701
0.063158
0.058135
0.111
0.11088
0.10938
0.10724
0.10318
0.09944
0.092281
0.087919
0.078186
0.0735
0.062936
0.057767
0.11135
0.11124
0.10973
0.10756
0.10345
0.099646
0.092407
0.08793
0.078138
0.073297
0.06271
0.057393
0.11171
0.11161
0.11008
0.10789
0.10372
0.09986
0.09254
0.087945
0.078092
0.073093
0.062479
0.057012
0.11209
0.112
0.11045
0.10824
0.10401
0.10008
0.092681
0.087964
0.078047
0.072888
0.062244
0.056624
0.11247
0.11239
0.11083
0.1086
0.10431
0.10032
0.092828
0.087988
0.078004
0.072681
0.062003
0.056228
0.11287
0.1128
0.11122
0.10896
0.10462
0.10056
0.092984
0.088015
0.077962
0.072473
0.061758
0.055824
0.11328
0.11322
0.11163
0.10935
0.10494
0.10081
0.093147
0.088047
0.077922
0.072263
0.061506
0.055412
0.11371
0.11365
0.11205
0.10974
0.10527
0.10107
0.093318
0.088083
0.077883
0.072051
0.061248
0.054991
0.11415
0.1141
0.11248
0.11015
0.10562
0.10134
0.093497
0.088123
0.077845
0.071837
0.060984
0.054561
0.1146
0.11456
0.11293
0.11057
0.10597
0.10162
0.093685
0.088167
0.077808
0.071619
0.060713
0.054121
0.11506
0.11504
0.11339
0.111
0.10634
0.10191
0.09388
0.088216
0.077771
0.071399
0.060435
0.053671
0.11554
0.11553
0.11387
0.11145
0.10673
0.10221
0.094084
0.088268
0.077735
0.071176
0.060148
0.05321
0.11603
0.11604
0.11436
0.11192
0.10713
0.10252
0.094296
0.088325
0.0777
0.070949
0.059854
0.052737
0.11654
0.11656
0.11487
0.1124
0.10754
0.10284
0.094517
0.088386
0.077664
0.070718
0.059551
0.052253
0.11706
0.1171
0.1154
0.11289
0.10797
0.10317
0.094746
0.08845
0.077628
0.070482
0.059238
0.051756
0.1176
0.11765
0.11594
0.1134
0.10841
0.10352
0.094984
0.088518
0.077591
0.070241
0.058915
0.051245
0.11816
0.11823
0.1165
0.11393
0.10887
0.10387
0.095231
0.08859
0.077554
0.069995
0.058582
0.050721
0.11873
0.11882
0.11708
0.11448
0.10934
0.10424
0.095487
0.088665
0.077515
0.069743
0.058237
0.050182
0.11932
0.11943
0.11768
0.11504
0.10983
0.10462
0.095751
0.088743
0.077474
0.069484
0.05788
0.049627
0.11993
0.12005
0.1183
0.11563
0.11034
0.10502
0.096025
0.088825
0.077431
0.069218
0.05751
0.049055
0.12056
0.1207
0.11893
0.11623
0.11087
0.10542
0.096308
0.088909
0.077385
0.068944
0.057127
0.048467
0.12121
0.12137
0.1196
0.11685
0.11141
0.10584
0.0966
0.088996
0.077337
0.068661
0.056729
0.04786
0.12188
0.12206
0.12028
0.11749
0.11198
0.10628
0.096901
0.089086
0.077285
0.068369
0.056316
0.047234
0.12257
0.12278
0.12098
0.11816
0.11256
0.10672
0.097212
0.089178
0.077228
0.068067
0.055886
0.046587
0.12328
0.12352
0.12172
0.11885
0.11316
0.10719
0.097533
0.089272
0.077167
0.067755
0.055439
0.045919
0.12402
0.12428
0.12247
0.11956
0.11379
0.10767
0.097864
0.089368
0.077101
0.06743
0.054974
0.045229
0.12478
0.12507
0.12326
0.1203
0.11444
0.10816
0.098205
0.089466
0.07703
0.067094
0.05449
0.044515
0.12557
0.12589
0.12408
0.12107
0.11512
0.10868
0.098557
0.089565
0.076952
0.066744
0.053985
0.043776
0.12639
0.12674
0.12492
0.12186
0.11582
0.10921
0.098921
0.089667
0.076867
0.066379
0.053458
0.043011
0.12724
0.12762
0.1258
0.12269
0.11655
0.10976
0.099296
0.08977
0.076775
0.066
0.052909
0.042218
0.12812
0.12854
0.12672
0.12355
0.11731
0.11033
0.099683
0.089874
0.076675
0.065604
0.052335
0.041397
0.12904
0.12949
0.12768
0.12445
0.1181
0.11093
0.10008
0.08998
0.076566
0.065192
0.051736
0.040544
0.12999
0.13049
0.12868
0.12539
0.11892
0.11155
0.1005
0.090087
0.076448
0.06476
0.05111
0.039659
0.13099
0.13152
0.12972
0.12637
0.11978
0.11219
0.10092
0.090196
0.07632
0.06431
0.050456
0.038741
0.13203
0.13261
0.13081
0.12739
0.12069
0.11286
0.10137
0.090306
0.076181
0.063838
0.049771
0.037786
0.13311
0.13374
0.13195
0.12847
0.12163
0.11357
0.10183
0.090417
0.07603
0.063344
0.049055
0.036794
0.13425
0.13493
0.13315
0.12959
0.12262
0.1143
0.1023
0.090528
0.075865
0.062826
0.048304
0.035762
0.13544
0.13618
0.13441
0.13078
0.12365
0.11507
0.10279
0.09064
0.075686
0.062282
0.047518
0.034687
0.13668
0.13749
0.13574
0.13202
0.12474
0.11587
0.1033
0.090752
0.075491
0.06171
0.046694
0.033568
0.13799
0.13886
0.13713
0.13333
0.12588
0.11671
0.10383
0.090862
0.075278
0.061107
0.045828
0.032402
0.13936
0.14031
0.1386
0.13471
0.12708
0.11759
0.10438
0.09097
0.075044
0.060471
0.044917
0.031186
0.1408
0.14184
0.14015
0.13617
0.12835
0.11851
0.10494
0.091074
0.074786
0.059797
0.043959
0.029916
0.14232
0.14344
0.14179
0.13771
0.12968
0.11948
0.10552
0.091172
0.074501
0.059082
0.042949
0.028588
0.14391
0.14514
0.14352
0.13933
0.13108
0.12049
0.10612
0.091261
0.074185
0.058322
0.041882
0.0272
0.14558
0.14693
0.14534
0.14105
0.13255
0.12155
0.10674
0.091337
0.073833
0.05751
0.040752
0.025745
0.14734
0.14881
0.14727
0.14286
0.1341
0.12265
0.10736
0.091396
0.073438
0.05664
0.039554
0.024219
0.14919
0.15081
0.14931
0.14478
0.13572
0.1238
0.108
0.091433
0.072994
0.055705
0.038281
0.022615
0.15113
0.1529
0.15147
0.14681
0.13743
0.125
0.10864
0.091441
0.072493
0.054697
0.036924
0.020927
0.15316
0.15512
0.15374
0.14895
0.13923
0.12624
0.10928
0.091412
0.071926
0.053606
0.035474
0.019147
0.1553
0.15745
0.15615
0.1512
0.1411
0.12752
0.10991
0.091338
0.071281
0.052422
0.033922
0.017266
0.15753
0.15992
0.15869
0.15359
0.14307
0.12885
0.11053
0.091208
0.070548
0.051133
0.032257
0.015274
0.15987
0.16251
0.16138
0.1561
0.14512
0.1302
0.11112
0.09101
0.069714
0.049726
0.030467
0.013161
0.16232
0.16525
0.16422
0.15875
0.14727
0.13158
0.11168
0.090731
0.068763
0.048189
0.028539
0.010915
0.16489
0.16814
0.16723
0.16155
0.1495
0.13299
0.11219
0.090353
0.06768
0.046506
0.02646
0.0085249
0.16757
0.17119
0.17042
0.1645
0.15183
0.1344
0.11264
0.089861
0.066446
0.04466
0.024216
0.0059775
0.17039
0.17441
0.17381
0.16762
0.15425
0.13582
0.11301
0.08923
0.065042
0.042635
0.021791
0.0032604
0.17333
0.17784
0.17741
0.17092
0.15676
0.13722
0.11327
0.088437
0.063443
0.040411
0.01917
0.00036058
0.17642
0.18147
0.18127
0.17442
0.15936
0.13859
0.1134
0.087451
0.061622
0.037965
0.016335
-0.0027348
0.17967
0.18535
0.18539
0.17812
0.16204
0.1399
0.11336
0.086236
0.059546
0.035271
0.013267
-0.0060389
0.18308
0.1895
0.18983
0.18205
0.16481
0.14113
0.11312
0.084745
0.057176
0.032297
0.0099433
-0.0095652
0.18667
0.19394
0.1946
0.18622
0.16763
0.14222
0.11261
0.082923
0.054463
0.029006
0.0063367
-0.013329
0.19044
0.19872
0.19976
0.19064
0.17048
0.14312
0.11176
0.080704
0.051349
0.025353
0.0024158
-0.017346
0.19439
0.20387
0.20533
0.19531
0.17331
0.14376
0.1105
0.078005
0.047767
0.021285
-0.0018564
-0.021636
0.19851
0.2094
0.21134
0.20021
0.17605
0.14403
0.10871
0.074732
0.043639
0.016742
-0.0065212
-0.02622
0.20275
0.21535
0.21779
0.20529
0.17859
0.1438
0.10626
0.070775
0.03888
0.011662
-0.011621
-0.031118
0.20709
0.2217
0.22466
0.21046
0.18079
0.14291
0.103
0.066014
0.033402
0.005983
-0.017194
-0.036346
0.21143
0.22844
0.2319
0.21557
0.18243
0.14113
0.098764
0.060324
0.027124
-0.00034264
-0.023265
-0.041908
0.21569
0.23549
0.23936
0.22039
0.18323
0.13822
0.093345
0.053578
0.019977
-0.0073426
-0.029834
-0.047786
0.21974
0.24272
0.24678
0.22455
0.1828
0.13386
0.086535
0.045661
0.011916
-0.015012
-0.036867
-0.053932
0.22345
0.2499
0.25373
0.2275
0.18065
0.12769
0.07812
0.036478
0.0029307
-0.023308
-0.044287
-0.06026
0.22671
0.25658
0.25942
0.22838
0.1761
0.11928
0.0679
0.025976
-0.0069451
-0.032145
-0.051979
-0.066651
0.22945
0.26202
0.26256
0.22595
0.16827
0.10818
0.055725
0.01417
-0.017617
-0.041392
-0.059794
-0.072961
0.23171
0.26497
0.26109
0.21835
0.15605
0.093937
0.041538
0.0011843
-0.028909
-0.050873
-0.067563
-0.079045
0.23375
0.26349
0.25193
0.20307
0.13807
0.076119
0.025413
-0.012727
-0.040547
-0.060359
-0.075106
-0.084775
0.2362
0.25494
0.23093
0.17691
0.11278
0.054343
0.0075288
-0.027208
-0.052181
-0.069584
-0.08225
-0.09006
0.24001
0.23642
0.19371
0.13658
0.078669
0.028268
-0.011934
-0.041916
-0.063475
-0.0783
-0.08885
-0.094852
0.24581
0.20476
0.13718
0.08012
0.034806
-0.0023707
-0.032924
-0.056687
-0.07425
-0.086373
-0.094851
-0.099183
0.2542
0.15397
0.057444
0.0061329
-0.019704
-0.038316
-0.055981
-0.071889
-0.084769
-0.094024
-0.10047
-0.10332
0.27588
0.086191
-0.044307
-0.083383
-0.084289
-0.080436
-0.082449
-0.088837
-0.096189
-0.10223
-0.10654
-0.10801
0.32267
0.019945
-0.15032
-0.17445
-0.14969
-0.12395
-0.11051
-0.10715
-0.10867
-0.11128
-0.11338
-0.11344
0.10329
0.063994
0.053926
0.047941
0.043823
0.040721
0.038241
0.036034
0.034155
0.032073
0.030512
0.027534
0.12269
0.07931
0.066797
0.058829
0.053407
0.049377
0.046189
0.043379
0.04102
0.038409
0.03653
0.033015
0.10995
0.074109
0.062782
0.054937
0.049581
0.045621
0.042513
0.039789
0.037541
0.035035
0.033327
0.029916
0.10486
0.073731
0.062728
0.054789
0.049296
0.045221
0.042031
0.03924
0.036962
0.034407
0.032722
0.029165
0.1042
0.075873
0.064708
0.05655
0.050812
0.04653
0.043174
0.040239
0.037856
0.035177
0.033435
0.029681
0.10354
0.077666
0.066425
0.05813
0.052193
0.047732
0.044229
0.041164
0.038684
0.035896
0.034094
0.030194
0.10241
0.078929
0.067759
0.059409
0.053323
0.048714
0.045085
0.04191
0.039346
0.036472
0.034615
0.030624
0.10121
0.079967
0.068958
0.060604
0.054401
0.04966
0.045916
0.042638
0.039994
0.037049
0.035139
0.031105
0.1001
0.080866
0.070087
0.061773
0.055484
0.050625
0.046771
0.043396
0.040676
0.037672
0.03571
0.031682
0.099034
0.081617
0.071132
0.062903
0.05656
0.051602
0.047648
0.044185
0.041391
0.038341
0.036332
0.032356
0.098007
0.082218
0.072081
0.063978
0.057618
0.052582
0.048541
0.044999
0.042138
0.039056
0.037007
0.033128
0.097012
0.082683
0.072931
0.06499
0.058648
0.053559
0.049446
0.045837
0.042917
0.039816
0.037735
0.033992
0.096051
0.083028
0.073681
0.065932
0.05964
0.054524
0.050356
0.046694
0.043723
0.040618
0.038513
0.034941
0.095124
0.083266
0.074335
0.066799
0.060586
0.055467
0.051263
0.047562
0.04455
0.041455
0.039334
0.035959
0.094233
0.083412
0.074896
0.067589
0.061477
0.056379
0.052156
0.048433
0.045391
0.042318
0.040188
0.037028
0.093378
0.083482
0.07537
0.0683
0.06231
0.057252
0.053028
0.049296
0.046236
0.043196
0.041063
0.038128
0.09256
0.083486
0.075765
0.068936
0.063081
0.058081
0.053872
0.050145
0.047076
0.04408
0.041949
0.03924
0.091778
0.083435
0.076088
0.0695
0.06379
0.058861
0.054681
0.050973
0.047904
0.044958
0.042834
0.040345
0.091032
0.083341
0.076346
0.069995
0.064437
0.059592
0.055452
0.051772
0.048712
0.045823
0.043707
0.041426
0.090319
0.083209
0.076547
0.070428
0.065025
0.060271
0.05618
0.052539
0.049495
0.046666
0.044559
0.04247
0.089639
0.083048
0.076697
0.070803
0.065555
0.0609
0.056866
0.053271
0.050247
0.047481
0.045384
0.043464
0.08899
0.082864
0.076802
0.071124
0.066031
0.06148
0.057508
0.053965
0.050967
0.048262
0.046176
0.044402
0.08837
0.08266
0.076869
0.071398
0.066458
0.062011
0.058107
0.05462
0.051651
0.049007
0.04693
0.045278
0.087778
0.08244
0.076902
0.071628
0.066838
0.062498
0.058664
0.055235
0.052299
0.049712
0.047645
0.046089
0.08721
0.082209
0.076906
0.07182
0.067174
0.062941
0.059179
0.055812
0.05291
0.050377
0.048319
0.046836
0.086666
0.081968
0.076884
0.071977
0.067472
0.063344
0.059656
0.05635
0.053483
0.051
0.048952
0.047519
0.086144
0.081721
0.076839
0.072102
0.067733
0.06371
0.060095
0.056851
0.054021
0.051583
0.049544
0.048141
0.085642
0.081468
0.076776
0.0722
0.067961
0.06404
0.060499
0.057316
0.054523
0.052127
0.050095
0.048706
0.085159
0.081211
0.076696
0.072272
0.068159
0.064338
0.06087
0.057747
0.054992
0.052632
0.050609
0.049218
0.084694
0.080952
0.076603
0.072322
0.06833
0.064605
0.061209
0.058145
0.055428
0.053099
0.051086
0.049681
0.084245
0.080691
0.076496
0.072353
0.068475
0.064844
0.061519
0.058513
0.055833
0.053533
0.051528
0.050099
0.083812
0.08043
0.07638
0.072365
0.068598
0.065057
0.061802
0.058851
0.056208
0.053932
0.051937
0.050478
0.083392
0.080169