/*--------------------------------*- C++ -*----------------------------------*\
  =========                 |
  \\      /  F ield         | OpenFOAM: The Open Source CFD Toolbox
   \\    /   O peration     | Website:  https://openfoam.org
    \\  /    A nd           | Version:  6.0
     \\/     M anipulation  |
\*---------------------------------------------------------------------------*/
FoamFile
{
    version     2.0;
    format      ascii;
    class       volScalarField;
    location    "10";
    object      p;
}
// * * * * * * * * * * * * * * * * * * * * * * * * * * * * * * * * * * * * * //

dimensions      [0 2 -2 0 0 0 0];

internalField   nonuniform List<scalar> 
62000
(
0.0109189
0.0109087
0.0109017
0.0108983
0.0108982
0.0109016
0.0109086
0.0109193
0.0109336
0.0109521
0.0109744
0.0110012
0.0110324
0.0110686
0.0111098
0.0111569
0.01121
0.0112702
0.0113377
0.0114141
0.0115
0.0115972
0.0117068
0.0118315
0.0119723
0.0121314
0.0123104
0.0125142
0.0127464
0.0130129
0.0133182
0.0136691
0.014072
0.0145364
0.0150714
0.0156825
0.0163697
0.0171287
0.0179495
0.0188149
0.019698
0.0205608
0.0213558
0.0220315
0.0225425
0.022863
0.0230051
0.0230227
0.0230142
0.0230864
0.0233064
0.0236626
0.0239761
0.024077
0.0236819
0.022635
0.0209027
0.0183018
0.0161883
0.0157092
0.0109403
0.0109265
0.0109166
0.0109112
0.0109096
0.0109122
0.0109186
0.010929
0.010943
0.0109611
0.010983
0.011009
0.0110392
0.011074
0.0111134
0.0111584
0.011209
0.0112663
0.0113307
0.0114037
0.0114859
0.0115793
0.0116852
0.011806
0.0119433
0.0120991
0.0122755
0.0124768
0.0127073
0.0129724
0.0132771
0.0136271
0.0140299
0.0144963
0.0150375
0.0156591
0.0163613
0.0171403
0.0179881
0.0188896
0.0198198
0.0207418
0.0216077
0.0223641
0.0229617
0.0233694
0.0235948
0.0236913
0.0237665
0.0239487
0.0243389
0.0249635
0.0256595
0.0262561
0.0264118
0.0258767
0.0245222
0.0219439
0.020165
0.0187773
0.010972
0.0109636
0.0109569
0.0109532
0.010952
0.0109539
0.0109585
0.0109663
0.0109771
0.0109912
0.0110086
0.0110297
0.0110546
0.0110839
0.0111176
0.0111568
0.0112016
0.0112531
0.0113119
0.0113792
0.0114559
0.0115437
0.0116438
0.0117585
0.011889
0.0120381
0.0122078
0.0124022
0.0126253
0.0128822
0.0131771
0.0135148
0.0139029
0.0143531
0.0148776
0.0154815
0.0161631
0.0169181
0.0177387
0.0186102
0.0195067
0.0203894
0.0212061
0.0218956
0.0223971
0.0226633
0.0226832
0.0224916
0.0221856
0.0218999
0.0217633
0.0218604
0.0220953
0.0223785
0.0224153
0.0219777
0.0209439
0.0188522
0.0177842
0.0167115
0.0110871
0.0110837
0.0110785
0.0110734
0.0110687
0.0110649
0.0110624
0.0110617
0.0110629
0.0110667
0.0110731
0.0110828
0.011096
0.0111135
0.0111355
0.0111629
0.0111963
0.0112368
0.0112849
0.0113421
0.0114092
0.011488
0.0115795
0.0116857
0.0118078
0.0119488
0.0121111
0.0122989
0.0125161
0.0127676
0.013058
0.0133918
0.0137768
0.0142263
0.0147533
0.0153633
0.016055
0.0168251
0.0176683
0.0185724
0.0195139
0.0204543
0.0213399
0.0221046
0.0226772
0.0229933
0.0230185
0.0227601
0.0222897
0.0217282
0.0212131
0.0208668
0.0206565
0.0205775
0.0204147
0.0199927
0.0192248
0.0176348
0.0170925
0.0171008
0.011258
0.0112501
0.0112384
0.011225
0.0112104
0.0111954
0.0111804
0.0111663
0.0111534
0.0111424
0.0111339
0.0111285
0.0111266
0.011129
0.0111363
0.0111494
0.0111688
0.0111957
0.0112308
0.0112756
0.0113312
0.0113992
0.0114808
0.0115777
0.0116914
0.0118248
0.0119807
0.0121633
0.0123772
0.0126274
0.0129196
0.013259
0.0136544
0.0141198
0.0146701
0.015312
0.0160462
0.0168731
0.0177923
0.0187973
0.0198701
0.0209774
0.0220689
0.0230793
0.0239328
0.0245531
0.0248843
0.024904
0.024649
0.0242084
0.0237011
0.0232555
0.022868
0.0225902
0.022264
0.0217567
0.021001
0.0194891
0.0188981
0.0192325
0.0113861
0.0113674
0.0113449
0.0113203
0.0112939
0.0112666
0.0112388
0.0112114
0.0111848
0.01116
0.0111375
0.011118
0.0111021
0.0110907
0.0110844
0.0110841
0.0110904
0.0111046
0.0111275
0.0111607
0.0112053
0.0112631
0.0113354
0.011424
0.0115301
0.0116567
0.0118065
0.0119837
0.0121931
0.0124407
0.0127332
0.0130767
0.0134805
0.0139598
0.0145297
0.0151986
0.0159696
0.0168477
0.0178385
0.0189423
0.0201485
0.0214317
0.0227491
0.024041
0.0252333
0.0262443
0.0270035
0.0274621
0.0276221
0.0275323
0.027278
0.0269669
0.0265956
0.0262352
0.0257644
0.0250697
0.0240896
0.0222693
0.0212007
0.0210246
0.0113682
0.0113405
0.0113099
0.0112776
0.0112438
0.0112091
0.0111739
0.0111388
0.0111043
0.0110714
0.0110404
0.0110123
0.0109876
0.0109673
0.0109519
0.0109426
0.0109398
0.010945
0.010959
0.0109833
0.0110192
0.0110688
0.0111333
0.0112147
0.0113141
0.0114339
0.0115766
0.0117459
0.0119467
0.0121855
0.0124699
0.0128066
0.0132052
0.0136802
0.0142471
0.0149144
0.0156873
0.0165751
0.0175885
0.0187342
0.0200095
0.0213974
0.0228645
0.0243599
0.0258161
0.0271526
0.0282915
0.0291662
0.0297492
0.0300518
0.0301205
0.0300324
0.0297657
0.0293916
0.0288014
0.0278912
0.0265997
0.0243355
0.0226798
0.0217502
0.0111969
0.0111637
0.0111287
0.0110927
0.0110557
0.0110183
0.0109805
0.0109431
0.0109063
0.0108709
0.0108372
0.0108061
0.0107779
0.0107538
0.0107341
0.01072
0.010712
0.0107115
0.0107195
0.0107375
0.0107669
0.0108099
0.0108676
0.0109423
0.0110348
0.0111469
0.0112802
0.011438
0.0116247
0.0118469
0.0121128
0.012429
0.0128046
0.0132536
0.0137895
0.014421
0.0151542
0.0160012
0.0169768
0.0180931
0.0193539
0.0207504
0.0222586
0.0238381
0.0254312
0.0269636
0.0283572
0.0295361
0.0304525
0.0310875
0.0314542
0.0315954
0.0314664
0.0311222
0.0304617
0.0293823
0.027829
0.0251889
0.023054
0.0215363
0.0108817
0.0108469
0.0108114
0.0107755
0.0107394
0.0107033
0.0106673
0.0106316
0.0105968
0.0105631
0.010531
0.0105011
0.0104738
0.0104499
0.0104299
0.0104147
0.010405
0.0104021
0.0104067
0.0104205
0.0104451
0.0104823
0.0105337
0.0106012
0.0106857
0.0107884
0.0109097
0.0110521
0.0112194
0.0114181
0.0116561
0.01194
0.0122779
0.0126817
0.0131641
0.013732
0.0143918
0.0151574
0.0160463
0.0170744
0.0182507
0.0195736
0.0210277
0.0225836
0.0241942
0.0257948
0.0273125
0.0286691
0.0298055
0.0306814
0.031283
0.031625
0.0316377
0.0313599
0.0306887
0.0295255
0.027824
0.0249653
0.0225354
0.0207014
0.0104791
0.0104449
0.0104101
0.0103755
0.010341
0.0103068
0.010273
0.0102399
0.0102076
0.0101766
0.010147
0.0101193
0.0100939
0.0100714
0.0100521
0.010037
0.0100265
0.0100218
0.0100237
0.0100339
0.0100537
0.010085
0.0101293
0.0101885
0.0102634
0.0103546
0.0104612
0.0105848
0.0107287
0.0108985
0.0111023
0.0113456
0.0116355
0.0119827
0.0123969
0.012884
0.0134501
0.0141095
0.0148815
0.0157844
0.0168312
0.0180259
0.019361
0.0208166
0.0223569
0.0239281
0.0254656
0.0268944
0.028151
0.0291821
0.0299554
0.0304623
0.030613
0.0304273
0.0298029
0.0286442
0.0269164
0.0239981
0.0214429
0.0195187
0.00999652
0.0099647
0.00993246
0.00990051
0.0098688
0.00983752
0.00980668
0.00977653
0.00974722
0.00971901
0.00969212
0.0096669
0.00964364
0.00962277
0.00960465
0.0095899
0.00957903
0.00957294
0.00957236
0.00957877
0.00959346
0.00961826
0.00965441
0.00970382
0.00976717
0.00984455
0.00993405
0.0100363
0.0101538
0.0102919
0.0104576
0.010656
0.0108932
0.0111774
0.0115174
0.0119169
0.0123812
0.0129249
0.0135679
0.0143301
0.0152271
0.0162675
0.0174501
0.0187636
0.0201824
0.0216638
0.0231528
0.0245808
0.0258847
0.0270047
0.027896
0.0285342
0.0288125
0.028737
0.0282026
0.0271194
0.0254605
0.0226037
0.0200448
0.0181725
0.00947141
0.00944244
0.00941253
0.00938269
0.00935283
0.00932328
0.00929407
0.00926553
0.00923774
0.009211
0.00918536
0.00916121
0.00913856
0.00911795
0.0090994
0.00908363
0.00907084
0.00906195
0.00905746
0.0090588
0.00906706
0.0090839
0.00911039
0.00914829
0.0091982
0.00925981
0.00933026
0.00940929
0.00949888
0.00960353
0.00972991
0.0098822
0.0100652
0.0102863
0.0105516
0.0108641
0.0112278
0.0116571
0.0121721
0.0127934
0.0135387
0.0144194
0.0154399
0.0165957
0.0178705
0.0192318
0.0206344
0.0220176
0.023322
0.0244856
0.0254571
0.0262002
0.026597
0.0266393
0.0262232
0.0252622
0.0237349
0.0210128
0.0185208
0.0167701
0.00888664
0.00886155
0.00883522
0.00880863
0.00878175
0.00875478
0.00872781
0.00870104
0.00867467
0.00864887
0.00862387
0.00859985
0.00857704
0.00855564
0.00853589
0.00851813
0.00850266
0.00849002
0.00848074
0.00847593
0.00847662
0.00848419
0.00849959
0.00852442
0.0085592
0.00860335
0.00865327
0.00870799
0.00876888
0.00883993
0.00892706
0.00903392
0.00916459
0.00932435
0.00951895
0.00974937
0.0100192
0.0103422
0.0107385
0.0112288
0.0118321
0.0125622
0.0134273
0.0144289
0.0155583
0.0167918
0.0180938
0.0194117
0.0206913
0.0218711
0.0228964
0.0237242
0.0242274
0.0243889
0.0241032
0.0232888
0.0219232
0.0193697
0.0169761
0.0153669
0.00827621
0.00825458
0.00823096
0.00820654
0.00818124
0.00815533
0.00812891
0.00810229
0.00807558
0.00804904
0.00802276
0.00799702
0.00797185
0.00794761
0.00792426
0.0079023
0.00788175
0.00786324
0.00784703
0.00783421
0.00782557
0.00782228
0.00782509
0.00783539
0.0078536
0.00787893
0.00790727
0.00793706
0.00796917
0.00800702
0.00805614
0.00811942
0.00819997
0.00830307
0.00843204
0.00858774
0.00877282
0.0090006
0.00929082
0.00966435
0.0101406
0.0107354
0.0114597
0.0123198
0.013313
0.0144237
0.0156246
0.0168709
0.0181142
0.0192952
0.0203589
0.0212571
0.0218577
0.0221339
0.0219815
0.021321
0.0201261
0.0177469
0.0154582
0.0139813
0.00761086
0.00759288
0.00757248
0.00755085
0.00752784
0.00750371
0.00747844
0.00745231
0.00742542
0.00739801
0.00737023
0.00734231
0.0073144
0.00728667
0.00725924
0.00723237
0.00720615
0.00718094
0.00715699
0.00713515
0.00711611
0.00710083
0.00708991
0.00708455
0.00708507
0.00709055
0.00709657
0.00710116
0.00710469
0.00711023
0.00712268
0.0071446
0.00717883
0.00722874
0.00729832
0.00738683
0.00749668
0.00764082
0.00783856
0.00811066
0.00847693
0.00895428
0.00955614
0.0102922
0.0111651
0.0121655
0.0132735
0.0144515
0.0156567
0.0168327
0.017925
0.0188834
0.0195709
0.0199552
0.0199308
0.0194209
0.0183903
0.0161759
0.013985
0.0126176
0.00691825
0.00690288
0.00688431
0.00686395
0.00684158
0.00681756
0.00679187
0.00676486
0.00673653
0.00670719
0.00667679
0.00664566
0.00661368
0.00658125
0.00654815
0.00651486
0.00648121
0.00644769
0.00641434
0.00638203
0.00635123
0.00632277
0.00629705
0.00627511
0.00625708
0.00624197
0.00622521
0.00620452
0.00617987
0.00615393
0.00613134
0.0061141
0.00610433
0.00610607
0.00612117
0.00614944
0.00619268
0.00626351
0.0063809
0.00656536
0.00683692
0.00721338
0.00770987
0.00833896
0.0091073
0.0100112
0.0110368
0.0121531
0.0133224
0.0144919
0.0156085
0.0166203
0.0173883
0.017873
0.0179694
0.0176013
0.0167232
0.0146566
0.0125511
0.0112662
0.00616267
0.00615023
0.00613438
0.00611634
0.00609594
0.00607329
0.00604841
0.0060214
0.00599243
0.00596154
0.00592896
0.00589474
0.00585907
0.00582196
0.00578355
0.00574389
0.00570305
0.00566115
0.00561834
0.00557522
0.00553225
0.00549006
0.00544897
0.00540988
0.00537278
0.00533657
0.00529672
0.00525079
0.00519832
0.00514177
0.00508526
0.00503066
0.00498016
0.00493603
0.00490151
0.00487512
0.00485878
0.00486493
0.0049122
0.0050209
0.00521117
0.00550145
0.00590821
0.00644625
0.00712561
0.00794709
0.0089022
0.00996554
0.0111044
0.012269
0.0134075
0.0144685
0.0153098
0.0158878
0.016096
0.0158591
0.0151184
0.0131819
0.0111491
0.00992041
0.00538243
0.00537188
0.00535725
0.00533995
0.0053197
0.00529668
0.00527085
0.00524241
0.00521134
0.00517782
0.0051418
0.00510347
0.00506272
0.00501984
0.00497459
0.0049273
0.00487771
0.00482618
0.00477261
0.00471768
0.00466164
0.00460502
0.004548
0.00449132
0.0044348
0.00437717
0.00431407
0.00424297
0.00416303
0.0040764
0.0039871
0.00389657
0.0038064
0.00372004
0.00363871
0.00356195
0.00349134
0.00343922
0.00342395
0.00346563
0.00358455
0.00379965
0.00412849
0.00458771
0.00519016
0.00594053
0.00683493
0.00785304
0.00896646
0.0101284
0.011289
0.0123968
0.0133085
0.0139742
0.0142875
0.014172
0.013556
0.0117333
0.00976264
0.00856759
0.00453725
0.00452864
0.00451579
0.00450004
0.004481
0.0044588
0.00443322
0.00440438
0.00437221
0.00433679
0.00429813
0.00425633
0.0042114
0.00416335
0.00411217
0.00405789
0.00400038
0.00393972
0.00387587
0.00380929
0.00374023
0.0036691
0.00359598
0.00352154
0.00344537
0.0033661
0.00327968
0.0031835
0.00307627
0.00296004
0.0028384
0.00271277
0.00258503
0.0024569
0.00233147
0.00220715
0.00208589
0.00198007
0.00190783
0.00188912
0.00194439
0.00209301
0.00235346
0.00274398
0.00327981
0.00396896
0.00481163
0.00579205
0.00688573
0.00804849
0.00923207
0.0103859
0.0113643
0.0121138
0.0125258
0.0125235
0.0120208
0.0102994
0.0083832
0.00720314
0.00366323
0.00365529
0.00364253
0.0036265
0.00360675
0.00358351
0.00355651
0.00352597
0.00349163
0.00345366
0.00341174
0.00336609
0.00331632
0.00326273
0.00320486
0.003143
0.00307668
0.00300622
0.00293134
0.0028526
0.00277006
0.00268409
0.00259464
0.00250227
0.00240635
0.0023054
0.00219564
0.00207437
0.00193995
0.00179419
0.00164065
0.0014804
0.0013148
0.00114705
0.000978218
0.000808072
0.000638352
0.000481501
0.000355545
0.000280336
0.000276513
0.000363944
0.000561939
0.00089017
0.00136605
0.0020006
0.0027977
0.00374582
0.00482396
0.00599047
0.00719874
0.00839881
0.00944439
0.0102759
0.0107836
0.0108891
0.0104923
0.00886308
0.0069966
0.00581713
0.00272034
0.00271347
0.00270187
0.00268686
0.00266801
0.00264529
0.00261846
0.00258743
0.00255211
0.00251235
0.00246812
0.00241929
0.00236579
0.00230742
0.00224411
0.00217564
0.00210179
0.00202244
0.00193747
0.00184715
0.00175158
0.00165099
0.00154534
0.00143509
0.00131943
0.0011968
0.00106366
0.000917232
0.000755495
0.000580199
0.00039453
0.000199606
-2.79074e-06
-0.000211253
-0.000422503
-0.000637897
-0.00085513
-0.00106159
-0.00123933
-0.00136854
-0.00142831
-0.00139827
-0.00125831
-0.000987384
-0.000566076
1.93743e-05
0.000776344
0.00169723
0.00276434
0.00393814
0.00517336
0.00642142
0.00753346
0.00844617
0.00904734
0.00925701
0.00896094
0.00741829
0.00559909
0.00440906
0.00175864
0.00175177
0.00173965
0.00172379
0.00170368
0.00167937
0.00165057
0.0016173
0.00157927
0.00153645
0.0014885
0.00143541
0.00137675
0.00131261
0.00124244
0.00116632
0.00108362
0.000994494
0.000898545
0.000796087
0.000687066
0.000571641
0.000449649
0.000321461
0.000186059
4.17605e-05
-0.000114823
-0.000286596
-0.000475845
-0.000681058
-0.00089899
-0.00112887
-0.00136942
-0.00161752
-0.00187205
-0.00213274
-0.00239748
-0.00265344
-0.00288269
-0.00306537
-0.00318023
-0.00320632
-0.00312266
-0.00290684
-0.00253755
-0.00199826
-0.0012784
-0.000381567
0.000677435
0.00186135
0.00312593
0.00442394
0.00560531
0.00660069
0.00729599
0.00760878
0.0074115
0.00595251
0.00418048
0.00297195
0.000732771
0.000726141
0.000714318
0.000698695
0.000678678
0.000654237
0.000624917
0.000590624
0.00055102
0.000505971
0.000455227
0.000398619
0.000335868
0.000266708
0.000190871
0.000108011
1.76585e-05
-8.04066e-05
-0.000186503
-0.000300568
-0.000422662
-0.00055273
-0.000690984
-0.000837109
-0.000992293
-0.00115834
-0.00133854
-0.00153593
-0.00175312
-0.00198864
-0.0022396
-0.00250515
-0.00278352
-0.00307347
-0.00337143
-0.0036783
-0.0039913
-0.00429734
-0.00457844
-0.00481467
-0.00498433
-0.00506584
-0.00503731
-0.00487499
-0.00455554
-0.00405994
-0.00337415
-0.00249825
-0.0014438
-0.000246479
0.00105085
0.0024018
0.00365399
0.00473369
0.00552404
0.00594014
0.00584098
0.00446518
0.00274104
0.00150799
-0.000312439
-0.00032007
-0.000333393
-0.000350776
-0.000372879
-0.00039959
-0.000431413
-0.000468295
-0.000510814
-0.000558962
-0.00061338
-0.000674079
-0.000741827
-0.000816546
-0.000899068
-0.000989425
-0.00108852
-0.0011963
-0.00131337
-0.00143959
-0.00157521
-0.00172022
-0.00187496
-0.00203919
-0.0022143
-0.00240225
-0.00260633
-0.00282975
-0.00307536
-0.00334194
-0.00362651
-0.00392857
-0.00424686
-0.00457829
-0.00492153
-0.00527576
-0.00563831
-0.00599584
-0.00633026
-0.00662144
-0.0068472
-0.00698519
-0.00701253
-0.006904
-0.00663431
-0.00618164
-0.0055289
-0.00467205
-0.00362019
-0.00240653
-0.0010739
0.000333156
0.00166067
0.00282825
0.00371673
0.00423811
0.00423877
0.00294716
0.00127324
1.18142e-05
-0.0014209
-0.00142888
-0.00144235
-0.00145993
-0.00148223
-0.00150943
-0.00154198
-0.00158019
-0.00162439
-0.00167497
-0.00173218
-0.00179647
-0.00186818
-0.00194786
-0.00203586
-0.00213285
-0.00223942
-0.00235607
-0.00248321
-0.00262108
-0.00276987
-0.00292969
-0.00310093
-0.00328342
-0.00347865
-0.00368876
-0.00391709
-0.00416705
-0.00444182
-0.00474018
-0.00505956
-0.00539931
-0.00575769
-0.00613354
-0.00652292
-0.00692622
-0.00734007
-0.00775076
-0.00814007
-0.00848767
-0.00877077
-0.0089662
-0.00905002
-0.00899548
-0.0087752
-0.00836465
-0.00774329
-0.00690349
-0.0058512
-0.00461804
-0.00324579
-0.0017787
-0.000373232
0.000885303
0.00187466
0.00250381
0.00260645
0.00140132
-0.000220214
-0.00151303
-0.00253488
-0.00254426
-0.00255965
-0.00257947
-0.00260439
-0.0026345
-0.00267028
-0.0027119
-0.00275992
-0.00281453
-0.00287637
-0.00294567
-0.00302326
-0.00310929
-0.00320467
-0.00330975
-0.00342557
-0.00355237
-0.00369086
-0.00384125
-0.00400392
-0.00417908
-0.00436723
-0.00456834
-0.00478404
-0.00501669
-0.00526976
-0.00554695
-0.00585162
-0.00618287
-0.00653796
-0.00691668
-0.00731774
-0.00773806
-0.00817606
-0.00863022
-0.00909736
-0.00956341
-0.01001
-0.0104163
-0.0107592
-0.0110142
-0.0111566
-0.0111576
-0.0109879
-0.0106199
-0.0100299
-0.00920605
-0.00815176
-0.00689613
-0.0054813
-0.0039508
-0.00246193
-0.00110768
-1.30676e-05
0.000727484
0.000935767
-0.000179716
-0.00174536
-0.0030709
-0.00370609
-0.00371643
-0.00373267
-0.00375335
-0.00377925
-0.00381052
-0.00384783
-0.00389147
-0.00394202
-0.00399981
-0.00406532
-0.00413901
-0.00422144
-0.00431322
-0.00441491
-0.00452736
-0.00465144
-0.00478778
-0.00493703
-0.00509972
-0.00527623
-0.00546689
-0.00567227
-0.00589241
-0.00612907
-0.0063848
-0.00666329
-0.0069685
-0.00730411
-0.00766925
-0.0080616
-0.00848078
-0.00892503
-0.00939326
-0.00988109
-0.0103883
-0.0109109
-0.0114345
-0.0119404
-0.0124077
-0.0128121
-0.0131286
-0.0133309
-0.0133886
-0.01327
-0.0129446
-0.012385
-0.0115758
-0.0105166
-0.00923546
-0.0077728
-0.00617486
-0.00459953
-0.00314591
-0.00194243
-0.00108682
-0.000769193
-0.00179139
-0.00329849
-0.00465795
-0.00488396
-0.00489653
-0.00491554
-0.00493926
-0.00496852
-0.00500331
-0.00504436
-0.00509178
-0.00514641
-0.00520841
-0.00527869
-0.00535752
-0.00544599
-0.00554434
-0.00565373
-0.00577467
-0.00590852
-0.00605561
-0.00621691
-0.0063929
-0.00658415
-0.00679107
-0.00701437
-0.0072542
-0.00751247
-0.00779199
-0.00809669
-0.0084309
-0.00879849
-0.0091989
-0.00962966
-0.0100909
-0.0105812
-0.0110976
-0.0116381
-0.0122004
-0.0127808
-0.0133644
-0.0139323
-0.0144632
-0.0149322
-0.0153129
-0.0155776
-0.0156943
-0.0156286
-0.0153468
-0.0148181
-0.0140227
-0.0129575
-0.0116476
-0.010134
-0.00846464
-0.00679786
-0.00523983
-0.00392255
-0.00294748
-0.00251584
-0.0034405
-0.00488503
-0.00627816
-0.00611606
-0.00613005
-0.00615027
-0.00617527
-0.00620577
-0.00624215
-0.00628501
-0.00633492
-0.00639237
-0.00645801
-0.00653225
-0.00661589
-0.00670948
-0.00681403
-0.00693009
-0.00705893
-0.00720153
-0.00735887
-0.00753168
-0.00772087
-0.00792695
-0.00815049
-0.00839224
-0.00865244
-0.00893308
-0.00923721
-0.00956908
-0.00993334
-0.0103342
-0.0107711
-0.011242
-0.011747
-0.0122841
-0.0128523
-0.0134467
-0.0140664
-0.0147069
-0.0153528
-0.0159851
-0.0165819
-0.0171175
-0.0175644
-0.0178935
-0.0180707
-0.0180589
-0.0178212
-0.0173229
-0.0165404
-0.0154664
-0.0141248
-0.0125545
-0.0108097
-0.00904863
-0.00738266
-0.00594773
-0.00484897
-0.00429884
-0.00512171
-0.00650095
-0.00792779
-0.00733768
-0.00735416
-0.00737752
-0.00740606
-0.00744059
-0.00748135
-0.00752897
-0.00758385
-0.00764673
-0.00771804
-0.00779857
-0.00788892
-0.00799013
-0.00810277
-0.00822801
-0.00836678
-0.00852053
-0.00868996
-0.00887613
-0.00907996
-0.00930215
-0.00954337
-0.00980454
-0.010086
-0.0103899
-0.0107196
-0.0110797
-0.0114752
-0.0119106
-0.0123855
-0.0128979
-0.0134483
-0.0140351
-0.0146553
-0.0153066
-0.0159857
-0.0166885
-0.0173994
-0.0180987
-0.0187645
-0.0193698
-0.0198859
-0.0202822
-0.0205223
-0.0205665
-0.0203743
-0.0199073
-0.0191374
-0.0180537
-0.016677
-0.0150469
-0.013223
-0.011363
-0.00958434
-0.00802671
-0.00679939
-0.00612553
-0.00684164
-0.00815119
-0.00961024
-0.00860791
-0.00862625
-0.00865144
-0.00868192
-0.00871857
-0.00876172
-0.00881221
-0.00887058
-0.00893756
-0.00901374
-0.0090997
-0.00919631
-0.00930427
-0.00942469
-0.0095583
-0.00970661
-0.00987085
-0.0100522
-0.0102516
-0.0104703
-0.0107091
-0.0109687
-0.0112502
-0.0115539
-0.0118821
-0.0122385
-0.0126279
-0.0130559
-0.0135272
-0.0140416
-0.0145973
-0.0151947
-0.0158318
-0.0165079
-0.017217
-0.0179578
-0.0187251
-0.0195031
-0.0202719
-0.0210089
-0.0216862
-0.0222738
-0.0227394
-0.0230442
-0.0231457
-0.0229998
-0.022564
-0.0218059
-0.0207103
-0.0192957
-0.0176002
-0.0156935
-0.013732
-0.0118375
-0.0101532
-0.00879271
-0.0079901
-0.00859477
-0.00983184
-0.0113222
-0.00987245
-0.0098939
-0.00992295
-0.00995769
-0.00999908
-0.0100473
-0.0101031
-0.010167
-0.0102399
-0.0103222
-0.010415
-0.0105189
-0.0106352
-0.0107646
-0.0109085
-0.0110679
-0.0112447
-0.0114397
-0.0116542
-0.0118893
-0.0121461
-0.0124254
-0.0127283
-0.0130554
-0.0134091
-0.0137933
-0.0142133
-0.0146752
-0.0151837
-0.0157391
-0.0163395
-0.0169854
-0.0176759
-0.0184073
-0.0191772
-0.0199815
-0.0208156
-0.0216634
-0.0225044
-0.0233157
-0.0240682
-0.0247304
-0.0252683
-0.0256406
-0.0258018
-0.0257038
-0.0253004
-0.0245543
-0.0234463
-0.0219908
-0.0202272
-0.0182341
-0.0161673
-0.0141524
-0.0123363
-0.0108372
-0.00990009
-0.0103877
-0.0115475
-0.0130665
-0.0111875
-0.011211
-0.011242
-0.0112789
-0.0113225
-0.0113735
-0.0114325
-0.0115004
-0.0115778
-0.0116657
-0.0117645
-0.0118755
-0.0119993
-0.0121374
-0.0122905
-0.0124607
-0.0126492
-0.0128575
-0.0130867
-0.0133385
-0.0136138
-0.0139134
-0.0142387
-0.0145903
-0.0149707
-0.0153839
-0.0158358
-0.0163329
-0.0168802
-0.017478
-0.0181246
-0.0188207
-0.0195646
-0.0203552
-0.0211865
-0.0220563
-0.0229594
-0.0238791
-0.0247949
-0.0256828
-0.0265129
-0.0272522
-0.0278645
-0.0283063
-0.0285288
-0.0284798
-0.028109
-0.0273747
-0.0262525
-0.0247541
-0.0229177
-0.0208346
-0.0186602
-0.0165218
-0.0145696
-0.0129268
-0.0118495
-0.0122151
-0.0132944
-0.0148403
-0.0124851
-0.0125116
-0.0125465
-0.0125879
-0.0126367
-0.0126934
-0.0127587
-0.0128333
-0.012918
-0.0130136
-0.013121
-0.013241
-0.0133751
-0.0135241
-0.0136894
-0.0138726
-0.0140755
-0.0142994
-0.0145456
-0.0148159
-0.0151111
-0.0154325
-0.0157815
-0.0161588
-0.016567
-0.0170105
-0.0174957
-0.0180293
-0.0186167
-0.0192583
-0.0199523
-0.0206999
-0.0215
-0.0223491
-0.0232445
-0.0241817
-0.025156
-0.0261503
-0.0271437
-0.0281115
-0.0290225
-0.0298421
-0.030532
-0.0310463
-0.0313326
-0.0313347
-0.0309982
-0.0302761
-0.0291397
-0.0275965
-0.0256851
-0.0235089
-0.0212233
-0.0189566
-0.0168626
-0.0150699
-0.013846
-0.0140832
-0.0150766
-0.0166457
-0.0138344
-0.0138629
-0.0138999
-0.0139437
-0.0139953
-0.0140552
-0.0141245
-0.0142039
-0.0142944
-0.0143968
-0.0145117
-0.0146403
-0.0147836
-0.0149431
-0.0151197
-0.0153155
-0.0155322
-0.0157714
-0.0160345
-0.0163234
-0.0166393
-0.0169833
-0.0173571
-0.0177613
-0.0181987
-0.0186738
-0.0191936
-0.0197651
-0.020394
-0.0210806
-0.0218235
-0.022624
-0.0234801
-0.0243916
-0.0253516
-0.0263581
-0.0274057
-0.0284769
-0.0295502
-0.0306003
-0.0315948
-0.0324971
-0.0332671
-0.0338559
-0.0342078
-0.0342624
-0.0339607
-0.0332511
-0.0320998
-0.0305103
-0.0285209
-0.0262481
-0.0238484
-0.0214499
-0.019209
-0.0172603
-0.0158835
-0.0159868
-0.0168907
-0.01848
-0.0151712
-0.0152042
-0.0152466
-0.0152962
-0.0153541
-0.0154207
-0.0154971
-0.0155837
-0.015682
-0.0157925
-0.0159163
-0.0160546
-0.0162088
-0.01638
-0.0165697
-0.0167799
-0.0170125
-0.017269
-0.0175509
-0.0178604
-0.0181985
-0.0185666
-0.0189665
-0.0193991
-0.019867
-0.020375
-0.0209307
-0.0215416
-0.0222131
-0.0229462
-0.0237391
-0.0245936
-0.0255089
-0.0264815
-0.0275089
-0.0285864
-0.0297093
-0.0308601
-0.0320163
-0.033152
-0.0342331
-0.0352216
-0.036075
-0.0367414
-0.0371618
-0.0372712
-0.0370062
-0.0363101
-0.0351446
-0.0335079
-0.0314394
-0.0290669
-0.0265492
-0.0240133
-0.0216187
-0.0195069
-0.0179698
-0.017932
-0.0187402
-0.0203448
-0.01659
-0.0166242
-0.0166672
-0.0167173
-0.0167756
-0.0168435
-0.0169216
-0.0170117
-0.0171141
-0.0172305
-0.0173611
-0.0175078
-0.0176712
-0.0178534
-0.0180549
-0.0182788
-0.0185264
-0.0187999
-0.0191004
-0.0194307
-0.0197916
-0.0201848
-0.0206119
-0.0210741
-0.0215738
-0.0221163
-0.0227093
-0.0233607
-0.0240764
-0.024857
-0.0257014
-0.0266113
-0.027585
-0.0286228
-0.0297178
-0.0308682
-0.0320687
-0.0333011
-0.0345426
-0.0357662
-0.0369366
-0.0380137
-0.0389529
-0.0396993
-0.0401901
-0.0403558
-0.0401286
-0.0394465
-0.0382665
-0.0365822
-0.0344327
-0.0319573
-0.0293177
-0.0266396
-0.0240853
-0.0218034
-0.0200989
-0.0199138
-0.0206217
-0.0222376
-0.0178668
-0.0179082
-0.0179619
-0.018025
-0.0180986
-0.0181823
-0.0182775
-0.0183843
-0.0185043
-0.0186377
-0.018786
-0.0189501
-0.0191317
-0.019332
-0.0195526
-0.0197957
-0.0200637
-0.0203582
-0.020681
-0.0210347
-0.0214207
-0.0218406
-0.0222965
-0.0227896
-0.0233225
-0.0239005
-0.0245321
-0.0252253
-0.025986
-0.0268154
-0.027712
-0.0286783
-0.0297137
-0.0308152
-0.0319808
-0.0332059
-0.0344861
-0.0358028
-0.0371323
-0.0384469
-0.0397099
-0.0408791
-0.0419075
-0.0427372
-0.0433014
-0.0435261
-0.0433385
-0.0426718
-0.0414784
-0.0397464
-0.0375155
-0.0349344
-0.032168
-0.0293409
-0.0266185
-0.0241583
-0.0222781
-0.0219377
-0.0225381
-0.0241592
-0.0194148
-0.0194546
-0.0195044
-0.0195625
-0.0196301
-0.0197088
-0.0197995
-0.0199039
-0.0200228
-0.0201577
-0.0203091
-0.0204789
-0.0206678
-0.0208779
-0.0211099
-0.0213668
-0.0216504
-0.021963
-0.0223059
-0.0226821
-0.0230928
-0.0235398
-0.0240249
-0.0245497
-0.0251167
-0.0257314
-0.0264023
-0.0271382
-0.027945
-0.0288239
-0.0297741
-0.030798
-0.0318943
-0.0330641
-0.0343007
-0.0356025
-0.0369644
-0.0383673
-0.039787
-0.041195
-0.0425529
-0.0438168
-0.0449369
-0.0458522
-0.046492
-0.0467773
-0.0466307
-0.04598
-0.0447733
-0.0429935
-0.0406801
-0.0379897
-0.0350917
-0.0321096
-0.029212
-0.0265653
-0.0245015
-0.0239988
-0.0244865
-0.0261073
-0.0207905
-0.0208359
-0.0208954
-0.020966
-0.0210486
-0.0211431
-0.0212505
-0.0213714
-0.0215072
-0.0216584
-0.0218266
-0.0220128
-0.0222189
-0.0224463
-0.0226967
-0.0229726
-0.0232765
-0.0236103
-0.0239758
-0.0243761
-0.0248127
-0.0252874
-0.0258025
-0.0263595
-0.0269611
-0.0276128
-0.0283238
-0.0291028
-0.0299563
-0.0308857
-0.0318901
-0.0329726
-0.0341333
-0.0353696
-0.0366803
-0.0380605
-0.0395062
-0.0409978
-0.0425106
-0.0440151
-0.0454714
-0.0468333
-0.0480488
-0.0490533
-0.0497717
-0.0501204
-0.0500167
-0.0493836
-0.0481645
-0.0463371
-0.0439405
-0.0411379
-0.0381025
-0.0349572
-0.0318749
-0.0290325
-0.0267759
-0.0261021
-0.0264692
-0.0280828
-0.0224861
-0.0225274
-0.0225797
-0.0226418
-0.0227148
-0.0228007
-0.0229003
-0.0230157
-0.0231475
-0.0232976
-0.0234665
-0.0236563
-0.0238679
-0.0241033
-0.0243636
-0.0246519
-0.0249704
-0.0253213
-0.0257062
-0.0261284
-0.0265894
-0.0270909
-0.0276354
-0.0282243
-0.0288604
-0.0295492
-0.0303003
-0.0311229
-0.0320235
-0.0330039
-0.0340634
-0.0352056
-0.0364296
-0.0377371
-0.0391219
-0.0405826
-0.0421141
-0.0436966
-0.0453046
-0.0469079
-0.0484652
-0.049928
-0.0512415
-0.0523376
-0.053137
-0.0535509
-0.0534914
-0.0528763
-0.0516449
-0.0497697
-0.0472882
-0.0443695
-0.0411908
-0.0378755
-0.0346004
-0.0315534
-0.0290955
-0.0282428
-0.0284831
-0.0300835
-0.0240386
-0.024084
-0.024144
-0.0242161
-0.0243013
-0.0243996
-0.0245126
-0.0246407
-0.0247857
-0.0249484
-0.0251305
-0.025333
-0.0255584
-0.0258079
-0.0260836
-0.026388
-0.0267242
-0.0270938
-0.0274992
-0.0279435
-0.0284287
-0.0289564
-0.0295294
-0.0301496
-0.0308195
-0.0315449
-0.0323358
-0.0332018
-0.0341494
-0.0351811
-0.036296
-0.0374983
-0.0387887
-0.0401655
-0.0416277
-0.0431707
-0.0447904
-0.0464664
-0.0481728
-0.0498783
-0.0515402
-0.0531077
-0.0545231
-0.0557146
-0.0565983
-0.05708
-0.0570667
-0.056471
-0.0552277
-0.0533043
-0.0507366
-0.0476981
-0.0443697
-0.0408751
-0.0373969
-0.0341353
-0.0314664
-0.0304252
-0.0305304
-0.03211
-0.0259077
-0.0259514
-0.0260068
-0.0260727
-0.0261504
-0.0262416
-0.0263474
-0.0264698
-0.0266098
-0.0267692
-0.0269491
-0.0271516
-0.0273783
-0.0276312
-0.027912
-0.0282239
-0.0285699
-0.0289519
-0.0293723
-0.0298344
-0.0303401
-0.0308912
-0.0314907
-0.0321402
-0.0328426
-0.0336035
-0.0344334
-0.035342
-0.0363364
-0.037419
-0.0385897
-0.0398529
-0.0412084
-0.0426592
-0.0441989
-0.0458264
-0.0475366
-0.0493086
-0.0511158
-0.0529264
-0.0546958
-0.0563711
-0.0578915
-0.0591812
-0.0601517
-0.0607032
-0.0607372
-0.060161
-0.0589053
-0.0569326
-0.0542763
-0.0511131
-0.0476284
-0.0439469
-0.040257
-0.0367716
-0.0338826
-0.0326446
-0.0326081
-0.0341601
-0.0277658
-0.0278121
-0.0278704
-0.0279394
-0.0280201
-0.0281141
-0.0282226
-0.0283472
-0.0284895
-0.0286513
-0.0288344
-0.0290404
-0.0292718
-0.0295304
-0.0298186
-0.0301393
-0.0304958
-0.03089
-0.0313246
-0.031803
-0.0323274
-0.0328997
-0.0335232
-0.0341999
-0.0349328
-0.0357275
-0.0365951
-0.0375453
-0.0385856
-0.039719
-0.0409452
-0.0422695
-0.0436934
-0.0452158
-0.0468365
-0.0485505
-0.0503537
-0.0522248
-0.0541365
-0.0560562
-0.0579375
-0.0597249
-0.0613546
-0.0627467
-0.0638074
-0.0644315
-0.0645146
-0.0639588
-0.0626904
-0.060667
-0.0579194
-0.054627
-0.0509789
-0.0471008
-0.0431884
-0.0394688
-0.0363495
-0.0349047
-0.0347179
-0.0362347
-0.0297571
-0.0298064
-0.029867
-0.0299375
-0.0300195
-0.0301146
-0.0302242
-0.0303501
-0.0304938
-0.030657
-0.0308413
-0.0310488
-0.0312817
-0.0315423
-0.0318331
-0.0321575
-0.0325192
-0.0329206
-0.0333647
-0.0338551
-0.0343945
-0.0349846
-0.0356292
-0.0363306
-0.0370917
-0.0379184
-0.0388222
-0.0398128
-0.0408982
-0.0420815
-0.0433634
-0.0447494
-0.0462398
-0.0478386
-0.0495402
-0.051343
-0.053242
-0.0552153
-0.0572348
-0.0592669
-0.0612637
-0.063167
-0.0649095
-0.0664072
-0.067561
-0.0682597
-0.0683929
-0.0678572
-0.0665748
-0.0644986
-0.0616559
-0.0582284
-0.0544095
-0.050327
-0.0461834
-0.04222
-0.038861
-0.0372008
-0.036857
-0.0383321
-0.0318167
-0.0318708
-0.0319356
-0.0320098
-0.0320947
-0.0321918
-0.0323027
-0.0324292
-0.0325735
-0.0327372
-0.0329226
-0.0331313
-0.0333666
-0.0336302
-0.0339252