/*--------------------------------*- C++ -*----------------------------------*\
  =========                 |
  \\      /  F ield         | OpenFOAM: The Open Source CFD Toolbox
   \\    /   O peration     | Website:  https://openfoam.org
    \\  /    A nd           | Version:  6.0
     \\/     M anipulation  |
\*---------------------------------------------------------------------------*/
FoamFile
{
    version     2.0;
    format      ascii;
    class       volVectorField;
    location    "10";
    object      U;
}
// * * * * * * * * * * * * * * * * * * * * * * * * * * * * * * * * * * * * * //

dimensions      [0 1 -1 0 0 0 0];

internalField   nonuniform List<vector> 
62000
(
(0.996187 0.0871677 -2.95715e-21)
(0.996188 0.0871668 2.46434e-21)
(0.996189 0.087168 2.52852e-21)
(0.996189 0.0871688 -1.10908e-20)
(0.996191 0.087169 -1.26822e-20)
(0.996192 0.087169 4.38878e-20)
(0.996193 0.0871688 -4.83061e-20)
(0.996194 0.0871685 2.81045e-20)
(0.996195 0.0871682 -1.31902e-20)
(0.996195 0.0871679 -6.7541e-20)
(0.996196 0.0871679 -8.75399e-21)
(0.996196 0.087168 9.46648e-20)
(0.996197 0.0871686 1.93882e-20)
(0.996197 0.0871695 -6.79495e-20)
(0.996197 0.087171 1.06303e-19)
(0.996197 0.087173 -5.63848e-20)
(0.996197 0.0871755 5.87882e-20)
(0.996197 0.0871788 -6.905e-20)
(0.996197 0.0871828 3.42771e-20)
(0.996197 0.0871877 -1.06129e-19)
(0.996196 0.0871935 1.3893e-19)
(0.996196 0.0872004 4.16066e-20)
(0.996195 0.0872085 6.06903e-20)
(0.996194 0.0872172 -2.73688e-19)
(0.996193 0.0872288 9.93962e-20)
(0.996192 0.0872442 -6.02911e-20)
(0.996191 0.0872615 -1.10448e-21)
(0.996188 0.0872817 -4.73922e-20)
(0.996185 0.0873045 1.43082e-19)
(0.99618 0.0873301 -8.00874e-20)
(0.996173 0.0873578 1.9051e-19)
(0.996164 0.0873878 -3.90908e-19)
(0.996152 0.0874201 3.5258e-20)
(0.996136 0.0874549 -1.35429e-19)
(0.996117 0.0874895 -4.5004e-20)
(0.996092 0.0875205 -1.43696e-19)
(0.996063 0.087545 -4.69862e-20)
(0.996027 0.0875602 -5.30456e-20)
(0.995985 0.0875626 1.46098e-19)
(0.995935 0.0875476 7.25145e-19)
(0.995875 0.0875101 -1.82507e-19)
(0.995808 0.0874451 -1.07261e-18)
(0.995731 0.087349 -1.75807e-18)
(0.995646 0.0872207 9.77449e-19)
(0.995553 0.0870625 3.06126e-19)
(0.99545 0.0868807 -1.43628e-18)
(0.995334 0.0866832 3.06343e-19)
(0.995199 0.0864756 -6.07677e-19)
(0.995032 0.0862542 -2.83486e-18)
(0.994822 0.0859965 -6.93344e-19)
(0.994554 0.0856583 -3.572e-19)
(0.994224 0.0851673 -4.84635e-18)
(0.993845 0.0844512 7.62749e-19)
(0.993441 0.0834262 6.07963e-18)
(0.993073 0.0820276 1.61737e-18)
(0.992806 0.080194 5.80113e-18)
(0.992743 0.077794 -6.21807e-19)
(0.992934 0.0748533 -9.2863e-19)
(0.994004 0.0697106 2.23081e-18)
(0.976346 0.0527026 3.78053e-19)
(0.996193 0.0881905 -7.92295e-22)
(0.99618 0.0881664 7.58355e-21)
(0.996169 0.088144 3.14186e-21)
(0.99616 0.0881233 -1.3515e-20)
(0.996153 0.0881009 5.61646e-21)
(0.996148 0.088078 -3.88352e-20)
(0.996145 0.0880546 3.55894e-20)
(0.996144 0.0880311 2.06482e-20)
(0.996145 0.0880076 -3.86467e-20)
(0.996147 0.0879846 1.651e-21)
(0.996149 0.0879623 3.75916e-20)
(0.996153 0.0879411 1.38865e-22)
(0.996157 0.0879214 1.09279e-20)
(0.996162 0.0879035 -9.32908e-20)
(0.996167 0.0878877 1.87841e-19)
(0.996172 0.0878746 -1.66187e-19)
(0.996177 0.0878642 7.82455e-20)
(0.996182 0.0878569 -1.64424e-20)
(0.996186 0.087853 -4.52566e-20)
(0.99619 0.0878527 1.25892e-19)
(0.996193 0.0878563 -1.99274e-19)
(0.996195 0.087864 1.16315e-19)
(0.996196 0.0878764 -1.49388e-19)
(0.996197 0.0878935 8.90479e-20)
(0.996195 0.0879213 8.26069e-20)
(0.996191 0.0879584 -5.31657e-20)
(0.996184 0.0879997 -7.64877e-22)
(0.996173 0.0880437 5.64356e-20)
(0.996159 0.0880891 4.71466e-20)
(0.996142 0.0881342 -9.83882e-20)
(0.99612 0.0881769 1.96998e-19)
(0.996095 0.0882165 4.19107e-20)
(0.996066 0.0882535 1.27301e-19)
(0.996029 0.0882868 1.23831e-20)
(0.995982 0.0883102 3.87957e-20)
(0.995926 0.0883138 -3.98917e-20)
(0.995863 0.0882893 -1.32911e-19)
(0.995794 0.0882309 -6.26156e-20)
(0.995719 0.0881339 -3.95718e-19)
(0.995638 0.0879944 -4.80535e-19)
(0.995551 0.0878104 3.82405e-19)
(0.995461 0.0875836 2.39989e-19)
(0.995367 0.087322 1.84983e-18)
(0.995271 0.0870402 1.09977e-19)
(0.995168 0.0867592 -2.98102e-18)
(0.995053 0.0865027 1.20355e-18)
(0.994909 0.086287 1.02232e-18)
(0.994714 0.0861106 1.17994e-18)
(0.994439 0.0859378 3.08378e-19)
(0.994056 0.0856874 7.83243e-20)
(0.993545 0.0852358 2.1045e-18)
(0.992916 0.0844215 5.97401e-18)
(0.992213 0.0831138 -4.26766e-18)
(0.991498 0.081196 -1.06546e-17)
(0.990897 0.0786068 -2.67268e-18)
(0.990527 0.0753315 -2.07141e-18)
(0.990608 0.0712189 -4.4923e-18)
(0.990821 0.066634 -2.25685e-18)
(0.993223 0.0589405 3.52127e-18)
(0.979257 0.04039 1.4178e-18)
(0.996203 0.0889095 -3.88136e-21)
(0.996178 0.0888956 -5.46129e-22)
(0.996155 0.0888699 6.05235e-22)
(0.996134 0.088849 2.7497e-21)
(0.996116 0.0888254 7.78077e-21)
(0.996101 0.0888003 -7.38097e-21)
(0.996089 0.0887741 3.94064e-20)
(0.996081 0.088747 -1.87814e-20)
(0.996077 0.0887194 -1.0082e-20)
(0.996076 0.0886919 -6.21186e-20)
(0.996078 0.0886647 5.23663e-20)
(0.996082 0.0886384 3.8588e-21)
(0.996089 0.0886132 -1.20059e-20)
(0.996098 0.0885898 3.19248e-20)
(0.996108 0.0885684 -5.4701e-20)
(0.996119 0.0885493 3.10137e-22)
(0.99613 0.0885329 -2.52785e-20)
(0.996141 0.0885191 3.3152e-22)
(0.996152 0.0885086 5.88801e-20)
(0.996162 0.0885009 -9.00706e-20)
(0.996171 0.088497 5.63105e-20)
(0.996179 0.0884961 2.21138e-19)
(0.996186 0.0884995 -2.85745e-20)
(0.996191 0.0885079 -3.11371e-19)
(0.996193 0.0885275 1.5883e-19)
(0.996188 0.0885534 -8.51855e-20)
(0.996177 0.0885807 1.35884e-19)
(0.996161 0.088606 -8.03322e-20)
(0.996141 0.0886274 -1.59654e-19)
(0.996116 0.0886419 1.68629e-19)
(0.996088 0.0886472 -1.18967e-19)
(0.996058 0.0886425 1.6046e-19)
(0.996026 0.0886302 -4.47615e-19)
(0.995987 0.0886094 4.04618e-19)
(0.995937 0.0885728 -2.1904e-19)
(0.995877 0.0885092 9.0175e-20)
(0.995813 0.0884096 6.82609e-20)
(0.995748 0.0882697 -9.59039e-21)
(0.995684 0.0880885 -2.56532e-20)
(0.995624 0.0878679 4.8168e-19)
(0.995568 0.0876132 -2.03124e-19)
(0.995521 0.0873363 3.26194e-19)
(0.995485 0.0870569 -1.18825e-18)
(0.995461 0.0868031 -6.00244e-19)
(0.995447 0.0866086 6.60426e-19)
(0.995434 0.0865065 -2.28569e-18)
(0.995406 0.086516 3.10348e-19)
(0.995338 0.0866293 -1.96741e-18)
(0.995199 0.0867928 2.76071e-18)
(0.99496 0.0868998 7.22454e-19)
(0.994599 0.0867968 3.18558e-19)
(0.994131 0.0862975 -2.13198e-19)
(0.99359 0.0852597 1.62844e-18)
(0.993032 0.083579 7.6971e-19)
(0.992566 0.0812125 -3.37483e-18)
(0.992283 0.0781964 -2.28908e-18)
(0.992454 0.0744091 -1.22997e-18)
(0.992259 0.070389 -4.90966e-18)
(0.994545 0.0640672 -4.47496e-19)
(0.988531 0.0515415 5.7578e-19)
(0.996229 0.0889928 -3.93735e-21)
(0.996212 0.089018 1.20256e-20)
(0.996193 0.0890136 -1.84095e-21)
(0.996172 0.0890154 -1.23194e-20)
(0.996152 0.089015 1.85067e-20)
(0.996132 0.089012 3.17801e-20)
(0.996115 0.0890072 -4.13535e-20)
(0.9961 0.0890006 4.46515e-21)
(0.996088 0.0889927 1.41973e-20)
(0.99608 0.088984 2.94229e-20)
(0.996075 0.0889749 -5.42646e-20)
(0.996074 0.0889657 -1.66286e-20)
(0.996076 0.0889567 -1.85026e-20)
(0.996081 0.0889487 8.42563e-20)
(0.996088 0.0889413 -5.60504e-20)
(0.996097 0.0889351 1.30472e-19)
(0.996107 0.08893 -1.57845e-19)
(0.996117 0.0889256 -2.30676e-20)
(0.996128 0.0889225 1.65798e-19)
(0.996138 0.0889195 -5.77637e-20)
(0.996147 0.0889177 -2.11393e-20)
(0.996155 0.0889156 -2.26785e-20)
(0.996163 0.0889148 -2.06915e-19)
(0.996169 0.0889164 1.19047e-19)
(0.996169 0.0889249 -5.39346e-20)
(0.996158 0.0889337 8.46984e-20)
(0.996141 0.0889402 3.8574e-20)
(0.996117 0.0889397 1.89023e-19)
(0.996088 0.0889304 -1.15974e-19)
(0.996054 0.0889085 -1.5117e-19)
(0.996018 0.0888722 2.36841e-19)
(0.99598 0.0888216 -1.92726e-19)
(0.995941 0.0887615 3.59485e-19)
(0.995895 0.0886916 -2.22271e-19)
(0.995837 0.0886045 8.98798e-20)
(0.995766 0.0884889 1.60242e-19)
(0.995689 0.0883366 -7.21831e-20)
(0.995612 0.0881457 9.70309e-20)
(0.995536 0.0879185 -4.50003e-20)
(0.995465 0.0876605 1.5276e-19)
(0.995401 0.0873816 -4.34876e-19)
(0.995347 0.087098 1.24399e-19)
(0.995307 0.0868343 2.74297e-19)
(0.995286 0.0866228 7.21378e-19)
(0.995282 0.0865001 9.05075e-19)
(0.995293 0.0865003 1.43401e-19)
(0.995308 0.0866406 1.51913e-18)
(0.995309 0.0869094 1.62443e-18)
(0.995275 0.0872466 1.9417e-18)
(0.995182 0.0875404 -1.37323e-18)
(0.99501 0.0876331 -1.73854e-18)
(0.994772 0.0873371 1.19816e-18)
(0.994482 0.0865115 1.64159e-18)
(0.99417 0.0850571 4.03348e-18)
(0.993907 0.082923 2.7362e-18)
(0.993736 0.080135 4.48157e-18)
(0.993969 0.0765528 8.36865e-18)
(0.993435 0.0726004 -5.27715e-19)
(0.994938 0.0667519 -4.54792e-18)
(0.991024 0.0537079 -3.76991e-18)
(0.996297 0.0888443 7.75313e-21)
(0.996301 0.0888993 -2.59096e-21)
(0.996299 0.0889234 4.29601e-21)
(0.996291 0.0889517 -6.0636e-21)
(0.996279 0.088979 1.34845e-20)
(0.996263 0.0890028 -6.66741e-21)
(0.996246 0.0890245 3.52736e-21)
(0.996228 0.0890438 -5.24343e-20)
(0.99621 0.0890612 4.36653e-20)
(0.996194 0.0890772 -8.64287e-20)
(0.99618 0.089092 9.46054e-20)
(0.996167 0.0891061 -1.13706e-20)
(0.996158 0.0891196 -2.48209e-20)
(0.99615 0.0891331 -1.12334e-20)
(0.996145 0.0891463 -2.37301e-21)
(0.996142 0.0891595 -1.1265e-19)
(0.996141 0.0891723 5.22833e-21)
(0.99614 0.0891841 1.21594e-19)
(0.996141 0.0891953 -3.92538e-20)
(0.996141 0.0892041 -4.12802e-20)
(0.996141 0.0892115 6.93968e-20)
(0.99614 0.0892151 -3.44689e-20)
(0.996139 0.0892171 1.4443e-19)
(0.996136 0.0892186 7.95682e-20)
(0.996125 0.0892223 6.04864e-20)
(0.996102 0.089221 -1.82024e-19)
(0.996072 0.089215 -2.49651e-20)
(0.996035 0.089199 -1.36792e-19)
(0.995992 0.0891715 2.4975e-20)
(0.995944 0.0891276 -4.54708e-20)
(0.995892 0.0890663 -1.72825e-20)
(0.995838 0.088989 1.43616e-19)
(0.99578 0.0889023 -3.576e-19)
(0.995713 0.0888073 -1.52758e-20)
(0.995629 0.0886958 -1.8842e-19)
(0.995528 0.0885555 -9.32116e-20)
(0.995415 0.0883786 2.9203e-20)
(0.995293 0.088164 -3.19843e-19)
(0.995167 0.0879154 5.1043e-19)
(0.995037 0.0876391 9.0284e-20)
(0.994905 0.0873446 6.00173e-19)
(0.994774 0.0870472 -4.69034e-19)
(0.994648 0.0867693 -3.32767e-19)
(0.994533 0.0865401 -9.30996e-20)
(0.994432 0.0863914 7.09662e-19)
(0.994347 0.0863519 1.00592e-18)
(0.994277 0.0864329 3.67008e-19)
(0.994216 0.0866186 5.66622e-19)
(0.994155 0.0868474 -4.31956e-19)
(0.994082 0.0870111 3.72285e-18)
(0.993987 0.0869595 9.66851e-19)
(0.993886 0.0865152 -7.57886e-19)
(0.99378 0.0855458 7.59574e-19)
(0.993678 0.0839569 3.31854e-18)
(0.993625 0.0816834 -4.16216e-19)
(0.99362 0.0787183 -3.42465e-18)
(0.994009 0.0749034 -8.84997e-18)
(0.993482 0.070481 7.93057e-18)
(0.994366 0.06427 -5.10952e-18)
(0.990267 0.0490441 4.63922e-18)
(0.996388 0.0888803 -2.97378e-21)
(0.996413 0.0889369 1.19505e-20)
(0.99643 0.0889758 -1.95953e-20)
(0.99644 0.0890167 1.45623e-20)
(0.996441 0.0890577 9.3622e-21)
(0.996436 0.0890955 -9.91067e-21)
(0.996425 0.0891312 8.12631e-22)
(0.996409 0.0891649 -7.31947e-21)
(0.99639 0.0891966 -2.44084e-20)
(0.996369 0.0892266 4.65746e-20)
(0.996346 0.0892554 -7.15771e-20)
(0.996323 0.0892833 6.22745e-20)
(0.996301 0.0893104 5.4278e-20)
(0.996279 0.0893371 -8.35473e-20)
(0.996259 0.0893634 -2.69615e-20)
(0.996239 0.089389 1.00834e-19)
(0.996221 0.0894139 -1.21197e-19)
(0.996203 0.0894369 1.6643e-19)
(0.996187 0.0894585 -3.1631e-20)
(0.99617 0.0894764 1.76727e-20)
(0.996154 0.0894914 -2.87168e-20)
(0.996137 0.0895004 -3.58385e-20)
(0.996119 0.0895063 -6.68656e-20)
(0.996099 0.0895098 1.15207e-19)
(0.996071 0.0895126 -7.81746e-20)
(0.99603 0.0895071 -7.49046e-20)
(0.995983 0.0894966 1.50005e-19)
(0.995928 0.0894752 -1.40486e-19)
(0.995869 0.0894414 2.21505e-19)
(0.995803 0.0893898 -1.15481e-19)
(0.995733 0.0893196 8.95933e-20)
(0.995658 0.0892333 -1.49006e-19)
(0.995576 0.0891395 1.64216e-19)
(0.995481 0.0890399 -1.12084e-20)
(0.995366 0.0889258 -7.20103e-21)
(0.995227 0.0887833 -2.45598e-21)
(0.99507 0.0886036 -9.3084e-20)
(0.994896 0.0883856 2.86039e-19)
(0.994707 0.0881331 -2.26282e-19)
(0.994502 0.0878509 -1.36271e-18)
(0.994283 0.0875458 -5.99644e-19)
(0.994051 0.0872286 4.39915e-19)
(0.99381 0.0869163 -5.32533e-19)
(0.993566 0.0866304 -5.86226e-19)
(0.993325 0.0863943 -5.83621e-20)
(0.993095 0.0862278 1.61525e-18)
(0.992882 0.0861341 -2.39825e-18)
(0.992691 0.0860934 -2.42534e-18)
(0.992529 0.0860447 -1.4807e-18)
(0.992399 0.0858888 -2.68325e-18)
(0.992303 0.0854895 2.0146e-18)
(0.992266 0.0846883 -6.18708e-19)
(0.992288 0.0833698 -5.74246e-18)
(0.992366 0.081453 1.48977e-18)
(0.992525 0.0788703 1.59392e-18)
(0.992739 0.0755927 -3.64218e-18)
(0.99337 0.0714821 2.12189e-18)
(0.993105 0.0666764 2.68453e-18)
(0.99377 0.0602529 8.23095e-18)
(0.990116 0.0446669 7.49273e-21)
(0.996417 0.0892723 3.4847e-21)
(0.996462 0.0893143 -1.56294e-20)
(0.996498 0.0893485 7.60244e-21)
(0.996526 0.0893835 1.40494e-20)
(0.996545 0.089419 -2.99468e-20)
(0.996555 0.0894517 2.4962e-20)
(0.996557 0.0894828 -1.64872e-20)
(0.99655 0.0895124 1.3898e-20)
(0.996537 0.0895407 2.18952e-20)
(0.996518 0.089568 -5.23719e-20)
(0.996494 0.0895945 7.49138e-20)
(0.996466 0.0896207 3.12417e-20)
(0.996436 0.0896465 -1.2448e-19)
(0.996404 0.0896725 -2.28017e-20)
(0.996372 0.0896983 6.51605e-20)
(0.996338 0.089724 4.14372e-20)
(0.996304 0.0897492 -5.00046e-20)
(0.99627 0.0897726 4.36097e-20)
(0.996236 0.0897949 6.67454e-20)
(0.996202 0.0898133 -3.25528e-20)
(0.996167 0.0898288 -1.85486e-20)
(0.996131 0.0898377 6.56018e-20)
(0.996094 0.0898437 1.35017e-19)
(0.996054 0.0898464 -9.74692e-20)
(0.996006 0.0898479 -1.07134e-19)
(0.995946 0.08984 1.15771e-19)
(0.99588 0.0898281 -8.67261e-20)
(0.995808 0.0898062 -3.57132e-20)
(0.995733 0.0897729 2.83148e-19)
(0.995651 0.0897221 -1.21778e-19)
(0.995564 0.0896529 -9.57344e-20)
(0.99547 0.0895689 1.24266e-19)
(0.995367 0.0894798 8.70154e-20)
(0.995248 0.0893885 -7.52489e-20)
(0.995105 0.0892854 -5.36188e-20)
(0.994936 0.0891548 1.80711e-19)
(0.994744 0.0889866 4.78583e-20)
(0.994529 0.0887794 6.04776e-20)
(0.99429 0.0885361 -3.60083e-19)
(0.994027 0.0882595 -3.66548e-19)
(0.993737 0.0879526 7.48751e-19)
(0.993423 0.0876211 6.42929e-19)
(0.993088 0.0872746 1.14419e-18)
(0.992736 0.0869263 -1.08502e-18)
(0.992376 0.0865898 -1.27521e-18)
(0.992019 0.0862753 -8.76992e-19)
(0.991677 0.0859781 2.23731e-18)
(0.991366 0.0856749 2.27056e-18)
(0.991104 0.0853076 -2.56215e-18)
(0.990908 0.0847882 -3.96301e-18)
(0.990794 0.0839989 -5.40027e-19)
(0.990797 0.0828043 8.72116e-19)
(0.990918 0.081112 -1.01317e-20)
(0.991151 0.0788621 -2.24778e-18)
(0.991509 0.0759979 2.1866e-18)
(0.99195 0.0724848 1.19807e-18)
(0.992835 0.0682314 1.8057e-18)
(0.9929 0.0633529 -7.98202e-18)
(0.993601 0.0571255 -4.94409e-19)
(0.991416 0.0426027 1.48299e-19)
(0.99632 0.0899834 -5.74818e-21)
(0.99638 0.0900033 -4.5469e-21)
(0.996433 0.0900208 6.19141e-21)
(0.99648 0.0900385 2.16624e-20)
(0.996518 0.0900563 -4.63728e-20)
(0.996547 0.0900717 5.26961e-20)
(0.996566 0.0900857 -2.44319e-21)
(0.996576 0.0900985 -3.30088e-21)
(0.996576 0.0901104 -1.83748e-20)
(0.996567 0.0901217 4.39857e-20)
(0.996551 0.0901327 -6.73988e-20)
(0.996528 0.0901439 2.5258e-20)
(0.9965 0.0901555 -7.97026e-22)
(0.996466 0.0901681 3.86745e-20)
(0.996429 0.0901812 1.8081e-20)
(0.996389 0.0901951 -9.61269e-20)
(0.996346 0.0902094 8.27892e-20)
(0.996301 0.0902229 3.2152e-20)
(0.996255 0.0902361 -9.2405e-20)
(0.996206 0.0902464 4.49933e-20)
(0.996157 0.0902544 2.08077e-20)
(0.996105 0.0902566 -1.38516e-20)
(0.996051 0.0902571 1.71838e-20)
(0.995993 0.0902547 -1.00508e-20)
(0.995928 0.0902521 -1.12979e-19)
(0.99585 0.0902408 7.2792e-20)
(0.995768 0.0902275 -1.08361e-19)
(0.995682 0.0902061 1.93334e-19)
(0.995593 0.0901754 -3.67231e-20)
(0.995498 0.0901288 -2.06159e-20)
(0.995398 0.0900651 -5.33908e-21)
(0.995291 0.0899883 1.98246e-19)
(0.995173 0.0899094 -7.73353e-20)
(0.995037 0.0898318 -4.31822e-20)
(0.994877 0.0897452 1.2923e-19)
(0.994691 0.0896326 1.1423e-19)
(0.994479 0.0894827 -1.95123e-19)
(0.994242 0.089293 3.55877e-20)
(0.993976 0.0890656 4.23085e-19)
(0.99368 0.0888014 -1.28821e-20)
(0.993352 0.0884996 2.83018e-19)
(0.992991 0.0881606 -4.60918e-19)
(0.992601 0.0877875 6.96109e-19)
(0.992187 0.0873852 1.69497e-18)
(0.991756 0.0869584 5.6616e-19)
(0.991321 0.0865088 -7.41602e-19)
(0.9909 0.0860249 -2.42063e-18)
(0.990513 0.085481 4.62153e-19)
(0.990189 0.0848234 8.0337e-19)
(0.989953 0.0839763 1.71718e-18)
(0.989834 0.0828414 -1.64618e-19)
(0.989875 0.0813068 -3.42964e-18)
(0.990082 0.0793051 3.05951e-18)
(0.990445 0.0768003 -2.14452e-18)
(0.99097 0.0737535 4.44415e-18)
(0.991607 0.0701333 1.0957e-18)
(0.9927 0.0658981 5.00903e-18)
(0.993042 0.0611793 6.56989e-18)
(0.993836 0.0553921 1.02555e-18)
(0.993568 0.042284 1.48796e-18)
(0.996083 0.0908977 -2.69404e-21)
(0.996151 0.0909012 2.30581e-21)
(0.996218 0.0909006 1.14664e-20)
(0.99628 0.0908989 1.79661e-20)
(0.996335 0.090896 -5.2952e-20)
(0.996383 0.0908897 3.0243e-20)
(0.996422 0.0908815 -5.34963e-20)
(0.996451 0.0908716 8.31004e-20)
(0.99647 0.0908605 -3.86603e-20)
(0.996479 0.0908489 6.7364e-21)
(0.996479 0.0908371 7.27478e-20)
(0.996469 0.090826 -1.64249e-19)
(0.996451 0.0908157 1.10987e-19)
(0.996426 0.090807 1.53481e-20)
(0.996394 0.0907997 2.43718e-20)
(0.996356 0.0907939 -1.0239e-19)
(0.996314 0.0907895 4.99008e-20)
(0.996267 0.0907854 -6.11667e-20)
(0.996216 0.0907822 1.19395e-19)
(0.996162 0.0907774 -1.56771e-20)
(0.996104 0.0907717 -1.4904e-19)
(0.996043 0.0907615 5.94905e-20)
(0.995978 0.0907515 -3.24843e-21)
(0.995908 0.0907397 -2.15328e-19)
(0.995831 0.0907297 1.57928e-19)
(0.995741 0.0907129 1.15592e-19)
(0.995647 0.0906962 7.57399e-20)
(0.995551 0.0906738 -9.68238e-20)
(0.995453 0.0906445 -1.05567e-19)
(0.99535 0.0906016 4.87319e-20)
(0.995242 0.0905432 6.73955e-20)
(0.995128 0.0904738 -8.56506e-20)
(0.995001 0.0904046 -1.26971e-19)
(0.994856 0.0903399 2.61099e-19)
(0.994688 0.0902689 3.37953e-20)
(0.994496 0.0901731 -4.15657e-19)
(0.994279 0.0900404 4.22345e-20)
(0.994036 0.0898674 2.89538e-19)
(0.993764 0.0896552 1.59592e-20)
(0.993461 0.089403 4.27475e-19)
(0.993122 0.0891067 -6.49079e-19)
(0.99275 0.0887624 -3.60819e-20)
(0.992344 0.0883675 -4.8656e-19)
(0.99191 0.0879199 1.24926e-19)
(0.991456 0.0874172 8.89495e-19)
(0.990995 0.086854 2.74506e-18)
(0.990546 0.0862138 5.31193e-19)
(0.990134 0.0854701 -2.05638e-18)
(0.989792 0.084574 1.57866e-18)
(0.989552 0.083462 5.94232e-18)
(0.98945 0.082054 -4.93387e-18)
(0.989535 0.0802599 6.08027e-18)
(0.989815 0.0780354 -3.8751e-18)
(0.990282 0.0753664 -2.0423e-18)
(0.990934 0.0722331 -8.95373e-18)
(0.991715 0.0686082 -4.8337e-19)
(0.99295 0.0644886 -3.01663e-18)
(0.993472 0.0600291 -3.18331e-18)
(0.99431 0.0547306 1.98743e-18)
(0.99586 0.0428565 -5.7037e-20)
(0.995743 0.0918843 3.58572e-21)
(0.995812 0.0918755 1.22907e-21)
(0.995882 0.0918607 -1.28147e-20)
(0.995952 0.0918436 1.21345e-20)
(0.996019 0.0918236 -5.33443e-21)
(0.996082 0.0917993 9.43749e-21)
(0.996138 0.0917717 3.16543e-21)
(0.996186 0.0917414 -4.62988e-20)
(0.996225 0.091709 2.00528e-20)
(0.996254 0.0916751 -1.33082e-20)
(0.996274 0.0916406 8.17941e-21)
(0.996283 0.0916063 3.09977e-20)
(0.996283 0.0915728 -5.71197e-21)
(0.996273 0.0915409 1.84579e-20)
(0.996254 0.0915108 -7.73607e-20)
(0.996228 0.0914829 2.97732e-20)
(0.996195 0.0914571 1.3153e-20)
(0.996154 0.0914324 -3.43937e-20)
(0.996108 0.0914098 6.79682e-20)
(0.996056 0.0913868 2.20128e-20)
(0.995999 0.0913641 -2.42542e-21)
(0.995936 0.0913383 -2.28928e-20)
(0.995868 0.0913149 9.41189e-20)
(0.995794 0.0912908 -2.57828e-19)
(0.995711 0.0912705 1.31133e-19)
(0.995615 0.0912459 5.35859e-20)
(0.995516 0.0912234 -8.96241e-20)
(0.995415 0.0911971 1.53345e-19)
(0.995312 0.0911662 -7.27381e-20)
(0.995206 0.0911238 -3.75391e-20)
(0.995095 0.0910674 -7.46972e-20)
(0.994977 0.0910017 -2.72707e-20)
(0.994847 0.0909379 8.02068e-20)
(0.994699 0.0908809 -2.44931e-19)
(0.994531 0.0908193 4.61577e-19)
(0.99434 0.090734 -2.68393e-20)
(0.994128 0.0906118 2.5576e-19)
(0.993892 0.0904485 -6.50032e-19)
(0.993629 0.0902445 -2.22787e-19)
(0.993334 0.0899977 -2.37158e-20)
(0.993007 0.0897013 -1.51168e-19)
(0.992647 0.0893478 -1.43482e-20)
(0.992254 0.0889304 -6.67855e-19)
(0.991833 0.0884417 1.37405e-19)
(0.991392 0.0878736 3.52179e-19)
(0.990944 0.0872156 -2.47004e-18)
(0.990508 0.0864482 3.19294e-18)
(0.990111 0.085545 5.21358e-19)
(0.989787 0.0844623 -4.50287e-22)
(0.989573 0.0831482 -3.81741e-18)
(0.989505 0.081538 1.55989e-18)
(0.989638 0.0795607 -3.19708e-18)
(0.989982 0.077191 5.89886e-18)
(0.990527 0.0744328 1.5795e-18)
(0.991266 0.0712822 -4.8332e-18)
(0.992142 0.0677137 2.00683e-18)
(0.993453 0.0637471 -5.59108e-18)
(0.994064 0.0595564 -1.0949e-18)
(0.994873 0.0546861 -7.79165e-18)
(0.997872 0.0437404 -2.26896e-18)
(0.995359 0.0928458 -7.51383e-22)
(0.995418 0.0928329 -2.92956e-21)
(0.995483 0.0928098 -2.51577e-21)
(0.995552 0.0927835 2.42553e-20)
(0.995622 0.0927527 -1.34023e-20)
(0.995692 0.0927161 -1.58651e-20)
(0.995759 0.0926747 -5.85942e-21)
(0.995821 0.0926294 -2.39468e-20)
(0.995876 0.0925807 1.50522e-20)
(0.995924 0.0925294 2.25967e-21)
(0.995963 0.0924765 8.36967e-22)
(0.995992 0.0924231 6.15356e-20)
(0.996012 0.0923699 -4.33146e-20)
(0.996021 0.0923179 -5.27439e-21)
(0.996021 0.0922674 4.84462e-20)
(0.996011 0.0922191 -2.64669e-20)
(0.995993 0.0921731 -9.85067e-21)
(0.995966 0.0921286 1.62831e-20)
(0.995931 0.0920867 5.10485e-20)
(0.995889 0.0920453 2.75806e-20)
(0.995839 0.0920052 9.79763e-21)
(0.995783 0.0919632 -6.91461e-20)
(0.995719 0.0919252 3.41508e-20)
(0.995648 0.0918877 6.68578e-20)
(0.995567 0.0918556 -1.36361e-19)
(0.995472 0.0918214 4.25685e-20)
(0.995372 0.0917906 -1.6348e-19)
(0.995271 0.0917573 1.28398e-19)
(0.995168 0.091721 1.09418e-19)
(0.995062 0.0916748 -1.67488e-19)
(0.994951 0.0916155 -7.43014e-20)
(0.994833 0.091548 1.0018e-19)
(0.994704 0.091483 3.28879e-20)
(0.994558 0.0914259 -9.64271e-20)
(0.994393 0.0913652 -1.14842e-19)
(0.994209 0.0912809 -1.41569e-19)
(0.994006 0.0911594 8.76834e-20)
(0.993783 0.0909957 2.21541e-19)
(0.993536 0.0907896 7.87028e-20)
(0.993261 0.0905378 -9.36237e-20)
(0.992957 0.0902317 8.99731e-19)
(0.992622 0.0898612 -5.63519e-20)
(0.992259 0.0894162 1.08234e-18)
(0.991871 0.0888858 -2.04679e-18)
(0.991466 0.0882579 2.31767e-19)
(0.991055 0.0875186 9.65497e-20)
(0.990659 0.0866465 -3.67532e-19)
(0.990302 0.0856167 -1.96683e-18)
(0.990021 0.0843907 -3.55599e-18)
(0.98985 0.0829262 3.3027e-18)
(0.989829 0.0811723 4.53082e-18)
(0.990012 0.0790727 2.38836e-18)
(0.99041 0.0766173 -5.43956e-18)
(0.991011 0.0738226 2.95436e-18)
(0.991803 0.0706967 7.80172e-18)
(0.992733 0.0672127 2.63798e-18)
(0.99407 0.0633998 5.44991e-18)
(0.994701 0.0594455 2.46626e-18)
(0.995426 0.0549085 6.46536e-18)
(0.999453 0.0446163 -4.67008e-18)
(0.994983 0.0937182 9.11991e-22)
(0.995024 0.0937032 -2.72388e-21)
(0.995077 0.0936769 9.62095e-21)
(0.995137 0.0936475 2.45833e-21)
(0.995202 0.0936128 -1.3042e-20)
(0.99527 0.0935715 -1.48169e-20)
(0.99534 0.0935243 3.48589e-20)
(0.995408 0.0934719 -3.76693e-20)
(0.995473 0.0934147 -9.06386e-21)
(0.995533 0.0933534 2.28291e-20)
(0.995587 0.093289 2.07925e-20)
(0.995633 0.0932228 6.22684e-20)
(0.99567 0.0931558 -3.51885e-20)
(0.995698 0.0930891 -5.90405e-20)
(0.995717 0.0930231 1.28338e-20)
(0.995726 0.0929589 -4.68496e-20)
(0.995725 0.0928967 3.49037e-20)
(0.995715 0.092836 -5.73719e-20)
(0.995696 0.0927779 9.59658e-21)
(0.995668 0.0927208 -1.7721e-20)
(0.995632 0.0926652 -1.08392e-20)
(0.995587 0.0926085 -4.955e-20)
(0.995534 0.0925568 4.85929e-21)
(0.995472 0.0925062 1.05973e-19)
(0.995399 0.0924619 -3.4551e-20)
(0.99531 0.0924174 1.10243e-20)
(0.995214 0.0923765 2.99635e-20)
(0.995117 0.0923335 -3.96919e-20)
(0.995017 0.0922882 -7.01461e-21)
(0.994913 0.0922338 5.22955e-20)
(0.994805 0.0921666 5.8221e-20)
(0.99469 0.092091 -4.47222e-20)
(0.994563 0.092018 -1.31733e-19)
(0.994421 0.0919527 -1.78663e-19)
(0.994261 0.0918835 2.89922e-19)
(0.994085 0.0917901 7.37065e-20)
(0.993894 0.0916587 4.33027e-20)
(0.993686 0.0914834 2.35697e-19)
(0.993458 0.0912636 -2.43761e-19)
(0.993206 0.0909954 1.48164e-19)
(0.992928 0.0906688 -2.99427e-20)
(0.992625 0.0902717 4.94763e-20)
(0.992299 0.0897922 -3.85594e-19)
(0.991952 0.0892167 8.67606e-19)
(0.991593 0.0885307 -1.15955e-18)
(0.991232 0.0877184 7.30436e-19)
(0.990888 0.0867579 -2.32546e-18)
(0.990586 0.085626 8.85744e-19)
(0.990358 0.0842891 1.81153e-18)
(0.990241 0.0827138 -3.14e-18)
(0.990271 0.0808597 -1.16468e-18)
(0.990503 0.0786821 -5.30776e-19)
(0.990945 0.0761817 -6.68973e-19)
(0.991586 0.0733838 -2.68173e-18)
(0.992406 0.070304 2.49636e-19)
(0.993358 0.0669115 1.90806e-18)
(0.994687 0.0632358 -2.48102e-18)
(0.995299 0.0594747 -7.08382e-19)
(0.995913 0.0551809 -1.10113e-18)
(1.0006 0.0453333 3.21332e-18)
(0.994636 0.0944829 1.57833e-21)
(0.994658 0.0944738 -1.32923e-21)
(0.994694 0.0944493 1.19637e-21)
(0.994739 0.0944217 7.63521e-21)
(0.994793 0.0943878 1.09893e-20)
(0.994852 0.0943465 -4.27211e-20)
(0.994917 0.0942984 3.06417e-20)
(0.994984 0.0942439 6.25334e-21)
(0.995051 0.0941835 -1.94259e-21)
(0.995117 0.0941177 -1.33761e-20)
(0.99518 0.0940477 4.04179e-20)
(0.995238 0.0939747 -1.33024e-20)
(0.995289 0.0938997 -1.8009e-20)
(0.995333 0.0938238 -5.23577e-20)
(0.995368 0.0937478 1.04019e-19)
(0.995395 0.0936727 -2.17346e-20)
(0.995412 0.0935989 -1.8074e-20)
(0.995419 0.093526 -5.13094e-20)
(0.995418 0.0934555 5.62287e-20)
(0.995407 0.0933859 3.05583e-20)
(0.995386 0.0933177 -1.32849e-20)
(0.995357 0.0932488 2.39805e-20)
(0.995318 0.0931853 -9.99858e-20)
(0.99527 0.0931231 6.83479e-21)
(0.99521 0.0930673 5.49644e-20)
(0.995131 0.0930123 -1.05202e-20)
(0.995041 0.0929604 -1.54383e-19)
(0.99495 0.0929059 1.45903e-20)
(0.994855 0.0928487 1.29589e-19)
(0.994756 0.0927824 -3.10227e-20)
(0.994651 0.0927026 -6.39168e-20)
(0.99454 0.0926137 3.07406e-20)
(0.994416 0.0925262 1.04354e-19)
(0.994278 0.0924451 2.46862e-19)
(0.994124 0.0923591 -4.11905e-20)
(0.993956 0.0922474 4.06938e-20)
(0.993776 0.0920962 -3.82726e-19)
(0.993583 0.0918992 -1.30117e-19)
(0.993372 0.0916553 7.81075e-20)
(0.993142 0.0913601 -3.12546e-19)
(0.992891 0.0910029 -9.28004e-20)
(0.99262 0.0905702 1.69644e-19)
(0.99233 0.0900491 8.79557e-20)
(0.992026 0.0894245 3.67863e-19)
(0.991714 0.0886804 1.44115e-18)
(0.991405 0.0878002 -1.23778e-18)
(0.991117 0.0867625 2.07469e-18)
(0.990873 0.085546 1.77329e-18)
(0.990703 0.0841219 2.93754e-20)
(0.990641 0.082464 2.49322e-18)
(0.990721 0.0805404 -3.75688e-18)
(0.990998 0.0783151 -4.63674e-18)
(0.991476 0.0757961 3.71888e-18)
(0.992143 0.0730137 3.2705e-18)
(0.992976 0.0699879 -1.26799e-18)
(0.993931 0.0666828 -8.14234e-18)
(0.995233 0.0631227 2.01344e-18)
(0.995806 0.0595155 -1.62909e-18)
(0.996307 0.0553949 -2.5011e-18)
(1.00139 0.0458464 1.95354e-18)
(0.994329 0.0951333 -1.56674e-21)
(0.994331 0.0951288 1.71047e-21)
(0.994348 0.0951078 1.15105e-20)
(0.994376 0.0950845 -1.49583e-20)
(0.994414 0.0950547 2.68895e-20)
(0.994461 0.0950174 -3.92289e-20)
(0.994515 0.0949728 1.10304e-20)
(0.994575 0.0949213 -5.11438e-22)
(0.994639 0.0948628 2.38375e-20)
(0.994705 0.0947978 -1.244e-20)
(0.994771 0.0947274 3.51306e-21)
(0.994835 0.0946529 3.66411e-21)
(0.994895 0.0945753 -5.669e-20)
(0.99495 0.0944956 1.71025e-20)
(0.994999 0.0944148 3.8444e-20)
(0.99504 0.094334 9.87453e-22)
(0.995073 0.0942537 -6.21507e-20)
(0.995097 0.0941736 2.47059e-20)
(0.995112 0.0940953 1.14488e-19)
(0.995118 0.0940174 -7.40883e-20)
(0.995115 0.0939405 -5.44751e-20)
(0.995102 0.0938626 4.65312e-20)
(0.995079 0.09379 2.77944e-20)
(0.995046 0.0937183 3.14951e-20)
(0.995002 0.0936525 -6.05398e-20)
(0.994935 0.0935877 -1.25989e-19)
(0.994854 0.0935244 9.36802e-20)
(0.994769 0.0934573 1.28249e-19)
(0.99468 0.0933864 2.88134e-20)
(0.994586 0.0933054 -5.88998e-20)
(0.994485 0.0932096 2.79022e-20)
(0.994377 0.0931032 3.83754e-20)
(0.994258 0.0929961 -7.72344e-20)
(0.994123 0.0928935 -2.03882e-20)
(0.993974 0.0927838 -1.35311e-19)
(0.993813 0.0926464 -4.5208e-20)
(0.993642 0.0924676 -2.28391e-20)
(0.99346 0.0922407 9.95931e-20)
(0.993265 0.0919641 -1.23023e-19)
(0.993053 0.0916337 4.76111e-20)
(0.992825 0.0912377 5.40677e-20)
(0.992582 0.0907623 1.0072e-20)
(0.992325 0.0901938 -4.99992e-19)
(0.99206 0.0895167 -7.18491e-19)
(0.991792 0.0887143 -7.56124e-19)
(0.991532 0.0877699 1.44317e-18)
(0.991298 0.086663 -1.77386e-19)
(0.991108 0.0853747 -7.4053e-19)
(0.990994 0.0838802 3.79944e-19)
(0.990983 0.0821594 -2.6365e-18)
(0.99111 0.0801872 1.4049e-18)
(0.991426 0.0779337 3.95e-18)
(0.991933 0.0754117 -5.00123e-19)
(0.992618 0.0726538 -3.68248e-18)
(0.993452 0.0696821 1.89117e-18)
(0.994399 0.0664552 1.83101e-18)
(0.995668 0.06299 1.98479e-18)
(0.996197 0.0595052 4.19662e-18)
(0.996599 0.0555082 3.54158e-18)
(1.00189 0.0461613 -4.36208e-18)
(0.994067 0.0956795 -1.20724e-21)
(0.99405 0.0956816 1.73798e-21)
(0.994049 0.095665 3.51037e-22)
(0.994059 0.0956466 6.46645e-21)
(0.99408 0.0956218 -9.76462e-21)
(0.994111 0.0955893 -1.97693e-20)
(0.994152 0.0955496 7.08023e-21)
(0.994202 0.0955027 -9.13843e-21)
(0.994257 0.0954486 1.98804e-20)
(0.994318 0.0953875 -3.96094e-21)
(0.994382 0.0953204 -1.27172e-20)
(0.994446 0.0952486 1.06034e-20)
(0.99451 0.0951726 1.67354e-20)
(0.994572 0.0950938 4.49816e-20)
(0.994629 0.0950129 -8.09446e-20)
(0.994681 0.0949309 4.076e-20)
(0.994727 0.0948485 6.18846e-21)
(0.994765 0.0947653 -3.88863e-20)
(0.994795 0.0946831 -2.35088e-20)
(0.994816 0.0946007 7.65195e-20)
(0.994828 0.0945183 -7.85673e-20)
(0.994831 0.0944346 2.36246e-20)
(0.994825 0.0943556 -6.16142e-20)
(0.994808 0.0942767 9.96385e-20)
(0.99478 0.0942027 -1.9643e-20)
(0.994725 0.0941291 -5.29651e-20)
(0.994652 0.0940548 4.13996e-20)
(0.994574 0.0939749 7.43298e-20)
(0.99449 0.0938892 -6.977e-20)
(0.9944 0.093792 4.25574e-20)
(0.994304 0.093678 -1.29098e-19)
(0.994199 0.0935513 -1.39252e-20)
(0.994082 0.0934212 5.59949e-20)
(0.99395 0.0932928 -3.04884e-20)
(0.993804 0.0931549 -5.64043e-20)
(0.993648 0.0929865 -1.4241e-19)
(0.993484 0.0927746 1.86901e-19)
(0.993311 0.0925121 -5.82663e-20)
(0.993127 0.0921972 6.11483e-20)
(0.99293 0.0918256 1.01827e-19)
(0.99272 0.0913855 6.15379e-20)
(0.992499 0.0908627 -5.57875e-20)
(0.99227 0.0902435 2.33589e-19)
(0.992038 0.0895121 4.69252e-19)