/*--------------------------------*- C++ -*----------------------------------*\
  =========                 |
  \\      /  F ield         | OpenFOAM: The Open Source CFD Toolbox
   \\    /   O peration     | Website:  https://openfoam.org
    \\  /    A nd           | Version:  6.0
     \\/     M anipulation  |
\*---------------------------------------------------------------------------*/
FoamFile
{
    version     2.0;
    format      ascii;
    class       volScalarField;
    location    "13";
    object      p;
}
// * * * * * * * * * * * * * * * * * * * * * * * * * * * * * * * * * * * * * //

dimensions      [0 2 -2 0 0 0 0];

internalField   nonuniform List<scalar> 
62000
(
0.0238474
0.023617
0.0233747
0.0231246
0.0228624
0.0225928
0.0223135
0.0220314
0.021744
0.0214554
0.0211592
0.0208566
0.0205405
0.0202128
0.0198674
0.0195068
0.019125
0.0187242
0.018298
0.0178479
0.0173672
0.0168565
0.0163092
0.015725
0.0150976
0.0144254
0.0137026
0.0129269
0.0120922
0.0111958
0.0102323
0.00919828
0.00809138
0.0069082
0.00565206
0.0043222
0.00291983
0.00144776
-8.83111e-05
-0.00167901
-0.00331075
-0.00496477
-0.00661682
-0.00823796
-0.00979649
-0.0112607
-0.0126016
-0.0137967
-0.0148274
-0.0156805
-0.0163325
-0.0167504
-0.0168709
-0.016604
-0.015841
-0.0144317
-0.0123589
-0.00930546
-0.0103142
-0.0225213
0.0241617
0.0239466
0.0237201
0.0234814
0.0232229
0.0229448
0.0226426
0.0223265
0.0220024
0.021684
0.0213711
0.0210668
0.0207611
0.020452
0.0201292
0.0197924
0.0194341
0.019056
0.0186518
0.018223
0.0177633
0.0172731
0.0167462
0.0161816
0.0155735
0.0149196
0.0142145
0.0134548
0.0126353
0.0117517
0.0107988
0.00977193
0.00866599
0.0074805
0.00621385
0.00486614
0.00343616
0.00192409
0.000332786
-0.00133131
-0.00305738
-0.00482873
-0.0066219
-0.00840734
-0.0101506
-0.011815
-0.0133644
-0.0147682
-0.0159989
-0.0170349
-0.0178431
-0.018377
-0.0185479
-0.0182179
-0.0172069
-0.0152563
-0.0122905
-0.00820867
-0.00618364
-0.00627373
0.0244615
0.0242643
0.0240572
0.0238415
0.0236121
0.0233632
0.0230785
0.0227588
0.0224101
0.0220545
0.0217043
0.0213722
0.0210531
0.0207439
0.0204308
0.0201092
0.0197681
0.019407
0.0190189
0.0186053
0.0181601
0.0176843
0.0171721
0.016623
0.0160318
0.0153963
0.0147118
0.0139751
0.0131817
0.0123274
0.0114078
0.0104175
0.00935314
0.00821161
0.00699555
0.00570423
0.00433753
0.00289526
0.00137934
-0.000204821
-0.00184716
-0.00353086
-0.00523121
-0.00691584
-0.00854507
-0.0100744
-0.0114572
-0.0126515
-0.0136202
-0.014337
-0.0147759
-0.0149109
-0.0146915
-0.0140269
-0.0128106
-0.0108804
-0.0083732
-0.00542808
-0.00512646
-0.00775494
0.0249276
0.0247382
0.024535
0.0243251
0.0241142
0.0238981
0.0236513
0.023359
0.0230166
0.0226449
0.0222644
0.0218994
0.0215549
0.0212329
0.0209198
0.0206078
0.0202822
0.0199391
0.0195696
0.0191739
0.0187461
0.0182872
0.0177921
0.0172606
0.016688
0.0160727
0.0154104
0.0146984
0.0139329
0.0131101
0.0122258
0.011275
0.0102526
0.00915886
0.00799365
0.00675882
0.00545387
0.0040772
0.00262809
0.00110845
-0.000475576
-0.0021111
-0.00377709
-0.00544426
-0.00707427
-0.00862116
-0.0100335
-0.0112609
-0.0122562
-0.012984
-0.0134158
-0.0135316
-0.0133011
-0.0126597
-0.0115406
-0.00982189
-0.00768431
-0.00525504
-0.00452588
-0.00506062
0.0255868
0.0254302
0.0252495
0.0250521
0.0248558
0.0246661
0.0244562
0.0241999
0.0238787
0.0235046
0.0230985
0.0226921
0.0223006
0.0219345
0.0215854
0.021247
0.0209032
0.020548
0.0201705
0.0197696
0.0193386
0.0188787
0.0183845
0.0178564
0.0172898
0.0166833
0.016033
0.0153366
0.0145905
0.0137918
0.0129363
0.0120189
0.0110355
0.00998368
0.00886685
0.0076858
0.00644058
0.00512808
0.00374447
0.00228718
0.000756693
-0.000840534
-0.0024907
-0.00417234
-0.00585433
-0.0074958
-0.00904652
-0.0104522
-0.0116557
-0.0126068
-0.0132583
-0.0135713
-0.0134959
-0.0129442
-0.0118216
-0.00997063
-0.00752192
-0.0045692
-0.00229603
-0.00181395
0.0265707
0.0264784
0.0263495
0.0261854
0.0260134
0.0258503
0.0256754
0.0254588
0.0251716
0.0248153
0.0244049
0.0239723
0.0235379
0.0231189
0.0227128
0.0223167
0.0219165
0.0215063
0.0210752
0.0206222
0.0201412
0.019634
0.0190962
0.0185286
0.0179273
0.0172913
0.0166171
0.0159027
0.0151452
0.014342
0.0134897
0.0125842
0.0116202
0.0105987
0.00952151
0.00839255
0.00721307
0.00598019
0.00468915
0.00333506
0.00191468
0.000429596
-0.00111262
-0.00269843
-0.00430542
-0.0059009
-0.0074405
-0.00887161
-0.010133
-0.0111634
-0.0118987
-0.0122783
-0.0122276
-0.0116319
-0.0103708
-0.00827665
-0.00551565
-0.00231582
0.000590284
0.00101469
0.0277912
0.0277699
0.0277025
0.0275837
0.0274445
0.0273104
0.0271694
0.0269937
0.0267504
0.0264332
0.0260508
0.0256313
0.0251953
0.0247619
0.0243317
0.0239037
0.0234649
0.0230094
0.0225265
0.0220152
0.0214706
0.020896
0.0202888
0.0196518
0.018983
0.0182826
0.0175483
0.0167794
0.0159736
0.0151298
0.0142455
0.0133177
0.0123434
0.0113224
0.0102612
0.00916483
0.00803823
0.00688096
0.00569016
0.00446185
0.0031924
0.00188197
0.000535194
-0.00083966
-0.00222751
-0.00360429
-0.00493446
-0.00617313
-0.00726377
-0.00814646
-0.00875415
-0.00902176
-0.00887129
-0.00818939
-0.00686762
-0.00478001
-0.00218472
0.000554893
0.00322147
0.00324801
0.0290844
0.0291184
0.0291024
0.0290263
0.0289194
0.0288113
0.028698
0.0285566
0.0283546
0.0280822
0.0277445
0.027366
0.0269661
0.0265635
0.0261593
0.0257522
0.0253286
0.0248809
0.0243968
0.0238737
0.0233062
0.0226978
0.0220476
0.0213596
0.0206343
0.0198738
0.0190779
0.0182474
0.0173819
0.016482
0.0155465
0.0145746
0.0135637
0.0125179
0.0114432
0.0103491
0.00924414
0.00813168
0.00701258
0.0058862
0.00475125
0.00360951
0.00246592
0.00132664
0.000201985
-0.000891414
-0.00192775
-0.00287351
-0.00368419
-0.00431187
-0.00470139
-0.00480093
-0.0045506
-0.00386307
-0.00266456
-0.000879441
0.00118278
0.00316895
0.0053036
0.00501819
0.0303231
0.0303858
0.0304006
0.0303552
0.0302735
0.0301854
0.0300914
0.0299733
0.0298006
0.0295631
0.0292645
0.0289285
0.0285739
0.0282196
0.0278671
0.0275151
0.0271487
0.0267584
0.0263287
0.0258541
0.0253263
0.0247469
0.0241139
0.0234314
0.0227006
0.0219249
0.0211055
0.0202451
0.0193447
0.0184068
0.0174319
0.0164206
0.0153734
0.0142935
0.0131914
0.0120776
0.0109649
0.00986038
0.00876914
0.00769475
0.00663956
0.00560864
0.00460942
0.00364845
0.00273391
0.00187728
0.00109592
0.00041163
-0.000145516
-0.000544556
-0.000749086
-0.000729178
-0.000451558
0.000139192
0.00108603
0.00244182
0.00391766
0.00527953
0.00696669
0.00658999
0.0315101
0.0315798
0.0316069
0.0315782
0.0315116
0.0314344
0.0313501
0.0312433
0.0310854
0.0308666
0.0305908
0.0302814
0.0299583
0.0296414
0.0293338
0.0290348
0.0287304
0.0284098
0.0280559
0.0276603
0.0272116
0.0267078
0.0261444
0.0255232
0.0248441
0.0241098
0.0233216
0.0224825
0.0215941
0.0206598
0.0196813
0.0186607
0.0175984
0.0165012
0.0153783
0.014243
0.0131105
0.0119907
0.0108924
0.00982302
0.00878864
0.00779809
0.00686216
0.0059895
0.00518835
0.00446766
0.00383905
0.00331509
0.00291321
0.00264868
0.00253972
0.00259595
0.00282669
0.00326302
0.00393405
0.00490342
0.00594791
0.00696522
0.00840709
0.00813377
0.0326784
0.0327383
0.0327623
0.0327375
0.0326755
0.0326005
0.0325172
0.0324116
0.0322566
0.0320424
0.0317732
0.0314729
0.0311623
0.0308627
0.030579
0.0303128
0.0300513
0.0297848
0.029496
0.0291753
0.0288093
0.0283935
0.0279203
0.0273887
0.0267961
0.0261431
0.0254291
0.0246561
0.0238248
0.0229382
0.0219979
0.021006
0.0199642
0.0188775
0.0177572
0.0166159
0.0154702
0.0143319
0.0132119
0.0121206
0.0110671
0.0100634
0.00912365
0.0082594
0.00748046
0.00679557
0.00621375
0.00574203
0.00538943
0.00516005
0.00505948
0.00508325
0.00522548
0.00550489
0.00595305
0.0066642
0.00748836
0.0084135
0.00980157
0.00976555
0.0338599
0.033901
0.0339129
0.033883
0.0338175
0.0337375
0.0336484
0.0335372
0.0333773
0.0331589
0.0328862
0.0325831
0.0322712
0.0319724
0.0316936
0.0314377
0.0311945
0.0309554
0.0307051
0.0304342
0.0301294
0.0297849
0.0293918
0.0289468
0.0284449
0.0278842
0.0272618
0.0265775
0.02583
0.0250208
0.0241501
0.0232194
0.0222283
0.021183
0.020092
0.018968
0.0178271
0.0166817
0.0155435
0.0144243
0.0133352
0.0122905
0.0113073
0.0103999
0.00958051
0.00885938
0.00824556
0.00774426
0.00736061
0.00709319
0.00694132
0.00689436
0.00693992
0.00709413
0.00740061
0.00798942
0.008769
0.00976768
0.0112419
0.0115153
0.0350671
0.0350829
0.0350757
0.0350342
0.0349594
0.03487
0.0347711
0.0346502
0.0344811
0.0342538
0.0339724
0.0336604
0.0333398
0.033033
0.0327475
0.0324877
0.0322447
0.0320119
0.0317755
0.0315276
0.031256
0.0309553
0.0306166
0.030236
0.029807
0.0293262
0.0287886
0.0281919
0.0275327
0.0268102
0.0260227
0.0251694
0.0242495
0.0232654
0.0222257
0.0211402
0.0200242
0.018889
0.0177462
0.0166078
0.0154857
0.0143955
0.0133561
0.0123842
0.0114947
0.0107002
0.0100117
0.0094353
0.00897608
0.00863176
0.00840115
0.00827357
0.00823692
0.00831078
0.00855379
0.00912724
0.00997657
0.0111361
0.0127851
0.013401
0.0363174
0.0363079
0.0362807
0.0362246
0.0361372
0.0360346
0.0359223
0.0357882
0.0356062
0.0353662
0.0350722
0.0347476
0.0344142
0.0340945
0.0337965
0.0335246
0.0332713
0.0330308
0.0327909
0.0325452
0.0322829
0.032
0.0316884
0.0313446
0.0309621
0.030537
0.0300634
0.0295374
0.0289538
0.0283101
0.0276022
0.0268279
0.025983
0.0250695
0.024092
0.0230587
0.0219826
0.0208736
0.0197418
0.0185988
0.017456
0.0163293
0.0152388
0.0142029
0.0132387
0.0123616
0.0115852
0.0109186
0.0103692
0.00993713
0.00962441
0.00942491
0.00933022
0.00936582
0.00960421
0.0102302
0.0112083
0.0125606
0.0144349
0.0153999
0.0376251
0.0375903
0.0375419
0.0374691
0.0373662
0.0372478
0.037119
0.0369681
0.0367695
0.0365129
0.0362025
0.0358616
0.0355123
0.0351768
0.0348631
0.0345758
0.0343076
0.0340532
0.0338011
0.0335459
0.0332782
0.0329951
0.0326897
0.0323597
0.0319993
0.0316049
0.0311707
0.0306922
0.0301635
0.0295806
0.0289381
0.0282315
0.0274558
0.0266091
0.0256949
0.0247181
0.0236894
0.0226169
0.0215089
0.0203754
0.0192271
0.0180794
0.0169524
0.0158656
0.0148381
0.0138874
0.0130305
0.0122798
0.0116464
0.0111348
0.0107522
0.0104989
0.0103723
0.0104036
0.0106765
0.011392
0.0125206
0.014069
0.0161945
0.0175078
0.0389765
0.0389189
0.0388507
0.0387614
0.0386427
0.0385074
0.038361
0.0381919
0.0379748
0.0376997
0.037371
0.0370121
0.0366453
0.0362926
0.0359621
0.0356581
0.0353733
0.0351024
0.0348345
0.0345642
0.0342834
0.0339897
0.0336776
0.0333458
0.0329895
0.0326059
0.0321899
0.0317371
0.0312417
0.030699
0.030103
0.0294481
0.0287272
0.0279377
0.0270795
0.0261559
0.0251749
0.0241426
0.0230654
0.0219516
0.0208105
0.0196566
0.0185094
0.017389
0.0163156
0.0153087
0.0143881
0.0135697
0.012869
0.0122949
0.0118608
0.0115744
0.0114384
0.0114892
0.0118186
0.0126382
0.0139185
0.0156527
0.0180402
0.019695
0.0403656
0.0402843
0.0401956
0.0400892
0.0399544
0.0398026
0.039639
0.039452
0.0392166
0.0389227
0.0385752
0.0381978
0.0378128
0.0374425
0.037095
0.0367742
0.0364728
0.0361854
0.0359009
0.0356143
0.0353176
0.0350091
0.034684
0.0343418
0.0339787
0.0335928
0.0331798
0.0327361
0.0322561
0.0317354
0.0311679
0.0305471
0.029866
0.0291191
0.0283061
0.0274272
0.0264888
0.025495
0.0244505
0.0233618
0.0222368
0.0210885
0.0199358
0.0187987
0.0176977
0.0166542
0.01569
0.0148245
0.0140769
0.0134607
0.0129952
0.0126949
0.0125681
0.0126547
0.0130522
0.0139796
0.0154043
0.017313
0.0199656
0.0219559
0.041783
0.0416818
0.0415753
0.0414534
0.0413035
0.0411357
0.0409551
0.0407504
0.0404965
0.0401837
0.0398171
0.0394208
0.0390175
0.0386294
0.0382647
0.0379271
0.0376092
0.0373053
0.0370044
0.0367012
0.0363881
0.0360635
0.0357231
0.0353668
0.0349915
0.0345962
0.0341772
0.0337316
0.0332545
0.032742
0.0321883
0.0315872
0.0309305
0.0302134
0.0294329
0.0285885
0.0276846
0.0267241
0.0257099
0.0246472
0.0235424
0.0224071
0.0212593
0.0201182
0.0190051
0.0179418
0.0169522
0.0160584
0.0152829
0.0146432
0.0141635
0.0138654
0.0137611
0.0138933
0.0143635
0.0153967
0.0169565
0.0190296
0.0219471
0.0242636
0.0432448
0.0431246
0.0430008
0.0428634
0.0426979
0.0425135
0.0423153
0.0420917
0.0418181
0.0414847
0.0410975
0.0406807
0.0402577
0.0398507
0.0394681
0.0391133
0.0387789
0.0384589
0.038142
0.037823
0.0374941
0.0371539
0.0367981
0.036427
0.0360379
0.0356301
0.0352007
0.0347471
0.0342655
0.0337523
0.0332022
0.0326093
0.0319662
0.0312665
0.0305075
0.0296873
0.0288091
0.0278749
0.0268865
0.0258478
0.0247639
0.0236454
0.0225089
0.0213732
0.0202595
0.01919
0.01819
0.0172838
0.0164967
0.0158492
0.0153699
0.0150866
0.0150146
0.015199
0.0157442
0.0168806
0.0185684
0.0208009
0.0239822
0.0266199
0.0447285
0.0445921
0.0444534
0.0443017
0.0441217
0.0439214
0.0437059
0.0434637
0.0431704
0.0428164
0.0424085
0.0419711
0.0415284
0.0411025
0.0407021
0.0403302
0.0399796
0.0396436
0.0393114
0.038977
0.0386332
0.0382781
0.0379077
0.0375222
0.0371193
0.0366985
0.0362571
0.0357932
0.0353032
0.0347842
0.0342315
0.0336397
0.0330012
0.0323108
0.0315642
0.0307593
0.0298986
0.0289836
0.0280152
0.0269965
0.0259318
0.0248303
0.0237078
0.0225826
0.0214753
0.0204085
0.0194084
0.0185012
0.0177142
0.0170704
0.0166019
0.016342
0.016309
0.0165493
0.0171701
0.0184074
0.0202188
0.0226077
0.0260527
0.0290043
0.0462324
0.0460783
0.0459232
0.045757
0.0455626
0.0453473
0.0451158
0.0448563
0.0445445
0.0441712
0.0437433
0.0432861
0.0428241
0.0423799
0.041962
0.0415735
0.041207
0.0408557
0.0405085
0.0401596
0.0398014
0.0394322
0.0390481
0.0386492
0.0382332
0.0377999
0.0373467
0.0368719
0.0363723
0.0358452
0.0352867
0.0346915
0.0340532
0.0333654
0.0326247
0.0318283
0.0309783
0.030076
0.0291221
0.028119
0.0270703
0.0259846
0.0248767
0.0237642
0.0226674
0.0216091
0.020616
0.0197158
0.0189374
0.0183059
0.0178559
0.0176259
0.0176369
0.0179361
0.018634
0.0199718
0.0219055
0.0244523
0.0281611
0.0314236
0.0477448
0.0475761
0.0474074
0.0472283
0.0470208
0.0467911
0.0465443
0.0462681
0.0459385
0.0455463
0.0450992
0.0446229
0.0441424
0.0436804
0.0432457
0.042841
0.042459
0.0420926
0.0417308
0.0413675
0.0409954
0.0406126
0.0402154
0.0398038
0.0393757
0.0389307
0.0384664
0.0379811
0.0374719
0.0369364
0.0363707
0.0357704
0.0351287
0.0344404
0.0337011
0.0329083
0.0320639
0.031169
0.0302245
0.0292324
0.028196
0.0271232
0.0260282
0.0249282
0.0238431
0.0227956
0.0218128
0.0209239
0.0201591
0.0195448
0.0191178
0.0189219
0.0189799
0.0193401
0.0201163
0.0215551
0.023612
0.0263183
0.0302919
0.033859
0.0492885
0.0491055
0.0489231
0.0487308
0.0485095
0.0482649
0.0480018
0.0477079
0.0473593
0.0469468
0.0464792
0.0459825
0.0454825
0.045002
0.04455
0.044129
0.0437314
0.0433501
0.0429739
0.0425966
0.042211
0.0418152
0.0414054
0.0409819
0.0405425
0.0400866
0.0396121
0.0391172
0.0385991
0.0380553
0.0374824
0.036876
0.0362303
0.035539
0.0347987
0.0340062
0.0331636
0.0322722
0.0313329
0.0303477
0.02932
0.0282573
0.0271731
0.0260843
0.0250107
0.0239748
0.0230041
0.0221291
0.0213808
0.0207873
0.0203865
0.0202277
0.0203354
0.0207591
0.021616
0.0231582
0.0253407
0.0282111
0.0324501
0.0363201
0.0508412
0.0506462
0.0504521
0.0502478
0.0500134
0.0497543
0.0494752
0.0491636
0.0487958
0.0483632
0.047875
0.0473579
0.0468386
0.0463397
0.0458706
0.0454334
0.0450206
0.0446247
0.0442343
0.0438433
0.0434446
0.0430361
0.0426143
0.0421794
0.0417293
0.0412634
0.0407795
0.0402759
0.0397496
0.0391984
0.0386187
0.0380066
0.0373558
0.0366613
0.0359182
0.0351241
0.0342807
0.0333897
0.0324523
0.0314706
0.030448
0.0293919
0.0283156
0.0272356
0.0261715
0.0251461
0.024187
0.0233262
0.0225951
0.0220234
0.0216504
0.0215304
0.0216896
0.0221786
0.0231184
0.0247667
0.0270783
0.0301161
0.0346217
0.0387888
0.0524026
0.0521932
0.0519854
0.0517681
0.0515207
0.0512478
0.0509537
0.0506257
0.05024
0.0497882
0.0492802
0.0487436
0.0482053
0.0476887
0.0472029
0.0467501
0.0463224
0.0459123
0.0455082
0.045104
0.0446925
0.0442718
0.0438385
0.0433927
0.0429325
0.0424573
0.0419648
0.0414533
0.0409197
0.0403617
0.039776
0.0391583
0.0385032
0.0378045
0.0370582
0.0362611
0.0354152
0.0345225
0.0335843
0.0326032
0.0315829
0.0305305
0.0294594
0.028386
0.0273296
0.0263134
0.0253651
0.0245182
0.0238044
0.0232557
0.0229114
0.022832
0.0230446
0.0236017
0.0246276
0.0263856
0.0288303
0.0320405
0.0368138
0.0412765
0.0539601
0.0537386
0.0535192
0.0532902
0.0530304
0.0527439
0.0524351
0.0520909
0.0516877
0.0512172
0.0506902
0.0501346
0.0495784
0.0490446
0.048543
0.0480751
0.0476333
0.0472094
0.0467922
0.0463752
0.0459515
0.045519
0.0450747
0.0446186
0.0441489
0.0436651
0.0431647
0.042646
0.0421058
0.0415418
0.0409505
0.0403281
0.0396683
0.0389659
0.0382158
0.037415
0.0365653
0.0356691
0.0347282
0.0337452
0.0327243
0.0316728
0.0306039
0.029534
0.0284826
0.027473
0.0265337
0.0256989
0.0250016
0.0244749
0.0241599
0.0241215
0.024389
0.0250165
0.0261315
0.0280027
0.0305845
0.0339701
0.0390119
0.0437633
0.0555349
0.0553008
0.0550687
0.054827
0.0545537
0.0542525
0.0539277
0.053566
0.0531438
0.0526532
0.0521058
0.0515302
0.0509551
0.0504039
0.0498863
0.0494037
0.048948
0.0485112
0.0480816
0.0476526
0.0472175
0.0467741
0.0463196
0.045854
0.0453756
0.0448838
0.0443763
0.0438511
0.043305
0.0427356
0.0421394
0.0415122
0.0408486
0.0401419
0.0393878
0.0385826
0.0377282
0.0368273
0.0358819
0.0348953
0.0338717
0.0328188
0.0317498
0.0306811
0.0296326
0.0286278
0.0276959
0.026872
0.0261902
0.0256855
0.0254004
0.0254039
0.0257281
0.0264289
0.0276364
0.0296246
0.0323476
0.0359131
0.0412244
0.0462623
0.057104
0.0568585
0.0566148
0.0563607
0.0560739
0.0557577
0.0554167
0.0550372
0.0545959
0.0540852
0.0535175
0.0529222
0.0523287
0.0517607
0.0512279
0.0507313
0.050263
0.0498141
0.0493731
0.0489331
0.0484876
0.0480343
0.0475705
0.0470964
0.0466101
0.0461112
0.0455972
0.0450662
0.0445148
0.0439406
0.0433398
0.0427086
0.0420405
0.04133
0.0405713
0.039761
0.038901
0.0379943
0.0370431
0.036051
0.0350228
0.0339662
0.0328945
0.0318243
0.0307759
0.0297732
0.0288464
0.0280312
0.0273634
0.0268793
0.0266245
0.0266703
0.027052
0.0278282
0.029131
0.0312393
0.0341073
0.0378547
0.0434365
0.0487534
0.0586633
0.0584027
0.0581446
0.0578767
0.0575758
0.0572454
0.0568891
0.0564932
0.0560342
0.0555048
0.0549182
0.0543047
0.0536941
0.0531106
0.0525638
0.0520547
0.0515747
0.0511152
0.0506639
0.0502143
0.0497595
0.0492975
0.0488254
0.0483437
0.0478505
0.0473453
0.0468258
0.0462897
0.0457336
0.0451549
0.0445499
0.0439144
0.0432424
0.0425271
0.0417634
0.0409473
0.040081
0.0391675
0.0382095
0.0372108
0.0361765
0.0351146
0.0340385
0.032965
0.0319148
0.0309125
0.0299891
0.0291812
0.0285263
0.0280628
0.0278389
0.0279283
0.0283685
0.0292222
0.0306233
0.032855
0.0358715
0.0398043
0.045658
0.0512525
0.0602065
0.0599327
0.0596616
0.0593804
0.0590657
0.0587206
0.0583489
0.0579366
0.0574602
0.0569127
0.0563081
0.0556772
0.0550508
0.054453
0.0538935
0.053373
0.0528827
0.0524136
0.0519534
0.051495
0.0510321
0.0505623
0.0500831
0.0495948
0.0490956
0.0485851
0.0480607
0.0475201
0.0469599
0.0463773
0.0457682
0.0451287
0.044452
0.0437319
0.0429625
0.0421398
0.0412663
0.0403452
0.0393794
0.0383729
0.0373311
0.0362621
0.0351795
0.0341004
0.033046
0.0320417
0.0311195
0.0303168
0.0296732
0.0292291
0.0290368
0.0291693
0.0296685
0.0306008
0.0321019
0.0344593
0.0376269
0.041746
0.0478722
0.0537372
0.0617575
0.0614695
0.0611843
0.0608886
0.0605589
0.0601979
0.0598094
0.0593792
0.0588838
0.0583168
0.0576928
0.0570437
0.0564007
0.0557885
0.0552166
0.0546853
0.0541855
0.0537079
0.0532397
0.0527741
0.0523042
0.0518279
0.0513426
0.0508488
0.0503447
0.0498296
0.0493012
0.048757
0.0481932
0.047607
0.0469942
0.0463503
0.045669
0.0449432
0.0441673
0.0433373
0.0424559
0.0415265
0.0405521
0.0395372
0.0384869
0.0374098
0.0363194
0.0352332
0.0341731
0.0331653
0.0322429
0.0314444
0.0308111
0.0303866
0.0302265
0.0304028
0.0309613
0.0319731
0.0335759
0.0360609
0.0393821
0.0436901
0.0500896
0.0562248
0.063298
0.0629969
0.0626985
0.0623887
0.0620439
0.0616666
0.0612611
0.0608127
0.0602983
0.0597117
0.0590686
0.0584016
0.0577427
0.0571166
0.0565331
0.0559918
0.0554836
0.0549985
0.0545236
0.0540516
0.0535759
0.0530942
0.052604
0.0521057
0.0515977
0.0510791
0.0505475
0.0500003
0.0494335
0.0488442
0.0482276
0.0475796
0.046893
0.0461612
0.0453782
0.0445401
0.0436501
0.0427117
0.0417281
0.0407037
0.0396439
0.0385571
0.0374572
0.0363621
0.0352942
0.0342808
0.0333561
0.0325596
0.0319354
0.0315293
0.031402
0.0316216
0.0322382
0.0333287
0.0350331
0.0376468
0.0411229
0.0456202
0.0522923
0.058691
0.0648269
0.0645089
0.0641943
0.0638691
0.063509
0.0631165
0.0626954
0.0622307
0.0616989
0.0610945
0.0604338
0.0597503
0.0590766
0.0584381
0.0578439
0.0572939
0.0567782
0.0562867
0.0558061
0.0553289
0.0548484
0.0543623
0.0538682
0.0533665
0.0528555
0.0523343
0.0518004
0.0512509
0.0506817
0.0500895
0.0494695
0.048817
0.0481254
0.0473871
0.0465964
0.0457496
0.0448503
0.0439022
0.0429086
0.041874
0.0408039
0.0397066
0.0385963
0.0374911
0.0364142
0.035394
0.034466
0.0336706
0.0330546
0.032667
0.0325729
0.032836
0.0335098
0.0346781
0.036484
0.0392268
0.0428591
0.047548
0.0544924
0.0611548
0.0663419
0.0660093
0.0656805
0.0653408
0.0649659
0.0645582
0.0641214
0.0636404
0.0630916
0.0624699
0.0617923
0.0610932
0.0604058
0.0597556
0.0591519
0.0585941
0.058072
0.057575
0.0570896
0.0566081
0.0561238
0.0556343
0.0551373
0.0546331
0.05412
0.053597
0.0530615
0.0525104
0.0519393
0.0513447
0.0507215
0.0500651
0.049368
0.0486231
0.0478244
0.0469684
0.046059
0.0451004
0.0440958
0.04305
0.0419683
0.0408592
0.0397368
0.0386199
0.0375322
0.0365031
0.0355698
0.0347736
0.0341644
0.0337939
0.0337327
0.0340381
0.0347667
0.0360103
0.0379156
0.0407868
0.0445756
0.0494554
0.0566696
0.0635888
0.0678662
0.0675176
0.0671732
0.0668177
0.0664268
0.0660026
0.0655491
0.0650505
0.0644836
0.0638435
0.0631482
0.062433
0.0617317
0.0610703
0.0604577
0.0598931
0.0593657
0.0588645
0.0583756
0.0578912
0.0574044
0.0569127
0.0564138
0.0559081
0.0553938
0.0548698
0.0543334
0.0537812
0.0532087
0.0526121
0.0519862
0.0513258
0.0506238
0.049872
0.0490648
0.0481989
0.0472787
0.0463086
0.0452922
0.0442342
0.04314
0.0420181
0.0408828
0.0397531
0.0386536
0.0376146
0.0366749
0.035877
0.0352735
0.0349199
0.0348909
0.035238
0.0360196
0.0373358
0.0393387
0.0423374
0.0462827
0.0513547
0.0588377
0.0660147
0.0693894
0.0690225
0.06866
0.0682863
0.0678774
0.0674358
0.0669655
0.0664507
0.0658677
0.0652117
0.0645012
0.0637724
0.0630594
0.0623885
0.0617685
0.0611982
0.0606665
0.060162
0.0596705
0.059184
0.0586954
0.0582023
0.0577023
0.0571957
0.0566807
0.0561562
0.0556192
0.0550663
0.0544927
0.0538944
0.0532659
0.052602
0.0518947
0.0511359
0.05032
0.0494436
0.0485117
0.0475292
0.0464999
0.0454285
0.0443205
0.0431843
0.0420345
0.0408904
0.0397771
0.0387263
0.037778
0.0369763
0.0363767
0.0360381
0.0360395
0.0364259
0.0372571
0.0386422
0.0407394
0.0438632
0.0479641
0.0532261
0.0609762
0.0684046
0.0709882
0.0705947
0.0702053
0.0698063
0.0693738
0.0689112
0.0684211
0.0678876
0.0672857
0.0666117
0.0658839
0.0651395
0.0644128
0.0637305
0.0631012
0.0625237
0.0619863
0.0614778
0.0609831
0.0604942
0.0600039
0.0595094
0.0590083
0.0585009
0.0579852
0.05746
0.0569222
0.0563684
0.0557936
0.0551935
0.0545624
0.0538946
0.053182
0.0524162
0.0515911
0.0507037
0.0497597
0.048764
0.0477207
0.0466349
0.045512
0.0443605
0.0431952
0.0420356
0.0409076
0.0398439
0.0388859
0.0380793
0.037482
0.0371573
0.037187
0.0376112
0.0384896
0.0399402
0.0421289
0.0453758
0.0496311
0.0550836
0.063101
0.0707823
0.0725513
0.0721522
0.0717562
0.0713462
0.070899
0.0704178
0.0699084
0.0693548
0.0687339
0.0680414
0.0672971
0.0665377
0.0657984
0.0651052
0.0644671
0.0638821
0.0633386
0.0628248
0.0623258
0.0618332
0.0613399
0.0608428
0.0603394
0.0598299
0.0593123
0.0587853
0.0582458
0.0576901
0.057113
0.0565105
0.0558761
0.0552042
0.054486
0.0537128
0.0528786
0.05198
0.0510233
0.0500138
0.0489556
0.0478541
0.0467149
0.0455466
0.044364
0.0431872
0.0420425
0.0409638
0.0399937
0.0391796
0.0385821
0.0382683
0.0383234
0.0387817
0.0397035
0.0412154
0.0434917
0.0468586
0.0512661
0.0569066
0.065189
0.0731171
0.0743622
0.0739423
0.0735221
0.0730872
0.0726131
0.0721047
0.0715656
0.0709813
0.0703281
0.0696036
0.0688282
0.0680406
0.0672761
0.0665613
0.0659046
0.0653039
0.0647473
0.0642225
0.0637143
0.0632139
0.0627139
0.062211
0.0617027
0.0611886
0.0606667
0.0601357
0.0595923
0.0590329
0.0584522
0.0578457
0.0572072
0.0565303
0.0558062
0.0550255
0.0541817
0.0532719
0.0523021
0.0512781
0.0502043
0.0490862
0.0479298
0.0467437
0.045543
0.0443479
0.0431855
0.0420904
0.0411068
0.0402836
0.039684
0.0393789
0.0394561
0.0399459
0.0409085
0.0424784
0.0448393
0.0483234
0.0528815
0.0587106
0.0672573
0.0754342
0.0760537
0.0756319
0.0752108
0.0747723
0.0742918
0.0737727
0.0732208
0.0726205
0.0719492
0.0712042
0.0704078
0.0695988
0.0688141
0.0680802
0.0674061
0.0667891
0.0662174
0.0656785
0.0651574
0.064645
0.0641341
0.0636213
0.0631038
0.0625813
0.0620518
0.0615135
0.0609635
0.0603979
0.0598113
0.0591993
0.058555
0.0578724
0.0571415
0.0563526
0.0554992
0.0545778
0.0535948
0.052556
0.0514658
0.0503302
0.0491554
0.04795
0.0467295
0.0455144
0.0443321
0.0432183
0.0422186
0.0413833
0.0407782
0.0404778
0.0405729
0.0410901
0.0420892
0.0437131
0.0461546
0.0497524
0.0544585
0.0604735
0.0692816
0.0777018
0.077984
0.0775446
0.0771034
0.0766453
0.0761446
0.0756058
0.0750319
0.0744076
0.0737089
0.0729349
0.072108
0.0712691
0.0704554
0.0696944
0.068995
0.0683546
0.0677611
0.0672018
0.0666618
0.0661318
0.0656048
0.0650768
0.0645456
0.0640103
0.063469
0.0629199
0.06236
0.0617852
0.0611902
0.0605705
0.0599188
0.0592287
0.05849
0.0576925
0.0568289
0.0558956
0.0548991
0.0538452
0.0527384
0.0515847
0.0503907
0.0491653
0.0479242
0.0466881
0.0454848
0.044351
0.0433334
0.042484
0.0418709
0.0415721
0.0416814
0.0422227
0.0432558
0.0449308
0.0474498
0.0511586
0.0560109
0.0622125
0.0712812
0.0799485
0.0798
0.0793678
0.0789344
0.0784808
0.0779805
0.0774363
0.0768533
0.076215
0.0754987
0.0747029
0.0738522
0.0729879
0.0721491
0.0713634
0.0706404
0.0699769
0.0693613
0.0687804
0.0682195
0.0676689
0.0671223
0.0665756
0.0660266
0.0654747
0.0649178
0.0643543
0.063781
0.0631941
0.062588
0.0619581
0.0612969
0.0605978
0.0598501
0.0590428
0.0581686
0.057223
0.0562128
0.0551436
0.0540196
0.0528473
0.0516333
0.0503867
0.0491234
0.0478644
0.0466381
0.0454817
0.0444434
0.0435763
0.0429513
0.0426493
0.042768
0.0433286
0.0443916
0.0461139
0.0487067
0.0525228
0.0575186
0.0639044
0.073231
0.0821416
0.081827
0.0813937
0.0809556
0.0804947
0.079983
0.0794237
0.0788205
0.0781573
0.0774113
0.0765825
0.0756969
0.0747975
0.0739247
0.0731067
0.0723534
0.0716614
0.0710189
0.0704121
0.0698265
0.069252
0.0686824
0.0681135
0.0675435
0.0669714
0.0663957
0.0658146
0.0652249
0.064623
0.0640031
0.0633606
0.0626879
0.0619779
0.0612197
0.0604018
0.0595159
0.0585575
0.0575332
0.0564483
0.055307
0.0541157
0.0528813
0.0516131
0.050327
0.0490444
0.0477939
0.0466135
0.0455525
0.0446655
0.0440256
0.0437169
0.0438408
0.0444175
0.0455076
0.0472745
0.0499384
0.053859
0.0589966
0.0655676
0.0751518
0.0843119
0.0837634
0.0833283
0.0828901
0.0824304
0.0819193
0.0813584
0.0807496
0.0800755
0.079313
0.0784624
0.0775513
0.0766239
0.0757228
0.0748767
0.0740965
0.0733783
0.0727105
0.0720789
0.0714688
0.0708698
0.0702763
0.0696836
0.0690905
0.0684961
0.0678992
0.0672978
0.0666893
0.0660698
0.0654337
0.0647764
0.06409
0.0633674
0.0625971
0.061767
0.0608686
0.0598966
0.0588577
0.0577568
0.0565979
0.0553873
0.0541319
0.052841
0.0515309
0.0502228
0.048946
0.0477389
0.0466521
0.0457412
0.0450821
0.0447614
0.0448854
0.0454733
0.0465864
0.0483942
0.0511254
0.0551469
0.0604241
0.0671781
0.077018
0.0864253
0.0857063
0.0852654
0.0848228
0.0843596
0.0838455
0.0832811
0.0826676
0.0819858
0.0812115
0.0803449
0.0794142
0.0784649
0.0775402
0.0766698
0.0758651
0.0751222
0.0744298
0.0737733
0.0731385
0.0725145
0.0718962
0.0712787
0.0706613
0.0700432
0.0694233
0.0687999
0.0681705
0.0675315
0.0668772
0.0662031
0.0655012
0.064764
0.0639799
0.0631365
0.0622242
0.0612379
0.0601838
0.0590666
0.0578898
0.0566597
0.0553833
0.0540696
0.052735
0.0514008
0.0500967
0.0488614
0.0477469
0.0468097
0.0461281
0.0457916
0.0459115
0.0465073
0.0476408
0.0494868
0.0522825
0.0564022
0.0618175
0.0687559
0.0788525
0.0885147
0.0876712
0.0872221
0.086771
0.0862986
0.0857744
0.085199
0.0845736
0.0838781
0.0830884
0.082204
0.0812544
0.0802851
0.0793409
0.078451
0.0776275
0.0768652
0.0761533
0.0754762
0.0748199
0.0741733
0.0735316
0.07289
0.0722483
0.0716059
0.0709622
0.0703157
0.0696642
0.0690042
0.06833
0.0676375
0.0669182
0.0661652
0.065366
0.0645078
0.0635809
0.0625795
0.0615096
0.0603756
0.0591806
0.0579308
0.0566327
0.0552954
0.0539351
0.0525731
0.0512396
0.0499734
0.0488278
0.04786
0.0471515
0.0467936
0.0469044
0.047503
0.0486526
0.0505329
0.0533893
0.0576036
0.0631553
0.0702765
0.0806288
0.090545
0.0897136
0.0892532
0.0887902
0.0883045
0.0877659
0.0871749
0.0865326
0.0858183
0.0850075
0.0841
0.0831259
0.0821321
0.081164
0.080251
0.0794053
0.0786214
0.077888
0.0771892
0.0765107
0.0758411
0.075176
0.0745102
0.0738443
0.0731774
0.0725096
0.0718393
0.0711649
0.0704829
0.069788
0.0690758
0.0683383
0.0675681
0.0667528
0.0658791
0.0649366
0.0639192
0.0628329
0.0616818
0.0604684
0.0591986
0.0578789
0.0565178
0.0551315
0.0537413
0.0523773
0.0510788
0.0499002
0.0488993
0.0481606
0.0477775
0.047875
0.048473
0.0496358
0.0515477
0.0544617
0.0587682
0.0644553
0.0717611
0.0823709
0.092551
0.0917778
0.0913078
0.0908342
0.0903361
0.0897829
0.0891744
0.0885126
0.0877758
0.0869401
0.0860052
0.0850034
0.0839816
0.0829874
0.0820498
0.0811817
0.0803761
0.0796219
0.078902
0.0782021
0.0775101
0.076822
0.0761324
0.0754423
0.074751
0.0740589
0.0733647
0.072667
0.0719627
0.0712465
0.0705143
0.0697579
0.06897
0.068138
0.0672479
0.0662894
0.0652555
0.0641523
0.0629836
0.0617514
0.0604613
0.0591193
0.0577337
0.0563202
0.0549
0.0535034
0.0521696
0.0509547
0.0499164
0.049143
0.0487292
0.0488081
0.0494005
0.0505719
0.0525112
0.0554789
0.0598741
0.0656951
0.0731846
0.084052
0.0944972
0.0939028
0.0934228
0.0929383
0.0924277
0.0918599
0.0912343
0.0905526
0.0897922
0.0889292
0.0879635
0.0869287
0.0858734
0.0848463
0.0838772
0.0829795
0.0821459
0.0813653
0.0806197
0.0798951
0.0791782
0.0784655
0.0777512
0.0770364
0.0763205
0.075604
0.074886
0.0741652
0.0734387
0.0727013
0.071949
0.0711737
0.0703679
0.0695189
0.0686123
0.0676372
0.0665864
0.065466
0.0642793
0.0630281
0.0617175
0.0603532