/*--------------------------------*- C++ -*----------------------------------*\
  =========                 |
  \\      /  F ield         | OpenFOAM: The Open Source CFD Toolbox
   \\    /   O peration     | Website:  https://openfoam.org
    \\  /    A nd           | Version:  6.0
     \\/     M anipulation  |
\*---------------------------------------------------------------------------*/
FoamFile
{
    version     2.0;
    format      ascii;
    class       volVectorField;
    location    "13";
    object      U;
}
// * * * * * * * * * * * * * * * * * * * * * * * * * * * * * * * * * * * * * //

dimensions      [0 1 -1 0 0 0 0];

internalField   nonuniform List<vector> 
62000
(
(0.965705 -0.259642 -3.19737e-21)
(0.96569 -0.25965 2.68475e-21)
(0.965671 -0.259679 2.71883e-21)
(0.965654 -0.259707 -1.18668e-20)
(0.965639 -0.259737 -1.33625e-20)
(0.965626 -0.259771 4.66671e-20)
(0.965616 -0.259802 -5.10383e-20)
(0.965608 -0.259822 2.97223e-20)
(0.965605 -0.259828 -1.37189e-20)
(0.965605 -0.259819 -6.93349e-20)
(0.965608 -0.2598 -7.65902e-21)
(0.96561 -0.259776 9.73026e-20)
(0.965612 -0.25975 1.92314e-20)
(0.965612 -0.259727 -6.7858e-20)
(0.965611 -0.259705 1.04797e-19)
(0.965607 -0.259686 -5.59438e-20)
(0.965603 -0.25967 5.56976e-20)
(0.965598 -0.259655 -6.59485e-20)
(0.965593 -0.259642 3.14606e-20)
(0.965588 -0.259631 -9.48398e-20)
(0.965583 -0.259622 1.2298e-19)
(0.965579 -0.259614 3.34336e-20)
(0.965574 -0.259608 4.53644e-20)
(0.96557 -0.259604 -2.18382e-19)
(0.965567 -0.2596 7.81557e-20)
(0.965565 -0.259598 -4.45006e-20)
(0.965565 -0.259597 1.78442e-21)
(0.965566 -0.259597 -2.97218e-20)
(0.965569 -0.259597 1.00121e-19)
(0.965576 -0.259598 -4.67153e-20)
(0.965586 -0.259599 1.07081e-19)
(0.9656 -0.2596 -2.06444e-19)
(0.965621 -0.259598 2.33683e-20)
(0.965647 -0.259594 -4.56341e-20)
(0.965682 -0.259585 -6.71806e-21)
(0.965727 -0.259572 -3.26642e-20)
(0.965783 -0.259554 9.35656e-21)
(0.965854 -0.259529 1.35268e-20)
(0.965942 -0.259494 1.05693e-20)
(0.966052 -0.259445 -5.1939e-20)
(0.966187 -0.259378 3.00886e-20)
(0.966349 -0.259286 2.30129e-19)
(0.966544 -0.259163 5.20325e-19)
(0.966773 -0.259001 -3.55001e-19)
(0.967039 -0.258791 -1.6428e-19)
(0.967346 -0.258524 7.29021e-19)
(0.967695 -0.258188 -7.62445e-20)
(0.968089 -0.257766 4.10182e-19)
(0.968532 -0.257238 2.05696e-18)
(0.969029 -0.256568 6.59224e-19)
(0.969585 -0.255709 3.60923e-19)
(0.970202 -0.254588 4.38622e-18)
(0.970873 -0.253105 -1.18947e-18)
(0.971578 -0.251122 -5.75058e-18)
(0.972283 -0.248416 -1.36181e-18)
(0.972985 -0.244655 -5.67423e-18)
(0.973386 -0.23845 4.39981e-19)
(0.976392 -0.228962 6.67969e-19)
(0.976137 -0.204248 -1.78047e-18)
(1.06726 -0.116644 -3.8403e-19)
(0.965565 -0.260103 -8.7127e-22)
(0.965549 -0.260106 8.3261e-21)
(0.965536 -0.260134 3.36844e-21)
(0.96553 -0.260149 -1.48221e-20)
(0.965524 -0.260177 6.12794e-21)
(0.965512 -0.260233 -4.18421e-20)
(0.965496 -0.260322 3.85893e-20)
(0.965479 -0.260432 2.18785e-20)
(0.965465 -0.260542 -4.09872e-20)
(0.965457 -0.26063 2.05065e-21)
(0.965456 -0.260688 3.91571e-20)
(0.96546 -0.260718 -2.45539e-22)
(0.965468 -0.260728 1.07515e-20)
(0.965476 -0.260728 -9.44116e-20)
(0.965481 -0.260726 1.87953e-19)
(0.965484 -0.260726 -1.65738e-19)
(0.965485 -0.26073 7.66974e-20)
(0.965483 -0.260737 -1.64364e-20)
(0.965481 -0.260747 -4.24688e-20)
(0.965478 -0.260759 1.15296e-19)
(0.965475 -0.260772 -1.8004e-19)
(0.965474 -0.260786 1.03005e-19)
(0.965474 -0.260802 -1.26057e-19)
(0.965476 -0.260817 7.57923e-20)
(0.965481 -0.260832 6.489e-20)
(0.965489 -0.260847 -4.29177e-20)
(0.965501 -0.260861 2.56849e-21)
(0.965517 -0.260874 4.69142e-20)
(0.965538 -0.260886 3.62649e-20)
(0.965566 -0.260896 -5.88364e-20)
(0.965602 -0.260902 1.202e-19)
(0.965647 -0.260905 1.5631e-20)
(0.965703 -0.2609 5.87559e-20)
(0.965774 -0.260889 -8.12716e-21)
(0.965861 -0.260869 6.81158e-21)
(0.965968 -0.260839 -2.18166e-20)
(0.966099 -0.260793 -2.61277e-20)
(0.966257 -0.260727 -2.45469e-20)
(0.966447 -0.260634 -2.40942e-20)
(0.966674 -0.260508 4.08333e-20)
(0.966943 -0.260341 -3.85479e-20)
(0.967259 -0.260122 -6.4158e-20)
(0.967623 -0.259843 -5.41832e-19)
(0.968037 -0.259495 -3.42087e-20)
(0.968502 -0.259069 1.3114e-18)
(0.969017 -0.258555 -6.32281e-19)
(0.969584 -0.257942 -6.50822e-19)
(0.970204 -0.257212 -7.96325e-19)
(0.97088 -0.256336 -2.61181e-19)
(0.971617 -0.255264 -6.63596e-20)
(0.972411 -0.253928 -1.85381e-18)
(0.973249 -0.252231 -5.48715e-18)
(0.974089 -0.250064 4.05383e-18)
(0.974854 -0.247305 1.01574e-17)
(0.975382 -0.243835 2.53533e-18)
(0.975521 -0.239715 2.37291e-18)
(0.974476 -0.23479 3.94645e-18)
(0.972157 -0.232227 2.27104e-18)
(0.971242 -0.241169 -1.79738e-18)
(0.973492 -0.254033 -6.60961e-19)
(0.965531 -0.260884 -4.30754e-21)
(0.965551 -0.260905 -5.727e-22)
(0.965559 -0.260926 7.07056e-22)
(0.96556 -0.260914 3.06467e-21)
(0.96555 -0.260888 8.54391e-21)
(0.965524 -0.260876 -8.15507e-21)
(0.965488 -0.260912 4.27948e-20)
(0.965447 -0.261009 -2.08663e-20)
(0.965409 -0.261152 -1.10691e-20)
(0.965378 -0.261307 -6.5854e-20)
(0.965358 -0.261443 5.58179e-20)
(0.96535 -0.261543 4.02638e-21)
(0.965354 -0.261606 -1.23773e-20)
(0.965366 -0.261644 3.26891e-20)
(0.965382 -0.261668 -5.57359e-20)
(0.965398 -0.261691 7.28809e-22)
(0.965414 -0.261717 -2.45108e-20)
(0.965427 -0.261749 1.4196e-21)
(0.965439 -0.261785 5.68544e-20)
(0.96545 -0.261824 -8.48498e-20)
(0.96546 -0.261864 5.29749e-20)
(0.965471 -0.261903 1.9582e-19)
(0.965483 -0.261942 -3.12727e-20)
(0.965498 -0.261978 -2.63795e-19)
(0.965515 -0.262012 1.34876e-19)
(0.965536 -0.262044 -6.70615e-20)
(0.965561 -0.262072 1.0872e-19)
(0.965591 -0.262098 -6.82021e-20)
(0.965627 -0.262119 -1.18588e-19)
(0.965669 -0.262136 1.20303e-19)
(0.965719 -0.262148 -7.89467e-20)
(0.965779 -0.262151 9.39575e-20)
(0.965851 -0.262144 -2.37298e-19)
(0.965936 -0.262127 1.83138e-19)
(0.966039 -0.262101 -8.59932e-20)
(0.966163 -0.26206 3.4257e-20)
(0.96631 -0.261998 2.96608e-20)
(0.966486 -0.261908 1.25385e-20)
(0.966693 -0.261782 5.69468e-21)
(0.966935 -0.261615 2.38904e-20)
(0.967217 -0.261398 3.31151e-20)
(0.967539 -0.261123 -8.24691e-20)
(0.967902 -0.260783 3.19395e-19)
(0.968304 -0.260376 2.06524e-19)
(0.968739 -0.259898 -3.82929e-19)
(0.969203 -0.259351 1.03039e-18)
(0.969689 -0.258735 -2.08493e-19)
(0.970192 -0.258045 1.25204e-18)
(0.970709 -0.257268 -1.97603e-18)
(0.971238 -0.256372 -5.88403e-19)
(0.97177 -0.255307 -2.04176e-19)
(0.972289 -0.254 2.69742e-19)
(0.972749 -0.252379 -1.44881e-18)
(0.97308 -0.250377 -1.01159e-18)
(0.973112 -0.247961 2.76147e-18)
(0.972758 -0.245314 2.07928e-18)
(0.971368 -0.24255 4.84812e-19)
(0.969488 -0.242816 3.45559e-18)
(0.970042 -0.241349 3.27673e-19)
(0.991392 -0.2267 -1.70781e-19)
(0.965925 -0.261453 -4.39957e-21)
(0.965914 -0.261489 1.34467e-20)
(0.965853 -0.261543 -2.11981e-21)
(0.965779 -0.26157 -1.37362e-20)
(0.965697 -0.261557 2.0586e-20)
(0.965601 -0.261518 3.50453e-20)
(0.965496 -0.261499 -4.60859e-20)
(0.965392 -0.261546 4.89794e-21)
(0.965297 -0.261671 1.53468e-20)
(0.965217 -0.261851 3.13634e-20)
(0.965155 -0.262043 -5.87679e-20)
(0.965114 -0.262212 -1.74658e-20)
(0.965095 -0.262343 -1.90674e-20)
(0.965095 -0.262437 8.85303e-20)
(0.965111 -0.262508 -5.85059e-20)
(0.965138 -0.26257 1.33725e-19)
(0.965174 -0.262634 -1.61914e-19)
(0.965213 -0.262706 -2.20515e-20)
(0.965253 -0.262785 1.64873e-19)
(0.965293 -0.262868 -5.78887e-20)
(0.965333 -0.262952 -2.10967e-20)
(0.965371 -0.263034 -2.13192e-20)
(0.965409 -0.263111 -1.84977e-19)
(0.965447 -0.263181 1.10704e-19)
(0.965485 -0.263244 -4.28993e-20)
(0.965525 -0.263299 7.39277e-20)
(0.965567 -0.263346 3.32332e-20)
(0.965613 -0.263384 1.48468e-19)
(0.965663 -0.263415 -9.5202e-20)
(0.965718 -0.263436 -1.1055e-19)
(0.965781 -0.263448 1.63544e-19)
(0.965853 -0.263447 -1.31019e-19)
(0.965936 -0.263432 2.14396e-19)
(0.966031 -0.263403 -1.11471e-19)
(0.966144 -0.263362 5.95764e-20)
(0.966278 -0.263303 7.80515e-20)
(0.966438 -0.263219 -2.45283e-20)
(0.966627 -0.263101 7.47721e-21)
(0.966849 -0.262943 -2.62049e-20)
(0.967109 -0.262736 1.9341e-20)
(0.967411 -0.262474 -6.8862e-21)
(0.967758 -0.262146 -1.65122e-20)
(0.96815 -0.261748 -5.79934e-20)
(0.968585 -0.261276 -1.53003e-19)
(0.969057 -0.26073 -3.7228e-19)
(0.969558 -0.260111 -1.92086e-19)
(0.97008 -0.259424 -6.9424e-19)
(0.970614 -0.258665 -8.93571e-19)
(0.971149 -0.257826 -1.08305e-18)
(0.971679 -0.256878 8.90594e-19)
(0.972191 -0.255774 1.38893e-18)
(0.972667 -0.254442 -8.9357e-19)
(0.973071 -0.252803 -1.26324e-18)
(0.973352 -0.250776 -3.59346e-18)
(0.973374 -0.248272 -2.42559e-18)
(0.973149 -0.245324 -3.51265e-18)
(0.972276 -0.241741 -6.22175e-18)
(0.971119 -0.238956 -5.07669e-20)
(0.974428 -0.236939 1.87586e-18)
(0.980044 -0.2325 8.53934e-19)
(0.966458 -0.262076 8.74561e-21)
(0.966309 -0.262141 -2.9708e-21)
(0.966108 -0.262248 4.80656e-21)
(0.965932 -0.262356 -6.89528e-21)
(0.965775 -0.262423 1.51873e-20)
(0.965618 -0.262429 -7.6488e-21)
(0.965457 -0.262413 3.88955e-21)
(0.965301 -0.262433 -5.90708e-20)
(0.965159 -0.262526 4.93868e-20)
(0.965036 -0.262689 -9.59563e-20)
(0.964935 -0.262886 1.05612e-19)
(0.964858 -0.263076 -1.28168e-20)
(0.964807 -0.263231 -2.70413e-20)
(0.964781 -0.263341 -1.1639e-20)
(0.964782 -0.263418 -2.15973e-21)
(0.964806 -0.26348 -1.18826e-19)
(0.964851 -0.263542 8.31226e-21)
(0.964913 -0.263615 1.28455e-19)
(0.964986 -0.263704 -4.01517e-20)
(0.965067 -0.263807 -4.03656e-20)
(0.965153 -0.263919 7.00976e-20)
(0.96524 -0.264034 -3.23562e-20)
(0.965326 -0.264148 1.3707e-19)
(0.96541 -0.264255 6.93136e-20)
(0.965491 -0.264352 4.8021e-20)
(0.96557 -0.264438 -1.6705e-19)
(0.965647 -0.264512 -2.26771e-20)
(0.965723 -0.264572 -1.17775e-19)
(0.9658 -0.264618 2.3591e-20)
(0.965878 -0.26465 -3.21261e-20)
(0.965962 -0.264667 -1.234e-20)
(0.966052 -0.264666 9.15636e-20)
(0.96615 -0.264646 -2.31253e-19)
(0.96626 -0.264607 -1.35686e-20)
(0.966386 -0.264553 -9.29325e-20)
(0.966533 -0.264477 -3.93773e-20)
(0.966706 -0.264373 -1.02682e-20)
(0.966911 -0.264233 -9.23744e-20)
(0.967154 -0.264048 1.00967e-19)
(0.96744 -0.263811 3.77648e-20)
(0.967776 -0.263514 3.96006e-20)
(0.968168 -0.263145 4.40761e-21)
(0.968619 -0.262697 1.21014e-20)
(0.96913 -0.262162 6.46207e-20)
(0.9697 -0.261536 -2.20094e-19)
(0.970323 -0.260815 -4.21144e-19)
(0.970991 -0.259996 -4.16462e-20)
(0.971693 -0.259069 -1.53702e-19)
(0.972414 -0.258016 4.92925e-19)
(0.973138 -0.256803 -2.21371e-18)
(0.973843 -0.255376 -5.95538e-19)
(0.974498 -0.25366 7.11825e-19)
(0.975051 -0.251571 -4.82671e-20)
(0.97544 -0.249034 -2.56425e-18)
(0.975509 -0.245978 -5.003e-21)
(0.975258 -0.242468 2.86369e-18)
(0.974292 -0.238549 5.34482e-18)
(0.972175 -0.236498 -4.74008e-18)
(0.973311 -0.240001 -1.6399e-20)
(0.980213 -0.23853 -4.03103e-19)
(0.966422 -0.263559 -3.43793e-21)
(0.966124 -0.263671 1.38769e-20)
(0.965833 -0.263812 -2.28233e-20)
(0.965631 -0.263984 1.70211e-20)
(0.965487 -0.264132 1.09412e-20)
(0.965359 -0.264211 -1.16803e-20)
(0.965233 -0.264236 9.30999e-22)
(0.965109 -0.264264 -8.64646e-21)
(0.964993 -0.264342 -2.85387e-20)
(0.96489 -0.264481 5.47763e-20)
(0.964801 -0.264657 -8.32934e-20)
(0.964728 -0.264828 7.2565e-20)
(0.964671 -0.26496 6.17203e-20)
(0.964631 -0.265036 -9.60175e-20)
(0.964612 -0.265061 -2.9858e-20)
(0.964615 -0.265053 1.1323e-19)
(0.964643 -0.265033 -1.34845e-19)
(0.964697 -0.265021 1.82733e-19)
(0.964776 -0.265028 -3.66004e-20)
(0.964876 -0.265059 1.68851e-20)
(0.964994 -0.265113 -3.24754e-20)
(0.965124 -0.265185 -3.86583e-20)
(0.965262 -0.265269 -6.57273e-20)
(0.965402 -0.265359 1.11502e-19)
(0.965543 -0.265448 -7.6639e-20)
(0.96568 -0.265532 -6.89581e-20)
(0.965813 -0.265607 1.40421e-19)
(0.965942 -0.26567 -1.27046e-19)
(0.966066 -0.26572 1.92261e-19)
(0.966188 -0.265754 -1.03529e-19)
(0.96631 -0.265772 6.67655e-20)
(0.966433 -0.265769 -1.12603e-19)
(0.96656 -0.265743 1.05133e-19)
(0.966694 -0.265697 -1.82918e-20)
(0.96684 -0.265632 -7.85436e-21)
(0.967002 -0.265545 -6.87122e-21)
(0.967186 -0.265429 -4.96245e-20)
(0.967399 -0.265277 8.25626e-20)
(0.967648 -0.265081 -4.75216e-20)
(0.96794 -0.264835 -2.15358e-19)
(0.968284 -0.264529 -5.33902e-20)
(0.968689 -0.264154 -1.54721e-20)
(0.969159 -0.263697 -2.00491e-20)
(0.969702 -0.263149 1.02778e-19)
(0.970318 -0.262501 8.06344e-21)
(0.971006 -0.261742 -3.63371e-19)
(0.971759 -0.260861 7.01091e-19)
(0.972567 -0.259841 9.03104e-19)
(0.973411 -0.258657 8.44162e-19)
(0.974265 -0.257271 1.3955e-18)
(0.975092 -0.25563 -7.71751e-19)
(0.975843 -0.253669 4.88504e-19)
(0.976439 -0.25133 3.76488e-18)
(0.976785 -0.248588 -4.02105e-19)
(0.976688 -0.245474 -1.36987e-18)
(0.9761 -0.242231 1.80346e-18)
(0.974629 -0.239274 -2.13915e-18)
(0.971168 -0.240104 3.0156e-19)
(0.971628 -0.245778 -2.42474e-19)
(0.979669 -0.241837 2.42322e-19)
(0.965591 -0.266084 4.21351e-21)
(0.965248 -0.266228 -1.90203e-20)
(0.964986 -0.26636 9.31122e-21)
(0.96486 -0.266546 1.72737e-20)
(0.964816 -0.26673 -3.69813e-20)
(0.964802 -0.266854 3.10163e-20)
(0.964792 -0.266917 -2.05976e-20)
(0.96478 -0.266964 1.74244e-20)
(0.964767 -0.267045 2.74425e-20)
(0.964755 -0.267178 -6.56919e-20)
(0.964745 -0.267345 9.36979e-20)
(0.964738 -0.267507 3.77938e-20)
(0.96473 -0.267626 -1.54833e-19)
(0.964721 -0.267675 -2.73718e-20)
(0.964712 -0.267653 8.0332e-20)
(0.964706 -0.26757 4.9804e-20)
(0.964711 -0.26745 -6.0911e-20)
(0.964733 -0.267315 5.11055e-20)
(0.96478 -0.267186 7.70159e-20)
(0.964854 -0.267075 -3.97625e-20)
(0.964957 -0.266991 -2.21037e-20)
(0.965087 -0.266932 7.22883e-20)
(0.965239 -0.2669 1.41511e-19)
(0.965408 -0.266887 -1.0832e-19)
(0.965589 -0.266891 -1.10225e-19)
(0.965776 -0.266903 1.163e-19)
(0.965965 -0.266919 -8.97116e-20)
(0.966151 -0.266935 -2.9785e-20)
(0.966334 -0.266945 2.67051e-19)
(0.966512 -0.266947 -1.14622e-19)
(0.966687 -0.266937 -7.33097e-20)
(0.966858 -0.266909 1.00964e-19)
(0.967029 -0.266862 6.32297e-20)
(0.967201 -0.266795 -5.87708e-20)
(0.967377 -0.266711 -3.42053e-20)
(0.967563 -0.266608 9.11804e-20)
(0.967763 -0.266478 4.32254e-21)
(0.967983 -0.266316 3.08119e-20)
(0.96823 -0.266116 -1.12374e-19)
(0.968512 -0.265872 -1.10227e-19)
(0.968838 -0.265577 1.22446e-19)
(0.969216 -0.265221 5.24974e-20)
(0.969655 -0.264793 -1.27255e-20)
(0.970163 -0.264282 -1.62029e-20)
(0.970743 -0.263675 3.34774e-20)
(0.971397 -0.262959 1.79734e-19)
(0.972121 -0.262119 -4.65075e-19)
(0.972905 -0.261132 -4.72826e-19)
(0.973728 -0.259972 7.10356e-19)
(0.974559 -0.2586 8.77421e-19)
(0.975352 -0.256973 5.98837e-19)
(0.976043 -0.25504 -1.41344e-19)
(0.976537 -0.252776 -2.36544e-19)
(0.97672 -0.25021 1.31468e-18)
(0.976385 -0.247456 -7.90063e-19)
(0.975489 -0.244869 -7.50738e-19)
(0.973749 -0.242965 -1.03749e-18)
(0.969839 -0.245384 -3.12031e-19)
(0.970372 -0.250507 1.03877e-19)
(0.980512 -0.243655 2.14297e-19)
(0.964325 -0.269245 -7.37163e-21)
(0.964067 -0.26938 -5.90479e-21)
(0.96393 -0.269468 8.04782e-21)
(0.963933 -0.269617 2.84257e-20)
(0.96402 -0.269786 -6.12323e-20)
(0.964139 -0.269911 7.00439e-20)
(0.964263 -0.269982 -3.28873e-21)
(0.964381 -0.270036 -4.51907e-21)
(0.964492 -0.270119 -2.48633e-20)
(0.964598 -0.270254 5.95254e-20)
(0.964699 -0.270429 -9.1411e-20)
(0.964795 -0.270605 3.42589e-20)
(0.964881 -0.270742 -1.08617e-21)
(0.964952 -0.270809 5.14308e-20)
(0.965004 -0.270792 2.33766e-20)
(0.965036 -0.270695 -1.28056e-19)
(0.965053 -0.270533 1.10067e-19)
(0.965062 -0.270326 4.13699e-20)
(0.965075 -0.270096 -1.19022e-19)
(0.965103 -0.26986 5.85219e-20)
(0.965154 -0.269633 2.50696e-20)
(0.965236 -0.269422 -1.80566e-20)
(0.965349 -0.269235 1.84724e-20)
(0.965495 -0.269071 -1.26712e-20)
(0.965667 -0.268931 -1.31578e-19)
(0.96586 -0.268813 8.1451e-20)
(0.966069 -0.268711 -1.17965e-19)
(0.966288 -0.268622 2.16255e-19)
(0.966512 -0.268541 -3.98168e-20)
(0.966737 -0.268465 -2.4474e-20)
(0.966961 -0.268386 -7.80693e-21)
(0.967182 -0.2683 1.7193e-19)
(0.967401 -0.2682 -7.68974e-20)
(0.967618 -0.268088 -5.24527e-20)
(0.967835 -0.267964 9.17268e-20)
(0.968056 -0.267827 7.06556e-20)
(0.968282 -0.267669 -1.13249e-19)
(0.968519 -0.267486 2.0625e-20)
(0.968772 -0.267273 1.51968e-19)
(0.969047 -0.267026 -5.5658e-20)
(0.969354 -0.26674 9.62329e-20)
(0.969699 -0.266406 -7.86834e-20)
(0.970091 -0.266014 1.43122e-19)
(0.970538 -0.265553 9.02797e-20)
(0.971045 -0.265011 -1.07969e-19)
(0.971615 -0.264373 -3.82435e-21)
(0.972248 -0.263622 1.31804e-19)
(0.972933 -0.262733 1.70778e-19)
(0.973653 -0.261679 -2.16208e-19)
(0.974376 -0.260423 -8.48614e-19)
(0.975054 -0.258927 3.63058e-19)
(0.975619 -0.257152 5.95066e-19)
(0.975977 -0.25509 -4.95313e-19)
(0.976015 -0.252795 3.07258e-19)
(0.975546 -0.250404 4.12418e-20)
(0.974572 -0.248266 -1.72821e-19)
(0.972944 -0.246791 4.74887e-19)
(0.969275 -0.249315 1.8456e-18)
(0.970125 -0.253219 6.14684e-19)
(0.981769 -0.244177 5.34194e-19)
(0.963122 -0.272515 -3.70067e-21)
(0.963028 -0.272618 3.19003e-21)
(0.963043 -0.272654 1.60528e-20)
(0.963171 -0.272752 2.53716e-20)
(0.963368 -0.272877 -7.52008e-20)
(0.96359 -0.272975 4.32811e-20)
(0.963814 -0.273029 -7.70985e-20)
(0.96403 -0.273069 1.2062e-19)
(0.964239 -0.273142 -5.6447e-20)
(0.964441 -0.273272 9.86186e-21)
(0.964638 -0.27345 1.06298e-19)
(0.964832 -0.273643 -2.41272e-19)
(0.965017 -0.27381 1.63222e-19)
(0.965187 -0.273919 2.16538e-20)
(0.965333 -0.273949 3.5115e-20)
(0.965448 -0.273896 -1.50004e-19)
(0.965528 -0.273765 7.2822e-20)
(0.965576 -0.273568 -8.82846e-20)
(0.965599 -0.273321 1.71782e-19)
(0.965608 -0.27304 -2.63231e-20)
(0.965619 -0.272738 -2.11001e-19)
(0.965643 -0.272429 8.10184e-20)
(0.965692 -0.272122 -5.43189e-21)
(0.965773 -0.271825 -2.77438e-19)
(0.965889 -0.271544 2.11815e-19)
(0.966038 -0.271283 1.51009e-19)
(0.966218 -0.271041 9.67087e-20)
(0.966424 -0.27082 -1.1998e-19)
(0.966648 -0.270616 -1.18912e-19)
(0.966886 -0.270426 5.30666e-20)
(0.967133 -0.270246 8.28996e-20)
(0.967386 -0.270069 -8.6738e-20)
(0.96764 -0.26989 -1.21673e-19)
(0.967896 -0.269706 2.516e-19)
(0.968153 -0.269519 1.40482e-20)
(0.968411 -0.269325 -3.09955e-19)
(0.968672 -0.269121 1.62406e-20)
(0.968938 -0.268899 1.84052e-19)
(0.969212 -0.268654 3.19576e-20)
(0.969498 -0.268387 1.82233e-19)
(0.969804 -0.268092 -2.00952e-19)
(0.970137 -0.267761 -2.4172e-20)
(0.970501 -0.267387 -6.53398e-20)
(0.970905 -0.266958 1.1238e-19)
(0.971355 -0.266463 6.11256e-20)
(0.971853 -0.265886 2.95184e-19)
(0.972401 -0.265209 -1.36877e-19)
(0.972992 -0.264405 6.1731e-20)
(0.97361 -0.263447 6.99036e-20)
(0.974227 -0.262296 -1.58337e-19)
(0.974798 -0.260917 1.34793e-19)
(0.975265 -0.259272 -1.33961e-19)
(0.975537 -0.257354 1.6481e-19)
(0.97552 -0.255215 -4.04254e-19)
(0.975054 -0.252973 -2.09395e-19)
(0.974191 -0.250925 -9.65749e-20)
(0.972863 -0.249346 -5.15083e-19)
(0.969619 -0.251388 -1.47518e-18)
(0.970705 -0.254431 1.4359e-18)
(0.983149 -0.244165 3.06879e-19)
(0.96228 -0.275565 5.30401e-21)
(0.962354 -0.275625 1.86995e-21)
(0.962493 -0.275616 -1.93265e-20)
(0.962708 -0.275663 1.84454e-20)
(0.962973 -0.275743 -8.18242e-21)
(0.963253 -0.275806 1.45778e-20)
(0.96353 -0.275833 4.94173e-21)
(0.963799 -0.275853 -7.26575e-20)
(0.964062 -0.275907 3.17657e-20)
(0.96432 -0.276024 -2.10632e-20)
(0.964578 -0.276196 1.32108e-20)
(0.964837 -0.276395 4.94023e-20)
(0.965095 -0.276583 -9.51245e-21)
(0.965347 -0.276729 2.92649e-20)
(0.965585 -0.276811 -1.23412e-19)
(0.965796 -0.276821 4.79046e-20)
(0.965971 -0.276758 2.0258e-20)
(0.966104 -0.276626 -5.52075e-20)
(0.966192 -0.276433 1.0818e-19)
(0.96624 -0.276188 3.35783e-20)
(0.96626 -0.275899 -5.18473e-21)
(0.966265 -0.275575 -3.88629e-20)
(0.96627 -0.275228 1.42764e-19)
(0.966291 -0.274865 -3.82726e-19)
(0.966337 -0.274497 2.0212e-19)
(0.966416 -0.274132 8.20042e-20)
(0.966532 -0.273776 -1.25313e-19)
(0.966683 -0.273435 2.1595e-19)
(0.966866 -0.27311 -1.05814e-19)
(0.967078 -0.272803 -4.98135e-20)
(0.967312 -0.272511 -8.10817e-20)
(0.967563 -0.272231 -3.54435e-20)
(0.967828 -0.271955 9.31063e-20)
(0.968102 -0.271683 -2.55076e-19)
(0.968384 -0.271416 4.69811e-19)
(0.968673 -0.27115 -4.17607e-20)
(0.968967 -0.270881 1.93929e-19)
(0.969266 -0.270602 -4.95218e-19)
(0.969572 -0.270308 -1.26215e-19)
(0.969887 -0.27 3.49049e-20)
(0.970216 -0.269672 -1.15409e-19)
(0.970564 -0.269319 -2.78168e-20)
(0.970934 -0.268932 -3.04617e-19)
(0.971333 -0.268501 1.89684e-19)
(0.971766 -0.268013 1.3581e-19)
(0.972237 -0.267453 -3.77569e-19)
(0.972746 -0.266799 5.58024e-19)
(0.973288 -0.266026 6.09196e-20)
(0.973852 -0.2651 1.91415e-19)
(0.974414 -0.263984 -2.79482e-19)
(0.974935 -0.262639 -7.26701e-20)
(0.975363 -0.261024 -5.40075e-20)
(0.975621 -0.259124 8.58583e-19)
(0.97563 -0.256976 -1.47093e-19)
(0.975252 -0.254676 -1.69616e-18)
(0.974568 -0.252474 6.48494e-19)
(0.973537 -0.250578 -2.69167e-18)
(0.970619 -0.252143 -1.0218e-18)
(0.971789 -0.254847 -4.95412e-18)
(0.984475 -0.244014 -5.21983e-19)
(0.961848 -0.278241 -1.20958e-21)
(0.962049 -0.27827 -4.75842e-21)
(0.962261 -0.278234 -4.14713e-21)
(0.96252 -0.278245 4.00482e-20)
(0.962813 -0.27829 -2.22766e-20)
(0.963112 -0.278323 -2.66694e-20)
(0.963405 -0.278328 -9.89993e-21)
(0.96369 -0.278327 -4.07503e-20)
(0.96397 -0.278363 2.59342e-20)
(0.96425 -0.278462 4.02778e-21)
(0.964533 -0.278622 1.72587e-21)
(0.964824 -0.278817 1.06647e-19)
(0.965121 -0.279011 -7.53952e-20)
(0.965424 -0.279177 -8.92117e-21)
(0.965726 -0.279294 8.41108e-20)
(0.966017 -0.279355 -4.65069e-20)
(0.966283 -0.279358 -1.76875e-20)
(0.966515 -0.279303 2.80412e-20)
(0.966701 -0.279192 8.88576e-20)
(0.966835 -0.279027 4.66105e-20)
(0.966921 -0.27881 1.44298e-20)
(0.966966 -0.278542 -1.20354e-19)
(0.966981 -0.278232 5.89492e-20)
(0.966984 -0.27788 1.0618e-19)
(0.966989 -0.277499 -2.25769e-19)
(0.967011 -0.277098 6.88278e-20)
(0.967061 -0.276685 -2.69672e-19)
(0.967144 -0.276271 2.1499e-19)
(0.967264 -0.27586 1.75611e-19)
(0.967421 -0.275461 -2.65681e-19)
(0.967612 -0.275073 -1.28492e-19)
(0.967833 -0.274696 1.5581e-19)
(0.96808 -0.274328 5.18312e-20)
(0.968348 -0.273967 -1.17725e-19)
(0.968635 -0.273617 -1.56327e-19)
(0.968939 -0.273271 -1.73854e-19)
(0.969255 -0.272928 1.09957e-19)
(0.969584 -0.272581 2.31709e-19)
(0.969925 -0.272225 8.3029e-20)
(0.970277 -0.271859 -4.03918e-20)
(0.970644 -0.27148 6.13077e-19)
(0.971029 -0.271079 -1.02309e-19)
(0.971435 -0.27065 5.19304e-19)
(0.971864 -0.27018 -8.92195e-19)
(0.972322 -0.269658 2.17051e-19)
(0.972812 -0.269065 -9.85188e-22)
(0.973333 -0.26838 1.15229e-19)
(0.973882 -0.267571 -6.34058e-19)
(0.974449 -0.266607 -8.66452e-19)
(0.975013 -0.265444 8.26859e-19)
(0.975542 -0.264042 1.14103e-18)
(0.97599 -0.262354 7.27642e-19)
(0.976287 -0.260357 -1.10417e-18)
(0.976366 -0.258079 7.30068e-19)
(0.9761 -0.255597 1.92354e-18)
(0.975578 -0.253147 1.41591e-18)
(0.974749 -0.250938 2.63566e-18)
(0.971993 -0.252221 2.16836e-18)
(0.97314 -0.254936 5.16431e-18)
(0.985707 -0.24389 -2.18105e-18)
(0.961736 -0.280539 1.60201e-21)
(0.962007 -0.280545 -4.80832e-21)
(0.962247 -0.280494 1.72145e-20)
(0.962513 -0.280482 4.47294e-21)
(0.962806 -0.280502 -2.36668e-20)
(0.963101 -0.280517 -2.71529e-20)
(0.963386 -0.280505 6.43295e-20)
(0.963664 -0.280491 -6.99939e-20)
(0.96394 -0.280514 -1.67689e-20)
(0.964218 -0.280601 4.30858e-20)
(0.964504 -0.28075 3.92207e-20)
(0.964802 -0.280936 1.17462e-19)
(0.965113 -0.281128 -6.72488e-20)
(0.965438 -0.281299 -1.12373e-19)
(0.965773 -0.281432 2.47851e-20)
(0.966112 -0.281522 -8.90831e-20)
(0.966445 -0.281569 6.77571e-20)
(0.96676 -0.281573 -1.10391e-19)
(0.967042 -0.281536 1.95952e-20)
(0.96728 -0.281456 -3.39819e-20)
(0.967466 -0.28133 -1.98591e-20)
(0.967598 -0.281153 -9.159e-20)
(0.967679 -0.280925 1.24603e-20)
(0.967721 -0.280644 2.00604e-19)
(0.967738 -0.280315 -6.7597e-20)
(0.967746 -0.279943 2.16274e-20)
(0.96776 -0.279538 6.0774e-20)
(0.967794 -0.27911 -7.13407e-20)
(0.967858 -0.278667 -1.51203e-20)
(0.967957 -0.27822 9.5276e-20)
(0.968094 -0.277772 9.90669e-20)
(0.968268 -0.277328 -6.83259e-20)
(0.968479 -0.276888 -2.24657e-19)
(0.968722 -0.276453 -3.15545e-19)
(0.968996 -0.276028 4.46523e-19)
(0.969298 -0.275608 1.26567e-19)
(0.969623 -0.275193 8.72731e-20)
(0.969972 -0.274777 3.65869e-19)
(0.970342 -0.274353 -2.86565e-19)
(0.970731 -0.27392 1.80653e-19)
(0.971142 -0.273476 3.82357e-20)
(0.971576 -0.273012 -2.422e-20)
(0.972034 -0.272517 -2.02274e-19)
(0.972517 -0.271983 4.83057e-19)
(0.97303 -0.271392 -6.42435e-19)
(0.973573 -0.270727 3.76686e-19)
(0.974146 -0.269963 -9.55652e-19)
(0.974744 -0.269067 1.33782e-19)
(0.975358 -0.268004 5.10611e-19)
(0.975969 -0.26673 -9.59569e-19)
(0.976548 -0.2652 -5.64432e-20)
(0.977052 -0.263367 1.07045e-19)
(0.977416 -0.2612 -3.84344e-19)
(0.977576 -0.258725 -1.02226e-18)
(0.977408 -0.256018 4.12563e-20)
(0.976996 -0.253323 1.61952e-18)
(0.976269 -0.250884 -1.94182e-18)
(0.97353 -0.252076 -7.7889e-19)
(0.974581 -0.254993 -5.75827e-19)
(0.986841 -0.243876 1.74214e-18)
(0.961826 -0.282483 3.05712e-21)
(0.96212 -0.282484 -2.58578e-21)
(0.962353 -0.282434 2.37121e-21)
(0.962606 -0.282415 1.51814e-20)
(0.962883 -0.282424 2.20037e-20)
(0.963159 -0.282429 -8.60478e-20)
(0.963426 -0.28241 6.22037e-20)
(0.963686 -0.282387 1.27943e-20)
(0.963946 -0.282403 -4.08569e-21)
(0.964211 -0.282481 -2.78288e-20)
(0.964487 -0.282622 8.37927e-20)
(0.964778 -0.2828 -2.7908e-20)
(0.965087 -0.282986 -3.76101e-20)
(0.965414 -0.283154 -1.09671e-19)
(0.965759 -0.28329 2.17785e-19)
(0.966119 -0.283391 -4.59244e-20)
(0.966486 -0.283459 -3.76479e-20)
(0.966855 -0.283498 -1.08895e-19)
(0.96721 -0.283511 1.19769e-19)
(0.967538 -0.283496 6.46708e-20)
(0.967826 -0.28345 -3.10805e-20)
(0.968064 -0.283363 4.87145e-20)
(0.968245 -0.283231 -2.10447e-19)
(0.968373 -0.283045 1.6717e-20)
(0.968453 -0.282805 1.13251e-19)
(0.968499 -0.28251 -2.03554e-20)
(0.968526 -0.282165 -3.29431e-19)
(0.968551 -0.281777 3.49851e-20)
(0.968589 -0.281355 2.82293e-19)
(0.96865 -0.28091 -7.53698e-20)
(0.968744 -0.280447 -1.36024e-19)
(0.968875 -0.279975 8.23249e-20)
(0.969046 -0.279496 2.17679e-19)
(0.969257 -0.279013 4.8611e-19)
(0.969507 -0.278534 -6.97908e-20)
(0.969797 -0.278057 9.9453e-20)
(0.970121 -0.277581 -6.76248e-19)
(0.97048 -0.277102 -1.58435e-19)
(0.970871 -0.276613 1.03933e-19)
(0.971292 -0.276114 -4.33979e-19)
(0.971745 -0.275601 -6.4646e-20)
(0.97223 -0.275064 1.74259e-19)
(0.972746 -0.274493 1.84372e-19)
(0.973294 -0.273876 3.95555e-19)
(0.973876 -0.273196 1.1378e-18)
(0.974491 -0.272432 -8.52766e-19)
(0.975137 -0.271559 1.3367e-18)
(0.975809 -0.270541 9.3713e-19)
(0.976497 -0.269342 -2.19773e-20)
(0.97718 -0.267915 1.24353e-18)
(0.977831 -0.266217 -1.62916e-18)
(0.978408 -0.264198 -2.04445e-18)
(0.978846 -0.261829 1.68568e-18)
(0.97908 -0.259136 1.58212e-18)
(0.978982 -0.256206 -7.96407e-19)
(0.978628 -0.253306 -5.00138e-18)
(0.977927 -0.250722 1.47116e-18)
(0.975109 -0.251952 -2.61006e-18)
(0.976041 -0.255112 -2.87335e-18)
(0.987908 -0.243946 1.72715e-18)
(0.962014 -0.284152 -3.37259e-21)
(0.962298 -0.28415 3.69812e-21)
(0.962507 -0.284103 2.51793e-20)
(0.962737 -0.284079 -3.29083e-20)
(0.96299 -0.284083 5.96475e-20)
(0.963244 -0.284084 -8.76054e-20)
(0.963489 -0.284064 2.48382e-20)
(0.963729 -0.28404 -1.11059e-21)
(0.963969 -0.284054 5.43694e-20)
(0.964217 -0.28413 -2.87639e-20)
(0.964478 -0.284267 8.28272e-21)
(0.964757 -0.284441 8.23697e-21)
(0.965054 -0.284622 -1.31009e-19)
(0.965373 -0.284786 3.99401e-20)
(0.965714 -0.28492 8.93214e-20)
(0.966074 -0.285022 2.30961e-21)
(0.966451 -0.285096 -1.45343e-19)
(0.966844 -0.28515 5.99368e-20)
(0.967241 -0.285189 2.70168e-19)
(0.967631 -0.285214 -1.77245e-19)
(0.968 -0.285223 -1.3125e-19)
(0.968335 -0.285207 1.10022e-19)
(0.968622 -0.285159 6.89521e-20)
(0.968855 -0.285067 7.40282e-20)
(0.969032 -0.284925 -1.452e-19)
(0.969158 -0.284727 -3.01562e-19)
(0.969245 -0.284471 2.29651e-19)
(0.969306 -0.284162 3.10471e-19)
(0.969359 -0.283802 8.00001e-20)
(0.969418 -0.283403 -1.69741e-19)
(0.969496 -0.282968 7.16941e-20)
(0.969603 -0.282509 1.20869e-19)
(0.969748 -0.282026 -2.02295e-19)
(0.969933 -0.281528 -3.10715e-20)
(0.970162 -0.281023 -3.29995e-19)
(0.970436 -0.28051 -7.22138e-20)
(0.970755 -0.279993 -8.04324e-20)
(0.971118 -0.279465 1.95684e-19)
(0.971525 -0.278922 -2.80354e-19)
(0.971972 -0.278364 6.39343e-20)
(0.972463 -0.277785 1.27745e-19)
(0.972995 -0.277176 3.46734e-20)
(0.973568 -0.276525 -6.22363e-19)
(0.974181 -0.275819 -8.35432e-19)
(0.974835 -0.27504 -6.52216e-19)
(0.975528 -0.274164 1.334e-18)
(0.976256 -0.273166 1.35317e-19)
(0.977011 -0.272009 -4.78685e-19)
(0.977781 -0.270655 2.63486e-19)
(0.978546 -0.269057 -1.58651e-18)
(0.979276 -0.267173 7.60644e-19)
(0.979929 -0.264956 2.20967e-18)
(0.980436 -0.262378 -7.28568e-20)
(0.98073 -0.259475 -2.21925e-18)
(0.980675 -0.256345 1.14012e-18)
(0.980342 -0.253284 1.27589e-18)
(0.979619 -0.250617 2.19109e-18)
(0.976665 -0.251953 7.63488e-18)
(0.97746 -0.255346 5.74239e-18)
(0.988922 -0.244096 -4.00877e-18)
(0.962219 -0.285591 -2.92624e-21)
(0.962477 -0.285593 4.22708e-21)
(0.962656 -0.285552 8.78726e-22)
(0.962861 -0.285529 1.60273e-20)
(0.963091 -0.28553 -2.4328e-20)
(0.963324 -0.28553 -4.95778e-20)
(0.963549 -0.285509 1.7929e-20)
(0.96377 -0.285486 -2.32175e-20)
(0.963992 -0.2855 5.10273e-20)
(0.964224 -0.285577 -1.0064e-20)
(0.96447 -0.285713 -3.27858e-20)
(0.964733 -0.285887 2.74383e-20)
(0.965018 -0.286066 4.33785e-20)
(0.965324 -0.286228 1.17555e-19)
(0.965653 -0.286359 -2.13402e-19)
(0.966003 -0.286458 1.07679e-19)
(0.966376 -0.286533 1.53612e-20)
(0.966771 -0.28659 -1.03634e-19)
(0.967183 -0.286638 -6.28893e-20)
(0.967604 -0.286683 2.0606e-19)
(0.968026 -0.286723 -2.126e-19)
(0.968432 -0.286753 6.43653e-20)
(0.968808 -0.286766 -1.6336e-19)
(0.969143 -0.28675 2.74136e-19)
(0.969426 -0.286695 -5.51918e-20)
(0.969654 -0.286592 -1.47193e-19)
(0.969831 -0.286433 1.20592e-19)
(0.969967 -0.286218 2.15166e-19)
(0.970075 -0.285945 -1.95856e-19)
(0.970169 -0.285621 1.16011e-19)
(0.970266 -0.285248 -3.81144e-19)
(0.970379 -0.284835 -3.44351e-20)
(0.97052 -0.284383 1.53794e-19)
(0.970696 -0.283901 -9.08711e-20)
(0.970916 -0.283399 -1.80193e-19)
(0.971183 -0.282877 -3.96318e-19)
(0.971499 -0.282339 4.92874e-19)
(0.971867 -0.281782 -2.04172e-19)
(0.972287 -0.2812 1.38073e-19)
(0.972757 -0.280594 2.91683e-19)
(0.97328 -0.279959 2.39219e-19)
(0.973856 -0.279284 -1.18103e-19)
(0.974481 -0.278557 3.96112e-19)
(0.975156 -0.277763 7.09497e-19)