/*--------------------------------*- C++ -*----------------------------------*\
  =========                 |
  \\      /  F ield         | OpenFOAM: The Open Source CFD Toolbox
   \\    /   O peration     | Website:  https://openfoam.org
    \\  /    A nd           | Version:  6.0
     \\/     M anipulation  |
\*---------------------------------------------------------------------------*/
FoamFile
{
    version     2.0;
    format      ascii;
    class       volVectorField;
    location    "16";
    object      U;
}
// * * * * * * * * * * * * * * * * * * * * * * * * * * * * * * * * * * * * * //

dimensions      [0 1 -1 0 0 0 0];

internalField   nonuniform List<vector> 
62000
(
(0.999981 -1.97596e-05 -8.69626e-21)
(0.999981 -1.97885e-05 6.86615e-21)
(0.999981 -2.05182e-05 6.69495e-21)
(0.999981 -2.10465e-05 -2.79039e-20)
(0.999982 -2.17532e-05 -3.03409e-20)
(0.999982 -2.25217e-05 1.00007e-19)
(0.999982 -2.35603e-05 -1.0493e-19)
(0.999982 -2.48236e-05 5.83001e-20)
(0.999982 -2.63499e-05 -2.61199e-20)
(0.999983 -2.82172e-05 -1.27892e-19)
(0.999983 -3.0347e-05 -1.55457e-20)
(0.999983 -3.2852e-05 1.65186e-19)
(0.999983 -3.55776e-05 3.23467e-20)
(0.999984 -3.85864e-05 -1.09437e-19)
(0.999984 -4.18028e-05 1.64786e-19)
(0.999984 -4.517e-05 -8.45542e-20)
(0.999984 -4.87262e-05 8.45482e-20)
(0.999984 -5.23253e-05 -9.65462e-20)
(0.999984 -5.60599e-05 4.60712e-20)
(0.999983 -5.97826e-05 -1.37901e-19)
(0.999983 -6.35483e-05 1.7535e-19)
(0.999982 -6.72491e-05 4.98508e-20)
(0.999981 -7.08604e-05 6.99441e-20)
(0.999979 -7.4298e-05 -3.1322e-19)
(0.999977 -7.74681e-05 1.12399e-19)
(0.999975 -8.02316e-05 -6.66829e-20)
(0.999971 -8.25475e-05 2.59961e-23)
(0.999967 -8.41646e-05 -5.05159e-20)
(0.999962 -8.51535e-05 1.57566e-19)
(0.999955 -8.54849e-05 -8.47714e-20)
(0.999948 -8.54384e-05 2.002e-19)
(0.999938 -8.48502e-05 -4.05703e-19)
(0.999926 -8.3472e-05 3.92295e-20)
(0.999912 -8.10439e-05 -1.28541e-19)
(0.999895 -7.84236e-05 -3.92395e-20)
(0.999874 -7.67508e-05 -1.29559e-19)
(0.999849 -7.69176e-05 -3.22715e-20)
(0.999821 -7.9796e-05 -3.5166e-20)
(0.999787 -8.66104e-05 1.2155e-19)
(0.999747 -9.89698e-05 5.53657e-19)
(0.999702 -0.000118812 -1.33627e-19)
(0.99965 -0.000148313 -7.44922e-19)
(0.999591 -0.000189804 -1.16769e-18)
(0.999525 -0.00024559 6.22853e-19)
(0.999453 -0.000317938 2.00341e-19)
(0.999376 -0.000408733 -8.56651e-19)
(0.999296 -0.000519258 1.43401e-19)
(0.999216 -0.000649848 -3.47462e-19)
(0.999141 -0.000798863 -1.52481e-18)
(0.999076 -0.000963267 -3.6199e-19)
(0.999027 -0.00113778 -1.68449e-19)
(0.998998 -0.00131888 -2.01808e-18)
(0.998991 -0.00150044 3.41264e-19)
(0.999001 -0.00169216 1.92998e-18)
(0.999025 -0.00191391 4.38918e-19)
(0.99906 -0.00220156 1.46719e-18)
(0.999125 -0.00262317 -1.35609e-19)
(0.999219 -0.00316353 -1.91479e-19)
(0.9999 -0.00411623 4.47891e-19)
(0.992402 -0.0082615 8.51379e-20)
(0.999992 2.0551e-05 -2.33988e-21)
(0.999992 3.50337e-05 2.12498e-20)
(0.999991 4.52232e-05 8.37509e-21)
(0.99999 5.51319e-05 -3.41808e-20)
(0.999989 6.43972e-05 1.35146e-20)
(0.999988 7.34298e-05 -8.89658e-20)
(0.999987 8.20107e-05 7.7768e-20)
(0.999986 9.01636e-05 4.3019e-20)
(0.999985 9.78913e-05 -7.69973e-20)
(0.999983 0.000105016 3.2122e-21)
(0.999982 0.000111888 6.86462e-20)
(0.999981 0.00011819 1.39337e-22)
(0.999979 0.000124291 1.82637e-20)
(0.999978 0.000130025 -1.50958e-19)
(0.999977 0.000135652 2.92653e-19)
(0.999975 0.000141182 -2.50086e-19)
(0.999973 0.000146622 1.13564e-19)
(0.999972 0.000152095 -2.32413e-20)
(0.99997 0.000157435 -6.12313e-20)
(0.999967 0.000162744 1.6453e-19)
(0.999964 0.000167825 -2.52752e-19)
(0.999961 0.000172699 1.43098e-19)
(0.999958 0.000177231 -1.7714e-19)
(0.999953 0.000181374 1.03508e-19)
(0.999948 0.000185036 9.29287e-20)
(0.999941 0.000188213 -6.01761e-20)
(0.999933 0.000190764 3.8425e-22)
(0.999924 0.000192668 6.4775e-20)
(0.999913 0.000193639 5.29408e-20)
(0.999899 0.000193224 -1.04636e-19)
(0.999882 0.000190719 2.10175e-19)
(0.999863 0.000185709 4.09814e-20)
(0.999839 0.000178106 1.26585e-19)
(0.999811 0.000167428 7.97535e-21)
(0.999778 0.000152461 3.35515e-20)
(0.999738 0.000131462 -4.05041e-20)
(0.999691 0.000102479 -1.18928e-19)
(0.999636 6.3342e-05 -6.03304e-20)
(0.999572 1.17115e-05 -3.24114e-19)
(0.999499 -5.49213e-05 -3.65966e-19)
(0.999417 -0.000139152 2.84708e-19)
(0.999323 -0.000243547 1.70634e-19)
(0.99922 -0.000370536 1.24556e-18)
(0.999106 -0.000522384 7.11155e-20)
(0.998985 -0.000700983 -1.87807e-18)
(0.998859 -0.000907612 7.34428e-19)
(0.998733 -0.00114175 5.91841e-19)
(0.998615 -0.00140028 6.83356e-19)
(0.998516 -0.00167537 1.27008e-19)
(0.998444 -0.00195461 2.62354e-20)
(0.998408 -0.00222428 1.01199e-18)
(0.99841 -0.00247106 2.54077e-18)
(0.998442 -0.00269416 -1.58306e-18)
(0.998497 -0.00291561 -3.53003e-18)
(0.998566 -0.00318489 -7.77423e-19)
(0.998651 -0.00355291 -5.27773e-19)
(0.998811 -0.00412356 -1.01917e-18)
(0.998912 -0.00479472 -4.81811e-19)
(0.999857 -0.00589993 6.35354e-19)
(0.99636 -0.00909948 2.63742e-19)
(1.00005 7.45527e-05 -1.14571e-20)
(1.00005 0.000100219 -1.53723e-21)
(1.00005 0.00011989 1.60585e-21)
(1.00005 0.000137585 6.95113e-21)
(1.00004 0.000154038 1.872e-20)
(1.00004 0.000169971 -1.69134e-20)
(1.00004 0.000185201 8.60652e-20)
(1.00003 0.000199687 -3.92237e-20)
(1.00003 0.000213458 -2.01372e-20)
(1.00003 0.000226294 -1.18503e-19)
(1.00002 0.000238756 9.59001e-20)
(1.00002 0.000250429 6.76862e-21)
(1.00001 0.000261876 -2.02451e-20)
(1.00001 0.000272858 5.18104e-20)
(1 0.000283788 -8.55911e-20)
(1 0.000294647 6.03411e-22)
(0.999996 0.000305473 -3.66174e-20)
(0.999991 0.000316323 8.36428e-22)
(0.999986 0.000326928 8.01892e-20)
(0.999981 0.000337304 -1.1852e-19)
(0.999976 0.000347074 7.21146e-20)
(0.99997 0.000356143 2.71732e-19)
(0.999964 0.000364173 -3.65484e-20)
(0.999957 0.000370965 -3.60561e-19)
(0.99995 0.000376219 1.81808e-19)
(0.999942 0.000379731 -9.53154e-20)
(0.999932 0.000381209 1.53014e-19)
(0.999922 0.00038038 -9.21642e-20)
(0.999909 0.000376765 -1.76862e-19)
(0.999895 0.000369623 1.83833e-19)
(0.999879 0.000358002 -1.27772e-19)
(0.99986 0.000341262 1.68076e-19)
(0.999838 0.000319053 -4.5616e-19)
(0.999812 0.000290574 4.00172e-19)
(0.999782 0.000254974 -2.10679e-19)
(0.999746 0.000210896 8.74788e-20)
(0.999705 0.000156576 6.5092e-20)
(0.999656 8.98094e-05 2.43073e-22)
(0.999599 8.37393e-06 -8.08464e-21)
(0.999535 -8.98842e-05 3.77483e-19)
(0.999462 -0.000207111 -1.48158e-19)
(0.99938 -0.000345331 2.32021e-19)
(0.999289 -0.000506439 -7.996e-19)
(0.999189 -0.000692387 -3.88499e-19)
(0.999081 -0.000904735 4.29368e-19)
(0.998971 -0.00114441 -1.39558e-18)
(0.998863 -0.00140954 1.89604e-19)
(0.998767 -0.00169404 -1.15548e-18)
(0.998694 -0.00198475 1.58011e-18)
(0.998657 -0.00226049 3.90734e-19)
(0.998664 -0.00249891 1.96521e-19)
(0.998716 -0.00267502 -5.478e-20)
(0.998803 -0.0027842 6.80676e-19)
(0.998914 -0.00284944 7.55112e-20)
(0.999036 -0.0029303 -1.12593e-18)
(0.999159 -0.00308241 -5.75863e-19)
(0.999368 -0.00341093 -3.01006e-19)
(0.999388 -0.00383295 -9.52637e-19)
(1.00005 -0.00448554 -1.21735e-19)
(0.998161 -0.00569884 6.98376e-20)
(1.00011 0.000110675 -1.15344e-20)
(1.00011 0.000144547 3.34325e-20)
(1.00011 0.000170497 -4.85307e-21)
(1.0001 0.000192155 -3.09304e-20)
(1.0001 0.000211825 4.42261e-20)
(1.0001 0.000230437 7.23826e-20)
(1.00009 0.000247886 -8.98672e-20)
(1.00009 0.000264046 9.27237e-21)
(1.00008 0.000279026 2.81996e-20)
(1.00007 0.000292581 5.59751e-20)
(1.00007 0.000305422 -9.91651e-20)
(1.00006 0.000317126 -2.9154e-20)
(1.00005 0.000328335 -3.11617e-20)
(1.00005 0.000338843 1.37092e-19)
(1.00004 0.000349149 -8.79705e-20)
(1.00003 0.000359275 1.97359e-19)
(1.00002 0.000369271 -2.31244e-19)
(1.00002 0.000379202 -3.22685e-20)
(1.00001 0.000388721 2.27141e-19)
(1 0.000397827 -7.71118e-20)
(0.999991 0.000406005 -2.74632e-20)
(0.999983 0.000413106 -2.8252e-20)
(0.999974 0.000418651 -2.48102e-19)
(0.999965 0.000422356 1.41158e-19)
(0.999955 0.000423793 -6.03741e-20)
(0.999945 0.000422661 9.73102e-20)
(0.999935 0.000418581 4.40776e-20)
(0.999923 0.000411183 2.10925e-19)
(0.99991 0.000399903 -1.31052e-19)
(0.999896 0.00038388 -1.65535e-19)
(0.999881 0.000362065 2.5377e-19)
(0.999863 0.000333806 -2.0539e-19)
(0.999844 0.000298647 3.70281e-19)
(0.999822 0.000255876 -2.18187e-19)
(0.999796 0.000204822 9.37801e-20)
(0.999767 0.000144559 1.54926e-19)
(0.999732 7.361e-05 -6.30073e-20)
(0.999691 -1.0103e-05 7.31737e-20)
(0.999644 -0.000108664 -3.94957e-20)
(0.999589 -0.000224074 1.08439e-19)
(0.999525 -0.000358447 -3.19536e-19)
(0.999453 -0.000513939 8.80721e-20)
(0.999371 -0.00069281 1.86731e-19)
(0.999278 -0.000897763 4.43796e-19)
(0.999176 -0.00113133 5.90335e-19)
(0.999067 -0.00139555 1.44058e-19)
(0.998957 -0.00168934 8.64695e-19)
(0.998853 -0.00200648 9.24435e-19)
(0.99877 -0.00233251 1.02855e-18)
(0.998719 -0.00264282 -7.30383e-19)
(0.998713 -0.00291101 -9.22217e-19)
(0.998756 -0.00310558 5.81282e-19)
(0.998844 -0.00321562 7.30146e-19)
(0.998968 -0.00326078 1.4988e-18)
(0.999118 -0.0033019 8.30601e-19)
(0.999273 -0.00340205 1.29195e-18)
(0.999532 -0.00366527 1.96519e-18)
(0.99956 -0.00407702 -1.23636e-19)
(0.999989 -0.0046209 -7.36553e-19)
(0.998293 -0.00619093 -5.43719e-19)
(1.00014 0.000132279 2.25127e-20)
(1.00014 0.000170489 -7.12943e-21)
(1.00014 0.00020013 1.12753e-20)
(1.00013 0.00022371 -1.51042e-20)
(1.00013 0.000244734 3.20568e-20)
(1.00012 0.000264388 -1.50778e-20)
(1.00012 0.000282455 7.66048e-21)
(1.00011 0.00029867 -1.08618e-19)
(1.00011 0.000313124 8.66201e-20)
(1.0001 0.000325527 -1.64559e-19)
(1.00009 0.000336711 1.73018e-19)
(1.00008 0.000346233 -2.00299e-20)
(1.00007 0.000354876 -4.20831e-20)
(1.00007 0.000362438 -1.82921e-20)
(1.00006 0.000369534 -3.69164e-21)
(1.00005 0.000376262 -1.71647e-19)
(1.00004 0.000382716 8.40469e-21)
(1.00003 0.000389005 1.74139e-19)
(1.00002 0.000394723 -5.42413e-20)
(1.00001 0.000399907 -5.48552e-20)
(0.999996 0.000403939 9.05172e-20)
(0.999985 0.000406684 -4.29691e-20)
(0.999974 0.000407577 1.7628e-19)
(0.999963 0.000406324 9.25175e-20)
(0.999952 0.000402439 6.75162e-20)
(0.99994 0.00039559 -2.11797e-19)
(0.999928 0.000385376 -2.90238e-20)
(0.999916 0.000371406 -1.5598e-19)
(0.999902 0.000353086 2.94467e-20)
(0.999888 0.000329518 -4.8582e-20)
(0.999874 0.000299575 -1.85815e-20)
(0.999857 0.000262679 1.48725e-19)
(0.99984 0.000218255 -3.7237e-19)
(0.999821 0.000165605 -1.64632e-20)
(0.999799 0.000104279 -1.81869e-19)
(0.999774 3.35678e-05 -8.7926e-20)
(0.999746 -4.78227e-05 2.22849e-20)
(0.999712 -0.00014197 -2.67906e-19)
(0.999672 -0.000250983 4.00504e-19)
(0.999626 -0.000376825 6.15818e-20)
(0.999572 -0.000521618 4.28418e-19)
(0.999509 -0.000687619 -3.00657e-19)
(0.999436 -0.000877346 -2.0044e-19)
(0.999351 -0.00109405 -8.98224e-20)
(0.999253 -0.00134108 4.22037e-19)
(0.999143 -0.00162172 6.11986e-19)
(0.999024 -0.00193651 1.17931e-19)
(0.998903 -0.00228137 2.10081e-19)
(0.99879 -0.00264443 -3.93573e-19)
(0.998698 -0.00300361 1.81699e-18)
(0.998644 -0.00333512 4.28151e-19)
(0.998635 -0.00360773 -4.29546e-19)
(0.998678 -0.00380743 1.0013e-19)
(0.998774 -0.00394821 1.23236e-18)
(0.998924 -0.00408269 -6.53337e-20)
(0.999106 -0.00426829 -1.01195e-18)
(0.999429 -0.00458697 -2.02673e-18)
(0.999568 -0.00504031 1.54058e-18)
(0.999898 -0.00550742 -6.41574e-19)
(0.999079 -0.006795 5.51918e-19)
(1.00014 0.000149226 -8.6224e-21)
(1.00014 0.0001926 3.29351e-20)
(1.00014 0.000225507 -5.13638e-20)
(1.00013 0.000250542 3.63363e-20)
(1.00013 0.000272267 2.23414e-20)
(1.00012 0.00029205 -2.2495e-20)
(1.00012 0.000309711 1.77634e-21)
(1.00011 0.00032494 -1.52472e-20)
(1.00011 0.0003379 -4.87894e-20)
(1.0001 0.000348299 8.9318e-20)
(1.00009 0.000357045 -1.32062e-19)
(1.00008 0.000363727 1.1058e-19)
(1.00007 0.000369125 9.29805e-20)
(1.00006 0.00037311 -1.38242e-19)
(1.00005 0.000376325 -4.30341e-20)
(1.00004 0.000378945 1.55892e-19)
(1.00003 0.000381084 -1.8145e-19)
(1.00002 0.000382898 2.41322e-19)
(1.00001 0.000383981 -4.5035e-20)
(0.999998 0.000384395 2.35571e-20)
(0.999987 0.000383503 -3.869e-20)
(0.999975 0.00038117 -4.65572e-20)
(0.999963 0.000376822 -8.26817e-20)
(0.999952 0.000370146 1.3858e-19)
(0.99994 0.00036066 -9.312e-20)
(0.999928 0.000348015 -8.7298e-20)
(0.999916 0.000331829 1.75779e-19)
(0.999904 0.000311691 -1.62518e-19)
(0.999891 0.000287048 2.52817e-19)
(0.999879 0.00025695 -1.33098e-19)
(0.999867 0.000220293 9.70219e-20)
(0.999854 0.0001765 -1.60752e-19)
(0.99984 0.000124904 1.68062e-19)
(0.999826 6.48597e-05 -1.64009e-20)
(0.999812 -3.96658e-06 -9.09975e-21)
(0.999796 -8.19813e-05 -4.69644e-21)
(0.999778 -0.000170245 -8.21077e-20)
(0.999757 -0.000270793 2.34437e-19)
(0.999733 -0.000385633 -1.8119e-19)
(0.999704 -0.000516392 -9.90879e-19)
(0.999672 -0.000664647 -4.0599e-19)
(0.999633 -0.00083194 2.89373e-19)
(0.999586 -0.00101995 -2.94317e-19)
(0.99953 -0.00123111 -3.38092e-19)
(0.999462 -0.00146812 -2.29284e-20)
(0.99938 -0.00173406 7.97113e-19)
(0.999284 -0.00203021 -1.13408e-18)
(0.999177 -0.00235471 -1.12935e-18)
(0.999066 -0.00269994 -7.68983e-19)
(0.99896 -0.00304988 -1.18853e-18)
(0.998875 -0.00338829 6.71365e-19)
(0.998824 -0.00369029 -2.96059e-19)
(0.998818 -0.00394344 -2.15323e-18)
(0.998874 -0.00415735 3.20105e-19)
(0.999003 -0.00437213 5.56853e-19)
(0.999189 -0.00463055 -8.59947e-19)
(0.999549 -0.00497875 6.24663e-19)
(0.999794 -0.00539834 3.16064e-19)
(1.00003 -0.00568704 1.03488e-18)
(1.00018 -0.00644403 -8.76502e-20)
(1.00011 0.000166152 1.02481e-20)
(1.00011 0.000212273 -4.37205e-20)
(1.00011 0.000247589 2.0181e-20)
(1.00011 0.000273781 3.56594e-20)
(1.0001 0.000295986 -7.25141e-20)
(1.0001 0.000315839 5.76807e-20)
(1.00009 0.000333089 -3.65056e-20)
(1.00009 0.000347391 2.94334e-20)
(1.00008 0.000358873 4.46381e-20)
(1.00007 0.000367247 -1.02345e-19)
(1.00006 0.000373478 1.40922e-19)
(1.00006 0.000377181 5.67346e-20)
(1.00005 0.000379218 -2.17676e-19)
(1.00004 0.000379477 -3.86833e-20)
(1.00003 0.000378655 1.06364e-19)
(1.00002 0.000376996 6.54298e-20)
(1.00001 0.000374637 -7.66762e-20)
(0.999996 0.000371766 6.44636e-20)
(0.999985 0.000367948 9.57662e-20)
(0.999974 0.000363269 -4.5892e-20)
(0.999962 0.00035706 -2.53701e-20)
(0.99995 0.000349195 8.59455e-20)
(0.999939 0.000339105 1.70365e-19)
(0.999927 0.000326476 -1.22252e-19)
(0.999915 0.000310845 -1.2949e-19)
(0.999904 0.000291859 1.38447e-19)
(0.999892 0.000269168 -1.04742e-19)
(0.999881 0.000242355 -4.04265e-20)
(0.999871 0.000210879 3.30904e-19)
(0.99986 0.000173776 -1.41796e-19)
(0.99985 0.000129937 -1.03724e-19)
(0.999841 7.88549e-05 1.37829e-19)
(0.999832 1.97773e-05 9.23795e-20)
(0.999824 -4.8008e-05 -8.01399e-20)
(0.999817 -0.000124622 -5.33676e-20)
(0.999811 -0.000210196 1.66272e-19)
(0.999804 -0.000305516 3.65079e-20)
(0.999798 -0.000412464 5.47128e-20)
(0.999791 -0.000532816 -2.82354e-19)
(0.999785 -0.000667621 -2.63597e-19)
(0.999778 -0.000817451 5.18062e-19)
(0.999771 -0.000982407 3.97744e-19)
(0.999762 -0.00116235 6.5384e-19)
(0.99975 -0.00135764 -5.85561e-19)
(0.99973 -0.00156878 -6.25111e-19)
(0.9997 -0.00179698 -4.18779e-19)
(0.999656 -0.00204259 9.66289e-19)
(0.999599 -0.00230483 8.9114e-19)
(0.999528 -0.00257992 -9.58635e-19)
(0.999448 -0.00285889 -1.2747e-18)
(0.999371 -0.0031353 -3.1063e-19)
(0.99931 -0.00339457 2.15234e-19)
(0.99928 -0.00363103 6.44869e-20)
(0.999304 -0.00385511 -6.92397e-19)
(0.999404 -0.00409844 5.00009e-19)
(0.999571 -0.0043926 3.07163e-19)
(0.999922 -0.00475445 4.07245e-19)
(1.00022 -0.0051541 -1.0092e-18)
(1.00034 -0.00533663 -8.16449e-20)
(1.00089 -0.00606928 -6.89052e-20)
(1.00006 0.000183071 -1.73989e-20)
(1.00006 0.000232047 -1.31486e-20)
(1.00006 0.000269749 1.69154e-20)
(1.00006 0.000297089 5.66813e-20)
(1.00005 0.000319682 -1.15728e-19)
(1.00005 0.000339304 1.25597e-19)
(1.00004 0.000355804 -5.42007e-21)
(1.00004 0.000368875 -7.11541e-21)
(1.00003 0.000378693 -3.84792e-20)
(1.00003 0.00038498 8.87937e-20)
(1.00002 0.000388731 -1.30629e-19)
(1.00001 0.000389596 4.70658e-20)
(1 0.0003884 -1.46992e-21)
(0.999992 0.000385089 6.71762e-20)
(0.999982 0.00038035 3.03818e-20)
(0.999972 0.000374475 -1.56613e-19)
(0.999962 0.000367591 1.30743e-19)
(0.999951 0.00035992 4.90739e-20)
(0.999941 0.000351019 -1.36711e-19)
(0.999929 0.000340999 6.4939e-20)
(0.999918 0.00032918 2.87125e-20)
(0.999906 0.000315443 -1.90153e-20)
(0.999894 0.000299222 2.18934e-20)
(0.999883 0.000280194 -1.3095e-20)
(0.999871 0.000257912 -1.41311e-19)
(0.999859 0.000232005 8.95901e-20)
(0.999848 0.000202147 -1.32207e-19)
(0.999836 0.000167874 2.37303e-19)
(0.999825 0.000128671 -4.51907e-20)
(0.999815 8.34752e-05 -2.5841e-20)
(0.999805 3.12182e-05 -7.43081e-21)
(0.999796 -2.86214e-05 2.20387e-19)
(0.999787 -9.68792e-05 -9.01623e-20)
(0.999781 -0.000174299 -5.28806e-20)
(0.999775 -0.000260997 1.30955e-19)
(0.999771 -0.000356881 1.08771e-19)
(0.999769 -0.000462583 -1.80224e-19)
(0.999768 -0.000579907 3.23323e-20)
(0.99977 -0.000710455 3.3624e-19)
(0.999775 -0.000854812 -2.83663e-20)
(0.999784 -0.00101255 2.06278e-19)
(0.999798 -0.00118221 -2.90637e-19)
(0.999816 -0.00136161 4.3171e-19)
(0.999837 -0.00154859 9.15647e-19)
(0.999858 -0.00174077 2.64163e-19)
(0.999876 -0.0019365 -3.42232e-19)
(0.999886 -0.00213407 -9.98674e-19)
(0.999884 -0.00233236 1.57985e-19)
(0.999868 -0.00253013 2.87396e-19)
(0.999835 -0.00272454 6.17916e-19)
(0.999794 -0.00291878 -9.08575e-20)
(0.999754 -0.00310986 -9.22989e-19)
(0.99973 -0.00330154 7.38424e-19)
(0.999746 -0.00350981 -4.57119e-19)
(0.999832 -0.00376409 7.69211e-19)
(0.999984 -0.00409294 1.92356e-19)
(1.00031 -0.00449666 6.63522e-19)
(1.00063 -0.00494703 6.67231e-19)
(1.00067 -0.00515953 2.21054e-20)
(1.00122 -0.00619149 -4.49068e-20)
(0.999992 0.000202391 -8.50996e-21)
(0.999995 0.000252368 6.92199e-21)
(0.999993 0.000291399 3.28701e-20)
(0.999991 0.000319523 4.9199e-20)
(0.999987 0.00034233 -1.37878e-19)
(0.999983 0.000361814 7.51839e-20)
(0.999978 0.000377785 -1.27412e-19)
(0.999972 0.000389968 1.89353e-19)
(0.999966 0.000398434 -8.43708e-20)
(0.999959 0.000402919 1.41435e-20)
(0.999952 0.000404409 1.47062e-19)
(0.999944 0.000402602 -3.19597e-19)
(0.999935 0.000398366 2.08087e-19)
(0.999927 0.000391665 2.76466e-20)
(0.999917 0.000383217 4.27995e-20)
(0.999908 0.000373357 -1.73547e-19)
(0.999898 0.000362237 8.18274e-20)
(0.999887 0.000350072 -9.71319e-20)
(0.999876 0.000336423 1.84131e-19)
(0.999865 0.000321375 -2.4664e-20)
(0.999853 0.000304249 -2.16641e-19)
(0.999841 0.000284899 8.31214e-20)
(0.999829 0.000262768 -4.79507e-21)
(0.999816 0.000237515 -2.82328e-19)
(0.999803 0.000208706 2.06557e-19)
(0.99979 0.000175935 1.48989e-19)
(0.999777 0.000138892 9.66502e-20)
(0.999763 9.7053e-05 -1.22633e-19)
(0.999749 4.98737e-05 -1.29209e-19)
(0.999735 -3.82213e-06 5.89307e-20)
(0.999721 -6.51485e-05 8.38889e-20)
(0.999708 -0.000134642 -9.96068e-20)
(0.999694 -0.000213209 -1.42945e-19)
(0.999682 -0.00030179 2.95479e-19)
(0.99967 -0.000400551 2.99758e-20)
(0.99966 -0.000509324 -4.21522e-19)
(0.99965 -0.000628875 3.71594e-20)
(0.999642 -0.000761101 2.71106e-19)
(0.999636 -0.000907651 2.4558e-20)
(0.999636 -0.00106901 3.47057e-19)
(0.999641 -0.00124415 -4.61413e-19)
(0.999654 -0.00143047 -2.58957e-20)
(0.999676 -0.0016242 -2.90473e-19)
(0.999705 -0.00182104 1.07132e-19)
(0.999742 -0.00201599 4.48606e-19)
(0.999783 -0.00220457 1.33186e-18)
(0.999825 -0.00238253 1.78199e-19)
(0.999861 -0.00254755 -7.88604e-19)
(0.999889 -0.00269943 5.64673e-19)
(0.999901 -0.00283958 1.89317e-18)
(0.999905 -0.00297865 -1.43188e-18)
(0.999904 -0.00312358 1.5948e-18)
(0.999913 -0.00328696 -9.05108e-19)
(0.999954 -0.00349182 -4.204e-19)
(1.00006 -0.00376803 -1.59351e-18)
(1.00023 -0.00414534 -6.83808e-20)
(1.00057 -0.00461414 -3.70702e-19)
(1.00093 -0.00514416 -2.81029e-19)
(1.00097 -0.00542645 3.19277e-20)
(1.0015 -0.00668934 -1.01651e-19)
(0.999902 0.000224837 1.19105e-20)
(0.999908 0.000278297 3.93444e-21)
(0.999907 0.000318753 -3.86184e-20)
(0.999905 0.00034735 3.48266e-20)
(0.999901 0.00036992 -1.4611e-20)
(0.999897 0.000388575 2.47139e-20)
(0.999892 0.000403326 7.99271e-21)
(0.999887 0.000413968 -1.11041e-19)
(0.999881 0.000420609 4.59671e-20)
(0.999874 0.000422992 -2.95139e-20)
(0.999867 0.000422119 1.72807e-20)
(0.99986 0.000417739 6.32954e-20)
(0.999852 0.000410663 -1.14422e-20)
(0.999843 0.000400915 3.50691e-20)
(0.999834 0.000389183 -1.42089e-19)
(0.999825 0.000375831 5.28371e-20)
(0.999815 0.000360983 2.21075e-20)
(0.999805 0.000344868 -5.75689e-20)
(0.999794 0.000327044 1.09818e-19)
(0.999783 0.000307591 3.41305e-20)
(0.999771 0.000285826 -4.16023e-21)
(0.999758 0.000261589 -3.51135e-20)
(0.999745 0.000234319 1.34356e-19)
(0.999731 0.000203657 -3.56345e-19)
(0.999717 0.000169165 1.80519e-19)
(0.999701 0.000130396 7.31296e-20)
(0.999685 8.70479e-05 -1.17992e-19)
(0.999668 3.85048e-05 2.01845e-19)
(0.99965 -1.57835e-05 -9.69168e-20)
(0.99963 -7.71812e-05 -4.79331e-20)
(0.99961 -0.000146828 -8.91623e-20)
(0.999589 -0.000225352 -3.3921e-20)
(0.999567 -0.000313774 9.675e-20)
(0.999545 -0.000413131 -2.81443e-19)
(0.999522 -0.000523809 5.22384e-19)
(0.999498 -0.000645721 -3.64748e-20)
(0.999473 -0.000779912 2.55324e-19)
(0.999449 -0.000928625 -6.4335e-19)
(0.999425 -0.00109378 -1.95589e-19)
(0.999406 -0.00127613 4.26623e-21)
(0.999392 -0.00147458 -1.40545e-19)
(0.999386 -0.001686 -1.69515e-20)
(0.999389 -0.00190584 -4.9664e-19)
(0.999404 -0.0021285 1.67317e-19)
(0.99943 -0.00234718 2.31175e-19)
(0.999467 -0.00255522 -1.23557e-18)
(0.999512 -0.00274621 1.53912e-18)
(0.999562 -0.00291633 2.15162e-19)
(0.999613 -0.00306524 7.04619e-20)
(0.999658 -0.00319645 -1.294e-18)
(0.999703 -0.00332513 4.19004e-19)
(0.99975 -0.00346471 -8.29173e-19)
(0.99981 -0.00363341 1.48566e-18)
(0.999906 -0.00385879 2.9133e-19)
(1.00007 -0.00417014 -9.69552e-19)
(1.0003 -0.00459731 3.11745e-19)
(1.00069 -0.00512154 -7.03418e-19)
(1.00115 -0.00569831 -9.57033e-20)
(1.00128 -0.00599076 -2.04461e-19)
(1.00198 -0.00726468 -3.30421e-20)
(0.999793 0.000248764 -2.6522e-21)
(0.999802 0.000303971 -9.84521e-21)
(0.999802 0.000345038 -8.09311e-21)
(0.9998 0.000373454 7.3941e-20)
(0.999797 0.00039535 -3.88669e-20)
(0.999793 0.000413087 -4.41175e-20)
(0.999788 0.000426749 -1.56161e-20)
(0.999784 0.000436132 -6.09619e-20)
(0.999778 0.000441266 3.64925e-20)
(0.999772 0.000441879 5.14882e-21)
(0.999766 0.000438987 1.86657e-21)
(0.99976 0.00043238 1.33146e-19)
(0.999752 0.000422918 -9.02012e-20)
(0.999745 0.000410635 -1.04983e-20)
(0.999737 0.000396226 9.39366e-20)
(0.999728 0.000380102 -4.97813e-20)
(0.999719 0.000362366 -1.81986e-20)
(0.999709 0.000343245 2.8345e-20)
(0.999699 0.000322276 8.69048e-20)
(0.999688 0.000299524 4.50009e-20)
(0.999676 0.000274273 1.47342e-20)
(0.999663 0.000246365 -1.0792e-19)
(0.999649 0.00021522 5.18745e-20)
(0.999635 0.000180466 9.53856e-20)
(0.999619 0.000141681 -1.94321e-19)
(0.999602 9.83737e-05 5.93052e-20)
(0.999583 5.0262e-05 -2.29577e-19)
(0.999563 -3.3334e-06 1.80934e-19)
(0.999541 -6.29901e-05 1.50967e-19)
(0.999517 -0.000130205 -2.29312e-19)
(0.999491 -0.000206215 -1.05067e-19)
(0.999463 -0.000291697 1.34944e-19)
(0.999433 -0.000387731 4.43767e-20)
(0.999401 -0.000495533 -1.16706e-19)
(0.999366 -0.000615661 -1.43737e-19)
(0.999328 -0.000748134 -1.69081e-19)
(0.999288 -0.000894386 1.05734e-19)
(0.999245 -0.00105713 2.4599e-19)
(0.999201 -0.00123871 8.80693e-20)
(0.999159 -0.00144035 -7.47273e-20)
(0.99912 -0.00166135 8.11995e-19)
(0.999087 -0.00189868 -8.59752e-20)
(0.999064 -0.00214772 8.22437e-19)
(0.999051 -0.00240254 -1.45371e-18)
(0.999052 -0.00265556 2.28143e-19)
(0.999067 -0.00289895 4.26571e-20)
(0.999098 -0.00312489 -7.27461e-20)
(0.999142 -0.00332824 -1.0239e-18)
(0.999198 -0.00350791 -1.5788e-18)
(0.999263 -0.00366777 1.34305e-18)
(0.999341 -0.00382454 1.66025e-18)
(0.999436 -0.00399433 8.13097e-19)
(0.999559 -0.00419694 -1.44438e-18)
(0.999729 -0.00446056 6.83707e-19)
(0.999974 -0.00481067 1.47386e-18)
(1.0003 -0.00527363 4.81923e-19)
(1.00079 -0.00582077 6.84904e-19)
(1.00136 -0.00638471 2.0052e-19)
(1.00162 -0.00660141 4.94854e-20)
(1.00268 -0.00770501 3.13361e-19)
(0.999671 0.000271133 3.43044e-21)
(0.999683 0.000327951 -9.73138e-21)
(0.999684 0.000368986 3.28489e-20)
(0.999682 0.000396484 8.082e-21)
(0.999679 0.000417146 -4.03887e-20)
(0.999676 0.000433531 -4.39457e-20)
(0.999673 0.000445832 9.86333e-20)
(0.999669 0.000453879 -1.01987e-19)
(0.999664 0.000457638 -2.35598e-20)
(0.999659 0.000456827 5.6817e-20)
(0.999654 0.000452437 4.97971e-20)
(0.999649 0.000444293 1.43619e-19)
(0.999643 0.000433191 -7.78668e-20)
(0.999636 0.000419195 -1.26401e-19)
(0.999629 0.000402986 2.66796e-20)
(0.999622 0.000384981 -9.34502e-20)
(0.999614 0.000365259 6.79359e-20)
(0.999605 0.000344042 -1.07741e-19)
(0.999595 0.000320889 1.79423e-20)
(0.999585 0.00029586 -3.13045e-20)
(0.999574 0.000268229 -1.81908e-20)
(0.999562 0.000237853 -8.06792e-20)
(0.999548 0.000204139 9.21879e-21)
(0.999534 0.0001667 1.6575e-19)
(0.999518 0.000125146 -5.39734e-20)
(0.9995 7.89463e-05 1.70858e-20)
(0.999481 2.78486e-05 4.66072e-20)
(0.999459 -2.88702e-05 -5.78651e-20)
(0.999436 -9.17738e-05 -1.1276e-20)
(0.999409 -0.000162468 7.60068e-20)
(0.99938 -0.00024225 8.19836e-20)
(0.999348 -0.000331819 -5.98291e-20)
(0.999313 -0.000432379 -1.83408e-19)
(0.999275 -0.000545112 -2.51221e-19)
(0.999232 -0.00067074 3.82478e-19)
(0.999185 -0.000809459 1.01422e-19)
(0.999134 -0.000962921 6.43779e-20)
(0.999078 -0.0011344 3.06585e-19)
(0.999019 -0.0013267 -2.7956e-19)
(0.998959 -0.00154154 1.7119e-19)
(0.9989 -0.00177888 -2.85386e-21)
(0.998845 -0.00203625 1.79485e-20)
(0.998796 -0.00230951 -3.04823e-19)
(0.998757 -0.00259316 6.76284e-19)
(0.998731 -0.0028798 -8.64337e-19)
(0.998721 -0.00316147 5.01176e-19)
(0.998731 -0.0034298 -1.40787e-18)
(0.998761 -0.00367891 3.92312e-19)
(0.998814 -0.00390676 8.41762e-19)
(0.998889 -0.0041165 -1.35406e-18)
(0.998994 -0.00432423 -3.2888e-19)
(0.999135 -0.00454558 -8.37484e-20)
(0.999322 -0.00479825 -2.47261e-19)
(0.999574 -0.00510719 -7.05587e-19)
(0.999915 -0.00549114 5.35029e-20)
(1.00035 -0.00596978 3.85644e-19)
(1.00095 -0.00650516 -3.29293e-19)
(1.00165 -0.0070066 -5.2302e-20)
(1.00204 -0.00709053 -5.64749e-20)
(1.00354 -0.00794272 -3.10779e-19)
(0.999546 0.000291023 6.38117e-21)
(0.999559 0.00034697 -5.10163e-21)
(0.99956 0.000386702 4.4119e-21)
(0.999559 0.000412553 2.67422e-20)
(0.999557 0.000431568 3.67371e-20)
(0.999554 0.00044661 -1.3587e-19)
(0.999552 0.000457846 9.31101e-20)
(0.999548 0.000465008 1.82804e-20)
(0.999545 0.000467902 -5.37485e-21)
(0.999541 0.000466167 -3.58563e-20)
(0.999537 0.000460781 1.04025e-19)
(0.999532 0.000451574 -3.2651e-20)
(0.999528 0.000439381 -4.27176e-20)
(0.999522 0.00042424 -1.20564e-19)
(0.999517 0.000406858 2.30491e-19)
(0.999511 0.000387677 -4.64527e-20)
(0.999504 0.000366771 -3.70184e-20)
(0.999497 0.000344337 -1.03284e-19)
(0.999489 0.000319957 1.09712e-19)
(0.99948 0.000293677 5.75653e-20)
(0.99947 0.000264744 -2.59855e-20)
(0.999459 0.000233039 4.144e-20)
(0.999447 0.000197964 -1.71928e-19)
(0.999434 0.000159107 1.25755e-20)
(0.999419 0.000116154 8.8765e-20)
(0.999403 6.85278e-05 -1.61714e-20)
(0.999385 1.60333e-05 -2.48549e-19)
(0.999364 -4.2052e-05 2.47129e-20)
(0.999341 -0.00010628 2.07714e-19)
(0.999316 -0.000178255 -5.25961e-20)
(0.999287 -0.000259372 -1.00017e-19)
(0.999255 -0.000350281 5.43038e-20)
(0.99922 -0.000452208 1.59705e-19)
(0.99918 -0.000566359 3.65436e-19)
(0.999136 -0.000693489 -5.66469e-20)
(0.999087 -0.000833856 6.62087e-20)
(0.999032 -0.000989232 -5.29615e-19)
(0.998971 -0.00116338 -1.53246e-19)
(0.998906 -0.00135953 9.41226e-20)
(0.998838 -0.00157981 -3.7862e-19)
(0.99877 -0.00182492 -8.63269e-20)
(0.998702 -0.00209323 1.76436e-19)
(0.998638 -0.00238138 1.2738e-19)
(0.998582 -0.00268485 3.6864e-19)
(0.998538 -0.00299714 1.22353e-18)
(0.99851 -0.00331097 -9.48842e-19)
(0.998503 -0.00361826 1.47037e-18)
(0.998521 -0.00391303 1.09578e-18)
(0.998571 -0.00419248 5.8445e-21)
(0.998654 -0.00445856 1.26869e-18)
(0.998783 -0.00472533 -1.63887e-18)
(0.998965 -0.00500591 -1.78325e-18)
(0.999214 -0.00531339 1.24262e-18)
(0.999545 -0.00566703 9.2302e-19)
(0.999981 -0.00607691 -3.02701e-19)
(1.00053 -0.00655442 -1.47247e-18)
(1.00124 -0.00705458 2.697e-19)
(1.00205 -0.00746801 -6.41204e-20)
(1.00254 -0.00740289 1.15827e-19)
(1.00447 -0.00800328 -4.76843e-19)
(0.999422 0.000307654 -6.84271e-21)
(0.999435 0.000364119 7.09492e-21)
(0.999436 0.000402729 4.56479e-20)
(0.999435 0.000426678 -5.64017e-20)
(0.999433 0.000443656 9.68647e-20)
(0.999432 0.000456828 -1.34739e-19)
(0.999429 0.000466468 3.61653e-20)
(0.999427 0.000472266 -1.60473e-21)
(0.999424 0.000473947 7.1849e-20)
(0.999421 0.000471102 -3.60568e-20)
(0.999418 0.000464686 1.00008e-20)
(0.999415 0.000454562 9.72702e-21)
(0.999412 0.000441493 -1.45963e-19)
(0.999408 0.000425538 4.22804e-20)
(0.999404 0.000407382 9.19982e-20)
(0.999399 0.000387479 2.37827e-21)
(0.999394 0.000365869 -1.39208e-19)
(0.999388 0.000342716 5.48224e-20)
(0.999382 0.000317657 2.41208e-19)
(0.999375 0.000290728 -1.52497e-19)
(0.999367 0.000261154 -1.09348e-19)
(0.999359 0.00022885 8.9416e-20)
(0.999349 0.000193226 5.37737e-20)
(0.999338 0.000153821 5.7045e-20)
(0.999326 0.000110421 -1.08433e-19)
(0.999312 6.24032e-05 -2.21161e-19)
(0.999297 9.63159e-06 1.64901e-19)
(0.999279 -4.8593e-05 2.21326e-19)
(0.999259 -0.000112777 5.40278e-20)
(0.999237 -0.000184481 -1.11294e-19)
(0.999212 -0.00026515 4.87416e-20)
(0.999184 -0.000355326 7.51117e-20)
(0.999152 -0.000456362 -1.33906e-19)
(0.999117 -0.000569268 -2.67836e-20)
(0.999077 -0.000694768 -2.22032e-19)
(0.999032 -0.00083324 -6.01664e-20)
(0.998981 -0.000986291 -4.5466e-20)
(0.998924 -0.00115812 1.43697e-19)
(0.998863 -0.00135231 -1.89584e-19)
(0.998798 -0.00157122 5.70429e-20)
(0.998731 -0.00181628 8.25521e-20)
(0.998663 -0.00208676 1.83737e-20)
(0.998597 -0.00238023 -5.4148e-19)
(0.998537 -0.0026934 -7.29002e-19)
(0.998487 -0.00302113 -6.61598e-19)
(0.998452 -0.00335738 1.22686e-18)
(0.998439 -0.00369503 -6.11456e-20)
(0.998454 -0.00402854 -4.95493e-19)
(0.998506 -0.00435472 2.34351e-19)
(0.9986 -0.00467417 -1.40926e-18)
(0.998753 -0.00499843 6.51371e-19)
(0.998974 -0.00533696 1.61319e-18)
(0.999279 -0.00569703 -1.58518e-19)