/*--------------------------------*- C++ -*----------------------------------*\
  =========                 |
  \\      /  F ield         | OpenFOAM: The Open Source CFD Toolbox
   \\    /   O peration     | Website:  https://openfoam.org
    \\  /    A nd           | Version:  6.0
     \\/     M anipulation  |
\*---------------------------------------------------------------------------*/
FoamFile
{
    version     2.0;
    format      ascii;
    class       volScalarField;
    location    "3";
    object      p;
}
// * * * * * * * * * * * * * * * * * * * * * * * * * * * * * * * * * * * * * //

dimensions      [0 2 -2 0 0 0 0];

internalField   nonuniform List<scalar> 
62000
(
0.0461291
0.046138
0.046159
0.0461928
0.0462391
0.0462986
0.0463711
0.0464576
0.0465577
0.046673
0.0468027
0.0469496
0.0471121
0.0472943
0.0474939
0.0477167
0.0479597
0.04823
0.0485243
0.048851
0.0492069
0.0496014
0.0500317
0.0505088
0.0510322
0.05162
0.0522755
0.0530165
0.0538458
0.0547816
0.0558275
0.0569995
0.0583044
0.0597592
0.0613743
0.0631415
0.0650379
0.0670281
0.0690584
0.071051
0.0728989
0.074466
0.0755902
0.0760931
0.0757977
0.0745483
0.072247
0.0688658
0.0644818
0.0592691
0.0534655
0.0473935
0.0412871
0.0354942
0.0301054
0.0253186
0.0210237
0.0172498
0.0138408
0.0120223
0.0460773
0.0460851
0.0461038
0.0461354
0.0461794
0.046237
0.046308
0.0463935
0.0464929
0.0466081
0.046738
0.0468851
0.0470477
0.0472299
0.0474293
0.0476511
0.0478928
0.0481608
0.0484527
0.048776
0.0491288
0.0495196
0.0499476
0.0504219
0.0509447
0.0515312
0.052189
0.0529325
0.0537708
0.0547185
0.0557869
0.0569884
0.0583363
0.0598496
0.0615397
0.0634046
0.0654283
0.0675835
0.0698255
0.0720864
0.0742701
0.0762507
0.0778744
0.0789672
0.0793494
0.0788535
0.0773586
0.0748023
0.0712199
0.0667378
0.0615514
0.0559504
0.0501395
0.0444754
0.0390418
0.0340574
0.0293792
0.0250335
0.0208149
0.0178929
0.0458312
0.045864
0.0459039
0.0459532
0.0460118
0.0460812
0.0461613
0.0462538
0.0463584
0.0464772
0.0466095
0.0467582
0.0469218
0.0471044
0.0473037
0.0475252
0.0477662
0.0480331
0.0483235
0.0486448
0.0489953
0.0493832
0.0498081
0.0502786
0.050797
0.0513783
0.0520305
0.0527674
0.0535988
0.0545387
0.0555998
0.0567943
0.058137
0.0596452
0.0613328
0.0631989
0.0652318
0.0674098
0.0696947
0.0720268
0.0743195
0.0764577
0.0782984
0.0796768
0.0804184
0.0803548
0.079355
0.0773372
0.0743077
0.070358
0.0656475
0.0604344
0.0549005
0.0493956
0.0439914
0.0389131
0.0340013
0.0292885
0.0245657
0.0209565
0.0455388
0.0456007
0.0456661
0.0457375
0.0458149
0.0458999
0.0459927
0.0460953
0.0462075
0.0463316
0.0464671
0.0466172
0.0467803
0.0469613
0.0471576
0.0473753
0.0476115
0.0478732
0.0481578
0.048473
0.0488169
0.0491979
0.0496154
0.0500776
0.0505867
0.0511578
0.0517988
0.0525227
0.053339
0.0542611
0.0553019
0.0564726
0.0577875
0.059265
0.0609159
0.0627418
0.0647334
0.0668726
0.0691266
0.0714423
0.0737424
0.0759219
0.0778493
0.0793709
0.080321
0.0805353
0.0798798
0.078261
0.0756649
0.0721536
0.0678585
0.063005
0.0577524
0.0524341
0.0471222
0.0420318
0.0370083
0.0320939
0.0270988
0.0231799
0.0452
0.0452851
0.0453721
0.0454632
0.0455585
0.0456593
0.0457657
0.0458794
0.0460005
0.0461311
0.046271
0.0464234
0.0465872
0.0467669
0.0469607
0.0471741
0.0474052
0.0476605
0.0479378
0.0482446
0.0485793
0.0489502
0.0493568
0.049807
0.0503029
0.05086
0.0514858
0.0521925
0.0529892
0.0538884
0.0549021
0.0560413
0.0573199
0.0587529
0.0603534
0.0621213
0.0640493
0.0661228
0.0683128
0.0705724
0.0728319
0.0749962
0.0769445
0.0785345
0.0796105
0.0800147
0.0796138
0.0783071
0.0760657
0.0729289
0.0690023
0.064484
0.0595129
0.0544055
0.0492266
0.0441875
0.0391391
0.0341428
0.0290246
0.0249905
0.0448542
0.0449553
0.0450566
0.0451607
0.0452674
0.0453782
0.0454931
0.0456139
0.0457404
0.045875
0.0460172
0.0461703
0.0463329
0.04651
0.0466994
0.0469072
0.0471312
0.0473784
0.0476464
0.0479432
0.0482669
0.048626
0.0490198
0.049456
0.0499367
0.0504775
0.0510859
0.0517733
0.052548
0.0534216
0.0544057
0.0555098
0.0567467
0.0581324
0.0596759
0.061379
0.063235
0.0652316
0.0673432
0.069528
0.0717233
0.0738429
0.0757763
0.0773926
0.0785463
0.0790877
0.0788864
0.0778381
0.0759032
0.0731014
0.0695183
0.0653241
0.0606376
0.0557544
0.0507424
0.0457976
0.0407884
0.0357865
0.0306347
0.0265831
0.0443938
0.0445082
0.0446223
0.0447388
0.044857
0.0449784
0.0451027
0.0452316
0.0453649
0.0455048
0.0456509
0.0458065
0.0459705
0.0461472
0.0463352
0.0465401
0.0467599
0.0470013
0.0472623
0.0475504
0.0478644
0.0482121
0.0485934
0.0490155
0.0494807
0.0500048
0.0505951
0.0512626
0.0520146
0.0528622
0.0538157
0.0548844
0.0560805
0.0574163
0.0589033
0.0605411
0.0623244
0.0642427
0.0662733
0.0683788
0.0705029
0.0725675
0.0744713
0.0760939
0.0773003
0.0779487
0.0779129
0.0770874
0.0754238
0.0729268
0.0696628
0.0657789
0.0613755
0.0567296
0.051903
0.047085
0.0421546
0.0371985
0.0320634
0.0280341
0.0438516
0.0439754
0.0440984
0.0442232
0.0443492
0.0444779
0.0446091
0.0447444
0.0448834
0.0450285
0.0451786
0.0453374
0.0455029
0.0456804
0.0458672
0.0460699
0.0462858
0.0465222
0.0467768
0.0470574
0.0473624
0.0477001
0.0480698
0.048479
0.0489296
0.0494378
0.0500109
0.050659
0.0513891
0.0522113
0.0531358
0.0541703
0.0553257
0.0566159
0.0580483
0.0596244
0.0613386
0.0631822
0.0651349
0.0671631
0.0692164
0.0712236
0.0730924
0.0747122
0.0759577
0.0766957
0.0768047
0.0761792
0.0747652
0.0725534
0.0695957
0.0660151
0.0618956
0.0574909
0.0528668
0.048195
0.0433734
0.0384911
0.0333997
0.0294072
0.0431479
0.0432808
0.0434135
0.0435483
0.0436846
0.0438234
0.0439644
0.0441089
0.0442566
0.0444092
0.0445664
0.0447309
0.0449017
0.0450827
0.0452726
0.0454765
0.0456928
0.0459276
0.0461794
0.0464553
0.0467542
0.0470839
0.0474443
0.0478424
0.0482803
0.0487742
0.0493315
0.0499619
0.0506717
0.0514706
0.0523675
0.0533705
0.0544899
0.055736
0.0571191
0.0586384
0.0602896
0.0620651
0.063947
0.0659051
0.067894
0.0698491
0.0716857
0.0733025
0.0745832
0.0754024
0.0756441
0.0752034
0.0740214
0.0720783
0.0694114
0.0661243
0.0622847
0.0581272
0.0537121
0.0492016
0.0445036
0.0397137
0.0346776
0.0307205
0.0423952
0.0425334
0.0426707
0.0428099
0.0429502
0.043093
0.0432378
0.0433864
0.043538
0.0436946
0.0438553
0.0440231
0.0441962
0.0443794
0.04457
0.0447742
0.0449895
0.0452228
0.0454717
0.045744
0.046038
0.0463616
0.0467146
0.0471037
0.0475311
0.048013
0.0485567
0.0491714
0.0498633
0.0506411
0.051514
0.0524882
0.0535738
0.0547825
0.0561208
0.0575898
0.0591851
0.0609004
0.0627196
0.0646155
0.0665476
0.0684568
0.070266
0.0718817
0.0731966
0.0740929
0.0744597
0.0741936
0.0732328
0.0715471
0.0691633
0.0661641
0.0626027
0.058692
0.0544938
0.0501528
0.0455918
0.040902
0.0359262
0.032
0.0414962
0.0416399
0.0417832
0.0419285
0.0420749
0.0422239
0.0423746
0.0425287
0.0426855
0.042847
0.0430124
0.0431844
0.0433619
0.0435486
0.0437429
0.0439497
0.0441675
0.0444017
0.0446508
0.0449218
0.0452135
0.0455332
0.045881
0.0462634
0.0466825
0.0471547
0.0476871
0.0482886
0.0489649
0.0497247
0.0505758
0.0515254
0.0525827
0.0537566
0.0550567
0.0564819
0.0580288
0.0596924
0.0614583
0.0633021
0.0651874
0.0670605
0.0688504
0.0704715
0.071824
0.0727976
0.0732861
0.0731881
0.0724389
0.0710006
0.0688886
0.0661693
0.0628815
0.0592196
0.0552393
0.0510744
0.0466542
0.0420699
0.0371534
0.0332489
0.0405318
0.0406782
0.0408236
0.0409708
0.0411192
0.0412701
0.0414231
0.0415799
0.0417395
0.0419044
0.0420727
0.0422481
0.042428
0.0426175
0.0428134
0.0430221
0.0432404
0.0434753
0.043724
0.0439942
0.0442842
0.0446013
0.0449455
0.045323
0.045736
0.0462006
0.0467239
0.0473146
0.0479781
0.0487223
0.0495559
0.050484
0.0515159
0.0526622
0.053929
0.0553172
0.0568234
0.0584436
0.060165
0.0619657
0.0638132
0.0656584
0.0674364
0.0690685
0.0704621
0.0715135
0.0721218
0.0721873
0.0716438
0.0704458
0.0686007
0.0661566
0.0631401
0.0597249
0.0559663
0.0519805
0.0477073
0.0432289
0.0383703
0.0344809
0.0394066
0.039557
0.0397075
0.0398605
0.0400152
0.0401727
0.0403325
0.0404957
0.0406618
0.0408325
0.041007
0.0411875
0.0413734
0.0415675
0.0417686
0.0419809
0.0422034
0.0424407
0.0426917
0.0429626
0.0432527
0.0435686
0.0439108
0.0442851
0.0446936
0.0451526
0.0456689
0.0462511
0.0469042
0.0476362
0.0484545
0.0493654
0.0503776
0.051499
0.052739
0.0540966
0.0555693
0.0571546
0.0588407
0.0606083
0.0624284
0.0642561
0.0660317
0.0676827
0.0691235
0.0702563
0.0709846
0.0712112
0.0708681
0.069904
0.0683172
0.066142
0.0633925
0.0602244
0.0566865
0.0528823
0.0487555
0.0443833
0.0395782
0.035695
0.0382688
0.0384198
0.0385702
0.0387227
0.0388767
0.0390335
0.0391927
0.0393559
0.0395223
0.0396938
0.0398691
0.0400511
0.0402376
0.0404332
0.0406349
0.0408485
0.0410713
0.0413096
0.0415608
0.0418323
0.0421224
0.0424378
0.042779
0.0431515
0.0435572
0.0440124
0.0445239
0.0450997
0.0457451
0.0464672
0.0472743
0.048171
0.0491663
0.0502698
0.0514876
0.052821
0.0542674
0.0558253
0.0574844
0.0592274
0.0610285
0.062847
0.0646277
0.0663042
0.0677968
0.0690136
0.0698625
0.0702484
0.0701026
0.0693677
0.0680362
0.0661265
0.0636414
0.0607182
0.0574026
0.0537813
0.0498037
0.045536
0.0407814
0.0368996
0.0369941
0.0371473
0.0373003
0.0374557
0.0376126
0.0377724
0.0379342
0.0380998
0.0382684
0.0384419
0.0386193
0.0388032
0.0389925
0.0391904
0.0393952
0.0396113
0.0398374
0.040078
0.0403316
0.0406047
0.040896
0.041212
0.0415533
0.0419251
0.0423294
0.0427824
0.0432906
0.0438623
0.0445019
0.0452173
0.0460152
0.0469019
0.0478855
0.0489734
0.0501752
0.0514901
0.0529168
0.054455
0.0560956
0.0578231
0.0596151
0.061434
0.0632292
0.0649395
0.0664906
0.0677961
0.068768
0.069313
0.0693615
0.0688519
0.0677693
0.0661199
0.0638958
0.0612173
0.0581223
0.0546845
0.0508538
0.0466893
0.0419803
0.0380929
0.035677
0.0358298
0.0359817
0.0361357
0.0362909
0.0364492
0.0366098
0.0367748
0.036943
0.0371169
0.0372945
0.0374793
0.0376687
0.0378676
0.0380724
0.0382895
0.0385156
0.0387572
0.0390113
0.0392854
0.0395776
0.0398943
0.0402363
0.0406083
0.0410124
0.0414644
0.0419711
0.0425402
0.0431766
0.0438871
0.0446798
0.0455588
0.0465333
0.0476121
0.0488019
0.0501042
0.0515176
0.0530429
0.0546722
0.0563919
0.0581822
0.0600092
0.0618259
0.0635762
0.065191
0.0665887
0.0676852
0.0683892
0.0686308
0.0683438
0.0675085
0.0661172
0.064152
0.0617162
0.0588428
0.0555888
0.0519065
0.0478429
0.0431766
0.0392806
0.0341971
0.0343519
0.034507
0.034665
0.0348249
0.0349879
0.0351535
0.0353229
0.0354958
0.0356734
0.0358553
0.0360434
0.0362372
0.036439
0.0366481
0.036868
0.0370979
0.0373419
0.0375989
0.0378748
0.038169
0.038487
0.0388303
0.0392033
0.0396079
0.0400602
0.0405666
0.041135
0.0417697
0.0424783
0.0432672
0.0441427
0.0451126
0.0461844
0.0473677
0.0486624
0.0500684
0.0515877
0.0532132
0.0549334
0.056731
0.0585749
0.0604219
0.0622202
0.0639055
0.0654007
0.0666251
0.0674894
0.067923
0.0678561
0.0672634
0.0661268
0.0644181
0.0622251
0.0595712
0.0565009
0.0529639
0.0489992
0.0443711
0.0404605
0.0327255
0.0328788
0.0330314
0.0331863
0.0333428
0.0335023
0.0336647
0.0338315
0.034002
0.0341782
0.0343584
0.0345457
0.034738
0.0349396
0.0351474
0.0353674
0.0355967
0.0358414
0.0360987
0.036376
0.0366714
0.0369911
0.0373362
0.0377109
0.0381172
0.0385708
0.0390783
0.0396474
0.0402827
0.0409907
0.0417797
0.0426534
0.0436213
0.0446919
0.0458723
0.0471647
0.0485689
0.0500882
0.0517163
0.0534435
0.0552551
0.0571226
0.0590064
0.0608586
0.0626194
0.0642161
0.0655709
0.0665965
0.0672221
0.0673743
0.0670241
0.0661411
0.0646872
0.0627354
0.0603018
0.0574151
0.0540244
0.0501563
0.0455638
0.0416371
0.0311136
0.0312677
0.0314215
0.0315778
0.0317357
0.0318967
0.03206
0.0322275
0.0323984
0.0325747
0.0327554
0.032943
0.0331365
0.033339
0.0335489
0.0337705
0.0340025
0.0342492
0.0345091
0.0347885
0.0350863
0.0354082
0.0357558
0.0361329
0.0365415
0.0369975
0.0375072
0.0380786
0.0387157
0.039426
0.0402159
0.0410918
0.0420617
0.0431326
0.0443152
0.0456098
0.0470174
0.0485427
0.0501803
0.051922
0.0537554
0.0556548
0.0575833
0.0594971
0.0613403
0.0630438
0.0645331
0.0657222
0.0665401
0.0669104
0.0667995
0.0661676
0.0649676
0.0632573
0.0610424
0.0583385
0.0550907
0.0513169
0.0467559
0.042808
0.0294684
0.0296206
0.0297714
0.0299245
0.0300788
0.0302363
0.0303964
0.0305615
0.0307303
0.0309053
0.0310844
0.0312714
0.0314635
0.0316658
0.0318744
0.0320961
0.0323274
0.0325748
0.0328351
0.0331161
0.0334156
0.0337398
0.03409
0.0344701
0.0348817
0.0353409
0.0358541
0.0364288
0.0370697
0.0377833
0.0385779
0.0394572
0.0404312
0.041508
0.0426957
0.0439971
0.0454132
0.0469498
0.0486024
0.0503643
0.0522256
0.0541629
0.0561421
0.0581229
0.0600534
0.061868
0.0634948
0.0648495
0.0658609
0.0664497
0.0665793
0.0661988
0.0652512
0.0637812
0.0617855
0.0592644
0.05616
0.0524783
0.0479464
0.0439767
0.0276505
0.0278037
0.0279572
0.0281135
0.028272
0.0284338
0.0285985
0.0287673
0.0289402
0.0291182
0.029301
0.0294905
0.0296864
0.0298908
0.0301032
0.030327
0.0305619
0.0308114
0.0310747
0.0313577
0.03166
0.0319866
0.0323399
0.0327233
0.0331385
0.0336016
0.0341189
0.0346985
0.0353442
0.0360636
0.0368634
0.03775
0.0387317
0.0398156
0.041013
0.0423252
0.0437544
0.0453076
0.0469813
0.0487701
0.0506665
0.052649
0.0546863
0.0567415
0.0587659
0.0606973
0.0624662
0.0639895
0.0651958
0.0660032
0.0663713
0.0662409
0.0655468
0.0643182
0.0625402
0.0602007
0.0572363
0.053644
0.0491369
0.0451406
0.0258532
0.0260038
0.0261534
0.0263052
0.0264587
0.0266154
0.0267753
0.02694
0.0271092
0.0272844
0.0274642
0.0276518
0.027845
0.0280483
0.0282585
0.0284818
0.0287155
0.0289654
0.029229
0.0295138
0.0298181
0.0301475
0.0305043
0.0308916
0.0313112
0.0317791
0.0323018
0.0328872
0.0335396
0.0342658
0.0350743
0.0359689
0.0369603
0.0380563
0.039266
0.0405931
0.0420397
0.0436143
0.0453139
0.0471347
0.0490715
0.0511049
0.0532058
0.0553406
0.057464
0.0595167
0.0614313
0.0631262
0.0645298
0.0655574
0.0661663
0.0662876
0.0658453
0.0648572
0.0632977
0.0611395
0.0583152
0.0548101
0.050326
0.0463033
0.0239081
0.0240589
0.0242091
0.0243618
0.0245161
0.0246736
0.0248338
0.0249985
0.0251672
0.0253417
0.0255212
0.0257082
0.0259021
0.0261054
0.0263173
0.0265415
0.0267777
0.0270294
0.0272957
0.0275829
0.0278904
0.028223
0.0285838
0.0289755
0.0294
0.0298736
0.0304025
0.030995
0.031655
0.0323903
0.0332078
0.0341142
0.0351183
0.0362272
0.0374534
0.0387987
0.0402669
0.0418676
0.0435986
0.0454575
0.0474413
0.0495323
0.0517039
0.0539253
0.0561543
0.058334
0.0603993
0.0622696
0.0638727
0.065122
0.0659707
0.066343
0.066156
0.0654099
0.0640674
0.0620892
0.0594015
0.0559808
0.0515148
0.047461
0.0219319
0.0220799
0.0222261
0.0223745
0.0225241
0.0226772
0.0228331
0.0229944
0.0231599
0.0233324
0.0235094
0.0236952
0.0238866
0.0240893
0.0242991
0.0245231
0.0247582
0.0250107
0.0252775
0.0255668
0.0258767
0.0262128
0.0265778
0.0269745
0.0274046
0.0278846
0.0284206
0.0290211
0.0296904
0.0304355
0.0312653
0.0321837
0.0332024
0.0343288
0.0355735
0.0369409
0.0384345
0.0400654
0.0418322
0.0437339
0.0457696
0.0479235
0.0501712
0.0524845
0.0548242
0.0571359
0.0593563
0.0614057
0.063212
0.0646854
0.065777
0.0664029
0.0664695
0.065965
0.06484
0.0630416
0.0604901
0.0571514
0.052702
0.0486178
0.019769
0.0199179
0.0200666
0.0202184
0.0203723
0.0205297
0.0206902
0.0208553
0.021025
0.0212002
0.021381
0.0215689
0.0217642
0.0219687
0.0221823
0.0224082
0.022647
0.0229015
0.0231717
0.0234635
0.0237771
0.0241167
0.0244864
0.0248884
0.0253245
0.0258114
0.0263554
0.026965
0.0276443
0.0284014
0.0292434
0.0301775
0.0312131
0.0323577
0.0336247
0.0350171
0.0365397
0.0382052
0.0400128
0.041963
0.0440567
0.0462801
0.0486105
0.0510226
0.0534795
0.0559293
0.0583101
0.0605434
0.0625557
0.0642559
0.0655899
0.0664707
0.0667958
0.0665349
0.0656263
0.0640058
0.0615869
0.0583265
0.0538882
0.0497687
0.0176307
0.0177761
0.01792
0.0180662
0.0182141
0.0183654
0.0185202
0.0186804
0.0188455
0.0190174
0.0191946
0.0193802
0.0195724
0.0197756
0.0199868
0.0202124
0.0204502
0.0207057
0.0209768
0.0212714
0.0215881
0.0219321
0.0223071
0.0227152
0.0231582
0.0236529
0.0242057
0.0248253
0.0255164
0.0262858
0.0271434
0.0280928
0.0291473
0.0303138
0.031605
0.0330256
0.034581
0.0362849
0.0381375
0.0401406
0.0422972
0.0445953
0.0470137
0.0495301
0.0521096
0.054703
0.0572489
0.059671
0.0618935
0.0638242
0.065405
0.0665424
0.0671249
0.0671072
0.0664153
0.0649725
0.0626853
0.0595011
0.0550727
0.0509191
0.015332
0.0154772
0.0156215
0.0157684
0.0159169
0.0160689
0.0162238
0.0163836
0.0165483
0.0167192
0.016896
0.0170811
0.0172741
0.0174774
0.0176908
0.0179177
0.0181587
0.0184165
0.0186914
0.0189892
0.0193105
0.0196591
0.02004
0.0204546
0.0209051
0.0214083
0.0219708
0.0226015
0.0233047
0.0240888
0.0249612
0.0259298
0.0270046
0.028194
0.0295125
0.0309642
0.0325556
0.0343021
0.0362046
0.0382659
0.0404914
0.0428703
0.0453833
0.0480106
0.0507194
0.0534626
0.0561798
0.0587957
0.0612325
0.0633973
0.0652252
0.0666225
0.0674676
0.0676949
0.0672187
0.0659514
0.0637922
0.0606794
0.0562551
0.0520619
0.0129982
0.01314
0.0132796
0.0134216
0.0135647
0.0137116
0.0138617
0.0140179
0.0141792
0.0143482
0.0145226
0.0147066
0.0148975
0.0151008
0.0153125
0.01554
0.0157806
0.0160404
0.0163168
0.0166182
0.0169434
0.0172971
0.0176842
0.0181059
0.0185644
0.0190767
0.0196494
0.0202919
0.0210088
0.0218074
0.0226981
0.0236849
0.0247824
0.0259974
0.0273452
0.028831
0.0304621
0.0322549
0.0342114
0.0363354
0.0386345
0.0410993
0.0437125
0.0464562
0.0493002
0.0521989
0.055093
0.0579081
0.0605643
0.0629684
0.0650485
0.0667075
0.0678133
0.0682852
0.0680248
0.0669325
0.0649001
0.0618566
0.0574354
0.0532041
0.0104625
0.0106052
0.0107477
0.0108935
0.0110417
0.0111937
0.0113495
0.0115104
0.0116769
0.0118495
0.0120287
0.0122157
0.0124116
0.0126172
0.0128339
0.0130638
0.0133092
0.0135717
0.0138525
0.0141573
0.0144874
0.0148459
0.0152393
0.0156682
0.0161349
0.0166568
0.0172404
0.0178956
0.0186264
0.0194418
0.0203497
0.0213588
0.0224795
0.0237218
0.0251014
0.0266244
0.0282982
0.0301416
0.0321565
0.0343484
0.0367268
0.0392837
0.0420034
0.0448703
0.0478561
0.0509169
0.0539942
0.0570146
0.0598952
0.0625429
0.0648771
0.066803
0.0681744
0.0688923
0.0688465
0.0679267
0.0660165
0.0630366
0.0586117
0.0543364
0.00796106
0.00809985
0.00823679
0.00837629
0.00851777
0.00866308
0.00881255
0.00896815
0.00912984
0.00929904
0.00947463
0.00965957
0.00985243
0.0100573
0.0102719
0.0105022
0.0107472
0.0110116
0.0112943
0.0116029
0.0119375
0.0123017
0.0127021
0.0131389
0.0136146
0.0141467
0.0147421
0.0154105
0.016157
0.0169888
0.0179176
0.0189473
0.0200946
0.0213662
0.0227799
0.0243428
0.026063
0.0279605
0.0300377
0.0323018
0.0347641
0.0374183
0.04025
0.0432459
0.0463795
0.0496087
0.0528754
0.056107
0.0592181
0.0621154
0.0647101
0.0669019
0.0685381
0.0695016
0.0696707
0.0689226
0.0671334
0.0642154
0.0597861
0.0554687
0.00529031
0.00542896
0.00556649
0.0057069
0.00584927
0.00599546
0.00614527
0.00630074
0.00646209
0.00663048
0.00680596
0.00699037
0.0071845
0.00738973
0.00760695
0.00783885
0.00808768
0.00835484
0.00864193
0.00895465
0.00929463
0.00966472
0.0100724
0.0105176
0.0110026
0.0115457
0.0121533
0.0128361
0.0135982
0.0144489
0.0153972
0.0164522
0.0176259
0.0189285
0.0203795
0.021985
0.0237548
0.02571
0.0278542
0.0301951
0.0327469
0.0355041
0.0384543
0.0415857
0.0448743
0.0482786
0.0517417
0.0551909
0.0585386
0.0616909
0.0645486
0.0670139
0.0689182
0.0701284
0.0705108
0.0699319
0.0682581
0.0653955
0.0609543
0.0565883
0.00258611
0.00272098
0.00285333
0.00298827
0.00312473
0.0032654
0.00341007
0.00356169
0.00371949
0.00388591
0.00405887
0.00424246
0.0044343
0.00463967
0.00485519
0.00508808
0.00533666
0.00560625
0.00589536
0.00621244
0.00655723
0.00693369
0.00734892
0.00780296
0.00829795
0.00885234
0.00947294
0.0101704
0.0109497
0.0118189
0.0127905
0.013869
0.0150725
0.0164092
0.0178988
0.0195501
0.0213723
0.0233886
0.025603
0.028025
0.0306707
0.0335363
0.0366104
0.0398836
0.0433332
0.0469194
0.0505852
0.054259
0.0578496
0.0612638
0.0643913
0.0671288
0.0693001
0.070757
0.071353
0.0709423
0.0693825
0.0665739
0.0621205
0.0577082
-0.000338646
-0.000202533
-6.6514e-05
7.30399e-05
0.000215752
0.000362461
0.000513943
0.000670964
0.000835018
0.00100556
0.00118416
0.00137098
0.00156853
0.00177654
0.00199759
0.00223312
0.00248706
0.00275968
0.00305387
0.00337503
0.0037257
0.00410815
0.00453124
0.00499418
0.00549933
0.00606559
0.00669948
0.00741259
0.00820913
0.00909924
0.0100928
0.0111996
0.0124334
0.0138051
0.0153369
0.0170363
0.0189137
0.0209945
0.0232831
0.0257909
0.0285359
0.0315158
0.0347202
0.038142
0.0417598
0.0455352
0.0494112
0.0533165
0.0571567
0.0608386
0.0642401
0.0672586
0.0697
0.0714041
0.0722123
0.0719663
0.0705143
0.0677518
0.0632781
0.0588124
-0.0032179
-0.00308626
-0.00295666
-0.00282427
-0.00268938
-0.00255034
-0.00240616
-0.00225515
-0.00209666
-0.00192993
-0.00175552
-0.00157091
-0.0013768
-0.00116952
-0.000950714
-0.000714485
-0.000460704
-0.000185382
0.000111449
0.000437673
0.000794137
0.00118392
0.0016157
0.00208855
0.00260471
0.00318342
0.00383143
0.00456053
0.00537596
0.00628656
0.00730593
0.00843919
0.00970617
0.0111161
0.0126911
0.0144409
0.0163762
0.0185244
0.0208909
0.0234884
0.0263375
0.029437
0.0327777
0.0363542
0.0401469
0.0441183
0.0482116
0.0523553
0.0564525
0.0604089
0.0640914
0.0673886
0.0700999
0.0720521
0.0730729
0.0729907
0.0716454
0.0689283
0.0644346
0.0599182
-0.00628649
-0.00615523
-0.0060252
-0.005892
-0.00575636
-0.00561647
-0.00547214
-0.00532133
-0.00516333
-0.00499741
-0.00482302
-0.00463866
-0.00444272
-0.00423441
-0.00401189
-0.0037729
-0.00351375
-0.0032341
-0.00293109
-0.00259901
-0.0022352
-0.00183779
-0.00139682
-0.000913822
-0.000386512
0.000204984
0.000867239
0.00161315
0.00244724
0.00338053
0.00442398
0.00558802
0.00688852
0.00833653
0.00995804
0.0117605
0.0137567
0.015976
0.0184247
0.021117
0.0240757
0.0273009
0.0307845
0.0345229
0.0384981
0.0426731
0.0469915
0.0513811
0.0557424
0.0599797
0.063948
0.0675335
0.0705179
0.0727189
0.0739508
0.0740282
0.0727826
0.0701022
0.06558
0.0610057
-0.00940388
-0.00927743
-0.00915346
-0.00902611
-0.00889654
-0.00876167
-0.00862184
-0.00847365
-0.00831796
-0.00815222
-0.00797877
-0.00779313
-0.00759767
-0.00738703
-0.00716425
-0.006922
-0.00666101
-0.00637678
-0.0060698
-0.00573157
-0.00536131
-0.0049562
-0.00450642
-0.00401356
-0.00347532
-0.00287146
-0.00219495
-0.00143267
-0.000578954
0.000375808
0.00144658
0.00263904
0.00397484
0.00546489
0.00713342
0.00899143
0.0110515
0.0133453
0.0158799
0.0186713
0.0217446
0.0251011
0.0287338
0.0326406
0.0368053
0.0411912
0.0457424
0.0503851
0.0550182
0.059543
0.0638038
0.0676756
0.0709342
0.0733856
0.0748293
0.0750655
0.0739187
0.0712746
0.0667248
0.0620958
-0.0128319
-0.0126996
-0.0125639
-0.0124212
-0.0122732
-0.0121201
-0.0119613
-0.0117971
-0.0116251
-0.0114471
-0.0112605
-0.0110664
-0.0108602
-0.0106438
-0.0104123
-0.0101659
-0.00989786
-0.00961025
-0.00929775
-0.00895578
-0.00857992
-0.00816957
-0.00771252
-0.00721156
-0.00666376
-0.00604853
-0.00535876
-0.00458028
-0.00370816
-0.00273032
-0.00163458
-0.000409689
0.0009624
0.00249383
0.00421328
0.00612945
0.00825672
0.0106291
0.0132545
0.0161504
0.0193444
0.0228387
0.0266275
0.0307105
0.0350725
0.0396777
0.0444696
0.0493737
0.0542858
0.0591047
0.0636637
0.067832
0.0713693
0.0740722
0.0757254
0.0761154
0.0750592
0.0724421
0.0678564
0.0631661
-0.0157408
-0.015625
-0.0155168
-0.015408
-0.0152988
-0.0151841
-0.0150642
-0.0149344
-0.0147958
-0.0146452
-0.0144854
-0.0143115
-0.0141258
-0.0139236
-0.0137067
-0.0134692
-0.0132098
-0.012926
-0.0126165
-0.0122742
-0.0118967
-0.0114829
-0.0110205
-0.0105128
-0.00995666
-0.0093312
-0.00862892
-0.00783527
-0.00694407
-0.00594457
-0.00482042
-0.00356535
-0.00215501
-0.000577971
0.00119322
0.00317045
0.00536819
0.00782287
0.0105433
0.0135484
0.0168684
0.0205066
0.0244579
0.028724
0.0332909
0.0381228
0.0431636
0.0483367
0.0535359
0.0586557
0.0635198
0.067983
0.0718008
0.0747576
0.0766214
0.0771648
0.076199
0.0736092
0.0689887
0.0642408
-0.0194887
-0.0193579
-0.0192239
-0.0190836
-0.0189385
-0.0187896
-0.0186355
-0.0184769
-0.0183109
-0.0181396
-0.0179598
-0.0177731
-0.017574
-0.0173645
-0.0171392
-0.0168984
-0.0166345
-0.0163499
-0.0160386
-0.015696
-0.0153168
-0.0149012
-0.0144351
-0.0139222
-0.0133592
-0.0127246
-0.0120107
-0.0112019
-0.0102925
-0.00926938
-0.00811912
-0.00682934
-0.00538005
-0.00375807
-0.00193127
0.00010978
0.00238178
0.00492337
0.00774402
0.0108643
0.0143168
0.0181059
0.0222274
0.0266847
0.0314649
0.0365325
0.0418307
0.0472816
0.0527754
0.0582034
0.063378
0.0681473
0.0722512
0.0754631
0.0775348
0.0782257
0.0773411
0.0747688
0.0701058
0.0652951
-0.0225857
-0.0224721
-0.0223669
-0.0222623
-0.0221577
-0.0220485
-0.0219342
-0.0218105
-0.021678
-0.0215341
-0.0213811
-0.0212146
-0.0210362
-0.0208419
-0.0206326
-0.0204025
-0.0201495
-0.0198715
-0.0195664
-0.0192265
-0.0188491
-0.018433
-0.0179645
-0.0174472
-0.016878
-0.0162347
-0.0155093
-0.0146857
-0.0137571
-0.0127117
-0.0115315
-0.0102097
-0.00871939
-0.00704797
-0.00516468
-0.00305639
-0.000706563
0.00192595
0.00485134
0.00809176
0.0116824
0.0156288
0.0199274
0.0245832
0.0295846
0.034896
0.0404603
0.0461971
0.051994
0.0577374
0.0632299
0.0683045
0.0726968
0.0761665
0.0784472
0.0792858
0.0784826
0.0759286
0.0712244
0.0663549
-0.0265672
-0.0264369
-0.0263033
-0.0261648
-0.0260219
-0.0258767
-0.0257268
-0.0255737
-0.0254135
-0.0252491
-0.0250767
-0.024898
-0.0247072
-0.0245064
-0.0242899
-0.0240575
-0.0238014
-0.0235238
-0.0232185
-0.0228798
-0.0225025
-0.0220862
-0.0216155
-0.0210942
-0.0205191
-0.0198672
-0.0191307
-0.0182918
-0.0173446
-0.0162747
-0.015067
-0.0137082
-0.0121758
-0.0104552
-0.00851118
-0.00633254
-0.00390097
-0.00117269
0.00186305
0.00522995
0.00896578
0.0130769
0.0175608
0.0224238
0.0276555
0.0332201
0.0390595
0.0450916
0.0511996
0.0572662
0.0630829
0.0684749
0.0731623
0.0768907
0.0793769
0.0803559
0.0796242
0.0770786
0.0723256
0.0673925
-0.0298384
-0.029727
-0.0296253
-0.029527
-0.0294298
-0.0293301
-0.029226
-0.0291137
-0.0289929
-0.0288613
-0.028721
-0.0285672
-0.0284017
-0.0282196
-0.0280226
-0.0278036
-0.027561
-0.0272918
-0.0269943
-0.0266596
-0.026285
-0.0258688
-0.0253962
-0.0248708
-0.0242895
-0.0236288
-0.0228808
-0.0220268
-0.0210595
-0.019966
-0.0187263
-0.0173329
-0.0157557
-0.0139814
-0.0119752
-0.0097228
-0.00720567
-0.00437737
-0.00122652
0.00227218
0.00615915
0.0104417
0.015118
0.020196
0.0256663
0.0314929
0.0376167
0.0439529
0.0503811
0.056779
0.0629279
0.0686368
0.073622
0.0776122
0.0803056
0.0814257
0.0807664
0.0782299
0.0734295
0.0684364
-0.0339858
-0.0338636
-0.0337428
-0.0336221
-0.0334996
-0.0333765
-0.0332492
-0.0331182
-0.0329791
-0.0328342
-0.03268
-0.0325177
-0.0323421
-0.0321547
-0.0319507
-0.0317292
-0.031483
-0.0312135
-0.0309153
-0.030581
-0.030206
-0.029789
-0.0293137
-0.0287836
-0.028196
-0.0275261
-0.0267663
-0.025896
-0.0249087
-0.0237887
-0.0225191
-0.0210853
-0.0194624
-0.0176343
-0.0155615
-0.013232
-0.0106249
-0.00769139
-0.00441941
-0.000782206
0.00326332
0.00772541
0.0126028
0.0179051
0.0236237
0.0297223
0.0361403
0.0427905
0.0495476
0.0562849
0.0627726
0.0688118
0.0741021
0.0783544
0.0812506
0.0825036
0.0819064
0.079369
0.0745136
0.0694551
-0.0379426
-0.0378253
-0.0377104
-0.0375967
-0.0374805
-0.037363
-0.0372405
-0.0371132
-0.0369783
-0.0368369
-0.0366889
-0.0365313
-0.0363641
-0.0361833
-0.035989
-0.0357743
-0.0355363
-0.0352717
-0.0349787
-0.0346464
-0.0342726
-0.0338544
-0.0333761
-0.0328408
-0.032246
-0.0315664
-0.0307935
-0.0299064
-0.0288969
-0.0277511
-0.0264465
-0.0249749
-0.0233029
-0.0214158
-0.0192749
-0.0168642
-0.014163
-0.0111197
-0.00772156
-0.00394029
0.000270043
0.00491856
0.0100046
0.0155395
0.0215153
0.0278953
0.0346174
0.0415912
0.048687
0.0557729
0.0626083
0.0689777
0.0745755
0.0790933
0.0821944
0.0835816
0.0830476
0.0805103
0.0756005
0.0704792
-0.0420763
-0.041965
-0.0418575
-0.0417508
-0.0416431
-0.0415346
-0.0414219
-0.0413043
-0.0411781
-0.0410448
-0.0409018
-0.0407496
-0.0405836
-0.0404049
-0.0402095
-0.0399954
-0.0397559
-0.0394918
-0.0391983
-0.0388661
-0.0384913
-0.0380716
-0.0375896
-0.0370487
-0.0364463
-0.035756
-0.0349695
-0.034064
-0.0330324
-0.0318572
-0.0305196
-0.0290034
-0.0272809
-0.025334
-0.0231197
-0.0206239
-0.017824
-0.0146654
-0.0111348
-0.00720237
-0.00281935
0.00202423
0.00732827
0.0131055
0.0193489
0.0260209
0.0330576
0.0403656
0.0478094
0.0552522
0.0624428
0.0691575
0.0750704
0.0798532
0.0831534
0.0846656
0.0841843
0.0816371
0.0766652
0.0714748
-0.0462599
-0.0461545
-0.0460539
-0.0459562
-0.0458576
-0.0457586
-0.0456555
-0.0455473
-0.0454318
-0.0453089
-0.0451794
-0.045039
-0.0448885
-0.0447224
-0.0445425
-0.0443397
-0.0441124
-0.043856
-0.0435698
-0.0432409
-0.042868
-0.0424473
-0.041962
-0.0414151
-0.0408045
-0.0401029
-0.0393015
-0.038377
-0.0373204
-0.0361159
-0.0347391
-0.0331804
-0.0314025
-0.0293904
-0.0271006
-0.0245156
-0.0216126
-0.0183338
-0.0146656
-0.0105762
-0.00601395
-0.000968054
0.00456194
0.0105904
0.0171108
0.0240851
0.031447
0.0390999
0.0469022
0.0547122
0.062268
0.0693275
0.0755582
0.0806098
0.0841119
0.0857511
0.0853239
0.0827672
0.0777328
0.0724747
-0.0507439
-0.0506427
-0.0505469
-0.0504531
-0.0503596
-0.0502662
-0.0501695
-0.0500683
-0.0499586
-0.0498418
-0.0497154
-0.0495795
-0.0494295
-0.0492659
-0.0490849
-0.0488836
-0.0486556
-0.0484007
-0.0481148
-0.0477866
-0.047413
-0.0469906
-0.0465012
-0.0459477
-0.0453281
-0.0446138
-0.0437966
-0.0428506
-0.0417681
-0.04053
-0.0391152
-0.0375061
-0.0356717
-0.0335933
-0.0312225
-0.0285442
-0.0255329
-0.022128
-0.0183153
-0.0140615
-0.00931169
-0.00405434
0.00171156
0.00800166
0.0148103
0.022098
0.0297967
0.0378052
0.0459763
0.0541617
0.0620902
0.0695116
0.0760676
0.0813867
0.0850838
0.0868405
0.0864566
0.0838807
0.0787758
0.0734431
-0.0552812
-0.0551857
-0.0550965
-0.0550114
-0.0549265
-0.0548421
-0.0547543
-0.0546619
-0.0545623
-0.0544555
-0.0543422
-0.0542176
-0.0540829
-0.0539316
-0.053766
-0.0535757
-0.0533596
-0.053112
-0.0528328
-0.0525072
-0.0521345
-0.05171
-0.0512158
-0.0506543
-0.0500243
-0.0492958
-0.0484604
-0.0474915
-0.0463797
-0.0451076
-0.0436482
-0.0419909
-0.0400951
-0.0379441
-0.0354901
-0.0327138
-0.0295897
-0.0260537
-0.0220912
-0.0176669
-0.0127227
-0.00724623
-0.00123602
0.00532528
0.0124323
0.0200448
0.0280914
0.0364676
0.0450184
0.0535906
0.0619026
0.0696858
0.0765695
0.0821602
0.0860559