/*--------------------------------*- C++ -*----------------------------------*\
  =========                 |
  \\      /  F ield         | OpenFOAM: The Open Source CFD Toolbox
   \\    /   O peration     | Website:  https://openfoam.org
    \\  /    A nd           | Version:  6.0
     \\/     M anipulation  |
\*---------------------------------------------------------------------------*/
FoamFile
{
    version     2.0;
    format      ascii;
    class       volVectorField;
    location    "3";
    object      U;
}
// * * * * * * * * * * * * * * * * * * * * * * * * * * * * * * * * * * * * * //

dimensions      [0 1 -1 0 0 0 0];

internalField   nonuniform List<vector> 
62000
(
(0.996093 0.0880243 -1.23832e-20)
(0.996101 0.0879936 1.03173e-20)
(0.99611 0.0879617 1.06092e-20)
(0.996119 0.0879314 -4.65938e-20)
(0.996129 0.0879008 -5.33887e-20)
(0.996138 0.0878706 1.84738e-19)
(0.996148 0.0878413 -2.03577e-19)
(0.996157 0.0878129 1.18523e-19)
(0.996165 0.0877863 -5.57203e-20)
(0.996174 0.0877611 -2.85704e-19)
(0.996182 0.0877386 -3.73012e-20)
(0.996189 0.087718 4.00935e-19)
(0.996196 0.0877008 8.22652e-20)
(0.996203 0.0876862 -2.88395e-19)
(0.996208 0.0876753 4.51511e-19)
(0.996214 0.0876678 -2.396e-19)
(0.996218 0.0876641 2.5008e-19)
(0.996222 0.0876644 -2.93811e-19)
(0.996226 0.0876688 1.45899e-19)
(0.996228 0.0876778 -4.51926e-19)
(0.996229 0.0876913 5.9165e-19)
(0.996229 0.0877099 1.76959e-19)
(0.996228 0.0877338 2.57782e-19)
(0.996225 0.0877646 -1.16394e-18)
(0.996217 0.0878075 4.24024e-19)
(0.996206 0.0878606 -2.5701e-19)
(0.996191 0.0879169 -4.16235e-21)
(0.996174 0.0879747 -2.00353e-19)
(0.996152 0.0880323 6.06389e-19)
(0.996125 0.0880893 -3.36731e-19)
(0.996092 0.0881427 7.9877e-19)
(0.996051 0.0881934 -1.63403e-18)
(0.995999 0.0882393 1.50036e-19)
(0.995935 0.0882809 -5.54957e-19)
(0.995858 0.0883092 -1.80963e-19)
(0.995766 0.0883134 -5.77979e-19)
(0.995657 0.0882865 -1.75956e-19)
(0.995527 0.0882219 -1.93904e-19)
(0.995373 0.0881111 5.71102e-19)
(0.995192 0.0879439 2.75662e-18)
(0.994981 0.0877101 -6.81396e-19)
(0.994737 0.0874002 -3.92435e-18)
(0.99446 0.0870071 -6.26948e-18)
(0.99415 0.0865272 3.40394e-18)
(0.993809 0.085961 1.07357e-18)
(0.993443 0.0853152 -4.74623e-18)
(0.993063 0.0846009 8.53664e-19)
(0.992682 0.0838337 -1.88892e-18)
(0.992316 0.0830307 -8.24776e-18)
(0.991986 0.0822048 -1.86685e-18)
(0.991712 0.0813654 -8.87439e-19)
(0.99151 0.080504 -1.0409e-17)
(0.991399 0.0796136 1.77988e-18)
(0.991377 0.0786436 9.64307e-18)
(0.991461 0.0775397 2.16671e-18)
(0.991649 0.0761674 7.08736e-18)
(0.991985 0.0743705 -5.82011e-19)
(0.9925 0.0717442 -7.06404e-19)
(0.993277 0.0676012 1.95306e-18)
(0.985323 0.0497089 2.45167e-19)
(0.995807 0.0908243 -3.29479e-21)
(0.995804 0.0907852 3.15819e-20)
(0.995805 0.0907315 1.314e-20)
(0.995808 0.090678 -5.64107e-20)
(0.995814 0.0906195 2.34812e-20)
(0.995821 0.090557 -1.62655e-19)
(0.995831 0.0904909 1.49126e-19)
(0.995842 0.0904213 8.67183e-20)
(0.995854 0.0903494 -1.62435e-19)
(0.995868 0.0902746 6.87791e-21)
(0.995882 0.0901989 1.58393e-19)
(0.995897 0.0901211 6.61297e-22)
(0.995913 0.0900438 4.62197e-20)
(0.99593 0.0899657 -3.94559e-19)
(0.995946 0.0898884 7.95309e-19)
(0.995963 0.0898115 -7.04285e-19)
(0.995979 0.0897353 3.3196e-19)
(0.995996 0.0896599 -6.97711e-20)
(0.996012 0.0895848 -1.924e-19)
(0.996027 0.0895106 5.35484e-19)
(0.99604 0.0894361 -8.48017e-19)
(0.996053 0.0893622 4.9515e-19)
(0.996061 0.0892875 -6.35809e-19)
(0.996068 0.0892173 3.79245e-19)
(0.996064 0.0891555 3.52198e-19)
(0.996049 0.0890988 -2.27303e-19)
(0.996025 0.0890353 -2.60921e-21)
(0.995994 0.0889613 2.4098e-19)
(0.995953 0.0888713 2.0047e-19)
(0.995901 0.0887646 -4.13801e-19)
(0.995833 0.0886352 8.28235e-19)
(0.995749 0.0884846 1.7283e-19)
(0.995641 0.0883144 5.29076e-19)
(0.995506 0.0881251 4.48241e-20)
(0.995341 0.0879018 1.55862e-19)
(0.995144 0.0876277 -1.68321e-19)
(0.99491 0.0872938 -5.31669e-19)
(0.994634 0.0868947 -2.59791e-19)
(0.99431 0.0864237 -1.55185e-18)
(0.993933 0.0858723 -1.82103e-18)
(0.993501 0.0852327 1.44872e-18)
(0.993012 0.0844995 8.52168e-19)
(0.992468 0.0836709 6.69937e-18)
(0.991872 0.0827498 4.22497e-19)
(0.991233 0.0817436 -1.04333e-17)
(0.990566 0.0806661 4.07017e-18)
(0.98989 0.079533 3.17983e-18)
(0.98923 0.0783609 3.82768e-18)
(0.988612 0.0771643 4.33234e-19)
(0.988069 0.0759445 2.86203e-20)
(0.987627 0.0746978 5.43643e-18)
(0.987315 0.0733883 1.33944e-17)
(0.987155 0.0719888 -8.16373e-18)
(0.987142 0.0704053 -1.91749e-17)
(0.9873 0.0685284 -4.3824e-18)
(0.987639 0.0661356 -1.81451e-18)
(0.988233 0.0629529 -6.2589e-18)
(0.989139 0.0583671 -2.52441e-18)
(0.990498 0.051502 4.28748e-18)
(0.98428 0.029376 1.50534e-18)
(0.995555 0.0922289 -1.59704e-20)
(0.995532 0.0922164 -2.27521e-21)
(0.995514 0.0921792 2.47676e-21)
(0.9955 0.0921403 1.13522e-20)
(0.99549 0.0920936 3.22597e-20)
(0.995483 0.0920398 -3.06088e-20)
(0.995481 0.091979 1.63902e-19)
(0.995481 0.0919113 -7.80445e-20)
(0.995486 0.0918375 -4.20321e-20)
(0.995493 0.0917571 -2.59788e-19)
(0.995503 0.0916716 2.19183e-19)
(0.995515 0.0915799 1.61701e-20)
(0.99553 0.091484 -5.05259e-20)
(0.995547 0.0913829 1.34533e-19)
(0.995565 0.0912777 -2.30784e-19)
(0.995584 0.091168 1.22203e-21)
(0.995605 0.0910537 -1.07154e-19)
(0.995626 0.090935 1.22912e-21)
(0.995647 0.0908108 2.5001e-19)
(0.995667 0.090682 -3.82982e-19)
(0.995687 0.0905466 2.39608e-19)
(0.995705 0.0904056 9.4195e-19)
(0.99572 0.0902565 -1.21899e-19)
(0.995732 0.0901067 -1.32707e-18)
(0.995733 0.089957 6.79302e-19)
(0.995719 0.089805 -3.64616e-19)
(0.995693 0.0896387 5.80979e-19)
(0.995659 0.0894543 -3.43754e-19)
(0.995613 0.0892445 -6.79093e-19)
(0.995556 0.0890084 7.16109e-19)
(0.995481 0.0887393 -5.03057e-19)
(0.995388 0.0884388 6.74145e-19)
(0.995269 0.0881109 -1.87154e-18)
(0.99512 0.0877565 1.67945e-18)
(0.994939 0.0873602 -9.03486e-19)
(0.994724 0.0869042 3.71003e-19)
(0.994469 0.0863809 2.81229e-19)
(0.994168 0.0857877 -3.06535e-20)
(0.993815 0.0851207 -8.87784e-20)
(0.993407 0.0843751 1.87488e-18)
(0.992938 0.083547 -7.63172e-19)
(0.992408 0.0826353 1.20839e-18)
(0.991819 0.0816422 -4.34845e-18)
(0.991172 0.0805744 -2.15631e-18)
(0.990479 0.0794421 2.27828e-18)
(0.989753 0.0782599 -8.0714e-18)
(0.989014 0.0770426 1.02264e-18)
(0.988289 0.0758032 -6.66201e-18)
(0.987604 0.0745504 9.03539e-18)
(0.986997 0.0732772 2.18897e-18)
(0.986493 0.07197 1.29491e-18)
(0.986131 0.0705829 -4.21489e-20)
(0.985928 0.0690761 4.10276e-18)
(0.98589 0.0673528 -7.80067e-19)
(0.986039 0.0652826 -8.07884e-18)
(0.9864 0.0626459 -3.43821e-18)
(0.987047 0.059144 -3.7719e-18)
(0.988048 0.0542052 -8.54148e-18)
(0.989499 0.0472013 2.89096e-19)
(0.986655 0.026623 1.0032e-18)
(0.99529 0.0929192 -1.58889e-20)
(0.995248 0.0929316 4.86092e-20)
(0.995212 0.0929116 -7.39894e-21)
(0.99518 0.0928905 -5.00396e-20)
(0.995152 0.0928613 7.53753e-20)
(0.995129 0.0928245 1.30007e-19)
(0.99511 0.0927799 -1.69173e-19)
(0.995095 0.0927267 1.83611e-20)
(0.995085 0.0926655 5.86171e-20)
(0.995079 0.0925953 1.2192e-19)
(0.995078 0.0925172 -2.24814e-19)
(0.99508 0.0924301 -6.93114e-20)
(0.995087 0.0923356 -7.74734e-20)
(0.995096 0.0922326 3.52549e-19)
(0.995109 0.0921217 -2.35159e-19)
(0.995124 0.0920027 5.49608e-19)
(0.995141 0.0918749 -6.65922e-19)
(0.99516 0.0917388 -9.80418e-20)
(0.995179 0.0915925 7.03278e-19)
(0.995199 0.091437 -2.45249e-19)
(0.995218 0.0912697 -8.99961e-20)
(0.995237 0.0910919 -9.67163e-20)
(0.995253 0.0909 -8.83496e-19)
(0.995266 0.0907034 5.08737e-19)
(0.995268 0.0904994 -2.31057e-19)
(0.995254 0.0902867 3.63878e-19)
(0.995227 0.0900547 1.65778e-19)
(0.995191 0.0898 8.08059e-19)
(0.995143 0.0895145 -4.95959e-19)
(0.995082 0.0891974 -6.4285e-19)
(0.995005 0.0888415 1.00383e-18)
(0.99491 0.0884479 -8.15045e-19)
(0.994789 0.0880236 1.50927e-18)
(0.994638 0.0875688 -9.23701e-19)
(0.994455 0.0870676 3.77448e-19)
(0.994238 0.0865027 6.60121e-19)
(0.993983 0.085867 -2.86289e-19)
(0.993683 0.0851595 3.73589e-19)
(0.993333 0.0843785 -1.76937e-19)
(0.992926 0.0835212 5.6453e-19)
(0.992461 0.082586 -1.64378e-18)
(0.991934 0.081574 4.65193e-19)
(0.991346 0.0804896 1.02384e-18)
(0.9907 0.0793414 2.51989e-18)
(0.990004 0.0781403 3.35187e-18)
(0.989271 0.0769011 7.53564e-19)
(0.988521 0.0756373 5.13857e-18)
(0.987777 0.0743593 5.49095e-18)
(0.987069 0.0730723 6.23459e-18)
(0.986434 0.0717646 -4.38656e-18)
(0.985898 0.070417 -5.48618e-18)
(0.985506 0.068979 3.55129e-18)
(0.985272 0.0674038 4.52611e-18)
(0.985211 0.0655983 9.59221e-18)
(0.985341 0.0634195 5.59548e-18)
(0.985702 0.0606563 9.42034e-18)
(0.986363 0.0569999 1.54182e-17)
(0.987395 0.051918 -1.51781e-18)
(0.988827 0.0449405 -7.07439e-18)
(0.988484 0.0251657 -5.27681e-18)
(0.99501 0.0932887 3.05692e-20)
(0.994951 0.0933246 -1.01682e-20)
(0.994898 0.0933205 1.71157e-20)
(0.994849 0.0933156 -2.40606e-20)
(0.994804 0.0933024 5.39815e-20)
(0.994763 0.0932812 -2.65559e-20)
(0.994726 0.0932515 1.43726e-20)
(0.994695 0.0932128 -2.12445e-19)
(0.994668 0.0931654 1.77313e-19)
(0.994646 0.0931082 -3.53693e-19)
(0.994629 0.0930419 3.87742e-19)
(0.994617 0.092965 -4.66625e-20)
(0.99461 0.0928788 -1.02886e-19)
(0.994608 0.0927818 -4.71289e-20)
(0.994609 0.0926745 -1.02713e-20)
(0.994614 0.0925561 -4.73715e-19)
(0.994623 0.0924257 2.03536e-20)
(0.994634 0.0922835 5.13419e-19)
(0.994647 0.0921276 -1.66797e-19)
(0.994661 0.0919585 -1.76114e-19)
(0.994675 0.0917736 2.95723e-19)
(0.994689 0.0915739 -1.47571e-19)
(0.994701 0.0913553 6.19101e-19)
(0.994711 0.0911284 3.41797e-19)
(0.994712 0.0908874 2.60544e-19)
(0.994698 0.090632 -7.86421e-19)
(0.994669 0.0903536 -1.07888e-19)
(0.994631 0.0900495 -5.89297e-19)
(0.994581 0.0897114 1.07627e-19)
(0.994519 0.0893381 -1.93369e-19)
(0.99444 0.0889226 -7.40091e-20)
(0.994343 0.0884661 6.04695e-19)
(0.994222 0.087976 -1.50489e-18)
(0.994071 0.0874534 -6.45122e-20)
(0.993889 0.0868823 -7.77164e-19)
(0.993675 0.0862451 -3.83024e-19)
(0.993425 0.0855358 1.19527e-19)
(0.993132 0.0847544 -1.25383e-18)
(0.99279 0.0839005 1.95294e-18)
(0.992396 0.0829726 3.05417e-19)
(0.991944 0.0819706 2.21234e-18)
(0.991432 0.0808969 -1.6383e-18)
(0.990861 0.0797571 -1.11832e-18)
(0.990233 0.0785602 -4.71917e-19)
(0.989554 0.0773174 2.45896e-18)
(0.988836 0.076043 3.57353e-18)
(0.988097 0.0747489 8.22731e-19)
(0.987362 0.0734437 1.4048e-18)
(0.986656 0.0721295 -2.14441e-18)
(0.986017 0.0707921 1.11154e-17)
(0.985471 0.0694086 2.65455e-18)
(0.985066 0.067926 -2.53262e-18)
(0.984816 0.0662935 8.55886e-19)
(0.984741 0.0644224 7.95157e-18)
(0.984859 0.062162 -4.7504e-19)
(0.985218 0.0593091 -7.36311e-18)
(0.985882 0.0555472 -1.62993e-17)
(0.986927 0.0503728 1.42408e-17)
(0.988319 0.0434067 -7.71039e-18)
(0.989704 0.0240544 6.44532e-18)
(0.994736 0.0934695 -1.15375e-20)
(0.994661 0.0935141 4.65192e-20)
(0.994592 0.0935199 -7.65728e-20)
(0.994527 0.0935262 5.71152e-20)
(0.994464 0.0935253 3.71027e-20)
(0.994405 0.0935174 -3.91739e-20)
(0.99435 0.0935016 3.30275e-21)
(0.9943 0.0934771 -2.93848e-20)
(0.994255 0.0934438 -9.88938e-20)
(0.994215 0.0934002 1.89093e-19)
(0.99418 0.0933468 -2.92786e-19)
(0.994151 0.0932818 2.5553e-19)
(0.994127 0.0932066 2.25079e-19)
(0.994109 0.0931191 -3.46914e-19)
(0.994095 0.0930197 -1.13287e-19)
(0.994086 0.0929074 4.23656e-19)
(0.99408 0.0927809 -5.11875e-19)
(0.994079 0.0926403 7.06393e-19)
(0.99408 0.092483 -1.33569e-19)
(0.994083 0.0923097 7.65283e-20)
(0.994087 0.0921171 -1.22571e-19)
(0.994092 0.0919061 -1.5409e-19)
(0.994096 0.0916722 -2.88003e-19)
(0.994098 0.0914272 4.98003e-19)
(0.994096 0.0911624 -3.39191e-19)
(0.99408 0.0908783 -3.25541e-19)
(0.99405 0.0905687 6.5141e-19)
(0.99401 0.0902318 -6.09988e-19)
(0.993959 0.0898588 9.55726e-19)
(0.993895 0.0894487 -4.99057e-19)
(0.993816 0.0889945 3.81641e-19)
(0.993719 0.0884968 -6.34787e-19)
(0.993597 0.0879649 6.87769e-19)
(0.993448 0.087399 -5.19244e-20)
(0.99327 0.0867832 -3.24192e-20)
(0.993062 0.086101 -1.3134e-20)
(0.992819 0.0853462 -3.66966e-19)
(0.992536 0.0845198 1.10781e-18)
(0.992208 0.0836222 -8.71779e-19)
(0.99183 0.0826527 -5.01838e-18)
(0.991397 0.0816119 -2.14129e-18)
(0.990909 0.0805029 1.5642e-18)
(0.990363 0.0793317 -1.69949e-18)
(0.989763 0.0781072 -1.95294e-18)
(0.989112 0.0768403 -1.56438e-19)
(0.988423 0.075544 4.9093e-18)
(0.98771 0.0742288 -7.11199e-18)
(0.986997 0.0729016 -7.0983e-18)
(0.986308 0.0715624 -4.60174e-18)
(0.98568 0.0701953 -7.47922e-18)
(0.985139 0.0687752 4.69778e-18)
(0.984734 0.0672479 -1.74856e-18)
(0.98448 0.0655605 -1.38109e-17)
(0.984399 0.0636292 2.65586e-18)
(0.984509 0.0612992 3.59932e-18)
(0.984866 0.0583724 -6.71526e-18)
(0.98553 0.0545278 4.34145e-18)
(0.986577 0.0492794 4.09952e-18)
(0.987927 0.0423041 1.2511e-17)
(0.990511 0.0231554 -1.24026e-21)
(0.994487 0.0935502 1.34651e-20)
(0.994394 0.0936038 -6.06502e-20)
(0.99431 0.0936168 2.94545e-20)
(0.994227 0.0936305 5.51246e-20)
(0.994147 0.0936376 -1.18189e-19)
(0.994069 0.093638 9.88735e-20)
(0.993995 0.093631 -6.58865e-20)
(0.993925 0.093616 5.57667e-20)
(0.99386 0.0935929 8.89257e-20)
(0.9938 0.0935601 -2.13308e-19)
(0.993745 0.0935178 3.0729e-19)
(0.993696 0.0934642 1.30376e-19)
(0.993652 0.0933998 -5.16644e-19)
(0.993614 0.0933226 -9.67341e-20)
(0.993581 0.0932325 2.73206e-19)
(0.993554 0.0931282 1.75806e-19)
(0.993531 0.0930081 -2.12399e-19)
(0.993513 0.0928719 1.86586e-19)
(0.993498 0.0927171 2.88229e-19)
(0.993487 0.0925439 -1.39215e-19)
(0.993477 0.092349 -7.97795e-20)
(0.993469 0.0921332 2.86013e-19)
(0.99346 0.0918913 5.89796e-19)
(0.993451 0.0916363 -4.24921e-19)
(0.993441 0.091357 -4.69186e-19)
(0.993423 0.0910549 5.08252e-19)
(0.993393 0.0907258 -3.80609e-19)
(0.993352 0.0903682 -1.54644e-19)
(0.993299 0.0899739 1.23563e-18)
(0.993234 0.089541 -5.31326e-19)
(0.993154 0.0890634 -4.10091e-19)
(0.993056 0.0885415 5.32107e-19)
(0.992936 0.0879842 3.68836e-19)
(0.992789 0.0873926 -3.22415e-19)
(0.992615 0.0867508 -2.23157e-19)
(0.992412 0.0860424 7.30999e-19)
(0.992177 0.0852618 1.79384e-19)
(0.991905 0.0844103 2.44535e-19)
(0.991591 0.0834888 -1.36786e-18)
(0.99123 0.082497 -1.33696e-18)
(0.990819 0.0814357 2.68459e-18)
(0.990355 0.0803083 2.18415e-18)
(0.989838 0.0791203 3.7461e-18)
(0.989268 0.0778804 -3.44349e-18)
(0.988651 0.0765985 -3.84862e-18)
(0.987995 0.0752865 -2.60798e-18)
(0.987316 0.0739533 6.29187e-18)
(0.986633 0.0726043 6.05256e-18)
(0.98597 0.071238 -6.59732e-18)
(0.985363 0.0698375 -9.414e-18)
(0.984837 0.0683767 -1.65262e-18)
(0.984441 0.0668008 1.79404e-18)
(0.984191 0.065056 1.62432e-19)
(0.984112 0.063063 -4.72912e-18)
(0.984221 0.0606652 4.03622e-18)
(0.984579 0.0576675 2.22846e-18)
(0.985242 0.0537453 3.14366e-18)
(0.986291 0.0484236 -1.26264e-17)
(0.987607 0.0414138 -7.27768e-19)
(0.991033 0.0223302 3.42736e-19)
(0.994268 0.093582 -2.24059e-20)
(0.994159 0.0936341 -1.79584e-20)
(0.994058 0.0936495 2.41872e-20)
(0.993958 0.093667 8.59103e-20)
(0.993859 0.0936791 -1.84849e-19)
(0.993762 0.0936859 2.11212e-19)
(0.993668 0.0936864 -9.2831e-21)
(0.993577 0.0936795 -1.29429e-20)
(0.993491 0.0936649 -7.49695e-20)
(0.993408 0.093641 1.81743e-19)
(0.993331 0.0936076 -2.79277e-19)
(0.993259 0.0935629 1.05006e-19)
(0.993193 0.0935074 -3.46455e-21)
(0.993133 0.093439 1.63814e-19)
(0.993078 0.0933573 7.78788e-20)
(0.99303 0.0932609 -4.11985e-19)
(0.992986 0.0931478 3.56571e-19)
(0.992948 0.0930179 1.40167e-19)
(0.992914 0.0928678 -4.02208e-19)
(0.992884 0.0926979 1.96606e-19)
(0.992857 0.0925044 9.16324e-20)
(0.992832 0.092288 -6.0199e-20)
(0.992809 0.0920431 7.66511e-20)
(0.992785 0.0917837 -4.36488e-20)
(0.992767 0.0914966 -5.03475e-19)
(0.992746 0.0911841 3.2418e-19)
(0.992714 0.0908438 -4.81577e-19)
(0.992672 0.0904748 8.62561e-19)
(0.992618 0.0900687 -1.60643e-19)
(0.992552 0.0896236 -9.22467e-20)
(0.992471 0.0891337 -2.4329e-20)
(0.992373 0.0885985 8.62604e-19)
(0.992253 0.0880285 -3.41189e-19)
(0.992108 0.0874236 -1.99484e-19)
(0.991936 0.0867682 5.47029e-19)
(0.991738 0.086047 4.73866e-19)
(0.991511 0.0852539 -7.98362e-19)
(0.991249 0.0843905 1.43266e-19)
(0.990948 0.0834582 1.62015e-18)
(0.990603 0.0824566 -1.01245e-19)
(0.990212 0.0813863 1.04704e-18)
(0.989773 0.0802507 -1.58351e-18)
(0.989283 0.0790548 2.37415e-18)
(0.988744 0.0778064 5.3828e-18)
(0.988161 0.0765143 1.66739e-18)
(0.98754 0.075189 -2.16747e-18)
(0.986896 0.0738381 -6.66602e-18)
(0.986247 0.0724657 1.1697e-18)
(0.985615 0.0710689 2.02313e-18)
(0.985035 0.0696305 4.23772e-18)
(0.98453 0.0681238 -4.51148e-19)
(0.98415 0.0664941 -7.32595e-18)
(0.983912 0.0646872 6.13864e-18)
(0.983841 0.0626283 -4.03271e-18)
(0.983955 0.0601601 7.83349e-18)
(0.984318 0.0570892 1.85284e-18)
(0.984985 0.0530882 8.03904e-18)
(0.986038 0.047688 1.03476e-17)
(0.987332 0.0406236 1.65598e-18)
(0.991369 0.021515 2.56159e-18)
(0.994056 0.0936006 -1.06924e-20)
(0.993932 0.0936624 9.14984e-21)
(0.993815 0.0936819 4.60809e-20)
(0.993698 0.093703 7.2962e-20)
(0.993581 0.093718 -2.14838e-19)
(0.993466 0.0937274 1.23297e-19)
(0.993352 0.0937302 -2.20514e-19)
(0.993241 0.0937261 3.43861e-19)
(0.993133 0.0937148 -1.60594e-19)
(0.993029 0.0936949 2.82809e-20)
(0.99293 0.0936662 3.08452e-19)
(0.992835 0.0936268 -6.98746e-19)
(0.992746 0.0935769 4.74315e-19)
(0.992663 0.0935143 6.69207e-20)
(0.992585 0.0934386 1.07262e-19)
(0.992514 0.0933479 -4.4663e-19)
(0.992448 0.0932403 2.18728e-19)
(0.992388 0.0931151 -2.70142e-19)
(0.992333 0.0929693 5.31001e-19)
(0.992283 0.0928026 -6.91167e-20)
(0.992237 0.0926115 -6.68418e-19)
(0.992193 0.0923962 2.6569e-19)
(0.992152 0.092151 -1.48531e-20)
(0.992112 0.0918905 -9.73201e-19)
(0.992083 0.0916001 7.15295e-19)
(0.99206 0.0912827 5.24581e-19)
(0.992027 0.0909373 3.45897e-19)
(0.991983 0.090563 -4.3674e-19)
(0.991928 0.0901521 -4.73291e-19)
(0.99186 0.0897018 2.16558e-19)
(0.991778 0.0892071 3.09135e-19)
(0.991679 0.0886675 -3.81563e-19)
(0.991559 0.0880923 -5.64418e-19)
(0.991415 0.0874825 1.15488e-18)
(0.991246 0.0868225 1.33321e-19)
(0.991052 0.086097 -1.77338e-18)
(0.99083 0.0853003 1.61496e-19)
(0.990576 0.0844339 1.20648e-18)
(0.990286 0.0834994 9.47065e-20)
(0.989957 0.0824958 1.66558e-18)
(0.989584 0.0814238 -2.38099e-18)
(0.989166 0.0802862 -1.40262e-19)
(0.988702 0.0790873 -1.62809e-18)
(0.988192 0.0778339 5.21475e-19)
(0.98764 0.0765337 2.72602e-18)
(0.987054 0.0751957 8.2229e-18)
(0.986445 0.0738261 1.33537e-18)
(0.985831 0.0724279 -5.44163e-18)
(0.985234 0.0709973 4.00884e-18)
(0.984684 0.069517 1.41884e-17)
(0.984204 0.0679601 -1.11819e-17)
(0.983846 0.0662724 1.30141e-17)
(0.983625 0.0643997 -7.7834e-18)
(0.983568 0.0622707 -3.98538e-18)
(0.983693 0.0597291 -1.59835e-17)
(0.984066 0.0565814 -8.23486e-19)
(0.98474 0.0524989 -4.83179e-18)
(0.985803 0.0470149 -5.1357e-18)
(0.987087 0.0398816 3.5578e-18)
(0.991578 0.0206896 5.1783e-19)
(0.993843 0.0936124 1.45968e-20)
(0.993703 0.0936707 5.13316e-21)
(0.993571 0.09369 -5.27207e-20)
(0.993439 0.0937118 5.01472e-20)
(0.993306 0.0937285 -2.21653e-20)
(0.993173 0.0937403 3.96471e-20)
(0.993041 0.0937464 1.36403e-20)
(0.992911 0.0937457 -1.96911e-19)
(0.992783 0.0937381 8.50214e-20)
(0.992659 0.0937219 -5.78354e-20)
(0.992538 0.093697 3.48258e-20)
(0.992421 0.0936615 1.35042e-19)
(0.99231 0.0936159 -2.50351e-20)
(0.992204 0.0935579 8.18488e-20)
(0.992103 0.0934869 -3.44228e-19)
(0.992009 0.0934013 1.32047e-19)
(0.99192 0.0932989 5.81688e-20)
(0.991837 0.093179 -1.56505e-19)
(0.99176 0.0930379 3.09279e-19)
(0.991688 0.0928755 1.01307e-19)
(0.991621 0.092688 -1.09647e-20)
(0.991557 0.0924754 -1.07726e-19)
(0.991496 0.0922317 4.36377e-19)
(0.991439 0.0919723 -1.19784e-18)
(0.991399 0.0916817 6.12446e-19)
(0.991373 0.091363 2.5225e-19)
(0.991338 0.0910165 -4.14776e-19)
(0.991293 0.0906413 7.12781e-19)
(0.991236 0.0902301 -3.36248e-19)
(0.991167 0.0897797 -1.73405e-19)
(0.991083 0.0892854 -3.38317e-19)
(0.990983 0.0887459 -1.30979e-19)
(0.990863 0.0881718 3.65865e-19)
(0.990719 0.0875628 -1.10832e-18)
(0.990551 0.0869033 2.08381e-18)
(0.99036 0.0861795 -1.33107e-19)
(0.990142 0.0853847 1.10516e-18)
(0.989895 0.0845207 -2.81106e-18)
(0.989615 0.0835889 -9.13654e-19)
(0.989297 0.0825881 -2.61155e-20)
(0.988939 0.0815184 -6.62604e-19)
(0.98854 0.0803822 -8.54053e-20)
(0.988099 0.0791829 -2.5558e-18)
(0.987616 0.0779262 7.41926e-19)
(0.987094 0.0766184 1.25503e-18)
(0.98654 0.0752674 -7.51755e-18)
(0.985965 0.0738779 9.50784e-18)
(0.985386 0.0724518 1.4269e-18)
(0.984822 0.0709845 2.35475e-19)
(0.984304 0.0694592 -9.39626e-18)
(0.983853 0.0678487 3.41827e-18)
(0.98352 0.0660994 -6.8305e-18)
(0.983321 0.0641576 1.24532e-17)
(0.983282 0.061955 2.831e-18)
(0.983424 0.0593369 -9.63789e-18)
(0.983812 0.0561092 3.65671e-18)
(0.984499 0.0519424 -1.0015e-17)
(0.985577 0.0463698 -2.09572e-18)
(0.986862 0.0391579 -1.35297e-17)
(0.991704 0.0198415 -3.48343e-18)
(0.993638 0.0936291 -3.15532e-21)
(0.993483 0.0936904 -1.23894e-20)
(0.993336 0.0937099 -1.0799e-20)
(0.993188 0.0937315 1.03574e-19)
(0.993039 0.0937479 -5.71885e-20)
(0.992889 0.0937594 -6.86708e-20)
(0.99274 0.093765 -2.58737e-20)
(0.992591 0.0937645 -1.05589e-19)
(0.992444 0.0937578 6.52951e-20)
(0.992299 0.0937434 9.24955e-21)
(0.992157 0.0937209 3.12629e-21)
(0.992019 0.0936887 2.76712e-19)
(0.991885 0.0936465 -1.95239e-19)
(0.991756 0.0935924 -2.41368e-20)
(0.991632 0.0935255 2.21909e-19)
(0.991514 0.093444 -1.21486e-19)
(0.991402 0.0933456 -4.62524e-20)
(0.991296 0.0932294 7.51365e-20)
(0.991196 0.0930921 2.39845e-19)
(0.991101 0.0929331 1.31546e-19)
(0.991012 0.0927489 4.84073e-20)
(0.990927 0.0925391 -3.27753e-19)
(0.990846 0.0922975 1.64554e-19)
(0.99077 0.0920403 3.18915e-19)
(0.990718 0.0917512 -6.52531e-19)
(0.990689 0.0914338 2.04384e-19)
(0.990653 0.0910889 -7.84664e-19)
(0.990607 0.0907155 6.19258e-19)
(0.990549 0.0903072 5.30877e-19)
(0.990478 0.0898595 -8.04049e-19)
(0.990392 0.0893689 -3.70988e-19)
(0.990291 0.0888337 4.90707e-19)
(0.990169 0.0882633 1.62403e-19)
(0.990024 0.0876584 -4.5708e-19)
(0.989857 0.0870033 -5.67139e-19)
(0.989667 0.0862843 -6.84641e-19)
(0.989453 0.0854949 4.21837e-19)
(0.989211 0.0846365 1.0367e-18)
(0.988937 0.0837105 3.66876e-19)
(0.988629 0.0827151 -3.67211e-19)
(0.988285 0.0816498 3.84612e-18)
(0.987902 0.0805166 -3.55112e-19)
(0.98748 0.079318 4.20866e-18)
(0.98702 0.0780583 -7.67333e-18)
(0.986525 0.0767427 1.11106e-18)
(0.986001 0.0753778 2.63197e-19)
(0.985458 0.0739669 -6.88549e-19)
(0.984913 0.0725111 -6.16702e-18)
(0.984383 0.0710051 -1.01324e-17)
(0.983897 0.0694323 8.97202e-18)
(0.983476 0.067766 1.16346e-17)
(0.983172 0.065953 5.92679e-18)
(0.982999 0.0639402 -1.18325e-17)
(0.982982 0.0616615 6.11671e-18)
(0.983144 0.0589647 1.48703e-17)
(0.983551 0.0556545 5.54373e-18)
(0.984257 0.0514011 9.76537e-18)
(0.985355 0.0457371 4.60077e-18)
(0.986651 0.0384395 1.24377e-17)
(0.99177 0.0189699 -9.4407e-18)
(0.99345 0.0936464 3.96189e-21)
(0.99328 0.0937005 -1.1868e-20)
(0.993118 0.0937179 4.22754e-20)
(0.992955 0.0937386 1.11172e-20)
(0.992789 0.0937551 -5.78099e-20)
(0.992621 0.0937677 -6.65714e-20)
(0.992453 0.0937754 1.56774e-19)
(0.992285 0.0937773 -1.70604e-19)
(0.992118 0.0937731 -4.20387e-20)
(0.991952 0.0937611 1.04186e-19)
(0.991788 0.093741 9.61674e-20)
(0.991628 0.0937109 2.91033e-19)
(0.991471 0.0936715 -1.62655e-19)
(0.991319 0.0936202 -2.77838e-19)
(0.991171 0.0935563 6.06133e-20)
(0.991029 0.0934783 -2.24265e-19)
(0.990893 0.0933834 1.66943e-19)
(0.990764 0.0932714 -2.79265e-19)
(0.99064 0.0931378 4.49894e-20)
(0.990523 0.0929827 -8.96157e-20)
(0.990411 0.092802 -5.61634e-20)
(0.990305 0.0925955 -2.46555e-19)
(0.990203 0.0923565 2.22482e-20)
(0.990108 0.0921023 5.27948e-19)
(0.990045 0.0918158 -1.76015e-19)
(0.990012 0.0915012 5.42657e-20)
(0.989976 0.0911596 1.51466e-19)
(0.989929 0.0907899 -1.98685e-19)
(0.989869 0.090386 -3.89772e-20)
(0.989796 0.0899432 2.66879e-19)
(0.989709 0.0894583 2.92497e-19)
(0.989605 0.0889285 -2.18315e-19)
(0.989482 0.0883646 -6.74268e-19)
(0.989336 0.0877659 -9.43706e-19)
(0.989168 0.0871167 1.47011e-18)
(0.988979 0.0864046 3.92279e-19)
(0.988766 0.0856222 2.42245e-19)
(0.988527 0.0847709 1.27429e-18)
(0.988259 0.0838519 -1.21153e-18)
(0.987958 0.0828629 7.54496e-19)
(0.987624 0.0818028 -2.21289e-20)
(0.987255 0.0806731 1.01831e-19)
(0.98685 0.0794751 -1.52606e-18)
(0.98641 0.0782122 3.47418e-18)
(0.985939 0.0768882 -4.59675e-18)
(0.985442 0.0755083 2.77511e-18)
(0.984929 0.0740748 -8.05801e-18)
(0.984415 0.0725879 2.42299e-18)
(0.983918 0.0710418 5.28098e-18)
(0.983465 0.0694201 -8.87324e-18)
(0.983076 0.0676963 -2.43936e-18)
(0.982801 0.0658181 -7.39208e-19)
(0.982657 0.0637328 -1.91866e-18)
(0.982666 0.0613765 -6.14599e-18)
(0.982853 0.0585994 4.52805e-19)
(0.983283 0.0552049 5.02537e-18)
(0.984011 0.0508633 -5.3691e-18)
(0.985136 0.0451054 -1.44512e-18)
(0.98645 0.0377173 -1.7605e-18)
(0.991798 0.0180728 7.00207e-18)
(0.993257 0.093676 7.12478e-21)
(0.993073 0.0937408 -5.98538e-21)
(0.992896 0.0937611 5.49662e-21)
(0.992717 0.0937836 3.52018e-20)
(0.992536 0.0938006 5.11971e-20)
(0.992352 0.0938127 -1.98468e-19)
(0.992166 0.0938189 1.43043e-19)
(0.99198 0.0938194 2.98549e-20)
(0.991793 0.0938138 -8.75327e-21)
(0.991607 0.093801 -6.37022e-20)
(0.991423 0.0937804 1.94999e-19)
(0.991241 0.0937505 -6.29978e-20)
(0.991062 0.0937113 -8.69485e-20)
(0.990887 0.0936606 -2.57844e-19)
(0.990717 0.0935978 5.13765e-19)
(0.990552 0.0935209 -1.05968e-19)
(0.990393 0.0934277 -8.87126e-20)
(0.99024 0.0933172 -2.59551e-19)
(0.990093 0.0931857 2.85023e-19)
(0.989953 0.0930327 1.57128e-19)
(0.989819 0.0928547 -6.96741e-20)
(0.989692 0.0926508 1.23744e-19)
(0.989569 0.0924143 -5.19915e-19)
(0.989455 0.0921632 3.49142e-20)
(0.98938 0.0918801 2.84531e-19)
(0.989345 0.0915693 -5.3287e-20)
(0.989308 0.091232 -8.18872e-19)
(0.98926 0.0908668 7.14212e-20)
(0.989199 0.0904687 6.90579e-19)
(0.989124 0.0900314 -1.75621e-19)
(0.989034 0.0895532 -3.43896e-19)
(0.988928 0.0890307 1.87315e-19)
(0.988803 0.0884735 5.74788e-19)
(0.988655 0.0878817 1.35632e-18)
(0.988486 0.0872396 -2.13732e-19)
(0.988296 0.086535 2.73591e-19)
(0.988084 0.0857603 -2.13909e-18)
(0.987846 0.0849168 -6.51548e-19)
(0.987582 0.0840053 4.10781e-19)
(0.987287 0.0830229 -1.69948e-18)
(0.986961 0.0819679 -4.02583e-19)
(0.986602 0.0808413 8.36275e-19)
(0.986212 0.0796434 6.31898e-19)
(0.985789 0.0783764 1.89837e-18)
(0.985339 0.0770429 6.50857e-18)
(0.984866 0.0756471 -5.245e-18)
(0.984381 0.0741898 8.42488e-18)
(0.983897 0.0726707 6.48721e-18)
(0.983432 0.0710833 1.38262e-20)
(0.983011 0.0694116 8.26019e-18)
(0.982654 0.0676298 -1.11882e-17)
(0.98241 0.0656857 -1.30547e-17)
(0.982297 0.0635276 9.87897e-18)
(0.982335 0.0610929 8.23331e-18)
(0.982549 0.0582345 -3.29227e-18)
(0.983007 0.0547547 -1.83569e-17)
(0.983761 0.0503242 4.20122e-18)
(0.984917 0.044471 -4.0618e-18)
(0.986257 0.0369886 -5.87659e-18)
(0.991797 0.0171528 5.51956e-18)
(0.993054 0.0937115 -7.39421e-21)
(0.992855 0.0937711 8.06572e-21)
(0.992665 0.0937902 5.50152e-20)
(0.992471 0.0938124 -7.15662e-20)
(0.992274 0.0938299 1.30061e-19)
(0.992075 0.0938432 -1.90386e-19)
(0.991873 0.0938512 5.35379e-20)
(0.99167 0.0938533 -2.70202e-21)
(0.991466 0.0938492 1.18409e-19)
(0.991262 0.0938374 -6.18716e-20)
(0.991058 0.0938175 1.81024e-20)
(0.990856 0.093788 1.88283e-20)
(0.990657 0.0937495 -2.90015e-19)
(0.990461 0.0936997 8.62616e-20)
(0.990269 0.093638 1.98566e-19)
(0.990082 0.0935627 5.89997e-21)
(0.9899 0.0934714 -3.27169e-19)
(0.989725 0.0933636 1.31096e-19)
(0.989555 0.0932346 6.13387e-19)
(0.989393 0.0930845 -3.96991e-19)
(0.989237 0.0929094 -2.98095e-19)
(0.989088 0.0927085 2.52879e-19)
(0.988945 0.0924746 1.58052e-19)
(0.988812 0.0922269 1.77252e-19)
(0.988724 0.0919475 -3.37918e-19)
(0.988687 0.0916409 -7.10309e-19)
(0.98865 0.0913085 5.20251e-19)
(0.988601 0.0909483 7.23326e-19)
(0.988539 0.0905562 1.8703e-19)
(0.988462 0.0901252 -3.59191e-19)
(0.98837 0.0896541 1.66815e-19)
(0.988261 0.0891383 2.63713e-19)
(0.988133 0.0885888 -4.65028e-19)
(0.987983 0.0880043 -8.27375e-20)
(0.987812 0.087369 -8.32947e-19)
(0.98762 0.0866721 -2.43822e-19)
(0.987408 0.085905 -2.0521e-19)
(0.987171 0.0850689 6.00404e-19)
(0.986908 0.0841645 -8.1817e-19)
(0.986617 0.0831881 2.57947e-19)
(0.986297 0.0821375 3.9651e-19)
(0.985947 0.0810132 1.00561e-19)
(0.985568 0.0798144 -2.74792e-18)
(0.985161 0.0785422 -3.87569e-18)
(0.984729 0.0771983 -3.55314e-18)
(0.984278 0.0757854 6.98672e-18)
(0.983818 0.0743034 -4.80605e-20)
(0.983362 0.0727512 -2.94677e-18)
(0.982928 0.0711219 1.52178e-18)
(0.982537 0.0694 -9.50292e-18)
(0.982212 0.0675596 4.59182e-18)
(0.982001 0.0655495 1.23721e-17)
(0.98192 0.0633183 -9.14991e-19)
(0.981989 0.060805 -1.0289e-17)
(0.982234 0.057865 4.80629e-18)
(0.982722 0.0542994 4.40169e-18)
(0.983508 0.0497794 5.12793e-18)
(0.9847 0.0438297 1.11984e-17)
(0.98607 0.0362501 1.01794e-17)
(0.991778 0.0162103 -1.26394e-17)
(0.992856 0.0937597 -6.00082e-21)
(0.992643 0.0938226 8.64536e-21)
(0.992439 0.0938417 1.80633e-21)
(0.992231 0.0938631 3.28183e-20)
(0.992019 0.0938795 -4.95257e-20)
(0.991803 0.0938914 -1.01586e-19)
(0.991585 0.0938977 3.58009e-20)
(0.991366 0.0938985 -4.81676e-20)
(0.991144 0.0938937 1.03505e-19)
(0.990921 0.093882 -2.09219e-20)
(0.990699 0.0938627 -6.80716e-20)
(0.990477 0.0938344 5.6055e-20)
(0.990258 0.0937971 9.03454e-20)
(0.990041 0.0937487 2.46986e-19)
(0.989828 0.0936885 -4.44834e-19)
(0.989619 0.0936147 2.25601e-19)
(0.989415 0.093525 3.45962e-20)
(0.989217 0.0934185 -2.18919e-19)
(0.989026 0.0932914 -1.35175e-19)
(0.988841 0.0931429 4.40374e-19)
(0.988663 0.0929702 -4.57193e-19)
(0.988493 0.0927716 1.36368e-19)
(0.98833 0.09254 -3.64376e-19)
(0.988178 0.0922956 5.99361e-19)
(0.988079 0.0920199 -1.19315e-19)
(0.988039 0.0917179 -3.25117e-19)
(0.988002 0.0913905 2.5254e-19)
(0.987953 0.0910353 4.59855e-19)
(0.987889 0.0906495 -4.2629e-19)
(0.98781 0.0902243 2.57385e-19)
(0.987716 0.0897603 -8.3661e-19)
(0.987604 0.0892519 -9.28873e-20)
(0.987473 0.0887091 3.54658e-19)
(0.98732 0.0881315 -2.03958e-19)
(0.987146 0.0875031 -4.11521e-19)
(0.986953 0.0868133 -1.00048e-18)
(0.986738 0.0860533 1.28552e-18)
(0.986501 0.0852239 -4.92043e-19)
(0.986238 0.084326 4.03472e-19)
(0.98595 0.0833548 8.07867e-19)
(0.985634 0.0823076 6.25716e-19)
(0.985291 0.0811844 -4.16629e-19)
(0.984921 0.0799836 1.5247e-18)
(0.984527 0.078705 2.92225e-18)