/*--------------------------------*- C++ -*----------------------------------*\
  =========                 |
  \\      /  F ield         | OpenFOAM: The Open Source CFD Toolbox
   \\    /   O peration     | Website:  https://openfoam.org
    \\  /    A nd           | Version:  6.0
     \\/     M anipulation  |
\*---------------------------------------------------------------------------*/
FoamFile
{
    version     2.0;
    format      ascii;
    class       surfaceScalarField;
    location    "2.64";
    object      phi;
}
// * * * * * * * * * * * * * * * * * * * * * * * * * * * * * * * * * * * * * //

dimensions      [0 3 -1 0 0 0 0];

internalField   nonuniform List<scalar> 
26699
(
2.0051e-05
0.005201
4.9425e-10
4.0126e-05
0.0051116
5.9639e-05
0.0049351
7.8186e-05
0.0046741
9.5416e-05
0.0043332
0.00011102
0.0039182
0.00012472
0.0034362
0.00013626
0.0028953
0.00014546
0.002305
0.00015181
0.0016755
0.00015717
0.0010154
0.00046498
3.4399e-05
2.0051e-05
0.0051809
1.5428e-09
4.0127e-05
0.0050916
5.9641e-05
0.0049155
7.8189e-05
0.0046556
9.5419e-05
0.004316
0.00011102
0.0039026
0.00012471
0.0034225
0.00013624
0.0028838
0.00014545
0.0022958
0.00015106
0.0016699
0.0001589
0.0010076
0.00055887
6.5004e-05
2.0051e-05
0.0051609
2.6638e-09
4.0128e-05
0.0050715
5.9643e-05
0.004896
7.8192e-05
0.004637
9.5422e-05
0.0042988
0.00011102
0.003887
0.00012471
0.0034088
0.00013622
0.0028723
0.00014546
0.0022865
0.0001503
0.001665
0.00016016
0.00099771
0.00062886
9.0172e-05
2.0051e-05
0.0051408
3.7951e-09
4.013e-05
0.0050514
5.9646e-05
0.0048765
7.8195e-05
0.0046185
9.5425e-05
0.0042815
0.00011103
0.0038714
0.0001247
0.0033951
0.0001362
0.0028608
0.0001455
0.0022772
0.00014956
0.001661
0.00016088
0.00098638
0.00067935
0.00011039
2.0052e-05
0.0051208
4.9283e-09
4.0131e-05
0.0050313
5.9648e-05
0.004857
7.8198e-05
0.0045999
9.5428e-05
0.0042643
0.00011103
0.0038558
0.0001247
0.0033814
0.00013617
0.0028493
0.00014557
0.0022678
0.00014886
0.0016577
0.00016109
0.00097416
0.00071398
0.00012645
2.0052e-05
0.0051007
6.0632e-09
4.0132e-05
0.0050112
5.9651e-05
0.0048375
7.8202e-05
0.0045814
9.5431e-05
0.0042471
0.00011103
0.0038402
0.0001247
0.0033678
0.00013614
0.0028379
0.00014566
0.0022583
0.00014824
0.0016551
0.00016084
0.00096156
0.0007358
0.00013902
2.0052e-05
0.0050807
7.1997e-09
4.0134e-05
0.0049912
5.9653e-05
0.004818
7.8205e-05
0.0045628
9.5435e-05
0.0042299
0.00011103
0.0038246
0.0001247
0.0033541
0.00013611
0.0028265
0.00014577
0.0022486
0.0001477
0.0016532
0.00016022
0.00094904
0.00074737
0.00014866
2.0052e-05
0.0050606
8.3378e-09
4.0135e-05
0.0049711
5.9655e-05
0.0047984
7.8208e-05
0.0045443
9.5438e-05
0.0042126
0.00011103
0.003809
0.0001247
0.0033404
0.00013607
0.0028151
0.0001459
0.0022388
0.00014726
0.0016518
0.00015934
0.00093697
0.00075085
0.00015586
2.0052e-05
0.0050405
9.4777e-09
4.0136e-05
0.004951
5.9658e-05
0.0047789
7.8211e-05
0.0045257
9.5441e-05
0.0041954
0.00011103
0.0037934
0.0001247
0.0033268
0.00013603
0.0028038
0.00014603
0.0022288
0.00014693
0.0016509
0.00015828
0.00092562
0.00074807
0.00016106
2.0052e-05
0.0050205
1.0619e-08
4.0137e-05
0.0049309
5.966e-05
0.0047594
7.8214e-05
0.0045072
9.5445e-05
0.0041782
0.00011104
0.0037778
0.0001247
0.0033131
0.00013598
0.0027925
0.00014616
0.0022186
0.00014671
0.0016504
0.00015711
0.00091522
0.00074053
0.00016464
2.0052e-05
0.0050004
1.1763e-08
4.0139e-05
0.0049108
5.9663e-05
0.0047399
7.8217e-05
0.0044886
9.5448e-05
0.0041609
0.00011104
0.0037622
0.00012471
0.0032994
0.00013593
0.0027813
0.0001463
0.0022082
0.00014659
0.0016501
0.0001559
0.00090591
0.0007295
0.00016693
2.0052e-05
0.0049803
1.2908e-08
4.014e-05
0.0048907
5.9665e-05
0.0047203
7.822e-05
0.00447
9.5452e-05
0.0041437
0.00011104
0.0037467
0.00012471
0.0032858
0.00013588
0.0027701
0.00014644
0.0021977
0.00014658
0.0016499
0.0001547
0.00089779
0.00071599
0.00016821
2.0052e-05
0.0049603
1.4055e-08
4.0141e-05
0.0048707
5.9667e-05
0.0047008
7.8223e-05
0.0044515
9.5455e-05
0.0041265
0.00011104
0.0037311
0.00012472
0.0032721
0.00013582
0.002759
0.00014656
0.0021869
0.00014666
0.0016498
0.00015356
0.00089089
0.00070085
0.00016871
2.0053e-05
0.0049402
1.5204e-08
4.0143e-05
0.0048506
5.967e-05
0.0046813
7.8226e-05
0.0044329
9.5459e-05
0.0041092
0.00011104
0.0037155
0.00012473
0.0032584
0.00013576
0.002748
0.00014668
0.002176
0.00014683
0.0016497
0.00015251
0.0008852
0.00068474
0.00016862
2.0053e-05
0.0049201
1.6355e-08
4.0144e-05
0.0048305
5.9672e-05
0.0046618
7.8229e-05
0.0044144
9.5462e-05
0.004092
0.00011104
0.0036999
0.00012474
0.0032447
0.00013569
0.002737
0.00014679
0.0021649
0.00014707
0.0016494
0.00015157
0.0008807
0.00066819
0.00016812
2.0053e-05
0.0049001
1.7508e-08
4.0145e-05
0.0048104
5.9675e-05
0.0046422
7.8233e-05
0.0043958
9.5466e-05
0.0040748
0.00011105
0.0036843
0.00012475
0.003231
0.00013563
0.0027262
0.00014688
0.0021537
0.00014738
0.0016489
0.00015076
0.00087731
0.00065164
0.00016732
2.0053e-05
0.00488
1.8663e-08
4.0147e-05
0.0047903
5.9677e-05
0.0046227
7.8236e-05
0.0043773
9.547e-05
0.0040575
0.00011105
0.0036687
0.00012477
0.0032173
0.00013556
0.0027154
0.00014695
0.0021423
0.00014774
0.0016481
0.00015009
0.00087496
0.00063538
0.00016635
2.0053e-05
0.0048599
1.9821e-08
4.0148e-05
0.0047702
5.9679e-05
0.0046032
7.8239e-05
0.0043587
9.5474e-05
0.0040403
0.00011105
0.0036532
0.00012478
0.0032035
0.0001355
0.0027046
0.00014701
0.0021308
0.00014814
0.001647
0.00014955
0.00087355
0.00061966
0.00016527
2.0053e-05
0.0048399
2.098e-08
4.0149e-05
0.0047501
5.9682e-05
0.0045836
7.8242e-05
0.0043401
9.5478e-05
0.0040231
0.00011105
0.0036376
0.0001248
0.0031898
0.00013543
0.002694
0.00014705
0.0021192
0.00014857
0.0016455
0.00014915
0.00087297
0.00060464
0.00016417
2.0053e-05
0.0048198
2.2142e-08
4.015e-05
0.00473
5.9684e-05
0.0045641
7.8245e-05
0.0043216
9.5482e-05
0.0040058
0.00011105
0.003622
0.00012482
0.003176
0.00013536
0.0026835
0.00014707
0.0021075
0.00014903
0.0016435
0.00014889
0.00087311
0.00059044
0.00016309
2.0053e-05
0.0047997
2.3306e-08
4.0152e-05
0.0047099
5.9687e-05
0.0045446
7.8249e-05
0.004303
9.5486e-05
0.0039886
0.00011105
0.0036065
0.00012484
0.0031622
0.0001353
0.002673
0.00014706
0.0020957
0.00014949
0.0016411
0.00014874
0.00087386
0.00057712
0.00016206
2.0053e-05
0.0047796
2.4472e-08
4.0153e-05
0.0046898
5.9689e-05
0.004525
7.8252e-05
0.0042845
9.549e-05
0.0039714
0.00011105
0.0035909
0.00012486
0.0031484
0.00013524
0.0026626
0.00014704
0.0020839
0.00014996
0.0016382
0.00014871
0.00087511
0.00056472
0.00016111
2.0053e-05
0.0047595
2.5641e-08
4.0154e-05
0.0046697
5.9692e-05
0.0045055
7.8255e-05
0.0042659
9.5494e-05
0.0039541
0.00011105
0.0035753
0.00012488
0.0031346
0.00013518
0.0026523
0.00014701
0.0020721
0.00015042
0.0016348
0.00014878
0.00087675
0.00055323
0.00016027
2.0053e-05
0.0047395
2.6812e-08
4.0156e-05
0.0046496
5.9694e-05
0.004486
7.8259e-05
0.0042473
9.5498e-05
0.0039369
0.00011105
0.0035598
0.00012491
0.0031207
0.00013512
0.0026421
0.00014695
0.0020602
0.00015087
0.0016308
0.00014894
0.00087868
0.00054263
0.00015953
2.0053e-05
0.0047194
2.7986e-08
4.0157e-05
0.0046295
5.9697e-05
0.0044664
7.8262e-05
0.0042288
9.5503e-05
0.0039196
0.00011105
0.0035442
0.00012493
0.0031069
0.00013507
0.002632
0.00014687
0.0020484
0.0001513
0.0016264
0.00014917
0.0008808
0.0005329
0.00015891
2.0054e-05
0.0046993
2.9163e-08
4.0158e-05
0.0046094
5.9699e-05
0.0044469
7.8265e-05
0.0042102
9.5507e-05
0.0039024
0.00011105
0.0035287
0.00012496
0.003093
0.00013503
0.0026219
0.00014679
0.0020367
0.0001517
0.0016215
0.00014947
0.00088303
0.00052398
0.00015839
2.0054e-05
0.0046792
3.0342e-08
4.016e-05
0.0045893
5.9702e-05
0.0044273
7.8269e-05
0.0041916
9.5512e-05
0.0038851
0.00011105
0.0035132
0.00012499
0.003079
0.00013499
0.0026119
0.00014668
0.002025
0.00015208
0.0016161
0.00014982
0.00088529
0.00051581
0.00015799
2.0054e-05
0.0046591
3.1523e-08
4.0161e-05
0.0045692
5.9704e-05
0.0044078
7.8272e-05
0.0041731
9.5517e-05
0.0038679
0.00011105
0.0034976
0.00012502
0.003065
0.00013496
0.002602
0.00014657
0.0020134
0.00015243
0.0016102
0.00015021
0.00088751
0.00050834
0.00015768
2.0054e-05
0.004639
3.2708e-08
4.0162e-05
0.0045491
5.9707e-05
0.0043883
7.8276e-05
0.0041545
9.5522e-05
0.0038507
0.00011105
0.0034821
0.00012505
0.0030511
0.00013493
0.0025921
0.00014644
0.0020019
0.00015274
0.0016039
0.00015063
0.00088963
0.00050149
0.00015747
2.0054e-05
0.004619
3.3895e-08
4.0164e-05
0.004529
5.9709e-05
0.0043687
7.8279e-05
0.0041359
9.5527e-05
0.0038334
0.00011105
0.0034666
0.00012508
0.003037
0.00013491
0.0025823
0.0001463
0.0019905
0.00015302
0.0015972
0.00015106
0.00089159
0.00049522
0.00015734
2.0054e-05
0.0045989
3.5086e-08
4.0165e-05
0.0045088
5.9712e-05
0.0043492
7.8282e-05
0.0041174
9.5532e-05
0.0038162
0.00011105
0.0034511
0.00012511
0.003023
0.0001349
0.0025725
0.00014616
0.0019792
0.00015327
0.0015901
0.00015151
0.00089334
0.00048945
0.00015728
2.0054e-05
0.0045788
3.6279e-08
4.0166e-05
0.0044887
5.9714e-05
0.0043296
7.8286e-05
0.0040988
9.5537e-05
0.0037989
0.00011104
0.0034356
0.00012514
0.0030089
0.00013489
0.0025627
0.00014601
0.0019681
0.00015348
0.0015826
0.00015196
0.00089486
0.00048413
0.00015728
2.0054e-05
0.0045587
3.7476e-08
4.0168e-05
0.0044686
5.9717e-05
0.0043101
7.8289e-05
0.0040802
9.5543e-05
0.0037817
0.00011104
0.0034201
0.00012517
0.0029947
0.0001349
0.002553
0.00014586
0.0019571
0.00015365
0.0015748
0.0001524
0.00089611
0.0004792
0.00015734
2.0054e-05
0.0045386
3.8676e-08
4.0169e-05
0.0044485
5.9719e-05
0.0042905
7.8293e-05
0.0040616
9.5548e-05
0.0037644
0.00011104
0.0034046
0.0001252
0.0029806
0.00013491
0.0025433
0.0001457
0.0019464
0.00015379
0.0015668
0.00015284
0.00089706
0.0004746
0.00015743
2.0054e-05
0.0045185
3.9879e-08
4.017e-05
0.0044284
5.9722e-05
0.004271
7.8296e-05
0.0040431
9.5554e-05
0.0037471
0.00011104
0.0033891
0.00012523
0.0029664
0.00013493
0.0025336
0.00014555
0.0019357
0.0001539
0.0015584
0.00015325
0.00089771
0.00047029
0.00015756
2.0054e-05
0.0044984
4.1085e-08
4.0172e-05
0.0044083
5.9724e-05
0.0042514
7.83e-05
0.0040245
9.556e-05
0.0037299
0.00011103
0.0033736
0.00012525
0.0029522
0.00013496
0.0025238
0.00014539
0.0019253
0.00015398
0.0015498
0.00015365
0.00089803
0.00046622
0.00015772
2.0054e-05
0.0044783
4.2295e-08
4.0173e-05
0.0043881
5.9727e-05
0.0042319
7.8304e-05
0.0040059
9.5566e-05
0.0037126
0.00011103
0.0033581
0.00012528
0.0029379
0.000135
0.0025141
0.00014524
0.0019151
0.00015402
0.001541
0.00015402
0.00089803
0.00046235
0.00015789
2.0055e-05
0.0044582
4.3509e-08
4.0175e-05
0.004368
5.973e-05
0.0042123
7.8307e-05
0.0039873
9.5572e-05
0.0036954
0.00011103
0.0033427
0.0001253
0.0029236
0.00013504
0.0025044
0.0001451
0.001905
0.00015404
0.0015321
0.00015437
0.0008977
0.00045865
0.00015808
2.0055e-05
0.0044381
4.4726e-08
4.0176e-05
0.0043479
5.9732e-05
0.0041927
7.8311e-05
0.0039688
9.5579e-05
0.0036781
0.00011103
0.0033272
0.00012533
0.0029093
0.00013509
0.0024946
0.00014496
0.0018951
0.00015404
0.001523
0.0001547
0.00089705
0.00045508
0.00015827
2.0055e-05
0.004418
4.5947e-08
4.0177e-05
0.0043278
5.9735e-05
0.0041732
7.8314e-05
0.0039502
9.5585e-05
0.0036608
0.00011102
0.0033118
0.00012535
0.002895
0.00013515
0.0024848
0.00014483
0.0018854
0.00015402
0.0015138
0.00015499
0.00089607
0.00045161
0.00015846
2.0055e-05
0.0043979
4.7171e-08
4.0179e-05
0.0043077
5.9738e-05
0.0041536
7.8318e-05
0.0039316
9.5592e-05
0.0036435
0.00011102
0.0032964
0.00012537
0.0028807
0.00013521
0.002475
0.00014471
0.0018759
0.00015397
0.0015046
0.00015526
0.00089478
0.00044822
0.00015865
2.0055e-05
0.0043778
4.84e-08
4.018e-05
0.0042875
5.974e-05
0.0041341
7.8322e-05
0.003913
9.5599e-05
0.0036263
0.00011102
0.003281
0.00012539
0.0028663
0.00013528
0.0024651
0.00014459
0.0018666
0.00015391
0.0014952
0.0001555
0.00089319
0.0004449
0.00015883
2.0055e-05
0.0043577
4.9632e-08
4.0182e-05
0.0042674
5.9743e-05
0.0041145
7.8326e-05
0.0038944
9.5606e-05
0.003609
0.00011101
0.0032656
0.00012541
0.0028519
0.00013535
0.0024552
0.00014449
0.0018575
0.00015384
0.0014859
0.00015572
0.0008913
0.00044161
0.00015901
2.0055e-05
0.0043376
5.0869e-08
4.0183e-05
0.0042473
5.9746e-05
0.0040949
7.8329e-05
0.0038758
9.5613e-05
0.0035917
0.00011101
0.0032502
0.00012542
0.0028375
0.00013543
0.0024452
0.0001444
0.0018485
0.00015376
0.0014765
0.00015591
0.00088915
0.00043834
0.00015918
2.0055e-05
0.0043175
5.211e-08
4.0184e-05
0.0042272
5.9748e-05
0.0040754
7.8333e-05
0.0038573
9.562e-05
0.0035744
0.00011101
0.0032348
0.00012543
0.0028231
0.00013551
0.0024351
0.00014432
0.0018397
0.00015366
0.0014672
0.00015608
0.00088673
0.00043509
0.00015933
2.0055e-05
0.0042974
5.3355e-08
4.0186e-05
0.004207
5.9751e-05
0.0040558
7.8337e-05
0.0038387
9.5628e-05
0.0035571
0.00011101
0.0032194
0.00012544
0.0028086
0.00013559
0.0024249
0.00014425
0.001831
0.00015357
0.0014579
0.00015623
0.00088406
0.00043184
0.00015948
2.0055e-05
0.0042773
5.4604e-08
4.0187e-05
0.0041869
5.9754e-05
0.0040362
7.8341e-05
0.0038201
9.5635e-05
0.0035398
0.00011101
0.003204
0.00012545
0.0027942
0.00013568
0.0024147
0.0001442
0.0018225
0.00015346
0.0014486
0.00015636
0.00088117
0.00042858
0.00015961
2.0055e-05
0.0042572
5.5858e-08
4.0189e-05
0.0041668
5.9757e-05
0.0040167
7.8344e-05
0.0038015
9.5643e-05
0.0035225
0.00011101
0.0031886
0.00012545
0.0027798
0.00013577
0.0024044
0.00014415
0.0018141
0.00015336
0.0014394
0.00015647
0.00087807
0.00042531
0.00015974
2.0055e-05
0.004237
5.7116e-08
4.019e-05
0.0041466
5.9759e-05
0.0039971
7.8348e-05
0.0037829
9.5651e-05
0.0035052
0.00011101
0.0031733
0.00012546
0.0027653
0.00013586
0.002394
0.00014412
0.0018059
0.00015326
0.0014303
0.00015656
0.00087477
0.00042203
0.00015985
2.0056e-05
0.0042169
5.8379e-08
4.0192e-05
0.0041265
5.9762e-05
0.0039775
7.8352e-05
0.0037643
9.5659e-05
0.0034879
0.00011101
0.0031579
0.00012546
0.0027508
0.00013595
0.0023835
0.0001441
0.0017977
0.00015316
0.0014212
0.00015664
0.00087129
0.00041872
0.00015995
2.0056e-05
0.0041968
5.9647e-08
4.0193e-05
0.0041063
5.9765e-05
0.003958
7.8356e-05
0.0037457
9.5667e-05
0.0034706
0.00011101
0.0031426
0.00012546
0.0027364
0.00013604
0.0023729
0.00014409
0.0017897
0.00015306
0.0014122
0.00015671
0.00086764
0.00041539
0.00016004
2.0056e-05
0.0041767
6.0919e-08
4.0195e-05
0.0040862
5.9768e-05
0.0039384
7.836e-05
0.0037271
9.5675e-05
0.0034533
0.00011101
0.0031273
0.00012546
0.002722
0.00013613
0.0023622
0.00014408
0.0017817
0.00015297
0.0014033
0.00015676
0.00086385
0.00041203
0.00016012
2.0056e-05
0.0041566
6.2197e-08
4.0196e-05
0.0040661
5.9771e-05
0.0039188
7.8364e-05
0.0037085
9.5683e-05
0.003436
0.00011101
0.0031119
0.00012545
0.0027075
0.00013622
0.0023515
0.00014409
0.0017739
0.00015288
0.0013946
0.00015681
0.00085992
0.00040865
0.00016019
2.0056e-05
0.0041365
6.3479e-08
4.0198e-05
0.0040459
5.9774e-05
0.0038992
7.8368e-05
0.0036899
9.5692e-05
0.0034186
0.00011102
0.0030966
0.00012545
0.0026931
0.0001363
0.0023406
0.00014411
0.0017661
0.0001528
0.0013859
0.00015685
0.00085587
0.00040525
0.00016026
2.0056e-05
0.0041163
6.4767e-08
4.0199e-05
0.0040258
5.9777e-05
0.0038797
7.8372e-05
0.0036714
9.57e-05
0.0034013
0.00011102
0.0030813
0.00012544
0.0026787
0.00013639
0.0023297
0.00014414
0.0017583
0.00015273
0.0013773
0.00015689
0.00085171
0.00040182
0.00016031
2.0056e-05
0.0040962
6.606e-08
4.0201e-05
0.0040056
5.978e-05
0.0038601
7.8376e-05
0.0036528
9.5708e-05
0.003384
0.00011103
0.003066
0.00012543
0.0026643
0.00013647
0.0023186
0.00014417
0.0017506
0.00015267
0.0013688
0.00015692
0.00084745
0.00039838
0.00016037
2.0056e-05
0.0040761
6.7358e-08
4.0202e-05
0.0039855
5.9783e-05
0.0038405
7.838e-05
0.0036342
9.5717e-05
0.0033667
0.00011103
0.0030507
0.00012542
0.0026499
0.00013655
0.0023075
0.00014422
0.0017429
0.00015261
0.0013604
0.00015695
0.00084311
0.00039491
0.00016042
2.0056e-05
0.004056
6.8661e-08
4.0204e-05
0.0039653
5.9786e-05
0.0038209
7.8384e-05
0.0036156
9.5726e-05
0.0033493
0.00011104
0.0030353
0.00012541
0.0026355
0.00013662
0.0022963
0.00014426
0.0017353
0.00015256
0.0013521
0.00015698
0.00083869
0.00039143
0.00016046
2.0056e-05
0.0040358
6.9971e-08
4.0205e-05
0.0039452
5.9789e-05
0.0038013
7.8388e-05
0.003597
9.5734e-05
0.003332
0.00011104
0.00302
0.0001254
0.0026211
0.00013669
0.002285
0.00014432
0.0017277
0.00015252
0.0013439
0.000157
0.00083421
0.00038794
0.0001605
2.0057e-05
0.0040157
7.1286e-08
4.0207e-05
0.003925
5.9792e-05
0.0037818
7.8393e-05
0.0035784
9.5743e-05
0.0033146
0.00011105
0.0030047
0.00012539
0.0026068
0.00013676
0.0022736
0.00014437
0.0017201
0.00015249
0.0013358
0.00015703
0.00082967
0.00038443
0.00016053
2.0057e-05
0.0039956
7.2606e-08
4.0209e-05
0.0039049
5.9795e-05
0.0037622
7.8397e-05
0.0035598
9.5752e-05
0.0032973
0.00011106
0.0029894
0.00012537
0.0025925
0.00013683
0.0022622
0.00014444
0.0017124
0.00015247
0.0013277
0.00015706
0.00082508
0.00038092
0.00016057
2.0057e-05
0.0039755
7.3933e-08
4.021e-05
0.0038847
5.9798e-05
0.0037426
7.8401e-05
0.0035412
9.5761e-05
0.0032799
0.00011107
0.0029741
0.00012536
0.0025782
0.00013689
0.0022507
0.0001445
0.0017048
0.00015245
0.0013198
0.00015708
0.00082045
0.0003774
0.0001606
2.0057e-05
0.0039553
7.5265e-08
4.0212e-05
0.0038646
5.9801e-05
0.003723
7.8405e-05
0.0035225
9.5769e-05
0.0032625
0.00011108
0.0029588
0.00012535
0.0025639
0.00013695
0.0022391
0.00014457
0.0016972
0.00015244
0.0013119
0.00015711
0.00081578
0.00037388
0.00016063
2.0057e-05
0.0039352
7.6604e-08
4.0214e-05
0.0038444
5.9804e-05
0.0037034
7.841e-05
0.0035039
9.5778e-05
0.0032452
0.00011109
0.0029435
0.00012533
0.0025497
0.000137
0.0022274
0.00014464
0.0016896
0.00015244
0.0013041
0.00015714
0.00081108
0.00037036
0.00016066
2.0057e-05
0.0039151
7.7949e-08
4.0215e-05
0.0038243
5.9807e-05
0.0036838
7.8414e-05
0.0034853
9.5787e-05
0.0032278
0.0001111
0.0029282
0.00012532
0.0025355
0.00013706
0.0022156
0.00014471
0.0016819
0.00015245
0.0012964
0.00015717
0.00080635
0.00036685
0.00016069
2.0057e-05
0.0038949
7.9301e-08
4.0217e-05
0.0038041
5.9811e-05
0.0036642
7.8419e-05
0.0034667
9.5796e-05
0.0032104
0.00011111
0.0029129
0.00012531
0.0025213
0.0001371
0.0022038
0.00014478
0.0016743
0.00015246
0.0012887
0.00015721
0.0008016
0.00036333
0.00016072
2.0057e-05
0.0038748
8.0659e-08
4.0219e-05
0.0037839
5.9814e-05
0.0036446
7.8423e-05
0.0034481
9.5805e-05
0.003193
0.00011112
0.0028976
0.0001253
0.0025071
0.00013715
0.002192
0.00014485
0.0016665
0.00015247
0.0012811
0.00015724
0.00079683
0.00035983
0.00016075
2.0058e-05
0.0038546
8.2024e-08
4.022e-05
0.0037638
5.9817e-05
0.003625
7.8427e-05
0.0034295
9.5814e-05
0.0031756
0.00011113
0.0028822
0.00012528
0.0024929
0.00013719
0.0021801
0.00014493
0.0016588
0.0001525
0.0012735
0.00015728
0.00079205
0.00035633
0.00016077
2.0058e-05
0.0038345
8.3396e-08
4.0222e-05
0.0037436
5.9821e-05
0.0036054
7.8432e-05
0.0034109
9.5824e-05
0.0031583
0.00011115
0.0028669
0.00012527
0.0024788
0.00013723
0.0021681
0.000145
0.001651
0.00015252
0.001266
0.00015732
0.00078726
0.00035285
0.0001608
2.0058e-05
0.0038144
8.4774e-08
4.0224e-05
0.0037235
5.9824e-05
0.0035858
7.8437e-05
0.0033923
9.5833e-05
0.0031409
0.00011116
0.0028516
0.00012526
0.0024647
0.00013727
0.0021561
0.00014507
0.0016432
0.00015255
0.0012585
0.00015736
0.00078245
0.00034938
0.00016083
2.0058e-05
0.0037942
8.616e-08
4.0225e-05
0.0037033
5.9828e-05
0.0035662
7.8441e-05
0.0033737
9.5842e-05
0.0031235
0.00011117
0.0028363
0.00012525
0.0024506
0.0001373
0.0021441
0.00014514
0.0016354
0.00015259
0.0012511
0.0001574
0.00077764
0.00034593
0.00016085
2.0058e-05
0.0037741
8.7553e-08
4.0227e-05
0.0036831
5.9831e-05
0.0035466
7.8446e-05
0.0033551
9.5851e-05
0.0031061
0.00011119
0.0028209
0.00012524
0.0024366
0.00013733
0.002132
0.00014522
0.0016275
0.00015262
0.0012437
0.00015744
0.00077282
0.00034249
0.00016088
2.0058e-05
0.0037539
8.8954e-08
4.0229e-05
0.0036629
5.9835e-05
0.003527
7.845e-05
0.0033364
9.586e-05
0.0030886
0.0001112
0.0028056
0.00012523
0.0024226
0.00013736
0.0021199
0.00014529
0.0016196
0.00015266
0.0012363
0.00015749
0.000768
0.00033907
0.00016091
2.0058e-05
0.0037338
9.0362e-08
4.0231e-05
0.0036428
5.9838e-05
0.0035074
7.8455e-05
0.0033178
9.587e-05
0.0030712
0.00011122
0.0027902
0.00012522
0.0024086
0.00013738
0.0021077
0.00014535
0.0016116
0.00015271
0.0012289
0.00015753
0.00076317
0.00033566
0.00016093
2.0059e-05
0.0037136
9.1778e-08
4.0233e-05
0.0036226
5.9842e-05
0.0034878
7.846e-05
0.0032992
9.5879e-05
0.0030538
0.00011124
0.0027749
0.00012521
0.0023946
0.00013741
0.0020955
0.00014542
0.0016036
0.00015275
0.0012216
0.00015758
0.00075834
0.00033228
0.00016096
2.0059e-05
0.0036935
9.3202e-08
4.0234e-05
0.0036024
5.9846e-05
0.0034682
7.8465e-05
0.0032806
9.5889e-05
0.0030364
0.00011125
0.0027595
0.00012521
0.0023806
0.00013743
0.0020833
0.00014549
0.0015955
0.0001528
0.0012143
0.00015763
0.00075351
0.00032892
0.00016099
2.0059e-05
0.0036733
9.4634e-08
4.0236e-05
0.0035822
5.9849e-05
0.0034486
7.8469e-05
0.003262
9.5898e-05
0.003019
0.00011127
0.0027441
0.0001252
0.0023667
0.00013745
0.002071
0.00014555
0.0015874
0.00015284
0.001207
0.00015768
0.00074868
0.00032558
0.00016102
2.0059e-05
0.0036532
9.6075e-08
4.0238e-05
0.0035621
5.9853e-05
0.003429
7.8474e-05
0.0032433
9.5908e-05
0.0030015
0.00011129
0.0027288
0.0001252
0.0023528
0.00013747
0.0020587
0.00014562
0.0015793
0.00015289
0.0011997
0.00015772
0.00074385
0.00032226
0.00016104
2.0059e-05
0.003633
9.7524e-08
4.024e-05
0.0035419
5.9857e-05
0.0034093
7.8479e-05
0.0032247
9.5917e-05
0.0029841
0.0001113
0.0027134
0.00012519
0.0023389
0.00013749
0.0020464
0.00014568
0.0015711
0.00015294
0.0011925
0.00015777
0.00073902
0.00031897
0.00016107
2.0059e-05
0.0036128
9.8982e-08
4.0242e-05
0.0035217
5.9861e-05
0.0033897
7.8484e-05
0.0032061
9.5927e-05
0.0029666
0.00011132
0.002698
0.00012519
0.002325
0.00013751
0.0020341
0.00014574
0.0015629
0.00015299
0.0011852
0.00015782
0.00073419
0.00031569
0.0001611
2.006e-05
0.0035927
1.0045e-07
4.0244e-05
0.0035015
5.9865e-05
0.0033701
7.8489e-05
0.0031875
9.5937e-05
0.0029492
0.00011134
0.0026826
0.00012519
0.0023112
0.00013753
0.0020218
0.0001458
0.0015546
0.00015305
0.001178
0.00015787
0.00072937
0.00031244
0.00016112
2.006e-05
0.0035725
1.0192e-07
4.0246e-05
0.0034813
5.9869e-05
0.0033505
7.8494e-05
0.0031689
9.5947e-05
0.0029317
0.00011136
0.0026672
0.00012518
0.0022974
0.00013755
0.0020094
0.00014586
0.0015463
0.0001531
0.0011707
0.00015792
0.00072454
0.00030921
0.00016115
2.006e-05
0.0035524
1.0341e-07
4.0248e-05
0.0034611
5.9873e-05
0.0033309
7.8499e-05
0.0031502
9.5957e-05
0.0029143
0.00011138
0.0026517
0.00012518
0.0022835
0.00013756
0.001997
0.00014591
0.001538
0.00015315
0.0011635
0.00015797
0.00071972
0.00030601
0.00016118
2.006e-05
0.0035322
1.049e-07
4.025e-05
0.003441
5.9877e-05
0.0033112
7.8504e-05
0.0031316
9.5966e-05
0.0028968
0.0001114
0.0026363
0.00012518
0.0022698
0.00013758
0.0019846
0.00014597
0.0015296
0.0001532
0.0011563
0.00015802
0.00071489
0.00030283
0.0001612
2.0061e-05
0.003512
1.0641e-07
4.0252e-05
0.0034208
5.9881e-05
0.0032916
7.8509e-05
0.003113
9.5976e-05
0.0028793
0.00011142
0.0026209
0.00012519
0.002256
0.00013759
0.0019722
0.00014603
0.0015211
0.00015325
0.001149
0.00015807
0.00071008
0.00029967
0.00016123
2.0061e-05
0.0034919
1.0792e-07
4.0254e-05
0.0034006
5.9885e-05
0.003272
7.8514e-05
0.0030943
9.5986e-05
0.0028619
0.00011144
0.0026054
0.00012519
0.0022422
0.00013761
0.0019598
0.00014608
0.0015127
0.00015331
0.0011418
0.00015812
0.00070526
0.00029654
0.00016126
2.0061e-05
0.0034717
1.0945e-07
4.0256e-05
0.0033804
5.989e-05
0.0032523
7.8519e-05
0.0030757
9.5996e-05
0.0028444
0.00011146
0.00259
0.00012519
0.0022285
0.00013762
0.0019474
0.00014613
0.0015041
0.00015336
0.0011346
0.00015817
0.00070044
0.00029343
0.00016128
2.0061e-05
0.0034515
1.1098e-07
4.0258e-05
0.0033602
5.9894e-05
0.0032327
7.8524e-05
0.0030571
9.6006e-05
0.0028269
0.00011148
0.0025745
0.00012519
0.0022148
0.00013763
0.001935
0.00014618
0.0014956
0.00015341
0.0011273
0.00015822
0.00069563
0.00029034
0.00016131
2.0061e-05
0.0034313
1.1253e-07
4.026e-05
0.00334
5.9899e-05
0.0032131
7.8529e-05
0.0030385
9.6016e-05
0.0028094
0.0001115
0.002559
0.0001252
0.0022011
0.00013765
0.0019225
0.00014624
0.001487
0.00015346
0.0011201
0.00015827
0.00069082
0.00028728
0.00016134
2.0062e-05
0.0034112
1.1408e-07
4.0262e-05
0.0033198
5.9903e-05
0.0031934
7.8534e-05
0.0030198
9.6026e-05
0.0027919
0.00011152
0.0025435
0.0001252
0.0021874
0.00013766
0.00191
0.00014629
0.0014784
0.00015351
0.0011129
0.00015832
0.00068602
0.00028423
0.00016136
2.0062e-05
0.003391
1.1565e-07
4.0264e-05
0.0032996
5.9908e-05
0.0031738
7.854e-05
0.0030012
9.6036e-05
0.0027744
0.00011154
0.002528
0.00012521
0.0021737
0.00013767
0.0018976
0.00014634
0.0014697
0.00015357
0.0011057
0.00015837
0.00068122
0.00028121
0.00016139
2.0062e-05
0.0033708
1.1723e-07
4.0266e-05
0.0032794
5.9913e-05
0.0031541
7.8545e-05
0.0029826
9.6046e-05
0.0027569
0.00011156
0.0025125
0.00012522
0.0021601
0.00013769
0.0018851
0.00014639
0.001461
0.00015362
0.0010984
0.00015842
0.00067642
0.00027822
0.00016141
2.0063e-05
0.0033506
1.1882e-07
4.0269e-05
0.0032592
5.9918e-05
0.0031345
7.855e-05
0.0029639
9.6056e-05
0.0027394
0.00011159
0.002497
0.00012523
0.0021464
0.0001377
0.0018726
0.00014644
0.0014523
0.00015367
0.0010912
0.00015847
0.00067162
0.00027524
0.00016144
2.0063e-05
0.0033304
1.2042e-07
4.0271e-05
0.003239
5.9922e-05
0.0031148
7.8556e-05
0.0029453
9.6066e-05
0.0027219
0.00011161
0.0024814
0.00012523
0.0021328
0.00013771
0.0018602
0.00014648
0.0014435
0.00015372
0.001084
0.00015851
0.00066683
0.00027229
0.00016147
2.0063e-05
0.0033103
1.2204e-07
4.0273e-05
0.0032188
5.9927e-05
0.0030952
7.8561e-05
0.0029267
9.6076e-05
0.0027044
0.00011163
0.0024659
0.00012524
0.0021192
0.00013773
0.0018477
0.00014653
0.0014347
0.00015377
0.0010767
0.00015856
0.00066204
0.00026936
0.00016149
2.0063e-05
0.0032901
1.2366e-07
4.0275e-05
0.0031985
5.9933e-05
0.0030755
7.8567e-05
0.002908
9.6086e-05
0.0026869
0.00011165
0.0024503
0.00012525
0.0021056
0.00013774
0.0018352
0.00014658
0.0014259
0.00015382
0.0010695
0.00015861
0.00065725
0.00026645
0.00016152
2.0064e-05
0.0032699
1.253e-07
4.0277e-05
0.0031783
5.9938e-05
0.0030559
7.8572e-05
0.0028894
9.6095e-05
0.0026694
0.00011168
0.0024347
0.00012527
0.002092
0.00013776
0.0018227
0.00014663
0.001417
0.00015387
0.0010622
0.00015865
0.00065247
0.00026356
0.00016154
2.0064e-05
0.0032497
1.2695e-07
4.028e-05
0.0031581
5.9943e-05
0.0030362
7.8578e-05
0.0028708
9.6105e-05
0.0026518
0.0001117
0.0024191
0.00012528
0.0020784
0.00013777
0.0018102
0.00014667
0.0014081
0.00015392
0.001055
0.0001587
0.00064769
0.00026069
0.00016157
2.0064e-05
0.0032295
1.2862e-07
4.0282e-05
0.0031379
5.9948e-05
0.0030165
7.8584e-05
0.0028521
9.6114e-05
0.0026343
0.00011173
0.0024035
0.00012529
0.0020649
0.00013779
0.0017977
0.00014672
0.0013992
0.00015397
0.0010477
0.00015875
0.00064291
0.00025785
0.00016159
2.0065e-05
0.0032093
1.303e-07
4.0284e-05
0.0031177
5.9954e-05
0.0029969
7.859e-05
0.0028335
9.6124e-05
0.0026168
0.00011175
0.0023879
0.00012531
0.0020513
0.0001378
0.0017852
0.00014676
0.0013902
0.00015402
0.0010405
0.00015879
0.00063814
0.00025502
0.00016162
2.0065e-05
0.0031891
1.3199e-07
4.0286e-05
0.0030975
5.9959e-05
0.0029772
7.8596e-05
0.0028148
9.6133e-05
0.0025992
0.00011177
0.0023722
0.00012532
0.0020378
0.00013782
0.0017727
0.00014681
0.0013812
0.00015407
0.0010332
0.00015884
0.00063337
0.00025221
0.00016165
2.0066e-05
0.0031689
1.337e-07
4.0289e-05
0.0030772
5.9965e-05
0.0029575
7.8602e-05
0.0027962
9.6142e-05
0.0025817
0.0001118
0.0023566
0.00012534
0.0020242
0.00013783
0.0017602
0.00014685
0.0013722
0.00015412
0.001026
0.00015888
0.0006286
0.00024942
0.00016167
2.0066e-05
0.0031487
1.3542e-07
4.0291e-05
0.003057
5.9971e-05
0.0029378
7.8609e-05
0.0027776
9.6152e-05
0.0025642
0.00011182
0.0023409
0.00012536
0.0020107
0.00013785
0.0017477
0.0001469
0.0013631
0.00015417
0.0010187
0.00015893
0.00062383
0.00024666
0.0001617
2.0066e-05
0.0031285
1.3716e-07
4.0294e-05
0.0030368
5.9976e-05
0.0029181
7.8615e-05
0.0027589
9.6161e-05
0.0025466
0.00011185
0.0023252
0.00012537
0.0019972
0.00013787
0.0017352
0.00014694
0.0013541
0.00015421
0.0010114
0.00015897
0.00061907
0.00024391
0.00016172
2.0067e-05
0.0031083
1.3891e-07
4.0296e-05
0.0030165
5.9982e-05
0.0028985
7.8622e-05
0.0027403
9.617e-05
0.0025291
0.00011187
0.0023095
0.00012539
0.0019837
0.00013788
0.0017227
0.00014699
0.001345
0.00015426
0.0010041
0.00015902
0.00061432
0.00024118
0.00016175
2.0067e-05
0.0030881
1.4068e-07
4.0298e-05
0.0029963
5.9988e-05
0.0028788
7.8629e-05
0.0027217
9.6178e-05
0.0025115
0.0001119
0.0022938
0.00012541
0.0019701
0.0001379
0.0017102
0.00014703
0.0013358
0.00015431
0.00099686
0.00015906
0.00060956
0.00023846
0.00016178
2.0068e-05
0.0030679
1.4246e-07
4.0301e-05
0.0029761
5.9994e-05
0.0028591
7.8636e-05
0.002703
9.6187e-05
0.002494
0.00011192
0.0022781
0.00012543
0.0019566
0.00013792
0.0016978
0.00014707
0.0013267
0.00015436
0.00098958
0.00015911
0.00060481
0.00023577
0.0001618
2.0068e-05
0.0030477
1.4426e-07
4.0303e-05
0.0029559
6e-05
0.0028394
7.8643e-05
0.0026844
9.6196e-05
0.0024764
0.00011195
0.0022623
0.00012545
0.0019431
0.00013794
0.0016853
0.00014712
0.0013175
0.00015441
0.00098229
0.00015915
0.00060006
0.0002331
0.00016183
2.0069e-05
0.0030275
1.4608e-07
4.0306e-05
0.0029356
6.0006e-05
0.0028197
7.8651e-05
0.0026657
9.6205e-05
0.0024589
0.00011197
0.0022465
0.00012548
0.0019296
0.00013796
0.0016728
0.00014716
0.0013083
0.00015445
0.000975
0.0001592
0.00059532
0.00023044
0.00016186
2.0069e-05
0.0030072
1.4791e-07
4.0308e-05
0.0029154
6.0013e-05
0.0028
7.8658e-05
0.0026471
9.6213e-05
0.0024413
0.000112
0.0022307
0.0001255
0.0019161
0.00013798
0.0016603
0.0001472
0.0012991
0.0001545
0.00096771
0.00015924
0.00059058
0.0002278
0.00016188
2.0069e-05
0.002987
1.4976e-07
4.0311e-05
0.0028951
6.0019e-05
0.0027803
7.8666e-05
0.0026284
9.6222e-05
0.0024237
0.00011202
0.0022149
0.00012552
0.0019026
0.000138
0.0016478
0.00014725
0.0012898
0.00015455
0.00096041
0.00015929
0.00058584
0.00022517
0.00016191
2.007e-05
0.0029668
1.5163e-07
4.0313e-05
0.0028749
6.0025e-05
0.0027606
7.8674e-05
0.0026098
9.623e-05
0.0024062
0.00011205
0.0021991
0.00012555
0.0018891
0.00013802