/*--------------------------------*- C++ -*----------------------------------*\
  =========                 |
  \\      /  F ield         | OpenFOAM: The Open Source CFD Toolbox
   \\    /   O peration     | Website:  https://openfoam.org
    \\  /    A nd           | Version:  6.0
     \\/     M anipulation  |
\*---------------------------------------------------------------------------*/
FoamFile
{
    version     2.0;
    format      ascii;
    class       volScalarField;
    location    "16";
    object      p;
}
// * * * * * * * * * * * * * * * * * * * * * * * * * * * * * * * * * * * * * //

dimensions      [0 2 -2 0 0 0 0];

internalField   nonuniform List<scalar> 
34500
(
1.00902
1.00865
1.00736
1.00621
1.00549
1.00491
1.00418
1.00349
1.00302
1.00272
1.00244
1.00216
1.00171
1.00153
1.00156
1.00904
1.00872
1.0075
1.0064
1.00575
1.00525
1.00454
1.00383
1.00332
1.00303
1.00279
1.00256
1.00212
1.0021
1.00208
1.00906
1.00877
1.00754
1.00639
1.00569
1.00517
1.00442
1.0036
1.00294
1.00253
1.00225
1.00207
1.00177
1.002
1.00209
1.0091
1.00883
1.00763
1.00647
1.00576
1.00531
1.00465
1.00387
1.00314
1.00264
1.00228
1.00209
1.00186
1.00221
1.0025
1.00914
1.00893
1.00778
1.00662
1.00591
1.00556
1.00509
1.00446
1.0038
1.00328
1.00287
1.00263
1.00236
1.00269
1.00302
1.00918
1.00901
1.00791
1.00671
1.00591
1.00556
1.00523
1.00478
1.00427
1.00381
1.0034
1.00313
1.00282
1.00311
1.00343
1.00922
1.00911
1.00805
1.00677
1.00581
1.00534
1.00501
1.00469
1.00432
1.00398
1.00365
1.00342
1.00313
1.00343
1.00378
1.00926
1.00922
1.00826
1.00696
1.00584
1.00518
1.00477
1.00449
1.00423
1.00401
1.00379
1.00365
1.00343
1.00376
1.00417
1.00931
1.00938
1.00858
1.00737
1.00618
1.00536
1.00483
1.00452
1.00431
1.00419
1.00406
1.00399
1.00383
1.00417
1.00458
1.00935
1.00956
1.009
1.008
1.00685
1.00596
1.00532
1.00494
1.00473
1.00463
1.00454
1.0045
1.00434
1.00463
1.00499
1.00938
1.00974
1.00945
1.00872
1.00773
1.00684
1.00614
1.00569
1.00543
1.0053
1.00519
1.00511
1.0049
1.0051
1.00537
1.00941
1.00989
1.00985
1.00942
1.00864
1.00784
1.00712
1.0066
1.00626
1.00606
1.00588
1.00573
1.00543
1.00552
1.00569
1.00943
1.00999
1.01016
1.00999
1.00944
1.00876
1.00805
1.00749
1.00707
1.00678
1.00652
1.00627
1.00587
1.00586
1.00595
1.00944
1.01003
1.01033
1.01037
1.01003
1.00948
1.00882
1.00823
1.00775
1.00738
1.00703
1.0067
1.00622
1.00614
1.00617
1.00944
1.01002
1.01039
1.01055
1.01038
1.00995
1.00936
1.00877
1.00825
1.00782
1.00741
1.00701
1.00648
1.00635
1.00636
1.00944
1.00997
1.01034
1.01057
1.0105
1.01018
1.00966
1.0091
1.00857
1.0081
1.00765
1.00722
1.00668
1.00653
1.00653
1.00943
1.0099
1.01022
1.01046
1.01045
1.01022
1.00977
1.00925
1.00873
1.00826
1.0078
1.00736
1.00683
1.00668
1.0067
1.00942
1.00981
1.01007
1.01028
1.0103
1.01012
1.00974
1.00928
1.00879
1.00833
1.00789
1.00746
1.00696
1.00683
1.00687
1.00942
1.00974
1.00991
1.01007
1.01008
1.00995
1.00964
1.00922
1.00878
1.00836
1.00795
1.00755
1.00708
1.00699
1.00706
1.00942
1.00967
1.00977
1.00987
1.00987
1.00976
1.0095
1.00914
1.00875
1.00837
1.008
1.00765
1.00722
1.00716
1.00725
1.00943
1.00962
1.00966
1.0097
1.00968
1.00958
1.00937
1.00907
1.00873
1.0084
1.00807
1.00776
1.00737
1.00734
1.00746
1.00944
1.0096
1.00959
1.00958
1.00954
1.00945
1.00927
1.00903
1.00874
1.00845
1.00817
1.00789
1.00754
1.00754
1.00767
1.00946
1.0096
1.00956
1.00952
1.00945
1.00937
1.00923
1.00902
1.00878
1.00853
1.00829
1.00805
1.00773
1.00775
1.0079
1.00949
1.00962
1.00957
1.00951
1.00942
1.00935
1.00923
1.00907
1.00886
1.00865
1.00844
1.00823
1.00794
1.00797
1.00813
1.00953
1.00966
1.00961
1.00954
1.00945
1.00938
1.00929
1.00915
1.00898
1.0088
1.00862
1.00842
1.00815
1.0082
1.00837
1.00957
1.00972
1.00968
1.00961
1.00952
1.00946
1.00939
1.00928
1.00913
1.00897
1.00881
1.00863
1.00838
1.00843
1.00861
1.00962
1.00979
1.00977
1.00971
1.00963
1.00958
1.00952
1.00943
1.00931
1.00916
1.00902
1.00886
1.00861
1.00867
1.00886
1.00967
1.00986
1.00987
1.00984
1.00976
1.00972
1.00968
1.00961
1.0095
1.00937
1.00925
1.00909
1.00885
1.00892
1.0091
1.00973
1.00995
1.00999
1.00997
1.00991
1.00989
1.00986
1.0098
1.00971
1.00959
1.00947
1.00932
1.00909
1.00916
1.00935
1.00979
1.01003
1.01012
1.01012
1.01008
1.01006
1.01005
1.01001
1.00993
1.00982
1.00971
1.00956
1.00933
1.00941
1.00959
1.00986
1.01013
1.01024
1.01027
1.01024
1.01025
1.01024
1.01022
1.01015
1.01005
1.00994
1.00979
1.00957
1.00965
1.00984
1.00992
1.01022
1.01037
1.01043
1.01042
1.01043
1.01045
1.01043
1.01037
1.01028
1.01018
1.01003
1.00981
1.0099
1.01008
1.00999
1.01031
1.0105
1.01058
1.01059
1.01062
1.01065
1.01065
1.0106
1.01051
1.01041
1.01027
1.01005
1.01014
1.01033
1.01006
1.0104
1.01063
1.01074
1.01076
1.01081
1.01085
1.01086
1.01082
1.01074
1.01065
1.01051
1.01029
1.01039
1.01057
1.01014
1.0105
1.01075
1.01089
1.01093
1.01099
1.01104
1.01107
1.01104
1.01096
1.01088
1.01074
1.01053
1.01063
1.01081
1.01021
1.01059
1.01088
1.01103
1.01109
1.01117
1.01124
1.01128
1.01126
1.01119
1.01111
1.01097
1.01077
1.01087
1.01105
1.01029
1.01068
1.011
1.01118
1.01125
1.01134
1.01143
1.01148
1.01147
1.01141
1.01134
1.01121
1.011
1.01111
1.01129
1.01036
1.01077
1.01112
1.01132
1.0114
1.01151
1.01161
1.01168
1.01169
1.01163
1.01157
1.01144
1.01124
1.01135
1.01152
1.01044
1.01087
1.01124
1.01145
1.01156
1.01168
1.0118
1.01188
1.0119
1.01185
1.01179
1.01167
1.01147
1.01159
1.01176
1.01052
1.01095
1.01136
1.01159
1.01171
1.01184
1.01198
1.01208
1.01211
1.01207
1.01202
1.0119
1.01171
1.01183
1.01199
1.0106
1.01104
1.01148
1.01172
1.01185
1.012
1.01215
1.01227
1.01231
1.01228
1.01224
1.01213
1.01194
1.01207
1.01222
1.01067
1.01113
1.01159
1.01186
1.012
1.01216
1.01233
1.01246
1.01252
1.0125
1.01247
1.01236
1.01218
1.01231
1.01245
1.01075
1.01122
1.01171
1.01198
1.01214
1.01232
1.0125
1.01265
1.01272
1.01271
1.01269
1.01259
1.01241
1.01254
1.01268
1.01083
1.01131
1.01182
1.01211
1.01228
1.01247
1.01267
1.01284
1.01292
1.01293
1.01291
1.01282
1.01265
1.01278
1.01291
1.01091
1.0114
1.01193
1.01224
1.01241
1.01262
1.01284
1.01303
1.01313
1.01314
1.01313
1.01305
1.01288
1.01302
1.01314
1.01099
1.01148
1.01205
1.01237
1.01255
1.01277
1.01301
1.01321
1.01333
1.01336
1.01336
1.01328
1.01312
1.01325
1.01337
1.01107
1.01157
1.01216
1.01249
1.01269
1.01292
1.01318
1.0134
1.01353
1.01357
1.01358
1.0135
1.01335
1.01349
1.0136
1.01115
1.01166
1.01227
1.01261
1.01282
1.01307
1.01334
1.01358
1.01373
1.01378
1.0138
1.01373
1.01358
1.01372
1.01382
1.01123
1.01175
1.01238
1.01274
1.01295
1.01321
1.01351
1.01377
1.01393
1.01399
1.01402
1.01396
1.01381
1.01396
1.01405
1.01131
1.01183
1.01248
1.01286
1.01308
1.01336
1.01367
1.01395
1.01413
1.01421
1.01425
1.01419
1.01405
1.01419
1.01427
1.01139
1.01192
1.01259
1.01298
1.01321
1.0135
1.01383
1.01413
1.01432
1.01442
1.01447
1.01442
1.01428
1.01443
1.0145
1.01147
1.012
1.0127
1.0131
1.01334
1.01364
1.01399
1.01431
1.01452
1.01463
1.01469
1.01465
1.01451
1.01466
1.01472
1.01155
1.01208
1.0128
1.01321
1.01346
1.01378
1.01415
1.01449
1.01472
1.01484
1.01491
1.01488
1.01475
1.01489
1.01495
1.01163
1.01217
1.01291
1.01333
1.01359
1.01392
1.0143
1.01466
1.01492
1.01505
1.01513
1.0151
1.01498
1.01513
1.01517
1.01171
1.01225
1.01301
1.01344
1.01371
1.01405
1.01446
1.01484
1.01511
1.01526
1.01535
1.01533
1.01521
1.01536
1.0154
1.01178
1.01233
1.01311
1.01356
1.01383
1.01419
1.01461
1.01502
1.0153
1.01547
1.01557
1.01556
1.01544
1.01559
1.01562
1.01186
1.01241
1.01321
1.01367
1.01395
1.01432
1.01477
1.01519
1.0155
1.01567
1.01579
1.01578
1.01567
1.01582
1.01585
1.01194
1.01249
1.01331
1.01378
1.01407
1.01445
1.01492
1.01536
1.01569
1.01588
1.01601
1.01601
1.0159
1.01605
1.01607
1.01202
1.01257
1.01341
1.01388
1.01418
1.01458
1.01506
1.01553
1.01588
1.01609
1.01623
1.01624
1.01613
1.01628
1.01629
1.01209
1.01265
1.0135
1.01399
1.0143
1.01471
1.01521
1.0157
1.01607
1.01629
1.01644
1.01646
1.01636
1.01652
1.01652
1.01217
1.01273
1.0136
1.0141
1.01441
1.01483
1.01536
1.01587
1.01626
1.0165
1.01666
1.01668
1.01659
1.01674
1.01674
1.01224
1.0128
1.01369
1.0142
1.01452
1.01496
1.0155
1.01604
1.01644
1.0167
1.01687
1.01691
1.01682
1.01697
1.01696
1.01232
1.01288
1.01378
1.0143
1.01463
1.01508
1.01564
1.0162
1.01663
1.0169
1.01709
1.01713
1.01705
1.0172
1.01719
1.01239
1.01295
1.01388
1.0144
1.01473
1.0152
1.01578
1.01636
1.01681
1.0171
1.0173
1.01735
1.01727
1.01743
1.01741
1.01247
1.01303
1.01396
1.01449
1.01483
1.01531
1.01592
1.01652
1.01699
1.0173
1.01751
1.01757
1.0175
1.01766
1.01763
1.01254
1.0131
1.01405
1.01459
1.01493
1.01542
1.01605
1.01668
1.01717
1.0175
1.01772
1.01779
1.01772
1.01788
1.01785
1.01261
1.01318
1.01414
1.01468
1.01503
1.01553
1.01618
1.01684
1.01735
1.01769
1.01793
1.01801
1.01794
1.01811
1.01807
1.01268
1.01324
1.01422
1.01477
1.01513
1.01564
1.01631
1.01699
1.01753
1.01789
1.01814
1.01822
1.01817
1.01833
1.01829
1.01276
1.01332
1.0143
1.01486
1.01522
1.01575
1.01644
1.01714
1.0177
1.01808
1.01834
1.01844
1.01839
1.01855
1.0185
1.01282
1.01338
1.01438
1.01495
1.01531
1.01585
1.01656
1.01729
1.01787
1.01827
1.01855
1.01865
1.0186
1.01877
1.01872
1.01289
1.01345
1.01446
1.01503
1.0154
1.01595
1.01668
1.01744
1.01804
1.01846
1.01875
1.01886
1.01882
1.01899
1.01893
1.01296
1.01352
1.01454
1.01511
1.01548
1.01605
1.0168
1.01758
1.01821
1.01865
1.01895
1.01907
1.01904
1.01921
1.01915
1.01303
1.01358
1.01461
1.01519
1.01556
1.01614
1.01692
1.01772
1.01837
1.01883
1.01914
1.01927
1.01925
1.01942
1.01936
1.01309
1.01365
1.01469
1.01527
1.01564
1.01623
1.01703
1.01786
1.01854
1.01901
1.01934
1.01948
1.01946
1.01964
1.01957
1.01316
1.01371
1.01476
1.01534
1.01572
1.01632
1.01714
1.01799
1.01869
1.01919
1.01953
1.01968
1.01967
1.01984
1.01978
1.01322
1.01377
1.01483
1.01541
1.01579
1.0164
1.01725
1.01812
1.01885
1.01936
1.01972
1.01988
1.01987
1.02005
1.01998
1.01329
1.01384
1.0149
1.01548
1.01586
1.01648
1.01735
1.01825
1.019
1.01954
1.01991
1.02008
1.02007
1.02026
1.02019
1.01335
1.0139
1.01496
1.01555
1.01592
1.01656
1.01745
1.01838
1.01915
1.01971
1.02009
1.02027
1.02028
1.02046
1.02039
1.01341
1.01396
1.01503
1.01561
1.01599
1.01664
1.01754
1.0185
1.0193
1.01987
1.02027
1.02046
1.02047
1.02066
1.02059
1.01347
1.01402
1.01509
1.01567
1.01605
1.01671
1.01764
1.01862
1.01945
1.02004
1.02045
1.02065
1.02067
1.02086
1.02078
1.01354
1.01408
1.01515
1.01573
1.01611
1.01678
1.01773
1.01874
1.01959
1.0202
1.02063
1.02084
1.02086
1.02105
1.02097
1.0136
1.01413
1.01521
1.01579
1.01616
1.01684
1.01781
1.01885
1.01972
1.02035
1.0208
1.02102
1.02105
1.02125
1.02117
1.01366
1.01419
1.01527
1.01584
1.01622
1.01691
1.0179
1.01896
1.01986
1.02051
1.02097
1.02119
1.02123
1.02143
1.02135
1.01371
1.01425
1.01533
1.0159
1.01626
1.01697
1.01798
1.01906
1.01999
1.02066
1.02113
1.02137
1.02141
1.02162
1.02154
1.01377
1.0143
1.01539
1.01595
1.01631
1.01702
1.01805
1.01917
1.02011
1.0208
1.02129
1.02154
1.02159
1.0218
1.02171
1.01383
1.01436
1.01544
1.016
1.01636
1.01707
1.01813
1.01926
1.02023
1.02095
1.02145
1.0217
1.02176
1.02197
1.02189
1.01389
1.01441
1.0155
1.01604
1.0164
1.01712
1.0182
1.01936
1.02035
1.02108
1.0216
1.02186
1.02192
1.02214
1.02206
1.01395
1.01447
1.01555
1.01609
1.01644
1.01717
1.01826
1.01945
1.02047
1.02122
1.02175
1.02202
1.02209
1.02231
1.02223
1.014
1.01453
1.0156
1.01613
1.01647
1.01722
1.01833
1.01954
1.02058
1.02135
1.02189
1.02217
1.02224
1.02247
1.02239
1.01406
1.01458
1.01565
1.01617
1.01651
1.01726
1.01839
1.01962
1.02068
1.02147
1.02203
1.02232
1.0224
1.02263
1.02255
1.01412
1.01464
1.01571
1.01621
1.01654
1.01729
1.01844
1.0197
1.02078
1.02159
1.02216
1.02246
1.02254
1.02278
1.0227
1.01417
1.01469
1.01576
1.01625
1.01657
1.01733
1.01849
1.01977
1.02088
1.0217
1.02229
1.0226
1.02269
1.02292
1.02285
1.01423
1.01475
1.01581
1.01629
1.0166
1.01736
1.01854
1.01985
1.02097
1.02181
1.02241
1.02273
1.02282
1.02306
1.02299
1.01429
1.01481
1.01586
1.01633
1.01663
1.01739
1.01859
1.01991
1.02106
1.02192
1.02253
1.02285
1.02295
1.0232
1.02313
1.01435
1.01487
1.01591
1.01637
1.01665
1.01742
1.01864
1.01998
1.02115
1.02202
1.02264
1.02297
1.02307
1.02332
1.02326
1.0144
1.01492
1.01596
1.0164
1.01668
1.01745
1.01868
1.02004
1.02122
1.02211
1.02274
1.02308
1.02319
1.02344
1.02338
1.01446
1.01499
1.01602
1.01644
1.0167
1.01748
1.01871
1.02009
1.0213
1.0222
1.02284
1.02318
1.02329
1.02355
1.0235
1.01452
1.01505
1.01607
1.01648
1.01672
1.0175
1.01875
1.02014
1.02137
1.02228
1.02293
1.02328
1.0234
1.02366
1.02361
1.01458
1.01511
1.01613
1.01652
1.01675
1.01752
1.01878
1.02019
1.02143
1.02236
1.02302
1.02337
1.02349
1.02376
1.02371
1.01464
1.01518
1.01618
1.01655
1.01677
1.01754
1.01881
1.02024
1.02149
1.02243
1.0231
1.02345
1.02357
1.02385
1.02381
1.01471
1.01524
1.01624
1.01659
1.01679
1.01756
1.01884
1.02028
1.02154
1.02249
1.02316
1.02352
1.02365
1.02393
1.0239
1.01477
1.01532
1.0163
1.01663
1.01681
1.01758
1.01887
1.02031
1.02159
1.02255
1.02323
1.02359
1.02372
1.02401
1.02398
1.01484
1.01539
1.01637
1.01668
1.01684
1.0176
1.01889
1.02035
1.02163
1.0226
1.02328
1.02364
1.02378
1.02407
1.02405
1.01491
1.01546
1.01643
1.01672
1.01687
1.01762
1.01891
1.02038
1.02167
1.02264
1.02333
1.02369
1.02383
1.02413
1.02412
1.01498
1.01554
1.0165
1.01677
1.01689
1.01764
1.01893
1.0204
1.0217
1.02267
1.02336
1.02373
1.02387
1.02417
1.02417
1.01505
1.01563
1.01657
1.01682
1.01692
1.01766
1.01895
1.02042
1.02173
1.0227
1.02339
1.02375
1.0239
1.02421
1.02422
1.01512
1.01571
1.01665
1.01688
1.01696
1.01768
1.01897
1.02044
1.02175
1.02272
1.02341
1.02377
1.02391
1.02423
1.02426
1.0152
1.01581
1.01674
1.01694
1.01699
1.0177
1.01899
1.02046
1.02176
1.02273
1.02342
1.02378
1.02392
1.02425
1.02429
1.01528
1.0159
1.01683
1.01701
1.01704
1.01773
1.01901
1.02047
1.02177
1.02274
1.02342
1.02377
1.02392
1.02426
1.02431
1.01536
1.016
1.01692
1.01708
1.01708
1.01776
1.01902
1.02048
1.02178
1.02273
1.02341
1.02376
1.02391
1.02425
1.02432
1.01545
1.01611
1.01702
1.01716
1.01713
1.01779
1.01904
1.02049
1.02177
1.02272
1.02339
1.02373
1.02388
1.02423
1.02432
1.01554
1.01622
1.01713
1.01724
1.01719
1.01782
1.01906
1.02049
1.02176
1.0227
1.02336
1.02369
1.02384
1.02421
1.02431
1.01563
1.01634
1.01724
1.01733
1.01725
1.01786
1.01908
1.0205
1.02175
1.02267
1.02332
1.02364
1.02379
1.02416
1.02428
1.01573
1.01647
1.01736
1.01743
1.01732
1.01791
1.0191
1.0205
1.02173
1.02263
1.02326
1.02358
1.02373
1.02411
1.02425
1.01583
1.0166
1.0175
1.01754
1.0174
1.01796
1.01913
1.0205
1.0217
1.02258
1.0232
1.0235
1.02365
1.02404
1.02421
1.01594
1.01674
1.01763
1.01765
1.01748
1.01801
1.01915
1.02049
1.02167
1.02253
1.02312
1.02341
1.02355
1.02397
1.02415
1.01605
1.01689
1.01779
1.01779
1.01758
1.01807
1.01918
1.02049
1.02163
1.02246
1.02303
1.0233
1.02345
1.02387
1.02408
1.01617
1.01704
1.01795
1.01792
1.01768
1.01814
1.01921
1.02048
1.02159
1.02238
1.02292
1.02318
1.02333
1.02377
1.024
1.01629
1.01721
1.01812
1.01808
1.0178
1.01822
1.01925
1.02047
1.02154
1.02229
1.02281
1.02305
1.02319
1.02364
1.02391
1.01642
1.01738
1.0183
1.01824
1.01793
1.01831
1.01929
1.02046
1.02148
1.0222
1.02268
1.0229
1.02303
1.02351
1.0238
1.01656
1.01757
1.0185
1.01842
1.01808
1.01841
1.01933
1.02045
1.02142
1.02209
1.02253
1.02273
1.02286
1.02335
1.02368
1.0167
1.01776
1.01871
1.01862
1.01823
1.01851
1.01938
1.02044
1.02135
1.02197
1.02237
1.02255
1.02268
1.02319
1.02355
1.01684
1.01797
1.01894
1.01883
1.01841
1.01863
1.01944
1.02043
1.02128
1.02184
1.0222
1.02235
1.02247
1.023
1.0234
1.017
1.01819
1.01918
1.01906
1.01859
1.01877
1.01951
1.02042
1.0212
1.0217
1.02201
1.02214
1.02225
1.0228
1.02324
1.01716
1.01842
1.01944
1.0193
1.0188
1.01891
1.01958
1.02042
1.02111
1.02155
1.02181
1.0219
1.02201
1.02258
1.02306
1.01733
1.01866
1.01972
1.01957
1.01902
1.01907
1.01966
1.02041
1.02102
1.02138
1.02159
1.02165
1.02176
1.02235
1.02288
1.01751
1.01892
1.02001
1.01986
1.01927
1.01925
1.01975
1.0204
1.02092
1.02121
1.02136
1.02138
1.02148
1.02209
1.02267
1.0177
1.01919
1.02032
1.02016
1.01953
1.01944
1.01984
1.0204
1.02082
1.02102
1.0211
1.02109
1.02118
1.02182
1.02245
1.01789
1.01947
1.02066
1.02049
1.01982
1.01965
1.01995
1.0204
1.02071
1.02082
1.02083
1.02078
1.02086
1.02153
1.02221
1.01809
1.01977
1.02101
1.02085
1.02012
1.01987
1.02007
1.02039
1.02059
1.0206
1.02055
1.02045
1.02052
1.02122
1.02196
1.01831
1.02009
1.02139
1.02123
1.02046
1.02012
1.0202
1.0204
1.02047
1.02038
1.02024
1.02009
1.02015
1.02088
1.02169
1.01853
1.02042
1.02179
1.02163
1.02081
1.02039
1.02034
1.0204
1.02034
1.02014
1.01992
1.01972
1.01977
1.02053
1.0214
1.01877
1.02077
1.02221
1.02206
1.0212
1.02067
1.02049
1.02041
1.02021
1.01989
1.01958
1.01932
1.01936
1.02016
1.0211
1.01901
1.02114
1.02266
1.02252
1.02161
1.02098
1.02066
1.02042
1.02007
1.01962
1.01921
1.0189
1.01893
1.01976
1.02078
1.01927
1.02152
1.02313
1.02302
1.02205
1.02131
1.02084
1.02043
1.01992
1.01934
1.01883
1.01846
1.01847
1.01934
1.02044
1.01953
1.02193
1.02363
1.02354
1.02252
1.02167
1.02103
1.02045
1.01977
1.01904
1.01843
1.01799
1.01799
1.0189
1.02008
1.01981
1.02235
1.02417
1.02409
1.02302
1.02205
1.02124
1.02047
1.01961
1.01873
1.018
1.0175
1.01747
1.01843
1.01971
1.0201
1.0228
1.02472
1.02468
1.02355
1.02245
1.02147
1.02049
1.01945
1.01841
1.01756
1.01698
1.01694
1.01794
1.01932
1.0204
1.02326
1.02531
1.02531
1.02412
1.02289
1.02171
1.02053
1.01928
1.01807
1.01709
1.01643
1.01637
1.01742
1.0189
1.02072
1.02375
1.02593
1.02596
1.02472
1.02335
1.02196
1.02056
1.0191
1.01771
1.0166
1.01586
1.01577
1.01688
1.01848
1.02105
1.02426
1.02659
1.02666
1.02536
1.02383
1.02224
1.0206
1.01891
1.01733
1.01608
1.01525
1.01514
1.0163
1.01803
1.02139
1.02479
1.02727
1.02739
1.02603
1.02435
1.02253
1.02064
1.01872
1.01694
1.01554
1.01462
1.01449
1.01571
1.01758
1.02175
1.02535
1.02799
1.02817
1.02675
1.0249
1.02283
1.02068
1.01852
1.01654
1.01498
1.01395
1.01379
1.01508
1.0171
1.02212
1.02593
1.02875
1.02898
1.0275
1.02547
1.02316
1.02073
1.01831
1.01611
1.01439
1.01326
1.01307
1.01443
1.01661
1.02251
1.02654
1.02954
1.02984
1.02829
1.02608
1.0235
1.02079
1.01809
1.01566
1.01377
1.01252
1.01231
1.01375
1.0161
1.02292
1.02717
1.03038
1.03074
1.02912
1.02671
1.02386
1.02084
1.01787
1.0152
1.01312
1.01176
1.01151
1.01305
1.01558
1.02334
1.02783
1.03125
1.03169
1.02999
1.02738
1.02424
1.0209
1.01763
1.01472
1.01244
1.01096
1.01068
1.01231
1.01503
1.02378
1.02852
1.03216
1.03268
1.0309
1.02808
1.02463
1.02096
1.01739
1.01421
1.01173
1.01012
1.00981
1.01154
1.01448
1.02423
1.02924
1.03311
1.03372
1.03186
1.02882
1.02505
1.02103
1.01713
1.01368
1.011
1.00924
1.00891
1.01075
1.0139
1.02471
1.02999
1.03411
1.0348
1.03286
1.02958
1.02547
1.0211
1.01686
1.01313
1.01022
1.00832
1.00796
1.00993
1.01331
1.0252
1.03077
1.03515
1.03594
1.0339
1.03038
1.02592
1.02117
1.01659
1.01256
1.00941
1.00736
1.00698
1.00907
1.0127
1.02571
1.03158
1.03623
1.03712
1.03499
1.03121
1.02638
1.02124
1.0163
1.01196
1.00857
1.00636
1.00596
1.0082
1.01209
1.02625
1.03243
1.03737
1.03836
1.03613
1.03207
1.02687
1.02131
1.016
1.01134
1.00769
1.00532
1.0049
1.00729
1.01145
1.0268
1.03331
1.03855
1.03964
1.03731
1.03296
1.02736
1.02138
1.01568
1.01068
1.00676
1.00423
1.0038
1.00636
1.01081
1.02738
1.03423
1.03977
1.04098
1.03853
1.03389
1.02787
1.02145
1.01535
1.01
1.0058
1.0031
1.00266
1.0054
1.01014
1.02799
1.03518
1.04105
1.04237
1.0398
1.03484
1.02839
1.02152
1.015
1.00928
1.00479
1.00192
1.00149
1.00442
1.00948
1.02861
1.03617
1.04238
1.04381
1.04112
1.03583
1.02893
1.02159
1.01463
1.00854
1.00375
1.0007
1.00028
1.00341
1.0088
1.02927
1.0372
1.04376
1.04531
1.04248
1.03685
1.02948
1.02165
1.01424
1.00776
1.00266
0.999431
0.999027
1.00239
1.00812
1.02995
1.03827
1.0452
1.04686
1.04389
1.03789
1.03004
1.0217
1.01383
1.00695
1.00152
0.998119
0.997738
1.00133
1.00742
1.03066
1.03939
1.04669
1.04847
1.04534
1.03896
1.03061
1.02175
1.0134
1.00609
1.00034
0.996759
0.996416
1.00026
1.00672
1.03139
1.04054
1.04823
1.05014
1.04684
1.04006
1.03118
1.02179
1.01295
1.00521
0.999114
0.995356
0.995056
0.999166
1.00601
1.03216
1.04175
1.04983
1.05186
1.04838
1.04119
1.03176
1.02181
1.01246
1.00428
0.997836
0.993905
0.993662
0.998056
1.00531
1.03296
1.04299
1.0515
1.05364
1.04997
1.04234
1.03235
1.02183
1.01196
1.00331
0.996518
0.992412
0.992233
0.996921
1.0046
1.0338
1.04429
1.05322
1.05547
1.05159
1.04351
1.03294
1.02183
1.01141
1.0023
0.995145
0.99087
0.990772
0.995776
1.0039
1.03467
1.04564
1.055
1.05736
1.05326
1.0447
1.03353
1.02181
1.01085
1.00125
0.993731
0.989288
0.989277
0.994609
1.00319
1.03559
1.04704
1.05684
1.05931
1.05496
1.0459
1.03411
1.02177
1.01024
1.00015
0.992262
0.987658
0.987751
0.993434
1.00249
1.03653
1.0485
1.05874
1.06131
1.05671
1.04713
1.03469
1.02171
1.0096
0.999011
0.990753
0.985989
0.986194
0.992239
1.00179
1.03753
1.05001
1.06071
1.06337
1.05849
1.04836
1.03526
1.02163
1.00892
0.997821
0.989189
0.984273
0.984609
0.99104
1.0011
1.03856
1.05158
1.06275
1.06548
1.0603
1.04961
1.03582
1.02152
1.00821
0.996595
0.987585
0.982519
0.982993
0.989824
1.00042
1.03965
1.0532
1.06485
1.06765
1.06215
1.05086
1.03636
1.02137
1.00745
0.995313
0.985926
0.98072
0.981352
0.988607
0.999753
1.04078
1.05489
1.06701
1.06987
1.06402
1.05211
1.03689
1.0212
1.00666
0.993995
0.984228
0.978884
0.979683
0.987377
0.999092
1.04196
1.05665
1.06925
1.07215
1.06593
1.05337
1.03739
1.02099
1.00582
0.992621
0.982475
0.977004
0.977991
0.986149
0.998457
1.0432
1.05847
1.07155
1.07448
1.06785
1.05461
1.03787
1.02074
1.00494
0.99121
0.980685
0.975089
0.976275
0.984913
0.997831
1.04449
1.06036
1.07392
1.07685
1.06979
1.05585
1.03831
1.02044
1.00401
0.989743
0.978841
0.973132
0.974538
0.983683
0.997235
1.04584
1.06232
1.07636
1.07928
1.07176
1.05708
1.03872
1.02011
1.00304
0.988239
0.97696
0.971142
0.972779
0.982448
0.996653
1.04726
1.06435
1.07887
1.08175
1.07373
1.05828
1.03908
1.01973
1.00202
0.98668
0.975027
0.969111
0.971003
0.981225
0.996107
1.04874
1.06646
1.08145
1.08427
1.07571
1.05946
1.03941
1.0193
1.00095
0.985083
0.973057
0.967049
0.969209
0.980002
0.995582
1.05029
1.06865
1.0841
1.08683
1.07769
1.06061
1.03968
1.01881
0.999831
0.983432
0.971037
0.964948
0.967401
0.978794
0.995097
1.05191
1.07091
1.08683
1.08943
1.07968
1.06172
1.03989
1.01827
0.998669
0.981744
0.96898
0.962817
0.965578
0.977592
0.99464
1.0536
1.07326
1.08962
1.09207
1.08165
1.06278
1.04005
1.01766
0.997449
0.980002
0.966874
0.960651
0.963744
0.976411
0.994229
1.05537
1.07569
1.09249
1.09474
1.08361
1.0638
1.04014
1.01701
0.996187
0.978223
0.964733
0.958455
0.9619
0.975241
0.993853
1.05722
1.07821
1.09542
1.09744
1.08555
1.06476
1.04015
1.01628
0.994867
0.976391
0.962544
0.956226
0.96005
0.974097
0.993529
1.05916
1.08081
1.09842
1.10016
1.08746
1.06565
1.0401
1.0155
0.993505
0.974523
0.96032
0.95397
0.958193
0.972971
0.993245
1.06118
1.08351
1.10149
1.10291
1.08934
1.06647
1.03995
1.01464
0.992084
0.972603
0.958049
0.951682
0.956335
0.971877
0.993016
1.06329
1.0863
1.10463
1.10567
1.09118
1.06721
1.03973
1.01372
0.990621
0.970646
0.955743
0.949368
0.954475
0.970808
0.992835
1.0655
1.08918
1.10783
1.10844
1.09296
1.06786
1.0394
1.01272
0.989101
0.968638
0.953392
0.947025
0.952618
0.969776
0.992716
1.0678
1.09215
1.1111
1.11122
1.09469
1.06841
1.03899
1.01166
0.987539
0.966592
0.951004
0.944656
0.950764
0.968775
0.992653
1.0702
1.09523
1.11443
1.11399
1.09634
1.06885
1.03847
1.01052
0.985922
0.964496
0.948571
0.942261
0.948919
0.967819
0.992659
1.0727
1.0984
1.11781
1.11675
1.09792
1.06919
1.03785
1.00931
0.984263
0.962361
0.946101
0.93984
0.947083
0.966902
0.99273
1.07531
1.10166
1.12125
1.1195
1.09941
1.06939
1.03711
1.00802
0.98255
0.960175
0.943585
0.937394
0.945261
0.966036
0.992876
1.07802
1.10503
1.12474
1.12222
1.1008
1.06947
1.03626
1.00667
0.980796
0.957948
0.941029
0.934924
0.943452
0.965219
0.993096
1.08085
1.10849
1.12827
1.1249
1.10209
1.06941
1.0353
1.00524
0.97899
0.95567
0.938426
0.932431
0.941664
0.96446
0.993398
1.08378
1.11206
1.13185
1.12754
1.10325
1.0692
1.03422
1.00374
0.977144
0.953347
0.935779
0.929913
0.939895
0.963758
0.993782
1.08683
1.11571
1.13546
1.13013
1.10428
1.06883
1.03301
1.00216
0.975246
0.950971
0.933083
0.927374
0.938154
0.963123
0.994254
1.09
1.11947
1.13909
1.13265
1.10517
1.0683
1.03168
1.00052
0.973307
0.948544
0.930338
0.924811
0.936438
0.962554
0.994818
1.09328
1.12331
1.14276
1.1351
1.1059
1.06759
1.03023
0.998812
0.971319
0.94606
0.92754
0.922228
0.934756
0.962062
0.995477
1.09669
1.12725
1.14643
1.13745
1.10647
1.06671
1.02865
0.997039
0.969287
0.943518
0.924687
0.919621
0.933108
0.961647
0.996237
1.10021
1.13128
1.15011
1.13971
1.10686
1.06565
1.02695
0.995198
0.967205
0.940913
0.921777
0.916997
0.931502
0.961319
0.9971
1.10386
1.13539
1.15379
1.14185
1.10705
1.06439
1.02513
0.9933
0.965077
0.938242
0.918804
0.91435
0.929938
0.96108
0.998072
1.10763
1.13958
1.15746
1.14387
1.10704
1.06293
1.02318
0.991341
0.962896
0.9355
0.915768
0.911689
0.928425
0.960939
0.999155
1.11152
1.14385
1.1611
1.14574
1.10681
1.06127
1.02111
0.98933
0.960663
0.932679
0.912663
0.909008
0.926965
0.960902
1.00036
1.11554
1.14819
1.16471
1.14745
1.10635
1.0594
1.01892
0.987263
0.958372
0.929778
0.909488
0.906317
0.925567
0.960975
1.00169
1.11968
1.1526
1.16827
1.14898
1.10564
1.05733
1.01663
0.985149
0.956022
0.926785
0.906236
0.90361
0.924233
0.961167
1.00316
1.12394
1.15707
1.17176
1.15031
1.10466
1.05503
1.01422
0.982985
0.953605
0.923698
0.90291
0.9009
0.922976
0.961486
1.00477
1.12832
1.16159
1.17518
1.15143
1.10341
1.05251
1.01171
0.980777
0.951118
0.920505
0.8995
0.898182
0.921798
0.96194
1.00652
1.13284
1.16616
1.17851
1.15231
1.10186
1.04977
1.00909
0.978523
0.948551
0.917203
0.896012
0.89547
0.920714
0.962537
1.00842
1.13746
1.17077
1.18172
1.15293
1.10001
1.04681
1.00639
0.976226
0.945898
0.913779
0.892437
0.892761
0.919727
0.963287
1.01047
1.14221
1.17541
1.1848
1.15326
1.09782
1.04362
1.0036
0.973883
0.94315
0.910231
0.888781
0.890073
0.918855
0.964198
1.01267
1.14708
1.18007
1.18773
1.15329
1.09529
1.04021
1.00073
0.971495
0.940296
0.906543
0.885039
0.887404
0.918104
0.965283
1.01504
1.15207
1.18475
1.19049
1.15297
1.0924
1.03657
0.997782
0.969056
0.937324
0.902716
0.881221
0.884776
0.917492
0.966547
1.01756
1.15717
1.18943
1.19305
1.15229
1.08914
1.03271
0.99477
0.966562
0.934222
0.898734
0.877322
0.882191
0.917028
0.968006
1.02026
1.16239
1.1941
1.19538
1.15121
1.08548
1.02862
0.991694
0.964004
0.930975
0.894599
0.873358
0.879673
0.916732
0.969666
1.02311
1.16772
1.19876
1.19747
1.1497
1.08141
1.02433
0.98856
0.961371
0.927568
0.890298
0.869328
0.877231
0.916618
0.971542
1.02615
1.17317
1.2034
1.19927
1.14772
1.07691
1.01982
0.985368
0.958649
0.923983
0.885835
0.865252
0.874892
0.916707
0.973642
1.02934
1.17873
1.20801
1.20077
1.14525
1.07197
1.0151
0.982118
0.955819
0.920201
0.881198
0.861137
0.872669
0.917016
0.975982
1.03272
1.18442
1.21257
1.20192
1.14225
1.06657
1.01018
0.978803
0.952858
0.916204
0.876397
0.857007
0.870596
0.917569
0.978567
1.03625
1.19023
1.21709
1.2027
1.13867
1.06072
1.00507
0.975415
0.949735
0.911967
0.871425
0.852878
0.868692
0.918384
0.981412
1.03996
1.19617
1.22155
1.20307
1.1345
1.05439
0.999778
0.971937
0.946416
0.90747
0.866297
0.848782
0.866994
0.919487
0.984524
1.04384
1.20224
1.22594
1.20299
1.1297
1.04759
0.994306
0.968345
0.942857
0.902687
0.861012
0.844743
0.86553
0.920901
0.987917
1.04788
1.20846
1.23028
1.20244
1.12423
1.04032
0.988666
0.964609
0.939007
0.897595
0.855592
0.8408
0.86434
0.922649
0.991594
1.05207
1.21484
1.23453
1.20136
1.11808
1.0326
0.982869
0.960684
0.934805
0.892164
0.850044
0.836986
0.863458
0.924756
0.995568
1.05641
1.2214
1.23872
1.19974
1.11121
1.02445
0.976925
0.956519
0.930185
0.886372
0.844399
0.833349
0.862928
0.927245
0.999837
1.06088
1.22815
1.24282
1.19752
1.10362
1.0159
0.970846
0.952043
0.925067
0.880191
0.838673
0.82993
0.862784
0.930137
1.00441
1.06549
1.23514
1.24685
1.19468
1.0953
1.007
0.964644
0.947182
0.919371
0.873601
0.832905
0.826782
0.86307
0.933449
1.00927
1.07019
1.24238
1.25079
1.19116
1.08625
0.997826
0.958331
0.941841
0.913008
0.866579
0.827121
0.823948
0.863818
0.937193
1.01443
1.07499
1.24992
1.25465
1.18695
1.07648
0.988451
0.951917
0.935927
0.9059
0.859122
0.821371
0.821479
0.865059
0.941374
1.01986
1.07984
1.25778
1.2584
1.18199
1.06603
0.978974
0.945404
0.929335
0.897978
0.851231
0.815688
0.819411
0.866809
0.945983
1.02553
1.08472
1.26605
1.26205
1.17626
1.05493
0.969501
0.938781
0.921984
0.889222
0.842947
0.810131
0.817778
0.869071
0.950994
1.03141
1.08958
1.27476
1.26557
1.16972
1.04325
0.960116
0.931994
0.913818
0.879673
0.834337
0.80474
0.816581
0.871815
0.956356
1.03743
1.09436
1.28398
1.26893
1.16235
1.03107
0.950851
0.924903
0.904869
0.869551
0.825579
0.799582
0.815798
0.874967
0.961972
1.04349
1.09897
1.29378
1.27208
1.15414
1.01852
0.941625
0.917195
0.895231
0.859288
0.817015
0.794766
0.815369
0.878388
0.967682
1.04944
1.10329
1.30425
1.27499
1.14513
1.00571
0.932166
0.908378
0.885101
0.849551
0.809234
0.790553
0.815281
0.881913
0.973271
1.05508
1.10714
1.31547
1.27755
1.1354
0.992692
0.921981
0.897919
0.874849
0.841102
0.802947
0.787312
0.815582
0.885392
0.978504
1.06017
1.11034
1.32753
1.27973
1.12502
0.979375
0.910508
0.88564
0.865117
0.83467
0.798825
0.785455
0.8164
0.888738
0.983177
1.06447
1.11267
1.34049
1.2815
1.11402
0.96544
0.897474
0.872098
0.856718
0.830701
0.797162
0.785173
0.817801
0.891885
0.987132
1.0678
1.11399
1.35447
1.28306
1.10215
0.950143
0.883249
0.858793
0.850539
0.829334
0.797728
0.786247
0.819637
0.894703
0.990228
1.07001
1.11417
1.36967
1.28451
1.08868
0.932616
0.869072
0.848137
0.847608
0.830472
0.799785
0.787941
0.8214
0.896888
0.992275
1.07099
1.11317
1.38656
1.28536
1.07286
0.912956
0.856923
0.842728
0.849009
0.833897
0.802364
0.789228
0.822322
0.897957
0.993007
1.0706
1.11093
1.40568
1.28435
1.05431
0.893294
0.84938
0.84459
0.855323
0.839016
0.804388
0.789048
0.821598
0.89742
0.992174
1.06877
1.10749
1.42723
1.28003
1.03228
0.877081
0.848578
0.854697
0.866317
0.844843
0.804842
0.786603
0.818704
0.894999
0.989674
1.06548
1.10292
1.45087
1.27122
1.00593
0.866335
0.853796
0.872029
0.881155
0.850448
0.803166
0.78175
0.813787
0.890988
0.985823
1.06106
1.09745
1.47561
1.25759
0.97699
0.859281
0.860305
0.892055
0.898047
0.855409
0.799792
0.775501
0.808161
0.886696
0.981709
1.05631
1.09154
1.49947
1.23998
0.94942
0.849398