/*--------------------------------*- C++ -*----------------------------------*\
  =========                 |
  \\      /  F ield         | OpenFOAM: The Open Source CFD Toolbox
   \\    /   O peration     | Website:  https://openfoam.org
    \\  /    A nd           | Version:  6.0
     \\/     M anipulation  |
\*---------------------------------------------------------------------------*/
FoamFile
{
    version     2.0;
    format      ascii;
    class       volVectorField;
    location    "16";
    object      U;
}
// * * * * * * * * * * * * * * * * * * * * * * * * * * * * * * * * * * * * * //

dimensions      [0 1 -1 0 0 0 0];

internalField   nonuniform List<vector> 
34500
(
(0.999994 2.48418e-05 -9.44182e-18)
(0.999955 -4.60356e-05 9.05421e-17)
(0.999898 -0.000114613 2.2909e-17)
(0.999838 -0.00014562 -1.34769e-17)
(0.999766 -0.000177346 1.31977e-16)
(0.999686 -0.000256155 3.05025e-16)
(0.999638 -0.000359614 1.52488e-17)
(0.999613 -0.000457185 -2.39998e-16)
(0.999591 -0.000565237 3.6989e-16)
(0.999552 -0.000739017 -2.20899e-17)
(0.999519 -0.000994835 -2.81128e-16)
(0.999503 -0.00138639 -4.62204e-16)
(0.999528 -0.00181472 2.15346e-16)
(0.999964 -0.00280593 4.43103e-16)
(0.993047 -0.00775838 -3.98346e-16)
(0.999979 -2.31792e-05 -2.98987e-17)
(0.999922 -0.000204231 -8.05552e-17)
(0.999855 -0.000271803 1.89536e-16)
(0.999763 -0.000239502 -1.0473e-16)
(0.99963 -0.000279686 -6.85273e-17)
(0.999506 -0.000445978 -5.98668e-16)
(0.999468 -0.000607415 9.86844e-17)
(0.999473 -0.000696837 1.59502e-16)
(0.999456 -0.000791028 -2.76223e-16)
(0.999392 -0.00102563 -4.53232e-16)
(0.999326 -0.00142264 -1.92284e-16)
(0.999315 -0.00206197 -3.95215e-16)
(0.999215 -0.00271239 -3.06503e-16)
(1.00035 -0.00416936 -5.86588e-16)
(0.994845 -0.00873278 7.11004e-16)
(0.999958 -0.000100471 -2.22782e-17)
(0.999918 -0.000325981 9.86909e-17)
(0.999888 -0.000333681 3.52694e-17)
(0.999823 -0.000224885 -4.56221e-17)
(0.999699 -0.000266579 -1.09321e-16)
(0.999597 -0.00047342 6.46525e-17)
(0.999614 -0.000612821 -5.74768e-17)
(0.999694 -0.000585586 -8.8869e-17)
(0.999751 -0.000501653 4.63299e-16)
(0.999739 -0.000554338 -2.56358e-16)
(0.999692 -0.000785331 3.55495e-16)
(0.999706 -0.00127822 5.17049e-16)
(0.999389 -0.00182972 -3.45379e-16)
(1.00056 -0.00309429 3.15143e-16)
(0.997695 -0.00567291 -5.20944e-17)
(0.999929 -0.000166901 4.01405e-18)
(0.999901 -0.000392902 -1.63736e-16)
(0.9999 -0.000343674 -1.64102e-16)
(0.999854 -0.000201625 7.40657e-17)
(0.999729 -0.000283255 -2.73849e-16)
(0.99961 -0.000562399 1.37897e-16)
(0.999613 -0.000740806 3.36115e-16)
(0.999709 -0.000689401 -2.47243e-16)
(0.999811 -0.000525112 -9.71755e-16)
(0.999858 -0.00046916 3.15556e-16)
(0.999853 -0.00059027 -4.87416e-17)
(0.999916 -0.000978763 2.68524e-16)
(0.999475 -0.00153101 4.32853e-16)
(1.00032 -0.00274763 -2.59595e-16)
(0.998405 -0.00528761 -1.98978e-16)
(0.999898 -0.000208634 4.87702e-17)
(0.999872 -0.000412357 9.34402e-17)
(0.99989 -0.00032777 -1.19799e-16)
(0.999862 -0.000188157 5.03208e-17)
(0.999734 -0.000323323 3.36426e-16)
(0.999568 -0.000680772 4.31764e-16)
(0.999495 -0.000944358 -8.70624e-16)
(0.999533 -0.000969463 3.36661e-16)
(0.999617 -0.000862831 9.27021e-16)
(0.999695 -0.000837168 -3.8715e-16)
(0.999735 -0.000972682 -1.1326e-16)
(0.999871 -0.00135472 -2.99724e-17)
(0.999439 -0.0019593 -2.68336e-16)
(0.999943 -0.00317452 5.94735e-16)
(0.998547 -0.00573457 -3.9069e-16)
(0.99987 -0.000227653 2.83186e-17)
(0.999847 -0.000402636 3.49635e-17)
(0.999896 -0.000302535 1.26275e-16)
(0.999922 -0.000173482 -1.45152e-16)
(0.999838 -0.000326034 -6.50467e-17)
(0.999663 -0.000698495 -4.06338e-16)
(0.999522 -0.000999842 3.22128e-16)
(0.999477 -0.0010967 -8.17621e-17)
(0.999507 -0.00107973 -3.71431e-16)
(0.999581 -0.00113194 7.45425e-16)
(0.999644 -0.00132151 1.42406e-16)
(0.999837 -0.00171307 3.99077e-17)
(0.999474 -0.00232982 4.21455e-16)
(0.999707 -0.00347309 -1.20882e-15)
(0.998794 -0.00573991 4.55897e-16)
(0.999847 -0.000230355 -4.92809e-17)
(0.999826 -0.000384447 5.55626e-17)
(0.999916 -0.000290423 9.74926e-17)
(1.00003 -0.000173017 2.73704e-16)
(1.00004 -0.000297813 7.59317e-17)
(0.999918 -0.000604738 3.44687e-16)
(0.999759 -0.000857647 -1.48193e-16)
(0.999654 -0.000962557 -6.36509e-16)
(0.999623 -0.000999248 -5.76132e-16)
(0.999666 -0.00111751 -7.91297e-16)
(0.999719 -0.00136008 -3.36297e-16)
(0.999927 -0.00176304 1.2921e-17)
(0.999623 -0.00238623 -3.10745e-16)
(0.999644 -0.00346805 1.03046e-15)
(0.998999 -0.00560651 -1.34413e-16)
(0.999825 -0.000223046 -3.21122e-17)
(0.999795 -0.000372175 -2.25423e-17)
(0.999912 -0.000310629 -4.52334e-17)
(1.0001 -0.000218814 -1.46882e-16)
(1.00022 -0.000299602 1.085e-16)
(1.00019 -0.000498425 4.11658e-18)
(1.00006 -0.000647553 1.05174e-16)
(0.99993 -0.000710677 6.85053e-16)
(0.999852 -0.000766664 5.57132e-17)
(0.999855 -0.000937734 -3.10565e-16)
(0.999879 -0.00123978 4.30434e-16)
(1.00007 -0.00167941 -3.93611e-17)
(0.999802 -0.00234989 -7.68691e-18)
(0.999675 -0.00344847 1.85446e-16)
(0.99909 -0.00568066 -3.89623e-16)
(0.999804 -0.000209666 -2.78225e-18)
(0.999744 -0.000371826 -1.1926e-16)
(0.999851 -0.000369392 -2.71667e-17)
(1.00007 -0.000328141 1.89731e-16)
(1.00028 -0.000381703 -1.44023e-16)
(1.00033 -0.000479279 2.30017e-16)
(1.00025 -0.00052088 1.50713e-16)
(1.00012 -0.000532413 1.03173e-17)
(1.00003 -0.000599355 1.38275e-16)
(1 -0.000823487 3.4625e-17)
(1 -0.00119831 -4.07486e-16)
(1.00017 -0.00170194 2.52959e-16)
(0.999938 -0.00245052 -1.59586e-16)
(0.99974 -0.00361411 -8.18451e-16)
(0.999162 -0.00596724 4.89664e-16)
(0.999778 -0.000193165 9.13251e-17)
(0.999673 -0.000381872 7.29924e-17)
(0.999732 -0.000457492 -3.24364e-17)
(0.999928 -0.000491181 -1.63352e-16)
(1.00016 -0.000549709 -1.65127e-16)
(1.00027 -0.000583216 -6.30081e-16)
(1.00024 -0.000549276 4.45495e-16)
(1.00014 -0.000528763 9.64644e-18)
(1.00005 -0.000616081 7.68121e-16)
(1.00003 -0.000897349 7.77041e-16)
(1.00003 -0.00134893 -2.24139e-16)
(1.00019 -0.00192153 -6.64101e-17)
(1.00001 -0.00273821 3.88183e-16)
(0.999821 -0.00394952 6.83304e-16)
(0.99932 -0.00632671 -5.26427e-16)
(0.999749 -0.000175128 -2.66183e-17)
(0.999593 -0.00039758 4.98126e-17)
(0.999578 -0.000557755 2.14264e-17)
(0.999709 -0.000678859 -4.11854e-17)
(0.999923 -0.000771547 -1.40633e-16)
(1.00005 -0.000784624 -2.04312e-17)
(1.00006 -0.000718903 -4.7176e-16)
(0.999999 -0.000696278 -6.62287e-16)
(0.999944 -0.000817168 -8.28502e-16)
(0.999957 -0.00115435 -4.90034e-16)
(0.999988 -0.00167121 2.79738e-16)
(1.00017 -0.00229327 -3.2872e-16)
(1.00006 -0.00313719 -2.3888e-16)
(0.999921 -0.00434144 -8.93269e-16)
(0.999602 -0.00663222 2.97641e-16)
(0.999716 -0.000157113 -7.46341e-17)
(0.999516 -0.000413058 -1.11414e-16)
(0.999422 -0.000651663 -5.37839e-18)
(0.999467 -0.000858058 9.62585e-17)
(0.999626 -0.00100106 1.24248e-16)
(0.999741 -0.00102852 -1.61864e-16)
(0.999775 -0.000969927 -1.73029e-16)
(0.999761 -0.000972002 2.14868e-16)
(0.999759 -0.00113552 1.04701e-15)
(0.999827 -0.00152039 -9.88374e-17)
(0.999917 -0.0020804 -1.5641e-16)
(1.00014 -0.0027201 2.7593e-16)
(1.00011 -0.00354333 4.1915e-18)
(1.00005 -0.00468617 2.29571e-16)
(0.999992 -0.00682152 4.87693e-17)
(0.999681 -0.000139874 1.07554e-16)
(0.999452 -0.000424228 7.07641e-17)
(0.999292 -0.000725982 -1.83875e-16)
(0.999252 -0.00100278 -7.44272e-17)
(0.999343 -0.00119814 5.38846e-18)
(0.999429 -0.0012607 3.05529e-16)
(0.999477 -0.0012363 4.16473e-16)
(0.999508 -0.00128146 3.07496e-16)
(0.999568 -0.00149073 -4.92586e-16)
(0.999706 -0.00191116 6.66918e-16)
(0.999867 -0.00248987 -2.12518e-16)
(1.00014 -0.00311643 1.67694e-16)
(1.00019 -0.00388171 7.8182e-16)
(1.00021 -0.00493009 -2.46671e-17)
(1.00044 -0.00688779 1.5854e-18)
(0.999646 -0.000124375 -6.27146e-18)
(0.999406 -0.000428496 -6.12002e-17)
(0.999202 -0.000773548 2.51895e-16)
(0.999095 -0.0010994 1.07655e-16)
(0.999122 -0.00133885 -4.08599e-17)
(0.999174 -0.00144461 3.47261e-16)
(0.999229 -0.00146936 -7.13736e-16)
(0.999302 -0.0015672 -4.51441e-16)
(0.999425 -0.00182094 -3.85753e-16)
(0.999635 -0.00226465 -5.61703e-16)
(0.999872 -0.00284168 3.33006e-16)
(1.0002 -0.0034331 -1.42791e-16)
(1.00032 -0.00412017 -1.04701e-15)
(1.0004 -0.00506459 4.71139e-16)
(1.00091 -0.00685848 1.02542e-16)
(0.999612 -0.000110817 -3.54175e-17)
(0.99938 -0.000425731 2.34375e-17)
(0.999158 -0.00079411 -3.06801e-17)
(0.999007 -0.00114608 -1.87394e-16)
(0.998984 -0.00141663 1.41949e-17)
(0.999006 -0.00156525 1.82931e-16)
(0.999066 -0.00164491 3.21741e-16)
(0.999177 -0.00179854 4.71468e-16)
(0.999359 -0.00209312 2.213e-16)
(0.999637 -0.00255021 -2.0188e-16)
(0.999943 -0.00311196 3.14175e-17)
(1.00033 -0.00365698 2.23131e-16)
(1.00049 -0.00426094 -1.24765e-16)
(1.00062 -0.00510906 -5.54163e-16)
(1.00136 -0.00677092 1.80622e-17)
(0.999581 -9.963e-05 -2.61856e-17)
(0.99937 -0.000416649 1.12101e-17)
(0.999152 -0.000791314 6.13368e-17)
(0.998984 -0.00115005 7.50676e-17)
(0.99893 -0.00143862 -1.06712e-16)
(0.998931 -0.00162579 -7.00028e-16)
(0.998997 -0.00176048 -2.06882e-16)
(0.999142 -0.00196885 -3.46565e-16)
(0.999377 -0.00229997 -6.01352e-16)
(0.999714 -0.00276369 6.55852e-16)
(1.00008 -0.00330317 3.79124e-16)
(1.0005 -0.00379932 -4.10174e-16)
(1.00071 -0.00432537 1.05139e-15)
(1.00085 -0.00509323 2.10966e-16)
(1.00178 -0.00666102 6.96165e-17)
(0.999553 -9.0514e-05 1.63456e-17)
(0.999371 -0.000403416 -8.09273e-17)
(0.999175 -0.00077209 -3.38038e-16)
(0.99901 -0.00112345 7.94042e-17)
(0.998944 -0.00142009 3.35621e-16)
(0.998937 -0.00164083 2.99218e-17)
(0.999012 -0.00182795 6.411e-17)
(0.999188 -0.00208798 -1.28793e-17)
(0.999468 -0.00245146 7.3391e-16)
(0.999854 -0.00291785 -1.911e-16)
(1.00027 -0.00343296 -5.15176e-16)
(1.00072 -0.00388335 -1.09362e-16)
(1.00094 -0.00434151 -4.57323e-17)
(1.0011 -0.00504704 2.27792e-16)
(1.00215 -0.00655513 -3.74793e-16)
(0.99953 -8.34983e-05 2.17099e-17)
(0.999379 -0.000387968 5.91575e-17)
(0.999215 -0.000743585 2.21922e-16)
(0.99907 -0.00108025 -1.98441e-16)
(0.999008 -0.00137944 -2.05755e-16)
(0.999004 -0.00163008 1.10727e-16)
(0.999094 -0.00186622 2.12728e-16)
(0.999299 -0.00217391 4.20565e-16)
(0.999617 -0.00256595 -5.60578e-16)
(1.00004 -0.00303286 1.20243e-17)
(1.00049 -0.00352429 -1.66081e-16)
(1.00096 -0.00393438 1.63082e-17)
(1.0012 -0.00433539 -2.12258e-16)
(1.00136 -0.00499421 6.5208e-17)
(1.00247 -0.00647064 6.21771e-16)
(0.999509 -7.80271e-05 -2.79471e-18)
(0.999387 -0.00037289 1.01705e-16)
(0.999261 -0.000713334 -1.00741e-16)
(0.999145 -0.00103351 2.79149e-16)
(0.9991 -0.00133428 9.82126e-17)
(0.99911 -0.0016131 1.57606e-16)
(0.999219 -0.00189506 2.96937e-16)
(0.999453 -0.00224623 -6.62814e-16)
(0.999804 -0.00266324 1.51722e-16)
(1.00026 -0.00312936 -4.35409e-17)
(1.00074 -0.00359877 4.68078e-16)
(1.00122 -0.00397415 -2.8057e-16)
(1.00145 -0.0043272 -1.35426e-16)
(1.00161 -0.00495098 -4.66085e-17)
(1.00275 -0.00641492 -1.36151e-16)
(0.999491 -7.40493e-05 -3.18047e-17)
(0.999393 -0.00035991 -2.42597e-17)
(0.999305 -0.0006871 3.20521e-16)
(0.999223 -0.000994195 -2.12486e-16)
(0.999203 -0.00129921 1.50455e-16)
(0.999235 -0.00160639 -2.79194e-16)
(0.999369 -0.00193142 -5.98777e-17)
(0.999631 -0.00232181 4.84656e-16)
(1.00001 -0.00276023 2.32506e-16)
(1.00049 -0.00322429 3.43321e-16)
(1.00099 -0.00367315 -5.85937e-16)
(1.00147 -0.00401814 6.52109e-16)
(1.00171 -0.0043298 -1.71214e-16)
(1.00186 -0.00492581 -1.60761e-16)
(1.00299 -0.00638975 -1.11332e-16)
(0.999474 -7.10736e-05 4.10968e-17)
(0.999394 -0.000351089 1.23222e-17)
(0.999341 -0.000669976 -3.80369e-16)
(0.999294 -0.000970279 -1.57192e-17)
(0.999303 -0.00128477 -1.2204e-16)
(0.999363 -0.00162177 2.27432e-16)
(0.999526 -0.00198753 -9.83277e-17)
(0.999819 -0.00241293 -1.99799e-16)
(1.00023 -0.00286903 3.13869e-16)
(1.00073 -0.00332939 -7.13394e-17)
(1.00124 -0.00375833 7.4534e-16)
(1.00173 -0.00407563 -7.62272e-16)
(1.00196 -0.0043499 2.32397e-16)
(1.00211 -0.00492194 -7.71858e-17)
(1.00321 -0.00639166 -1.59871e-16)
(0.999455 -6.92138e-05 -5.52597e-18)
(0.999389 -0.000347434 -1.73098e-16)
(0.999365 -0.000664867 1.47399e-16)
(0.999351 -0.000966985 5.56519e-17)
(0.999393 -0.00129744 -7.49963e-17)
(0.999486 -0.00166636 -7.53949e-17)
(0.999681 -0.00207066 1.69062e-16)
(1 -0.00252678 3.4603e-16)
(1.00044 -0.00299661 -3.7569e-16)
(1.00096 -0.00345111 -7.85919e-17)
(1.00149 -0.00385984 -4.12263e-16)
(1.00197 -0.00415051 7.63162e-16)
(1.0022 -0.00438929 -8.37606e-17)
(1.00234 -0.00493849 -4.28897e-17)
(1.0034 -0.00641649 1.5118e-16)
(0.999433 -6.8191e-05 5.99613e-18)
(0.999376 -0.000350249 1.10573e-16)
(0.999377 -0.000674081 -5.31506e-18)
(0.999393 -0.000986847 1.2449e-16)
(0.999468 -0.00134003 -1.5853e-16)
(0.999596 -0.00174293 5.57193e-17)
(0.999827 -0.00218356 -5.51282e-17)
(1.00018 -0.00266611 -2.88662e-16)
(1.00064 -0.00314554 7.84101e-17)
(1.00118 -0.00359158 -3.04326e-16)
(1.00172 -0.00397899 9.33709e-17)
(1.0022 -0.00424295 -4.21417e-16)
(1.00242 -0.00444671 -5.35435e-17)
(1.00257 -0.00497267 8.46479e-17)
(1.00358 -0.00645796 -1.40779e-16)
(0.999407 -6.83261e-05 -2.99206e-17)
(0.999356 -0.000359765 -2.80668e-17)
(0.999377 -0.00069801 -8.43253e-18)
(0.99942 -0.00103041 -1.77013e-16)
(0.999527 -0.00141248 -7.48525e-18)
(0.999692 -0.00185101 1.20754e-16)
(0.999959 -0.0023255 2.18998e-17)
(1.00035 -0.0028301 2.95439e-16)
(1.00083 -0.00331495 -1.16419e-16)
(1.00139 -0.00374966 4.26885e-16)
(1.00194 -0.00411413 -5.39577e-17)
(1.00242 -0.00435048 -3.02273e-18)
(1.00263 -0.00451886 -1.54125e-16)
(1.00278 -0.00502023 -3.61118e-16)
(1.00374 -0.00651129 1.65146e-16)
(0.999375 -6.94923e-05 2.52071e-17)
(0.999329 -0.00037658 8.70182e-17)
(0.999365 -0.000736884 3.19545e-17)
(0.999433 -0.00109654 -3.32602e-17)
(0.999571 -0.00151265 3.3798e-16)
(0.999773 -0.00198765 -7.27093e-17)
(1.00008 -0.00249328 -3.12257e-16)
(1.0005 -0.00301563 -1.65388e-16)
(1.00101 -0.0035018 1.79981e-16)
(1.00158 -0.00392229 -4.63139e-16)
(1.00214 -0.004262 -2.33943e-16)
(1.00262 -0.00446955 -7.32825e-17)
(1.00283 -0.00460192 2.94647e-16)
(1.00298 -0.00507724 -1.5401e-16)
(1.00389 -0.00657078 -1.3058e-16)
(0.999337 -7.20905e-05 -5.25421e-17)
(0.999296 -0.000400267 -5.44399e-17)
(0.999345 -0.000789456 -1.04132e-16)
(0.999433 -0.00118312 2.40836e-17)
(0.999601 -0.00163708 5.30874e-17)
(0.999839 -0.00214859 -9.01846e-17)
(1.00018 -0.00268233 -3.27461e-17)
(1.00063 -0.00321821 -3.23511e-17)
(1.00117 -0.00370186 3.47586e-17)
(1.00176 -0.00410541 1.09417e-16)
(1.00233 -0.00441863 5.04076e-16)
(1.00281 -0.00459622 1.91573e-16)
(1.00302 -0.004692 -1.73044e-16)
(1.00317 -0.0051399 3.24269e-16)
(1.00403 -0.00663389 5.93357e-17)
(0.999293 -7.60009e-05 3.60556e-17)
(0.999258 -0.000430885 -1.17993e-16)
(0.999316 -0.000854764 1.29663e-16)
(0.999424 -0.00128729 -1.40639e-16)
(0.999619 -0.00178156 -1.07947e-16)
(0.999893 -0.00232876 -1.00377e-16)
(1.00027 -0.00288743 -4.14988e-17)
(1.00076 -0.00343291 -1.18745e-16)
(1.00132 -0.00391058 -2.16105e-16)
(1.00192 -0.00429483 2.27067e-16)
(1.0025 -0.00458014 -2.90588e-16)
(1.00299 -0.00472686 -2.52783e-16)
(1.00319 -0.00478582 1.75718e-16)
(1.00335 -0.00520536 -1.81318e-16)
(1.00415 -0.00669716 -8.51695e-17)
(0.999242 -8.15631e-05 1.10075e-17)
(0.999214 -0.000467527 -1.67959e-17)
(0.999281 -0.000930722 -4.06008e-17)
(0.999406 -0.00140593 3.75155e-17)
(0.999628 -0.00194165 -1.22362e-16)
(0.999937 -0.00252304 9.38619e-17)
(1.00035 -0.00310334 3.189e-16)
(1.00087 -0.00365477 4.46983e-16)
(1.00145 -0.00412351 -1.17101e-16)
(1.00207 -0.00448654 -2.53465e-16)
(1.00266 -0.0047429 -1.30249e-16)
(1.00315 -0.00485822 2.01581e-16)
(1.00335 -0.00488047 -2.46968e-16)
(1.00351 -0.00527098 8.06147e-16)
(1.00427 -0.00676019 3.62556e-16)
(0.999185 -8.85514e-05 -4.44442e-17)
(0.999165 -0.000509884 7.22083e-17)
(0.99924 -0.00101585 1.0776e-16)
(0.999382 -0.00153573 1.15513e-16)
(0.99963 -0.00211295 -1.43063e-16)
(0.999971 -0.00272646 -2.82341e-17)
(1.00042 -0.00332517 7.31641e-17)
(1.00096 -0.00387936 1.88903e-17)
(1.00157 -0.00433671 3.53045e-16)
(1.00221 -0.00467715 2.23242e-16)
(1.00281 -0.00490402 3.97491e-16)
(1.0033 -0.00498783 5.32142e-17)
(1.00349 -0.00497391 8.9911e-17)
(1.00366 -0.00533535 -3.6494e-16)
(1.00438 -0.00682003 -3.46719e-16)
(0.999121 -9.71676e-05 1.89362e-17)
(0.999111 -0.000556763 4.89437e-17)
(0.999194 -0.00110783 -2.08666e-16)
(0.999352 -0.00167361 1.92454e-16)
(0.999624 -0.00229145 1.56081e-16)
(0.999997 -0.00293468 3.00908e-16)
(1.00048 -0.00354869 -5.82266e-17)
(1.00105 -0.00410286 -3.27343e-17)
(1.00168 -0.00454697 -1.13838e-16)
(1.00233 -0.00486396 6.64661e-17)
(1.00294 -0.00506125 -6.98494e-16)
(1.00343 -0.00511388 5.45179e-16)
(1.00363 -0.00506465 -5.12803e-17)
(1.00381 -0.00539734 -5.18888e-16)
(1.00448 -0.00687811 2.66767e-16)
(0.999052 -0.000107053 3.36739e-17)
(0.999053 -0.000607684 7.13231e-17)
(0.999144 -0.00120514 2.27764e-16)
(0.999317 -0.00181661 -3.23649e-16)
(0.999613 -0.00247353 2.57701e-17)
(1.00002 -0.00314385 -2.31575e-16)
(1.00052 -0.00377033 2.27692e-17)
(1.00113 -0.00432225 -4.46832e-16)
(1.00178 -0.00475181 3.02074e-16)
(1.00244 -0.00504501 -3.6513e-16)
(1.00307 -0.00521308 5.27985e-16)
(1.00356 -0.00523526 -6.06095e-16)
(1.00375 -0.00515196 -3.00311e-16)
(1.00394 -0.00545626 2.12866e-16)
(1.00457 -0.00693388 -2.13332e-16)
(0.998978 -0.000118281 -3.98282e-17)
(0.998991 -0.000661345 -3.39425e-17)
(0.99909 -0.00130557 -4.00486e-17)
(0.999278 -0.00196213 1.2559e-17)
(0.999596 -0.00265612 -1.89969e-17)
(1.00003 -0.00335091 -2.77284e-16)
(1.00057 -0.00398732 -2.59164e-16)
(1.00119 -0.0045352 1.76479e-16)
(1.00186 -0.00494941 8.45777e-17)
(1.00254 -0.00521895 5.54146e-16)
(1.00318 -0.00535852 -4.14466e-16)
(1.00367 -0.00535125 1.07301e-16)
(1.00387 -0.00523525 3.96202e-17)
(1.00406 -0.00551168 -8.5455e-17)
(1.00465 -0.00698926 3.22172e-16)
(0.998899 -0.000130395 2.34361e-17)
(0.998924 -0.000717252 -4.01087e-17)
(0.999032 -0.00140786 1.65549e-17)
(0.999234 -0.00210786 1.65724e-16)
(0.999575 -0.00283661 8.11472e-17)
(1.00003 -0.00355332 4.21649e-16)
(1.0006 -0.0041975 8.47748e-17)
(1.00125 -0.00474008 -7.48098e-17)
(1.00194 -0.00513862 -2.61663e-16)
(1.00263 -0.00538498 -3.59387e-16)
(1.00327 -0.00549709 3.14778e-16)
(1.00378 -0.00546162 2.53966e-17)
(1.00397 -0.00531442 1.56459e-16)
(1.00417 -0.00556385 1.79288e-16)
(1.00472 -0.00704229 -7.42101e-17)
(0.998816 -0.000143394 -2.92898e-17)
(0.998852 -0.000774147 -1.05043e-16)
(0.998969 -0.00151012 -6.63456e-17)
(0.999186 -0.00225193 1.17327e-16)
(0.999548 -0.00301303 7.60715e-17)
(1.00003 -0.00374928 4.97209e-17)
(1.00062 -0.00439944 1.97273e-17)
(1.0013 -0.00493584 3.38794e-16)
(1.002 -0.00531881 1.13691e-16)
(1.00271 -0.00554281 -2.40156e-16)
(1.00336 -0.00562869 -4.84309e-17)
(1.00387 -0.00556643 -2.50004e-16)
(1.00407 -0.0053896 -2.30758e-16)
(1.00427 -0.00561305 5.74327e-17)
(1.00479 -0.00709516 -1.18351e-16)
(0.998729 -0.000156789 2.37289e-17)
(0.998776 -0.000831652 1.279e-16)
(0.998902 -0.0016115 -7.56701e-17)
(0.999134 -0.00239273 -5.41684e-17)
(0.999515 -0.00318377 7.64731e-17)
(1.00002 -0.00393744 -4.9256e-17)
(1.00064 -0.00459219 -7.99678e-17)
(1.00133 -0.00512201 -2.09266e-16)
(1.00206 -0.00548981 4.56434e-17)
(1.00278 -0.00569253 5.24895e-16)
(1.00344 -0.0057536 1.76595e-16)
(1.00395 -0.00566605 4.70368e-16)
(1.00415 -0.0054612 1.99197e-16)
(1.00437 -0.00565959 2.78021e-16)
(1.00485 -0.00714728 2.5228e-17)
(0.998637 -0.000170567 2.8543e-17)
(0.998695 -0.000888656 3.55554e-17)
(0.99883 -0.00171051 9.25144e-17)
(0.999076 -0.00252909 -1.64995e-16)
(0.999477 -0.00334776 -4.22884e-16)
(1.00001 -0.00411701 -7.18513e-17)
(1.00064 -0.00477531 -3.48313e-18)
(1.00136 -0.00529843 4.5773e-17)
(1.0021 -0.00565176 2.40419e-17)
(1.00283 -0.00583443 -3.2953e-16)
(1.00351 -0.0058722 1.96993e-16)
(1.00403 -0.00576086 -3.18947e-16)
(1.00423 -0.00552951 -1.03872e-16)
(1.00446 -0.0057039 -3.43317e-16)
(1.00491 -0.00719983 -1.93427e-17)
(0.998542 -0.000184258 -3.97735e-17)
(0.99861 -0.000944966 -6.81276e-17)
(0.998754 -0.00180671 -6.06157e-17)
(0.999014 -0.00266005 -3.12175e-17)
(0.999433 -0.00350419 6.29895e-17)
(0.999985 -0.00428748 -1.67047e-16)
(1.00064 -0.00494865 7.10191e-17)
(1.00138 -0.00546528 1.87e-16)
(1.00214 -0.00580505 -2.4863e-16)
(1.00288 -0.00596902 1.08264e-16)
(1.00357 -0.00598503 1.20169e-16)
(1.0041 -0.00585137 9.24074e-17)
(1.00431 -0.00559497 6.52475e-16)
(1.00454 -0.00574662 3.41413e-17)
(1.00496 -0.00725112 -1.59985e-16)
(0.998444 -0.000197887 9.60648e-18)
(0.99852 -0.000999667 -3.85796e-18)
(0.998674 -0.00189904 -6.70708e-17)
(0.998947 -0.00278504 2.66071e-16)
(0.999383 -0.00365271 8.02733e-18)
(0.999955 -0.00444879 1.75581e-16)
(1.00063 -0.00511244 -9.76125e-17)
(1.00139 -0.005623 -5.01833e-16)
(1.00216 -0.00595027 2.31956e-16)
(1.00292 -0.00609695 1.5008e-17)
(1.00362 -0.00609273 -5.61797e-16)
(1.00416 -0.00593818 3.72703e-18)
(1.00437 -0.0056581 -4.1854e-16)
(1.00461 -0.00578817 2.26803e-16)
(1.00501 -0.00730329 5.66797e-17)
(0.998342 -0.000211042 1.34602e-17)
(0.998426 -0.00105278 -9.83762e-18)
(0.998588 -0.00198745 1.60415e-16)
(0.998874 -0.00290365 -1.05419e-16)
(0.999327 -0.00379313 -1.63472e-16)
(0.999919 -0.00460106 -3.9867e-16)
(1.00062 -0.00526707 -1.92957e-16)
(1.00139 -0.00577223 2.12426e-16)
(1.00218 -0.00608816 5.15722e-17)
(1.00295 -0.00621899 -2.79512e-16)
(1.00367 -0.00619605 1.81192e-16)
(1.00421 -0.00602194 -4.88821e-17)
(1.00443 -0.00571947 1.55003e-16)
(1.00468 -0.00582935 -4.0872e-17)
(1.00507 -0.00735345 -1.07672e-16)
(0.998236 -0.000223807 -3.3227e-17)
(0.998327 -0.0011036 2.83377e-17)
(0.998498 -0.00207125 -9.34063e-17)
(0.998796 -0.00301579 -5.69005e-17)
(0.999265 -0.00392561 2.54305e-16)
(0.999875 -0.00474468 6.16448e-16)
(1.00059 -0.00541315 4.05668e-16)
(1.00138 -0.00591366 1.61041e-16)
(1.00219 -0.00621946 2.94641e-17)
(1.00298 -0.00633587 3.43377e-17)
(1.0037 -0.00629563 1.23375e-16)
(1.00426 -0.00610318 -1.84956e-16)
(1.00449 -0.00577946 -2.52782e-17)
(1.00475 -0.00587021 1.36217e-16)
(1.00512 -0.00740407 2.82279e-16)
(0.998127 -0.000235842 1.00795e-17)
(0.998225 -0.00115235 -3.56802e-17)
(0.998404 -0.00215071 8.40627e-19)
(0.998714 -0.00312141 8.25312e-17)
(0.999198 -0.00405032 5.53747e-17)
(0.999825 -0.00488009 -3.56997e-16)
(1.00056 -0.00555132 -1.75554e-16)
(1.00137 -0.00604808 -3.09618e-16)
(1.0022 -0.00634499 -6.75027e-17)
(1.003 -0.00644835 7.2881e-16)
(1.00374 -0.00639213 8.72816e-18)
(1.0043 -0.00618246 -1.35321e-16)
(1.00454 -0.00583849 -4.18237e-16)
(1.00481 -0.00591135 -1.95871e-17)
(1.00518 -0.00745267 -7.37478e-17)
(0.998016 -0.000247296 2.26773e-17)
(0.998118 -0.00119849 -2.9965e-18)
(0.998304 -0.0022254 2.91852e-17)
(0.998626 -0.00322074 -7.41446e-17)
(0.999124 -0.00416775 -2.17649e-17)
(0.999769 -0.00500797 1.45921e-16)
(1.00052 -0.00568238 -2.06421e-16)
(1.00135 -0.00617631 2.59614e-16)
(1.00219 -0.00646558 4.50731e-18)
(1.00301 -0.00655719 -3.88999e-16)
(1.00376 -0.00648624 -8.37583e-17)
(1.00434 -0.00626031 5.1999e-16)
(1.00459 -0.00589701 1.83246e-16)
(1.00487 -0.00595281 -4.86671e-16)
(1.00524 -0.00750205 -3.72403e-17)
(0.997901 -0.000257901 -1.65157e-17)
(0.998007 -0.00124241 5.24887e-17)
(0.998201 -0.00229584 9.66219e-18)
(0.998533 -0.00331405 -1.58471e-16)
(0.999045 -0.00427835 1.83279e-17)
(0.999706 -0.00512895 -6.15298e-18)
(1.00048 -0.00580711 4.79536e-16)
(1.00132 -0.00629923 2.6521e-16)
(1.00218 -0.00658205 -6.60636e-16)
(1.00302 -0.00666317 -2.92051e-16)
(1.00378 -0.00657862 1.74377e-16)
(1.00438 -0.00633732 2.38549e-18)
(1.00464 -0.00595548 4.38839e-16)
(1.00493 -0.00599508 4.47264e-16)
(1.00529 -0.00755073 1.24699e-16)
(0.997783 -0.000267865 -7.46279e-18)
(0.997892 -0.00128372 6.71816e-18)
(0.998093 -0.00236181 1.0568e-16)
(0.998435 -0.00340175 2.72838e-16)
(0.998961 -0.00438275 -3.26318e-17)
(0.999638 -0.00524383 -3.10966e-16)
(1.00043 -0.00592637 -3.58969e-16)
(1.00129 -0.00641765 -6.77731e-16)
(1.00217 -0.00669519 4.34305e-16)
(1.00302 -0.00676695 3.47055e-16)
(1.0038 -0.00666982 -1.5717e-16)
(1.00441 -0.00641389 -2.71756e-16)
(1.00468 -0.00601417 -4.31e-16)
(1.00499 -0.00603805 -3.56197e-17)
(1.00535 -0.00760048 -3.73197e-16)
(0.997663 -0.000276977 1.11217e-17)
(0.997774 -0.00132292 -3.30404e-17)
(0.997981 -0.00242396 -1.24367e-16)
(0.998333 -0.00348424 -2.15758e-16)
(0.998872 -0.0044815 -4.53893e-17)
(0.999564 -0.00535326 2.96056e-16)
(1.00037 -0.00604089 2.22263e-16)
(1.00125 -0.00653235 6.87373e-16)
(1.00215 -0.0068057 7.0577e-18)
(1.00302 -0.00686916 -1.48106e-16)
(1.00382 -0.00676036 1.18712e-17)
(1.00444 -0.00649044 -2.7087e-16)
(1.00472 -0.00607337 -3.6749e-16)
(1.00505 -0.00608211 -3.31317e-16)
(1.00541 -0.00764987 3.89864e-16)
(0.99754 -0.000285484 -3.79069e-17)
(0.997652 -0.00135971 8.3854e-17)
(0.997866 -0.00248219 -9.67998e-18)
(0.998226 -0.00356205 2.59844e-16)
(0.998778 -0.00457531 -1.01582e-16)
(0.999486 -0.00545806 -7.18073e-17)
(1.00031 -0.00615151 7.48119e-17)
(1.00121 -0.0066441 -4.3365e-16)
(1.00212 -0.00691431 -3.11222e-16)
(1.00301 -0.00697043 -1.09609e-17)
(1.00383 -0.00685074 9.60865e-17)
(1.00447 -0.00656737 1.49527e-16)
(1.00477 -0.00613343 3.84474e-16)
(1.00511 -0.00612724 3.92448e-16)
(1.00547 -0.00770078 -5.48718e-17)
(0.997414 -0.000293223 3.17937e-18)
(0.997528 -0.00139467 -2.77779e-17)
(0.997747 -0.00253724 -1.70642e-16)
(0.998116 -0.00363564 -2.67621e-16)
(0.998679 -0.00466476 9.66465e-17)
(0.999402 -0.00555892 1.36938e-16)
(1.00024 -0.00625897 -3.38665e-16)
(1.00116 -0.00675366 -8.33288e-17)
(1.0021 -0.00702169 2.99306e-16)
(1.003 -0.00707134 -1.1947e-16)
(1.00384 -0.00694147 1.29537e-16)
(1.0045 -0.00664511 1.33907e-16)
(1.00481 -0.00619469 5.92918e-17)
(1.00517 -0.0061739 -4.85871e-16)
(1.00553 -0.00775197 -1.10631e-16)
(0.997286 -0.000300468 2.63668e-17)
(0.9974 -0.00142757 -4.55937e-17)
(0.997624 -0.00258906 1.26042e-16)
(0.998001 -0.00370558 2.26344e-16)
(0.998576 -0.00475057 7.27205e-17)
(0.999315 -0.00565659 -2.64724e-16)
(1.00017 -0.00636399 1.70322e-16)
(1.00111 -0.00686167 1.37994e-16)
(1.00206 -0.00712844 2.61067e-16)
(1.00299 -0.00717238 1.70051e-16)
(1.00385 -0.00703292 -3.15877e-16)
(1.00453 -0.00672392 3.57431e-17)
(1.00485 -0.0062573 -5.16591e-17)
(1.00523 -0.00622191 -1.37069e-17)
(1.0056 -0.00780509 4.33183e-17)
(0.997156 -0.000307082 3.20544e-17)
(0.997269 -0.001459 5.09075e-18)
(0.997498 -0.00263841 1.76605e-16)
(0.997883 -0.00377232 -6.58562e-17)
(0.99847 -0.00483325 1.51375e-16)
(0.999223 -0.00575165 1.31503e-16)
(1.0001 -0.0064672 4.91264e-17)
(1.00105 -0.00696876 9.64475e-17)
(1.00203 -0.00723506 -1.21605e-16)
(1.00298 -0.00727401 -1.16632e-17)
(1.00386 -0.00712544 -9.07207e-17)
(1.00455 -0.00680409 -3.518e-17)
(1.0049 -0.00632144 1.25024e-16)
(1.00529 -0.00627162 -1.30378e-18)
(1.00566 -0.00785884 -1.27283e-16)
(0.997024 -0.000313348 5.11768e-18)
(0.997135 -0.00148875 -8.90312e-17)
(0.997369 -0.00268525 -1.92753e-16)
(0.997762 -0.00383642 -1.21452e-16)
(0.99836 -0.00491347 -9.86308e-17)
(0.999128 -0.00584479 3.20565e-18)
(1.00002 -0.00656924 -5.34859e-17)
(1.001 -0.00707548 -1.11845e-16)
(1.002 -0.00734209 -5.55556e-17)
(1.00297 -0.00737666 -1.66238e-16)
(1.00387 -0.00721939 2.80174e-16)
(1.00458 -0.00688588 4.38482e-17)
(1.00494 -0.00638734 -2.67136e-16)
(1.00535 -0.00632298 2.56948e-16)
(1.00573 -0.00791503 4.42807e-17)
(0.996889 -0.000319146 -5.04078e-17)
(0.996999 -0.00151744 6.92605e-17)
(0.997237 -0.00273033 -7.19292e-18)
(0.997637 -0.00389828 -1.97268e-17)
(0.998246 -0.00499171 -1.43976e-16)
(0.999029 -0.00593655 1.84816e-16)
(0.99994 -0.00667067 -5.32294e-18)
(1.00094 -0.00718239 1.78857e-16)
(1.00196 -0.00745001 1.4469e-17)
(1.00295 -0.00748074 -4.42917e-18)
(1.00388 -0.00731513 -4.19177e-16)
(1.00461 -0.00696961 -1.02844e-16)
(1.00499 -0.00645525 3.03384e-16)
(1.00542 -0.0063764 -1.93451e-16)
(1.0058 -0.00797237 1.07425e-16)
(0.996753 -0.000324759 1.66438e-17)
(0.996861 -0.00154484 5.5524e-17)
(0.997103 -0.0027736 -5.76815e-17)
(0.99751 -0.00395843 -5.74116e-17)
(0.998129 -0.00506856 9.89358e-17)
(0.998928 -0.00602752 -1.66878e-16)
(0.999857 -0.00677203 -1.9097e-16)
(1.00087 -0.00728995 -9.20278e-18)
(1.00192 -0.00755922 -3.82289e-17)
(1.00294 -0.00758659 2.68159e-16)
(1.00389 -0.0074129 2.47881e-16)
(1.00464 -0.00705542 1.21755e-16)
(1.00504 -0.00652525 7.26415e-17)
(1.00548 -0.00643167 4.33296e-16)
(1.00587 -0.00803241 -2.11407e-16)
(0.996614 -0.000330074 -2.9072e-17)
(0.99672 -0.00157157 -7.39013e-17)
(0.996965 -0.00281575 2.81783e-16)
(0.997379 -0.0040172 2.31768e-16)
(0.99801 -0.00514441 -5.68028e-17)
(0.998824 -0.0061181 -8.67362e-17)
(0.999771 -0.00687374 8.8394e-18)
(1.00081 -0.00739857 -2.43101e-16)
(1.00188 -0.00767007 -2.90074e-16)
(1.00292 -0.00769449 8.46541e-17)
(1.00389 -0.00751292 2.2231e-16)
(1.00467 -0.00714351 -1.37283e-16)
(1.00509 -0.00659744 -1.82569e-16)
(1.00556 -0.00648909 -4.24822e-16)
(1.00594 -0.00809371 2.40708e-17)
(0.996474 -0.000335357 6.0676e-17)
(0.996576 -0.00159738 8.66981e-17)
(0.996825 -0.00285671 -2.5882e-16)
(0.997246 -0.00407504 -1.10084e-16)
(0.997888 -0.00521975 1.81757e-16)
(0.998717 -0.0062088 2.59464e-16)
(0.999684 -0.00697626 9.61589e-17)
(1.00075 -0.00750865 1.48534e-16)
(1.00184 -0.0077829 1.97711e-17)
(1.0029 -0.00780472 -3.10523e-16)
(1.0039 -0.00761543 -2.16874e-16)
(1.00471 -0.00723404 8.40781e-17)
(1.00514 -0.00667198 -2.97691e-16)
(1.00563 -0.00654857 5.11419e-16)
(1.00601 -0.00815806 1.39686e-16)
(0.996331 -0.000340499 -5.295e-17)
(0.996431 -0.00162286 -6.7416e-17)
(0.996683 -0.00289712 3.38802e-17)
(0.99711 -0.00413225 -8.28871e-17)
(0.997763 -0.00529492 -1.99093e-16)
(0.998608 -0.00629997 -1.2101e-16)
(0.999594 -0.00707996 8.6456e-17)
(1.00068 -0.00762055 1.01938e-17)
(1.0018 -0.00789805 3.13873e-16)
(1.00289 -0.0079176 3.28619e-16)
(1.00392 -0.0077207 1.56538e-17)
(1.00474 -0.00732727 2.02647e-17)
(1.0052 -0.00674906 6.46406e-16)
(1.0057 -0.00661049 3.4268e-17)
(1.00609 -0.00822396 4.38136e-17)
(0.996187 -0.000345752 1.17288e-17)
(0.996283 -0.00164776 2.33629e-17)
(0.996538 -0.00293688 1.80985e-17)
(0.996972 -0.00418922 1.09907e-16)
(0.997636 -0.00537035 -8.97896e-17)
(0.998496 -0.00639204 -2.3147e-16)
(0.999503 -0.00718521 -1.26095e-16)
(1.00061 -0.00773458 -2.20601e-17)
(1.00175 -0.00801578 -2.21412e-16)
(1.00287 -0.00803332 -2.5592e-16)
(1.00393 -0.00782886 -3.07634e-17)
(1.00478 -0.00742327 -5.88375e-17)
(1.00526 -0.00682872 6.00605e-18)