/*--------------------------------*- C++ -*----------------------------------*\
  =========                 |
  \\      /  F ield         | OpenFOAM: The Open Source CFD Toolbox
   \\    /   O peration     | Website:  https://openfoam.org
    \\  /    A nd           | Version:  6.0
     \\/     M anipulation  |
\*---------------------------------------------------------------------------*/
FoamFile
{
    version     2.0;
    format      ascii;
    class       volScalarField;
    location    "18";
    object      p;
}
// * * * * * * * * * * * * * * * * * * * * * * * * * * * * * * * * * * * * * //

dimensions      [0 2 -2 0 0 0 0];

internalField   nonuniform List<scalar> 
62000
(
0.0173463
0.0173462
0.0173456
0.0173444
0.0173426
0.0173401
0.0173367
0.0173324
0.017327
0.0173204
0.0173124
0.0173026
0.017291
0.0172771
0.0172607
0.0172414
0.0172187
0.0171921
0.0171611
0.0171251
0.0170835
0.0170355
0.0169803
0.016917
0.0168447
0.0167623
0.0166688
0.0165629
0.0164433
0.0163088
0.016158
0.0159896
0.0158026
0.0155953
0.0153665
0.0151155
0.0148421
0.0145468
0.0142308
0.0138965
0.0135469
0.0131857
0.0128164
0.0124415
0.0120606
0.0116697
0.0112584
0.0108109
0.0103061
0.00971948
0.00903591
0.00824465
0.00737231
0.00643637
0.00549358
0.00457394
0.00373845
0.00288585
0.0022375
0.00220656
0.0173717
0.0173717
0.0173713
0.0173704
0.0173689
0.0173666
0.0173634
0.0173592
0.0173538
0.0173471
0.017339
0.0173291
0.0173174
0.0173034
0.0172871
0.0172678
0.0172454
0.0172194
0.0171892
0.0171542
0.017114
0.0170678
0.0170149
0.0169545
0.0168857
0.0168076
0.0167192
0.0166194
0.0165071
0.0163809
0.0162397
0.0160827
0.0159084
0.0157159
0.0155035
0.0152707
0.0150173
0.014744
0.0144523
0.0141444
0.0138238
0.0134947
0.0131611
0.0128265
0.0124916
0.0121532
0.0118017
0.0114207
0.0109859
0.0104668
0.00983878
0.00907819
0.00820184
0.00721492
0.0061759
0.00511623
0.00411959
0.00307378
0.002383
0.00194918
0.0174349
0.0174349
0.0174341
0.0174326
0.0174303
0.017427
0.0174227
0.0174172
0.0174104
0.0174021
0.0173923
0.0173806
0.0173669
0.017351
0.0173326
0.0173112
0.0172867
0.0172583
0.0172258
0.0171885
0.0171458
0.0170969
0.0170413
0.0169779
0.016906
0.0168244
0.0167322
0.0166282
0.0165109
0.0163791
0.0162314
0.0160666
0.0158836
0.0156803
0.015455
0.0152063
0.0149336
0.0146367
0.0143165
0.0139748
0.0136145
0.0132394
0.0128538
0.0124618
0.0120659
0.0116653
0.0112542
0.0108202
0.0103432
0.00979426
0.00914744
0.00837365
0.00748131
0.00646493
0.00538203
0.00427071
0.00323768
0.00222981
0.00164517
0.001241
0.0175232
0.0175229
0.0175216
0.0175191
0.0175156
0.0175108
0.0175048
0.0174974
0.0174885
0.017478
0.0174658
0.0174517
0.0174355
0.0174171
0.0173961
0.0173722
0.0173452
0.0173143
0.0172793
0.0172394
0.0171942
0.0171428
0.0170845
0.0170185
0.0169438
0.0168595
0.0167644
0.0166572
0.0165366
0.0164008
0.0162486
0.0160787
0.0158895
0.015679
0.0154448
0.0151848
0.0148978
0.014583
0.0142406
0.0138719
0.0134788
0.013065
0.0126347
0.0121925
0.0117424
0.0112868
0.0108242
0.0103483
0.0098461
0.00929477
0.00867121
0.00794478
0.00711518
0.00616137
0.00512582
0.00403984
0.00301568
0.00204152
0.00146488
0.00112599
0.0176231
0.0176225
0.0176205
0.017617
0.0176123
0.0176061
0.0175984
0.0175892
0.0175783
0.0175657
0.0175513
0.0175349
0.0175163
0.0174955
0.0174721
0.0174459
0.0174165
0.0173834
0.0173462
0.0173043
0.0172571
0.0172039
0.017144
0.0170765
0.0170006
0.0169151
0.0168192
0.0167113
0.0165899
0.0164536
0.0163008
0.0161301
0.0159401
0.0157283
0.0154918
0.0152283
0.0149357
0.0146129
0.0142592
0.0138749
0.0134613
0.013021
0.0125577
0.0120756
0.011579
0.0110717
0.0105559
0.0100308
0.00949156
0.00892408
0.00831314
0.0076321
0.00687774
0.00601443
0.00506401
0.00403683
0.00303255
0.00204968
0.00139912
0.000918756
0.0177125
0.0177119
0.0177097
0.0177061
0.0177011
0.0176945
0.0176864
0.0176765
0.0176647
0.0176511
0.0176355
0.0176177
0.0175978
0.0175755
0.0175506
0.0175228
0.0174919
0.0174573
0.0174186
0.0173753
0.0173268
0.0172723
0.0172114
0.017143
0.0170664
0.0169805
0.0168844
0.0167765
0.0166555
0.0165196
0.0163672
0.0161971
0.0160075
0.0157958
0.015559
0.0152938
0.014998
0.0146693
0.0143065
0.0139087
0.0134761
0.0130097
0.0125116
0.0119843
0.0114306
0.0108536
0.0102564
0.00964182
0.00901157
0.0083616
0.00768825
0.006977
0.00623227
0.00541576
0.00453509
0.00358222
0.00263961
0.00171027
0.00105338
0.00051003
0.0177953
0.0177946
0.0177923
0.0177885
0.0177832
0.0177764
0.0177679
0.0177576
0.0177455
0.0177315
0.0177154
0.0176972
0.0176767
0.0176537
0.0176282
0.0175997
0.0175681
0.0175328
0.0174936
0.0174498
0.017401
0.0173465
0.0172857
0.0172177
0.017142
0.0170573
0.0169627
0.0168568
0.0167382
0.0166052
0.0164562
0.0162899
0.0161046
0.0158975
0.0156653
0.0154048
0.0151129
0.014787
0.014425
0.0140253
0.0135868
0.0131091
0.0125922
0.0120359
0.0114401
0.0108051
0.0101316
0.00942236
0.00868199
0.00791356
0.00712486
0.00631662
0.00550932
0.00467405
0.00381815
0.00292518
0.00206412
0.0012435
0.000647818
0.000149285
0.0178668
0.0178663
0.0178641
0.0178604
0.0178553
0.0178486
0.0178403
0.0178301
0.0178181
0.0178042
0.0177882
0.0177702
0.0177499
0.0177273
0.0177021
0.0176742
0.0176432
0.0176087
0.0175703
0.0175276
0.0174802
0.0174273
0.0173685
0.017303
0.0172302
0.017149
0.0170587
0.0169578
0.0168451
0.0167189
0.0165778
0.0164206
0.0162457
0.0160503
0.0158314
0.0155855
0.0153097
0.0150011
0.0146572
0.0142764
0.013857
0.0133977
0.012897
0.012352
0.0117593
0.0111149
0.0104152
0.00965849
0.00884736
0.00798609
0.00708834
0.00616741
0.00525994
0.00435305
0.00346142
0.0025709
0.00174207
0.000990308
0.000417625
-9.28409e-05
0.01794
0.0179392
0.0179366
0.0179325
0.017927
0.01792
0.0179113
0.017901
0.0178889
0.017875
0.0178593
0.0178416
0.0178218
0.0177998
0.0177754
0.0177484
0.0177185
0.0176853
0.0176486
0.0176078
0.0175626
0.0175124
0.0174567
0.0173948
0.0173263
0.01725
0.0171653
0.0170709
0.0169655
0.0168478
0.0167165
0.0165704
0.0164083
0.0162277
0.0160255
0.0157987
0.0155443
0.0152598
0.0149431
0.014593
0.0142084
0.0137881
0.0133296
0.012829
0.0122802
0.0116754
0.0110057
0.0102631
0.00944392
0.00854756
0.00758659
0.00657912
0.00557284
0.00456854
0.00359137
0.002634
0.00175378
0.000973072
0.000327839
-0.000307908
0.0180034
0.0180024
0.0179998
0.0179958
0.0179905
0.0179837
0.0179754
0.0179655
0.0179539
0.0179406
0.0179255
0.0179086
0.0178897
0.0178688
0.0178457
0.01782
0.0177918
0.0177604
0.0177256
0.017687
0.0176442
0.0175967
0.017544
0.0174854
0.0174204
0.0173482
0.0172679
0.0171783
0.0170782
0.0169664
0.0168415
0.0167028
0.016549
0.0163777
0.0161861
0.0159713
0.0157305
0.0154617
0.0151636
0.0148358
0.0144785
0.0140914
0.0136727
0.0132186
0.0127223
0.0121739
0.0115604
0.0108681
0.0100854
0.00920371
0.00822861
0.00717625
0.00609757
0.00500214
0.00392206
0.00285873
0.00187103
0.000994572
0.000217927
-0.000588776
0.0180704
0.018069
0.0180659
0.0180615
0.0180558
0.0180488
0.0180404
0.0180305
0.0180192
0.0180062
0.0179917
0.0179755
0.0179575
0.0179375
0.0179154
0.017891
0.017864
0.017834
0.0178007
0.0177637
0.0177227
0.0176769
0.017626
0.0175693
0.0175061
0.0174356
0.0173567
0.0172684
0.0171692
0.0170578
0.0169329
0.0167938
0.016639
0.0164663
0.0162724
0.0160547
0.0158102
0.0155375
0.0152358
0.0149058
0.0145492
0.0141671
0.0137594
0.0133239
0.0128548
0.0123428
0.0117734
0.0111295
0.0103934
0.00954856
0.00859159
0.00753201
0.00641862
0.00526325
0.00410176
0.00294266
0.00184988
0.000877421
-1.87178e-05
-0.000956115
0.0181304
0.0181288
0.0181256
0.0181212
0.0181157
0.0181089
0.0181009
0.0180915
0.0180807
0.0180684
0.0180547
0.0180394
0.0180225
0.0180037
0.017983
0.01796
0.0179345
0.017906
0.0178742
0.0178386
0.0177988
0.0177542
0.0177041
0.0176479
0.0175849
0.0175138
0.0174338
0.0173434
0.017241
0.0171251
0.0169942
0.0168473
0.0166828
0.0164978
0.0162894
0.0160538
0.0157884
0.0154912
0.0151624
0.0148032
0.0144163
0.0140047
0.01357
0.0131125
0.0126293
0.0121132
0.0115517
0.0109273
0.0102199
0.00940723
0.00847813
0.00743501
0.00632116
0.00514749
0.00394885
0.00273913
0.00158813
0.000572164
-0.000384381
-0.00137493
0.0181948
0.0181927
0.0181891
0.0181843
0.0181785
0.0181717
0.0181638
0.0181547
0.0181445
0.018133
0.0181202
0.0181061
0.0180904
0.018073
0.0180536
0.0180321
0.0180081
0.0179811
0.0179507
0.0179165
0.0178779
0.0178342
0.0177849
0.0177289
0.0176654
0.0175932
0.0175111
0.0174173
0.0173101
0.0171876
0.017048
0.0168899
0.0167112
0.0165091
0.0162792
0.0160177
0.0157211
0.0153874
0.0150164
0.0146098
0.0141709
0.0137036
0.0132115
0.0126972
0.0121613
0.0116004
0.0110059
0.0103632
0.00965314
0.0088517
0.00794325
0.00692431
0.00583296
0.00467668
0.00348749
0.00228147
0.00113239
0.000135998
-0.00081736
-0.00179176
0.0182499
0.0182477
0.0182443
0.0182401
0.0182352
0.0182295
0.018223
0.0182154
0.0182069
0.0181972
0.0181863
0.0181742
0.0181607
0.0181456
0.0181287
0.0181096
0.018088
0.0180635
0.0180355
0.0180036
0.0179671
0.0179253
0.0178775
0.0178227
0.0177598
0.0176876
0.0176046
0.0175088
0.0173982
0.0172706
0.0171239
0.0169562
0.0167651
0.0165467
0.0162967
0.0160102
0.0156829
0.015312
0.0148971
0.0144394
0.0139422
0.0134097
0.0128467
0.0122577
0.0116463
0.0110135
0.0103554
0.00966222
0.00891876
0.00810272
0.0071973
0.00619637
0.0051339
0.0040146
0.00286541
0.00170235
0.000599697
-0.000331791
-0.00124194
-0.00216327
0.0183213
0.0183187
0.0183151
0.0183109
0.0183063
0.0183012
0.0182955
0.0182892
0.0182821
0.0182742
0.0182654
0.0182555
0.0182444
0.0182318
0.0182176
0.0182014
0.0181828
0.0181613
0.0181365
0.0181078
0.0180746
0.018036
0.0179914
0.0179396
0.0178796
0.0178098
0.0177287
0.0176342
0.0175241
0.0173958
0.0172469
0.0170752
0.0168777
0.0166504
0.0163878
0.0160846
0.0157357
0.0153374
0.0148882
0.0143888
0.0138416
0.0132505
0.0126204
0.011957
0.0112658
0.0105513
0.00981468
0.00905157
0.00825221
0.0073985
0.0064756
0.0054773
0.004436
0.00335398
0.0022535
0.0011481
0.000108979
-0.000745166
-0.00160412
-0.00246715
0.0184047
0.0184021
0.0183987
0.018395
0.0183912
0.0183872
0.0183829
0.0183782
0.0183728
0.0183669
0.0183604
0.018353
0.0183448
0.0183353
0.0183246
0.018312
0.0182974
0.0182801
0.0182597
0.0182355
0.0182071
0.0181735
0.018134
0.0180875
0.0180329
0.0179686
0.017893
0.017804
0.0176991
0.0175758
0.0174312
0.0172631
0.0170681
0.0168414
0.0165776
0.0162704
0.015914
0.0155036
0.0150371
0.0145139
0.013935
0.0133032
0.0126228
0.0118992
0.0111391
0.0103493
0.00953451
0.0086957
0.00782876
0.00692095
0.00596114
0.00494557
0.00390672
0.00284657
0.00178241
0.000724457
-0.000261563
-0.00105329
-0.00187837
-0.00270063
0.0185201
0.018517
0.0185134
0.0185097
0.0185061
0.0185027
0.0184992
0.0184956
0.0184917
0.0184876
0.0184832
0.0184783
0.0184727
0.0184664
0.018459
0.0184502
0.0184397
0.0184269
0.0184114
0.0183926
0.01837
0.0183426
0.0183099
0.0182707
0.0182238
0.0181678
0.0181011
0.0180215
0.0179267
0.0178137
0.0176801
0.0175229
0.0173388
0.0171232
0.0168695
0.0165715
0.0162226
0.0158171
0.0153518
0.014825
0.014236
0.013586
0.0128778
0.0121157
0.011306
0.0104564
0.00957428
0.00866426
0.00772736
0.00675623
0.0057444
0.00469162
0.00363241
0.00256919
0.00151594
0.000479163
-0.000481891
-0.00124489
-0.002067
-0.00287485
0.0186506
0.0186477
0.0186446
0.018642
0.0186399
0.0186383
0.0186368
0.0186355
0.0186341
0.0186326
0.0186311
0.0186293
0.0186273
0.0186247
0.0186214
0.0186171
0.0186114
0.0186039
0.0185941
0.0185815
0.0185656
0.0185456
0.0185209
0.0184903
0.018453
0.0184074
0.0183521
0.0182849
0.0182036
0.0181054
0.0179875
0.0178474
0.0176815
0.0174846
0.0172508
0.016973
0.0166443
0.0162584
0.0158109
0.015299
0.0147202
0.0140737
0.0133604
0.0125827
0.0117454
0.010856
0.00992252
0.00895209
0.00794949
0.00691206
0.00583778
0.00473059
0.00362776
0.00253392
0.00146039
0.000410787
-0.000561399
-0.00133425
-0.00218653
-0.00300653
0.0188226
0.0188197
0.0188168
0.0188145
0.0188131
0.0188124
0.0188122
0.0188124
0.0188129
0.0188137
0.0188147
0.0188158
0.0188169
0.0188178
0.0188183
0.0188182
0.0188171
0.0188146
0.0188105
0.0188041
0.0187951
0.0187828
0.0187665
0.0187454
0.0187184
0.0186844
0.0186418
0.0185887
0.018523
0.018442
0.0183432
0.0182237
0.0180801
0.0179078
0.0177
0.0174499
0.0171503
0.0167942
0.0163764
0.0158929
0.0153397
0.0147139
0.0140139
0.0132399
0.0123947
0.011484
0.0105157
0.00949755
0.00843681
0.00733441
0.00619216
0.00501796
0.00385241
0.00270281
0.0015796
0.000484561
-0.00053304
-0.00135193
-0.0022621
-0.00311407
0.0190228
0.0190204
0.0190183
0.0190171
0.019017
0.0190178
0.0190192
0.0190213
0.0190238
0.0190268
0.0190302
0.0190341
0.0190383
0.0190427
0.0190471
0.0190513
0.019055
0.0190578
0.0190594
0.0190593
0.0190573
0.0190527
0.0190449
0.0190332
0.0190168
0.0189944
0.0189648
0.0189263
0.0188768
0.0188139
0.018735
0.0186377
0.0185186
0.0183726
0.0181939
0.0179752
0.0177091
0.0173883
0.017007
0.0165601
0.0160421
0.0154481
0.0147743
0.0140182
0.01318
0.0122634
0.0112744
0.0102208
0.00911049
0.00794695
0.00673489
0.00548569
0.00424315
0.00301827
0.0018213
0.000653695
-0.00043722
-0.0013292
-0.00231626
-0.0032123
0.019267
0.0192647
0.0192629
0.019262
0.0192624
0.0192639
0.0192663
0.0192695
0.0192734
0.0192781
0.0192835
0.0192897
0.0192964
0.0193037
0.0193112
0.019319
0.0193266
0.019334
0.0193406
0.0193463
0.0193506
0.0193531
0.0193533
0.0193505
0.0193441
0.0193329
0.0193158
0.0192912
0.0192574
0.0192119
0.0191525
0.0190768
0.0189813
0.018862
0.0187121
0.018525
0.0182932
0.0180089
0.0176659
0.0172583
0.0167793
0.0162221
0.0155809
0.0148506
0.0140286
0.013116
0.0121168
0.0110371
0.00988497
0.00866514
0.00738425
0.00605647
0.00472865
0.00341544
0.00212829
0.000869628
-0.000313072
-0.00129588
-0.0023693
-0.00331331
0.019527
0.0195256
0.0195251
0.019526
0.0195284
0.0195321
0.0195367
0.0195423
0.0195486
0.0195558
0.0195639
0.0195728
0.0195826
0.019593
0.0196041
0.0196157
0.0196275
0.0196393
0.0196509
0.0196619
0.0196722
0.0196813
0.0196888
0.0196941
0.0196967
0.0196956
0.0196899
0.019678
0.0196583
0.0196288
0.0195871
0.0195312
0.0194579
0.0193624
0.0192396
0.0190819
0.018882
0.0186323
0.0183259
0.0179563
0.0175157
0.0169959
0.0163888
0.0156872
0.0148857
0.0139826
0.0129794
0.0118804
0.0106926
0.00942122
0.00807401
0.00666715
0.00525021
0.00384188
0.00245514
0.00109463
-0.000189996
-0.00127174
-0.00243352
-0.00342387
0.0198285
0.0198277
0.0198279
0.0198295
0.0198328
0.0198376
0.0198434
0.0198505
0.0198585
0.0198676
0.0198777
0.0198889
0.0199011
0.0199142
0.0199281
0.0199427
0.0199578
0.0199733
0.019989
0.0200046
0.02002
0.0200347
0.0200486
0.020061
0.0200715
0.0200794
0.0200835
0.0200827
0.0200755
0.0200598
0.0200336
0.0199949
0.0199405
0.0198665
0.0197669
0.019635
0.0194633
0.019244
0.01897
0.0186343
0.0182283
0.0177424
0.0171669
0.0164925
0.0157114
0.0148192
0.0138147
0.0126999
0.0114805
0.0101615
0.00875119
0.0072671
0.00576101
0.00425546
0.00276579
0.00129969
-8.95074e-05
-0.00127157
-0.00251774
-0.00354868
0.0201521
0.0201524
0.0201538
0.0201569
0.0201617
0.0201681
0.0201756
0.0201842
0.0201939
0.0202047
0.0202167
0.02023
0.0202444
0.02026
0.0202767
0.0202943
0.0203128
0.0203318
0.0203514
0.0203712
0.0203911
0.0204109
0.0204303
0.0204489
0.0204662
0.0204816
0.0204942
0.0205029
0.0205061
0.0205021
0.020489
0.0204647
0.0204265
0.0203699
0.02029
0.0201796
0.0200315
0.0198376
0.0195909
0.0192837
0.0189069
0.0184498
0.0179015
0.0172505
0.0164871
0.0156044
0.0145986
0.0134693
0.0122206
0.0108569
0.00938659
0.00782795
0.00623469
0.0046333
0.00304143
0.00147046
-2.14173e-05
-0.00130022
-0.00262413
-0.00368845
0.0205146
0.0205153
0.0205171
0.0205206
0.0205258
0.0205326
0.0205406
0.02055
0.0205605
0.0205725
0.0205857
0.0206003
0.0206163
0.0206337
0.0206522
0.020672
0.0206928
0.0207145
0.020737
0.0207602
0.0207839
0.0208079
0.020832
0.0208558
0.0208789
0.0209007
0.0209204
0.020937
0.020949
0.0209547
0.0209524
0.02094
0.0209147
0.0208728
0.0208086
0.0207156
0.0205864
0.0204129
0.0201878
0.0199032
0.0195495
0.0191152
0.018588
0.0179552
0.0172051
0.0163285
0.0153192
0.0141747
0.0128974
0.0114907
0.009963
0.00833285
0.00665558
0.00496129
0.00327042
0.00159839
8.93086e-06
-0.00136064
-0.00275376
-0.00384375
0.0208829
0.0208847
0.0208881
0.0208934
0.0209006
0.0209095
0.0209196
0.0209309
0.0209434
0.0209572
0.0209724
0.020989
0.021007
0.0210264
0.0210473
0.0210695
0.0210928
0.0211173
0.0211427
0.0211691
0.0211962
0.0212239
0.021252
0.0212803
0.0213083
0.0213356
0.0213613
0.0213845
0.0214038
0.0214176
0.0214241
0.0214215
0.021407
0.0213764
0.0213249
0.0212457
0.0211312
0.0209737
0.0207653
0.020498
0.0201618
0.0197444
0.0192327
0.0186127
0.0178709
0.0169963
0.0159806
0.014819
0.0135126
0.0120636
0.0104802
0.00878122
0.00702308
0.00523965
0.00345398
0.00168574
4.5461e-06
-0.00144906
-0.00290368
-0.00401266
0.021287
0.0212894
0.0212932
0.0212991
0.0213069
0.0213163
0.0213271
0.0213394
0.0213529
0.0213679
0.0213843
0.0214023
0.0214217
0.0214427
0.021465
0.0214889
0.0215141
0.0215406
0.0215681
0.021597
0.0216269
0.0216577
0.0216893
0.0217214
0.0217536
0.0217856
0.0218164
0.0218453
0.0218709
0.0218915
0.0219055
0.0219108
0.0219049
0.021884
0.0218425
0.0217741
0.0216712
0.0215257
0.0213298
0.0210752
0.0207513
0.0203454
0.0198437
0.019231
0.0184925
0.0176155
0.0165896
0.0154084
0.0140713
0.0125798
0.0109416
0.0091758
0.00733957
0.00547029
0.00359392
0.0017345
-3.23116e-05
-0.00156335
-0.00307194
-0.00419446
0.0217058
0.0217091
0.0217142
0.0217212
0.0217301
0.0217407
0.0217526
0.0217658
0.0217803
0.0217962
0.0218136
0.0218326
0.0218533
0.0218757
0.0218996
0.0219252
0.0219523
0.0219809
0.0220107
0.0220419
0.0220744
0.022108
0.0221427
0.0221782
0.0222142
0.0222503
0.0222857
0.0223196
0.0223506
0.0223772
0.0223975
0.0224099
0.0224115
0.0223981
0.0223652
0.0223055
0.0222117
0.0220755
0.0218889
0.0216435
0.0213281
0.0209296
0.0204335
0.0198236
0.0190841
0.0182005
0.017161
0.0159574
0.0145877
0.0130526
0.0113595
0.00952799
0.00761571
0.00566337
0.00369985
0.00175354
-9.39504e-05
-0.00169713
-0.00325444
-0.00438667
0.0221592
0.0221628
0.0221677
0.0221746
0.0221832
0.0221935
0.0222051
0.0222182
0.0222326
0.0222487
0.0222663
0.0222858
0.0223069
0.0223299
0.0223546
0.0223811
0.0224092
0.022439
0.0224704
0.0225034
0.022538
0.022574
0.0226114
0.02265
0.0226894
0.0227293
0.0227689
0.0228074
0.0228435
0.0228755
0.0229018
0.0229204
0.0229284
0.0229224
0.0228965
0.0228443
0.022758
0.0226292
0.0224496
0.0222105
0.0219005
0.0215059
0.0210117
0.0204009
0.0196564
0.0187625
0.0177059
0.0164769
0.0150723
0.013492
0.0117433
0.00984626
0.00785904
0.00582528
0.00377702
0.00174715
-0.000176868
-0.00184769
-0.00344896
-0.00458864
0.02261
0.0226145
0.0226207
0.0226291
0.0226392
0.0226511
0.0226642
0.0226786
0.0226943
0.0227114
0.0227301
0.0227506
0.0227727
0.0227968
0.0228227
0.0228505
0.0228801
0.0229115
0.0229445
0.0229795
0.0230161
0.0230545
0.0230945
0.023136
0.0231787
0.0232223
0.0232659
0.0233089
0.0233497
0.0233871
0.023419
0.0234436
0.0234582
0.0234584
0.0234395
0.023394
0.0233144
0.0231918
0.0230179
0.0227836
0.0224771
0.0220843
0.0215895
0.020975
0.0202226
0.0193154
0.0182387
0.0169817
0.0155397
0.0139124
0.0121065
0.0101437
0.00808166
0.00596741
0.00383603
0.00172479
-0.000273224
-0.00200915
-0.00365214
-0.0047983
0.0230923
0.0230969
0.0231032
0.0231115
0.0231215
0.0231332
0.0231463
0.0231608
0.0231767
0.0231942
0.0232132
0.0232342
0.0232568
0.0232815
0.0233078
0.0233364
0.0233667
0.0233991
0.0234333
0.0234697
0.0235081
0.0235486
0.0235911
0.0236355
0.0236813
0.0237285
0.0237762
0.0238236
0.0238694
0.023912
0.0239498
0.0239805
0.0240013
0.0240085
0.023996
0.0239573
0.0238839
0.0237671
0.0235981
0.0233676
0.0230633
0.0226706
0.0221733
0.0215528
0.0207901
0.019867
0.0187676
0.0174799
0.0159982
0.0143214
0.0124567
0.0104267
0.00828954
0.00609469
0.00388066
0.00168915
-0.00038109
-0.00217994
-0.00386242
-0.00501541
0.0235815
0.0235869
0.0235939
0.0236029
0.0236136
0.0236259
0.0236394
0.0236542
0.0236702
0.0236879
0.0237071
0.0237283
0.0237514
0.0237766
0.0238037
0.0238332
0.0238647
0.0238984
0.0239341
0.0239722
0.0240126
0.0240552
0.0241002
0.0241475
0.0241966
0.0242475
0.0242994
0.0243514
0.0244023
0.0244505
0.0244942
0.0245313
0.0245591
0.0245728
0.0245676
0.0245356
0.0244688
0.0243579
0.0241937
0.0239668
0.0236643
0.023271
0.0227702
0.0221426
0.0213679
0.020427
0.0193029
0.0179823
0.0164586
0.0147301
0.0128043
0.0107056
0.00849222
0.00621623
0.00391949
0.00164804
-0.000494033
-0.00235553
-0.0040775
-0.00523834
0.0241005
0.0241057
0.024112
0.0241202
0.0241299
0.0241411
0.0241535
0.0241673
0.0241825
0.0241995
0.0242182
0.0242391
0.0242618
0.0242869
0.0243141
0.0243438
0.0243756
0.0244101
0.0244468
0.0244863
0.0245283
0.0245731
0.0246206
0.0246708
0.0247234
0.0247782
0.0248345
0.0248915
0.0249478
0.0250019
0.0250521
0.0250961
0.0251308
0.0251524
0.0251546
0.02513
0.0250702
0.0249654
0.0248064
0.024583
0.0242822
0.0238881
0.0233831
0.0227472
0.0219593
0.0209991
0.0198482
0.0184927
0.0169246
0.0151419
0.0131526
0.0109831
0.00869223
0.0063339
0.00395354
0.00160167
-0.000612121
-0.0025356
-0.0042965
-0.00546715
0.0246054
0.0246112
0.0246186
0.0246279
0.0246389
0.0246513
0.0246649
0.0246797
0.0246957
0.0247133
0.0247325
0.0247539
0.0247772
0.0248029
0.0248309
0.0248615
0.0248945
0.0249301
0.0249683
0.0250095
0.0250536
0.0251007
0.025151
0.0252044
0.0252606
0.0253197
0.0253807
0.025443
0.0255052
0.0255658
0.0256229
0.0256743
0.0257172
0.0257465
0.0257571
0.0257407
0.0256885
0.0255907
0.0254375
0.0252184
0.0249198
0.024525
0.0240158
0.0233714
0.0225695
0.0215888
0.0204098
0.0190177
0.0174032
0.0155641
0.0135089
0.0112666
0.00889634
0.0064543
0.00398932
0.00155621
-0.000730248
-0.00271686
-0.00451805
-0.00570069
0.0251362
0.0251419
0.0251488
0.0251576
0.0251679
0.0251797
0.0251927
0.0252071
0.0252229
0.0252404
0.0252595
0.0252809
0.0253043
0.0253302
0.0253583
0.0253893
0.0254227
0.0254592
0.0254985
0.0255412
0.0255873
0.0256368
0.02569
0.0257469
0.0258071
0.0258708
0.0259369
0.026005
0.0260736
0.0261412
0.026206
0.0262655
0.0263168
0.0263555
0.026375
0.0263675
0.0263238
0.0262337
0.0260871
0.0258729
0.0255769
0.0251817
0.0246683
0.024015
0.0231985
0.0221963
0.0209879
0.0195574
0.0178945
0.0159966
0.0138731
0.0115555
0.00910416
0.00657672
0.00402554
0.00150989
-0.000849983
-0.00289982
-0.00474165
-0.00593912
0.0256657
0.0256718
0.0256793
0.0256885
0.0256991
0.025711
0.0257239
0.0257381
0.0257535
0.0257706
0.0257894
0.0258106
0.025834
0.0258601
0.0258887
0.0259205
0.0259551
0.025993
0.026034
0.0260788
0.0261272
0.0261796
0.0262362
0.0262969
0.0263616
0.0264303
0.0265022
0.0265766
0.0266523
0.0267276
0.0268006
0.0268691
0.0269301
0.026978
0.0270076
0.02701
0.0269757
0.0268945
0.0267555
0.0265473
0.0262548
0.0258599
0.0253427
0.0246806
0.0238492
0.022825
0.0215862
0.020116
0.018403
0.0164444
0.0142502
0.0118551
0.00932055
0.00670603
0.00406723
0.00146776
-0.000967081
-0.003082
-0.00496652
-0.00618152
0.0262299
0.0262346
0.0262397
0.026246
0.0262534
0.026262
0.0262716
0.0262828
0.0262956
0.0263105
0.0263275
0.0263475
0.02637
0.0263958
0.0264243
0.0264566
0.0264919
0.0265311
0.0265737
0.0266208
0.0266719
0.0267276
0.0267879
0.0268531
0.0269228
0.0269972
0.0270755
0.027157
0.0272405
0.0273242
0.0274064
0.0274846
0.0275554
0.0276144
0.0276545
0.0276677
0.027644
0.0275725
0.0274421
0.0272407
0.0269524
0.0265583
0.0260376
0.0253666
0.0245201
0.023473
0.0222028
0.0206914
0.0189267
0.0169051
0.0146382
0.0121631
0.00954333
0.00683986
0.00411165
0.00142679
-0.00108396
-0.00326428
-0.00519226
-0.00642803
0.026693
0.0267002
0.0267096
0.026721
0.0267343
0.0267489
0.0267646
0.0267814
0.0267995
0.0268193
0.0268408
0.0268647
0.0268911
0.0269203
0.0269523
0.0269876
0.0270261
0.0270684
0.0271142
0.0271646
0.0272194
0.0272791
0.0273441
0.0274144
0.0274898
0.0275707
0.0276561
0.0277455
0.0278375
0.0279305
0.0280225
0.0281112
0.0281934
0.0282633
0.0283155
0.0283405
0.0283284
0.028268
0.0281473
0.0279538
0.0276707
0.0272781
0.0267544
0.0260749
0.0252131
0.0241428
0.0228404
0.0212868
0.0194689
0.0173827
0.0150409
0.0124838
0.00977661
0.00698236
0.00416323
0.00139159
-0.00119678
-0.00344467
-0.00541853
-0.00667796
0.0272865
0.0272906
0.0272947
0.0272999
0.0273061
0.0273139
0.027323
0.0273342
0.0273474
0.0273634
0.0273818
0.0274038
0.0274286
0.0274574
0.0274893
0.0275254
0.0275651
0.0276093
0.0276576
0.0277112
0.0277699
0.0278341
0.0279041
0.0279802
0.0280622
0.0281503
0.0282436
0.0283417
0.028443
0.028546
0.0286489
0.0287489
0.0288427
0.0289258
0.0289904
0.0290284
0.029029
0.0289805
0.0288705
0.0286856
0.0284082
0.0280177
0.0274913
0.0268032
0.0259259
0.0248319
0.0234964
0.0218993
0.0200267
0.0178741
0.0154555
0.012814
0.0100174
0.00713038
0.00421848
0.00135855
-0.00130832
-0.00362414
-0.00564485
-0.0069314
0.027746
0.0277527
0.0277613
0.0277722
0.0277849
0.0277992
0.0278148
0.027832
0.0278507
0.0278715
0.0278945
0.0279204
0.0279493
0.0279816
0.0280172
0.0280568
0.0281003
0.0281483
0.0282008
0.0282587
0.0283222
0.0283917
0.0284677
0.0285504
0.0286396
0.0287357
0.0288378
0.0289453
0.0290569
0.0291709
0.0292854
0.0293978
0.0295051
0.0296009
0.0296797
0.0297316
0.0297458
0.0297103
0.029612
0.0294367
0.0291661
0.0287783
0.0282498
0.0275535
0.0266607
0.0255426
0.0241732
0.0225317
0.0206031
0.0183827
0.0158857
0.0131578
0.0102695
0.00728785
0.0042817
0.00133216
-0.00141491
-0.003801
-0.00587115
-0.00718775
0.0283256
0.0283288
0.0283323
0.0283374
0.028344
0.0283524
0.0283625
0.0283751
0.0283898
0.0284078
0.0284286
0.0284534
0.0284817
0.0285145
0.028551
0.0285925
0.0286383
0.0286896
0.0287458
0.0288083
0.028877
0.0289524
0.029035
0.029125
0.0292223
0.0293272
0.0294389
0.0295568
0.0296796
0.0298055
0.0299328
0.0300586
0.0301795
0.0302904
0.0303837
0.0304504
0.0304792
0.0304575
0.0303715
0.0302065
0.0299432
0.0295586
0.0290281
0.0283237
0.027415
0.0262722
0.0248682
0.023181
0.0211951
0.0189052
0.0163279
0.0135116
0.0105295
0.00745125
0.00434909
0.00130857
-0.00151941
-0.00397611
-0.00609685
-0.00744688
0.0287764
0.0287814
0.0287888
0.028799
0.0288116
0.0288265
0.0288431
0.0288619
0.0288828
0.0289064
0.0289328
0.0289627
0.0289962
0.0290338
0.0290755
0.0291219
0.029173
0.0292295
0.0292913
0.0293596
0.0294346
0.0295168
0.0296068
0.0297049
0.029811
0.0299256
0.0300477
0.0301769
0.0303117
0.0304506
0.0305914
0.0307316
0.0308677
0.0309934
0.0311027
0.0311852
0.0312295
0.0312225
0.0311499
0.0309961
0.0307408
0.0303602
0.0298283
0.0291159
0.0281913
0.0270235
0.0255841
0.0238504
0.0218059
0.0194454
0.0167862
0.0138795
0.0108016
0.00762477
0.00442509
0.00129237
-0.00161824
-0.00414803
-0.00632203
-0.00770845
0.029344
0.0293461
0.0293493
0.0293548
0.0293626
0.029373
0.0293857
0.0294014
0.0294197
0.0294416
0.0294669
0.0294967
0.0295305
0.0295694
0.0296127
0.0296616
0.0297158
0.0297763
0.0298427
0.0299166
0.0299978
0.030087
0.0301848
0.0302916
0.0304071
0.0305319
0.0306652
0.0308064
0.0309541
0.0311066
0.0312621
0.0314175
0.0315692
0.031712
0.0318377
0.0319368
0.0319974
0.0320058
0.0319472
0.0318051
0.0315584
0.0311819
0.0306488
0.0299283
0.0289875
0.0277939
0.0263182
0.0245367
0.0224325
0.0199997
0.0172571
0.014258
0.0110822
0.0078048
0.00450591
0.00127973
-0.0017142
-0.00431751
-0.00654609
-0.00797215
0.0298715
0.0298728
0.0298756
0.0298812
0.0298892
0.0298999
0.0299129
0.0299289
0.0299478
0.0299704
0.0299969
0.0300282
0.0300643
0.0301058
0.0301525
0.0302052
0.0302638
0.0303291
0.030401
0.0304808
0.0305687
0.0306652
0.0307712
0.0308869
0.0310122
0.0311478
0.0312927
0.0314466
0.0316079
0.031775
0.0319458
0.0321174
0.0322864
0.0324457
0.0325893
0.0327059
0.0327836
0.0328084
0.0327646
0.0326351
0.0323977
0.0320261
0.0314921
0.0307637
0.0298065
0.0285867
0.0270739
0.0252436
0.0230783
0.0205721
0.0177445
0.0146514
0.0113755
0.00799569
0.0045961
0.00127521
-0.00180384
-0.0044833
-0.00676927
-0.0082378
0.0304188
0.030419
0.0304211
0.0304261
0.0304339
0.0304446
0.0304581
0.0304748
0.0304947
0.0305184
0.030546
0.0305786
0.0306161
0.0306593
0.030708
0.0307633
0.0308249
0.0308941
0.0309706
0.0310559
0.0311501
0.0312539
0.0313681
0.0314929
0.0316283
0.0317751
0.0319321
0.0320991
0.0322746
0.0324569
0.032644
0.0328325
0.0330188
0.0331969
0.0333586
0.0334936
0.0335892
0.033631
0.0336026
0.0334861
0.0332584
0.0328918
0.032357
0.0316204
0.0306463
0.0293994
0.0278485
0.0259681
0.0237404
0.0211592
0.018245
0.0150557
0.0116779
0.00819372
0.00469185
0.00127502
-0.00188992
-0.00464611
-0.00699092
-0.00850496
0.0309714
0.0309706
0.0309715
0.0309754
0.0309822
0.0309922
0.0310052
0.0310218
0.031042
0.0310666
0.0310957
0.0311303
0.0311705
0.0312168
0.0312694
0.0313288
0.0313952
0.0314694
0.0315515
0.0316429
0.031744
0.0318554
0.0319779
0.0321121
0.0322578
0.0324159
0.0325854
0.032766
0.0329562
0.0331542
0.0333579
0.0335642
0.0337692
0.0339657
0.0341469
0.034301
0.0344154
0.034475
0.0344629
0.0343603
0.0341428
0.0337818
0.0332463
0.0325015
0.0315101
0.0302356
0.0286455
0.0267139
0.0244224
0.021765
0.0187626
0.0154756
0.0119938
0.00840342
0.00479774
0.00128358
-0.00196922
-0.00480493
-0.00721144
-0.00877368
0.0315505
0.0315488
0.0315487
0.0315515
0.0315574
0.0315668
0.0315796
0.0315964
0.0316169
0.0316421
0.031672
0.0317078
0.0317493
0.0317974
0.0318519
0.0319141
0.0319837
0.0320619
0.0321488
0.0322459
0.0323535
0.0324723
0.0326032
0.0327468
0.0329029
0.0330726
0.0332548
0.0334492
0.0336544
0.0338686
0.0340897
0.0343141
0.0345379
0.0347548
0.0349556
0.0351298
0.0352637
0.0353417
0.0353463
0.0352578
0.0350509
0.0346954
0.034159
0.0334055
0.0323961
0.031093
0.0294624
0.0274781
0.0251213
0.0223861
0.0192938
0.015907
0.0123193
0.00862092
0.00490991
0.00129714
-0.00204446
-0.00496048
-0.00743026
-0.0090435
0.0321162
0.0321144
0.0321144
0.032118
0.032125
0.0321358
0.0321502
0.0321688
0.0321914
0.0322188
0.0322514
0.0322901
0.032335
0.0323868
0.0324457
0.0325123
0.032587
0.0326705
0.0327632
0.0328665
0.0329811
0.0331075
0.0332469
0.0333999
0.0335666
0.0337479
0.0339429
0.0341514
0.0343718
0.0346026
0.0348412
0.0350844
0.0353282
0.0355647
0.0357866
0.0359813
0.0361353
0.0362326
0.0362546
0.036181
0.0359851
0.0356354
0.0350982
0.0343357
0.0333078
0.0319751
0.030303
0.0282645
0.0258409
0.0230264
0.0198426
0.0163544
0.0126589
0.00885065
0.00503273
0.0013198
-0.00211278
-0.00511201
-0.00764794
-0.0093146
0.0327096
0.0327072
0.0327074
0.0327115
0.0327197
0.0327323
0.032749
0.0327702
0.0327955
0.0328257
0.032861
0.0329025
0.0329501
0.0330048
0.0330665