/*--------------------------------*- C++ -*----------------------------------*\
  =========                 |
  \\      /  F ield         | OpenFOAM: The Open Source CFD Toolbox
   \\    /   O peration     | Website:  https://openfoam.org
    \\  /    A nd           | Version:  6.0
     \\/     M anipulation  |
\*---------------------------------------------------------------------------*/
FoamFile
{
    version     2.0;
    format      ascii;
    class       surfaceScalarField;
    location    "5";
    object      phi;
}
// * * * * * * * * * * * * * * * * * * * * * * * * * * * * * * * * * * * * * //

dimensions      [0 3 -1 0 0 0 0];

internalField   nonuniform List<scalar> 
26699
(
2.0051e-05
0.005201
6.4606e-10
4.0126e-05
0.0051116
5.9638e-05
0.0049351
7.8187e-05
0.0046741
9.5416e-05
0.0043332
0.00011102
0.0039182
0.00012472
0.0034362
0.00013626
0.0028953
0.00014546
0.002305
0.00015181
0.0016755
0.00015717
0.0010154
0.00046501
3.4372e-05
2.005e-05
0.0051809
1.9778e-09
4.0127e-05
0.0050916
5.964e-05
0.0049156
7.8191e-05
0.0046556
9.5418e-05
0.004316
0.00011102
0.0039026
0.00012471
0.0034225
0.00013624
0.0028838
0.00014545
0.0022958
0.00015105
0.0016699
0.00015891
0.0010075
0.00055899
6.4926e-05
2.005e-05
0.0051609
3.4304e-09
4.0128e-05
0.0050715
5.9642e-05
0.004896
7.8194e-05
0.004637
9.542e-05
0.0042988
0.00011103
0.003887
0.00012471
0.0034088
0.00013622
0.0028723
0.00014547
0.0022865
0.00015029
0.0016651
0.00016017
0.00099766
0.00062911
9.0051e-05
2.005e-05
0.0051408
4.9106e-09
4.013e-05
0.0050514
5.9644e-05
0.0048765
7.8197e-05
0.0046185
9.5423e-05
0.0042815
0.00011103
0.0038714
0.0001247
0.0033951
0.0001362
0.0028608
0.00014551
0.0022772
0.00014955
0.0016611
0.0001609
0.0009863
0.00067978
0.00011024
2.005e-05
0.0051208
6.3958e-09
4.0131e-05
0.0050313
5.9646e-05
0.004857
7.82e-05
0.0045999
9.5427e-05
0.0042643
0.00011103
0.0038558
0.0001247
0.0033815
0.00013618
0.0028493
0.00014559
0.0022678
0.00014885
0.0016578
0.00016111
0.00097404
0.00071461
0.00012628
2.005e-05
0.0051007
7.8857e-09
4.0132e-05
0.0050112
5.9649e-05
0.0048375
7.8203e-05
0.0045814
9.543e-05
0.0042471
0.00011103
0.0038402
0.0001247
0.0033678
0.00013615
0.0028379
0.00014568
0.0022583
0.00014822
0.0016552
0.00016087
0.0009614
0.00073664
0.00013883
2.0049e-05
0.0050807
9.3804e-09
4.0133e-05
0.0049912
5.9651e-05
0.004818
7.8206e-05
0.0045628
9.5433e-05
0.0042299
0.00011103
0.0038246
0.0001247
0.0033541
0.00013612
0.0028264
0.00014579
0.0022486
0.00014768
0.0016534
0.00016026
0.00094882
0.00074844
0.00014847
2.0049e-05
0.0050606
1.088e-08
4.0134e-05
0.0049711
5.9653e-05
0.0047985
7.8209e-05
0.0045442
9.5436e-05
0.0042126
0.00011104
0.003809
0.0001247
0.0033405
0.00013608
0.0028151
0.00014592
0.0022387
0.00014724
0.001652
0.00015939
0.00093668
0.00075215
0.00015567
2.0049e-05
0.0050405
1.2384e-08
4.0135e-05
0.004951
5.9655e-05
0.0047789
7.8212e-05
0.0045257
9.5439e-05
0.0041954
0.00011104
0.0037934
0.0001247
0.0033268
0.00013604
0.0028037
0.00014605
0.0022287
0.00014691
0.0016512
0.00015833
0.00092526
0.0007496
0.00016088
2.0049e-05
0.0050205
1.3893e-08
4.0136e-05
0.0049309
5.9657e-05
0.0047594
7.8215e-05
0.0045071
9.5443e-05
0.0041782
0.00011104
0.0037778
0.0001247
0.0033131
0.00013599
0.0027924
0.0001462
0.0022185
0.00014668
0.0016507
0.00015716
0.00091478
0.00074229
0.00016447
2.0049e-05
0.0050004
1.5407e-08
4.0137e-05
0.0049108
5.966e-05
0.0047399
7.8218e-05
0.0044886
9.5446e-05
0.004161
0.00011104
0.0037622
0.00012471
0.0032995
0.00013594
0.0027812
0.00014634
0.0022081
0.00014657
0.0016505
0.00015596
0.00090539
0.00073147
0.00016677
2.0048e-05
0.0049803
1.6926e-08
4.0138e-05
0.0048907
5.9662e-05
0.0047204
7.8221e-05
0.00447
9.5449e-05
0.0041437
0.00011105
0.0037466
0.00012471
0.0032858
0.00013589
0.00277
0.00014648
0.0021975
0.00014655
0.0016504
0.00015476
0.00089718
0.00071817
0.00016806
2.0048e-05
0.0049603
1.845e-08
4.0139e-05
0.0048706
5.9664e-05
0.0047008
7.8225e-05
0.0044514
9.5453e-05
0.0041265
0.00011105
0.003731
0.00012472
0.0032721
0.00013583
0.0027589
0.00014661
0.0021868
0.00014664
0.0016504
0.00015362
0.00089019
0.00070323
0.00016856
2.0048e-05
0.0049402
1.9979e-08
4.014e-05
0.0048505
5.9666e-05
0.0046813
7.8228e-05
0.0044329
9.5456e-05
0.0041093
0.00011105
0.0037154
0.00012473
0.0032585
0.00013577
0.0027479
0.00014673
0.0021758
0.00014681
0.0016503
0.00015258
0.00088442
0.00068732
0.00016848
2.0048e-05
0.0049201
2.1514e-08
4.0141e-05
0.0048304
5.9669e-05
0.0046618
7.8231e-05
0.0044143
9.546e-05
0.004092
0.00011105
0.0036998
0.00012474
0.0032448
0.00013571
0.0027369
0.00014685
0.0021647
0.00014706
0.0016501
0.00015164
0.00087984
0.00067098
0.00016798
2.0048e-05
0.0049001
2.3053e-08
4.0143e-05
0.0048103
5.9671e-05
0.0046423
7.8234e-05
0.0043958
9.5463e-05
0.0040748
0.00011106
0.0036842
0.00012475
0.0032311
0.00013565
0.002726
0.00014694
0.0021534
0.00014737
0.0016496
0.00015083
0.00087639
0.00065462
0.00016719
2.0047e-05
0.00488
2.4599e-08
4.0144e-05
0.0047903
5.9673e-05
0.0046227
7.8237e-05
0.0043772
9.5467e-05
0.0040576
0.00011106
0.0036686
0.00012476
0.0032174
0.00013558
0.0027152
0.00014702
0.0021419
0.00014775
0.0016489
0.00015015
0.00087398
0.00063857
0.00016621
2.0047e-05
0.0048599
2.6149e-08
4.0145e-05
0.0047702
5.9675e-05
0.0046032
7.824e-05
0.0043586
9.547e-05
0.0040404
0.00011106
0.003653
0.00012478
0.0032037
0.00013551
0.0027044
0.00014709
0.0021304
0.00014816
0.0016478
0.00014962
0.00087252
0.00062306
0.00016513
2.0047e-05
0.0048399
2.7705e-08
4.0146e-05
0.0047501
5.9678e-05
0.0045837
7.8244e-05
0.0043401
9.5474e-05
0.0040231
0.00011106
0.0036374
0.0001248
0.0031899
0.00013544
0.0026938
0.00014713
0.0021187
0.00014861
0.0016464
0.00014923
0.00087191
0.00060827
0.00016402
2.0047e-05
0.0048198
2.9267e-08
4.0147e-05
0.00473
5.968e-05
0.0045641
7.8247e-05
0.0043215
9.5478e-05
0.0040059
0.00011106
0.0036218
0.00012482
0.0031762
0.00013537
0.0026832
0.00014715
0.0021069
0.00014908
0.0016444
0.00014896
0.00087203
0.0005943
0.00016293
2.0046e-05
0.0047997
3.0834e-08
4.0148e-05
0.0047099
5.9682e-05
0.0045446
7.825e-05
0.0043029
9.5482e-05
0.0039887
0.00011107
0.0036063
0.00012484
0.0031624
0.0001353
0.0026728
0.00014716
0.002095
0.00014957
0.001642
0.00014883
0.00087277
0.00058123
0.0001619
2.0046e-05
0.0047796
3.2407e-08
4.0149e-05
0.0046898
5.9684e-05
0.0045251
7.8253e-05
0.0042844
9.5486e-05
0.0039714
0.00011107
0.0035907
0.00012486
0.0031486
0.00013524
0.0026624
0.00014714
0.0020831
0.00015006
0.0016391
0.00014881
0.00087402
0.00056909
0.00016095
2.0046e-05
0.0047595
3.3986e-08
4.015e-05
0.0046696
5.9686e-05
0.0045055
7.8257e-05
0.0042658
9.549e-05
0.0039542
0.00011107
0.0035751
0.00012488
0.0031348
0.00013517
0.0026521
0.00014711
0.0020712
0.00015054
0.0016357
0.00014889
0.00087568
0.00055788
0.0001601
2.0046e-05
0.0047395
3.5571e-08
4.0151e-05
0.0046495
5.9689e-05
0.004486
7.826e-05
0.0042472
9.5494e-05
0.003937
0.00011107
0.0035595
0.00012491
0.003121
0.00013511
0.0026419
0.00014705
0.0020592
0.00015102
0.0016317
0.00014907
0.00087763
0.00054758
0.00015937
2.0045e-05
0.0047194
3.7162e-08
4.0152e-05
0.0046294
5.9691e-05
0.0044665
7.8263e-05
0.0042286
9.5498e-05
0.0039197
0.00011107
0.003544
0.00012494
0.0031071
0.00013505
0.0026318
0.00014698
0.0020473
0.00015148
0.0016272
0.00014933
0.00087978
0.00053815
0.00015875
2.0045e-05
0.0046993
3.8759e-08
4.0153e-05
0.0046093
5.9693e-05
0.0044469
7.8267e-05
0.0042101
9.5503e-05
0.0039025
0.00011107
0.0035284
0.00012497
0.0030932
0.00013499
0.0026218
0.00014689
0.0020354
0.00015192
0.0016222
0.00014965
0.00088205
0.00052955
0.00015826
2.0045e-05
0.0046792
4.0362e-08
4.0154e-05
0.0045892
5.9696e-05
0.0044274
7.827e-05
0.0041915
9.5507e-05
0.0038853
0.00011107
0.0035128
0.000125
0.0030793
0.00013494
0.0026118
0.00014679
0.0020236
0.00015233
0.0016166
0.00015003
0.00088434
0.0005217
0.00015788
2.0045e-05
0.0046591
4.1971e-08
4.0155e-05
0.0045691
5.9698e-05
0.0044078
7.8273e-05
0.0041729
9.5512e-05
0.003868
0.00011107
0.0034973
0.00012504
0.0030653
0.0001349
0.002602
0.00014666
0.0020118
0.00015271
0.0016106
0.00015046
0.00088659
0.00051456
0.0001576
2.0044e-05
0.004639
4.3586e-08
4.0156e-05
0.004549
5.97e-05
0.0043883
7.8277e-05
0.0041543
9.5516e-05
0.0038508
0.00011107
0.0034817
0.00012507
0.0030513
0.00013486
0.0025922
0.00014653
0.0020001
0.00015306
0.0016041
0.00015092
0.00088873
0.00050804
0.00015743
2.0044e-05
0.0046189
4.5209e-08
4.0157e-05
0.0045289
5.9703e-05
0.0043687
7.828e-05
0.0041358
9.5521e-05
0.0038335
0.00011106
0.0034662
0.0001251
0.0030372
0.00013483
0.0025825
0.00014638
0.0019886
0.00015337
0.0015971
0.0001514
0.0008907
0.00050209
0.00015735
2.0044e-05
0.0045989
4.6837e-08
4.0158e-05
0.0045088
5.9705e-05
0.0043492
7.8284e-05
0.0041172
9.5526e-05
0.0038163
0.00011106
0.0034506
0.00012514
0.0030232
0.0001348
0.0025728
0.00014623
0.0019772
0.00015364
0.0015897
0.00015189
0.00089245
0.00049664
0.00015734
2.0043e-05
0.0045788
4.8472e-08
4.0159e-05
0.0044887
5.9707e-05
0.0043296
7.8287e-05
0.0040986
9.5532e-05
0.0037991
0.00011106
0.0034351
0.00012518
0.003009
0.00013479
0.0025632
0.00014606
0.0019659
0.00015388
0.0015818
0.00015239
0.00089394
0.00049162
0.00015741
2.0043e-05
0.0045587
5.0114e-08
4.016e-05
0.0044685
5.971e-05
0.0043101
7.8291e-05
0.00408
9.5537e-05
0.0037818
0.00011106
0.0034196
0.00012522
0.0029949
0.00013478
0.0025536
0.00014589
0.0019548
0.00015409
0.0015736
0.00015288
0.00089514
0.00048697
0.00015753
2.0043e-05
0.0045386
5.1763e-08
4.0161e-05
0.0044484
5.9712e-05
0.0042905
7.8294e-05
0.0040614
9.5543e-05
0.0037646
0.00011105
0.0034041
0.00012525
0.0029807
0.00013477
0.0025441
0.00014571
0.0019438
0.00015425
0.0015651
0.00015337
0.00089602
0.00048263
0.00015771
2.0043e-05
0.0045185
5.3419e-08
4.0162e-05
0.0044283
5.9714e-05
0.004271
7.8298e-05
0.0040429
9.5549e-05
0.0037473
0.00011105
0.0033886
0.00012529
0.0029664
0.00013478
0.0025346
0.00014553
0.0019331
0.00015438
0.0015563
0.00015384
0.00089656
0.00047856
0.00015792
2.0042e-05
0.0044984
5.5081e-08
4.0164e-05
0.0044082
5.9717e-05
0.0042514
7.8301e-05
0.0040243
9.5555e-05
0.0037301
0.00011104
0.0033731
0.00012533
0.0029521
0.00013479
0.0025252
0.00014535
0.0019225
0.00015447
0.0015471
0.00015429
0.00089675
0.00047469
0.00015815
2.0042e-05
0.0044783
5.6751e-08
4.0165e-05
0.0043881
5.9719e-05
0.0042319
7.8305e-05
0.0040057
9.5561e-05
0.0037128
0.00011104
0.0033576
0.00012537
0.0029378
0.00013481
0.0025157
0.00014516
0.0019122
0.00015453
0.0015378
0.00015471
0.00089657
0.00047099
0.00015841
2.0042e-05
0.0044582
5.8428e-08
4.0166e-05
0.0043679
5.9721e-05
0.0042123
7.8308e-05
0.0039871
9.5567e-05
0.0036955
0.00011103
0.0033422
0.00012541
0.0029234
0.00013484
0.0025063
0.00014498
0.001902
0.00015455
0.0015282
0.0001551
0.00089602
0.00046742
0.00015868
2.0041e-05
0.0044381
6.0112e-08
4.0167e-05
0.0043478
5.9724e-05
0.0041928
7.8312e-05
0.0039685
9.5574e-05
0.0036783
0.00011103
0.0033267
0.00012544
0.002909
0.00013488
0.0024969
0.0001448
0.0018921
0.00015455
0.0015185
0.00015547
0.0008951
0.00046394
0.00015895
2.0041e-05
0.004418
6.1804e-08
4.0168e-05
0.0043277
5.9726e-05
0.0041732
7.8315e-05
0.0039499
9.5581e-05
0.003661
0.00011102
0.0033113
0.00012548
0.0028946
0.00013493
0.0024874
0.00014463
0.0018824
0.00015452
0.0015086
0.0001558
0.00089382
0.00046052
0.00015922
2.0041e-05
0.0043979
6.3503e-08
4.0169e-05
0.0043075
5.9729e-05
0.0041537
7.8319e-05
0.0039313
9.5588e-05
0.0036437
0.00011101
0.0032958
0.00012552
0.0028801
0.00013498
0.0024779
0.00014446
0.0018729
0.00015446
0.0014986
0.0001561
0.00089218
0.00045714
0.00015948
2.0041e-05
0.0043778
6.521e-08
4.017e-05
0.0042874
5.9731e-05
0.0041341
7.8322e-05
0.0039127
9.5596e-05
0.0036265
0.00011101
0.0032804
0.00012555
0.0028655
0.00013505
0.0024684
0.0001443
0.0018637
0.00015438
0.0014885
0.00015636
0.00089019
0.00045377
0.00015973
2.004e-05
0.0043577
6.6925e-08
4.0171e-05
0.0042673
5.9734e-05
0.0041145
7.8326e-05
0.0038942
9.5603e-05
0.0036092
0.000111
0.003265
0.00012558
0.0028509
0.00013512
0.0024589
0.00014415
0.0018546
0.00015427
0.0014784
0.00015659
0.00088787
0.00045039
0.00015997
2.004e-05
0.0043376
6.8647e-08
4.0172e-05
0.0042472
5.9736e-05
0.004095
7.8329e-05
0.0038756
9.5612e-05
0.0035919
0.00011099
0.0032497
0.00012561
0.0028363
0.0001352
0.0024493
0.00014401
0.0018458
0.00015415
0.0014682
0.00015679
0.00088524
0.00044699
0.00016019
2.004e-05
0.0043174
7.0378e-08
4.0173e-05
0.004227
5.9739e-05
0.0040754
7.8333e-05
0.003857
9.562e-05
0.0035746
0.00011098
0.0032343
0.00012564
0.0028216
0.00013528
0.0024397
0.00014388
0.0018372
0.00015402
0.0014581
0.00015695
0.0008823
0.00044355
0.00016039
2.0039e-05
0.0042973
7.2117e-08
4.0174e-05
0.0042069
5.9741e-05
0.0040558
7.8336e-05
0.0038384
9.5629e-05
0.0035573
0.00011097
0.003219
0.00012567
0.0028069
0.00013537
0.00243
0.00014376
0.0018288
0.00015387
0.001448
0.00015708
0.00087909
0.00044007
0.00016056
2.0039e-05
0.0042772
7.3863e-08
4.0175e-05
0.0041868
5.9744e-05
0.0040363
7.834e-05
0.0038198
9.5638e-05
0.00354
0.00011096
0.0032036
0.0001257
0.0027922
0.00013547
0.0024202
0.00014365
0.0018207
0.00015371
0.0014379
0.00015718
0.00087561
0.00043655
0.00016071
2.0039e-05
0.0042571
7.5619e-08
4.0176e-05
0.0041666
5.9747e-05
0.0040167
7.8343e-05
0.0038012
9.5647e-05
0.0035227
0.00011095
0.0031883
0.00012572
0.0027774
0.00013557
0.0024104
0.00014356
0.0018127
0.00015354
0.001428
0.00015726
0.00087189
0.00043296
0.00016084
2.0038e-05
0.004237
7.7382e-08
4.0178e-05
0.0041465
5.9749e-05
0.0039971
7.8347e-05
0.0037826
9.5657e-05
0.0035054
0.00011095
0.003173
0.00012574
0.0027626
0.00013568
0.0024004
0.00014348
0.0018049
0.00015336
0.0014181
0.0001573
0.00086795
0.00042932
0.00016094
2.0038e-05
0.0042169
7.9155e-08
4.0179e-05
0.0041263
5.9752e-05
0.0039775
7.835e-05
0.003764
9.5667e-05
0.0034881
0.00011094
0.0031578
0.00012576
0.0027478
0.00013579
0.0023904
0.00014341
0.0017973
0.00015319
0.0014083
0.00015733
0.00086381
0.00042562
0.00016103
2.0038e-05
0.0041968
8.0936e-08
4.018e-05
0.0041062
5.9755e-05
0.003958
7.8354e-05
0.0037454
9.5677e-05
0.0034708
0.00011093
0.0031425
0.00012577
0.002733
0.00013591
0.0023803
0.00014336
0.0017898
0.00015301
0.0013986
0.00015733
0.0008595
0.00042186
0.00016108
2.0037e-05
0.0041766
8.2726e-08
4.0181e-05
0.004086
5.9757e-05
0.0039384
7.8357e-05
0.0037268
9.5688e-05
0.0034534
0.00011092
0.0031273
0.00012579
0.0027181
0.00013603
0.00237
0.00014333
0.0017825
0.00015283
0.0013891
0.00015731
0.00085502
0.00041805
0.00016112
2.0037e-05
0.0041565
8.4525e-08
4.0182e-05
0.0040659
5.976e-05
0.0039188
7.8361e-05
0.0037082
9.5699e-05
0.0034361
0.00011091
0.0031121
0.00012579
0.0027032
0.00013615
0.0023597
0.00014331
0.0017753
0.00015266
0.0013798
0.00015727
0.00085041
0.00041418
0.00016114
2.0037e-05
0.0041364
8.6333e-08
4.0183e-05
0.0040458
5.9763e-05
0.0038992
7.8364e-05
0.0036896
9.571e-05
0.0034188
0.0001109
0.0030969
0.0001258
0.0026883
0.00013627
0.0023492
0.0001433
0.0017683
0.0001525
0.0013706
0.00015722
0.00084569
0.00041027
0.00016113
2.0036e-05
0.0041163
8.815e-08
4.0184e-05
0.0040256
5.9766e-05
0.0038797
7.8367e-05
0.003671
9.5722e-05
0.0034014
0.00011089
0.0030817
0.0001258
0.0026734
0.0001364
0.0023386
0.00014331
0.0017614
0.00015234
0.0013616
0.00015716
0.00084087
0.00040632
0.00016111
2.0036e-05
0.0040961
8.9977e-08
4.0185e-05
0.0040055
5.9768e-05
0.0038601
7.8371e-05
0.0036524
9.5734e-05
0.003384
0.00011088
0.0030666
0.0001258
0.0026585
0.00013653
0.0023279
0.00014333
0.0017546
0.00015219
0.0013527
0.00015709
0.00083596
0.00040232
0.00016108
2.0036e-05
0.004076
9.1814e-08
4.0187e-05
0.0039853
5.9771e-05
0.0038405
7.8374e-05
0.0036338
9.5747e-05
0.0033667
0.00011088
0.0030514
0.0001258
0.0026436
0.00013665
0.002317
0.00014337
0.0017479
0.00015205
0.001344
0.00015701
0.000831
0.0003983
0.00016103
2.0036e-05
0.0040559
9.366e-08
4.0188e-05
0.0039652
5.9774e-05
0.0038209
7.8377e-05
0.0036152
9.5759e-05
0.0033493
0.00011087
0.0030363
0.0001258
0.0026286
0.00013678
0.002306
0.00014342
0.0017412
0.00015192
0.0013355
0.00015692
0.00082599
0.00039425
0.00016097
2.0035e-05
0.0040358
9.5517e-08
4.0189e-05
0.003945
5.9777e-05
0.0038013
7.8381e-05
0.0035966
9.5773e-05
0.0033319
0.00011086
0.0030212
0.00012579
0.0026137
0.0001369
0.0022949
0.00014348
0.0017347
0.0001518
0.0013272
0.00015684
0.00082096
0.00039018
0.0001609
2.0035e-05
0.0040156
9.7383e-08
4.019e-05
0.0039248
5.978e-05
0.0037817
7.8384e-05
0.003578
9.5786e-05
0.0033145
0.00011086
0.0030061
0.00012577
0.0025988
0.00013703
0.0022837
0.00014356
0.0017281
0.0001517
0.0013191
0.00015675
0.00081591
0.0003861
0.00016083
2.0035e-05
0.0039955
9.926e-08
4.0191e-05
0.0039047
5.9783e-05
0.0037621
7.8387e-05
0.0035594
9.58e-05
0.0032971
0.00011085
0.0029911
0.00012576
0.0025839
0.00013715
0.0022723
0.00014365
0.0017216
0.00015161
0.0013111
0.00015666
0.00081085
0.00038201
0.00016075
2.0034e-05
0.0039754
1.0115e-07
4.0192e-05
0.0038845
5.9786e-05
0.0037425
7.839e-05
0.0035408
9.5814e-05
0.0032797
0.00011085
0.0029761
0.00012574
0.002569
0.00013727
0.0022608
0.00014375
0.0017151
0.00015153
0.0013033
0.00015658
0.00080581
0.00037793
0.00016066
2.0034e-05
0.0039552
1.0304e-07
4.0194e-05
0.0038644
5.9789e-05
0.0037229
7.8393e-05
0.0035222
9.5829e-05
0.0032622
0.00011084
0.002961
0.00012572
0.0025541
0.00013739
0.0022491
0.00014386
0.0017087
0.00015148
0.0012957
0.0001565
0.00080078
0.00037385
0.00016058
2.0034e-05
0.0039351
1.0495e-07
4.0195e-05
0.0038442
5.9792e-05
0.0037033
7.8396e-05
0.0035036
9.5844e-05
0.0032448
0.00011084
0.002946
0.00012569
0.0025393
0.0001375
0.0022373
0.00014398
0.0017022
0.00015143
0.0012883
0.00015643
0.00079578
0.00036979
0.00016049
2.0033e-05
0.0039149
1.0687e-07
4.0196e-05
0.0038241
5.9796e-05
0.0036837
7.8399e-05
0.003485
9.5859e-05
0.0032273
0.00011084
0.0029311
0.00012567
0.0025245
0.00013761
0.0022253
0.00014411
0.0016957
0.00015141
0.001281
0.00015637
0.00079082
0.00036575
0.00016041
2.0033e-05
0.0038948
1.088e-07
4.0197e-05
0.0038039
5.9799e-05
0.0036641
7.8402e-05
0.0034663
9.5874e-05
0.0032098
0.00011084
0.0029161
0.00012564
0.0025097
0.00013771
0.0022133
0.00014424
0.0016892
0.00015139
0.0012738
0.00015631
0.00078591
0.00036173
0.00016033
2.0033e-05
0.0038746
1.1074e-07
4.0198e-05
0.0037837
5.9802e-05
0.0036445
7.8405e-05
0.0034477
9.589e-05
0.0031924
0.00011084
0.0029011
0.00012561
0.0024949
0.00013781
0.0022011
0.00014439
0.0016826
0.0001514
0.0012668
0.00015627
0.00078104
0.00035774
0.00016025
2.0032e-05
0.0038545
1.127e-07
4.02e-05
0.0037636
5.9805e-05
0.0036249
7.8407e-05
0.0034291
9.5906e-05
0.0031749
0.00011084
0.0028862
0.00012557
0.0024802
0.0001379
0.0021887
0.00014454
0.001676
0.00015142
0.0012599
0.00015623
0.00077622
0.00035379
0.00016018
2.0032e-05
0.0038344
1.1466e-07
4.0201e-05
0.0037434
5.9809e-05
0.0036053
7.841e-05
0.0034105
9.5922e-05
0.0031573
0.00011085
0.0028713
0.00012553
0.0024655
0.00013799
0.0021763
0.00014469
0.0016693
0.00015145
0.0012532
0.00015621
0.00077147
0.00034988
0.00016012
2.0032e-05
0.0038142
1.1664e-07
4.0202e-05
0.0037232
5.9812e-05
0.0035857
7.8413e-05
0.0033919
9.5938e-05
0.0031398
0.00011085
0.0028564
0.0001255
0.0024508
0.00013807
0.0021637
0.00014485
0.0016625
0.0001515
0.0012465
0.0001562
0.00076677
0.00034601
0.00016006
2.0031e-05
0.0037941
1.1863e-07
4.0203e-05
0.003703
5.9816e-05
0.0035661
7.8415e-05
0.0033733
9.5955e-05
0.0031223
0.00011086
0.0028415
0.00012546
0.0024362
0.00013815
0.002151
0.00014501
0.0016556
0.00015156
0.00124
0.0001562
0.00076214
0.00034219
0.00016002
2.0031e-05
0.0037739
1.2063e-07
4.0205e-05
0.0036829
5.9819e-05
0.0035465
7.8418e-05
0.0033547
9.5971e-05
0.0031047
0.00011087
0.0028266
0.00012541
0.0024217
0.00013822
0.0021382
0.00014517
0.0016487
0.00015163
0.0012335
0.00015621
0.00075756
0.00033842
0.00015998
2.0031e-05
0.0037538
1.2265e-07
4.0206e-05
0.0036627
5.9823e-05
0.0035269
7.842e-05
0.0033361
9.5988e-05
0.0030872
0.00011088
0.0028117
0.00012537
0.0024072
0.00013828
0.0021253
0.00014534
0.0016416
0.00015172
0.0012271
0.00015623
0.00075305
0.0003347
0.00015995
2.003e-05
0.0037336
1.2467e-07
4.0207e-05
0.0036425
5.9827e-05
0.0035073
7.8422e-05
0.0033176
9.6005e-05
0.0030696
0.00011089
0.0027968
0.00012532
0.0023928
0.00013834
0.0021123
0.0001455
0.0016345
0.00015182
0.0012208
0.00015627
0.0007486
0.00033103
0.00015994
2.003e-05
0.0037134
1.2671e-07
4.0208e-05
0.0036223
5.983e-05
0.0034876
7.8425e-05
0.003299
9.6022e-05
0.003052
0.0001109
0.0027819
0.00012528
0.0023784
0.00013838
0.0020992
0.00014566
0.0016272
0.00015193
0.0012145
0.00015632
0.0007442
0.00032742
0.00015993
2.003e-05
0.0036933
1.2877e-07
4.021e-05
0.0036022
5.9834e-05
0.003468
7.8427e-05
0.0032804
9.6039e-05
0.0030344
0.00011092
0.002767
0.00012523
0.0023641
0.00013843
0.002086
0.00014583
0.0016198
0.00015204
0.0012083
0.00015638
0.00073986
0.00032387
0.00015993
2.0029e-05
0.0036731
1.3083e-07
4.0211e-05
0.003582
5.9838e-05
0.0034484
7.8429e-05
0.0032618
9.6056e-05
0.0030167
0.00011093
0.0027522
0.00012518
0.0023498
0.00013846
0.0020727
0.00014599
0.0016123
0.00015217
0.0012021
0.00015645
0.00073558
0.00032038
0.00015995
2.0029e-05
0.003653
1.3291e-07
4.0212e-05
0.0035618
5.9842e-05
0.0034287
7.8431e-05
0.0032432
9.6074e-05
0.0029991
0.00011095
0.0027373
0.00012514
0.0023356
0.00013849
0.0020593
0.00014614
0.0016046
0.0001523
0.001196
0.00015654
0.00073134
0.00031695
0.00015997
2.0029e-05
0.0036328
1.3501e-07
4.0214e-05
0.0035416
5.9846e-05
0.0034091
7.8433e-05
0.0032246
9.6091e-05
0.0029814
0.00011097
0.0027224
0.00012509
0.0023215
0.00013851
0.0020459
0.00014629
0.0015968
0.00015244
0.0011898
0.00015663
0.00072715
0.00031357
0.00016
2.0029e-05
0.0036126
1.3711e-07
4.0215e-05
0.0035214
5.985e-05
0.0033895
7.8435e-05
0.003206
9.6108e-05
0.0029638
0.00011099
0.0027075
0.00012504
0.0023075
0.00013852
0.0020324
0.00014644
0.0015889
0.00015258
0.0011837
0.00015673
0.000723
0.00031026
0.00016005
2.0028e-05
0.0035925
1.3924e-07
4.0216e-05
0.0035012
5.9854e-05
0.0033698
7.8437e-05
0.0031874
9.6125e-05
0.0029461
0.00011102
0.0026926
0.00012499
0.0022935
0.00013853
0.0020189
0.00014658
0.0015808
0.00015273
0.0011775
0.00015684
0.00071889
0.000307
0.0001601
2.0028e-05
0.0035723
1.4137e-07
4.0218e-05
0.003481
5.9858e-05
0.0033502
7.8439e-05
0.0031689
9.6141e-05
0.0029284
0.00011105
0.0026777
0.00012495
0.0022796
0.00013853
0.0020053
0.00014672
0.0015726
0.00015288
0.0011714
0.00015696
0.00071481
0.0003038
0.00016016
2.0028e-05
0.0035521
1.4353e-07
4.0219e-05
0.0034609
5.9863e-05
0.0033306
7.844e-05
0.0031503
9.6158e-05
0.0029107
0.00011107
0.0026628
0.0001249
0.0022658
0.00013852
0.0019917
0.00014685
0.0015643
0.00015303
0.0011652
0.00015708
0.00071076
0.00030066
0.00016023
2.0027e-05
0.003532
1.4569e-07
4.0221e-05
0.0034407
5.9867e-05
0.0033109
7.8442e-05
0.0031317
9.6174e-05
0.0028929
0.0001111
0.0026479
0.00012486
0.002252
0.00013851
0.0019781
0.00014697
0.0015558
0.00015319
0.001159
0.00015721
0.00070673
0.00029757
0.0001603
2.0027e-05
0.0035118
1.4788e-07
4.0222e-05
0.0034205
5.9872e-05
0.0032913
7.8444e-05
0.0031131
9.619e-05
0.0028752
0.00011114
0.0026329
0.00012482
0.0022383
0.00013849
0.0019644
0.00014709
0.0015472
0.00015334
0.0011527
0.00015735
0.00070272
0.00029454
0.00016038
2.0027e-05
0.0034916
1.5008e-07
4.0223e-05
0.0034003
5.9876e-05
0.0032716
7.8445e-05
0.0030946
9.6206e-05
0.0028574
0.00011117
0.002618
0.00012477
0.0022247
0.00013846
0.0019507
0.0001472
0.0015385
0.00015349
0.0011465
0.00015749
0.00069872
0.00029155
0.00016047
2.0026e-05
0.0034714
1.5229e-07
4.0225e-05
0.0033801
5.9881e-05
0.003252
7.8447e-05
0.003076
9.6221e-05
0.0028396
0.00011121
0.002603
0.00012474
0.0022112
0.00013843
0.001937
0.0001473
0.0015296
0.00015364
0.0011401
0.00015763
0.00069473
0.00028862
0.00016057
2.0026e-05
0.0034512
1.5452e-07
4.0226e-05
0.0033599
5.9886e-05
0.0032323
7.8448e-05
0.0030574
9.6236e-05
0.0028219
0.00011124
0.002588
0.0001247
0.0021978
0.0001384
0.0019233
0.00014739
0.0015206
0.00015379
0.0011337
0.00015778
0.00069074
0.00028574
0.00016066
2.0026e-05
0.0034311
1.5677e-07
4.0228e-05
0.0033397
5.9891e-05
0.0032126
7.845e-05
0.0030389
9.6251e-05
0.0028041
0.00011128
0.0025729
0.00012467
0.0021844
0.00013836
0.0019096
0.00014747
0.0015115
0.00015393
0.0011273
0.00015792
0.00068675
0.0002829
0.00016076
2.0026e-05
0.0034109
1.5904e-07
4.0229e-05
0.0033195
5.9895e-05
0.003193
7.8452e-05
0.0030203
9.6265e-05
0.0027862
0.00011132
0.0025579
0.00012464
0.0021711
0.00013831
0.001896
0.00014755
0.0015023
0.00015407
0.0011207
0.00015807
0.00068276
0.0002801
0.00016087
2.0025e-05
0.0033907
1.6132e-07
4.0231e-05
0.0032993
5.99e-05
0.0031733
7.8453e-05
0.0030018
9.6278e-05
0.0027684
0.00011137
0.0025428
0.00012461
0.0021578
0.00013826
0.0018823
0.00014762
0.0014929
0.00015421
0.0011141
0.00015821
0.00067875
0.00027734
0.00016097
2.0025e-05
0.0033705
1.6362e-07
4.0232e-05
0.0032791
5.9906e-05
0.0031536
7.8455e-05
0.0029832
9.6291e-05
0.0027506
0.00011141
0.0025277
0.00012458
0.0021446
0.00013821
0.0018687
0.00014767
0.0014834
0.00015433
0.0011075
0.00015836
0.00067473
0.00027462
0.00016108
2.0025e-05
0.0033503
1.6594e-07
4.0234e-05
0.0032588
5.9911e-05
0.0031339
7.8456e-05
0.0029647
9.6304e-05
0.0027327
0.00011146
0.0025125
0.00012456
0.0021315
0.00013816
0.0018551
0.00014772
0.0014739
0.00015446
0.0011007
0.0001585
0.00067069
0.00027194
0.00016118
2.0024e-05
0.0033301
1.6827e-07
4.0235e-05
0.0032386
5.9916e-05
0.0031143
7.8458e-05
0.0029461
9.6316e-05
0.0027149
0.0001115
0.0024973
0.00012454
0.0021185
0.0001381
0.0018415
0.00014776
0.0014642
0.00015457
0.0010939
0.00015864
0.00066662
0.00026928
0.00016129
2.0024e-05
0.0033099
1.7063e-07
4.0237e-05
0.0032184
5.9922e-05
0.0030946
7.846e-05
0.0029276
9.6327e-05
0.002697
0.00011155
0.0024821
0.00012453
0.0021055
0.00013804
0.001828
0.0001478
0.0014545
0.00015468
0.0010871
0.00015877
0.00066253
0.00026666
0.00016139
2.0024e-05
0.0032897
1.73e-07
4.0238e-05
0.0031982
5.9927e-05
0.0030749
7.8462e-05
0.0029091
9.6337e-05
0.0026791
0.0001116
0.0024668
0.00012452
0.0020926
0.00013798
0.0018145
0.00014782
0.0014446
0.00015478
0.0010801
0.0001589
0.00065841
0.00026406
0.0001615
2.0024e-05
0.0032695
1.7539e-07
4.024e-05
0.003178
5.9933e-05
0.0030552
7.8463e-05
0.0028905
9.6347e-05
0.0026612
0.00011165
0.0024515
0.00012451
0.0020797
0.00013792
0.0018011
0.00014784
0.0014347
0.00015488
0.0010731
0.00015903
0.00065426
0.00026149
0.0001616
2.0023e-05
0.0032493
1.7781e-07
4.0241e-05
0.0031578
5.9938e-05
0.0030355
7.8465e-05
0.002872
9.6356e-05
0.0026434
0.00011171
0.0024362
0.00012451
0.0020669
0.00013786
0.0017878
0.00014785
0.0014247
0.00015496
0.0010659
0.00015915
0.00065007
0.00025894
0.0001617
2.0023e-05
0.0032291
1.8024e-07
4.0243e-05
0.0031375
5.9944e-05
0.0030158
7.8468e-05
0.0028535
9.6364e-05
0.0026255
0.00011176
0.0024208
0.00012452
0.0020542
0.0001378
0.0017745
0.00014785
0.0014147
0.00015504
0.0010588
0.00015926
0.00064585
0.00025641
0.00016179
2.0023e-05
0.0032089
1.8269e-07
4.0245e-05
0.0031173
5.995e-05
0.0029961
7.847e-05
0.002835
9.6371e-05
0.0026076
0.00011181
0.0024053
0.00012452
0.0020415
0.00013774
0.0017613
0.00014785
0.0014046
0.00015511
0.0010515
0.00015937
0.00064159
0.00025389
0.00016189
2.0022e-05
0.0031887
1.8517e-07
4.0246e-05
0.0030971
5.9956e-05
0.0029764
7.8472e-05
0.0028164
9.6378e-05
0.0025897
0.00011187
0.0023898
0.00012453
0.0020288
0.00013768
0.0017482
0.00014784
0.0013944
0.00015517
0.0010442
0.00015947
0.00063729
0.00025139
0.00016197
2.0022e-05
0.0031685
1.8766e-07
4.0248e-05
0.0030769
5.9962e-05
0.0029567
7.8475e-05
0.0027979
9.6384e-05
0.0025717
0.00011192
0.0023743
0.00012455
0.0020162
0.00013762
0.0017351
0.00014782
0.0013842
0.00015522
0.0010368
0.00015957
0.00063294
0.00024889
0.00016206
2.0022e-05
0.0031483
1.9018e-07
4.0249e-05
0.0030567
5.9969e-05
0.0029369
7.8477e-05
0.0027794
9.6389e-05
0.0025538
0.00011198
0.0023587
0.00012457
0.0020036
0.00013756
0.0017221
0.0001478
0.001374
0.00015527
0.0010293
0.00015965
0.00062856
0.00024641
0.00016214
2.0022e-05
0.0031281
1.9272e-07
4.0251e-05
0.0030364
5.9975e-05
0.0029172
7.848e-05
0.0027609
9.6392e-05
0.0025359
0.00011203
0.0023431
0.0001246
0.001991
0.00013751
0.0017092
0.00014777
0.0013637
0.00015531
0.0010218
0.00015974
0.00062413
0.00024393
0.00016221
2.0021e-05
0.0031079
1.9528e-07
4.0253e-05
0.0030162
5.9981e-05
0.0028975
7.8484e-05
0.0027424
9.6396e-05
0.002518
0.00011209
0.0023274
0.00012463
0.0019785
0.00013746
0.0016964
0.00014775
0.0013534
0.00015534
0.0010142
0.00015981
0.00061965
0.00024146
0.00016228
2.0021e-05
0.0030876
1.9787e-07
4.0254e-05
0.002996
5.9988e-05
0.0028778
7.8487e-05
0.0027239
9.6398e-05
0.0025001
0.00011215
0.0023116
0.00012466
0.001966
0.00013741
0.0016836
0.00014771
0.0013431
0.00015536
0.0010065
0.00015988
0.00061513
0.00023899
0.00016235
2.0021e-05
0.0030674
2.0047e-07
4.0256e-05
0.0029757
5.9995e-05
0.002858
7.8491e-05
0.0027054
9.6399e-05
0.0024822
0.0001122
0.0022958
0.0001247
0.0019535
0.00013736
0.0016709
0.00014768
0.0013328
0.00015538
0.00099882
0.00015994
0.00061057
0.00023652
0.00016241
2.0021e-05
0.0030472
2.0311e-07
4.0258e-05
0.0029555
6.0001e-05
0.0028383
7.8495e-05
0.0026869
9.6399e-05
0.0024643
0.00011226
0.00228
0.00012474
0.001941
0.00013732
0.0016584
0.00014764
0.0013225
0.00015539
0.00099107
0.00015999
0.00060597
0.00023405
0.00016246
2.002e-05
0.003027
2.0576e-07
4.026e-05
0.0029352
6.0008e-05
0.0028185
7.8499e-05
0.0026684
9.6399e-05
0.0024464
0.00011231
0.0022641
0.00012479
0.0019285
0.00013729
0.0016459
0.0001476
0.0013121
0.00015539
0.00098328
0.00016004
0.00060132
0.00023158
0.00016251
2.002e-05
0.0030067
2.0845e-07
4.0261e-05
0.002915
6.0015e-05
0.0027988
7.8504e-05
0.0026499
9.6397e-05
0.0024285
0.00011236
0.0022481
0.00012484
0.001916
0.00013726
0.0016334
0.00014756
0.0013018
0.00015539
0.00097545
0.00016008
0.00059664
0.00022911
0.00016256
2.002e-05
0.0029865
2.1115e-07
4.0263e-05
0.0028948
6.0022e-05
0.002779
7.8509e-05
0.0026315
9.6395e-05
0.0024106
0.00011242
0.0022321
0.00012489
0.0019036
0.00013723
0.0016211
0.00014752
0.0012915
0.00015539
0.00096758
0.00016012
0.00059191
0.00022663
0.0001626
2.002e-05
0.0029663
2.1389e-07
4.0265e-05
0.0028745
6.0029e-05
0.0027593
7.8514e-05
0.002613
9.6392e-05
0.0023927
0.00011247
0.002216
0.00012495
0.0018911
0.00013721
0.0016089
0.00014748