/*--------------------------------*- C++ -*----------------------------------*\
  =========                 |
  \\      /  F ield         | OpenFOAM: The Open Source CFD Toolbox
   \\    /   O peration     | Website:  https://openfoam.org
    \\  /    A nd           | Version:  6.0
     \\/     M anipulation  |
\*---------------------------------------------------------------------------*/
FoamFile
{
    version     2.0;
    format      ascii;
    class       volScalarField;
    location    "15";
    object      p;
}
// * * * * * * * * * * * * * * * * * * * * * * * * * * * * * * * * * * * * * //

dimensions      [0 2 -2 0 0 0 0];

internalField   nonuniform List<scalar> 
248000
(
0.019138
0.0191313
0.0191255
0.0191208
0.0191171
0.0191144
0.0191128
0.0191122
0.0191126
0.019114
0.0191165
0.01912
0.0191246
0.0191303
0.0191371
0.0191449
0.0191539
0.0191641
0.0191754
0.0191878
0.0192016
0.0192165
0.0192328
0.0192504
0.0192693
0.0192897
0.0193114
0.0193346
0.0193594
0.0193858
0.0194138
0.0194436
0.0194753
0.019509
0.0195449
0.0195831
0.0196238
0.0196672
0.0197134
0.0197626
0.0198152
0.0198712
0.019931
0.0199949
0.0200631
0.0201359
0.0202137
0.0202969
0.0203857
0.0204804
0.0205814
0.0206894
0.0208049
0.0209286
0.0210612
0.0212036
0.0213564
0.0215204
0.0216965
0.0218854
0.022088
0.022305
0.0225371
0.0227845
0.0230479
0.023327
0.0236216
0.0239309
0.0242542
0.0245903
0.0249381
0.0252957
0.0256607
0.02603
0.0264002
0.0267674
0.0271271
0.0274752
0.0278071
0.0281189
0.028407
0.0286684
0.0289013
0.0291048
0.0292788
0.0294243
0.0295422
0.0296333
0.0296971
0.0297305
0.0297282
0.0296811
0.0295776
0.0294042
0.0291484
0.0288011
0.0283605
0.0278347
0.0272442
0.0266203
0.0260036
0.0254369
0.0249587
0.0245942
0.0243508
0.024216
0.0241546
0.0241107
0.0240203
0.0238217
0.0234623
0.0229058
0.0221359
0.0211531
0.0199889
0.0186442
0.0172754
0.0156048
0.014781
0.0164618
0.0191372
0.0191316
0.0191268
0.0191231
0.0191203
0.0191185
0.0191177
0.0191179
0.019119
0.0191211
0.0191243
0.0191284
0.0191335
0.0191397
0.0191468
0.019155
0.0191643
0.0191747
0.0191861
0.0191986
0.0192124
0.0192272
0.0192433
0.0192606
0.0192792
0.0192991
0.0193204
0.0193431
0.0193672
0.0193929
0.0194202
0.0194492
0.01948
0.0195128
0.0195478
0.0195849
0.0196246
0.0196668
0.0197119
0.01976
0.0198114
0.0198663
0.019925
0.0199878
0.020055
0.0201269
0.0202039
0.0202863
0.0203744
0.0204686
0.0205692
0.020677
0.0207925
0.0209164
0.0210495
0.0211925
0.0213464
0.0215118
0.0216897
0.0218808
0.0220862
0.0223065
0.0225425
0.0227946
0.0230635
0.0233491
0.0236513
0.0239693
0.0243024
0.0246497
0.0250104
0.0253827
0.0257645
0.0261528
0.0265444
0.0269355
0.0273219
0.0276995
0.0280642
0.0284119
0.0287394
0.0290439
0.0293237
0.0295782
0.0298077
0.0300136
0.0301974
0.0303603
0.0305021
0.0306204
0.0307095
0.0307599
0.0307585
0.0306895
0.0305371
0.030288
0.0299358
0.0294843
0.0289509
0.0283661
0.0277725
0.0272187
0.0267517
0.026408
0.026206
0.0261448
0.0261954
0.0263011
0.026391
0.0263906
0.0262295
0.0258505
0.0252157
0.0243037
0.0231335
0.0216792
0.0201309
0.0181366
0.0175952
0.0182374
0.0191122
0.0191122
0.0191123
0.0191127
0.0191134
0.0191146
0.0191161
0.0191182
0.0191207
0.0191239
0.0191277
0.0191321
0.0191373
0.0191433
0.0191501
0.0191578
0.0191664
0.019176
0.0191866
0.0191983
0.0192111
0.019225
0.0192402
0.0192566
0.0192743
0.0192933
0.0193137
0.0193355
0.0193588
0.0193837
0.0194102
0.0194385
0.0194687
0.0195008
0.0195351
0.0195716
0.0196106
0.0196523
0.0196968
0.0197443
0.0197951
0.0198494
0.0199076
0.0199698
0.0200364
0.0201077
0.0201841
0.0202658
0.0203531
0.0204463
0.020546
0.0206527
0.020767
0.0208895
0.0210211
0.0211625
0.0213144
0.0214778
0.0216533
0.0218419
0.0220444
0.0222616
0.0224941
0.0227425
0.0230072
0.0232884
0.0235859
0.0238986
0.0242259
0.0245669
0.0249208
0.0252859
0.0256601
0.0260405
0.0264235
0.0268053
0.0271818
0.0275486
0.0279015
0.0282364
0.0285497
0.0288387
0.0291016
0.0293378
0.0295479
0.0297334
0.0298965
0.030039
0.0301619
0.0302634
0.0303386
0.0303781
0.0303681
0.0302909
0.0301267
0.0298567
0.0294672
0.0289533
0.0283228
0.0275984
0.0268162
0.0260234
0.0252692
0.0245994
0.0240447
0.023625
0.0233311
0.0231238
0.0229482
0.0227427
0.0224445
0.0219991
0.0213682
0.0205268
0.0194942
0.0182439
0.0169784
0.0154492
0.015558
0.0160145
0.0191165
0.0191197
0.0191225
0.0191252
0.0191279
0.0191308
0.0191339
0.0191371
0.0191406
0.0191445
0.0191487
0.0191533
0.0191585
0.0191641
0.0191704
0.0191774
0.0191851
0.0191936
0.019203
0.0192132
0.0192246
0.019237
0.0192505
0.0192652
0.0192811
0.0192983
0.0193169
0.0193369
0.0193583
0.0193813
0.0194059
0.0194323
0.0194606
0.0194908
0.0195233
0.0195581
0.0195954
0.0196354
0.0196783
0.0197243
0.0197737
0.0198266
0.0198834
0.0199443
0.0200097
0.0200798
0.020155
0.0202356
0.0203217
0.0204138
0.0205123
0.0206177
0.0207306
0.0208517
0.0209818
0.0211216
0.0212718
0.0214333
0.021607
0.0217935
0.0219938
0.0222087
0.0224387
0.0226846
0.0229466
0.0232251
0.0235197
0.0238295
0.0241535
0.0244911
0.0248415
0.0252032
0.0255743
0.0259516
0.0263315
0.0267103
0.0270837
0.0274474
0.0277971
0.0281285
0.0284383
0.0287236
0.0289828
0.0292155
0.0294231
0.0296078
0.0297733
0.029923
0.03006
0.0301852
0.0302961
0.030386
0.0304428
0.0304491
0.030384
0.0302248
0.0299512
0.029549
0.0290145
0.028358
0.027603
0.0267876
0.0259543
0.025149
0.0244072
0.0237625
0.0232223
0.0227649
0.0223537
0.0219451
0.0214911
0.020948
0.0202842
0.0194776
0.0185513
0.0174837
0.0164798
0.0153618
0.015877
0.0169124
0.0191327
0.0191354
0.0191378
0.0191402
0.0191427
0.0191453
0.0191481
0.0191511
0.0191544
0.019158
0.0191619
0.0191663
0.0191711
0.0191764
0.0191823
0.0191888
0.0191959
0.0192037
0.0192123
0.0192218
0.0192322
0.0192435
0.0192559
0.0192693
0.0192839
0.0192997
0.0193167
0.019335
0.0193546
0.0193757
0.0193984
0.0194228
0.019449
0.0194772
0.0195075
0.0195401
0.0195753
0.0196132
0.019654
0.019698
0.0197453
0.0197963
0.0198511
0.0199101
0.0199737
0.020042
0.0201156
0.0201945
0.0202791
0.0203698
0.0204668
0.0205707
0.0206821
0.0208017
0.0209303
0.0210685
0.0212171
0.0213769
0.0215488
0.0217335
0.0219319
0.0221448
0.0223728
0.0226166
0.0228765
0.0231528
0.0234453
0.0237529
0.0240745
0.0244096
0.0247577
0.0251174
0.0254867
0.0258624
0.0262409
0.0266182
0.02699
0.027352
0.0276996
0.0280288
0.0283357
0.0286176
0.0288729
0.0291015
0.0293053
0.0294877
0.0296536
0.0298091
0.02996
0.0301111
0.0302643
0.0304176
0.0305636
0.0306888
0.030775
0.0307996
0.0307395
0.0305747
0.0302914
0.0298878
0.0293727
0.0287698
0.0281084
0.0274251
0.026749
0.0261162
0.0255401
0.0250066
0.0244907
0.0239616
0.0233837
0.022723
0.0219543
0.0210583
0.0200607
0.0189421
0.0179055
0.0167885
0.0172619
0.0183165
0.0191369
0.019139
0.0191409
0.0191428
0.0191448
0.019147
0.0191493
0.0191518
0.0191545
0.0191576
0.0191609
0.0191646
0.0191688
0.0191733
0.0191784
0.019184
0.0191903
0.0191971
0.0192048
0.0192132
0.0192225
0.0192327
0.0192439
0.0192561
0.0192695
0.019284
0.0192997
0.0193167
0.0193349
0.0193546
0.0193758
0.0193985
0.0194231
0.0194496
0.0194782
0.0195091
0.0195425
0.0195786
0.0196176
0.0196597
0.0197053
0.0197544
0.0198075
0.0198647
0.0199264
0.0199929
0.0200645
0.0201416
0.0202244
0.0203132
0.0204084
0.0205104
0.0206198
0.0207372
0.0208635
0.0209992
0.021145
0.0213019
0.0214705
0.0216516
0.0218461
0.0220547
0.022278
0.0225166
0.0227707
0.0230408
0.0233266
0.0236269
0.0239405
0.024267
0.0246059
0.024956
0.025315
0.0256794
0.0260452
0.0264083
0.0267643
0.0271082
0.0274353
0.0277408
0.0280204
0.0282708
0.0284898
0.028677
0.0288341
0.0289648
0.0290752
0.0291727
0.029266
0.0293634
0.0294719
0.0295951
0.029732
0.0298761
0.0300148
0.0301303
0.0302017
0.0302077
0.0301302
0.0299587
0.0296906
0.0293358
0.0289091
0.0284339
0.027928
0.0274218
0.0269264
0.0264279
0.0259055
0.0253363
0.0246929
0.0239487
0.0230845
0.0220856
0.0209826
0.0197628
0.018635
0.0174596
0.0178374
0.018765
0.0191378
0.0191408
0.0191434
0.0191458
0.0191481
0.0191504
0.0191525
0.0191547
0.0191569
0.0191592
0.0191617
0.0191643
0.0191671
0.0191703
0.0191738
0.0191777
0.0191821
0.0191871
0.0191927
0.019199
0.0192062
0.0192142
0.0192232
0.0192332
0.0192445
0.0192568
0.0192704
0.0192854
0.0193017
0.0193194
0.0193388
0.0193598
0.0193827
0.0194075
0.0194345
0.0194637
0.0194955
0.01953
0.0195674
0.019608
0.0196519
0.0196994
0.0197508
0.0198063
0.0198663
0.0199309
0.0200007
0.0200757
0.0201564
0.0202431
0.0203361
0.0204358
0.0205427
0.0206576
0.0207809
0.0209135
0.0210559
0.0212089
0.0213733
0.0215499
0.0217393
0.0219423
0.0221595
0.0223912
0.0226378
0.0228996
0.0231764
0.0234669
0.0237701
0.0240856
0.0244129
0.0247507
0.0250962
0.0254455
0.0257943
0.0261381
0.0264722
0.026791
0.027089
0.0273605
0.0276002
0.0278035
0.0279671
0.0280892
0.0281705
0.028214
0.028225
0.0282117
0.0281838
0.0281524
0.0281281
0.0281198
0.0281331
0.0281689
0.0282224
0.0282834
0.028337
0.028366
0.028353
0.0282849
0.028153
0.0279581
0.0277039
0.0274024
0.02706
0.026699
0.0263247
0.0259197
0.0254641
0.024939
0.0243225
0.023594
0.0227406
0.0217539
0.0206735
0.0194985
0.0184479
0.0174256
0.0179053
0.0190334
0.0191454
0.0191492
0.0191522
0.0191548
0.0191571
0.0191591
0.0191609
0.0191625
0.0191639
0.0191652
0.0191665
0.0191678
0.0191692
0.0191706
0.0191722
0.0191741
0.0191762
0.0191788
0.0191818
0.0191854
0.0191898
0.0191949
0.0192009
0.019208
0.0192162
0.0192255
0.0192362
0.0192483
0.0192618
0.0192769
0.0192937
0.0193123
0.0193327
0.0193553
0.01938
0.0194072
0.0194369
0.0194694
0.0195048
0.0195435
0.0195855
0.0196312
0.0196807
0.0197344
0.0197924
0.0198551
0.0199228
0.0199956
0.020074
0.0201585
0.0202492
0.0203466
0.0204512
0.0205636
0.0206845
0.0208145
0.0209541
0.0211043
0.0212657
0.0214392
0.0216254
0.0218249
0.0220385
0.0222663
0.0225088
0.0227663
0.0230386
0.0233248
0.023624
0.0239359
0.0242603
0.0245954
0.024938
0.025284
0.0256288
0.0259679
0.0262959
0.0266068
0.0268943
0.0271516
0.0273721
0.0275498
0.0276796
0.027758
0.0277835
0.0277572
0.027683
0.0275677
0.0274207
0.0272537
0.0270794
0.02691
0.0267563
0.0266256
0.0265209
0.02644
0.0263761
0.0263189
0.0262558
0.026176
0.02607
0.0259349
0.0257683
0.0255744
0.0253517
0.0251151
0.0248639
0.0245768
0.0242327
0.0238154
0.0233062
0.0226883
0.021954
0.0211006
0.0201753
0.0191879
0.0183581
0.0176299
0.018314
0.0197945
0.0191417
0.0191462
0.0191497
0.0191525
0.0191548
0.0191566
0.0191578
0.0191587
0.0191593
0.0191596
0.0191596
0.0191596
0.0191594
0.0191592
0.0191591
0.019159
0.0191592
0.0191596
0.0191604
0.0191616
0.0191634
0.0191659
0.0191692
0.0191734
0.0191787
0.0191851
0.0191928
0.0192019
0.0192125
0.0192247
0.0192387
0.0192545
0.0192723
0.0192922
0.0193144
0.019339
0.0193663
0.0193963
0.0194294
0.0194656
0.0195054
0.0195488
0.0195961
0.0196475
0.0197034
0.0197639
0.0198293
0.0198999
0.0199761
0.0200584
0.0201471
0.0202426
0.0203454
0.0204563
0.0205758
0.0207045
0.0208432
0.0209927
0.0211538
0.0213273
0.0215138
0.0217143
0.0219292
0.022159
0.0224041
0.0226649
0.0229415
0.0232333
0.0235401
0.0238618
0.0241981
0.0245471
0.0249056
0.0252691
0.0256334
0.0259938
0.0263448
0.0266802
0.026993
0.0272755
0.0275199
0.0277189
0.0278655
0.0279541
0.027981
0.0279446
0.0278463
0.0276906
0.0274848
0.0272394
0.0269671
0.0266813
0.0263958
0.0261219
0.0258688
0.0256412
0.0254402
0.0252627
0.0251031
0.0249554
0.0248128
0.0246727
0.0245311
0.0243883
0.0242385
0.0240911
0.023941
0.0237633
0.0235357
0.0232427
0.0228669
0.0223928
0.0218147
0.0211318
0.0203939
0.0196147
0.0189995
0.0185119
0.0193139
0.0209855
0.0191089
0.0191122
0.0191146
0.0191164
0.0191177
0.0191185
0.0191189
0.0191189
0.0191185
0.019118
0.0191172
0.0191162
0.0191151
0.019114
0.0191129
0.0191118
0.0191109
0.0191102
0.0191098
0.0191096
0.0191101
0.019111
0.0191127
0.0191152
0.0191187
0.0191232
0.019129
0.0191361
0.0191446
0.0191547
0.0191664
0.0191799
0.0191954
0.019213
0.0192328
0.019255
0.0192798
0.0193073
0.0193379
0.0193717
0.019409
0.0194499
0.0194948
0.0195438
0.0195974
0.0196556
0.0197188
0.0197873
0.0198615
0.019942
0.020029
0.0201232
0.020225
0.0203352
0.0204544
0.0205833
0.0207226
0.0208734
0.0210365
0.0212128
0.021403
0.021608
0.0218286
0.0220654
0.0223188
0.0225895
0.022878
0.0231842
0.0235082
0.0238506
0.0242113
0.0245883
0.0249783
0.0253774
0.0257813
0.026186
0.0265861
0.0269754
0.0273466
0.0276915
0.0280017
0.0282686
0.0284838
0.0286399
0.0287306
0.028752
0.0287023
0.0285829
0.0283985
0.0281568
0.0278687
0.0275468
0.0272053
0.0268576
0.0265162
0.026191
0.0258887
0.0256129
0.0253644
0.0251428
0.0249456
0.0247728
0.0246214
0.0244907
0.024373
0.0242751
0.0241887
0.0240862
0.023944
0.023746
0.0234744
0.0231124
0.0226531
0.0220932
0.0214798
0.0208239
0.020307
0.0198956
0.0206441
0.0222439
0.0190289
0.0190307
0.0190318
0.0190325
0.0190328
0.0190327
0.0190322
0.0190314
0.0190304
0.0190292
0.0190278
0.0190264
0.0190248
0.0190233
0.0190219
0.0190205
0.0190194
0.0190184
0.0190178
0.0190175
0.0190176
0.0190183
0.0190196
0.0190217
0.0190247
0.0190286
0.0190337
0.0190399
0.0190476
0.0190566
0.0190673
0.0190796
0.0190938
0.01911
0.0191283
0.0191488
0.0191718
0.0191974
0.019226
0.0192577
0.0192928
0.0193315
0.0193742
0.0194211
0.0194725
0.0195287
0.01959
0.0196567
0.0197292
0.0198082
0.019894
0.0199872
0.0200884
0.0201984
0.0203178
0.0204475
0.0205882
0.0207411
0.020907
0.021087
0.0212819
0.0214927
0.0217204
0.0219658
0.0222295
0.0225126
0.0228156
0.0231391
0.0234838
0.0238507
0.0242399
0.0246497
0.0250772
0.0255186
0.0259705
0.0264295
0.0268906
0.027348
0.0277946
0.0282221
0.0286217
0.0289845
0.0293009
0.0295621
0.02976
0.029888
0.029942
0.0299199
0.0298233
0.0296565
0.0294275
0.0291467
0.0288267
0.028481
0.0281232
0.0277655
0.0274185
0.0270904
0.0267869
0.0265128
0.0262696
0.0260607
0.0258849
0.0257428
0.0256263
0.0255411
0.0254771
0.0254049
0.0252995
0.0251438
0.0249181
0.0246031
0.0241883
0.0236658
0.0230765
0.0224273
0.021874
0.021382
0.021937
0.0232778
0.0189077
0.0189065
0.018905
0.0189034
0.0189018
0.0189001
0.0188984
0.0188967
0.0188949
0.0188932
0.0188915
0.0188899
0.0188884
0.018887
0.0188858
0.0188847
0.0188839
0.0188834
0.0188833
0.0188834
0.0188842
0.0188854
0.0188873
0.0188899
0.0188934
0.0188978
0.0189033
0.0189099
0.0189178
0.018927
0.0189376
0.0189498
0.0189638
0.0189794
0.0189971
0.0190168
0.0190389
0.0190634
0.0190907
0.019121
0.0191546
0.0191916
0.0192326
0.0192777
0.0193274
0.019382
0.0194417
0.0195069
0.0195782
0.0196559
0.0197407
0.0198331
0.0199337
0.0200433
0.0201627
0.0202927
0.0204342
0.0205883
0.0207562
0.0209387
0.0211368
0.0213517
0.0215846
0.0218365
0.0221081
0.0224008
0.0227154
0.0230529
0.0234144
0.0238016
0.0242146
0.0246522
0.0251118
0.0255903
0.026085
0.0265934
0.0271113
0.0276331
0.0281527
0.028662
0.0291523
0.0296146
0.0300391
0.030416
0.030736
0.0309907
0.0311735
0.0312798
0.0313078
0.0312588
0.0311371
0.0309503
0.0307083
0.030423
0.0301071
0.0297737
0.0294346
0.029101
0.0287813
0.0284842
0.0282145
0.0279786
0.0277775
0.0276131
0.0274779
0.0273782
0.0273027
0.0272206
0.0271063
0.0269412
0.0267038
0.0263716
0.0259305
0.0253676
0.0247181
0.023986
0.0233066
0.0226478
0.0229499
0.0239657
0.0187415
0.0187385
0.0187356
0.0187328
0.0187301
0.0187276
0.0187252
0.0187229
0.0187207
0.0187187
0.0187169
0.0187153
0.0187139
0.0187127
0.0187119
0.0187113
0.0187111
0.0187113
0.0187119
0.0187129
0.0187145
0.0187167
0.0187195
0.0187231
0.0187276
0.018733
0.0187394
0.0187469
0.0187556
0.0187656
0.018777
0.0187898
0.0188043
0.0188203
0.0188382
0.018858
0.0188799
0.0189041
0.0189309
0.0189605
0.0189932
0.0190292
0.019069
0.019113
0.0191614
0.0192147
0.0192732
0.0193372
0.0194074
0.0194841
0.0195678
0.019659
0.0197585
0.019867
0.0199854
0.0201144
0.0202551
0.0204085
0.0205758
0.020758
0.020956
0.0211712
0.021405
0.0216583
0.0219322
0.0222281
0.0225473
0.0228907
0.0232602
0.0236576
0.0240833
0.0245364
0.0250148
0.0255162
0.0260386
0.0265806
0.0271387
0.027708
0.0282833
0.028857
0.0294211
0.0299671
0.030485
0.0309651
0.0313973
0.0317719
0.0320811
0.0323178
0.0324779
0.0325594
0.0325634
0.0324945
0.0323594
0.0321675
0.0319299
0.0316584
0.0313649
0.0310614
0.0307581
0.0304653
0.0301903
0.0299416
0.0297217
0.0295342
0.0293725
0.029244
0.0291367
0.0290192
0.0288655
0.028656
0.0283678
0.0279765
0.0274645
0.0268161
0.0260624
0.025208
0.0243748
0.0235378
0.0235997
0.0243155
0.0185466
0.0185413
0.0185364
0.0185319
0.0185278
0.0185242
0.018521
0.0185182
0.0185158
0.0185137
0.0185121
0.0185108
0.0185099
0.0185093
0.0185091
0.0185093
0.01851
0.018511
0.0185126
0.0185146
0.0185172
0.0185205
0.0185245
0.0185292
0.0185349
0.0185414
0.018549
0.0185576
0.0185674
0.0185785
0.0185908
0.0186045
0.0186197
0.0186364
0.0186548
0.018675
0.0186971
0.0187214
0.0187481
0.0187774
0.0188097
0.0188451
0.0188842
0.0189272
0.0189747
0.0190269
0.0190843
0.0191472
0.0192162
0.0192916
0.0193739
0.0194635
0.019561
0.0196674
0.0197833
0.0199096
0.0200471
0.0201972
0.0203609
0.020539
0.0207327
0.0209433
0.0211723
0.0214208
0.0216899
0.0219812
0.022296
0.0226356
0.0230017
0.0233967
0.0238212
0.0242744
0.024755
0.0252611
0.0257916
0.0263461
0.026922
0.0275149
0.0281208
0.0287329
0.029344
0.0299462
0.0305303
0.0310868
0.0316055
0.0320762
0.0324901
0.0328389
0.0331165
0.0333184
0.0334431
0.0334922
0.0334694
0.0333814
0.0332368
0.0330457
0.0328189
0.0325678
0.032303
0.0320355
0.0317738
0.0315271
0.0312996
0.0310954
0.0309096
0.0307504
0.0306057
0.030444
0.0302394
0.0299719
0.0296182
0.0291529
0.028557
0.0278136
0.0269525
0.0259819
0.0250159
0.0240397
0.0239153
0.0244012
0.018321
0.0183156
0.0183107
0.0183063
0.0183024
0.018299
0.0182959
0.0182933
0.0182912
0.0182894
0.0182881
0.0182873
0.0182869
0.0182869
0.0182874
0.0182883
0.0182898
0.0182916
0.0182941
0.018297
0.0183006
0.0183048
0.0183098
0.0183155
0.0183221
0.0183295
0.0183381
0.0183476
0.0183583
0.0183702
0.0183834
0.0183978
0.0184138
0.0184312
0.0184502
0.0184708
0.0184933
0.0185178
0.0185446
0.0185738
0.0186057
0.0186407
0.0186791
0.0187213
0.0187679
0.018819
0.0188753
0.0189369
0.0190044
0.0190782
0.0191584
0.0192455
0.0193401
0.0194429
0.0195548
0.0196763
0.0198085
0.0199525
0.0201093
0.0202799
0.0204651
0.0206664
0.0208852
0.0211228
0.0213802
0.0216592
0.0219611
0.0222869
0.022639
0.0230195
0.0234293
0.0238678
0.0243343
0.0248274
0.0253468
0.025893
0.0264639
0.0270561
0.0276666
0.0282895
0.0289184
0.0295468
0.0301658
0.0307668
0.0313401
0.0318753
0.0323636
0.0327958
0.0331646
0.0334639
0.0336899
0.0338419
0.033921
0.0339314
0.033879
0.0337719
0.0336193
0.0334311
0.0332176
0.0329893
0.0327551
0.0325244
0.0323019
0.0320921
0.0318915
0.0317094
0.0315336
0.0313327
0.0310817
0.0307608
0.0303471
0.0298155
0.0291473
0.0283261
0.0273824
0.0263302
0.0252785
0.0242227
0.023978
0.0243125
0.0180857
0.0180798
0.0180744
0.0180696
0.0180654
0.0180619
0.0180589
0.0180565
0.0180547
0.0180534
0.0180527
0.0180525
0.0180527
0.0180535
0.0180547
0.0180563
0.0180585
0.0180611
0.0180643
0.018068
0.0180723
0.0180772
0.0180829
0.0180893
0.0180966
0.0181047
0.0181139
0.018124
0.0181353
0.0181476
0.0181613
0.0181761
0.0181924
0.01821
0.0182292
0.0182499
0.0182724
0.0182968
0.0183234
0.0183522
0.0183837
0.018418
0.0184556
0.0184968
0.0185422
0.018592
0.0186467
0.0187065
0.0187721
0.0188436
0.0189211
0.0190049
0.0190954
0.0191934
0.0192997
0.0194148
0.0195395
0.019675
0.0198224
0.0199822
0.0201554
0.0203435
0.0205478
0.0207695
0.0210097
0.0212701
0.021552
0.0218566
0.0221857
0.0225421
0.0229265
0.0233384
0.0237777
0.0242435
0.0247359
0.0252563
0.0258034
0.0263744
0.0269671
0.0275768
0.0281978
0.0288248
0.02945
0.0300656
0.0306626
0.0312312
0.0317626
0.0322475
0.032678
0.0330471
0.0333494
0.0335824
0.0337452
0.0338397
0.0338697
0.0338409
0.0337608
0.0336379
0.0334811
0.0333001
0.0331035
0.0329001
0.032695
0.0324922
0.0322899
0.0320981
0.0319046
0.0316786
0.0313959
0.0310376
0.0305822
0.0300056
0.0292907
0.0284229
0.0274344
0.0263455
0.025261
0.0241841
0.0238784
0.0241292
0.0178327
0.0178285
0.0178247
0.0178215
0.0178187
0.0178163
0.0178144
0.017813
0.0178119
0.0178114
0.0178113
0.0178116
0.0178124
0.0178137
0.0178155
0.0178176
0.0178203
0.0178235
0.0178271
0.0178312
0.017836
0.0178413
0.0178473
0.017854
0.0178615
0.0178698
0.0178792
0.0178894
0.0179008
0.0179132
0.0179268
0.0179416
0.0179578
0.0179753
0.0179943
0.0180148
0.0180369
0.0180609
0.0180869
0.018115
0.0181456
0.0181788
0.0182152
0.018255
0.0182987
0.0183467
0.0183993
0.0184568
0.0185198
0.0185883
0.0186623
0.0187418
0.0188273
0.0189194
0.0190188
0.019126
0.0192417
0.019367
0.0195029
0.0196498
0.0198087
0.0199808
0.0201676
0.0203701
0.0205894
0.0208271
0.0210844
0.0213623
0.021663
0.0219887
0.0223405
0.022718
0.0231212
0.0235499
0.0240046
0.0244873
0.0249971
0.025532
0.0260907
0.0266692
0.0272629
0.0278675
0.0284763
0.0290824
0.0296778
0.0302533
0.0308008
0.0313112
0.0317765
0.0321892
0.032543
0.0328344
0.0330607
0.0332221
0.0333206
0.03336
0.033346
0.0332854
0.0331858
0.0330558
0.0329032
0.0327358
0.0325588
0.0323752
0.0321849
0.0319984
0.0318033
0.0315695
0.0312741
0.0308994
0.0304254
0.0298301
0.0290983
0.0282179
0.0272232
0.02614
0.0250684
0.0240164
0.0236938
0.0239097
0.0175792
0.0175756
0.0175722
0.0175694
0.0175671
0.0175653
0.017564
0.0175633
0.017563
0.0175632
0.0175639
0.017565
0.0175666
0.0175685
0.0175709
0.0175737
0.0175769
0.0175805
0.0175845
0.017589
0.017594
0.0175996
0.0176058
0.0176126
0.0176202
0.0176285
0.0176377
0.0176478
0.0176589
0.017671
0.0176841
0.0176984
0.017714
0.0177308
0.0177489
0.0177685
0.0177897
0.0178125
0.0178373
0.0178641
0.0178933
0.0179249
0.0179595
0.0179973
0.0180388
0.0180843
0.0181342
0.0181887
0.0182483
0.0183131
0.0183828
0.0184573
0.0185369
0.0186222
0.0187138
0.0188121
0.0189178
0.0190318
0.0191549
0.0192878
0.0194309
0.0195858
0.0197535
0.0199351
0.0201316
0.0203445
0.020575
0.0208239
0.0210931
0.0213851
0.0217007
0.0220397
0.0224025
0.022789
0.0232001
0.0236384
0.0241033
0.0245936
0.0251083
0.0256445
0.0261985
0.0267668
0.0273437
0.0279235
0.0284991
0.0290622
0.0296054
0.0301202
0.0305987
0.0310335
0.031418
0.0317477
0.0320191
0.032231
0.0323839
0.0324802
0.0325239
0.0325203
0.0324757
0.0323972
0.032292
0.0321666
0.032026
0.0318717
0.0317056
0.0315382
0.0313568
0.0311322
0.0308427
0.0304721
0.0300021
0.0294128
0.0286914
0.0278282
0.0268593
0.0258148
0.0247888
0.0237913
0.0234798
0.0236911
0.017312
0.0173108
0.0173099
0.0173093
0.017309
0.0173089
0.0173091
0.0173097
0.0173105
0.0173116
0.0173131
0.0173149
0.017317
0.0173195
0.0173223
0.0173255
0.0173291
0.0173329
0.0173372
0.0173418
0.0173469
0.0173524
0.0173585
0.0173651
0.0173724
0.0173803
0.017389
0.0173985
0.0174089
0.0174202
0.0174326
0.0174459
0.0174605
0.0174762
0.0174932
0.0175114
0.0175312
0.0175525
0.0175756
0.0176006
0.0176278
0.0176572
0.0176894
0.0177247
0.0177633
0.0178057
0.0178522
0.017903
0.0179586
0.018019
0.0180837
0.0181525
0.0182255
0.0183034
0.0183866
0.0184755
0.0185706
0.0186728
0.0187828
0.0189012
0.0190283
0.0191655
0.0193139
0.0194744
0.0196479
0.0198358
0.0200391
0.0202586
0.0204961
0.0207539
0.0210329
0.0213328
0.0216543
0.0219975
0.0223636
0.0227555
0.023173
0.0236153
0.024082
0.0245709
0.025079
0.0256037
0.0261403
0.026684
0.0272287
0.0277671
0.0282926
0.0287971
0.0292737
0.0297149
0.0301141
0.0304665
0.030768
0.0310166
0.0312117
0.0313543
0.0314473
0.0314944
0.0315011
0.0314728
0.0314162
0.031336
0.0312374
0.0311201
0.0309877
0.0308503
0.0306951
0.0304937
0.0302258
0.0298763
0.0294286
0.0288651
0.0281751
0.0273513
0.0264306
0.0254464
0.0244853
0.0235568
0.0232709
0.0234929
0.0170507
0.0170504
0.0170501
0.0170501
0.0170505
0.0170512
0.0170522
0.0170536
0.0170553
0.0170572
0.0170595
0.0170619
0.0170647
0.0170677
0.017071
0.0170744
0.0170782
0.0170821
0.0170864
0.0170909
0.0170958
0.017101
0.0171068
0.0171129
0.0171197
0.017127
0.017135
0.0171436
0.017153
0.0171632
0.0171743
0.0171863
0.0171993
0.0172134
0.0172286
0.017245
0.0172627
0.0172819
0.0173028
0.0173254
0.01735
0.0173767
0.0174059
0.017438
0.0174732
0.0175119
0.0175544
0.0176008
0.0176518
0.0177071
0.0177663
0.0178288
0.0178949
0.0179649
0.0180395
0.0181188
0.0182031
0.0182935
0.0183906
0.0184947
0.0186062
0.0187263
0.0188561
0.0189963
0.0191476
0.0193116
0.019489
0.0196805
0.0198877
0.020113
0.020357
0.0206197
0.0209017
0.0212034
0.0215263
0.0218731
0.0222444
0.0226394
0.0230584
0.0234995
0.0239606
0.0244397
0.0249331
0.0254367
0.0259453
0.0264527
0.0269529
0.0274388
0.0279039
0.0283411
0.0287444
0.0291084
0.0294292
0.0297038
0.0299312
0.0301113
0.0302462
0.0303381
0.0303919
0.0304114
0.0304027
0.0303691
0.0303156
0.0302402
0.0301479
0.0300482
0.029928
0.02976
0.0295248
0.0292086
0.0287963
0.0282723
0.0276278
0.0268572
0.0259978
0.0250847
0.0241964
0.0233404
0.0230848
0.0233226
0.0167758
0.0167784
0.0167809
0.0167835
0.0167861
0.0167887
0.0167914
0.0167941
0.0167969
0.0167998
0.0168027
0.0168057
0.0168088
0.0168121
0.0168155
0.016819
0.0168227
0.0168265
0.0168305
0.0168346
0.0168391
0.0168437
0.0168487
0.0168541
0.0168599
0.0168662
0.016873
0.0168804
0.0168885
0.0168973
0.0169069
0.0169172
0.0169285
0.0169407
0.0169539
0.0169681
0.0169835
0.0170003
0.0170185
0.0170383
0.01706
0.0170834
0.0171093
0.0171377
0.017169
0.0172035
0.0172414
0.017283
0.0173288
0.0173787
0.0174318
0.0174878
0.0175466
0.0176087
0.0176745
0.0177442
0.0178181
0.0178971
0.0179817
0.0180722
0.018169
0.018273
0.0183855
0.0185069
0.0186378
0.0187798
0.0189335
0.0190993
0.0192789
0.0194744
0.0196867
0.0199154
0.0201614
0.0204253
0.0207085
0.0210141
0.0213428
0.021694
0.0220683
0.0224645
0.0228809
0.0233162
0.0237672
0.0242308
0.0247026
0.0251771
0.0256493
0.0261127
0.0265614
0.0269891
0.0273898
0.0277585
0.0280911
0.0283844
0.0286368
0.0288476
0.0290181
0.0291497
0.0292463
0.0293105
0.0293482
0.0293608
0.0293535
0.0293224
0.0292737
0.0292162
0.0291364
0.029008
0.0288126
0.0285371
0.028168
0.0276913
0.0270998
0.0263891
0.0255962
0.0247571
0.0239413
0.0231539
0.0229274
0.0231794
0.0165049
0.0165081
0.0165111
0.0165142
0.0165174
0.0165207
0.0165241
0.0165276
0.0165312
0.0165348
0.0165385
0.0165421
0.0165458
0.0165494
0.0165531
0.0165568
0.0165605
0.0165641
0.0165679
0.0165716
0.0165756
0.0165796
0.0165839
0.0165884
0.0165933
0.0165985
0.0166042
0.0166103
0.0166169
0.016624
0.0166318
0.0166402
0.0166493
0.0166592
0.01667
0.0166816
0.0166943
0.0167081
0.0167233
0.0167399
0.0167581
0.0167779
0.0167999
0.0168242
0.0168512
0.0168811
0.0169141
0.0169504
0.0169907
0.0170347
0.0170816
0.0171307
0.0171821
0.0172362
0.0172934
0.0173539
0.0174177
0.0174858
0.0175588
0.0176367
0.0177198
0.0178092
0.0179059
0.0180103
0.018123
0.0182453
0.0183778
0.0185209
0.018676
0.0188452
0.0190294
0.0192282
0.0194426
0.0196731
0.0199214
0.0201906
0.0204814
0.0207937
0.0211282
0.021484
0.02186
0.0222553
0.0226674
0.0230938
0.0235308
0.0239737
0.0244181
0.0248584
0.0252893
0.025705
0.0261
0.0264695
0.0268094
0.0271165
0.0273889
0.0276254
0.0278267
0.0279935
0.028129
0.028235
0.0283166
0.0283741
0.0284125
0.0284263
0.0284226
0.028409
0.0283721
0.0282862
0.0281338
0.0279026
0.0275803
0.0271541
0.0266181
0.0259686
0.0252421
0.0244743
0.023726
0.0229993
0.0227979
0.0230595
0.0162161
0.016222
0.0162277
0.0162332
0.0162385
0.0162437
0.0162487
0.0162535
0.0162581
0.0162625
0.0162668
0.016271
0.016275
0.0162789
0.0162827
0.0162863
0.0162899
0.0162934
0.0162968
0.0163001
0.0163034
0.0163067
0.0163102
0.0163136
0.0163173
0.0163212
0.0163254
0.0163299
0.0163348
0.01634
0.0163459
0.0163521
0.0163591
0.0163666
0.0163748
0.0163838
0.0163936
0.0164044
0.0164163
0.0164295
0.016444
0.01646
0.0164778
0.0164978
0.0165202
0.0165451
0.0165729
0.0166037
0.0166382
0.016676
0.0167164
0.0167586
0.0168027
0.016849
0.0168979
0.0169494
0.0170037
0.0170616
0.0171237
0.0171901
0.0172608
0.017337
0.0174195
0.0175089
0.0176054
0.0177104
0.0178245
0.0179477
0.0180816
0.0182281
0.018388
0.0185612
0.0187484
0.0189503
0.0191686
0.0194064
0.0196647
0.0199434
0.0202434
0.0205643
0.020905
0.0212653
0.021643
0.0220364
0.0224421
0.0228564
0.0232753
0.023694
0.0241078
0.0245112
0.0248996
0.0252681
0.025613
0.025931
0.0262201
0.0264787
0.0267072
0.0269057
0.0270768
0.0272215
0.0273444
0.0274448
0.0275273
0.0275853
0.0276263
0.0276567
0.0276627
0.0276199
0.0275113
0.0273251
0.0270499
0.0266742
0.0261927
0.0256024
0.0249386
0.0242365
0.0235482
0.022873
0.0226914
0.0229565
0.0159324
0.0159386
0.0159444
0.0159502
0.0159558
0.0159613
0.0159668
0.0159722
0.0159774
0.0159824
0.0159873
0.0159919
0.0159963
0.0160005
0.0160044
0.016008
0.0160115
0.0160146
0.0160176
0.0160202
0.0160229
0.0160253
0.0160278
0.0160301
0.0160326
0.0160351
0.0160379
0.0160407
0.0160437
0.016047
0.0160507
0.0160547
0.0160591
0.0160639
0.0160693
0.0160752
0.0160819
0.0160893
0.0160977
0.0161071
0.0161177
0.0161296
0.0161431
0.0161585
0.016176
0.0161959
0.0162182
0.0162434
0.0162718
0.0163034
0.0163373
0.0163726
0.0164094
0.0164481
0.0164889
0.016532
0.0165773
0.0166258
0.0166779
0.0167337
0.0167932
0.0168576
0.0169276
0.0170036
0.017086
0.017176
0.0172739
0.0173802
0.0174957
0.0176229
0.0177623
0.0179136
0.0180777
0.0182554
0.0184483
0.0186596
0.0188904
0.0191407
0.0194115
0.0197026
0.0200134
0.0203437
0.020692
0.0210569
0.0214357
0.021825
0.0222216
0.0226211
0.0230196
0.023412
0.0237941
0.0241613
0.0245103
0.0248377
0.0251414
0.0254198
0.0256729
0.0259003
0.0261041
0.0262847
0.0264462
0.0265874
0.026712
0.0268128
0.026897
0.0269701
0.027018
0.0270173
0.0269514
0.0268091
0.0265796
0.0262523
0.0258225
0.0252875
0.0246813
0.0240379
0.0234015
0.0227688
0.0226021
0.0228649
0.0156276
0.0156364
0.0156447
0.0156526
0.0156603
0.0156675
0.0156744
0.0156809
0.0156869
0.0156926
0.015698
0.0157029
0.0157075
0.0157117
0.0157155
0.015719
0.0157221
0.0157249
0.0157273
0.0157293
0.0157311
0.0157326
0.0157339
0.015735
0.0157361
0.015737
0.015738
0.015739
0.0157401
0.0157413
0.0157427
0.0157443
0.0157463
0.0157485
0.0157511
0.015754
0.0157575
0.0157616
0.0157665
0.0157721
0.0157788
0.0157864
0.0157955
0.0158062
0.0158188
0.0158335
0.0158504
0.0158698
0.0158922
0.0159175
0.0159448
0.0159734
0.0160031
0.0160344
0.0160675
0.0161025
0.0161394
0.0161791
0.016222
0.0162681
0.0163175
0.0163713
0.0164301
0.0164944
0.0165643
0.0166412
0.0167254
0.0168168
0.0169168
0.0170275
0.0171494
0.0172823
0.017427
0.0175843
0.0177559
0.017945
0.0181527
0.0183792
0.0186256
0.0188918
0.0191774
0.0194826
0.0198061
0.020147
0.0205029