/*--------------------------------*- C++ -*----------------------------------*\
  =========                 |
  \\      /  F ield         | OpenFOAM: The Open Source CFD Toolbox
   \\    /   O peration     | Website:  https://openfoam.org
    \\  /    A nd           | Version:  6.0
     \\/     M anipulation  |
\*---------------------------------------------------------------------------*/
FoamFile
{
    version     2.0;
    format      ascii;
    class       volScalarField;
    location    "1.36";
    object      p;
}
// * * * * * * * * * * * * * * * * * * * * * * * * * * * * * * * * * * * * * //

dimensions      [0 2 -2 0 0 0 0];

internalField   nonuniform List<scalar> 
13500
(
0.099938
0.099987
0.099416
0.099136
0.098112
0.097863
0.097154
0.097767
0.099466
0.10351
0.12486
0.17005
0.099938
0.099988
0.099416
0.099137
0.098112
0.097863
0.097153
0.097767
0.099463
0.10357
0.12418
0.16501
0.099939
0.099989
0.099416
0.099138
0.098111
0.097864
0.097152
0.097765
0.099455
0.10361
0.12329
0.16054
0.099939
0.09999
0.099416
0.099139
0.09811
0.097864
0.097149
0.097762
0.099442
0.10363
0.12231
0.15706
0.09994
0.099992
0.099416
0.099141
0.098109
0.097864
0.097145
0.097757
0.099423
0.10363
0.12127
0.15414
0.099941
0.099994
0.099417
0.099143
0.098109
0.097864
0.097141
0.097751
0.0994
0.10362
0.12019
0.15153
0.099943
0.099996
0.099418
0.099145
0.098108
0.097864
0.097137
0.097743
0.099372
0.1036
0.1191
0.14916
0.099945
0.099998
0.099419
0.099147
0.098107
0.097864
0.097131
0.097734
0.099339
0.10357
0.11801
0.14699
0.099947
0.1
0.09942
0.09915
0.098106
0.097863
0.097125
0.097724
0.099302
0.10352
0.11695
0.14498
0.09995
0.1
0.099422
0.099152
0.098106
0.097862
0.097119
0.097713
0.09926
0.10346
0.11592
0.1431
0.099953
0.10001
0.099424
0.099155
0.098105
0.097861
0.097112
0.0977
0.099214
0.10339
0.11492
0.14134
0.099956
0.10001
0.099426
0.099158
0.098104
0.09786
0.097104
0.097685
0.099163
0.10331
0.11396
0.13967
0.09996
0.10002
0.099428
0.099161
0.098104
0.097859
0.097095
0.09767
0.099107
0.10322
0.11305
0.1381
0.099964
0.10002
0.099431
0.099164
0.098103
0.097857
0.097086
0.097652
0.099048
0.10312
0.11217
0.1366
0.099968
0.10002
0.099434
0.099167
0.098102
0.097855
0.097076
0.097634
0.098984
0.10302
0.11132
0.13517
0.099973
0.10003
0.099437
0.099171
0.098102
0.097853
0.097066
0.097614
0.098916
0.10291
0.11052
0.13381
0.099978
0.10004
0.09944
0.099175
0.098101
0.097851
0.097055
0.097593
0.098844
0.1028
0.10974
0.13251
0.099983
0.10004
0.099444
0.099179
0.098101
0.097848
0.097043
0.097571
0.098768
0.10268
0.10899
0.13126
0.099989
0.10005
0.099448
0.099183
0.0981
0.097846
0.09703
0.097547
0.098688
0.10257
0.10827
0.13006
0.099995
0.10005
0.099452
0.099187
0.0981
0.097843
0.097017
0.097522
0.098606
0.10245
0.10757
0.1289
0.1
0.10006
0.099457
0.099192
0.098099
0.09784
0.097004
0.097495
0.09852
0.10233
0.1069
0.12779
0.10001
0.10007
0.099462
0.099196
0.098099
0.097836
0.09699
0.097468
0.09843
0.10221
0.10624
0.12671
0.10002
0.10007
0.099467
0.099201
0.098098
0.097833
0.096975
0.097439
0.098338
0.10209
0.10559
0.12567
0.10002
0.10008
0.099473
0.099206
0.098098
0.097829
0.096959
0.097409
0.098244
0.10198
0.10497
0.12466
0.10003
0.10009
0.099479
0.099212
0.098098
0.097825
0.096943
0.097378
0.098147
0.10186
0.10435
0.12368
0.10004
0.1001
0.099485
0.099217
0.098098
0.097821
0.096926
0.097346
0.098047
0.10174
0.10375
0.12272
0.10005
0.10011
0.099491
0.099223
0.098097
0.097817
0.096909
0.097312
0.097945
0.10162
0.10315
0.12179
0.10006
0.10012
0.099498
0.099229
0.098097
0.097812
0.096891
0.097278
0.097841
0.1015
0.10257
0.12089
0.10007
0.10013
0.099505
0.099235
0.098097
0.097808
0.096872
0.097243
0.097736
0.10138
0.102
0.12001
0.10008
0.10014
0.099512
0.099242
0.098097
0.097803
0.096853
0.097207
0.097628
0.10126
0.10143
0.11915
0.10009
0.10015
0.09952
0.099248
0.098097
0.097798
0.096833
0.097169
0.097518
0.10114
0.10088
0.1183
0.1001
0.10016
0.099528
0.099255
0.098097
0.097793
0.096813
0.097131
0.097406
0.10102
0.10033
0.11748
0.10011
0.10017
0.099537
0.099262
0.098097
0.097787
0.096791
0.097092
0.097293
0.10089
0.099789
0.11668
0.10012
0.10018
0.099546
0.09927
0.098098
0.097782
0.09677
0.097052
0.097178
0.10077
0.099258
0.11589
0.10013
0.10019
0.099555
0.099277
0.098098
0.097776
0.096747
0.097012
0.097061
0.10064
0.098735
0.11512
0.10015
0.10021
0.099564
0.099285
0.098098
0.09777
0.096724
0.09697
0.096943
0.10051
0.098219
0.11437
0.10016
0.10022
0.099574
0.099293
0.098099
0.097764
0.096701
0.096928
0.096823
0.10039
0.097712
0.11363
0.10017
0.10023
0.099584
0.099302
0.098099
0.097757
0.096677
0.096885
0.096701
0.10025
0.097212
0.1129
0.10019
0.10025
0.099595
0.09931
0.0981
0.097751
0.096652
0.096842
0.096578
0.10012
0.09672
0.11219
0.1002
0.10026
0.099606
0.099319
0.098101
0.097744
0.096627
0.096798
0.096453
0.099989
0.096236
0.11149
0.10022
0.10028
0.099617
0.099328
0.098102
0.097737
0.096601
0.096753
0.096327
0.099854
0.09576
0.11081
0.10023
0.10029
0.099629
0.099338
0.098103
0.09773
0.096575
0.096707
0.0962
0.099717
0.095291
0.11013
0.10025
0.10031
0.099641
0.099347
0.098104
0.097723
0.096548
0.096661
0.096071
0.099579
0.09483
0.10947
0.10026
0.10032
0.099654
0.099357
0.098105
0.097716
0.09652
0.096614
0.095941
0.099439
0.094377
0.10882
0.10028
0.10034
0.099666
0.099367
0.098106
0.097708
0.096492
0.096567
0.09581
0.099297
0.093931
0.10818
0.1003
0.10036
0.09968
0.099378
0.098108
0.097701
0.096463
0.096519
0.095677
0.099154
0.093493
0.10756
0.10032
0.10037
0.099694
0.099389
0.09811
0.097693
0.096434
0.096471
0.095544
0.099009
0.093063
0.10694
0.10033
0.10039
0.099708
0.0994
0.098111
0.097685
0.096404
0.096422
0.095409
0.098863
0.092639
0.10633
0.10035
0.10041
0.099722
0.099411
0.098113
0.097677
0.096374
0.096372
0.095273
0.098715
0.092223
0.10573
0.10037
0.10043
0.099737
0.099423
0.098115
0.097669
0.096343
0.096322
0.095136
0.098566
0.091814
0.10514
0.10039
0.10045
0.099753
0.099434
0.098118
0.09766
0.096312
0.096272
0.094998
0.098416
0.091413
0.10456
0.10041
0.10047
0.099769
0.099447
0.09812
0.097652
0.09628
0.096221
0.09486
0.098264
0.091018
0.10399
0.10043
0.10049
0.099785
0.099459
0.098123
0.097643
0.096248
0.09617
0.09472
0.098111
0.09063
0.10343
0.10046
0.10051
0.099802
0.099472
0.098125
0.097634
0.096215
0.096118
0.09458
0.097956
0.090249
0.10287
0.10048
0.10053
0.099819
0.099485
0.098128
0.097625
0.096182
0.096066
0.094439
0.0978
0.089875
0.10232
0.1005
0.10055
0.099837
0.099498
0.098131
0.097616
0.096148
0.096013
0.094297
0.097643
0.089507
0.10178
0.10052
0.10057
0.099855
0.099512
0.098135
0.097607
0.096114
0.09596
0.094155
0.097485
0.089146
0.10125
0.10055
0.1006
0.099874
0.099526
0.098138
0.097598
0.096079
0.095907
0.094012
0.097325
0.088791
0.10073
0.10057
0.10062
0.099893
0.09954
0.098142
0.097589
0.096044
0.095853
0.093869
0.097165
0.088442
0.10021
0.1006
0.10064
0.099913
0.099555
0.098146
0.097579
0.096009
0.095799
0.093725
0.097003
0.0881
0.099697
0.10062
0.10067
0.099933
0.09957
0.09815
0.09757
0.095973
0.095744
0.093581
0.09684
0.087763
0.099192
0.10065
0.10069
0.099954
0.099585
0.098155
0.097561
0.095936
0.09569
0.093436
0.096676
0.087433
0.098694
0.10067
0.10072
0.099975
0.099601
0.098159
0.097551
0.095899
0.095634
0.093291
0.096511
0.087108
0.098202
0.1007
0.10075
0.099997
0.099617
0.098164
0.097541
0.095862
0.095579
0.093146
0.096345
0.086789
0.097716
0.10073
0.10077
0.10002
0.099634
0.098169
0.097532
0.095824
0.095523
0.093001
0.096178
0.086476
0.097236
0.10076
0.1008
0.10004
0.09965
0.098175
0.097522
0.095786
0.095466
0.092855
0.096009
0.086168
0.096761
0.10079
0.10083
0.10007
0.099667
0.09818
0.097513
0.095748
0.09541
0.092709
0.09584
0.085866
0.096293
0.10082
0.10086
0.10009
0.099685
0.098186
0.097503
0.095709
0.095353
0.092563
0.095671
0.085568
0.09583
0.10085
0.10089
0.10011
0.099703
0.098192
0.097494
0.09567
0.095295
0.092417
0.0955
0.085276
0.095372
0.10088
0.10092
0.10014
0.099721
0.098199
0.097484
0.095631
0.095237
0.092271
0.095328
0.084989
0.09492
0.10091
0.10095
0.10017
0.09974
0.098205
0.097475
0.095591
0.095179
0.092125
0.095155
0.084707
0.094472
0.10094
0.10098
0.10019
0.099759
0.098212
0.097465
0.095551
0.095121
0.091979
0.094982
0.08443
0.09403
0.10098
0.10101
0.10022
0.099778
0.098219
0.097456
0.09551
0.095062
0.091833
0.094808
0.084158
0.093593
0.10101
0.10104
0.10025
0.099798
0.098227
0.097447
0.09547
0.095003
0.091687
0.094633
0.08389
0.093161
0.10105
0.10108
0.10027
0.099819
0.098235
0.097438
0.095429
0.094944
0.091542
0.094457
0.083626
0.092733
0.10108
0.10111
0.1003
0.099839
0.098243
0.097428
0.095387
0.094884
0.091396
0.094281
0.083367
0.09231
0.10112
0.10114
0.10033
0.099861
0.098252
0.097419
0.095346
0.094824
0.091251
0.094104
0.083113
0.091891
0.10115
0.10118
0.10036
0.099882
0.09826
0.097411
0.095304
0.094764
0.091105
0.093926
0.082862
0.091477
0.10119
0.10121
0.10039
0.099904
0.09827
0.097402
0.095262
0.094703
0.09096
0.093747
0.082616
0.091067
0.10123
0.10125
0.10042
0.099927
0.098279
0.097393
0.09522
0.094642
0.090816
0.093568
0.082374
0.090661
0.10127
0.10129
0.10046
0.09995
0.098289
0.097385
0.095177
0.094581
0.090671
0.093388
0.082135
0.09026
0.10131
0.10133
0.10049
0.099974
0.098299
0.097376
0.095135
0.094519
0.090527
0.093208
0.081901
0.089862
0.10135
0.10136
0.10052
0.099998
0.09831
0.097368
0.095092
0.094457
0.090384
0.093027
0.08167
0.089469
0.10139
0.1014
0.10056
0.10002
0.09832
0.09736
0.095049
0.094395
0.09024
0.092845
0.081442
0.089079
0.10143
0.10144
0.10059
0.10005
0.098332
0.097352
0.095006
0.094332
0.090097
0.092663
0.081218
0.088693
0.10148
0.10149
0.10063
0.10007
0.098343
0.097345
0.094963
0.094269
0.089955
0.09248
0.080998
0.088311
0.10152
0.10153
0.10067
0.1001
0.098356
0.097338
0.094919
0.094206
0.089813
0.092296
0.080781
0.087933
0.10156
0.10157
0.1007
0.10013
0.098368
0.09733
0.094876
0.094143
0.089671
0.092113
0.080567
0.087558
0.10161
0.10161
0.10074
0.10015
0.098381
0.097323
0.094832
0.094079
0.08953
0.091928
0.080356
0.087186
0.10166
0.10166
0.10078
0.10018
0.098394
0.097317
0.094789
0.094015
0.089389
0.091743
0.080148
0.086818
0.1017
0.1017
0.10082
0.10021
0.098408
0.09731
0.094745
0.093951
0.089249
0.091558
0.079943
0.086453
0.10175
0.10175
0.10086
0.10024
0.098423
0.097304
0.094701
0.093886
0.089109
0.091372
0.079741
0.086091
0.1018
0.1018
0.1009
0.10027
0.098437
0.097298
0.094658
0.093821
0.08897
0.091186
0.079541
0.085733
0.10185
0.10184
0.10094
0.1003
0.098453
0.097293
0.094614
0.093756
0.088832
0.090999
0.079344
0.085377
0.1019
0.10189
0.10099
0.10033
0.098468
0.097287
0.09457
0.093691
0.088694
0.090811
0.07915
0.085025
0.10196
0.10194
0.10103
0.10037
0.098485
0.097282
0.094526
0.093625
0.088556
0.090624
0.078958
0.084675
0.10201
0.10199
0.10108
0.1004
0.098501
0.097278
0.094483
0.093559
0.088419
0.090435
0.078769
0.084328
0.10206
0.10204
0.10112
0.10043
0.098519
0.097273
0.094439
0.093493
0.088283
0.090247
0.078582
0.083984
0.10212
0.1021
0.10117
0.10047
0.098537
0.097269
0.094395
0.093426
0.088147
0.090058
0.078397
0.083643
0.10218
0.10215
0.10122
0.1005
0.098555
0.097266
0.094352
0.093359
0.088012
0.089868
0.078214
0.083304
0.10223
0.10221
0.10127
0.10054
0.098574
0.097262
0.094309
0.093292
0.087878
0.089678
0.078033
0.082968
0.10229
0.10226
0.10132
0.10057
0.098594
0.09726
0.094265
0.093225
0.087744
0.089488
0.077854
0.082634
0.10235
0.10232
0.10137
0.10061
0.098614
0.097257
0.094222
0.093157
0.087611
0.089297
0.077677
0.082303
0.10241
0.10238
0.10142
0.10065
0.098635
0.097255
0.09418
0.09309
0.087478
0.089106
0.077501
0.081974
0.10247
0.10244
0.10147
0.10069
0.098657
0.097254
0.094137
0.093022
0.087346
0.088915
0.077327
0.081647
0.10254
0.1025
0.10153
0.10073
0.098679
0.097253
0.094094
0.092953
0.087215
0.088723
0.077155
0.081322
0.1026
0.10256
0.10158
0.10077
0.098702
0.097252
0.094052
0.092885
0.087084
0.088531
0.076984
0.081
0.10267
0.10262
0.10164
0.10082
0.098726
0.097252
0.09401
0.092816
0.086954
0.088338
0.076815
0.080679
0.10274
0.10269
0.1017
0.10086
0.098751
0.097252
0.093968
0.092747
0.086824
0.088145
0.076647
0.08036
0.1028
0.10275
0.10175
0.1009
0.098776
0.097254
0.093927
0.092678
0.086695
0.087951
0.07648
0.080043
0.10287
0.10282
0.10181
0.10095
0.098802
0.097255
0.093886
0.092608
0.086567
0.087757
0.076314
0.079728
0.10295
0.10289
0.10188
0.101
0.09883
0.097257
0.093845
0.092539
0.08644
0.087563
0.07615
0.079415
0.10302
0.10296
0.10194
0.10104
0.098858
0.09726
0.093805
0.092469
0.086313
0.087369
0.075986
0.079103
0.10309
0.10303
0.102
0.10109
0.098886
0.097264
0.093765
0.092399
0.086187
0.087173
0.075823
0.078792
0.10317
0.1031
0.10207
0.10114
0.098916
0.097268
0.093725
0.092329
0.086061
0.086978
0.075661
0.078483
0.10325
0.10317
0.10214
0.10119
0.098947
0.097273
0.093686
0.092258
0.085936
0.086782
0.0755
0.078176
0.10333
0.10325
0.10221
0.10125
0.098979
0.097278
0.093647
0.092188
0.085812
0.086586
0.075339
0.077869
0.10341
0.10333
0.10228
0.1013
0.099012
0.097285
0.093609
0.092117
0.085688
0.086389
0.075179
0.077564
0.10349
0.10341
0.10235
0.10136
0.099046
0.097292
0.093572
0.092046
0.085565
0.086192
0.07502
0.07726
0.10357
0.10349
0.10242
0.10141
0.099081
0.0973
0.093535
0.091975
0.085442
0.085995
0.074861
0.076957
0.10366
0.10357
0.1025
0.10147
0.099118
0.097309
0.093498
0.091904
0.08532
0.085797
0.074702
0.076655
0.10375
0.10366
0.10257
0.10153
0.099155
0.097318
0.093462
0.091833
0.085199
0.085598
0.074543
0.076353
0.10384
0.10374
0.10265
0.10159
0.099194
0.097329
0.093427
0.091762
0.085079
0.0854
0.074385
0.076052
0.10393
0.10383
0.10273
0.10166
0.099235
0.097341
0.093393
0.09169
0.084959
0.0852
0.074226
0.075752
0.10402
0.10392
0.10282
0.10172
0.099276
0.097353
0.093359
0.091619
0.084839
0.085001
0.074068
0.075453
0.10412
0.10401
0.1029
0.10179
0.099319
0.097367
0.093327
0.091547
0.08472
0.0848
0.073909
0.075154
0.10422
0.10411
0.10299
0.10186
0.099364
0.097382
0.093295
0.091476
0.084602
0.0846
0.07375
0.074855
0.10432
0.10421
0.10308
0.10193
0.09941
0.097398
0.093263
0.091404
0.084484
0.084399
0.073591
0.074556
0.10442
0.1043
0.10317
0.102
0.099458
0.097416
0.093233
0.091333
0.084367
0.084197
0.073432
0.074258
0.10452
0.10441
0.10326
0.10208
0.099508
0.097434
0.093204
0.091261
0.084251
0.083995
0.073272
0.07396
0.10463
0.10451
0.10336
0.10216
0.099559
0.097454
0.093176
0.09119
0.084135
0.083792
0.073112
0.073661
0.10474
0.10462
0.10346
0.10223
0.099613
0.097476
0.093149
0.091119
0.08402
0.083589
0.072951
0.073363
0.10486
0.10473
0.10356
0.10232
0.099668
0.097498
0.093123
0.091048
0.083905
0.083385
0.072789
0.073064
0.10497
0.10484
0.10366
0.1024
0.099725
0.097523
0.093098
0.090977
0.083791
0.083181
0.072627
0.072765
0.10509
0.10496
0.10377
0.10249
0.099784
0.097549
0.093075
0.090906
0.083677
0.082976
0.072463
0.072465
0.10521
0.10507
0.10387
0.10258
0.099846
0.097576
0.093053
0.090836
0.083564
0.08277
0.072299
0.072165
0.10534
0.10519
0.10399
0.10267
0.09991
0.097606
0.093032
0.090766
0.083452
0.082564
0.072134
0.071864
0.10546
0.10532
0.1041
0.10276
0.099976
0.097637
0.093013
0.090696
0.08334
0.082358
0.071967
0.071563
0.1056
0.10545
0.10422
0.10286
0.10004
0.09767
0.092995
0.090626
0.083229
0.08215
0.0718
0.07126
0.10573
0.10558
0.10434
0.10296
0.10012
0.097706
0.092979
0.090557
0.083118
0.081942
0.071631
0.070956
0.10587
0.10571
0.10447
0.10307
0.10019
0.097743
0.092964
0.090488
0.083008
0.081734
0.07146
0.070651
0.10601
0.10585
0.1046
0.10317
0.10027
0.097783
0.092952
0.09042
0.082899
0.081525
0.071288
0.070345
0.10616
0.10599
0.10473
0.10328
0.10035
0.097825
0.092941
0.090353
0.08279
0.081315
0.071115
0.070037
0.1063
0.10614
0.10486
0.1034
0.10043
0.097869
0.092932
0.090286
0.082681
0.081104
0.07094
0.069728
0.10646
0.10629
0.10501
0.10352
0.10052
0.097916
0.092925
0.09022
0.082574
0.080893
0.070763
0.069417
0.10662
0.10645
0.10515
0.10364
0.10061
0.097965
0.09292
0.090154
0.082467
0.080681
0.070584
0.069104
0.10678
0.10661
0.1053
0.10376
0.1007
0.098018
0.092918
0.090089
0.08236
0.080468
0.070404
0.068789
0.10695
0.10677
0.10545
0.10389
0.1008
0.098073
0.092917
0.090025
0.082255
0.080254
0.070221
0.068472
0.10712
0.10694
0.10561
0.10403
0.1009
0.098131
0.09292
0.089962
0.082149
0.08004
0.070036
0.068153
0.10729
0.10711
0.10577
0.10417
0.101
0.098193
0.092924
0.089901
0.082045
0.079825
0.069849
0.067831
0.10748
0.10729
0.10594
0.10431
0.10111
0.098257
0.092932
0.08984
0.081941
0.079609
0.069659
0.067507
0.10766
0.10748
0.10611
0.10446
0.10122
0.098326
0.092942
0.08978
0.081838
0.079392
0.069467
0.067179
0.10785
0.10767
0.10629
0.10462
0.10134
0.098398
0.092955
0.089722
0.081736
0.079175
0.069273
0.066849
0.10805
0.10786
0.10648
0.10477
0.10146
0.098473
0.092972
0.089665
0.081634
0.078956
0.069075
0.066516
0.10826
0.10807
0.10667
0.10494
0.10159
0.098553
0.092991
0.089609
0.081533
0.078737
0.068875
0.06618
0.10847
0.10827
0.10686
0.10511
0.10172
0.098637
0.093014
0.089555
0.081433
0.078517
0.068672
0.06584
0.10868
0.10849
0.10707
0.10529
0.10186
0.098725
0.09304
0.089502
0.081333
0.078295
0.068466
0.065496
0.10891
0.10871
0.10728
0.10547
0.10201
0.098818
0.09307
0.089451
0.081235
0.078073
0.068257
0.065149
0.10914
0.10894
0.10749
0.10566
0.10216
0.098915
0.093104
0.089402
0.081137
0.07785
0.068044
0.064797
0.10937
0.10918
0.10772
0.10586
0.10231
0.099017
0.093141
0.089355
0.08104
0.077625
0.067828
0.064441
0.10962
0.10942
0.10795
0.10606
0.10247
0.099124
0.093183
0.08931
0.080944
0.0774
0.067609
0.064081
0.10987
0.10967
0.10818
0.10627
0.10264
0.099237
0.093229
0.089266
0.080848
0.077173
0.067385
0.063716
0.11013
0.10993
0.10843
0.10649
0.10282
0.099355
0.093279
0.089225
0.080753
0.076945
0.067158
0.063346
0.1104
0.1102
0.10869
0.10672
0.103
0.099479
0.093334
0.089187
0.08066
0.076716
0.066927
0.062971
0.11067
0.11047
0.10895
0.10695
0.10319
0.099609
0.093393
0.08915
0.080567
0.076485
0.066691
0.062591
0.11096
0.11076
0.10922
0.10719
0.10339
0.099744
0.093458
0.089116
0.080475
0.076253
0.066451
0.062204
0.11125
0.11105
0.1095
0.10744
0.10359
0.099887
0.093527
0.089085
0.080383
0.07602
0.066207
0.061812
0.11156
0.11136
0.10979
0.10771
0.1038
0.10004
0.093602
0.089056
0.080293
0.075784
0.065957
0.061414
0.11187
0.11167
0.11009
0.10798
0.10403
0.10019
0.093682
0.08903
0.080203
0.075548
0.065703
0.061009
0.11219
0.112
0.1104
0.10826
0.10426
0.10035
0.093767
0.089007
0.080114
0.075309
0.065444
0.060597
0.11252
0.11233
0.11073
0.10854
0.1045
0.10052
0.093859
0.088986
0.080026
0.075069
0.065179
0.060178
0.11287
0.11268
0.11106
0.10885
0.10475
0.1007
0.093956
0.088969
0.079938
0.074826
0.064908
0.059751
0.11322
0.11304
0.1114
0.10916
0.105
0.10089
0.09406
0.088955
0.079851
0.074581
0.064631
0.059317
0.11359
0.11341
0.11176
0.10948
0.10527
0.10108
0.094169
0.088944
0.079764
0.074334
0.064348
0.058874
0.11397
0.11379
0.11212
0.10981
0.10555
0.10128
0.094285
0.088936
0.079678
0.074084
0.064059
0.058423
0.11436
0.11418
0.1125
0.11016
0.10584
0.10149
0.094408
0.088931
0.079593
0.073832
0.063762
0.057962
0.11476
0.11459
0.1129
0.11051
0.10614
0.10171
0.094538
0.088929
0.079507
0.073577
0.063459
0.057492
0.11517
0.11501
0.1133
0.11088
0.10646
0.10194
0.094674
0.088931
0.079422
0.073318
0.063147
0.057012
0.1156
0.11544
0.11372
0.11127
0.10678
0.10218
0.094817
0.088936
0.079336
0.073056
0.062828
0.056521
0.11605
0.11589
0.11416
0.11167
0.10712
0.10243
0.094968
0.088944
0.079251
0.07279
0.062501
0.056019
0.1165
0.11635
0.11461
0.11208
0.10747
0.10268
0.095126
0.088955
0.079165
0.07252
0.062164
0.055506
0.11697
0.11683
0.11507
0.1125
0.10783
0.10295
0.095291
0.08897
0.079078
0.072246
0.061819
0.054981
0.11746
0.11733
0.11555
0.11294
0.10821
0.10323
0.095464
0.088988
0.078991
0.071967
0.061463
0.054442
0.11796
0.11784
0.11605
0.1134
0.1086
0.10352
0.095645
0.089008
0.078902
0.071683
0.061097
0.053891
0.11848
0.11836
0.11656
0.11387
0.109
0.10382
0.095833
0.089032
0.078813
0.071393
0.060721
0.053325
0.11901
0.11891
0.11709
0.11436
0.10942
0.10413
0.09603
0.089059
0.078721
0.071097
0.060332
0.052745
0.11957
0.11947
0.11764
0.11486
0.10986
0.10445
0.096234
0.089089
0.078628
0.070795
0.059932
0.052149
0.12014
0.12005
0.11821
0.11539
0.11031
0.10479
0.096447
0.089122
0.078532
0.070485
0.059519
0.051537
0.12073
0.12065
0.1188
0.11593
0.11077
0.10514
0.096668
0.089157
0.078433
0.070168
0.059092
0.050907
0.12134
0.12127
0.1194
0.11649
0.11126
0.1055
0.096898
0.089195
0.078332
0.069843
0.058651
0.05026
0.12196
0.12192
0.12003
0.11707
0.11176
0.10587
0.097137
0.089235
0.078227
0.069508
0.058194
0.049594
0.12261
0.12258
0.12069
0.11767
0.11228
0.10626
0.097384
0.089277
0.078118
0.069164
0.057722
0.048907
0.12329
0.12327
0.12136
0.1183
0.11282
0.10666
0.09764
0.089321
0.078004
0.06881
0.057233
0.0482
0.12398
0.12398
0.12206
0.11895
0.11338
0.10708
0.097905
0.089367
0.077885
0.068445
0.056726
0.047471
0.1247
0.12472
0.12279
0.11962
0.11397
0.10751
0.09818
0.089415
0.077761
0.068068
0.0562
0.046719
0.12545
0.12549
0.12355
0.12031
0.11457
0.10796
0.098464
0.089464
0.077631
0.067678
0.055654
0.045942
0.12622
0.12628
0.12433
0.12104
0.1152
0.10842
0.098758
0.089515
0.077494
0.067274
0.055087
0.04514
0.12703
0.1271
0.12514
0.12179
0.11585
0.10891
0.099062
0.089567
0.077349
0.066856
0.054497
0.04431
0.12786
0.12796
0.12599
0.12257
0.11653
0.10941
0.099377
0.089619
0.077197
0.066422
0.053885
0.043453
0.12872
0.12885
0.12687
0.12339
0.11723
0.10993
0.099703
0.089673
0.077035
0.065972
0.053247
0.042565
0.12962
0.12978
0.12779
0.12424
0.11797
0.11047
0.10004
0.089727
0.076865
0.065504
0.052583
0.041646
0.13056
0.13074
0.12874
0.12513
0.11874
0.11103
0.10039
0.089781
0.076683
0.065016
0.051891
0.040694
0.13154
0.13175
0.12974
0.12605
0.11953
0.11162
0.10075
0.089835
0.076491
0.064509
0.05117
0.039707
0.13255
0.1328
0.13079
0.12702
0.12037
0.11223
0.10112
0.08989
0.076286
0.063979
0.050418
0.038683
0.13362
0.1339
0.13188
0.12803
0.12124
0.11287
0.10151
0.089943
0.076068
0.063427
0.049633
0.037621
0.13473
0.13505
0.13302
0.12909
0.12216
0.11354
0.10191
0.089996
0.075836
0.062849
0.048812
0.036517
0.13589
0.13626
0.13422
0.13021
0.12311
0.11424
0.10233
0.090047
0.075587
0.062244
0.047955
0.03537
0.1371
0.13752
0.13548
0.13138
0.12412
0.11496
0.10276
0.090096
0.075321
0.06161
0.047058
0.034177
0.13838
0.13885
0.13681
0.13261
0.12517
0.11573
0.1032
0.090142
0.075035
0.060944
0.046119
0.032935
0.13972
0.14024
0.1382
0.1339
0.12627
0.11652
0.10366
0.090184
0.074728
0.060245
0.045135
0.031642
0.14112
0.14171
0.13967
0.13526
0.12743
0.11736
0.10413
0.090219
0.074396
0.059507
0.044102
0.030294
0.1426
0.14326
0.14122
0.1367
0.12865
0.11823
0.10462
0.090247
0.074036
0.058729
0.043017
0.028888
0.14415
0.14489
0.14285
0.13822
0.12993
0.11914
0.10512
0.090265
0.073646
0.057905
0.041875
0.02742
0.14579
0.14661
0.14458
0.13982
0.13128
0.1201
0.10564
0.09027
0.07322
0.057031
0.040672
0.025885
0.14751
0.14843
0.1464
0.14151
0.1327
0.12109
0.10617
0.090259
0.072753
0.056102
0.039401
0.024278
0.14932
0.15034
0.14832
0.14329
0.13419
0.12213
0.1067
0.090225
0.07224
0.05511
0.038058
0.022595
0.15123
0.15237
0.15036
0.14518
0.13576
0.12321
0.10724
0.090165
0.071673
0.054048
0.036634
0.020828
0.15324
0.15451
0.15252
0.14718
0.13741
0.12434
0.10778
0.090072
0.071044
0.052909
0.035121
0.018971
0.15536
0.15677
0.1548
0.14929
0.13914
0.1255
0.10832
0.089938
0.070345
0.051683
0.033512
0.017016
0.15759
0.15917
0.15721
0.15152
0.14095
0.12671
0.10884
0.089753
0.069564
0.050358
0.031795
0.014955
0.15993
0.1617
0.15977
0.15387
0.14285
0.12795
0.10935
0.089508
0.06869
0.048924
0.02996
0.012778
0.16241
0.16437
0.16248
0.15636
0.14484
0.12921
0.10983
0.089189
0.067709
0.047367
0.027995
0.010473
0.16501
0.16721
0.16535
0.15899
0.14691
0.13051
0.11026
0.088782
0.066606
0.045673
0.025886
0.0080304
0.16776
0.17022
0.1684
0.16177
0.14908
0.13182
0.11065
0.08827
0.065364
0.043826
0.02362
0.0054367
0.17066
0.1734
0.17164
0.1647
0.15134
0.13313
0.11097
0.087634
0.063963
0.041808
0.021181
0.0026791
0.17372
0.17679
0.1751
0.16781
0.15368
0.13444
0.11119
0.08685
0.062381
0.039601
0.018552
-0.00025631
0.17696
0.18041
0.17878
0.1711
0.15612
0.13573
0.1113
0.085893
0.060593
0.037181
0.015717
-0.0033838
0.18039
0.18426
0.18272
0.17458
0.15863
0.13698
0.11127
0.084729
0.058569
0.034526
0.012654
-0.0067181
0.18403
0.18839
0.18695
0.17827
0.16122
0.13815
0.11106
0.083319
0.056275
0.031607
0.0093437
-0.010274
0.1879
0.19282
0.19149
0.18218
0.16388
0.13922
0.11062
0.081618
0.053669
0.02839
0.0057603
-0.014069
0.19202
0.19759
0.19638
0.18631
0.16657
0.14014
0.1099
0.079567
0.050703
0.024837
0.0018765
-0.018118
0.19642
0.20274
0.20166
0.19069
0.16927
0.14085
0.10882
0.077098
0.047318
0.020904
-0.0023399
-0.022439
0.2011
0.20832
0.20736
0.19529
0.17192
0.14126
0.1073
0.074127
0.043445
0.016537
-0.0069253
-0.027052
0.20609
0.21437
0.2135
0.2001
0.17444
0.14127
0.10521
0.070559
0.039007
0.011679
-0.011919
-0.031977
0.21139
0.22092
0.22012
0.20507
0.17673
0.14074
0.10244
0.066281
0.033918
0.0062658
-0.017363
-0.037231
0.21702
0.22801
0.22718
0.2101
0.17862
0.1395
0.098824
0.061168
0.028087
0.00023735
-0.023294
-0.042827
0.22295
0.23566
0.23466
0.21505
0.1799
0.13732
0.094169
0.055085
0.021425
-0.0064589
-0.029735
-0.048767
0.22918
0.24386
0.24243
0.21967
0.18028
0.13393
0.088271
0.047897
0.013858
-0.013856
-0.036692
-0.05503
0.2357
0.25255
0.25027
0.22361
0.17935
0.12899
0.080903
0.039476
0.0053301
-0.021956
-0.044131
-0.061569
0.24251
0.26161
0.2578
0.22631
0.17659
0.12213
0.071835
0.029716
-0.0041738
-0.030719
-0.051982
-0.068296
0.24963
0.27073
0.26433
0.22697
0.17133
0.11292
0.060859
0.018562
-0.014618
-0.040056
-0.060125
-0.075089
0.25717
0.27938
0.26872
0.2244
0.16272
0.10089
0.047826
0.006038
-0.025894
-0.049822
-0.068399
-0.081797
0.26533
0.28655
0.26915
0.21693
0.14972
0.085639
0.032707
-0.00771
-0.0378
-0.059814
-0.076612
-0.088258
0.27448
0.2906
0.26293
0.20234
0.13118
0.06686
0.015645
-0.022385
-0.050031
-0.069774
-0.084557
-0.094322
0.28518
0.28912
0.24641
0.17796
0.10594
0.044407
-0.0030476
-0.037559
-0.0622
-0.079411
-0.092039
-0.099876
0.29807
0.27927
0.21571
0.1412
0.073073
0.01834
-0.022958
-0.052776
-0.073922
-0.088458
-0.098899
-0.10487
0.31301
0.25747
0.16802
0.090809
0.032396
-0.011066
-0.043714
-0.0677
-0.084941
-0.096754
-0.10508
-0.10932
0.32956
0.21711
0.099817
0.026352
-0.016033
-0.043887
-0.065471
-0.08251
-0.095438
-0.10449
-0.11078
-0.11351
0.35696
0.15805
0.010332
-0.051181
-0.071893
-0.080923
-0.089471
-0.098453
-0.10653
-0.11263
-0.11685
-0.11819
0.40676
0.097299
-0.086242
-0.13178
-0.12891
-0.1191
-0.11469
-0.11547
-0.1185
-0.1215
-0.12361
-0.12357
0.10401
0.064565
0.054135
0.047674
0.042989
0.039307
0.03625
0.033635
0.031474
0.029547
0.028323
0.026415
0.12362
0.080071
0.067133
0.05861
0.052521
0.047801
0.043912
0.040589
0.03784
0.035341
0.033758
0.031371
0.11088
0.074886
0.063172
0.054828
0.048868
0.044278
0.040514
0.037295
0.034632
0.03216
0.030613
0.028108
0.10582
0.07455
0.063168
0.054741
0.048653
0.043956
0.040105
0.036805
0.034073
0.031499
0.029895
0.027149
0.10521
0.076742
0.065189
0.056533
0.050187
0.045265
0.041222
0.037748
0.034869
0.032134
0.030423
0.027443
0.10459
0.078573
0.06694
0.05814
0.051584
0.046468
0.042255
0.038628
0.035616
0.03274
0.030928
0.027767
0.1035
0.079863
0.068302
0.059444
0.052736
0.047465
0.043113
0.039358
0.036236
0.033245
0.031345
0.028048
0.10233
0.080923
0.069524
0.060666
0.053843
0.04844
0.043966
0.040098
0.036878
0.033791
0.031812
0.028422
0.10123
0.081841
0.070677
0.061866
0.054963
0.04945
0.044867
0.0409
0.037593
0.034427
0.03238
0.028935
0.10019
0.08261
0.071747
0.063032
0.05609
0.05049
0.045817
0.041766
0.038386
0.035158
0.033055
0.029594
0.099181
0.083231
0.072725
0.064151
0.057211
0.051553
0.046811
0.042693
0.039255
0.035984
0.033837
0.030398
0.098206
0.083718
0.073608
0.065215
0.058316
0.052632
0.047843
0.043678
0.040198
0.036902
0.034726
0.031343
0.097265
0.084087
0.074397
0.066217
0.059396
0.053715
0.048905
0.044712
0.041206
0.037903
0.035712
0.032419
0.096362
0.084356
0.075096
0.067152
0.060441
0.054791
0.049983
0.045783
0.042268
0.038976
0.036782
0.033608
0.095498
0.084539
0.075709
0.068017
0.061441
0.055849
0.051064
0.046876
0.043369
0.040104
0.03792
0.03489
0.094673
0.08465
0.076242
0.068812
0.062392
0.056878
0.052137
0.047978
0.044494
0.041272
0.039107
0.036241
0.093889
0.084701
0.076702
0.069539
0.063287
0.057871
0.053191
0.049076
0.045629
0.042463
0.040325
0.037636
0.093145
0.084703
0.077096
0.070198
0.064126
0.058821
0.054215
0.05016
0.046759
0.043661
0.041556
0.039053
0.09244
0.084666
0.077431
0.070796
0.064908
0.059725
0.055205
0.051219
0.047874
0.044852
0.042784
0.04047
0.091772
0.084596
0.077713
0.071334
0.065634
0.06058
0.056155
0.052247
0.048964
0.046026
0.043996
0.041869
0.09114
0.084502
0.077949
0.071818
0.066306
0.061386
0.057061
0.053238
0.050021
0.047171
0.045181
0.043234
0.090542
0.084387
0.078144
0.072253
0.066926
0.062143
0.057922
0.054189
0.051041
0.048282
0.04633
0.044554
0.089975
0.084256
0.078303
0.072642
0.067497
0.062852
0.058737
0.055097
0.05202
0.049352
0.047436
0.04582
0.089438
0.084112
0.078431
0.07299
0.068022
0.063514
0.059506
0.055961
0.052955
0.050378
0.048496
0.047024
0.088928
0.083958
0.078531
0.073299
0.068504
0.064132
0.060231
0.05678
0.053845
0.051357
0.049506
0.048164
0.088444
0.083797
0.078607
0.073575
0.068945
0.064707
0.060912
0.057556
0.05469
0.052288
0.050466
0.049237
0.087983
0.083631
0.078662
0.07382
0.06935
0.065242
0.061551
0.058288
0.055491
0.05317
0.051375
0.050244
0.087544
0.08346
0.078699
0.074036
0.06972
0.065739
0.062151
0.058979
0.056247
0.054004
0.052233
0.051185
0.087125
0.083286
0.078719
0.074227
0.070058
0.066201
0.062712
0.059629
0.056961
0.05479
0.053041
0.052063
0.086724
0.083109
0.078724
0.074394
0.070366
0.066628
0.063236
0.06024
0.057634
0.055531
0.053801
0.05288
0.086341
0.082932
0.078717
0.07454
0.070647
0.067025
0.063726
0.060814
0.058266
0.056227
0.054516
0.053639
0.085974
0.082754
0.078698
0.074667
0.070903
0.067391
0.064183
0.061352
0.058861
0.05688
0.055185
0.054343
0.085622
0.082575
0.07867
0.074776
0.071135
0.06773
0.064609
0.061855
0.059419
0.057493
0.055812
0.054996
0.085283
0.082397
0.078632
0.074869
0.071345
0.068042
0.065006
0.062326
0.059943
0.058066
0.056399
0.0556
0.084958
0.082219
0.078586
0.074947
0.071535
0.06833
0.065375
0.062766
0.060433
0.058601
0.056948
0.05616