/*--------------------------------*- C++ -*----------------------------------*\
  =========                 |
  \\      /  F ield         | OpenFOAM: The Open Source CFD Toolbox
   \\    /   O peration     | Website:  https://openfoam.org
    \\  /    A nd           | Version:  6.0
     \\/     M anipulation  |
\*---------------------------------------------------------------------------*/
FoamFile
{
    version     2.0;
    format      ascii;
    class       volScalarField;
    location    "14";
    object      p;
}
// * * * * * * * * * * * * * * * * * * * * * * * * * * * * * * * * * * * * * //

dimensions      [0 2 -2 0 0 0 0];

internalField   nonuniform List<scalar> 
62000
(
0.0221669
0.022314
0.0224663
0.0226191
0.0227784
0.0229391
0.0231077
0.0232791
0.0234602
0.0236453
0.0238424
0.0240451
0.0242625
0.0244872
0.0247296
0.0249817
0.025255
0.025541
0.0258519
0.0261794
0.0265357
0.0269124
0.0273224
0.0277562
0.0282274
0.0287252
0.0292633
0.0298302
0.0304377
0.0310748
0.0317532
0.0324663
0.0332181
0.0339939
0.0347783
0.0355669
0.0363555
0.0371277
0.0378604
0.038526
0.0390983
0.0395527
0.0398753
0.0400634
0.0401302
0.0401122
0.0400311
0.0399291
0.0397586
0.0394763
0.0389745
0.0381212
0.0371559
0.0358383
0.0345992
0.0331753
0.0320319
0.0300926
0.0296078
0.0318047
0.0220767
0.0222351
0.0223985
0.0225624
0.0227327
0.0229046
0.0230842
0.0232665
0.0234581
0.0236534
0.0238597
0.0240713
0.0242963
0.0245283
0.0247765
0.0250341
0.0253113
0.0256011
0.0259138
0.0262431
0.0265991
0.0269757
0.0273828
0.0278147
0.0282809
0.0287758
0.0293073
0.029871
0.0304716
0.0311059
0.0317769
0.0324861
0.0332341
0.0340102
0.0348052
0.0356141
0.0364306
0.0372401
0.0380207
0.0387485
0.0393989
0.03995
0.0403899
0.0407186
0.0409531
0.0411344
0.0412913
0.0414728
0.0416334
0.0417274
0.0416233
0.0411546
0.0405513
0.0395318
0.0385752
0.0374127
0.0366922
0.0350834
0.0360336
0.0369637
0.0218435
0.0219842
0.0221365
0.0222941
0.0224625
0.0226364
0.0228211
0.0230115
0.0232134
0.0234211
0.0236414
0.023868
0.024109
0.0243571
0.024622
0.0248959
0.0251893
0.0254947
0.0258226
0.0261664
0.0265363
0.0269261
0.0273459
0.02779
0.0282676
0.0287739
0.029316
0.0298906
0.030501
0.0311455
0.0318242
0.0325398
0.0332916
0.0340736
0.0348771
0.0356969
0.0365241
0.0373414
0.0381268
0.0388547
0.0394989
0.0400346
0.0404465
0.0407312
0.0409031
0.0410023
0.0410595
0.0411276
0.0411647
0.0411188
0.040838
0.0401032
0.0390912
0.0374651
0.0357351
0.0337067
0.0322722
0.030336
0.0312636
0.0301088
0.0215532
0.0216877
0.0218377
0.0219961
0.022168
0.0223479
0.0225405
0.0227407
0.0229538
0.023174
0.0234077
0.0236488
0.0239047
0.0241689
0.0244498
0.0247407
0.0250509
0.0253737
0.0257189
0.02608
0.0264669
0.0268736
0.0273097
0.0277698
0.0282629
0.0287843
0.0293412
0.0299304
0.0305551
0.0312138
0.0319058
0.0326333
0.033397
0.0341905
0.0350088
0.0358455
0.0366903
0.0375253
0.0383277
0.0390711
0.0397277
0.040271
0.0406832
0.0409594
0.0411141
0.0411907
0.0412295
0.0412984
0.0413734
0.0414184
0.0412719
0.0406831
0.0397561
0.0380886
0.036124
0.0337088
0.0318614
0.0297897
0.0304257
0.0290588
0.0212263
0.0213747
0.021537
0.0217075
0.0218909
0.0220818
0.0222853
0.0224961
0.0227196
0.0229502
0.0231946
0.0234465
0.0237141
0.02399
0.024284
0.0245882
0.0249133
0.0252515
0.0256133
0.0259917
0.0263969
0.0268222
0.0272776
0.0277571
0.0282696
0.0288103
0.0293859
0.0299937
0.0306365
0.031313
0.0320226
0.0327679
0.0335484
0.0343611
0.0351995
0.036059
0.0369288
0.0377908
0.0386215
0.0393936
0.0400777
0.0406453
0.0410765
0.0413652
0.0415267
0.0416106
0.041671
0.0418
0.042008
0.0422943
0.0425224
0.0424284
0.0420657
0.0409361
0.0393848
0.0371869
0.0353553
0.0332528
0.0335821
0.0319295
0.021056
0.0212095
0.0213746
0.0215465
0.0217302
0.0219209
0.0221236
0.0223335
0.022556
0.022786
0.02303
0.0232826
0.0235514
0.0238303
0.0241285
0.0244394
0.0247728
0.0251222
0.0254971
0.0258915
0.0263145
0.0267599
0.027237
0.0277396
0.0282763
0.0288417
0.0294425
0.0300753
0.0307429
0.0314437
0.0321772
0.0329457
0.0337502
0.0345847
0.0354461
0.0363282
0.0372203
0.0381033
0.0389521
0.0397368
0.0404242
0.0409815
0.0413831
0.041617
0.0416943
0.0416639
0.0415893
0.0415836
0.0416939
0.0419704
0.0423209
0.042516
0.0425905
0.0420012
0.0409692
0.0391902
0.0375757
0.0355762
0.0357846
0.0333519
0.0210944
0.0212317
0.0213817
0.0215396
0.0217103
0.0218892
0.022081
0.0222813
0.0224951
0.0227177
0.0229553
0.0232027
0.0234677
0.023744
0.0240413
0.0243528
0.0246891
0.0250432
0.0254258
0.0258301
0.0262662
0.0267275
0.0272233
0.0277475
0.0283081
0.0288996
0.029528
0.0301894
0.030886
0.0316159
0.032378
0.033175
0.0340057
0.0348669
0.0357522
0.0366569
0.0375693
0.0384688
0.0393276
0.0401115
0.0407821
0.041299
0.0416271
0.0417436
0.0416476
0.0413789
0.0409989
0.040632
0.0403559
0.0402702
0.0403473
0.0404143
0.0405448
0.0401848
0.0395017
0.0381203
0.0368719
0.0352657
0.0357112
0.0329892
0.0212738
0.0213793
0.0215011
0.021634
0.021783
0.0219435
0.02212
0.0223078
0.0225119
0.0227271
0.0229594
0.0232035
0.0234664
0.0237427
0.0240405
0.0243544
0.0246938
0.025053
0.0254416
0.0258541
0.0263
0.0267736
0.027284
0.0278253
0.0284057
0.0290197
0.0296729
0.0303611
0.0310861
0.0318451
0.0326369
0.0334631
0.0343241
0.0352134
0.036128
0.0370617
0.0380031
0.0389308
0.0398146
0.040617
0.0412943
0.0417983
0.0420836
0.042113
0.041869
0.0413738
0.0406761
0.0398969
0.0391295
0.0385135
0.0380782
0.0377319
0.0376061
0.0372095
0.0366819
0.0356459
0.0348577
0.0339238
0.034928
0.0328011
0.0214633
0.0215394
0.0216359
0.0217471
0.0218782
0.0220241
0.0221895
0.0223696
0.0225689
0.0227822
0.0230153
0.0232622
0.0235302
0.0238126
0.0241183
0.0244403
0.0247888
0.0251569
0.0255551
0.0259773
0.0264337
0.0269184
0.0274412
0.0279964
0.0285925
0.0292244
0.0298978
0.0306086
0.0313581
0.0321435
0.032963
0.0338189
0.0347099
0.0356335
0.0365846
0.0375605
0.0385504
0.0395335
0.0404789
0.0413475
0.0420924
0.0426599
0.0429952
0.0430479
0.0427824
0.0421996
0.0413273
0.0402718
0.0391262
0.038051
0.0371233
0.0363182
0.0358481
0.0352886
0.0348094
0.0340488
0.0337266
0.0335423
0.0351864
0.0341612
0.0216574
0.0217129
0.0217911
0.0218861
0.0220034
0.0221382
0.0222953
0.02247
0.0226667
0.0228803
0.0231161
0.0233686
0.0236439
0.0239362
0.0242527
0.0245875
0.0249492
0.0253317
0.025744
0.0261807
0.0266512
0.0271499
0.0276867
0.028256
0.0288669
0.0295146
0.0302054
0.0309354
0.0317063
0.0325152
0.033361
0.0342453
0.0351702
0.0361314
0.0371297
0.0381633
0.0392246
0.040295
0.0413452
0.0423371
0.0432237
0.043949
0.0444521
0.0446722
0.0445574
0.0440863
0.0432622
0.0421671
0.0408793
0.039562
0.0383142
0.0371687
0.0363976
0.0356675
0.0351721
0.0345979
0.0346161
0.0350421
0.0371834
0.0371875
0.0218424
0.0218911
0.0219629
0.0220521
0.0221642
0.022295
0.0224489
0.0226219
0.0228185
0.0230339
0.0232735
0.0235318
0.0238152
0.0241173
0.0244458
0.0247938
0.0251703
0.0255682
0.0259967
0.0264496
0.0269364
0.0274512
0.0280038
0.0285888
0.0292154
0.0298792
0.0305868
0.0313352
0.0321262
0.0329579
0.0338294
0.0347441
0.0357037
0.0367098
0.0377636
0.0388687
0.040021
0.0412051
0.042395
0.0435557
0.0446427
0.0456005
0.0463661
0.0468716
0.0470524
0.0468681
0.0462967
0.0453924
0.0442094
0.0428966
0.0415592
0.0402568
0.0393143
0.0384575
0.0379185
0.0374186
0.0375958
0.0383667
0.0407393
0.041376
0.0220573
0.0221079
0.0221807
0.0222704
0.0223826
0.0225135
0.022668
0.022842
0.0230404
0.0232586
0.0235019
0.0237655
0.0240551
0.0243654
0.024703
0.0250623
0.0254509
0.0258628
0.026306
0.0267748
0.0272779
0.0278094
0.0283786
0.0289804
0.0296238
0.0303048
0.0310304
0.0317978
0.0326099
0.0334652
0.034364
0.0353102
0.0363097
0.0373636
0.0384802
0.0396656
0.0409203
0.0422331
0.0435819
0.0449364
0.0462566
0.04749
0.0485742
0.0494384
0.0500093
0.0502304
0.0500575
0.0495158
0.0486304
0.0475258
0.0462926
0.045004
0.0440024
0.0430754
0.0424654
0.0419362
0.0420737
0.042914
0.0452528
0.0460533
0.0222835
0.0223457
0.0224292
0.0225288
0.02265
0.0227888
0.0229503
0.0231306
0.0233348
0.0235584
0.0238073
0.0240763
0.0243723
0.0246891
0.0250345
0.0254019
0.0258003
0.0262224
0.0266772
0.0271585
0.0276752
0.0282211
0.0288057
0.0294236
0.0300837
0.0307824
0.0315267
0.0323146
0.033149
0.0340298
0.0349578
0.035939
0.0369791
0.0380859
0.0392677
0.0405367
0.0418968
0.0433407
0.0448506
0.0464011
0.0479574
0.0494713
0.0508832
0.0521224
0.0531107
0.0537808
0.0540698
0.0539773
0.0534988
0.0527289
0.0517373
0.0505868
0.0496319
0.0486846
0.0479976
0.0473576
0.047314
0.0480111
0.0501187
0.0507247
0.02258
0.0226557
0.0227514
0.0228618
0.0229928
0.0231403
0.0233097
0.0234971
0.0237077
0.0239371
0.0241912
0.0244654
0.0247659
0.0250878
0.025438
0.0258113
0.0262158
0.0266455
0.0271085
0.0275995
0.0281269
0.0286848
0.0292826
0.0299149
0.0305908
0.0313067
0.03207
0.0328788
0.0337369
0.0346445
0.0356039
0.0366209
0.0377055
0.0388642
0.0401121
0.0414626
0.0429234
0.0444908
0.0461508
0.0478828
0.0496574
0.0514315
0.0531494
0.0547426
0.0561316
0.0572416
0.0579959
0.0583724
0.0583395
0.0579614
0.0572778
0.0563381
0.0554827
0.0545502
0.053781
0.0529874
0.0526731
0.0531045
0.054873
0.0550679
0.0229273
0.0230197
0.0231308
0.0232554
0.023399
0.0235578
0.0237369
0.0239327
0.0241504
0.0243861
0.0246456
0.0249246
0.0252299
0.025556
0.0259108
0.0262883
0.0266978
0.0271324
0.0276014
0.0280989
0.0286341
0.0292009
0.0298092
0.0304535
0.0311432
0.031875
0.0326564
0.033486
0.0343678
0.035303
0.0362941
0.0373489
0.038476
0.039688
0.0409982
0.0424247
0.043977
0.0456538
0.0474443
0.0493321
0.0512925
0.0532873
0.0552653
0.0571616
0.0588979
0.060396
0.0615699
0.0623806
0.0627741
0.0627862
0.0624305
0.0617307
0.0610172
0.0601285
0.0592938
0.058337
0.057735
0.0578616
0.0592648
0.0589745
0.0233394
0.0234466
0.0235709
0.0237077
0.0238625
0.0240315
0.02422
0.0244244
0.02465
0.0248928
0.0251584
0.025443
0.0257527
0.0260832
0.0264415
0.026823
0.0272358
0.0276747
0.0281478
0.0286506
0.0291917
0.0297657
0.0303823
0.0310367
0.0317383
0.0324843
0.0332824
0.0341316
0.0350366
0.0359987
0.0370216
0.0381124
0.0392833
0.0405438
0.0419126
0.0434072
0.0450388
0.0468082
0.0487068
0.0507215
0.052832
0.0550046
0.0571925
0.0593354
0.0613575
0.0631797
0.0647104
0.0658987
0.0666728
0.0670443
0.0669991
0.0665407
0.065973
0.0651443
0.0642596
0.0631583
0.0622855
0.0621271
0.0631899
0.0624261
0.0237589
0.023884
0.0240259
0.0241795
0.0243502
0.0245339
0.0247359
0.0249523
0.0251885
0.0254405
0.0257145
0.026006
0.0263222
0.0266577
0.0270211
0.0274064
0.0278234
0.0282655
0.0287425
0.029249
0.0297948
0.0303741
0.0309975
0.0316602
0.0323719
0.0331305
0.0339437
0.0348111
0.0357377
0.0367257
0.0377786
0.0389051
0.0401149
0.0414227
0.0428436
0.0443977
0.0460965
0.0479418
0.0499263
0.0520396
0.0542645
0.0565711
0.0589171
0.0612467
0.0634878
0.0655628
0.0673778
0.0688734
0.0699652
0.0706453
0.0708799
0.0706461
0.0702337
0.0694831
0.0685788
0.0673671
0.066277
0.0658881
0.0666683
0.0655011
0.0242313
0.024371
0.0245265
0.024693
0.024876
0.0250715
0.0252847
0.0255117
0.025758
0.0260192
0.0263014
0.0266004
0.0269228
0.0272642
0.0276321
0.0280222
0.028443
0.0288894
0.0293702
0.0298812
0.0304316
0.0310164
0.0316462
0.0323165
0.0330375
0.0338074
0.0346344
0.0355185
0.0364653
0.0374771
0.0385587
0.039717
0.0409656
0.0423139
0.0437821
0.0453876
0.0471424
0.0490489
0.0511006
0.053289
0.0555997
0.0580059
0.0604692
0.0629382
0.0653452
0.0676147
0.0696526
0.0713946
0.0727474
0.0736883
0.0741642
0.0741344
0.0738638
0.0731977
0.0722957
0.0710134
0.0697593
0.0692037
0.0697619
0.0682749
0.0247217
0.0248768
0.0250471
0.0252276
0.0254237
0.0256315
0.0258557
0.026093
0.0263485
0.0266183
0.0269084
0.0272145
0.027544
0.0278915
0.0282656
0.0286608
0.029087
0.0295378
0.0300234
0.0305388
0.0310941
0.0316841
0.0323201
0.0329977
0.0337275
0.034508
0.0353478
0.0362475
0.0372127
0.0382469
0.0393542
0.0405436
0.0418247
0.0432122
0.0447213
0.0463713
0.0481731
0.0501292
0.0522334
0.0544783
0.0568517
0.0593292
0.0618758
0.0644444
0.0669713
0.0693844
0.0715909
0.0735233
0.0750832
0.0762368
0.0769199
0.0770705
0.0769423
0.0763739
0.0755029
0.0741887
0.0728311
0.0721717
0.0725699
0.0708504
0.0252408
0.0254072
0.0255878
0.0257782
0.0259838
0.0262007
0.0264342
0.0266807
0.0269452
0.0272237
0.027522
0.0278361
0.0281726
0.0285272
0.0289072
0.0293087
0.0297402
0.030197
0.0306879
0.0312092
0.0317703
0.0323667
0.0330095
0.0336948
0.0344334
0.0352243
0.0360764
0.0369907
0.0379734
0.039028
0.0401598
0.041376
0.0426898
0.04411
0.0456567
0.0473455
0.0491874
0.0511849
0.0533318
0.0556216
0.0580436
0.0605755
0.0631853
0.0658295
0.0684484
0.0709731
0.0733127
0.0753984
0.0771286
0.0784615
0.0793224
0.0796356
0.079634
0.0791637
0.0783389
0.0770245
0.0756058
0.0748916
0.0751727
0.0732915
0.025724
0.025905
0.0261006
0.0263058
0.0265259
0.0267566
0.0270031
0.0272616
0.0275374
0.0278262
0.0281344
0.0284573
0.0288026
0.0291647
0.0295527
0.0299606
0.0303991
0.0308616
0.0313588
0.0318858
0.0324532
0.033056
0.0337061
0.0343994
0.035147
0.0359485
0.0368127
0.0377413
0.0387404
0.0398147
0.0409686
0.0422114
0.0435522
0.0450052
0.0465849
0.0483088
0.0501865
0.0522203
0.0544039
0.0567312
0.0591927
0.0617677
0.0644265
0.0671289
0.0698189
0.0724308
0.0748758
0.0770842
0.0789535
0.0804358
0.0814525
0.0819106
0.082037
0.081674
0.0809148
0.0796253
0.0781844
0.0774532
0.0776547
0.0756695
0.026225
0.0264166
0.026622
0.0268369
0.0270665
0.0273068
0.0275632
0.0278316
0.0281174
0.028416
0.0287335
0.0290657
0.0294193
0.0297899
0.0301851
0.0306011
0.0310465
0.0315167
0.032021
0.0325557
0.0331307
0.0337417
0.0344002
0.0351026
0.0358602
0.0366727
0.0375495
0.0384922
0.0395078
0.0406005
0.0417762
0.0430423
0.0444118
0.0458925
0.0475042
0.0492605
0.0511715
0.0532395
0.0554576
0.0578203
0.0603192
0.0629348
0.0656392
0.068395
0.0711497
0.0738396
0.0763788
0.0786959
0.0806895
0.0823057
0.0834634
0.084057
0.0842977
0.0840376
0.0833487
0.0820987
0.0806551
0.0799274
0.0800646
0.0780145
0.0267107
0.026914
0.0271309
0.027357
0.0275972
0.0278478
0.0281135
0.028391
0.0286852
0.0289923
0.0293182
0.0296586
0.0300209
0.0303996
0.0308037
0.0312275
0.0316816
0.0321595
0.0326721
0.0332146
0.0337981
0.0344175
0.0350853
0.0357976
0.0365659
0.0373903
0.0382801
0.0392376
0.0402693
0.0413808
0.0425769
0.0438675
0.0452613
0.0467716
0.0484127
0.0502007
0.0521446
0.0542466
0.0564993
0.0588978
0.0614341
0.06409
0.0668389
0.0696462
0.072461
0.0752233
0.0778473
0.0802627
0.0823664
0.0841032
0.0853891
0.0861084
0.0864675
0.0863169
0.0857083
0.0845077
0.0830779
0.082366
0.0824537
0.0803649
0.0271975
0.0274081
0.0276313
0.0278637
0.0281101
0.0283672
0.02864
0.028925
0.0292272
0.0295427
0.0298769
0.0302261
0.0305965
0.0309843
0.0313965
0.0318295
0.0322919
0.0327793
0.0333008
0.0338532
0.0344463
0.035076
0.0357544
0.0364778
0.037258
0.0380953
0.038999
0.0399717
0.0410204
0.0421504
0.0433679
0.0446806
0.0461018
0.047638
0.0493096
0.0511294
0.0531067
0.0552441
0.057534
0.0599717
0.0625501
0.0652515
0.0680511
0.0709153
0.0737964
0.0766346
0.0793473
0.0818607
0.0840749
0.0859276
0.0873386
0.08818
0.0886461
0.0885975
0.088066
0.0869161
0.0855013
0.0848051
0.0848387
0.0827257
0.0276165
0.0278385
0.0280743
0.0283191
0.0285782
0.0288474
0.0291318
0.0294277
0.0297404
0.0300657
0.0304098
0.0307681
0.0311484
0.0315449
0.031967
0.0324086
0.0328809
0.0333769
0.0339082
0.0344698
0.0350732
0.0357133
0.036403
0.0371384
0.0379314
0.0387826
0.0397012
0.0406902
0.0417565
0.0429061
0.0441443
0.0454815
0.0469267
0.0484923
0.0501935
0.0520463
0.054059
0.0562343
0.0585646
0.0610454
0.0636703
0.0664223
0.0692773
0.0722036
0.0751545
0.0780724
0.0808735
0.0834856
0.0858047
0.0877706
0.0892971
0.0902567
0.0908364
0.0908955
0.0904454
0.0893464
0.0879491
0.0872655
0.0872466
0.0851153
0.0280317
0.0282607
0.0285029
0.0287543
0.0290201
0.0292965
0.0295888
0.0298931
0.0302148
0.0305493
0.0309027
0.0312706
0.0316601
0.0320665
0.0324978
0.0329498
0.0334319
0.0339391
0.0344812
0.0350547
0.03567
0.0363226
0.0370253
0.0377743
0.0385816
0.0394479
0.0403828
0.0413891
0.0424742
0.0436438
0.0449046
0.0462648
0.0477382
0.0493305
0.0510638
0.0529509
0.0550012
0.0572177
0.0595928
0.0621222
0.0648009
0.0676114
0.0705317
0.0735295
0.0765613
0.0795673
0.0824678
0.085184
0.0876162
0.0896956
0.0913404
0.0924193
0.0931027
0.0932606
0.0928846
0.0918304
0.0904425
0.0897605
0.0896743
0.0875259
0.0284075
0.0286453
0.0288965
0.0291568
0.0294311
0.029716
0.030016
0.0303282
0.0306573
0.0309998
0.0313614
0.0317379
0.032137
0.0325529
0.0329952
0.0334574
0.0339512
0.0344692
0.0350234
0.0356087
0.0362368
0.0369024
0.0376191
0.0383828
0.0392056
0.0400883
0.0410406
0.0420656
0.0431704
0.0443617
0.0456449
0.0470313
0.0485301
0.0501536
0.0519189
0.0538426
0.055933
0.0581943
0.0606182
0.0632015
0.0659392
0.0688148
0.0718064
0.0748831
0.0780015
0.0811029
0.0841056
0.0869313
0.0894747
0.0916697
0.0934238
0.0946219
0.0954178
0.0956804
0.0953803
0.0943672
0.0929845
0.0922946
0.0921368
0.089967
0.0287627
0.0290048
0.0292592
0.0295232
0.0298013
0.0300908
0.0303965
0.0307153
0.0310521
0.0314029
0.0317733
0.0321596
0.0325683
0.0329951
0.0334477
0.0339221
0.0344275
0.0349589
0.0355261
0.0361257
0.0367682
0.037449
0.0381813
0.0389611
0.0398008
0.0407014
0.0416724
0.0427173
0.0438433
0.0450568
0.0463646
0.0477759
0.0493051
0.0509575
0.0527577
0.0547199
0.0568531
0.0591628
0.0616401
0.0642835
0.0670872
0.0700366
0.073109
0.0762748
0.0794913
0.0826979
0.0858155
0.0887581
0.0914238
0.0937358
0.0956062
0.0969246
0.0978269
0.0981857
0.0979527
0.0969718
0.0955829
0.0948702
0.0946218
0.0924261
0.0290242
0.029276
0.029542
0.0298176
0.0301082
0.0304097
0.0307272
0.0310572
0.0314051
0.0317664
0.032148
0.0325447
0.0329651
0.0334027
0.0338679
0.0343535
0.0348722
0.0354157
0.0359967
0.0366097
0.0372671
0.0379629
0.0387115
0.0395083
0.040366
0.0412856
0.0422766
0.0433427
0.0444909
0.0457283
0.0470608
0.0485005
0.0500571
0.0517433
0.0535789
0.055581
0.0577606
0.0601216
0.0626572
0.0653643
0.0682398
0.071268
0.0744276
0.0776889
0.0810094
0.0843284
0.0875641
0.0906308
0.093418
0.0958523
0.0978298
0.0992717
0.10029
0.100751
0.100586
0.0996335
0.0982318
0.0974852
0.0971403
0.0949098
0.0292723
0.0295291
0.0297997
0.0300806
0.0303769
0.0306851
0.0310106
0.0313494
0.0317072
0.032079
0.0324714
0.0328797
0.0333114
0.0337616
0.0342386
0.034738
0.0352699
0.0358286
0.0364245
0.0370538
0.0377277
0.038441
0.0392076
0.0400231
0.0409002
0.0418401
0.0428524
0.0439408
0.0451125
0.0463744
0.0477338
0.0492004
0.0507897
0.0525072
0.0543809
0.0564255
0.0586532
0.0610693
0.0636669
0.0664436
0.0693969
0.0725117
0.0757669
0.079133
0.0825681
0.0860088
0.0893753
0.0925732
0.0954943
0.0980524
0.100146
0.101715
0.102844
0.1034
0.103295
0.102361
0.100934
0.100138
0.0996757
0.097405
0.0294743
0.0297386
0.0300174
0.0303068
0.0306115
0.0309284
0.0312619
0.0316092
0.0319753
0.0323562
0.0327584
0.033177
0.0336207
0.0340827
0.0345738
0.0350863
0.0356335
0.0362066
0.0368187
0.0374638
0.0381551
0.0388858
0.0396712
0.0405062
0.0414038
0.0423651
0.0433997
0.0445116
0.0457076
0.0469956
0.0483816
0.0498788
0.0514973
0.0532523
0.0551628
0.0572523
0.0595299
0.0620046
0.0646669
0.0675172
0.070552
0.0737581
0.0771133
0.0805899
0.0841443
0.0877134
0.0912136
0.0945502
0.0976055
0.100295
0.102499
0.104198
0.105447
0.106103
0.10606
0.105141
0.103682
0.102825
0.10224
0.0999181
0.0296628
0.0299297
0.0302103
0.0305021
0.0308099
0.031131
0.0314702
0.0318245
0.0321991
0.0325896
0.033002
0.0334321
0.0338873
0.0343626
0.0348663
0.0353939
0.0359555
0.0365454
0.037174
0.0378374
0.038547
0.0392973
0.0401028
0.0409585
0.0418777
0.0428615
0.0439194
0.0450555
0.0462772
0.0475914
0.0490062
0.050532
0.0521867
0.0539739
0.0559261
0.0580601
0.0603905
0.0629252
0.0656565
0.0685838
0.071706
0.075009
0.0784722
0.0820667
0.0857503
0.0894559
0.0931018
0.0965844
0.0997862
0.102609
0.104935
0.106768
0.108135
0.108884
0.108894
0.10798
0.106478
0.105544
0.104814
0.102436
0.0297546
0.0300307
0.030323
0.0306269
0.0309479
0.0312818
0.031634
0.0320007
0.0323876
0.0327899
0.0332149
0.033657
0.0341258
0.0346137
0.0351323
0.0356735
0.0362512
0.036856
0.0375017
0.038182
0.0389103
0.0396797
0.0405057
0.0413828
0.0423243
0.0433313
0.0444134
0.0455747
0.0468222
0.048164
0.0496069
0.0511655
0.0528508
0.0546772
0.0566685
0.058849
0.0612338
0.0638308
0.066633
0.0696399
0.0728522
0.0762555
0.0798303
0.0835471
0.0873641
0.0912118
0.0950069
0.0986424
0.101993
0.104959
0.107404
0.109375
0.110867
0.111714
0.111779
0.110867
0.109314
0.108292
0.107412
0.104966
0.0298606
0.0301401
0.0304355
0.0307433
0.031069
0.0314086
0.0317681
0.0321431
0.0325398
0.0329527
0.0333888
0.0338432
0.0343239
0.0348257
0.0353576
0.0359146
0.0365077
0.0371305
0.0377941
0.0384944
0.039243
0.0400337
0.0408818
0.0417816
0.0427464
0.0437775
0.0448842
0.0460709
0.047345
0.0487139
0.0501868
0.0517749
0.0534968
0.0553574
0.0573908
0.0596195
0.0620593
0.0647207
0.0675956
0.0706859
0.073992
0.0775014
0.0811937
0.0850404
0.0889986
0.0929971
0.0969515
0.100748
0.10426
0.107373
0.10995
0.112062
0.113678
0.114617
0.114728
0.113808
0.112192
0.111067
0.110014
0.107496
0.0299279
0.0302129
0.0305146
0.030829
0.0311613
0.0315082
0.0318743
0.032257
0.0326612
0.0330832
0.0335295
0.0339953
0.0344897
0.0350055
0.0355541
0.0361274
0.0367394
0.0373804
0.0380643
0.0387845
0.0395545
0.0403669
0.0412375
0.0421604
0.0431486
0.044204
0.0453352
0.0465474
0.0478473
0.049244
0.0507447
0.0523657
0.0541187
0.0560195
0.058094
0.0603714
0.0628677
0.0655941
0.0685435
0.0717183
0.0751207
0.0787385
0.0825515
0.0865316
0.0906351
0.0947892
0.098907
0.102872
0.106548
0.109818
0.112531
0.114788
0.116532
0.117566
0.117725
0.116793
0.115106
0.113866
0.112635
0.110033
0.0299564
0.0302419
0.0305436
0.03086
0.0311953
0.0315478
0.0319214
0.032314
0.0327299
0.0331657
0.0336265
0.034109
0.0346199
0.0351547
0.0357214
0.0363155
0.0369474
0.0376105
0.0383157
0.0390585
0.0398509
0.0406861
0.0415795
0.0425255
0.0435369
0.0446158
0.045771
0.0470075
0.048333
0.0497556
0.0512856
0.0529353
0.0547255
0.0566607
0.0587795
0.0611057
0.0636588
0.0664513
0.0694768
0.0727389
0.0762412
0.0799721
0.0839116
0.0880318
0.0922881
0.0966062
0.100897
0.105038
0.108892
0.112325
0.115186
0.117592
0.119463
0.120586
0.120783
0.119828
0.118058
0.116686
0.115255
0.112563
0.0298241
0.0301297
0.0304573
0.0308015
0.0311657
0.0315455
0.0319458
0.032362
0.0328012
0.033257
0.0337392
0.0342394
0.0347707
0.0353224
0.0359091
0.0365198
0.0371713
0.0378515
0.0385761
0.0393372
0.0401495
0.0410043
0.0419185
0.0428854
0.0439181
0.0450189
0.0461963
0.047456
0.0488051
0.0502535
0.0518097
0.0534913
0.0553116
0.0572875
0.0594475
0.0618229
0.0644333
0.0672925
0.0703949
0.0737457
0.0773498
0.081196
0.0852649
0.0895285
0.0939418
0.0984284
0.102897
0.107221
0.111257
0.114864
0.117878
0.120437
0.122438
0.123652
0.123888
0.122907
0.121044
0.119528
0.11789
0.115095
0.030123
0.0304132
0.0307198
0.0310427
0.0313863
0.0317496
0.0321366
0.032545
0.032979
0.0334349
0.0339179
0.0344242
0.0349609
0.035523
0.0361189
0.0367436
0.0374081
0.0381048
0.0388453
0.0396244
0.0404544
0.0413279
0.0422606
0.0432464
0.0442981
0.0454184
0.0466159
0.0478963
0.0492675
0.0507389
0.0523218
0.0540299
0.055886
0.0578955
0.060099
0.0625235
0.0651914
0.0681183
0.0712994
0.0747413
0.0784507
0.082417
0.0866208
0.0910344
0.0956121
0.100275
0.104931
0.109448
0.113677
0.117466
0.120644
0.123361
0.12549
0.126789
0.127053
0.126032
0.124063
0.122386
0.120519
0.117616
0.0301214
0.0304309
0.0307618
0.03111
0.0314792
0.0318655
0.0322743
0.0327007
0.0331524
0.0336224
0.0341212
0.0346392
0.0351907
0.0357635
0.0363735
0.0370084
0.0376863
0.0383935
0.039147
0.0399377
0.0407811
0.0416677
0.0426147
0.0436152
0.0446822
0.0458187
0.047033
0.0483315
0.0497217
0.0512147
0.0528202
0.0545574
0.0564415
0.0584904
0.0607346
0.0632084
0.0659343
0.0689295
0.0721903
0.0757248
0.0795414
0.08363
0.0879717
0.0925389
0.0972851
0.10213
0.106978
0.111692
0.116122
0.120101
0.123451
0.126327
0.128587
0.129973
0.130265
0.129199
0.127113
0.125263
0.123158
0.120133
0.0305765
0.0308715
0.0311824
0.0315096
0.0318576
0.0322258
0.0326183
0.0330328
0.0334739
0.0339376
0.03443
0.0349463
0.0354949
0.0360695
0.0366799
0.0373198
0.0380017
0.0387165
0.0394771
0.0402771
0.0411296
0.0420264
0.0429837
0.0439952
0.0450736
0.0462225
0.04745
0.048763
0.0501698
0.0516809
0.0533091
0.0550696
0.0569872
0.0590682
0.0613554
0.0638783
0.0666627
0.0697273
0.0730696
0.0766994
0.0806269
0.0848427
0.089328
0.0940554
0.0989776
0.104012
0.109061
0.113984
0.118623
0.122801
0.126333
0.129373
0.131764
0.133228
0.133535
0.13241
0.130192
0.128151
0.125788
0.122634
0.0307412
0.031057
0.0313931
0.0317457
0.0321186
0.0325079
0.0329193
0.0333481
0.0338021
0.0342744
0.0347757
0.0352967
0.0358519
0.0364291
0.0370446
0.037686
0.0383717
0.0390878
0.0398515
0.0406536
0.0415098
0.0424103
0.0433725
0.0443898
0.0454749
0.0466318
0.0478687
0.0491929
0.0506128
0.0521403
0.0537868
0.0555729
0.0575159
0.0596344
0.0619617
0.064534
0.0673774
0.0705124
0.0739375
0.0776644
0.0817049
0.0860506
0.0906828
0.0955743
0.100677
0.105907
0.111161
0.116297
0.121152
0.125539
0.129257
0.132464
0.134985
0.136531
0.136852
0.135661
0.1333
0.131054
0.128424
0.125128
0.0314234
0.0317245
0.0320394
0.0323676
0.0327147
0.0330797
0.0334676
0.0338759
0.0343103
0.0347664
0.0352513
0.0357601
0.0363018
0.03687
0.0374752
0.0381107
0.0387895
0.0395024
0.0402623
0.0410631
0.0419177
0.0428182
0.0437807
0.0447994
0.0458869
0.0470476
0.0482898
0.0496216
0.0510516
0.0525917
0.0542562
0.0560618
0.0580353
0.0601843
0.0625536
0.0651756
0.0680789
0.0712857
0.0747958
0.0786228
0.0827805
0.087261
0.0920462
0.0971086
0.1024
0.107832
0.113302
0.11866
0.12374
0.128342
0.132255
0.135633
0.138285
0.139903
0.140224
0.138951
0.136432
0.133965
0.131046
0.127603
0.0318932
0.032201
0.0325228
0.0328569
0.0332085
0.0335757
0.0339646
0.0343718
0.034805
0.035258
0.0357413
0.0362456
0.0367853
0.0373483
0.0379505
0.0385797
0.0392539
0.0399597
0.0407136
0.0415074
0.0423562
0.0432508
0.0442088
0.045224
0.0463091
0.0474693
0.048713
0.0500486
0.051485
0.0530357
0.0547135
0.0565408
0.0585369
0.0607216
0.0631307
0.065803
0.0687672
0.0720472
0.0756441
0.0795733
0.0838508
0.0884696
0.0934113
0.0986491
0.104133
0.109774
0.115463
0.12105
0.126359
0.131185
0.135297
0.138847
0.141629
0.143321
0.143642
0.14228
0.139589
0.136886
0.133671
0.130069
0.0324487
0.0327632
0.033092
0.0334315
0.0337885
0.034159
0.0345502
0.0349574
0.0353884
0.0358372
0.036313
0.0368095
0.0373378
0.0378903
0.0384792
0.0390971
0.0397584
0.0404534
0.0411956
0.0419793
0.0428178
0.0437034
0.0446526
0.0456603
0.0467391
0.0478948
0.049136
0.0504719
0.0519119
0.0534692
0.0551602
0.0570031
0.0590271
0.0612411
0.0636923
0.0664154
0.0694416
0.0727967
0.076483
0.0805181
0.0849201
0.0896825
0.0947874
0.100208
0.105892
0.11175
0.117669
0.123491
0.129039
0.134094
0.138412
0.142138
0.145049
0.146806
0.14711
0.145642
0.142765
0.139809
0.136278
0.132514
0.0330891
0.0334045
0.0337326
0.0340715
0.0344253
0.0347925
0.035178
0.0355794
0.0360034
0.0364447
0.0369131
0.0374005
0.0379207
0.0384628
0.0390423
0.0396479
0.0402976
0.0409785
0.0417073
0.0424765
0.043301
0.0441728
0.0451092
0.0461051
0.0471734
0.0483209
0.049556
0.0508887
0.0523288
0.0538912
0.0555909
0.057452
0.0594963
0.0617449
0.0642362
0.067011
0.0701008
0.0735329
0.0773109
0.0814548
0.0859846
0.0908946
0.0961671
0.101775
0.107665
0.113745
0.119897
0.125962
0.131752
0.137042
0.141569
0.14547
0.148512
0.150335
0.150621
0.149038
0.145961
0.142739
0.138886
0.134949
0.0338617
0.0341722
0.0344941
0.0348249
0.0351708
0.0355286
0.035905
0.0362958
0.0367084
0.037137
0.0375903
0.0380627
0.0385647
0.0390896
0.0396491
0.0402365
0.0408661
0.041529
0.0422386
0.0429901
0.0437966
0.0446514
0.0455714
0.0465522
0.0476065
0.0487422
0.0499679
0.0512944
0.0527322
0.0542962
0.0560049
0.0578783
0.0599484
0.0622257
0.0647597
0.0675874
0.0707425
0.0742541
0.0781274
0.0823844
0.0870473
0.0921112
0.0975582
0.103361
0.109466
0.115777
0.122172
0.128486
0.134524
0.140055
0.144796
0.148876
0.152046
0.153924
0.154176
0.152462
0.149169
0.145666
0.141473
0.137361
0.0346659
0.0349708
0.0352849
0.0356072
0.0359417
0.0362875
0.0366495
0.0370257
0.0374229
0.0378358
0.0382741
0.0387299
0.0392171
0.0397247
0.0402683
0.0408368
0.0414485
0.0420909
0.0427805
0.0435108
0.0442967
0.045131
0.0460312
0.0469935
0.0480307
0.0491516
0.0503651
0.051683
0.0531157
0.0546803
0.056394
0.0582831
0.0603723
0.0626841
0.0652597
0.0681419
0.0713644
0.0749582
0.07893
0.0833035
0.0881039
0.0933263
0.0989532
0.104957
0.111282
0.117829
0.124472
0.13104
0.13733
0.143104
0.14806
0.152319
0.155618
0.157554
0.157769
0.155914
0.152392
0.148596
0.144057
0.139763
0.0355226
0.0358195
0.0361245
0.0364355
0.0367589
0.0370918
0.0374409
0.0378022
0.0381834
0.0385786
0.0389969
0.0394324
0.0398962
0.0403814
0.0408998
0.0414452
0.0420318
0.042651
0.0433163
0.0440237
0.0447863
0.0455982
0.0464765
0.0474182
0.0484362
0.0495402
0.0507395
0.0520467
0.0534732
0.0550361
0.0567563
0.0586562
0.0607711
0.0631124
0.0657328
0.0686712
0.0719635
0.0756428
0.0797171
0.0842125
0.0891562
0.0945442
0.100358
0.106571
0.113125
0.119919
0.126817
0.133647
0.140194
0.146216
0.151392
0.155832
0.159256
0.161237
0.161399
0.159387
0.155621
0.151517
0.146619
0.142141
0.0363585
0.0366471
0.0369412
0.0372407
0.0375495
0.037867
0.0381985
0.0385421
0.0389047
0.0392811
0.0396812
0.040097
0.0405427
0.0410072
0.0415065
0.0420297
0.0425949
0.0431902
0.043832
0.0445147
0.045253
0.0460408
0.0468958
0.0478155
0.0488129
0.0498988
0.0510828
0.0523785
0.0537977
0.0553593
0.0570834
0.0589987
0.0611331
0.0635107
0.0661753
0.0691721
0.0725371
0.0763052
0.0804858
0.0851075
0.0901996
0.0957586
0.101766
0.108194
0.114984
0.122029
0.12919
0.136284
0.143092
0.149357
0.154755
0.159377
0.162928
0.164956
0.165061
0.162881
0.158859
0.154435
0.149175
0.144507
0.0371866
0.0374647
0.0377471
0.0380327
0.0383279
0.0386301
0.0389465
0.0392732
0.0396181
0.0399753
0.0403539
0.0407483
0.0411694
0.0416106
0.0420837
0.0425827
0.0431216
0.0436926
0.0443087
0.0449672
0.0456808
0.0464447
0.0472764
0.0481738
0.0491505
0.0502182
0.0513867
0.0526707
0.0540829
0.0556424
0.0573731
0.0592998
0.0614613
0.0638708
0.0665838
0.0696414
0.0730819
0.0769427
0.0812343
0.0859883
0.0912353
0.0969734
0.103183
0.109836
0.11687
0.124176
0.131608
0.138974
0.146045
0.152559
0.158181
0.162986
0.16666