/*--------------------------------*- C++ -*----------------------------------*\
  =========                 |
  \\      /  F ield         | OpenFOAM: The Open Source CFD Toolbox
   \\    /   O peration     | Website:  https://openfoam.org
    \\  /    A nd           | Version:  6.0
     \\/     M anipulation  |
\*---------------------------------------------------------------------------*/
FoamFile
{
    version     2.0;
    format      ascii;
    class       volScalarField;
    location    "20";
    object      p;
}
// * * * * * * * * * * * * * * * * * * * * * * * * * * * * * * * * * * * * * //

dimensions      [0 2 -2 0 0 0 0];

internalField   nonuniform List<scalar> 
47000
(
0.00528867
0.00514338
0.00497864
0.00485264
0.00482171
0.00493313
0.00516368
0.00546945
0.00575168
0.0059519
0.00600968
0.00592384
0.00570507
0.00538414
0.00499894
0.00457533
0.00414421
0.00371781
0.00331404
0.00293528
0.00258863
0.00227113
0.00198149
0.00171361
0.00146492
0.00122651
0.001014
0.000773175
0.000855561
0.00178991
0.00529528
0.00515102
0.00498503
0.0048546
0.00481928
0.00493318
0.00518126
0.00552551
0.00586785
0.00614572
0.00628881
0.00628691
0.0061411
0.00587688
0.00552873
0.00512183
0.00468824
0.00424147
0.00380275
0.00337689
0.00297507
0.00259662
0.00224301
0.00190908
0.00159461
0.00129032
0.00101996
0.000765819
0.000888293
0.00139882
0.00530489
0.00514792
0.00495101
0.0047692
0.00466483
0.0046999
0.00487025
0.00514824
0.00544341
0.0056952
0.00582999
0.00583193
0.00569466
0.00543923
0.00509507
0.00468654
0.00424332
0.00377943
0.00331532
0.0028582
0.00242103
0.00200669
0.00161961
0.00125882
0.000927967
0.000624223
0.000373704
0.000187887
0.000331137
0.000749984
0.00531919
0.00515179
0.00492549
0.00469099
0.00451285
0.00446008
0.00453958
0.00473529
0.00496655
0.00517751
0.00529347
0.00529477
0.00516854
0.00493185
0.00460912
0.00422335
0.00380111
0.00335528
0.00290383
0.00245372
0.00201775
0.0016002
0.00120732
0.000841361
0.000509311
0.000213975
-1.78758e-05
-0.00016587
-3.7824e-05
0.000337704
0.00533736
0.00516689
0.0049205
0.00464339
0.00440091
0.00426739
0.00425895
0.00437064
0.00453171
0.00469212
0.00477741
0.00476512
0.0046372
0.00440726
0.00409616
0.00372612
0.00332188
0.0028954
0.00246227
0.00202826
0.00160452
0.00119512
0.000806192
0.000441696
0.000110456
-0.00018117
-0.000407595
-0.000541575
-0.000449006
-0.000189728
0.0053594
0.00519264
0.00493387
0.00462184
0.00432209
0.00411224
0.00401599
0.00403852
0.0041188
0.00421331
0.00424845
0.00419987
0.00404484
0.00379423
0.0034664
0.00308419
0.00267239
0.00224409
0.00181434
0.00138876
0.000977404
0.000583823
0.000213501
-0.000129055
-0.000434363
-0.000694001
-0.00088531
-0.000975827
-0.000882595
-0.000676436
0.00538585
0.00523087
0.00497075
0.00463728
0.00429564
0.00402518
0.00385543
0.00380085
0.00380979
0.00384549
0.00383562
0.00375382
0.00357244
0.00329879
0.00294851
0.002545
0.00211415
0.0016716
0.00123373
0.00080783
0.000404007
2.61085e-05
-0.000321191
-0.000633353
-0.000901782
-0.001118
-0.00126507
-0.00131077
-0.0012142
-0.00105164
0.0054197
0.00528539
0.00503834
0.00470211
0.00434107
0.00403447
0.00381624
0.00370908
0.00367052
0.00367077
0.00363914
0.00354714
0.00336132
0.00308403
0.00272635
0.00231094
0.00186381
0.0014034
0.000948082
0.000508043
9.46533e-05
-0.000286858
-0.000631966
-0.000935994
-0.00119156
-0.001391
-0.00152365
-0.00155882
-0.00148763
-0.0013914
0.00546321
0.00535501
0.00513137
0.0048057
0.00444055
0.00411353
0.00386153
0.00371489
0.00364044
0.00361635
0.00357482
0.00348611
0.00331106
0.00304593
0.00269566
0.00227991
0.0018232
0.00134553
0.000867015
0.000401128
-3.86598e-05
-0.000444524
-0.000810932
-0.00113175
-0.00139974
-0.00160688
-0.0017472
-0.00178913
-0.00174808
-0.0017023
0.00551894
0.00543737
0.00523954
0.00492662
0.00455835
0.00420937
0.00391846
0.00372318
0.00360027
0.00353748
0.00347219
0.00337578
0.00320489
0.00295034
0.00261007
0.00219957
0.00173989
0.0012513
0.00075448
0.000265881
-0.000198835
-0.000628549
-0.00101581
-0.00135208
-0.00162923
-0.00183813
-0.00197656
-0.00201234
-0.0019804
-0.0019539
0.00558669
0.00552833
0.00535333
0.00504875
0.00467064
0.00428953
0.00394501
0.00368128
0.00348533
0.00335615
0.00323897
0.00310939
0.00292277
0.00266632
0.00233178
0.00192997
0.00147744
0.00099312
0.000496836
6.8422e-06
-0.00045987
-0.000889399
-0.00127281
-0.00159943
-0.001861
-0.00204816
-0.00216377
-0.00217783
-0.00214066
-0.00211997
0.00566667
0.00562873
0.00547479
0.00517693
0.00478662
0.00436933
0.00396399
0.00362011
0.00333434
0.00311759
0.00292487
0.00273893
0.00251687
0.00224508
0.00191059
0.00152028
0.00108552
0.000622984
0.000149925
-0.000315161
-0.000755709
-0.00115655
-0.00150882
-0.0018014
-0.00202761
-0.00217982
-0.0022672
-0.00226423
-0.00223043
-0.00222904
0.00575606
0.00573867
0.00560958
0.00532585
0.00493358
0.00449191
0.00403716
0.00362185
0.00325033
0.00294468
0.00267019
0.0024186
0.00215125
0.00185616
0.00151777
0.00114005
0.000729467
0.000299645
-0.000135908
-0.0005601
-0.000958594
-0.00131677
-0.0016277
-0.0018814
-0.0020743
-0.00220148
-0.00227805
-0.00228227
-0.00227603
-0.00231615
0.00585455
0.00586207
0.00576804
0.00551532
0.00514367
0.0047048
0.00422995
0.00377164
0.00333894
0.00296281
0.00261795
0.00230543
0.00199225
0.00167015
0.00132272
0.000952616
0.00056195
0.000161527
-0.000239644
-0.000626739
-0.000988963
-0.0013134
-0.00159615
-0.00182913
-0.00201209
-0.00214225
-0.0022384
-0.00228009
-0.00232611
-0.00242717
0.00595903
0.00599792
0.00595234
0.00575218
0.00543009
0.00502904
0.00457303
0.00411128
0.0036541
0.00323824
0.00284574
0.00248625
0.00213283
0.00178208
0.00141837
0.00104448
0.000659351
0.000271566
-0.000114095
-0.000485192
-0.000834726
-0.00115169
-0.00143528
-0.0016788
-0.0018844
-0.00204974
-0.00219457
-0.00229693
-0.0024104
-0.00257884
0.00606975
0.00614728
0.00616303
0.00603568
0.00579007
0.00545998
0.00506024
0.00463407
0.0041897
0.00376638
0.00335098
0.00296015
0.00257257
0.00219034
0.00179967
0.00140498
0.00100329
0.000602297
0.000203336
-0.000182699
-0.000552079
-0.000894946
-0.00121278
-0.00149915
-0.00175706
-0.00198294
-0.00219515
-0.00236882
-0.0025527
-0.00278544
0.00618349
0.00630481
0.00639016
0.00634901
0.00619837
0.00596262
0.00564669
0.00528581
0.00488362
0.00447903
0.00406121
0.00365208
0.00323506
0.00281769
0.00238883
0.00195563
0.00151464
0.00107395
0.000632802
0.000201714
-0.000217714
-0.000615632
-0.000994654
-0.00134728
-0.0016761
-0.00197508
-0.00226022
-0.00250341
-0.00275076
-0.0030355
0.00630112
0.0064689
0.00662607
0.00667539
0.00662632
0.00649486
0.00627591
0.00599611
0.00565285
0.00528264
0.00487494
0.00445514
0.00401034
0.00355327
0.00307566
0.00258843
0.00208862
0.00158623
0.00107961
0.000580298
8.8902e-05
-0.000383511
-0.000839644
-0.00126998
-0.00167595
-0.00204866
-0.00240169
-0.00270446
-0.00300273
-0.00332539
0.00641977
0.00663247
0.00685696
0.00699136
0.00703879
0.00700794
0.00688495
0.00668797
0.00640768
0.00607701
0.00568424
0.00525686
0.00478455
0.00428463
0.00375176
0.00320099
0.00263078
0.00205391
0.00146897
0.000889584
0.000316336
-0.000237628
-0.000774433
-0.00128203
-0.00176059
-0.00219859
-0.00260781
-0.00295617
-0.00329102
-0.00363581
0.00654117
0.00679463
0.00707692
0.00728378
0.00741322
0.00746878
0.00742923
0.00730552
0.00708187
0.00678721
0.00640778
0.00597207
0.00547136
0.00492696
0.00433607
0.00371808
0.00307315
0.0024176
0.00175087
0.0010894
0.000434324
-0.000198617
-0.00081073
-0.00138744
-0.0019279
-0.00241858
-0.0028702
-0.00325015
-0.00360834
-0.0039631
0.0066627
0.00694977
0.00727676
0.00753859
0.00772995
0.007851
0.0078754
0.00780831
0.00762846
0.00736102
0.00698978
0.00654355
0.00601437
0.00542677
0.00478004
0.00409761
0.0033814
0.00265137
0.00190815
0.00117124
0.000442546
-0.000259524
-0.000935542
-0.00156864
-0.00215747
-0.0026871
-0.00316793
-0.00356734
-0.00393811
-0.0042919
0.00678678
0.00709974
0.0074573
0.00775525
0.00798633
0.00814967
0.0082156
0.0081855
0.00803373
0.00778224
0.00741236
0.0069527
0.00639542
0.00576755
0.00506981
0.00432931
0.00354934
0.00275351
0.00194344
0.0011418
0.000351071
-0.000407743
-0.00113478
-0.00181128
-0.00243585
-0.00299267
-0.00349227
-0.0039023
-0.00427789
-0.00462448
0.00691103
0.00724127
0.00761561
0.0079315
0.00818137
0.00836472
0.00845066
0.0084384
0.00829922
0.00805266
0.0076777
0.00720258
0.00661898
0.00595577
0.00521447
0.00442519
0.0035922
0.00274229
0.00187787
0.00102444
0.000184825
-0.00061769
-0.00138315
-0.00209123
-0.0027409
-0.00331574
-0.00382664
-0.00424138
-0.00461683
-0.00495099
0.00703831
0.00737865
0.00775803
0.00807659
0.00832729
0.00851175
0.00859915
0.00858821
0.0084482
0.00819698
0.00781149
0.00731939
0.00671149
0.00601796
0.00524042
0.00441149
0.00353575
0.00264287
0.00173552
0.000841781
-3.55281e-05
-0.000871132
-0.00166527
-0.00239638
-0.00306395
-0.00365112
-0.00416908
-0.00458555
-0.00495822
-0.00527855
0.0071661
0.00751
0.00788509
0.0081945
0.00843263
0.00860382
0.00867871
0.00865649
0.00850546
0.00824252
0.00784278
0.00733338
0.00670394
0.00598543
0.00517907
0.00431932
0.00341067
0.00248502
0.00154501
0.000620882
-0.000284858
-0.00114522
-0.00196088
-0.00270911
-0.0033901
-0.00398643
-0.00450947
-0.00492655
-0.0052955
-0.00560052
0.00729739
0.00764079
0.00800524
0.00829772
0.00851408
0.00866241
0.00871517
0.00867309
0.00850408
0.00822458
0.00780816
0.0072814
0.00663256
0.00589309
0.00506332
0.0041792
0.00324454
0.00229323
0.00132742
0.000379293
-0.000549246
-0.00142962
-0.00226309
-0.00302583
-0.00371865
-0.0043235
-0.0048517
-0.00526987
-0.00563533
-0.00592636
0.00742941
0.00776926
0.00811929
0.0083905
0.00858047
0.00870079
0.00872636
0.00865969
0.00846887
0.00817031
0.00773621
0.00719272
0.00652659
0.00576955
0.00492073
0.00401717
0.00306172
0.00208986
0.00110302
0.000135079
-0.000812823
-0.00171064
-0.00256027
-0.00333673
-0.00404139
-0.00465535
-0.00518971
-0.00561008
-0.00597296
-0.00625034
0.00756528
0.00790093
0.00823516
0.00848391
0.00864587
0.00873658
0.00873301
0.00863996
0.00842576
0.00810708
0.00765491
0.00709501
0.00641257
0.00563954
0.00477363
0.0038528
0.00287866
0.00188818
0.000881843
-0.000104868
-0.00107168
-0.00198708
-0.00285358
-0.00364498
-0.00436308
-0.00498797
-0.00553035
-0.00595465
-0.00631627
-0.00658247
0.00770202
0.00803336
0.00835214
0.0085794
0.00871482
0.00877709
0.00874542
0.00862656
0.00838934
0.00805083
0.00758092
0.00700511
0.00630711
0.00551898
0.00463698
0.00369987
0.0027079
0.00169937
0.000673735
-0.000331959
-0.00131836
-0.00225243
-0.00313732
-0.00394544
-0.00467893
-0.00531673
-0.005869
-0.00629888
-0.00666071
-0.00691669
0.00784296
0.00817164
0.00847665
0.00868503
0.00879652
0.00883321
0.00877571
0.00863291
0.00837391
0.0080163
0.00752894
0.00693713
0.00622313
0.00541926
0.00452027
0.00356576
0.00255455
0.00152632
0.000479452
-0.000547408
-0.00155581
-0.00251116
-0.00341709
-0.00424462
-0.0049961
-0.00564917
-0.00621343
-0.00665067
-0.0070142
-0.00726275
0.00798504
0.00831244
0.00860606
0.00879896
0.00889076
0.00890583
0.00882619
0.00866227
0.00838355
0.00800809
0.00750381
0.00689596
0.00616547
0.00534497
0.00442778
0.00345439
0.00242223
0.00137236
0.000302117
-0.00074821
-0.00178105
-0.00276015
-0.00368964
-0.00453897
-0.00531066
-0.00598099
-0.00655895
-0.00700501
-0.0073717
-0.00761387
0.00813183
0.00846039
0.00874543
0.00892669
0.0090027
0.00900033
0.00890205
0.00871995
0.00842346
0.00803121
0.00751016
0.00688561
0.00613724
0.00529815
0.00436035
0.00336533
0.00230918
0.00123448
0.000137552
-0.000939559
-0.00200012
-0.00300612
-0.0039621
-0.00483593
-0.00563023
-0.00631987
-0.00691326
-0.00736961
-0.00774085
-0.0079794
0.00828015
0.00861138
0.00889066
0.00906399
0.00912882
0.00911327
0.00900035
0.00880308
0.00849097
0.00808309
0.00754554
0.00690378
0.00613635
0.00527699
0.00431648
0.00329746
0.00221475
0.00111255
-1.37989e-05
-0.00112038
-0.00221127
-0.00324664
-0.00423144
-0.0051318
-0.00595051
-0.00666097
-0.00727107
-0.00773884
-0.00811592
-0.00835181
0.00843372
0.00876982
0.00904602
0.00921492
0.00927198
0.00924697
0.00912246
0.00891256
0.00858644
0.00816366
0.00760941
0.0069494
0.00616114
0.00527917
0.00429315
0.00324704
0.00213447
0.00100142
-0.000157667
-0.00129692
-0.00242118
-0.00348869
-0.00450478
-0.00543387
-0.00627885
-0.00701168
-0.00763981
-0.00812017
-0.00850433
-0.00874017
0.00858914
0.008931
0.00920649
0.00937394
0.00942706
0.00939598
0.00926308
0.0090429
0.00870435
0.00826739
0.0076964
0.00701742
0.00620702
0.00530069
0.00428708
0.00321159
0.00206677
0.000900447
-0.000293772
-0.00146795
-0.0026277
-0.00372927
-0.0047784
-0.00573769
-0.0066102
-0.00736645
-0.00801353
-0.00850735
-0.00889977
-0.00913634
0.00875021
0.00909931
0.00937612
0.00954467
0.00959613
0.0095616
0.00942234
0.00919356
0.00884354
0.00839268
0.00780449
0.00710541
0.00627113
0.00533824
0.00429449
0.00318688
0.0020069
0.000804444
-0.000427697
-0.00163945
-0.00283712
-0.00397494
-0.00505899
-0.00605014
-0.00695158
-0.00773242
-0.00839948
-0.00890775
-0.00930954
-0.00954929
0.00891317
0.00926966
0.00954945
0.00972107
0.00977368
0.00973796
0.00959455
0.00935868
0.00899816
0.00853373
0.00792813
0.00720822
0.00634893
0.00538805
0.00431248
0.00317095
0.00195398
0.000713561
-0.000558297
-0.00180925
-0.00304637
-0.00422177
-0.00534199
-0.00636599
-0.00729724
-0.00810341
-0.00879116
-0.00931465
-0.00972688
-0.00997041
0.00908185
0.00944656
0.00973069
0.00990697
0.00996187
0.00992653
0.00978
0.00953795
0.00916732
0.00868927
0.00806567
0.00732389
0.0064381
0.00544739
0.00433791
0.00316024
0.00190394
0.000623268
-0.000690506
-0.00198274
-0.0032612
-0.00447589
-0.00563371
-0.00669186
-0.00765402
-0.00848651
-0.00919585
-0.00973545
-0.0101592
-0.0104087
0.00925217
0.00962466
0.00991414
0.0100962
0.0101554
0.0101218
0.00997356
0.00972618
0.00934597
0.00885439
0.00821253
0.0074483
0.00653516
0.0055136
0.00436901
0.00315393
0.001857
0.00053481
-0.000822146
-0.00215678
-0.00347766
-0.00473255
-0.00592887
-0.0070219
-0.00801565
-0.00887505
-0.00960661
-0.010163
-0.0105992
-0.0108553
0.00942797
0.00980868
0.0101044
0.0102931
0.0103568
0.0103257
0.0101762
0.00992387
0.00953411
0.00902877
0.00836809
0.00758051
0.0066388
0.0055849
0.00440354
0.00314927
0.00180985
0.000444296
-0.000957607
-0.00233633
-0.00370116
-0.00499768
-0.00623369
-0.0073627
-0.00838902
-0.00927622
-0.0100309
-0.010605
-0.0110547
-0.0113193
0.00960493
0.00999311
0.0102955
0.0104915
0.0105612
0.0105335
0.0103835
0.0101267
0.00972772
0.00920862
0.00852891
0.00771757
0.0067467
0.00565977
0.00444081
0.0031465
0.00176369
0.000353899
-0.00109387
-0.00251747
-0.00392707
-0.00526589
-0.00654234
-0.00770794
-0.00876743
-0.00968302
-0.0104614
-0.0110539
-0.011518
-0.0117915
0.00978696
0.0101829
0.0104926
0.0106963
0.0107718
0.0107477
0.0105972
0.0103361
0.00992769
0.00939455
0.00869528
0.00785944
0.00685841
0.00573725
0.00447932
0.00314349
0.00171571
0.000260103
-0.00123504
-0.00270501
-0.00416074
-0.00554316
-0.00686112
-0.00806436
-0.00915798
-0.0101029
-0.0109058
-0.0115177
-0.0119971
-0.0122813
0.00996957
0.0103724
0.0106897
0.0109012
0.0109837
0.0109638
0.0108136
0.0105484
0.0101308
0.00958366
0.00886471
0.0080041
0.00697252
0.00581667
0.0045192
0.00314125
0.00166783
0.000165757
-0.00137751
-0.00289448
-0.00439702
-0.00582363
-0.00718382
-0.00842528
-0.00955364
-0.0105284
-0.0113566
-0.0119885
-0.0124841
-0.0127791
0.0101568
0.0105668
0.010892
0.0111119
0.0112007
0.0111851
0.0110349
0.0107656
0.0103387
0.0097772
0.00903813
0.00815212
0.00708914
0.00589755
0.00455932
0.00313793
0.00161744
6.74301e-05
-0.00152537
-0.00309076
-0.00464143
-0.0061135
-0.00751698
-0.00879773
-0.00996181
-0.0109674
-0.0118218
-0.0124747
-0.0129873
-0.0132949
0.010344
0.0107603
0.0110936
0.0113217
0.0114183
0.0114073
0.0112578
0.0109847
0.0105486
0.00997288
0.00921364
0.00830207
0.00720743
0.00597978
0.00460037
0.00313505
0.00156693
-3.15637e-05
-0.00167456
-0.00328895
-0.00488843
-0.00640656
-0.00785405
-0.00917471
-0.0103752
-0.0114122
-0.0122935
-0.012968
-0.0134986
-0.0138187
0.0105356
0.0109585
0.0113
0.0115368
0.0116402
0.011634
0.0114848
0.0112079
0.0107625
0.0101723
0.00939251
0.00845484
0.00732776
0.00606307
0.00464133
0.00313082
0.00151365
-0.000134773
-0.00182939
-0.00349422
-0.00514383
-0.00670931
-0.00820192
-0.0095636
-0.0108015
-0.011871
-0.0127802
-0.0134772
-0.0140265
-0.0143608
0.0107264
0.0111551
0.0115051
0.0117505
0.0118621
0.0118612
0.0117129
0.0114325
0.0109781
0.0103735
0.00957323
0.00860936
0.00744966
0.00614768
0.00468322
0.00312709
0.00146035
-0.000238541
-0.00198545
-0.0037013
-0.00540176
-0.00701522
-0.00855372
-0.00995707
-0.0112331
-0.0123358
-0.0132735
-0.0139939
-0.0145628
-0.014911
0.0109214
0.0113562
0.0117148
0.0119692
0.0120881
0.0120924
0.0119448
0.0116609
0.0111973
0.0105782
0.00975714
0.00876659
0.00757352
0.00623331
0.00472498
0.00312193
0.00140419
-0.000346676
-0.00214735
-0.00391573
-0.00566841
-0.00733122
-0.00891674
-0.0103629
-0.0116781
-0.0128151
-0.0137824
-0.0145271
-0.0151162
-0.01548
0.011115
0.0115551
0.0119225
0.0121861
0.0123138
0.0123239
0.0121777
0.0118906
0.0114182
0.0107848
0.00994295
0.00892567
0.00769909
0.00632041
0.00476785
0.00311746
0.00134814
-0.000455238
-0.00231038
-0.00413192
-0.0059376
-0.00765041
-0.0092838
-0.0107735
-0.0121287
-0.0133006
-0.0142983
-0.015068
-0.0156783
-0.0160573
0.0113126
0.0117586
0.0121346
0.0124078
0.0125433
0.0125592
0.0124141
0.0121238
0.0116426
0.0109948
0.010132
0.0090875
0.00782667
0.00640856
0.00481059
0.00311149
0.00128911
-0.000568365
-0.00247954
-0.00435581
-0.00621593
-0.00798017
-0.00966258
-0.0111971
-0.0125934
-0.0138013
-0.0148304
-0.0156261
-0.0162583
-0.0166541
0.0115082
0.011959
0.0123443
0.0126273
0.0127723
0.0127946
0.0126515
0.0123585
0.0118688
0.0112068
0.010323
0.00925135
0.00795616
0.00649838
0.00485461
0.00310636
0.00123032
-0.000681845
-0.0026498
-0.0045815
-0.00649688
-0.00831324
-0.0100456
-0.0116256
-0.0130637
-0.0143085
-0.0153698
-0.0161923
-0.0168473
-0.0172595
0.0117077
0.0121642
0.0125583
0.0128513
0.0130049
0.0130336
0.0128921
0.0125965
0.0120984
0.0114222
0.0105173
0.00941797
0.00808767
0.00658925
0.00489844
0.0030996
0.00116831
-0.000800204
-0.00282659
-0.00481538
-0.00678753
-0.00865749
-0.0104409
-0.0120677
-0.0135489
-0.0148316
-0.0159263
-0.0167765
-0.0174549
-0.0178852
0.0119042
0.0123655
0.0127694
0.013073
0.0132368
0.0132726
0.0131337
0.0128359
0.0123298
0.0116396
0.0107138
0.00958676
0.00822123
0.00668192
0.00494364
0.00309373
0.00110656
-0.000918945
-0.00300457
-0.00505119
-0.00708098
-0.00900526
-0.0108407
-0.012515
-0.0140401
-0.0153616
-0.0164904
-0.0173692
-0.0180721
-0.0185201
0.0121046
0.0125717
0.0129843
0.0132988
0.0134718
0.0135148
0.0133782
0.0130784
0.0125644
0.0118603
0.0109133
0.00975825
0.00835674
0.00677553
0.00498849
0.00308598
0.00104126
-0.00104301
-0.00318961
-0.00529581
-0.00738479
-0.00936491
-0.0112536
-0.0129766
-0.0145468
-0.0159082
-0.0170723
-0.0179807
-0.0187089
-0.0191762
0.0123014
0.0127732
0.0131961
0.013522
0.0137061
0.0137569
0.0136235
0.0133222
0.0128008
0.012083
0.0111151
0.00993195
0.00849434
0.00687095
0.0050347
0.00307909
0.000976114
-0.00116758
-0.00337602
-0.00554257
-0.00769167
-0.00972836
-0.0116712
-0.0134437
-0.0150598
-0.016462
-0.0176623
-0.0186012
-0.0193557
-0.0198422
0.0125023
0.0129791
0.0134109
0.0137484
0.0139426
0.0140014
0.0138712
0.0135686
0.01304
0.0123088
0.0113198
0.0101082
0.0086337
0.00696708
0.00508024
0.00306992
0.000906931
-0.00129807
-0.00357017
-0.00579889
-0.00800967
-0.0101045
-0.0121027
-0.013926
-0.0155891
-0.0170332
-0.0182708
-0.0192413
-0.0200231
-0.0205305
0.0126988
0.01318
0.0136222
0.013972
0.014178
0.0142456
0.0141195
0.0138162
0.013281
0.0125365
0.0115266
0.0102865
0.00877505
0.00706492
0.00512702
0.00306144
0.000837709
-0.00142931
-0.00376597
-0.00605767
-0.0083311
-0.0104847
-0.0125392
-0.014414
-0.0161252
-0.017612
-0.0188878
-0.0198908
-0.020701
-0.0212294
0.0128988
0.0133845
0.0138354
0.0141975
0.0144146
0.0144912
0.0143693
0.0140659
0.0135243
0.0127669
0.011736
0.010467
0.00891781
0.00716306
0.00517265
0.00305013
0.00076381
-0.00156718
-0.0039703
-0.00632686
-0.0086645
-0.0108785
-0.0129904
-0.014918
-0.0166782
-0.018209
-0.0195242
-0.0205609
-0.0214006
-0.021952
0.0130939
0.0135832
0.0140444
0.0144195
0.0146495
0.014736
0.0146194
0.0143164
0.0137691
0.012999
0.0119473
0.0106495
0.00906236
0.00726269
0.00521928
0.00303924
0.000689563
-0.00170615
-0.00417667
-0.00659891
-0.00900175
-0.0112768
-0.0134471
-0.0154281
-0.0172382
-0.0188138
-0.0201694
-0.0212408
-0.0221113
-0.0226859
0.0132917
0.013784
0.0142534
0.0146417
0.014884
0.014981
0.0148701
0.0145681
0.0140157
0.0132332
0.0121606
0.0108336
0.00920778
0.00736204
0.00526412
0.00302481
0.00060984
-0.00185263
-0.00439247
-0.00688232
-0.00935189
-0.0116894
-0.0139192
-0.0159549
-0.0178161
-0.0194376
-0.0208348
-0.0219421
-0.0228447
-0.023445
0.0134836
0.013978
0.0144573
0.0148595
0.015116
0.0152244
0.0151205
0.0148203
0.0142633
0.0134688
0.0123756
0.0110194
0.00935466
0.00746253
0.00530957
0.00301037
0.000529338
-0.00200065
-0.0046108
-0.00716907
-0.00970636
-0.0121071
-0.0143972
-0.0164882
-0.0184013
-0.0200696
-0.0215093
-0.0226536
-0.0235896
-0.0242162
0.0136774
0.0141725
0.0146595
0.0150758
0.0153461
0.0154668
0.0153705
0.015073
0.0145119
0.0137058
0.0125919
0.0112061
0.00950167
0.00756194
0.00535239
0.00299149
0.000442389
-0.00215721
-0.0048396
-0.00746821
-0.0100747
-0.01254
-0.0148914
-0.017039
-0.019005
-0.0207212
-0.0222048
-0.0233874
-0.0243582
-0.0250133
0.0138642
0.0143593
0.0148555
0.0152867
0.0155728
0.015707
0.0156196
0.0153256
0.0147612
0.0139438
0.0128094
0.011394
0.00964968
0.00766201
0.0053953
0.00297206
0.000354116
-0.00231587
-0.00507149
-0.00777123
-0.0104479
-0.0129784
-0.015392
-0.0175966
-0.0196164
-0.0213813
-0.0229096
-0.0241317
-0.0251385
-0.0258222
0.0140519
0.0145452
0.0150482
0.0154944
0.0157962
0.0159448
0.0158673
0.0155778
0.0150107
0.0141824
0.0130274
0.011582
0.00979687
0.00776
0.00543453
0.00294708
0.000258239
-0.00248424
-0.00531498
-0.00808774
-0.0108359
-0.013433
-0.0159097
-0.0181725
-0.0202469
-0.0220618
-0.0236362
-0.0248991
-0.0259434
-0.0266577
0.0142317
0.0147227
0.0152342
0.0156963
0.0160157
0.01618
0.0161137
0.0158295
0.0152605
0.0144215
0.013246
0.0117706
0.00994445
0.00785803
0.0054732
0.00292089
0.000160364
-0.00265537
-0.00556223
-0.00840874
-0.0112293
-0.0138935
-0.0164341
-0.0187556
-0.0208854
-0.0227509
-0.0243723
-0.0256773
-0.0267603
-0.0275057
0.0144121
0.0148989
0.0154162
0.0158943
0.016231
0.0164121
0.0163579
0.01608
0.0155095
0.0146601
0.0134641
0.011958
0.01009
0.00795274
0.0055069
0.00288782
5.35415e-05
-0.00283755
-0.0058223
-0.00874435
-0.0116387
-0.0143712
-0.0169764
-0.0193576
-0.0215438
-0.023461
-0.0251308
-0.0264794
-0.0276028
-0.0283818
0.0145846
0.0150667
0.0155921
0.0160869
0.0164427
0.0166418
0.0166009
0.0163299
0.0157583
0.0148988
0.0136822
0.0121455
0.0102353
0.00804673
0.00553926
0.00285274
-5.60601e-05
-0.00302321
-0.00608685
-0.00908508
-0.012054
-0.0148552
-0.0175258
-0.0199671
-0.0222104
-0.02418
-0.025899
-0.0272922
-0.0284574
-0.0292707
0.0147583
0.015234
0.0157644
0.016276
0.0166503
0.016868
0.0168411
0.0165778
0.0160056
0.0151359
0.0138985
0.0123305
0.0103772
0.00813593
0.00556514
0.00280922
-0.000176142
-0.0032214
-0.0063655
-0.0094416
-0.0124862
-0.0153574
-0.018094
-0.0205964
-0.0228976
-0.0249206
-0.0266903
-0.0281298
-0.0293384
-0.0301887
0.0149247
0.0153939
0.015932
0.016461
0.0168555
0.0170926
0.0170805
0.0168251
0.0162523
0.0153725
0.0141142
0.0125148
0.0105179
0.00822353
0.00558876
0.00276278
-0.0002999
-0.00342389
-0.00664942
-0.00980389
-0.0129249
-0.0158663
-0.0186696
-0.0212335
-0.023593
-0.02567
-0.0274912
-0.028978
-0.0302316
-0.0311195
0.0150938
0.0155552
0.0160978
0.0166439
0.0170575
0.0173143
0.017317
0.0170699
0.0164966
0.0156064
0.0143266
0.012695
0.0106535
0.00830463
0.00560416
0.00270612
-0.000435853
-0.00364052
-0.00694878
-0.0101832
-0.0133816
-0.0163943
-0.019265
-0.021891
-0.0243097
-0.0264418
-0.0283159
-0.0298517
-0.031152
-0.0320802
0.0152566
0.0157108
0.0162613
0.0168252
0.017259
0.0175356
0.0175534
0.0173142
0.0167401
0.0158393
0.0145377
0.0128736
0.0107871
0.00838316
0.00561627
0.00264551
-0.000576467
-0.0038623
-0.00725424
-0.0105689
-0.0138453
-0.0169295
-0.0198681
-0.0225566
-0.0250348
-0.0272224
-0.02915
-0.0307359
-0.0320842
-0.0330534
0.0154242
0.01587
0.0164253
0.0170063
0.0174588
0.0177547
0.017787
0.0175555
0.0169801
0.0160681
0.0147439
0.0130465
0.0109138
0.00845321
0.00561817
0.0025727
-0.000731168
-0.00409996
-0.00757654
-0.0109728
-0.0143282
-0.0174849
-0.0204918
-0.0232435
-0.0257818
-0.0280258
-0.0300085
-0.0316461
-0.0330443
-0.034057
0.0155866
0.0160256
0.0165894
0.0171883
0.0176602
0.017975
0.0180213
0.0177967
0.0172192
0.0162953
0.0149481
0.0132169
0.0110373
0.00851962
0.00561564
0.0024948
-0.000891596
-0.00434369
-0.00790578
-0.0113838
-0.0148185
-0.0180478
-0.0211238
-0.0239387
-0.0265372
-0.0288378
-0.0308762
-0.0325666
-0.0340159
-0.0350727
0.0157563
0.016187
0.0167563
0.0173723
0.0178613
0.0181938
0.0182529
0.0180343
0.0174537
0.0165171
0.0151457
0.0133794
0.0111518
0.00857532
0.0056007
0.00240253
-0.00106816
-0.00460514
-0.00825327
-0.0118143
-0.0153292
-0.018632
-0.0217772
-0.024656
-0.0273151
-0.0296733
-0.0317686
-0.0335134
-0.0350156
-0.036119
0.0159213
0.0163463
0.0169257
0.0175593
0.018066
0.0184151
0.0184858
0.0182718
0.0176871
0.0167367
0.0153405
0.0135385
0.0112621
0.00862625
0.00558012
0.00230396
-0.00125155
-0.00487355
-0.00860855
-0.0122525
-0.0158477
-0.0192241
-0.0224393
-0.0253819
-0.0281016
-0.0305174
-0.03267
-0.0344702
-0.0360261
-0.0371765
0.0160959
0.0165133
0.0170993
0.0177497
0.0182712
0.0186353
0.0187158
0.018505
0.0179146
0.0169493
0.0155266
0.0136876
0.011361
0.00866402
0.00554476
0.0021887
-0.00145324
-0.00516163
-0.00898346
-0.0127113
-0.0163877
-0.0198388
-0.023124
-0.0261307
-0.0289111
-0.0313853
-0.0335964
-0.0354532
-0.0370642
-0.0382635
0.0162652
0.016679
0.0172765
0.017944
0.018481
0.0188587
0.0189473
0.0187381
0.0181407
0.0171591
0.0157091
0.0138323
0.0114546
0.00869584
0.00550249
0.00206594
-0.00166278
-0.0054575
-0.00936705
-0.0131785
-0.0169359
-0.0204618
-0.0238179
-0.0268886
-0.02973
-0.0322623
-0.0345319
-0.0364457
-0.0381121
-0.0393602
0.0164462
0.0168532
0.0174584
0.0181422
0.0186913
0.0190807
0.0191754
0.0189659
0.0183593
0.01736
0.0158809
0.0139645
0.0115341
0.00871186
0.00544298
0.00192414
-0.00189285
-0.00577507
-0.0097716
-0.0136674
-0.0175068
-0.0211086
-0.0245354
-0.0276704
-0.0305722
-0.0331631
-0.0354919
-0.0374635
-0.0391858
-0.0404836
0.0166208
0.0170258
0.017644
0.0183444
0.0189065
0.0193059
0.0194048
0.0191932
0.0185762
0.0175577
0.0160483
0.0140914
0.0116073
0.00872083
0.00537539
0.00177376
-0.00213167
-0.00610119
-0.0101858
-0.0141655
-0.0180865
-0.0217644
-0.0252629
-0.028462
-0.0314249
-0.0340741
-0.0364612
-0.0384902
-0.0402677
-0.0416139
0.0168079
0.0172069
0.0178337
0.0185495
0.0191212
0.0195287
0.0196297
0.0194139
0.0187839
0.0177444
0.0162026
0.0142031
0.0116636
0.00871123
0.00528808
0.00160201
-0.00239321
-0.00645113
-0.0106224
-0.0146865
-0.0186898
-0.022445
-0.0260148
-0.0292779
-0.0323013
-0.0350084
-0.0374541
-0.03954
-0.0413723
-0.0427665
0.0169868
0.0173857
0.0180262
0.0187579
0.0193401
0.0197542
0.0198554
0.0196336
0.0189893
0.0179274
0.0163519
0.0143087
0.0117126
0.00869356
0.00519165
0.00142081
-0.00266432
-0.00681049
-0.0110699
-0.0152177
-0.0193031
-0.0231355
-0.0267777
-0.0301049
-0.0331892
-0.0359539
-0.0384562
-0.0405977
-0.0424827
-0.0439221
0.0171778
0.0175717
0.0182212
0.0189675
0.0195571
0.0199758
0.0200751
0.0198453
0.0191838
0.0180973
0.0164857
0.0143966
0.011742
0.00865453
0.005073
0.00121591
-0.00296036
-0.00719599
-0.0115417
-0.0157731
-0.0199405
-0.0238509
-0.0275647
-0.0309558
-0.0341008
-0.0369227
-0.0394805
-0.0416766
-0.0436128
-0.0450959
0.0173602
0.0177545
0.0184179
0.0191793
0.0197772
0.0201995
0.0202951
0.0200553
0.0193756
0.0182631
0.0166141
0.0144777
0.0117633
0.00860658
0.00494437
0.00100092
-0.00326679
-0.007592
-0.0120258
-0.0163406
-0.0205894
-0.0245778
-0.0283637
-0.0318188
-0.0350244
-0.0379027
-0.0405137
-0.0427624
-0.0447472
-0.0462707
0.0175544
0.0179432
0.0186152
0.0193904
0.0199937
0.0204176
0.0205076
0.0202558
0.0195546
0.0184139
0.0167248
0.0145387
0.0117622
0.0085344
0.00479079
0.000759664
-0.00360043
-0.00801659
-0.0125365
-0.0169337
-0.0212625
-0.0253284
-0.0291854
-0.0327043
-0.0359705
-0.0389052
-0.0415687
-0.043869
-0.0459012
-0.0474641
0.0177395
0.0181282
0.0188132
0.0196026
0.0202125
0.020637
0.0207199
0.0204543
0.0197307
0.0185603
0.0168301
0.0145927
0.0117526
0.00845252
0.00462642
0.000507764
-0.00394541
-0.00845289
-0.0130606
-0.0175404
-0.0219481
-0.0260913
-0.0300187
-0.0336017
-0.0369278
-0.0399194
-0.0426338
-0.0449846
-0.0470623
-0.0486625
0.0179346
0.018317
0.0190097
0.0198121
0.0204259
0.0208495
0.0209233
0.020642
0.0198924
0.0186901
0.0169155
0.0146242
0.0117177
0.00834317
0.00443361
0.000226345
-0.00432003
-0.00892015
-0.013614
-0.0181743
-0.0226574
-0.026876
-0.0308724
-0.03452
-0.0379076
-0.0409577
-0.0437243
-0.0461262
-0.0482493
-0.0498876
0.018121
0.0185018
0.0192064
0.0200222
0.0206411
0.021063
0.0211264
0.0208275
0.0200514
0.0188156
0.0169959
0.014649
0.0116741
0.00822344
0.00422953
-6.63473e-05
-0.00470663
-0.0094001
-0.0141811
-0.0188219
-0.0233789
-0.0276723
-0.0317366
-0.0354497
-0.0388986
-0.042009
-0.0448285
-0.0472818
-0.04945
-0.0511256
0.0183174
0.018689
0.0193998
0.0202281
0.0208497
0.0212686
0.0213199
0.0210015
0.0201947
0.018923
0.0170545
0.0146489
0.0116021
0.00807251
0.0039923
-0.000392601
-0.00512559
-0.00991297
-0.0147785
-0.0194964
-0.0241231
-0.0284882
-0.0326198
-0.0363996
-0.0399133
-0.0430882
-0.0459638
-0.0484713
-0.0506858
-0.0524013
0.018505
0.0188721
0.0195934
0.0204346
0.0210604
0.0214757
0.0215134
0.0211736
0.0203359
0.0190267
0.0171087
0.0146425
0.0115215
0.00791085
0.00374413
-0.000730161
-0.00555586
-0.0104378
-0.0153879
-0.0201843
-0.0248796
-0.0293167
-0.0335144
-0.0373631
-0.0409423
-0.0441846
-0.0471189
-0.049682
-0.0519438
-0.0536999
0.0187027
0.0190569
0.019783
0.020636
0.0212639
0.0216745
0.021697
0.0213337
0.0204604
0.019111
0.0171388