/*--------------------------------*- C++ -*----------------------------------*\
  =========                 |
  \\      /  F ield         | OpenFOAM: The Open Source CFD Toolbox
   \\    /   O peration     | Website:  https://openfoam.org
    \\  /    A nd           | Version:  6.0
     \\/     M anipulation  |
\*---------------------------------------------------------------------------*/
FoamFile
{
    version     2.0;
    format      ascii;
    class       volVectorField;
    location    "20";
    object      U;
}
// * * * * * * * * * * * * * * * * * * * * * * * * * * * * * * * * * * * * * //

dimensions      [0 1 -1 0 0 0 0];

internalField   nonuniform List<vector> 
47000
(
(0.999996 -2.21961e-05 1.63243e-20)
(0.999993 -4.21275e-05 2.98762e-20)
(0.999989 -5.42702e-05 -2.09198e-19)
(0.999981 -5.26934e-05 -3.7087e-19)
(0.999968 -3.63432e-05 2.78474e-19)
(0.999946 -1.28471e-05 -1.85233e-19)
(0.999911 5.0051e-06 8.21174e-19)
(0.999863 3.4997e-06 1.66872e-20)
(0.999805 -2.56253e-05 1.64389e-19)
(0.999741 -8.3698e-05 -1.53577e-18)
(0.999678 -0.0001654 1.10287e-18)
(0.99962 -0.000261723 4.11387e-19)
(0.999571 -0.000364102 6.56237e-19)
(0.999533 -0.00046534 8.36536e-19)
(0.999507 -0.000561537 -8.08892e-19)
(0.999493 -0.000650499 -4.10665e-19)
(0.99949 -0.000732238 -4.57044e-20)
(0.999496 -0.000806803 -4.95651e-19)
(0.99951 -0.000875915 -7.84608e-20)
(0.999531 -0.000941019 -1.28228e-19)
(0.999557 -0.00100529 -9.08776e-19)
(0.999587 -0.00107178 -3.46321e-19)
(0.99962 -0.00114462 -3.56388e-19)
(0.999658 -0.00122735 -4.55736e-20)
(0.999701 -0.00132731 2.17444e-19)
(0.999746 -0.00144635 -7.65994e-20)
(0.999831 -0.0016174 1.80116e-19)
(0.999692 -0.00185616 -1.05152e-19)
(1.00059 -0.00237969 2.53576e-20)
(0.994176 -0.00384482 -4.46185e-20)
(0.999991 -6.43137e-05 -3.488e-20)
(0.999991 -4.64764e-05 -1.03094e-19)
(0.999987 -7.80986e-06 -4.48675e-21)
(0.999975 5.03745e-05 4.70803e-19)
(0.999946 0.000115573 -2.30499e-19)
(0.999891 0.000160838 6.36026e-19)
(0.999808 0.000159801 -5.29648e-19)
(0.999702 9.41299e-05 1.32641e-19)
(0.999583 -3.66057e-05 -1.04806e-18)
(0.999462 -0.000217268 -5.10704e-20)
(0.999351 -0.000426439 -2.33754e-19)
(0.999255 -0.000641296 3.98246e-19)
(0.999181 -0.000848215 -9.30707e-19)
(0.999128 -0.00103768 5.57106e-20)
(0.999098 -0.00120808 3.22627e-19)
(0.999089 -0.00135843 -1.14043e-19)
(0.999099 -0.00149066 6.05288e-19)
(0.999126 -0.00160514 -3.43807e-19)
(0.999167 -0.00170537 -8.36708e-19)
(0.999219 -0.0017941 1.01129e-18)
(0.999279 -0.00187704 3.96611e-19)
(0.999346 -0.0019595 1.01086e-19)
(0.999419 -0.0020478 2.67418e-19)
(0.9995 -0.00214543 2.02e-19)
(0.999594 -0.00226023 -1.07528e-19)
(0.999685 -0.00238751 -9.05385e-21)
(0.999837 -0.00254081 -8.68067e-20)
(0.99975 -0.00282279 -4.945e-20)
(0.999978 -0.00314366 9.18403e-20)
(0.998673 -0.0030562 6.00418e-20)
(0.999999 -7.35875e-05 4.07774e-20)
(1.00001 6.56843e-07 9.14946e-21)
(1.00002 9.82367e-05 -1.18141e-20)
(1.00002 0.000205387 -8.06355e-19)
(1 0.000298007 7.62707e-20)
(0.999961 0.000340079 -5.30115e-19)
(0.999886 0.000305875 4.85561e-19)
(0.999788 0.000184974 -4.76724e-19)
(0.999679 -1.00237e-05 9.43434e-19)
(0.99957 -0.00024976 6.81868e-19)
(0.999473 -0.000504646 -3.0058e-19)
(0.999391 -0.000747759 -2.61351e-19)
(0.999329 -0.000967817 1.38228e-18)
(0.999287 -0.00115847 -4.27942e-19)
(0.999267 -0.00132142 2.95491e-19)
(0.999268 -0.00145777 1.78444e-19)
(0.999289 -0.001569 -6.13483e-19)
(0.999328 -0.00165497 8.33631e-19)
(0.999382 -0.00171742 4.68804e-19)
(0.999447 -0.00175902 -1.19225e-19)
(0.99952 -0.00178449 6.42034e-19)
(0.999599 -0.00179965 5.03812e-19)
(0.999683 -0.00181039 3.44073e-19)
(0.999772 -0.00182022 2.48172e-20)
(0.999872 -0.00183422 -6.30013e-20)
(0.99996 -0.00185077 1.05101e-20)
(1.00008 -0.00185808 -4.7437e-20)
(1.00003 -0.00197006 9.28698e-20)
(1.00005 -0.00199702 -5.9057e-20)
(0.998782 -0.000745178 -4.71689e-20)
(1.00002 -5.94322e-05 -5.7527e-20)
(1.00004 5.58324e-05 2.36933e-20)
(1.00006 0.000189533 2.09281e-19)
(1.00008 0.000317526 5.97014e-19)
(1.00009 0.000410163 5.27818e-20)
(1.00007 0.000430669 7.77429e-20)
(1.00002 0.000359994 -5.21852e-19)
(0.999943 0.000197424 -4.06361e-20)
(0.999858 -3.48934e-05 -4.89441e-19)
(0.99977 -0.000300337 -1.67534e-19)
(0.99969 -0.000567831 2.48927e-19)
(0.99962 -0.000811852 -1.85139e-19)
(0.999564 -0.00102549 -5.57074e-19)
(0.999524 -0.00120647 3.12241e-19)
(0.9995 -0.00135917 2.31869e-20)
(0.999495 -0.00148658 6.79952e-19)
(0.999508 -0.00158952 -1.77594e-19)
(0.999538 -0.00166737 -3.0492e-19)
(0.999584 -0.00171979 -3.67072e-19)
(0.999642 -0.00174874 -9.61406e-19)
(0.999709 -0.00175744 -2.40325e-19)
(0.999783 -0.00175147 -4.68837e-19)
(0.999863 -0.00173628 -3.12996e-19)
(0.999948 -0.00171656 -1.84731e-19)
(1.00004 -0.00169634 1.3506e-19)
(1.00012 -0.00167972 -1.45108e-20)
(1.00021 -0.00164859 3.97107e-20)
(1.00018 -0.00170285 -4.46648e-20)
(1.00013 -0.00164531 7.11704e-21)
(0.999333 -0.000338387 1.97365e-20)
(1.00005 -3.57964e-05 1.06261e-20)
(1.00008 9.51439e-05 -2.86744e-20)
(1.00011 0.000237302 -2.01507e-20)
(1.00015 0.000360398 -1.34752e-20)
(1.00017 0.000434766 -2.99151e-19)
(1.00017 0.000427283 7.6666e-20)
(1.00015 0.000326501 -1.43261e-19)
(1.0001 0.000139086 -2.55877e-19)
(1.00004 -0.00010803 4.85745e-19)
(0.999973 -0.000376302 -1.17342e-19)
(0.999909 -0.000636549 5.40211e-19)
(0.99985 -0.000866267 6.25499e-19)
(0.999802 -0.00106225 -5.42286e-19)
(0.999763 -0.00122529 -5.41295e-19)
(0.999738 -0.0013615 -7.32798e-19)
(0.999726 -0.00147552 -6.73215e-19)
(0.999729 -0.00156826 1.35309e-19)
(0.999747 -0.00163942 -1.19383e-19)
(0.999779 -0.00168753 8.27335e-19)
(0.999824 -0.00171381 2.53062e-19)
(0.999879 -0.00171969 -4.24197e-19)
(0.999944 -0.00170936 -9.86271e-20)
(1.00002 -0.00168623 6.48103e-20)
(1.0001 -0.00165388 3.5596e-20)
(1.00019 -0.00161317 -3.54346e-20)
(1.00028 -0.00156673 -5.4432e-21)
(1.00035 -0.00149101 -4.79862e-21)
(1.00034 -0.00146207 1.22517e-19)
(1.00029 -0.00132722 -8.41994e-21)
(0.999794 0.000262034 -4.31302e-21)
(1.00008 -1.27517e-05 -1.21591e-20)
(1.00011 0.000110391 4.43721e-20)
(1.00016 0.000238666 -3.43056e-19)
(1.00021 0.000339777 -1.29149e-19)
(1.00025 0.00038793 1.90745e-19)
(1.00028 0.000355292 5.12132e-19)
(1.00028 0.000236636 5.23312e-19)
(1.00026 4.27021e-05 4.09473e-20)
(1.00023 -0.000198833 1.0436e-22)
(1.00018 -0.000450882 4.99302e-19)
(1.00014 -0.000687361 -5.08407e-19)
(1.0001 -0.000888408 -7.0456e-19)
(1.00007 -0.00105268 2.3968e-19)
(1.00005 -0.00118217 7.76946e-19)
(1.00003 -0.00128355 1.48542e-18)
(1.00003 -0.00136278 8.08677e-21)
(1.00003 -0.00142178 1.78031e-19)
(1.00005 -0.00146189 6.06815e-19)
(1.00007 -0.00148233 -5.74235e-19)
(1.0001 -0.00148493 2.99624e-19)
(1.00015 -0.00147056 2.93855e-19)
(1.0002 -0.00144262 8.38461e-20)
(1.00026 -0.00140294 1.89829e-22)
(1.00033 -0.00135407 -2.74912e-20)
(1.00041 -0.00129476 5.17229e-20)
(1.00049 -0.00122577 -1.601e-19)
(1.00054 -0.00112233 -7.66655e-20)
(1.00055 -0.00104831 -9.69164e-20)
(1.00051 -0.000900414 -5.33535e-20)
(1.00005 0.000707431 3.23813e-20)
(1.0001 4.08183e-06 1.70577e-20)
(1.00014 0.000102057 7.93403e-20)
(1.0002 0.000201529 1.79328e-19)
(1.00026 0.000270845 1.59097e-19)
(1.00032 0.000290217 4.66319e-19)
(1.00037 0.00023688 -3.01902e-19)
(1.00039 0.000109429 -3.82167e-19)
(1.00039 -8.06474e-05 2.34246e-19)
(1.00038 -0.000308113 -4.82228e-19)
(1.00035 -0.000539473 -1.71637e-19)
(1.00033 -0.000752001 -9.19897e-19)
(1.00031 -0.000927406 6.10278e-19)
(1.00029 -0.00106414 3.00248e-19)
(1.00028 -0.00116337 -1.53797e-21)
(1.00029 -0.0012308 -7.71862e-19)
(1.00029 -0.001273 1.07816e-19)
(1.0003 -0.0012932 -1.80658e-19)
(1.00032 -0.00129532 -5.59411e-19)
(1.00034 -0.0012808 1.6576e-20)
(1.00037 -0.00125371 -2.28296e-19)
(1.0004 -0.00121603 -1.07982e-19)
(1.00044 -0.00117187 -2.32331e-20)
(1.00049 -0.00112289 3.74641e-21)
(1.00054 -0.00107158 7.91302e-20)
(1.0006 -0.00101613 1.03122e-19)
(1.00067 -0.000956036 4.26765e-19)
(1.00071 -0.000866546 -4.15543e-20)
(1.00072 -0.000802353 -2.07645e-19)
(1.00071 -0.000701761 -3.6269e-20)
(1.00026 0.000835659 -4.33581e-20)
(1.00011 1.27375e-05 6.7208e-20)
(1.00016 7.53313e-05 -1.58266e-19)
(1.00022 0.000138348 -2.21676e-19)
(1.00029 0.000171784 -1.27549e-19)
(1.00036 0.000162697 -1.31723e-19)
(1.00041 9.22398e-05 -1.61602e-19)
(1.00044 -3.96874e-05 2.78044e-19)
(1.00045 -0.000223617 -6.00628e-19)
(1.00045 -0.000439032 -2.47377e-19)
(1.00043 -0.000657338 4.80274e-19)
(1.00041 -0.000859106 7.26046e-19)
(1.00039 -0.00102663 -3.23781e-19)
(1.00038 -0.00115647 -8.09508e-19)
(1.00038 -0.00124714 -3.23657e-19)
(1.00039 -0.00130177 1.83746e-20)
(1.00041 -0.00132629 1.99797e-20)
(1.00043 -0.0013245 8.03941e-20)
(1.00045 -0.00130262 -4.2865e-20)
(1.00047 -0.00126449 2.25379e-19)
(1.0005 -0.00121677 1.44014e-19)
(1.00053 -0.00116307 5.26303e-20)
(1.00057 -0.0011086 -6.01245e-21)
(1.00061 -0.001055 8.79526e-20)
(1.00066 -0.00100435 8.63372e-20)
(1.00073 -0.000953673 -1.50591e-19)
(1.00079 -0.000899443 -3.35481e-19)
(1.00084 -0.000813905 3.88439e-19)
(1.00087 -0.000740781 3.38914e-19)
(1.0009 -0.000653398 -7.14854e-20)
(1.00052 0.000852306 2.98033e-20)
(1.00011 1.32145e-05 2.45637e-21)
(1.00017 3.65694e-05 6.12701e-20)
(1.00022 6.17688e-05 2.63553e-19)
(1.00029 6.02066e-05 -3.17415e-21)
(1.00037 2.60982e-05 -2.12219e-19)
(1.00042 -5.66769e-05 -2.60152e-20)
(1.00046 -0.000188799 -2.1937e-19)
(1.00047 -0.000364602 3.21501e-19)
(1.00047 -0.000569541 4.06185e-20)
(1.00044 -0.00078058 -4.96599e-19)
(1.00041 -0.000981519 -7.78102e-19)
(1.00039 -0.00115475 -3.97428e-19)
(1.00038 -0.00129411 6.83833e-19)
(1.00037 -0.00139442 5.00609e-19)
(1.00038 -0.00145511 -3.25015e-19)
(1.00041 -0.00148018 -6.25165e-19)
(1.00043 -0.00147284 8.09884e-20)
(1.00047 -0.00144049 3.37673e-19)
(1.0005 -0.00138851 -2.26608e-19)
(1.00054 -0.0013255 5.94203e-20)
(1.00058 -0.00125625 2.04031e-20)
(1.00063 -0.00118676 1.52537e-20)
(1.00069 -0.00111851 -6.71508e-20)
(1.00075 -0.00105289 -1.47717e-19)
(1.00083 -0.000985851 4.71648e-20)
(1.00091 -0.000911509 2.6447e-19)
(1.00097 -0.000800113 9.81339e-20)
(1.00105 -0.000689366 3.99111e-21)
(1.0011 -0.000587967 -1.24708e-20)
(1.00077 0.000835649 2.32864e-20)
(1.0001 6.80977e-06 -1.41613e-20)
(1.00016 -8.70075e-06 3.788e-20)
(1.00022 -1.83812e-05 -9.19381e-20)
(1.00029 -5.05392e-05 -4.0183e-20)
(1.00037 -0.000103616 -2.48512e-19)
(1.00043 -0.000191714 -6.74789e-20)
(1.00048 -0.00031705 3.11325e-20)
(1.0005 -0.000478397 -2.33846e-19)
(1.00049 -0.000667478 -1.22655e-19)
(1.00047 -0.000866927 8.11235e-20)
(1.00044 -0.00106383 1.93083e-19)
(1.00041 -0.00124088 3.99258e-19)
(1.00039 -0.00138944 2.12374e-20)
(1.00038 -0.00150075 -9.5328e-19)
(1.00039 -0.00157045 -1.42505e-19)
(1.00042 -0.00160009 1.23464e-19)
(1.00045 -0.00159156 2.7261e-19)
(1.0005 -0.00155247 -5.79796e-20)
(1.00054 -0.00148889 9.79811e-20)
(1.00059 -0.00141061 8.17709e-21)
(1.00065 -0.00132334 -7.78428e-21)
(1.00071 -0.00123386 5.65464e-20)
(1.00079 -0.0011441 1.52534e-19)
(1.00087 -0.0010558 -1.66305e-19)
(1.00096 -0.000965741 1.99769e-19)
(1.00106 -0.000868927 -5.50349e-19)
(1.00113 -0.000737967 1.15651e-19)
(1.00124 -0.000610058 -4.21272e-20)
(1.00134 -0.000523433 1.72714e-19)
(1.00094 0.00071665 -2.10081e-20)
(1.00007 -4.83717e-06 -6.80906e-20)
(1.00014 -5.67911e-05 -2.8329e-20)
(1.00021 -9.65052e-05 -1.41267e-20)
(1.00029 -0.000153665 1.86835e-19)
(1.00038 -0.000219273 4.15063e-19)
(1.00046 -0.000305601 4.57183e-19)
(1.00052 -0.0004165 3.72999e-19)
(1.00056 -0.000554886 5.49278e-21)
(1.00058 -0.000718257 4.11446e-19)
(1.00057 -0.000894621 -1.04104e-19)
(1.00055 -0.0010745 1.02879e-20)
(1.00052 -0.00124165 5.16112e-19)
(1.0005 -0.00138608 5.46633e-19)
(1.0005 -0.0014967 1.89259e-19)
(1.00051 -0.00156628 3.65187e-19)
(1.00053 -0.00159447 9.88941e-20)
(1.00057 -0.0015819 -1.74949e-19)
(1.00061 -0.00153603 1.53246e-19)
(1.00066 -0.00146322 -1.43507e-20)
(1.00072 -0.00137414 -1.72571e-20)
(1.00079 -0.00127532 -3.36153e-20)
(1.00086 -0.00117467 -6.86149e-20)
(1.00094 -0.00107531 1.56177e-20)
(1.00103 -0.000980438 2.87361e-19)
(1.00113 -0.000889061 -1.13138e-19)
(1.00123 -0.000798888 4.93944e-19)
(1.00131 -0.000686587 -2.75091e-19)
(1.00144 -0.000588139 1.6696e-19)
(1.00157 -0.000554777 6.16152e-20)
(1.00108 0.000458538 -2.90012e-21)
(1.00004 -1.98021e-05 4.97903e-20)
(1.00012 -0.000105372 -6.96968e-20)
(1.00019 -0.000170418 1.57582e-19)
(1.00028 -0.000248036 -1.22233e-19)
(1.00039 -0.000321969 -4.08703e-19)
(1.0005 -0.00040252 -1.77386e-19)
(1.0006 -0.000494726 -7.55137e-19)
(1.00067 -0.000604732 3.66512e-19)
(1.00071 -0.000734797 -5.50877e-20)
(1.00073 -0.000877668 3.87487e-20)
(1.00073 -0.0010274 1.0135e-19)
(1.00072 -0.00116974 -6.72316e-19)
(1.00071 -0.0012949 -4.90313e-19)
(1.00071 -0.00139119 4.78968e-19)
(1.00072 -0.00145016 7.55219e-20)
(1.00074 -0.00147063 1.59162e-19)
(1.00077 -0.0014526 -1.78228e-19)
(1.00081 -0.00140353 -8.53481e-20)
(1.00086 -0.00132993 -4.87097e-20)
(1.00091 -0.00124306 -1.04466e-20)
(1.00097 -0.00115007 1.32971e-19)
(1.00104 -0.00105982 1.16903e-19)
(1.00111 -0.000976476 -1.7837e-19)
(1.0012 -0.000904465 -9.29558e-20)
(1.00129 -0.000844276 -1.73905e-19)
(1.00139 -0.000794916 -9.21957e-20)
(1.00147 -0.000734927 -8.68359e-20)
(1.0016 -0.000695051 -3.87867e-19)
(1.00179 -0.000721204 1.18514e-19)
(1.00124 0.000101836 5.25646e-20)
(1.00001 -3.63177e-05 -1.47949e-20)
(1.00009 -0.000152944 2.26293e-19)
(1.00017 -0.000239864 1.53755e-19)
(1.00027 -0.000335584 -1.30088e-20)
(1.0004 -0.000417214 -3.94823e-20)
(1.00054 -0.000492856 2.93231e-19)
(1.00066 -0.000568037 3.05063e-19)
(1.00077 -0.000650941 -2.61323e-19)
(1.00085 -0.000747251 -2.67451e-19)
(1.0009 -0.000853569 -9.01804e-20)
(1.00093 -0.000967328 -3.3704e-20)
(1.00095 -0.001077 3.79653e-19)
(1.00095 -0.0011744 -5.92672e-19)
(1.00096 -0.00124893 -9.35128e-20)
(1.00096 -0.00129252 -5.34e-20)
(1.00098 -0.00130435 7.4459e-20)
(1.001 -0.00128449 1.3521e-19)
(1.00102 -0.00124058 7.65356e-20)
(1.00105 -0.00117906 1.45104e-20)
(1.00109 -0.00111126 -4.05051e-21)
(1.00114 -0.00104424 -1.64958e-19)
(1.00119 -0.000986873 -1.73563e-19)
(1.00126 -0.000943214 -4.69673e-21)
(1.00133 -0.000917341 -9.15814e-20)
(1.00142 -0.000909031 -3.38386e-19)
(1.00152 -0.00091568 -2.84752e-19)
(1.0016 -0.000914595 -5.40811e-19)
(1.00175 -0.000929307 3.68771e-20)
(1.00199 -0.00098946 -1.93157e-19)
(1.00145 -0.00027733 -4.50226e-20)
(0.999973 -5.25536e-05 -2.58128e-20)
(1.00005 -0.000198041 -1.28947e-19)
(1.00013 -0.0003048 -2.1715e-19)
(1.00025 -0.000418369 2.47899e-20)
(1.00039 -0.000510311 3.08766e-19)
(1.00054 -0.000586358 1.53067e-19)
(1.0007 -0.000651797 -3.23186e-20)
(1.00083 -0.000715608 1.41563e-19)
(1.00094 -0.000785489 2.30568e-19)
(1.00103 -0.00086082 1.09705e-19)
(1.00108 -0.000941967 1.10668e-19)
(1.00112 -0.00102043 6.34238e-21)
(1.00114 -0.00109054 1.75222e-19)
(1.00115 -0.00114399 7.55965e-20)
(1.00115 -0.00117423 1.32038e-19)
(1.00116 -0.00118166 -6.74733e-20)
(1.00116 -0.00116687 -5.21742e-21)
(1.00117 -0.00113763 -2.81991e-20)
(1.00119 -0.00109992 1.4067e-20)
(1.00121 -0.00106437 4.14157e-21)
(1.00125 -0.00103694 -4.68239e-20)
(1.00129 -0.0010252 1.62047e-19)
(1.00135 -0.00103155 7.45287e-20)
(1.00143 -0.00105795 1.23995e-19)
(1.00152 -0.00110144 3.11698e-19)
(1.00163 -0.00115575 1.39516e-19)
(1.00172 -0.00119557 8.24513e-19)
(1.0019 -0.00123901 3.5546e-19)
(1.00219 -0.00129676 4.82104e-20)
(1.00174 -0.000616867 -6.35478e-20)
(0.999934 -6.71581e-05 -2.11023e-20)
(1 -0.000239305 -1.17343e-19)
(1.00008 -0.000364816 -1.7845e-20)
(1.0002 -0.000497174 -2.7698e-19)
(1.00034 -0.000603823 3.33793e-20)
(1.0005 -0.000688051 8.6286e-21)
(1.00067 -0.000754267 6.97105e-20)
(1.00082 -0.000811162 1.60246e-19)
(1.00095 -0.000867089 -2.3315e-19)
(1.00105 -0.000923095 1.09214e-19)
(1.00113 -0.000981784 2.03173e-19)
(1.00118 -0.00103755 -8.99974e-20)
(1.00121 -0.00108755 3.42444e-19)
(1.00123 -0.00112632 -1.63069e-20)
(1.00123 -0.00114941 -3.64681e-19)
(1.00123 -0.00115882 -1.69937e-19)
(1.00123 -0.00115577 -3.49494e-20)
(1.00123 -0.00114793 -2.02075e-21)
(1.00124 -0.00114028 -2.03486e-20)
(1.00126 -0.00114201 7.47969e-22)
(1.00129 -0.00115702 1.7417e-19)
(1.00134 -0.00119053 -2.05425e-19)
(1.0014 -0.00124214 -2.50135e-19)
(1.00149 -0.00131062 -1.31395e-19)
(1.00159 -0.0013895 1.69607e-19)
(1.00173 -0.00146859 2.08285e-20)
(1.00186 -0.00152063 -6.48238e-19)
(1.00207 -0.00156221 -4.74752e-19)
(1.0024 -0.00158769 4.43198e-20)
(1.00207 -0.000883306 6.51277e-20)
(0.999893 -7.90474e-05 2.7046e-20)
(0.999948 -0.000275337 2.10499e-19)
(1.00002 -0.000418844 -1.33336e-19)
(1.00013 -0.000571059 2.37228e-19)
(1.00026 -0.000696847 -7.71267e-20)
(1.00041 -0.000797092 -6.46821e-19)
(1.00057 -0.000874847 1.00802e-19)
(1.00072 -0.000937653 -5.58867e-19)
(1.00086 -0.000993401 -1.99585e-19)
(1.00097 -0.00104378 -2.63158e-19)
(1.00106 -0.00109285 -5.2231e-19)
(1.00112 -0.00113741 -8.56376e-20)
(1.00116 -0.00117731 1.20863e-19)
(1.00119 -0.00120992 -9.32078e-20)
(1.0012 -0.00123296 5.50571e-19)
(1.0012 -0.00124999 -2.77325e-20)
(1.0012 -0.0012627 5.54109e-20)
(1.0012 -0.00127835 1.02215e-19)
(1.00122 -0.00130052 7.92164e-21)
(1.00124 -0.0013364 -9.87018e-21)
(1.00128 -0.00138734 -5.48545e-20)
(1.00134 -0.00145566 -3.00155e-20)
(1.00143 -0.00153784 2.41412e-19)
(1.00154 -0.00162946 -4.71987e-20)
(1.00168 -0.00172096 -5.14303e-20)
(1.00185 -0.0017994 3.00211e-19)
(1.00202 -0.00183728 1.61571e-19)
(1.00227 -0.00185355 9.39949e-20)
(1.00264 -0.00183055 -9.81632e-20)
(1.00245 -0.00107272 7.22737e-21)
(0.999849 -8.78794e-05 -3.9285e-20)
(0.999885 -0.000305239 -7.26294e-20)
(0.999945 -0.000465766 3.42148e-19)
(1.00003 -0.000638178 -3.92653e-19)
(1.00014 -0.000786221 -1.43616e-19)
(1.00027 -0.00090849 3.85361e-19)
(1.00042 -0.00100638 -4.30583e-19)
(1.00056 -0.00108574 5.2038e-19)
(1.00069 -0.00115317 6.47177e-19)
(1.0008 -0.00121021 3.09475e-20)
(1.00089 -0.00126158 4.25849e-19)
(1.00096 -0.00130594 -3.18052e-19)
(1.00101 -0.00134533 -3.74124e-19)
(1.00105 -0.00137962 -1.78255e-19)
(1.00107 -0.0014084 -8.58424e-20)
(1.00108 -0.00143651 2.99868e-19)
(1.00109 -0.00146584 -8.22518e-20)
(1.00111 -0.00150299 -1.57854e-19)
(1.00114 -0.00154988 4.82663e-20)
(1.00119 -0.00161157 -5.35867e-20)
(1.00125 -0.00168675 5.61998e-22)
(1.00135 -0.00177502 1.7291e-19)
(1.00147 -0.00187008 -2.09363e-19)
(1.00162 -0.00196503 1.64136e-19)
(1.0018 -0.00204843 6.57108e-20)
(1.00201 -0.00210618 -1.34093e-19)
(1.00222 -0.00211224 7.15963e-20)
(1.00251 -0.00209046 3.12337e-19)
(1.0029 -0.00201544 -4.22923e-20)
(1.00284 -0.00119579 -1.42625e-20)
(0.999801 -9.35477e-05 3.01238e-20)
(0.999817 -0.000328481 -1.00668e-19)
(0.999859 -0.000504611 8.61224e-21)
(0.999921 -0.000696468 6.61818e-19)
(1.00001 -0.000867893 4.30688e-19)
(1.00011 -0.00101539 -1.06897e-20)
(1.00023 -0.00113858 1.10395e-18)
(1.00035 -0.00124134 -3.60995e-19)
(1.00047 -0.00132855 -6.66478e-19)
(1.00057 -0.00140105 -2.39312e-19)
(1.00067 -0.00146364 -3.36585e-19)
(1.00074 -0.00151622 -4.16597e-19)
(1.0008 -0.00156248 3.85278e-19)
(1.00084 -0.00160424 5.82294e-19)
(1.00088 -0.0016425 -1.11541e-19)
(1.00091 -0.00168299 7.56754e-20)
(1.00095 -0.00172754 -9.39045e-20)
(1.00099 -0.00178191 1.96253e-19)
(1.00105 -0.00184636 -9.4859e-20)
(1.00113 -0.00192393 4.18732e-20)
(1.00124 -0.00201104 -1.11071e-20)
(1.00137 -0.00210503 -1.36362e-20)
(1.00154 -0.00219764 7.21098e-20)
(1.00173 -0.00228052 -1.14282e-19)
(1.00195 -0.00234163 -1.14995e-19)
(1.00221 -0.00236716 -1.40524e-19)
(1.00246 -0.00233355 9.06148e-20)
(1.00278 -0.00227062 -1.9009e-19)
(1.00319 -0.0021485 -8.67575e-20)
(1.00323 -0.00127265 -2.0424e-20)
(0.999748 -9.65406e-05 -2.90347e-20)
(0.999745 -0.000345323 -8.09187e-20)
(0.999769 -0.000535134 -1.08173e-19)
(0.999807 -0.000744575 -3.68552e-19)
(0.999864 -0.000938489 -1.89342e-21)
(0.999939 -0.00111152 4.9262e-19)
(1.00003 -0.00126157 -8.29235e-19)
(1.00013 -0.00139055 2.02655e-19)
(1.00023 -0.00150149 4.70907e-19)
(1.00033 -0.00159425 4.3812e-19)
(1.00042 -0.00167336 3.42115e-19)
(1.00049 -0.00173945 -1.03553e-19)
(1.00056 -0.00179728 1.55295e-19)
(1.00063 -0.00185009 -6.80911e-19)
(1.00068 -0.00189979 6.95615e-19)
(1.00074 -0.00195259 -2.32726e-19)
(1.00081 -0.00201002 -1.99589e-20)
(1.00089 -0.00207696 -1.03712e-19)
(1.00099 -0.00215215 1.2556e-19)
(1.00111 -0.00223693 -1.1143e-19)
(1.00126 -0.00232596 -3.82362e-20)
(1.00144 -0.00241507 -2.61475e-20)
(1.00165 -0.00249483 1.64475e-19)
(1.00189 -0.00255645 1.82216e-19)
(1.00215 -0.00258827 -1.09188e-19)
(1.00245 -0.00257768 2.69519e-19)
(1.00274 -0.00250391 1.3891e-19)
(1.00308 -0.00240267 -3.8447e-20)
(1.00349 -0.00224205 -7.63877e-22)
(1.00361 -0.00132019 9.85776e-20)
(0.999689 -9.73862e-05 8.56967e-21)
(0.999671 -0.000356418 1.60861e-19)
(0.999678 -0.000557682 -3.25518e-19)
(0.999694 -0.000782088 3.65044e-19)
(0.999726 -0.000996032 -9.32568e-20)
(0.999775 -0.00119258 -9.05528e-19)
(0.999839 -0.00136812 3.0668e-19)
(0.999917 -0.00152278 -2.08928e-19)
(1 -0.00165788 -2.53387e-19)
(1.00009 -0.0017723 -1.95351e-19)
(1.00018 -0.00187008 2.28362e-19)
(1.00027 -0.00195225 8.19049e-19)
(1.00035 -0.00202418 -4.01447e-19)
(1.00043 -0.00208998 4.3969e-19)
(1.00051 -0.00215202 -7.22046e-19)
(1.0006 -0.00221661 -2.92359e-19)
(1.00071 -0.00228485 3.40675e-19)
(1.00083 -0.0023607 2.35033e-19)
(1.00097 -0.00244163 -8.76231e-20)
(1.00113 -0.00252767 2.71339e-19)
(1.00133 -0.00261225 1.05173e-19)
(1.00156 -0.00269035 3.31463e-20)
(1.00181 -0.00275211 -1.38207e-19)
(1.00209 -0.00278896 -8.18236e-20)
(1.0024 -0.00279027 2.6228e-19)
(1.00273 -0.00274499 -2.26476e-19)
(1.00304 -0.00263497 -5.24962e-19)
(1.00341 -0.00250106 -1.28276e-19)
(1.00381 -0.0023108 7.61486e-20)
(1.00397 -0.00135467 -7.1697e-20)
(0.999625 -9.6939e-05 8.07283e-20)
(0.999596 -0.000362994 2.32368e-20)
(0.99959 -0.000573375 2.43556e-19)
(0.999589 -0.000809763 -3.37116e-19)
(0.999601 -0.00104036 2.33539e-19)
(0.999629 -0.00125696 -1.38216e-19)
(0.999674 -0.00145469 5.63881e-19)
(0.999735 -0.00163227 -2.05192e-19)
(0.99981 -0.00178961 -2.78612e-19)
(0.999893 -0.00192476 -3.04066e-19)
(0.999984 -0.00204121 -9.22721e-19)
(1.00008 -0.00214018 3.05859e-19)
(1.00018 -0.00222728 1.69515e-19)
(1.00028 -0.00230708 2.49566e-19)
(1.00039 -0.00238196 -1.1396e-19)
(1.00052 -0.00245807 2.55059e-19)
(1.00066 -0.00253591 -5.14555e-19)
(1.00082 -0.00261858 -4.41709e-19)
(1.001 -0.00270249 6.13152e-21)
(1.00121 -0.00278671 -1.93632e-19)
(1.00146 -0.00286393 -5.27965e-21)
(1.00173 -0.00292876 -2.00478e-20)
(1.00202 -0.00297141 7.50438e-20)
(1.00234 -0.00298394 2.2383e-21)
(1.00268 -0.00295693 -1.13332e-19)
(1.00303 -0.00288096 8.45383e-20)
(1.00337 -0.00273999 6.05507e-19)
(1.00374 -0.00257906 3.35959e-19)
(1.00414 -0.00236617 -1.17997e-19)
(1.00431 -0.00138404 -9.14877e-20)
(0.999556 -9.58132e-05 -5.83846e-20)
(0.999521 -0.000366314 6.7354e-20)
(0.999507 -0.000583698 -9.78676e-20)
(0.999495 -0.000829217 2.34503e-19)
(0.999493 -0.00107289 -2.80262e-19)
(0.999508 -0.00130555 -1.99723e-19)
(0.999541 -0.00152141 -7.46748e-19)
(0.999593 -0.00171816 8.62947e-19)
(0.999662 -0.00189469 1.17794e-18)
(0.999744 -0.0020485 2.6373e-19)
(0.99984 -0.00218257 1.57602e-19)
(0.999944 -0.00229819 -1.07849e-19)
(1.00006 -0.0024009 1.55287e-19)
(1.00019 -0.00249538 -3.33337e-20)
(1.00033 -0.00258369 5.80877e-19)
(1.00049 -0.00267158 1.95838e-19)
(1.00066 -0.00275883 2.04276e-19)
(1.00086 -0.00284774 2.99053e-20)
(1.00109 -0.00293383 2.64061e-19)
(1.00135 -0.00301547 9.72121e-20)
(1.00163 -0.00308497 -4.77214e-20)
(1.00194 -0.00313689 6.31377e-20)
(1.00227 -0.00316177 -8.70233e-20)
(1.00262 -0.00315247 -1.24083e-20)
(1.00298 -0.00310079 -1.95724e-20)
(1.00335 -0.00299869 4.22781e-20)
(1.0037 -0.00283178 -3.66126e-19)
(1.00408 -0.00264837 -1.82085e-19)
(1.00446 -0.00241737 5.44085e-19)
(1.00463 -0.00141527 7.93724e-21)
(0.999484 -9.46983e-05 2.73909e-20)
(0.999447 -0.000367825 2.75495e-20)
(0.999429 -0.000590492 2.21308e-19)
(0.999412 -0.000842728 -1.10086e-19)
(0.999405 -0.00109625 -4.58227e-19)
(0.999414 -0.0013412 3.82823e-20)
(0.999442 -0.00157124 -8.30294e-19)
(0.99949 -0.00178342 2.20812e-19)
(0.999559 -0.00197604 -9.04338e-19)
(0.999645 -0.00214625 -2.90186e-19)
(0.999749 -0.00229667 -2.1229e-19)
(0.999867 -0.00242855 2.79278e-19)
(1 -0.00254717 -1.73545e-19)
(1.00015 -0.00265701 3.14478e-20)
(1.00032 -0.00275957 -1.58844e-19)
(1.00051 -0.00285998 -5.13959e-19)
(1.00073 -0.00295722 -3.76146e-20)
(1.00096 -0.00305282 2.27622e-19)
(1.00123 -0.00314154 -1.80982e-19)
(1.00152 -0.00322125 6.30672e-20)
(1.00184 -0.00328403 -2.07641e-20)
(1.00218 -0.00332464 -3.7228e-20)
(1.00254 -0.00333404 2.07668e-19)
(1.00292 -0.00330586 -8.81603e-20)
(1.0033 -0.00323299 1.24929e-19)
(1.00368 -0.00310853 5.18979e-21)
(1.00404 -0.00291924 2.51884e-19)
(1.00442 -0.00271594 2.79511e-19)
(1.00478 -0.00246876 -2.72018e-19)
(1.00494 -0.00144824 -3.67544e-20)
(0.99941 -9.39418e-05 -7.34308e-20)
(0.999374 -0.000368687 -2.77976e-19)
(0.999356 -0.000595554 -2.36063e-19)
(0.999339 -0.000852836 1.11289e-19)
(0.999332 -0.00111376 1.31255e-19)
(0.999343 -0.00136805 7.6822e-19)
(0.999373 -0.0016091 1.28705e-18)
(0.999424 -0.00183371 -1.49146e-18)
(0.999498 -0.00203993 2.21321e-19)
(0.999592 -0.00222481 -1.73705e-19)
(0.999708 -0.00239067 1.343e-18)
(0.999841 -0.00253868 -4.73555e-19)
(0.999996 -0.00267366 -1.26631e-19)
(1.00017 -0.00279971 6.79022e-20)
(1.00037 -0.00291753 -7.7572e-19)
(1.00059 -0.00303147 2.09525e-19)
(1.00083 -0.00313967 1.20926e-19)
(1.00111 -0.00324289 5.0504e-20)
(1.00141 -0.0033352 4.97456e-20)
(1.00173 -0.0034141 -5.03826e-20)
(1.00208 -0.0034716 2.86775e-20)
(1.00245 -0.00350266 9.83748e-20)
(1.00284 -0.00349873 -1.98459e-19)
(1.00323 -0.00345414 -2.70653e-19)
(1.00362 -0.00336268 -4.52013e-19)
(1.00401 -0.00321833 3.98569e-20)
(1.00437 -0.00300869 -8.3954e-20)
(1.00475 -0.00278651 -1.5988e-20)
(1.00509 -0.00252313 1.19068e-19)
(1.00522 -0.00148425 8.21673e-20)
(0.999335 -9.3903e-05 6.28124e-20)
(0.999302 -0.000370001 1.73889e-19)
(0.999287 -0.000600639 -2.65569e-20)
(0.999274 -0.000862093 7.43766e-20)
(0.999274 -0.00112893 -2.74849e-20)
(0.99929 -0.00139065 -5.05491e-19)
(0.999327 -0.00164068 -2.18894e-20)
(0.999387 -0.00187582 5.74848e-19)
(0.999471 -0.00209412 7.71026e-19)
(0.999576 -0.00229273 1.3582e-18)
(0.999706 -0.0024737 4.33328e-19)
(0.999856 -0.00263809 4.16642e-19)
(1.00003 -0.0027901 -3.5251e-19)
(1.00023 -0.00293326 -5.18057e-19)
(1.00045 -0.00306732 1.14786e-18)
(1.0007 -0.00319575 4.68353e-19)
(1.00098 -0.00331581 -6.85756e-19)
(1.00128 -0.00342749 -2.7899e-19)
(1.00161 -0.00352426 -3.10393e-19)
(1.00197 -0.00360329 -6.07908e-20)
(1.00234 -0.0036566 -1.13708e-20)
(1.00273 -0.00367938 -1.70452e-19)
(1.00314 -0.00366353 4.82129e-19)
(1.00354 -0.00360396 1.00804e-19)
(1.00395 -0.00349524 4.22006e-19)
(1.00434 -0.00333203 -1.57387e-19)
(1.00469 -0.00310252 3.92961e-19)
(1.00506 -0.00286097 4.0952e-19)
(1.00538 -0.00257988 -1.43687e-19)
(1.00548 -0.00151967 5.73271e-20)
(0.99926 -9.462e-05 1.0664e-20)
(0.999229 -0.000372454 1.28426e-19)
(0.99922 -0.000607204 1.67373e-19)
(0.999215 -0.000872833 -2.97535e-19)
(0.999224 -0.00114515 1.85408e-19)
(0.999251 -0.00141357 2.83144e-19)
(0.999299 -0.00167176 -4.32067e-19)
(0.99937 -0.00191671 4.30156e-19)
(0.999467 -0.00214667 6.64319e-20)
(0.999586 -0.00235894 -1.49236e-18)
(0.999731 -0.00255534 -5.71479e-19)
(0.999899 -0.00273671 -6.2948e-19)
(1.00009 -0.00290654 8.73451e-20)
(1.00031 -0.00306767 3.97003e-19)
(1.00056 -0.00321877 -6.27427e-19)
(1.00084 -0.00336237 -2.35302e-19)
(1.00114 -0.00349482 5.97385e-19)
(1.00147 -0.00361538 4.21514e-19)
(1.00183 -0.00371698 6.90645e-20)
(1.00221 -0.00379651 4.82172e-20)
(1.00261 -0.00384604 6.03996e-20)
(1.00302 -0.003861 -1.17565e-20)
(1.00344 -0.00383368 -7.59487e-19)
(1.00386 -0.00375955 3.75109e-19)
(1.00426 -0.0036338 1.21312e-19)
(1.00466 -0.00345165 2.21405e-19)
(1.00501 -0.00320174 9.15251e-20)
(1.00537 -0.00293956 -1.03824e-18)
(1.00566 -0.00263857 -2.00832e-19)
(1.00573 -0.00155425 -1.07726e-19)
(0.999185 -9.61711e-05 -1.85386e-20)
(0.999156 -0.000376645 -1.9075e-19)
(0.999154 -0.000616486 1.00662e-21)
(0.999159 -0.000887025 -1.08088e-19)
(0.999179 -0.00116532 -1.2429e-19)
(0.999219 -0.00144077 -3.67372e-19)
(0.99928 -0.00170741 -6.14706e-20)
(0.999366 -0.00196255 -6.4275e-19)
(0.999477 -0.00220466 -1.11752e-18)
(0.999612 -0.00243125 8.23076e-19)
(0.999774 -0.00264385 -1.56363e-18)
(0.999961 -0.00284302 1.91212e-19)
(1.00018 -0.00303145 1.4472e-19)
(1.00042 -0.00321115 3.09177e-19)
(1.00069 -0.00337968 -2.13539e-19)
(1.00099 -0.00353862 -7.26255e-20)
(1.00132 -0.00368341 5.98524e-20)
(1.00168 -0.00381265 -4.08354e-19)
(1.00206 -0.00391876 1.47219e-19)
(1.00246 -0.00399842 -3.4921e-20)
(1.00288 -0.00404377 -2.84986e-20)
(1.00331 -0.00405051 -2.66353e-19)
(1.00374 -0.0040113 5.5706e-19)
(1.00416 -0.00392207 -1.38873e-20)
(1.00457 -0.00377859 -1.44146e-19)
(1.00497 -0.00357656 2.28617e-19)
(1.00531 -0.00330495 -1.01782e-18)
(1.00566 -0.00302027 -2.84329e-20)
(1.00593 -0.00269683 1.88302e-19)
(1.00596 -0.00158401 5.97217e-20)
(0.99911 -9.84146e-05 -4.61468e-20)
(0.999082 -0.000382812 2.69368e-21)
(0.999087 -0.000629364 1.11466e-19)
(0.999102 -0.000906241 -6.64225e-20)
(0.999135 -0.00119183 -2.46574e-20)
(0.999189 -0.00147553 -2.41768e-19)
(0.999265 -0.00175183 3.19574e-19)
(0.999366 -0.00201838 3.5357e-19)
(0.999493 -0.00227387 -4.04163e-19)
(0.999645 -0.00251596 2.93111e-19)
(0.999825 -0.00274582 2.12391e-18)
(1.00003 -0.00296368 4.56647e-19)
(1.00027 -0.00317128 -9.44252e-19)
(1.00053 -0.00336984 -2.49524e-19)
(1.00083 -0.00355575 4.31519e-19)
(1.00115 -0.00372964 1.20345e-19)
(1.00151 -0.00388611 2.64802e-19)
(1.00188 -0.00402317 2.38896e-19)
(1.00229 -0.0041328 7.28963e-20)
(1.00271 -0.00421152 -8.98158e-21)
(1.00314 -0.00425162 1.75244e-19)
(1.00358 -0.00424903 3.61578e-19)
(1.00402 -0.00419682 -3.11369e-20)
(1.00445 -0.00409137 -3.47617e-19)
(1.00487 -0.00392895 -4.87646e-19)
(1.00526 -0.0037057 -2.97096e-22)
(1.00559 -0.0034109 -7.38985e-20)
(1.00593 -0.00310187 -1.20516e-19)
(1.00618 -0.00275356 4.63073e-20)
(1.00618 -0.00160917 -3.34128e-20)
(0.999034 -0.000101312 6.99738e-20)
(0.999005 -0.000391188 -7.78289e-20)
(0.999018 -0.000646494 -2.79652e-22)