/*--------------------------------*- C++ -*----------------------------------*\
  =========                 |
  \\      /  F ield         | OpenFOAM: The Open Source CFD Toolbox
   \\    /   O peration     | Website:  https://openfoam.org
    \\  /    A nd           | Version:  6.0
     \\/     M anipulation  |
\*---------------------------------------------------------------------------*/
FoamFile
{
    version     2.0;
    format      ascii;
    class       surfaceScalarField;
    location    "6";
    object      phi;
}
// * * * * * * * * * * * * * * * * * * * * * * * * * * * * * * * * * * * * * //

dimensions      [0 3 -1 0 0 0 0];

internalField   nonuniform List<scalar> 
123526
(
-0.000105804
2.19845e-05
0.000106187
-0.00010541
2.37852e-05
-0.000104951
2.57344e-05
-0.000104495
2.78451e-05
-0.000103969
3.01304e-05
-0.000103444
3.2605e-05
-0.000102848
3.52845e-05
-0.000102246
3.8186e-05
-0.000101568
4.13268e-05
-0.000100875
4.47273e-05
-0.000100101
4.84099e-05
-9.93037e-05
5.23974e-05
-9.84153e-05
5.67152e-05
-9.74889e-05
6.13885e-05
-9.64577e-05
6.64489e-05
-9.53739e-05
7.19333e-05
-9.41768e-05
7.78745e-05
-9.28982e-05
8.4304e-05
-9.1487e-05
9.12736e-05
-8.99752e-05
9.88311e-05
-8.83076e-05
0.000107014
-8.65024e-05
0.000115885
-8.45255e-05
0.000125512
-8.237e-05
0.000135931
-8.00088e-05
0.000147247
-7.74404e-05
0.000159511
-7.46198e-05
0.00017281
-7.15538e-05
0.000187243
-6.81855e-05
0.000202885
-6.4521e-05
0.000219863
-6.04967e-05
0.000238262
-5.60994e-05
0.000258222
-5.12658e-05
0.00027985
-4.59651e-05
0.000303297
-4.01714e-05
0.000328707
-3.38245e-05
0.000356203
-2.68826e-05
0.000385962
-1.92801e-05
0.00041811
-1.09544e-05
0.000452796
-1.86289e-06
0.000490171
8.03402e-06
0.000530353
1.87631e-05
0.000573434
3.0333e-05
0.00061948
4.27363e-05
0.000668499
5.59501e-05
0.000720439
6.99427e-05
0.000775164
8.46752e-05
0.00083241
0.000100155
0.000891715
0.00011641
0.000952301
0.000133586
0.00101291
0.000151771
0.00107161
0.000171207
0.00112557
0.000191786
0.00117111
0.000213461
0.0012034
0.000235998
0.00121674
0.000258753
0.00120495
0.000281282
0.00116056
0.000302541
0.00107492
0.000321657
0.000928732
0.000693604
0.000318049
-0.000106407
2.16033e-05
0.000106795
-0.000106003
2.33646e-05
-0.00010553
2.52712e-05
-0.000105037
2.7336e-05
-0.000104467
2.95727e-05
-0.000103875
3.19958e-05
-0.0001032
3.46215e-05
-0.000102496
3.74669e-05
-0.000101704
4.05491e-05
-0.000100878
4.38885e-05
-9.99618e-05
4.75086e-05
-9.90064e-05
5.14314e-05
-9.79566e-05
5.56822e-05
-9.68598e-05
6.02832e-05
-9.56612e-05
6.52666e-05
-9.44082e-05
7.06732e-05
-9.30506e-05
7.65312e-05
-9.16169e-05
8.28645e-05
-9.0064e-05
8.97325e-05
-8.84208e-05
9.71839e-05
-8.6639e-05
0.000105242
-8.47328e-05
0.000113976
-8.26745e-05
0.000123461
-8.04509e-05
0.000133707
-7.80436e-05
0.000144845
-7.54411e-05
0.000156909
-7.26104e-05
0.000169984
-6.95457e-05
0.000184179
-6.62042e-05
0.000199546
-6.25784e-05
0.000216238
-5.86198e-05
0.000234302
-5.43069e-05
0.000253909
-4.95862e-05
0.00027514
-4.44306e-05
0.000298156
-3.88151e-05
0.000323105
-3.26846e-05
0.00035008
-2.60032e-05
0.000379285
-1.87098e-05
0.000410821
-1.07455e-05
0.000444837
-2.06792e-06
0.0004815
7.36103e-06
0.000520932
1.75641e-05
0.00056324
2.85515e-05
0.000608502
4.033e-05
0.000656731
5.29014e-05
0.000707876
6.62705e-05
0.000761803
8.04455e-05
0.000818233
9.54852e-05
0.000876671
0.000111463
0.000936289
0.000128552
0.000995781
0.000146831
0.00105321
0.000166502
0.00110577
0.000187393
0.00114985
0.000209366
0.00118084
0.000232117
0.00119324
0.000254936
0.00118109
0.00027737
0.0011372
0.000298402
0.0010526
0.000310897
0.000915308
0.000698559
0.000304448
-0.000107523
2.1237e-05
0.000107893
-0.000107135
2.29622e-05
-0.000106685
2.48286e-05
-0.000106211
2.68489e-05
-0.000105665
2.90366e-05
-0.000105088
3.1406e-05
-0.00010443
3.39732e-05
-0.000103731
3.67556e-05
-0.000102939
3.97694e-05
-0.000102098
4.30357e-05
-0.000101153
4.65789e-05
-0.000100154
5.04209e-05
-9.90409e-05
5.45874e-05
-9.78663e-05
5.90983e-05
-9.65671e-05
6.39875e-05
-9.52022e-05
6.92995e-05
-9.37121e-05
7.50601e-05
-9.21393e-05
8.12848e-05
-9.04333e-05
8.80424e-05
-8.86358e-05
9.53817e-05
-8.66944e-05
0.000103313
-8.46328e-05
0.000111912
-8.24226e-05
0.00012126
-8.00564e-05
0.000131341
-7.75174e-05
0.000142314
-7.47961e-05
0.00015419
-7.18633e-05
0.000167057
-6.87119e-05
0.000181031
-6.53049e-05
0.000196142
-6.16317e-05
0.000212567
-5.76519e-05
0.000230322
-5.33421e-05
0.000249603
-4.86583e-05
0.000270467
-4.35709e-05
0.000293088
-3.80606e-05
0.000317608
-3.20747e-05
0.000344102
-2.55826e-05
0.000372798
-1.85295e-05
0.000403773
-1.08607e-05
0.000437174
-2.53777e-06
0.000473184
6.48238e-06
0.000511919
1.62328e-05
0.000553497
2.67364e-05
0.000598007
3.80226e-05
0.000645453
5.01238e-05
0.000695782
6.30827e-05
0.000748852
7.69465e-05
0.00080437
9.18072e-05
0.000861814
0.000107753
0.00092033
0.000124947
0.000978592
0.000143429
0.00103468
0.000163339
0.00108587
0.000184447
0.00112869
0.000206543
0.00115871
0.000229282
0.00117058
0.000251904
0.00115844
0.000273981
0.00111545
0.000294466
0.00103225
0.000306228
0.000904074
0.000700979
0.000304568
-0.000107304
2.08833e-05
0.000107674
-0.000106929
2.25785e-05
-0.000106502
2.44118e-05
-0.000106057
2.6395e-05
-0.000105553
2.85412e-05
-0.000105021
3.08645e-05
-0.000104421
3.33804e-05
-0.000103782
3.61059e-05
-0.00010306
3.90561e-05
-0.000102288
4.22522e-05
-0.000101418
4.57192e-05
-0.000100487
4.94784e-05
-9.94439e-05
5.35555e-05
-9.83245e-05
5.79687e-05
-9.70789e-05
6.27529e-05
-9.5747e-05
6.79578e-05
-9.42823e-05
7.36058e-05
-9.2713e-05
7.97066e-05
-9.09984e-05
8.63375e-05
-8.91728e-05
9.35495e-05
-8.71903e-05
0.000101339
-8.50736e-05
0.000109792
-8.27981e-05
0.000118993
-8.03594e-05
0.000128902
-7.77433e-05
0.000139706
-7.49444e-05
0.000151394
-7.19362e-05
0.000164056
-6.87146e-05
0.000177814
-6.5246e-05
0.000192678
-6.15222e-05
0.000208847
-5.7507e-05
0.000226308
-5.31808e-05
0.00024528
-4.84995e-05
0.000265801
-4.34408e-05
0.000288046
-3.79818e-05
0.000312165
-3.20747e-05
0.000338204
-2.56924e-05
0.000366422
-1.87841e-05
0.000396871
-1.12992e-05
0.000429696
-3.20218e-06
0.000465094
5.55443e-06
0.000503171
1.50165e-05
0.000544045
2.52198e-05
0.000587815
3.62104e-05
0.000634476
4.80415e-05
0.000683967
6.07785e-05
0.000736137
7.44906e-05
0.000790679
8.92828e-05
0.000847055
0.000105243
0.000904397
0.000122512
0.000961376
0.000141098
0.00101611
0.000161095
0.00106596
0.000182227
0.00110753
0.000204243
0.00113658
0.000226777
0.0011479
0.000249056
0.00113588
0.000270658
0.00109367
0.000290517
0.00101197
0.000303824
0.000890572
0.000697485
0.00030685
-0.000106256
2.0537e-05
0.000106603
-0.000105896
2.2205e-05
-0.000105486
2.40085e-05
-0.000105062
2.59592e-05
-0.000104584
2.80696e-05
-0.000104084
3.03534e-05
-0.000103521
3.28255e-05
-0.000102929
3.55025e-05
-0.000102261
3.8398e-05
-0.000101554
4.15328e-05
-0.000100754
4.49323e-05
-9.99045e-05
4.86167e-05
-9.89445e-05
5.26114e-05
-9.79191e-05
5.69315e-05
-9.67628e-05
6.16139e-05
-9.5527e-05
6.67113e-05
-9.41492e-05
7.22443e-05
-9.26669e-05
7.82153e-05
-9.10269e-05
8.47114e-05
-8.92693e-05
9.17848e-05
-8.73403e-05
9.94212e-05
-8.52662e-05
0.000107714
-8.30187e-05
0.000116755
-8.05964e-05
0.000126478
-7.79847e-05
0.000137102
-7.51809e-05
0.000148592
-7.21605e-05
0.000161041
-6.89221e-05
0.00017458
-6.54356e-05
0.000189196
-6.16953e-05
0.000205111
-5.76698e-05
0.000222283
-5.33395e-05
0.000240955
-4.86686e-05
0.00026114
-4.36297e-05
0.000283027
-3.82072e-05
0.000306757
-3.23534e-05
0.000332358
-2.6044e-05
0.000360118
-1.92312e-05
0.000390064
-1.18672e-05
0.000422338
-3.91858e-06
0.000457152
4.66549e-06
0.000494595
1.3941e-05
0.000534777
2.39542e-05
0.00057781
3.47623e-05
0.000623677
4.64305e-05
0.000672308
5.90367e-05
0.000723542
7.26598e-05
0.000777064
8.74078e-05
0.000832322
0.000103361
0.00088845
0.000120639
0.000944131
0.000139222
0.000997529
0.000159172
0.0010461
0.000180187
0.00108658
0.000201992
0.0011149
0.000224216
0.00112594
0.000246089
0.0011142
0.000267195
0.00107309
0.000286438
0.000993066
0.000301186
0.000876518
0.000692289
0.000307282
-0.000104863
2.02017e-05
0.000105208
-0.00010451
2.18431e-05
-0.000104112
2.36179e-05
-0.0001037
2.55377e-05
-0.000103237
2.76145e-05
-0.000102755
2.98616e-05
-0.000102217
3.22937e-05
-0.000101651
3.49269e-05
-0.000101019
3.77734e-05
-0.00010035
4.08537e-05
-9.96009e-05
4.4193e-05
-9.88051e-05
4.78106e-05
-9.79138e-05
5.17309e-05
-9.69588e-05
5.59664e-05
-9.58879e-05
6.05541e-05
-9.47376e-05
6.55509e-05
-9.34568e-05
7.09736e-05
-9.20695e-05
7.68186e-05
-9.05298e-05
8.31808e-05
-8.88678e-05
9.0115e-05
-8.7033e-05
9.75946e-05
-8.5046e-05
0.000105721
-8.28785e-05
0.000114595
-8.05272e-05
0.000124125
-7.79765e-05
0.000134558
-7.52241e-05
0.000145841
-7.22456e-05
0.000158069
-6.90413e-05
0.00017138
-6.55821e-05
0.000185741
-6.18657e-05
0.000201397
-5.78617e-05
0.00021828
-5.35561e-05
0.000236652
-4.89094e-05
0.000256509
-4.39036e-05
0.000278037
-3.85197e-05
0.000301387
-3.27146e-05
0.000326561
-2.64655e-05
0.000353875
-1.97267e-05
0.00038333
-1.24527e-05
0.00041507
-4.61087e-06
0.000449318
3.85098e-06
0.000486141
1.29962e-05
0.000525641
2.28794e-05
0.000567939
3.35641e-05
0.000613007
4.51222e-05
0.000660767
5.7637e-05
0.000711052
7.11908e-05
0.000763538
8.58878e-05
0.000817667
0.000101798
0.000872582
0.000119022
0.000926986
0.000137518
0.000979093
0.000157327
0.00102645
0.000178128
0.00106586
0.000199639
0.00109343
0.000221485
0.00110414
0.000242925
0.00109275
0.000263534
0.00105256
0.000282198
0.000974318
0.000297716
0.000861087
0.000684418
0.000305526
-0.000103335
1.9872e-05
0.000103669
-0.00010299
2.14872e-05
-0.0001026
2.3234e-05
-0.000102195
2.51236e-05
-0.000101742
2.71679e-05
-0.00010127
2.93801e-05
-0.000100744
3.17743e-05
-0.000100194
3.43665e-05
-9.95801e-05
3.71676e-05
-9.89346e-05
4.01977e-05
-9.82148e-05
4.34824e-05
-9.74552e-05
4.70395e-05
-9.66053e-05
5.08928e-05
-9.57022e-05
5.50515e-05
-9.46885e-05
5.95533e-05
-9.36068e-05
6.4458e-05
-9.23997e-05
6.97792e-05
-9.10966e-05
7.55055e-05
-8.96455e-05
8.17407e-05
-8.80789e-05
8.85402e-05
-8.63417e-05
9.58663e-05
-8.44544e-05
0.000103828
-8.23851e-05
0.000112533
-8.01294e-05
0.000121866
-7.76694e-05
0.000132104
-7.50017e-05
0.000143173
-7.2101e-05
0.000155173
-6.89669e-05
0.000168249
-6.55715e-05
0.000182349
-6.19124e-05
0.000197741
-5.79619e-05
0.000214329
-5.37046e-05
0.000232399
-4.91078e-05
0.000251922
-4.41486e-05
0.000273097
-3.88152e-05
0.000296068
-3.3064e-05
0.000320817
-2.68742e-05
0.00034769
-2.02018e-05
0.000376663
-1.30026e-05
0.000407877
-5.24469e-06
0.000441567
3.12452e-06
0.000477779
1.21728e-05
0.000516601
2.19604e-05
0.000558159
3.25541e-05
0.000602422
4.40281e-05
0.000649302
5.64667e-05
0.000698624
6.99507e-05
0.00075006
8.45775e-05
0.000803054
0.000100406
0.000856758
0.00011752
0.000909903
0.000135859
0.000960756
0.000155451
0.00100695
0.000175967
0.00104543
0.000197126
0.00107242
0.000218558
0.00108298
0.000239548
0.00107199
0.000259677
0.00103295
0.0002778
0.000956557
0.000293514
0.000846069
0.000676653
0.00030215
-0.000101737
1.95501e-05
0.000102071
-0.000101396
2.11397e-05
-0.000101012
2.28587e-05
-0.000100614
2.47184e-05
-0.000100169
2.67307e-05
-9.97046e-05
2.89083e-05
-9.919e-05
3.12655e-05
-9.8649e-05
3.38177e-05
-9.80501e-05
3.6575e-05
-9.74179e-05
3.95573e-05
-9.67187e-05
4.27902e-05
-9.59787e-05
4.62905e-05
-9.51591e-05
5.00813e-05
-9.42859e-05
5.41689e-05
-9.33153e-05
5.85911e-05
-9.2278e-05
6.34111e-05
-9.1129e-05
6.86381e-05
-8.98872e-05
7.42544e-05
-8.85098e-05
8.03706e-05
-8.70212e-05
8.70436e-05
-8.53713e-05
9.42232e-05
-8.35753e-05
0.000102026
-8.16025e-05
0.000110566
-7.94453e-05
0.000119706
-7.70847e-05
0.000129749
-7.45151e-05
0.000140604
-7.17096e-05
0.000152372
-6.8667e-05
0.000165209
-6.53581e-05
0.000179043
-6.17807e-05
0.000194166
-5.79062e-05
0.000210455
-5.37221e-05
0.000228217
-4.91914e-05
0.000247405
-4.42987e-05
0.00026822
-3.90288e-05
0.000290811
-3.33415e-05
0.000315137
-2.72168e-05
0.00034157
-2.06117e-05
0.000370063
-1.34831e-05
0.000400754
-5.7993e-06
0.00043389
2.4917e-06
0.000469496
1.14596e-05
0.000507642
2.11679e-05
0.000548462
3.1684e-05
0.00059192
4.30816e-05
0.000637922
5.54431e-05
0.000686287
6.88449e-05
0.000736687
8.3376e-05
0.000788566
9.90855e-05
0.000841095
0.00011604
0.000893031
0.000134169
0.000942696
0.000153493
0.000987812
0.000173676
0.00102537
0.000194445
0.00105174
0.000215437
0.0010621
0.000235977
0.00105155
0.000255637
0.00101346
0.000273265
0.000938999
0.000288808
0.000830742
0.000667809
0.000297777
-0.00010011
1.92319e-05
0.000100431
-9.97771e-05
2.07958e-05
-9.94006e-05
2.24874e-05
-9.90092e-05
2.43177e-05
-9.85711e-05
2.62982e-05
-9.81138e-05
2.84419e-05
-9.76053e-05
3.07627e-05
-9.7073e-05
3.3276e-05
-9.64815e-05
3.59907e-05
-9.5861e-05
3.89266e-05
-9.51721e-05
4.21099e-05
-9.44489e-05
4.55561e-05
-9.36446e-05
4.92879e-05
-9.27956e-05
5.33086e-05
-9.18491e-05
5.76566e-05
-9.08462e-05
6.23975e-05
-8.9734e-05
6.75375e-05
-8.85398e-05
7.30508e-05
-8.72154e-05
7.90561e-05
-8.57897e-05
8.56101e-05
-8.42097e-05
9.26513e-05
-8.24921e-05
0.000100303
-8.06042e-05
0.000108684
-7.85379e-05
0.000117637
-7.62725e-05
0.000127489
-7.3801e-05
0.000138132
-7.1095e-05
0.00014967
-6.81513e-05
0.000162267
-6.494e-05
0.000175834
-6.14572e-05
0.000190685
-5.76747e-05
0.000206671
-5.35768e-05
0.000224122
-4.91313e-05
0.00024297
-4.43174e-05
0.000263424
-3.91249e-05
0.000285631
-3.3513e-05
0.000309532
-2.74621e-05
0.000335524
-2.09303e-05
0.000363536
-1.38749e-05
0.000393704
-6.26437e-06
0.000426286
1.95224e-06
0.000461287
1.08444e-05
0.000498757
2.04769e-05
0.000538838
3.09158e-05
0.000581489
4.22328e-05
0.000626612
5.4506e-05
0.000674022
6.78068e-05
0.000723391
8.2215e-05
0.000774167
9.77701e-05
0.00082554
0.000114526
0.000876298
0.000132403
0.000924812
0.000151419
0.000968886
0.000171238
0.00100562
0.000191596
0.0010315
0.000212143
0.00104179
0.000232235
0.00103166
0.000251448
0.000994704
0.000268618
0.00092215
0.000283808
0.000816174
0.000659533
0.000292843
-9.84663e-05
1.89208e-05
9.87871e-05
-9.81373e-05
2.04595e-05
-9.77667e-05
2.21239e-05
-9.73809e-05
2.39249e-05
-9.69501e-05
2.58741e-05
-9.64997e-05
2.7984e-05
-9.6e-05
3.02687e-05
-9.54752e-05
3.27433e-05
-9.48939e-05
3.54159e-05
-9.42817e-05
3.83062e-05
-9.36051e-05
4.14406e-05
-9.28918e-05
4.48341e-05
-9.21039e-05
4.85085e-05
-9.1269e-05
5.24647e-05
-9.03447e-05
5.67412e-05
-8.93632e-05
6.14069e-05
-8.82816e-05
6.6464e-05
-8.71198e-05
7.18803e-05
-8.58371e-05
7.77807e-05
-8.44577e-05
8.42232e-05
-8.29334e-05
9.11335e-05
-8.1278e-05
9.86419e-05
-7.94607e-05
0.000106873
-7.74722e-05
0.000115645
-7.52914e-05
0.000125314
-7.291e-05
0.00013575
-7.02986e-05
0.000147063
-6.74525e-05
0.000159423
-6.43403e-05
0.000172724
-6.0957e-05
0.000187304
-5.72724e-05
0.000202985
-5.32719e-05
0.000220123
-4.89185e-05
0.000238629
-4.41964e-05
0.000258718
-3.90915e-05
0.000280539
-3.35651e-05
0.000304012
-2.75974e-05
0.00032956
-2.11469e-05
0.00035709
-1.41712e-05
0.000386734
-6.63863e-06
0.00041876
1.50034e-06
0.000453156
1.03135e-05
0.000489953
1.98653e-05
0.000529297
3.02192e-05
0.000571149
4.14439e-05
0.000615405
5.36128e-05
0.000661878
6.67911e-05
0.000710241
8.10501e-05
0.000759949
9.64211e-05
0.000810215
0.000112947
0.000859852
0.000130545
0.000907285
0.000149228
0.000950387
0.000168666
0.000986311
0.000188604
0.00101167
0.000208703
0.00102183
0.00022836
0.00101215
0.000247138
0.000976143
0.000263894
0.000905539
0.000278659
0.000801686
0.000650753
0.000287652
-9.68254e-05
1.86139e-05
9.71381e-05
-9.65024e-05
2.01277e-05
-9.61381e-05
2.17654e-05
-9.57581e-05
2.35376e-05
-9.53341e-05
2.54558e-05
-9.48897e-05
2.75326e-05
-9.43973e-05
2.97816e-05
-9.38797e-05
3.22181e-05
-9.33067e-05
3.4849e-05
-9.27036e-05
3.76942e-05
-9.20366e-05
4.07806e-05
-9.13348e-05
4.41221e-05
-9.05581e-05
4.77405e-05
-8.97378e-05
5.16337e-05
-8.88282e-05
5.58412e-05
-8.78658e-05
6.04343e-05
-8.68047e-05
6.54124e-05
-8.56691e-05
7.07356e-05
-8.44165e-05
7.65364e-05
-8.30736e-05
8.28727e-05
-8.15919e-05
8.96588e-05
-7.99863e-05
9.70307e-05
-7.82263e-05
0.000105119
-7.63026e-05
0.000113718
-7.41942e-05
0.00012321
-7.1892e-05
0.000133448
-6.93662e-05
0.000144541
-6.66108e-05
0.00015667
-6.35936e-05
0.000169709
-6.03077e-05
0.000184019
-5.67227e-05
0.000199398
-5.28205e-05
0.000216223
-4.85671e-05
0.000234385
-4.39413e-05
0.000254108
-3.89321e-05
0.000275542
-3.34994e-05
0.000298585
-2.76232e-05
0.000323688
-2.12621e-05
0.000350733
-1.43739e-05
0.000379851
-6.92651e-06
0.000411319
1.12789e-06
0.000445108
9.85457e-06
0.000481234
1.93162e-05
0.000519843
2.95733e-05
0.000560899
4.06909e-05
0.000604294
5.27374e-05
0.000649838
6.57722e-05
0.000697208
7.98585e-05
0.000745869
9.50209e-05
0.000795049
0.000111294
0.000843593
0.000128591
0.000889975
0.000146926
0.000932132
0.000165972
0.000967321
0.000185489
0.000992254
0.000205151
0.00100236
0.000224381
0.000993104
0.000242747
0.000958173
0.000259119
0.000889453
0.00027346
0.000787904
0.000642516
0.000282367
-9.51907e-05
1.8314e-05
9.55025e-05
-9.48718e-05
1.98034e-05
-9.45136e-05
2.14146e-05
-9.41393e-05
2.31584e-05
-9.37229e-05
2.5046e-05
-9.32855e-05
2.70898e-05
-9.28021e-05
2.93034e-05
-9.22921e-05
3.1702e-05
-9.17292e-05
3.42916e-05
-9.1134e-05
3.70922e-05
-9.04784e-05
4.01309e-05
-8.9785e-05
4.34211e-05
-8.90217e-05
4.69839e-05
-8.82115e-05
5.08152e-05
-8.73178e-05
5.49546e-05
-8.6369e-05
5.94769e-05
-8.53276e-05
6.43778e-05
-8.42113e-05
6.96111e-05
-8.29843e-05
7.53157e-05
-8.16692e-05
8.15504e-05
-8.0222e-05
8.82174e-05
-7.86558e-05
9.5459e-05
-7.69422e-05
0.00010341
-7.50718e-05
0.000111844
-7.30242e-05
0.000121167
-7.07899e-05
0.000131213
-6.83394e-05
0.000142094
-6.56656e-05
0.000153998
-6.27359e-05
0.000166781
-5.95422e-05
0.000180827
-5.60526e-05
0.000195907
-5.22495e-05
0.000212421
-4.80943e-05
0.000230241
-4.35694e-05
0.000249598
-3.86597e-05
0.000270644
-3.33261e-05
0.000293258
-2.75479e-05
0.000317914
-2.12834e-05
0.000344473
-1.44904e-05
0.000373063
-7.13656e-06
0.000403971
8.24509e-07
0.000437155
9.45493e-06
0.000472613
1.88148e-05
0.000510494
2.89615e-05
0.000550766
3.99564e-05
0.000593316
5.18628e-05
0.000637955
6.47347e-05
0.000684363
7.86283e-05
0.000732014
9.35628e-05
0.000780157
0.000109565
0.000827666
0.00012655
0.000873058
0.00014453
0.000914334
0.000163184
0.000948798
0.000182284
0.000973267
0.000201515
0.000983282
0.000220337
0.000974456
0.000238303
0.000940446
0.000254326
0.000873621
0.000268269
0.000774273
0.000633952
0.000277095
-9.35735e-05
1.80177e-05
9.38744e-05
-9.32616e-05
1.94829e-05
-9.29098e-05
2.10682e-05
-9.25426e-05
2.27839e-05
-9.21325e-05
2.46413e-05
-9.17025e-05
2.66527e-05
-9.12255e-05
2.88316e-05
-9.0724e-05
3.11928e-05
-9.01681e-05
3.37417e-05
-8.95828e-05
3.64983e-05
-8.89351e-05
3.94901e-05
-8.82534e-05
4.27296e-05
-8.74989e-05
4.6238e-05
-8.67021e-05
5.00083e-05
-8.58194e-05
5.40812e-05
-8.4886e-05
5.85341e-05
-8.3859e-05
6.33598e-05
-8.27615e-05
6.85053e-05
-8.15545e-05
7.41167e-05
-8.02637e-05
8.02528e-05
-7.88445e-05
8.68048e-05
-7.73113e-05
9.39206e-05
-7.56362e-05
0.000101741
-7.38103e-05
0.000110015
-7.18139e-05
0.000119176
-6.96378e-05
0.000129036
-6.72527e-05
0.000139712
-6.46512e-05
0.000151398
-6.18004e-05
0.000163932
-5.86916e-05
0.000177719
-5.52923e-05
0.000192506
-5.15826e-05
0.000208713
-4.7526e-05
0.000226193
-4.31002e-05
0.000245188
-3.8292e-05
0.000265847
-3.30606e-05
0.000288032
-2.73847e-05
0.000312242
-2.12224e-05
0.000338315
-1.45313e-05
0.000366378
-7.27882e-06
0.000396725
5.80134e-07
0.000429303
9.10431e-06
0.000464095
1.83508e-05
0.000501254
2.83739e-05
0.000540749
3.92312e-05
0.000582464
5.09816e-05
0.000626209
6.36742e-05
0.000671671
7.7359e-05
0.000718332
9.2051e-05
0.000765458
0.000107772
0.000811953
0.000124435
0.000856376
0.000142056
0.000896784
0.000160321
0.000930577
0.000179011
0.00095465
0.000197827
0.000964622
0.000216251
0.000956185
0.00023384
0.000923187
0.000249535
0.000858161
0.000263123
0.00076116
0.000625759
0.000271877
-9.19716e-05
1.77278e-05
9.22708e-05
-9.1664e-05
1.91693e-05
-9.13181e-05
2.07289e-05
-9.09566e-05
2.2417e-05
-9.05537e-05
2.42447e-05
-9.01307e-05
2.6224e-05
-8.96624e-05
2.83684e-05
-8.91686e-05
3.06928e-05
-8.86228e-05
3.32014e-05
-8.80459e-05
3.59144e-05
-8.74094e-05
3.88597e-05
-8.67367e-05
4.20492e-05
-8.59951e-05
4.55035e-05
-8.52087e-05
4.92136e-05
-8.43404e-05
5.32205e-05
-8.34196e-05
5.76049e-05
-8.24091e-05
6.23565e-05
-8.13274e-05
6.74159e-05
-8.01402e-05
7.29359e-05
-7.887e-05
7.89761e-05
-7.74757e-05
8.54162e-05
-7.59704e-05
9.24103e-05
-7.4328e-05
0.000100103
-7.25398e-05
0.000108224
-7.05873e-05
0.000117228
-6.84611e-05
0.00012691
-6.61329e-05
0.000137387
-6.3595e-05
0.000148862
-6.08149e-05
0.000161154
-5.77833e-05
0.000174688
-5.44673e-05
0.000189188
-5.0847e-05
0.000205093
-4.68832e-05
0.00022224
-4.25558e-05
0.000240874
-3.7848e-05
0.000261151
-3.27198e-05
0.000282909
-2.71486e-05
0.000306674
-2.10925e-05
0.000332263
-1.45087e-05
0.000359799
-7.36447e-06
0.000389587
3.84137e-07
0.000421562
8.7926e-06
0.000455696
1.79147e-05
0.000492143
2.7802e-05
0.000530876
3.85087e-05
0.000571774
5.00895e-05
0.000614651
6.25893e-05
0.000659197
7.60528e-05
0.000704904
9.0492e-05
0.00075106
0.000105924
0.00079659
0.000122264
0.000840099
0.000139528
0.000879694
0.000157409
0.000912822
0.0001757
0.000936468
0.000194111
0.000946361
0.000212155
0.000938326
0.000229377
0.000906209
0.000244771
0.000842979
0.000258043
0.000748207
0.000617335
0.000266744
-9.03927e-05
1.74421e-05
9.0685e-05
-9.00908e-05
1.88603e-05
-8.97508e-05
2.03948e-05
-8.93953e-05
2.20557e-05
-8.89992e-05
2.38541e-05
-8.85828e-05
2.58019e-05
-8.81219e-05
2.79125e-05
-8.7636e-05
3.02005e-05
-8.70987e-05
3.26695e-05
-8.65314e-05
3.53394e-05
-8.59046e-05
3.82389e-05
-8.52433e-05
4.13789e-05
-8.45124e-05
4.47799e-05
-8.37387e-05
4.84304e-05
-8.28828e-05
5.23724e-05
-8.19763e-05
5.66893e-05
-8.098e-05
6.1368e-05
-7.99148e-05
6.63427e-05
-7.8745e-05
7.17731e-05
-7.74947e-05
7.77192e-05
-7.61226e-05
8.40501e-05
-7.46426e-05
9.09254e-05
-7.30292e-05
9.84952e-05
-7.12743e-05
0.000106467
-6.936e-05
0.000115318
-6.72777e-05
0.000124827
-6.49995e-05
0.000135113
-6.25181e-05
0.000146382
-5.98014e-05
0.000158439
-5.68399e-05
0.000171727
-5.36007e-05
0.000185946
-5.00629e-05
0.000201556
-4.61889e-05
0.000218374
-4.1955e-05
0.000236655
-3.7346e-05
0.000256552
-3.23203e-05
0.000277889
-2.68548e-05
0.000301213
-2.09072e-05
0.000326319
-1.44345e-05
0.000353331
-7.40394e-06
0.000382562
2.27513e-07
0.000413937
8.51219e-06
0.000447417
1.75007e-05
0.00048316
2.72421e-05
0.00052114
3.77873e-05
0.000561233
4.91876e-05
0.000603254
6.14843e-05
0.000646899
7.47175e-05
0.00069167
8.88968e-05
0.00073687
0.000104035
0.000781453
0.000120052
0.000824061
0.000136962
0.000862847
0.000154466
0.000895349
0.000172368
0.000918619
0.00019039
0.000928463
0.000208064
0.00092078
0.00022494
0.000889611
0.000240046
0.000828071
0.000253041
0.000735618
0.000609152
0.000261697
-8.88354e-05
1.71627e-05
8.91254e-05
-8.85379e-05
1.8558e-05
-8.82039e-05
2.00677e-05
-8.78542e-05
2.17019e-05
-8.74653e-05
2.34714e-05
-8.70559e-05
2.53881e-05
-8.66037e-05
2.74653e-05
-8.61256e-05
2.97174e-05
-8.55983e-05
3.21471e-05
-8.50395e-05
3.47746e-05
-8.44241e-05
3.76287e-05
-8.37721e-05
4.07198e-05
-8.30541e-05
4.40679e-05
-8.22912e-05
4.76596e-05
-8.14496e-05
5.15373e-05
-8.05557e-05
5.57875e-05
-7.95753e-05
6.03939e-05
-7.85251e-05
6.52852e-05
-7.73735e-05
7.06273e-05
-7.61415e-05
7.64811e-05
-7.47909e-05
8.27049e-05
-7.33341e-05
8.9464e-05
-7.17475e-05
9.69133e-05
-7.00227e-05
0.000104739
-6.8143e-05
0.000113442
-6.60999e-05
0.000122783
-6.38666e-05
0.000132882
-6.14359e-05
0.000143953
-5.87765e-05
0.000155781
-5.58787e-05
0.00016883
-5.27102e-05
0.000182776
-4.92501e-05
0.000198096
-4.54593e-05
0.000214593
-4.13161e-05
0.000232525
-3.68025e-05
0.000252049
-3.18776e-05
0.000272969
-2.65174e-05
0.000295856
-2.06792e-05
0.000320485
-1.43202e-05
0.000346977
-7.40741e-06
0.000375656
1.01336e-07
0.000406436
8.25557e-06
0.000439272
1.71029e-05
0.000474324
2.66899e-05
0.000511566
3.70652e-05
0.000550873
4.82766e-05
0.000592063
6.03626e-05
0.000634837
7.33594e-05
0.000678705
8.72749e-05
0.000722991
0.000102119
0.00076667
0.000117815
0.000808423
0.000134377
0.000846449
0.000151514
0.00087833
0.000169038
0.0009012
0.000186682
0.000910969
0.000204002
0.000903652
0.000220541
0.00087332
0.000235378
0.000813459
0.000248123
0.000723193
0.000600799
0.000256747
-8.73042e-05
1.68871e-05
8.75856e-05
-8.70129e-05
1.82598e-05
-8.66849e-05
1.97451e-05
-8.63417e-05
2.1353e-05
-8.59593e-05
2.30941e-05
-8.55571e-05
2.49804e-05
-8.51118e-05
2.70247e-05
-8.46422e-05
2.92415e-05
-8.41226e-05
3.16327e-05
-8.35739e-05
3.42184e-05
-8.29673e-05
3.70279e-05
-8.2327e-05
4.00708e-05
-8.16191e-05
4.33671e-05
-8.08693e-05
4.69008e-05
-8.00396e-05
5.07152e-05
-7.91603e-05
5.48996e-05
-7.8194e-05
5.94351e-05
-7.71602e-05
6.42441e-05
-7.60255e-05
6.94993e-05
-7.48124e-05
7.52621e-05
-7.34823e-05
8.13805e-05
-7.20482e-05
8.80255e-05
-7.04868e-05
9.53569e-05
-6.87904e-05
0.00010304
-6.69427e-05
0.000111599
-6.49357e-05
0.000120776
-6.27436e-05
0.000130693
-6.03593e-05
0.00014157
-5.77522e-05
0.000153176
-5.49131e-05
0.000165992
-5.18099e-05
0.00017967
-4.84216e-05
0.000194709
-4.47106e-05
0.00021089
-4.06529e-05
0.000228481
-3.62316e-05
0.000247638
-3.1405e-05
0.000268148
-2.61487e-05
0.000290603
-2.04199e-05
0.00031476
-1.41758e-05
0.000340738
-7.38335e-06
0.000368869
-1.22019e-09
0.00039906
8.01762e-06
0.000431259
1.67181e-05
0.000465629
2.61447e-05
0.000502144
3.63438e-05
0.000540677
4.73605e-05
0.000581049
5.92307e-05
0.000622964
7.19876e-05
0.000665945
8.56377e-05
0.000709329
0.000100189
0.000752115
0.000115567
0.00079302
0.000131787
0.000830285
0.000148564
0.000861573
0.000165722
0.000884075
0.000183002
0.000893781
0.000199977
0.000886778
0.000216195
0.000857325
0.000230772
0.000799032
0.000243294
0.000711
0.000592577
0.000251886
-8.57967e-05
1.66172e-05
8.60753e-05
-8.55098e-05
1.79677e-05
-8.51875e-05
1.9429e-05
-8.485e-05
2.1011e-05
-8.44744e-05
2.27243e-05
-8.4079e-05
2.45804e-05
-8.3642e-05
2.65923e-05
-8.31801e-05
2.87744e-05
-8.26702e-05
3.11277e-05
-8.21301e-05
3.36722e-05
-8.15346e-05
3.64377e-05
-8.09041e-05
3.94331e-05
-8.02089e-05
4.26781e-05
-7.94705e-05
4.61546e-05
-7.86551e-05
4.99065e-05
-7.7789e-05
5.40259e-05
-7.68386e-05
5.84911e-05
-7.58203e-05
6.3219e-05
-7.47035e-05
6.83884e-05
-7.35086e-05
7.40616e-05
-7.21991e-05
8.00763e-05
-7.0787e-05
8.66092e-05
-6.92501e-05
9.38247e-05
-6.75807e-05
0.000101368
-6.57634e-05
0.000109786
-6.37904e-05
0.000118803
-6.16366e-05
0.000128543
-5.92954e-05
0.00013923
-5.6737e-05
0.000150619
-5.39522e-05
0.000163208
-5.091e-05
0.000176626
-4.75897e-05
0.000191389
-4.39529e-05
0.000207262
-3.99775e-05
0.000224518
-3.56447e-05
0.000243315
-3.09136e-05
0.000263421
-2.57593e-05
0.000285452
-2.01391e-05
0.000309144
-1.40101e-05
0.000334614
-7.33961e-06
0.000362205
-8.68091e-08
0.000391814
7.79312e-06
0.000423387
1.63426e-05
0.000457089
2.56045e-05
0.000492893
3.56231e-05
0.000530673
4.64413e-05
0.000570248
5.80928e-05
0.000611332
7.06082e-05
0.000653456
8.39933e-05
0.000695975
9.82542e-05
0.000737906
0.000113319
0.000778005
0.000129206
0.000814551
0.000145634
0.000845252
0.000162435
0.000867371
0.000179362
0.000876998
0.000196005
0.000870323
0.000211911
0.00084166
0.00022624
0.000784927
0.000238554
0.000698989
0.000584257
0.00024712
-8.43161e-05
1.63515e-05
8.45887e-05
-8.40345e-05
1.76802e-05
-8.37178e-05
1.9118e-05
-8.33861e-05
2.06746e-05
-8.30169e-05
2.23604e-05
-8.26282e-05
2.4187e-05
-8.21985e-05
2.61672e-05
-8.17445e-05
2.83151e-05
-8.12431e-05
3.0631e-05
-8.07125e-05
3.3135e-05
-8.01268e-05
3.58572e-05
-7.95075e-05
3.88058e-05
-7.88235e-05
4.20003e-05
-7.80979e-05
4.54204e-05
-7.72954e-05
4.91108e-05
-7.64438e-05
5.31661e-05
-7.55082e-05
5.75622e-05
-7.45062e-05
6.22101e-05
-7.34067e-05
6.7295e-05
-7.22305e-05
7.28798e-05
-7.09413e-05
7.87924e-05
-6.9551e-05
8.5215e-05
-6.80383e-05
9.23165e-05
-6.63952e-05
9.9723e-05
-6.46073e-05
0.000108002
-6.26668e-05
0.000116862
-6.05495e-05
0.000126428
-5.8249e-05
0.000136932
-5.57364e-05
0.000148109
-5.30031e-05
0.000160475
-5.00181e-05
0.000173639
-4.67614e-05
0.000188132
-4.31961e-05
0.000203704
-3.92985e-05
0.000220633
-3.50511e-05
0.000239077
-3.04125e-05
0.000258787
-2.5358e-05
0.000280401
-1.98447e-05
0.000303634
-1.38303e-05
0.000328604
-7.28215e-06
0.000355662
-1.60057e-07
0.000384698
7.57891e-06
0.000415654
1.5975e-05
0.000448697
2.50696e-05
0.000483803
3.49053e-05
0.000520839
4.55231e-05
0.000559631
5.69549e-05
0.000599897
6.9229e-05
0.000641176
8.23509e-05
0.000682838
9.63248e-05
0.000723924
0.000111083
0.000763219
0.000126642
0.000799041
0.00014273
0.000829174
0.000159186
0.000850931
0.00017577
0.000860482
0.00019209
0.000854084
0.000207696
0.000826234
0.000221785
0.000770949
0.000233905
0.000687128
0.000576005
0.000242438
-8.28609e-05
1.60915e-05
8.31304e-05
-8.25838e-05
1.73988e-05
-8.22728e-05
1.88134e-05
-8.19467e-05
2.0345e-05
-8.15843e-05
2.20039e-05
-8.12022e-05
2.38014e-05
-8.07806e-05
2.57502e-05
-8.03342e-05
2.78644e-05
-7.98422e-05
3.01435e-05
-7.93203e-05
3.26076e-05
-7.87454e-05
3.52871e-05
-7.8136e-05
3.81896e-05
-7.74644e-05
4.13342e-05
-7.67502e-05
4.46987e-05
-7.59618e-05
4.83283e-05
-7.51236e-05
5.23205e-05
-7.42037e-05
5.66483e-05
-7.32174e-05
6.12173e-05
-7.21358e-05
6.62189e-05
-7.09778e-05
7.17166e-05
-6.97091e-05
7.75287e-05
-6.83405e-05
8.38426e-05
-6.68517e-05
9.08321e-05
-6.52346e-05
9.81038e-05
-6.34754e-05
0.000106246
-6.15665e-05
0.000114953
-5.94845e-05
0.000124349
-5.7223e-05
0.000134672
-5.47543e-05
0.000145641
-5.20695e-05
0.000157791
-4.91392e-05
0.000170706
-4.59435e-05
0.000184936
-4.24455e-05
0.000200214
-3.86232e-05
0.000216822
-3.44577e-05
0.000234921
-2.99088e-05
0.000254243
-2.49515e-05
0.000275446
-1.95435e-05
0.00029823
-1.36425e-05
0.000322708
-7.21639e-06
0.000349242
-2.25488e-07
0.000377714
7.37152e-06
0.000408064
1.5613e-05
0.000440464
2.45391e-05
0.000474886
3.41909e-05
0.000511198
4.46078e-05
0.000549229
5.58202e-05
0.0005887
6.78544e-05
0.000629163
8.0716e-05
0.00067
9.44075e-05
0.000710274
0.000108866
0.000748803