/*--------------------------------*- C++ -*----------------------------------*\
  =========                 |
  \\      /  F ield         | OpenFOAM: The Open Source CFD Toolbox
   \\    /   O peration     | Website:  https://openfoam.org
    \\  /    A nd           | Version:  6.0
     \\/     M anipulation  |
\*---------------------------------------------------------------------------*/
FoamFile
{
    version     2.0;
    format      ascii;
    class       volVectorField;
    location    "6";
    object      U;
}
// * * * * * * * * * * * * * * * * * * * * * * * * * * * * * * * * * * * * * //

dimensions      [0 1 -1 0 0 0 0];

internalField   nonuniform List<vector> 
62000
(
(0.939258 0.337407 -3.99455e-21)
(0.939431 0.337447 3.39516e-21)
(0.939598 0.33756 3.3292e-21)
(0.939769 0.33765 -1.44601e-20)
(0.939939 0.337753 -1.58905e-20)
(0.940102 0.337864 5.63454e-20)
(0.940255 0.337985 -6.12397e-20)
(0.940395 0.338119 3.57417e-20)
(0.940519 0.338266 -1.61716e-20)
(0.940624 0.338426 -8.16777e-20)
(0.94071 0.3386 -8.00751e-21)
(0.940774 0.338786 1.16378e-19)
(0.940817 0.338985 2.28288e-20)
(0.94084 0.339195 -8.2071e-20)
(0.940843 0.339414 1.26986e-19)
(0.940829 0.339641 -6.87386e-20)
(0.940799 0.339874 7.0745e-20)
(0.940754 0.340111 -8.41981e-20)
(0.940698 0.34035 4.04802e-20)
(0.940632 0.34059 -1.32308e-19)
(0.940558 0.340827 1.75525e-19)
(0.940478 0.341061 5.31325e-20)
(0.940392 0.341291 8.02729e-20)
(0.940303 0.341515 -3.66916e-19)
(0.940211 0.341732 1.38569e-19)
(0.940116 0.341942 -9.01765e-20)
(0.94002 0.342144 -1.84892e-21)
(0.939923 0.342338 -8.21163e-20)
(0.939825 0.342523 2.53382e-19)
(0.939727 0.342697 -1.55139e-19)
(0.939629 0.342853 3.84414e-19)
(0.939532 0.342985 -8.20766e-19)
(0.93944 0.343087 7.18066e-20)
(0.939361 0.343159 -3.19868e-19)
(0.939297 0.343197 -1.1116e-19)
(0.93925 0.343201 -3.65945e-19)
(0.939219 0.343165 -1.2835e-19)
(0.939208 0.343082 -1.46752e-19)
(0.939223 0.342944 4.05323e-19)
(0.939268 0.342745 2.05652e-18)
(0.93935 0.342482 -5.12857e-19)
(0.939453 0.342197 -3.02468e-18)
(0.939558 0.341936 -4.87464e-18)
(0.939644 0.341743 2.69458e-18)
(0.939679 0.341668 7.65631e-19)
(0.939622 0.341756 -4.03869e-18)
(0.939422 0.342026 1.17273e-18)
(0.939025 0.342438 -1.83735e-18)
(0.938384 0.342863 -9.7996e-18)
(0.937474 0.34306 -2.50893e-18)
(0.936297 0.342699 -1.53786e-18)
(0.934893 0.341392 -2.33984e-17)
(0.933355 0.338815 2.42674e-18)
(0.931815 0.33475 3.35323e-17)
(0.930493 0.329146 9.83128e-18)
(0.929682 0.322116 3.26105e-17)
(0.92969 0.313853 -4.24375e-18)
(0.930608 0.304268 -7.0064e-18)
(0.933494 0.291197 1.24706e-17)
(0.90269 0.264275 2.19265e-18)
(0.939085 0.347341 -8.9651e-22)
(0.939122 0.347054 8.34187e-21)
(0.939183 0.346922 2.99139e-21)
(0.93929 0.346708 -1.44567e-20)
(0.939441 0.346469 5.82109e-21)
(0.939631 0.346197 -3.84487e-20)
(0.939855 0.345893 3.58483e-20)
(0.940108 0.345564 1.96765e-20)
(0.940381 0.345211 -3.71254e-20)
(0.940667 0.344839 1.96891e-21)
(0.940956 0.344452 3.52338e-20)
(0.94124 0.344057 -2.59369e-22)
(0.941511 0.343661 9.65571e-21)
(0.941763 0.343268 -8.8273e-20)
(0.941987 0.342883 1.78282e-19)
(0.942181 0.342514 -1.61502e-19)
(0.94234 0.342164 7.72811e-20)
(0.942464 0.34184 -1.58065e-20)
(0.94255 0.341543 -4.86301e-20)
(0.9426 0.34128 1.32921e-19)
(0.942616 0.341048 -2.18733e-19)
(0.942602 0.340854 1.32018e-19)
(0.942558 0.340692 -1.74983e-19)
(0.94249 0.340568 1.06836e-19)
(0.942399 0.340478 1.09757e-19)
(0.942292 0.340424 -7.1323e-20)
(0.942165 0.340403 -5.96863e-21)
(0.942028 0.340421 8.3728e-20)
(0.941872 0.340471 7.67947e-20)
(0.941704 0.340556 -1.90847e-19)
(0.941505 0.340657 3.87714e-19)
(0.94129 0.340781 9.56699e-20)
(0.941054 0.340926 2.78365e-19)
(0.940828 0.341116 3.90005e-20)
(0.940615 0.341343 9.73108e-20)
(0.940399 0.34161 -9.71516e-20)
(0.940162 0.341927 -3.47296e-19)
(0.939903 0.342295 -1.67807e-19)
(0.93963 0.34271 -1.09777e-18)
(0.939352 0.343166 -1.35554e-18)
(0.939091 0.343661 1.09126e-18)
(0.938836 0.344265 6.58421e-19)
(0.938549 0.345032 5.07486e-18)
(0.938194 0.345985 2.98394e-19)
(0.937733 0.347115 -8.01586e-18)
(0.937109 0.34837 3.28636e-18)
(0.93626 0.349604 2.98948e-18)
(0.935114 0.350568 3.59626e-18)
(0.933628 0.350844 1.19619e-18)
(0.931776 0.349927 2.82347e-19)
(0.929625 0.347224 8.99793e-18)
(0.927263 0.342252 2.86101e-17)
(0.924855 0.334709 -2.2078e-17)
(0.922787 0.324494 -5.8015e-17)
(0.921269 0.312041 -1.48848e-17)
(0.920846 0.297719 -1.09684e-17)
(0.921972 0.282238 -2.43962e-17)
(0.924341 0.265203 -1.16645e-17)
(0.93176 0.244768 1.6868e-17)
(0.877444 0.203506 5.71316e-18)
(0.938854 0.358357 -3.85068e-21)
(0.938613 0.358014 -3.23949e-22)
(0.938393 0.357847 7.69687e-22)
(0.938224 0.357608 2.60344e-21)
(0.938115 0.357336 6.72212e-21)
(0.938071 0.357025 -6.46477e-21)
(0.938098 0.356667 3.17323e-20)
(0.938197 0.356259 -1.60983e-20)
(0.938369 0.355798 -8.45449e-21)
(0.93861 0.355279 -4.65544e-20)
(0.938913 0.354702 3.98639e-20)
(0.939271 0.35407 2.8082e-21)
(0.939671 0.353384 -8.84195e-21)
(0.940103 0.35265 2.31967e-20)
(0.940552 0.351874 -3.98792e-20)
(0.941005 0.351064 6.51529e-23)
(0.941448 0.350229 -1.87725e-20)
(0.94187 0.349381 4.95194e-22)
(0.942258 0.34853 4.60672e-20)
(0.942606 0.34769 -7.35108e-20)
(0.942905 0.346867 4.64154e-20)
(0.943153 0.346078 2.00652e-19)
(0.943346 0.345326 -2.17018e-20)
(0.943487 0.344625 -3.08669e-19)
(0.943574 0.343977 1.66189e-19)
(0.943612 0.343394 -1.00046e-19)
(0.9436 0.342876 1.68431e-19)
(0.943547 0.342436 -1.05044e-19)
(0.943441 0.34207 -2.43157e-19)
(0.943292 0.341784 2.69916e-19)
(0.943075 0.34156 -2.10808e-19)
(0.942815 0.34141 3.17702e-19)
(0.942505 0.34135 -9.45663e-19)
(0.942193 0.341415 9.15724e-19)
(0.941882 0.341595 -5.20932e-19)
(0.941546 0.341902 2.2151e-19)
(0.941154 0.342355 1.73817e-19)
(0.940702 0.342969 -3.32587e-20)
(0.940197 0.343747 -8.53261e-20)
(0.939655 0.344684 1.38008e-18)
(0.939101 0.345801 -5.7464e-19)
(0.938554 0.347143 9.06233e-19)
(0.93798 0.348736 -3.27126e-18)
(0.937355 0.350565 -1.62059e-18)
(0.936664 0.352557 1.82343e-18)
(0.935878 0.354585 -6.06403e-18)
(0.934978 0.356394 9.08411e-19)
(0.933921 0.357646 -5.78957e-18)
(0.932713 0.357812 8.86013e-18)
(0.931331 0.35638 2.71368e-18)
(0.929877 0.352754 9.98511e-19)
(0.928404 0.34657 -1.1201e-18)
(0.926977 0.337713 8.32465e-18)
(0.926022 0.326165 4.53839e-18)
(0.925471 0.312675 -1.89775e-17)
(0.925886 0.297783 -1.27983e-17)
(0.927569 0.282359 -6.67899e-18)
(0.929853 0.266308 -2.55733e-17)
(0.938372 0.25 -2.72059e-18)
(0.889994 0.222145 1.59094e-18)
(0.938427 0.364233 -3.77861e-21)
(0.938091 0.363969 1.13701e-20)
(0.937743 0.363863 -2.00674e-21)
(0.93741 0.363714 -1.10432e-20)
(0.937107 0.363547 1.60285e-20)
(0.936844 0.36336 2.57699e-20)
(0.936635 0.363142 -3.48195e-20)
(0.936491 0.362891 3.49999e-21)
(0.936422 0.362596 1.05337e-20)
(0.936438 0.36225 2.10133e-20)
(0.936543 0.361845 -4.05259e-20)
(0.936739 0.361376 -1.15377e-20)
(0.937023 0.360835 -1.22481e-20)
(0.937392 0.36022 5.87578e-20)
(0.937835 0.359528 -3.84978e-20)
(0.938342 0.35876 8.8114e-20)
(0.938895 0.35792 -1.08459e-19)
(0.93948 0.357015 -1.57331e-20)
(0.940078 0.356052 1.17476e-19)
(0.940673 0.355047 -4.17267e-20)
(0.941247 0.354008 -1.58712e-20)
(0.941787 0.352955 -1.76415e-20)
(0.942279 0.351897 -1.73385e-19)
(0.942713 0.350857 9.91639e-20)
(0.943083 0.349843 -5.6171e-20)
(0.943382 0.348877 8.65775e-20)
(0.943607 0.347966 4.33344e-20)
(0.943758 0.347136 2.48593e-19)
(0.943823 0.346386 -1.57281e-19)
(0.943803 0.345733 -2.38851e-19)
(0.943682 0.345159 4.07885e-19)
(0.943482 0.344685 -3.51844e-19)
(0.943206 0.344337 7.32359e-19)
(0.942901 0.344155 -4.93475e-19)
(0.942572 0.344135 1.97208e-19)
(0.942194 0.344294 3.88749e-19)
(0.941736 0.34466 -1.92241e-19)
(0.941194 0.345255 2.71395e-19)
(0.94058 0.346085 -1.25456e-19)
(0.939917 0.347148 4.41833e-19)
(0.939231 0.348493 -1.25299e-18)
(0.938569 0.350133 3.52127e-19)
(0.937922 0.352054 7.65322e-19)
(0.937282 0.354222 1.88145e-18)
(0.936663 0.356532 2.4941e-18)
(0.936067 0.358828 6.80599e-19)
(0.935516 0.360817 3.79293e-18)
(0.93499 0.362152 4.29921e-18)
(0.934535 0.362292 4.84874e-18)
(0.934109 0.360786 -3.85542e-18)
(0.933813 0.357103 -6.87628e-18)
(0.933634 0.350985 3.97008e-18)
(0.933491 0.342459 5.50865e-18)
(0.933779 0.331524 2.30763e-17)
(0.934164 0.319051 1.73444e-17)
(0.935161 0.305693 2.12236e-17)
(0.936889 0.292287 4.28102e-17)
(0.938499 0.27907 2.8639e-18)
(0.946119 0.268596 -1.92916e-17)
(0.911263 0.254844 -1.12195e-17)
(0.938175 0.36712 7.50055e-21)
(0.937859 0.366904 -2.71698e-21)
(0.937508 0.366834 3.8267e-21)
(0.937144 0.366735 -5.8297e-21)
(0.936776 0.366632 1.19775e-20)
(0.936414 0.366528 -6.41157e-21)
(0.936069 0.366412 2.72411e-21)
(0.935756 0.366284 -4.47783e-20)
(0.935488 0.366135 3.75498e-20)
(0.935279 0.365958 -7.0648e-20)
(0.935143 0.365744 7.85662e-20)
(0.93509 0.365484 -9.7071e-21)
(0.93513 0.36517 -1.9647e-20)
(0.93527 0.36479 -7.84529e-21)
(0.93551 0.364338 -1.23511e-21)
(0.935849 0.363807 -8.52394e-20)
(0.936281 0.36319 7.11446e-21)
(0.936794 0.362488 9.42059e-20)
(0.937376 0.361699 -3.03207e-20)
(0.938009 0.36083 -3.14612e-20)
(0.938674 0.359884 5.46704e-20)
(0.939351 0.358878 -2.82272e-20)
(0.940021 0.357818 1.24483e-19)
(0.940665 0.356727 7.50258e-20)
(0.941267 0.355616 6.44698e-20)
(0.941811 0.354511 -1.88233e-19)
(0.942283 0.353424 -2.9551e-20)
(0.942672 0.352388 -1.78545e-19)
(0.942963 0.351412 3.06894e-20)
(0.943147 0.350518 -7.51638e-20)
(0.943211 0.349696 -3.62414e-20)
(0.94317 0.348966 2.76573e-19)
(0.943031 0.348369 -7.17407e-19)
(0.942838 0.347942 -3.81804e-20)
(0.942591 0.347692 -4.4068e-19)
(0.94227 0.347645 -2.29911e-19)
(0.94185 0.347834 6.99262e-20)
(0.94133 0.348284 -8.73477e-19)
(0.940727 0.349001 1.43735e-18)
(0.940072 0.349989 2.68434e-19)
(0.939386 0.351312 1.72588e-18)
(0.938729 0.352959 -1.30071e-18)
(0.938125 0.354874 -8.74905e-19)
(0.937581 0.35702 -3.27245e-19)
(0.937135 0.359273 1.7979e-18)
(0.936808 0.361476 2.59646e-18)
(0.936654 0.363324 5.22122e-19)
(0.936665 0.364496 9.15808e-19)
(0.936914 0.364471 -2.13122e-18)
(0.937339 0.36287 9.61582e-18)
(0.938026 0.359232 2.56223e-18)
(0.938918 0.353382 -3.62901e-18)
(0.939803 0.345438 -1.27344e-18)
(0.941047 0.335396 1.32436e-17)
(0.942132 0.324157 1.21075e-18)
(0.943503 0.312419 -1.77701e-17)
(0.945137 0.30093 -3.38527e-17)
(0.946148 0.290037 3.21617e-17)
(0.95215 0.283903 -1.25247e-17)
(0.928652 0.278385 1.03779e-17)
(0.938159 0.368877 -2.96088e-21)
(0.937882 0.36869 1.18491e-20)
(0.937565 0.368638 -1.93174e-20)
(0.937223 0.36856 1.43199e-20)
(0.936861 0.368481 8.856e-21)
(0.936483 0.368406 -9.72445e-21)
(0.936096 0.36833 6.85544e-22)
(0.935712 0.368253 -6.92413e-21)
(0.93534 0.36817 -2.2403e-20)
(0.934995 0.368079 4.34776e-20)
(0.934689 0.367971 -6.5736e-20)
(0.934439 0.367841 5.76953e-20)
(0.934257 0.367679 4.85606e-20)
(0.934158 0.367476 -7.68412e-20)
(0.934152 0.367222 -2.36287e-20)
(0.934247 0.366907 9.11249e-20)
(0.934447 0.36652 -1.09664e-19)
(0.934752 0.366056 1.51043e-19)
(0.935158 0.365504 -3.05419e-20)
(0.935654 0.364865 1.59541e-20)
(0.936229 0.364135 -2.7856e-20)
(0.936865 0.363321 -3.52093e-20)
(0.937542 0.362422 -6.39297e-20)
(0.938241 0.361459 1.18914e-19)
(0.93894 0.360434 -8.39767e-20)
(0.939617 0.359375 -8.85018e-20)
(0.940252 0.358292 1.89351e-19)
(0.940823 0.357222 -2.04671e-19)
(0.941309 0.356176 3.30007e-19)
(0.941692 0.355183 -1.85944e-19)
(0.941959 0.354233 1.59047e-19)
(0.942115 0.353351 -3.01069e-19)
(0.942167 0.352581 3.45764e-19)
(0.942146 0.351962 -2.24461e-20)
(0.942051 0.351512 -1.56096e-20)
(0.941864 0.351266 -8.67198e-21)
(0.941563 0.351262 -2.76607e-19)
(0.941153 0.351523 7.861e-19)
(0.940654 0.352057 -6.24452e-19)
(0.940102 0.352868 -3.93388e-18)
(0.939506 0.354029 -1.73161e-18)
(0.938927 0.355516 1.22037e-18)
(0.938419 0.357225 -1.38851e-18)
(0.938003 0.359126 -1.46548e-18)
(0.937735 0.361088 -1.17632e-19)
(0.937649 0.362958 3.54174e-18)
(0.937819 0.364439 -5.02522e-18)
(0.938246 0.365245 -5.02977e-18)
(0.939025 0.364888 -3.52722e-18)
(0.940076 0.363066 -6.11966e-18)
(0.941479 0.35938 3.8899e-18)
(0.943143 0.353725 -2.00636e-18)
(0.944761 0.346279 -1.7599e-17)
(0.946685 0.337024 2.70865e-18)
(0.948272 0.326841 6.70674e-18)
(0.949898 0.316433 -1.12181e-17)
(0.951427 0.306443 1.02795e-17)
(0.952063 0.297187 5.45167e-18)
(0.956319 0.293841 2.15154e-17)
(0.940056 0.2927 -8.88448e-19)
(0.938225 0.370089 3.67066e-21)
(0.937985 0.369916 -1.64624e-20)
(0.937706 0.369871 8.19331e-21)
(0.9374 0.369802 1.47039e-20)
(0.937069 0.369733 -3.12703e-20)
(0.936714 0.36967 2.62655e-20)
(0.936339 0.369608 -1.72156e-20)
(0.935947 0.36955 1.4582e-20)
(0.935548 0.369493 2.26822e-20)
(0.93515 0.369436 -5.47395e-20)
(0.934764 0.369375 7.84351e-20)
(0.934402 0.369307 3.14413e-20)
(0.93408 0.369225 -1.31906e-19)
(0.933811 0.369124 -2.35068e-20)
(0.933611 0.368993 6.9853e-20)
(0.933492 0.368824 4.37883e-20)
(0.933466 0.368606 -5.46136e-20)
(0.933541 0.368332 4.63299e-20)
(0.933722 0.367987 7.304e-20)
(0.934008 0.367567 -3.66257e-20)
(0.934397 0.367061 -2.08281e-20)
(0.934878 0.366471 7.66542e-20)
(0.935439 0.365788 1.61485e-19)
(0.936063 0.365024 -1.16249e-19)
(0.93673 0.364176 -1.35345e-19)
(0.937418 0.363267 1.57944e-19)
(0.938103 0.362302 -1.24448e-19)
(0.938761 0.361316 -5.44147e-20)
(0.939364 0.360319 4.78684e-19)
(0.93989 0.35934 -2.26212e-19)
(0.940321 0.35837 -1.9132e-19)
(0.940655 0.357432 2.40936e-19)
(0.940894 0.356572 1.88339e-19)
(0.941056 0.355829 -1.99432e-19)
(0.941136 0.355232 -1.4018e-19)
(0.941116 0.354821 4.89624e-19)
(0.940979 0.354637 1.0247e-19)
(0.940729 0.354705 1.86971e-19)
(0.940389 0.355027 -1.08462e-18)
(0.939997 0.355611 -1.15862e-18)
(0.939549 0.356529 2.21206e-18)
(0.93909 0.357752 1.80659e-18)
(0.938702 0.359132 2.99831e-18)
(0.938422 0.360652 -2.75522e-18)
(0.938318 0.362181 -2.98283e-18)
(0.938429 0.363578 -1.88102e-18)
(0.938848 0.364559 4.46891e-18)
(0.939575 0.36488 4.27177e-18)
(0.940725 0.364095 -4.75199e-18)
(0.942206 0.361967 -7.0716e-18)
(0.944095 0.358158 -1.63687e-18)
(0.94628 0.352617 1.55766e-18)
(0.948389 0.345561 4.09505e-19)
(0.950768 0.336952 -6.37799e-18)
(0.952698 0.327626 5.61867e-18)
(0.954495 0.318267 3.85002e-18)
(0.955932 0.309413 5.67807e-18)
(0.95639 0.301316 -1.83816e-17)
(0.959048 0.299699 -1.39653e-18)
(0.946608 0.301054 -2.57788e-19)
(0.938287 0.371016 -6.53705e-21)
(0.938076 0.370855 -5.06254e-21)
(0.93783 0.370815 7.22122e-21)
(0.93756 0.37075 2.47642e-20)
(0.937266 0.370683 -5.33024e-20)
(0.936946 0.37062 6.09299e-20)
(0.936602 0.370559 -3.20437e-21)
(0.936235 0.370503 -4.1795e-21)
(0.93585 0.37045 -2.1662e-20)
(0.935451 0.370402 5.18524e-20)
(0.935045 0.370356 -8.04474e-20)
(0.934642 0.370311 3.04274e-20)
(0.934253 0.370264 -1.00295e-21)
(0.933891 0.370211 4.66777e-20)
(0.93357 0.370146 2.15761e-20)
(0.933304 0.37006 -1.20367e-19)
(0.933107 0.369947 1.05321e-19)
(0.932993 0.369797 4.0828e-20)
(0.932971 0.369599 -1.18896e-19)
(0.93305 0.369345 6.00999e-20)
(0.933233 0.369023 2.74994e-20)
(0.93352 0.368629 -1.74519e-20)
(0.933906 0.36815 2.46301e-20)
(0.934381 0.367591 -1.20314e-20)
(0.934932 0.366944 -1.73217e-19)
(0.935539 0.366222 1.16712e-19)
(0.936183 0.365428 -1.84895e-19)
(0.936836 0.364589 3.6641e-19)
(0.937474 0.363713 -5.73666e-20)
(0.938069 0.362824 -4.36557e-20)
(0.938603 0.361912 -8.97829e-21)
(0.939066 0.360994 4.76597e-19)
(0.939455 0.360115 -1.96784e-19)
(0.939777 0.359314 -1.5074e-19)
(0.940021 0.358625 3.75828e-19)
(0.940169 0.358092 3.53536e-19)
(0.940203 0.357761 -6.20865e-19)
(0.940129 0.35765 1.13753e-19)
(0.93997 0.357761 1.32298e-18)
(0.939764 0.358102 -1.69237e-19)
(0.939492 0.358739 9.51798e-19)
(0.939173 0.359643 -1.3714e-18)
(0.938912 0.36063 2.07018e-18)
(0.938764 0.361703 4.37982e-18)
(0.938803 0.362731 1.20867e-18)
(0.939074 0.363591 -1.66298e-18)
(0.939675 0.36402 -4.90359e-18)
(0.940612 0.363813 9.36471e-19)
(0.942008 0.362566 1.44468e-18)
(0.943768 0.360104 3.16302e-18)
(0.945964 0.356137 -4.45573e-19)
(0.948475 0.350659 -6.58232e-18)
(0.950885 0.343906 6.19827e-18)
(0.953549 0.335822 -4.53887e-18)
(0.9557 0.32718 9.03697e-18)
(0.957609 0.318646 2.52205e-18)
(0.958972 0.310657 1.0398e-17)
(0.9594 0.303413 1.31727e-17)
(0.960712 0.302862 1.50701e-18)
(0.949876 0.30588 1.65045e-18)
(0.938349 0.371707 -3.36586e-21)
(0.938161 0.371547 2.93311e-21)
(0.937941 0.371507 1.44461e-20)
(0.9377 0.371442 2.26145e-20)
(0.937438 0.371375 -6.79073e-20)
(0.937151 0.371314 3.92082e-20)
(0.936841 0.371254 -6.93731e-20)
(0.936507 0.371199 1.09291e-19)
(0.93615 0.371147 -5.14829e-20)
(0.935773 0.3711 9.03598e-21)
(0.935379 0.371057 9.83423e-20)
(0.934975 0.371019 -2.26339e-19)
(0.934568 0.370985 1.55117e-19)
(0.934168 0.370952 2.07837e-20)
(0.933786 0.370916 3.47574e-20)
(0.933435 0.370874 -1.49636e-19)
(0.933129 0.37082 7.38522e-20)
(0.932881 0.370746 -9.16394e-20)
(0.932706 0.370643 1.83792e-19)
(0.932614 0.370503 -2.72957e-20)
(0.932615 0.370315 -2.39409e-19)
(0.932716 0.370072 9.28009e-20)
(0.932919 0.369758 -6.09968e-21)
(0.933222 0.369377 -3.64302e-19)
(0.933617 0.368913 2.7733e-19)
(0.934093 0.368375 2.16525e-19)
(0.934634 0.36776 1.58796e-19)
(0.935219 0.367089 -1.95678e-19)
(0.935823 0.366365 -2.25061e-19)
(0.936421 0.365607 1.05734e-19)
(0.936994 0.364797 1.85846e-19)
(0.93753 0.36395 -2.27451e-19)
(0.938019 0.363105 -3.77227e-19)
(0.93846 0.362298 7.71195e-19)
(0.938837 0.361566 8.43708e-20)
(0.93913 0.360956 -1.3387e-18)
(0.939323 0.360512 9.37479e-20)
(0.939418 0.36025 1.02254e-18)
(0.939438 0.360168 1.15391e-19)
(0.939417 0.360272 1.46579e-18)
(0.939326 0.360622 -2.16818e-18)
(0.939152 0.361191 -1.6134e-19)
(0.939013 0.361767 -1.38387e-18)
(0.938984 0.362374 5.48582e-19)
(0.939146 0.36289 2.19182e-18)
(0.939541 0.363208 6.5542e-18)
(0.940274 0.363087 8.89916e-19)
(0.941349 0.36236 -3.97287e-18)
(0.9429 0.360666 3.02326e-18)
(0.944824 0.357879 1.08252e-17)
(0.947197 0.35375 -9.04115e-18)
(0.949893 0.348308 1.14688e-17)
(0.952468 0.341799 -7.60765e-18)
(0.955294 0.334146 -3.98822e-18)
(0.957577 0.326058 -1.84399e-17)
(0.959558 0.318179 -9.71651e-19)
(0.960866 0.310863 -6.02891e-18)
(0.961362 0.304279 -5.977e-18)
(0.961605 0.3044 2.98344e-18)
(0.951138 0.308717 -1.51106e-19)
(0.938422 0.372283 4.95741e-21)
(0.938251 0.37213 1.67869e-21)
(0.93805 0.372091 -1.80412e-20)
(0.937831 0.372026 1.72614e-20)
(0.937593 0.371958 -7.6834e-21)
(0.937334 0.371894 1.36251e-20)
(0.937052 0.37183 4.54341e-21)
(0.936747 0.37177 -6.86712e-20)
(0.93642 0.371713 3.04282e-20)
(0.936071 0.371662 -2.0283e-20)
(0.935701 0.371615 1.28689e-20)
(0.935313 0.371575 4.88485e-20)
(0.934913 0.37154 -9.69885e-21)
(0.934507 0.371511 2.99321e-20)
(0.934104 0.371484 -1.28324e-19)
(0.933713 0.371458 5.02874e-20)
(0.933346 0.371429 2.11092e-20)
(0.933017 0.371393 -6.1434e-20)
(0.932738 0.371341 1.2203e-19)
(0.932522 0.371269 3.97179e-20)
(0.932383 0.371166 -5.50244e-21)
(0.932329 0.371026 -4.9433e-20)
(0.932369 0.370833 1.85281e-19)
(0.932507 0.370587 -5.19299e-19)
(0.932743 0.370271 2.80903e-19)
(0.93307 0.369891 1.24605e-19)
(0.933481 0.369437 -2.01742e-19)
(0.933958 0.368927 3.74668e-19)
(0.934483 0.368357 -1.79358e-19)
(0.935034 0.36774 -1.0225e-19)
(0.935594 0.367053 -1.99942e-19)
(0.93615 0.366304 -1.01031e-19)
(0.936689 0.365524 2.48528e-19)
(0.937203 0.364747 -8.12769e-19)
(0.937674 0.364011 1.611e-18)
(0.938081 0.363361 -1.12949e-19)
(0.938405 0.362838 9.35767e-19)
(0.938647 0.362457 -2.49609e-18)
(0.938828 0.362206 -8.32235e-19)
(0.938977 0.362095 2.17945e-20)
(0.939057 0.362173 -7.00087e-19)
(0.939019 0.362415 -1.24556e-19)
(0.938989 0.362591 -2.45084e-18)
(0.939064 0.362749 8.2898e-19)
(0.939326 0.362777 1.13449e-18)
(0.939816 0.362583 -6.09481e-18)
(0.940641 0.36195 7.60684e-18)
(0.941803 0.360746 1.10098e-18)
(0.943442 0.358647 3.20991e-19)
(0.945449 0.355569 -7.28645e-18)
(0.947909 0.351295 2.75769e-18)
(0.950687 0.345883 -5.98961e-18)
(0.953333 0.339581 1.18337e-17)
(0.956235 0.332292 3.04948e-18)
(0.958592 0.324662 -9.92168e-18)
(0.960618 0.317317 4.01046e-18)
(0.961889 0.310541 -1.06434e-17)
(0.962516 0.304496 -1.99171e-18)
(0.961934 0.30507 -1.22512e-17)
(0.951283 0.310564 -2.74203e-18)
(0.938476 0.372743 -1.16722e-21)
(0.938318 0.372593 -4.57134e-21)
(0.938133 0.372556 -3.94805e-21)
(0.937931 0.372492 3.87833e-20)
(0.937713 0.372426 -2.18052e-20)
(0.937475 0.372363 -2.60713e-20)
(0.937218 0.372299 -9.60641e-21)
(0.936939 0.372237 -4.01946e-20)
(0.936639 0.372177 2.60395e-20)
(0.936318 0.372121 4.03667e-21)
(0.935975 0.372068 1.71772e-21)
(0.935612 0.372021 1.11442e-19)
(0.935231 0.371979 -7.99275e-20)
(0.934838 0.371944 -9.62767e-21)
(0.934437 0.371914 9.25816e-20)
(0.934036 0.37189 -5.20572e-20)
(0.933643 0.371867 -2.06573e-20)
(0.933271 0.371846 3.21904e-20)
(0.932931 0.371819 1.06577e-19)
(0.932634 0.371783 5.89115e-20)
(0.932395 0.37173 2.14788e-20)
(0.932225 0.371654 -1.54186e-19)
(0.932134 0.371541 8.11525e-20)
(0.932131 0.37139 1.52172e-19)
(0.932221 0.371185 -3.27669e-19)
(0.932405 0.370927 1.09376e-19)
(0.932679 0.370605 -4.38324e-19)
(0.933033 0.370231 3.67929e-19)
(0.933455 0.3698 3.37549e-19)
(0.933927 0.369317 -5.19035e-19)
(0.934437 0.368753 -2.74851e-19)
(0.934971 0.368108 3.68435e-19)
(0.935516 0.367409 1.28908e-19)
(0.936062 0.366685 -3.6878e-19)
(0.936588 0.365969 -5.07591e-19)
(0.937072 0.365306 -6.27271e-19)
(0.937494 0.364734 3.89588e-19)
(0.937854 0.364261 9.8641e-19)
(0.938169 0.363871 3.52681e-19)
(0.938464 0.363573 -3.41609e-19)
(0.938694 0.363404 3.9089e-18)
(0.938777 0.363344 -4.17701e-19)
(0.938838 0.363152 4.0593e-18)
(0.938999 0.362899 -7.19834e-18)
(0.93934 0.362483 1.14638e-18)
(0.939901 0.361829 1.92071e-19)
(0.940788 0.360742 -3.43084e-19)
(0.941998 0.359119 -5.14822e-18)
(0.943678 0.356671 -8.16862e-18)
(0.945712 0.353349 7.34983e-18)
(0.948196 0.348959 9.84443e-18)
(0.950991 0.343583 5.32184e-18)
(0.953646 0.337466 -1.11865e-17)
(0.956567 0.330492 6.15473e-18)
(0.958957 0.323251 1.58214e-17)
(0.961011 0.31635 5.5575e-18)
(0.962263 0.310022 1.03676e-17)
(0.963055 0.304437 4.49659e-18)
(0.961856 0.305348 1.01962e-17)
(0.950858 0.311953 -5.82046e-18)
(0.938503 0.373157 1.59428e-21)
(0.938355 0.373014 -4.79695e-21)
(0.938181 0.372979 1.72201e-20)
(0.937994 0.372916 4.41575e-21)
(0.937791 0.372848 -2.39519e-20)
(0.937572 0.372782 -2.75574e-20)
(0.937335 0.372714 6.59891e-20)
(0.937079 0.372648 -7.24204e-20)
(0.936804 0.372582 -1.75171e-20)
(0.936508 0.37252 4.56474e-20)
(0.936192 0.37246 4.23314e-20)
(0.935855 0.372405 1.29474e-19)
(0.935499 0.372355 -7.44067e-20)
(0.935127 0.372312 -1.28033e-19)
(0.934742 0.372274 2.87725e-20)
(0.934348 0.372242 -1.05946e-19)
(0.933952 0.372215 8.17623e-20)
(0.933564 0.372193 -1.37803e-19)
(0.933193 0.37217 2.3461e-20)
(0.932848 0.372147 -4.67392e-20)
(0.932544 0.372116 -2.98239e-20)
(0.932292 0.372074 -1.292e-19)
(0.932104 0.372008 1.24017e-20)
(0.93199 0.371917 2.91597e-19)
(0.931959 0.371786 -1.05273e-19)
(0.932016 0.371615 3.11509e-20)
(0.932162 0.371392 9.79081e-20)
(0.932393 0.371127 -1.29749e-19)
(0.932703 0.370809 -3.18422e-20)
(0.93308 0.370441 1.98264e-19)
(0.933515 0.369987 2.18708e-19)
(0.933998 0.369442 -1.62875e-19)
(0.934517 0.368825 -5.72522e-19)
(0.935059 0.368161 -8.71862e-19)
(0.935605 0.367481 1.34128e-18)
(0.936132 0.366824 3.88873e-19)
(0.93662 0.366226 2.53601e-19)
(0.937064 0.365686 1.37582e-18)
(0.937483 0.365184 -1.27241e-18)
(0.937894 0.364727 8.26935e-19)
(0.93825 0.364343 5.42066e-20)
(0.938434 0.364014 3.66084e-20)
(0.938568 0.363495 -1.48517e-18)
(0.938797 0.36288 3.37513e-18)
(0.939199 0.362075 -4.3962e-18)
(0.939809 0.361023 2.57475e-18)
(0.940734 0.359546 -7.0698e-18)
(0.941965 0.357571 1.84528e-18)
(0.943652 0.354835 4.31091e-18)
(0.945676 0.351317 -7.41377e-18)
(0.948143 0.346843 -1.89374e-18)
(0.95091 0.341513 -5.58978e-19)
(0.953532 0.335568 -1.84254e-18)
(0.956436 0.328875 -6.05407e-18)
(0.958834 0.321969 4.74662e-19)
(0.960906 0.315447 4.59395e-18)
(0.962152 0.309501 -5.05187e-18)
(0.963129 0.30432 -1.31772e-18)
(0.961473 0.305512 -1.6665e-18)
(0.950185 0.313203 4.05611e-18)
(0.938531 0.37349 3.13685e-21)
(0.93839 0.373342 -2.68103e-21)
(0.938224 0.373305 2.44944e-21)
(0.938047 0.373241 1.5785e-20)
(0.937856 0.373173 2.30107e-20)
(0.93765 0.373108 -9.10605e-20)
(0.937428 0.37304 6.64769e-20)
(0.93719 0.372974 1.38228e-20)
(0.936934 0.372907 -4.42355e-21)
(0.93666 0.372842 -3.08864e-20)
(0.936367 0.372778 9.49726e-20)
(0.936053 0.372718 -3.1511e-20)
(0.935721 0.372661 -4.37948e-20)
(0.935371 0.37261 -1.32048e-19)
(0.935005 0.372564 2.66644e-19)
(0.934626 0.372524 -5.62698e-20)
(0.934239 0.372489 -4.70171e-20)
(0.93385 0.372462 -1.42698e-19)
(0.933467 0.372436 1.59603e-19)
(0.933099 0.372414 8.93527e-20)
(0.932757 0.37239 -4.38156e-20)
(0.932451 0.372362 7.11872e-20)
(0.932194 0.372319 -3.13398e-19)
(0.931997 0.372262 2.23089e-20)
(0.93187 0.372176 1.77041e-19)
(0.931821 0.372062 -3.27651e-20)
(0.931856 0.371907 -5.79104e-19)
(0.931975 0.37172 4.7819e-20)
(0.932176 0.371489 5.3356e-19)
(0.932454 0.371212 -1.53463e-19)
(0.932803 0.37085 -2.89092e-19)
(0.933217 0.37039 1.89129e-19)
(0.933685 0.369849 5.3616e-19)
(0.934197 0.369246 1.30614e-18)
(0.934734 0.368606 -1.99912e-19)
(0.935274 0.367966 3.29935e-19)
(0.935795 0.367355 -2.29987e-18)
(0.936295 0.366769 -6.63765e-19)
(0.936786 0.366179 4.48954e-19)
(0.937283 0.36559 -1.94654e-18)
(0.937737 0.365025 -4.10899e-19)
(0.938003 0.364462 9.28274e-19)
(0.938191 0.363663 7.93256e-19)
(0.93847 0.362737 2.08176e-18)
(0.938915 0.361603 6.62864e-18)
(0.939558 0.360214 -5.11966e-18)
(0.940501 0.358415 7.98013e-18)
(0.941734 0.35615 5.84644e-18)
(0.943404 0.353185 -3.27591e-20)
(0.945392 0.34952 7.36719e-18)
(0.947815 0.344993 -9.97322e-18)
(0.950526 0.339719 -1.20406e-17)
(0.953092 0.333938 9.40445e-18)
(0.955956 0.327496 8.00812e-18)
(0.958347 0.320887 -3.16064e-18)
(0.96043 0.314692 -1.79596e-17)
(0.961684 0.309076 4.03023e-18)
(0.962855 0.304257 -3.27645e-18)
(0.960866 0.305703 -4.10341e-18)
(0.949432 0.314435 2.58453e-18)
(0.938572 0.37381 -3.55679e-21)
(0.938436 0.373666 3.93355e-21)
(0.938276 0.373629 2.6854e-20)
(0.938105 0.373564 -3.54194e-20)
(0.937922 0.373494 6.46942e-20)
(0.937725 0.373426 -9.59882e-20)
(0.937513 0.373354 2.75143e-20)
(0.937286 0.373284 -1.2532e-21)
(0.937044 0.373213 6.18767e-20)
(0.936785 0.373144 -3.31729e-20)
(0.936508 0.373075 9.94762e-21)
(0.936213 0.37301 1.00544e-20)
(0.935899 0.372947 -1.61188e-19)
(0.935569 0.372887 4.91122e-20)
(0.935222 0.372832 1.14184e-19)
(0.934859 0.372782 3.47122e-21)
(0.934484 0.372736 -1.94931e-19)
(0.934103 0.372697 8.19583e-20)
(0.933721 0.372662 3.80544e-19)
(0.933344 0.372631 -2.52802e-19)
(0.932982 0.372601 -1.95309e-19)
(0.932644 0.372573 1.65733e-19)
(0.932341 0.372535 1.11188e-19)
(0.932085 0.372492 1.23006e-19)
(0.931886 0.372428 -2.4153e-19)
(0.931754 0.372346 -5.32449e-19)
(0.931697 0.372234 4.02242e-19)
(0.931718 0.372098 5.86812e-19)
(0.93182 0.371928 1.80779e-19)
(0.932 0.371718 -3.45758e-19)
(0.93226 0.371425 1.59722e-19)
(0.932596 0.371036 2.95625e-19)
(0.933001 0.370558 -4.78643e-19)
(0.933464 0.370008 -5.12225e-20)
(0.93397 0.369408 -9.18617e-19)
(0.934498 0.368788 -2.45366e-19)
(0.935027 0.368175 -2.85656e-19)
(0.935553 0.367555 6.97245e-19)
(0.936089 0.366897 -1.02424e-18)
(0.936644 0.366201 2.94424e-19)
(0.937169 0.365485 5.28771e-19)
(0.937496 0.364726 1.43522e-19)
(0.937721 0.363692 -3.16186e-18)
(0.938035 0.362507 -4.34054e-18)
(0.938508 0.361099 -3.68185e-18)
(0.939168 0.359435 7.22109e-18)
(0.940115 0.357374 2.60658e-19)
(0.941333 0.354879 -2.75114e-18)
(0.942971 0.351737 1.43086e-18)
(0.944905 0.347966 -8.73368e-18)
(0.947268 0.343413 4.21249e-18)
(0.949905 0.338207 1.16312e-17)
(0.952399 0.332582 -8.54448e-19)
(0.955211 0.326368 -9.91559e-18)
(0.957586 0.320022 4.64421e-18)
(0.959679 0.314114 4.19943e-18)
(0.960952 0.308791 4.39548e-18)
(0.962319 0.304296 8.65063e-18)
(0.960091 0.305986 6.06587e-18)
(0.948687 0.31573 -5.76599e-18)
(0.938597 0.374089 -3.17164e-21)
(0.938465 0.373945 4.61608e-21)
(0.93831 0.37391 9.65301e-22)
(0.938144 0.373846 1.77795e-20)
(0.937967 0.373777 -2.72626e-20)
(0.937776 0.37371 -5.6186e-20)
(0.937573 0.37364 2.04982e-20)
(0.937355 0.373568 -2.71192e-20)
(0.937123 0.373495 6.0074e-20)
(0.936876 0.373422 -1.2118e-20)
(0.936612 0.373348 -4.04334e-20)
(0.936331 0.373276 3.3931e-20)
(0.936033 0.373205 5.55272e-20)
(0.935719 0.373137 1.55079e-19)
(0.935389 0.373072 -2.85698e-19)
(0.935043 0.373011 1.4733e-19)
(0.934682 0.372954 2.18004e-20)
(0.934313 0.372903 -1.48408e-19)
(0.933937 0.372856 -9.3494e-20)
(0.93356 0.372814 3.11045e-19)
(0.93319 0.372774 -3.3004e-19)
(0.932835 0.372737 1.00173e-19)
(0.932504 0.372694 -2.70305e-19)
(0.932208 0.372652 4.64469e-19)
(0.931957 0.372594 -9.62786e-20)
(0.931761 0.372525 -2.72167e-19)
(0.931629 0.372434 2.21934e-19)
(0.931568 0.372328 4.20196e-19)
(0.931583 0.372196 -3.95887e-19)
(0.931675 0.37203 2.43418e-19)
(0.931849 0.371788 -8.67504e-19)
(0.932105 0.371449 -9.78679e-20)
(0.932438 0.37102 3.81114e-19)
(0.932841 0.370514 -2.35372e-19)
(0.9333 0.369947 -5.10068e-19)
(0.933798 0.369348 -1.22727e-18)
(0.934313 0.368736 1.58853e-18)
(0.934843 0.368094 -6.80397e-19)
(0.935398 0.367382 5.05113e-19)
(0.935985 0.366601 1.10922e-18)
(0.936558 0.365762 9.30077e-19)
(0.936927 0.36484 -5.52861e-19)
(0.937174 0.363612 1.88015e-18)
(0.937507 0.362216 3.46221e-18)
(0.937994 0.360587 -3.47934e-19)
(0.93866 0.358702 -4.41558e-18)
(0.939597 0.356434 -5.73697e-18)
(0.940789 0.353761 -4.17288e-19)
(0.942383 0.350489 4.1492e-18)
(0.944253 0.346647 -7.92154e-19)
(0.946545 0.34209 7.28857e-18)
(0.949099 0.336959 -1.12007e-17)
(0.951514 0.331482 -5.93881e-18)
(0.954267 0.325476 -2.07833e-18)
(0.956624 0.319366 -4.53942e-18)
(0.958724 0.313709 2.70808e-18)
(0.960026 0.308646 -3.31839e-18)
(0.961591 0.304446 -1.04867e-17)
(0.959192 0.306374 -8.80183e-18)
(0.947978 0.317075 2.80581e-18)
(0.938596 0.374375 -5.01937e-21)
(0.938467 0.374237 4.08298e-21)
(0.938315 0.374203 3.24725e-21)
(0.938153 0.37414 -2.33053e-20)
(0.93798 0.374069 2.43218e-20)
(0.937796 0.373999 -1.20626e-20)
(0.937599 0.373925 3.96598e-20)
(0.937389 0.373849 -5.95842e-20)
(0.937166 0.373771 3.5374e-21)
(0.936929 0.373694 4.91485e-21)
(0.936677 0.373615 -4.53983e-20)