/*--------------------------------*- C++ -*----------------------------------*\
  =========                 |
  \\      /  F ield         | OpenFOAM: The Open Source CFD Toolbox
   \\    /   O peration     | Website:  https://openfoam.org
    \\  /    A nd           | Version:  6.0
     \\/     M anipulation  |
\*---------------------------------------------------------------------------*/
FoamFile
{
    version     2.0;
    format      ascii;
    class       surfaceScalarField;
    location    "11";
    object      phi;
}
// * * * * * * * * * * * * * * * * * * * * * * * * * * * * * * * * * * * * * //

dimensions      [0 3 -1 0 0 0 0];

internalField   nonuniform List<scalar> 
123526
(
-5.38004e-05
2.30555e-05
5.42038e-05
-5.33653e-05
2.49329e-05
-5.29046e-05
2.69637e-05
-5.24007e-05
2.91606e-05
-5.18654e-05
3.15372e-05
-5.12809e-05
3.41082e-05
-5.06585e-05
3.68897e-05
-4.99804e-05
3.9899e-05
-4.92563e-05
4.31538e-05
-4.84671e-05
4.66752e-05
-4.76227e-05
5.04857e-05
-4.67041e-05
5.46085e-05
-4.57191e-05
5.90692e-05
-4.46453e-05
6.38931e-05
-4.34878e-05
6.91118e-05
-4.22295e-05
7.47623e-05
-4.08746e-05
8.08767e-05
-3.9396e-05
8.74864e-05
-3.77973e-05
9.46419e-05
-3.60624e-05
0.00010239
-3.41812e-05
0.000110766
-3.21339e-05
0.000119831
-2.99217e-05
0.000129648
-2.75084e-05
0.000140255
-2.48963e-05
0.000151745
-2.20579e-05
0.000164168
-1.89757e-05
0.000177604
-1.56337e-05
0.00019214
-1.20008e-05
0.000207846
-8.0645e-06
0.000224833
-3.78788e-06
0.000243173
8.46336e-07
0.000262987
5.87315e-06
0.000284363
1.13211e-05
0.000307417
1.72166e-05
0.00033226
2.36048e-05
0.000358981
3.05064e-05
0.000387712
3.79624e-05
0.000418528
4.60151e-05
0.000451516
5.4697e-05
0.00048675
6.40515e-05
0.000524255
7.41296e-05
0.000564016
8.49762e-05
0.000605973
9.66397e-05
0.000649977
0.000109171
0.000695772
0.000122615
0.000742968
0.000137003
0.000791011
0.000152344
0.000839137
0.000168607
0.000886333
0.000185726
0.00093127
0.000203587
0.000972211
0.000222049
0.00100686
0.000240929
0.00103217
0.000260009
0.00104414
0.000279014
0.0010376
0.000297532
0.00100616
0.000315121
0.000941756
0.000331004
0.000836345
0.000343547
0.000674115
0.000420612
0.000336279
-5.33644e-05
2.26743e-05
5.3753e-05
-5.2941e-05
2.45187e-05
-5.24893e-05
2.65137e-05
-5.19925e-05
2.86719e-05
-5.14612e-05
3.10067e-05
-5.08785e-05
3.35328e-05
-5.02544e-05
3.62661e-05
-4.95728e-05
3.92237e-05
-4.8842e-05
4.24225e-05
-4.80454e-05
4.58839e-05
-4.71917e-05
4.96308e-05
-4.62641e-05
5.36854e-05
-4.52697e-05
5.8073e-05
-4.41886e-05
6.2816e-05
-4.30251e-05
6.79468e-05
-4.17646e-05
7.35058e-05
-4.04101e-05
7.95214e-05
-3.89372e-05
8.60176e-05
-3.73482e-05
9.30531e-05
-3.56294e-05
0.000100675
-3.3769e-05
0.000108906
-3.17498e-05
0.000117816
-2.95711e-05
0.000127471
-2.7199e-05
0.000137886
-2.46341e-05
0.000149182
-2.18513e-05
0.000161388
-1.88316e-05
0.000174586
-1.55609e-05
0.000188872
-1.20075e-05
0.000204295
-8.16027e-06
0.000220988
-3.98246e-06
0.000238997
5.41827e-07
0.000258465
5.44751e-06
0.000279461
1.07623e-05
0.000302106
1.65144e-05
0.000326512
2.27494e-05
0.000352752
2.949e-05
0.000380976
3.67795e-05
0.000411245
4.46631e-05
0.000443639
5.31768e-05
0.000478243
6.23678e-05
0.00051507
7.22901e-05
0.0005541
8.29902e-05
0.000595281
9.45154e-05
0.000638461
0.000106911
0.000683387
0.000120211
0.000729681
0.000134431
0.000776805
0.000149564
0.000824021
0.000165564
0.00087035
0.000182359
0.000914495
0.00019984
0.000954747
0.00021789
0.000988828
0.000236352
0.00101373
0.000255037
0.00102548
0.000273692
0.00101897
0.000291919
0.000987958
0.000309226
0.000924476
0.00032492
0.000820678
0.00033409
0.000664922
0.000425263
0.00032941
-5.27592e-05
2.23052e-05
5.31356e-05
-5.23512e-05
2.41194e-05
-5.19173e-05
2.60815e-05
-5.14411e-05
2.82033e-05
-5.0932e-05
3.04984e-05
-5.03734e-05
3.29811e-05
-4.9774e-05
3.56671e-05
-4.91177e-05
3.85735e-05
-4.84116e-05
4.1716e-05
-4.7639e-05
4.51167e-05
-4.6808e-05
4.8799e-05
-4.59019e-05
5.27842e-05
-4.49272e-05
5.70973e-05
-4.38647e-05
6.1758e-05
-4.27185e-05
6.67997e-05
-4.14747e-05
7.22663e-05
-4.01364e-05
7.81828e-05
-3.86805e-05
8.45658e-05
-3.71092e-05
9.1482e-05
-3.54098e-05
9.89793e-05
-3.3571e-05
0.000107069
-3.15765e-05
0.000115824
-2.94257e-05
0.000125322
-2.7086e-05
0.00013555
-2.45579e-05
0.000146655
-2.18173e-05
0.00015865
-1.88453e-05
0.000171616
-1.56285e-05
0.000185658
-1.21356e-05
0.000200804
-8.35611e-06
0.000217211
-4.25377e-06
0.000234898
1.8664e-07
0.000254028
4.99976e-06
0.00027465
1.02159e-05
0.000296894
1.58629e-05
0.00032087
2.19876e-05
0.000346632
2.86138e-05
0.000374355
3.5786e-05
0.000404077
4.35504e-05
0.000435879
5.19436e-05
0.000469854
6.10129e-05
0.000506005
7.08108e-05
0.000544306
8.13804e-05
0.000584715
9.2763e-05
0.000627082
0.000104995
0.000671158
0.0001181
0.000716579
0.000132084
0.000762824
0.000146931
0.000809179
0.000162595
0.000854689
0.000179015
0.000898081
0.000196101
0.000937664
0.00021376
0.000971179
0.000231857
0.00099564
0.000250219
0.00100712
0.000268592
0.00100059
0.000286582
0.000969954
0.000303594
0.000907433
0.000319049
0.000805192
0.000329332
0.00065458
0.000424851
0.000329665
-5.18068e-05
2.19414e-05
5.21752e-05
-5.14087e-05
2.37287e-05
-5.09876e-05
2.56612e-05
-5.05287e-05
2.77509e-05
-5.00408e-05
3.00106e-05
-4.95082e-05
3.24544e-05
-4.89387e-05
3.50976e-05
-4.83169e-05
3.79568e-05
-4.76486e-05
4.10469e-05
-4.69178e-05
4.43901e-05
-4.61303e-05
4.80102e-05
-4.52703e-05
5.19276e-05
-4.4342e-05
5.61672e-05
-4.33268e-05
6.0746e-05
-4.2227e-05
6.56983e-05
-4.10294e-05
7.10719e-05
-3.97357e-05
7.68883e-05
-3.83234e-05
8.31569e-05
-3.67941e-05
8.99528e-05
-3.5136e-05
9.73245e-05
-3.33374e-05
0.000105271
-3.13832e-05
0.000113873
-2.92726e-05
0.000123213
-2.69742e-05
0.000133254
-2.44886e-05
0.000144172
-2.17925e-05
0.000155956
-1.88677e-05
0.000168694
-1.57011e-05
0.000182494
-1.22624e-05
0.000197368
-8.54107e-06
0.000213492
-4.50176e-06
0.000230861
-1.2957e-07
0.000249658
4.61144e-06
0.000269912
9.75028e-06
0.000291758
1.53161e-05
0.000315309
2.13547e-05
0.000340598
2.789e-05
0.000367825
3.4966e-05
0.000397006
4.26277e-05
0.000428222
5.09107e-05
0.000461575
5.98597e-05
0.000497061
6.95235e-05
0.000534647
7.99407e-05
0.000574303
9.11466e-05
0.000615882
0.000103171
0.00065914
0.000116032
0.000703726
0.000129731
0.000749134
0.000144253
0.000794668
0.00015956
0.000839391
0.000175607
0.000882047
0.000192321
0.000920961
0.000209629
0.000953886
0.000227409
0.00097787
0.000245493
0.000989042
0.000263617
0.000982466
0.000281391
0.000952178
0.000298133
0.000890678
0.000313315
0.000789987
0.000324505
0.000643321
0.000422269
0.000326987
-5.09002e-05
2.158e-05
5.12697e-05
-5.05033e-05
2.33405e-05
-5.00844e-05
2.52445e-05
-4.96294e-05
2.73034e-05
-4.91475e-05
2.953e-05
-4.86242e-05
3.19378e-05
-4.80675e-05
3.45417e-05
-4.74626e-05
3.73579e-05
-4.68155e-05
4.03998e-05
-4.611e-05
4.369e-05
-4.53526e-05
4.72523e-05
-4.45263e-05
5.11062e-05
-4.36359e-05
5.5276e-05
-4.26616e-05
5.97761e-05
-4.16057e-05
6.46418e-05
-4.0454e-05
6.99242e-05
-3.92077e-05
7.56417e-05
-3.78439e-05
8.17969e-05
-3.63636e-05
8.84728e-05
-3.47546e-05
9.57189e-05
-3.30052e-05
0.000103522
-3.11e-05
0.000111971
-2.90383e-05
0.000121152
-2.67893e-05
0.000131008
-2.43535e-05
0.000141737
-2.17081e-05
0.000153313
-1.88355e-05
0.000165823
-1.5723e-05
0.000179383
-1.23407e-05
0.000193988
-8.67862e-06
0.000209832
-4.70173e-06
0.000226886
-3.94907e-07
0.000245354
4.27617e-06
0.000265243
9.34204e-06
0.000286696
1.48292e-05
0.000309825
2.07833e-05
0.000334648
2.72271e-05
0.000361385
3.42033e-05
0.000390034
4.17554e-05
0.000420673
4.99166e-05
0.000453417
5.87291e-05
0.00048825
6.82382e-05
0.00052514
7.84784e-05
0.000564064
8.94811e-05
0.000604879
0.000101272
0.00064735
0.000113867
0.000691131
0.000127268
0.000735732
0.000141465
0.000780472
0.000156429
0.000824426
0.000172127
0.000866351
0.000188503
0.000904584
0.000205498
0.0009369
0.000222994
0.000960378
0.000240823
0.00097121
0.000258714
0.000964567
0.000276272
0.000934602
0.000292777
0.000874141
0.000307644
0.000775088
0.000318809
0.000632102
0.000418968
0.000322047
-5.02849e-05
2.12179e-05
5.0652e-05
-4.98873e-05
2.29498e-05
-4.94654e-05
2.48236e-05
-4.90064e-05
2.68506e-05
-4.85193e-05
2.90432e-05
-4.79907e-05
3.14148e-05
-4.74289e-05
3.398e-05
-4.68206e-05
3.67544e-05
-4.61719e-05
3.97502e-05
-4.54682e-05
4.29902e-05
-4.47153e-05
4.64981e-05
-4.38983e-05
5.02923e-05
-4.30205e-05
5.43965e-05
-4.20641e-05
5.88224e-05
-4.10297e-05
6.36058e-05
-3.99041e-05
6.88014e-05
-3.86874e-05
7.44241e-05
-3.73572e-05
8.04696e-05
-3.59133e-05
8.70289e-05
-3.43438e-05
9.41523e-05
-3.26362e-05
0.000101815
-3.07752e-05
0.000110113
-2.87596e-05
0.000119138
-2.65586e-05
0.000128809
-2.41725e-05
0.000139353
-2.15788e-05
0.000150722
-1.87599e-05
0.000163006
-1.57035e-05
0.000176329
-1.23799e-05
0.000190666
-8.7792e-06
0.000206234
-4.867e-06
0.000222976
-6.28437e-07
0.000241117
3.97149e-06
0.000260647
8.95963e-06
0.00028171
1.43637e-05
0.000304425
2.0227e-05
0.000328789
2.65715e-05
0.000355045
3.34381e-05
0.000383171
4.08688e-05
0.000413246
4.88948e-05
0.000445394
5.75559e-05
0.000479592
6.68948e-05
0.000515804
7.69433e-05
0.000554019
8.77303e-05
0.000594096
9.92801e-05
0.000635804
0.000111608
0.000678808
0.000124719
0.000722627
0.000138609
0.000766591
0.000153257
0.000809785
0.000168641
0.000850976
0.000184714
0.000888517
0.000201427
0.000920199
0.000218664
0.000943148
0.000236253
0.000953624
0.000253914
0.000946902
0.000271249
0.000917256
0.000287536
0.000857832
0.000302078
0.00076051
0.000312994
0.000621105
0.000415099
0.000316745
-4.99142e-05
2.08574e-05
5.02812e-05
-4.95162e-05
2.25593e-05
-4.90921e-05
2.4401e-05
-4.86292e-05
2.63941e-05
-4.81359e-05
2.85508e-05
-4.75998e-05
3.08845e-05
-4.70288e-05
3.34094e-05
-4.64104e-05
3.61411e-05
-4.57509e-05
3.90906e-05
-4.50368e-05
4.22807e-05
-4.42745e-05
4.57354e-05
-4.34499e-05
4.94719e-05
-4.25673e-05
5.35133e-05
-4.16092e-05
5.78682e-05
-4.05771e-05
6.25732e-05
-3.94582e-05
6.76861e-05
-3.82525e-05
7.32183e-05
-3.69382e-05
7.91586e-05
-3.55147e-05
8.56057e-05
-3.39702e-05
9.26108e-05
-3.22916e-05
0.000100137
-3.0464e-05
0.000108288
-2.84852e-05
0.00011716
-2.6325e-05
0.000126651
-2.3983e-05
0.000137012
-2.1437e-05
0.000148178
-1.86691e-05
0.00016024
-1.5667e-05
0.000173329
-1.24014e-05
0.000187403
-8.86255e-06
0.000202697
-5.01606e-06
0.000219132
-8.46837e-07
0.000236951
3.67744e-06
0.000256124
8.5852e-06
0.000276806
1.39008e-05
0.000299112
1.96673e-05
0.000323026
2.59053e-05
0.00034881
3.26546e-05
0.000376425
3.99552e-05
0.000405948
4.78371e-05
0.000437514
5.63382e-05
0.000471093
6.54993e-05
0.000506643
7.53509e-05
0.000544167
8.59207e-05
0.000583526
9.7233e-05
0.00062449
0.000109305
0.000666735
0.000122143
0.000709786
0.000135751
0.000752983
0.000150113
0.00079542
0.000165216
0.000835875
0.00018102
0.000872711
0.000197478
0.00090375
0.000214474
0.000926156
0.00023183
0.000936265
0.000249261
0.000929465
0.000266361
0.00090014
0.000282428
0.00084174
0.00029667
0.000746245
0.000307485
0.000610251
0.00041062
0.000311925
-4.96375e-05
2.05007e-05
4.99972e-05
-4.92444e-05
2.21717e-05
-4.88235e-05
2.39804e-05
-4.83626e-05
2.59381e-05
-4.78692e-05
2.80573e-05
-4.73312e-05
3.0351e-05
-4.67557e-05
3.28338e-05
-4.61316e-05
3.55208e-05
-4.54641e-05
3.84223e-05
-4.47417e-05
4.15613e-05
-4.39696e-05
4.49621e-05
-4.3136e-05
4.86407e-05
-4.22441e-05
5.26198e-05
-4.1279e-05
5.69052e-05
-4.02412e-05
6.1534e-05
-3.912e-05
6.6567e-05
-3.79147e-05
7.20122e-05
-3.66051e-05
7.78515e-05
-3.51902e-05
8.41909e-05
-3.3659e-05
9.10821e-05
-3.19985e-05
9.84774e-05
-3.01937e-05
0.000106486
-2.82425e-05
0.00011521
-2.61147e-05
0.000124526
-2.38098e-05
0.000134709
-2.13054e-05
0.000145676
-1.85838e-05
0.00015752
-1.56326e-05
0.000170379
-1.24226e-05
0.000184195
-8.94389e-06
0.00019922
-5.16267e-06
0.000215353
-1.06433e-06
0.000232854
3.38443e-06
0.000251678
8.20773e-06
0.000271984
1.34319e-05
0.000293891
1.90975e-05
0.000317364
2.52245e-05
0.000342686
3.18515e-05
0.0003698
3.90174e-05
0.000398785
4.67511e-05
0.000429783
5.50891e-05
0.000462757
6.40715e-05
0.000497663
7.37277e-05
0.000534513
8.40856e-05
0.00057317
9.51703e-05
0.000613409
0.000107001
0.000654909
0.000119588
0.000697204
0.000132939
0.000739639
0.000147045
0.00078132
0.000161897
0.000821031
0.000177457
0.000857155
0.000193682
0.000887538
0.000210448
0.000909397
0.000227575
0.00091914
0.000244771
0.000912265
0.000261624
0.000883275
0.00027746
0.00082588
0.000291434
0.000732234
0.000302297
0.000599306
0.000405262
0.000307536
-4.93322e-05
2.0153e-05
4.96875e-05
-4.89466e-05
2.17936e-05
-4.85335e-05
2.35694e-05
-4.80805e-05
2.54916e-05
-4.75945e-05
2.75725e-05
-4.70633e-05
2.98255e-05
-4.64935e-05
3.22647e-05
-4.58732e-05
3.49056e-05
-4.52082e-05
3.77574e-05
-4.44859e-05
4.08436e-05
-4.37128e-05
4.41889e-05
-4.28763e-05
4.78084e-05
-4.19813e-05
5.17244e-05
-4.10122e-05
5.594e-05
-3.99714e-05
6.04929e-05
-3.88478e-05
6.5447e-05
-3.76422e-05
7.08066e-05
-3.63347e-05
7.65471e-05
-3.49251e-05
8.27816e-05
-3.34026e-05
8.95623e-05
-3.17547e-05
9.68302e-05
-2.99671e-05
0.0001047
-2.80374e-05
0.000113281
-2.59363e-05
0.000122427
-2.36628e-05
0.000132437
-2.1195e-05
0.00014321
-1.85152e-05
0.000154842
-1.5611e-05
0.000167477
-1.24535e-05
0.000181039
-9.03292e-06
0.000195801
-5.31564e-06
0.000211637
-1.28684e-06
0.000228827
3.08386e-06
0.000247308
7.8231e-06
0.000267248
1.29536e-05
0.000288763
1.85164e-05
0.000311804
2.45306e-05
0.000336675
3.10337e-05
0.0003633
3.80639e-05
0.000391756
4.56491e-05
0.000422199
5.38255e-05
0.000454581
6.26322e-05
0.000488856
7.20991e-05
0.000525045
8.22543e-05
0.000563013
9.31245e-05
0.000602537
0.000104731
0.0006433
0.000117088
0.000684844
0.000130205
0.000726521
0.000144079
0.000767443
0.000158703
0.000806408
0.000174039
0.000841816
0.000190043
0.000871545
0.000206586
0.000892859
0.000223482
0.000902243
0.000240436
0.000895305
0.000257031
0.000866669
0.000272622
0.000810274
0.00028635
0.000718492
0.000297303
0.000588331
0.000399277
0.000303275
-4.89526e-05
1.98138e-05
4.92953e-05
-4.85786e-05
2.14249e-05
-4.81772e-05
2.31686e-05
-4.77367e-05
2.50558e-05
-4.72631e-05
2.7099e-05
-4.67444e-05
2.93111e-05
-4.61863e-05
3.17065e-05
-4.55776e-05
3.43006e-05
-4.49226e-05
3.71017e-05
-4.42101e-05
4.01339e-05
-4.34448e-05
4.34222e-05
-4.26155e-05
4.69812e-05
-4.17255e-05
5.08327e-05
-4.07613e-05
5.49776e-05
-3.9724e-05
5.94541e-05
-3.86043e-05
6.43291e-05
-3.74024e-05
6.96038e-05
-3.61e-05
7.52468e-05
-3.46968e-05
8.13783e-05
-3.31832e-05
8.8051e-05
-3.1547e-05
9.51945e-05
-2.97747e-05
0.00010293
-2.78642e-05
0.000111372
-2.57867e-05
0.000120351
-2.35415e-05
0.000130193
-2.1107e-05
0.000140777
-1.84659e-05
0.000152202
-1.56057e-05
0.000164618
-1.24982e-05
0.000177933
-9.13337e-06
0.000192438
-5.47841e-06
0.000207984
-1.51924e-06
0.00022487
2.77603e-06
0.000243016
7.42968e-06
0.000262595
1.24671e-05
0.000283729
1.79271e-05
0.000306347
2.38287e-05
0.000330776
3.02089e-05
0.000356921
3.7105e-05
0.000384862
4.45447e-05
0.000414761
5.25637e-05
0.000446563
6.12012e-05
0.00048022
7.04871e-05
0.000515762
8.04507e-05
0.000553052
9.11199e-05
0.000591871
0.000102518
0.000631906
0.000114663
0.000672704
0.000127566
0.000713624
0.000141226
0.000753788
0.000155638
0.000792005
0.000170762
0.000826695
0.000186551
0.000855769
0.000202872
0.000876545
0.000219532
0.000885585
0.000236237
0.000878598
0.000252564
0.000850331
0.000267896
0.00079492
0.00028139
0.000704962
0.000292387
0.000577259
0.000392645
0.000298905
-4.84863e-05
1.94848e-05
4.8821e-05
-4.81231e-05
2.10677e-05
-4.77337e-05
2.27805e-05
-4.73067e-05
2.46341e-05
-4.68475e-05
2.66405e-05
-4.63446e-05
2.88128e-05
-4.58028e-05
3.11651e-05
-4.52108e-05
3.37127e-05
-4.45725e-05
3.64633e-05
-4.38759e-05
3.94413e-05
-4.31261e-05
4.26722e-05
-4.23111e-05
4.617e-05
-4.14349e-05
4.99562e-05
-4.04831e-05
5.40294e-05
-3.94578e-05
5.84286e-05
-3.83492e-05
6.32238e-05
-3.71584e-05
6.84131e-05
-3.58674e-05
7.39587e-05
-3.44763e-05
7.99876e-05
-3.2976e-05
8.65532e-05
-3.13549e-05
9.3574e-05
-2.96001e-05
0.000101178
-2.77098e-05
0.000109482
-2.56562e-05
0.0001183
-2.34388e-05
0.000127977
-2.10366e-05
0.000138377
-1.84326e-05
0.0001496
-1.56148e-05
0.000161802
-1.25554e-05
0.000174875
-9.24483e-06
0.000189129
-5.65061e-06
0.000204392
-1.75859e-06
0.00022098
2.46007e-06
0.000238797
7.0311e-06
0.000258027
1.19762e-05
0.000278785
1.73351e-05
0.00030099
2.31264e-05
0.000324986
2.93866e-05
0.000350663
3.61524e-05
0.000378097
4.34515e-05
0.000407462
5.13194e-05
0.000438695
5.97953e-05
0.000471743
6.89097e-05
0.000506645
7.86929e-05
0.000543267
8.91739e-05
0.000581387
0.000100378
0.000620699
0.000112324
0.000660754
0.000125028
0.00070092
0.000138487
0.000740326
0.000152696
0.000777796
0.000167614
0.000811774
0.000183191
0.000840204
0.000199286
0.000860456
0.000215704
0.000869167
0.000232151
0.000862148
0.000248202
0.000834272
0.000263267
0.000779846
0.000276527
0.000691698
0.000287485
0.000566292
0.000385797
0.000294339
-4.79503e-05
1.91635e-05
4.82731e-05
-4.75978e-05
2.07192e-05
-4.72198e-05
2.24023e-05
-4.68057e-05
2.42236e-05
-4.63603e-05
2.61947e-05
-4.58727e-05
2.83285e-05
-4.53468e-05
3.0639e-05
-4.47725e-05
3.31413e-05
-4.41522e-05
3.58422e-05
-4.34754e-05
3.87666e-05
-4.27449e-05
4.19404e-05
-4.19503e-05
4.53769e-05
-4.10933e-05
4.90977e-05
-4.01614e-05
5.30988e-05
-3.91546e-05
5.74204e-05
-3.80648e-05
6.21354e-05
-3.68915e-05
6.72391e-05
-3.56183e-05
7.26873e-05
-3.42449e-05
7.86141e-05
-3.2763e-05
8.50733e-05
-3.11612e-05
9.19727e-05
-2.94275e-05
9.9446e-05
-2.75602e-05
0.000107616
-2.55326e-05
0.000116274
-2.33443e-05
0.000125789
-2.0975e-05
0.000136009
-1.84082e-05
0.000147034
-1.56324e-05
0.000159028
-1.26205e-05
0.000171865
-9.36285e-06
0.000185873
-5.82816e-06
0.000200858
-2.00317e-06
0.000217155
2.14285e-06
0.000234654
6.63115e-06
0.000253539
1.14867e-05
0.000273932
1.67472e-05
0.000295731
2.24315e-05
0.000319304
2.85756e-05
0.00034452
3.52162e-05
0.000371458
4.23806e-05
0.000400298
5.01045e-05
0.000430972
5.8427e-05
0.000463422
6.73793e-05
0.000497695
7.69923e-05
0.000533656
8.72963e-05
0.000571086
9.8318e-05
0.000609682
0.000110077
0.000648999
0.000122591
0.000688413
0.000135856
0.000727065
0.000149868
0.000763792
0.000164581
0.000797064
0.000179942
0.000824858
0.000195806
0.000844601
0.000211975
0.000853001
0.000228155
0.000845967
0.000243925
0.000818494
0.000258717
0.000765036
0.000271741
0.000678639
0.000282577
0.000555385
0.000378691
0.000289577
-4.73555e-05
1.88511e-05
4.76751e-05
-4.70106e-05
2.03809e-05
-4.66418e-05
2.20356e-05
-4.62386e-05
2.38259e-05
-4.58058e-05
2.57632e-05
-4.53325e-05
2.78601e-05
-4.48232e-05
3.01304e-05
-4.42664e-05
3.2589e-05
-4.36657e-05
3.52417e-05
-4.30089e-05
3.81139e-05
-4.23001e-05
4.12318e-05
-4.15272e-05
4.4608e-05
-4.06934e-05
4.82638e-05
-3.97843e-05
5.21932e-05
-3.88011e-05
5.64372e-05
-3.77345e-05
6.1072e-05
-3.65849e-05
6.60897e-05
-3.53351e-05
7.14403e-05
-3.39855e-05
7.72647e-05
-3.25275e-05
8.36176e-05
-3.09505e-05
9.03962e-05
-2.92425e-05
9.774e-05
-2.74023e-05
0.000105776
-2.54039e-05
0.000114277
-2.32472e-05
0.000123634
-2.09126e-05
0.000133676
-1.83843e-05
0.000144507
-1.56511e-05
0.000156296
-1.26865e-05
0.000168901
-9.48167e-06
0.000182669
-6.00567e-06
0.000197384
-2.24524e-06
0.000213397
1.82715e-06
0.000230581
6.23682e-06
0.000249131
1.10048e-05
0.000269165
1.61702e-05
0.000290567
2.17515e-05
0.000313724
2.77843e-05
0.000338488
3.43049e-05
0.000364937
4.1341e-05
0.000393262
4.89278e-05
0.000423384
5.71048e-05
0.000455243
6.59034e-05
0.000488894
7.53552e-05
0.000524202
8.54912e-05
0.000560947
9.6339e-05
0.000598831
0.000107919
0.000637416
0.000120248
0.000676083
0.000133324
0.000713985
0.00014714
0.000749979
0.000161645
0.000782554
0.000176786
0.00080973
0.000192412
0.000828981
0.000208325
0.00083709
0.000224232
0.000830058
0.000239716
0.000803005
0.00025423
0.000750519
0.000267014
0.000665858
0.000277666
0.000544737
0.000371709
0.000284671
-4.67242e-05
1.85444e-05
4.70334e-05
-4.63882e-05
2.00489e-05
-4.60285e-05
2.16763e-05
-4.56355e-05
2.34367e-05
-4.52138e-05
2.53414e-05
-4.47531e-05
2.74029e-05
-4.42572e-05
2.96344e-05
-4.37163e-05
3.20509e-05
-4.31324e-05
3.46571e-05
-4.2495e-05
3.74786e-05
-4.18065e-05
4.0542e-05
-4.10564e-05
4.38592e-05
-4.02454e-05
4.74513e-05
-3.93613e-05
5.13102e-05
-3.84031e-05
5.54776e-05
-3.73627e-05
6.00327e-05
-3.62391e-05
6.49652e-05
-3.50162e-05
7.0219e-05
-3.36936e-05
7.59419e-05
-3.22633e-05
8.21891e-05
-3.07145e-05
8.88477e-05
-2.90358e-05
9.60632e-05
-2.72262e-05
0.000103968
-2.52602e-05
0.000112313
-2.31379e-05
0.000121512
-2.08404e-05
0.00013138
-1.83523e-05
0.00014202
-1.56628e-05
0.000153607
-1.27464e-05
0.000165986
-9.59422e-06
0.000179518
-6.17655e-06
0.000193967
-2.48105e-06
0.000209702
1.5219e-06
0.00022658
5.85291e-06
0.0002448
1.05367e-05
0.000264483
1.56103e-05
0.000285495
2.10925e-05
0.000308243
2.70185e-05
0.000332563
3.34245e-05
0.000358532
4.0338e-05
0.000386349
4.77943e-05
0.000415929
5.58326e-05
0.000447206
6.44848e-05
0.000480243
7.37827e-05
0.000514906
8.37577e-05
0.000550975
9.44378e-05
0.000588155
0.000105844
0.000626014
0.000117992
0.000663942
0.000130879
0.000701102
0.000144496
0.00073637
0.000158791
0.000768262
0.000173706
0.000794831
0.000189088
0.000813609
0.000204738
0.000821446
0.000220367
0.000814429
0.000235562
0.000787802
0.000249798
0.000736267
0.000262339
0.000653286
0.000272766
0.000534246
0.000364696
0.000279681
-4.60626e-05
1.82448e-05
4.63673e-05
-4.57334e-05
1.97248e-05
-4.53814e-05
2.13256e-05
-4.49975e-05
2.30571e-05
-4.45858e-05
2.49305e-05
-4.41368e-05
2.69577e-05
-4.3654e-05
2.9152e-05
-4.31275e-05
3.15279e-05
-4.25597e-05
3.40894e-05
-4.19397e-05
3.68621e-05
-4.12705e-05
3.98729e-05
-4.05408e-05
4.31329e-05
-3.97525e-05
4.6663e-05
-3.8892e-05
5.04529e-05
-3.79594e-05
5.45451e-05
-3.69455e-05
5.90218e-05
-3.58499e-05
6.38698e-05
-3.46561e-05
6.90277e-05
-3.33634e-05
7.46496e-05
-3.19639e-05
8.07916e-05
-3.04468e-05
8.73311e-05
-2.88009e-05
9.4419e-05
-2.7025e-05
0.000102192
-2.50944e-05
0.000110384
-2.30092e-05
0.000119428
-2.07511e-05
0.000129123
-1.8305e-05
0.000139575
-1.56608e-05
0.000150964
-1.27934e-05
0.00016312
-9.69462e-06
0.00017642
-6.3351e-06
0.000190609
-2.70245e-06
0.000206071
1.22959e-06
0.000222648
5.48605e-06
0.000240546
1.00875e-05
0.000259882
1.50725e-05
0.000280511
2.04593e-05
0.000302857
2.62829e-05
0.00032674
3.25791e-05
0.000352235
3.93752e-05
0.000379552
4.67064e-05
0.000408596
5.46119e-05
0.000439298
6.31235e-05
0.000471729
7.2273e-05
0.000505753
8.2092e-05
0.000541152
9.26085e-05
0.000577635
0.000103843
0.000614775
0.000115811
0.000651972
0.000128509
0.000688401
0.000141925
0.000722955
0.000156004
0.000754178
0.000170688
0.000780161
0.00018582
0.000798484
0.000201201
0.000806067
0.000216548
0.000799082
0.000231454
0.000772893
0.000245411
0.000722312
0.000257708
0.000640997
0.00026789
0.000524078
0.00035796
0.000274663
-4.53853e-05
1.79496e-05
4.56806e-05
-4.50635e-05
1.94057e-05
-4.47189e-05
2.09806e-05
-4.43431e-05
2.26839e-05
-4.394e-05
2.45267e-05
-4.35007e-05
2.65208e-05
-4.30282e-05
2.86791e-05
-4.25141e-05
3.10158e-05
-4.19595e-05
3.3534e-05
-4.13556e-05
3.62595e-05
-4.07034e-05
3.92194e-05
-3.99937e-05
4.24241e-05
-3.92261e-05
4.5894e-05
-3.83894e-05
4.96167e-05
-3.74812e-05
5.36356e-05
-3.64942e-05
5.80356e-05
-3.54261e-05
6.2801e-05
-3.42617e-05
6.78645e-05
-3.29993e-05
7.33871e-05
-3.16316e-05
7.94254e-05
-3.01474e-05
8.58472e-05
-2.85359e-05
9.28091e-05
-2.67957e-05
0.000100453
-2.49025e-05
0.000108492
-2.28565e-05
0.000117383
-2.06397e-05
0.000126907
-1.82374e-05
0.000137174
-1.56398e-05
0.000148368
-1.28225e-05
0.000160303
-9.7773e-06
0.000173376
-6.47603e-06
0.000187308
-2.90711e-06
0.000202502
9.58033e-07
0.000218784
5.13936e-06
0.000236363
9.66148e-06
0.000255361
1.45606e-05
0.000275613
1.98552e-05
0.000297562
2.55799e-05
0.000321015
3.17702e-05
0.000346045
3.84533e-05
0.000372869
4.56639e-05
0.000401386
5.34411e-05
0.000431522
6.18164e-05
0.000463355
7.08216e-05
0.00049675
8.04879e-05
0.000531489
9.08432e-05
0.000567284
0.000101907
0.000603716
0.000113695
0.000640191
0.000126201
0.000675899
0.000139413
0.000709752
0.000153272
0.000740321
0.000167719
0.000765731
0.000182596
0.000783618
0.000197706
0.000790965
0.000212768
0.000784021
0.000227385
0.00075827
0.000241065
0.000708619
0.000253119
0.000628914
0.000263051
0.000514087
0.000351264
0.000269656
-4.4693e-05
1.76614e-05
4.49878e-05
-4.43759e-05
1.90942e-05
-4.40371e-05
2.06437e-05
-4.36682e-05
2.23197e-05
-4.3273e-05
2.41328e-05
-4.28428e-05
2.60947e-05
-4.2381e-05
2.82181e-05
-4.18783e-05
3.05169e-05
-4.13373e-05
3.29932e-05
-4.07473e-05
3.56731e-05
-4.01115e-05
3.85839e-05
-3.9419e-05
4.1735e-05
-3.86715e-05
4.51466e-05
-3.78557e-05
4.88041e-05
-3.69713e-05
5.27514e-05
-3.60094e-05
5.70764e-05
-3.49689e-05
6.17606e-05
-3.38335e-05
6.67314e-05
-3.26022e-05
7.2156e-05
-3.12668e-05
7.80919e-05
-2.98167e-05
8.43974e-05
-2.82407e-05
9.12347e-05
-2.65375e-05
9.87501e-05
-2.46831e-05
0.000106639
-2.26777e-05
0.000115378
-2.05035e-05
0.000124734
-1.81462e-05
0.000134817
-1.55963e-05
0.000145819
-1.28297e-05
0.000157537
-9.83897e-06
0.000170386
-6.59592e-06
0.000184066
-3.08886e-06
0.000198996
7.07313e-07
0.000214987
4.81726e-06
0.000232255
9.26119e-06
0.000250917
1.40768e-05
0.000270797
1.92819e-05
0.000292357
2.49108e-05
0.000315386
3.09985e-05
0.000339957
3.75718e-05
0.000366294
4.46653e-05
0.00039429
5.23174e-05
0.000423867
6.05595e-05
0.00045511
6.9423e-05
0.000487883
7.89387e-05
0.000521969
8.91338e-05
0.000557085
0.000100027
0.000592817
0.000111634
0.000628582
0.000123946
0.000663582
0.00013695
0.00069675
0.000150585
0.000726681
0.000164791
0.00075154
0.00017941
0.000769007
0.000194245
0.000776132
0.000209022
0.000769244
0.000223353
0.000743938
0.000236758
0.000695219
0.000248572
0.000617114
0.000258259
0.000504421
0.00034488
0.000264693
-4.39989e-05
1.73772e-05
4.42845e-05
-4.36887e-05
1.87869e-05
-4.33565e-05
2.03116e-05
-4.29947e-05
2.19607e-05
-4.2607e-05
2.37447e-05
-4.21848e-05
2.56752e-05
-4.17314e-05
2.77644e-05
-4.12388e-05
3.00263e-05
-4.07082e-05
3.24619e-05
-4.01313e-05
3.50975e-05
-3.95092e-05
3.79605e-05
-3.88331e-05
4.10596e-05
-3.81027e-05
4.44147e-05
-3.73071e-05
4.80089e-05
-3.64439e-05
5.18868e-05
-3.55057e-05
5.61389e-05
-3.44903e-05
6.07443e-05
-3.33825e-05
6.56247e-05
-3.21803e-05
7.09536e-05
-3.08763e-05
7.67893e-05
-2.94592e-05
8.29806e-05
-2.79185e-05
8.96954e-05
-2.62523e-05
9.70844e-05
-2.4437e-05
0.000104825
-2.24726e-05
0.000113415
-2.03418e-05
0.000122605
-1.80303e-05
0.000132507
-1.55286e-05
0.000143318
-1.28135e-05
0.000154823
-9.87704e-06
0.00016745
-6.69228e-06
0.000180882
-3.24817e-06
0.000195552
4.82929e-07
0.000211258
4.52027e-06
0.000228216
8.8883e-06
0.000246549
1.36221e-05
0.000266064
1.87398e-05
0.00028724
2.42751e-05
0.00030985
3.02625e-05
0.000333969
3.67286e-05
0.000359828
4.37074e-05
0.000387311
5.12368e-05
0.000416338
5.93477e-05
0.000447
6.80711e-05
0.000479161
7.74372e-05
0.000512606
8.74724e-05
0.000547054
9.81951e-05
0.000582099
0.000109618
0.000617165
0.000121734
0.000651471
0.000134527
0.000683966
0.000147934
0.000713275
0.000161896
0.000737596
0.000176255
0.000754661
0.000190815
0.00076158
0.000205309
0.000754753
0.000219356
0.000729888
0.000232491
0.000682073
0.000244067
0.000605512
0.00025352
0.000494915
0.00033853
0.000259787
-4.32999e-05
1.7099e-05
4.35824e-05
-4.2995e-05
1.84862e-05
-4.26689e-05
1.99865e-05
-4.23139e-05
2.16092e-05
-4.19334e-05
2.33648e-05
-4.15196e-05
2.52644e-05
-4.10753e-05
2.73204e-05
-4.05923e-05
2.95462e-05
-4.00726e-05
3.19422e-05
-3.9507e-05
3.45348e-05
-3.88978e-05
3.73515e-05
-3.82354e-05
4.04003e-05
-3.75211e-05
4.37005e-05
-3.67426e-05
4.72332e-05
-3.58992e-05
5.10436e-05
-3.49826e-05
5.52249e-05
-3.39912e-05
5.97532e-05
-3.29095e-05
6.4545e-05
-3.17358e-05
6.97802e-05
-3.04623e-05
7.55174e-05
-2.90779e-05
8.15966e-05
-2.75719e-05
8.81908e-05
-2.59424e-05
9.54553e-05
-2.41662e-05
0.00010305
-2.22429e-05
0.000111492
-2.01555e-05
0.000120518
-1.78899e-05
0.000130242
-1.54368e-05
0.000140865
-1.27729e-05
0.000152159
-9.89124e-06
0.000164569
-6.76449e-06
0.000177756
-3.38137e-06
0.00019217
2.82195e-07
0.000207592
4.2504e-06
0.000224249
8.54299e-06
0.000242256
1.31965e-05
0.00026141
1.82284e-05
0.000282207
2.36719e-05
0.000304406
2.95609e-05
0.000328078
3.59215e-05
0.000353465
4.27872e-05
0.000380443
5.01954e-05
0.000408926
5.81763e-05
0.000439015
6.67603e-05
0.000470573
7.5977e-05
0.000503384
8.5852e-05
0.000537175
9.64026e-05
0.000571543
0.000107641
0.000605924
0.000119558
0.000639549
0.000132137
0.000671388
0.000145315
0.000700092
0.000159032
0.000723895
0.000173129
0.000740572
0.000187415
0.000747297
0.000201627
0.000740541
0.000215395
0.00071612
0.000228264
0.000669211
0.000239608
0.000594185
0.00024884
0.000485712
0.000332476
0.000254954
-4.26051e-05
1.68245e-05
4.28786e-05
-4.23067e-05
1.81894e-05
-4.19866e-05
1.96656e-05
-4.16382e-05
2.12624e-05
-4.12642e-05
2.299e-05
-4.08576e-05
2.48593e-05
-4.04204e-05
2.68827e-05
-3.99461e-05
2.90732e-05
-3.94352e-05
3.14305e-05
-3.88807e-05
3.3981e-05
-3.82829e-05
3.67525e-05
-3.76345e-05
3.97521e-05
-3.69343e-05
4.29991e-05
-3.6173e-05
4.6472e-05
-3.53474e-05
5.02168e-05
-3.44514e-05
5.43292e-05
-3.34817e-05
5.87828e-05
-3.24244e-05
6.34887e-05
-3.1277e-05
6.86325e-05
-3.00321e-05
7.42738e-05
-2.86786e-05
8.02433e-05
-2.7206e-05
8.67195e-05
-2.56121e-05
9.38619e-05
-2.3874e-05
0.000101313
-2.19911e-05
0.00010961
-1.99467e-05
0.000118474
-1.77266e-05
0.000128022
-1.53217e-05
0.000138461
-1.27093e-05
0.000149547
-9.88162e-06
0.000161742
-6.81261e-06
0.000174687
-3.49152e-06
0.000188848
1.08461e-07
0.000203994
4.00584e-06
0.00022035
8.22479e-06
0.000238037
1.27991e-05
0.000256836
1.77463e-05
0.000277259
2.30991e-05
0.000299052
2.88908e-05
0.000322286
3.5147e-05
0.000347208
4.19008e-05
0.000373688
4.91885e-05
0.000401638
5.70401e-05
0.000431164
6.54851e-05
0.000462129
7.45524e-05
0.000494319
8.42665e-05
0.000527464
9.4644e-05
0.000561168
0.000105696
0.000594878
0.000117413
0.000627836
0.000129777
0.000659034
0.000142724
0.000687146
0.000156194
0.000710443
0.00017003
0.000726749
0.000184045
0.000733293
0.000197979
0.000726612
0.000211471
0.000702626