/*--------------------------------*- C++ -*----------------------------------*\
  =========                 |
  \\      /  F ield         | OpenFOAM: The Open Source CFD Toolbox
   \\    /   O peration     | Website:  https://openfoam.org
    \\  /    A nd           | Version:  6.0
     \\/     M anipulation  |
\*---------------------------------------------------------------------------*/
FoamFile
{
    version     2.0;
    format      ascii;
    class       volScalarField;
    location    "10";
    object      p;
}
// * * * * * * * * * * * * * * * * * * * * * * * * * * * * * * * * * * * * * //

dimensions      [0 2 -2 0 0 0 0];

internalField   nonuniform List<scalar> 
62000
(
0.0162208
0.0161278
0.0160534
0.0159926
0.0159486
0.0159166
0.0159005
0.0158954
0.015905
0.0159244
0.0159573
0.0159992
0.016054
0.0161171
0.0161931
0.0162778
0.0163764
0.0164854
0.0166103
0.0167487
0.0169062
0.0170817
0.0172812
0.0175051
0.01776
0.0180482
0.0183774
0.0187524
0.0191825
0.0196759
0.0202446
0.0209003
0.0216577
0.0225322
0.0235466
0.0247254
0.0260916
0.0276623
0.0294451
0.0314326
0.0335948
0.0358702
0.0381593
0.0403232
0.0421925
0.0435941
0.0443953
0.0445607
0.0442066
0.0436049
0.0431303
0.0431075
0.0436702
0.0445811
0.0453137
0.0451577
0.0437403
0.0404142
0.0379448
0.0377137
0.0161437
0.016098
0.0160602
0.0160286
0.0160064
0.01599
0.0159837
0.0159839
0.0159947
0.0160123
0.0160407
0.0160763
0.0161231
0.0161778
0.0162444
0.0163199
0.0164089
0.0165089
0.0166246
0.0167544
0.0169034
0.0170709
0.0172625
0.017479
0.0177263
0.0180075
0.0183293
0.0186974
0.0191202
0.0196067
0.0201681
0.0208173
0.0215686
0.0224402
0.0234552
0.0246399
0.0260185
0.0276103
0.0294263
0.0314639
0.0336986
0.036075
0.0384991
0.0408354
0.0429133
0.0445518
0.045602
0.0460079
0.0458681
0.0454559
0.0451822
0.0454496
0.0464968
0.0481715
0.0499568
0.051021
0.0508317
0.0482735
0.0473486
0.0460476
0.0162656
0.0162889
0.0163021
0.0163076
0.0163094
0.0163052
0.0163006
0.0162934
0.0162889
0.0162847
0.0162863
0.0162915
0.0163054
0.0163259
0.0163581
0.0164
0.0164566
0.0165263
0.0166142
0.016719
0.0168458
0.0169943
0.0171697
0.017373
0.0176098
0.0178831
0.018199
0.0185631
0.0189829
0.0194669
0.0200249
0.0206688
0.0214132
0.0222767
0.0232843
0.0244607
0.0258292
0.0274089
0.0292119
0.0312372
0.0334626
0.0358346
0.0382596
0.0405988
0.0426719
0.0442768
0.0452298
0.0454255
0.0449051
0.0438927
0.0427834
0.0420235
0.0419677
0.0426327
0.0436788
0.0444017
0.0443694
0.0423415
0.0424922
0.040923
0.0167013
0.0167285
0.0167424
0.0167446
0.0167399
0.0167258
0.0167078
0.016684
0.0166597
0.0166332
0.0166096
0.0165873
0.0165715
0.0165607
0.0165602
0.0165685
0.016591
0.0166266
0.0166808
0.0167528
0.0168482
0.016967
0.0171146
0.0172924
0.0175059
0.0177583
0.0180557
0.0184038
0.0188099
0.0192819
0.0198288
0.0204613
0.0211943
0.0220502
0.0230532
0.0242298
0.0256031
0.0271943
0.0290192
0.0310823
0.0333682
0.0358306
0.0383829
0.0408912
0.0431731
0.0450131
0.0461966
0.0465661
0.046092
0.044922
0.0433917
0.0419418
0.0409952
0.0407159
0.0409548
0.0411922
0.0411613
0.0396212
0.0404017
0.0404079
0.0170127
0.0169924
0.0169678
0.0169377
0.0169065
0.0168707
0.016835
0.0167968
0.0167607
0.0167241
0.0166919
0.0166618
0.0166385
0.0166199
0.0166108
0.0166093
0.0166204
0.0166428
0.0166817
0.0167364
0.0168123
0.0169099
0.0170346
0.0171885
0.0173772
0.0176047
0.0178776
0.018202
0.0185858
0.0190374
0.019566
0.0201817
0.0209021
0.0217497
0.0227533
0.0239397
0.0253349
0.0269644
0.0288508
0.0310079
0.0334321
0.0360912
0.0389143
0.0417829
0.0445263
0.0469309
0.0487667
0.0498371
0.0500462
0.0494552
0.0483098
0.0469888
0.0459112
0.0453025
0.0451366
0.045031
0.0448397
0.0433178
0.0439722
0.0450486
0.0169901
0.0169227
0.0168584
0.0167948
0.016736
0.0166784
0.0166262
0.0165765
0.0165332
0.0164934
0.016461
0.0164333
0.0164142
0.0164012
0.0163981
0.0164027
0.0164192
0.0164457
0.0164868
0.0165416
0.016615
0.0167071
0.0168235
0.0169659
0.0171405
0.0173514
0.0176056
0.0179102
0.0182737
0.0187056
0.0192156
0.0198149
0.0205212
0.0213613
0.0223621
0.0235543
0.0249654
0.0266258
0.0285649
0.0308063
0.0333594
0.0362084
0.0393021
0.0425441
0.0457849
0.0488261
0.0514385
0.0534037
0.0545746
0.0549325
0.0546226
0.0539313
0.0532146
0.0526922
0.0523852
0.0519886
0.0514158
0.0493963
0.0493077
0.050024
0.0166057
0.0165183
0.0164368
0.0163586
0.0162876
0.0162204
0.016161
0.0161065
0.0160608
0.0160208
0.0159905
0.015967
0.0159542
0.0159489
0.015955
0.0159697
0.0159968
0.0160338
0.0160848
0.0161483
0.0162287
0.0163257
0.0164445
0.0165865
0.0167577
0.0169622
0.0172073
0.0175003
0.0178506
0.0182681
0.0187633
0.0193477
0.0200414
0.0208678
0.0218572
0.023038
0.0244394
0.0260947
0.0280384
0.0303015
0.0329042
0.0358457
0.039094
0.0425762
0.0461685
0.0496953
0.0529413
0.0556834
0.0577422
0.0590372
0.0596233
0.0596877
0.059501
0.0592316
0.0589004
0.0582366
0.0571791
0.0544301
0.0533756
0.0529064
0.016029
0.0159445
0.0158648
0.0157876
0.015717
0.0156498
0.0155903
0.0155358
0.0154903
0.0154511
0.0154219
0.0154002
0.0153895
0.0153872
0.0153967
0.0154155
0.015447
0.0154891
0.0155454
0.0156143
0.0156999
0.0158016
0.015924
0.0160684
0.0162402
0.0164432
0.0166845
0.0169713
0.0173132
0.0177203
0.0182032
0.0187739
0.0194506
0.0202586
0.021222
0.0223697
0.0237291
0.0253342
0.0272218
0.0294272
0.0319782
0.0348855
0.0381334
0.0416709
0.0454
0.0491722
0.0527941
0.0560517
0.0587523
0.0607744
0.0621021
0.0628366
0.0631573
0.0631711
0.0628703
0.0620006
0.0605087
0.0570837
0.0551589
0.0534478
0.0153029
0.0152348
0.01517
0.0151063
0.0150476
0.0149907
0.0149399
0.0148924
0.0148526
0.0148175
0.0147915
0.014772
0.0147631
0.0147619
0.0147724
0.0147919
0.0148242
0.014867
0.0149239
0.0149935
0.0150796
0.0151816
0.0153039
0.0154477
0.0156179
0.0158182
0.0160553
0.0163359
0.0166697
0.0170662
0.0175357
0.0180894
0.0187462
0.0195246
0.0204492
0.0215428
0.022831
0.0243467
0.0261265
0.0282072
0.0306209
0.0333862
0.0365003
0.0399308
0.0436037
0.0473979
0.051146
0.0546523
0.0577254
0.0602229
0.0620795
0.0633288
0.0640721
0.0643515
0.0641254
0.0631469
0.0613704
0.0574814
0.0549268
0.0523195
0.0145598
0.0145112
0.0144635
0.014415
0.0143694
0.0143236
0.014282
0.014242
0.0142077
0.0141767
0.0141529
0.0141342
0.0141244
0.0141212
0.0141283
0.0141436
0.0141708
0.0142081
0.0142592
0.0143228
0.014403
0.014499
0.0146153
0.0147528
0.0149164
0.0151094
0.0153379
0.0156087
0.0159306
0.0163126
0.0167643
0.0172963
0.0179239
0.0186663
0.0195387
0.0205622
0.0217581
0.023157
0.0247937
0.0267043
0.028923
0.0314734
0.0343621
0.0375718
0.0410496
0.0446999
0.0483826
0.051925
0.0551473
0.0579004
0.060089
0.0616985
0.0627651
0.0632799
0.0631653
0.0621844
0.0602938
0.0561816
0.0532502
0.0501574
0.0137507
0.0137226
0.0136939
0.0136631
0.0136334
0.0136019
0.0135724
0.0135424
0.0135161
0.0134908
0.0134709
0.0134541
0.0134446
0.01344
0.0134445
0.0134558
0.0134779
0.013509
0.0135528
0.0136083
0.0136794
0.0137656
0.0138715
0.0139979
0.0141496
0.0143299
0.0145445
0.0147997
0.0151041
0.0154659
0.0158934
0.0163962
0.0169896
0.0176845
0.0184965
0.0194389
0.02053
0.0217977
0.0232739
0.0249932
0.0269898
0.0292903
0.031908
0.0348375
0.0380434
0.041453
0.0449518
0.0483919
0.0516101
0.0544615
0.0568348
0.0586835
0.0599968
0.0607218
0.0607522
0.0598609
0.058006
0.0538739
0.050769
0.0475257
0.0129327
0.0129224
0.0129102
0.0128944
0.0128782
0.0128587
0.0128396
0.0128187
0.0127996
0.0127799
0.0127636
0.0127486
0.0127386
0.0127319
0.0127321
0.0127374
0.0127519
0.0127739
0.0128075
0.0128516
0.0129104
0.0129834
0.0130751
0.0131864
0.0133218
0.0134845
0.0136801
0.0139143
0.0141954
0.0145306
0.0149275
0.0153951
0.0159444
0.016588
0.0173316
0.0181871
0.0191684
0.0203004
0.0216122
0.0231361
0.0249057
0.0269489
0.0292838
0.0319141
0.0348187
0.0379443
0.0411997
0.0444608
0.0475834
0.0504324
0.0528905
0.0548924
0.0563905
0.057303
0.0574981
0.0567617
0.0550446
0.0510283
0.0478854
0.0447019
0.0120315
0.0120379
0.0120419
0.0120418
0.0120406
0.012035
0.0120287
0.0120188
0.0120091
0.0119969
0.0119864
0.011975
0.0119671
0.0119602
0.0119586
0.0119601
0.0119692
0.0119838
0.0120083
0.0120414
0.0120875
0.0121462
0.0122219
0.0123156
0.0124317
0.0125732
0.0127455
0.0129541
0.0132067
0.01351
0.0138705
0.0142961
0.0147983
0.0153819
0.0160545
0.0168208
0.0176925
0.0186921
0.0198456
0.0211833
0.0227374
0.0245365
0.0266019
0.0289441
0.0315534
0.0343927
0.0373909
0.0404454
0.0434311
0.0462254
0.0487112
0.0508132
0.0524592
0.0535434
0.0539152
0.0533721
0.0518536
0.0480294
0.0449264
0.0419157
0.0111328
0.0111521
0.0111681
0.011179
0.011188
0.0111916
0.0111936
0.0111911
0.0111876
0.0111805
0.0111734
0.0111639
0.0111558
0.0111469
0.0111412
0.0111368
0.0111378
0.0111427
0.0111557
0.0111757
0.0112072
0.0112496
0.0113075
0.0113814
0.0114758
0.0115935
0.0117394
0.011919
0.0121392
0.0124062
0.0127258
0.0131055
0.0135533
0.0140767
0.014675
0.0153529
0.0161189
0.0169929
0.017999
0.0191651
0.0205223
0.0220994
0.0239198
0.0259991
0.0283367
0.0309086
0.0336606
0.0365091
0.0393467
0.0420639
0.044547
0.0467169
0.0484814
0.049721
0.0502682
0.0499329
0.0486342
0.0450285
0.0419998
0.0391963
0.0101512
0.0101824
0.0102099
0.0102321
0.0102517
0.0102652
0.0102762
0.0102815
0.0102848
0.0102829
0.0102798
0.0102727
0.0102657
0.0102562
0.0102483
0.0102399
0.0102351
0.0102322
0.0102354
0.0102435
0.0102609
0.010287
0.0103264
0.0103796
0.010451
0.010543
0.0106604
0.0108082
0.0109933
0.0112209
0.0114964
0.0118263
0.0122196
0.012677
0.0132021
0.0137938
0.0144592
0.0152171
0.0160892
0.0171019
0.0182852
0.0196675
0.0212738
0.0231237
0.0252235
0.0275598
0.0300924
0.032754
0.0354525
0.0380912
0.0405616
0.0427839
0.0446532
0.0460371
0.0467552
0.0466272
0.045549
0.0421606
0.0392166
0.0366159
0.00914658
0.00918676
0.00922246
0.00925221
0.00927871
0.00929862
0.00931531
0.00932589
0.00933356
0.00933541
0.00933474
0.00932897
0.00932153
0.00931013
0.00929837
0.00928418
0.00927162
0.00925903
0.00925062
0.00924528
0.00924729
0.00925605
0.00927602
0.00930745
0.00935461
0.00941968
0.0095071
0.00962166
0.00976959
0.0099558
0.0101851
0.0104638
0.0107979
0.0111922
0.0116432
0.0121519
0.0127227
0.0133734
0.0141242
0.0150001
0.0160303
0.017243
0.0186642
0.0203165
0.0222116
0.0243449
0.0266874
0.0291858
0.0317614
0.0343287
0.0367847
0.0390515
0.0410118
0.0425269
0.0434042
0.0434726
0.0425981
0.0394073
0.0365433
0.0341125
0.00803847
0.00808679
0.00813091
0.00816914
0.00820406
0.00823205
0.00825637
0.00827363
0.00828728
0.00829383
0.00829703
0.00829374
0.00828781
0.00827624
0.00826301
0.00824554
0.00822792
0.00820815
0.00819035
0.00817324
0.00816101
0.00815302
0.00815364
0.00816306
0.00818545
0.00822277
0.00827923
0.00835932
0.00846894
0.00861249
0.00879433
0.00902004
0.00929717
0.00962426
0.010004
0.0104327
0.0109147
0.0114668
0.0121084
0.0128633
0.0137601
0.0148268
0.0160901
0.017575
0.0192976
0.0212602
0.0234432
0.0258049
0.0282779
0.0307868
0.0332337
0.0355439
0.0375917
0.0392308
0.040258
0.0405091
0.03982
0.0368041
0.0340129
0.0317154
0.00692593
0.00697944
0.00702802
0.00707022
0.00710865
0.00713973
0.00716676
0.00718654
0.00720215
0.0072103
0.00721414
0.00721065
0.00720309
0.00718875
0.00717103
0.00714743
0.00712187
0.00709233
0.00706295
0.00703227
0.00700449
0.00697874
0.00695933
0.00694615
0.00694322
0.00695223
0.00697709
0.00702205
0.0070926
0.00719274
0.00732652
0.00749954
0.00771627
0.00798054
0.00828885
0.00864076
0.00903868
0.00949918
0.0100407
0.0106865
0.0114647
0.0124032
0.0135295
0.0148704
0.0164457
0.0182633
0.0203116
0.0225587
0.024947
0.0274093
0.0298528
0.0322062
0.0343344
0.0360882
0.037253
0.0376716
0.0371456
0.03428
0.0315524
0.029346
0.00572008
0.00577847
0.00583196
0.00587897
0.00592199
0.00595734
0.00598816
0.00601095
0.00602899
0.00603863
0.00604335
0.00603982
0.00603157
0.00601533
0.00599478
0.00596694
0.00593563
0.00589853
0.00585948
0.00581685
0.00577462
0.00573186
0.00569268
0.00565692
0.00562846
0.00560879
0.00560162
0.00561093
0.00564194
0.00569831
0.00578367
0.00590311
0.00606298
0.0062608
0.00650081
0.0067783
0.00709609
0.00747072
0.00792008
0.00846687
0.00913903
0.00996462
0.0109716
0.0121885
0.0136382
0.0153332
0.0172688
0.0194215
0.021742
0.0241704
0.0266177
0.029017
0.0312268
0.0330918
0.0343879
0.034962
0.0345837
0.0318504
0.029182
0.0270335
0.00449303
0.00455404
0.00460952
0.00465808
0.00470222
0.00473833
0.0047696
0.00479277
0.00481074
0.00482012
0.0048238
0.00481861
0.00480747
0.00478746
0.0047616
0.00472707
0.00468741
0.00464031
0.00458954
0.00453325
0.0044754
0.00441474
0.00435528
0.00429654
0.00424227
0.00419364
0.00415413
0.00412751
0.00411867
0.004131
0.00416794
0.00423467
0.0043345
0.00447083
0.00464188
0.00484713
0.00508772
0.00538022
0.00574225
0.00619626
0.00677021
0.00749239
0.00839146
0.00949741
0.0108358
0.0124234
0.0142616
0.0163341
0.0185992
0.0210026
0.0234593
0.0259062
0.0281939
0.0301646
0.0315841
0.0323033
0.0320575
0.029441
0.0268288
0.024705
0.00316208
0.0032255
0.00328387
0.00333551
0.00338288
0.00342206
0.00345617
0.00348144
0.00350112
0.00351122
0.00351521
0.00350934
0.00349707
0.00347469
0.00344572
0.00340666
0.00336113
0.00330634
0.00324589
0.00317761
0.00310525
0.00302747
0.00294804
0.00286642
0.00278619
0.00270836
0.00263624
0.00257336
0.00252442
0.00249257
0.00248092
0.00249421
0.00253785
0.00260874
0.00271356
0.00284765
0.0030129
0.00322612
0.0035047
0.00387099
0.00435313
0.00497973
0.00578017
0.00678591
0.00802495
0.00951801
0.0112717
0.0132767
0.0154973
0.0178846
0.0203567
0.022855
0.0252244
0.0273015
0.028843
0.0297019
0.0295822
0.027075
0.0245208
0.0223994
0.00183803
0.00190148
0.00195916
0.00200968
0.00205554
0.00209287
0.0021249
0.00214806
0.00216525
0.00217276
0.00217345
0.00216377
0.00214659
0.00211856
0.0020826
0.00203535
0.00198019
0.00191432
0.00184128
0.00175863
0.00167008
0.00157389
0.00147373
0.00136866
0.00126212
0.00115478
0.00104973
0.00095033
0.000861002
0.000784715
0.00072447
0.000685159
0.000669102
0.00067943
0.000716523
0.000780365
0.000871271
0.00100628
0.00120276
0.00148315
0.00187594
0.00241027
0.00311634
0.00402716
0.00517312
0.00657862
0.00825526
0.0102002
0.0123834
0.0147604
0.0172519
0.019804
0.0222536
0.0244351
0.0260956
0.0270899
0.02709
0.0246867
0.022193
0.0200522
0.000427548
0.000491274
0.000549337
0.000600171
0.000646174
0.000683381
0.00071486
0.000736743
0.000752177
0.000757078
0.000754758
0.000741315
0.000720025
0.000686941
0.000645347
0.000591393
0.000528387
0.000453166
0.000368992
0.000273158
0.000169069
5.48904e-05
-6.60066e-05
-0.000194679
-0.000327861
-0.000465094
-0.00060346
-0.000739824
-0.000869914
-0.000990926
-0.00110014
-0.00119305
-0.00126512
-0.00132009
-0.0013487
-0.00135523
-0.00133852
-0.00128115
-0.00116575
-0.000969741
-0.000664142
-0.000219201
0.000396235
0.00121671
0.00227505
0.00359922
0.00520562
0.00709752
0.00924998
0.0116228
0.0141385
0.0167482
0.019284
0.0215735
0.023356
0.0244865
0.0246077
0.0223092
0.0198825
0.01771
-0.00099065
-0.000928483
-0.000872626
-0.000824478
-0.000781603
-0.000747897
-0.000720214
-0.000702176
-0.000690981
-0.000690437
-0.000697815
-0.000716808
-0.000744745
-0.000785161
-0.000835396
-0.000899134
-0.0009733
-0.00106103
-0.00115911
-0.00127054
-0.00139194
-0.00152554
-0.00166813
-0.00182115
-0.00198153
-0.00214916
-0.00232135
-0.00249514
-0.00266651
-0.00283277
-0.00299128
-0.00313735
-0.00326962
-0.00338534
-0.00348201
-0.00355913
-0.00361712
-0.00363822
-0.00360491
-0.00349431
-0.0032768
-0.00292179
-0.00239708
-0.00166641
-0.000694471
0.000550356
0.00208927
0.00393141
0.00605677
0.00842905
0.0109726
0.0136429
0.0162647
0.0186627
0.0205677
0.0218351
0.0220774
0.0198854
0.017531
0.0153135
-0.00250358
-0.00244272
-0.0023877
-0.00234022
-0.00229786
-0.00226489
-0.00223818
-0.00222193
-0.00221291
-0.00221558
-0.00222653
-0.00225007
-0.00228287
-0.00232932
-0.00238614
-0.0024577
-0.00254081
-0.00263909
-0.00274948
-0.0028753
-0.0030134
-0.00316616
-0.00333063
-0.00350839
-0.00369654
-0.0038952
-0.00410187
-0.00431381
-0.00452713
-0.00473927
-0.00494788
-0.00514863
-0.00533784
-0.00551981
-0.00568319
-0.00583207
-0.00596589
-0.0060664
-0.00611597
-0.00609136
-0.00596225
-0.00569715
-0.00526265
-0.00462072
-0.0037334
-0.00256536
-0.00109072
0.000705628
0.00280801
0.00518474
0.00775998
0.0104958
0.0132106
0.0157232
0.0177565
0.0191657
0.0195356
0.017456
0.0151826
0.0129142
-0.00399541
-0.00393795
-0.00388712
-0.00384433
-0.00380712
-0.00377968
-0.00375881
-0.00374847
-0.00374579
-0.00375493
-0.00377309
-0.00380435
-0.00384598
-0.00390195
-0.00396956
-0.00405303
-0.00414934
-0.0042621
-0.00438826
-0.00453146
-0.00468854
-0.00486233
-0.00505003
-0.00525363
-0.00547045
-0.00570099
-0.00594295
-0.00619384
-0.00644997
-0.00670893
-0.00696839
-0.00722389
-0.00747487
-0.00771899
-0.00795231
-0.00817408
-0.00838524
-0.00856721
-0.00870202
-0.0087661
-0.00872807
-0.00855564
-0.00821368
-0.00766273
-0.00686126
-0.00577104
-0.00436005
-0.00260908
-0.000527112
0.00185578
0.00446807
0.0072708
0.0100804
0.0127095
0.0148741
0.0164287
0.0169301
0.0149683
0.0127827
0.0104558
-0.00556379
-0.00550918
-0.00546112
-0.00542122
-0.00538711
-0.00536312
-0.00534619
-0.00534062
-0.00534325
-0.00535866
-0.00538353
-0.00542233
-0.00547183
-0.00553666
-0.00561366
-0.0057076
-0.00581542
-0.00594115
-0.00608195
-0.00624175
-0.00641766
-0.00661262
-0.00682415
-0.00705437
-0.0073008
-0.00756421
-0.0078425
-0.00813342
-0.00843343
-0.00874023
-0.00905183
-0.00936408
-0.00967395
-0.00998656
-0.0102891
-0.0105856
-0.0108761
-0.0111413
-0.0113631
-0.0115175
-0.0115723
-0.0114938
-0.0112458
-0.0107863
-0.0100711
-0.00905779
-0.00770931
-0.00600114
-0.00393685
-0.00154293
0.00111018
0.00398545
0.00689694
0.00964954
0.0119529
0.0136604
0.0143024
0.0124669
0.0103784
0.00799163
-0.0071248
-0.00707475
-0.00703198
-0.00699795
-0.00697023
-0.00695309
-0.00694337
-0.00694514
-0.00695558
-0.00697899
-0.00701262
-0.00706077
-0.0071208
-0.0071969
-0.00728654
-0.0073943
-0.00751732
-0.00765959
-0.00781827
-0.0079976
-0.00819466
-0.00841281
-0.00864974
-0.00890797
-0.00918524
-0.00948268
-0.00979849
-0.0101306
-0.0104757
-0.0108317
-0.0111966
-0.0115662
-0.0119404
-0.0123178
-0.0126934
-0.0130664
-0.0134382
-0.0137892
-0.0141013
-0.0143495
-0.0145008
-0.01452
-0.0143696
-0.014005
-0.0133788
-0.0124445
-0.0111595
-0.00949469
-0.00744654
-0.00503996
-0.00234024
0.000609755
0.00362402
0.00650285
0.00894908
0.0108147
0.0116035
0.00990156
0.00791735
0.00546676
-0.00876912
-0.00872321
-0.00868416
-0.00865374
-0.00862953
-0.00861623
-0.00861064
-0.00861752
-0.00863352
-0.00866369
-0.00870449
-0.00876093
-0.0088296
-0.00891566
-0.00901583
-0.00913552
-0.00927161
-0.00942868
-0.00960392
-0.00980197
-0.0100201
-0.0102617
-0.0105248
-0.0108121
-0.0111215
-0.0114543
-0.0118089
-0.0121837
-0.0125753
-0.0129819
-0.0134018
-0.013831
-0.0142671
-0.0147162
-0.0151644
-0.0156161
-0.0160715
-0.0165108
-0.0169152
-0.0172596
-0.0175095
-0.0176288
-0.0175778
-0.0173098
-0.0167737
-0.0159188
-0.0146969
-0.0130738
-0.0110395
-0.0086156
-0.00586504
-0.002834
0.000289639
0.00330179
0.00589931
0.00793188
0.00887769
0.007319
0.00544854
0.00293543
-0.0103744
-0.0103346
-0.0103026
-0.0102799
-0.0102639
-0.0102595
-0.0102631
-0.0102795
-0.0103055
-0.010346
-0.0103979
-0.0104661
-0.0105478
-0.0106477
-0.0107631
-0.0108993
-0.0110533
-0.0112296
-0.0114254
-0.0116456
-0.0118876
-0.0121552
-0.0124464
-0.0127644
-0.0131074
-0.013477
-0.013872
-0.0142908
-0.0147305
-0.0151892
-0.0156655
-0.0161554
-0.0166592
-0.0171762
-0.0177012
-0.0182335
-0.018775
-0.0193055
-0.0198059
-0.0202503
-0.0206032
-0.0208268
-0.0208796
-0.0207122
-0.0202697
-0.0194971
-0.01834
-0.0167598
-0.0147385
-0.0122957
-0.00948792
-0.00637579
-0.00314096
7.44051e-06
0.00276096
0.0049666
0.00607684
0.00466989
0.00292021
0.000343473
-0.012047
-0.0120124
-0.0119857
-0.0119686
-0.0119585
-0.0119605
-0.0119712
-0.0119956
-0.0120303
-0.0120807
-0.0121432
-0.012223
-0.0123167
-0.0124298
-0.012559
-0.0127103
-0.0128806
-0.0130748
-0.0132903
-0.0135324
-0.0137984
-0.0140925
-0.014413
-0.0147631
-0.015141
-0.015549
-0.0159859
-0.0164503
-0.0169396
-0.0174521
-0.0179867
-0.0185397
-0.0191087
-0.0197011
-0.0203023
-0.0209176
-0.0215478
-0.0221719
-0.0227709
-0.023318
-0.0237767
-0.0241071
-0.0242662
-0.0242014
-0.0238543
-0.0231647
-0.022073
-0.0205344
-0.0185244
-0.0160581
-0.0131897
-0.00998926
-0.00663768
-0.00334624
-0.000427857
0.00196046
0.00324616
0.00200117
0.000381757
-0.00225497
-0.0137013
-0.0136735
-0.0136544
-0.0136457
-0.0136448
-0.0136566
-0.0136776
-0.0137127
-0.0137587
-0.0138208
-0.0138958
-0.013989
-0.0140975
-0.0142263
-0.0143728
-0.0145428
-0.0147333
-0.0149493
-0.015188
-0.0154551
-0.0157479
-0.0160708
-0.0164224
-0.0168063
-0.0172209
-0.0176687
-0.018149
-0.0186606
-0.0192012
-0.0197691
-0.0203634
-0.0209802
-0.0216206
-0.0222841
-0.022966
-0.0236666
-0.024388
-0.0251094
-0.0258109
-0.026465
-0.0270339
-0.027476
-0.027746
-0.0277884
-0.0275404
-0.0269374
-0.025913
-0.0244182
-0.0224189
-0.0199284
-0.0169937
-0.0137048
-0.0102354
-0.0067977
-0.00370942
-0.00113154
0.000337695
-0.000735944
-0.00221791
-0.0049136
-0.0154386
-0.0154167
-0.0154033
-0.0154003
-0.0154051
-0.015423
-0.0154507
-0.0154936
-0.0155481
-0.0156202
-0.0157058
-0.0158109
-0.0159319
-0.0160749
-0.0162363
-0.0164227
-0.0166311
-0.0168669
-0.0171275
-0.0174187
-0.0177382
-0.0180903
-0.018474
-0.0188928
-0.0193455
-0.0198348
-0.02036
-0.0209205
-0.0215138
-0.0221387
-0.0227944
-0.0234775
-0.0241862
-0.0249285
-0.0256907
-0.0264791
-0.0272949
-0.0281163
-0.0289231
-0.0296873
-0.0303693
-0.030926
-0.0313096
-0.0314617
-0.0313149
-0.0307997
-0.0298437
-0.028392
-0.0264024
-0.0238844
-0.0208799
-0.0174955
-0.0139028
-0.0103119
-0.00704438
-0.00426663
-0.00260231
-0.00349394
-0.00482866
-0.00757803
-0.0171317
-0.0171175
-0.0171129
-0.0171194
-0.0171345
-0.0171635
-0.0172028
-0.0172578
-0.0173252
-0.0174106
-0.0175107
-0.0176312
-0.0177691
-0.0179301
-0.0181112
-0.0183189
-0.0185501
-0.0188103
-0.0190967
-0.0194157
-0.0197646
-0.0201485
-0.0205662
-0.0210217
-0.021514
-0.0220462
-0.022618
-0.0232287
-0.0238763
-0.0245596
-0.025278
-0.026028
-0.026811
-0.0276282
-0.0284756
-0.0293542
-0.0302673
-0.0311924
-0.0321089
-0.0329876
-0.0337877
-0.0344639
-0.0349661
-0.0352325
-0.0351913
-0.0347677
-0.033883
-0.0324766
-0.0304975
-0.0279517
-0.0248742
-0.0213941
-0.0176763
-0.0139284
-0.0104758
-0.00749064
-0.00562216
-0.00632162
-0.0075014
-0.0103015
-0.0188922
-0.0188845
-0.0188865
-0.0189
-0.0189227
-0.0189599
-0.0190085
-0.019074
-0.0191529
-0.0192513
-0.0193652
-0.019501
-0.0196547
-0.019833
-0.0200322
-0.0202595
-0.0205117
-0.0207947
-0.0211059
-0.021452
-0.0218304
-0.0222464
-0.0226991
-0.0231926
-0.023726
-0.0243027
-0.0249224
-0.0255849
-0.0262882
-0.0270312
-0.0278141
-0.0286335
-0.0294884
-0.0303887
-0.0313205
-0.0322923
-0.0333054
-0.0343371
-0.0353662
-0.0363627
-0.0372839
-0.0380827
-0.0387066
-0.03909
-0.0391568
-0.0388266
-0.0380145
-0.0366535
-0.0346848
-0.0321089
-0.0289565
-0.0253733
-0.0215245
-0.0176121
-0.0139644
-0.0107605
-0.00867576
-0.00917183
-0.0101863
-0.0130296
-0.0206187
-0.0206206
-0.0206334
-0.0206587
-0.0206938
-0.0207442
-0.0208065
-0.0208861
-0.0209799
-0.0210936
-0.0212241
-0.0213771
-0.0215499
-0.0217482
-0.0219693
-0.0222199
-0.0224971
-0.0228067
-0.0231461
-0.0235224
-0.0239329
-0.0243832
-0.0248727
-0.0254058
-0.0259818
-0.0266044
-0.0272736
-0.0279893
-0.0287499
-0.0295544
-0.0304032
-0.0312933
-0.0322268
-0.0332055
-0.0342267
-0.0352936
-0.0364096
-0.0375516
-0.0386977
-0.0398166
-0.0408641
-0.0417907
-0.0425414
-0.0430469
-0.0432265
-0.0429938
-0.0422578
-0.040945
-0.0389885
-0.0363833
-0.0331547
-0.029468
-0.0254851
-0.021403
-0.0175534
-0.0141224
-0.0118112
-0.0120928
-0.0129334
-0.015815
-0.0224606
-0.0224709
-0.0224911
-0.0225229
-0.0225638
-0.0226204
-0.0226892
-0.0227771
-0.0228801
-0.0230051
-0.0231476
-0.0233151
-0.0235031
-0.0237188
-0.0239582
-0.0242292
-0.0245285
-0.0248624
-0.0252284
-0.0256339
-0.0260763
-0.0265614
-0.0270887
-0.0276626
-0.0282826
-0.0289528
-0.029673
-0.0304437
-0.0312632
-0.0321309
-0.0330478
-0.0340112
-0.0350201
-0.0360853
-0.037195
-0.0383597
-0.0395815
-0.0408367
-0.0421027
-0.0433472
-0.0445242
-0.045582
-0.0464627
-0.0470933
-0.0473883
-0.0472555
-0.0465972
-0.0453333
-0.0433894
-0.040754
-0.0374477
-0.0336504
-0.029526
-0.0252655
-0.0212027
-0.0175324
-0.0149819
-0.0150371
-0.0156924
-0.0186028
-0.0241168
-0.0241385
-0.0241744
-0.0242256
-0.024289
-0.0243693
-0.0244635
-0.0245767
-0.024706
-0.024857
-0.0250265
-0.0252206
-0.0254364
-0.02568
-0.0259483
-0.0262488
-0.0265786
-0.0269439
-0.0273422
-0.0277815
-0.0282594
-0.0287819
-0.029349
-0.0299655
-0.0306311
-0.0313501
-0.0321229
-0.03295
-0.03383
-0.0347625
-0.0357487
-0.0367861
-0.0378769
-0.0390242
-0.0402274
-0.0414923
-0.042823
-0.044195
-0.0455854
-0.0469603
-0.048272
-0.0494664
-0.0504826
-0.0512438
-0.0516593
-0.0516308
-0.0510542
-0.0498423
-0.0479135
-0.0452495
-0.0418655
-0.0379567
-0.0336859
-0.0292404
-0.0249564
-0.021037
-0.018236
-0.0180527
-0.0185132
-0.0214451
-0.0261371
-0.0261628
-0.026199
-0.0262481
-0.0263077
-0.0263849
-0.0264762
-0.026589
-0.0267194
-0.0268745
-0.02705
-0.0272535
-0.0274805
-0.0277383
-0.028023
-0.0283428
-0.0286945
-0.0290846
-0.0295107
-0.0299807
-0.0304924
-0.0310517
-0.0316588
-0.0323185
-0.0330304
-0.0337993
-0.0346258
-0.0355104
-0.036452
-0.0374506
-0.0385079
-0.0396219
-0.0407918
-0.0420301
-0.0433262
-0.0446943
-0.0461367
-0.0476285
-0.0491461
-0.0506547
-0.0521045
-0.0534389
-0.0545942
-0.0554893
-0.0560282
-0.0561066
-0.0556136
-0.0544549
-0.0525418
-0.0498485
-0.0463856
-0.042358
-0.0379326
-0.0332917
-0.028774
-0.0245921
-0.021527
-0.0210924
-0.0213457
-0.024287
-0.0279046
-0.0279408
-0.0279927
-0.0280616
-0.0281443
-0.0282458
-0.0283629
-0.0285011
-0.0286575
-0.0288379
-0.0290394
-0.0292682
-0.0295215
-0.0298057
-0.030118
-0.030466
-0.0308472
-0.031268
-0.0317261
-0.03223
-0.0327774
-0.0333747
-0.0340224
-0.0347256
-0.0354842
-0.0363035
-0.0371841
-0.038127
-0.0391313
-0.0401973
-0.0413269
-0.0425186
-0.0437749
-0.0450992
-0.0464941
-0.0479678
-0.049525
-0.0511406
-0.05279
-0.0544372
-0.0560306
-0.057511
-0.0588111
-0.0598458
-0.0605136
-0.0607037
-0.0602983
-0.0591961
-0.0573011
-0.0545805
-0.0510385
-0.0468907
-0.0423045
-0.0374601
-0.0326992
-0.0282441
-0.0249025
-0.0242035
-0.0242391
-0.0271808
-0.0300896
-0.0301284
-0.0301784
-0.0302424
-0.0303182
-0.030413
-0.0305237
-0.030658
-0.0308122
-0.0309934
-0.0311978
-0.031433
-0.0316948
-0.0319907
-0.032317
-0.0326821
-0.0330833
-0.0335271
-0.0340114
-0.0345446
-0.0351248
-0.035758
-0.0364451
-0.0371911
-0.0379961
-0.0388657
-0.0398006
-0.0408023
-0.0418702
-0.0430046
-0.0442084
-0.0454806
-0.0468199
-0.0482397
-0.0497326
-0.0513153
-0.0529907
-0.0547331
-0.0565176
-0.0583069
-0.0600476
-0.0616775
-0.0631264
-0.0643044
-0.0651045
-0.0654091
-0.0650932
-0.0640485
-0.0621719
-0.0594231
-0.0557998
-0.0515242
-0.0467676
-0.0417081
-0.0366904
-0.0319478
-0.0283154
-0.0273382
-0.0271432
-0.0300721
-0.0320333
-0.0320816
-0.032146
-0.0322282
-0.0323251
-0.0324421
-0.0325763
-0.0327333
-0.0329106
-0.0331142
-0.0333414
-0.0335987
-0.0338837
-0.0342028
-0.0345537
-0.0349441
-0.035372
-0.0358437
-0.0363575
-0.0369219
-0.0375355
-0.0382045
-0.0389305
-0.0397184
-0.0405691
-0.0414884
-0.0424776
-0.0435382
-0.0446701
-0.0458739
-0.0471528
-0.0485059
-0.0499354
-0.0514461
-0.0530433
-0.0547383
-0.0565356
-0.0584093
-0.0603338
-0.0622709
-0.0641648
-0.0659507
-0.0675546
-0.0688821
-0.0698201
-0.0702442
-0.070022
-0.069038
-0.0671818
-0.0644059
-0.0607003
-0.0562943
-0.0513601
-0.0460763
-0.0407914
-0.0357494
-0.0318128
-0.0305434
-0.0301069
-0.0330138
-0.0343664
-0.0344187
-0.0344833
-0.0345636
-0.034657
-0.034771
-0.034902
-0.0350579
-0.0352349
-0.0354402
-0.0356703
-0.0359328
-0.0362243
-0.0365521
-0.0369135
-0.0373169
-0.0377605
-0.0382508
-0.0387865
-0.0393761
-0.0400186
-0.0407199
-0.0414821
-0.0423101
-0.0432051
-0.0441731
-0.0452159
-0.0463352
-0.0475313
-0.048805
-0.0501604
-0.051597
-0.0531139
-0.0547258
-0.0564274
-0.0582386
-0.0601615
-0.0621702
-0.0642386
-0.0663273
-0.0683787
-0.0703249
-0.0720882
-0.0735693
-0.0746489
-0.0751954
-0.0750688
-0.0741461
-0.07231
-0.0695051
-0.0657139
-0.061169
-0.0560472
-0.0505267
-0.0449601
-0.0396036
-0.0353478
-0.0337719
-0.0330807
-0.0359517
-0.0366014
-0.0366646
-0.0367413
-0.0368345
-0.0369411
-0.0370677
-0.0372112
-0.0373788
-0.0375676
-0.0377845
-0.0380271
-0.0383021
-0.0386077
-0.0389505
-0.0393287
-0.0397503
-0.040214
-0.0407259
-0.0412851
-0.0419005
-0.0425712
-0.0433038
-0.0441005
-0.044967
-0.0459046
-0.0469201
-0.0480155
-0.0491931
-0.0504534
-0.0517979
-0.0532305
-0.0547518
-0.056364
-0.0580724
-0.0598854
-0.0618163
-0.0638692
-0.0660181
-0.0682362
-0.070483
-0.0726987
-0.0748122
-0.0767419
-0.0783833
-0.0796105
-0.0802847
-0.0802576
-0.0793989
-0.077584
-0.0747501
-0.070871
-0.0661834
-0.060866
-0.0550987
-0.0492392
-0.0435556
-0.0389664
-0.0370697
-0.036113
-0.0389388
-0.038981
-0.039054
-0.0391405
-0.0392432
-0.0393595
-0.0394963
-0.0396502
-0.0398288
-0.0400284
-0.0402563
-0.0405091
-0.0407947
-0.0411102
-0.0414631
-0.0418516
-0.0422846
-0.0427612
-0.0432881
-0.0438651
-0.0445012
-0.0451962
-0.0459566
-0.0467854
-0.0476883
-0.0486669
-0.0497286
-0.0508759
-0.0521114
-0.0534363
-0.0548519
-0.0563636
-0.0579722
-0.0596765
-0.061492
-0.0634166
-0.0654715
-0.0676591
-0.0699527
-0.0723254
-0.0747351
-0.0771201
-0.0794061
-0.0815071
-0.0833134
-0.0846923
-0.0854971
-0.0855714
-0.084777
-0.0829819
-0.0801159
-0.0761436
-0.071304
-0.06578
-0.0597531
-0.0535855
-0.0475591
-0.0426211
-0.0403891
-0.0391542
-0.0419216
-0.0414102
-0.0414923
-0.0415879
-0.0416997
-0.0418248
-0.04197
-0.0421324
-0.0423189
-0.0425274
-0.0427641
-0.0430274
-0.0433237
-0.0436517
-0.0440181
-0.0444218
-0.0448709
-0.0453651
-0.0459108
-0.0465081
-0.0471664
-0.047886
-0.0486738
-0.0495336
-0.0504715
-0.05149
-0.0525969
-0.0537954
-0.0550886
-0.0564781
-0.0579658
-0.0595571
-0.0612538
-0.0630581
-0.0649764
-0.0670199
-0.0692035
-0.071531
-0.0739756
-0.0765096
-0.0790897
-0.0816519
-0.0841182
-0.0863983
-0.0883768
-0.0899139
-0.0908547
-0.0910341
-0.090306
-0.0885307
-0.0856313
-0.0815619
-0.0765652
-0.070826
-0.0645287
-0.0580414
-0.0516588
-0.0463571
-0.0437756
-0.0422523