/*--------------------------------*- C++ -*----------------------------------*\
  =========                 |
  \\      /  F ield         | OpenFOAM: The Open Source CFD Toolbox
   \\    /   O peration     | Website:  https://openfoam.org
    \\  /    A nd           | Version:  6.0
     \\/     M anipulation  |
\*---------------------------------------------------------------------------*/
FoamFile
{
    version     2.0;
    format      ascii;
    class       surfaceScalarField;
    location    "10";
    object      phi;
}
// * * * * * * * * * * * * * * * * * * * * * * * * * * * * * * * * * * * * * //

dimensions      [0 3 -1 0 0 0 0];

internalField   nonuniform List<scalar> 
123526
(
-5.38355e-05
2.3057e-05
5.42239e-05
-5.34146e-05
2.49336e-05
-5.29561e-05
2.69635e-05
-5.24618e-05
2.91593e-05
-5.1924e-05
3.15347e-05
-5.13446e-05
3.41044e-05
-5.07153e-05
3.68846e-05
-5.00373e-05
3.98925e-05
-4.93014e-05
4.31462e-05
-4.85075e-05
4.66665e-05
-4.76481e-05
5.04761e-05
-4.67212e-05
5.45982e-05
-4.57187e-05
5.90586e-05
-4.46347e-05
6.38825e-05
-4.34595e-05
6.91016e-05
-4.21909e-05
7.47527e-05
-4.08199e-05
8.08681e-05
-3.93325e-05
8.74792e-05
-3.77209e-05
9.46364e-05
-3.59799e-05
0.000102386
-3.40902e-05
0.000110764
-3.20408e-05
0.000119832
-2.9826e-05
0.000129652
-2.74159e-05
0.000140262
-2.48084e-05
0.000151754
-2.19805e-05
0.000164181
-1.89121e-05
0.00017762
-1.55896e-05
0.000192161
-1.19815e-05
0.000207871
-8.07631e-06
0.000224863
-3.83738e-06
0.000243208
7.51604e-07
0.000263028
5.72609e-06
0.00028441
1.11145e-05
0.000307469
1.69457e-05
0.000332317
2.32674e-05
0.000359043
3.01039e-05
0.000387775
3.75007e-05
0.000418592
4.55056e-05
0.000451574
5.41574e-05
0.000486794
6.3507e-05
0.000524271
7.36122e-05
0.000563987
8.45224e-05
0.000605876
9.62868e-05
0.000649785
0.00010895
0.000695459
0.000122542
0.000742521
0.000137071
0.000790437
0.000152519
0.000838478
0.000168833
0.000885667
0.000185936
0.000930693
0.000203726
0.000971786
0.000222084
0.00100655
0.000240873
0.00103177
0.000259902
0.00104325
0.000278905
0.00103568
0.000297462
0.00100265
0.000315097
0.000936238
0.000330945
0.000828402
0.000343626
0.000661256
0.000398045
0.000337006
-5.36121e-05
2.26779e-05
5.39901e-05
-5.32029e-05
2.45223e-05
-5.27565e-05
2.6517e-05
-5.22737e-05
2.86745e-05
-5.17471e-05
3.10083e-05
-5.11773e-05
3.35329e-05
-5.05566e-05
3.62642e-05
-4.98851e-05
3.92196e-05
-4.91542e-05
4.24159e-05
-4.83631e-05
4.58745e-05
-4.75051e-05
4.96187e-05
-4.65779e-05
5.36707e-05
-4.55745e-05
5.80558e-05
-4.44888e-05
6.27966e-05
-4.33126e-05
6.79257e-05
-4.20438e-05
7.34835e-05
-4.06744e-05
7.94986e-05
-3.91908e-05
8.59949e-05
-3.75862e-05
9.30312e-05
-3.58556e-05
0.000100654
-3.39803e-05
0.000108888
-3.19497e-05
0.0001178
-2.97585e-05
0.00012746
-2.73774e-05
0.000137879
-2.48041e-05
0.00014918
-2.20162e-05
0.000161392
-1.89939e-05
0.000174597
-1.5724e-05
0.00018889
-1.21752e-05
0.00020432
-8.33673e-06
0.000221023
-4.17222e-06
0.000239042
3.33457e-07
0.000258521
5.21579e-06
0.000279525
1.05057e-05
0.000302176
1.62328e-05
0.000326586
2.24464e-05
0.000352825
2.91726e-05
0.000381045
3.64587e-05
0.000411301
4.43535e-05
0.000443674
5.28969e-05
0.000478245
6.21392e-05
0.000515023
7.21359e-05
0.000553983
8.29312e-05
0.000595073
9.4566e-05
0.000638141
0.000107073
0.000682941
0.000120468
0.000729113
0.000134747
0.000776142
0.000149882
0.000823324
0.000165825
0.000869703
0.000182509
0.000913982
0.000199858
0.000954405
0.000217779
0.000988584
0.000236165
0.00101333
0.000254842
0.00102451
0.000273549
0.00101691
0.000291865
0.00098426
0.000309243
0.000918753
0.000324955
0.000812552
0.000334629
0.000651374
0.000402128
0.00033023
-5.27307e-05
2.23076e-05
5.31004e-05
-5.23341e-05
2.41238e-05
-5.19049e-05
2.60878e-05
-5.14436e-05
2.82116e-05
-5.09435e-05
3.05083e-05
-5.04044e-05
3.29923e-05
-4.98189e-05
3.56791e-05
-4.9186e-05
3.85856e-05
-4.84973e-05
4.17276e-05
-4.77507e-05
4.51271e-05
-4.6939e-05
4.88074e-05
-4.6059e-05
5.279e-05
-4.51031e-05
5.71001e-05
-4.40644e-05
6.17575e-05
-4.29344e-05
6.67957e-05
-4.17102e-05
7.22588e-05
-4.0384e-05
7.81721e-05
-3.89421e-05
8.45522e-05
-3.73777e-05
9.14662e-05
-3.5686e-05
9.89619e-05
-3.38489e-05
0.00010705
-3.18561e-05
0.000115806
-2.97024e-05
0.000125305
-2.73594e-05
0.000135535
-2.48251e-05
0.000146644
-2.20774e-05
0.000158643
-1.90971e-05
0.000171615
-1.58713e-05
0.000185663
-1.2369e-05
0.000200817
-8.57978e-06
0.000217232
-4.46765e-06
0.000234928
-1.77008e-08
0.000254069
4.80643e-06
0.000274699
1.00354e-05
0.000296944
1.56992e-05
0.000320918
2.18464e-05
0.000346674
2.85025e-05
0.000374385
3.57136e-05
0.000404086
4.35266e-05
0.000435857
5.19784e-05
0.000469788
6.1115e-05
0.000505881
7.09855e-05
0.000544107
8.16272e-05
0.000584425
9.30725e-05
0.00062669
0.000105346
0.000670662
0.000118459
0.000715994
0.000132405
0.00076219
0.000147165
0.000808559
0.000162705
0.000854159
0.000178979
0.000897703
0.000195938
0.000937442
0.000213508
0.000971001
0.000231592
0.000995231
0.000250012
0.00100606
0.000268497
0.00099839
0.000286616
0.000966104
0.000303717
0.0009016
0.000319254
0.000796969
0.000329983
0.000640584
0.00040139
0.000330676
-5.168e-05
2.19401e-05
5.20484e-05
-5.12866e-05
2.37294e-05
-5.08628e-05
2.56645e-05
-5.04093e-05
2.77571e-05
-4.99206e-05
3.00202e-05
-4.93967e-05
3.24674e-05
-4.88312e-05
3.51141e-05
-4.82229e-05
3.79766e-05
-4.75641e-05
4.10694e-05
-4.68521e-05
4.44146e-05
-4.608e-05
4.8036e-05
-4.52437e-05
5.19537e-05
-4.43357e-05
5.61926e-05
-4.33479e-05
6.07697e-05
-4.22714e-05
6.57195e-05
-4.11024e-05
7.10897e-05
-3.98325e-05
7.69021e-05
-3.84471e-05
8.31664e-05
-3.69392e-05
8.99579e-05
-3.53033e-05
9.73253e-05
-3.35213e-05
0.000105268
-3.15826e-05
0.000113867
-2.94821e-05
0.000123204
-2.71917e-05
0.000133243
-2.47093e-05
0.00014416
-2.20135e-05
0.000155946
-1.90851e-05
0.000168685
-1.59118e-05
0.000182488
-1.2463e-05
0.000197366
-8.72827e-06
0.000213496
-4.67213e-06
0.00023087
-2.79193e-07
0.000249674
4.48575e-06
0.000269931
9.65311e-06
0.000291773
1.52509e-05
0.000315317
2.13263e-05
0.000340595
2.79031e-05
0.000367804
3.50252e-05
0.00039696
4.27366e-05
0.000428141
5.10708e-05
0.000461449
6.00694e-05
0.000496877
6.97766e-05
0.000534394
8.02245e-05
0.000573971
9.14411e-05
0.000615465
0.000103448
0.000658646
0.000116257
0.000703175
0.000129868
0.000748566
0.000144271
0.000794141
0.000159447
0.000838964
0.000175373
0.000881755
0.000192011
0.000920775
0.0002093
0.000953668
0.000227141
0.000977334
0.00024535
0.000987785
0.000263635
0.000980026
0.000281566
0.000948077
0.000298408
0.000884626
0.00031369
0.000781521
0.000325324
0.000628712
0.000397835
0.000328526
-5.09495e-05
2.15733e-05
5.1316e-05
-5.05556e-05
2.33338e-05
-5.01296e-05
2.52385e-05
-4.96728e-05
2.72989e-05
-4.91801e-05
2.95276e-05
-4.86522e-05
3.19383e-05
-4.80837e-05
3.45457e-05
-4.7474e-05
3.73659e-05
-4.68162e-05
4.0412e-05
-4.61086e-05
4.37063e-05
-4.53448e-05
4.72724e-05
-4.45212e-05
5.11296e-05
-4.36303e-05
5.53019e-05
-4.26646e-05
5.98036e-05
-4.16149e-05
6.46697e-05
-4.04772e-05
6.99515e-05
-3.92427e-05
7.56673e-05
-3.78966e-05
8.18197e-05
-3.64314e-05
8.84921e-05
-3.48409e-05
9.57341e-05
-3.31068e-05
0.000103533
-3.12179e-05
0.000111977
-2.91689e-05
0.000121154
-2.69315e-05
0.000131005
-2.45033e-05
0.000141731
-2.18631e-05
0.000153305
-1.89917e-05
0.000165812
-1.58768e-05
0.000179372
-1.24881e-05
0.000193976
-8.81547e-06
0.000209822
-4.82348e-06
0.000226877
-4.96963e-07
0.000245346
4.19888e-06
0.000265233
9.29149e-06
0.000286677
1.48086e-05
0.000309796
2.07947e-05
0.000334605
2.72724e-05
0.000361323
3.42832e-05
0.000389945
4.18687e-05
0.000420551
5.00598e-05
0.000453254
5.88951e-05
0.000488038
6.84157e-05
0.000524869
7.86511e-05
0.000563731
8.96274e-05
0.000604485
0.000101367
0.000646903
0.000113884
0.000690655
0.000127184
0.000735263
0.000141269
0.000780054
0.000156132
0.0008241
0.00017176
0.000866127
0.000188127
0.000904408
0.000205173
0.000936616
0.000222797
0.000959703
0.000240802
0.000969761
0.000258888
0.00096192
0.000276616
0.000930323
0.000293227
0.000867979
0.00030818
0.000766544
0.000319767
0.000617096
0.000393775
0.000323835
-5.05636e-05
2.12081e-05
5.09295e-05
-5.01688e-05
2.2938e-05
-4.974e-05
2.48101e-05
-4.92781e-05
2.6836e-05
-4.87782e-05
2.90282e-05
-4.8241e-05
3.14002e-05
-4.76615e-05
3.39666e-05
-4.70395e-05
3.67433e-05
-4.63691e-05
3.97421e-05
-4.56488e-05
4.29857e-05
-4.48736e-05
4.64978e-05
-4.40403e-05
5.02963e-05
-4.31427e-05
5.44048e-05
-4.21735e-05
5.88345e-05
-4.11247e-05
6.36211e-05
-3.99922e-05
6.88191e-05
-3.87681e-05
7.44431e-05
-3.74373e-05
8.04887e-05
-3.59926e-05
8.7047e-05
-3.44276e-05
9.41684e-05
-3.27238e-05
0.000101828
-3.08698e-05
0.000110122
-2.88598e-05
0.000119143
-2.66656e-05
0.00012881
-2.42843e-05
0.000139349
-2.16946e-05
0.000150714
-1.88772e-05
0.000162994
-1.58196e-05
0.000176313
-1.24919e-05
0.000190647
-8.88371e-06
0.000206212
-4.96004e-06
0.000222952
-7.05444e-07
0.00024109
3.91267e-06
0.000260612
8.92139e-06
0.000281666
1.43462e-05
0.000304368
2.02306e-05
0.000328717
2.65955e-05
0.000354954
3.34807e-05
0.000383056
4.0926e-05
0.000413102
4.89606e-05
0.000445215
5.76214e-05
0.000479372
6.69476e-05
0.000515538
7.69679e-05
0.000553705
8.77085e-05
0.000593738
9.91932e-05
0.000635411
0.00011144
0.000678399
0.000124461
0.00072223
0.000138265
0.000766237
0.000152854
0.000809496
0.000168223
0.000850739
0.000184349
0.000888257
0.000201172
0.000919754
0.000218585
0.00094224
0.000236383
0.000951899
0.000254256
0.000943972
0.000271762
0.000912721
0.000288152
0.000851461
0.000302754
0.000751777
0.00031393
0.00060569
0.000389126
0.000318237
-5.0325e-05
2.08467e-05
5.06866e-05
-4.99335e-05
2.25452e-05
-4.95069e-05
2.43837e-05
-4.90456e-05
2.63736e-05
-4.85445e-05
2.85274e-05
-4.80039e-05
3.08587e-05
-4.74188e-05
3.33819e-05
-4.67891e-05
3.61128e-05
-4.61091e-05
3.90625e-05
-4.53776e-05
4.22537e-05
-4.45901e-05
4.57106e-05
-4.37441e-05
4.945e-05
-4.28341e-05
5.3495e-05
-4.18537e-05
5.78539e-05
-4.07957e-05
6.2563e-05
-3.96567e-05
6.76798e-05
-3.84294e-05
7.32154e-05
-3.70997e-05
7.91585e-05
-3.56606e-05
8.56074e-05
-3.4106e-05
9.26133e-05
-3.2418e-05
0.00010014
-3.05852e-05
0.000108289
-2.86017e-05
0.000117159
-2.64395e-05
0.000126647
-2.40955e-05
0.000137004
-2.15482e-05
0.000148165
-1.87784e-05
0.000160223
-1.57736e-05
0.000173307
-1.25038e-05
0.000187376
-8.95862e-06
0.000202666
-5.10344e-06
0.000219096
-9.23335e-07
0.000236908
3.61416e-06
0.000256073
8.53345e-06
0.000276744
1.38604e-05
0.000299039
1.96365e-05
0.000322938
2.5882e-05
0.000348706
3.26353e-05
0.0003763
3.99351e-05
0.000405799
4.78095e-05
0.000437338
5.62943e-05
0.000470884
6.54284e-05
0.000506401
7.52403e-05
0.00054389
8.57575e-05
0.000583217
9.70058e-05
0.00062416
0.000109007
0.000666396
0.000121778
0.000709458
0.000135334
0.000752682
0.000149681
0.00079515
0.000164818
0.000835605
0.000180723
0.000872356
0.000197332
0.000903144
0.000214533
0.00092504
0.000232114
0.000934312
0.000249757
0.000926322
0.000267018
0.000895449
0.000283177
0.000835287
0.000297451
0.000737504
0.000308269
0.000594879
0.00038468
0.000312774
-5.00622e-05
2.04927e-05
5.04173e-05
-4.96781e-05
2.21604e-05
-4.92593e-05
2.39655e-05
-4.88055e-05
2.59192e-05
-4.83116e-05
2.80341e-05
-4.77771e-05
3.03236e-05
-4.7197e-05
3.28023e-05
-4.65705e-05
3.54858e-05
-4.5892e-05
3.83845e-05
-4.51599e-05
4.15215e-05
-4.43701e-05
4.49213e-05
-4.352e-05
4.86001e-05
-4.2605e-05
5.25804e-05
-4.16187e-05
5.68679e-05
-4.05549e-05
6.14995e-05
-3.94109e-05
6.65358e-05
-3.818e-05
7.19846e-05
-3.6849e-05
7.78272e-05
-3.54116e-05
8.41697e-05
-3.38622e-05
9.10634e-05
-3.21837e-05
9.84603e-05
-3.0365e-05
0.000106469
-2.84006e-05
0.000115193
-2.6263e-05
0.000124508
-2.39491e-05
0.000134689
-2.14376e-05
0.000145653
-1.87096e-05
0.000157494
-1.57525e-05
0.000170349
-1.25367e-05
0.000184159
-9.05171e-06
0.000199179
-5.26352e-06
0.000215306
-1.15709e-06
0.000232801
3.2981e-06
0.000251616
8.12718e-06
0.000271913
1.33541e-05
0.000293809
1.90201e-05
0.000317269
2.51447e-05
0.000342578
3.17655e-05
0.000369676
3.89203e-05
0.000398641
4.66367e-05
0.000429617
5.49504e-05
0.000462566
6.39002e-05
0.000497446
7.35153e-05
0.00053427
8.38247e-05
0.000572902
9.48563e-05
0.000613121
0.000106635
0.000654609
0.000119183
0.000696901
0.000132516
0.000739338
0.000146645
0.000781006
0.000161571
0.000820663
0.000177266
0.000856637
0.000193665
0.000886709
0.000210648
0.000908013
0.000227998
0.000916905
0.000245394
0.000908857
0.000262389
0.000878365
0.000278298
0.000819258
0.000292272
0.000723375
0.000302891
0.000584045
0.00037954
0.000307711
-4.97056e-05
2.0148e-05
5.00504e-05
-4.93321e-05
2.17858e-05
-4.89248e-05
2.35583e-05
-4.84833e-05
2.54766e-05
-4.80021e-05
2.7553e-05
-4.74805e-05
2.98011e-05
-4.69131e-05
3.22351e-05
-4.62988e-05
3.48708e-05
-4.56316e-05
3.77176e-05
-4.49098e-05
4.07992e-05
-4.41289e-05
4.41406e-05
-4.32863e-05
4.77572e-05
-4.2377e-05
5.16712e-05
-4.13955e-05
5.58861e-05
-4.03353e-05
6.04393e-05
-3.91944e-05
6.53946e-05
-3.79666e-05
7.07564e-05
-3.66392e-05
7.64995e-05
-3.52069e-05
8.27369e-05
-3.36646e-05
8.95205e-05
-3.19958e-05
9.67909e-05
-3.01904e-05
0.000104663
-2.82432e-05
0.000113245
-2.61273e-05
0.000122391
-2.38402e-05
0.000132401
-2.1361e-05
0.000143173
-1.8671e-05
0.000154803
-1.5758e-05
0.000167434
-1.25928e-05
0.000180993
-9.16522e-06
0.000195751
-5.44164e-06
0.000211581
-1.40788e-06
0.000228765
2.96703e-06
0.00024724
7.70611e-06
0.000267171
1.28342e-05
0.000288678
1.83915e-05
0.000311709
2.43971e-05
0.00033657
3.08883e-05
0.000363182
3.79024e-05
0.000391624
4.54671e-05
0.00042205
5.36178e-05
0.000454413
6.23939e-05
0.000488668
7.18255e-05
0.000524836
8.19431e-05
0.000562782
9.27768e-05
0.000602286
0.000104354
0.000643031
0.000116698
0.000684557
0.000129829
0.000726208
0.000143758
0.000767081
0.000158483
0.000805944
0.000173974
0.000841152
0.000190161
0.000870526
0.000206917
0.000891264
0.000224022
0.000899803
0.000241154
0.000891729
0.000257865
0.000861658
0.000273504
0.000803623
0.000287202
0.0007097
0.000297734
0.000573554
0.000374449
0.000302932
-4.92453e-05
1.9813e-05
4.95812e-05
-4.88825e-05
2.14222e-05
-4.84872e-05
2.31635e-05
-4.80591e-05
2.50477e-05
-4.75925e-05
2.7087e-05
-4.70868e-05
2.92946e-05
-4.65362e-05
3.16849e-05
-4.59393e-05
3.42734e-05
-4.52897e-05
3.70686e-05
-4.45855e-05
4.00948e-05
-4.38217e-05
4.33774e-05
-4.29955e-05
4.69311e-05
-4.21018e-05
5.07781e-05
-4.11347e-05
5.49192e-05
-4.00881e-05
5.9393e-05
-3.89598e-05
6.42664e-05
-3.7744e-05
6.95406e-05
-3.64287e-05
7.51839e-05
-3.50086e-05
8.13165e-05
-3.34793e-05
8.79908e-05
-3.18251e-05
9.51362e-05
-3.00364e-05
0.000102874
-2.81085e-05
0.000111317
-2.60156e-05
0.000120298
-2.37554e-05
0.00013014
-2.13077e-05
0.000140724
-1.86545e-05
0.000152148
-1.57839e-05
0.000164563
-1.26673e-05
0.000177875
-9.29495e-06
0.000192377
-5.63397e-06
0.000207919
-1.6702e-06
0.000224801
2.62554e-06
0.000242942
7.27775e-06
0.000262517
1.23096e-05
0.000283644
1.77615e-05
0.000306255
2.36525e-05
0.000330676
3.00194e-05
0.000356812
3.68994e-05
0.000384741
4.43202e-05
0.000414626
5.23176e-05
0.000446412
6.09313e-05
0.00048005
7.01926e-05
0.00051557
8.0133e-05
0.000552837
9.07844e-05
0.000591628
0.000102176
0.000631633
0.000114332
0.000672391
0.000127275
0.000713256
0.000141012
0.00075333
0.000155541
0.000791399
0.000170828
0.000825844
0.000186797
0.000854527
0.000203316
0.000874707
0.000220163
0.000882908
0.000237017
0.000874814
0.000253431
0.000845164
0.000268785
0.00078816
0.000282219
0.000696126
0.000292702
0.000562876
0.000368606
0.000298252
-4.87003e-05
1.94866e-05
4.90271e-05
-4.83476e-05
2.10685e-05
-4.79636e-05
2.27798e-05
-4.75481e-05
2.46313e-05
-4.70958e-05
2.6635e-05
-4.66057e-05
2.88038e-05
-4.60721e-05
3.11517e-05
-4.54937e-05
3.36943e-05
-4.48638e-05
3.64391e-05
-4.41802e-05
3.94108e-05
-4.34377e-05
4.26352e-05
-4.26331e-05
4.61263e-05
-4.1761e-05
4.99061e-05
-4.08154e-05
5.39734e-05
-3.97899e-05
5.83674e-05
-3.86822e-05
6.31584e-05
-3.74863e-05
6.83445e-05
-3.61906e-05
7.38879e-05
-3.47901e-05
7.99156e-05
-3.32807e-05
8.64808e-05
-3.16471e-05
9.3502e-05
-2.98803e-05
0.000101106
-2.79761e-05
0.000109412
-2.59095e-05
0.000118231
-2.36786e-05
0.000127908
-2.12639e-05
0.000138309
-1.86481e-05
0.000149532
-1.58198e-05
0.000161733
-1.27512e-05
0.000174805
-9.4328e-06
0.000189058
-5.83265e-06
0.000204318
-1.93749e-06
0.000220904
2.28258e-06
0.000238721
6.85018e-06
0.000257947
1.17898e-05
0.000278702
1.71407e-05
0.000300902
2.29222e-05
0.000324892
2.9171e-05
0.000350561
3.59242e-05
0.000377985
4.32096e-05
0.000407338
5.10632e-05
0.000438556
5.95252e-05
0.000471585
6.86276e-05
0.000506465
7.84031e-05
0.000543059
8.88844e-05
0.000581146
0.000100102
0.000620415
0.000112081
0.000660413
0.000124842
0.000700497
0.000138392
0.000739783
0.000152726
0.000777073
0.000167804
0.000810773
0.000183547
0.000838791
0.000199819
0.000858448
0.000216396
0.000866342
0.000232962
0.000858262
0.00024907
0.000829073
0.000264129
0.000773121
0.000277304
0.000682993
0.000287728
0.000552519
0.000362926
0.000293553
-4.80913e-05
1.9168e-05
4.84111e-05
-4.7747e-05
2.07235e-05
-4.73727e-05
2.24061e-05
-4.69684e-05
2.42264e-05
-4.65287e-05
2.61959e-05
-4.60529e-05
2.83274e-05
-4.55354e-05
3.06348e-05
-4.49747e-05
3.31331e-05
-4.43641e-05
3.58292e-05
-4.37014e-05
3.8748e-05
-4.29812e-05
4.19155e-05
-4.22e-05
4.53452e-05
-4.13521e-05
4.90589e-05
-4.04315e-05
5.3053e-05
-3.94313e-05
5.73677e-05
-3.83492e-05
6.20764e-05
-3.71789e-05
6.71744e-05
-3.5909e-05
7.26178e-05
-3.45343e-05
7.85407e-05
-3.30509e-05
8.4997e-05
-3.14438e-05
9.18945e-05
-2.97045e-05
9.93665e-05
-2.78289e-05
0.000107536
-2.57927e-05
0.000116194
-2.35946e-05
0.000125709
-2.12156e-05
0.000135929
-1.86391e-05
0.000146954
-1.58542e-05
0.000158948
-1.28339e-05
0.000171784
-9.56919e-06
0.000185792
-6.02903e-06
0.000200777
-2.20017e-06
0.000217074
1.94553e-06
0.000234573
6.4324e-06
0.000253459
1.12833e-05
0.000273849
1.65379e-05
0.000295645
2.22155e-05
0.000319212
2.83524e-05
0.000344422
3.49858e-05
0.000371349
4.21436e-05
0.000400177
4.9862e-05
0.000430834
5.81814e-05
0.000463262
6.71345e-05
0.000497508
7.67544e-05
0.000533435
8.70745e-05
0.00057082
9.81254e-05
0.000609357
0.000109933
0.000648598
0.000122515
0.000687905
0.000135879
0.000726407
0.000150015
0.000762924
0.000164878
0.00079589
0.000180387
0.000823255
0.000196402
0.000842399
0.000212701
0.000850001
0.00022897
0.000841938
0.000244767
0.000813202
0.000259527
0.000758262
0.000272446
0.000669944
0.000282775
0.000542011
0.000356655
0.000288776
-4.7439e-05
1.88561e-05
4.77512e-05
-4.71026e-05
2.0386e-05
-4.67371e-05
2.20408e-05
-4.63427e-05
2.38309e-05
-4.5914e-05
2.57675e-05
-4.54507e-05
2.78632e-05
-4.49472e-05
3.01315e-05
-4.44022e-05
3.25874e-05
-4.38091e-05
3.52365e-05
-4.31659e-05
3.81041e-05
-4.24667e-05
4.12166e-05
-4.17084e-05
4.45866e-05
-4.08849e-05
4.82356e-05
-3.99901e-05
5.21578e-05
-3.90168e-05
5.63944e-05
-3.79625e-05
6.10218e-05
-3.68207e-05
6.60325e-05
-3.558e-05
7.13767e-05
-3.4235e-05
7.71953e-05
-3.27818e-05
8.35433e-05
-3.12056e-05
9.03178e-05
-2.9498e-05
9.76583e-05
-2.76552e-05
0.000105692
-2.56535e-05
0.000114191
-2.34916e-05
0.000123547
-2.11513e-05
0.000133588
-1.86164e-05
0.000144419
-1.58766e-05
0.000156207
-1.29056e-05
0.000168812
-9.69494e-06
0.00018258
-6.21418e-06
0.000197296
-2.45105e-06
0.00021331
1.62338e-06
0.000230498
6.0315e-06
0.000249049
1.07975e-05
0.000269081
1.59601e-05
0.00029048
2.15386e-05
0.000313632
2.75693e-05
0.000338389
3.40891e-05
0.000364827
4.1126e-05
0.000393138
4.87163e-05
0.000423242
5.69004e-05
0.000455076
6.57112e-05
0.000488695
7.51821e-05
0.000523962
8.53468e-05
0.000560655
9.62357e-05
0.000598469
0.000107873
0.000636961
0.000120278
0.000675504
0.000133453
0.000713237
0.000147385
0.000749
0.000162027
0.000781257
0.000177295
0.000807999
0.000193046
0.000826664
0.000209058
0.000834005
0.000225026
0.000825993
0.000240512
0.000797741
0.000254972
0.000743834
0.000267636
0.000657336
0.000277832
0.000531904
0.000350737
0.000283923
-4.67562e-05
1.85505e-05
4.70627e-05
-4.64266e-05
2.00555e-05
-4.60687e-05
2.16834e-05
-4.56829e-05
2.34442e-05
-4.52638e-05
2.5349e-05
-4.48115e-05
2.74101e-05
-4.43204e-05
2.96409e-05
-4.37894e-05
3.20558e-05
-4.3212e-05
3.46598e-05
-4.25862e-05
3.74781e-05
-4.19063e-05
4.05374e-05
-4.11692e-05
4.38496e-05
-4.03688e-05
4.74358e-05
-3.94988e-05
5.1288e-05
-3.85521e-05
5.54482e-05
-3.75259e-05
5.99957e-05
-3.64136e-05
6.49204e-05
-3.52037e-05
7.01665e-05
-3.38906e-05
7.58821e-05
-3.24702e-05
8.21225e-05
-3.09278e-05
8.87751e-05
-2.92552e-05
9.59851e-05
-2.74484e-05
0.000103885
-2.54843e-05
0.000112227
-2.33616e-05
0.000121423
-2.10627e-05
0.000131289
-1.85718e-05
0.000141927
-1.58789e-05
0.000153513
-1.29585e-05
0.000165891
-9.80239e-06
0.000179423
-6.3811e-06
0.000193873
-2.6822e-06
0.00020961
1.32144e-06
0.000226492
5.65394e-06
0.000244715
1.03378e-05
0.000264395
1.5412e-05
0.000285404
2.08957e-05
0.000308146
2.68249e-05
0.000332457
3.32362e-05
0.000358414
4.01576e-05
0.000386214
4.76252e-05
0.000415771
5.56793e-05
0.000447019
6.43529e-05
0.000480018
7.36793e-05
0.000514632
8.36919e-05
0.000550637
9.44206e-05
0.000587734
0.000105889
0.000625485
0.000118114
0.000663271
0.000131096
0.000700244
0.00014482
0.000735264
0.000159234
0.000766824
0.000174254
0.000792956
0.000189734
0.000811155
0.000205457
0.000818246
0.00022112
0.000810282
0.000236296
0.000782499
0.000250459
0.000729582
0.000262871
0.000644807
0.000272903
0.000521711
0.000344383
0.000279011
-4.60547e-05
1.82507e-05
4.63551e-05
-4.57316e-05
1.97314e-05
-4.53807e-05
2.13329e-05
-4.50026e-05
2.30651e-05
-4.45922e-05
2.4939e-05
-4.41495e-05
2.69666e-05
-4.36691e-05
2.91609e-05
-4.31502e-05
3.15362e-05
-4.25865e-05
3.40965e-05
-4.19761e-05
3.68672e-05
-4.13135e-05
3.98752e-05
-4.05957e-05
4.31314e-05
-3.98164e-05
4.66568e-05
-3.89697e-05
5.0441e-05
-3.80482e-05
5.45268e-05
-3.70492e-05
5.89963e-05
-3.59658e-05
6.38368e-05
-3.47864e-05
6.89868e-05
-3.35055e-05
7.46008e-05
-3.21187e-05
8.07352e-05
-3.06114e-05
8.72674e-05
-2.89753e-05
9.43485e-05
-2.72064e-05
0.000102116
-2.5282e-05
0.000110302
-2.32007e-05
0.000119341
-2.09451e-05
0.000129032
-1.85e-05
0.000139481
-1.58555e-05
0.000150868
-1.29869e-05
0.000163022
-9.88601e-06
0.000176322
-6.52414e-06
0.000190511
-2.88961e-06
0.000205975
1.04558e-06
0.000222557
5.30345e-06
0.000240455
9.90782e-06
0.00025979
1.48965e-05
0.000280414
2.02887e-05
0.000302752
2.612e-05
0.000326624
3.24266e-05
0.000352105
3.92364e-05
0.000379402
4.65853e-05
0.00040842
5.45131e-05
0.000439089
6.30526e-05
0.000471477
7.22369e-05
0.000505446
8.20989e-05
0.000540775
9.26676e-05
0.000577166
0.000103966
0.000614188
0.000116008
0.000651232
0.000128793
0.000687464
0.000142303
0.000721764
0.000156484
0.000752653
0.00017125
0.000778205
0.000186456
0.000795969
0.000201886
0.000802837
0.000217245
0.00079495
0.000232115
0.000767661
0.000245986
0.000715753
0.000258149
0.000632712
0.000267996
0.00051197
0.000338499
0.000274074
-4.53412e-05
1.79564e-05
4.56367e-05
-4.50239e-05
1.94132e-05
-4.46793e-05
2.0989e-05
-4.43083e-05
2.26933e-05
-4.39056e-05
2.45371e-05
-4.34717e-05
2.65319e-05
-4.30011e-05
2.86908e-05
-4.24932e-05
3.10278e-05
-4.19417e-05
3.35458e-05
-4.13451e-05
3.62704e-05
-4.06979e-05
3.92287e-05
-3.99973e-05
4.24309e-05
-3.92372e-05
4.58975e-05
-3.84117e-05
4.96158e-05
-3.75135e-05
5.36292e-05
-3.65399e-05
5.80229e-05
-3.5484e-05
6.27812e-05
-3.43343e-05
6.7837e-05
-3.30849e-05
7.33514e-05
-3.17316e-05
7.93815e-05
-3.02595e-05
8.5795e-05
-2.86605e-05
9.27489e-05
-2.69303e-05
0.000100385
-2.50466e-05
0.000108417
-2.30077e-05
0.000117302
-2.07968e-05
0.000126821
-1.83986e-05
0.000137082
-1.58037e-05
0.000148272
-1.29876e-05
0.000160205
-9.94249e-06
0.000173276
-6.64029e-06
0.000187208
-3.06905e-06
0.000202403
7.97476e-07
0.000218688
4.98292e-06
0.000236269
9.50934e-06
0.000255262
1.44147e-05
0.000275507
1.97178e-05
0.000297447
2.54539e-05
0.000320886
3.16586e-05
0.000345898
3.83596e-05
0.000372699
4.55922e-05
0.000401185
5.33961e-05
0.000431282
6.18033e-05
0.000463067
7.08466e-05
0.000496399
8.0558e-05
0.000531059
9.09658e-05
0.000566753
0.000102091
0.000603056
0.000113948
0.000639369
0.000126532
0.00067487
0.000139824
0.000708461
0.000153767
0.000738693
0.000168276
0.000763677
0.000183205
0.000781014
0.000198343
0.000787667
0.0002134
0.000779849
0.000227968
0.000753033
0.000241553
0.000702086
0.000253471
0.000620685
0.000263122
0.000502171
0.000332259
0.000269136
-4.4623e-05
1.76673e-05
4.49126e-05
-4.43116e-05
1.91006e-05
-4.39734e-05
2.06511e-05
-4.36092e-05
2.23281e-05
-4.3214e-05
2.41422e-05
-4.27881e-05
2.61051e-05
-4.23263e-05
2.82294e-05
-4.18283e-05
3.05289e-05
-4.12877e-05
3.30057e-05
-4.07035e-05
3.56855e-05
-4.007e-05
3.85957e-05
-3.93849e-05
4.17454e-05
-3.8642e-05
4.51548e-05
-3.78357e-05
4.88092e-05
-3.69588e-05
5.27524e-05
-3.60086e-05
5.70724e-05
-3.49782e-05
6.17507e-05
-3.38563e-05
6.67146e-05
-3.26368e-05
7.21317e-05
-3.13156e-05
7.80598e-05
-2.98778e-05
8.43569e-05
-2.83152e-05
9.11858e-05
-2.66235e-05
9.8693e-05
-2.47804e-05
0.000106574
-2.27843e-05
0.000115305
-2.06184e-05
0.000124655
-1.82677e-05
0.000134731
-1.57228e-05
0.000145727
-1.29596e-05
0.000157441
-9.97058e-06
0.000170286
-6.72788e-06
0.000183964
-3.22026e-06
0.000198894
5.79434e-07
0.000214888
4.69266e-06
0.000232154
9.14272e-06
0.00025081
1.39663e-05
0.000270682
1.9182e-05
0.00029223
2.48246e-05
0.000315242
3.09291e-05
0.000339792
3.7523e-05
0.000366103
4.4641e-05
0.000394065
5.23219e-05
0.0004236
6.05975e-05
0.00045479
6.94999e-05
0.000487496
7.90601e-05
0.000521498
8.93055e-05
0.000556509
0.000100256
0.000592108
0.000111924
0.000627706
0.000124303
0.000662497
0.000137373
0.000695402
0.000151075
0.000725001
0.000165325
0.000749444
0.000179977
0.000766383
0.000194824
0.000772844
0.000209583
0.000765121
0.000223855
0.000738798
0.000237161
0.000688829
0.00024884
0.000609083
0.000258291
0.000492839
0.000326535
0.000264227
-4.39028e-05
1.73834e-05
4.41876e-05
-4.35969e-05
1.87938e-05
-4.32646e-05
2.03193e-05
-4.2907e-05
2.19695e-05
-4.25188e-05
2.37546e-05
-4.21007e-05
2.56862e-05
-4.16474e-05
2.77766e-05
-4.11586e-05
3.00396e-05
-4.06283e-05
3.24761e-05
-4.00554e-05
3.51123e-05
-3.94345e-05
3.79755e-05
-3.87634e-05
4.10743e-05
-3.8036e-05
4.44283e-05
-3.72472e-05
4.80205e-05
-3.63897e-05
5.18955e-05
-3.5461e-05
5.61438e-05
-3.44542e-05
6.07442e-05
-3.33583e-05
6.56186e-05
-3.21671e-05
7.09406e-05
-3.08766e-05
7.67688e-05
-2.94717e-05
8.29519e-05
-2.79445e-05
8.9658e-05
-2.62903e-05
9.70384e-05
-2.44872e-05
0.00010477
-2.25334e-05
0.000113351
-2.04124e-05
0.000122533
-1.8109e-05
0.000132427
-1.5614e-05
0.000143231
-1.29038e-05
0.00015473
-9.97073e-06
0.000167352
-6.78748e-06
0.000180781
-3.34239e-06
0.000195449
3.89976e-07
0.000211155
4.4326e-06
0.000228111
8.80697e-06
0.000246435
1.35498e-05
0.000265938
1.86793e-05
0.000287099
2.42294e-05
0.00030969
3.0235e-05
0.000333784
3.67226e-05
0.000359613
4.37266e-05
0.000387059
5.12851e-05
0.000416039
5.94292e-05
0.000446643
6.819e-05
0.000478732
7.7598e-05
0.000512086
8.76794e-05
0.000546423
9.84528e-05
0.000581328
0.000109929
0.000616223
0.000122101
0.000650316
0.000134947
0.000682548
0.000148406
0.000711526
0.000162396
0.000735438
0.000176772
0.000751986
0.00019133
0.000758257
0.000205795
0.000750618
0.000219778
0.000724761
0.000232812
0.00067572
0.000244259
0.000597538
0.000253512
0.000483453
0.000320482
0.000259361
-4.31848e-05
1.71046e-05
4.34643e-05
-4.28845e-05
1.84923e-05
-4.25581e-05
1.99934e-05
-4.22068e-05
2.16171e-05
-4.18254e-05
2.33737e-05
-4.14146e-05
2.52745e-05
-4.09692e-05
2.73317e-05
-4.04892e-05
2.95588e-05
-3.99684e-05
3.19559e-05
-3.94061e-05
3.45494e-05
-3.87968e-05
3.73668e-05
-3.81387e-05
4.04158e-05
-3.74258e-05
4.37158e-05
-3.6653e-05
4.72475e-05
-3.58133e-05
5.1056e-05
-3.49045e-05
5.52346e-05
-3.39195e-05
5.97592e-05
-3.28476e-05
6.45463e-05
-3.16829e-05
6.97757e-05
-3.0421e-05
7.55064e-05
-2.90474e-05
8.1578e-05
-2.75539e-05
8.8164e-05
-2.59358e-05
9.542e-05
-2.41716e-05
0.000103005
-2.22592e-05
0.000111438
-2.01821e-05
0.000120455
-1.79254e-05
0.00013017
-1.548e-05
0.000140785
-1.28223e-05
0.000152072
-9.94471e-06
0.000164474
-6.82031e-06
0.000177656
-3.43794e-06
0.000192066
2.28802e-07
0.000207488
4.20067e-06
0.000224138
8.50032e-06
0.000242134
1.3163e-05
0.000261273
1.82069e-05
0.000282053
2.36654e-05
0.00030423
2.95724e-05
0.000327876
3.59542e-05
0.00035323
4.28444e-05
0.000380167
5.02804e-05
0.000408601
5.82925e-05
0.00043863
6.69111e-05
0.000470113
7.61657e-05
0.000502832
8.60815e-05
0.000536509
9.66759e-05
0.000570736
0.000107959
0.000604946
0.000119921
0.00063836
0.000132541
0.00066994
0.000145757
0.000698321
0.000159488
0.000721726
0.00017359
0.000737907
0.000187864
0.00074401
0.00020204
0.000736475
0.00021574
0.000711102
0.000228511
0.000663005
0.000239732
0.000586401
0.000248793
0.000474522
0.00031495
0.000254555
-4.24705e-05
1.68307e-05
4.27455e-05
-4.21753e-05
1.81962e-05
-4.18544e-05
1.96733e-05
-4.15092e-05
2.1271e-05
-4.11343e-05
2.29997e-05
-4.07308e-05
2.48702e-05
-4.02932e-05
2.68948e-05
-3.98217e-05
2.90867e-05
-3.93102e-05
3.14452e-05
-3.87579e-05
3.39969e-05
-3.81597e-05
3.67695e-05
-3.75137e-05
3.97699e-05
-3.68142e-05
4.30171e-05
-3.60564e-05
4.64898e-05
-3.52332e-05
5.02336e-05
-3.43427e-05
5.43441e-05
-3.3378e-05
5.87949e-05
-3.23287e-05
6.34969e-05
-3.11887e-05
6.86358e-05
-2.99539e-05
7.42713e-05
-2.86099e-05
8.02338e-05
-2.71485e-05
8.67022e-05
-2.55651e-05
9.38363e-05
-2.38383e-05
0.000101278
-2.19659e-05
0.000109565
-1.99316e-05
0.000118421
-1.77207e-05
0.000127959
-1.53238e-05
0.000138388
-1.27178e-05
0.000149465
-9.89514e-06
0.000161651
-6.82911e-06
0.000174589
-3.50814e-06
0.000188744
9.25031e-08
0.000203886
3.99503e-06
0.000220235
8.22025e-06
0.000237907
1.28034e-05
0.000256689
1.77622e-05
0.000277093
2.31292e-05
0.000298861
2.8938e-05
0.000322065
3.5214e-05
0.000346952
4.19904e-05
0.000373389
4.93036e-05
0.000401286
5.71832e-05
0.000430747
6.56588e-05
0.000461634
7.4759e-05
0.000493728
8.45079e-05
0.000526756
9.49218e-05
0.000560317
0.00010601
0.000593853
0.000117762
0.0006266
0.000130156
0.00065754
0.000143129
0.000685334
0.000156602
0.000708241
0.000170433
0.000724057
0.000184427
0.000729991
0.000198321
0.000722546