/*--------------------------------*- C++ -*----------------------------------*\
  =========                 |
  \\      /  F ield         | OpenFOAM: The Open Source CFD Toolbox
   \\    /   O peration     | Website:  https://openfoam.org
    \\  /    A nd           | Version:  6.0
     \\/     M anipulation  |
\*---------------------------------------------------------------------------*/
FoamFile
{
    version     2.0;
    format      ascii;
    class       volScalarField;
    location    "6";
    object      p;
}
// * * * * * * * * * * * * * * * * * * * * * * * * * * * * * * * * * * * * * //

dimensions      [0 2 -2 0 0 0 0];

internalField   nonuniform List<scalar> 
47000
(
0.0142602
0.0133444
0.0121735
0.0110955
0.0104281
0.0103849
0.0109643
0.0120027
0.0132245
0.0143394
0.0151259
0.0154523
0.0152976
0.01471
0.0137902
0.012646
0.0113855
0.0100912
0.00882787
0.00763462
0.00653598
0.00554109
0.00465101
0.00386047
0.00316141
0.0025444
0.00200315
0.00150487
0.0012628
0.00138865
0.0143183
0.0133977
0.0122108
0.0110989
0.0103843
0.0102996
0.0108715
0.0119648
0.0133204
0.014647
0.0157037
0.0163282
0.0164655
0.0161337
0.0154127
0.0143995
0.0132008
0.0119039
0.0105828
0.00928713
0.00805229
0.00689706
0.00583086
0.00485547
0.00396887
0.00316747
0.00245292
0.00180808
0.00149224
0.00145466
0.0144127
0.0134483
0.0121667
0.0108956
0.00995538
0.00959391
0.00986867
0.0106846
0.0118179
0.0130016
0.0140004
0.0146435
0.014855
0.0146304
0.0140265
0.0131253
0.0120216
0.0107993
0.00953064
0.00826897
0.0070533
0.00590812
0.0048477
0.00388017
0.00300957
0.00224046
0.00158418
0.00105152
0.000865055
0.000887277
0.0145514
0.0135433
0.0121661
0.010729
0.00954469
0.00886904
0.00878666
0.00924129
0.0100498
0.0109777
0.0118058
0.0123658
0.0125693
0.012395
0.0118785
0.0110859
0.0100981
0.00899124
0.00783271
0.00667551
0.00555968
0.00451284
0.00355278
0.00269236
0.00194073
0.0013089
0.000813833
0.000483503
0.000479575
0.000665084
0.0147359
0.0137067
0.0122776
0.0107349
0.00937662
0.00845714
0.00807886
0.0082162
0.00872272
0.00939617
0.0100381
0.010488
0.0106525
0.0104985
0.0100454
0.00934512
0.00846549
0.00747437
0.00643317
0.00539299
0.00439314
0.00346271
0.00262111
0.00188402
0.00126296
0.000771713
0.000426756
0.000260984
0.000379975
0.000654551
0.0149713
0.0139474
0.0125154
0.0109358
0.00948645
0.00841144
0.00782201
0.00771392
0.00797192
0.0084228
0.00889026
0.00922487
0.00933339
0.00917598
0.00876015
0.00812627
0.00733108
0.00643452
0.005492
0.00455177
0.00365154
0.00282052
0.00207852
0.00144222
0.000923752
0.000537238
0.000296239
0.000233638
0.000415009
0.000723697
0.0152535
0.0142571
0.0128598
0.0112963
0.00982172
0.00866392
0.00793594
0.0076477
0.00770913
0.00797269
0.00828354
0.00850498
0.0085473
0.00836747
0.00796472
0.00737057
0.00663236
0.00580318
0.00493261
0.00406602
0.00323894
0.00248015
0.00180898
0.00124252
0.000792616
0.000473229
0.00029489
0.000290005
0.000498317
0.000813923
0.015588
0.0146336
0.0132957
0.0117841
0.01033
0.00914207
0.00833048
0.00791338
0.0078212
0.00792812
0.00809954
0.0082119
0.00818098
0.00796339
0.00755272
0.00697405
0.00626695
0.00547875
0.0046538
0.00383468
0.00305466
0.00234184
0.00171491
0.00119102
0.000781769
0.000500945
0.000356889
0.000381616
0.000598573
0.000910148
0.0159723
0.0150657
0.0137999
0.0123597
0.0109531
0.00976825
0.00890971
0.00840013
0.00818609
0.00816048
0.00820695
0.00821489
0.00810665
0.00784017
0.00740549
0.00682304
0.0061261
0.00535727
0.00455623
0.00376315
0.00300908
0.00232152
0.00171838
0.00121705
0.000828855
0.00056775
0.000440391
0.000478641
0.00069539
0.000997185
0.0164097
0.0155523
0.0143634
0.013003
0.0116576
0.0104952
0.00961312
0.00903573
0.0087228
0.00858276
0.00851585
0.00842364
0.00823547
0.00791191
0.00744088
0.00683969
0.00613644
0.00537002
0.00457599
0.00379246
0.00304844
0.00237093
0.00177714
0.00128471
0.000904861
0.000651766
0.000530859
0.000573683
0.000786206
0.00107765
0.0168938
0.0160831
0.0149696
0.0136888
0.0124082
0.0112764
0.0103833
0.00975329
0.00935674
0.00911547
0.00894424
0.00875609
0.00848728
0.00810168
0.00758608
0.00695578
0.0062347
0.00545871
0.00465974
0.00387431
0.00312947
0.00245187
0.00185804
0.00136599
0.000986777
0.000734908
0.00061468
0.000657317
0.000864083
0.00114434
0.0174268
0.0166596
0.0156168
0.0144112
0.0131933
0.0120942
0.0111963
0.010523
0.0100535
0.00972063
0.00945229
0.00917188
0.00882238
0.00837142
0.00780537
0.0071384
0.00639091
0.00559653
0.00478399
0.00398844
0.00323517
0.0025506
0.0019506
0.00145352
0.00107027
0.000815594
0.000692804
0.000732602
0.000933091
0.0012037
0.0180024
0.0172727
0.0162936
0.0151554
0.0139941
0.012925
0.0120235
0.0113116
0.0107755
0.0103581
0.00999829
0.00962923
0.00920011
0.00868243
0.00806257
0.00735423
0.00657488
0.00575639
0.0049246
0.00411366
0.00334715
0.00265138
0.00204148
0.00153622
0.00114623
0.000886492
0.000759273
0.000794806
0.000989026
0.00124985
0.0186229
0.0179262
0.0170034
0.0159241
0.0148122
0.0137685
0.0128627
0.0121145
0.0115166
0.0110198
0.0105732
0.0101186
0.00961089
0.00902565
0.00834954
0.00759628
0.00678084
0.00593383
0.0050785
0.00424818
0.00346489
0.00275482
0.00213244
0.00161681
0.00121825
0.000951891
0.00081902
0.000849291
0.00103726
0.00128991
0.0192808
0.0186118
0.0177374
0.0167078
0.0156367
0.0146126
0.0136994
0.0129153
0.0122581
0.0116857
0.0111561
0.0106188
0.0100342
0.00938159
0.00864815
0.00784797
0.0069939
0.0061156
0.00523396
0.00438174
0.00357938
0.00285311
0.00221659
0.00168925
0.00128094
0.00100695
0.000867542
0.000891902
0.00107372
0.00131785
0.0199798
0.0193349
0.0185017
0.0175135
0.0164755
0.0154651
0.0145417
0.0137214
0.0130069
0.0123618
0.0117524
0.0111348
0.0104745
0.00975449
0.00896264
0.00811369
0.0072186
0.00630645
0.00539596
0.00451948
0.00369597
0.00295168
0.00229952
0.00175915
0.00133998
0.00105735
0.000910577
0.000928343
0.00110392
0.00134087
0.0207127
0.0200876
0.0192886
0.0183336
0.0173206
0.0163179
0.0153803
0.0145228
0.0137517
0.0130362
0.0123494
0.0116538
0.0109192
0.0101324
0.00928185
0.00838311
0.00744554
0.00649787
0.0055568
0.00465445
0.00380831
0.00304474
0.00237578
0.00182141
0.00139048
0.00109841
0.000943516
0.000954141
0.00112344
0.00135256
0.0214841
0.0208765
0.0201058
0.019177
0.0181825
0.017182
0.0162273
0.0153315
0.0145046
0.0137204
0.0129582
0.0121863
0.0113783
0.0105248
0.00961473
0.00866483
0.00768297
0.00669779
0.00572413
0.00479398
0.00392346
0.00313904
0.00245193
0.00188235
0.00143855
0.00113604
0.0009722
0.000975001
0.00113776
0.00136017
0.0222871
0.0216938
0.0209456
0.0200364
0.0190538
0.0180503
0.0170748
0.0161392
0.0152565
0.0144048
0.0135688
0.012722
0.0118418
0.0109219
0.00995203
0.00895015
0.00792282
0.00689873
0.00589098
0.0049316
0.00403534
0.00322885
0.00252243
0.00193662
0.001479
0.00116519
0.000991611
0.000986018
0.00114206
0.00135687
0.0231275
0.0225471
0.0218168
0.0209216
0.0199456
0.0189348
0.0179359
0.0169591
0.016021
0.0151027
0.0141941
0.0132734
0.0123213
0.0113348
0.0103043
0.00924905
0.00817448
0.00710955
0.00606575
0.00507524
0.00415144
0.00332123
0.00259405
0.00199067
0.00151804
0.00119184
0.00100763
0.00099292
0.00114187
0.00135005
0.0239983
0.0234286
0.0227115
0.0218253
0.0208505
0.019828
0.0188024
0.017783
0.0167888
0.0158045
0.0148241
0.0138304
0.0128069
0.0117539
0.0106623
0.00955278
0.00842975
0.00732256
0.00624118
0.00521804
0.00426526
0.00341002
0.00266081
0.00203873
0.00155003
0.00121052
0.00101484
0.000990424
0.00113203
0.00133253
0.0249064
0.0243465
0.023639
0.0227574
0.0217799
0.0207422
0.0196878
0.0186245
0.0175741
0.016524
0.0154725
0.0144061
0.0133111
0.012191
0.0110371
0.00987175
0.00869837
0.00754691
0.00642589
0.00536811
0.00438445
0.0035024
0.00272958
0.00208735
0.00158128
0.00122731
0.00101923
0.000984353
0.00111816
0.00131187
0.0258449
0.0252928
0.0245912
0.0237102
0.0227257
0.0216692
0.020583
0.0194742
0.0183669
0.0172511
0.0161287
0.0149899
0.0138235
0.0126359
0.0114189
0.0101967
0.00897161
0.00777437
0.00661208
0.00551809
0.004502
0.00359172
0.00279392
0.00213032
0.00160576
0.00123636
0.00101502
0.000969082
0.00109479
0.00128055
0.0268211
0.0262764
0.025578
0.0246941
0.0236995
0.0226214
0.0215016
0.0203461
0.0191814
0.0179997
0.0168063
0.0155949
0.0143566
0.0131005
0.0118191
0.0105383
0.00925945
0.00801428
0.00680856
0.00567622
0.00462569
0.0036853
0.00286083
0.00217432
0.00162993
0.0012439
0.00100835
0.000950588
0.0010677
0.00124635
0.0278281
0.0272891
0.026591
0.025701
0.0246926
0.0235899
0.0224339
0.02123
0.0200068
0.0187589
0.0174942
0.0162101
0.0148994
0.0135742
0.0122274
0.0108866
0.00955258
0.00825786
0.007007
0.00583466
0.00474807
0.00377606
0.00292348
0.00221279
0.00164739
0.00124375
0.000993135
0.000922943
0.00103114
0.00120143
0.0288739
0.0283405
0.0276403
0.0267415
0.025717
0.0245873
0.0233934
0.0221399
0.0208575
0.0195427
0.0182065
0.0168489
0.0154648
0.0140692
0.0126553
0.0112526
0.00986121
0.00851469
0.00721642
0.00600186
0.00487709
0.00387151
0.00298908
0.00225261
0.00166481
0.00124236
0.000975703
0.000892319
0.000991067
0.00115382
0.0299514
0.029422
0.0287174
0.027807
0.0267632
0.0256039
0.0243697
0.0230649
0.021722
0.0203395
0.0189309
0.0174993
0.0160411
0.0145742
0.0130919
0.011626
0.0101756
0.00877551
0.00742805
0.00616953
0.00500491
0.0039642
0.00305041
0.00228686
0.00167547
0.00123321
0.000949666
0.000852486
0.000941448
0.00109534
0.031069
0.0305437
0.029833
0.0289088
0.0278437
0.0266526
0.0253767
0.0240191
0.0226148
0.0211637
0.019682
0.0181752
0.0166417
0.0151017
0.0135492
0.0120178
0.0105061
0.00905018
0.00765116
0.00634639
0.00513974
0.00406187
0.00311494
0.00232267
0.00168628
0.00122298
0.000921583
0.000809838
0.000888463
0.00103432
0.0322196
0.0316969
0.0309779
0.0300375
0.0289484
0.0277232
0.0264031
0.0249911
0.0235238
0.022003
0.020447
0.0188642
0.0172542
0.01564
0.0140158
0.0124174
0.0108426
0.00932903
0.00787658
0.00652378
0.00527335
0.00415673
0.00317511
0.00235279
0.0016902
0.00120488
0.000884769
0.000757859
0.000825798
0.00096222
0.033412
0.032892
0.0321634
0.031205
0.0300903
0.028829
0.0274634
0.0259953
0.0244639
0.0228722
0.0212407
0.0195805
0.0178923
0.016202
0.014504
0.0128363
0.011196
0.00962222
0.00811392
0.00671069
0.00541425
0.0042568
0.00323866
0.00238462
0.0016944
0.00118581
0.00084603
0.000703186
0.000759872
0.000887694
0.0346387
0.0341202
0.0333801
0.0324016
0.0312586
0.0299591
0.0285455
0.0270196
0.0254223
0.0237583
0.0220499
0.020311
0.0185433
0.0167754
0.015002
0.0132632
0.0115555
0.0099197
0.00835359
0.00689811
0.00555387
0.00435393
0.0032977
0.00241059
0.00169152
0.00115869
0.000798378
0.000638999
0.000684076
0.000801846
0.0359092
0.0353923
0.0346396
0.0336394
0.0324669
0.0311273
0.0296644
0.0280791
0.0264145
0.0246766
0.0228899
0.0210704
0.0192213
0.0173737
0.0155225
0.0137101
0.0119325
0.010232
0.00860556
0.00709536
0.00570101
0.00445647
0.00336028
0.00243838
0.00168902
0.00113069
0.000748885
0.000572198
0.000605087
0.000713656
0.0372157
0.0366991
0.0359322
0.0349084
0.0337038
0.0323221
0.0308074
0.0291607
0.0274268
0.0256135
0.0237467
0.0218453
0.019913
0.0179841
0.0160532
0.0141654
0.0123158
0.0105487
0.00885988
0.00729307
0.00584677
0.00455593
0.00341816
0.00246011
0.00167923
0.00109441
0.00069026
0.000495666
0.00051601
0.00061387
0.038568
0.0380521
0.0372701
0.0362212
0.0349835
0.0335578
0.0319901
0.0302803
0.0284756
0.026585
0.0246364
0.0226508
0.0206332
0.0186205
0.0166073
0.0146414
0.0127172
0.0108807
0.00912688
0.00750091
0.00600028
0.00466095
0.00347969
0.00248376
0.00166989
0.00105732
0.000629855
0.000416579
0.000423793
0.000511827
0.0399582
0.0394417
0.038643
0.0375675
0.0362941
0.0348225
0.0331991
0.0314242
0.0295464
0.0275767
0.0255442
0.0234728
0.0213681
0.0192696
0.0171722
0.0151261
0.0131251
0.0112172
0.00939625
0.00770914
0.00615228
0.00476273
0.00353633
0.00250111
0.001653
0.00101169
0.000560058
0.000327504
0.000321226
0.000397874
0.0413965
0.0408798
0.0400638
0.0389601
0.0376503
0.036131
0.0344507
0.0326087
0.0306563
0.0286053
0.0264869
0.0243273
0.0221328
0.0199459
0.0177615
0.0156323
0.0135516
0.0115694
0.00967867
0.00792779
0.00631226
0.00487022
0.00359673
0.00252045
0.00163662
0.000965297
0.000488519
0.000235909
0.000215552
0.000281734
0.0428746
0.0423566
0.0415218
0.0403885
0.0390397
0.0374707
0.0357309
0.0338196
0.03179
0.0296557
0.0274492
0.0251994
0.022913
0.0206357
0.018362
0.0161476
0.013985
0.0119263
0.00996349
0.0081468
0.0064706
0.00497431
0.003652
0.00253324
0.00161242
0.00091008
0.000407307
0.000134047
9.9253e-05
0.000153358
0.0444033
0.0438843
0.0430301
0.0418659
0.0404774
0.038857
0.0370564
0.0350739
0.0329653
0.0307454
0.0284485
0.0261057
0.0237248
0.0213539
0.018988
0.0166853
0.0144376
0.0122995
0.0102618
0.00837651
0.00663714
0.00508425
0.00371115
0.00254808
0.00158876
0.000854124
0.000324377
2.96896e-05
-2.01252e-05
2.28678e-05
0.0459739
0.045453
0.044578
0.0433815
0.0419508
0.0402769
0.0384127
0.0363566
0.0341663
0.0318585
0.0294687
0.0270309
0.0245529
0.0220864
0.0196257
0.0172324
0.0148974
0.0126775
0.0105625
0.00860654
0.00680193
0.00519061
0.00376493
0.00255609
0.00155699
0.000789038
0.000231462
-8.5243e-05
-0.000150437
-0.000120214
0.0475977
0.0470752
0.0461789
0.0449488
0.0434755
0.0417465
0.0398174
0.0376855
0.0354116
0.0330133
0.0305281
0.0279921
0.0254142
0.0228487
0.0202901
0.0178028
0.0153771
0.0130723
0.0108771
0.00884759
0.00697512
0.00530295
0.00382266
0.0025662
0.00152578
0.000723222
0.000136836
-0.000202663
-0.000283812
-0.000265345
0.0492657
0.0487405
0.0478217
0.0465567
0.0450381
0.0432519
0.041255
0.039045
0.0366844
0.0341933
0.0316099
0.0289735
0.0262929
0.0236261
0.0209668
0.0183832
0.0158642
0.0134721
0.0111942
0.00908893
0.00714646
0.00541153
0.00387478
0.0025692
0.00148614
0.000647952
3.18995e-05
-0.000330978
-0.000428432
-0.000423429
0.0509894
0.0504622
0.0495203
0.0482192
0.0466551
0.04481
0.042744
0.0404535
0.0380043
0.0354174
0.032733
0.0299929
0.0272064
0.0244347
0.0216714
0.0189877
0.0163722
0.0138893
0.0115256
0.00934161
0.00732643
0.00552624
0.00393095
0.00257434
0.00144709
0.000571956
-7.47459e-05
-0.000461772
-0.000576099
-0.000583489
0.0527598
0.0522295
0.0512634
0.0499249
0.0483124
0.0464063
0.0442681
0.0418946
0.0393535
0.0366683
0.03388
0.0310336
0.0281384
0.0252591
0.022389
0.0196027
0.0168878
0.0143117
0.0118597
0.00959457
0.00750443
0.00563701
0.00398125
0.00257206
0.00139926
0.000486159
-0.00019205
-0.000603804
-0.000735346
-0.000756882
0.0545887
0.0540558
0.053065
0.0516879
0.0500272
0.0480584
0.0458468
0.0433878
0.0407526
0.037966
0.0350707
0.0321145
0.029107
0.0261164
0.0231356
0.020243
0.0174251
0.0147522
0.0122085
0.00985919
0.00769129
0.00575404
0.00403566
0.00257195
0.00135203
0.000399629
-0.00031107
-0.000748315
-0.000897626
-0.000932178
0.0564668
0.0559304
0.0549138
0.0534969
0.051785
0.0497512
0.0474628
0.0449156
0.0421831
0.0392923
0.0362869
0.033218
0.0300952
0.0269904
0.023896
0.0208941
0.0179704
0.015198
0.01256
0.0101241
0.0078761
0.00586695
0.00408396
0.00256411
0.00129568
0.000302943
-0.000441101
-0.000904407
-0.00107182
-0.00112118
0.0584062
0.0578671
0.0568241
0.0553663
0.0536033
0.051503
0.0491366
0.0464986
0.0436662
0.040668
0.0375492
0.0343639
0.0311219
0.0278989
0.0246868
0.0215717
0.0185382
0.0156627
0.0129268
0.0104011
0.00807
0.00598627
0.00413645
0.00255847
0.00123993
0.000205521
-0.000572852
-0.00106297
-0.00124902
-0.001312
0.0603978
0.059855
0.0587847
0.0572846
0.0554675
0.053298
0.0508501
0.0481184
0.0451827
0.042074
0.0388386
0.0355338
0.0321694
0.0288251
0.0254922
0.0222608
0.0191145
0.0161329
0.0132965
0.0106783
0.00826176
0.00610129
0.00418255
0.00254478
0.00117471
9.75721e-05
-0.000715982
-0.00123348
-0.00143847
-0.00151691
0.0624537
0.061908
0.0608102
0.0592665
0.0573956
0.0551553
0.0526246
0.0497966
0.0467549
0.0435323
0.0401766
0.0367482
0.0332572
0.0297873
0.0263293
0.0229774
0.0197142
0.0166227
0.013682
0.010968
0.00846287
0.00622285
0.00423293
0.00253332
0.00111009
-1.11186e-05
-0.000860833
-0.00140644
-0.00163091
-0.00172353
0.0645652
0.064016
0.0628894
0.0613008
0.0593723
0.0570586
0.0544412
0.0515137
0.0483624
0.0450227
0.0415433
0.0379882
0.0343672
0.0307683
0.0271818
0.0237062
0.0203228
0.0171184
0.0140706
0.011258
0.00866176
0.00633994
0.00427663
0.00251348
0.00103564
-0.000130706
-0.00101743
-0.0015917
-0.00183592
-0.0019446
0.066744
0.066192
0.065037
0.0634022
0.0614166
0.0590276
0.0563223
0.0532925
0.0500288
0.0465683
0.0429612
0.0392751
0.0355195
0.0317872
0.0280675
0.0244636
0.0209558
0.0176343
0.0144754
0.0115608
0.00887025
0.00646372
0.0043247
0.00249589
0.000961794
-0.000251026
-0.00117573
-0.00177939
-0.00204387
-0.00216727
0.0689822
0.0684275
0.0672422
0.0655595
0.0635126
0.0610452
0.0582479
0.0551125
0.0517325
0.048148
0.0444097
0.040589
0.0366953
0.0328259
0.0289695
0.025234
0.0215982
0.0181565
0.0148835
0.011864
0.00907643
0.00658283
0.00436579
0.00246957
0.000877734
-0.000382625
-0.00134614
-0.00197972
-0.00226475
-0.00240476
0.0712908
0.0707342
0.0695195
0.0677876
0.0656797
0.0631322
0.0602415
0.0569977
0.0534984
0.0497859
0.0459122
0.0419524
0.0379157
0.0339043
0.0299063
0.0260343
0.022266
0.0186996
0.0153085
0.0121804
0.00929246
0.00670877
0.00441132
0.00244555
0.00079431
-0.000514939
-0.00151824
-0.00218247
-0.00248853
-0.00264375
0.0736627
0.0731045
0.0718581
0.0700748
0.0679013
0.0652704
0.0622819
0.0589263
0.0553038
0.0514598
0.0474469
0.0433444
0.0391608
0.0350038
0.0308603
0.0268482
0.0229437
0.0192494
0.015737
0.0124972
0.00950607
0.00682981
0.00444957
0.00241243
0.000700285
-0.00065891
-0.00170281
-0.00239821
-0.00272558
-0.00289796
0.0761072
0.0755498
0.0742722
0.0724364
0.0701978
0.0674815
0.064394
0.0609236
0.0571748
0.0531952
0.0490387
0.0447884
0.0404528
0.0361449
0.0318507
0.0276934
0.0236479
0.0198209
0.0161828
0.0128276
0.00972979
0.00695782
0.00449234
0.00238166
0.000606933
-0.000803556
-0.00188904
-0.00261632
-0.00296554
-0.00315362
0.0786182
0.0780621
0.0767506
0.0748598
0.0725512
0.0697464
0.0665554
0.0629666
0.0590875
0.0549687
0.0506646
0.0462627
0.0417711
0.0373082
0.0328593
0.0285529
0.0243625
0.0203994
0.0166323
0.0131584
0.00995091
0.00708067
0.00452747
0.00234139
0.000502578
-0.000960253
-0.00208811
-0.00284781
-0.00321915
-0.00342496
0.0812044
0.0806511
0.0793075
0.0773609
0.0749829
0.0720879
0.0687921
0.0650821
0.0610693
0.056807
0.0523505
0.0477918
0.0431385
0.0385152
0.033906
0.0294451
0.0251046
0.0210005
0.0170998
0.0135031
0.0101824
0.00721061
0.00456721
0.00230353
0.000398941
-0.00111758
-0.0022888
-0.00308166
-0.00347571
-0.0036978
0.0838592
0.0833082
0.0819298
0.0799253
0.0774736
0.0744854
0.0710805
0.0672457
0.0630952
0.0586856
0.0540726
0.0493529
0.0445338
0.0397456
0.0349718
0.0303524
0.0258577
0.0216088
0.017571
0.0138482
0.010411
0.00733507
0.00459891
0.00225577
0.000283889
-0.00128735
-0.00250271
-0.00332927
-0.00374636
-0.0039868
0.0865908
0.0860441
0.0846327
0.0825703
0.0800459
0.0769632
0.0734481
0.0694856
0.0651939
0.0606324
0.0558579
0.0509716
0.0459807
0.0410218
0.0360775
0.0312937
0.0266393
0.0222405
0.0180607
0.0142076
0.0106502
0.00746673
0.00463529
0.00221047
0.000169616
-0.00145768
-0.0027182
-0.00357922
-0.00402
-0.00427744
0.0893922
0.0888482
0.0874015
0.0852798
0.082679
0.0794993
0.0758697
0.0717762
0.0673392
0.062622
0.0576816
0.0526243
0.0474569
0.0423229
0.0372034
0.0322508
0.0274324
0.0228797
0.0185541
0.0145672
0.0108862
0.00759251
0.0046632
0.00215481
4.34766e-05
-0.0016409
-0.00294732
-0.00384336
-0.00430819
-0.00458476
0.0922721
0.0917323
0.090253
0.0880727
0.0853971
0.0821194
0.0783746
0.074147
0.0695611
0.0646833
0.0595716
0.0543374
0.0489874
0.0436717
0.0383709
0.0332434
0.0282551
0.0235429
0.0190666
0.0149412
0.011133
0.00772558
0.00469585
0.00210168
-8.18257e-05
-0.00182462
-0.00317797
-0.00410983
-0.00459946
-0.00489385
0.0952229
0.0946844
0.0931706
0.0909313
0.088178
0.0848002
0.0809361
0.0765712
0.0718323
0.0667899
0.0615023
0.0560864
0.0505488
0.0450467
0.0395595
0.0342525
0.0290897
0.0242138
0.0195826
0.0153152
0.0113762
0.0078523
0.00471953
0.00203769
-0.000219469
-0.00202167
-0.00342267
-0.00439089
-0.0049057
-0.00522008
0.0982547
0.0977186
0.0961737
0.0938766
0.0910477
0.0875692
0.083585
0.0790798
0.0741839
0.0689718
0.0635027
0.0578989
0.0521671
0.0464717
0.0407915
0.0352984
0.0299549
0.0249094
0.0201181
0.015704
0.0116302
0.00798637
0.004748
0.00197629
-0.000356209
-0.00221913
-0.00366883
-0.00467424
-0.00521502
-0.00554866
0.101359
0.100822
0.0992445
0.0968896
0.0939825
0.0904014
0.0862934
0.0816447
0.0765878
0.0712018
0.065546
0.0597492
0.0538179
0.0479241
0.0420456
0.0363614
0.0308322
0.0256127
0.020657
0.0160923
0.0118801
0.00811351
0.00476692
0.00190348
-0.000505816
-0.00243042
-0.00392947
-0.00497259
-0.00553976
-0.00589488
0.104548
0.104011
0.102405
0.0999935
0.0970105
0.0933263
0.0890935
0.0842981
0.0790761
0.0735107
0.0676626
0.061666
0.0555281
0.0494287
0.0433448
0.0374625
0.0317411
0.0263414
0.0212157
0.0164955
0.0121409
0.00824805
0.00479068
0.00183331
-0.000654462
-0.00264203
-0.0041915
-0.00527313
-0.00586749
-0.00624371
0.107812
0.107273
0.105636
0.103168
0.100106
0.0963175
0.0919563
0.087011
0.0816197
0.0758704
0.0698244
0.0636226
0.0572725
0.0509618
0.0446668
0.0385811
0.0326622
0.0270775
0.0217773
0.0168977
0.012397
0.00837502
0.00480425
0.00175113
-0.000816531
-0.00286798
-0.00446841
-0.00558902
-0.00621097
-0.00661038
0.111164
0.110625
0.108962
0.106438
0.1033
0.099406
0.0949153
0.0898167
0.0842517
0.0783128
0.0720628
0.0656487
0.0590789
0.0525493
0.0460356
0.0397391
0.0336158
0.0278395
0.0223591
0.0173151
0.0126641
0.00850941
0.0048227
0.00167164
-0.000977568
-0.00309415
-0.00474659
-0.00590693
-0.00655725
-0.00697931
0.114594
0.114054
0.112362
0.109783
0.106566
0.102564
0.0979404
0.0926854
0.0869421
0.0808089
0.0743489
0.0677166
0.0609208
0.0541663
0.0474279
0.0409149
0.0345815
0.0286087
0.0229433
0.0177306
0.0129258
0.0086355
0.00483026
0.00157948
-0.00115263
-0.00333517
-0.00504006
-0.00624048
-0.0069195
-0.00736608
0.118116
0.117579
0.115862
0.113228
0.109934
0.105824
0.101066
0.095651
0.089725
0.0833911
0.0767148
0.0698567
0.0628273
0.0558396
0.0488686
0.0421312
0.0355804
0.0294043
0.0235479
0.0181615
0.0131984
0.00876905
0.00484273
0.00149007
-0.0013266
-0.00357629
-0.00533463
-0.0065758
-0.00728424
-0.0077546
0.12172
0.121185
0.119441
0.116752
0.113378
0.109158
0.104262
0.0986831
0.0925696
0.0860301
0.0791308
0.0720406
0.0647707
0.0575435
0.0503332
0.0433654
0.0365914
0.0302065
0.0241541
0.0185897
0.0134648
0.00889352
0.00484358
0.0013873
-0.00151522
-0.00383281
-0.00564486
-0.00692698
-0.00766504
-0.00816091
0.12542
0.124892
0.123126
0.120381
0.116929
0.112599
0.107563
0.101816
0.0955104
0.0887586
0.0816299
0.0742995
0.0667809
0.0593055
0.0518476
0.0446412
0.0376362
0.0310356
0.0247811
0.0190333
0.0137422
0.0090255
0.0048494
0.00128737
-0.00170266
-0.00408929
-0.00595598
-0.00727959
-0.00804787
-0.00856838
0.129207
0.128685
0.126893
0.124093
0.12056
0.116116
0.110937
0.10502
0.0985161
0.0915466
0.0841811
0.0766037
0.0688292
0.0610988
0.0533862
0.0459347
0.0386926
0.0318706
0.0254088
0.0194734
0.0140126
0.00914759
0.00484283
0.00117335
-0.00190542
-0.00436171
-0.00628308
-0.00764819
-0.00844676
-0.0089935
0.133094
0.132583
0.130771
0.127916
0.124303
0.119746
0.114421
0.108328
0.101622
0.0944273
0.0868183
0.0789856
0.0709465
0.0629519
0.054976
0.0472708
0.0397836
0.0327329
0.0260575
0.0199291
0.0142941
0.00927731
0.00484131
0.00106227
-0.00210694
-0.00463396
-0.00661081
-0.00801777
-0.00884709
-0.00941908
0.137072
0.136571
0.134736
0.131825
0.12813
0.123456
0.117982
0.11171
0.104795
0.0973702
0.0895097
0.0814142
0.073103
0.0648369
0.0565901
0.0486244
0.0408857
0.0336006
0.0267059
0.0203802
0.0145675
0.00939633
0.00482661
0.000936357
-0.00232439
-0.00492262
-0.00695474
-0.00840333
-0.00926327
-0.00986193
0.141153
0.14067
0.138816
0.13585
0.132074
0.127282
0.121657
0.1152
0.108072
0.100409
0.0922898
0.0839229
0.0753304
0.0667834
0.0582567
0.0500216
0.042023
0.0344958
0.0273757
0.0208472
0.0148524
0.00952316
0.00481709
0.000813517
-0.0025404
-0.00521079
-0.0072988
-0.00878918
-0.00968
-0.0103041
0.145331
0.144863
0.142987
0.139964
0.136104
0.131193
0.125412
0.118768
0.11142
0.103512
0.0951258
0.0864796
0.0775977
0.0687621
0.0599475
0.0514359
0.0431708
0.0353957
0.0280442
0.0213085
0.0151284
0.00963852
0.00479361
0.000675143
-0.00277273
-0.00551547
-0.00765895
-0.00919069
-0.010112
-0.0107626
0.149615
0.149169
0.147276
0.144198
0.140256
0.135224
0.129285
0.122447
0.114874
0.106713
0.0980531
0.0891185
0.0799379
0.0708037
0.0616919
0.0528946
0.0443544
0.0363237
0.0287344
0.0217859
0.015416
0.00976196
0.00477545
0.000540084
-0.00300311
-0.0058189
-0.00801827
-0.00959142
-0.0105433
-0.0112185
0.154001
0.153575
0.151661
0.148526
0.144499
0.139343
0.133242
0.126207
0.118401
0.109981
0.101038
0.0918065
0.0823187
0.0728779
0.0634604
0.0543698
0.045548
0.0372555
0.0294223
0.0222565
0.0156939
0.00987327
0.00474272
0.000389051
-0.0032497
-0.00613834
-0.00839299
-0.010007
-0.010989
-0.0116895
0.158496
0.158097
0.156166
0.152977
0.148866
0.143586
0.137319
0.130081
0.122038
0.11335
0.104116
0.0945787
0.084774
0.0750164
0.0652837
0.0558904
0.0467782
0.0382162
0.0301324
0.0227439
0.0159841
0.00999321
0.00471574
0.000241969
-0.00349314
-0.00645489
-0.00876512
-0.0104201
-0.0114321
-0.0121561
0.163098
0.162722
0.160771
0.157525
0.153328
0.14792
0.141484
0.134038
0.12575
0.116787
0.107253
0.0974008
0.0872704
0.0771876
0.0671306
0.0574269
0.0480176
0.0391799
0.0308396
0.0232238
0.0162642
0.0101007
0.00467401
7.90541e-05
-0.00375187
-0.00678614
-0.0091512
-0.0108467
-0.0118881
-0.0126361
0.167812
0.167465
0.165499
0.162199
0.157918
0.152381
0.145772
0.138113
0.129574
0.120328
0.110485
0.100309
0.0898428
0.0794244
0.0690334
0.0590096
0.0492944
0.0401734
0.03157
0.0237216
0.0165575
0.0102178
0.00463903
-7.85943e-05
-0.00400529
-0.00711179
-0.00953207
-0.0112683
-0.012339
-0.013109
0.172637
0.172315
0.170329
0.166973
0.162605
0.156937
0.150152
0.142274
0.133476
0.123938
0.113777
0.103267
0.0924568
0.0816941
0.0709593
0.0606074
0.05058
0.0411697
0.0322975
0.0242121
0.0168409
0.0103227
0.0045898
-0.000251103
-0.00427253
-0.00745059
-0.00992545
-0.0117022
-0.0128015
-0.0135939
0.177575
0.177284
0.175284
0.171876
0.167423
0.161623
0.154657
0.146553
0.137491
0.127653
0.117166
0.106314
0.095148
0.0840303
0.0729422
0.0622525
0.0519043
0.0421972
0.0330503
0.0247228
0.0171397
0.0104393
0.00454927
-0.000416123
-0.00453109
-0.00778068
-0.0103106
-0.0121285
-0.0132564
-0.0140692
0.182623
0.182359
0.180342
0.176882
0.172342
0.166407
0.159256
0.150922
0.141586
0.13144
0.120615
0.109411
0.0978812
0.0863998
0.0749482
0.0639126
0.0532371
0.0432277
0.0338013
0.0252272
0.0174295
0.0105442
0.00449576
-0.000594467
-0.00480235
-0.00812339
-0.0107082
-0.0125675
-0.0137234
-0.0145574
0.187784
0.187554
0.185528
0.182019
0.177395
0.171323
0.163983
0.155412
0.145797
0.135334
0.124164
0.112597
0.100693
0.0888369
0.0770128
0.0656217
0.0546106
0.0442918
0.0345808
0.0257557
0.0177377
0.0106639
0.00445366
-0.000762234
-0.00506427
-0.00845794
-0.0110988
-0.0130004
-0.0141844
-0.015038
0.193054
0.192854
0.190818
0.187262
0.182551
0.176341
0.168807
0.159994
0.15009
0.1393
0.127773
0.115834
0.103547
0.0913078
0.0791009
0.0673463
0.0559932
0.0453594
0.0353599
0.0262788
0.0180377
0.0107722
0.0043995
-0.000943309
-0.00534054
-0.00880852
-0.0115062
-0.0134504
-0.0146617
-0.0155357
0.198436
0.198275
0.196237
0.192637
0.187843
0.181492
0.17376
0.164697
0.1545
0.143375
0.131484
0.119162
0.106481
0.0938481
0.0812505
0.0691231
0.0574196
0.046464
0.0361727
0.02683
0.01836
0.010898
0.00435985
-0.0011127
-0.00560862
-0.00915404
-0.0119102
-0.013898
-0.0151366
-0.0160286
0.203924
0.203801
0.20176
0.198119
0.193241
0.186748
0.178814
0.169496
0.158993
0.147523
0.135256
0.122542
0.109459
0.096423
0.0834252
0.0709166
0.0588557
0.0475725
0.036985
0.027375
0.0186727
0.0110105
0.00430655
-0.0012978
-0.00589503
-0.00952043
-0.0123362
-0.0143676
-0.0156323
-0.0165428
0.209525
0.209448
0.207415
0.203737
0.198777
0.19214
0.183998
0.174418
0.163606
0.151783
0.139131
0.126015
0.112519
0.09907
0.0856657
0.0727674
0.0603397
0.0487222
0.037831
0.0279466
0.0190054
0.0111381
0.00426484
-0.00147518
-0.00617872
-0.00988819
-0.0127652
-0.0148406
-0.0161307
-0.0170571
0.21523
0.2152
0.213177
0.209466
0.204422
0.197639
0.189286
0.179437
0.168303
0.156117
0.143071
0.129543
0.115623
0.101753
0.087933
0.0746351
0.061833
0.0498725
0.0386713
0.0285051
0.019321
0.0112451
0.00420255
-0.00167558
-0.00648796
-0.0102838
-0.0132226
-0.0153412
-0.0166548
-0.0175966
0.221049
0.221077
0.219072
0.215333
0.210209
0.203277
0.194707
0.184582
0.173122
0.160565
0.147117
0.133167
0.118815
0.104512
0.0902725
0.0765653
0.0633791
0.0510644
0.0395423
0.0290846
0.0196506
0.011361
0.00414577
-0.00187421
-0.00680094
-0.0106861
-0.0136876
-0.0158486
-0.0171843
-0.0181378
0.226976
0.227062
0.22508
0.221315
0.216108
0.209025
0.200235
0.189827
0.178029
0.165091
0.151231
0.136849
0.122053
0.107308
0.0926382
0.0785098
0.0649296
0.05225
0.0403989
0.029642
0.0199539
0.011448
0.00406032
-0.00210288
-0.00714501
-0.0111199
-0.0141832
-0.0163848
-0.0177399
-0.0187036
0.23302
0.233175
0.231224
0.227439
0.222151
0.214914
0.205898
0.1952
0.183059
0.169733
0.155456
0.140631
0.125383
0.110186
0.0950754
0.0805145
0.0665284
0.0534702
0.0412767
0.0302098
0.0202615
0.0115344
0.00397201
-0.00233751
-0.00749699
-0.0115621
-0.0146867
-0.0169271
-0.0182993
-0.0192689
0.239177
0.239402
0.237488
0.233684
0.228312
0.22092
0.211673
0.200679
0.188182
0.174458
0.159754
0.144475
0.12876
0.113096
0.0975314
0.0825227
0.0681196
0.0546709
0.0421274
0.0307441
0.0205323
0.0115828
0.00384639
-0.00260895
-0.00788399
-0.0120372
-0.0152207
-0.0174969
-0.0188832
-0.0198563
0.245454
0.24576
0.24389
0.240077
0.23462
0.227069
0.217586
0.206288
0.193432
0.179302
0.164168
0.148426
0.132235
0.116089
0.100055
0.084584
0.0697507
0.0558973
0.042989
0.0312805
0.0207996
0.0116244
0.00371188
-0.00289016
-0.00827995
-0.0125195
-0.0157602
-0.0180697
-0.0194675
-0.020439
0.25185
0.252237
0.250418
0.246597
0.241055
0.233342
0.22362
0.21201
0.198782
0.184236
0.16866
0.152437
0.135752
0.119106
0.102586
0.0866361
0.0713607
0.0570926
0.0438139
0.0317769
0.0210249