/*--------------------------------*- C++ -*----------------------------------*\
  =========                 |
  \\      /  F ield         | OpenFOAM: The Open Source CFD Toolbox
   \\    /   O peration     | Website:  https://openfoam.org
    \\  /    A nd           | Version:  6.0
     \\/     M anipulation  |
\*---------------------------------------------------------------------------*/
FoamFile
{
    version     2.0;
    format      ascii;
    class       surfaceScalarField;
    location    "6";
    object      phi;
}
// * * * * * * * * * * * * * * * * * * * * * * * * * * * * * * * * * * * * * //

dimensions      [0 3 -1 0 0 0 0];

internalField   nonuniform List<scalar> 
93586
(
2.36986e-05
0.00154637
-2.49192e-08
4.76224e-05
0.00154169
7.15881e-05
0.00153287
9.54102e-05
0.00152001
0.000118964
0.00150314
0.000142193
0.00148227
0.000165056
0.00145738
0.000187524
0.00142843
0.000209555
0.00139542
0.000231094
0.00135838
0.000252069
0.0013174
0.000272406
0.00127263
0.000292027
0.00122425
0.000310861
0.00117247
0.000328841
0.00111751
0.000345911
0.00105955
0.000362016
0.000998789
0.000377112
0.000935397
0.000391156
0.000869547
0.000404111
0.0008014
0.000415942
0.000731125
0.000426618
0.000658889
0.000436109
0.000584869
0.000444391
0.000509238
0.000451439
0.000432175
0.000457237
0.000353852
0.000461757
0.000274433
0.000465159
0.000193922
0.000466818
0.000112676
3.18188e-05
0.000463804
2.32617e-05
0.0015232
-8.30981e-08
4.66861e-05
0.00151827
7.01658e-05
0.0015094
9.3533e-05
0.00149666
0.000116677
0.00148002
0.000139546
0.00145944
0.000162096
0.00143486
0.00018429
0.00140628
0.000206073
0.00137368
0.000227378
0.00133712
0.00024812
0.0012967
0.000268224
0.00125257
0.000287605
0.00120492
0.000306196
0.00115393
0.000323929
0.00109982
0.000340754
0.00104277
0.000356619
0.00098297
0.000371485
0.000920581
0.000385309
0.00085577
0.000398059
0.000788699
0.0004097
0.000719532
0.000420205
0.000648436
0.000429543
0.000575582
0.000437692
0.000501143
0.000444628
0.000425296
0.000450333
0.000348207
0.000454776
0.000270056
0.000458011
0.000190759
0.000459731
0.000111036
3.25941e-05
0.000459073
2.27778e-05
0.00150052
-9.64158e-08
4.57199e-05
0.00149533
6.87527e-05
0.00148637
9.1722e-05
0.0014737
0.000114521
0.00145723
0.00013709
0.00143688
0.000159376
0.00141258
0.000181323
0.00138434
0.000202866
0.00135215
0.000223927
0.00131607
0.000244418
0.00127622
0.000264263
0.00123274
0.000283379
0.0011858
0.000301703
0.00113561
0.000319171
0.00108235
0.000335736
0.00102621
0.00035135
0.000967355
0.000365976
0.000905954
0.000379574
0.000842167
0.000392114
0.000776155
0.000403561
0.000708078
0.00041389
0.0006381
0.00042307
0.000566392
0.000431079
0.000493123
0.000437893
0.000418467
0.000443493
0.00034259
0.000447851
0.000265678
0.000450921
0.000187664
0.000452725
0.000109204
3.22937e-05
0.000452955
2.23428e-05
0.00147828
-9.22894e-08
4.48681e-05
0.00147282
6.75121e-05
0.00146374
9.0128e-05
0.00145111
0.000112609
0.00143477
0.000134889
0.00141462
0.000156902
0.0013906
0.000178584
0.00136269
0.000199861
0.0013309
0.00022065
0.00129532
0.000240864
0.00125604
0.000260426
0.00121321
0.000279259
0.001167
0.000297303
0.0011176
0.000314496
0.00106519
0.000330796
0.00100995
0.000346155
0.00095203
0.00036054
0.000891605
0.000373912
0.00082883
0.000386242
0.000763863
0.000397495
0.000696861
0.000407648
0.000627987
0.000416669
0.00055741
0.000424537
0.000485297
0.000431227
0.000411821
0.000436717
0.000337147
0.000440983
0.000261464
0.000443958
0.000184746
0.000445693
0.00010753
3.20051e-05
0.000446074
2.19515e-05
0.00145641
-8.20872e-08
4.41056e-05
0.00145067
6.63975e-05
0.00144145
8.86841e-05
0.00142882
0.000110858
0.00141259
0.000132845
0.00139264
0.000154575
0.00136887
0.000175974
0.0013413
0.000196965
0.00130991
0.000217464
0.00127482
0.000237384
0.00123611
0.000256652
0.00119394
0.000275194
0.00114846
0.000292952
0.00109984
0.000309869
0.00104827
0.000325903
0.000993905
0.00034101
0.000936913
0.000355156
0.00087745
0.000368305
0.00081567
0.000380428
0.000751728
0.000391491
0.000685783
0.00040147
0.000617993
0.000410335
0.000548527
0.000418065
0.00047755
0.000424633
0.000405232
0.000430017
0.000331739
0.000434194
0.000257259
0.000437103
0.000181803
0.000438779
0.000105816
3.15411e-05
0.000439166
2.15892e-05
0.0014349
-7.40422e-08
4.34009e-05
0.00142887
6.5363e-05
0.0014195
8.73337e-05
0.00140687
0.000109204
0.00139074
0.000130897
0.00137097
0.000152334
0.00134745
0.000173439
0.00132022
0.000194132
0.00128924
0.00021433
0.00125465
0.000233949
0.00121652
0.000252917
0.001175
0.000271165
0.00113024
0.000288637
0.0010824
0.000305278
0.00103166
0.00032105
0.000978164
0.000335908
0.000922084
0.00034982
0.000863568
0.00036275
0.000802769
0.00037467
0.00073984
0.000385548
0.000674937
0.000395358
0.000608217
0.000404071
0.000539847
0.000411666
0.000469992
0.000418116
0.00039882
0.0004234
0.000326497
0.000427494
0.000253211
0.00043035
0.000178998
0.000431981
0.00010424
3.12461e-05
0.000432357
2.12494e-05
0.00141371
-5.84555e-08
4.27392e-05
0.00140737
6.43864e-05
0.00139785
8.60497e-05
0.0013852
0.000107619
0.00136917
0.000129013
0.00134958
0.000150151
0.00132631
0.000170954
0.00129941
0.000191341
0.00126885
0.000211232
0.00123475
0.000230545
0.0011972
0.000249212
0.00115632
0.000267165
0.00111227
0.000284353
0.0010652
0.000300723
0.00101527
0.000316236
0.000962641
0.000330849
0.000907456
0.000344533
0.000849872
0.00035725
0.000790037
0.000368972
0.000728102
0.000379669
0.000664223
0.000389315
0.000598554
0.000397881
0.000531261
0.000405345
0.000462506
0.000411683
0.000392458
0.000416871
0.000321282
0.000420888
0.000249164
0.000423693
0.000176157
0.00042529
0.000102602
3.08027e-05
0.000425655
2.09262e-05
0.00139283
-3.41138e-08
4.21084e-05
0.0013862
6.34503e-05
0.00137652
8.48109e-05
0.00136386
0.00010608
0.00134791
0.000127171
0.00132851
0.000148005
0.0013055
0.0001685
0.00127894
0.000188578
0.0012488
0.000208158
0.0012152
0.000227165
0.00117822
0.000245531
0.00113798
0.000263193
0.00109464
0.000280101
0.00104832
0.000296203
0.000999197
0.000311462
0.000947408
0.000325837
0.000893107
0.000339297
0.00083644
0.000351806
0.000777555
0.000363336
0.000716601
0.000373857
0.000653731
0.000383343
0.000589098
0.000391767
0.000522869
0.000399105
0.000455202
0.000405334
0.000386265
0.000410431
0.000316224
0.000414375
0.000245263
0.000417132
0.000173446
0.000418698
0.000101086
3.05171e-05
0.000419059
2.06154e-05
0.00137223
-1.37448e-08
4.14988e-05
0.00136531
6.25413e-05
0.00135547
8.36016e-05
0.0013428
0.000104569
0.00132694
0.000125357
0.00130771
0.000145883
0.00128497
0.000166067
0.00125875
0.000185834
0.00122902
0.000205105
0.00119592
0.000223806
0.00115951
0.000241874
0.0011199
0.000259249
0.00107725
0.000275881
0.00103168
0.000291721
0.000983342
0.000306732
0.000932384
0.000320874
0.00087895
0.000334116
0.000823184
0.000346422
0.000765231
0.000357766
0.00070524
0.000368115
0.000643362
0.000377446
0.000579748
0.000385731
0.000514562
0.000392948
0.000447963
0.000399071
0.000380116
0.000404081
0.000311186
0.000407956
0.000241356
0.000410667
0.000170698
0.000412208
9.95025e-05
3.00832e-05
0.000412565
2.03133e-05
0.00135192
2.84861e-10
4.09032e-05
0.00134473
6.16493e-05
0.00133474
8.24105e-05
0.00132205
0.000103076
0.00130629
0.000123558
0.00128725
0.000143776
0.00126477
0.00016365
0.0012389
0.000183105
0.00120959
0.000202068
0.00117698
0.000220467
0.00114113
0.000238243
0.00110215
0.000255335
0.00106018
0.000271697
0.00101534
0.000287281
0.000967782
0.00030205
0.00091764
0.000315964
0.00086506
0.000328993
0.00081018
0.000341101
0.000753148
0.000352263
0.000694106
0.000362446
0.000633206
0.000371626
0.000570596
0.000379777
0.000506441
0.000386875
0.000440897
0.000392897
0.000374128
0.000397823
0.000306297
0.000401632
0.000237588
0.000404298
0.000168075
0.000405815
9.80337e-05
2.97977e-05
0.000406172
2.00175e-05
0.00133189
1.03847e-08
4.03167e-05
0.00132443
6.07681e-05
0.00131428
8.12306e-05
0.00130158
0.000101594
0.00128592
0.00012177
0.00126707
0.00014168
0.00124485
0.000161244
0.00121933
0.000180391
0.00119043
0.00019905
0.00115831
0.000217152
0.00112302
0.000234639
0.00108465
0.000251454
0.00104335
0.000267552
0.000999231
0.000282885
0.000952433
0.000297417
0.000903094
0.000311109
0.000851351
0.000323931
0.000797343
0.000335846
0.000741213
0.00034683
0.000683105
0.000356851
0.000623165
0.000365885
0.000561542
0.000373904
0.000498399
0.000380888
0.00043389
0.000386812
0.000368177
0.000391656
0.000301424
0.000395402
0.00023381
0.000398025
0.000165413
0.000399522
9.64953e-05
2.93666e-05
0.000399877
1.97257e-05
0.00131216
1.97419e-08
3.97361e-05
0.00130443
5.98936e-05
0.00129414
8.00578e-05
0.00128143
0.00010012
0.00126587
0.000119991
0.00124722
0.000139593
0.00122527
0.00015885
0.00120009
0.000177693
0.00117161
0.000196052
0.00113997
0.000213861
0.00110523
0.000231066
0.00106747
0.00024761
0.00102683
0.000263449
0.000983415
0.000278537
0.000937367
0.000292838
0.000888816
0.000306313
0.000837898
0.000318932
0.000784749
0.00033066
0.000729509
0.00034147
0.00067232
0.000351333
0.000613328
0.000360224
0.00055268
0.000368115
0.000490536
0.000374987
0.000427049
0.000380815
0.000362381
0.000385581
0.000296694
0.000389266
0.000230164
0.000391848
0.000162872
0.000393323
9.50673e-05
2.90789e-05
0.000393679
1.94371e-05
0.00129269
2.46409e-08
3.91594e-05
0.0012847
5.90237e-05
0.00127426
7.88903e-05
0.00126156
9.86516e-05
0.0012461
0.000118219
0.00122764
0.000137517
0.00120596
0.00015647
0.00118113
0.000175013
0.00115305
0.000193077
0.0011219
0.0002106
0.00108769
0.000227527
0.00105053
0.000243806
0.00101053
0.000259392
0.000967814
0.00027424
0.000922503
0.000288315
0.000874726
0.000301578
0.000824618
0.000313999
0.000772312
0.000325543
0.000717946
0.000336184
0.00066166
0.000345892
0.000603599
0.000354643
0.000543908
0.00036241
0.000482745
0.000369173
0.000420263
0.000374908
0.000356619
0.000379598
0.000291975
0.000383223
0.000226506
0.000385766
0.000160291
0.000387221
9.357e-05
2.86499e-05
0.000387576
1.91508e-05
0.00127352
2.60785e-08
3.85858e-05
0.00126527
5.81577e-05
0.0012547
7.77276e-05
0.001242
9.71897e-05
0.00122666
0.000116456
0.00120839
0.000135453
0.00118698
0.000154106
0.00116249
0.000172353
0.00113483
0.000190127
0.00110414
0.000207369
0.00107047
0.000224026
0.0010339
0.000240044
0.000994534
0.000255383
0.000952497
0.000269997
0.000907909
0.000283851
0.000860895
0.000296906
0.000811584
0.000309133
0.000760108
0.000320497
0.000706604
0.000330973
0.000651209
0.000340529
0.000594067
0.000349143
0.00053532
0.000356789
0.000475127
0.000363445
0.000413636
0.00036909
0.000351006
0.000373705
0.000287394
0.000377274
0.000222975
0.000379778
0.000157827
0.000381212
9.21806e-05
2.8361e-05
0.000381567
1.88667e-05
0.00125462
2.66356e-08
3.80152e-05
0.00124611
5.72956e-05
0.00123541
7.65704e-05
0.00122272
9.57353e-05
0.00120748
0.000114703
0.00118941
0.000133402
0.00116827
0.00015176
0.00114412
0.000169717
0.00111686
0.000187207
0.00108664
0.000204173
0.00105349
0.000220564
0.00101749
0.000236329
0.000978754
0.000251425
0.000937386
0.000265809
0.000893508
0.000279446
0.000847241
0.000292298
0.000798713
0.000304335
0.000748054
0.000315523
0.000695396
0.000325836
0.000640877
0.000335245
0.000584637
0.000343725
0.000526818
0.000351252
0.000467576
0.000357804
0.000407059
0.00036336
0.000345422
0.000367903
0.000282822
0.000371416
0.000219429
0.000373882
0.000155322
0.000375298
9.07228e-05
2.7935e-05
0.000375651
1.85845e-05
0.00123602
2.6919e-08
3.74476e-05
0.00122726
5.64381e-05
0.00121644
7.54197e-05
0.00120375
9.429e-05
0.00118863
0.000112962
0.00117076
0.000131368
0.00114988
0.000149436
0.00112607
0.000167106
0.00109921
0.000184318
0.00106945
0.000201014
0.00103681
0.000217145
0.00100138
0.00023266
0.000963257
0.000247519
0.000922547
0.000261678
0.000879368
0.000275103
0.000833838
0.000287756
0.000786081
0.000299607
0.000736225
0.000310622
0.000684403
0.000320776
0.000630747
0.000330039
0.000575398
0.000338388
0.000518495
0.000345798
0.000460193
0.000352248
0.000400638
0.000357718
0.000339982
0.00036219
0.000278383
0.000365649
0.000216007
0.000368078
0.000152932
0.000369474
8.93707e-05
2.76466e-05
0.000369826
1.83044e-05
0.00121768
2.68809e-08
3.68836e-05
0.00120867
5.55861e-05
0.00119772
7.42769e-05
0.00118504
9.28555e-05
0.00117004
0.000111236
0.00115236
0.000129353
0.00113176
0.000147134
0.00110828
0.000164525
0.0010818
0.000181462
0.0010525
0.000197894
0.00102036
0.00021377
0.00098549
0.000229041
0.000947969
0.000243667
0.000907905
0.000257606
0.000865411
0.000270822
0.000820604
0.000283279
0.000773605
0.000294947
0.000724539
0.000305793
0.000673537
0.000315791
0.00062073
0.000324911
0.000566256
0.000333132
0.000510252
0.000340427
0.000452873
0.000346778
0.000394262
0.000352163
0.000334569
0.000356565
0.00027395
0.000359971
0.000212569
0.000362364
0.0001505
0.000363741
8.79513e-05
2.72246e-05
0.000364091
1.80263e-05
0.00119964
2.65943e-08
3.63236e-05
0.00119038
5.47404e-05
0.00117932
7.31432e-05
0.00116665
9.14336e-05
0.00115176
0.000109527
0.00113428
0.000127358
0.00111394
0.000144859
0.00109079
0.000161974
0.00106471
0.000178643
0.00103584
0.000194815
0.00100421
0.00021044
0.000969883
0.000225472
0.000932955
0.00023987
0.000893526
0.000253592
0.000851708
0.000266604
0.000807612
0.000278869
0.00076136
0.000290357
0.000713072
0.000301036
0.000662879
0.000310881
0.000610909
0.000319861
0.000557299
0.000327955
0.000502183
0.000335138
0.000445716
0.000341391
0.000388037
0.000346693
0.000329297
0.000351028
0.000269647
0.000354381
0.000209251
0.000356738
0.000148181
0.000358096
8.6636e-05
2.69382e-05
0.000358445
1.77508e-05
0.00118185
2.68013e-08
3.57685e-05
0.00117235
5.39022e-05
0.00116117
7.20202e-05
0.00114852
9.00257e-05
0.00113374
0.000107836
0.00111646
0.000125386
0.00109638
0.00014261
0.00107355
0.000159455
0.00104785
0.000175861
0.00101942
0.000191777
0.000988279
0.000207157
0.000954488
0.000221954
0.000918141
0.000236128
0.000879336
0.000249637
0.00083818
0.000262449
0.000794784
0.000274525
0.000749264
0.000285837
0.000701742
0.000296352
0.000652342
0.000306045
0.000601195
0.000314888
0.000548434
0.000322858
0.000494191
0.000329931
0.000438619
0.000336087
0.000381855
0.000341308
0.000324049
0.000345576
0.000265349
0.000348878
0.000205915
0.000351201
0.00014582
0.000352541
8.52544e-05
2.65214e-05
0.000352886
1.74778e-05
0.00116436
2.72332e-08
3.52186e-05
0.00115462
5.30722e-05
0.00114333
7.09087e-05
0.0011307
8.86333e-05
0.00111603
0.000106164
0.00109894
0.000123438
0.00107912
0.000140391
0.00105662
0.000156969
0.00103128
0.000173117
0.00100329
0.000188783
0.000972629
0.000203922
0.000939366
0.000218488
0.000903592
0.000232442
0.000865401
0.000245742
0.000824898
0.000258356
0.00078219
0.000270246
0.000737392
0.000281385
0.000690624
0.000291739
0.000642008
0.000301284
0.000591673
0.000309991
0.000539749
0.000317839
0.000486367
0.000324804
0.000431679
0.000330866
0.000375821
0.000336006
0.000318938
0.000340209
0.000261177
0.000343462
0.000202698
0.00034575
0.000143568
0.00034707
8.39753e-05
2.62381e-05
0.000347415
1.72078e-05
0.00114711
2.78454e-08
3.46745e-05
0.00113714
5.22514e-05
0.00112574
6.981e-05
0.00111313
8.72575e-05
0.00109857
0.000104513
0.00108168
0.000121516
0.00106211
0.000138201
0.00103992
0.000154518
0.00101495
0.000170412
0.000987383
0.000185832
0.000957192
0.000200735
0.000924448
0.000215074
0.000889235
0.000228811
0.000851647
0.000241906
0.000811784
0.000254326
0.000769752
0.000266033
0.000725665
0.000277002
0.000679637
0.000287197
0.000631792
0.000296596
0.000582253
0.00030517
0.000531152
0.000312898
0.000478617
0.000319756
0.000424797
0.000325726
0.000369826
0.000330787
0.000313848
0.000334926
0.000257008
0.000338129
0.000199461
0.000340383
0.000141275
0.000341686
8.26309e-05
2.58273e-05
0.000342027
1.69407e-05
0.00113015
2.84773e-08
3.41367e-05
0.00111995
5.14403e-05
0.00110845
6.87247e-05
0.00109585
8.58992e-05
0.00108141
0.000102883
0.0010647
0.000119619
0.00104538
0.000136042
0.00102351
0.000152103
0.000998908
0.000167746
0.000971755
0.000182926
0.000942029
0.000197596
0.000909795
0.000211712
0.000875136
0.000225236
0.00083814
0.000238129
0.000798908
0.000250358
0.000757543
0.000261886
0.000714154
0.000272686
0.000668857
0.000282726
0.000621771
0.000291981
0.00057302
0.000300424
0.000522731
0.000308034
0.000471031
0.000314787
0.000418069
0.000320665
0.000363975
0.000325649
0.000308892
0.000329725
0.000252963
0.00033288
0.000196341
0.000335101
0.00013909
0.000336385
8.13875e-05
2.5548e-05
0.000336724
1.66771e-05
0.00111344
2.9251e-08
3.36056e-05
0.00110301
5.06394e-05
0.0010914
6.76537e-05
0.00107882
8.45591e-05
0.00106449
0.000101277
0.00104797
0.000117749
0.0010289
0.000133914
0.00100733
0.000149723
0.000983084
0.000165121
0.00095634
0.000180063
0.00092707
0.000194504
0.000895337
0.000208401
0.00086122
0.000221716
0.000824808
0.00023441
0.000786195
0.000246451
0.000745484
0.000257802
0.000702783
0.000268437
0.000658203
0.000278323
0.000611864
0.000287438
0.000563885
0.000295752
0.000514394
0.000303245
0.000463515
0.000309895
0.000411394
0.000315683
0.000358161
0.000320592
0.000303955
0.000324606
0.000248918
0.000327713
0.0001932
0.000329901
0.000136864
0.000331167
8.00797e-05
2.51439e-05
0.000331503
1.64168e-05
0.001097
2.99531e-08
3.30815e-05
0.00108635
4.98493e-05
0.00107465
6.65972e-05
0.00106208
8.32377e-05
0.00104787
9.96928e-05
0.00103153
0.000115907
0.0010127
0.000131817
0.000991431
0.000147378
0.000967538
0.000162536
0.000941197
0.000177245
0.000912377
0.000191461
0.000881137
0.000205142
0.000847555
0.000218252
0.000811716
0.00023075
0.000773713
0.000242605
0.000733647
0.000253783
0.000691623
0.000264255
0.000647751
0.00027399
0.000602147
0.000282965
0.000554931
0.000291152
0.000506228
0.000298531
0.000456159
0.000305079
0.00040487
0.00031078
0.000352487
0.000315613
0.00029915
0.000319566
0.000244995
0.000322626
0.000190173
0.000324782
0.000134743
0.00032603
7.88713e-05
2.48691e-05
0.000326363
1.61602e-05
0.0010808
3.0667e-08
3.25645e-05
0.00106994
4.90702e-05
0.00105813
6.55557e-05
0.00104559
8.19354e-05
0.00103147
9.81322e-05
0.00101532
0.000114092
0.000996725
0.000129753
0.000975754
0.00014507
0.000952206
0.00015999
0.00092626
0.00017447
0.000897881
0.000188465
0.000867124
0.000201934
0.000834067
0.000214841
0.000798791
0.000227146
0.000761388
0.00023882
0.000721955
0.000249826
0.000680596
0.000260138
0.000637419
0.000269724
0.000592539
0.000278562
0.000546073
0.000286624
0.000498143
0.000293891
0.00044887
0.000300339
0.000398396
0.000305952
0.000346848
0.000310712
0.000294361
0.000314605
0.000241072
0.000317619
0.000187125
0.000319743
0.000132581
0.000320974
7.75993e-05
2.44719e-05
0.000321303
1.5907e-05
0.00106487
3.12396e-08
3.20549e-05
0.0010538
4.83022e-05
0.00104189
6.45293e-05
0.00102937
8.06523e-05
0.00101536
9.65949e-05
0.000999384
0.000112304
0.00098103
0.00012772
0.000960351
0.000142797
0.000937143
0.000157484
0.000911587
0.000171738
0.000883642
0.000185516
0.000853362
0.000198776
0.000820822
0.000211484
0.0007861
0.0002236
0.000749288
0.000235094
0.000710479
0.000245931
0.000669776
0.000256085
0.000627285
0.000265525
0.000583118
0.000274228
0.000537391
0.000282167
0.000490224
0.000289323
0.000441737
0.000295673
0.00039207
0.0003012
0.000341347
0.000305888
0.000289701
0.000309722
0.000237268
0.000312691
0.000184189
0.000314783
0.000130523
0.000315996
7.64254e-05
2.42022e-05
0.000316323
1.56577e-05
0.00104917
3.18102e-08
3.15527e-05
0.00103789
4.75456e-05
0.00102589
6.35183e-05
0.00101338
7.93886e-05
0.00099948
9.50811e-05
0.000983676
0.000110544
0.000965552
0.000125718
0.00094516
0.00014056
0.000922285
0.000155018
0.000897112
0.00016905
0.000869593
0.000182614
0.000839781
0.000195669
0.000807748
0.00020818
0.000773571
0.000220109
0.000737339
0.000231427
0.000699143
0.000242098
0.000659084
0.000252096
0.000617267
0.000261392
0.000573801
0.000269962
0.0005288
0.000277779
0.000482383
0.000284826
0.000434668
0.000291079
0.000385792
0.000296523
0.000335878
0.000301139
0.000285057
0.000304915
0.000233461
0.000307839
0.000181231
0.000309901
0.000128424
0.000311097
7.51884e-05
2.38122e-05
0.00031142
1.5412e-05
0.00103373
3.22206e-08
3.1058e-05
0.00102225
4.68004e-05
0.00101015
6.25226e-05
0.000997665
7.81442e-05
0.000983869
9.35907e-05
0.000968239
0.000108812
0.000950344
0.000123748
0.000930235
0.000138358
0.00090769
0.00015259
0.000882893
0.000166404
0.000855794
0.000179757
0.000826443
0.00019261
0.00079491
0.000204928
0.000761269
0.000216674
0.000725608
0.000227817
0.000688017
0.000238325
0.000648593
0.00024817
0.00060744
0.000257323
0.000564666
0.000265763
0.000520382
0.000273461
0.000474705
0.0002804
0.000427751
0.000286558
0.000379657
0.000291919
0.000330543
0.000296464
0.000280538
0.000300183
0.000229772
0.000303064
0.000178383
0.000305095
0.000126427
0.000306273
7.40481e-05
2.35478e-05
0.000306594
1.51701e-05
0.00101852
3.26305e-08
3.05709e-05
0.00100683
4.60666e-05
0.000994643
6.15423e-05
0.000982174
7.69191e-05
0.00096848
9.21235e-05
0.000953019
0.000107107
0.000935347
0.000121809
0.000915516
0.000136191
0.000893292
0.000150201
0.000868864
0.0001638
0.000842177
0.000176946
0.000813279
0.0001896
0.000782236
0.000201728
0.000749123
0.000213292
0.000714023
0.000224265
0.000677026
0.000234611
0.000638226
0.000244306
0.000597725
0.000253319
0.00055563
0.000261629
0.000512051
0.00026921
0.000467101
0.000276044
0.000420895
0.000282107
0.000373568
0.000287386
0.000325238
0.000291863
0.000276033
0.000295526
0.000226079
0.000298363
0.000175513
0.000300364
0.000124388
0.000301526
7.28453e-05
2.3165e-05
0.000301843
1.49318e-05
0.00100356
3.28872e-08
3.00913e-05
0.000991678
4.53441e-05
0.0009794
6.05772e-05
0.000966948
7.57132e-05
0.000953355
9.06794e-05
0.000938062
0.000105428
0.000920612
0.000119901
0.000901054
0.000134058
0.000879148
0.00014785
0.000855085
0.000161238
0.000828805
0.00017418
0.000800352
0.000186638
0.000769793
0.000198578
0.000737198
0.000209965
0.000702652
0.000220769
0.000666239
0.000230956
0.000628055
0.000240502
0.000588198
0.000249378
0.000546773
0.000257561
0.000503888
0.000265026
0.000459656
0.000271755
0.000414188
0.000277726
0.00036762
0.000282925
0.000320065
0.000287334
0.00027165
0.000290941
0.0002225
0.000293736
0.00017275
0.000295707
0.00012245
0.000296852
7.1738e-05
2.29061e-05
0.000297167
1.46974e-05
0.000988817
3.31624e-08
2.96191e-05
0.000976741
4.4633e-05
0.000964373
5.96273e-05
0.000951938
7.45263e-05
0.000938442
8.92582e-05
0.000923313
0.000103776
0.000906079
0.000118023
0.00088679
0.00013196
0.000865195
0.000145537
0.00084149
0.000158716
0.000815607
0.000171457
0.000787592
0.000183723
0.000757508
0.000195479
0.000725424
0.00020669
0.00069142
0.000217328
0.000655582
0.000227359
0.000618003
0.000236759
0.000578778
0.000245498
0.000538011
0.000253557
0.000495809
0.000260907
0.000452282
0.000267534
0.000407539
0.000273414
0.000361714
0.000278534
0.00031492
0.000282876
0.00026728
0.000286429
0.000218918
0.000289181
0.000169965
0.000291123
0.000120471
0.000292252
7.05686e-05
2.25307e-05
0.000292563
1.44665e-05
0.000974324
3.33004e-08
2.91543e-05
0.000962059
4.3933e-05
0.000949603
5.86923e-05
0.000937185
7.33582e-05
0.000923787
8.78595e-05
0.00090882
0.000102151
0.000891801
0.000116175
0.000872776
0.000129894
0.00085149
0.00014326
0.000828136
0.000156235
0.000802647
0.000168778
0.000775063
0.000180854
0.000745446
0.000192429
0.000713864
0.000203467
0.000680397
0.000213941
0.000645125
0.000223818
0.000608142
0.000233075
0.00056954
0.00024168
0.000529423
0.000249615
0.000487894
0.000256854
0.000445062
0.000263379
0.000401036
0.00026917
0.000355946
0.000274212
0.000309903
0.000278487
0.00026303
0.000281987
0.000215447
0.000284697
0.000167285
0.000286611
0.000118591
0.000287723
6.94933e-05
2.22773e-05
0.000288032
1.42394e-05
0.00096004
3.3479e-08
2.86969e-05
0.000947586
4.32441e-05
0.000935042
5.77723e-05
0.000922641
7.22086e-05
0.000909337
8.64831e-05
0.000894529
0.000100551
0.000877718
0.000114356
0.000858953
0.000127862
0.000837967
0.00014102
0.000814959
0.000153793
0.000789855
0.000166142
0.000762695
0.000178031
0.000733537
0.000189427
0.000702449
0.000200295
0.000669507
0.000210609
0.000634793
0.000220334
0.000598395
0.000229448
0.000560406
0.000237922
0.000520927
0.000245736
0.000480059
0.000252864
0.000437911
0.00025929
0.000394587
0.000264992
0.000350219
0.000269957
0.000304913
0.000274168
0.000258791
0.000277614
0.000211971
0.000280284
0.000164581
0.000282169
0.000116668
0.000283266
6.83564e-05
2.19091e-05
0.00028357
1.40157e-05
0.000945997
3.35404e-08
2.82467e-05
0.00093336
4.25661e-05
0.000920731
5.68667e-05
0.000908346
7.10774e-05
0.000895137
8.51286e-05
0.000880486
9.89771e-05
0.000863882
0.000112567
0.000845373
0.000125862
0.000824685
0.000138816
0.000802018
0.00015139
0.000777294
0.000163548
0.000750551
0.000175253
0.000721846
0.000186473
0.000691244
0.000197174
0.000658821
0.000207329
0.000624655
0.000216905
0.000588834
0.000225879
0.00055145
0.000234223
0.0005126
0.000241918
0.000472384
0.000248937
0.000430911
0.000255265
0.000388281
0.00026088
0.000344625
0.000265769
0.000300048
0.000269916
0.000254669
0.00027331
0.000208605
0.00027594
0.000161982
0.000277797
0.000114844
0.000278878
6.73124e-05
2.16612e-05
0.00027918
1.37957e-05
0.000932156
3.36612e-08
2.78037e-05
0.000919337
4.1899e-05
0.000906622
5.59757e-05
0.000894253
6.99642e-05
0.000881135
8.37959e-05
0.000866637
9.74283e-05
0.000850235
0.000110806
0.000831976
0.000123895
0.00081158
0.000136646
0.000789247
0.000149026
0.000764896
0.000160995
0.000738562
0.000172519
0.000710302
0.000183566
0.000680178
0.000194102
0.000648264
0.000204101
0.000614637
0.000213529
0.000579384
0.000222366
0.000542593
0.000230583
0.000504361
0.000238159
0.000464787
0.000245071
0.000423975
0.000251303
0.000382027
0.000256832
0.00033907
0.000261647
0.000295208
0.000265731
0.000250557
0.000269074
0.000205233
0.000271665
0.000159358
0.000273494
0.000112978
0.00027456
6.62071e-05
2.13002e-05
0.000274858
1.35791e-05
0.00091855
3.36827e-08
2.73678e-05
0.000905553
4.12424e-05
0.000892756
5.50989e-05
0.000880402
6.88688e-05
0.000867375
8.24843e-05
0.000853029
9.59042e-05
0.000836827
0.000109073
0.000818817
0.000121958
0.000798708
0.000134512
0.000776705
0.000146699
0.000752722
0.000158483
0.000726792
0.000169829
0.000698969
0.000180706
0.000669316
0.000191079
0.000637904
0.000200924
0.000604809
0.000210208
0.000570115
0.000218909
0.000533909
0.000227
0.000496287
0.00023446
0.000457346
0.000241266
0.000417188
0.000247403
0.000375913
0.000252848
0.000333646
0.00025759
0.000290491
0.000261612
0.00024656
0.000264904
0.000201969
0.000267456
0.000156837
0.000269258
0.000111208
0.000270308
6.51935e-05
2.10579e-05
0.000270604
1.33661e-05
0.000905138
3.37798e-08
2.69388e-05
0.000891964
4.05964e-05
0.000879085
5.42361e-05
0.000866746
6.7791e-05
0.000853807
8.11939e-05
0.000839608
9.44045e-05
0.000823602
0.000107369
0.000805834
0.000120053
0.000786007
0.000132412
0.000764327
0.00014441
0.000740705
0.000156012
0.000715171
0.000167182
0.000687779
0.00017789
0.000658588
0.000188104
0.00062767
0.000197797
0.000595096
0.000206939
0.000560952
0.000215507
0.000525321
0.000223473
0.000488298
0.00023082
0.000449978
0.000237522
0.000410462
0.000243565
0.000369848
0.000248927
0.000328259
0.000253597
0.000285796
0.000257558
0.000242571
0.0002608
0.000198697
0.000263313
0.000154291
0.000265089
0.000109395
0.000266124
6.4119e-05
2.07038e-05
0.000266416
1.31563e-05
0.000891954
3.3794e-08
2.65166e-05
0.000878609
3.99607e-05
0.000865648
5.3387e-05
0.000853324
6.67304e-05
0.000840474
7.9924e-05
0.000826422
9.29288e-05
0.000810609
0.000105691
0.000793081
0.000118178
0.000773533
0.000130345
0.000752172
0.000142157
0.000728905
0.000153579
0.000703762
0.000164577
0.000676794
0.00017512
0.00064806
0.000185176
0.000617627
0.00019472
0.000585568
0.000203721
0.000551966
0.000212158
0.000516902
0.000220002
0.00048047
0.000227236
0.000442764
0.000233836
0.000403881
0.000239787
0.000363919
0.000245067
0.000323
0.000249666
0.000281221
0.000253567
0.000238695
0.00025676
0.000195531
0.000259236
0.000151845
0.000260985
0.000107678
0.000262005
6.31351e-05
2.0467e-05
0.000262294
1.295e-05
0.000878959
3.38941e-08
2.61012e-05
0.000865441
3.93351e-05
0.000852401
5.25516e-05
0.000840091
6.56867e-05
0.000827325
7.86746e-05
0.000813416
9.14768e-05
0.000797792
0.00010404
0.000780498
0.000116333
0.000761223
0.000128311
0.000740175
0.00013994
0.000717257
0.000151185
0.000692498
0.000162013
0.000665946
0.000172393
0.00063766
0.000182295
0.000607704
0.000191692
0.000576152
0.000200555
0.000543081
0.000208862
0.000508575
0.000216586
0.000472724
0.00022371
0.000435619
0.000230208
0.000397359
0.000236068
0.000358037
0.000241268
0.000317774
0.000245797
0.000276667
0.000249639
0.000234825
0.000252784
0.000192356
0.000255222
0.000149374
0.000256945
0.000105918
0.000257951
6.20904e-05
2.01199e-05
0.000258236
1.27469e-05
0.000866184
3.39237e-08
2.56924e-05
0.0008525
3.87195e-05
0.000839381
5.17295e-05
0.000827085
6.46598e-05
0.000814405
7.7445e-05
0.000800637
9.0048e-05
0.000785201
0.000102416
0.000768139
0.000114518
0.000749133
0.00012631
0.000728394
0.000137759
0.000705821
0.00014883
0.000681439
0.00015949
0.000655298
0.00016971
0.000627453
0.000179459
0.000597969
0.000188712
0.000566915
0.000197438
0.000534369
0.000205618
0.000500413
0.000213224
0.000465134
0.000220238
0.000428624
0.000226638
0.000390978
0.000232408
0.000352288
0.000237529
0.000312674
0.000241989
0.000272232
0.000245772
0.000231067
0.00024887
0.000189286
0.000251272
0.000147002
0.000252969
0.000104252
0.00025396
6.11353e-05
1.98885e-05
0.000254243
1.25471e-05
0.000853591
3.40454e-08
2.52902e-05
0.000839741
3.81138e-05
0.000826544
5.09206e-05
0.000814261
6.36493e-05
0.000801662
7.62352e-05
0.000788033
8.8642e-05
0.000772779
0.000100818
0.000755944
0.000112732
0.000737202
0.00012434
0.000716766
0.000135612
0.00069453
0.000146512
0.00067052
0.000157007
0.000644782
0.00016707
0.000617371
0.000176668
0.000588349
0.000185779
0.000557785
0.000194371
0.000525755
0.000202425
0.000492338
0.000209915
0.000457622
0.000216822
0.000421696
0.000223124
0.000384652
0.000228806
0.000346583
0.000233848
0.000307606
0.000238241
0.000267814
0.000241967
0.000227313
0.000245018
0.000186205