/*--------------------------------*- C++ -*----------------------------------*\
  =========                 |
  \\      /  F ield         | OpenFOAM: The Open Source CFD Toolbox
   \\    /   O peration     | Website:  https://openfoam.org
    \\  /    A nd           | Version:  6.0
     \\/     M anipulation  |
\*---------------------------------------------------------------------------*/
FoamFile
{
    version     2.0;
    format      ascii;
    class       volVectorField;
    location    "6";
    object      U;
}
// * * * * * * * * * * * * * * * * * * * * * * * * * * * * * * * * * * * * * //

dimensions      [0 1 -1 0 0 0 0];

internalField   nonuniform List<vector> 
47000
(
(0.999966 -0.000167441 4.44491e-20)
(0.999969 -0.000314865 7.77969e-20)
(0.999971 -0.000387371 -5.10391e-19)
(0.999971 -0.000369996 -8.45725e-19)
(0.999958 -0.000272653 6.02625e-19)
(0.999921 -0.000132003 -3.87089e-19)
(0.999849 1.11671e-06 1.73839e-18)
(0.999735 7.89588e-05 2.72576e-20)
(0.999581 6.70386e-05 3.71085e-19)
(0.999397 -4.6557e-05 -3.6911e-18)
(0.9992 -0.000254097 2.76872e-18)
(0.999007 -0.000532807 1.07256e-18)
(0.998837 -0.00085329 1.76166e-18)
(0.998703 -0.00118651 2.29171e-18)
(0.998611 -0.00150858 -2.24495e-18)
(0.998564 -0.00180296 -1.14129e-18)
(0.998559 -0.00206053 -1.29077e-19)
(0.998592 -0.00227821 -1.36811e-18)
(0.998656 -0.00245725 -1.8263e-19)
(0.998745 -0.00260165 -3.68804e-19)
(0.998853 -0.00271688 -2.35555e-18)
(0.998975 -0.00280917 -8.64129e-19)
(0.999108 -0.00288458 -8.86975e-19)
(0.999249 -0.00294955 -1.2266e-19)
(0.999397 -0.0030105 4.90321e-19)
(0.999552 -0.00307535 -1.60201e-19)
(0.999733 -0.00315663 3.82693e-19)
(0.999769 -0.00328206 -2.1278e-19)
(1.00092 -0.0035248 3.83983e-20)
(0.994917 -0.00385429 -3.73634e-20)
(0.999941 -0.000171407 -9.40575e-20)
(0.999977 -2.09455e-05 -2.68305e-19)
(1.00002 0.000208291 -1.29317e-20)
(1.00004 0.000495582 1.07419e-18)
(1.00002 0.000787152 -4.95118e-19)
(0.999933 0.00100752 1.32401e-18)
(0.999756 0.00108093 -1.10873e-18)
(0.999493 0.000958728 2.45564e-19)
(0.999162 0.000626947 -2.36803e-18)
(0.998793 0.000110558 -8.26768e-20)
(0.998423 -0.000540058 -6.05571e-19)
(0.998087 -0.00126223 1.01906e-18)
(0.997811 -0.00199538 -2.47075e-18)
(0.997614 -0.00268977 1.46605e-19)
(0.997501 -0.00331207 8.99786e-19)
(0.997471 -0.00384353 -3.2245e-19)
(0.997515 -0.00427913 1.7101e-18)
(0.997623 -0.00462173 -1.00421e-18)
(0.997783 -0.0048806 -2.331e-18)
(0.997984 -0.00506618 2.79679e-18)
(0.998215 -0.00519014 1.01231e-18)
(0.998468 -0.00526232 2.50211e-19)
(0.998739 -0.00529124 6.35448e-19)
(0.999024 -0.0052828 5.25903e-19)
(0.99932 -0.00524075 -2.53e-19)
(0.999625 -0.00516705 -2.21948e-20)
(0.999959 -0.00505661 -1.70755e-19)
(1.00011 -0.00499765 -1.90172e-19)
(1.00106 -0.00476069 1.68422e-19)
(0.998734 -0.00378106 5.95337e-20)
(1.00002 -5.0259e-05 1.10658e-19)
(1.00009 0.000406606 2.31831e-20)
(1.00018 0.000893119 -2.74941e-20)
(1.00026 0.00135909 -1.84191e-18)
(1.00031 0.00173111 1.64455e-19)
(1.00028 0.00193335 -1.08273e-18)
(1.00016 0.00190382 9.71732e-19)
(0.999948 0.00161901 -1.04194e-18)
(0.999666 0.0010949 2.03005e-18)
(0.999344 0.000383803 1.59726e-18)
(0.999016 -0.000441737 -7.4416e-19)
(0.998717 -0.00130582 -6.91094e-19)
(0.998473 -0.00214101 3.59268e-18)
(0.998302 -0.00289719 -1.15177e-18)
(0.99821 -0.00354385 8.25197e-19)
(0.998197 -0.00406729 5.0456e-19)
(0.998254 -0.00446724 -1.73123e-18)
(0.998372 -0.00475122 2.36432e-18)
(0.998539 -0.00493178 1.32617e-18)
(0.998746 -0.00502183 -3.39037e-19)
(0.998983 -0.00503376 1.82168e-18)
(0.99924 -0.00497723 1.45489e-18)
(0.999514 -0.00485904 1.00083e-18)
(0.999798 -0.00468245 1.25521e-19)
(1.00009 -0.00444721 -2.31727e-19)
(1.00038 -0.00415111 4.49367e-20)
(1.00068 -0.00377864 -2.36775e-19)
(1.00082 -0.00344022 2.711e-19)
(1.00124 -0.00287384 -8.85014e-20)
(1.00043 -0.000750811 -5.82867e-20)
(1.00016 4.18077e-05 -1.57624e-19)
(1.00027 0.000659783 6.21837e-20)
(1.00042 0.00126675 5.19546e-19)
(1.00058 0.00179968 1.36383e-18)
(1.00071 0.00218171 1.09643e-19)
(1.0008 0.00234718 1.60275e-19)
(1.0008 0.00225107 -1.02459e-18)
(1.00071 0.00188923 -1.01306e-19)
(1.00055 0.00129539 -1.04224e-18)
(1.00034 0.000533617 -3.42984e-19)
(1.0001 -0.000316739 5.16607e-19)
(0.999872 -0.00117918 -4.49059e-19)
(0.999676 -0.00198809 -1.41068e-18)
(0.999532 -0.00269777 7.79892e-19)
(0.999449 -0.00328189 6.81017e-20)
(0.999427 -0.00373133 1.75593e-18)
(0.999463 -0.00404881 -4.55378e-19)
(0.99955 -0.00424464 -8.10227e-19)
(0.999679 -0.00433274 -9.8281e-19)
(0.999842 -0.00432753 -2.65169e-18)
(1.00003 -0.00424191 -7.05031e-19)
(1.00023 -0.00408644 -1.3576e-18)
(1.00045 -0.00386873 -9.3576e-19)
(1.00067 -0.00359406 -5.95279e-19)
(1.00089 -0.00326571 5.50792e-19)
(1.0011 -0.00288858 -1.98099e-19)
(1.00129 -0.00245688 1.56462e-19)
(1.00136 -0.00209716 4.5226e-20)
(1.00149 -0.00159926 -6.7065e-20)
(1.00063 0.000414411 2.71524e-20)
(1.00034 9.35981e-05 2.83114e-20)
(1.00047 0.000765396 -7.64305e-20)
(1.00066 0.00139784 -4.52427e-20)
(1.00088 0.0019249 -2.90336e-20)
(1.0011 0.00227288 -6.50684e-19)
(1.00127 0.00238779 1.48414e-19)
(1.00138 0.00223876 -2.75451e-19)
(1.0014 0.00183466 -4.88996e-19)
(1.00135 0.00121873 9.2842e-19)
(1.00123 0.000458802 -2.24331e-19)
(1.00108 -0.000365991 1.10073e-18)
(1.00091 -0.00118331 1.38153e-18)
(1.00076 -0.00193247 -1.25155e-18)
(1.00063 -0.00257336 -1.30879e-18)
(1.00055 -0.00308398 -1.8234e-18)
(1.00051 -0.00345908 -1.73596e-18)
(1.00052 -0.00370366 3.5595e-19)
(1.00057 -0.00382996 -3.41604e-19)
(1.00065 -0.00385285 2.2616e-18)
(1.00076 -0.00378788 6.35262e-19)
(1.00088 -0.0036488 -1.25548e-18)
(1.00103 -0.0034476 -3.27001e-19)
(1.00117 -0.00319372 1.89463e-19)
(1.00132 -0.00289539 1.79046e-19)
(1.00147 -0.00256006 -2.74764e-19)
(1.00159 -0.00219838 1.47507e-19)
(1.00169 -0.00181014 3.08744e-20)
(1.00168 -0.00151446 -7.54284e-20)
(1.00168 -0.00113439 2.46098e-20)
(1.00064 0.000780721 7.53734e-21)
(1.00053 0.000117442 -3.50967e-20)
(1.00067 0.000776913 1.19218e-19)
(1.00088 0.00137591 -8.71993e-19)
(1.00114 0.00185123 -3.01927e-19)
(1.0014 0.00213567 4.02911e-19)
(1.00163 0.00218707 1.0628e-18)
(1.00181 0.00198665 1.02055e-18)
(1.00191 0.00155239 7.39482e-20)
(1.00194 0.00093246 3.87956e-20)
(1.0019 0.000194108 1.00443e-18)
(1.00181 -0.000587318 -1.05254e-18)
(1.0017 -0.00134598 -1.55685e-18)
(1.00158 -0.0020275 5.41843e-19)
(1.00147 -0.00259774 1.89402e-18)
(1.00139 -0.00303897 3.78315e-18)
(1.00134 -0.00334916 1.05102e-20)
(1.00132 -0.00353499 5.0781e-19)
(1.00133 -0.00360991 1.75517e-18)
(1.00137 -0.00358919 -1.66791e-18)
(1.00143 -0.00348891 9.5186e-19)
(1.0015 -0.00332309 1.02039e-18)
(1.00159 -0.00310448 4.55329e-19)
(1.00168 -0.00284338 2.51466e-19)
(1.00177 -0.00254924 -4.0833e-20)
(1.00185 -0.00223067 -3.32589e-20)
(1.00191 -0.00189872 8.3079e-20)
(1.00193 -0.00155095 2.49771e-20)
(1.00188 -0.00128842 3.01924e-20)
(1.00183 -0.000952569 2.55148e-20)
(1.00068 0.00096627 -3.28221e-20)
(1.00071 0.000118156 4.66876e-20)
(1.00085 0.000720497 2.18123e-19)
(1.00107 0.00124721 4.58322e-19)
(1.00134 0.00164226 3.91783e-19)
(1.00162 0.00184656 1.07534e-18)
(1.00189 0.00182897 -6.22386e-19)
(1.00211 0.00158048 -7.86612e-19)
(1.00226 0.00112506 4.83281e-19)
(1.00235 0.000512417 -9.24019e-19)
(1.00236 -0.000193474 -3.51637e-19)
(1.00232 -0.00092309 -1.98391e-18)
(1.00225 -0.00161811 1.38358e-18)
(1.00216 -0.00223087 7.13263e-19)
(1.00207 -0.00273303 2.97416e-20)
(1.00199 -0.00311061 -2.02007e-18)
(1.00193 -0.00336417 3.07034e-19)
(1.0019 -0.00350142 -5.5698e-19)
(1.00188 -0.00353631 -1.90636e-18)
(1.00189 -0.0034839 -1.61986e-21)
(1.00191 -0.00336012 -1.23992e-18)
(1.00194 -0.00317862 -9.75728e-19)
(1.00199 -0.00295202 -3.44889e-19)
(1.00203 -0.00269034 -2.13421e-19)
(1.00208 -0.0024027 -1.52515e-19)
(1.00211 -0.00209675 -4.80117e-20)
(1.00213 -0.00178127 -1.97295e-19)
(1.0021 -0.00144919 6.45009e-21)
(1.00202 -0.00118612 4.87001e-20)
(1.00194 -0.000850125 1.34892e-20)
(1.00074 0.00110456 3.5804e-20)
(1.00087 0.000101193 1.93695e-19)
(1.00101 0.000618342 -4.3761e-19)
(1.00122 0.00105028 -5.91487e-19)
(1.00149 0.00135081 -3.16346e-19)
(1.00177 0.00146928 -2.86167e-19)
(1.00205 0.00138408 -3.6536e-19)
(1.0023 0.00109365 6.01319e-19)
(1.00248 0.000625316 -1.28686e-18)
(1.00261 2.7986e-05 -5.10651e-19)
(1.00266 -0.000639293 1.0556e-18)
(1.00267 -0.00131371 1.61185e-18)
(1.00263 -0.00194466 -7.38801e-19)
(1.00256 -0.00249095 -1.97088e-18)
(1.00249 -0.0029295 -8.29294e-19)
(1.00242 -0.00324949 4.58979e-20)
(1.00235 -0.0034534 6.11831e-20)
(1.0023 -0.0035494 2.55363e-19)
(1.00227 -0.00355142 -2.41844e-19)
(1.00225 -0.00347384 1.13395e-18)
(1.00225 -0.00333195 8.23877e-19)
(1.00226 -0.00313855 6.12997e-19)
(1.00227 -0.00290555 1.35164e-19)
(1.00228 -0.00264205 -2.04985e-19)
(1.0023 -0.0023561 -7.3069e-20)
(1.0023 -0.0020536 1.16143e-19)
(1.00228 -0.00174059 1.26771e-19)
(1.00222 -0.00140587 -9.41035e-20)
(1.00212 -0.00112473 -8.14742e-20)
(1.00204 -0.000770147 2.90391e-20)
(1.00082 0.00123137 -2.02247e-20)
(1.001 7.15804e-05 9.66545e-21)
(1.00113 0.000488806 1.70573e-19)
(1.00134 0.000816552 7.03561e-19)
(1.00159 0.00101879 -6.89683e-21)
(1.00187 0.00105322 -5.0844e-19)
(1.00215 0.000906115 -7.16847e-20)
(1.00241 0.000581249 -5.02082e-19)
(1.00261 0.000107314 6.9788e-19)
(1.00276 -0.000469178 9.5581e-20)
(1.00285 -0.00109488 -1.1022e-18)
(1.00288 -0.00171392 -1.80923e-18)
(1.00287 -0.00228305 -9.65341e-19)
(1.00282 -0.00276705 1.66956e-18)
(1.00277 -0.00314738 1.31379e-18)
(1.0027 -0.00341581 -9.05852e-19)
(1.00264 -0.00357614 -1.90383e-18)
(1.00258 -0.00363661 2.62249e-19)
(1.00254 -0.00361074 1.32144e-18)
(1.00251 -0.00351193 -1.16049e-18)
(1.00249 -0.00335455 5.97603e-19)
(1.00248 -0.00315029 -4.48201e-19)
(1.00247 -0.0029101 -6.92708e-20)
(1.00246 -0.00264191 1.59838e-19)
(1.00245 -0.00235247 1.8199e-19)
(1.00244 -0.00204592 -2.56298e-20)
(1.0024 -0.00172586 -9.58817e-20)
(1.00232 -0.00137808 -3.03974e-20)
(1.00221 -0.00107153 -2.90027e-21)
(1.00212 -0.000691516 5.39502e-21)
(1.00091 0.00136127 -1.25678e-20)
(1.0011 3.43844e-05 -3.93398e-20)
(1.00123 0.000346283 1.08425e-19)
(1.00142 0.000569571 -2.52436e-19)
(1.00166 0.000676811 -1.0829e-19)
(1.00193 0.00063367 -6.42678e-19)
(1.0022 0.000432702 -1.86289e-19)
(1.00246 8.12344e-05 6.93674e-20)
(1.00267 -0.000392118 -6.10651e-19)
(1.00284 -0.000944169 -3.01414e-19)
(1.00294 -0.00152752 1.92672e-19)
(1.003 -0.002093 4.08345e-19)
(1.00301 -0.00260413 9.65277e-19)
(1.00299 -0.00303096 7.05277e-20)
(1.00294 -0.00335884 -2.6164e-18)
(1.00289 -0.00358154 -5.11724e-19)
(1.00283 -0.00370378 2.78401e-19)
(1.00278 -0.00373352 1.05166e-18)
(1.00273 -0.00368365 -3.3928e-19)
(1.00269 -0.00356644 6.4399e-19)
(1.00266 -0.00339523 6.82189e-19)
(1.00264 -0.00318051 3.15161e-19)
(1.00262 -0.0029322 -1.47817e-19)
(1.0026 -0.00265702 -2.40167e-19)
(1.00258 -0.00236051 1.51328e-19)
(1.00254 -0.00204526 -1.08501e-19)
(1.00249 -0.00171295 1.93921e-19)
(1.0024 -0.00134727 -3.85824e-20)
(1.00228 -0.00101348 1.01232e-20)
(1.00219 -0.000606634 -6.84488e-20)
(1.001 0.00149734 1.24429e-20)
(1.00117 -6.53856e-06 -2.0502e-19)
(1.0013 0.000201027 -8.20275e-20)
(1.00147 0.000325503 -4.26085e-20)
(1.0017 0.000345283 5.10639e-19)
(1.00195 0.000233498 1.10487e-18)
(1.00222 -1.24498e-05 1.20753e-18)
(1.00247 -0.000383093 1.01327e-18)
(1.00269 -0.000850872 -6.30437e-20)
(1.00286 -0.00137642 1.14623e-18)
(1.00298 -0.00191815 -2.96581e-19)
(1.00306 -0.00243312 -4.9655e-20)
(1.00309 -0.00289091 1.57912e-18)
(1.00308 -0.00326614 1.77641e-18)
(1.00305 -0.00354738 3.62368e-19)
(1.00301 -0.00372997 1.04604e-18)
(1.00296 -0.00381915 1.67959e-19)
(1.00291 -0.00382247 -5.61751e-19)
(1.00286 -0.00375199 8.45879e-19)
(1.00282 -0.00361886 2.67795e-19)
(1.00279 -0.00343532 -1.46839e-18)
(1.00276 -0.0032107 1.92248e-19)
(1.00273 -0.00295391 2.20823e-19)
(1.00271 -0.00267058 1.8358e-20)
(1.00267 -0.00236514 -2.44673e-19)
(1.00263 -0.00203889 6.41657e-20)
(1.00257 -0.0016921 -1.76939e-19)
(1.00247 -0.00130696 7.21587e-20)
(1.00234 -0.000946669 -5.46411e-20)
(1.00226 -0.000514085 -2.58667e-20)
(1.00109 0.00164046 1.57219e-21)
(1.00122 -4.79278e-05 1.53404e-19)
(1.00134 6.03312e-05 -2.08669e-19)
(1.0015 9.49654e-05 4.5035e-19)
(1.00171 3.70723e-05 -3.34451e-19)
(1.00195 -0.000133489 -1.12095e-18)
(1.0022 -0.000415674 -4.6895e-19)
(1.00245 -0.000798948 -2.12995e-18)
(1.00267 -0.00125742 1.03315e-18)
(1.00285 -0.00175568 -8.4104e-20)
(1.00298 -0.00225761 1.0327e-19)
(1.00307 -0.00272592 2.60756e-19)
(1.00311 -0.00313545 -2.15069e-18)
(1.00313 -0.00346475 -1.46223e-18)
(1.00311 -0.00370504 1.69895e-18)
(1.00308 -0.00385283 2.20125e-19)
(1.00304 -0.00391364 5.94119e-19)
(1.003 -0.00389447 -1.10782e-18)
(1.00296 -0.00380652 -7.413e-19)
(1.00292 -0.00365979 5.13717e-19)
(1.00289 -0.00346549 4.79793e-19)
(1.00286 -0.00323186 -5.23252e-19)
(1.00282 -0.00296685 -2.25275e-19)
(1.00279 -0.00267512 2.5922e-19)
(1.00276 -0.00236015 8.45231e-20)
(1.00271 -0.00202221 9.35979e-20)
(1.00264 -0.00166047 3.40051e-20)
(1.00253 -0.00125607 2.33818e-20)
(1.00241 -0.000871111 1.24573e-19)
(1.00233 -0.000414613 -5.17305e-20)
(1.00119 0.00178854 -2.77741e-20)
(1.00123 -8.78548e-05 -4.54487e-20)
(1.00135 -7.15499e-05 6.81726e-19)
(1.0015 -0.000116103 4.54536e-19)
(1.0017 -0.000241148 -3.6951e-20)
(1.00193 -0.000460725 -1.21299e-19)
(1.00217 -0.00077114 8.57553e-19)
(1.00241 -0.00116158 8.73173e-19)
(1.00263 -0.00160814 -8.12429e-19)
(1.00281 -0.00207931 -8.56818e-19)
(1.00295 -0.00254396 -3.33685e-19)
(1.00305 -0.0029698 -1.54919e-19)
(1.00311 -0.00333625 1.5032e-18)
(1.00314 -0.00362514 -2.59424e-18)
(1.00314 -0.00382986 -3.71117e-19)
(1.00312 -0.0039478 -3.83717e-19)
(1.00309 -0.00398454 5.0852e-19)
(1.00306 -0.00394647 1.10409e-18)
(1.00303 -0.00384394 1.61139e-18)
(1.00299 -0.00368586 -1.71624e-18)
(1.00296 -0.00348242 1.03122e-19)
(1.00293 -0.00324089 6.3303e-19)
(1.0029 -0.00296835 3.66198e-19)
(1.00287 -0.00266858 6.75876e-21)
(1.00283 -0.00234427 7.50655e-20)
(1.00277 -0.0019948 1.96476e-19)
(1.00271 -0.00161851 1.17078e-19)
(1.00259 -0.00119575 1.85e-19)
(1.00247 -0.000788103 -9.46816e-21)
(1.00239 -0.000309701 8.23526e-20)
(1.00128 0.00194114 2.4603e-20)
(1.00123 -0.000124886 -8.1467e-20)
(1.00135 -0.000191951 -3.88505e-19)
(1.00149 -0.000304763 -6.3355e-19)
(1.00167 -0.000486577 7.17444e-20)
(1.00189 -0.000746101 8.83735e-19)
(1.00212 -0.00107777 4.49784e-19)
(1.00235 -0.00147102 -1.01335e-19)
(1.00257 -0.00190408 4.40045e-19)
(1.00276 -0.0023491 7.8373e-19)
(1.00291 -0.00277945 3.97781e-19)
(1.00302 -0.00316714 4.29801e-19)
(1.00309 -0.00349556 5.00105e-20)
(1.00313 -0.00374926 7.25165e-19)
(1.00314 -0.0039234 4.11619e-19)
(1.00314 -0.00401596 7.74918e-19)
(1.00312 -0.00403251 -4.67169e-19)
(1.0031 -0.00397879 1.73747e-20)
(1.00307 -0.0038643 -7.17793e-19)
(1.00305 -0.00369693 -3.72281e-19)
(1.00302 -0.00348594 -1.43285e-20)
(1.00299 -0.00323768 2.04517e-19)
(1.00296 -0.00295848 -3.60347e-19)
(1.00293 -0.00265134 -1.01929e-19)
(1.00289 -0.00231822 -1.13479e-19)
(1.00284 -0.00195779 -1.78919e-19)
(1.00277 -0.0015677 -5.54264e-20)
(1.00265 -0.00112773 -3.00199e-19)
(1.00252 -0.000699291 -1.33192e-19)
(1.00246 -0.000200661 -2.23855e-20)
(1.00137 0.00209621 3.27715e-20)
(1.00121 -0.000158477 -6.92845e-20)
(1.00132 -0.000299937 -3.65746e-19)
(1.00145 -0.000470538 -5.40471e-20)
(1.00163 -0.000699526 -8.03748e-19)
(1.00184 -0.00099096 9.3551e-20)
(1.00206 -0.00133802 -9.898e-22)
(1.00229 -0.00173078 2.1451e-19)
(1.0025 -0.00214953 4.93191e-19)
(1.00269 -0.00256985 -7.65705e-19)
(1.00285 -0.002969 3.80415e-19)
(1.00297 -0.00332278 7.38945e-19)
(1.00305 -0.00361788 -4.37388e-19)
(1.0031 -0.00384118 1.58864e-18)
(1.00313 -0.00398921 -1.20943e-19)
(1.00314 -0.00406041 -1.98411e-18)
(1.00314 -0.00406018 -1.10334e-18)
(1.00312 -0.00399366 -4.04955e-19)
(1.00311 -0.00386952 -3.86083e-19)
(1.00309 -0.00369471 9.69833e-19)
(1.00307 -0.00347762 -5.75099e-20)
(1.00304 -0.00322378 -7.78935e-19)
(1.00302 -0.00293881 5.35298e-19)
(1.00299 -0.00262502 4.15851e-19)
(1.00295 -0.00228374 1.18576e-19)
(1.00289 -0.00191302 -1.23624e-19)
(1.00282 -0.00150995 -3.55007e-21)
(1.00271 -0.00105384 2.53961e-19)
(1.00258 -0.000606115 1.838e-19)
(1.00252 -8.87128e-05 -1.87647e-20)
(1.00145 0.00225382 -3.37096e-20)
(1.00117 -0.000188333 8.83416e-20)
(1.00128 -0.000395243 6.61413e-19)
(1.0014 -0.000614194 -4.02639e-19)
(1.00157 -0.000881772 6.87805e-19)
(1.00177 -0.00119821 -2.22193e-19)
(1.00199 -0.0015559 -1.84761e-18)
(1.00221 -0.00194574 2.91044e-19)
(1.00243 -0.00235004 -1.61353e-18)
(1.00262 -0.0027474 -5.49115e-19)
(1.00278 -0.00311852 -8.39175e-19)
(1.00291 -0.00344239 -1.81091e-18)
(1.003 -0.00370854 -3.83398e-19)
(1.00307 -0.00390573 3.70133e-19)
(1.00311 -0.00403162 -4.18615e-19)
(1.00313 -0.00408494 2.85748e-18)
(1.00314 -0.00407089 1.60088e-19)
(1.00314 -0.003994 2.98567e-19)
(1.00313 -0.00386218 6.11993e-19)
(1.00312 -0.00368151 -1.4743e-19)
(1.0031 -0.00345955 7.41319e-19)
(1.00309 -0.00320112 2.69326e-19)
(1.00307 -0.00291119 2.53383e-19)
(1.00304 -0.00259142 -4.29358e-19)
(1.003 -0.00224259 6.4684e-20)
(1.00295 -0.0018622 3.36577e-20)
(1.00288 -0.00144687 -1.59606e-19)
(1.00277 -0.000975543 -6.51159e-20)
(1.00264 -0.00050979 -3.69191e-20)
(1.00258 2.53785e-05 4.2951e-20)
(1.00154 0.00241249 -2.77838e-21)
(1.00112 -0.000214734 -1.32809e-19)
(1.00122 -0.000478657 -2.28988e-19)
(1.00134 -0.000737592 1.03299e-18)
(1.0015 -0.00103637 -1.13016e-18)
(1.0017 -0.00137205 -3.97593e-19)
(1.00191 -0.0017366 1.04402e-18)
(1.00213 -0.00212186 -1.14828e-18)
(1.00234 -0.00251198 1.46444e-18)
(1.00254 -0.00288828 1.83298e-18)
(1.0027 -0.00323437 1.29449e-19)
(1.00284 -0.00353201 1.32411e-18)
(1.00294 -0.00377308 -9.86615e-19)
(1.00302 -0.00394793 -1.3145e-18)
(1.00308 -0.00405511 -5.50423e-19)
(1.00311 -0.00409353 -4.04484e-19)
(1.00313 -0.00406815 1.3894e-18)
(1.00314 -0.00398295 -4.91468e-19)
(1.00314 -0.00384508 -1.1106e-18)
(1.00314 -0.00365984 2.3247e-19)
(1.00314 -0.00343405 -1.24306e-18)
(1.00313 -0.00317184 2.42298e-20)
(1.00311 -0.00287759 -7.84948e-19)
(1.00309 -0.0025524 5.20479e-19)
(1.00305 -0.00219651 -2.26451e-19)
(1.003 -0.00180694 -6.34659e-20)
(1.00294 -0.00137993 7.47867e-20)
(1.00283 -0.000894086 -2.77763e-20)
(1.0027 -0.000411187 -1.18031e-19)
(1.00265 0.000140916 1.58966e-20)
(1.00163 0.00257277 6.96238e-21)
(1.00106 -0.000237942 1.0084e-19)
(1.00115 -0.000551 -3.27092e-19)
(1.00127 -0.000842843 2.73423e-20)
(1.00143 -0.00116656 1.90007e-18)
(1.00162 -0.00151676 1.17733e-18)
(1.00183 -0.00188525 -5.22425e-20)
(1.00205 -0.00226487 2.84001e-18)
(1.00226 -0.0026414 -9.12165e-19)
(1.00245 -0.00299857 -1.69269e-18)
(1.00262 -0.00332249 -5.86175e-19)
(1.00277 -0.00359721 -8.67796e-19)
(1.00288 -0.00381665 -9.99789e-19)
(1.00297 -0.00397242 1.06062e-18)
(1.00304 -0.00406382 1.7196e-18)
(1.00308 -0.00408985 -3.21599e-19)
(1.00312 -0.00405521 1.9817e-19)
(1.00314 -0.00396335 -3.55277e-19)
(1.00315 -0.00382074 7.77189e-19)
(1.00316 -0.00363194 -5.64325e-19)
(1.00316 -0.0034031 6.23386e-19)
(1.00316 -0.00313772 -1.62808e-19)
(1.00315 -0.00283963 -5.80428e-20)
(1.00313 -0.00250941 -1.45173e-19)
(1.0031 -0.00214681 1.6563e-19)
(1.00305 -0.00174844 9.92138e-20)
(1.00299 -0.00131018 7.74262e-20)
(1.00288 -0.000810354 -3.41796e-20)
(1.00276 -0.000310994 7.06222e-20)
(1.00271 0.000257587 2.87808e-20)
(1.00172 0.00273347 8.10158e-21)
(1.00098 -0.000258529 -1.023e-19)
(1.00107 -0.00061368 -2.69339e-19)
(1.00119 -0.000932434 -3.2649e-19)
(1.00134 -0.00127593 -1.05614e-18)
(1.00153 -0.00163687 -1.34597e-20)
(1.00174 -0.00200712 1.23815e-18)
(1.00196 -0.00238049 -2.08659e-18)
(1.00217 -0.00274422 5.07592e-19)
(1.00237 -0.00308412 1.16345e-18)
(1.00254 -0.00338843 1.04125e-18)
(1.00269 -0.00364317 8.53608e-19)
(1.00282 -0.00384392 -9.98025e-20)
(1.00292 -0.00398341 2.83449e-19)
(1.003 -0.00406147 -1.74464e-18)
(1.00305 -0.00407719 1.78937e-18)
(1.0031 -0.00403496 -6.60637e-19)
(1.00313 -0.00393776 -5.84688e-20)
(1.00316 -0.00379143 -4.16973e-19)
(1.00317 -0.00359985 5.06313e-19)
(1.00319 -0.00336854 -5.23784e-19)
(1.00319 -0.00310041 -3.95199e-19)
(1.00319 -0.00279881 2.26704e-19)
(1.00317 -0.00246382 -5.21192e-19)
(1.00315 -0.00209474 -2.75331e-19)
(1.00311 -0.00168778 8.75584e-20)
(1.00304 -0.00123854 -1.41808e-19)
(1.00294 -0.000725072 -4.51673e-20)
(1.00282 -0.000209661 1.27217e-20)
(1.00278 0.000375006 -4.94112e-21)
(1.0018 0.00289543 -3.56572e-20)
(1.0009 -0.000276902 2.77535e-20)
(1.00098 -0.00066781 5.28403e-19)
(1.0011 -0.00100863 -1.00774e-18)
(1.00126 -0.00136768 1.05035e-18)
(1.00144 -0.00173639 -2.57329e-19)
(1.00165 -0.00210678 -2.31545e-18)
(1.00186 -0.00247363 7.39881e-19)
(1.00208 -0.00282547 -4.78474e-19)
(1.00228 -0.00314987 -5.61318e-19)
(1.00246 -0.00343691 -4.54133e-19)
(1.00262 -0.00367422 4.94704e-19)
(1.00275 -0.00385885 1.87685e-18)
(1.00286 -0.0039844 -9.63529e-19)
(1.00295 -0.00405119 1.06603e-18)
(1.00302 -0.00405827 -1.7766e-18)
(1.00308 -0.00400979 -6.83333e-19)
(1.00312 -0.00390828 8.78015e-19)
(1.00316 -0.00375898 6.64238e-19)
(1.00319 -0.00356517 -3.31865e-19)
(1.00321 -0.00333176 1.30482e-18)
(1.00322 -0.00306115 1.07649e-18)
(1.00322 -0.00275621 -4.2259e-19)
(1.00322 -0.00241657 4.49424e-19)
(1.00319 -0.0020411 1.35319e-19)
(1.00316 -0.00162566 -2.04025e-19)
(1.0031 -0.00116559 1.0999e-19)
(1.003 -0.000638706 1.84351e-19)
(1.00287 -0.000107541 3.68932e-20)
(1.00284 0.000493117 -2.75506e-20)
(1.00189 0.00305762 2.52832e-20)
(1.00081 -0.00029365 2.91025e-19)
(1.00089 -0.000714887 7.82634e-20)
(1.001 -0.00107375 7.5577e-19)
(1.00116 -0.00144502 -9.75049e-19)
(1.00135 -0.00181918 6.39745e-19)
(1.00155 -0.0021886 -3.47275e-19)
(1.00177 -0.00254892 1.34648e-18)
(1.00198 -0.00288977 -4.6268e-19)
(1.00219 -0.00320031 -5.99414e-19)
(1.00237 -0.0034721 -6.51713e-19)
(1.00254 -0.00369419 -1.95447e-18)
(1.00268 -0.00386484 6.35749e-19)
(1.0028 -0.00397841 3.4424e-19)
(1.0029 -0.00403558 5.41171e-19)
(1.00299 -0.00403538 -2.34587e-19)
(1.00305 -0.00398171 6.29175e-19)
(1.00311 -0.00387665 -1.30367e-18)
(1.00316 -0.00372494 -1.24411e-18)
(1.00319 -0.00352926 1.89689e-20)
(1.00322 -0.00329398 -8.89736e-19)
(1.00324 -0.00302101 3.22411e-20)
(1.00326 -0.00271279 3.90347e-19)
(1.00326 -0.00236851 -2.1863e-19)
(1.00324 -0.00198664 1.36043e-20)
(1.00321 -0.00156274 8.70893e-20)
(1.00315 -0.00109187 -4.03561e-20)
(1.00305 -0.000551651 -1.9459e-19)
(1.00293 -4.83145e-06 -9.33792e-20)
(1.00291 0.000611707 3.00715e-20)
(1.00197 0.00322101 2.69104e-20)
(1.00072 -0.00030913 -2.13197e-19)
(1.00079 -0.000755938 2.35229e-19)
(1.00091 -0.00112972 -3.10678e-19)
(1.00106 -0.00151052 6.92117e-19)
(1.00125 -0.00188839 -7.48492e-19)
(1.00145 -0.00225607 -5.21586e-19)
(1.00167 -0.00261001 -1.78957e-18)
(1.00189 -0.00294082 1.97357e-18)
(1.0021 -0.00323896 2.59113e-18)
(1.00229 -0.00349732 5.63766e-19)
(1.00246 -0.00370609 3.36431e-19)
(1.00261 -0.0038646 -2.28598e-19)
(1.00274 -0.00396781 3.18833e-19)
(1.00285 -0.00401672 -7.50226e-20)
(1.00295 -0.00401032 1.27502e-18)
(1.00303 -0.00395225 4.51902e-19)
(1.0031 -0.00384421 5.08973e-19)
(1.00315 -0.00369044 6.96989e-20)
(1.0032 -0.0034931 9.07287e-19)
(1.00324 -0.00325604 4.56539e-19)
(1.00327 -0.00298072 -5.46947e-19)
(1.00329 -0.00266917 -3.36904e-19)
(1.00329 -0.00232016 1.8322e-19)
(1.00328 -0.00193182 2.78248e-20)
(1.00325 -0.00149937 2.13526e-20)
(1.00321 -0.00101768 -1.46529e-20)
(1.00311 -0.000464131 1.10701e-19)
(1.00299 9.82934e-05 4.79338e-20)
(1.00297 0.000730844 -1.40495e-19)
(1.00206 0.00338462 -4.48131e-21)
(1.00061 -0.000323823 1.02278e-19)
(1.00068 -0.000792281 1.03392e-19)
(1.0008 -0.00117843 7.20366e-19)
(1.00096 -0.00156672 -3.22635e-19)
(1.00115 -0.00194701 -1.28078e-18)
(1.00135 -0.00231246 6.80283e-20)
(1.00157 -0.0026603 -2.04657e-18)
(1.00179 -0.00298194 5.43111e-19)
(1.002 -0.00326901 -1.99934e-18)
(1.0022 -0.00351548 -6.31846e-19)
(1.00238 -0.00371253 -4.6797e-19)
(1.00254 -0.00386039 5.92163e-19)
(1.00268 -0.00395457 -3.5173e-19)
(1.0028 -0.00399632 7.36917e-20)
(1.00291 -0.00398455 -3.33877e-19)
(1.003 -0.00392268 -1.20132e-18)
(1.00308 -0.00381205 -8.81603e-20)
(1.00315 -0.00365645 6.51193e-19)
(1.00321 -0.00345755 -6.11017e-19)
(1.00325 -0.0032187 4.00933e-19)
(1.00329 -0.00294095 -7.97008e-19)
(1.00332 -0.00262595 3.50396e-19)
(1.00333 -0.00227208 -3.89027e-19)
(1.00333 -0.00187711 1.05004e-19)
(1.0033 -0.00143598 -6.68612e-20)
(1.00326 -0.000943339 5.59365e-22)
(1.00317 -0.000376377 -6.44314e-20)
(1.00306 0.00020175 -6.05036e-20)
(1.00304 0.000850371 6.88522e-20)
(1.00214 0.00354945 7.36505e-21)
(1.00051 -0.000337975 -2.81087e-19)
(1.00057 -0.000824708 -9.9192e-19)
(1.0007 -0.00122133 -7.75684e-19)
(1.00086 -0.00161552 3.48872e-19)
(1.00105 -0.00199726 3.65011e-19)
(1.00125 -0.00236022 2.04127e-18)
(1.00147 -0.00270231 3.21705e-18)
(1.0017 -0.00301564 -3.54983e-18)
(1.00191 -0.0032928 4.93532e-19)
(1.00212 -0.00352874 -4.18466e-19)
(1.0023 -0.00371543 2.89888e-18)
(1.00247 -0.00385393 -1.00277e-18)
(1.00262 -0.00394018 -2.50293e-19)
(1.00275 -0.00397564 1.64745e-19)
(1.00287 -0.00395915 -1.76833e-18)
(1.00297 -0.00389392 4.60589e-19)
(1.00306 -0.00378096 3.18435e-19)
(1.00314 -0.00362364 1.91103e-19)
(1.00321 -0.00342316 2.53063e-19)
(1.00327 -0.00318243 -2.23815e-19)
(1.00331 -0.00290211 2.06861e-19)
(1.00335 -0.00258347 -3.21679e-19)
(1.00337 -0.00222453 3.50278e-19)
(1.00337 -0.00182273 2.4771e-19)
(1.00335 -0.00137273 2.45996e-19)
(1.00332 -0.000868989 -1.02794e-20)
(1.00323 -0.000288483 2.45881e-20)
(1.00312 0.000305451 9.63172e-21)
(1.00311 0.000970416 -2.34466e-20)
(1.00223 0.00371457 -2.06235e-20)
(1.0004 -0.000351943 2.42098e-19)
(1.00046 -0.000854293 6.27657e-19)
(1.00059 -0.00125984 -9.98534e-20)
(1.00075 -0.00165876 2.50149e-19)
(1.00094 -0.00204133 -9.11557e-20)
(1.00115 -0.00240169 -1.37666e-18)
(1.00137 -0.0027384 -6.11406e-21)
(1.0016 -0.00304419 1.35859e-18)
(1.00182 -0.00331248 1.85727e-18)
(1.00203 -0.00353902 3.1096e-18)
(1.00223 -0.00371649 1.05112e-18)
(1.0024 -0.00384666 9.3691e-19)
(1.00256 -0.00392585 -7.80857e-19)
(1.0027 -0.00395571 -1.18602e-18)
(1.00283 -0.00393501 2.73783e-18)
(1.00294 -0.00386672 1.19171e-18)
(1.00305 -0.00375158 -1.97368e-18)
(1.00313 -0.00359256 -9.30514e-19)
(1.00321 -0.00339044 -1.43105e-18)
(1.00328 -0.00314769 -5.17524e-19)
(1.00334 -0.0028646 4.69396e-19)
(1.00338 -0.0025421 6.17934e-19)
(1.00341 -0.00217786 -6.97947e-19)
(1.00342 -0.00176898 -9.85414e-20)
(1.00341 -0.00130989 -2.09734e-19)
(1.00337 -0.000794833 5.03021e-20)
(1.00329 -0.000200583 -7.85806e-20)
(1.00318 0.000409379 -6.66871e-20)
(1.00318 0.00109086 2.93939e-20)
(1.00232 0.003881 -1.18958e-20)
(1.00028 -0.000365861 4.25563e-20)
(1.00035 -0.000881569 4.84963e-19)
(1.00048 -0.001295 5.75512e-19)
(1.00064 -0.00169777 -9.4544e-19)
(1.00084 -0.00208069 5.56796e-19)
(1.00105 -0.00243847 8.09233e-19)
(1.00127 -0.00277021 -1.13409e-18)
(1.0015 -0.00306917 1.09387e-18)
(1.00173 -0.00332951 2.61711e-19)
(1.00195 -0.00354765 -3.54566e-18)
(1.00215 -0.00371688 -1.24942e-18)
(1.00233 -0.0038396 -1.45524e-18)
(1.0025 -0.00391245 1.89849e-19)
(1.00265 -0.00393726 9.39157e-19)
(1.00279 -0.00391271 -1.52194e-18)
(1.00292 -0.00384158 -6.19921e-19)
(1.00303 -0.00372433 1.76306e-18)
(1.00313 -0.00356358 1.60873e-18)
(1.00322 -0.00335967 1.87826e-19)
(1.00329 -0.00311471 8.95758e-19)
(1.00336 -0.00282861 -3.9311e-19)
(1.00341 -0.00250199 3.77081e-20)
(1.00345 -0.00213218 1.02278e-18)
(1.00346 -0.00171596 -2.74314e-19)
(1.00346 -0.00124752 -4.7321e-20)
(1.00343 -0.000720915 -6.44007e-20)
(1.00335 -0.000112707 -8.1156e-21)
(1.00325 0.000513491 1.78728e-19)
(1.00325 0.00121185 3.30832e-20)
(1.00241 0.00404777 2.074e-20)
(1.00017 -0.000379984 -7.49702e-20)
(1.00023 -0.000907378 -7.15971e-19)
(1.00036 -0.00132782 1.93341e-21)
(1.00053 -0.00173385 -3.6971e-19)
(1.00073 -0.00211688 -3.93979e-19)
(1.00094 -0.00247216 -1.07533e-18)
(1.00117 -0.00279936 -1.68955e-19)
(1.00141 -0.00309213 -1.73765e-18)
(1.00164 -0.0033453 -2.8267e-18)
(1.00186 -0.00355587 2.0206e-18)
(1.00207 -0.00371765 -3.86885e-18)
(1.00227 -0.00383361 4.4396e-19)
(1.00244 -0.00390071 3.54165e-19)
(1.0026 -0.0039209 8.27166e-19)
(1.00275 -0.00389277 -5.80711e-19)
(1.00289 -0.00381893 -2.17025e-19)
(1.00301 -0.00369958 2.22361e-19)
(1.00312 -0.003537 -1.66666e-18)
(1.00322 -0.00333116 9.34757e-19)
(1.00331 -0.00308377 -8.33438e-20)
(1.00338 -0.00279441 2.5863e-19)
(1.00344 -0.0024634 5.64822e-19)
(1.00348 -0.00208774 -6.69305e-19)
(1.00351 -0.00166389 2.10077e-20)
(1.00351 -0.00118582 6.5372e-20)
(1.00349 -0.000647389 -5.66902e-20)
(1.00341 -2.49499e-05 1.90771e-19)
(1.00331 0.000617784 -2.49683e-21)
(1.00333 0.00133325 -3.14559e-20)
(1.00249 0.00421592 -1.07415e-20)
(1.00005 -0.000394361 -1.93445e-19)
(1.00011 -0.000932034 6.8965e-21)
(1.00025 -0.00135898 4.05805e-19)
(1.00042 -0.00176785 -2.40144e-19)
(1.00062 -0.00215084 -8.93962e-20)
(1.00084 -0.00250379 -7.61834e-19)
(1.00107 -0.00282682 9.38933e-19)
(1.00131 -0.00311402 9.34109e-19)
(1.00155 -0.0033607 -1.13188e-18)
(1.00178 -0.00356445 8.04678e-19)
(1.002 -0.00371947 5.46573e-18)
(1.0022 -0.00382929 1.18109e-18)
(1.00238 -0.0038911 -2.50674e-18)
(1.00256 -0.00390702 -6.12954e-19)
(1.00271 -0.0038755 1.22819e-18)
(1.00286 -0.00379902 3.75854e-19)
(1.00299 -0.00367754 1.04197e-18)
(1.00311 -0.00351301 1.17506e-18)
(1.00322 -0.00330504 7.90643e-19)
(1.00332 -0.00305498 -6.79472e-19)
(1.0034 -0.00276209 -7.08469e-19)
(1.00347 -0.00242639 -7.92922e-19)
(1.00352 -0.00204457 4.26455e-20)
(1.00356 -0.00161279 2.20128e-19)
(1.00356 -0.00112479 1.82192e-19)
(1.00355 -0.000574254 8.93775e-21)
(1.00348 6.269e-05 9.19757e-21)
(1.00338 0.000722233 9.02432e-21)
(1.0034 0.00145524 -5.83694e-21)
(1.00259 0.00438448 5.1167e-21)
(0.999923 -0.000409171 2.9044e-19)
(0.999987 -0.000956193 -3.12917e-19)
(1.00013 -0.00138923 2.6546e-21)
(1.00031 -0.00180071 1.08783e-18)
(1.00051 -0.00218364 7.72818e-19)
(1.00074 -0.00253445 1.88718e-18)
(1.00097 -0.00285371 -2.44882e-18)
(1.00122 -0.00313585 2.17051e-18)
(1.00146 -0.00337666 -1.65116e-18)
(1.0017 -0.00357417 -1.80732e-18)
(1.00192 -0.00372299 -7.4961e-19)
(1.00213 -0.00382715 -3.50655e-19)
(1.00233 -0.00388405 1.40197e-18)
(1.00251 -0.00389593 2.13787e-19)