/*--------------------------------*- C++ -*----------------------------------*\
  =========                 |
  \\      /  F ield         | OpenFOAM: The Open Source CFD Toolbox
   \\    /   O peration     | Website:  https://openfoam.org
    \\  /    A nd           | Version:  6.0
     \\/     M anipulation  |
\*---------------------------------------------------------------------------*/
FoamFile
{
    version     2.0;
    format      ascii;
    class       volScalarField;
    location    "4";
    object      p;
}
// * * * * * * * * * * * * * * * * * * * * * * * * * * * * * * * * * * * * * //

dimensions      [0 2 -2 0 0 0 0];

internalField   nonuniform List<scalar> 
248000
(
0.0285476
0.0283725
0.0281992
0.028027
0.0278565
0.0276873
0.0275198
0.0273538
0.0271896
0.0270269
0.0268663
0.0267073
0.0265504
0.0263952
0.0262422
0.026091
0.0259422
0.0257954
0.025651
0.0255088
0.0253691
0.0252318
0.0250972
0.0249653
0.0248365
0.0247107
0.0245885
0.0244698
0.0243554
0.0242451
0.0241398
0.0240392
0.0239446
0.0238556
0.0237736
0.0236983
0.0236313
0.0235726
0.0235238
0.0234854
0.023459
0.0234454
0.0234467
0.0234639
0.0234994
0.0235546
0.0236322
0.023734
0.0238623
0.0240193
0.0242081
0.0244325
0.0246967
0.0250056
0.0253641
0.0257781
0.0262531
0.0267962
0.0274134
0.0281127
0.0289003
0.0297852
0.0307742
0.0318765
0.0330986
0.0344492
0.0359349
0.0375644
0.0393446
0.0412783
0.0433677
0.0456147
0.0480189
0.0505769
0.0532817
0.0561215
0.0590802
0.0621362
0.0652623
0.0684251
0.0715853
0.0746968
0.0777083
0.0805632
0.083201
0.0855596
0.087576
0.0891905
0.0903476
0.0910011
0.0911143
0.0906652
0.0896469
0.0880678
0.0859574
0.0833526
0.0803189
0.0769118
0.0732227
0.0693116
0.0652796
0.0611768
0.0570975
0.0530721
0.0491749
0.0454191
0.041848
0.0384741
0.0353004
0.0323232
0.0295388
0.026933
0.0244918
0.0221931
0.0200155
0.0179285
0.0158999
0.0138805
0.0119411
0.0116162
0.0282212
0.0280403
0.0278641
0.0276911
0.0275219
0.0273557
0.0271929
0.0270327
0.0268755
0.0267208
0.0265688
0.026419
0.0262717
0.0261265
0.0259837
0.0258429
0.0257044
0.0255678
0.0254335
0.0253011
0.025171
0.025043
0.0249174
0.024794
0.0246733
0.0245551
0.02444
0.0243279
0.0242194
0.0241144
0.0240139
0.0239176
0.0238266
0.0237407
0.0236613
0.0235883
0.023523
0.0234658
0.023418
0.0233804
0.0233544
0.0233412
0.0233423
0.0233595
0.0233945
0.0234495
0.0235267
0.0236284
0.0237564
0.0239127
0.0240999
0.0243222
0.0245838
0.0248899
0.0252454
0.0256561
0.0261278
0.0266673
0.0272808
0.027976
0.02876
0.0296411
0.0306272
0.0317268
0.0329479
0.0342992
0.0357879
0.0374225
0.0392087
0.0411513
0.0432543
0.0455216
0.0479541
0.05055
0.0533036
0.0562057
0.0592421
0.062394
0.0656369
0.0689401
0.0722669
0.0755743
0.078813
0.0819286
0.084862
0.0875514
0.0899339
0.0919479
0.0935352
0.0946453
0.0952361
0.0952787
0.0947583
0.0936745
0.0920479
0.0899063
0.0873067
0.0842969
0.0809625
0.0773579
0.0735827
0.0696837
0.0657579
0.0618338
0.057991
0.0542431
0.05064
0.0471935
0.0439064
0.0407748
0.0377943
0.0349462
0.0322097
0.0295515
0.0269347
0.0243045
0.0215969
0.0187196
0.0158519
0.0140484
0.0276404
0.0274729
0.0273089
0.0271476
0.0269895
0.026834
0.0266816
0.0265316
0.0263846
0.0262399
0.0260979
0.0259582
0.025821
0.0256859
0.0255533
0.0254226
0.0252944
0.0251681
0.025044
0.024922
0.0248021
0.0246844
0.0245689
0.0244556
0.0243448
0.0242364
0.0241308
0.0240279
0.0239284
0.0238321
0.0237398
0.0236514
0.0235679
0.0234892
0.0234164
0.0233497
0.0232902
0.0232384
0.0231955
0.0231623
0.0231402
0.0231302
0.0231341
0.0231534
0.0231899
0.0232457
0.023323
0.0234239
0.0235499
0.0237029
0.0238853
0.0241009
0.024354
0.0246496
0.0249924
0.0253881
0.0258423
0.0263612
0.0269511
0.0276192
0.0283726
0.0292193
0.030167
0.0312238
0.0323982
0.0336984
0.0351322
0.0367059
0.0384251
0.0402948
0.0423205
0.044507
0.0468566
0.0493677
0.052036
0.0548537
0.0578084
0.0608834
0.0640567
0.0673001
0.0705801
0.0738566
0.0770834
0.0802093
0.083178
0.0859302
0.0884047
0.0905411
0.0922813
0.0935739
0.0943744
0.0946506
0.0943832
0.0935661
0.0922136
0.0903467
0.0880154
0.085261
0.0821628
0.0787704
0.075179
0.0714335
0.0676279
0.0637917
0.0600027
0.0562799
0.052673
0.0491911
0.0458371
0.042608
0.0394988
0.0364889
0.0335534
0.0306529
0.0277424
0.0247568
0.0216223
0.0182514
0.0148891
0.0122328
0.0270245
0.0268774
0.0267325
0.0265887
0.0264471
0.0263066
0.0261682
0.0260311
0.0258958
0.025762
0.0256302
0.0254998
0.0253713
0.0252444
0.0251194
0.0249961
0.0248748
0.0247552
0.0246376
0.0245219
0.0244083
0.0242966
0.0241872
0.0240799
0.023975
0.0238725
0.0237727
0.0236757
0.0235819
0.0234911
0.0234044
0.0233213
0.023243
0.0231693
0.0231014
0.0230393
0.0229842
0.0229364
0.0228972
0.0228672
0.0228478
0.0228401
0.0228456
0.0228658
0.0229023
0.0229573
0.0230326
0.0231303
0.0232516
0.0233983
0.0235727
0.0237783
0.0240191
0.0242996
0.0246246
0.0249992
0.0254287
0.025919
0.026476
0.0271064
0.0278171
0.0286156
0.0295092
0.0305056
0.0316131
0.0328399
0.0341927
0.0356775
0.0372984
0.0390607
0.0409707
0.0430342
0.0452538
0.0476285
0.0501548
0.052826
0.0556312
0.0585555
0.0615791
0.0646767
0.0678172
0.0709639
0.074074
0.0770997
0.079988
0.0826828
0.0851258
0.0872589
0.0890254
0.0903743
0.0912608
0.0916511
0.0915225
0.0908657
0.0896895
0.0880099
0.0858703
0.0833068
0.0803922
0.0771719
0.0737359
0.0701267
0.066435
0.0626897
0.0589677
0.0552893
0.0517057
0.0482236
0.0448458
0.0415711
0.0383952
0.0352977
0.032252
0.0292177
0.0261479
0.0229773
0.0196377
0.0160699
0.0125281
0.00963459
0.0264463
0.0263154
0.0261853
0.0260556
0.0259271
0.0257992
0.0256725
0.0255464
0.0254215
0.0252973
0.0251745
0.0250524
0.0249316
0.0248117
0.0246933
0.0245758
0.0244599
0.0243452
0.0242321
0.0241205
0.0240106
0.0239024
0.0237962
0.0236919
0.0235898
0.0234899
0.0233927
0.0232979
0.0232064
0.0231178
0.0230331
0.022952
0.0228755
0.0228035
0.0227371
0.0226764
0.0226225
0.0225757
0.0225372
0.0225076
0.0224882
0.02248
0.0224843
0.0225027
0.0225366
0.022588
0.0226587
0.0227502
0.0228639
0.0230017
0.0231655
0.0233586
0.0235845
0.0238477
0.0241524
0.0245034
0.0249056
0.0253645
0.0258858
0.0264756
0.0271404
0.0278871
0.0287227
0.0296544
0.0306902
0.0318376
0.0331034
0.0344919
0.0360071
0.0376539
0.0394392
0.0413691
0.0434467
0.0456714
0.0480401
0.0505471
0.0531826
0.0559334
0.0587817
0.0617043
0.064673
0.0676539
0.0706074
0.0734891
0.0762495
0.0788356
0.0811925
0.0832645
0.0849972
0.0863408
0.0872508
0.0876927
0.0876421
0.0870867
0.0860316
0.0844883
0.0824952
0.0800831
0.0773195
0.0742452
0.0709458
0.0674609
0.063878
0.0602251
0.0565773
0.0529578
0.049416
0.0459569
0.0425842
0.039299
0.0360987
0.0329638
0.0298684
0.0267729
0.0236321
0.0203849
0.0169735
0.0133686
0.00978721
0.00687883
0.0258406
0.0257254
0.0256105
0.0254952
0.0253804
0.0252654
0.0251507
0.025036
0.0249216
0.0248073
0.0246934
0.0245797
0.0244666
0.0243537
0.0242416
0.02413
0.0240192
0.0239092
0.0238002
0.0236922
0.0235855
0.02348
0.023376
0.0232736
0.023173
0.0230744
0.022978
0.0228839
0.0227928
0.0227043
0.0226195
0.0225381
0.0224611
0.0223885
0.0223212
0.0222594
0.0222042
0.0221557
0.0221153
0.0220835
0.0220614
0.02205
0.0220507
0.0220646
0.0220934
0.0221387
0.0222022
0.0222852
0.022389
0.0225155
0.0226667
0.0228454
0.023055
0.0232993
0.0235825
0.0239089
0.0242829
0.0247099
0.025195
0.025744
0.0263628
0.027058
0.027836
0.0287036
0.0296681
0.0307371
0.0319162
0.0332097
0.0346203
0.0361531
0.0378153
0.0396131
0.0415498
0.0436251
0.0458362
0.0481781
0.0506421
0.0532162
0.0558845
0.0586257
0.0614138
0.064218
0.0670013
0.0697225
0.0723357
0.074791
0.0770366
0.0790197
0.0806882
0.0819942
0.0828938
0.0833525
0.0833449
0.0828567
0.0818898
0.0804523
0.0785777
0.0762926
0.0736593
0.0707149
0.06754
0.0641715
0.060694
0.0571337
0.053565
0.0500105
0.04652
0.0430978
0.0397479
0.0364744
0.0332759
0.0301351
0.027027
0.0239142
0.0207541
0.0174912
0.0140778
0.0105083
0.00693578
0.00407537
0.0252067
0.0251038
0.0250004
0.0248963
0.0247923
0.0246876
0.0245829
0.0244777
0.0243726
0.024267
0.0241615
0.0240557
0.0239499
0.0238439
0.0237382
0.0236323
0.0235269
0.0234216
0.0233169
0.0232126
0.0231091
0.0230064
0.0229047
0.0228041
0.0227049
0.0226072
0.0225114
0.0224174
0.022326
0.0222369
0.0221511
0.0220684
0.0219898
0.0219151
0.0218456
0.0217811
0.0217229
0.0216712
0.0216271
0.0215912
0.0215646
0.0215481
0.0215431
0.0215507
0.0215723
0.0216096
0.0216641
0.0217368
0.0218289
0.0219426
0.0220797
0.0222428
0.0224348
0.0226595
0.0229205
0.0232219
0.0235679
0.0239632
0.0244127
0.0249219
0.0254961
0.0261415
0.0268641
0.02767
0.0285664
0.0295599
0.0306564
0.0318587
0.0331697
0.0345941
0.036139
0.0378111
0.0396135
0.041546
0.0436061
0.0457895
0.0480884
0.0504917
0.0529851
0.0555491
0.0581599
0.0607888
0.0634018
0.0659607
0.0684223
0.0707402
0.0728655
0.0747481
0.0763386
0.0775907
0.0784616
0.0789174
0.0789319
0.0784894
0.0775892
0.0762364
0.0744606
0.0722845
0.0697659
0.0669378
0.063877
0.0606175
0.0572405
0.0537711
0.050282
0.0467971
0.0433639
0.0399863
0.0366698
0.0334205
0.0302393
0.0271105
0.0240107
0.0209047
0.017753
0.0145049
0.0111211
0.00761182
0.00405695
0.00124978
0.0245101
0.0244185
0.0243263
0.0242329
0.0241394
0.0240447
0.0239496
0.0238536
0.0237572
0.0236598
0.0235621
0.0234637
0.0233649
0.0232655
0.0231659
0.0230658
0.0229656
0.0228652
0.0227649
0.0226646
0.0225646
0.0224649
0.0223658
0.0222673
0.0221698
0.0220732
0.0219781
0.0218843
0.0217927
0.021703
0.0216161
0.0215319
0.0214513
0.0213743
0.0213019
0.0212342
0.0211723
0.0211164
0.0210677
0.0210265
0.0209943
0.0209715
0.0209596
0.0209596
0.0209728
0.0210008
0.021045
0.0211062
0.0211856
0.0212855
0.0214075
0.0215541
0.021728
0.0219327
0.0221713
0.0224479
0.022766
0.0231304
0.0235455
0.0240162
0.0245477
0.0251456
0.0258154
0.0265629
0.0273946
0.0283172
0.0293353
0.0304522
0.0316696
0.0329923
0.0344276
0.0359818
0.0376584
0.039457
0.0413754
0.0434098
0.0455529
0.0477948
0.0501223
0.0525177
0.0549588
0.0574193
0.0598677
0.0622682
0.0645807
0.0667616
0.0687651
0.0705438
0.0720505
0.0732409
0.0740738
0.0745155
0.0745397
0.0741298
0.0732827
0.0720013
0.0703113
0.0682325
0.0658176
0.063097
0.0601428
0.0569866
0.0537064
0.0503259
0.0469162
0.0435003
0.0401255
0.0367959
0.0335177
0.0302997
0.0271438
0.0240364
0.0209555
0.0178683
0.0147375
0.011517
0.00817329
0.0047261
0.00118305
-0.00158255
0.0237682
0.0236845
0.0235996
0.0235136
0.0234271
0.0233396
0.0232515
0.0231624
0.0230729
0.0229822
0.0228911
0.022799
0.0227063
0.0226128
0.0225188
0.0224239
0.0223288
0.0222329
0.0221369
0.0220405
0.021944
0.0218473
0.0217509
0.0216547
0.021559
0.0214638
0.0213697
0.0212765
0.0211849
0.0210947
0.0210069
0.0209212
0.0208387
0.0207592
0.0206839
0.0206128
0.0205469
0.0204865
0.0204327
0.020386
0.0203475
0.0203179
0.0202985
0.0202902
0.0202943
0.0203122
0.0203455
0.0203946
0.0204607
0.0205462
0.0206527
0.0207824
0.020938
0.0211224
0.0213389
0.0215908
0.0218818
0.0222161
0.0225978
0.0230316
0.0235222
0.0240748
0.0246946
0.0253869
0.0261578
0.0270133
0.0279584
0.0289949
0.0301249
0.0313529
0.032686
0.0341305
0.0356898
0.0373636
0.0391499
0.0410451
0.0430428
0.0451336
0.0473057
0.0495426
0.0518239
0.0541253
0.0564173
0.0586667
0.0608363
0.0628847
0.0647691
0.0664447
0.0678666
0.0689925
0.0697823
0.0702034
0.0702293
0.0698424
0.0690384
0.0678175
0.0662027
0.0642103
0.0618897
0.0592674
0.0564124
0.053353
0.0501648
0.0468693
0.0435366
0.0401898
0.0368741
0.0335936
0.030356
0.0271721
0.0240453
0.0209636
0.0179062
0.0148424
0.011737
0.00854739
0.00524396
0.00185089
-0.00169016
-0.00443078
0.0229517
0.0228758
0.0227989
0.0227206
0.0226417
0.0225614
0.0224803
0.0223979
0.0223147
0.0222302
0.0221449
0.0220584
0.0219712
0.0218828
0.0217937
0.0217036
0.0216128
0.0215212
0.0214291
0.0213362
0.0212431
0.0211494
0.0210556
0.0209616
0.0208678
0.0207741
0.020681
0.0205885
0.0204971
0.0204067
0.0203182
0.0202314
0.0201472
0.0200656
0.0199876
0.0199131
0.0198434
0.0197786
0.0197198
0.0196674
0.0196226
0.019586
0.0195588
0.0195419
0.0195367
0.0195443
0.0195663
0.0196031
0.0196558
0.0197267
0.0198176
0.0199304
0.0200676
0.0202319
0.0204264
0.0206542
0.0209186
0.0212236
0.0215732
0.0219715
0.0224229
0.0229324
0.0235047
0.0241447
0.024858
0.0256507
0.0265266
0.0274881
0.0285363
0.0296758
0.0309136
0.0322558
0.0337058
0.0352634
0.0369265
0.0386919
0.0405538
0.0425034
0.04453
0.0466183
0.0487493
0.0509006
0.0530446
0.0551506
0.0571836
0.0591048
0.060874
0.0624488
0.0637866
0.064847
0.0655914
0.0659879
0.0660101
0.0656402
0.0648719
0.0637044
0.0621569
0.0602439
0.0580101
0.0554802
0.0527183
0.0497514
0.046651
0.0434382
0.0401806
0.0368999
0.0336412
0.0304095
0.0272128
0.0240642
0.0209677
0.0179134
0.0148809
0.0118417
0.00876197
0.00560216
0.00233472
-0.00101484
-0.00456259
-0.00729197
0.0220847
0.0220139
0.0219417
0.0218682
0.021794
0.0217185
0.0216422
0.0215646
0.0214862
0.0214064
0.0213258
0.0212439
0.0211612
0.0210771
0.0209922
0.0209061
0.0208191
0.0207311
0.0206423
0.0205526
0.0204623
0.0203713
0.0202799
0.020188
0.020096
0.0200037
0.0199118
0.0198199
0.0197289
0.0196384
0.0195493
0.0194614
0.0193757
0.019292
0.0192115
0.019134
0.0190606
0.0189915
0.0189277
0.0188698
0.0188187
0.0187752
0.0187403
0.018715
0.0187004
0.0186978
0.0187087
0.0187332
0.0187725
0.018829
0.0189044
0.0190004
0.0191193
0.0192638
0.0194366
0.0196408
0.0198793
0.0201559
0.0204743
0.0208384
0.0212523
0.0217204
0.0222474
0.0228377
0.0234965
0.0242295
0.0250407
0.0259312
0.0269026
0.0279591
0.0291076
0.0303541
0.0317019
0.0331508
0.0346987
0.0363428
0.0380777
0.0398952
0.0417855
0.0437345
0.0457244
0.0477345
0.0497392
0.0517096
0.053613
0.055413
0.0570718
0.0585492
0.0598049
0.0608003
0.061498
0.0618673
0.0618818
0.0615235
0.060785
0.0596635
0.0581763
0.0563347
0.0541809
0.051736
0.0490615
0.0461811
0.0431644
0.0400295
0.0368439
0.0336285
0.030426
0.027242
0.0240859
0.0209724
0.0179065
0.0148795
0.0118718
0.00885649
0.00580111
0.00266818
-0.00056875
-0.0038852
-0.00744662
-0.0101769
0.021141
0.0210759
0.0210095
0.0209416
0.0208728
0.0208025
0.0207312
0.0206583
0.0205844
0.0205091
0.0204326
0.0203548
0.0202759
0.0201956
0.0201143
0.0200316
0.019948
0.0198631
0.0197773
0.0196904
0.0196027
0.019514
0.0194247
0.0193347
0.0192442
0.0191532
0.0190622
0.018971
0.0188802
0.0187896
0.0187001
0.0186113
0.0185243
0.0184387
0.0183558
0.0182754
0.0181986
0.0181254
0.018057
0.0179937
0.0179366
0.0178863
0.0178439
0.0178103
0.0177865
0.017774
0.0177738
0.0177864
0.0178126
0.017855
0.0179151
0.0179945
0.0180955
0.0182205
0.0183721
0.0185531
0.0187663
0.0190153
0.0193035
0.0196345
0.0200121
0.0204406
0.0209241
0.0214669
0.0220738
0.0227503
0.0234996
0.0243233
0.0252222
0.0262005
0.0272649
0.0284214
0.0296731
0.0310198
0.0324595
0.0339898
0.0356053
0.0372986
0.0390608
0.0408784
0.0427353
0.044612
0.0464846
0.0483261
0.0501062
0.0517901
0.0533428
0.0547259
0.0559014
0.0568322
0.0574826
0.0578229
0.0578267
0.0574763
0.0567624
0.0556825
0.0542493
0.0524746
0.0503944
0.0480306
0.0454377
0.0426412
0.0397034
0.0366454
0.0335291
0.0303755
0.0272268
0.0240894
0.0209731
0.0178946
0.0148589
0.011859
0.00887538
0.00588301
0.00284996
-0.000259157
-0.00347099
-0.00676316
-0.0103426
-0.0130818
0.0201475
0.0200856
0.0200222
0.0199573
0.0198915
0.0198242
0.019756
0.0196863
0.0196157
0.0195436
0.0194704
0.0193957
0.01932
0.0192427
0.0191644
0.0190845
0.0190036
0.0189212
0.0188379
0.0187532
0.0186676
0.0185808
0.0184932
0.0184047
0.0183155
0.0182255
0.0181353
0.0180446
0.017954
0.0178632
0.0177731
0.0176833
0.0175948
0.0175075
0.0174222
0.017339
0.0172588
0.0171816
0.0171087
0.0170402
0.0169773
0.0169205
0.0168708
0.0168291
0.0167965
0.0167742
0.0167634
0.0167643
0.0167778
0.0168064
0.0168515
0.0169148
0.0169982
0.0171041
0.017235
0.0173933
0.0175819
0.017804
0.0180627
0.0183617
0.0187042
0.0190944
0.0195362
0.0200334
0.0205906
0.0212129
0.0219036
0.0226635
0.0234935
0.0243977
0.0253826
0.0264539
0.0276148
0.0288652
0.0302027
0.0316255
0.0331285
0.0347047
0.0363459
0.0380397
0.0397708
0.0415214
0.0432689
0.0449882
0.0466508
0.048224
0.049675
0.0509672
0.0520647
0.0529321
0.053535
0.0538446
0.0538352
0.0534888
0.0527954
0.0517511
0.0503669
0.0486522
0.0466406
0.0443511
0.0418357
0.0391169
0.0362553
0.0332688
0.0302197
0.0271271
0.024031
0.020939
0.0178619
0.0148178
0.0118119
0.0088384
0.00587822
0.00290748
-0.000104981
-0.00319328
-0.00638457
-0.00965959
-0.0132601
-0.0160153
0.0190817
0.0190239
0.0189647
0.0189038
0.018842
0.0187784
0.0187138
0.0186474
0.0185799
0.0185108
0.0184404
0.0183685
0.0182953
0.0182205
0.0181445
0.0180669
0.0179882
0.0179079
0.0178265
0.0177436
0.0176596
0.0175743
0.017488
0.0174005
0.0173122
0.0172229
0.0171331
0.0170425
0.0169518
0.0168606
0.0167698
0.016679
0.0165892
0.0164999
0.0164125
0.0163265
0.016243
0.0161621
0.0160848
0.0160113
0.0159428
0.0158796
0.0158229
0.0157734
0.0157322
0.0157004
0.0156792
0.0156688
0.01567
0.0156852
0.0157158
0.0157632
0.0158295
0.0159167
0.0160272
0.0161634
0.0163279
0.0165237
0.0167538
0.0170216
0.0173302
0.0176833
0.0180847
0.018538
0.0190474
0.0196178
0.0202521
0.0209512
0.0217156
0.0225492
0.0234584
0.0244488
0.0255235
0.0266824
0.027923
0.029244
0.0306402
0.0321054
0.0336317
0.0352081
0.0368196
0.0384503
0.0400785
0.0416811
0.0432311
0.044698
0.0460507
0.0472546
0.0482759
0.0490806
0.0496358
0.0499137
0.0498889
0.0495437
0.048867
0.0478547
0.0465145
0.0448563
0.0429078
0.0406896
0.0382465
0.0356036
0.0328138
0.0298987
0.0269137
0.0238792
0.0208337
0.0177861
0.0147476
0.0117376
0.00876122
0.00581396
0.00287658
-7.32567e-05
-0.00306669
-0.00613641
-0.00931098
-0.0125743
-0.0161972
-0.0189722
0.0179685
0.0179127
0.0178552
0.0177962
0.0177362
0.0176746
0.0176119
0.0175476
0.0174822
0.0174151
0.0173469
0.017277
0.0172058
0.0171329
0.0170587
0.0169829
0.0169057
0.0168269
0.0167468
0.0166652
0.0165823
0.016498
0.0164125
0.0163257
0.0162379
0.0161489
0.0160592
0.0159686
0.0158775
0.0157857
0.015694
0.0156019
0.0155105
0.0154193
0.0153294
0.0152406
0.0151538
0.0150691
0.0149874
0.0149091
0.014835
0.0147657
0.0147021
0.014645
0.0145954
0.0145545
0.0145233
0.0145019
0.0144911
0.0144932
0.0145097
0.0145417
0.0145911
0.0146601
0.0147507
0.0148653
0.0150062
0.0151763
0.0153786
0.015616
0.0158914
0.0162086
0.0165709
0.0169817
0.017445
0.0179653
0.0185457
0.0191861
0.0198877
0.0206538
0.0214908
0.0224038
0.0233964
0.0244679
0.0256165
0.0268403
0.0281352
0.0294946
0.030912
0.0323764
0.0338744
0.0353907
0.0369053
0.0383964
0.0398389
0.0412037
0.0424619
0.0435805
0.0445275
0.0452705
0.045778
0.046023
0.0459808
0.0456337
0.0449702
0.0439851
0.0426848
0.0410771
0.0391877
0.0370348
0.0346606
0.032088
0.0293679
0.0265191
0.0235972
0.0206197
0.017624
0.0146199
0.0116196
0.00864325
0.00569626
0.00277488
-0.000140001
-0.00306973
-0.00604515
-0.00909822
-0.0122589
-0.0155147
-0.0191608
-0.0219594
0.0167874
0.0167346
0.0166801
0.0166238
0.0165665
0.0165074
0.016447
0.0163849
0.0163215
0.0162564
0.0161899
0.0161217
0.016052
0.0159807
0.0159079
0.0158334
0.0157574
0.0156798
0.0156007
0.01552
0.0154379
0.0153542
0.0152693
0.0151828
0.0150951
0.0150061
0.0149162
0.0148251
0.0147335
0.0146408
0.0145479
0.0144544
0.0143612
0.0142679
0.0141755
0.0140838
0.0139938
0.0139052
0.0138193
0.013736
0.0136565
0.0135811
0.0135108
0.0134463
0.0133885
0.0133386
0.0132976
0.0132656
0.0132431
0.0132326
0.0132352
0.0132521
0.0132851
0.0133361
0.0134073
0.0135007
0.0136185
0.0137635
0.0139385
0.0141463
0.0143895
0.0146716
0.014996
0.0153656
0.0157841
0.0162562
0.0167841
0.0173686
0.0180096
0.0187109
0.0194786
0.0203176
0.0212315
0.0222196
0.0232799
0.0244111
0.0256091
0.0268675
0.0281807
0.0295382
0.0309273
0.0323342
0.0337398
0.0351238
0.0364627
0.0377289
0.0388955
0.039931
0.0408053
0.0414873
0.0419469
0.0421582
0.0420968
0.0417457
0.0410921
0.0401314
0.0388666
0.0373065
0.0354715
0.0333813
0.0310715
0.0285678
0.0259134
0.0231312
0.020269
0.0173466
0.0143992
0.011438
0.00847543
0.00553293
0.00261529
-0.00028
-0.0031725
-0.00608228
-0.00904046
-0.0120781
-0.0152272
-0.0184785
-0.0221476
-0.0249712
0.0155607
0.0155089
0.0154552
0.0153999
0.0153435
0.0152854
0.0152261
0.0151651
0.0151029
0.015039
0.0149737
0.0149066
0.0148381
0.0147678
0.014696
0.0146223
0.0145472
0.0144702
0.0143918
0.0143115
0.0142298
0.0141464
0.0140615
0.013975
0.0138872
0.0137979
0.0137075
0.0136156
0.013523
0.0134292
0.0133349
0.0132396
0.0131444
0.0130488
0.0129537
0.0128589
0.0127654
0.012673
0.0125826
0.0124944
0.0124095
0.0123281
0.0122511
0.0121793
0.0121135
0.0120548
0.0120043
0.0119618
0.011928
0.011905
0.0118942
0.0118963
0.0119132
0.0119467
0.0119987
0.0120713
0.0121665
0.012287
0.0124353
0.012614
0.0128258
0.0130738
0.0133611
0.0136906
0.0140658
0.0144909
0.0149686
0.0154986
0.0160813
0.0167204
0.0174212
0.0181892
0.0190273
0.0199355
0.0209111
0.0219537
0.0230587
0.0242207
0.025434
0.0266893
0.0279743
0.0292765
0.0305776
0.0318589
0.0330981
0.0342695
0.0353474
0.0363023
0.0371054
0.0377274
0.0381391
0.0383158
0.0382337
0.0378758
0.0372294
0.0362888
0.0350561
0.0335384
0.0317542
0.0297214
0.0274732
0.0250333
0.0224431
0.0197227
0.0169201
0.0140515
0.0111517
0.0082328
0.00530794
0.0023991
-0.000488981
-0.00335821
-0.00622821
-0.0091183
-0.0120596
-0.0150829
-0.018222
-0.0214709
-0.0251629
-0.0280139
0.014272
0.0142221
0.0141703
0.0141169
0.0140621
0.0140056
0.0139477
0.013888
0.0138269
0.013764
0.0136996
0.0136333
0.0135655
0.0134959
0.0134246
0.0133515
0.0132767
0.0132001
0.0131219
0.0130418
0.0129601
0.0128765
0.0127914
0.0127045
0.0126162
0.0125261
0.0124348
0.012342
0.0122482
0.0121528
0.0120569
0.0119597
0.0118623
0.0117641
0.0116663
0.0115683
0.0114712
0.0113748
0.0112799
0.0111868
0.0110964
0.011009
0.0109254
0.0108463
0.0107726
0.0107052
0.0106453
0.0105926
0.0105477
0.0105125
0.0104884
0.010476
0.0104771
0.0104934
0.0105267
0.0105789
0.0106518
0.0107482
0.0108704
0.0110208
0.0112017
0.0114163
0.0116675
0.011958
0.012291
0.0126708
0.0130995
0.013577
0.0141034
0.014682
0.0153186
0.0160178
0.0167832
0.0176142
0.0185087
0.0194658
0.0204818
0.0215508
0.0226684
0.0238253
0.0250103
0.0262115
0.0274121
0.0285942
0.0297372
0.0308164
0.0318083
0.0326843
0.0334177
0.0339801
0.034344
0.0344854
0.0343811
0.0340147
0.0333726
0.0324496
0.0312452
0.0297675
0.02803
0.0260526
0.0238617
0.0214846
0.0189549
0.0162968
0.01355
0.0107341
0.0078809
0.0050041
0.00211688
-0.000757941
-0.00361621
-0.00645888
-0.00930612
-0.0121763
-0.0151009
-0.0181104
-0.0212408
-0.0244889
-0.0282029
-0.0310814
0.012939
0.0128895
0.012838
0.0127848
0.0127304
0.0126743
0.0126168
0.0125576
0.012497
0.0124345
0.0123706
0.0123048
0.0122374
0.012168
0.0120969
0.0120239
0.0119492
0.0118725
0.0117941
0.0117137
0.0116316
0.0115475
0.0114618
0.0113742
0.0112849
0.0111939
0.0111014
0.0110072
0.0109119
0.0108148
0.0107169
0.0106175
0.0105176
0.0104167
0.0103158
0.0102144
0.0101135
0.0100129
0.00991352
0.00981536
0.00971942
0.00962592
0.00953578
0.00944943
0.00936782
0.00929189
0.00922264
0.00915984
0.009104
0.00905693
0.00901973
0.00899312
0.00897864
0.00897793
0.00899278
0.00902493
0.00907611
0.00914881
0.00924528
0.00936784
0.00951861
0.00970058
0.00991658
0.010169
0.0104609
0.0107965
0.0111779
0.0116043
0.0120761
0.0125963
0.0131705
0.0138033
0.0144985
0.0152552
0.0160714
0.0169464
0.0178766
0.0188564
0.0198819
0.0209443
0.0220332
0.0231374
0.0242412
0.0253277
0.0263779
0.0273681
0.0282764
0.0290758
0.0297408
0.0302446
0.0305606
0.030666
0.0305381
0.030161
0.0295207
0.0286119
0.0274327
0.0259905
0.0242965
0.0223698
0.0202338
0.0179151
0.0154443
0.0128444
0.0101538
0.0073891
0.00458184
0.00174676
-0.00110269
-0.00394343
-0.00677152
-0.00958741
-0.0124115
-0.0152616
-0.0181696
-0.0211657
-0.0242883
-0.0275367
-0.0312722
-0.0341796
0.0115499
0.0115015
0.0114509
0.0113987
0.0113451
0.0112896
0.0112326
0.0111738
0.0111135
0.0110513
0.0109874
0.0109217
0.0108542
0.0107848
0.0107136
0.0106403
0.0105654
0.0104883
0.0104094
0.0103285
0.0102458
0.0101609
0.0100743
0.00998568
0.0098953
0.00980293
0.00970901
0.00961318
0.00951602
0.00941698
0.00931684
0.00921501
0.00911243
0.00900855
0.00890439
0.00879945
0.0086947
0.00858977
0.00848565
0.00838233
0.00828077
0.00818114
0.00808434
0.00799073
0.00790125
0.00781678
0.0077383
0.00766551
0.00759885
0.00753997
0.0074899
0.00744923
0.00741941
0.00740199
0.00739866
0.00741108
0.00744078
0.0074902
0.00756146
0.0076567
0.00777788
0.0079279
0.00810943
0.00832472
0.0085766
0.00886923
0.00920416
0.00958124
0.00999971
0.0104634
0.0109771
0.0115458
0.0121729
0.012858
0.0135985
0.0143943
0.0152417
0.0161355
0.0170721
0.0180434
0.0190393
0.02005
0.02106
0.0220542
0.0230142
0.0239179
0.0247448
0.0254691
0.026067
0.0265126
0.0267808
0.0268495
0.026697
0.0263074
0.0256669
0.0247698
0.023613
0.0222036
0.02055
0.0186716
0.0165874
0.0143254
0.011911
0.00936895
0.00673106
0.00401688
0.00125513
-0.00153825
-0.00434979
-0.00715597
-0.00995345
-0.0127419
-0.0155424
-0.018372
-0.0212632
-0.0242461
-0.0273614
-0.0306109
-0.0343669
-0.0373026
0.010116
0.0100674
0.0100167
0.00996422
0.00991043
0.00985481
0.00979778
0.00973885
0.00967843
0.00961605
0.00955208
0.00948606
0.00941837
0.00934855
0.00927697
0.00920322
0.00912767
0.00904992
0.00897033
0.00888852
0.00880483
0.00871894
0.00863117
0.00854121
0.00844942
0.00835549
0.00825986
0.00816216
0.00806294
0.00796165
0.00785905
0.00775453
0.00764901
0.00754193
0.00743427
0.00732556
0.00721668
0.00710728
0.00699828
0.00688967
0.00678238
0.00667654
0.00657301
0.00647212
0.00637474
0.00628175
0.00619407
0.00611136
0.00603397
0.0059634
0.00590059
0.00584601
0.00580103
0.00576711
0.00574585
0.00573879
0.00574734
0.00577384
0.00582028
0.00588868
0.00598083
0.0060995
0.00624728
0.00642624
0.00663905
0.00688958
0.00717972
0.00750822
0.0078752
0.00828374
0.00873886
0.00924524
0.00980661
0.0104223
0.0110897
0.0118089
0.0125764
0.0133872
0.0142381
0.0151215
0.0160279
0.0169482
0.0178679
0.0187727
0.0196456
0.0204655
0.0212132
0.0218643
0.0223963
0.0227846
0.0230051
0.0230367
0.0228583
0.0224545
0.0218113
0.0209231
0.0197857
0.0184056
0.0167893
0.0149553
0.0129204
0.0107115
0.00835159
0.00586422
0.00327937
0.000614316
-0.00210266
-0.00485455
-0.00762795
-0.0103994
-0.0131658
-0.0159265
-0.0187029
-0.0215116
-0.0243858
-0.0273556
-0.030464
-0.033715
-0.0374911
-0.040456
0.00863044
0.00858213
0.00853162
0.00847931
0.00842554
0.00836987
0.00831265
0.00825349
0.00819271
0.00812995
0.00806549
0.00799898
0.00793068
0.00786025
0.00778796
0.00771346
0.00763706
0.00755842
0.00747782
0.00739494
0.00731006
0.00722289
0.0071337
0.00704221
0.00694874
0.006853
0.00675541
0.00665559
0.00655409
0.00645033
0.00634506
0.00623764
0.006129
0.00601854
0.00590724
0.00579456
0.00568142
0.00556737
0.00545337
0.00533933
0.0052262
0.00511403
0.00500369
0.00489544
0.00479012
0.00468859
0.00459172
0.00449912
0.00441105
0.00432886
0.00425342
0.00418505
0.00412507
0.00407481
0.00403583
0.00400953
0.0039972
0.0040011
0.00402311
0.0040651
0.00412869
0.00421661
0.00433131
0.0044747
0.00464923
0.00485883
0.00510482
0.00538648
0.00570304
0.00605791
0.00645604
0.00690195
0.00739951
0.00794787
0.00854452
0.0091896
0.00987978
0.0106102
0.0113782
0.0121765
0.0129962
0.013829
0.0146611
0.0154792
0.0162674
0.0170055
0.017676
0.0182554
0.0187225
0.019054
0.0192268
0.0192208
0.0190156
0.0185962
0.0179487
0.0170672
0.0159468
0.0145935
0.0130118
0.01122
0.00923183
0.0070744
0.00476678
0.00233315
-0.000201652
-0.00281805
-0.00549035
-0.00820062
-0.0109356
-0.0136718
-0.0164066
-0.0191388
-0.0218905
-0.0246779
-0.0275347
-0.0304913
-0.0335931
-0.0368458
-0.0406408
-0.0436342
0.00709843
0.00704972
0.00699872
0.00694599
0.00689181
0.00683573
0.00677811
0.00671852
0.0066573
0.00659402
0.00652901
0.00646186
0.00639287
0.00632164
0.00624848
0.00617301
0.00609557
0.00601578
0.00593395
0.00584972
0.0057634
0.00567467
0.00558382
0.00549055
0.00539517
0.00529738
0.0051976
0.00509543
0.00499141
0.00488496
0.00477678
0.00466625
0.00455426
0.0044402
0.00432504
0.00420823
0.00409062
0.00397179
0.00385261
0.00373302
0.0036139
0.00349532
0.00337808
0.0032624
0.00314908
0.00303897
0.0029329
0.00283042
0.00273171
0.00263795
0.00254994
0.00246787
0.002393
0.00232656
0.00227003
0.0022247
0.00219175
0.00217332
0.00217123
0.00218721
0.00222272
0.00228041
0.00236264
0.00247115
0.00260825
0.00277766
0.00298093
0.00321634
0.00348387
0.00378646
0.0041291
0.00451624
0.00495181
0.00543491
0.00596288
0.00653617
0.00715149
0.00780412
0.00849197
0.00920805
0.00994393
0.0106921
0.0114394
0.0121736
0.0128796
0.0135384
0.0141336
0.0146429
0.0150464
0.0153218
0.0154471
0.0154032
0.0151702
0.0147337
0.0140798
0.0132027
0.0120966
0.010767
0.00921713
0.00746427
0.00552023
0.00341123
0.00115397
-0.00122838
-0.003713
-0.00628204
-0.00891039
-0.0115792
-0.0142756
-0.0169762
-0.019679
-0.0223823
-0.0251088
-0.0278744
-0.0307134
-0.0336569
-0.0367521
-0.0400066
-0.04382
-0.0468426
0.00552052
0.00547141
0.00541997
0.0053667
0.00531188
0.00525512
0.00519672
0.00513633
0.00507423
0.00501007
0.00494411
0.004876
0.00480598
0.00473369
0.0046594
0.00458276
0.00450406
0.00442295
0.0043397
0.00425397
0.00416604
0.00407559
0.00398289
0.00388765
0.00379016
0.00369012
0.00358794
0.00348322
0.00337648
0.00326713
0.00315585
0.00304201
0.00292648
0.00280865
0.00268944
0.0025683
0.00244607
0.00232227
0.00219777
0.00207246
0.00194723
0.0018221
0.00169785
0.00157465
0.00145327
0.00133452
0.00121922
0.00110683
0.000997483
0.000892177
0.000791636
0.000695945
0.000606277
0.000523757
0.000449826
0.000385647
0.000332266
0.000291787
0.000265917
0.000256223
0.000264075
0.000292033
0.000342362
0.000416656
0.000517014
0.000647227
0.000808204
0.000998923
0.00121833
0.00146995
0.00175856
0.00208849
0.00246377
0.00288341
0.00334468
0.00384823
0.0043909
0.00496806
0.00557811
0.00621437
0.00686889
0.00753484
0.00819981
0.00885229
0.00947828
0.0100597
0.0105812
0.0110218
0.0113625
0.0115824
0.0116604
0.0115781
0.0113167
0.0108618
0.0102001
0.00932543
0.00823161
0.00692365
0.00540325
0.00368719
0.00178517
-0.00027714
-0.0024859
-0.00481816
-0.00725512
-0.00977714
-0.0123615
-0.0149887
-0.0176462
-0.0203107
-0.0229808
-0.0256546
-0.0283551
-0.0310983
-0.0339193
-0.0368492
-0.0399378
-0.0431942
-0.047025
-0.0500757
0.00389421
0.00384429
0.00379202
0.00373803
0.00368251
0.0036251
0.00356606
0.003505
0.00344222
0.00337731
0.00331056