/*--------------------------------*- C++ -*----------------------------------*\
  =========                 |
  \\      /  F ield         | OpenFOAM: The Open Source CFD Toolbox
   \\    /   O peration     | Website:  https://openfoam.org
    \\  /    A nd           | Version:  6.0
     \\/     M anipulation  |
\*---------------------------------------------------------------------------*/
FoamFile
{
    version     2.0;
    format      ascii;
    class       surfaceScalarField;
    location    "12";
    object      phi;
}
// * * * * * * * * * * * * * * * * * * * * * * * * * * * * * * * * * * * * * //

dimensions      [0 3 -1 0 0 0 0];

internalField   nonuniform List<scalar> 
123526
(
-0.000106921
2.19987e-05
0.00010733
-0.000106511
2.37938e-05
-0.000106057
2.57359e-05
-0.000105577
2.78375e-05
-0.000105049
3.0112e-05
-0.000104488
3.25741e-05
-0.000103873
3.52399e-05
-0.000103219
3.81266e-05
-0.000102504
4.12521e-05
-0.000101744
4.4637e-05
-0.000100914
4.8304e-05
-0.000100032
5.22764e-05
-9.90714e-05
5.65797e-05
-9.80476e-05
6.12394e-05
-9.69301e-05
6.62871e-05
-9.57392e-05
7.17601e-05
-9.44455e-05
7.76909e-05
-9.30548e-05
8.41113e-05
-9.15409e-05
9.10731e-05
-8.99166e-05
9.86242e-05
-8.8144e-05
0.000106802
-8.62299e-05
0.000115669
-8.41491e-05
0.000125294
-8.18908e-05
0.000135714
-7.94292e-05
0.000147031
-7.67656e-05
0.0001593
-7.38509e-05
0.000172607
-7.06982e-05
0.00018705
-6.72457e-05
0.000202707
-6.35093e-05
0.000219705
-5.94221e-05
0.00023813
-5.49829e-05
0.000258121
-5.01232e-05
0.000279789
-4.4821e-05
0.000303278
-3.90523e-05
0.000328732
-3.27649e-05
0.000356275
-2.5926e-05
0.000386087
-1.84786e-05
0.00041829
-1.0366e-05
0.000453033
-1.54923e-06
0.000490463
8.01885e-06
0.000530693
1.83831e-05
0.000573808
2.95755e-05
0.000619873
4.16219e-05
0.000668882
5.45434e-05
0.000720753
6.83646e-05
0.000775301
8.31007e-05
0.000832183
9.88134e-05
0.000890845
0.000115538
0.000950443
0.000133389
0.00100975
0.000152379
0.00106709
0.000172488
0.00112027
0.000193663
0.00116649
0.00021548
0.00120234
0.000237776
0.00122326
0.000259835
0.00122337
0.000281661
0.00119319
0.000302065
0.00112315
0.000320584
0.000988311
0.000756192
0.000317294
-0.000105457
2.16487e-05
0.000105835
-0.000105079
2.34172e-05
-0.000104657
2.53296e-05
-0.000104215
2.73976e-05
-0.000103724
2.96344e-05
-0.000103203
3.20543e-05
-0.000102625
3.4673e-05
-0.000102007
3.75077e-05
-0.00010132
4.05755e-05
-0.000100584
4.38974e-05
-9.97672e-05
4.74971e-05
-9.88933e-05
5.13973e-05
-9.79279e-05
5.5624e-05
-9.68944e-05
6.02001e-05
-9.57562e-05
6.51584e-05
-9.45416e-05
7.05405e-05
-9.32168e-05
7.6375e-05
-9.17956e-05
8.26863e-05
-9.02496e-05
8.95342e-05
-8.85961e-05
9.69676e-05
-8.67993e-05
0.00010501
-8.48651e-05
0.000113732
-8.27745e-05
0.000123206
-8.05099e-05
0.000133445
-7.80571e-05
0.00014458
-7.54039e-05
0.000156643
-7.25181e-05
0.000169722
-6.93949e-05
0.000183924
-6.59925e-05
0.000199304
-6.23072e-05
0.000216016
-5.82943e-05
0.000234111
-5.39339e-05
0.000253758
-4.91734e-05
0.000275039
-4.39857e-05
0.000298108
-3.83486e-05
0.000323112
-3.22114e-05
0.000350151
-2.55447e-05
0.000379431
-1.82936e-05
0.000411053
-1.04044e-05
0.000445159
-1.8377e-06
0.000481915
7.4516e-06
0.000521424
1.75065e-05
0.000563774
2.83612e-05
0.000609039
4.00506e-05
0.000657212
5.26119e-05
0.000708208
6.60905e-05
0.000761833
8.05265e-05
0.000817735
9.60012e-05
0.000875343
0.000112555
0.0009338
0.000130286
0.000991881
0.000149156
0.00104796
0.000169086
0.00109994
0.000189982
0.00114511
0.000211405
0.00118022
0.000233226
0.00120073
0.000254765
0.00120083
0.000276048
0.00117105
0.000295894
0.00110216
0.000308108
0.000975189
0.00075926
0.000303485
-0.000103538
2.12935e-05
0.000103919
-0.000103161
2.30415e-05
-0.000102749
2.49323e-05
-0.000102327
2.6977e-05
-0.000101866
2.91879e-05
-0.00010139
3.15784e-05
-0.000100868
3.41634e-05
-0.00010032
3.69591e-05
-9.97124e-05
3.99809e-05
-9.9066e-05
4.32494e-05
-9.83434e-05
4.67886e-05
-9.75689e-05
5.06203e-05
-9.66994e-05
5.47703e-05
-9.57613e-05
5.92593e-05
-9.47075e-05
6.41216e-05
-9.35722e-05
6.94031e-05
-9.23109e-05
7.513e-05
-9.09452e-05
8.13194e-05
-8.94377e-05
8.80409e-05
-8.78145e-05
9.53444e-05
-8.60337e-05
0.000103241
-8.41092e-05
0.000111808
-8.20198e-05
0.000121126
-7.97532e-05
0.00013118
-7.72966e-05
0.000142131
-7.46395e-05
0.000153988
-7.17544e-05
0.000166842
-6.86349e-05
0.000180809
-6.52459e-05
0.000195919
-6.15806e-05
0.000212353
-5.76009e-05
0.000230129
-5.32846e-05
0.000249443
-4.85855e-05
0.000270351
-4.3474e-05
0.00029302
-3.79329e-05
0.000317592
-3.19122e-05
0.000344146
-2.53848e-05
0.000372918
-1.82994e-05
0.000403982
-1.06043e-05
0.00043748
-2.262e-06
0.000473589
6.77483e-06
0.000512404
1.65557e-05
0.000554009
2.71233e-05
0.000598486
3.85253e-05
0.000645822
5.0815e-05
0.000695924
6.4055e-05
0.000748595
7.82984e-05
0.000803476
9.36272e-05
0.000859994
0.000110065
0.000917307
0.000127671
0.000974214
0.000146358
0.00102917
0.000166003
0.00108015
0.000186504
0.00112455
0.000207453
0.00115909
0.000228781
0.00117944
0.000249861
0.00117959
0.000270652
0.00115047
0.000290157
0.00108265
0.00030265
0.00096306
0.000760852
0.000301829
-0.000102333
2.09123e-05
0.00010273
-0.000101928
2.26331e-05
-0.000101481
2.44967e-05
-0.000101022
2.65148e-05
-0.000100523
2.86993e-05
-0.00010001
3.10631e-05
-9.94576e-05
3.36202e-05
-9.88887e-05
3.63861e-05
-9.82723e-05
3.93738e-05
-9.76319e-05
4.26031e-05
-9.69314e-05
4.60971e-05
-9.61949e-05
4.98761e-05
-9.53791e-05
5.39645e-05
-9.45075e-05
5.83798e-05
-9.35324e-05
6.31569e-05
-9.24816e-05
6.83458e-05
-9.13102e-05
7.39694e-05
-9.00331e-05
8.00384e-05
-8.86123e-05
8.66313e-05
-8.70694e-05
9.38004e-05
-8.53615e-05
0.000101544
-8.35011e-05
0.000109949
-8.14661e-05
0.000119102
-7.92458e-05
0.000128963
-7.68272e-05
0.000139722
-7.42022e-05
0.000151368
-7.13449e-05
0.000163994
-6.8251e-05
0.000177722
-6.48882e-05
0.000192563
-6.12505e-05
0.00020872
-5.73037e-05
0.000226183
-5.3027e-05
0.000245169
-4.83735e-05
0.000265715
-4.33219e-05
0.00028799
-3.78505e-05
0.000312143
-3.19143e-05
0.000338227
-2.54874e-05
0.000366505
-1.85199e-05
0.000397029
-1.09627e-05
0.000429938
-2.77989e-06
0.000465424
6.07826e-06
0.000503565
1.56695e-05
0.000544438
2.60434e-05
0.000588135
3.72547e-05
0.000634636
4.93638e-05
0.000683842
6.24378e-05
0.000735554
7.65293e-05
0.000789413
9.17087e-05
0.000844854
0.000107978
0.000901055
0.000125365
0.000956854
0.000143754
0.00101076
0.000163009
0.00106082
0.000183036
0.00110446
0.000203487
0.00113849
0.000224331
0.00115849
0.000245018
0.00115862
0.000265396
0.00112993
0.000284699
0.00106297
0.000298666
0.000948912
0.000759059
0.000300018
-0.000102072
2.05253e-05
0.000102482
-0.000101648
2.22094e-05
-0.000101173
2.40352e-05
-0.000100672
2.60151e-05
-0.000100121
2.81616e-05
-9.95462e-05
3.04881e-05
-9.89228e-05
3.30088e-05
-9.8277e-05
3.5739e-05
-9.75809e-05
3.86906e-05
-9.68626e-05
4.18825e-05
-9.60886e-05
4.53376e-05
-9.52896e-05
4.90738e-05
-9.44226e-05
5.3114e-05
-9.35181e-05
5.74715e-05
-9.25244e-05
6.2181e-05
-9.14767e-05
6.72948e-05
-9.03222e-05
7.2832e-05
-8.90814e-05
7.87953e-05
-8.7707e-05
8.52721e-05
-8.62233e-05
9.23158e-05
-8.45792e-05
9.9913e-05
-8.27881e-05
0.000108159
-8.08217e-05
0.000117147
-7.86699e-05
0.000126814
-7.6316e-05
0.000137379
-7.37525e-05
0.000148811
-7.09528e-05
0.000161204
-6.79131e-05
0.000174691
-6.46021e-05
0.000189261
-6.10148e-05
0.000205139
-5.71186e-05
0.000222288
-5.28923e-05
0.000240949
-4.82969e-05
0.000261133
-4.3304e-05
0.000283024
-3.79012e-05
0.000306762
-3.20412e-05
0.000332383
-2.56995e-05
0.000360178
-1.88279e-05
0.000390172
-1.13785e-05
0.000422504
-3.31672e-06
0.000457377
5.40871e-06
0.000494854
1.48604e-05
0.000535
2.50912e-05
0.000577917
3.61576e-05
0.000623581
4.81195e-05
0.000671888
6.10409e-05
0.00072264
7.49671e-05
0.000775484
8.99542e-05
0.000829869
0.000105988
0.000885001
0.000123074
0.00093976
0.000141087
0.000992719
0.0001599
0.00104196
0.000179439
0.00108498
0.000199404
0.00111852
0.000219802
0.00113829
0.000240142
0.00113832
0.00026019
0.00111024
0.000279274
0.00104405
0.000293827
0.000934851
0.000756525
0.000297236
-0.000102054
2.01508e-05
0.000102444
-0.000101643
2.1795e-05
-0.000101175
2.35779e-05
-0.000100674
2.55121e-05
-0.000100113
2.76108e-05
-9.9516e-05
2.98882e-05
-9.88574e-05
3.23595e-05
-9.81631e-05
3.50405e-05
-9.74061e-05
3.79429e-05
-9.66159e-05
4.10861e-05
-9.57625e-05
4.44935e-05
-9.48785e-05
4.81817e-05
-9.39267e-05
5.21727e-05
-9.29397e-05
5.64758e-05
-9.18729e-05
6.11253e-05
-9.07612e-05
6.61755e-05
-8.95587e-05
7.16408e-05
-8.82839e-05
7.75153e-05
-8.68941e-05
8.38936e-05
-8.54103e-05
9.08295e-05
-8.37828e-05
9.82967e-05
-8.20217e-05
0.000106398
-8.0097e-05
0.000115233
-7.7996e-05
0.000124716
-7.56992e-05
0.000135093
-7.31974e-05
0.000146314
-7.04614e-05
0.000158478
-6.74867e-05
0.000171724
-6.42406e-05
0.000186023
-6.07179e-05
0.000201624
-5.68861e-05
0.000218459
-5.2727e-05
0.000236794
-4.81961e-05
0.000256622
-4.32765e-05
0.000278126
-3.79483e-05
0.000301456
-3.21691e-05
0.000326619
-2.59142e-05
0.000353936
-1.91362e-05
0.000383407
-1.1788e-05
0.00041517
-3.83551e-06
0.000449441
4.77243e-06
0.000486264
1.40996e-05
0.000525692
2.41996e-05
0.000567839
3.51268e-05
0.00061268
4.69381e-05
0.000660107
5.96912e-05
0.000709926
7.34231e-05
0.000761792
8.81774e-05
0.000815171
0.000103929
0.000869299
0.000120674
0.000923088
0.000138288
0.00097515
0.000156662
0.00102362
0.000175737
0.00106596
0.000195269
0.001099
0.00021527
0.00111835
0.00023531
0.00111824
0.000255082
0.00109051
0.000273897
0.00102514
0.0002887
0.000920105
0.000750788
0.000294375
-0.000101738
1.98004e-05
0.000102107
-0.000101353
2.14083e-05
-0.000100914
2.31506e-05
-0.000100443
2.50397e-05
-9.99106e-05
2.70892e-05
-9.93377e-05
2.93137e-05
-9.86975e-05
3.17289e-05
-9.80112e-05
3.43518e-05
-9.72518e-05
3.7194e-05
-9.64453e-05
4.02761e-05
-9.55625e-05
4.36229e-05
-9.4636e-05
4.72508e-05
-9.36308e-05
5.11817e-05
-9.25819e-05
5.54222e-05
-9.14479e-05
6.00068e-05
-9.02689e-05
6.49921e-05
-8.90009e-05
7.03879e-05
-8.7669e-05
7.61799e-05
-8.62308e-05
8.2469e-05
-8.47125e-05
8.93088e-05
-8.30634e-05
9.66595e-05
-8.12963e-05
0.00010463
-7.93794e-05
0.000113327
-7.73003e-05
0.000122638
-7.50371e-05
0.00013284
-7.25791e-05
0.000143861
-6.98953e-05
0.000155803
-6.69789e-05
0.000168815
-6.37961e-05
0.000182848
-6.03402e-05
0.000198174
-5.65782e-05
0.000214699
-5.24893e-05
0.000232712
-4.80367e-05
0.000252182
-4.31931e-05
0.000273309
-3.79484e-05
0.000296232
-3.22567e-05
0.000320942
-2.60941e-05
0.000347786
-1.94137e-05
0.000376739
-1.21692e-05
0.000407938
-4.32634e-06
0.000441611
4.16509e-06
0.000477786
1.33672e-05
0.000516502
2.3332e-05
0.000557885
3.41111e-05
0.00060191
4.57566e-05
0.000648467
5.83204e-05
0.000697368
7.1832e-05
0.000748277
8.63265e-05
0.000800678
0.000101773
0.000853834
0.000118167
0.000906691
0.000135391
0.000957898
0.000153355
0.00100561
0.000172021
0.00104734
0.000191179
0.00107985
0.000210848
0.00109887
0.000230625
0.00109852
0.000250169
0.00107129
0.000268699
0.00100676
0.000283896
0.000905362
0.000743598
0.000291862
-0.000101046
1.94686e-05
0.00010139
-0.000100687
2.10449e-05
-0.000100279
2.27514e-05
-9.98433e-05
2.46e-05
-9.93501e-05
2.66041e-05
-9.88183e-05
2.87781e-05
-9.822e-05
3.1138e-05
-9.75742e-05
3.37011e-05
-9.68514e-05
3.6479e-05
-9.60749e-05
3.9493e-05
-9.52139e-05
4.27698e-05
-9.42976e-05
4.63262e-05
-9.32915e-05
5.01847e-05
-9.22284e-05
5.43504e-05
-9.10705e-05
5.88586e-05
-8.98559e-05
6.37697e-05
-8.85474e-05
6.90896e-05
-8.71695e-05
7.47961e-05
-8.56869e-05
8.09968e-05
-8.41263e-05
8.77448e-05
-8.24429e-05
9.49864e-05
-8.06504e-05
0.000102837
-7.87197e-05
0.000111406
-7.66391e-05
0.000120559
-7.43872e-05
0.000130598
-7.19529e-05
0.000141431
-6.93038e-05
0.000153163
-6.64322e-05
0.000165951
-6.33026e-05
0.000179726
-5.99069e-05
0.000194785
-5.62111e-05
0.000211006
-5.21961e-05
0.0002287
-4.7817e-05
0.000247823
-4.30578e-05
0.00026857
-3.78991e-05
0.000291094
-3.22994e-05
0.000315356
-2.6234e-05
0.000341731
-1.96563e-05
0.000370173
-1.25203e-05
0.000400815
-4.79164e-06
0.000433896
3.57854e-06
0.000469431
1.26492e-05
0.000507449
2.24692e-05
0.000548086
3.30872e-05
0.000591317
4.45511e-05
0.000637034
5.69075e-05
0.000685051
7.01814e-05
0.000735046
8.44021e-05
0.000786518
9.95395e-05
0.000838754
0.00011559
0.000890725
0.000132452
0.000941102
0.000150052
0.00098807
0.000168364
0.00102912
0.000187215
0.00106107
0.000206603
0.00107959
0.000226155
0.001079
0.000245497
0.00105205
0.000263771
0.000988483
0.000279522
0.000889743
0.000733626
0.000289564
-0.000100074
1.91529e-05
0.000100408
-9.97318e-05
2.07015e-05
-9.93458e-05
2.23769e-05
-9.89369e-05
2.41903e-05
-9.84766e-05
2.61546e-05
-9.79835e-05
2.82837e-05
-9.74293e-05
3.05933e-05
-9.6831e-05
3.31006e-05
-9.61583e-05
3.58165e-05
-9.54315e-05
3.87629e-05
-9.46178e-05
4.19677e-05
-9.37439e-05
4.5448e-05
-9.2773e-05
4.92272e-05
-9.17363e-05
5.3309e-05
-9.05936e-05
5.77306e-05
-8.93849e-05
6.25563e-05
-8.80707e-05
6.77896e-05
-8.66797e-05
7.34013e-05
-8.51764e-05
7.95063e-05
-8.35921e-05
8.61577e-05
-8.18834e-05
9.3289e-05
-8.00684e-05
0.00010102
-7.81199e-05
0.000109468
-7.60293e-05
0.000118469
-7.37764e-05
0.000128354
-7.13515e-05
0.00013901
-6.87228e-05
0.000150542
-6.58821e-05
0.000163117
-6.27938e-05
0.000176645
-5.94489e-05
0.000191446
-5.5813e-05
0.000207371
-5.18631e-05
0.000224757
-4.75618e-05
0.000243534
-4.28811e-05
0.000263914
-3.78106e-05
0.000286042
-3.23046e-05
0.000309863
-2.63391e-05
0.000335776
-1.98678e-05
0.000363712
-1.28447e-05
0.000393803
-5.2356e-06
0.000426298
3.00706e-06
0.000461199
1.19382e-05
0.000498527
2.16035e-05
0.000538429
3.20484e-05
0.000580879
4.33177e-05
0.000625768
5.54545e-05
0.000672916
6.84807e-05
0.000722013
8.24243e-05
0.000772571
9.72581e-05
0.000823897
0.000112985
0.000874987
0.000129516
0.000924533
0.000146796
0.000970734
0.000164811
0.00101112
0.000183404
0.00104247
0.000202561
0.00106056
0.00022191
0.00105969
0.000241072
0.00103313
0.000259125
0.000970532
0.000275416
0.000873826
0.000722542
0.000287132
-9.89316e-05
1.88452e-05
9.92519e-05
-9.86021e-05
2.03683e-05
-9.82317e-05
2.20154e-05
-9.78418e-05
2.37974e-05
-9.74052e-05
2.57263e-05
-9.69404e-05
2.78156e-05
-9.64199e-05
3.00804e-05
-9.58612e-05
3.25374e-05
-9.52333e-05
3.51964e-05
-9.45559e-05
3.80793e-05
-9.37951e-05
4.12147e-05
-9.29747e-05
4.46197e-05
-9.20566e-05
4.83182e-05
-9.10686e-05
5.23124e-05
-8.99699e-05
5.66416e-05
-8.8796e-05
6.13746e-05
-8.7509e-05
6.65126e-05
-8.61344e-05
7.20208e-05
-8.46397e-05
7.80217e-05
-8.30551e-05
8.45693e-05
-8.13413e-05
9.15851e-05
-7.95174e-05
9.91949e-05
-7.75597e-05
0.00010752
-7.5462e-05
0.000116373
-7.32067e-05
0.000126108
-7.0786e-05
0.000136593
-6.81698e-05
0.000147934
-6.53509e-05
0.000160304
-6.22942e-05
0.000173595
-5.89909e-05
0.000188148
-5.54059e-05
0.000203788
-5.15187e-05
0.000220873
-4.72833e-05
0.000239317
-4.26828e-05
0.000259333
-3.76968e-05
0.000281075
-3.22839e-05
0.000304462
-2.64191e-05
0.00032992
-2.00561e-05
0.000357358
-1.31491e-05
0.000386906
-5.66429e-06
0.000418825
2.44472e-06
0.000453105
1.12291e-05
0.00048976
2.07309e-05
0.000528947
3.09939e-05
0.000570641
4.20603e-05
0.000614731
5.39711e-05
0.000661045
6.67478e-05
0.000709279
8.04186e-05
0.000758961
9.49626e-05
0.000809413
0.000110389
0.000859649
0.000126624
0.000908371
0.000143626
0.000953799
0.000161386
0.000993452
0.000179763
0.00102417
0.000198717
0.00104172
0.000217882
0.00104059
0.000236869
0.00101426
0.000254728
0.000952709
0.000271399
0.000857302
0.000709767
0.000284285
-9.76773e-05
1.85452e-05
9.79924e-05
-9.73558e-05
2.00444e-05
-9.69958e-05
2.16652e-05
-9.66186e-05
2.34183e-05
-9.61982e-05
2.53151e-05
-9.57536e-05
2.73686e-05
-9.52585e-05
2.95934e-05
-9.47297e-05
3.20055e-05
-9.41379e-05
3.46134e-05
-9.35013e-05
3.74388e-05
-9.27868e-05
4.05105e-05
-9.20167e-05
4.38448e-05
-9.11525e-05
4.74659e-05
-9.02193e-05
5.13741e-05
-8.91749e-05
5.56104e-05
-8.80529e-05
6.02476e-05
-8.68128e-05
6.52853e-05
-8.54795e-05
7.06832e-05
-8.40184e-05
7.65722e-05
-8.24601e-05
8.30077e-05
-8.07649e-05
8.99003e-05
-7.89537e-05
9.7382e-05
-7.70038e-05
0.000105579
-7.49118e-05
0.000114281
-7.2662e-05
0.000123867
-7.02492e-05
0.000134183
-6.76456e-05
0.000145338
-6.48454e-05
0.00015751
-6.18157e-05
0.000170572
-5.85479e-05
0.000184885
-5.50083e-05
0.000200249
-5.11734e-05
0.000217044
-4.70052e-05
0.00023516
-4.2475e-05
0.000254827
-3.75714e-05
0.000276188
-3.22491e-05
0.00029915
-2.64834e-05
0.000324163
-2.02285e-05
0.000351111
-1.3439e-05
0.000380125
-6.08123e-06
0.000411476
1.88993e-06
0.000445142
1.05224e-05
0.000481135
1.98558e-05
0.00051962
2.99322e-05
0.000560569
4.07926e-05
0.000603872
5.24774e-05
0.00064936
6.50088e-05
0.000696738
7.84174e-05
0.000745546
9.26887e-05
0.000795116
0.00010784
0.00084448
0.000123809
0.000892355
0.000140565
0.000936972
0.000158103
0.000975901
0.000176288
0.00100596
0.000195059
0.00102303
0.000214044
0.00102161
0.000232856
0.000995627
0.000250526
0.000935103
0.000267353
0.000840782
0.000696709
0.000280929
-9.63555e-05
1.82494e-05
9.66612e-05
-9.60411e-05
1.97252e-05
-9.5689e-05
2.13207e-05
-9.53208e-05
2.30462e-05
-9.49114e-05
2.49129e-05
-9.448e-05
2.69332e-05
-9.40013e-05
2.91212e-05
-9.34932e-05
3.14925e-05
-9.29271e-05
3.40541e-05
-9.23218e-05
3.68271e-05
-9.16448e-05
3.98406e-05
-9.09177e-05
4.31098e-05
-9.01021e-05
4.66586e-05
-8.92214e-05
5.0485e-05
-8.82334e-05
5.46313e-05
-8.71678e-05
5.91743e-05
-8.59847e-05
6.41114e-05
-8.47046e-05
6.93972e-05
-8.32937e-05
7.51706e-05
-8.17789e-05
8.14891e-05
-8.01222e-05
8.82527e-05
-7.83425e-05
9.56005e-05
-7.64188e-05
0.000103664
-7.43484e-05
0.000112211
-7.21174e-05
0.000121644
-6.97224e-05
0.000131791
-6.71377e-05
0.000142761
-6.43597e-05
0.000154738
-6.13573e-05
0.000167575
-5.81234e-05
0.000181655
-5.46251e-05
0.000196752
-5.08424e-05
0.000213263
-4.673e-05
0.000231065
-4.22708e-05
0.000250385
-3.74442e-05
0.000271379
-3.22091e-05
0.000293925
-2.65402e-05
0.000318501
-2.03919e-05
0.000344971
-1.37194e-05
0.000373461
-6.48961e-06
0.000404257
1.34157e-06
0.000437324
9.81991e-06
0.000472672
1.89831e-05
0.000510476
2.88725e-05
0.000550703
3.95289e-05
0.000593244
5.09926e-05
0.000637934
6.3288e-05
0.000684486
7.64484e-05
0.000732445
9.04667e-05
0.000781158
0.000105367
0.000829669
0.000121096
0.0008767
0.000137633
0.000920507
0.000154969
0.000958654
0.000172977
0.00098804
0.000191568
0.00100455
0.000210371
0.00100288
0.000228995
0.000977114
0.000246468
0.000917679
0.000263238
0.000824156
0.000682967
0.000277099
-9.49849e-05
1.796e-05
9.52905e-05
-9.46745e-05
1.94131e-05
-9.43276e-05
2.09841e-05
-9.39658e-05
2.26831e-05
-9.35643e-05
2.4521e-05
-9.31429e-05
2.65101e-05
-9.2677e-05
2.86637e-05
-9.21843e-05
3.09973e-05
-9.16376e-05
3.35164e-05
-9.10556e-05
3.62417e-05
-9.0407e-05
3.92022e-05
-8.97135e-05
4.2412e-05
-8.89375e-05
4.58942e-05
-8.81018e-05
4.96445e-05
-8.71638e-05
5.37059e-05
-8.61527e-05
5.81585e-05
-8.50265e-05
6.29975e-05
-8.38053e-05
6.81718e-05
-8.24523e-05
7.38287e-05
-8.09938e-05
8.00273e-05
-7.93893e-05
8.6658e-05
-7.76576e-05
9.38669e-05
-7.57765e-05
0.000101792
-7.3744e-05
0.000110179
-7.15467e-05
0.000119455
-6.91823e-05
0.000129429
-6.6627e-05
0.000140213
-6.38788e-05
0.000151995
-6.09088e-05
0.000164611
-5.77113e-05
0.000178462
-5.42555e-05
0.000193296
-5.05198e-05
0.000209532
-4.64676e-05
0.000227023
-4.20714e-05
0.000246011
-3.73199e-05
0.000266643
-3.21686e-05
0.000288783
-2.65934e-05
0.000312933
-2.05492e-05
0.000338933
-1.39917e-05
0.000366911
-6.88863e-06
0.000397161
8.02933e-07
0.000429639
9.12757e-06
0.000464353
1.81224e-05
0.000501485
2.78284e-05
0.000540999
3.82864e-05
0.000582785
4.95379e-05
0.00062668
6.16095e-05
0.000672403
7.45376e-05
0.000719506
8.83217e-05
0.000767345
0.000102991
0.000814977
0.000118501
0.000861136
0.000134835
0.000904094
0.000151981
0.000941471
0.000169813
0.000970167
0.000188223
0.000986175
0.00020683
0.000984263
0.000225251
0.000958817
0.000242509
0.000900452
0.000259052
0.00080786
0.00066953
0.000272905
-9.35894e-05
1.7674e-05
9.38867e-05
-9.32846e-05
1.91045e-05
-9.29436e-05
2.06513e-05
-9.25878e-05
2.23242e-05
-9.21932e-05
2.41341e-05
-9.17792e-05
2.60927e-05
-9.1322e-05
2.82135e-05
-9.08403e-05
3.05111e-05
-9.0307e-05
3.29902e-05
-8.97422e-05
3.56709e-05
-8.9115e-05
3.85822e-05
-8.84476e-05
4.17371e-05
-8.77029e-05
4.51579e-05
-8.6904e-05
4.88376e-05
-8.60089e-05
5.28197e-05
-8.50452e-05
5.71874e-05
-8.39716e-05
6.19331e-05
-8.28057e-05
6.70001e-05
-8.15112e-05
7.25431e-05
-8.0111e-05
7.86234e-05
-7.85652e-05
8.5121e-05
-7.68897e-05
9.21895e-05
-7.50623e-05
9.9973e-05
-7.30799e-05
0.000108196
-7.0929e-05
0.000117312
-6.86077e-05
0.000127111
-6.60933e-05
0.000137705
-6.33848e-05
0.000149291
-6.04549e-05
0.000161686
-5.72994e-05
0.000175311
-5.38888e-05
0.000189886
-5.02056e-05
0.000205851
-4.6207e-05
0.000223041
-4.18775e-05
0.000241698
-3.71977e-05
0.000261978
-3.21279e-05
0.000283721
-2.66437e-05
0.000307454
-2.07009e-05
0.000332996
-1.4256e-05
0.000360473
-7.27735e-06
0.000390191
2.76541e-07
0.000422096
8.45025e-06
0.000456193
1.72811e-05
0.000492672
2.68097e-05
0.000531493
3.70778e-05
0.000572545
4.81279e-05
0.000615667
5.99892e-05
0.000660583
7.27009e-05
0.000706852
8.62682e-05
0.000753837
0.000100724
0.000800607
0.00011603
0.000845905
0.000132173
0.000888023
0.000149132
0.000924594
0.000166784
0.000952595
0.000185001
0.000968062
0.000203399
0.000965945
0.000221594
0.000940725
0.000238617
0.00088348
0.000254821
0.000791785
0.000656002
0.000268462
-9.21745e-05
1.73935e-05
9.24688e-05
-9.18745e-05
1.88018e-05
-9.15389e-05
2.03247e-05
-9.11889e-05
2.1972e-05
-9.08006e-05
2.37543e-05
-9.03938e-05
2.56833e-05
-8.9945e-05
2.77722e-05
-8.94724e-05
3.00353e-05
-8.89505e-05
3.24763e-05
-8.83983e-05
3.5115e-05
-8.77872e-05
3.79802e-05
-8.71388e-05
4.1084e-05
-8.6418e-05
4.44479e-05
-8.56475e-05
4.80621e-05
-8.47865e-05
5.19703e-05
-8.38625e-05
5.62585e-05
-8.28343e-05
6.09162e-05
-8.17191e-05
6.58806e-05
-8.04794e-05
7.13137e-05
-7.91376e-05
7.72781e-05
-7.76519e-05
8.36443e-05
-7.60372e-05
9.05727e-05
-7.42699e-05
9.82138e-05
-7.23458e-05
0.000106272
-7.02511e-05
0.000115225
-6.79833e-05
0.000124845
-6.55201e-05
0.000135248
-6.2861e-05
0.000146637
-5.99799e-05
0.00015881
-5.68737e-05
0.000172208
-5.35145e-05
0.000186526
-4.98835e-05
0.000202224
-4.59473e-05
0.000219114
-4.16804e-05
0.000237451
-3.70733e-05
0.000257385
-3.20836e-05
0.000278739
-2.66882e-05
0.000302064
-2.08442e-05
0.000327157
-1.4509e-05
0.000354143
-7.6516e-06
0.00038334
-2.31749e-07
0.000414682
7.79571e-06
0.00044817
1.64685e-05
0.000484002
2.58275e-05
0.000522135
3.59153e-05
0.000562455
4.67757e-05
0.000604802
5.844e-05
0.000648905
7.095e-05
0.000694329
8.43149e-05
0.000740441
9.85703e-05
0.000786325
0.000113682
0.000830735
0.000129636
0.000871984
0.000146407
0.000907768
0.000163869
0.000935081
0.000181879
0.000950063
0.000200049
0.000947746
0.000217997
0.000922859
0.000234764
0.00086672
0.000250566
0.000776182
0.000643029
0.000263878
-9.07541e-05
1.71163e-05
9.10402e-05
-9.04598e-05
1.85026e-05
-9.01298e-05
2.00018e-05
-8.97853e-05
2.16236e-05
-8.9403e-05
2.33787e-05
-8.90021e-05
2.52785e-05
-8.85597e-05
2.73359e-05
-8.80945e-05
2.95653e-05
-8.75811e-05
3.19692e-05
-8.70396e-05
3.45672e-05
-8.64412e-05
3.73885e-05
-8.58085e-05
4.04437e-05
-8.51068e-05
4.37539e-05
-8.43593e-05
4.73065e-05
-8.35264e-05
5.11457e-05
-8.26348e-05
5.53597e-05
-8.1645e-05
5.99349e-05
-8.05727e-05
6.48026e-05
-7.93819e-05
7.01314e-05
-7.80927e-05
7.5985e-05
-7.66641e-05
8.2224e-05
-7.51089e-05
8.90154e-05
-7.3403e-05
9.65158e-05
-7.15408e-05
0.00010441
-6.95077e-05
0.000113199
-6.73003e-05
0.00012264
-6.48963e-05
0.00013285
-6.22949e-05
0.00014404
-5.94706e-05
0.00015599
-5.64207e-05
0.000169161
-5.31184e-05
0.000183223
-4.95485e-05
0.000198655
-4.56716e-05
0.000215252
-4.14744e-05
0.000233269
-3.69395e-05
0.000252864
-3.20297e-05
0.000273836
-2.67222e-05
0.000296761
-2.09751e-05
0.000321414
-1.4747e-05
0.000347921
-8.00779e-06
0.000376608
-7.17691e-07
0.000407402
7.16892e-06
0.000440296
1.56902e-05
0.000475497
2.48877e-05
0.000512959
3.48051e-05
0.000552564
4.54869e-05
0.000594155
5.69663e-05
0.000637465
6.92867e-05
0.000682062
8.2461e-05
0.000727324
9.65253e-05
0.000772342
0.000111448
0.000815885
0.000127215
0.000856291
0.000143791
0.00089127
0.000161051
0.0009179
0.000178836
0.000932377
0.000196761
0.000929903
0.000214439
0.000905277
0.000230935
0.000850274
0.00024631
0.000760921
0.000630211
0.000259229
-8.93295e-05
1.68451e-05
8.96153e-05
-8.90387e-05
1.82097e-05
-8.87132e-05
1.96856e-05
-8.83736e-05
2.12825e-05
-8.79969e-05
2.30107e-05
-8.76021e-05
2.48817e-05
-8.7167e-05
2.69084e-05
-8.67091e-05
2.91048e-05
-8.62044e-05
3.14726e-05
-8.56719e-05
3.40312e-05
-8.50844e-05
3.681e-05
-8.44639e-05
3.98189e-05
-8.37775e-05
4.3078e-05
-8.30481e-05
4.65723e-05
-8.22373e-05
5.03461e-05
-8.13724e-05
5.44901e-05
-8.04142e-05
5.89876e-05
-7.93793e-05
6.37634e-05
-7.8231e-05
6.89929e-05
-7.69898e-05
7.47405e-05
-7.56139e-05
8.08567e-05
-7.41155e-05
8.75149e-05
-7.24695e-05
9.48775e-05
-7.06696e-05
0.000102609
-6.87002e-05
0.000111236
-6.65569e-05
0.000120499
-6.42169e-05
0.000130516
-6.16789e-05
0.000141506
-5.89178e-05
0.000153233
-5.59306e-05
0.000166177
-5.26917e-05
0.000179984
-4.91841e-05
0.000195151
-4.53772e-05
0.000211453
-4.12479e-05
0.000229159
-3.67886e-05
0.000248417
-3.19594e-05
0.000269013
-2.67394e-05
0.000291545
-2.10878e-05
0.000315767
-1.49643e-05
0.000341802
-8.33993e-06
0.000369988
-1.1751e-06
0.000400241
6.57613e-06
0.000432547
1.49526e-05
0.000467122
2.39967e-05
0.000503914
3.37526e-05
0.000542804
4.42657e-05
0.000583636
5.55705e-05
0.000626145
6.77112e-05
0.000669906
8.07028e-05
0.000714299
9.45814e-05
0.000758433
0.000109317
0.000801087
0.000124891
0.000840628
0.000141264
0.000874829
0.000158307
0.000900796
0.000175853
0.000914819
0.000193514
0.000912202
0.000210906
0.00088793
0.000227114
0.000834053
0.000242064
0.000746133
0.00061797
0.000254571
-8.79121e-05
1.65772e-05
8.819e-05
-8.76268e-05
1.79203e-05
-8.73069e-05
1.93731e-05
-8.69728e-05
2.09451e-05
-8.66019e-05
2.26467e-05
-8.62129e-05
2.44892e-05
-8.57836e-05
2.64853e-05
-8.53323e-05
2.86491e-05
-8.48347e-05
3.09813e-05
-8.43104e-05
3.35012e-05
-8.37324e-05
3.62385e-05
-8.31229e-05
3.92022e-05
-8.24494e-05
4.2412e-05
-8.17351e-05
4.58504e-05
-8.09428e-05
4.95618e-05
-8.00994e-05
5.36396e-05
-7.91674e-05
5.80638e-05
-7.81625e-05
6.2753e-05
-7.70501e-05
6.78886e-05
-7.58492e-05
7.35358e-05
-7.45197e-05
7.95349e-05
-7.30722e-05
8.60654e-05
-7.1482e-05
9.32947e-05
-6.97416e-05
0.000100869
-6.78347e-05
0.000109336
-6.5756e-05
0.000118422
-6.34821e-05
0.000128248
-6.10108e-05
0.000139039
-5.83168e-05
0.000150544
-5.53969e-05
0.00016326
-5.22255e-05
0.000176812
-4.87886e-05
0.000191715
-4.50493e-05
0.000207728
-4.0996e-05
0.000225119
-3.66132e-05
0.000244047
-3.18661e-05
0.000264272
-2.6734e-05
0.000286416
-2.11773e-05
0.000310213
-1.51568e-05
0.000335786
-8.6444e-06
0.000363482
-1.60089e-06
0.000393206
6.02001e-06
0.000424938
1.42577e-05
0.0004589
2.31555e-05
0.000495036
3.27578e-05
0.000533226
4.31103e-05
0.000573316
5.42483e-05
0.000615043
6.62161e-05
0.000657987
7.90304e-05
0.000701538
9.27257e-05
0.000744814
0.000107272
0.000786611
0.00012265
0.000825322
0.00013881
0.000858741
0.000155623
0.000884057
0.000172913
0.000897621
0.000190296
0.000894897
0.000207387
0.000870926
0.000223299
0.000818185
0.000237837
0.00073169
0.000605952
0.000249935
-8.65003e-05
1.63147e-05
8.67751e-05
-8.62196e-05
1.76366e-05
-8.5905e-05
1.90667e-05
-8.55765e-05
2.06142e-05
-8.52116e-05
2.22895e-05
-8.48289e-05
2.41039e-05
-8.44068e-05
2.60699e-05
-8.39624e-05
2.82015e-05
-8.34724e-05
3.04986e-05
-8.29556e-05
3.29805e-05
-8.23861e-05
3.56773e-05
-8.17856e-05
3.85971e-05
-8.11231e-05
4.17591e-05
-8.04211e-05
4.51435e-05
-7.96437e-05
4.8795e-05
-7.88182e-05
5.28093e-05
-7.79077e-05
5.71634e-05
-7.69288e-05
6.17698e-05
-7.58469e-05
6.68159e-05
-7.46817e-05
7.23673e-05
-7.33929e-05
7.82542e-05
-7.19914e-05
8.46618e-05
-7.04522e-05
9.17627e-05
-6.87673e-05
9.91833e-05
-6.69201e-05
0.000107495
-6.49042e-05
0.000116408
-6.2696e-05
0.000126045
-6.02922e-05
0.000136639
-5.76673e-05
0.000147923
-5.48176e-05
0.000160413
-5.17175e-05
0.000173711
-4.8351e-05
0.000188351
-4.4689e-05
0.000204073
-4.07101e-05
0.000221158
-3.64076e-05
0.000239756
-3.17441e-05
0.000259614
-2.67005e-05
0.000281375
-2.12383e-05
0.000304754
-1.53195e-05
0.000329871
-8.91646e-06
0.000357082
-1.99069e-06
0.000386283
5.50434e-06
0.000417445
1.36087e-05
0.000450795
2.2366e-05
0.000486276
3.1821e-05
0.000523765
4.20191e-05
0.000563109
5.29959e-05
0.000604049
6.47954e-05
0.000646169
7.74346e-05
0.000688864
9.09465e-05
0.000731268
0.000105301
0.000772193
0.000120473
0.000810058
0.00013641
0.000842727
0.00015298
0.000867418
0.000170002
0.000880571
0.000187095
0.000877755
0.000203874
0.000854166
0.000219484
0.000802547
0.000233631
0.000717671
0.000594449
0.000245342
-8.51016e-05
1.60556e-05
8.53686e-05
-8.48265e-05
1.73566e-05
-8.45174e-05
1.8764e-05
-8.41944e-05
2.02873e-05
-8.38354e-05
2.19365e-05
-8.34584e-05
2.3723e-05
-8.30421e-05
2.56591e-05
-8.26041e-05
2.77588e-05
-8.21209e-05
3.00211e-05
-8.16118e-05
3.24655e-05
-8.10507e-05
3.51222e-05
-8.04595e-05
3.79987e-05
-7.98072e-05
4.11139e-05
-7.91169e-05
4.44456e-05
-7.83533e-05
4.8039e-05
-7.75432e-05
5.19923e-05
-7.66513e-05
5.62793e-05
-7.56935e-05
6.08066e-05
-7.46375e-05
6.57675e-05
-7.35018e-05
7.12279e-05
-7.22481e-05
7.70079e-05
-7.08865e-05
8.32981e-05
-6.93928e-05
9.02759e-05
-6.77583e-05
9.75484e-05
-6.59664e-05
0.00010571
-6.40101e-05
0.000114453
-6.18653e-05
0.000123906
-5.9528e-05
0.000134306
-5.69721e-05
0.000145371
-5.41932e-05
0.000157637
-5.11655e-05
0.000170682
-4.78753e-05
0.000185061
-4.42867e-05
0.000200498
-4.0389e-05
0.000217273
-3.61675e-05
0.000235546
-3.15893e-05
0.000255041
-2.66352e-05
0.000276423
-2.12677e-05
0.000299389
-1.54497e-05
0.000324056
-9.15439e-06
0.000350792
-2.34357e-06
0.00037948
5.02918e-06
0.000410082
1.30044e-05
0.000442833
2.16259e-05
0.000477673
3.09381e-05
0.000514475
4.0986e-05
0.00055309
5.18052e-05
0.000593263
6.34385e-05
0.00063458
7.59032e-05
0.000676449
8.92296e-05
0.000718012
0.000103388