/*--------------------------------*- C++ -*----------------------------------*\
  =========                 |
  \\      /  F ield         | OpenFOAM: The Open Source CFD Toolbox
   \\    /   O peration     | Website:  https://openfoam.org
    \\  /    A nd           | Version:  6.0
     \\/     M anipulation  |
\*---------------------------------------------------------------------------*/
FoamFile
{
    version     2.0;
    format      ascii;
    class       volScalarField;
    location    "1";
    object      p;
}
// * * * * * * * * * * * * * * * * * * * * * * * * * * * * * * * * * * * * * //

dimensions      [0 2 -2 0 0 0 0];

internalField   nonuniform List<scalar> 
62000
(
0.111923
0.110444
0.108936
0.107398
0.105826
0.104218
0.102571
0.100881
0.0991459
0.097361
0.0955232
0.0936283
0.0916722
0.0896509
0.0875597
0.0853945
0.0831505
0.0808235
0.0784089
0.0759027
0.0733008
0.0706002
0.0677977
0.0648916
0.0618806
0.0587655
0.055548
0.0522321
0.0488238
0.0453322
0.0417687
0.0381481
0.0344892
0.0308139
0.0271479
0.02352
0.0199614
0.0165056
0.0131873
0.0100406
0.00709785
0.00438783
0.00193398
-0.000246723
-0.00214473
-0.00375842
-0.00509381
-0.00616371
-0.00698653
-0.00758412
-0.00798097
-0.00820103
-0.00826689
-0.00819949
-0.00801679
-0.00773555
-0.00736934
-0.00693816
-0.00643234
-0.00618869
0.115531
0.114054
0.112547
0.11101
0.109438
0.107831
0.106183
0.104494
0.102758
0.100972
0.0991336
0.0972378
0.0952807
0.0932581
0.0911655
0.0889984
0.0867521
0.0844221
0.0820036
0.0794921
0.0768834
0.0741734
0.0713587
0.0684367
0.0654051
0.0622635
0.0590123
0.0556541
0.0521932
0.0486365
0.0449934
0.0412764
0.0375017
0.0336887
0.0298605
0.0260433
0.0222659
0.0185601
0.0149588
0.0114953
0.00820187
0.00510783
0.00223816
-0.000387825
-0.00275754
-0.00486573
-0.00671442
-0.00831215
-0.00967304
-0.0108143
-0.0117558
-0.012516
-0.0131104
-0.0135516
-0.0138469
-0.0139997
-0.0140066
-0.0138679
-0.0135605
-0.0137518
0.118981
0.117508
0.116006
0.114472
0.112905
0.1113
0.109656
0.107969
0.106236
0.104452
0.102615
0.10072
0.0987631
0.09674
0.0946461
0.0924768
0.0902272
0.0878927
0.0854683
0.0829491
0.0803306
0.0776084
0.0747782
0.0718367
0.0687812
0.0656097
0.0623219
0.0589186
0.0554027
0.0517793
0.048056
0.0442428
0.0403535
0.0364053
0.0324185
0.0284169
0.0244269
0.0204782
0.016602
0.0128305
0.00919544
0.00572649
0.00244972
-0.000613627
-0.00344827
-0.00604562
-0.00840387
-0.0105274
-0.0124259
-0.0141119
-0.0156005
-0.016904
-0.0180311
-0.0189857
-0.0197633
-0.0203535
-0.0207349
-0.0208821
-0.0207954
-0.0214181
0.12232
0.120851
0.119353
0.117823
0.11626
0.114659
0.113018
0.111334
0.109603
0.107822
0.105986
0.104091
0.102134
0.10011
0.0980147
0.0958424
0.0935886
0.0912482
0.0888163
0.0862876
0.0836571
0.08092
0.0780715
0.0751078
0.0720251
0.0688208
0.0654934
0.0620424
0.0584693
0.0547774
0.0509725
0.0470627
0.0430594
0.0389773
0.0348345
0.030652
0.0264542
0.0222683
0.0181239
0.0140517
0.0100827
0.00624664
0.00257024
-0.00092368
-0.00421747
-0.00729948
-0.0101643
-0.0128122
-0.0152486
-0.0174809
-0.0195193
-0.0213696
-0.0230334
-0.0245054
-0.0257697
-0.0268013
-0.0275596
-0.0279905
-0.0281359
-0.0291881
0.125595
0.124129
0.122633
0.121106
0.119544
0.117945
0.116306
0.114623
0.112892
0.111111
0.109275
0.107379
0.10542
0.103393
0.101294
0.0991164
0.096856
0.0945075
0.0920656
0.0895246
0.0868794
0.0841245
0.0812549
0.0782658
0.075153
0.0719128
0.0685427
0.0650412
0.0614084
0.057646
0.0537579
0.0497505
0.0456328
0.0414175
0.0371201
0.0327593
0.0283571
0.0239385
0.0195312
0.0151643
0.0108679
0.00667135
0.00260185
-0.00131655
-0.00506419
-0.00862663
-0.0119951
-0.0151658
-0.0181398
-0.0209196
-0.0235101
-0.0259101
-0.0281146
-0.0301086
-0.0318639
-0.0333406
-0.0344778
-0.035191
-0.0355768
-0.0370579
0.128829
0.127363
0.125867
0.12434
0.122778
0.121179
0.119539
0.117854
0.116122
0.114339
0.1125
0.110601
0.108638
0.106606
0.1045
0.102315
0.100046
0.097687
0.0952325
0.0926766
0.0900137
0.0872382
0.0843442
0.0813266
0.0781804
0.0749012
0.0714853
0.0679303
0.0642349
0.0603995
0.0564262
0.0523196
0.0480868
0.043738
0.0392867
0.0347492
0.030145
0.025497
0.0208309
0.0161742
0.0115556
0.00700409
0.00254692
-0.00179094
-0.00598808
-0.0100276
-0.0138975
-0.01759
-0.0211022
-0.0244311
-0.0275764
-0.0305298
-0.0332787
-0.0357986
-0.0380492
-0.0399748
-0.0414935
-0.0424893
-0.0431231
-0.0450337
0.132055
0.130587
0.129088
0.127558
0.125993
0.12439
0.122746
0.121058
0.119321
0.117533
0.115688
0.113783
0.111812
0.109772
0.107657
0.105461
0.103179
0.100806
0.0983355
0.0957611
0.0930771
0.0902774
0.0873555
0.0843058
0.0811227
0.0778008
0.0743358
0.070724
0.066963
0.0630516
0.0589908
0.0547829
0.0504334
0.0459505
0.041345
0.0366314
0.0318268
0.0269517
0.0220299
0.0170869
0.0121504
0.00724842
0.00240816
-0.0023448
-0.00698759
-0.011501
-0.0158702
-0.0200837
-0.0241341
-0.0280133
-0.0317157
-0.0352254
-0.0385227
-0.041573
-0.044323
-0.0467011
-0.0486034
-0.0498819
-0.0507697
-0.0531116
0.135289
0.133815
0.132312
0.130776
0.129205
0.127596
0.125945
0.124249
0.122505
0.120708
0.118854
0.116939
0.114958
0.112906
0.110778
0.108568
0.106271
0.10388
0.10139
0.0987937
0.0960849
0.0932572
0.0903037
0.0872182
0.0839944
0.0806261
0.0771083
0.073436
0.0696059
0.0656155
0.0614641
0.0571526
0.0526845
0.0480658
0.0433055
0.0384157
0.0334111
0.0283104
0.0231349
0.0179084
0.0126571
0.00740818
0.00218837
-0.0029763
-0.00806181
-0.013047
-0.0179141
-0.0226482
-0.0272378
-0.0316693
-0.0359316
-0.0400014
-0.043851
-0.0474356
-0.0506893
-0.0535236
-0.0558125
-0.057375
-0.0585226
-0.0612992
0.13856
0.137077
0.135565
0.134019
0.132439
0.13082
0.129158
0.127452
0.125696
0.123887
0.122021
0.120092
0.118097
0.116029
0.113884
0.111656
0.109339
0.106926
0.104413
0.10179
0.0990523
0.0961925
0.0932032
0.0900778
0.0868092
0.0833905
0.0798158
0.0760793
0.0721765
0.0681035
0.0638583
0.0594402
0.0548508
0.0500946
0.0451779
0.0401111
0.0349065
0.0295804
0.0241524
0.0186442
0.0130804
0.00748713
0.0018906
-0.00368304
-0.00920879
-0.0146637
-0.0200276
-0.025282
-0.0304112
-0.0353966
-0.0402213
-0.0448542
-0.04926
-0.0533834
-0.0571448
-0.0604389
-0.0631167
-0.0649644
-0.0663764
-0.0695925
0.141868
0.140374
0.13885
0.137293
0.1357
0.134068
0.132394
0.130673
0.128903
0.127079
0.125197
0.123251
0.121238
0.119151
0.116986
0.114736
0.112395
0.109958
0.107416
0.104763
0.101993
0.0990966
0.0960674
0.0928977
0.08958
0.0861067
0.082471
0.0786661
0.0746865
0.0705271
0.0661845
0.0616565
0.0569432
0.0520465
0.0469716
0.0417262
0.0363207
0.0307692
0.025089
0.0193
0.0134252
0.00748927
0.00151791
-0.00446283
-0.0104273
-0.0163509
-0.0222111
-0.0279861
-0.0336565
-0.039198
-0.0445883
-0.0497881
-0.0547543
-0.0594206
-0.0636941
-0.0674517
-0.0705215
-0.0726565
-0.0743383
-0.0780001
0.14524
0.143731
0.142192
0.140619
0.139011
0.137362
0.135671
0.133934
0.132145
0.130303
0.128401
0.126435
0.124399
0.12229
0.1201
0.117824
0.115456
0.112988
0.110414
0.107727
0.104919
0.101982
0.0989086
0.0956903
0.092319
0.0887866
0.0850854
0.0812078
0.0771472
0.0728973
0.0684535
0.063812
0.058971
0.0539314
0.0486956
0.0432696
0.0376617
0.0318837
0.025951
0.0198813
0.013696
0.00741846
0.0010735
-0.00531305
-0.011715
-0.0181064
-0.0244627
-0.0307588
-0.0369713
-0.0430709
-0.0490295
-0.0547995
-0.0603302
-0.0655438
-0.0703335
-0.0745582
-0.0780226
-0.0804464
-0.0824025
-0.0865175
0.148677
0.147151
0.145594
0.144003
0.142376
0.140709
0.138998
0.13724
0.13543
0.133565
0.13164
0.12965
0.127589
0.125453
0.123235
0.12093
0.118529
0.116028
0.113418
0.110692
0.107843
0.104861
0.101738
0.0984668
0.0950374
0.0914413
0.0876701
0.0837152
0.0795691
0.0752244
0.0706751
0.0659161
0.0609441
0.0557578
0.0503582
0.0447491
0.0389367
0.0329307
0.0267444
0.0203935
0.0138976
0.00727872
0.000560601
-0.00623128
-0.0130704
-0.0199297
-0.0267825
-0.0336008
-0.0403576
-0.047018
-0.0535483
-0.0598927
-0.0659923
-0.0717575
-0.0770676
-0.0817635
-0.0856256
-0.0883408
-0.0905766
-0.0951538
0.152202
0.150656
0.149078
0.147465
0.145816
0.144125
0.142391
0.140608
0.138774
0.136883
0.134931
0.132913
0.130823
0.128655
0.126405
0.124066
0.12163
0.11909
0.11644
0.113671
0.110775
0.107743
0.104567
0.101238
0.0977457
0.0940812
0.0902353
0.0861984
0.0819622
0.0775182
0.072859
0.0679783
0.062871
0.0575345
0.0519676
0.0461724
0.0401529
0.0339168
0.0274751
0.0208419
0.0140346
0.00707392
-1.75199e-05
-0.00721476
-0.0144911
-0.0218185
-0.0291684
-0.0365101
-0.0438127
-0.0510363
-0.0581415
-0.0650638
-0.0717364
-0.0780579
-0.0838927
-0.089063
-0.0933257
-0.0963341
-0.0988546
-0.103904
0.155808
0.154238
0.152637
0.151
0.149326
0.14761
0.14585
0.14404
0.142178
0.140258
0.138276
0.136227
0.134104
0.131903
0.129617
0.12724
0.124764
0.122182
0.119488
0.116671
0.113725
0.110639
0.107405
0.104013
0.100454
0.0967159
0.0927904
0.0886668
0.0843358
0.0797877
0.075014
0.070007
0.0647604
0.0592695
0.0535316
0.0475468
0.0413171
0.0348482
0.0281491
0.0212317
0.0141116
0.00680807
-0.000657554
-0.00826093
-0.0159753
-0.0237718
-0.0316204
-0.0394874
-0.0473384
-0.0551285
-0.0628123
-0.0703171
-0.0775673
-0.0844495
-0.0908133
-0.0964623
-0.101129
-0.104433
-0.107244
-0.112779
0.159516
0.15792
0.156291
0.154628
0.152925
0.151181
0.149391
0.147551
0.145658
0.143705
0.14169
0.139606
0.137447
0.135207
0.132882
0.130463
0.127943
0.125315
0.122572
0.119704
0.116702
0.113558
0.110261
0.106802
0.10317
0.0993544
0.0953445
0.0911293
0.0866985
0.0820414
0.0771486
0.0720107
0.06662
0.0609705
0.0550574
0.0488792
0.0424359
0.0357311
0.0287718
0.0215678
0.014133
0.00648494
-0.00135623
-0.00936693
-0.0175205
-0.0257875
-0.0341361
-0.0425302
-0.050932
-0.0592913
-0.0675574
-0.0756484
-0.0834808
-0.0909285
-0.0978256
-0.103957
-0.10903
-0.112632
-0.11574
-0.121772
0.163322
0.161698
0.16004
0.158347
0.156614
0.154838
0.153016
0.151143
0.149216
0.147228
0.145176
0.143053
0.140855
0.138574
0.136206
0.133741
0.131174
0.128496
0.1257
0.122776
0.119715
0.116507
0.113143
0.109612
0.105904
0.102005
0.0979059
0.0935941
0.0890586
0.0842876
0.0792706
0.0739969
0.0684576
0.0626447
0.0565522
0.0501765
0.0435157
0.0365715
0.0293488
0.0218554
0.0141033
0.00610854
-0.00211019
-0.0105301
-0.0191248
-0.0278642
-0.0367153
-0.0456392
-0.054595
-0.0635274
-0.0723799
-0.081062
-0.0894813
-0.0974992
-0.104934
-0.111551
-0.117034
-0.120938
-0.124348
-0.130893
0.167248
0.165592
0.163902
0.162175
0.160409
0.158598
0.156741
0.154831
0.152865
0.150839
0.148746
0.146582
0.14434
0.142014
0.139598
0.137085
0.134465
0.131733
0.12888
0.125895
0.122771
0.119496
0.11606
0.112453
0.108662
0.104676
0.100482
0.0960691
0.0914238
0.0865338
0.0813875
0.0759731
0.0702801
0.0642993
0.0580225
0.0514449
0.0445624
0.0373748
0.0298851
0.022099
0.0140268
0.00568252
-0.00291622
-0.0117476
-0.0207856
-0.0299997
-0.0393555
-0.0488119
-0.0583245
-0.0678333
-0.0772763
-0.0865536
-0.0955647
-0.104158
-0.112135
-0.119241
-0.125137
-0.129343
-0.133064
-0.140137
0.171281
0.169591
0.167867
0.166105
0.164303
0.162455
0.16056
0.158611
0.156605
0.154537
0.152401
0.150192
0.147904
0.14553
0.143064
0.140497
0.137823
0.135033
0.132119
0.12907
0.125877
0.122531
0.119019
0.11533
0.111453
0.107374
0.103081
0.0985614
0.0938013
0.0887872
0.0835065
0.0779463
0.0720945
0.0659406
0.0594749
0.0526906
0.0455819
0.0381468
0.0303861
0.0223036
0.0139077
0.00521081
-0.00377093
-0.0130167
-0.0225008
-0.0321925
-0.0420563
-0.0520485
-0.0621219
-0.0722115
-0.0822496
-0.0921274
-0.101735
-0.110908
-0.119432
-0.127032
-0.133343
-0.137856
-0.141895
-0.149515
0.175441
0.173715
0.171953
0.170153
0.168311
0.166424
0.164487
0.162497
0.160448
0.158335
0.156153
0.153896
0.151558
0.149132
0.146611
0.143989
0.141255
0.138403
0.135424
0.132306
0.129041
0.125619
0.122025
0.118251
0.114283
0.110106
0.10571
0.101078
0.0961979
0.0910546
0.0856343
0.0799229
0.0739072
0.0675752
0.0609153
0.0539195
0.0465799
0.0388925
0.0308565
0.0224735
0.01375
0.00469696
-0.00467118
-0.0143346
-0.0242679
-0.0344403
-0.0448152
-0.0553466
-0.0659842
-0.0766585
-0.0872962
-0.0977791
-0.107989
-0.117747
-0.126822
-0.134919
-0.141648
-0.146469
-0.150835
-0.159019
0.179723
0.177957
0.176156
0.174316
0.172433
0.170504
0.168524
0.166489
0.164393
0.162233
0.160002
0.157694
0.155303
0.152822
0.150244
0.147562
0.144766
0.141848
0.1388
0.13561
0.132269
0.128766
0.125087
0.121222
0.117158
0.11288
0.108374
0.103626
0.0986202
0.0933424
0.0877772
0.0819094
0.0757245
0.0692088
0.0623498
0.0551372
0.0475617
0.0396173
0.0313013
0.0226134
0.0135582
0.00414483
-0.00561356
-0.0156983
-0.0260847
-0.0367416
-0.0476314
-0.0587062
-0.0699126
-0.0811765
-0.092419
-0.103513
-0.11433
-0.124678
-0.134309
-0.142908
-0.150057
-0.155188
-0.159891
-0.168662
0.184146
0.182339
0.180495
0.178611
0.176684
0.174709
0.172682
0.170599
0.168454
0.166243
0.16396
0.161597
0.15915
0.15661
0.153971
0.151225
0.148363
0.145375
0.142254
0.138988
0.135566
0.131978
0.12821
0.12425
0.120085
0.1157
0.11108
0.10621
0.101074
0.0956567
0.0899413
0.0839117
0.077552
0.0708476
0.0637838
0.0563491
0.0485325
0.040326
0.031725
0.0227274
0.0133358
0.00355785
-0.00659502
-0.0171052
-0.0279485
-0.0390938
-0.0505026
-0.0621248
-0.0739043
-0.0857621
-0.0976142
-0.109323
-0.120753
-0.131697
-0.141889
-0.150992
-0.158564
-0.164006
-0.169057
-0.178435
0.188694
0.186844
0.184956
0.183027
0.181054
0.179032
0.176956
0.174823
0.172627
0.170363
0.168024
0.165605
0.163098
0.160497
0.157794
0.154981
0.152049
0.148989
0.145792
0.142445
0.138939
0.135262
0.131399
0.12734
0.12307
0.118573
0.113834
0.108837
0.103566
0.0980033
0.0921323
0.0859354
0.0793957
0.0724967
0.0652227
0.0575606
0.0494974
0.0410235
0.0321324
0.02282
0.0130872
0.00293984
-0.00761214
-0.0185522
-0.0298571
-0.0414954
-0.0534279
-0.0656023
-0.0779599
-0.0904172
-0.102885
-0.115216
-0.127264
-0.138809
-0.149567
-0.159177
-0.167174
-0.172929
-0.178341
-0.188351
0.193389
0.191493
0.189558
0.187581
0.185559
0.183486
0.181359
0.179173
0.176923
0.174602
0.172206
0.169726
0.167157
0.164491
0.161721
0.158838
0.155832
0.152695
0.149418
0.145987
0.142392
0.138621
0.134661
0.130498
0.126118
0.121504
0.116641
0.111512
0.106101
0.100388
0.0943558
0.0879862
0.0812606
0.0741617
0.0666719
0.0587766
0.0504612
0.0417143
0.0325277
0.0228952
0.012816
0.00229407
-0.00866195
-0.0200369
-0.0318079
-0.043944
-0.0564047
-0.0691361
-0.0820768
-0.0951387
-0.108227
-0.121185
-0.133858
-0.146009
-0.157337
-0.167459
-0.175882
-0.18195
-0.187736
-0.198403
0.198222
0.196278
0.194294
0.192268
0.190195
0.18807
0.18589
0.183648
0.181341
0.178962
0.176505
0.173962
0.171328
0.168594
0.165754
0.162798
0.159715
0.156498
0.153137
0.149618
0.14593
0.142063
0.138
0.133729
0.129234
0.124499
0.119507
0.114242
0.108684
0.102815
0.096617
0.0900691
0.0831523
0.0758475
0.0681362
0.060002
0.0514288
0.0424032
0.0329154
0.0229572
0.0125261
0.00162437
-0.00974103
-0.021556
-0.0337986
-0.0464375
-0.059432
-0.072726
-0.0862556
-0.0999278
-0.113643
-0.127234
-0.140538
-0.153302
-0.165205
-0.175843
-0.184693
-0.191073
-0.19725
-0.208601
0.203214
0.201219
0.199184
0.197105
0.194977
0.192797
0.19056
0.18826
0.185893
0.183452
0.180931
0.178322
0.175619
0.172815
0.169901
0.166867
0.163704
0.160404
0.156954
0.153343
0.14956
0.14559
0.141421
0.137037
0.132423
0.127562
0.122437
0.117029
0.111321
0.105291
0.098921
0.0921893
0.0850753
0.0775593
0.0696205
0.0612417
0.0524046
0.0430946
0.0332996
0.02301
0.0122212
0.000933869
-0.0108465
-0.0231071
-0.0358266
-0.0489739
-0.0625074
-0.0763695
-0.0904933
-0.104782
-0.119129
-0.13336
-0.1473
-0.160683
-0.173167
-0.184322
-0.1936
-0.200289
-0.206877
-0.218939
0.208348
0.206301
0.204212
0.202079
0.199896
0.197659
0.195363
0.193003
0.190574
0.188069
0.185482
0.182805
0.180031
0.177153
0.174162
0.171049
0.167803
0.164415
0.160874
0.157168
0.153284
0.149209
0.144928
0.140427
0.13569
0.130698
0.125435
0.11988
0.114016
0.10782
0.101273
0.0943515
0.087035
0.0793016
0.0711296
0.0625001
0.0533933
0.0437927
0.0336847
0.0230576
0.0119052
0.000226337
-0.0119748
-0.024687
-0.0378893
-0.0515511
-0.0656295
-0.0800661
-0.0947903
-0.109702
-0.124687
-0.139565
-0.154149
-0.168156
-0.181226
-0.192904
-0.20261
-0.209605
-0.216625
-0.229428
0.213643
0.211541
0.209397
0.207206
0.204965
0.202669
0.200312
0.197889
0.195395
0.192823
0.190167
0.187419
0.184571
0.181616
0.178545
0.175349
0.172016
0.168537
0.164902
0.161096
0.157107
0.152923
0.148527
0.143905
0.13904
0.133913
0.128506
0.1228
0.116774
0.110407
0.103677
0.0965606
0.0890356
0.0810793
0.0726681
0.0637818
0.0543992
0.0445018
0.0340745
0.0231037
0.0115814
-0.000495106
-0.0131234
-0.0262932
-0.0399844
-0.0541666
-0.068796
-0.0838132
-0.0991439
-0.114685
-0.130314
-0.145846
-0.16108
-0.175717
-0.189378
-0.201582
-0.211715
-0.219008
-0.226487
-0.240061
0.219092
0.216934
0.214733
0.212483
0.210182
0.207824
0.205404
0.202916
0.200355
0.197714
0.194987
0.192165
0.18924
0.186205
0.183052
0.179769
0.176346
0.172773
0.16904
0.165131
0.161035
0.156738
0.152222
0.147474
0.142477
0.137209
0.131655
0.125792
0.1196
0.113056
0.106137
0.0988209
0.091082
0.0828965
0.0742403
0.0650912
0.0554265
0.0452262
0.0344732
0.0231524
0.0112538
-0.00122673
-0.0142885
-0.0279224
-0.042109
-0.0568181
-0.0720054
-0.08761
-0.103554
-0.119731
-0.136012
-0.152204
-0.168096
-0.183371
-0.197629
-0.210363
-0.220923
-0.228504
-0.236473
-0.250851
0.224716
0.222499
0.220237
0.217926
0.215561
0.213138
0.210652
0.208095
0.205464
0.202751
0.199949
0.19705
0.194046
0.190928
0.187688
0.184316
0.180799
0.177129
0.173294
0.169278
0.16507
0.160655
0.156017
0.151139
0.146005
0.140593
0.134886
0.128861
0.122498
0.115772
0.10866
0.101137
0.0931782
0.0847582
0.0758506
0.0664326
0.0564795
0.0459697
0.0348846
0.0232071
0.0109257
-0.00196559
-0.0154675
-0.0295722
-0.0442609
-0.0595037
-0.0752552
-0.0914541
-0.108018
-0.124839
-0.141776
-0.158638
-0.175193
-0.191112
-0.205974
-0.219241
-0.230227
-0.238079
-0.246577
-0.261789
0.230494
0.228216
0.225892
0.223519
0.22109
0.218601
0.216047
0.213421
0.210718
0.207931
0.205052
0.202074
0.198987
0.195783
0.192455
0.188991
0.185378
0.181607
0.177666
0.173541
0.169217
0.164681
0.159915
0.154904
0.149628
0.144067
0.138203
0.132011
0.125471
0.118558
0.111248
0.103513
0.095329
0.0866681
0.0775033
0.06781
0.0575622
0.0467366
0.0353128
0.023272
0.010601
-0.00270784
-0.0166568
-0.0312391
-0.046437
-0.0622205
-0.0785438
-0.0953441
-0.112536
-0.130007
-0.14761
-0.165148
-0.182375
-0.198946
-0.214416
-0.228223
-0.239635
-0.247735
-0.256809
-0.272888
0.236447
0.234107
0.231719
0.22928
0.226784
0.224226
0.221602
0.218903
0.216126
0.213262
0.210304
0.207243
0.204072
0.20078
0.19736
0.193799
0.190087
0.186212
0.182162
0.177923
0.17348
0.168819
0.163922
0.158772
0.153351
0.147637
0.14161
0.135247
0.128526
0.12142
0.113905
0.105954
0.0975381
0.0886307
0.0792025
0.0692277
0.0586787
0.0475306
0.0357613
0.0233504
0.0102828
-0.00345058
-0.0178537
-0.0329209
-0.048635
-0.0649665
-0.0818687
-0.099278
-0.117105
-0.135234
-0.153509
-0.171731
-0.189638
-0.206867
-0.222952
-0.237302
-0.249141
-0.257475
-0.267166
-0.284141
0.242567
0.240162
0.237709
0.235203
0.232639
0.230011
0.227314
0.224541
0.221687
0.218744
0.215705
0.212559
0.2093
0.205917
0.202402
0.198744
0.194928
0.190946
0.186785
0.182428
0.177862
0.173073
0.16804
0.162748
0.157177
0.151305
0.145111
0.138572
0.131665
0.124361
0.116637
0.108463
0.0998099
0.0906498
0.0809521
0.0706895
0.0598329
0.0483556
0.0362342
0.0234463
0.00997509
-0.0041901
-0.0190546
-0.034614
-0.0508519
-0.0677391
-0.0852279
-0.103254
-0.121723
-0.14052
-0.159475
-0.17839
-0.196984
-0.214879
-0.231587
-0.246486
-0.258756
-0.267342
-0.27766
-0.295559
0.248876
0.246404
0.243882
0.241306
0.23867
0.235968
0.233196
0.230346
0.227412
0.224387
0.221263
0.21803
0.214679
0.211202
0.20759
0.203829
0.199908
0.195815
0.191538
0.18706
0.182368
0.177446
0.172273
0.166835
0.16111
0.155075
0.148711
0.141991
0.134892
0.127386
0.119446
0.111044
0.102148
0.0927295
0.0827561
0.0721994
0.0610285
0.0492154
0.0367348
0.0235628
0.00968077
-0.00492356
-0.0202569
-0.0363162
-0.0530855
-0.0705361
-0.0886194
-0.10727
-0.12639
-0.145861
-0.165505
-0.185121
-0.20441
-0.222978
-0.240316
-0.25577
-0.268475
-0.277346
-0.288285
-0.307134
0.255352
0.252812
0.25022
0.247573
0.244864
0.242088
0.239239
0.23631
0.233295
0.230186
0.226975
0.223652
0.220209
0.216635
0.212923
0.209058
0.205027
0.200821
0.196425
0.191823
0.187001
0.181942
0.176626
0.171037
0.165154
0.158953
0.152412
0.145506
0.138211
0.130497
0.122337
0.113701
0.104557
0.0948734
0.0846182
0.073761
0.0622694
0.0501137
0.0372671
0.0237038
0.00940366
-0.00564722
-0.0214572
-0.038024
-0.0553328
-0.0733547
-0.0920408
-0.111325
-0.131104
-0.151259
-0.1716
-0.191924
-0.211918
-0.231167
-0.249142
-0.265159
-0.278308
-0.287493
-0.299051
-0.318879
0.262019
0.259408
0.256744
0.254023
0.251239
0.248385
0.245457
0.242447
0.239348
0.236153
0.232853
0.229437
0.225898
0.222225
0.218408
0.214436
0.210292
0.205969
0.201451
0.196721
0.191764
0.186565
0.181102
0.175358
0.169313
0.16294
0.156219
0.149123
0.141626
0.133699
0.125314
0.116438
0.107039
0.0970857
0.0865424
0.0753783
0.0635594
0.0510542
0.0378344
0.0238725
0.00914667
-0.00635853
-0.0226529
-0.0397353
-0.0575916
-0.0761931
-0.0954903
-0.115416
-0.135863
-0.156709
-0.177756
-0.198799
-0.219504
-0.239443
-0.258062
-0.274649
-0.288249
-0.297773
-0.309952
-0.330785
0.26887
0.266187
0.26345
0.260653
0.257792
0.25486
0.25185
0.248756
0.245571
0.242287
0.238894
0.235384
0.231745
0.227969
0.224047
0.219963
0.215704
0.21126
0.206617
0.201755
0.196661
0.191318
0.185704
0.179802
0.173589
0.167041
0.160135
0.152843
0.14514
0.136996
0.128379
0.119258
0.1096
0.0993699
0.0885325
0.0770551
0.0649021
0.0520405
0.0384405
0.0240726
0.00891352
-0.00705374
-0.0238404
-0.0414466
-0.0598587
-0.0790484
-0.0989655
-0.119541
-0.140666
-0.162213
-0.183975
-0.205744
-0.22717
-0.247807
-0.26708
-0.284244
-0.298306
-0.308191
-0.320998
-0.342865
0.275937
0.273178
0.270363
0.267486
0.264543
0.261526
0.258431
0.255248
0.251972
0.248595
0.245107
0.241497
0.237756
0.233875
0.229842
0.225644
0.221267
0.216699
0.211926
0.20693
0.201695
0.196204
0.190435
0.18437
0.177987
0.171259
0.164164
0.156672
0.148758
0.140391
0.131538
0.122167
0.112242
0.10173
0.0905923
0.078795
0.0663011
0.0530761
0.0390885
0.0243071
0.00870694
-0.00773044
-0.0250177
-0.0431559
-0.0621325
-0.0819189
-0.102465
-0.123699
-0.14551
-0.167766
-0.190253
-0.212758
-0.234914
-0.256257
-0.276191
-0.29394
-0.308473
-0.318735
-0.332179
-0.355107
0.283127
0.280293
0.277403
0.27445
0.271429
0.268333
0.265155
0.261888
0.258524
0.255056
0.251473
0.247765
0.243922
0.239934
0.235791
0.231477
0.226979
0.222285
0.217382
0.212248
0.206868
0.201227
0.195299
0.189068
0.18251
0.175598
0.168309
0.160613
0.152484
0.143888
0.134794
0.125167
0.114971
0.10417
0.0927254
0.0806017
0.0677602
0.0541647
0.0397821
0.0245797
0.00853066
-0.00838485
-0.0261809
-0.0448598
-0.0644094
-0.0848015
-0.105985
-0.127888
-0.150394
-0.17337
-0.196592
-0.21984
-0.242735
-0.264795
-0.285398
-0.303742
-0.318754
-0.329413
-0.343505
-0.367525
0.290586
0.287672
0.284699
0.281661
0.278552
0.275367
0.272097
0.268736
0.265277
0.26171
0.258026
0.254214
0.250264
0.246164
0.241905
0.237473
0.23285
0.228026
0.222987
0.217712
0.212185
0.206389
0.200299
0.193898
0.187161
0.180061
0.172575
0.16467
0.15632
0.147491
0.13815
0.128262
0.117789
0.106694
0.0949358
0.0824791
0.069283
0.0553097
0.0405246
0.0248933
0.00838731
-0.00901469
-0.0273282
-0.0465564
-0.066688
-0.0876949
-0.109525
-0.132105
-0.155317
-0.179021
-0.202987
-0.226989
-0.250632
-0.273416
-0.294698
-0.313644
-0.329144
-0.340214
-0.354968
-0.380106
0.298162
0.29517
0.292117
0.288999
0.285809
0.28254
0.279185
0.275735
0.272183
0.268521
0.264738
0.260823
0.256765
0.252554
0.24818
0.243626
0.238877
0.233922
0.228746
0.223327
0.217649
0.211695
0.20544
0.198865
0.191946
0.184654
0.176965
0.168847
0.160272
0.151205
0.141612
0.131456
0.1207
0.109304
0.0972272
0.0844307
0.070873
0.0565147
0.0413197
0.0252517
0.0082807
-0.00961608
-0.0284555
-0.0482419
-0.0689645
-0.0905954
-0.113082
-0.136349
-0.160276
-0.184719
-0.209439
-0.234204
-0.258605
-0.282123
-0.304092
-0.32365
-0.339648
-0.351143
-0.366575
-0.392865
0.306023
0.302946
0.299806
0.296598
0.293316
0.289953
0.286501
0.282952
0.2793
0.275535
0.271646
0.267622
0.263452
0.259125
0.25463
0.249951
0.245072
0.239981
0.234663
0.229097
0.223265
0.21715
0.210725
0.203973
0.196867
0.189379
0.181483
0.173147
0.164342
0.155032
0.145182
0.134754
0.123709
0.112007
0.0996032
0.0864602
0.0725339
0.0577832
0.0421705
0.0256577
0.00821335
-0.0101868
-0.029561
-0.0499147
-0.0712376
-0.0935019
-0.116654
-0.140619
-0.165269
-0.190461
-0.215945
-0.241483
-0.266651
-0.290912
-0.313577
-0.333755
-0.350259
-0.362192
-0.378317
-0.405788
0.313997
0.310838
0.307616
0.304324
0.300957
0.297506
0.293965
0.290324
0.286576
0.282711
0.278719
0.274588
0.270306
0.265862
0.261246
0.256442
0.251431
0.246203
0.240742
0.235025
0.229036
0.222757
0.216159
0.209226
0.20193
0.194241
0.186134
0.177576
0.168536
0.158977
0.148865
0.138159
0.126819
0.114803
0.102068
0.0885714
0.0742693
0.0591188
0.0430807
0.0261152
0.00818925
-0.0107229
-0.0306407
-0.0515707
-0.0735033
-0.0964106
-0.120239
-0.14491
-0.170296
-0.196246
-0.222504
-0.248825
-0.27477
-0.299784
-0.323155
-0.343962
-0.360981
-0.373366
-0.390203
-0.41889
0.322265
0.319018
0.315705
0.312322
0.30886
0.305312
0.301671
0.297928
0.294075
0.290104
0.286001
0.281756
0.277356
0.272791
0.268049
0.263113
0.257966
0.252597
0.246989
0.241118
0.234968
0.22852
0.221746
0.214628
0.207137
0.199244
0.190922
0.182136
0.172857
0.163045
0.152664
0.141675
0.130034
0.117699
0.104625
0.090768
0.0760829
0.060525
0.0440535
0.026627
0.00821081
-0.0112222
-0.0316928
-0.0532085
-0.0757604
-0.0993206
-0.123834
-0.149222
-0.175353
-0.202072
-0.229114
-0.256228
-0.28296
-0.308736
-0.332822
-0.354266
-0.371807
-0.384656
-0.402223
-0.432156
0.330708
0.327373
0.323971
0.320496
0.31694
0.313297
0.309557
0.305712
0.301756
0.297677
0.293463
0.289104
0.284585
0.279897
0.275029
0.269961
0.264676
0.259163
0.253405
0.247378
0.241064
0.234445
0.227491
0.220183
0.212495
0.204392
0.195851
0.186833
0.177309
0.167238
0.156584
0.145305
0.133358
0.120698
0.107278
0.0930538
0.0779784
0.0620054
0.0450927
0.027197
0.00828218
-0.0116804
-0.0327129
-0.0548238
-0.0780046
-0.102228
-0.127437
-0.153552
-0.180438
-0.207937
-0.235774
-0.263691
-0.29122
-0.317769
-0.342579
-0.364669
-0.382741
-0.396067
-0.414385
-0.445601
0.339368
0.335944
0.332451
0.328882
0.325232
0.321491
0.317651
0.313705
0.309642
0.305454
0.301129
0.296652
0.292013
0.2872
0.2822
0.276997
0.271571
0.26591
0.259999
0.253811
0.24733
0.240535
0.233398
0.225897
0.218006
0.209691
0.200924
0.19167
0.181896
0.171562
0.16063
0.149056
0.136795
0.123804
0.11003
0.0954325
0.0799594
0.0635636
0.0462015
0.0278281
0.00840571
-0.0120957
-0.0336995
-0.0564153
-0.0802349
-0.105131
-0.131046
-0.157899
-0.185551
-0.213839
-0.242482
-0.271212
-0.299548
-0.326878
-0.352421
-0.375167
-0.393776
-0.407591
-0.426679
-0.459211
0.348239
0.344723
0.341137
0.337474
0.333726
0.329886
0.325945
0.321893
0.317723
0.313424
0.308985
0.30439
0.299629
0.294688
0.289557
0.284217
0.278648
0.272839
0.266772
0.260421
0.253769
0.246796
0.239471
0.231774
0.223676
0.215143
0.206148
0.196653
0.186624
0.176021
0.164804
0.152929
0.14035
0.127019
0.112887
0.0979079
0.0820297
0.0652034
0.0473838
0.0285244
0.00858571
-0.0124635
-0.034648
-0.0579782
-0.0824466
-0.108026
-0.134658
-0.162259
-0.190687
-0.219776
-0.249235
-0.278789
-0.307943
-0.336066
-0.362351
-0.385761
-0.404916
-0.419231
-0.439112
-0.472999
0.357352
0.353743
0.350062
0.346301
0.342454
0.338513
0.334467
0.330309
0.326029
0.321617
0.31706
0.312344
0.307457
0.302386
0.297119
0.291637
0.285921
0.279959
0.273732
0.267215
0.260388
0.253233
0.245716
0.237819
0.22951
0.220756
0.211527
0.201786
0.191497
0.18062
0.169113
0.15693
0.144025
0.13035
0.115852
0.100484
0.0841929
0.0669281
0.0486427
0.0292884
0.00882441
-0.012782
-0.035557
-0.0595117
-0.0846392
-0.110912
-0.138271
-0.166631
-0.195847
-0.225747
-0.256032
-0.286422
-0.316403
-0.345327
-0.372364
-0.396445
-0.416153
-0.43098
-0.451674
-0.486951
0.36669
0.362985
0.359207
0.355347
0.3514
0.347354
0.343202
0.338935
0.334543
0.330015
0.325339
0.3205
0.315485
0.310282
0.304878
0.299254
0.29339
0.287272
0.280884
0.274196
0.267192
0.259851
0.252139
0.244036
0.235513
0.226532
0.217065
0.207072
0.196519
0.185362
0.173558
0.161063
0.147827
0.1338
0.118928
0.103164
0.086453
0.0687417
0.0499822
0.0301246
0.00912635
-0.0130466
-0.0364215
-0.0610107
-0.0868075
-0.113784
-0.141881
-0.171012
-0.201025
-0.231747
-0.262871
-0.294106
-0.324927
-0.354662
-0.38246
-0.407223
-0.42749
-0.442842
-0.464373
-0.50108
0.376283
0.372481
0.368603
0.364643
0.360591
0.35644
0.35218
0.347801
0.343295
0.338649
0.333851
0.328886
0.32374
0.3184
0.312855
0.307084
0.301066
0.294788
0.288234
0.281373
0.274187
0.266656
0.258744
0.250433
0.241689
0.232477
0.222768
0.212518
0.201695
0.190252
0.178147
0.165332
0.151757
0.137372
0.122121
0.105953
0.0888136
0.0706476
0.0514055
0.0310355
0.00949361
-0.0132555
-0.0372405
-0.0624744
-0.0889512
-0.116643
-0.145489
-0.1754
-0.206222
-0.237777
-0.26975
-0.301842
-0.333511
-0.364068
-0.392635
-0.418086
-0.43892
-0.454807
-0.477198
-0.515371
0.386115
0.382214
0.378235
0.374171
0.370015
0.365755
0.361385
0.356892
0.352268
0.347502
0.34258
0.337486
0.332207
0.32673
0.321042
0.315122
0.308949
0.302509
0.295786
0.288748
0.281377
0.273652
0.265537
0.257012
0.248045
0.238597
0.228639
0.218128
0.207029
0.195295
0.182882
0.169741
0.155822
0.141071
0.125432
0.108854
0.0912786
0.0726498
0.0529166
0.0320256
0.00993093
-0.0134038
-0.0380088
-0.0638975
-0.0910649
-0.119482
-0.149088
-0.179791
-0.211434
-0.243832
-0.276666
-0.309627
-0.342155
-0.373543
-0.402891
-0.429039
-0.450446
-0.46688
-0.490156
-0.529836
0.396217
0.392214
0.388132
0.383963
0.379698
0.375329
0.370845
0.366236
0.361493
0.356604
0.351554
0.346329
0.340912
0.335293
0.329458
0.323384
0.317051
0.310445
0.303548
0.296329
0.288769
0.280845
0.272523
0.26378
0.254584
0.244895
0.234684
0.223907
0.212526
0.200494
0.187768
0.174295
0.160024
0.144902
0.128868
0.111871
0.0938519
0.0747519
0.0545188
0.0330973
0.0104404
-0.01349
-0.0387251
-0.0652794
-0.0931482
-0.122302