/*--------------------------------*- C++ -*----------------------------------*\
  =========                 |
  \\      /  F ield         | OpenFOAM: The Open Source CFD Toolbox
   \\    /   O peration     | Website:  https://openfoam.org
    \\  /    A nd           | Version:  6.0
     \\/     M anipulation  |
\*---------------------------------------------------------------------------*/
FoamFile
{
    version     2.0;
    format      ascii;
    class       surfaceScalarField;
    location    "1";
    object      phi;
}
// * * * * * * * * * * * * * * * * * * * * * * * * * * * * * * * * * * * * * //

dimensions      [0 3 -1 0 0 0 0];

internalField   nonuniform List<scalar> 
123526
(
8.4622e-05
2.25676e-05
-8.42389e-05
8.50332e-05
2.43888e-05
8.54775e-05
2.6356e-05
8.5957e-05
2.84809e-05
8.64753e-05
3.07757e-05
8.70352e-05
3.32538e-05
8.76408e-05
3.59297e-05
8.82955e-05
3.88187e-05
8.9005e-05
4.19367e-05
8.97727e-05
4.53032e-05
9.06027e-05
4.89376e-05
9.15004e-05
5.28599e-05
9.24707e-05
5.70922e-05
9.35222e-05
6.16563e-05
9.46613e-05
6.65788e-05
9.5893e-05
7.18901e-05
9.72241e-05
7.76166e-05
9.86683e-05
8.3784e-05
0.000100232
9.04322e-05
0.000101921
9.75969e-05
0.000103752
0.000105306
0.000105736
0.000113606
0.000107877
0.00012254
0.000110201
0.000132138
0.00011271
0.000142461
0.000115425
0.000153545
0.000118361
0.000165439
0.000121531
0.000178197
0.000124957
0.000191858
0.000128654
0.000206482
0.000132646
0.000222105
0.000136948
0.00023878
0.000141585
0.00025654
0.000146579
0.000275422
0.000151951
0.000295448
0.000157728
0.000316624
0.00016393
0.000338947
0.000170582
0.000362382
0.000177707
0.000386865
0.000185324
0.000412295
0.000193451
0.000438515
0.000202102
0.000465305
0.000211284
0.000492362
0.000220996
0.000519281
0.000231226
0.000545531
0.000241951
0.000570424
0.000253125
0.000593084
0.000264684
0.000612407
0.000276534
0.00062702
0.000288549
0.000635236
0.000300559
0.000635013
0.000312343
0.00062392
0.00032362
0.000599138
0.000334035
0.000557547
0.000343143
0.000496002
0.000350403
0.000412203
0.000355141
0.000307665
0.000356681
0.000201757
0.00035436
-4.69423e-05
-0.000352359
0.000346954
8.30664e-05
2.21943e-05
-8.269e-05
8.34706e-05
2.39857e-05
8.39074e-05
2.59207e-05
8.43787e-05
2.80106e-05
8.48882e-05
3.02675e-05
8.54383e-05
3.27046e-05
8.60332e-05
3.53359e-05
8.66763e-05
3.81764e-05
8.73731e-05
4.1241e-05
8.8127e-05
4.45502e-05
8.89422e-05
4.81234e-05
8.98235e-05
5.19795e-05
9.07764e-05
5.61402e-05
9.18088e-05
6.06248e-05
9.29276e-05
6.54608e-05
9.41372e-05
7.06813e-05
9.54448e-05
7.63098e-05
9.68635e-05
8.2366e-05
9.83998e-05
8.88966e-05
0.00010006
9.59372e-05
0.00010186
0.000103507
0.000103809
0.000111657
0.000105915
0.000120435
0.000108199
0.000129854
0.000110667
0.000139993
0.000113337
0.000150876
0.000116224
0.000162552
0.000119342
0.000175079
0.000122713
0.000188487
0.000126349
0.000202846
0.000130276
0.000218178
0.000134507
0.000234548
0.000139068
0.000251979
0.000143979
0.00027051
0.000149262
0.000290165
0.000154942
0.000310943
0.00016104
0.00033285
0.000167578
0.000355843
0.00017458
0.000379863
0.000182064
0.00040481
0.000190049
0.00043053
0.000198546
0.000456806
0.000207563
0.000483343
0.0002171
0.000509743
0.000227145
0.000535484
0.000237673
0.000559893
0.000248643
0.00058211
0.00025999
0.000601055
0.000271623
0.000615381
0.000283418
0.000623434
0.000295208
0.000623213
0.000306777
0.000612337
0.000317849
0.000588051
0.000328075
0.000547303
0.00033702
0.000487037
0.000344151
0.000405042
0.000348814
0.000302952
0.000350271
0.000200211
0.000348061
-4.48189e-05
-0.000345189
0.000340828
8.15326e-05
2.18273e-05
-8.11625e-05
8.19301e-05
2.35894e-05
8.23596e-05
2.54927e-05
8.2823e-05
2.75482e-05
8.33238e-05
2.9768e-05
8.38646e-05
3.21647e-05
8.44495e-05
3.47522e-05
8.50817e-05
3.75451e-05
8.57666e-05
4.05571e-05
8.65076e-05
4.38101e-05
8.73088e-05
4.73232e-05
8.8175e-05
5.11143e-05
8.91115e-05
5.52047e-05
9.01261e-05
5.96113e-05
9.12257e-05
6.43622e-05
9.24144e-05
6.94936e-05
9.36994e-05
7.50256e-05
9.50937e-05
8.09727e-05
9.66036e-05
8.73875e-05
9.82355e-05
9.43061e-05
0.000100005
0.000101739
0.000101921
0.000109741
0.000103991
0.000118365
0.000106237
0.000127609
0.000108664
0.000137567
0.000111289
0.000148251
0.000114128
0.000159713
0.000117194
0.000172013
0.00012051
0.000185172
0.000124086
0.00019927
0.000127947
0.000214317
0.000132109
0.000230386
0.000136594
0.000247494
0.000141424
0.000265681
0.000146618
0.000284971
0.000152203
0.000305359
0.000158197
0.000326856
0.000164623
0.000349416
0.000171504
0.000372981
0.000178858
0.000397455
0.000186702
0.000422685
0.000195049
0.000448458
0.000203905
0.000474486
0.00021327
0.000500376
0.000223133
0.000525619
0.00023347
0.000549555
0.00024424
0.00057134
0.000255379
0.000589915
0.0002668
0.00060396
0.000278379
0.000611855
0.000289953
0.000611639
0.000301311
0.00060098
0.000312182
0.000577178
0.000322223
0.000537256
0.000331007
0.000478242
0.000338013
0.000398023
0.000342597
0.000298347
0.000343991
0.000198796
0.00034187
-4.27106e-05
-0.000338118
0.000334793
8.00274e-05
2.14665e-05
-7.96639e-05
8.04181e-05
2.31997e-05
8.08402e-05
2.50718e-05
8.12957e-05
2.70936e-05
8.1788e-05
2.92767e-05
8.23197e-05
3.16338e-05
8.28947e-05
3.41782e-05
8.35162e-05
3.69243e-05
8.41896e-05
3.98847e-05
8.4918e-05
4.30824e-05
8.57056e-05
4.65364e-05
8.65571e-05
5.02636e-05
8.74777e-05
5.42849e-05
8.8475e-05
5.86147e-05
8.95558e-05
6.32822e-05
9.07243e-05
6.83259e-05
9.19875e-05
7.37632e-05
9.3358e-05
7.96029e-05
9.48422e-05
8.59039e-05
9.64464e-05
9.27026e-05
9.81855e-05
0.0001
0.000100069
0.000107858
0.000102105
0.000116331
0.000104313
0.000125401
0.000106699
0.000135182
0.00010928
0.00014567
0.000112072
0.000156921
0.000115087
0.000168998
0.000118347
0.000181913
0.000121864
0.000195753
0.000125661
0.000210521
0.000129753
0.000226294
0.000134164
0.000243083
0.000138912
0.000260932
0.000144019
0.000279864
0.000149509
0.000299869
0.000155401
0.000320964
0.000161718
0.000343099
0.00016848
0.000366219
0.000175706
0.000390229
0.000183412
0.000414978
0.000191611
0.000440259
0.000200309
0.000465786
0.000209506
0.000491178
0.000219191
0.000515933
0.000229341
0.000539403
0.000239914
0.000560764
0.000250851
0.000578975
0.000262062
0.000592744
0.00027343
0.000600482
0.000284793
0.000600268
0.000295944
0.000589816
0.000306617
0.000566489
0.000316477
0.000527375
0.000325103
0.000469588
0.000331985
0.000391102
0.00033649
0.000293778
0.00033783
0.000197348
0.000335789
-4.077e-05
-0.000331256
0.000328854
7.85536e-05
2.1112e-05
-7.8196e-05
7.89376e-05
2.28169e-05
7.93525e-05
2.46583e-05
7.98002e-05
2.66469e-05
8.02841e-05
2.87941e-05
8.08066e-05
3.11122e-05
8.13717e-05
3.36143e-05
8.19826e-05
3.63142e-05
8.26444e-05
3.9224e-05
8.33604e-05
4.23673e-05
8.41346e-05
4.57632e-05
8.49716e-05
4.94275e-05
8.58765e-05
5.33809e-05
8.68569e-05
5.76354e-05
8.79193e-05
6.22207e-05
8.90679e-05
6.71783e-05
9.03096e-05
7.25223e-05
9.16568e-05
7.82565e-05
9.31158e-05
8.44457e-05
9.46927e-05
9.11263e-05
9.64023e-05
9.82915e-05
9.82542e-05
0.000106007
0.000100255
0.000114331
0.000102426
0.000123231
0.000104772
0.000132837
0.000107309
0.000143133
0.000110054
0.000154177
0.000113019
0.000166034
0.000116224
0.000178708
0.000119682
0.000192296
0.000123416
0.000206788
0.000127439
0.000222271
0.000131776
0.000238747
0.000136444
0.000256264
0.000141465
0.000274843
0.000146862
0.000294472
0.000152653
0.000315172
0.000158861
0.000336891
0.000165507
0.000359573
0.000172607
0.000383129
0.000180178
0.000407407
0.000188232
0.000432204
0.000196775
0.000457242
0.000205807
0.000482145
0.000215317
0.000506422
0.000225283
0.000529437
0.000235665
0.000550382
0.000246402
0.000568238
0.000257409
0.000581737
0.00026857
0.000589323
0.000279726
0.000589113
0.000290674
0.000578869
0.000301153
0.000556009
0.000310834
0.00051769
0.000319306
0.000461109
0.000326065
0.000384333
0.000330492
0.000289337
0.000331784
0.000196048
0.000329815
-3.88009e-05
-0.00032445
0.000323012
7.71112e-05
2.07637e-05
-7.67602e-05
7.74884e-05
2.24407e-05
7.7896e-05
2.42519e-05
7.83359e-05
2.62078e-05
7.88114e-05
2.83197e-05
7.93249e-05
3.05994e-05
7.98802e-05
3.30599e-05
8.04806e-05
3.57146e-05
8.11311e-05
3.85744e-05
8.18347e-05
4.16644e-05
8.25957e-05
4.50031e-05
8.34183e-05
4.86056e-05
8.43078e-05
5.24921e-05
8.52713e-05
5.66725e-05
8.63157e-05
6.11771e-05
8.74446e-05
6.605e-05
8.86652e-05
7.13024e-05
8.99895e-05
7.69328e-05
9.14237e-05
8.30121e-05
9.29739e-05
8.95768e-05
9.46544e-05
9.66116e-05
9.64749e-05
0.000104187
9.84418e-05
0.000112364
0.000100576
0.000121098
0.000102882
0.000130531
0.000105377
0.000140639
0.000108075
0.000151479
0.00011099
0.00016312
0.000114141
0.000175557
0.000117541
0.000188897
0.000121211
0.000203117
0.000125167
0.000218315
0.000129431
0.000234484
0.00013402
0.000251675
0.000138955
0.000269908
0.00014426
0.000289167
0.000149952
0.00030948
0.000156054
0.00033079
0.000162584
0.000353043
0.00016956
0.000376152
0.000176998
0.000399968
0.00018491
0.000424292
0.000193301
0.00044885
0.000202172
0.000473274
0.000211511
0.000497081
0.000221297
0.000519649
0.00023149
0.000540186
0.000242032
0.000557693
0.000252839
0.000570926
0.000263797
0.000578361
0.000274749
0.000578153
0.000285499
0.000568109
0.000295788
0.000545704
0.000305294
0.000508164
0.000313614
0.000452763
0.000320253
0.000377654
0.000324602
0.000284927
0.000325852
0.000194688
0.000323946
-3.69926e-05
-0.000317845
0.000317268
7.57007e-05
2.04215e-05
-7.53557e-05
7.60713e-05
2.20711e-05
7.64717e-05
2.38527e-05
7.69038e-05
2.57765e-05
7.7371e-05
2.78537e-05
7.78754e-05
3.00957e-05
7.84211e-05
3.25152e-05
7.90109e-05
3.51254e-05
7.96501e-05
3.79362e-05
8.03416e-05
4.09736e-05
8.10894e-05
4.42562e-05
8.18978e-05
4.7798e-05
8.2772e-05
5.16189e-05
8.3719e-05
5.57263e-05
8.47455e-05
6.01515e-05
8.58551e-05
6.49412e-05
8.70548e-05
7.01035e-05
8.83564e-05
7.5632e-05
8.97661e-05
8.16031e-05
9.12897e-05
8.80537e-05
9.29416e-05
9.49603e-05
9.4731e-05
0.000102398
9.66644e-05
0.000110431
9.87621e-05
0.000119001
0.000101029
0.000128265
0.000103481
0.000138187
0.000106134
0.000148826
0.000108999
0.000160255
0.000112097
0.00017246
0.000115439
0.000185555
0.000119048
0.00019951
0.000122937
0.000214427
0.000127127
0.000230294
0.000131639
0.000247163
0.00013649
0.000265057
0.000141704
0.000283953
0.000147298
0.000303886
0.000153294
0.000324794
0.000159711
0.000346626
0.000166566
0.000369297
0.000173873
0.00039266
0.000181645
0.000416519
0.000189887
0.000440607
0.0001986
0.000464561
0.000207771
0.000487909
0.000217381
0.00051004
0.000227389
0.000530177
0.00023774
0.000547342
0.000248351
0.000560317
0.000259109
0.000567606
0.000269863
0.000567402
0.000280417
0.000557558
0.00029052
0.000535604
0.000299855
0.000498829
0.000308025
0.00044459
0.000314546
0.000371129
0.000318817
0.000280652
0.000320029
0.000193484
0.000318182
-3.51334e-05
-0.000311275
0.000311624
7.43211e-05
2.00853e-05
-7.39826e-05
7.4685e-05
2.1708e-05
7.50783e-05
2.34604e-05
7.55027e-05
2.53527e-05
7.59616e-05
2.73957e-05
7.64572e-05
2.96007e-05
7.69934e-05
3.198e-05
7.75729e-05
3.45464e-05
7.8201e-05
3.7309e-05
7.88804e-05
4.02948e-05
7.96152e-05
4.35222e-05
8.04095e-05
4.70043e-05
8.12686e-05
5.07605e-05
8.21992e-05
5.47963e-05
8.32079e-05
5.91435e-05
8.42983e-05
6.38513e-05
8.54774e-05
6.89251e-05
8.67566e-05
7.43533e-05
8.81421e-05
8.02182e-05
8.96396e-05
8.65568e-05
9.12632e-05
9.33373e-05
9.3022e-05
0.00010064
9.49223e-05
0.000108532
9.69841e-05
0.000116939
9.92123e-05
0.000126037
0.000101623
0.000135777
0.00010423
0.000146219
0.000107047
0.000157439
0.000110092
0.000169415
0.000113377
0.00018227
0.000116924
0.000195963
0.000120746
0.000210604
0.000124866
0.000226175
0.0001293
0.000242729
0.000134068
0.000260289
0.000139193
0.000278829
0.000144691
0.000298388
0.000150583
0.000318902
0.000156888
0.00034032
0.000163623
0.000362562
0.000170802
0.000385481
0.000178437
0.000408884
0.000186533
0.00043251
0.00019509
0.000456003
0.000204097
0.0004789
0.000213533
0.000500602
0.000223361
0.000520347
0.000233525
0.000537176
0.000243943
0.000549895
0.000254506
0.000557038
0.000265064
0.000556836
0.000275427
0.000547185
0.000285347
0.00052567
0.000294513
0.000489645
0.000302537
0.000436541
0.000308942
0.000364686
0.000313137
0.000276398
0.000314314
0.000192201
0.000312521
-3.34337e-05
-0.000304901
0.000306078
7.29725e-05
1.97553e-05
-7.26396e-05
7.333e-05
2.13515e-05
7.37164e-05
2.30753e-05
7.41333e-05
2.49367e-05
7.45841e-05
2.6946e-05
7.50709e-05
2.91146e-05
7.55975e-05
3.14544e-05
7.61668e-05
3.39778e-05
7.67837e-05
3.66931e-05
7.74511e-05
3.96281e-05
7.8173e-05
4.28012e-05
7.89535e-05
4.62246e-05
7.97975e-05
4.99174e-05
8.07119e-05
5.38828e-05
8.1703e-05
5.81533e-05
8.27746e-05
6.27805e-05
8.39331e-05
6.77673e-05
8.51901e-05
7.30969e-05
8.65517e-05
7.88573e-05
8.80233e-05
8.50857e-05
8.96189e-05
9.17422e-05
9.13474e-05
9.89115e-05
9.3215e-05
0.000106664
9.52414e-05
0.000114913
9.74313e-05
0.000123848
9.98005e-05
0.000133408
0.000102363
0.000143656
0.000105132
0.000154672
0.000108124
0.000166422
0.000111353
0.000179042
0.000114839
0.000192477
0.000118597
0.000206848
0.000122645
0.000222126
0.000127003
0.000238371
0.00013169
0.000255603
0.000136726
0.000273793
0.000142129
0.000292985
0.000147919
0.000313112
0.000154114
0.000334124
0.000160731
0.000355945
0.000167785
0.000378427
0.000175284
0.000401383
0.000183237
0.000424557
0.000191641
0.000447599
0.000200487
0.000470053
0.000209754
0.000491335
0.000219404
0.000510697
0.000229384
0.000527197
0.000239613
0.000539667
0.000249985
0.00054667
0.000260351
0.000546472
0.000270527
0.000537015
0.000280267
0.000515934
0.000289268
0.000480646
0.000297148
0.000428664
0.000303439
0.000358398
0.000307559
0.000272284
0.000308703
0.00019108
0.000306962
-3.16677e-05
-0.000298547
0.000300631
7.16533e-05
1.9431e-05
-7.13268e-05
7.20043e-05
2.10012e-05
7.23837e-05
2.26969e-05
7.27932e-05
2.45278e-05
7.3236e-05
2.65042e-05
7.37141e-05
2.86371e-05
7.42314e-05
3.0938e-05
7.47906e-05
3.34192e-05
7.53967e-05
3.60878e-05
7.60523e-05
3.8973e-05
7.67615e-05
4.20927e-05
7.75282e-05
4.54585e-05
7.83575e-05
4.90888e-05
7.92558e-05
5.2985e-05
8.02296e-05
5.71801e-05
8.12824e-05
6.17283e-05
8.24208e-05
6.66295e-05
8.36559e-05
7.18623e-05
8.49938e-05
7.752e-05
8.64399e-05
8.364e-05
8.80079e-05
9.01748e-05
8.97065e-05
9.72133e-05
9.15419e-05
0.000104829
9.35332e-05
0.000112922
9.56853e-05
0.000121696
9.80137e-05
0.00013108
0.000100533
0.000141138
0.000103253
0.000151952
0.000106194
0.000163481
0.000109368
0.000175869
0.000112794
0.000189052
0.000116486
0.000203155
0.000120465
0.000218148
0.000124749
0.000234088
0.000129354
0.000250998
0.000134303
0.000268844
0.000139612
0.000287676
0.000145302
0.000307422
0.000151389
0.000328036
0.000157891
0.000349443
0.00016482
0.000371497
0.000172187
0.000394015
0.000179999
0.000416745
0.000188253
0.000439343
0.000196941
0.000461365
0.000206041
0.000482234
0.000215518
0.000501218
0.000225317
0.000517396
0.000235361
0.00052962
0.000245545
0.000536483
0.000255724
0.000536287
0.000265715
0.000527015
0.00027528
0.000506357
0.000284119
0.000471792
0.000291857
0.000420903
0.000298036
0.000352185
0.000302082
0.000268184
0.000303196
0.000189868
0.000301503
-3.00597e-05
-0.000292389
0.000295281
7.03636e-05
1.91127e-05
-7.00427e-05
7.07083e-05
2.06574e-05
7.10809e-05
2.23255e-05
7.1483e-05
2.41264e-05
7.19178e-05
2.60704e-05
7.23873e-05
2.81681e-05
7.28953e-05
3.04308e-05
7.34445e-05
3.28705e-05
7.40398e-05
3.54935e-05
7.46838e-05
3.83296e-05
7.53804e-05
4.1397e-05
7.61336e-05
4.4706e-05
7.69482e-05
4.82751e-05
7.78308e-05
5.21032e-05
7.87875e-05
5.62243e-05
7.98218e-05
6.06947e-05
8.09402e-05
6.55118e-05
8.21538e-05
7.06493e-05
8.34683e-05
7.62061e-05
8.48891e-05
8.22197e-05
8.64297e-05
8.86347e-05
8.80988e-05
9.55447e-05
8.99023e-05
0.000103026
9.18591e-05
0.000110966
9.39739e-05
0.000119582
9.62619e-05
0.000128792
9.87372e-05
0.000138663
0.000101411
0.000149279
0.000104301
0.000160591
0.00010742
0.000172751
0.000110787
0.000185685
0.000114415
0.000199527
0.000118326
0.000214238
0.000122535
0.000229879
0.00012706
0.000246473
0.000131924
0.00026398
0.000137141
0.000282458
0.000142731
0.000301832
0.000148712
0.000322055
0.0001551
0.000343055
0.000161907
0.00036469
0.000169144
0.000386777
0.000176817
0.000409071
0.000184924
0.000431235
0.000193457
0.000452832
0.000202394
0.000473297
0.0002117
0.000491912
0.000221323
0.000507774
0.000231185
0.000519759
0.000241185
0.000526487
0.000251179
0.000526296
0.00026099
0.000517211
0.000270382
0.000496972
0.000279062
0.000463118
0.000286661
0.000413309
0.000292731
0.000346123
0.000296705
0.000264223
0.00029779
0.000188819
0.000296144
-2.83793e-05
-0.000286244
0.000290028
6.91017e-05
1.88e-05
-6.8787e-05
6.944e-05
2.03196e-05
6.98059e-05
2.19605e-05
7.02007e-05
2.37321e-05
7.06277e-05
2.56442e-05
7.10889e-05
2.77074e-05
7.15879e-05
2.99326e-05
7.21273e-05
3.23315e-05
7.2712e-05
3.49095e-05
7.33445e-05
3.76975e-05
7.40288e-05
4.07134e-05
7.47686e-05
4.39667e-05
7.55688e-05
4.74755e-05
7.64357e-05
5.12369e-05
7.73755e-05
5.52851e-05
7.83915e-05
5.96791e-05
7.94903e-05
6.44136e-05
8.06825e-05
6.94576e-05
8.1974e-05
7.49152e-05
8.337e-05
8.08241e-05
8.48837e-05
8.71215e-05
8.65235e-05
9.39052e-05
8.82955e-05
0.000101255
9.02182e-05
0.000109044
9.22962e-05
0.000117504
9.45445e-05
0.000126544
9.69767e-05
0.000136231
9.96037e-05
0.000146652
0.000102444
0.000157751
0.000105508
0.000169687
0.000108817
0.000182377
0.000112383
0.000195961
0.000116225
0.000210395
0.000120362
0.000225743
0.000124809
0.000242026
0.000129587
0.000259202
0.000134714
0.000277332
0.000140206
0.000296339
0.000146083
0.000316178
0.000152358
0.00033678
0.000159045
0.000358002
0.000166155
0.000379667
0.000173691
0.000401534
0.000181655
0.000423271
0.000190035
0.000444451
0.000198811
0.000464519
0.00020795
0.000482771
0.0002174
0.000498323
0.000227084
0.000510071
0.000236903
0.000516665
0.000246716
0.000516476
0.00025635
0.00050757
0.000265573
0.000487739
0.000274096
0.00045458
0.00028156
0.000405825
0.000287521
0.00034013
0.000291425
0.000260269
0.000292483
0.000187669
0.000290882
-2.68576e-05
-0.000280293
0.000284871
6.78677e-05
1.84931e-05
-6.75582e-05
6.82001e-05
1.9988e-05
6.85595e-05
2.16023e-05
6.89472e-05
2.33451e-05
6.93665e-05
2.52259e-05
6.98193e-05
2.72552e-05
7.03093e-05
2.94436e-05
7.0839e-05
3.18024e-05
7.14131e-05
3.43363e-05
7.20343e-05
3.70769e-05
7.27064e-05
4.00422e-05
7.3433e-05
4.32408e-05
7.42189e-05
4.66904e-05
7.50704e-05
5.03861e-05
7.59935e-05
5.43628e-05
7.69916e-05
5.86817e-05
7.80709e-05
6.3335e-05
7.9242e-05
6.8287e-05
8.05106e-05
7.36471e-05
8.1882e-05
7.94532e-05
8.33691e-05
8.5635e-05
8.49801e-05
9.22945e-05
8.67211e-05
9.95143e-05
8.86101e-05
0.000107155
9.06517e-05
0.000115463
9.28607e-05
0.000124336
9.52505e-05
0.000133842
9.78317e-05
0.000144071
0.000100623
0.00015496
0.000103634
0.000166676
0.000106885
0.000179126
0.000110389
0.000192458
0.000114164
0.00020662
0.000118228
0.000221679
0.000122598
0.000237656
0.000127293
0.000254506
0.00013233
0.000272295
0.000137727
0.000290942
0.0001435
0.000310404
0.000149665
0.000330615
0.000156234
0.000351432
0.000163218
0.000372683
0.000170621
0.00039413
0.000178443
0.000415449
0.000186673
0.00043622
0.000195292
0.000455899
0.000204267
0.000473797
0.000213547
0.000489045
0.000223056
0.000500563
0.000232698
0.000507028
0.000242334
0.000506843
0.000251793
0.000498118
0.00026085
0.00047869
0.000269221
0.000446218
0.000276551
0.000398504
0.000282406
0.000334286
0.000286241
0.000256454
0.000287273
0.000186683
0.000285716
-2.52582e-05
-0.000274349
0.000279808
6.666e-05
1.81916e-05
-6.63565e-05
6.69862e-05
1.96624e-05
6.7339e-05
2.12505e-05
6.77196e-05
2.29649e-05
6.81314e-05
2.4815e-05
6.85761e-05
2.68109e-05
6.90573e-05
2.89631e-05
6.95775e-05
3.12826e-05
7.01414e-05
3.37731e-05
7.07514e-05
3.64673e-05
7.14115e-05
3.93829e-05
7.2125e-05
4.25277e-05
7.2897e-05
4.59191e-05
7.37333e-05
4.95503e-05
7.464e-05
5.34567e-05
7.56203e-05
5.77018e-05
7.66805e-05
6.22754e-05
7.78309e-05
6.7137e-05
7.90771e-05
7.24014e-05
8.04243e-05
7.81064e-05
8.18851e-05
8.41746e-05
8.34678e-05
9.07122e-05
8.51781e-05
9.78044e-05
8.70339e-05
0.0001053
8.90398e-05
0.000113457
9.121e-05
0.000122166
9.3558e-05
0.000131494
9.6094e-05
0.000141535
9.88361e-05
0.000152218
0.000101795
0.000163718
0.000104989
0.000175932
0.000108431
0.000189015
0.000112141
0.00020291
0.000116134
0.000217686
0.000120427
0.000233363
0.000125041
0.000249893
0.000129989
0.000267347
0.000135291
0.00028564
0.000140964
0.000304732
0.00014702
0.000324558
0.000153473
0.000344978
0.000160334
0.000365822
0.000167605
0.000386858
0.000175288
0.000407767
0.000183371
0.000428135
0.000191836
0.000447433
0.00020065
0.000464982
0.000209762
0.000479931
0.000219101
0.000491222
0.000228568
0.000497558
0.00023803
0.000497375
0.000247319
0.000488822
0.000256213
0.000469788
0.000264433
0.000437986
0.000271632
0.000391287
0.000277383
0.000328506
0.000281151
0.00025264
0.00028216
0.000185589
0.000280646
-2.38165e-05
-0.000268599
0.000274839
6.54784e-05
1.78957e-05
-6.51802e-05
6.57987e-05
1.93427e-05
6.61452e-05
2.09051e-05
6.65189e-05
2.25916e-05
6.69232e-05
2.44116e-05
6.73597e-05
2.63748e-05
6.78322e-05
2.84915e-05
6.8343e-05
3.07723e-05
6.88967e-05
3.32202e-05
6.94958e-05
3.58688e-05
7.0144e-05
3.87355e-05
7.08448e-05
4.18275e-05
7.16029e-05
4.51618e-05
7.24243e-05
4.87296e-05
7.33148e-05
5.2567e-05
7.42777e-05
5.67396e-05
7.5319e-05
6.12347e-05
7.64489e-05
6.60076e-05
7.7673e-05
7.11779e-05
7.89963e-05
7.67836e-05
8.04312e-05
8.27401e-05
8.19859e-05
8.91578e-05
8.36661e-05
9.61247e-05
8.54891e-05
0.000103477
8.74596e-05
0.000111487
8.95917e-05
0.000120034
9.18984e-05
0.000129188
9.43898e-05
0.000139044
9.70839e-05
0.000149525
9.99904e-05
0.000160812
0.000103129
0.000172794
0.000106511
0.000185633
0.000110156
0.000199266
0.000114079
0.000213763
0.000118297
0.000229145
0.00012283
0.00024536
0.000127691
0.000262485
0.0001329
0.000280431
0.000138473
0.000299159
0.000144422
0.000318608
0.000150762
0.000338638
0.000157501
0.000359082
0.000164643
0.000379715
0.000172189
0.000400221
0.000180128
0.000420196
0.000188442
0.000439119
0.000197097
0.000456327
0.000206046
0.000470984
0.000215216
0.000482053
0.000224513
0.000488265
0.000233804
0.000488088
0.000242926
0.000479709
0.00025166
0.000461064
0.000259732
0.000429923
0.000266802
0.000384228
0.000272452
0.000322872
0.000276154
0.000248964
0.00027714
0.000184658
0.000275669
-2.22963e-05
-0.000262852
0.000269963
6.43216e-05
1.7605e-05
-6.40293e-05
6.46359e-05
1.90287e-05
6.4976e-05
2.05658e-05
6.53429e-05
2.2225e-05
6.57399e-05
2.40154e-05
6.61686e-05
2.59464e-05
6.66326e-05
2.80282e-05
6.71341e-05
3.02711e-05
6.7678e-05
3.26771e-05
6.82663e-05
3.52808e-05
6.89029e-05
3.80996e-05
6.9591e-05
4.11397e-05
7.03357e-05
4.44179e-05
7.11422e-05
4.79234e-05
7.20169e-05
5.1693e-05
7.29625e-05
5.57944e-05
7.39853e-05
6.02125e-05
7.5095e-05
6.48982e-05
7.62974e-05
6.9976e-05
7.75971e-05
7.54842e-05
7.90066e-05
8.1331e-05
8.05338e-05
8.7631e-05
8.21841e-05
9.44747e-05
8.3975e-05
0.000101686
8.59106e-05
0.000109552
8.80051e-05
0.00011794
9.02711e-05
0.000126922
9.27187e-05
0.000136597
9.53653e-05
0.000146878
9.82207e-05
0.000157957
0.000101304
0.000169711
0.000104627
0.000182311
0.000108208
0.000195685
0.000112062
0.000209908
0.000116206
0.000225001
0.000120659
0.000240907
0.000125435
0.000257708
0.000130552
0.000275313
0.000136026
0.000293684
0.000141871
0.000312762
0.000148099
0.00033241
0.000154718
0.000352462
0.000161734
0.000372698
0.000169145
0.000392809
0.000176942
0.000412398
0.000185108
0.000430953
0.000193608
0.000447825
0.000202396
0.000462194
0.000211401
0.000473046
0.000220531
0.000479133
0.000229655
0.000478958
0.000238612
0.000470746
0.000247189
0.00045248
0.000255116
0.000421986
0.00026206
0.000377267
0.000267609
0.000317295
0.000271247
0.000245283
0.000272214
0.00018361
0.000270785
-2.09348e-05
-0.000257298
0.000265177
6.31896e-05
1.73198e-05
-6.2902e-05
6.34984e-05
1.87205e-05
6.38324e-05
2.02329e-05
6.41927e-05
2.18653e-05
6.45825e-05
2.36265e-05
6.50034e-05
2.5526e-05
6.54589e-05
2.75735e-05
6.59513e-05
2.97791e-05
6.64852e-05
3.2144e-05
6.70629e-05
3.47037e-05
6.76879e-05
3.74754e-05
6.83638e-05
4.04645e-05
6.90949e-05
4.36876e-05
6.9887e-05
4.71319e-05
7.07459e-05
5.08349e-05
7.16746e-05
5.48663e-05
7.2679e-05
5.92087e-05
7.3769e-05
6.38088e-05
7.49498e-05
6.87957e-05
7.62263e-05
7.4208e-05
7.76107e-05
7.99471e-05
7.91107e-05
8.61314e-05
8.07317e-05
9.2854e-05
8.24907e-05
9.99276e-05
8.43921e-05
0.000107651
8.64495e-05
0.000115883
8.86754e-05
0.000124696
9.10798e-05
0.000134193
9.36797e-05
0.000144279
9.64847e-05
0.000155152
9.95135e-05
0.000166683
0.000102778
0.000179046
0.000106296
0.000192168
0.000110082
0.000206122
0.000114153
0.00022093
0.000118528
0.000236533
0.00012322
0.000253016
0.000128247
0.000270286
0.000133625
0.000288306
0.000139366
0.000307021
0.000145483
0.000326292
0.000151985
0.000345959
0.000158876
0.000365806
0.000166156
0.000385529
0.000173814
0.000404739
0.000181833
0.000422934
0.000190181
0.000439477
0.000198811
0.000453566
0.000207655
0.000464204
0.00021662
0.000470173
0.00022558
0.000470003
0.000234376
0.000461959
0.000242798
0.000444068
0.000250584
0.000414211
0.000257403
0.000370461
0.000262854
0.000311862
0.00026643
0.000241736
0.000267379
0.000182725
0.000265991
-1.94931e-05
-0.000251742
0.000260482
6.20809e-05
1.70397e-05
-6.1799e-05
6.23839e-05
1.84179e-05
6.27117e-05
1.99059e-05
6.30654e-05
2.15119e-05
6.34482e-05
2.32446e-05
6.38614e-05
2.5113e-05
6.43088e-05
2.71269e-05
6.47923e-05
2.92958e-05
6.53167e-05
3.16204e-05
6.58838e-05
3.41368e-05
6.64977e-05
3.68622e-05
6.71612e-05
3.98013e-05
6.78793e-05
4.29702e-05
6.86571e-05
4.63544e-05
6.95006e-05
4.9992e-05
7.04126e-05
5.39547e-05
7.13991e-05
5.82228e-05
7.24695e-05
6.27387e-05
7.36293e-05
6.76365e-05
7.4883e-05
7.29546e-05
7.62427e-05
7.85878e-05
7.77159e-05
8.46584e-05
7.93081e-05
9.12622e-05
8.10359e-05
9.82001e-05
8.29035e-05
0.000105783
8.49243e-05
0.000113862
8.71108e-05
0.00012251
8.94725e-05
0.000131831
9.20264e-05
0.000141725
9.47819e-05
0.000152397
9.77572e-05
0.000163707
0.000100964
0.00017584
0.00010442
0.000188712
0.000108139
0.000202402
0.000112139
0.000216931
0.000116436
0.000232235
0.000121045
0.000248406
0.000125984
0.000265347
0.000131266
0.000283023
0.000136906
0.00030138
0.000142915
0.000320282
0.000149302
0.000339572
0.00015607
0.000359037
0.00016322
0.000378379
0.000170742
0.000397216
0.000178617
0.000415058
0.000186816
0.000431278
0.000195291
0.00044509
0.000203975
0.000455518
0.00021278
0.000461367
0.000221578
0.0004612
0.000230217
0.000453317
0.000238487
0.000435792
0.000246133
0.000406557
0.000252831
0.000363748
0.000258186
0.000306483
0.0002617
0.000238183
0.000262634
0.000181717
0.000261287
-1.82082e-05
-0.000246379
0.000255874
6.09955e-05
1.67647e-05
-6.07185e-05
6.1293e-05
1.81208e-05
6.1615e-05
1.95849e-05
6.19622e-05
2.1165e-05
6.2338e-05
2.28696e-05
6.27436e-05
2.47077e-05
6.31828e-05
2.66884e-05
6.36574e-05
2.88214e-05
6.41723e-05
3.11063e-05
6.47292e-05
3.35803e-05
6.53319e-05
3.62603e-05
6.59836e-05
3.91502e-05
6.66887e-05
4.22659e-05
6.74526e-05
4.55911e-05
6.82809e-05
4.91644e-05
6.91765e-05
5.30596e-05
7.01453e-05
5.72547e-05
7.11964e-05
6.1688e-05
7.23354e-05
6.6498e-05
7.35667e-05
7.17236e-05
7.4902e-05
7.72529e-05
7.63489e-05
8.32119e-05
7.79127e-05
8.96988e-05
7.96096e-05
9.65035e-05
8.1444e-05
0.000103949
8.34289e-05
0.000111878
8.55765e-05
0.000120363
8.78963e-05
0.000129512
9.04049e-05
0.000139217
9.31115e-05
0.00014969
9.60341e-05
0.000160785
9.91842e-05
0.00017269
0.000102579
0.000185318
0.000106233
0.000198748
0.000110161
0.000213002
0.000114383
0.000228014
0.00011891
0.000243878
0.000123761
0.000260496
0.000128951
0.000277833
0.00013449
0.00029584
0.000140393
0.000314379
0.000146666
0.000333298
0.000153314
0.000352388
0.000160337
0.000371356
0.000167724
0.000389828
0.000175459
0.000407323
0.000183511
0.000423226
0.000191834
0.000436768
0.000200362
0.000446991
0.000209009
0.000452726
0.000217649
0.000452564
0.000226132
0.000444843
0.000234254
0.00042768
0.000241763
0.000399061
0.000248341
0.000357185
0.000253601
0.000301242
0.000257057
0.00023476
0.000257977
0.000180867
0.000256672
-1.6844e-05
-0.000241011
0.000251354
5.99321e-05
1.64946e-05
-5.96606e-05
6.0224e-05
1.7829e-05
6.054e-05
1.92696e-05
6.08808e-05
2.08243e-05
6.12498e-05
2.25014e-05
6.16481e-05
2.43095e-05
6.20795e-05
2.62578e-05
6.25455e-05
2.83555e-05
6.30512e-05
3.06015e-05
6.3598e-05
3.30337e-05
6.41899e-05
3.5669e-05
6.48297e-05
3.85107e-05
6.55222e-05
4.15742e-05
6.62721e-05
4.48414e-05
6.70856e-05
4.83516e-05
6.7965e-05
5.21805e-05
6.89165e-05
5.63039e-05
6.99487e-05
6.0656e-05
7.10673e-05
6.538e-05
7.22765e-05
7.05147e-05
7.35879e-05
7.59419e-05
7.50089e-05
8.17912e-05
7.65448e-05
8.81633e-05
7.82114e-05
9.48372e-05
8.0013e-05
0.000102148
8.19625e-05
0.000109928
8.40719e-05
0.000118254
8.63504e-05
0.000127233
8.88144e-05
0.000136753
9.1473e-05
0.000147032
9.43437e-05
0.000157915
9.74378e-05
0.000169596
0.000100772
0.000181984
0.000104362
0.000195159
0.00010822
0.000209143
0.000112367
0.000223867
0.000116815
0.00023943
0.00012158
0.00025573
0.000126677
0.000272736
0.000132119
0.000290397
0.000137916
0.000308581
0.000144078
0.000327136
0.000150608
0.000345857
0.000157505
0.000364459
0.000164761
0.000382572
0.000172358
0.000399726
0.000180265
0.000415318
0.000188439
0.000428593
0.000196815
0.000438614
0.000205306
0.000444234
0.00021379
0.000444075
0.000222121
0.00043651
0.000230098
0.000419699
0.000237472
0.00039168
0.000243932
0.000350711
0.000249099
0.000296053
0.000252497
0.000231325
0.000253408
0.000179885
0.000252143
-1.56359e-05
-0.000235834
0.000246919
5.8891e-05
1.62296e-05
-5.86238e-05
5.91778e-05
1.75427e-05
5.94881e-05
1.89603e-05
5.98228e-05
2.049e-05
6.01851e-05
2.214e-05
6.05761e-05
2.39188e-05
6.09995e-05
2.58352e-05
6.14571e-05
2.78982e-05
6.19534e-05
3.0106e-05
6.24903e-05
3.24972e-05
6.30714e-05
3.50887e-05
6.36996e-05
3.7883e-05
6.43795e-05
4.08951e-05
6.5116e-05
4.41055e-05
6.59147e-05
4.75536e-05
6.67783e-05
5.13174e-05
6.77125e-05
5.53704e-05
6.87262e-05
5.96427e-05
6.98246e-05
6.42821e-05
7.1012e-05
6.93276e-05
7.22999e-05