/*--------------------------------*- C++ -*----------------------------------*\
  =========                 |
  \\      /  F ield         | OpenFOAM: The Open Source CFD Toolbox
   \\    /   O peration     | Website:  https://openfoam.org
    \\  /    A nd           | Version:  6.0
     \\/     M anipulation  |
\*---------------------------------------------------------------------------*/
FoamFile
{
    version     2.0;
    format      ascii;
    class       surfaceScalarField;
    location    "16";
    object      phi;
}
// * * * * * * * * * * * * * * * * * * * * * * * * * * * * * * * * * * * * * //

dimensions      [0 3 -1 0 0 0 0];

internalField   nonuniform List<scalar> 
123526
(
-5.40567e-05
2.30588e-05
5.44447e-05
-5.36381e-05
2.49359e-05
-5.31818e-05
2.69662e-05
-5.26914e-05
2.91623e-05
-5.21571e-05
3.15379e-05
-5.15828e-05
3.41077e-05
-5.09576e-05
3.68878e-05
-5.02854e-05
3.98955e-05
-4.95532e-05
4.31486e-05
-4.87652e-05
4.66683e-05
-4.79084e-05
5.04772e-05
-4.6987e-05
5.45984e-05
-4.59857e-05
5.90578e-05
-4.4906e-05
6.38806e-05
-4.37302e-05
6.90985e-05
-4.24646e-05
7.47483e-05
-4.10913e-05
8.08624e-05
-3.96051e-05
8.7472e-05
-3.79892e-05
9.46279e-05
-3.62475e-05
0.000102376
-3.43511e-05
0.000110753
-3.22984e-05
0.000119819
-3.00738e-05
0.000129637
-2.76574e-05
0.000140245
-2.50361e-05
0.000151736
-2.21975e-05
0.000164161
-1.91108e-05
0.000177599
-1.57719e-05
0.000192138
-1.214e-05
0.000207846
-8.21199e-06
0.000224835
-3.94425e-06
0.000243178
6.75907e-07
0.000262995
5.68942e-06
0.000284375
1.11233e-05
0.000307431
1.70029e-05
0.000332272
2.33757e-05
0.000358989
3.02673e-05
0.000387711
3.77226e-05
0.000418515
4.57875e-05
0.000451484
5.44973e-05
0.00048669
6.38983e-05
0.000524157
7.4041e-05
0.000563871
8.49673e-05
0.000605773
9.67172e-05
0.00064972
0.000109327
0.000695466
0.000122825
0.000742638
0.000137221
0.000790693
0.00015252
0.00083887
0.000168693
0.00088613
0.000185704
0.000931073
0.000203487
0.000971861
0.000221909
0.00100611
0.000240864
0.00103077
0.000260043
0.0010421
0.000279185
0.00103528
0.000297762
0.00100463
0.000315321
0.000942342
0.000331047
0.000839869
0.000343959
0.000679871
0.000439545
0.000339374
-5.33898e-05
2.26778e-05
5.37705e-05
-5.29801e-05
2.4524e-05
-5.25339e-05
2.65209e-05
-5.20545e-05
2.86806e-05
-5.15323e-05
3.10168e-05
-5.09708e-05
3.35438e-05
-5.03594e-05
3.62775e-05
-4.97014e-05
3.9235e-05
-4.89843e-05
4.24331e-05
-4.82113e-05
4.58932e-05
-4.73706e-05
4.96383e-05
-4.64649e-05
5.36907e-05
-4.54808e-05
5.80757e-05
-4.44181e-05
6.28159e-05
-4.32613e-05
6.79436e-05
-4.2015e-05
7.34996e-05
-4.06635e-05
7.95124e-05
-3.91999e-05
8.60059e-05
-3.76101e-05
9.3039e-05
-3.58956e-05
0.000100659
-3.40307e-05
0.000108889
-3.20112e-05
0.000117796
-2.98248e-05
0.000127451
-2.74485e-05
0.000137866
-2.48736e-05
0.000149162
-2.20833e-05
0.000161369
-1.90524e-05
0.000174568
-1.57716e-05
0.000188855
-1.22064e-05
0.00020428
-8.34822e-06
0.000220975
-4.16e-06
0.000238986
3.75702e-07
0.000258457
5.29737e-06
0.000279455
1.06324e-05
0.000302099
1.64059e-05
0.0003265
2.26654e-05
0.000352728
2.94369e-05
0.000380937
3.67661e-05
0.000411183
4.46986e-05
0.000443548
5.32697e-05
0.000478115
6.25244e-05
0.000514898
7.25115e-05
0.000553878
8.327e-05
0.000595008
9.48367e-05
0.000638144
0.000107243
0.000683046
0.000120516
0.000729349
0.000134661
0.000776519
0.000149686
0.00082381
0.000165564
0.000870194
0.000182269
0.000914291
0.000199735
0.000954283
0.00021783
0.000987838
0.000236453
0.00101198
0.000255292
0.00102305
0.000274086
0.00101633
0.00029231
0.000986202
0.000309475
0.000925022
0.000324906
0.000824246
0.000334772
0.000669846
0.000442035
0.000332002
-5.25893e-05
2.23015e-05
5.29658e-05
-5.21852e-05
2.41178e-05
-5.17459e-05
2.60824e-05
-5.1275e-05
2.82075e-05
-5.07632e-05
3.05061e-05
-5.02142e-05
3.29925e-05
-4.96177e-05
3.56821e-05
-4.89767e-05
3.85918e-05
-4.82791e-05
4.17371e-05
-4.75279e-05
4.51398e-05
-4.67109e-05
4.88233e-05
-4.58309e-05
5.28086e-05
-4.48738e-05
5.71209e-05
-4.38399e-05
6.17799e-05
-4.27129e-05
6.68189e-05
-4.14976e-05
7.22821e-05
-4.0178e-05
7.81947e-05
-3.87478e-05
8.45732e-05
-3.71924e-05
9.14848e-05
-3.55137e-05
9.89773e-05
-3.36863e-05
0.000107062
-3.1706e-05
0.000115813
-2.9561e-05
0.000125307
-2.72285e-05
0.000135531
-2.47004e-05
0.000146634
-2.19595e-05
0.000158626
-1.89821e-05
0.00017159
-1.57578e-05
0.00018563
-1.22542e-05
0.000200775
-8.46145e-06
0.00021718
-4.34422e-06
0.000234865
1.16042e-07
0.000253994
4.95725e-06
0.000274615
1.02067e-05
0.000296853
1.58891e-05
0.00032082
2.20504e-05
0.000346566
2.87166e-05
0.000374269
3.59325e-05
0.000403965
4.37426e-05
0.000435736
5.21809e-05
0.000469676
6.129e-05
0.000505788
7.11164e-05
0.00054405
8.16963e-05
0.000584425
9.30639e-05
0.000626773
0.00010525
0.000670855
0.000118279
0.000716313
0.000132162
0.000762624
0.00014691
0.000809052
0.000162501
0.000854584
0.000178913
0.000897859
0.00019608
0.000937097
0.000213865
0.000969999
0.000232169
0.000993672
0.000250679
0.00100449
0.000269132
0.000997889
0.000287026
0.000968274
0.000303799
0.000908262
0.00031895
0.000809072
0.000329525
0.000659255
0.000441918
0.000329729
-5.18241e-05
2.19303e-05
5.21955e-05
-5.14245e-05
2.37161e-05
-5.09893e-05
2.56481e-05
-5.05222e-05
2.77383e-05
-5.00145e-05
2.99996e-05
-4.94702e-05
3.2446e-05
-4.88795e-05
3.50926e-05
-4.82457e-05
3.79559e-05
-4.75575e-05
4.10504e-05
-4.68177e-05
4.43981e-05
-4.60151e-05
4.80223e-05
-4.51516e-05
5.19434e-05
-4.42146e-05
5.61858e-05
-4.32029e-05
6.07664e-05
-4.21016e-05
6.57194e-05
-4.09141e-05
7.10926e-05
-3.96254e-05
7.69074e-05
-3.82279e-05
8.31735e-05
-3.67081e-05
8.99659e-05
-3.50666e-05
9.73334e-05
-3.3279e-05
0.000105275
-3.13406e-05
0.000113873
-2.92399e-05
0.000123207
-2.6954e-05
0.000133243
-2.44751e-05
0.000144155
-2.17861e-05
0.000155935
-1.88638e-05
0.000168668
-1.56978e-05
0.000182463
-1.22561e-05
0.000197333
-8.5291e-06
0.000213451
-4.48191e-06
0.000230815
-9.58308e-08
0.000249606
4.66688e-06
0.000269854
9.8325e-06
0.000291691
1.54247e-05
0.000315229
2.14884e-05
0.000340501
2.80484e-05
0.000367707
3.51482e-05
0.000396864
4.28312e-05
0.000428052
5.11296e-05
0.000461376
6.00845e-05
0.000496833
6.97404e-05
0.000534394
8.01323e-05
0.000574034
9.12938e-05
0.000615614
0.000103256
0.000658896
0.000116045
0.000703529
0.000129675
0.000748998
0.000144161
0.000794575
0.000159483
0.000839262
0.000175621
0.00088172
0.000192502
0.000920199
0.000209987
0.000952447
0.000227971
0.000975636
0.000246151
0.00098623
0.000264261
0.000979716
0.000281826
0.000950604
0.000298242
0.000891752
0.000313074
0.000794104
0.000324222
0.000647979
0.000439848
0.000326086
-5.11243e-05
2.15689e-05
5.14856e-05
-5.0734e-05
2.33237e-05
-5.03074e-05
2.52223e-05
-4.98479e-05
2.72766e-05
-4.93469e-05
2.94996e-05
-4.88081e-05
3.1905e-05
-4.82223e-05
3.45079e-05
-4.75931e-05
3.73246e-05
-4.69094e-05
4.03683e-05
-4.61748e-05
4.36615e-05
-4.53781e-05
4.72277e-05
-4.45227e-05
5.10861e-05
-4.35953e-05
5.52607e-05
-4.25963e-05
5.97656e-05
-4.15101e-05
6.46356e-05
-4.03413e-05
6.99217e-05
-3.9074e-05
7.56421e-05
-3.77019e-05
8.17991e-05
-3.62104e-05
8.84758e-05
-3.46011e-05
9.57217e-05
-3.28488e-05
0.000103524
-3.09491e-05
0.00011197
-2.88902e-05
0.000121148
-2.66495e-05
0.000131
-2.42192e-05
0.000141726
-2.15821e-05
0.000153297
-1.87152e-05
0.000165801
-1.56083e-05
0.000179355
-1.22297e-05
0.000193953
-8.56984e-06
0.00020979
-4.59416e-06
0.000226836
-2.84018e-07
0.000245294
4.39745e-06
0.000265174
9.47586e-06
0.000286617
1.49738e-05
0.000309733
2.09349e-05
0.00033454
2.73831e-05
0.000361257
3.43609e-05
0.000389885
4.19104e-05
0.000420502
5.00629e-05
0.000453224
5.88584e-05
0.000488037
6.83406e-05
0.000524912
7.85442e-05
0.000563832
8.95028e-05
0.000604657
0.000101248
0.000647152
0.00011381
0.000690971
0.000127202
0.000735605
0.000141442
0.00078034
0.000156509
0.000824194
0.000172382
0.000865852
0.000188983
0.000903607
0.000206168
0.000935242
0.000223829
0.000958007
0.000241673
0.000968382
0.000259437
0.000961997
0.00027667
0.000933368
0.000292763
0.000875696
0.00030722
0.000779646
0.00031837
0.000636843
0.000436436
0.000321905
-5.03885e-05
2.12193e-05
5.07381e-05
-5.00112e-05
2.29444e-05
-4.95987e-05
2.48106e-05
-4.91537e-05
2.68295e-05
-4.86673e-05
2.90141e-05
-4.81428e-05
3.13783e-05
-4.75708e-05
3.39368e-05
-4.69544e-05
3.67061e-05
-4.6283e-05
3.96983e-05
-4.55598e-05
4.29364e-05
-4.47746e-05
4.64442e-05
-4.39303e-05
5.024e-05
-4.30149e-05
5.43473e-05
-4.20284e-05
5.87773e-05
-4.09566e-05
6.35657e-05
-3.98036e-05
6.87668e-05
-3.8555e-05
7.4395e-05
-3.72037e-05
8.04457e-05
-3.57366e-05
8.70098e-05
-3.41543e-05
9.41371e-05
-3.24328e-05
0.000101803
-3.05674e-05
0.000110103
-2.85464e-05
0.000119128
-2.63475e-05
0.000128799
-2.39626e-05
0.000139341
-2.1375e-05
0.000150707
-1.85616e-05
0.000162988
-1.55123e-05
0.000176305
-1.21959e-05
0.000190636
-8.60269e-06
0.000206195
-4.69868e-06
0.000222929
-4.65448e-07
0.000241059
4.13333e-06
0.000260577
9.12214e-06
0.000281632
1.45232e-05
0.000304334
2.03789e-05
0.000328683
2.67126e-05
0.000354922
3.35659e-05
0.00038303
4.098e-05
0.000413087
4.89857e-05
0.000445218
5.76225e-05
0.000479401
6.69337e-05
0.000515603
7.69539e-05
0.000553815
8.77173e-05
0.000593899
9.92565e-05
0.00063562
0.000111601
0.000678638
0.000124768
0.000722452
0.000138772
0.000766357
0.000153593
0.00080939
0.000169205
0.000850263
0.000185525
0.000887299
0.00020241
0.000918331
0.000219747
0.000940657
0.000237257
0.000950839
0.000254679
0.000944549
0.000271585
0.000916401
0.000287379
0.000859838
0.000301461
0.000765463
0.000312554
0.000625649
0.000431088
0.000317743
-4.95823e-05
2.08789e-05
4.99227e-05
-4.92167e-05
2.25767e-05
-4.88181e-05
2.44128e-05
-4.83892e-05
2.63986e-05
-4.79209e-05
2.85467e-05
-4.74158e-05
3.0871e-05
-4.68643e-05
3.33863e-05
-4.62689e-05
3.61087e-05
-4.56188e-05
3.90497e-05
-4.49168e-05
4.22325e-05
-4.41526e-05
4.56817e-05
-4.33288e-05
4.94145e-05
-4.24336e-05
5.34542e-05
-4.14674e-05
5.78094e-05
-4.04161e-05
6.25164e-05
-3.92841e-05
6.76329e-05
-3.80573e-05
7.31699e-05
-3.67294e-05
7.91158e-05
-3.52873e-05
8.55688e-05
-3.37322e-05
9.25798e-05
-3.20405e-05
0.000100112
-3.02076e-05
0.000108267
-2.82223e-05
0.000117143
-2.60626e-05
0.000126637
-2.37206e-05
0.000137
-2.11797e-05
0.000148165
-1.84173e-05
0.000160225
-1.54233e-05
0.00017331
-1.21669e-05
0.000187379
-8.63861e-06
0.000202666
-4.80488e-06
0.000219092
-6.47568e-07
0.000236899
3.86874e-06
0.000256063
8.76823e-06
0.000276736
1.40724e-05
0.000299032
1.98231e-05
0.000322932
2.60431e-05
0.000348701
3.27732e-05
0.000376299
4.0054e-05
0.000405806
4.79161e-05
0.000437356
5.63983e-05
0.00047092
6.55439e-05
0.000506459
7.53874e-05
0.000543973
8.59633e-05
0.000583325
9.73045e-05
0.000624281
0.000109441
0.000666506
0.000122388
0.000709505
0.000136161
0.00075259
0.000150736
0.000794815
0.000166087
0.00083492
0.000182125
0.000871269
0.000198708
0.000901729
0.000215725
0.000923672
0.000232907
0.000933665
0.00025
0.000927507
0.000266589
0.000899821
0.000282107
0.000844365
0.000295856
0.000751727
0.000306906
0.000614635
0.000424776
0.00031336
-4.87757e-05
2.05425e-05
4.91122e-05
-4.8416e-05
2.22151e-05
-4.80258e-05
2.40233e-05
-4.76077e-05
2.59785e-05
-4.7153e-05
2.80929e-05
-4.66639e-05
3.038e-05
-4.61311e-05
3.28544e-05
-4.55563e-05
3.5532e-05
-4.49287e-05
3.84234e-05
-4.42503e-05
4.15524e-05
-4.35108e-05
4.49438e-05
-4.27121e-05
4.86142e-05
-4.18426e-05
5.25865e-05
-4.09019e-05
5.68671e-05
-3.98767e-05
6.14929e-05
-3.87705e-05
6.6525e-05
-3.75703e-05
7.1971e-05
-3.62692e-05
7.78127e-05
-3.48552e-05
8.41558e-05
-3.33292e-05
9.10516e-05
-3.16683e-05
9.84518e-05
-2.98683e-05
0.000106465
-2.79183e-05
0.000115194
-2.57967e-05
0.000124514
-2.34961e-05
0.000134699
-2.1e-05
0.000145668
-1.82865e-05
0.000157512
-1.53455e-05
0.000170368
-1.21469e-05
0.00018418
-8.68138e-06
0.000199199
-4.9159e-06
0.000215323
-8.3277e-07
0.000232814
3.6029e-06
0.000251629
8.41474e-06
0.000271928
1.36241e-05
0.000293825
1.92719e-05
0.000317284
2.53808e-05
0.000342591
3.19909e-05
0.000369688
3.91422e-05
0.000398654
4.68648e-05
0.000429634
5.51975e-05
0.000462588
6.41829e-05
0.000497475
7.38555e-05
0.000534304
8.42497e-05
0.000572937
9.5398e-05
0.000613141
0.00010733
0.000654587
0.00012006
0.00069679
0.000133601
0.000739073
0.000147929
0.00078051
0.000163013
0.000819865
0.000178766
0.000855538
0.000195047
0.000885438
0.000211748
0.000906974
0.00022861
0.00091679
0.000245385
0.000910723
0.000261673
0.000883493
0.000276935
0.000829056
0.000290401
0.00073818
0.000301326
0.00060363
0.000417556
0.000308417
-4.80613e-05
2.02058e-05
4.83979e-05
-4.77021e-05
2.18537e-05
-4.73134e-05
2.36353e-05
-4.68984e-05
2.55615e-05
-4.64489e-05
2.76442e-05
-4.59675e-05
2.98965e-05
-4.54447e-05
3.23326e-05
-4.48828e-05
3.49681e-05
-4.42706e-05
3.78126e-05
-4.36101e-05
4.08901e-05
-4.28905e-05
4.42259e-05
-4.21136e-05
4.78356e-05
-4.12673e-05
5.17422e-05
-4.03511e-05
5.59493e-05
-3.93512e-05
6.0495e-05
-3.82714e-05
6.54434e-05
-3.7098e-05
7.07992e-05
-3.58249e-05
7.65376e-05
-3.44396e-05
8.27716e-05
-3.29434e-05
8.95533e-05
-3.13138e-05
9.68231e-05
-2.95468e-05
0.000104696
-2.76317e-05
0.00011328
-2.55477e-05
0.000122428
-2.32874e-05
0.00013244
-2.08349e-05
0.000143214
-1.81686e-05
0.000154845
-1.52789e-05
0.000167478
-1.21361e-05
0.000181036
-8.73122e-06
0.000195792
-5.03184e-06
0.000211621
-1.02066e-06
0.000228802
3.3365e-06
0.000247274
8.06312e-06
0.000267205
1.31802e-05
0.00028871
1.87281e-05
0.000311736
2.47291e-05
0.000336589
3.12226e-05
0.000363194
3.82482e-05
0.000391628
4.58357e-05
0.000422047
5.40231e-05
0.000454402
6.28528e-05
0.000488647
7.23588e-05
0.0005248
8.25748e-05
0.000562723
9.35327e-05
0.000602185
0.000105261
0.000642862
0.000117773
0.000684278
0.000131079
0.000725771
0.000145155
0.000766432
0.000159968
0.000805055
0.000175433
0.000840075
0.000191412
0.000869436
0.0002078
0.000890609
0.000224352
0.00090025
0.000240823
0.000894299
0.000256823
0.000867507
0.000271846
0.000814081
0.000285071
0.000724976
0.000295762
0.000592993
0.000410503
0.000302965
-4.74787e-05
1.98676e-05
4.78171e-05
-4.71171e-05
2.14903e-05
-4.67261e-05
2.3245e-05
-4.63089e-05
2.51424e-05
-4.5858e-05
2.71942e-05
-4.53764e-05
2.94129e-05
-4.48554e-05
3.18125e-05
-4.42972e-05
3.4408e-05
-4.36913e-05
3.7208e-05
-4.30394e-05
4.02366e-05
-4.23312e-05
4.35193e-05
-4.1568e-05
4.70709e-05
-4.07379e-05
5.0914e-05
-3.98399e-05
5.50498e-05
-3.88605e-05
5.95173e-05
-3.78025e-05
6.43838e-05
-3.66529e-05
6.9651e-05
-3.54048e-05
7.52876e-05
-3.40462e-05
8.14141e-05
-3.25781e-05
8.80831e-05
-3.09784e-05
9.52242e-05
-2.92431e-05
0.000102959
-2.73618e-05
0.000111399
-2.53141e-05
0.000120378
-2.30928e-05
0.000130219
-2.06824e-05
0.000140802
-1.80618e-05
0.000152225
-1.52217e-05
0.000164637
-1.2133e-05
0.000177947
-8.78681e-06
0.000192445
-5.15151e-06
0.000207983
-1.21019e-06
0.000224859
3.07083e-06
0.000242995
7.7147e-06
0.000262565
1.27422e-05
0.000283684
1.8193e-05
0.000306285
2.40891e-05
0.000330692
3.04693e-05
0.000356812
3.73725e-05
0.000384725
4.48281e-05
0.000414591
5.28736e-05
0.000446357
6.15505e-05
0.000479972
7.08923e-05
0.000515462
8.09319e-05
0.000552689
9.17001e-05
0.000591425
0.000103224
0.000631351
0.000115516
0.000672002
0.000128584
0.000712725
0.000142404
0.000752635
0.000156944
0.000790547
0.000172119
0.000824926
0.000187798
0.000853756
0.00020388
0.000874537
0.00022013
0.000883999
0.000236309
0.00087812
0.000252034
0.000851756
0.000266832
0.000799247
0.000279849
0.000711894
0.00029027
0.000582506
0.000403357
0.000297311
-4.70115e-05
1.95295e-05
4.73497e-05
-4.66488e-05
2.11256e-05
-4.62554e-05
2.28524e-05
-4.58352e-05
2.47203e-05
-4.53807e-05
2.67406e-05
-4.48955e-05
2.89258e-05
-4.43714e-05
3.12893e-05
-4.38111e-05
3.38459e-05
-4.32046e-05
3.66028e-05
-4.2554e-05
3.95843e-05
-4.18494e-05
4.28161e-05
-4.1092e-05
4.6312e-05
-4.02704e-05
5.00941e-05
-3.93834e-05
5.41612e-05
-3.84174e-05
5.8553e-05
-3.73753e-05
6.33401e-05
-3.62438e-05
6.85209e-05
-3.50162e-05
7.40581e-05
-3.36802e-05
8.00792e-05
-3.22368e-05
8.66376e-05
-3.06641e-05
9.36522e-05
-2.89581e-05
0.00010125
-2.71084e-05
0.00010955
-2.50951e-05
0.000118363
-2.2911e-05
0.000128035
-2.05411e-05
0.000138431
-1.79646e-05
0.000149649
-1.51723e-05
0.000161844
-1.21359e-05
0.00017491
-8.8467e-06
0.000189155
-5.27359e-06
0.000204407
-1.40004e-06
0.000220984
2.807e-06
0.00023879
7.37044e-06
0.000258005
1.23107e-05
0.000278746
1.7667e-05
0.000300928
2.34608e-05
0.000324897
2.97303e-05
0.000350542
3.65137e-05
0.000377941
4.38398e-05
0.000407265
5.17456e-05
0.000438452
6.02718e-05
0.000471446
6.94509e-05
0.000506284
7.93149e-05
0.000542826
8.98935e-05
0.000580847
0.000101212
0.000620034
0.000113283
0.00065993
0.000126112
0.000699898
0.000139675
0.000739068
0.000153941
0.000776282
0.000168828
0.000810036
0.000184212
0.000838346
0.000199995
0.00085877
0.000215955
0.000868052
0.000231855
0.000862263
0.000247316
0.000836311
0.000261896
0.000784715
0.00027473
0.000699087
0.000284923
0.000572379
0.000396666
0.00029177
-4.66119e-05
1.91944e-05
4.69473e-05
-4.6251e-05
2.0763e-05
-4.58585e-05
2.24606e-05
-4.54377e-05
2.42977e-05
-4.49818e-05
2.62856e-05
-4.44942e-05
2.84363e-05
-4.39672e-05
3.07632e-05
-4.34038e-05
3.32807e-05
-4.27947e-05
3.59949e-05
-4.21422e-05
3.89303e-05
-4.14372e-05
4.21124e-05
-4.06808e-05
4.55543e-05
-3.98625e-05
4.92774e-05
-3.89808e-05
5.32781e-05
-3.80229e-05
5.75967e-05
-3.69912e-05
6.23068e-05
-3.58729e-05
6.74039e-05
-3.46609e-05
7.28443e-05
-3.33433e-05
7.87626e-05
-3.19207e-05
8.52131e-05
-3.03716e-05
9.21038e-05
-2.86918e-05
9.95686e-05
-2.68712e-05
0.00010773
-2.48899e-05
0.00011638
-2.2741e-05
0.000125887
-2.04096e-05
0.000136098
-1.78754e-05
0.000147115
-1.51294e-05
0.000159098
-1.21436e-05
0.000171924
-8.90963e-06
0.00018592
-5.39694e-06
0.000200892
-1.58934e-06
0.000217174
2.54568e-06
0.000234657
7.03075e-06
0.000253524
1.18859e-05
0.000273893
1.71498e-05
0.000295664
2.28432e-05
0.000319203
2.90039e-05
0.00034438
3.56694e-05
0.000371275
4.28678e-05
0.000400067
5.06353e-05
0.000430685
5.90119e-05
0.000463072
6.80292e-05
0.00049727
7.77181e-05
0.000533143
8.81074e-05
0.000570466
9.92212e-05
0.000608933
0.00011107
0.000648095
0.000123661
0.000687329
0.000136969
0.000725783
0.000150965
0.000762318
0.000165569
0.000795458
0.000180667
0.000823253
0.000196161
0.000843289
0.000211841
0.000852378
0.000227473
0.000846636
0.000242682
0.000821084
0.000257047
0.00077032
0.000269717
0.000686361
0.000279765
0.000562274
0.000389833
0.000286507
-4.6233e-05
1.88654e-05
4.65619e-05
-4.58779e-05
2.04058e-05
-4.54901e-05
2.20735e-05
-4.50731e-05
2.38788e-05
-4.46197e-05
2.5833e-05
-4.41335e-05
2.79481e-05
-4.36068e-05
3.02374e-05
-4.30429e-05
3.2715e-05
-4.24328e-05
3.53861e-05
-4.17794e-05
3.82752e-05
-4.10735e-05
4.14081e-05
-4.03174e-05
4.47967e-05
-3.95003e-05
4.84621e-05
-3.86217e-05
5.2398e-05
-3.76686e-05
5.66454e-05
-3.66442e-05
6.12807e-05
-3.55352e-05
6.62964e-05
-3.43354e-05
7.16427e-05
-3.30327e-05
7.74609e-05
-3.16278e-05
8.38062e-05
-3.00992e-05
9.0576e-05
-2.84429e-05
9.79103e-05
-2.66488e-05
0.000105937
-2.46973e-05
0.000114427
-2.25816e-05
0.000123772
-2.02869e-05
0.000133802
-1.77932e-05
0.000144621
-1.50917e-05
0.000156396
-1.21551e-05
0.000168987
-8.97477e-06
0.000182738
-5.52092e-06
0.000197436
-1.77758e-06
0.00021343
2.28716e-06
0.000230594
6.69552e-06
0.000249119
1.14673e-05
0.000269124
1.66403e-05
0.000290491
2.2235e-05
0.000313607
2.82884e-05
0.000338326
3.48373e-05
0.000364726
4.19092e-05
0.000392995
4.95397e-05
0.000423055
5.77676e-05
0.000454844
6.66238e-05
0.000488415
7.61385e-05
0.000523629
8.63392e-05
0.000560266
9.72493e-05
0.000598024
0.000108879
0.000636464
0.000121234
0.000674975
0.000134291
0.00071272
0.000148023
0.000748586
0.000162354
0.00078112
0.000177174
0.000808405
0.000192392
0.000828079
0.000207804
0.000836978
0.000223179
0.000831298
0.000238145
0.000806137
0.000252298
0.000756214
0.000264814
0.000673876
0.000274793
0.000552371
0.00038323
0.000281551
-4.58392e-05
1.85445e-05
4.61604e-05
-4.5492e-05
2.00568e-05
-4.51122e-05
2.16943e-05
-4.47026e-05
2.34674e-05
-4.4256e-05
2.53872e-05
-4.37757e-05
2.74659e-05
-4.3254e-05
2.97166e-05
-4.2694e-05
3.21533e-05
-4.20872e-05
3.47804e-05
-4.14361e-05
3.76226e-05
-4.07325e-05
4.07059e-05
-3.99784e-05
4.40412e-05
-3.9164e-05
4.76493e-05
-3.82887e-05
5.15214e-05
-3.73406e-05
5.56988e-05
-3.63223e-05
6.0261e-05
-3.52218e-05
6.51972e-05
-3.40325e-05
7.04516e-05
-3.27428e-05
7.61723e-05
-3.13535e-05
8.24149e-05
-2.98434e-05
8.90668e-05
-2.82086e-05
9.62736e-05
-2.64391e-05
0.000104168
-2.45156e-05
0.000112502
-2.24313e-05
0.000121688
-2.01717e-05
0.000131542
-1.7717e-05
0.000142167
-1.50587e-05
0.000153737
-1.21696e-05
0.000166097
-9.04157e-06
0.000179609
-5.64514e-06
0.000194037
-1.96466e-06
0.000209748
2.03122e-06
0.0002266
6.36434e-06
0.00024479
1.10541e-05
0.000264436
1.61375e-05
0.000285407
2.16347e-05
0.000308109
2.7582e-05
0.000332378
3.40153e-05
0.000358292
4.09617e-05
0.000386049
4.8456e-05
0.000415562
5.65362e-05
0.000446766
6.52324e-05
0.000479722
7.4574e-05
0.000514293
8.45879e-05
0.000550259
9.52965e-05
0.000587326
0.00010671
0.000625064
0.000118834
0.000662871
0.000131647
0.000699929
0.000145123
0.000735141
0.000159191
0.000767079
0.000173747
0.000793859
0.0001887
0.000813141
0.000203855
0.000821833
0.000218983
0.000816177
0.000233715
0.000791394
0.000247656
0.000742249
0.000260023
0.00066146
0.000269983
0.000542361
0.000376293
0.000276839
-4.54133e-05
1.82325e-05
4.57255e-05
-4.50757e-05
1.97173e-05
-4.47056e-05
2.1325e-05
-4.4306e-05
2.30659e-05
-4.38691e-05
2.49513e-05
-4.33982e-05
2.69932e-05
-4.28853e-05
2.92046e-05
-4.23336e-05
3.15998e-05
-4.17341e-05
3.41821e-05
-4.10898e-05
3.69767e-05
-4.03922e-05
4.00097e-05
-3.9644e-05
4.32915e-05
-3.88352e-05
4.68422e-05
-3.79659e-05
5.06506e-05
-3.70243e-05
5.47588e-05
-3.60137e-05
5.92488e-05
-3.4922e-05
6.41069e-05
-3.37434e-05
6.92712e-05
-3.24665e-05
7.48964e-05
-3.10921e-05
8.10386e-05
-2.95997e-05
8.75751e-05
-2.79854e-05
9.46573e-05
-2.62393e-05
0.000102422
-2.43425e-05
0.000110603
-2.22884e-05
0.000119635
-2.00626e-05
0.000129315
-1.76458e-05
0.00013975
-1.50292e-05
0.00015112
-1.21866e-05
0.000163254
-9.10965e-06
0.000176531
-5.76944e-06
0.000190694
-2.15057e-06
0.000206128
1.77767e-06
0.000222674
6.03669e-06
0.000240535
1.06455e-05
0.000259829
1.56404e-05
0.000280412
2.10412e-05
0.000302707
2.68833e-05
0.000326535
3.32021e-05
0.000351973
4.00241e-05
0.000379227
4.73833e-05
0.000408203
5.53171e-05
0.000438833
6.3855e-05
0.000471184
7.30255e-05
0.000505123
8.2855e-05
0.000540429
9.33658e-05
0.000576816
0.000104567
0.00061386
0.000116467
0.000650972
0.000129043
0.000687347
0.000142274
0.000721909
0.000156089
0.000753255
0.000170391
0.000779528
0.000185092
0.000798443
0.0002
0.000806936
0.000214891
0.000801321
0.000229394
0.00077691
0.000243125
0.000728563
0.000255342
0.000649277
0.000265299
0.000532488
0.000369462
0.000272286
-4.49489e-05
1.79293e-05
4.52527e-05
-4.46206e-05
1.93874e-05
-4.4261e-05
2.09661e-05
-4.38723e-05
2.26755e-05
-4.3447e-05
2.45269e-05
-4.29877e-05
2.65322e-05
-4.24868e-05
2.87044e-05
-4.19464e-05
3.10578e-05
-4.13582e-05
3.3595e-05
-4.07245e-05
3.63415e-05
-4.00372e-05
3.93238e-05
-3.92986e-05
4.25515e-05
-3.84993e-05
4.60445e-05
-3.76392e-05
4.97892e-05
-3.67072e-05
5.38284e-05
-3.57065e-05
5.82466e-05
-3.46259e-05
6.30274e-05
-3.34593e-05
6.8103e-05
-3.21962e-05
7.36343e-05
-3.08374e-05
7.96779e-05
-2.93629e-05
8.61013e-05
-2.77689e-05
9.30615e-05
-2.60459e-05
0.0001007
-2.41754e-05
0.000108731
-2.21508e-05
0.000117611
-1.9958e-05
0.000127121
-1.75781e-05
0.00013737
-1.50026e-05
0.000148544
-1.22054e-05
0.000160457
-9.17855e-06
0.000173504
-5.89353e-06
0.000187407
-2.33531e-06
0.000202568
1.5263e-06
0.000218814
5.71225e-06
0.000236352
1.02411e-05
0.000255303
1.51485e-05
0.000275505
2.04538e-05
0.000297401
2.61917e-05
0.000320796
3.23971e-05
0.000345767
3.9096e-05
0.000372528
4.63216e-05
0.000400978
5.41107e-05
0.000431045
6.24923e-05
0.000462806
7.14944e-05
0.000496125
8.1143e-05
0.000530787
9.14602e-05
0.000566509
0.000102456
0.000602876
0.000114138
0.00063931
0.000126486
0.000675018
0.00013948
0.000708945
0.000153054
0.000739707
0.000167115
0.000765481
0.000181572
0.000784001
0.000196243
0.000792277
0.000210902
0.000786671
0.000225184
0.00076262
0.000238706
0.000715021
0.00025077
0.000637168
0.000260713
0.000522497
0.000362289
0.000267813
-4.44485e-05
1.76343e-05
4.47436e-05
-4.41298e-05
1.90667e-05
-4.37804e-05
2.06173e-05
-4.3403e-05
2.22962e-05
-4.29897e-05
2.41144e-05
-4.25431e-05
2.60837e-05
-4.20551e-05
2.82173e-05
-4.15283e-05
3.05292e-05
-4.09534e-05
3.30214e-05
-4.03333e-05
3.57197e-05
-3.96591e-05
3.86511e-05
-3.89336e-05
4.18245e-05
-3.81469e-05
4.52595e-05
-3.72996e-05
4.89404e-05
-3.63802e-05
5.29107e-05
-3.53926e-05
5.72574e-05
-3.43252e-05
6.19615e-05
-3.31731e-05
6.69492e-05
-3.19254e-05
7.23877e-05
-3.05836e-05
7.83343e-05
-2.91278e-05
8.46465e-05
-2.75549e-05
9.14867e-05
-2.58554e-05
9.90013e-05
-2.40112e-05
0.000106885
-2.2016e-05
0.000115616
-1.98559e-05
0.00012496
-1.75126e-05
0.000135027
-1.49774e-05
0.000146009
-1.22251e-05
0.000157704
-9.2476e-06
0.000170525
-6.01703e-06
0.000184175
-2.51856e-06
0.000199069
1.27727e-06
0.000215021
5.39099e-06
0.000232242
9.84077e-06
0.000250855
1.46616e-05
0.000270684
1.98725e-05
0.000292189
2.55076e-05
0.000315161
3.16009e-05
0.000339673
3.81782e-05
0.000365951
4.52722e-05
0.000393884
5.29189e-05
0.000423399
6.11469e-05
0.000454578
6.99839e-05
0.000487288
7.94558e-05
0.000521315
8.95845e-05
0.00055638
0.00010038
0.000592077
0.000111851
0.000627838
0.00012398
0.000662883
0.000136748
0.000696176
0.00015009
0.000726354
0.000163918
0.000751625
0.000178142
0.000769775
0.000192583
0.000777845
0.000207017
0.000772267
0.00022108
0.000748576
0.000234394
0.00070175
0.000246299
0.0006253
0.000256202
0.000512683
0.000355273
0.000263372
-4.39155e-05
1.73469e-05
4.42034e-05
-4.36052e-05
1.87546e-05
-4.32654e-05
2.02783e-05
-4.28986e-05
2.19277e-05
-4.24971e-05
2.37137e-05
-4.20633e-05
2.56482e-05
-4.15891e-05
2.7744e-05
-4.10766e-05
3.0015e-05
-4.05168e-05
3.24627e-05
-3.99118e-05
3.51132e-05
-3.92532e-05
3.79939e-05
-3.85431e-05
4.1113e-05
-3.77721e-05
4.449e-05
-3.69402e-05
4.81072e-05
-3.60366e-05
5.20086e-05
-3.50646e-05
5.62841e-05
-3.40135e-05
6.09117e-05
-3.28782e-05
6.58122e-05
-3.16483e-05
7.11588e-05
-3.03253e-05
7.70095e-05
-2.889e-05
8.3212e-05
-2.73393e-05
8.99342e-05
-2.56642e-05
9.73269e-05
-2.38469e-05
0.000105067
-2.18815e-05
0.000113651
-1.97543e-05
0.000122832
-1.74474e-05
0.000132721
-1.49524e-05
0.000143513
-1.22445e-05
0.000154996
-9.3159e-06
0.000167596
-6.1391e-06
0.000180996
-2.69978e-06
0.000195628
1.03103e-06
0.000211292
5.07338e-06
0.000228204
9.445e-06
0.000246485
1.41803e-05
0.000265948
1.9298e-05
0.00028707
2.48315e-05
0.000309626
3.08145e-05
0.00033369
3.72722e-05
0.000359493
4.42367e-05
0.00038692
5.17438e-05
0.000415893
5.98215e-05
0.000446503
6.84973e-05
0.000478617
7.7797e-05
0.000512022
8.77426e-05
0.000546444
9.8345e-05
0.000581486
0.000109613
0.000616588
0.00012153
0.000650985
0.000134079
0.000683656
0.000147199
0.000713261
0.000160803
0.000738037
0.000174801
0.000755793
0.000189018
0.000763641
0.000203229
0.000758066
0.000217078
0.000734721
0.000230185
0.000688625
0.000241924
0.000613521
0.000251753
0.000502811
0.000348027
0.000258934
-4.3357e-05
1.70663e-05
4.36379e-05
-4.30545e-05
1.84503e-05
-4.27234e-05
1.9948e-05
-4.23665e-05
2.1569e-05
-4.19759e-05
2.3324e-05
-4.15542e-05
2.52247e-05
-4.10932e-05
2.72838e-05
-4.05949e-05
2.95151e-05
-4.00502e-05
3.19192e-05
-3.94612e-05
3.45227e-05
-3.88192e-05
3.73533e-05
-3.81262e-05
4.04186e-05
-3.73725e-05
4.37379e-05
-3.65584e-05
4.72917e-05
-3.56727e-05
5.11245e-05
-3.47191e-05
5.53289e-05
-3.36865e-05
5.98804e-05
-3.25704e-05
6.46943e-05
-3.13604e-05
6.99499e-05
-3.00583e-05
7.57056e-05
-2.86453e-05
8.17997e-05
-2.71184e-05
8.84056e-05
-2.54689e-05
9.5678e-05
-2.36796e-05
0.000103276
-2.17446e-05
0.000111717
-1.96509e-05
0.000120737
-1.73806e-05
0.000130451
-1.49258e-05
0.000141058
-1.22622e-05
0.000152332
-9.38215e-06
0.000164715
-6.25877e-06
0.00017787
-2.87794e-06
0.000192247
7.88507e-07
0.000207627
4.76025e-06
0.000224235
9.05467e-06
0.000242193
1.37056e-05
0.000261297
1.87314e-05
0.000282044
2.41651e-05
0.000304192
3.00397e-05
0.000327815
3.638e-05
0.000353153
4.32179e-05
0.000380083
5.05885e-05
0.000408523
5.85195e-05
0.000438572
6.70385e-05
0.000470098
7.61709e-05
0.000502889
8.5939e-05
0.000536676
9.63542e-05
0.000571068
0.000107426
0.000605515
0.000119139
0.000639265
0.000131478
0.000671315
0.000144382
0.000700345
0.000157768
0.000724623
0.000171546
0.00074201
0.000185542
0.000749653
0.000199535
0.000744101
0.00021317
0.000721107
0.00022607
0.000675768
0.000237637
0.000601994
0.000247359
0.000493183
0.000341043
0.000254497
-4.2778e-05
1.67919e-05
4.30532e-05
-4.24822e-05
1.8153e-05
-4.2159e-05
1.96257e-05
-4.18109e-05
2.12193e-05
-4.14305e-05
2.29445e-05
-4.102e-05
2.48126e-05
-4.05716e-05
2.68361e-05
-4.0087e-05
2.90289e-05
-3.95573e-05
3.13906e-05
-3.89842e-05
3.39481e-05
-3.83592e-05
3.67295e-05
-3.76838e-05
3.97419e-05
-3.69487e-05
4.30043e-05
-3.61535e-05
4.64952e-05
-3.52875e-05
5.02599e-05
-3.43538e-05
5.43938e-05
-3.33419e-05
5.88697e-05
-3.22469e-05
6.35977e-05
-3.10589e-05
6.87629e-05
-2.97796e-05
7.44244e-05
-2.83905e-05
8.04115e-05
-2.6889e-05
8.69023e-05
-2.52665e-05
9.40562e-05
-2.35064e-05
0.000101514
-2.16028e-05
0.000109814
-1.95431e-05
0.000118677
-1.731e-05
0.000128218
-1.48958e-05
0.000138644
-1.22765e-05
0.000149712
-9.44488e-06
0.000161883
-6.37451e-06
0.000174798
-3.05182e-06
0.000188923
5.50937e-07
0.000204027
4.45289e-06
0.000220337
8.6711e-06
0.000237977
1.32389e-05
0.000256729
1.81744e-05
0.000277108
2.351e-05
0.000298855
2.92784e-05
0.000322046
3.5504e-05
0.000346927
4.22181e-05
0.000373369
4.94555e-05
0.000401287
5.72438e-05
0.000430786
6.56103e-05
0.000461736
7.45804e-05
0.000493925
8.41765e-05
0.000527089
9.44104e-05
0.000560844
0.000105292
0.00059465
0.000116808
0.000627768
0.000128943
0.000659209
0.000141637
0.000687676
0.000154812
0.000711468
0.000168373
0.000728465
0.000182152
0.000735888
0.000195926
0.000730338
0.000209349
0.000707681
0.000222042