/*--------------------------------*- C++ -*----------------------------------*\
  =========                 |
  \\      /  F ield         | OpenFOAM: The Open Source CFD Toolbox
   \\    /   O peration     | Website:  https://openfoam.org
    \\  /    A nd           | Version:  6.0
     \\/     M anipulation  |
\*---------------------------------------------------------------------------*/
FoamFile
{
    version     2.0;
    format      ascii;
    class       volVectorField;
    location    "16";
    object      U;
}
// * * * * * * * * * * * * * * * * * * * * * * * * * * * * * * * * * * * * * //

dimensions      [0 1 -1 0 0 0 0];

internalField   nonuniform List<vector> 
62000
(
(0.984715 0.174194 -3.36093e-21)
(0.984705 0.174178 2.82354e-21)
(0.984696 0.174165 2.93492e-21)
(0.984689 0.174152 -1.30254e-20)
(0.984685 0.174138 -1.51101e-20)
(0.984682 0.174123 5.27764e-20)
(0.984681 0.174108 -5.88537e-20)
(0.984682 0.174092 3.46546e-20)
(0.984684 0.174076 -1.65284e-20)
(0.984687 0.174059 -8.58707e-20)
(0.984692 0.174043 -1.15857e-20)
(0.984696 0.174027 1.2346e-19)
(0.984702 0.174011 2.57814e-20)
(0.984707 0.173996 -9.13126e-20)
(0.984712 0.173982 1.45066e-19)
(0.984717 0.173969 -7.79318e-20)
(0.984721 0.173958 8.27083e-20)
(0.984726 0.173949 -9.81489e-20)
(0.98473 0.173941 4.96076e-20)
(0.984734 0.173935 -1.55538e-19)
(0.984738 0.17393 2.06137e-19)
(0.984741 0.173927 6.29904e-20)
(0.984745 0.173925 9.28916e-20)
(0.984748 0.173924 -4.21632e-19)
(0.984752 0.173925 1.56966e-19)
(0.984755 0.173926 -9.97026e-20)
(0.984758 0.173929 -2.22622e-21)
(0.98476 0.173933 -8.4471e-20)
(0.984762 0.173938 2.631e-19)
(0.984762 0.173945 -1.51375e-19)
(0.984762 0.173957 3.70266e-19)
(0.984759 0.173969 -7.78124e-19)
(0.984754 0.173983 7.19084e-20)
(0.984748 0.173995 -2.64573e-19)
(0.984736 0.174009 -8.69166e-20)
(0.984717 0.174026 -2.70726e-19)
(0.984693 0.174043 -8.66443e-20)
(0.98466 0.174056 -9.23473e-20)
(0.984619 0.174061 2.66541e-19)
(0.984568 0.174054 1.28259e-18)
(0.984503 0.17403 -3.15631e-19)
(0.984422 0.173983 -1.85357e-18)
(0.984325 0.173907 -3.00765e-18)
(0.984208 0.173794 1.66833e-18)
(0.984069 0.173639 5.07831e-19)
(0.983904 0.173437 -2.46693e-18)
(0.983708 0.173185 5.65068e-19)
(0.983479 0.172877 -1.04852e-18)
(0.983211 0.172504 -4.94534e-18)
(0.982901 0.172045 -1.16004e-18)
(0.98256 0.171465 -5.98545e-19)
(0.982189 0.170748 -7.87781e-18)
(0.981811 0.169822 1.11033e-18)
(0.981471 0.168674 8.94468e-18)
(0.98117 0.16722 2.33439e-18)
(0.980956 0.165407 7.91438e-18)
(0.980819 0.162845 -9.23756e-19)
(0.980804 0.159369 -1.51014e-18)
(0.981315 0.152049 3.52412e-18)
(0.962619 0.134349 6.81817e-19)
(0.984773 0.175323 -9.02115e-22)
(0.984761 0.175308 8.73403e-21)
(0.984745 0.175288 3.68763e-21)
(0.984724 0.175276 -1.59123e-20)
(0.9847 0.175262 6.69834e-21)
(0.984676 0.175248 -4.69807e-20)
(0.984653 0.175235 4.35037e-20)
(0.984631 0.17522 2.56535e-20)
(0.984613 0.175202 -4.85925e-20)
(0.984597 0.175183 2.03824e-21)
(0.984586 0.175162 4.86147e-20)
(0.984579 0.175139 2.69045e-22)
(0.984575 0.175115 1.46415e-20)
(0.984573 0.175089 -1.25961e-19)
(0.984575 0.175064 2.57376e-19)
(0.984578 0.175038 -2.3068e-19)
(0.984583 0.175014 1.10237e-19)
(0.984588 0.17499 -2.34087e-20)
(0.984595 0.174969 -6.55956e-20)
(0.984602 0.174949 1.8529e-19)
(0.984609 0.174931 -2.96864e-19)
(0.984616 0.174915 1.75456e-19)
(0.984623 0.174902 -2.28508e-19)
(0.984629 0.17489 1.37443e-19)
(0.984636 0.174881 1.30963e-19)
(0.98464 0.174872 -8.77203e-20)
(0.984646 0.174868 -1.37517e-21)
(0.984647 0.174864 1.00436e-19)
(0.984649 0.174864 8.68751e-20)
(0.984645 0.174865 -1.85731e-19)
(0.984642 0.174875 3.83272e-19)
(0.984634 0.174888 8.23759e-20)
(0.984625 0.174903 2.54348e-19)
(0.984608 0.174911 2.17156e-20)
(0.984576 0.174916 7.35491e-20)
(0.984527 0.17492 -7.83198e-20)
(0.984467 0.174914 -2.48912e-19)
(0.984394 0.174887 -1.19895e-19)
(0.984308 0.174832 -7.15797e-19)
(0.984204 0.174742 -8.46905e-19)
(0.984081 0.174609 6.70207e-19)
(0.983934 0.174428 4.06194e-19)
(0.983761 0.174193 3.16154e-18)
(0.983557 0.173902 1.9445e-19)
(0.983316 0.173556 -5.09466e-18)
(0.98303 0.173153 2.06139e-18)
(0.982685 0.172693 1.73962e-18)
(0.982274 0.172157 2.08794e-18)
(0.981791 0.171512 4.23261e-19)
(0.981238 0.170707 7.96992e-20)
(0.980654 0.169667 3.62675e-18)
(0.980042 0.168394 9.85845e-18)
(0.979466 0.166804 -6.68247e-18)
(0.979002 0.164918 -1.62685e-17)
(0.978631 0.162638 -3.93457e-18)
(0.978372 0.159912 -2.6171e-18)
(0.978244 0.156042 -6.27451e-18)
(0.977876 0.150981 -3.14329e-18)
(0.979684 0.140475 5.25732e-18)
(0.957854 0.120401 2.13379e-18)
(0.984839 0.175834 -4.4019e-21)
(0.984869 0.175853 -6.43127e-22)
(0.984887 0.175849 6.86355e-22)
(0.984895 0.175852 3.22167e-21)
(0.984892 0.175857 9.27386e-21)
(0.984878 0.175862 -8.88581e-21)
(0.984855 0.175869 4.82226e-20)
(0.984825 0.175876 -2.31541e-20)
(0.984791 0.175883 -1.26144e-20)
(0.984755 0.17589 -7.91928e-20)
(0.98472 0.175896 6.75384e-20)
(0.984686 0.1759 5.06239e-21)
(0.984655 0.175903 -1.59785e-20)
(0.984628 0.175904 4.30981e-20)
(0.984605 0.175903 -7.48889e-20)
(0.984586 0.1759 3.2044e-22)
(0.984572 0.175896 -3.57762e-20)
(0.984561 0.17589 2.47956e-22)
(0.984553 0.175884 8.5341e-20)
(0.984548 0.175875 -1.32578e-19)
(0.984545 0.175867 8.38561e-20)
(0.984544 0.175856 3.34823e-19)
(0.984543 0.175846 -4.28057e-20)
(0.984543 0.175833 -4.82654e-19)
(0.984543 0.175821 2.52113e-19)
(0.984542 0.175807 -1.41159e-19)
(0.984541 0.175794 2.33973e-19)
(0.984536 0.175778 -1.43564e-19)
(0.984531 0.175763 -2.94719e-19)
(0.98452 0.175746 3.222e-19)
(0.984511 0.175735 -2.33146e-19)
(0.984499 0.175725 3.21152e-19)
(0.984485 0.175712 -9.00567e-19)
(0.984461 0.17568 8.00842e-19)
(0.984418 0.175637 -4.27311e-19)
(0.984357 0.175586 1.73952e-19)
(0.984284 0.175518 1.31718e-19)
(0.984202 0.17542 -1.49654e-20)
(0.984111 0.175286 -4.44396e-20)
(0.984007 0.175111 8.65243e-19)
(0.983889 0.174892 -3.53459e-19)
(0.983754 0.174628 5.61489e-19)
(0.9836 0.174321 -2.04021e-18)
(0.983422 0.173977 -1.02638e-18)
(0.983211 0.173604 1.12967e-18)
(0.982957 0.173203 -3.96692e-18)
(0.982646 0.17277 5.37486e-19)
(0.982269 0.172274 -3.52998e-18)
(0.981822 0.171663 5.00367e-18)
(0.981315 0.170875 1.30615e-18)
(0.980807 0.169822 6.94002e-19)
(0.980294 0.168553 -1.8647e-19)
(0.979871 0.167036 2.91955e-18)
(0.979604 0.165349 2.55506e-19)
(0.979469 0.163485 -6.00313e-18)
(0.979397 0.161454 -3.22568e-18)
(0.979465 0.158595 -2.44708e-18)
(0.978627 0.154865 -7.54401e-18)
(0.981275 0.14743 -4.96774e-19)
(0.965466 0.137594 8.07517e-19)
(0.984722 0.176475 -4.42704e-21)
(0.984773 0.176501 1.36654e-20)
(0.984822 0.176503 -2.08959e-21)
(0.98487 0.176503 -1.43416e-20)
(0.984911 0.176502 2.18373e-20)
(0.984941 0.176498 3.81093e-20)
(0.984958 0.176495 -5.00508e-20)
(0.984962 0.176493 5.50199e-21)
(0.984953 0.176492 1.77786e-20)
(0.984932 0.176493 3.74458e-20)
(0.984903 0.176497 -6.97244e-20)
(0.984866 0.176504 -2.18115e-20)
(0.984825 0.176512 -2.47089e-20)
(0.984782 0.176522 1.13543e-19)
(0.984739 0.176533 -7.6644e-20)
(0.984698 0.176546 1.81534e-19)
(0.984659 0.176559 -2.22556e-19)
(0.984625 0.176571 -3.33865e-20)
(0.984594 0.176583 2.41158e-19)
(0.984566 0.176592 -8.49401e-20)
(0.984543 0.176601 -3.1615e-20)
(0.984522 0.176605 -3.44154e-20)
(0.984504 0.176608 -3.18752e-19)
(0.984487 0.176606 1.84704e-19)
(0.984472 0.176601 -8.65471e-20)
(0.984457 0.17659 1.4027e-19)
(0.984442 0.176577 6.69129e-20)
(0.984424 0.176556 3.39031e-19)
(0.984407 0.176532 -2.15367e-19)
(0.984384 0.1765 -2.89165e-19)
(0.984365 0.176469 4.66946e-19)
(0.984342 0.176436 -3.90005e-19)
(0.984318 0.176389 7.29459e-19)
(0.984283 0.176314 -4.4327e-19)
(0.984229 0.176223 1.80429e-19)
(0.984157 0.176119 3.12856e-19)
(0.984075 0.175993 -1.35899e-19)
(0.983986 0.175836 1.75824e-19)
(0.983892 0.175641 -8.42471e-20)
(0.983789 0.175408 2.67956e-19)
(0.983677 0.175136 -7.634e-19)
(0.983553 0.174829 2.15065e-19)
(0.983414 0.174494 4.77035e-19)
(0.983256 0.174136 1.19849e-18)
(0.983068 0.173768 1.59986e-18)
(0.982842 0.173383 3.6588e-19)
(0.982559 0.172973 2.58596e-18)
(0.982211 0.172491 2.84766e-18)
(0.981795 0.171869 3.33668e-18)
(0.981319 0.171034 -2.43626e-18)
(0.98085 0.169891 -3.30731e-18)
(0.980367 0.168511 2.19117e-18)
(0.979981 0.166894 2.98404e-18)
(0.979758 0.165138 7.08844e-18)
(0.979698 0.163295 4.45197e-18)
(0.979674 0.161409 7.48105e-18)
(0.979864 0.158905 1.30808e-17)
(0.978697 0.155513 -1.17646e-18)
(0.981586 0.149583 -7.13684e-18)
(0.969771 0.142769 -5.41452e-18)
(0.984569 0.177393 8.62985e-21)
(0.984569 0.177417 -2.8918e-21)
(0.984588 0.177423 4.91632e-21)
(0.984623 0.17742 -6.96456e-21)
(0.98467 0.17741 1.58037e-20)
(0.984722 0.177393 -7.83981e-21)
(0.984774 0.17737 4.30469e-21)
(0.98482 0.177344 -6.41522e-20)
(0.984856 0.177316 5.41158e-20)
(0.98488 0.177289 -1.09293e-19)
(0.984891 0.177265 1.21147e-19)
(0.984889 0.177243 -1.47652e-20)
(0.984875 0.177227 -3.29723e-20)
(0.984852 0.177215 -1.5283e-20)
(0.98482 0.17721 -3.41866e-21)
(0.984782 0.177209 -1.57575e-19)
(0.984741 0.177214 6.52617e-21)
(0.984697 0.177222 1.74547e-19)
(0.984654 0.177233 -5.75289e-20)
(0.984611 0.177245 -6.15846e-20)
(0.984569 0.177259 1.04139e-19)
(0.98453 0.177269 -5.28508e-20)
(0.984492 0.17728 2.23994e-19)
(0.984455 0.177284 1.25768e-19)
(0.98442 0.177286 9.83139e-20)
(0.984385 0.17728 -3.04561e-19)
(0.984351 0.17727 -4.36285e-20)
(0.984315 0.177248 -2.48412e-19)
(0.984279 0.177221 4.66314e-20)
(0.98424 0.177181 -8.77049e-20)
(0.984203 0.177138 -3.50194e-20)
(0.984163 0.177088 2.90632e-19)
(0.984121 0.177017 -7.29649e-19)
(0.984069 0.176912 -3.22943e-20)
(0.983999 0.176789 -3.71539e-19)
(0.983913 0.17665 -1.81262e-19)
(0.983817 0.176489 5.24124e-20)
(0.983717 0.176295 -5.92472e-19)
(0.983611 0.176064 9.20771e-19)
(0.9835 0.175798 1.5234e-19)
(0.983382 0.175496 1.0388e-18)
(0.983255 0.175163 -7.79617e-19)
(0.983117 0.174807 -5.36091e-19)
(0.982964 0.174434 -2.06749e-19)
(0.982786 0.174052 1.18819e-18)
(0.982574 0.173651 1.74718e-18)
(0.982309 0.173217 4.36988e-19)
(0.981982 0.172695 7.45357e-19)
(0.981586 0.172008 -1.15332e-18)
(0.981117 0.171075 6.21934e-18)
(0.980637 0.169788 1.56661e-18)
(0.980103 0.168217 -1.59243e-18)
(0.97963 0.166356 4.7552e-19)
(0.979285 0.164279 5.66248e-18)
(0.979113 0.162047 -3.27554e-19)
(0.978973 0.15971 -5.85218e-18)
(0.979181 0.156799 -1.37581e-17)
(0.977876 0.152841 1.24899e-17)
(0.980547 0.146742 -7.7676e-18)
(0.97207 0.139603 6.49393e-18)
(0.984619 0.178115 -3.31116e-21)
(0.984544 0.178157 1.34611e-20)
(0.984491 0.178182 -2.23397e-20)
(0.98446 0.178202 1.68065e-20)
(0.984454 0.178212 1.10258e-20)
(0.984469 0.178211 -1.17435e-20)
(0.984502 0.178201 9.97264e-22)
(0.984546 0.178182 -8.98946e-21)
(0.984596 0.178156 -3.05524e-20)
(0.984646 0.178125 5.90554e-20)
(0.984691 0.178092 -9.24666e-20)
(0.984727 0.178058 8.15692e-20)
(0.984753 0.178026 7.27301e-20)
(0.984766 0.177998 -1.13371e-19)
(0.984767 0.177976 -3.74989e-20)
(0.984756 0.177959 1.41706e-19)
(0.984735 0.177949 -1.73302e-19)
(0.984705 0.177944 2.42019e-19)
(0.984669 0.177945 -4.60976e-20)
(0.984626 0.177949 2.70909e-20)
(0.98458 0.177956 -4.32858e-20)
(0.98453 0.177963 -5.52064e-20)
(0.984479 0.177971 -1.04507e-19)
(0.984426 0.177974 1.83152e-19)
(0.984373 0.177975 -1.27052e-19)
(0.984318 0.177968 -1.26928e-19)
(0.984262 0.177957 2.64364e-19)
(0.984205 0.177932 -2.58615e-19)
(0.984147 0.177901 4.18764e-19)
(0.984086 0.177853 -2.26214e-19)
(0.984027 0.177801 1.78553e-19)
(0.983965 0.177739 -3.0758e-19)
(0.983901 0.17765 3.35782e-19)
(0.983828 0.177526 -2.58474e-20)
(0.98374 0.177383 -1.56201e-20)
(0.983638 0.177224 -6.91943e-21)
(0.983528 0.177041 -1.80889e-19)
(0.983414 0.176825 5.26531e-19)
(0.983298 0.176573 -4.08716e-19)
(0.983179 0.176284 -2.38662e-18)
(0.983058 0.175961 -1.0223e-18)
(0.982934 0.175607 7.38232e-19)
(0.982807 0.17523 -8.37005e-19)
(0.982674 0.174833 -9.40994e-19)
(0.982529 0.174427 -8.22903e-20)
(0.982366 0.174001 2.45006e-18)
(0.982167 0.173542 -3.61276e-18)
(0.981921 0.172999 -3.68098e-18)
(0.981617 0.1723 -2.46797e-18)
(0.981238 0.171366 -4.17206e-18)
(0.980832 0.170086 2.68383e-18)
(0.980323 0.168516 -1.09435e-18)
(0.979813 0.166629 -9.11301e-18)
(0.979365 0.16445 1.71894e-18)
(0.97906 0.162018 2.78323e-18)
(0.97876 0.159369 -5.24616e-18)
(0.978908 0.156158 3.81937e-18)
(0.977525 0.151817 3.52472e-18)
(0.979654 0.145579 1.25071e-17)
(0.97453 0.139204 -8.53054e-20)
(0.984914 0.178468 3.95075e-21)
(0.984818 0.17854 -1.7937e-20)
(0.984721 0.178591 8.78484e-21)
(0.98463 0.178646 1.65701e-20)
(0.984554 0.178695 -3.58282e-20)
(0.984498 0.178736 3.02451e-20)
(0.984465 0.178768 -2.03413e-20)
(0.984455 0.17879 1.73688e-20)
(0.984464 0.178802 2.79763e-20)
(0.984487 0.178804 -6.77296e-20)
(0.98452 0.1788 9.85806e-20)
(0.984556 0.17879 4.2214e-20)
(0.984591 0.178776 -1.69258e-19)
(0.984621 0.17876 -3.20968e-20)
(0.984642 0.178746 9.13835e-20)
(0.984653 0.178733 5.94674e-20)
(0.984653 0.178724 -7.26622e-20)
(0.98464 0.178717 6.44451e-20)
(0.984617 0.178715 1.00948e-19)
(0.984584 0.178715 -4.90142e-20)
(0.984541 0.178718 -2.83854e-20)
(0.984491 0.178719 1.03608e-19)
(0.984434 0.178722 2.16234e-19)
(0.984371 0.178719 -1.56399e-19)
(0.984304 0.178715 -1.76914e-19)
(0.984232 0.178702 1.99043e-19)
(0.984157 0.178684 -1.55041e-19)
(0.984079 0.178652 -6.57259e-20)
(0.983999 0.178612 5.4466e-19)
(0.983916 0.178555 -2.42751e-19)
(0.983833 0.178491 -1.93677e-19)
(0.983746 0.178416 2.56851e-19)
(0.983659 0.178312 1.80795e-19)
(0.983564 0.178173 -1.59647e-19)
(0.983458 0.178013 -1.09154e-19)
(0.983339 0.177838 3.55236e-19)
(0.983214 0.177637 8.26115e-20)
(0.983087 0.177401 1.18836e-19)
(0.982961 0.177128 -6.6183e-19)
(0.982835 0.176815 -6.61052e-19)
(0.982711 0.176465 1.29068e-18)
(0.982593 0.17608 1.06152e-18)
(0.98248 0.175667 1.82729e-18)
(0.982377 0.17523 -1.71083e-18)
(0.982279 0.174781 -1.94176e-18)
(0.982186 0.174315 -1.30234e-18)
(0.982085 0.173826 3.23493e-18)
(0.981967 0.173278 3.19293e-18)
(0.981816 0.172616 -3.55058e-18)
(0.981605 0.171777 -5.21803e-18)
(0.981364 0.170657 -9.77279e-19)
(0.980985 0.169302 1.0456e-18)
(0.980548 0.16766 1.46884e-19)
(0.980095 0.165695 -3.26292e-18)
(0.979726 0.163406 2.90246e-18)
(0.979292 0.160789 1.7878e-18)
(0.979329 0.157596 2.68303e-18)
(0.977859 0.153184 -1.08314e-17)
(0.979265 0.147047 -7.57281e-19)
(0.976592 0.141335 2.36775e-19)
(0.985263 0.17875 -6.72839e-21)
(0.985228 0.178832 -5.42782e-21)
(0.985161 0.178897 7.38143e-21)
(0.98507 0.178972 2.63953e-20)
(0.984967 0.179048 -5.72605e-20)
(0.984865 0.179122 6.59718e-20)
(0.98477 0.179194 -2.95603e-21)
(0.984691 0.179258 -4.14457e-21)
(0.984631 0.179315 -2.4034e-20)
(0.984589 0.179362 5.87767e-20)
(0.984566 0.179402 -9.11796e-20)
(0.984556 0.179432 3.45935e-20)
(0.984556 0.179455 -1.16468e-21)
(0.984561 0.179472 5.49544e-20)
(0.984566 0.179485 2.63637e-20)
(0.984569 0.179495 -1.41203e-19)
(0.984565 0.179503 1.2349e-19)
(0.984553 0.17951 4.90275e-20)
(0.984532 0.179517 -1.42024e-19)
(0.984499 0.179521 7.02243e-20)
(0.984457 0.179526 3.30771e-20)
(0.984405 0.179527 -2.17183e-20)
(0.984343 0.179527 2.84642e-20)
(0.984273 0.17952 -1.59379e-20)
(0.984195 0.17951 -1.91661e-19)
(0.98411 0.179488 1.27892e-19)
(0.984019 0.179462 -1.98108e-19)
(0.983924 0.179419 3.69859e-19)
(0.983824 0.179367 -7.00722e-20)
(0.98372 0.179297 -4.23476e-20)
(0.983615 0.179219 -1.12688e-20)
(0.983505 0.179129 4.23139e-19)
(0.983394 0.179009 -1.69545e-19)
(0.983279 0.178853 -1.01607e-19)
(0.983152 0.178677 2.70981e-19)
(0.983015 0.178483 2.34924e-19)
(0.982871 0.178261 -3.94727e-19)
(0.982725 0.178001 7.0617e-20)
(0.982579 0.177699 7.91941e-19)
(0.982436 0.177352 -6.77735e-20)
(0.982297 0.176959 5.2673e-19)
(0.982166 0.176523 -7.88599e-19)
(0.982048 0.176048 1.20889e-18)
(0.981948 0.175539 2.71447e-18)
(0.981868 0.175008 7.97968e-19)
(0.981815 0.174458 -1.13924e-18)
(0.981778 0.173894 -3.54899e-18)
(0.981757 0.173297 7.25652e-19)
(0.981734 0.172636 1.08459e-18)
(0.981677 0.171872 2.2141e-18)
(0.981605 0.170913 -1.90813e-19)
(0.981382 0.169804 -4.39141e-18)
(0.981063 0.16847 3.86033e-18)
(0.980663 0.166812 -2.65863e-18)
(0.980291 0.164775 5.42151e-18)
(0.97978 0.162292 1.36753e-18)
(0.979708 0.159173 6.3254e-18)
(0.978209 0.154662 8.67229e-18)
(0.978929 0.148424 1.55638e-18)
(0.977274 0.141928 2.40437e-18)
(0.985387 0.179372 -3.27753e-21)
(0.985471 0.179436 2.82976e-21)
(0.985501 0.179489 1.43146e-20)
(0.985484 0.179553 2.28003e-20)
(0.985426 0.179624 -6.77599e-20)
(0.98534 0.179699 3.92038e-20)
(0.985235 0.179776 -7.05719e-20)
(0.985124 0.179853 1.11026e-19)
(0.985015 0.179928 -5.23151e-20)
(0.984915 0.179999 9.28769e-21)
(0.984827 0.180065 1.02085e-19)
(0.984754 0.180123 -2.33563e-19)
(0.984693 0.180174 1.60057e-19)
(0.984645 0.180219 2.26736e-20)
(0.984604 0.180257 3.68313e-20)
(0.984568 0.180288 -1.55052e-19)
(0.984534 0.180316 7.66709e-20)
(0.984497 0.180337 -9.55681e-20)
(0.984456 0.180356 1.8994e-19)
(0.984408 0.180368 -2.50934e-20)
(0.984353 0.180378 -2.44011e-19)
(0.984289 0.18038 9.75794e-20)
(0.984217 0.180379 -5.54551e-21)
(0.984135 0.180368 -3.66268e-19)
(0.984046 0.180351 2.73815e-19)
(0.983948 0.180322 2.08454e-19)
(0.983843 0.180285 1.44095e-19)
(0.983732 0.18023 -1.87525e-19)
(0.983615 0.180164 -2.11135e-19)
(0.983493 0.180078 9.96307e-20)
(0.983368 0.179984 1.48986e-19)
(0.983238 0.179877 -1.88359e-19)
(0.983105 0.179739 -2.84779e-19)
(0.982968 0.179565 5.77397e-19)
(0.98282 0.179369 6.56741e-20)
(0.982659 0.179153 -8.81857e-19)
(0.982489 0.178906 7.55159e-20)
(0.982314 0.178616 6.02057e-19)
(0.982137 0.178276 5.31135e-20)
(0.981958 0.177883 8.24742e-19)
(0.981781 0.177433 -1.20557e-18)
(0.981609 0.176925 -8.91062e-20)
(0.981447 0.176362 -8.13905e-19)
(0.981305 0.175746 3.33445e-19)
(0.981187 0.175091 1.4235e-18)
(0.981105 0.174401 4.51e-18)
(0.981056 0.173695 6.33836e-19)
(0.981044 0.172968 -3.00311e-18)
(0.981057 0.17221 2.38322e-18)
(0.981064 0.171408 8.37803e-18)
(0.981079 0.170485 -6.77834e-18)
(0.980951 0.169488 8.14247e-18)
(0.980721 0.168324 -5.0126e-18)
(0.980383 0.166841 -2.85298e-18)
(0.980048 0.164931 -1.12828e-17)
(0.979534 0.162456 -6.36288e-19)
(0.979425 0.159263 -3.80155e-18)
(0.978044 0.154476 -4.33548e-18)
(0.978326 0.147834 3.53513e-18)
(0.976697 0.139629 6.56645e-19)
(0.985115 0.180511 4.53463e-21)
(0.985323 0.180536 1.59151e-21)
(0.985477 0.180556 -1.65811e-20)
(0.985577 0.180584 1.58807e-20)
(0.985621 0.180621 -7.07099e-21)
(0.985615 0.180664 1.27096e-20)
(0.985567 0.180713 4.3777e-21)
(0.985485 0.180767 -6.41303e-20)
(0.985382 0.180825 2.80073e-20)
(0.985267 0.180883 -1.91201e-20)
(0.985147 0.180942 1.16908e-20)
(0.98503 0.180998 4.55394e-20)
(0.98492 0.181051 -8.57272e-21)
(0.984819 0.1811 2.80886e-20)
(0.984726 0.181144 -1.19394e-19)
(0.98464 0.181182 4.62804e-20)
(0.98456 0.181215 2.04923e-20)
(0.984484 0.181242 -5.59969e-20)
(0.984408 0.181263 1.11678e-19)
(0.98433 0.181277 3.69066e-20)
(0.984249 0.181286 -4.08032e-21)
(0.984163 0.181285 -4.04612e-20)
(0.984071 0.181279 1.64237e-19)
(0.983972 0.181261 -4.55479e-19)
(0.983867 0.181236 2.37542e-19)
(0.983754 0.181196 1.0167e-19)
(0.983633 0.181147 -1.73189e-19)
(0.983507 0.181078 3.1005e-19)
(0.983374 0.180997 -1.50778e-19)
(0.983236 0.180893 -8.10686e-20)
(0.983093 0.180781 -1.62753e-19)
(0.982943 0.180655 -6.65741e-20)
(0.98279 0.180498 1.84727e-19)
(0.98263 0.180304 -5.61512e-19)
(0.982457 0.180087 1.05131e-18)
(0.982269 0.179847 -6.69008e-20)
(0.982068 0.179573 5.57414e-19)
(0.981857 0.179249 -1.42007e-18)
(0.981637 0.178867 -4.6458e-19)
(0.981409 0.178421 -6.84457e-21)
(0.981175 0.177906 -3.61727e-19)
(0.980936 0.177317 -6.84863e-20)
(0.9807 0.176652 -1.39792e-18)
(0.980476 0.175911 4.77703e-19)
(0.980269 0.175106 7.26927e-19)
(0.980096 0.174242 -4.21445e-18)
(0.979958 0.173343 5.57405e-18)
(0.979867 0.172416 8.56176e-19)
(0.979816 0.171467 3.27031e-19)
(0.979781 0.170503 -5.82795e-18)
(0.979781 0.169463 2.012e-18)
(0.979664 0.168396 -4.30594e-18)
(0.979464 0.167201 8.80684e-18)
(0.97917 0.165687 1.70926e-18)
(0.978898 0.163704 -7.92912e-18)
(0.978463 0.16106 2.98147e-18)
(0.978422 0.157646 -8.69343e-18)
(0.977336 0.152507 -1.96374e-18)
(0.977524 0.145388 -1.33032e-17)
(0.975745 0.135673 -3.2442e-18)
(0.984457 0.182111 -9.88405e-22)
(0.984748 0.182097 -3.89282e-21)
(0.985005 0.182079 -3.39603e-21)
(0.985221 0.182062 3.29497e-20)
(0.985384 0.182051 -1.83704e-20)
(0.985491 0.182044 -2.21299e-20)
(0.985544 0.182044 -8.34329e-21)
(0.985546 0.182049 -3.44451e-20)
(0.985505 0.182061 2.16519e-20)
(0.98543 0.182079 3.15037e-21)
(0.985329 0.182101 1.11597e-21)
(0.985213 0.182125 9.3732e-20)
(0.985088 0.182151 -6.68219e-20)
(0.98496 0.182177 -8.30841e-21)
(0.984834 0.182202 7.73835e-20)
(0.984711 0.182224 -4.28378e-20)
(0.984592 0.182244 -1.65249e-20)
(0.984476 0.182258 2.69808e-20)
(0.984364 0.182267 8.72355e-20)
(0.984252 0.18227 4.84437e-20)
(0.98414 0.182267 1.81279e-20)
(0.984027 0.182254 -1.22966e-19)
(0.98391 0.182235 6.26446e-20)
(0.983789 0.182204 1.22224e-19)
(0.983663 0.182165 -2.54761e-19)
(0.983532 0.18211 8.298e-20)
(0.983395 0.182045 -3.30954e-19)
(0.983252 0.181959 2.71642e-19)
(0.983103 0.18186 2.42422e-19)
(0.982948 0.181738 -3.78097e-19)
(0.982788 0.181606 -1.81989e-19)
(0.98262 0.18146 2.47439e-19)
(0.982446 0.181283 8.33609e-20)
(0.982264 0.181068 -2.35036e-19)
(0.982065 0.180829 -2.92787e-19)
(0.981848 0.180566 -3.5298e-19)
(0.981614 0.180263 2.14857e-19)
(0.981364 0.179905 5.29585e-19)
(0.981099 0.179483 1.84736e-19)
(0.980817 0.178987 -1.89976e-19)
(0.980519 0.17841 2.03453e-18)
(0.980207 0.177743 -1.89705e-19)
(0.979885 0.176982 2.29126e-18)
(0.979561 0.17612 -4.31122e-18)
(0.979243 0.175167 6.79361e-19)
(0.978947 0.174126 1.26875e-19)
(0.978678 0.173023 -2.88446e-19)
(0.978453 0.171869 -4.02578e-18)
(0.978274 0.170684 -6.66655e-18)
(0.978124 0.169483 6.17733e-18)
(0.978033 0.16822 8.31187e-18)
(0.977859 0.166947 4.52042e-18)
(0.977642 0.165562 -8.68072e-18)
(0.977376 0.163851 4.72648e-18)
(0.977189 0.161647 1.15643e-17)
(0.976904 0.158725 5.0737e-18)
(0.977029 0.155035 8.4799e-18)
(0.976365 0.14962 4.28209e-18)
(0.976772 0.142197 1.27122e-17)
(0.975275 0.131784 -9.31693e-18)
(0.983549 0.183977 1.24481e-21)
(0.983863 0.183934 -3.7473e-21)
(0.98417 0.183887 1.34025e-20)
(0.984461 0.183833 3.49551e-21)
(0.98472 0.183781 -1.8559e-20)
(0.984934 0.183727 -2.14314e-20)
(0.985097 0.183676 5.09652e-20)
(0.985206 0.183628 -5.58609e-20)
(0.985261 0.183585 -1.37795e-20)
(0.985267 0.183548 3.47577e-20)
(0.985231 0.183516 3.23129e-20)
(0.98516 0.18349 9.86548e-20)
(0.985064 0.183469 -5.58455e-20)
(0.984949 0.183451 -9.62066e-20)
(0.984822 0.183437 2.12302e-20)
(0.984689 0.183423 -7.92949e-20)
(0.984552 0.183411 5.97125e-20)
(0.984414 0.183396 -1.01031e-19)
(0.984276 0.183378 1.63743e-20)
(0.984139 0.183356 -3.33404e-20)
(0.984001 0.183329 -2.12432e-20)
(0.983862 0.183294 -9.33908e-20)
(0.983722 0.183252 8.18299e-21)
(0.983579 0.1832 2.03882e-19)
(0.983433 0.18314 -6.96569e-20)
(0.983283 0.183065 2.18889e-20)
(0.983128 0.18298 6.44376e-20)
(0.982968 0.182874 -8.79476e-20)
(0.982803 0.182754 -1.82521e-20)
(0.982632 0.182611 1.27371e-19)
(0.982455 0.182457 1.43477e-19)
(0.982269 0.182289 -1.09887e-19)
(0.982075 0.182092 -3.49345e-19)
(0.98187 0.181856 -4.92856e-19)
(0.981647 0.181595 7.59584e-19)
(0.981402 0.181308 2.02816e-19)
(0.981136 0.18098 1.24252e-19)
(0.980851 0.180592 6.69925e-19)
(0.980545 0.180135 -6.36194e-19)
(0.980216 0.179598 3.99537e-19)
(0.979862 0.178971 -2.22069e-21)
(0.979484 0.178242 4.99024e-20)
(0.979085 0.177403 -8.43198e-19)
(0.97867 0.176445 1.97089e-18)
(0.978247 0.17537 -2.71685e-18)
(0.977832 0.174181 1.72908e-18)
(0.97743 0.1729 -5.11488e-18)
(0.977062 0.171541 1.47392e-18)
(0.976736 0.170126 3.53763e-18)
(0.976446 0.168676 -6.27567e-18)
(0.976235 0.167154 -1.51221e-18)
(0.975974 0.165614 -2.89323e-19)
(0.975718 0.163963 -1.71527e-18)
(0.975474 0.161974 -5.17082e-18)
(0.975388 0.159484 3.19721e-19)
(0.975299 0.15626 5.05628e-18)
(0.975651 0.152326 -5.18749e-18)
(0.975458 0.146788 -1.41148e-18)
(0.976284 0.139331 -1.77925e-18)
(0.975681 0.12903 6.91002e-18)
(0.982558 0.185926 2.24361e-21)
(0.982833 0.185875 -1.9037e-21)
(0.983132 0.185813 1.73998e-21)
(0.983442 0.18574 1.12061e-20)
(0.983747 0.18566 1.63478e-20)
(0.984031 0.185572 -6.41115e-20)
(0.984281 0.185481 4.65695e-20)
(0.984486 0.185387 9.73079e-21)
(0.984642 0.185294 -2.95054e-21)
(0.984745 0.185203 -2.12607e-20)
(0.984798 0.185116 6.5554e-20)
(0.984805 0.185034 -2.14729e-20)
(0.984772 0.184958 -2.98685e-20)
(0.984705 0.184887 -8.94459e-20)
(0.984613 0.184821 1.80166e-19)
(0.984501 0.18476 -3.75565e-20)
(0.984374 0.184702 -3.17597e-20)
(0.984238 0.184645 -9.42319e-20)
(0.984095 0.184588 1.04625e-19)
(0.983948 0.184529 5.84446e-20)
(0.983797 0.184468 -2.62312e-20)
(0.983644 0.184401 4.71006e-20)
(0.983488 0.18433 -2.00067e-19)
(0.983329 0.184249 1.33694e-20)
(0.983166 0.184161 1.12594e-19)
(0.983 0.18406 -2.1744e-20)
(0.982829 0.18395 -3.51834e-19)
(0.982654 0.18382 3.09844e-20)
(0.982473 0.183676 3.19551e-19)
(0.982287 0.18351 -8.48656e-20)
(0.982093 0.183333 -1.70275e-19)
(0.981891 0.183142 9.72298e-20)
(0.981678 0.182923 3.00661e-19)
(0.981451 0.182666 7.11426e-19)
(0.981204 0.182384 -1.10518e-19)
(0.980936 0.182076 1.48186e-19)
(0.980645 0.181725 -1.12177e-18)
(0.980332 0.181313 -3.40713e-19)
(0.979995 0.18083 2.18052e-19)
(0.979631 0.180263 -9.11061e-19)
(0.979238 0.179601 -2.16863e-19)
(0.978814 0.178831 4.54539e-19)
(0.97836 0.177942 3.52841e-19)
(0.97788 0.17692 1.09822e-18)
(0.977379 0.175765 3.91298e-18)
(0.976871 0.174474 -3.28689e-18)
(0.976364 0.173065 5.49175e-18)
(0.975877 0.17155 4.40269e-18)
(0.975423 0.169949 -1.50523e-20)
(0.975007 0.168286 6.15407e-18)
(0.974681 0.166524 -8.62045e-18)
(0.974336 0.164723 -1.05124e-17)
(0.974043 0.162795 8.30185e-18)
(0.973826 0.16052 7.19633e-18)
(0.973851 0.157747 -3.03999e-18)
(0.973978 0.154255 -1.71417e-17)
(0.974574 0.150143 4.03964e-18)
(0.974834 0.144625 -4.05763e-18)
(0.976152 0.137365 -6.13796e-18)
(0.976944 0.127686 5.20021e-18)
(0.981621 0.187805 -2.33103e-21)
(0.981815 0.187756 2.56423e-21)
(0.982055 0.187693 1.74675e-20)
(0.982331 0.187616 -2.29068e-20)
(0.982629 0.187527 4.17403e-20)
(0.982932 0.187424 -6.1584e-20)
(0.983226 0.187311 1.74973e-20)
(0.983495 0.18719 -8.54999e-22)
(0.983729 0.187062 3.91508e-20)
(0.983919 0.186931 -2.06958e-20)
(0.984062 0.1868 6.09836e-21)
(0.984156 0.186669 6.38285e-21)
(0.984203 0.186542 -9.97565e-20)
(0.984207 0.186419 3.00224e-20)
(0.984174 0.186301 6.98333e-20)
(0.98411 0.186189 2.11542e-21)
(0.98402 0.186081 -1.17827e-19)
(0.98391 0.185977 4.77916e-20)
(0.983784 0.185875 2.26387e-19)
(0.983647 0.185774 -1.48077e-19)
(0.9835 0.185672 -1.12843e-19)
(0.983345 0.185567 9.66421e-20)
(0.983185 0.18546 6.15708e-20)
(0.983019 0.185345 6.97817e-20)
(0.982848 0.185225 -1.35114e-19)
(0.982671 0.185094 -2.95203e-19)
(0.98249 0.184955 2.24178e-19)
(0.982303 0.184797 3.25397e-19)
(0.982109 0.184627 8.92404e-20)
(0.98191 0.184435 -1.74688e-19)
(0.981702 0.184234 8.37164e-20)
(0.981484 0.184019 1.38846e-19)
(0.981254 0.183778 -2.45042e-19)
(0.981008 0.1835 -4.04593e-20)
(0.980743 0.183197 -4.40512e-19)
(0.980456 0.182869 -1.28296e-19)
(0.980147 0.182499 -1.12958e-19)
(0.979815 0.182069 3.18555e-19)
(0.97946 0.181567 -4.34356e-19)
(0.979078 0.180982 1.38272e-19)
(0.978663 0.180301 2.14471e-19)
(0.978215 0.179512 5.67682e-20)
(0.977732 0.178599 -1.56169e-18)
(0.977217 0.177547 -2.26188e-18)
(0.976673 0.176353 -2.15938e-18)
(0.976111 0.175008 4.36362e-18)
(0.975537 0.173526 -4.29916e-20)
(0.974972 0.171914 -2.00497e-18)
(0.97443 0.170187 1.08204e-18)
(0.973923 0.168366 -7.09874e-18)
(0.973514 0.166415 3.59137e-18)
(0.973111 0.164391 1.00948e-17)
(0.972799 0.16222 -7.83556e-19)
(0.972621 0.159689 -9.12796e-18)
(0.972758 0.156671 4.40856e-18)
(0.973099 0.152967 4.17999e-18)
(0.973926 0.14874 5.00674e-18)
(0.974575 0.143331 1.10869e-17)
(0.976365 0.136394 1.03182e-17)
(0.978782 0.127515 -1.17384e-17)
(0.980826 0.189542 -1.89893e-21)
(0.980918 0.189503 2.75357e-21)
(0.98107 0.189449 5.70036e-22)
(0.981273 0.189378 1.05035e-20)
(0.981518 0.189292 -1.60046e-20)
(0.981793 0.189189 -3.29114e-20)
(0.982082 0.189071 1.18157e-20)
(0.982371 0.188938 -1.5778e-20)
(0.982646 0.188794 3.4451e-20)
(0.982894 0.18864 -6.99595e-21)
(0.983106 0.18848 -2.3017e-20)
(0.983277 0.188316 1.91873e-20)
(0.983402 0.18815 3.12265e-20)
(0.983483 0.187985 8.63568e-20)
(0.98352 0.187823 -1.57391e-19)
(0.983519 0.187665 8.0752e-20)
(0.983483 0.187511 1.25085e-20)
(0.983417 0.18736 -8.02718e-20)
(0.983327 0.187213 -5.02732e-20)
(0.983217 0.187067 1.65635e-19)
(0.98309 0.186923 -1.74173e-19)
(0.98295 0.186777 5.23801e-20)
(0.982798 0.186631 -1.42428e-19)
(0.982636 0.18648 2.37048e-19)
(0.982466 0.186325 -4.81409e-20)
(0.982288 0.186161 -1.36366e-19)
(0.982102 0.185991 1.09953e-19)
(0.981909 0.185803 2.08766e-19)
(0.981707 0.185605 -2.00383e-19)
(0.981499 0.185386 1.25023e-19)
(0.98128 0.185159 -4.23097e-19)
(0.98105 0.18492 -4.88402e-20)
(0.980806 0.184655 1.88307e-19)
(0.980545 0.184356 -1.08952e-19)
(0.980265 0.184033 -2.2056e-19)
(0.979965 0.183688 -5.34452e-19)
(0.979645 0.183301 6.83545e-19)
(0.979305 0.182857 -2.62326e-19)
(0.978943 0.182342 2.13657e-19)
(0.978555 0.181749 4.30638e-19)
(0.978136 0.181062 3.31853e-19)
(0.977683 0.180269 -2.31575e-19)
(0.977196 0.179354 8.62885e-19)
(0.976674 0.1783 1.68849e-18)
(0.976117 0.1771 -1.68049e-19)
(0.975537 0.175741 -2.55159e-18)
(0.974936 0.174233 -3.661e-18)
(0.974335 0.172575 -3.13231e-19)
(0.973749 0.170777 2.84955e-18)
(0.973194 0.168855 -3.76363e-19)
(0.972741 0.166767 5.68568e-18)
(0.972312 0.164571 -9.42175e-18)
(0.972005 0.162203 -5.23545e-18)
(0.971881 0.159462 -1.85259e-18)
(0.972131 0.156244 -4.4518e-18)
(0.97267 0.152378 2.86268e-18)
(0.973699 0.148076 -3.806e-18)
(0.974659 0.142806 -1.40732e-17)
(0.976849 0.136216 -1.56464e-17)
(0.980873 0.128087 6.04319e-18)
(0.980202 0.1911 -2.75123e-21)
(0.980192 0.191072 2.23095e-21)
(0.980244 0.19103 1.75853e-21)
(0.980354 0.190972 -1.26137e-20)
(0.980518 0.190899 1.30523e-20)
(0.980728 0.190807 -6.45833e-21)
(0.980972 0.190698 2.10513e-20)
(0.981239 0.19057 -3.14318e-20)
(0.981513 0.190426 1.78738e-21)
(0.981782 0.190266 2.39346e-21)