/*--------------------------------*- C++ -*----------------------------------*\
  =========                 |
  \\      /  F ield         | OpenFOAM: The Open Source CFD Toolbox
   \\    /   O peration     | Website:  https://openfoam.org
    \\  /    A nd           | Version:  6.0
     \\/     M anipulation  |
\*---------------------------------------------------------------------------*/
FoamFile
{
    version     2.0;
    format      ascii;
    class       surfaceScalarField;
    location    "18";
    object      phi;
}
// * * * * * * * * * * * * * * * * * * * * * * * * * * * * * * * * * * * * * //

dimensions      [0 3 -1 0 0 0 0];

internalField   nonuniform List<scalar> 
9714
(
-0.000106748
8.23679e-05
0.000112765
-9.83955e-05
0.000114502
-8.67611e-05
0.000159177
-7.05584e-05
0.000221296
-4.78946e-05
0.000307601
-1.61038e-05
0.000427446
2.86312e-05
0.000593616
9.15234e-05
0.000823433
0.000179615
0.00113915
0.000302101
0.00156636
0.000469808
0.00212575
0.000692715
0.00280489
0.000970959
0.00347953
0.00127057
0.00371703
0.0023796
0.00144252
-0.000100493
7.67945e-05
0.000106071
-9.27435e-05
0.000106754
-8.19605e-05
0.000148395
-6.6935e-05
0.000206274
-4.59244e-05
0.000286593
-1.64515e-05
0.000397976
2.50114e-05
0.000552156
8.32948e-05
0.000765153
0.000164926
0.00105752
0.000278403
0.00145289
0.000433774
0.0019704
0.000640306
0.00259839
0.000898088
0.00322181
0.00117306
0.0034422
0.00221656
0.00133656
-9.4707e-05
7.16323e-05
9.98739e-05
-8.75296e-05
9.95777e-05
-7.75381e-05
0.000138405
-6.36148e-05
0.000192355
-4.4144e-05
0.000267125
-1.68334e-05
0.000370666
2.1587e-05
0.000513738
7.55883e-05
0.000711155
0.000151213
0.000981901
0.000256352
0.00134777
0.000400314
0.00182644
0.00059171
0.00240699
0.000830666
0.00298284
0.00108599
0.00318685
0.00206076
0.00124157
-8.92964e-05
6.6849e-05
9.40702e-05
-8.26436e-05
9.29276e-05
-7.33955e-05
0.000129148
-6.04933e-05
0.000179457
-4.24553e-05
0.000249087
-1.71495e-05
0.000345361
1.84472e-05
0.000478142
6.84772e-05
0.000661127
0.00013855
0.000911839
0.000235965
0.00125035
0.000369387
0.00169304
0.000546797
0.00222961
0.000768378
0.00276131
0.00100568
0.00294967
0.00191431
0.00115251
-8.41914e-05
6.24195e-05
8.86286e-05
-7.8026e-05
8.677e-05
-6.94574e-05
0.000120577
-5.75071e-05
0.000167514
-4.08016e-05
0.000232382
-1.7366e-05
0.000321926
1.56064e-05
0.000445171
6.19529e-05
0.000614784
0.000126863
0.000846925
0.00021713
0.0011601
0.00034077
0.0015694
0.00050521
0.00206515
0.000710639
0.00255586
0.00093102
0.00272922
0.00177592
0.00106912
-7.94462e-05
5.83105e-05
8.35265e-05
-7.37328e-05
8.10579e-05
-6.57961e-05
0.000112628
-5.47173e-05
0.00015644
-3.92356e-05
0.000216899
-1.75198e-05
0.00030021
1.30251e-05
0.000414626
5.59537e-05
0.000571853
0.000116088
0.000786799
0.000199703
0.00107647
0.000314264
0.00145485
0.000466664
0.00191277
0.000657081
0.00236548
0.000861664
0.00252476
0.00164654
0.000991368
-7.49595e-05
5.45064e-05
7.87795e-05
-6.96576e-05
7.577e-05
-6.23032e-05
0.000105269
-5.2043e-05
0.000146188
-3.77084e-05
0.000202563
-1.76012e-05
0.000280101
1.06867e-05
0.000386338
5.04489e-05
0.000532093
0.00010614
0.000731102
0.000183602
0.000999029
0.000289732
0.00134871
0.000430955
0.00177152
0.000607458
0.00218893
0.000797304
0.0023348
0.00152481
0.000918662
-7.08256e-05
5.09754e-05
7.43165e-05
-6.59163e-05
7.08606e-05
-5.91015e-05
9.84383e-05
-4.95846e-05
0.000136675
-3.62921e-05
0.000189267
-1.76534e-05
0.000261461
8.55518e-06
0.000360128
4.53844e-05
0.000495262
9.69749e-05
0.00067952
0.000168715
0.000927274
0.000267034
0.0012504
0.000397894
0.00164067
0.000561504
0.00202535
0.000737624
0.00215881
0.00141211
0.000850593
-6.68722e-05
4.77102e-05
7.01579e-05
-6.23136e-05
6.63211e-05
-5.59996e-05
9.21215e-05
-4.71902e-05
0.000127876
-3.48878e-05
0.000176963
-1.76349e-05
0.000244206
6.6337e-06
0.000335859
4.07434e-05
0.000461152
8.8515e-05
0.000631739
0.000154971
0.000860835
0.000246042
0.00115931
0.000367296
0.00151938
0.000518958
0.00187363
0.000682314
0.00199531
0.00130684
0.000787177
-6.32333e-05
4.46794e-05
6.62156e-05
-5.90175e-05
6.21057e-05
-5.31691e-05
8.62558e-05
-4.49986e-05
0.000119708
-3.35897e-05
0.00016555
-1.75964e-05
0.00022821
4.88672e-06
0.000313372
3.64766e-05
0.000429558
8.07272e-05
0.000587496
0.000142265
0.000799279
0.000226626
0.00107495
0.000338978
0.00140704
0.000479564
0.00173308
0.000631086
0.00184395
0.0012097
0.000728409
-5.973e-05
4.1879e-05
6.25363e-05
-5.58204e-05
5.82111e-05
-5.04063e-05
8.08354e-05
-4.28508e-05
0.000112156
-3.22971e-05
0.000154991
-1.74977e-05
0.000213404
3.31771e-06
0.000292553
3.25706e-05
0.000400303
7.35383e-05
0.000546518
0.000130536
0.000742293
0.000208674
0.000996796
0.000312777
0.00130288
0.000443108
0.00160267
0.000583662
0.00170321
0.00111885
0.00067415
-5.65112e-05
3.92794e-05
5.90471e-05
-5.28997e-05
5.45945e-05
-4.78875e-05
7.58024e-05
-4.08826e-05
0.000105147
-3.10981e-05
0.000145199
-1.73825e-05
0.000199682
1.89636e-06
0.000273267
2.89813e-05
0.000373212
6.69219e-05
0.000508583
0.000119695
0.000689503
0.000192072
0.000924414
0.000288541
0.00120641
0.000409379
0.00148186
0.000539791
0.00157298
0.0010347
0.00062407
-5.34229e-05
3.68769e-05
5.58056e-05
-5.00731e-05
5.1253e-05
-4.54349e-05
7.11523e-05
-3.89591e-05
9.86694e-05
-2.99112e-05
0.000136143
-1.72234e-05
0.000186987
6.19129e-07
0.000255418
2.56941e-05
0.000348134
6.08138e-05
0.000473453
0.000109688
0.000640637
0.000176729
0.000857353
0.000266136
0.00111696
0.000378201
0.0013697
0.000499222
0.00145179
0.00095586
0.000577847
-5.05968e-05
3.46464e-05
5.27522e-05
-4.75023e-05
4.81503e-05
-4.32057e-05
6.68355e-05
-3.72035e-05
9.26592e-05
-2.88165e-05
0.000127747
-1.70628e-05
0.000175224
-5.42564e-07
0.00023889
2.26681e-05
0.000324915
5.51884e-05
0.000440936
0.000100441
0.000595371
0.000162549
0.00079523
0.000245433
0.00103406
0.000349394
0.00126575
0.000461741
0.0013396
0.000882567
0.00053513
-4.79121e-05
3.25821e-05
4.99354e-05
-4.50387e-05
4.52802e-05
-4.10613e-05
6.28436e-05
-3.55107e-05
8.71014e-05
-2.77545e-05
0.000119982
-1.68814e-05
0.000164342
-1.59543e-06
0.000223594
1.9891e-05
0.000303425
4.99941e-05
0.000410826
9.1906e-05
0.000553461
0.000149458
0.000737666
0.00022632
0.000957163
0.000322802
0.00116919
0.000427117
0.0012351
0.000814197
0.000495658
-4.54582e-05
3.06671e-05
4.73101e-05
-4.28006e-05
4.26175e-05
-3.91126e-05
5.9141e-05
-3.39704e-05
8.19478e-05
-2.67828e-05
0.000112785
-1.6714e-05
0.000154261
-2.55876e-06
0.000209432
1.73317e-05
0.00028353
4.52068e-05
0.00038295
8.40257e-05
0.000514629
0.000137372
0.000684296
0.000208684
0.000885815
0.000298263
0.00107959
0.000395159
0.0011383
0.000750284
0.000459142
-4.31879e-05
2.88878e-05
4.48888e-05
-4.07166e-05
4.01443e-05
-3.73059e-05
5.5704e-05
-3.25369e-05
7.71674e-05
-2.58779e-05
0.000106113
-1.65474e-05
0.000144923
-3.43845e-06
0.000196318
1.49768e-05
0.000265106
4.07879e-05
0.00035713
7.67556e-05
0.000478656
0.000126226
0.000634828
0.000192431
0.000819608
0.000275644
0.000996295
0.000365659
0.0010481
0.000690957
0.000425381
-4.10625e-05
2.72383e-05
4.26438e-05
-3.87655e-05
3.7852e-05
-3.55993e-05
5.25196e-05
-3.11788e-05
7.27395e-05
-2.50093e-05
9.99357e-05
-1.63694e-05
0.000136278
-4.24059e-06
0.000184176
1.2812e-05
0.000248052
3.67187e-05
0.000333214
7.00546e-05
0.000445301
0.000115952
0.000588893
0.000177456
0.000758022
0.000254801
0.000918886
0.000338448
0.000964439
0.000635224
0.000394143
-3.91117e-05
2.57018e-05
4.05603e-05
-3.69751e-05
3.57179e-05
-3.40388e-05
4.95585e-05
-2.99353e-05
6.86278e-05
-2.42119e-05
9.42065e-05
-1.62119e-05
0.000128267
-4.96675e-06
0.000172937
1.0817e-05
0.000232249
3.29659e-05
0.00031105
6.38788e-05
0.000414385
0.000106493
0.000546314
0.000163686
0.000700884
0.000235615
0.000846907
0.000313344
0.000886602
0.00058409
0.00036527
-3.72722e-05
2.4283e-05
3.86536e-05
-3.52828e-05
3.3747e-05
-3.25573e-05
4.68232e-05
-2.87565e-05
6.48266e-05
-2.34593e-05
8.89057e-05
-1.60376e-05
0.000120853
-5.64439e-06
0.00016252
8.99019e-06
0.000217621
2.95203e-05
0.00029051
5.82049e-05
0.000385682
9.77958e-05
0.000506664
0.000151026
0.000647503
0.000217962
0.000779874
0.000290195
0.000814249
0.000535547
0.00033856
-3.56505e-05
2.29504e-05
3.68501e-05
-3.38023e-05
3.18956e-05
-3.12722e-05
4.42574e-05
-2.77264e-05
6.12703e-05
-2.27873e-05
8.39626e-05
-1.59099e-05
0.000113957
-6.23496e-06
0.000152871
7.31103e-06
0.000204043
2.63524e-05
0.000271453
5.29863e-05
0.000359059
8.98089e-05
0.000469916
0.00013942
0.000597965
0.000201739
0.000717534
0.000268852
0.000747016
0.00049144
0.000313874
-3.40159e-05
2.17253e-05
3.521e-05
-3.22857e-05
3.01935e-05
-2.99361e-05
4.18971e-05
-2.66536e-05
5.79939e-05
-2.2093e-05
7.94001e-05
-1.56978e-05
0.000107587
-6.78345e-06
0.000143918
5.79497e-06
0.000191484
2.34649e-05
0.000253779
4.82165e-05
0.000334277
8.24902e-05
0.000435526
0.000128782
0.000551423
0.000186837
0.000659344
0.000249177
0.000684437
0.000449126
0.000291039
-3.25812e-05
2.05704e-05
3.36198e-05
-3.09698e-05
2.859e-05
-2.8777e-05
3.96797e-05
-2.57133e-05
5.49274e-05
-2.14529e-05
7.51471e-05
-1.55477e-05
0.00010166
-7.22712e-06
0.000135639
4.40996e-06
0.000179803
2.08178e-05
0.000237356
4.38446e-05
0.000311278
7.5801e-05
0.000403674
0.000119073
0.000508305
0.000173166
0.000605306
0.000231045
0.000626626
0.000411291
0.000269936
-3.11005e-05
1.95153e-05
3.21741e-05
-2.95913e-05
2.71252e-05
-2.75602e-05
3.76506e-05
-2.47304e-05
5.21121e-05
-2.08065e-05
7.12272e-05
-1.53043e-05
9.61883e-05
-7.65615e-06
0.000127934
3.1819e-06
0.000169008
1.84308e-05
0.000222097
3.98779e-05
0.000289779
6.97132e-05
0.000373671
0.000110203
0.000467457
0.000160629
0.000554759
0.000214323
0.000572602
0.000374476
0.000250419
-2.98628e-05
1.85071e-05
3.07154e-05
-2.84682e-05
2.57254e-05
-2.65681e-05
3.5719e-05
-2.39117e-05
4.94483e-05
-2.02262e-05
6.75448e-05
-1.51417e-05
9.1069e-05
-7.95331e-06
0.00012081
2.06167e-06
0.000158916
1.62574e-05
0.000207887
3.62677e-05
0.000269826
6.41902e-05
0.000345938
0.000102149
0.000429647
0.000149145
0.000507857
0.000198915
0.000522976
0.000342179
0.000232377
-2.84939e-05
1.75928e-05
2.9415e-05
-2.71865e-05
2.44547e-05
-2.54337e-05
3.3959e-05
-2.29859e-05
4.70078e-05
-1.95974e-05
6.41521e-05
-1.48366e-05
8.63457e-05
-8.25974e-06
0.000114149
1.10563e-06
0.000149604
1.43313e-05
0.000194642
3.30316e-05
0.000251056
5.91954e-05
0.000319496
9.48205e-05
0.000393531
0.000138631
0.000463902
0.000184694
0.000476419
0.000310199
0.000215679
-2.73676e-05
1.67055e-05
2.80656e-05
-2.61516e-05
2.3224e-05
-2.44986e-05
3.22682e-05
-2.21878e-05
4.46886e-05
-1.89956e-05
6.09615e-05
-1.46143e-05
8.19211e-05
-8.41033e-06
0.000108005
2.36932e-07
0.00014085
1.25947e-05
0.000182297
3.01103e-05
0.000233683
5.47149e-05
0.000295217
8.81998e-05
0.000360349
0.00012901
0.00042335
0.000171591
0.000434245
0.000282899
0.000200235
-2.60124e-05
1.59225e-05
2.69132e-05
-2.48665e-05
2.21372e-05
-2.3351e-05
3.07633e-05
-2.12544e-05
4.25969e-05
-1.83443e-05
5.80458e-05
-1.4253e-05
7.78516e-05
-8.59261e-06
0.000102245
-4.57297e-07
0.000132819
1.10967e-05
0.000170746
2.75364e-05
0.000217179
5.07042e-05
0.000271681
8.2187e-05
0.000328248
0.000120203
0.000385207
0.00015947
0.000394285
0.000255269
0.000185929
-2.50379e-05
1.51401e-05
2.56213e-05
-2.39889e-05
2.10526e-05
-2.25515e-05
2.92785e-05
-2.05427e-05
4.05695e-05
-1.77758e-05
5.52701e-05
-1.39854e-05
7.40201e-05
-8.59451e-06
9.69535e-05
-1.0927e-06
0.000125207
9.76859e-06
0.000160007
2.52487e-05
0.000202025
4.71561e-05
0.000250171
7.67773e-05
0.00029897
0.00011215
0.000350158
0.000148303
0.000358649
0.000232474
0.000172691
-2.37929e-05
1.44517e-05
2.4546e-05
-2.28033e-05
2.00959e-05
-2.14844e-05
2.79559e-05
-1.96543e-05
3.87381e-05
-1.71113e-05
5.27346e-05
-1.35437e-05
7.05051e-05
-8.64272e-06
9.19723e-05
-1.51889e-06
0.000118303
8.67432e-06
0.000149859
2.32567e-05
0.000187287
4.40157e-05
0.000228853
7.1872e-05
0.000270258
0.000104779
0.000317022
0.000137941
0.000324476
0.000208751
0.000160409
-2.28561e-05
1.37607e-05
2.33545e-05
-2.19309e-05
1.91396e-05
-2.06593e-05
2.66549e-05
-1.88847e-05
3.69755e-05
-1.64649e-05
5.03375e-05
-1.31717e-05
6.72112e-05
-8.47482e-06
8.74413e-05
-1.93327e-06
0.000111658
7.71445e-06
0.000140465
2.15388e-05
0.000173967
4.12877e-05
0.000209778
6.74673e-05
0.000244653
9.80392e-05
0.00028705
0.00012839
0.000294922
0.000189863
0.000149034
-2.16454e-05
1.31534e-05
2.23305e-05
-2.076e-05
1.8298e-05
-1.95818e-05
2.54991e-05
-1.79701e-05
3.53849e-05
-1.57414e-05
4.81505e-05
-1.26375e-05
6.41923e-05
-8.39095e-06
8.31383e-05
-2.12103e-06
0.000105744
6.97569e-06
0.000131371
2.00996e-05
0.000160576
3.88921e-05
0.00019021
6.34603e-05
0.000218992
9.18419e-05
0.000258338
0.000119478
0.000265912
0.000169715
0.000138456
-2.0676e-05
1.25415e-05
2.11861e-05
-1.98422e-05
1.74548e-05
-1.87069e-05
2.43605e-05
-1.7147e-05
3.38511e-05
-1.50305e-05
4.60749e-05
-1.21723e-05
6.13431e-05
-8.06575e-06
7.92086e-05
-2.38361e-06
9.9665e-05
6.36817e-06
0.000122943
1.89253e-05
0.000148626
3.68443e-05
0.000172989
5.98691e-05
0.000196624
8.61852e-05
0.000232775
0.000111263
0.000241815
0.000154432
0.000128643
-1.95246e-05
1.20015e-05
2.02008e-05
-1.87385e-05
1.67049e-05
-1.76954e-05
2.3331e-05
-1.62589e-05
3.24357e-05
-1.42969e-05
4.41282e-05
-1.1598e-05
5.86079e-05
-7.96106e-06
7.52042e-05
-2.32589e-06
9.43495e-05
5.95868e-06
0.000114283
1.798e-05
0.000135946
3.50572e-05
0.000154708
5.66033e-05
0.000173536
8.09558e-05
0.000207824
0.000103549
0.000217393
0.000137594
0.000119501
-1.86532e-05
1.14387e-05
1.91093e-05
-1.79184e-05
1.59253e-05
-1.68989e-05
2.2275e-05
-1.54896e-05
3.10091e-05
-1.36798e-05
4.2153e-05
-1.11558e-05
5.59367e-05
-7.49877e-06
7.15493e-05
-2.43334e-06
8.84103e-05
5.70689e-06
0.000106444
1.73013e-05
0.00012505
3.35454e-05
0.000139467
5.36772e-05
0.000154437
7.61865e-05
0.000186551
9.64385e-05
0.000198328
0.000125141
0.000111013
-1.75951e-05
1.09338e-05
1.8182e-05
-1.69407e-05
1.52138e-05
-1.59808e-05
2.12949e-05
-1.47778e-05
2.96451e-05
-1.29167e-05
4.03563e-05
-1.05482e-05
5.33664e-05
-7.29468e-06
6.77807e-05
-2.08402e-06
8.37234e-05
5.64614e-06
9.8023e-05
1.68114e-05
0.00011289
3.22146e-05
0.00012244
5.10008e-05
0.000133674
7.16959e-05
0.000164982
8.97005e-05
0.000178048
0.00011135
0.000103095
-1.67896e-05
1.04274e-05
1.7235e-05
-1.61263e-05
1.45142e-05
-1.52421e-05
2.03525e-05
-1.38584e-05
2.84028e-05
-1.22878e-05
3.85791e-05
-9.98224e-06
5.09983e-05
-6.60161e-06
6.4533e-05
-2.00303e-06
7.79359e-05
5.76479e-06
9.06826e-05
1.65522e-05
0.000102807
3.10932e-05
0.000109293
4.86203e-05
0.000117555
6.76238e-05
0.000147662
8.34997e-05
0.000163592
0.000101485
9.5733e-05
-1.58508e-05
9.96576e-06
1.64099e-05
-1.52344e-05
1.38689e-05
-1.43163e-05
1.94773e-05
-1.31974e-05
2.71851e-05
-1.14723e-05
3.69893e-05
-9.2686e-06
4.86327e-05
-6.25262e-06
6.10313e-05
-1.37606e-06
7.38152e-05
5.99397e-06
8.21617e-05
1.64344e-05
9.09436e-05
3.01224e-05
9.33768e-05
4.64569e-05
9.86827e-05
6.36948e-05
0.000129169
7.75785e-05
0.000147042
9.06318e-05
8.88606e-05
-1.51103e-05
9.49772e-06
1.55797e-05
-1.4472e-05
1.32235e-05
-1.36176e-05
1.86067e-05
-1.23575e-05
2.60174e-05
-1.0856e-05
3.52831e-05
-8.5611e-06
4.64321e-05
-5.38471e-06
5.78743e-05
-1.07467e-06
6.80133e-05
6.42621e-06
7.5336e-05
1.6532e-05
8.19327e-05
2.93445e-05
8.26902e-05
4.45552e-05
8.54556e-05
6.01638e-05
0.000115938
7.21392e-05
0.000136461
8.24855e-05
8.2465e-05
-1.43316e-05
9.04309e-06
1.48178e-05
-1.37548e-05
1.2577e-05
-1.28844e-05
1.77221e-05
-1.17693e-05
2.47851e-05
-9.95692e-06
3.37126e-05
-7.81391e-06
4.39601e-05
-4.79603e-06
5.45202e-05
-1.50639e-07
6.44734e-05
6.87485e-06
6.68504e-05
1.67583e-05
7.04142e-05
2.87523e-05
6.80443e-05
4.28163e-05
6.84104e-05
5.65927e-05
0.000100592
6.68888e-05
0.000123236
7.44009e-05
7.64982e-05
-1.37333e-05
8.55472e-06
1.40583e-05
-1.31149e-05
1.18902e-05
-1.22527e-05
1.67933e-05
-1.08907e-05
2.35558e-05
-9.32016e-06
3.19015e-05
-6.85984e-06
4.1756e-05
-3.69204e-06
5.12633e-05
4.30546e-07
5.84963e-05
7.5036e-06
6.09147e-05
1.72176e-05
6.21948e-05
2.83682e-05
6.00741e-05
4.13292e-05
5.83882e-05
5.34341e-05
9.16381e-05
6.20741e-05
0.000116099
6.77956e-05
7.09327e-05
-1.3004e-05
8.0804e-06
1.34343e-05
-1.23761e-05
1.12116e-05
-1.14366e-05
1.58655e-05
-1.01927e-05
2.22641e-05
-8.25194e-06
3.02407e-05
-5.96082e-06
3.91008e-05
-2.83318e-06
4.80728e-05
1.7006e-06
5.54996e-05
7.96516e-06
5.30925e-05
1.78898e-05
5.09473e-05
2.82754e-05
4.71067e-05
3.99175e-05
4.35801e-05
5.00593e-05
7.97972e-05
5.7393e-05
0.000105834
6.24819e-05
6.57491e-05
-1.23308e-05
7.60382e-06
1.28521e-05
-1.16456e-05
1.0524e-05
-1.06582e-05
1.49185e-05
-9.21168e-06
2.09624e-05
-7.41565e-06
2.8333e-05
-4.7571e-06
3.7053e-05
-1.59514e-06
4.46259e-05
2.66532e-06
4.95203e-05
8.5736e-06
4.8974e-05
1.89302e-05
4.23511e-05
2.84154e-05
4.15063e-05
3.86909e-05
3.65962e-05
4.7084e-05
7.50457e-05
5.30285e-05
0.000101005
5.64774e-05
6.08757e-05
-1.17495e-05
7.09338e-06
1.23407e-05
-1.09522e-05
9.78627e-06
-9.84977e-06
1.38988e-05
-8.32078e-06
1.95507e-05
-6.06845e-06
2.65211e-05
-3.94504e-06
3.41184e-05
-5.28978e-07
4.1741e-05
4.24094e-06
4.66433e-05
8.63697e-06
4.33748e-05
2.04838e-05
2.9333e-05
2.88795e-05
3.07364e-05
3.72576e-05
2.53754e-05
4.37157e-05
6.70195e-05
4.87828e-05
9.32488e-05
5.27272e-05
5.64216e-05
-1.12156e-05
6.55077e-06
1.19438e-05
-1.03036e-05
8.98542e-06
-8.98579e-06
1.27657e-05
-7.18069e-06
1.7849e-05
-5.12176e-06
2.39542e-05
-2.65308e-06
3.24327e-05
6.58629e-07
3.76587e-05
5.44964e-06
4.06069e-05
8.70196e-06
4.31517e-05
2.37115e-05
1.78311e-05
3.0137e-05
2.99662e-05
3.57002e-05
2.3587e-05
4.05657e-05
6.63271e-05
4.47609e-05
8.99276e-05
4.59699e-05
5.21871e-05
-1.08072e-05
5.95143e-06
1.16166e-05
-9.70506e-06
8.05805e-06
-8.32239e-06
1.12988e-05
-6.23176e-06
1.56786e-05
-3.30014e-06
2.13051e-05
-1.94636e-06
2.95906e-05
1.92804e-06
3.4487e-05
7.35915e-06
3.74427e-05
7.53831e-06
4.20875e-05
3.06796e-05
-6.87342e-06
3.32289e-05
2.56292e-05
3.41814e-05
2.04732e-05
3.70717e-05
6.21519e-05
4.11392e-05
8.36962e-05
4.31974e-05
4.81688e-05
-1.06415e-05
5.27355e-06
1.15037e-05
-9.56529e-06
6.92136e-06
-7.61752e-06
9.55663e-06
-4.82813e-06
1.28528e-05
-1.7609e-06
1.76193e-05
-8.97945e-07
2.97194e-05
2.71768e-06
3.05638e-05
7.87097e-06
3.16213e-05
1.10952e-05
4.24837e-05
3.94471e-05
-3.15947e-05
3.52549e-05
3.43525e-05
3.20189e-05
2.65446e-05
3.37646e-05
6.43645e-05
3.73e-05
8.03281e-05
3.62083e-05
4.42571e-05
-1.07238e-05
4.53307e-06
1.16061e-05
-9.22052e-06
5.67506e-06
-7.06373e-06
7.32344e-06
-3.20525e-06
9.09221e-06
1.16429e-06
1.3632e-05
-6.03953e-07
3.01088e-05
2.96644e-06
2.82112e-05
8.19302e-06
2.84674e-05
1.59527e-05
3.37876e-05
4.21351e-05
-6.00101e-05
3.36344e-05
4.16054e-05
2.92548e-05
2.976e-05
3.06169e-05
6.21352e-05
3.42406e-05
7.52237e-05
3.41211e-05
4.08936e-05
-1.06318e-05
3.76188e-06
1.16191e-05
-9.28402e-06
4.33099e-06
-6.53742e-06
4.84334e-06
-1.84165e-06
4.39393e-06
6.34393e-06
4.98421e-06
7.43386e-07
3.70636e-05
4.74278e-06
2.47101e-05
1.16745e-05
2.13048e-05
2.57438e-05
2.19403e-05
4.50871e-05
-7.77301e-05
3.23513e-05
5.65807e-05
2.60943e-05
3.74565e-05
2.72875e-05
6.43937e-05
3.07859e-05
7.12388e-05
2.62135e-05
3.80599e-05
-9.10153e-06
2.56054e-06
1.05256e-05
-7.01153e-06
2.40195e-06
-3.19652e-06
9.74719e-07
2.88989e-06
-1.57927e-06
1.70488e-05
-8.74523e-06
2.32403e-06
5.1088e-05
1.15365e-05
1.65071e-05
2.10538e-05
1.29059e-05
4.05052e-05
2.36674e-06
5.05253e-05
-8.84689e-05
3.01392e-05
7.81654e-05
2.31845e-05
4.47306e-05
2.47731e-05
6.27176e-05
2.85019e-05
6.67843e-05
2.34572e-05
3.55582e-05
-4.74211e-06
5.40877e-07
7.06665e-06
-1.51496e-06
-7.82743e-07
1.99909e-06
-2.36721e-06
1.14621e-05
-1.10526e-05
2.86e-05
-2.6068e-05
1.52625e-05
6.49102e-05
2.53561e-05
7.46878e-06
3.56866e-05
2.84186e-06
5.78045e-05
-1.93852e-05
5.22494e-05
-8.28521e-05
3.0304e-05
0.000100054
1.97361e-05
5.53466e-05
2.17758e-05
6.31957e-05
2.49513e-05
6.26895e-05
1.54957e-05
3.25492e-05
-4.02166e-06
-9.78843e-07
5.85181e-06
-1.26883e-06
-3.40245e-06
4.30636e-07
-4.07438e-06
9.48372e-06
-2.01299e-05
1.88772e-05
-3.53523e-05
3.29671e-05
5.28673e-05
3.18032e-05
8.65506e-06
4.64323e-05
-1.18331e-05
6.36795e-05
-3.53345e-05
4.37422e-05
-6.16809e-05
2.48089e-05
0.000122106
1.55599e-05
6.64493e-05
1.88561e-05
6.07927e-05
2.1817e-05
5.94273e-05
1.15054e-05
2.9185e-05
-4.61664e-06
-2.59935e-06
6.56602e-06
-1.42238e-06
-6.48261e-06
-2.8455e-06
-2.64415e-06
4.87564e-06
-2.77659e-05
1.04198e-05
-4.06823e-05
4.15916e-05
2.11244e-05
3.51669e-05
1.62106e-05
4.19575e-05
-1.76093e-05
4.08197e-05
-3.47571e-05
1.72777e-05
-3.90474e-05
8.94592e-06
0.000129377
8.55885e-06
6.61922e-05
1.29439e-05
5.83953e-05
1.70925e-05
5.39774e-05
3.60948e-06
2.52248e-05
-6.1707e-06
-3.70221e-06
7.68225e-06
-4.07039e-06
-8.50336e-06
-7.02346e-07
-5.7475e-06
1.56172e-06
-3.01452e-05
1.82135e-06
-4.07356e-05
4.52509e-05
-1.98434e-05
1.99036e-05
4.13578e-05
2.55055e-05
-2.39421e-05
1.73723e-05
-2.40897e-05
-8.63456e-06
-1.01852e-05
-6.72445e-06
0.000130138
2.48639e-06
5.87733e-05
6.18486e-06
5.60724e-05
1.28145e-05
4.69654e-05
-1.64523e-06
2.06889e-05
-1.24505e-05
-2.55983e-06
1.1437e-05
-1.0767e-05
-1.00609e-05
-8.58906e-07
-1.57683e-05
-4.41287e-06
-2.63732e-05
-6.84777e-06
-3.80306e-05
1.66958e-05
-4.40196e-05
-7.51974e-06
6.63425e-05
1.62024e-06
-3.12177e-05
-6.12509e-06
-1.68576e-05
-2.79124e-05
1.09379e-05
-2.88692e-05
0.000130551
-1.05512e-05
3.97513e-05
1.22738e-06
4.5997e-05
9.20183e-06
3.7532e-05
-6.82462e-06
1.58965e-05
-1.06378e-05
-1.08972e-06
9.39392e-06
-1.08975e-05
-9.81485e-06
-1.11386e-05
-1.54393e-05
-1.63665e-05
-2.11831e-05
-1.93123e-05
-3.50218e-05
-1.34967e-05
-4.91158e-05
-3.16125e-05
8.45907e-05
-2.01988e-05
-4.2967e-05
-3.96562e-05
3.40962e-06
-5.48026e-05
2.71286e-05
-4.32955e-05
0.000119856
-1.63506e-05
1.33323e-05
-1.50888e-06
3.26543e-05
7.47007e-06
2.7738e-05
-8.569e-06
1.17347e-05
-1.43949e-05
1.3906e-07
1.32039e-05
-1.73997e-05
-6.81214e-06
-2.39827e-05
-8.84687e-06
-3.11639e-05
-1.40229e-05
-3.95452e-05
-2.66265e-05
-4.88275e-05
-3.99861e-05
-5.18884e-05
8.73577e-05
-5.59709e-05
-3.75888e-05
-7.156e-05
1.88524e-05
-6.76194e-05
2.2966e-05
-3.98225e-05
9.20614e-05
-1.66639e-05
-1.03202e-05
-2.31357e-06
1.97071e-05
8.07135e-06
1.62684e-05
-7.16251e-06
8.78369e-06
-2.12782e-05
1.7102e-06
1.972e-05
-2.82195e-05
1.91882e-07
-3.61167e-05
-1.00466e-06
-4.44982e-05
-5.72815e-06
-5.54404e-05
-1.58178e-05
-7.10335e-05
-2.45981e-05
-5.72346e-05
7.31315e-05
-7.12655e-05
-2.34034e-05
-7.03873e-05
1.78973e-05
-5.51744e-05
7.57886e-06
-2.4315e-05
6.12524e-05
-1.41192e-05
-2.09754e-05
-1.65208e-06
8.59063e-06
8.48833e-06
4.97294e-06
-4.07744e-06
7.17627e-06
-3.13386e-05
4.61792e-07
3.2664e-05
-3.38145e-05
2.65608e-06
-3.76421e-05
2.77925e-06
-4.36332e-05
1.74848e-07
-5.22868e-05
-7.31107e-06
-6.24423e-05
-1.47559e-05
-3.88699e-05
4.87151e-05
-5.58843e-05
-6.16677e-06
-4.5148e-05
7.00365e-06
-3.19406e-05
-5.94376e-06
-3.7856e-06
3.32077e-05
-5.95376e-06
-1.9493e-05
3.0642e-06
1.6926e-06
7.45098e-06
-9.95421e-07
-6.19904e-07
5.29351e-06
-3.85517e-05
3.90556e-05
-3.59061e-05
-3.31445e-05
-3.29885e-05
-4.03242e-05
-5.51358e-05
-6.41444e-06
-1.25835e-05
-5.58252e-06
-1.15258e-05
2.16808e-05
2.19007e-06
3.88197e-06
2.88676e-06
2.26708e-06
0.0014459
5.00421e-05
0.00144986
4.93695e-05
0.00145475
4.87658e-05
0.0014604
4.82153e-05
0.00146653
4.78086e-05
0.00147297
4.75396e-05
0.00147963
4.73714e-05
0.00148638
4.73003e-05
0.00149292
4.74728e-05
4.78877e-05
0.00149891
0.00133877
4.78427e-05
0.00134243
4.57275e-05
0.00134699
4.42247e-05
0.00135209
4.31264e-05
0.00135765
4.22664e-05
0.00136368
4.1513e-05
0.0013703
4.07698e-05
0.00137762
3.9982e-05
0.00138615
3.89594e-05
3.77136e-05
0.00139633
0.00124097
4.84626e-05
0.00124187
4.48408e-05
0.00124396
4.21524e-05
0.00124705
4.00424e-05
0.00125101
3.83243e-05
0.00125564
3.68905e-05
0.00126076
3.56498e-05
0.00126619
3.45684e-05
0.00127161
3.35474e-05
3.27195e-05
0.00127661
0.0011526
4.83957e-05
0.00115397
4.34838e-05
0.00115641
3.97293e-05
0.00115968
3.67822e-05
0.00116361
3.44044e-05
0.00116806
3.24414e-05
0.00117297
3.07458e-05
0.00117833
2.92133e-05
0.00118427
2.76218e-05
2.60629e-05
0.00119093
0.00106975
4.77888e-05
0.00107133
4.19207e-05
0.00107369
3.7385e-05
0.00107666
3.38195e-05
0.00108014
3.09293e-05
0.00108407
2.85083e-05
0.00108844
2.63844e-05
0.00109321
2.4446e-05
0.00109838
2.24624e-05
2.08119e-05
0.00110363
0.000992059
4.712e-05
0.000993566
4.04297e-05
0.000995713
3.52483e-05
0.000998382
3.11562e-05
0.00100151
2.78063e-05
0.00100507
2.49533e-05
0.00100906
2.23952e-05
0.00101349
2.00166e-05
0.0010185
1.74678e-05
1.5201e-05
0.00102411
0.00091954
4.6263e-05
0.000921125
3.88538e-05
0.000923231
3.31472e-05
0.000925748
2.86364e-05
0.000928622
2.49269e-05
0.000931832
2.17373e-05
0.000935389
1.8835e-05
0.000939323
1.60838e-05
0.000943671
1.31283e-05
1.03435e-05
0.00094853
0.000851776
4.50916e-05
0.000853564
3.70769e-05
0.000855753
3.0953e-05
0.00085824
2.61408e-05
0.000860969
2.21871e-05
0.000863921
1.8773e-05
0.00086711
1.56417e-05
0.000870574
1.26167e-05
0.000874309
9.40727e-06
6.2775e-06
0.000878382
0.00078859
4.37175e-05
0.000790523
3.51589e-05
0.000792794
2.87023e-05
0.000795276
2.3672e-05
0.000797911
1.95592e-05
0.000800687
1.60152e-05
0.000803604
1.27331e-05
0.000806725
9.52679e-06
0.000810018
6.15245e-06
2.69684e-06
0.000813612
0.00072985
4.2319e-05
0.000731809
3.32476e-05
0.000734073
2.6482e-05
0.000736511
2.12755e-05
0.000739057
1.70597e-05
0.000741679
1.3433e-05
0.000744399
1.00638e-05
0.000747263
6.71358e-06
0.00075023
3.23285e-06
-5.68794e-07
0.000753522
0.000675515
4.09781e-05
0.000677392
3.14012e-05
0.000679565
2.43409e-05
0.000681891
1.89765e-05
0.000684296
1.46818e-05
0.000686748
1.10053e-05
0.000689266
7.57358e-06
0.000691901
4.10456e-06
0.000694608
5.76318e-07
-3.6664e-06
0.0006977
0.00062532
3.97306e-05
0.000627064
2.96683e-05
0.000629089
2.23271e-05
0.000631254
1.68296e-05
0.000633476
1.24815e-05
0.000635725
8.77667e-06
0.000638027
5.29829e-06
0.000640451
1.7092e-06
0.000642902
-1.8635e-06
-6.63444e-06
0.000645877
0.000579017
3.85313e-05
0.000580625
2.80369e-05
0.000582479
2.04527e-05
0.00058444
1.48491e-05
0.000586432
1.04632e-05
0.000588443
6.74404e-06
0.000590497
3.22357e-06
0.000592688
-4.9716e-07
0.000594913
-4.08006e-06
-9.50221e-06
0.000597757
0.000536259
3.73556e-05
0.000537744
2.65047e-05
0.000539425
1.87549e-05
0.000541166
1.31052e-05
0.000542908
8.72608e-06
0.000544655
5.01665e-06
0.000546446
1.44336e-06
0.000548406
-2.43819e-06
0.000550396
-6.07854e-06
-1.23557e-05
0.00055324
0.000496794
3.61299e-05
0.000498189
2.50264e-05
0.000499694
1.71716e-05
0.000501198
1.15139e-05
0.000502667
7.16929e-06
0.000504125
3.46881e-06
0.000505639
-1.38879e-07
0.000507355
-4.20304e-06
0.000509133
-7.86998e-06
-1.51567e-05
0.000511925
0.000460321
3.48554e-05
0.000461639
2.36316e-05
0.000462975
1.57895e-05
0.000464239
1.02283e-05
0.000465424
5.98554e-06
0.000466588
2.31778e-06
0.000467824
-1.35153e-06
0.000469305
-5.66489e-06
0.000470866
-9.4265e-06
-1.80039e-05
0.000473681
0.000426632
3.34778e-05
0.000427887
2.22364e-05
0.000429056
1.44502e-05
0.000430069
9.01762e-06
0.000430963
4.87131e-06
0.000431835
1.24376e-06
0.00043279
-2.45314e-06
0.000434044
-6.99099e-06
0.000435407
-1.07917e-05
-2.06383e-05
0.000438103
0.00039548
3.20437e-05
0.000396666
2.09229e-05
0.000397676
1.33799e-05
0.000398434
8.20075e-06
0.000399042
4.23919e-06
0.000399636
6.85213e-07
0.000400319
-3.12656e-06
0.000401365
-7.97163e-06
0.000402527
-1.19422e-05
-2.32512e-05
0.000405082
0.000366685
3.05225e-05
0.000367813
1.9611e-05
0.000368659
1.22446e-05
0.00036917
7.26975e-06
0.000369505
3.44573e-06
0.00036983
-6.36784e-08
0.000370266
-3.85528e-06
0.00037111
-8.89919e-06
0.000372078
-1.28481e-05
-2.53941e-05
0.000374467
0.000340053
2.89528e-05
0.000341094
1.84255e-05
0.000341782
1.14714e-05
0.000342047
6.89808e-06
0.000342115
3.34012e-06
0.000342204
-1.18009e-07
0.000342414
-4.02922e-06
0.000343076
-9.456e-06
0.000343846
-1.35911e-05
-2.78803e-05
0.000346185
0.000315425
2.73883e-05
0.000316377
1.72412e-05
0.000316915
1.05332e-05
0.000316952
6.21599e-06
0.000316777
2.81082e-06
0.000316653
-6.09454e-07
0.000316652
-4.45915e-06
0.000317166
-1.00127e-05
0.000317726
-1.40181e-05
-2.96268e-05
0.000319854
0.000292633
2.57313e-05
0.000293474
1.62117e-05
0.000293868
1.01167e-05
0.000293677
6.35233e-06
0.000293277
3.28647e-06
0.000292975
-1.18856e-07
0.000292795
-4.18097e-06
0.000293182
-1.02217e-05
0.000293518
-1.44897e-05
-3.18825e-05
0.000295452
0.000271547
2.4261e-05
0.000272284
1.52483e-05
0.000272546
9.39122e-06
0.000272152
5.86311e-06
0.000271558
2.93322e-06
0.000271094
-4.85054e-07
0.000270756
-4.44952e-06
0.000271032
-1.05067e-05
0.00027115
-1.43953e-05
-3.29696e-05
0.000272871
0.000252021
2.2578e-05
0.000252632
1.44176e-05
0.000252763
9.32361e-06
0.000252169
6.50473e-06
0.000251393
3.95062e-06
0.000250804
4.5409e-07
0.00025035
-3.80921e-06
0.000250542
-1.04912e-05
0.00025044
-1.46128e-05
-3.50961e-05
0.000251977
0.000233947
2.12791e-05
0.000234436
1.36603e-05
0.000234466
8.84194e-06
0.000233706
6.24391e-06
0.000232769
3.81678e-06
0.000232071
2.71093e-07
0.000231503
-3.96579e-06
0.000231636
-1.05077e-05
0.000231339
-1.40779e-05
-3.56336e-05
0.000232634
0.000217194
1.9575e-05
0.000217553
1.30059e-05
0.000217473
9.10493e-06
0.000216556
7.3973e-06
0.000215469
5.40996e-06
0.000214684
1.66428e-06
0.000214049
-2.98986e-06
0.000214132
-1.03476e-05
0.000213665
-1.422e-05
-3.75637e-05
0.000214662
0.000201676
1.84951e-05
0.00020191
1.25746e-05
0.000201762
8.78441e-06
0.000200733
7.30949e-06
0.000199512
5.46288e-06
0.000198643
1.54215e-06
0.000197926
-3.05401e-06
0.000197988
-1.02693e-05
0.000197401
-1.32555e-05
-3.72741e-05
0.000197998
0.000187286
1.68354e-05
0.000187385
1.2077e-05
0.00018717
9.23613e-06
0.000186027
8.78807e-06
0.000184685
7.43796e-06
0.000183752
3.2214e-06
0.000182982
-1.84876e-06
0.000183036
-1.00293e-05
0.000182353
-1.33563e-05
-3.865e-05
0.000182501
0.000173946
1.60428e-05
0.00017393
1.19127e-05
0.000173714
8.93944e-06
0.000172486
8.77516e-06
0.000171046
7.57851e-06
0.00017005
3.13356e-06
0.00016921
-1.83598e-06
0.000169289
-9.84182e-06
0.000168563
-1.20163e-05
-3.72026e-05
0.000168202
0.00016157
1.44411e-05