/*--------------------------------*- C++ -*----------------------------------*\
  =========                 |
  \\      /  F ield         | OpenFOAM: The Open Source CFD Toolbox
   \\    /   O peration     | Website:  https://openfoam.org
    \\  /    A nd           | Version:  6.0
     \\/     M anipulation  |
\*---------------------------------------------------------------------------*/
FoamFile
{
    version     2.0;
    format      ascii;
    class       volVectorField;
    location    "3";
    object      U;
}
// * * * * * * * * * * * * * * * * * * * * * * * * * * * * * * * * * * * * * //

dimensions      [0 1 -1 0 0 0 0];

internalField   nonuniform List<vector> 
62000
(
(0.96455 -0.265014 -8.95218e-21)
(0.964627 -0.26494 7.50234e-21)
(0.964666 -0.264863 7.76144e-21)
(0.964685 -0.264732 -3.43268e-20)
(0.964699 -0.264567 -3.94863e-20)
(0.964709 -0.264396 1.37518e-19)
(0.964716 -0.264226 -1.52097e-19)
(0.964722 -0.264059 8.90433e-20)
(0.964726 -0.263895 -4.17416e-20)
(0.964728 -0.263734 -2.13448e-19)
(0.96473 -0.263575 -2.55417e-20)
(0.964731 -0.263418 3.01805e-19)
(0.964731 -0.263265 6.06377e-20)
(0.96473 -0.263115 -2.14009e-19)
(0.964729 -0.262969 3.32349e-19)
(0.964727 -0.262829 -1.77768e-19)
(0.964725 -0.262694 1.79312e-19)
(0.964722 -0.262566 -2.12087e-19)
(0.964719 -0.262443 1.01647e-19)
(0.964715 -0.262328 -3.10175e-19)
(0.964712 -0.26222 4.03141e-19)
(0.964709 -0.262119 1.11236e-19)
(0.964706 -0.262025 1.53036e-19)
(0.964704 -0.261938 -7.29581e-19)
(0.964704 -0.261859 2.62738e-19)
(0.964705 -0.261786 -1.51672e-19)
(0.96471 -0.26172 5.58118e-21)
(0.964719 -0.261661 -1.05626e-19)
(0.964734 -0.261606 3.50655e-19)
(0.964755 -0.261557 -1.7221e-19)
(0.964786 -0.261509 3.98368e-19)
(0.964828 -0.261463 -7.75635e-19)
(0.964886 -0.261416 8.16022e-20)
(0.964961 -0.261367 -1.92939e-19)
(0.965058 -0.26131 -3.87491e-20)
(0.965182 -0.261239 -1.65499e-19)
(0.965336 -0.261149 4.29544e-21)
(0.965528 -0.261035 1.04361e-20)
(0.965762 -0.260891 1.08226e-19)
(0.966044 -0.260707 2.22961e-19)
(0.966381 -0.260476 -1.10004e-20)
(0.966778 -0.260187 9.16595e-20)
(0.967241 -0.259828 4.77259e-19)
(0.967772 -0.259387 -4.2432e-19)
(0.968374 -0.258849 -2.65159e-19)
(0.969048 -0.258198 1.08591e-18)
(0.969793 -0.257414 3.98242e-21)
(0.970607 -0.256468 6.60456e-19)
(0.971483 -0.255329 3.34929e-18)
(0.972418 -0.253948 1.1037e-18)
(0.973402 -0.252263 6.80378e-19)
(0.974431 -0.25018 7.14806e-18)
(0.975493 -0.247561 -2.46079e-18)
(0.97659 -0.244182 -9.03421e-18)
(0.977724 -0.239664 -2.03255e-18)
(0.978913 -0.23328 -9.08647e-18)
(0.980299 -0.223845 4.2267e-19)
(0.982249 -0.207667 1.53119e-20)
(0.989476 -0.163447 -3.13817e-18)
(1.01255 -0.0742622 -1.57873e-19)
(0.963866 -0.273088 -2.31962e-21)
(0.964049 -0.273014 2.23356e-20)
(0.964111 -0.273115 9.30624e-21)
(0.964122 -0.273092 -4.03392e-20)
(0.964115 -0.272974 1.68931e-20)
(0.964097 -0.272821 -1.17396e-19)
(0.964068 -0.272649 1.08437e-19)
(0.964032 -0.272467 6.30709e-20)
(0.963991 -0.27228 -1.18832e-19)
(0.963944 -0.272087 5.34644e-21)
(0.963894 -0.27189 1.15979e-19)
(0.96384 -0.271688 -1.21692e-22)
(0.963784 -0.271481 3.27742e-20)
(0.963725 -0.271272 -2.86964e-19)
(0.963665 -0.271059 5.75081e-19)
(0.963605 -0.270845 -5.10005e-19)
(0.963544 -0.270629 2.37668e-19)
(0.963484 -0.270415 -5.0361e-20)
(0.963426 -0.270201 -1.3457e-19)
(0.96337 -0.269989 3.64667e-19)
(0.963318 -0.269779 -5.73335e-19)
(0.963269 -0.269572 3.30345e-19)
(0.963226 -0.269366 -4.06425e-19)
(0.96319 -0.269163 2.44498e-19)
(0.963161 -0.268961 2.15405e-19)
(0.963143 -0.268759 -1.40307e-19)
(0.963137 -0.268557 3.91388e-21)
(0.963145 -0.268353 1.52811e-19)
(0.96317 -0.268146 1.20693e-19)
(0.963216 -0.267933 -2.17564e-19)
(0.963286 -0.26771 4.32877e-19)
(0.963385 -0.267474 7.03456e-20)
(0.963518 -0.267224 2.10473e-19)
(0.963691 -0.266954 8.746e-22)
(0.963912 -0.266656 3.40819e-20)
(0.964186 -0.266323 -6.72155e-20)
(0.964523 -0.265947 -1.46452e-19)
(0.964931 -0.265521 -8.75245e-20)
(0.96542 -0.265036 -2.26771e-19)
(0.965998 -0.264481 -1.39286e-19)
(0.966675 -0.263841 4.9236e-20)
(0.967457 -0.263104 4.01526e-20)
(0.968354 -0.262252 -6.53417e-19)
(0.969368 -0.261266 -1.1977e-19)
(0.970505 -0.260124 2.22099e-18)
(0.971764 -0.258798 -1.05086e-18)
(0.973143 -0.257252 -9.12564e-19)
(0.974639 -0.255439 -1.55027e-18)
(0.976244 -0.253302 1.40711e-19)
(0.97795 -0.250754 1.59451e-19)
(0.979741 -0.247689 -3.44248e-18)
(0.981606 -0.243942 -9.76336e-18)
(0.983522 -0.239293 6.86534e-18)
(0.985477 -0.233393 1.99147e-17)
(0.987445 -0.225693 5.4239e-18)
(0.98938 -0.215269 1.97513e-18)
(0.991344 -0.201074 1.06854e-17)
(0.993265 -0.17894 4.82871e-18)
(0.996961 -0.143138 -9.78246e-18)
(0.995808 -0.119633 -1.86476e-18)
(0.964121 -0.275411 -1.07238e-20)
(0.964319 -0.275376 -1.47234e-21)
(0.964374 -0.275651 1.72384e-21)
(0.964378 -0.275763 7.68053e-21)
(0.964368 -0.275754 2.19089e-20)
(0.964347 -0.275696 -2.08936e-20)
(0.964318 -0.275612 1.11783e-19)
(0.964281 -0.275513 -5.37672e-20)
(0.964238 -0.275406 -2.93192e-20)
(0.964188 -0.275292 -1.78625e-19)
(0.964133 -0.275172 1.51874e-19)
(0.964073 -0.275045 1.09309e-20)
(0.964008 -0.274912 -3.50745e-20)
(0.96394 -0.274772 9.2733e-20)
(0.963868 -0.274625 -1.58092e-19)
(0.963794 -0.274472 1.86688e-21)
(0.963718 -0.274312 -7.13309e-20)
(0.963641 -0.274148 3.11653e-21)
(0.963566 -0.273977 1.67269e-19)
(0.963492 -0.273801 -2.4974e-19)
(0.963422 -0.273619 1.55547e-19)
(0.963357 -0.273432 5.85485e-19)
(0.963298 -0.273237 -9.20958e-20)
(0.963248 -0.273036 -7.95254e-19)
(0.963209 -0.272827 4.06276e-19)
(0.963182 -0.272609 -2.02135e-19)
(0.963172 -0.27238 3.29608e-19)
(0.96318 -0.27214 -2.02897e-19)
(0.963209 -0.271886 -3.74199e-19)
(0.963265 -0.271614 3.60822e-19)
(0.96335 -0.271321 -2.50045e-19)
(0.963471 -0.271003 3.18908e-19)
(0.963632 -0.270658 -7.8868e-19)
(0.96384 -0.270281 6.49274e-19)
(0.964104 -0.269863 -3.1439e-19)
(0.96443 -0.269396 1.35998e-19)
(0.964828 -0.268873 8.49372e-20)
(0.965307 -0.268286 4.45569e-20)
(0.965877 -0.267626 7.91589e-20)
(0.966549 -0.266882 1.39151e-19)
(0.96733 -0.26604 -6.39877e-21)
(0.968231 -0.265086 -2.8106e-20)
(0.969259 -0.264002 4.91496e-19)
(0.97042 -0.26277 3.75095e-19)
(0.971718 -0.261364 -3.65994e-19)
(0.973154 -0.259755 2.48767e-18)
(0.974727 -0.257904 -2.91125e-19)
(0.976432 -0.255759 2.90558e-18)
(0.978262 -0.253256 -4.51897e-18)
(0.980205 -0.250302 -1.24156e-18)
(0.982244 -0.246779 -1.06327e-18)
(0.984361 -0.242515 -1.93572e-19)
(0.986524 -0.237277 -4.06316e-18)
(0.988708 -0.230723 1.72764e-18)
(0.990865 -0.222324 1.10979e-17)
(0.992903 -0.21126 5.0659e-18)
(0.994787 -0.196879 7.31276e-18)
(0.996363 -0.175964 1.78751e-17)
(0.999238 -0.143265 -1.27822e-18)
(0.992882 -0.114794 -1.23431e-18)
(0.964336 -0.276165 -1.01287e-20)
(0.964507 -0.276195 3.09807e-20)
(0.964544 -0.276565 -4.84362e-21)
(0.964533 -0.276753 -3.18654e-20)
(0.964512 -0.276811 4.79907e-20)
(0.964486 -0.276812 8.25891e-20)
(0.964454 -0.276784 -1.08539e-19)
(0.964419 -0.276739 1.17512e-20)
(0.96438 -0.276686 3.74594e-20)
(0.964337 -0.276627 7.76893e-20)
(0.964291 -0.276565 -1.45086e-19)
(0.964241 -0.276497 -4.41573e-20)
(0.964187 -0.276425 -4.90027e-20)
(0.96413 -0.276347 2.25595e-19)
(0.96407 -0.276263 -1.50601e-19)
(0.964008 -0.276172 3.48685e-19)
(0.963944 -0.276075 -4.21797e-19)
(0.963878 -0.275972 -5.87305e-20)
(0.963813 -0.27586 4.34964e-19)
(0.963749 -0.27574 -1.52637e-19)
(0.963688 -0.275612 -5.3748e-20)
(0.963631 -0.275473 -5.68703e-20)
(0.963581 -0.275323 -5.00993e-19)
(0.96354 -0.275162 2.9722e-19)
(0.963509 -0.274986 -1.19039e-19)
(0.963493 -0.274795 2.05831e-19)
(0.963492 -0.274586 8.70397e-20)
(0.963512 -0.274359 4.21589e-19)
(0.963556 -0.27411 -2.63931e-19)
(0.963627 -0.273835 -3.19342e-19)
(0.963731 -0.273531 4.4903e-19)
(0.963872 -0.273193 -3.57809e-19)
(0.964057 -0.272819 5.96133e-19)
(0.964293 -0.272403 -3.05559e-19)
(0.964587 -0.271938 1.43316e-19)
(0.964946 -0.271415 1.97508e-19)
(0.965382 -0.270825 -4.7028e-20)
(0.965903 -0.270163 9.34525e-21)
(0.966519 -0.269417 -2.31746e-20)
(0.967242 -0.268576 -3.5195e-20)
(0.96808 -0.267629 1.25252e-20)
(0.969043 -0.266559 -2.00909e-20)
(0.97014 -0.265349 -1.20294e-19)
(0.971378 -0.26398 -5.42526e-19)
(0.972761 -0.262426 -7.47323e-19)
(0.974291 -0.260656 -5.45858e-20)
(0.975968 -0.25863 -2.10855e-18)
(0.977787 -0.256293 -2.5935e-18)
(0.97974 -0.253579 -3.74015e-18)
(0.981815 -0.250393 2.91124e-18)
(0.983993 -0.246611 4.03846e-18)
(0.986254 -0.242057 -3.32455e-18)
(0.988557 -0.2365 -5.03722e-18)
(0.990872 -0.229601 -1.0823e-17)
(0.993137 -0.220856 -7.12797e-18)
(0.995241 -0.209503 -1.54293e-17)
(0.997084 -0.195063 -2.82536e-17)
(0.998625 -0.174418 4.42677e-18)
(1.00106 -0.141842 1.74506e-17)
(0.991211 -0.112727 6.56585e-18)
(0.964421 -0.276561 1.8456e-20)
(0.964574 -0.276622 -6.31979e-21)
(0.964601 -0.27703 1.01145e-20)
(0.964581 -0.27725 -1.45529e-20)
(0.964552 -0.277337 3.20551e-20)
(0.964518 -0.277368 -1.60665e-20)
(0.964482 -0.277367 8.37482e-21)
(0.964446 -0.277351 -1.26789e-19)
(0.964408 -0.277327 1.06405e-19)
(0.964369 -0.277298 -2.10638e-19)
(0.964329 -0.277268 2.32125e-19)
(0.964288 -0.277234 -2.7735e-20)
(0.964246 -0.277198 -6.07839e-20)
(0.964202 -0.277159 -2.79201e-20)
(0.964157 -0.277116 -5.47397e-21)
(0.964111 -0.277069 -2.74435e-19)
(0.964065 -0.277017 1.65508e-20)
(0.964019 -0.27696 3.00071e-19)
(0.963974 -0.276896 -9.48144e-20)
(0.96393 -0.276825 -9.70361e-20)
(0.96389 -0.276744 1.68862e-19)
(0.963854 -0.276653 -7.85971e-20)
(0.963826 -0.276549 3.27458e-19)
(0.963805 -0.276431 1.65295e-19)
(0.963795 -0.276297 1.16517e-19)
(0.9638 -0.276144 -4.00039e-19)
(0.963821 -0.27597 -5.38833e-20)
(0.963863 -0.275772 -2.75721e-19)
(0.963929 -0.275548 5.86679e-20)
(0.964024 -0.275293 -7.66259e-20)
(0.964152 -0.275003 -2.32014e-20)
(0.964318 -0.274673 2.23261e-19)
(0.96453 -0.274301 -5.6748e-19)
(0.964795 -0.273881 -1.1119e-20)
(0.965118 -0.273405 -2.25185e-19)
(0.96551 -0.272863 -1.0434e-19)
(0.965979 -0.272248 3.45012e-20)
(0.966535 -0.271553 -1.51221e-19)
(0.967189 -0.270767 1.07589e-19)
(0.967951 -0.26988 -4.18028e-20)
(0.968832 -0.268876 -8.67329e-20)
(0.969841 -0.267743 2.28998e-19)
(0.970987 -0.266462 2.1732e-19)
(0.972278 -0.265011 2.8496e-21)
(0.973719 -0.263366 -7.06198e-19)
(0.975313 -0.261495 -1.17922e-18)
(0.977061 -0.259355 -5.47152e-19)
(0.978957 -0.256892 -9.21104e-19)
(0.980996 -0.254037 9.3498e-19)
(0.983163 -0.250691 -7.78494e-18)
(0.985441 -0.24673 -2.23235e-18)
(0.987805 -0.241975 2.10544e-18)
(0.990213 -0.236191 -1.58716e-18)
(0.992629 -0.229047 -9.95946e-18)
(0.994984 -0.220045 1.08044e-18)
(0.997159 -0.20845 1.18292e-17)
(0.999004 -0.193851 3.18283e-17)
(1.00057 -0.173078 -3.14185e-17)
(1.00258 -0.140524 2.1546e-17)
(0.990459 -0.110523 -8.34014e-18)
(0.96443 -0.276834 -6.5896e-21)
(0.964575 -0.276912 2.6419e-20)
(0.964598 -0.277338 -4.3291e-20)
(0.964572 -0.277573 3.2213e-20)
(0.964538 -0.277674 2.05744e-20)
(0.964499 -0.277717 -2.20487e-20)
(0.96446 -0.277728 1.80468e-21)
(0.96442 -0.277723 -1.63503e-20)
(0.964381 -0.277711 -5.48186e-20)
(0.964344 -0.277696 1.0519e-19)
(0.964307 -0.277679 -1.62072e-19)
(0.964272 -0.277662 1.42108e-19)
(0.964237 -0.277644 1.23327e-19)
(0.964204 -0.277625 -1.90866e-19)
(0.964172 -0.277604 -6.07005e-20)
(0.964142 -0.277581 2.30056e-19)
(0.964113 -0.277555 -2.753e-19)
(0.964087 -0.277526 3.74978e-19)
(0.964063 -0.277492 -7.37337e-20)
(0.964043 -0.277453 3.51655e-20)
(0.964026 -0.277406 -6.59906e-20)
(0.964016 -0.277349 -7.92043e-20)
(0.964014 -0.277281 -1.42597e-19)
(0.96402 -0.277199 2.34259e-19)
(0.964039 -0.2771 -1.6119e-19)
(0.964071 -0.276983 -1.4505e-19)
(0.96412 -0.276843 2.96927e-19)
(0.964191 -0.276678 -2.52071e-19)
(0.964286 -0.276484 4.09641e-19)
(0.96441 -0.276257 -2.12538e-19)
(0.964567 -0.275992 1.48007e-19)
(0.964764 -0.275683 -2.11228e-19)
(0.965007 -0.275328 2.15765e-19)
(0.965302 -0.274921 -2.43124e-20)
(0.965657 -0.274454 -1.51054e-20)
(0.966081 -0.273917 -5.04446e-21)
(0.966582 -0.273302 -1.42112e-20)
(0.967171 -0.272602 1.00765e-19)
(0.967859 -0.271805 -7.44976e-20)
(0.968655 -0.270901 1.48253e-19)
(0.96957 -0.269875 2.08498e-19)
(0.970615 -0.268713 -1.83209e-19)
(0.971799 -0.267395 4.52863e-19)
(0.97313 -0.265901 4.97997e-19)
(0.974614 -0.264204 8.41487e-20)
(0.976256 -0.262271 -1.99092e-18)
(0.978055 -0.26006 3.38916e-18)
(0.980008 -0.257513 3.8642e-18)
(0.98211 -0.254561 2.73971e-18)
(0.984347 -0.251103 5.48695e-18)
(0.986701 -0.247013 -4.29454e-18)
(0.989146 -0.24211 1.60182e-18)
(0.991638 -0.236156 1.55378e-17)
(0.994138 -0.228821 -3.86985e-18)
(0.996574 -0.219612 -5.18391e-18)
(0.998821 -0.207801 1.18761e-17)
(1.00069 -0.193012 -7.95215e-18)
(1.00229 -0.17201 -1.03607e-17)
(1.00396 -0.139273 -3.44099e-17)
(0.990255 -0.108292 -2.00547e-19)
(0.964409 -0.277055 7.26453e-21)
(0.964552 -0.277139 -3.24979e-20)
(0.964571 -0.277575 1.59372e-20)
(0.964543 -0.277817 2.90892e-20)
(0.964505 -0.277924 -6.21016e-20)
(0.964463 -0.277973 5.19717e-20)
(0.964419 -0.27799 -3.43174e-20)
(0.964377 -0.277991 2.91449e-20)
(0.964336 -0.277985 4.57072e-20)
(0.964297 -0.277975 -1.10319e-19)
(0.964261 -0.277965 1.58049e-19)
(0.964228 -0.277954 6.52557e-20)
(0.964199 -0.277943 -2.63843e-19)
(0.964172 -0.277933 -4.65564e-20)
(0.964148 -0.277921 1.38802e-19)
(0.964129 -0.27791 8.69015e-20)
(0.964114 -0.277897 -1.0531e-19)
(0.964103 -0.277884 9.12444e-20)
(0.964098 -0.277867 1.34832e-19)
(0.964098 -0.277846 -7.03193e-20)
(0.964105 -0.27782 -3.96133e-20)
(0.96412 -0.277786 1.27166e-19)
(0.964144 -0.277742 2.51386e-19)
(0.964178 -0.277687 -1.94739e-19)
(0.964226 -0.277615 -1.98525e-19)
(0.964289 -0.277526 2.07548e-19)
(0.964369 -0.277414 -1.60758e-19)
(0.964471 -0.277278 -5.78105e-20)
(0.964598 -0.277113 4.71084e-19)
(0.964755 -0.276914 -1.91039e-19)
(0.964945 -0.276675 -1.27387e-19)
(0.965175 -0.276392 1.93578e-19)
(0.965451 -0.276061 1.14029e-19)
(0.96578 -0.275675 -6.6937e-20)
(0.966169 -0.275228 -4.36775e-20)
(0.966625 -0.274708 1.03549e-19)
(0.96716 -0.274107 3.96388e-20)
(0.967782 -0.273418 1.44751e-20)
(0.968503 -0.272628 2.45839e-20)
(0.969332 -0.271727 1.81583e-19)
(0.970281 -0.270699 -2.65312e-19)
(0.971359 -0.26953 -4.05417e-19)
(0.972577 -0.268199 -9.14981e-19)
(0.973943 -0.266685 1.08179e-18)
(0.975464 -0.264961 1.50051e-18)
(0.977145 -0.262991 1.07888e-18)
(0.978988 -0.260733 -3.24724e-18)
(0.980989 -0.25813 -3.72026e-18)
(0.983144 -0.255107 4.61885e-18)
(0.98544 -0.251565 7.87031e-18)
(0.987859 -0.247374 1.22125e-18)
(0.990376 -0.24235 -2.01626e-18)
(0.992942 -0.236253 -2.9402e-20)
(0.995521 -0.228754 6.2847e-18)
(0.998036 -0.219356 -6.48925e-18)
(1.00036 -0.207334 -3.85872e-18)
(1.00226 -0.192329 -6.19554e-18)
(1.00389 -0.171051 3.13382e-17)
(1.00528 -0.138004 1.82015e-18)
(0.990414 -0.106044 -7.18792e-19)
(0.964379 -0.27725 -1.14145e-20)
(0.964521 -0.277343 -8.82269e-21)
(0.964539 -0.277788 1.23621e-20)
(0.964507 -0.278035 4.24758e-20)
(0.964467 -0.278147 -9.10218e-20)
(0.964422 -0.2782 1.03612e-19)
(0.964376 -0.278219 -5.08285e-21)
(0.96433 -0.278222 -6.7152e-21)
(0.964287 -0.278217 -3.64258e-20)
(0.964247 -0.278209 8.65722e-20)
(0.96421 -0.278201 -1.33595e-19)
(0.964178 -0.278193 5.04751e-20)
(0.964149 -0.278185 -1.39569e-21)
(0.964126 -0.278178 7.66235e-20)
(0.964108 -0.278171 3.49533e-20)
(0.964096 -0.278164 -1.88702e-19)
(0.964091 -0.278158 1.62024e-19)
(0.964092 -0.278151 6.11585e-20)
(0.964101 -0.278142 -1.78016e-19)
(0.964118 -0.278131 8.57944e-20)
(0.964144 -0.278116 3.769e-20)
(0.964181 -0.278095 -2.92764e-20)
(0.964229 -0.278067 2.67725e-20)
(0.964289 -0.278028 -2.19586e-20)
(0.964364 -0.277974 -1.88065e-19)
(0.964457 -0.277906 1.18087e-19)
(0.964568 -0.277816 -1.70785e-19)
(0.964702 -0.277703 2.89534e-19)
(0.964862 -0.277562 -7.17405e-20)
(0.965053 -0.277388 -3.15392e-20)
(0.965277 -0.277174 -1.30617e-20)
(0.965542 -0.276916 2.1315e-19)
(0.965852 -0.27661 -8.98469e-20)
(0.966216 -0.276249 -1.96238e-20)
(0.96664 -0.275826 7.15299e-20)
(0.967132 -0.275329 2.73139e-20)
(0.967701 -0.274749 -2.13295e-20)
(0.968358 -0.274079 2.93781e-21)
(0.969112 -0.273307 -7.53835e-20)
(0.969975 -0.27242 9.36047e-20)
(0.970957 -0.271403 -2.12986e-19)
(0.972069 -0.270239 3.72341e-19)
(0.97332 -0.26891 -7.26119e-19)
(0.974721 -0.267391 -1.83949e-18)
(0.976279 -0.265654 -5.39161e-19)
(0.977998 -0.263664 1.07176e-18)
(0.979882 -0.261377 3.82123e-18)
(0.981928 -0.258731 -1.01695e-18)
(0.984133 -0.255655 -1.44046e-18)
(0.986484 -0.252044 -3.10511e-18)
(0.988966 -0.247768 1.87531e-19)
(0.99155 -0.242638 8.20735e-18)
(0.994189 -0.236413 -7.92537e-18)
(0.996844 -0.228759 5.98094e-18)
(0.999438 -0.219179 -1.36237e-17)
(1.00184 -0.206943 -3.5033e-18)
(1.00377 -0.191704 -1.8136e-17)
(1.00543 -0.170126 -2.68614e-17)
(1.00658 -0.136688 -5.55356e-18)
(0.990831 -0.10376 -4.16433e-18)
(0.964337 -0.277445 -5.13829e-21)
(0.96448 -0.277538 4.42046e-21)
(0.964496 -0.277986 2.1518e-20)
(0.964463 -0.278236 3.33641e-20)
(0.964421 -0.27835 -9.92117e-20)
(0.964374 -0.278403 5.6702e-20)
(0.964326 -0.278424 -9.97466e-20)
(0.964279 -0.278429 1.55445e-19)
(0.964234 -0.278426 -7.25923e-20)
(0.964192 -0.27842 1.2559e-20)
(0.964155 -0.278413 1.35021e-19)
(0.964122 -0.278406 -3.05903e-19)
(0.964095 -0.2784 2.07073e-19)
(0.964074 -0.278395 2.78652e-20)
(0.96406 -0.278389 4.3234e-20)
(0.964053 -0.278385 -1.87816e-19)
(0.964055 -0.278381 9.10954e-20)
(0.964065 -0.278378 -1.10034e-19)
(0.964085 -0.278374 2.09933e-19)
(0.964116 -0.278368 -3.01348e-20)
(0.964158 -0.27836 -2.5422e-19)
(0.964213 -0.278347 1.03399e-19)
(0.964282 -0.278327 -5.83981e-21)
(0.964365 -0.278299 -3.33228e-19)
(0.964466 -0.278258 2.52241e-19)
(0.964585 -0.278203 1.74046e-19)
(0.964726 -0.278129 1.0024e-19)
(0.96489 -0.278034 -1.43534e-19)
(0.965082 -0.277912 -1.41573e-19)
(0.965306 -0.277759 6.61629e-20)
(0.965564 -0.277567 6.65515e-20)
(0.965864 -0.277332 -8.20499e-20)
(0.96621 -0.277049 -8.13866e-20)
(0.966609 -0.276713 1.99668e-19)
(0.967069 -0.276314 1.76312e-20)
(0.967597 -0.275842 -1.21546e-19)
(0.968202 -0.275287 4.28053e-20)
(0.968895 -0.274641 -5.35086e-20)
(0.969684 -0.273891 -3.73174e-20)
(0.970582 -0.273024 -1.90198e-19)
(0.971599 -0.272025 5.41037e-19)
(0.972746 -0.270876 1.15088e-19)
(0.974033 -0.269556 4.59352e-19)
(0.975469 -0.268041 -3.70055e-19)
(0.977064 -0.266302 -1.20036e-18)
(0.978822 -0.264302 -4.49528e-18)
(0.980748 -0.261994 -6.47641e-19)
(0.98284 -0.259318 3.67607e-18)
(0.985095 -0.256197 -3.34235e-18)
(0.987501 -0.252527 -1.29256e-17)
(0.990045 -0.248175 1.15594e-17)
(0.992695 -0.242948 -1.5367e-17)
(0.995406 -0.236601 1.04008e-17)
(0.998138 -0.228798 6.46241e-18)
(1.00081 -0.219038 2.79855e-17)
(1.00329 -0.206587 1.72064e-18)
(1.00527 -0.191102 1.10828e-17)
(1.00694 -0.169211 1.38264e-17)
(1.00789 -0.135317 -1.23101e-17)
(0.991435 -0.10146 -1.26222e-18)
(0.964284 -0.27764 6.59385e-21)
(0.964429 -0.277739 2.12262e-21)
(0.964445 -0.278195 -2.31972e-20)
(0.96441 -0.278448 2.18879e-20)
(0.964366 -0.278564 -9.58776e-21)
(0.964318 -0.27862 1.67936e-20)
(0.964268 -0.278641 5.46033e-21)
(0.96422 -0.278646 -8.20678e-20)
(0.964175 -0.278643 3.59814e-20)
(0.964133 -0.278637 -2.30983e-20)
(0.964095 -0.278631 1.48714e-20)
(0.964064 -0.278625 5.44966e-20)
(0.964038 -0.278619 -9.94816e-21)
(0.964019 -0.278614 3.17398e-20)
(0.964007 -0.27861 -1.32784e-19)
(0.964006 -0.278606 5.21288e-20)
(0.964013 -0.278603 2.33969e-20)
(0.96403 -0.278602 -5.59955e-20)
(0.96406 -0.278598 1.11096e-19)
(0.964102 -0.278595 3.40285e-20)
(0.964157 -0.27859 -4.73048e-21)
(0.964228 -0.27858 -3.241e-20)
(0.964314 -0.278566 1.36934e-19)
(0.964417 -0.278544 -3.60702e-19)
(0.96454 -0.278511 1.80405e-19)
(0.964684 -0.278466 6.68899e-20)
(0.964851 -0.278403 -1.15236e-19)
(0.965045 -0.278321 1.82959e-19)
(0.965266 -0.278214 -9.65543e-20)
(0.965522 -0.278077 -3.74959e-20)
(0.965813 -0.277904 -6.82572e-20)
(0.966147 -0.277689 -5.37499e-21)
(0.966528 -0.277428 5.92222e-20)
(0.966963 -0.277114 -1.10254e-19)
(0.967459 -0.276739 1.43482e-19)
(0.968023 -0.276292 -1.16883e-20)
(0.968665 -0.275762 -4.44299e-20)
(0.969394 -0.275141 2.25609e-19)
(0.970221 -0.274415 1.3974e-19)
(0.971155 -0.273572 -1.51379e-20)
(0.972209 -0.272594 2.49705e-19)
(0.973392 -0.271463 1.20294e-19)
(0.974716 -0.270158 1.08121e-18)
(0.97619 -0.268653 -5.09294e-19)
(0.977824 -0.266918 -7.07545e-19)
(0.979623 -0.264913 4.3051e-18)
(0.981593 -0.262591 -6.36581e-18)
(0.983732 -0.25989 -1.09395e-18)
(0.986039 -0.256731 -4.57526e-19)
(0.988503 -0.253008 8.92304e-18)
(0.991109 -0.248585 -3.51189e-18)
(0.993828 -0.243266 8.15301e-18)
(0.996612 -0.236801 -1.77632e-17)
(0.999422 -0.228851 -4.10412e-18)
(1.00217 -0.218912 1.86803e-17)
(1.00473 -0.206241 -7.87607e-18)
(1.00675 -0.190503 2.50117e-17)
(1.00844 -0.168291 6.20813e-18)
(1.00922 -0.1339 4.53032e-17)
(0.992187 -0.0991266 5.33839e-18)
(0.964229 -0.277848 -1.33073e-21)
(0.964377 -0.277948 -5.09972e-21)
(0.964392 -0.278409 -4.24067e-21)
(0.964356 -0.278665 4.17363e-20)
(0.96431 -0.278784 -2.32113e-20)
(0.964261 -0.27884 -2.69368e-20)
(0.96421 -0.278863 -9.66298e-21)
(0.964161 -0.27887 -3.98631e-20)
(0.964115 -0.278868 2.60266e-20)
(0.964073 -0.278863 4.37094e-21)
(0.964035 -0.278857 1.88658e-21)
(0.964004 -0.27885 1.01216e-19)
(0.96398 -0.278845 -7.13883e-20)
(0.963962 -0.27884 -8.40065e-21)
(0.963954 -0.278836 7.75716e-20)
(0.963956 -0.278832 -4.2481e-20)
(0.963968 -0.27883 -1.46557e-20)
(0.963992 -0.278829 2.58911e-20)
(0.964029 -0.278827 7.57262e-20)
(0.964081 -0.278825 3.69119e-20)
(0.964147 -0.278822 8.79241e-21)
(0.964231 -0.278815 -9.81729e-20)
(0.964333 -0.278804 4.28776e-20)
(0.964453 -0.278787 8.2135e-20)
(0.964596 -0.278759 -1.68417e-19)
(0.964762 -0.278721 4.55346e-20)
(0.964953 -0.278666 -1.81834e-19)
(0.965172 -0.278594 1.35581e-19)
(0.965422 -0.278498 9.38517e-20)
(0.965707 -0.278375 -1.54315e-19)
(0.96603 -0.278217 -4.52465e-20)
(0.966397 -0.278019 5.31546e-20)
(0.966812 -0.277777 1.39699e-20)
(0.967282 -0.277484 -1.39586e-20)
(0.967814 -0.277131 2.05978e-20)
(0.968414 -0.276706 4.88554e-20)
(0.969093 -0.276201 -2.13393e-20)
(0.96986 -0.275605 -1.17721e-19)
(0.970724 -0.274904 -3.57177e-20)
(0.971696 -0.274085 8.46262e-20)
(0.972788 -0.27313 -1.168e-18)
(0.97401 -0.27202 1.21965e-19)
(0.975373 -0.270732 -1.7475e-18)
(0.976888 -0.26924 3.78613e-18)
(0.978563 -0.267511 -7.1445e-19)
(0.980406 -0.265505 -9.57288e-20)
(0.982422 -0.263173 2.48325e-19)
(0.984611 -0.260451 5.19444e-18)
(0.986972 -0.257258 9.25461e-18)
(0.989495 -0.253486 -9.33129e-18)
(0.992166 -0.248995 -1.36338e-17)
(0.994956 -0.243587 -8.02312e-18)
(0.997814 -0.237006 1.7233e-17)
(1.0007 -0.228911 -1.02635e-17)
(1.00354 -0.218792 -2.78447e-17)
(1.00616 -0.205899 -1.27353e-17)
(1.00823 -0.189903 -2.43418e-17)
(1.00993 -0.167364 -1.34525e-17)
(1.01056 -0.132432 -4.31106e-17)
(0.993056 -0.0967764 1.61988e-17)
(0.964175 -0.278069 1.55667e-21)
(0.964326 -0.278176 -4.61087e-21)
(0.964341 -0.278644 1.59761e-20)
(0.964303 -0.278905 3.81652e-21)
(0.964256 -0.279025 -2.13994e-20)
(0.964205 -0.279083 -2.37646e-20)
(0.964153 -0.279106 5.61429e-20)
(0.964103 -0.279113 -6.01774e-20)
(0.964056 -0.279111 -1.38091e-20)
(0.964013 -0.279105 3.63816e-20)
(0.963976 -0.279099 3.23129e-20)
(0.963945 -0.279093 9.47871e-20)
(0.963921 -0.279088 -5.56607e-20)
(0.963905 -0.279083 -8.93213e-20)
(0.963899 -0.279079 1.93768e-20)
(0.963904 -0.279075 -6.7507e-20)
(0.963921 -0.279074 5.12192e-20)
(0.96395 -0.279073 -7.80141e-20)
(0.963994 -0.279071 1.60479e-20)
(0.964054 -0.27907 -1.91186e-20)
(0.96413 -0.279068 -8.84112e-21)
(0.964226 -0.279062 -5.60775e-20)
(0.964341 -0.279054 1.20592e-20)
(0.964477 -0.279039 1.20809e-19)
(0.964638 -0.279015 -3.34299e-20)
(0.964823 -0.278982 1.46119e-20)
(0.965036 -0.278933 2.99042e-20)
(0.965279 -0.278869 -3.20307e-20)
(0.965555 -0.278783 -1.49935e-21)
(0.965868 -0.27867 2.78126e-20)
(0.966221 -0.278526 3.17433e-20)
(0.966619 -0.278342 -2.35481e-20)
(0.967066 -0.278116 -2.22828e-20)
(0.96757 -0.277841 2.83035e-20)
(0.968138 -0.277508 -4.26559e-20)
(0.968775 -0.277105 -3.17613e-20)
(0.969491 -0.276623 -2.06735e-20)
(0.970295 -0.27605 -2.80738e-19)
(0.971197 -0.275374 2.88334e-19)
(0.972209 -0.274579 -2.21949e-19)
(0.97334 -0.273647 -5.48572e-20)
(0.974602 -0.272558 4.01224e-21)
(0.976006 -0.271288 6.5287e-19)
(0.977563 -0.26981 -1.77353e-18)
(0.979283 -0.268089 2.80081e-18)
(0.981172 -0.266085 -1.99041e-18)
(0.983237 -0.263745 6.16619e-18)
(0.985479 -0.261004 -1.77134e-18)
(0.987897 -0.25778 -4.88885e-18)
(0.990482 -0.25396 9.48513e-18)
(0.99322 -0.249404 2.45113e-18)
(0.996082 -0.243908 5.53992e-19)
(0.999016 -0.237212 3.26518e-18)
(1.00199 -0.228973 1.08859e-17)
(1.0049 -0.218673 -7.55903e-19)
(1.00761 -0.205556 -1.24953e-17)
(1.00972 -0.189297 1.4478e-17)
(1.01143 -0.166424 4.37542e-18)
(1.01194 -0.130929 5.5903e-18)
(0.994024 -0.0943929 -1.23366e-17)
(0.964113 -0.278314 2.58529e-21)
(0.964269 -0.278418 -2.20447e-21)
(0.964283 -0.278889 1.85914e-21)
(0.964244 -0.279151 1.17982e-20)
(0.964196 -0.279272 1.66181e-20)
(0.964144 -0.279331 -6.54553e-20)
(0.964091 -0.279355 4.66771e-20)
(0.96404 -0.279362 9.07426e-21)
(0.963992 -0.279361 -3.25385e-21)
(0.963949 -0.279356 -1.98053e-20)
(0.963912 -0.279351 5.80568e-20)
(0.963882 -0.279345 -2.02557e-20)
(0.963859 -0.279341 -2.61237e-20)
(0.963845 -0.279337 -7.18319e-20)
(0.963841 -0.279333 1.4159e-19)
(0.96385 -0.279331 -3.12746e-20)
(0.963871 -0.27933 -2.52729e-20)
(0.963905 -0.279331 -6.39823e-20)
(0.963955 -0.27933 6.96345e-20)
(0.964023 -0.27933 3.46493e-20)
(0.964108 -0.27933 -1.54578e-20)
(0.964214 -0.279326 2.44509e-20)
(0.964342 -0.279319 -1.0118e-19)
(0.964492 -0.279307 1.01001e-20)
(0.964669 -0.279287 5.22273e-20)
(0.964872 -0.279257 -1.01466e-20)
(0.965105 -0.279214 -1.0601e-19)
(0.96537 -0.279156 2.2413e-20)
(0.96567 -0.279077 7.57761e-20)
(0.966009 -0.278974 -8.03715e-21)
(0.96639 -0.278841 -2.21078e-20)
(0.966817 -0.278669 -8.55768e-21)
(0.967297 -0.278458 -7.24213e-21)
(0.967834 -0.278199 -6.46066e-20)
(0.968436 -0.277884 6.38702e-21)
(0.969108 -0.277501 -8.43808e-20)
(0.969861 -0.27704 3.95626e-19)
(0.970703 -0.27649 1.27897e-19)
(0.971644 -0.275836 -1.15332e-19)
(0.972696 -0.275064 5.91964e-19)
(0.973868 -0.274155 1.31493e-19)
(0.975171 -0.273087 -3.50645e-19)
(0.976618 -0.271835 -3.79687e-19)
(0.97822 -0.270371 -1.16487e-18)
(0.979985 -0.26866 -4.3592e-18)
(0.981923 -0.266657 3.95676e-18)
(0.98404 -0.264312 -7.11077e-18)
(0.986337 -0.261553 -5.97412e-18)
(0.988815 -0.258299 6.81385e-20)
(0.991464 -0.254432 -9.63037e-18)
(0.994272 -0.249812 1.42876e-17)
(0.997209 -0.244229 1.88598e-17)
(1.00022 -0.23742 -1.60631e-17)
(1.00327 -0.229036 -1.51566e-17)
(1.00627 -0.218555 7.04474e-18)
(1.00905 -0.205213 4.32635e-17)
(1.01121 -0.188687 -1.11785e-17)
(1.01292 -0.165475 1.30614e-17)
(1.01333 -0.129384 2.1328e-17)
(0.995074 -0.0919921 -1.05018e-17)
(0.964044 -0.278573 -2.44633e-21)
(0.964204 -0.278683 2.68314e-21)
(0.964218 -0.279161 1.71336e-20)
(0.964178 -0.279428 -2.22634e-20)
(0.964128 -0.279551 3.88571e-20)
(0.964075 -0.27961 -5.64151e-20)
(0.964021 -0.279634 1.5941e-20)
(0.963969 -0.27964 -5.58336e-22)
(0.963921 -0.279639 3.26892e-20)
(0.963879 -0.279634 -1.71408e-20)
(0.963842 -0.279628 4.40702e-21)
(0.963813 -0.279623 4.5384e-21)
(0.963792 -0.279619 -7.2422e-20)
(0.96378 -0.279615 2.31171e-20)
(0.963779 -0.279612 4.77605e-20)
(0.963791 -0.27961 4.39182e-22)
(0.963817 -0.27961 -7.15903e-20)
(0.963856 -0.279611 2.84875e-20)
(0.963913 -0.27961 1.20575e-19)
(0.963988 -0.279612 -7.92159e-20)
(0.964082 -0.279612 -5.09258e-20)
(0.964197 -0.279609 4.36664e-20)
(0.964337 -0.279605 1.94974e-20)
(0.9645 -0.279595 2.02539e-20)
(0.964691 -0.279577 -4.20366e-20)
(0.964911 -0.279551 -6.58595e-20)
(0.965162 -0.279513 5.88383e-20)
(0.965448 -0.27946 5.23478e-20)
(0.965771 -0.279388 -1.42919e-20)
(0.966134 -0.279293 -3.44226e-21)
(0.966541 -0.279169 -2.9925e-21)
(0.966997 -0.279009 -3.66026e-20)
(0.967506 -0.27881 2.2401e-20)
(0.968075 -0.278565 -2.98158e-20)
(0.968711 -0.278266 1.19283e-19)
(0.969418 -0.277902 3.71625e-20)
(0.970208 -0.277459 9.81578e-20)
(0.971088 -0.27693 -1.65091e-19)
(0.972068 -0.276299 2.8608e-19)
(0.973159 -0.275548 -9.09411e-20)
(0.974373 -0.27466 -2.02349e-19)
(0.975719 -0.273612 -7.2502e-20)
(0.977211 -0.272378 1.58384e-18)
(0.978858 -0.270928 2.5494e-18)
(0.980672 -0.269226 2.48559e-18)
(0.982661 -0.267226 -5.63266e-18)
(0.984831 -0.264874 -3.37217e-19)
(0.987187 -0.262099 2.79607e-18)
(0.989727 -0.258815 -1.67946e-18)
(0.992443 -0.254904 1.15225e-17)
(0.995324 -0.25022 -6.13776e-18)
(0.998337 -0.244552 -1.86814e-17)
(1.00143 -0.237629 1.21674e-18)
(1.00456 -0.229101 1.97628e-17)
(1.00765 -0.218437 -1.02133e-17)
(1.01051 -0.204868 -1.05911e-17)
(1.01271 -0.188071 -1.46368e-17)
(1.01443 -0.164515 -3.66242e-17)
(1.01475 -0.127816 -3.86821e-17)
(0.996199 -0.0895576 2.42743e-17)
(0.963974 -0.278853 -1.78137e-21)
(0.964139 -0.278963 2.54567e-21)
(0.964153 -0.279448 4.47233e-22)
(0.964111 -0.279718 8.74318e-21)
(0.96406 -0.279843 -1.32769e-20)
(0.964006 -0.279903 -2.58322e-20)
(0.963951 -0.279928 9.77807e-21)
(0.963898 -0.279936 -1.11109e-20)
(0.96385 -0.279935 2.53306e-20)
(0.963807 -0.27993 -4.80088e-21)
(0.96377 -0.279925 -1.49039e-20)
(0.963742 -0.27992 1.29969e-20)
(0.963722 -0.279915 1.91131e-20)
(0.963712 -0.279912 4.83479e-20)
(0.963714 -0.279909 -8.71849e-20)
(0.963729 -0.279907 4.25316e-20)
(0.963759 -0.279907 5.61776e-21)
(0.963803 -0.279909 -3.72953e-20)
(0.963866 -0.27991 -1.96088e-20)
(0.963948 -0.279912 6.3642e-20)
(0.96405 -0.279915 -5.97425e-20)
(0.964175 -0.279913 1.93313e-20)
(0.964325 -0.279911 -3.59721e-20)
(0.9645 -0.279903 5.28218e-20)
(0.964706 -0.279888 -8.72518e-21)
(0.964941 -0.279866 -1.29564e-20)
(0.96521 -0.279831 1.35583e-20)
(0.965515 -0.279783 9.1893e-21)
(0.965858 -0.279717 -4.7615e-21)
(0.966245 -0.279629 -4.80495e-23)
(0.966677 -0.279513 5.70562e-20)
(0.96716 -0.279363 1.59858e-20)
(0.967698 -0.279176 -3.49058e-20)
(0.968298 -0.278945 2.94198e-20)
(0.968966 -0.27866 9.61055e-20)
(0.969708 -0.278312 2.67298e-19)
(0.970533 -0.277887 -3.6633e-19)
(0.971451 -0.277377 1.96142e-19)
(0.97247 -0.276766 -1.38179e-19)
(0.973602 -0.276036 -3.79821e-19)
(0.974858 -0.275167 -3.69482e-19)
(0.976248 -0.274139 2.71561e-19)
(0.977785 -0.272922 -9.93026e-19)
(0.97948 -0.271486 -2.08364e-18)