/*--------------------------------*- C++ -*----------------------------------*\
  =========                 |
  \\      /  F ield         | OpenFOAM: The Open Source CFD Toolbox
   \\    /   O peration     | Website:  https://openfoam.org
    \\  /    A nd           | Version:  6.0
     \\/     M anipulation  |
\*---------------------------------------------------------------------------*/
FoamFile
{
    version     2.0;
    format      ascii;
    class       volScalarField;
    location    "3";
    object      p;
}
// * * * * * * * * * * * * * * * * * * * * * * * * * * * * * * * * * * * * * //

dimensions      [0 2 -2 0 0 0 0];

internalField   nonuniform List<scalar> 
62000
(
0.11946
0.11995
0.120474
0.121051
0.121666
0.122339
0.123051
0.123827
0.124644
0.125528
0.126457
0.127454
0.128495
0.129608
0.130765
0.131993
0.133264
0.134605
0.135988
0.13744
0.138932
0.140494
0.142096
0.143769
0.145485
0.147279
0.14912
0.151047
0.153032
0.155113
0.157265
0.159519
0.161874
0.16438
0.167078
0.169977
0.173082
0.176429
0.180071
0.184046
0.188345
0.192912
0.197598
0.202144
0.206146
0.209037
0.210173
0.20877
0.204317
0.196263
0.184946
0.170479
0.153564
0.135642
0.117135
0.100154
0.0841877
0.0705549
0.0585965
0.0520113
0.1188
0.119547
0.120304
0.121091
0.121894
0.122735
0.123596
0.1245
0.125432
0.126413
0.127427
0.128496
0.129603
0.13077
0.131976
0.133242
0.134547
0.135911
0.137311
0.138767
0.140258
0.141802
0.14338
0.145012
0.14668
0.148403
0.15017
0.151998
0.153882
0.155839
0.157873
0.159995
0.162222
0.164602
0.167176
0.169966
0.172992
0.176306
0.17998
0.184066
0.188583
0.193503
0.198715
0.204004
0.209012
0.213223
0.216023
0.21664
0.214532
0.209057
0.200444
0.188613
0.174107
0.158206
0.141176
0.125177
0.109555
0.0958238
0.0832226
0.0757306
0.117299
0.118279
0.119249
0.12023
0.121209
0.122204
0.123204
0.124226
0.125257
0.126321
0.127401
0.128521
0.129663
0.130854
0.132072
0.133345
0.134649
0.136011
0.137404
0.138856
0.140339
0.141878
0.143449
0.145075
0.146735
0.148449
0.150205
0.152018
0.153887
0.155823
0.157838
0.159939
0.162148
0.164504
0.16705
0.169811
0.172812
0.176115
0.179799
0.183919
0.188501
0.193529
0.198911
0.20446
0.209856
0.214622
0.21819
0.219819
0.218973
0.214978
0.207988
0.197818
0.184891
0.170393
0.154449
0.139181
0.123854
0.110061
0.0970567
0.088493
0.116167
0.117272
0.118366
0.119467
0.120562
0.121666
0.122766
0.123878
0.12499
0.126121
0.127259
0.128422
0.129598
0.130809
0.132039
0.13331
0.134607
0.13595
0.137323
0.138747
0.140203
0.141714
0.143259
0.14486
0.1465
0.148197
0.14994
0.151744
0.153607
0.155542
0.157561
0.159671
0.161889
0.164254
0.166802
0.16956
0.172554
0.175849
0.179528
0.183643
0.188218
0.193242
0.198634
0.204226
0.209727
0.214703
0.218628
0.220804
0.220718
0.217689
0.211839
0.202887
0.191215
0.177843
0.162855
0.148226
0.133259
0.119534
0.106355
0.0971232
0.115449
0.116614
0.117767
0.118925
0.120075
0.121232
0.122383
0.123545
0.124704
0.125879
0.127053
0.12825
0.129451
0.130681
0.13192
0.133197
0.134488
0.135822
0.137177
0.13858
0.14001
0.141493
0.143008
0.14458
0.146191
0.147864
0.149586
0.151373
0.153226
0.155156
0.157177
0.159295
0.161526
0.163902
0.166459
0.16922
0.172208
0.175492
0.179155
0.183243
0.187776
0.192743
0.198069
0.203601
0.209074
0.214088
0.218162
0.220639
0.221038
0.218682
0.213668
0.205655
0.194961
0.182541
0.16838
0.154375
0.139807
0.126285
0.113134
0.103529
0.11456
0.115771
0.116971
0.118179
0.119379
0.120586
0.121788
0.122998
0.124204
0.125423
0.12664
0.127875
0.129111
0.130371
0.131636
0.132931
0.134235
0.135573
0.136927
0.138322
0.139738
0.141202
0.142695
0.144242
0.145829
0.147477
0.149176
0.150944
0.152782
0.154703
0.156721
0.158842
0.161081
0.163465
0.166027
0.168788
0.171768
0.175035
0.178674
0.182723
0.187196
0.192078
0.197301
0.20272
0.208095
0.213056
0.217163
0.219802
0.220524
0.218668
0.214323
0.207089
0.197283
0.185715
0.172358
0.15895
0.144856
0.131619
0.118612
0.108884
0.113677
0.114916
0.116145
0.117382
0.118612
0.11985
0.121083
0.122326
0.123565
0.124817
0.126067
0.127334
0.1286
0.129887
0.131176
0.132492
0.133813
0.135165
0.136527
0.137926
0.139341
0.140799
0.142283
0.143817
0.145387
0.147018
0.1487
0.150452
0.152275
0.154186
0.156198
0.158317
0.160557
0.162943
0.165506
0.168262
0.171229
0.174476
0.178085
0.182088
0.186493
0.191283
0.196391
0.201683
0.206935
0.21181
0.215901
0.218635
0.219596
0.21814
0.214347
0.207781
0.198723
0.187931
0.175304
0.162507
0.148896
0.136018
0.123237
0.113497
0.112627
0.113892
0.115148
0.116413
0.117673
0.118941
0.120205
0.121477
0.122747
0.124029
0.125309
0.126604
0.1279
0.129214
0.130531
0.13187
0.133214
0.134585
0.135964
0.137374
0.138798
0.140261
0.141745
0.143277
0.144841
0.146464
0.148136
0.149876
0.151689
0.153591
0.155596
0.157711
0.159948
0.162333
0.164891
0.167639
0.17059
0.173813
0.177389
0.181345
0.185681
0.190378
0.19537
0.200531
0.205655
0.210428
0.214478
0.217271
0.218418
0.217299
0.213996
0.208033
0.199715
0.189661
0.177773
0.165568
0.152496
0.140004
0.127493
0.117833
0.111618
0.112897
0.114166
0.115443
0.116715
0.117996
0.119272
0.12056
0.121844
0.123143
0.124439
0.125753
0.127066
0.128399
0.129734
0.131092
0.132454
0.133843
0.135238
0.136664
0.138102
0.139575
0.141068
0.142605
0.144172
0.145794
0.147464
0.1492
0.151008
0.152903
0.154903
0.157014
0.159247
0.161626
0.164177
0.166914
0.169848
0.173046
0.176589
0.180498
0.184769
0.18938
0.194267
0.19931
0.20432
0.209004
0.213019
0.215865
0.217185
0.216375
0.213517
0.20811
0.200444
0.191085
0.179883
0.168283
0.155734
0.14366
0.13144
0.121871
0.11041
0.111703
0.112989
0.114283
0.115573
0.116872
0.118167
0.119473
0.120776
0.122093
0.123409
0.124741
0.126075
0.127427
0.128782
0.13016
0.131542
0.132949
0.134362
0.135805
0.137258
0.138745
0.14025
0.141797
0.143372
0.144999
0.146672
0.14841
0.150217
0.152111
0.154108
0.156216
0.158445
0.160819
0.163362
0.166087
0.169003
0.172177
0.175687
0.179552
0.183763
0.188297
0.193088
0.198026
0.202932
0.207536
0.21152
0.214418
0.215894
0.21537
0.212931
0.208052
0.201056
0.192377
0.181877
0.170866
0.15888
0.147225
0.13531
0.125857
0.109166
0.110469
0.111763
0.113066
0.114365
0.115674
0.11698
0.118298
0.119614
0.120945
0.122275
0.123621
0.124969
0.126337
0.127706
0.129099
0.130495
0.131918
0.133347
0.134805
0.136273
0.137775
0.139293
0.140852
0.142438
0.144075
0.145755
0.147498
0.149309
0.151205
0.153203
0.15531
0.157537
0.159905
0.162441
0.165155
0.168055
0.171206
0.174687
0.178513
0.182672
0.18714
0.191853
0.196707
0.201534
0.206083
0.210059
0.213024
0.214667
0.214428
0.212392
0.208021
0.201629
0.193601
0.183757
0.173344
0.161892
0.150667
0.139053
0.129696
0.107775
0.109087
0.110393
0.111709
0.113021
0.114343
0.115662
0.116993
0.118323
0.119666
0.12101
0.12237
0.123732
0.125114
0.126498
0.127905
0.129317
0.130754
0.132198
0.133671
0.135153
0.136669
0.138202
0.139774
0.141373
0.143021
0.144711
0.146463
0.148281
0.150182
0.152184
0.154292
0.156518
0.158884
0.161414
0.164119
0.167005
0.170136
0.173591
0.177383
0.181499
0.18591
0.190558
0.195341
0.200104
0.204612
0.208591
0.21163
0.213436
0.213474
0.21183
0.207951
0.202192
0.194811
0.185641
0.175812
0.164925
0.154123
0.142815
0.13356
0.106387
0.107704
0.109014
0.110332
0.111647
0.112973
0.114296
0.115631
0.116966
0.118315
0.119665
0.121032
0.122401
0.123791
0.125184
0.126601
0.128022
0.129471
0.130926
0.132412
0.133907
0.135437
0.136983
0.138569
0.14018
0.141841
0.143542
0.145305
0.147132
0.149041
0.151048
0.153161
0.155389
0.157754
0.16028
0.162978
0.165853
0.168968
0.172403
0.176167
0.180248
0.184618
0.189217
0.193952
0.198676
0.20317
0.207179
0.210314
0.212304
0.212627
0.211373
0.20798
0.2028
0.19604
0.187505
0.178263
0.167908
0.157533
0.146518
0.137339
0.104835
0.10616
0.107477
0.108803
0.110127
0.111461
0.112793
0.114136
0.11548
0.116838
0.118197
0.119573
0.120951
0.122351
0.123754
0.125181
0.126614
0.128073
0.129539
0.131036
0.132544
0.134085
0.135644
0.137242
0.138866
0.140539
0.142253
0.144026
0.145864
0.147782
0.149797
0.151916
0.154148
0.156515
0.15904
0.161734
0.164602
0.167706
0.171124
0.174868
0.178922
0.183258
0.187821
0.192521
0.19722
0.201713
0.205764
0.209004
0.211175
0.211782
0.210909
0.207993
0.203423
0.197288
0.189405
0.180738
0.170943
0.160985
0.150269
0.141167
0.103225
0.104554
0.105874
0.107205
0.108533
0.109872
0.111209
0.112559
0.113908
0.115273
0.116638
0.118022
0.119407
0.120815
0.122225
0.123659
0.1251
0.126568
0.128043
0.129549
0.131067
0.132619
0.134189
0.135799
0.137435
0.13912
0.140845
0.142631
0.144479
0.146408
0.148432
0.150559
0.152797
0.155168
0.157695
0.160389
0.163253
0.16635
0.169758
0.173488
0.177525
0.181842
0.186385
0.19107
0.195768
0.200286
0.204403
0.207771
0.210148
0.21105
0.210567
0.208129
0.204121
0.198587
0.191322
0.183233
0.173963
0.164423
0.153989
0.144943
0.101487
0.102821
0.104149
0.105487
0.106822
0.108168
0.109513
0.11087
0.112227
0.113598
0.114972
0.116362
0.117756
0.11917
0.120589
0.122031
0.12348
0.124956
0.12644
0.127955
0.129482
0.131044
0.132624
0.134244
0.135891
0.137588
0.139325
0.141122
0.142982
0.144921
0.146957
0.149092
0.151338
0.153715
0.156247
0.158944
0.161808
0.164903
0.168306
0.172028
0.176056
0.180363
0.184896
0.189577
0.194286
0.198841
0.203035
0.206538
0.209119
0.210318
0.210216
0.208248
0.204836
0.199911
0.19328
0.185761
0.177042
0.167911
0.157768
0.148779
0.0997175
0.101054
0.102384
0.103724
0.105061
0.106408
0.107755
0.109114
0.110474
0.111849
0.113225
0.114619
0.116017
0.117436
0.118858
0.120306
0.12176
0.123243
0.124734
0.126256
0.127792
0.129362
0.130952
0.132582
0.13424
0.135947
0.137696
0.139504
0.141375
0.143326
0.145372
0.147518
0.149774
0.152159
0.154698
0.157401
0.160269
0.163366
0.16677
0.170493
0.174521
0.178829
0.183368
0.188064
0.192805
0.19742
0.201715
0.205375
0.208185
0.209694
0.209987
0.208496
0.205638
0.201301
0.195274
0.188324
0.180124
0.171402
0.161532
0.152582
0.0978165
0.0991583
0.100493
0.101837
0.103179
0.104532
0.105883
0.107248
0.108612
0.109992
0.111373
0.112773
0.114176
0.1156
0.117028
0.118482
0.119942
0.121431
0.122928
0.124458
0.126001
0.127579
0.129177
0.130816
0.132483
0.134201
0.13596
0.137779
0.139662
0.141624
0.143682
0.145839
0.148106
0.150501
0.15305
0.155762
0.158638
0.161742
0.165152
0.16888
0.172916
0.177233
0.181787
0.186508
0.19129
0.195975
0.20038
0.204205
0.207241
0.209062
0.209741
0.20872
0.206448
0.202712
0.197305
0.190919
0.18326
0.174943
0.165356
0.156446
0.0958371
0.0971821
0.0985194
0.0998676
0.101213
0.102569
0.103925
0.105293
0.106662
0.108046
0.109432
0.110836
0.112243
0.113672
0.115106
0.116564
0.118029
0.119523
0.121026
0.122562
0.124111
0.125696
0.127302
0.128949
0.130625
0.132352
0.134121
0.135951
0.137845
0.139819
0.141888
0.144057
0.146337
0.148743
0.151304
0.154028
0.156916
0.160031
0.163452
0.167194
0.171246
0.175585
0.180167
0.184929
0.189773
0.194548
0.199084
0.203094
0.206382
0.208531
0.209614
0.209072
0.20735
0.204193
0.19938
0.193558
0.186411
0.178495
0.169173
0.16029
0.0937475
0.0950975
0.0964399
0.0977933
0.0991438
0.100505
0.101866
0.103239
0.104613
0.106003
0.107394
0.108803
0.110215
0.111649
0.113087
0.11455
0.11602
0.117519
0.119027
0.120568
0.122124
0.123715
0.125328
0.126983
0.128667
0.130403
0.132181
0.134021
0.135926
0.137911
0.139993
0.142175
0.144467
0.146888
0.149463
0.152202
0.155105
0.158235
0.161672
0.165433
0.169507
0.173873
0.178492
0.183303
0.188217
0.193092
0.197766
0.201968
0.205506
0.207984
0.20946
0.209392
0.208252
0.205689
0.201486
0.196224
0.189612
0.182095
0.173051
0.164196
0.0915986
0.0929512
0.094296
0.0956516
0.0970044
0.0983683
0.0997313
0.101107
0.102484
0.103876
0.10527
0.106682
0.108097
0.109534
0.110975
0.112442
0.113917
0.11542
0.116933
0.118479
0.12004
0.121637
0.123256
0.124918
0.12661
0.128354
0.130142
0.131992
0.133908
0.135905
0.137998
0.140194
0.142501
0.144935
0.147527
0.150283
0.153204
0.156354
0.159812
0.163598
0.167703
0.172108
0.176776
0.181652
0.186653
0.191645
0.196479
0.200891
0.204704
0.207527
0.209418
0.209838
0.209247
0.207259
0.203645
0.198942
0.192836
0.185715
0.176927
0.168089
0.0893461
0.0907029
0.0920516
0.0934111
0.0947674
0.0961347
0.097501
0.0988803
0.10026
0.101656
0.103053
0.104468
0.105887
0.107328
0.108772
0.110243
0.11172
0.113228
0.114744
0.116295
0.11786
0.119463
0.121089
0.122757
0.124456
0.126208
0.128005
0.129865
0.131791
0.133799
0.135906
0.138115
0.140436
0.142888
0.145497
0.148273
0.151215
0.154388
0.157872
0.161688
0.165829
0.170279
0.175002
0.179951
0.185046
0.190165
0.195162
0.199793
0.203877
0.207048
0.209341
0.210243
0.210234
0.208837
0.205827
0.201682
0.196104
0.189378
0.180863
0.172043
0.0869969
0.0883572
0.0897094
0.0910725
0.0924325
0.0938036
0.0951736
0.0965569
0.0979407
0.0993399
0.10074
0.102159
0.103581
0.105026
0.106474
0.107948
0.109429
0.11094
0.112461
0.114016
0.115586
0.117194
0.118825
0.120499
0.122205
0.123965
0.12577
0.12764
0.129576
0.131597
0.133716
0.135939
0.138277
0.140745
0.143374
0.146172
0.149138
0.152337
0.155852
0.159704
0.16389
0.168394
0.173185
0.178219
0.183425
0.188686
0.193869
0.198733
0.203114
0.206648
0.209373
0.210768
0.211313
0.21049
0.208065
0.204476
0.1994
0.193064
0.184799
0.175989
0.0845495
0.0859146
0.0872712
0.0886387
0.0900029
0.0913781
0.0927522
0.0941395
0.0955274
0.0969305
0.0983351
0.0997577
0.101183
0.102631
0.104083
0.105559
0.107044
0.108558
0.110083
0.111641
0.113216
0.114828
0.116464
0.118145
0.119857
0.121625
0.123438
0.125317
0.127265
0.129297
0.131429
0.133667
0.136021
0.138508
0.141158
0.14398
0.146972
0.150202
0.153751
0.157643
0.161878
0.166442
0.171306
0.176433
0.181757
0.187168
0.19254
0.197646
0.202321
0.206224
0.20936
0.211247
0.212377
0.212145
0.210319
0.207289
0.202735
0.19679
0.188793
0.179993
0.0820134
0.0833817
0.0847417
0.0861125
0.0874803
0.088859
0.0902366
0.0916273
0.0930185
0.094425
0.0958325
0.0972584
0.0986871
0.100138
0.101593
0.103073
0.104561
0.106079
0.107607
0.10917
0.110749
0.112366
0.114007
0.115694
0.117413
0.119187
0.12101
0.122898
0.124856
0.1269
0.129045
0.131299
0.13367
0.136176
0.138849
0.141696
0.144718
0.147981
0.151569
0.155507
0.159799
0.164432
0.169381
0.174613
0.180069
0.185646
0.191226
0.196589
0.201585
0.205867
0.209455
0.211841
0.213532
0.213877
0.212635
0.210159
0.206104
0.200543
0.192788
0.183991
0.0793907
0.0807632
0.0821268
0.0835009
0.0848714
0.0862527
0.0876329
0.0890261
0.0904202
0.0918293
0.0932397
0.0946683
0.0960998
0.0975534
0.0990105
0.100493
0.101984
0.103505
0.105036
0.106602
0.108185
0.109807
0.111454
0.113146
0.114871
0.116653
0.118483
0.120381
0.122349
0.124405
0.126565
0.128833
0.131222
0.133749
0.136446
0.139321
0.142375
0.145675
0.149304
0.153293
0.157646
0.162354
0.167391
0.172737
0.17833
0.184082
0.189871
0.195503
0.200812
0.205488
0.209492
0.212387
0.214668
0.215606
0.214961
0.213043
0.209505
0.20433
0.196838
0.188043
0.0766509
0.0780275
0.0793951
0.0807735
0.0821484
0.0835341
0.0849185
0.086316
0.087714
0.0891271
0.0905411
0.0919733
0.0934084
0.0948655
0.0963263
0.0978127
0.0993074
0.100832
0.102367
0.103937
0.105524
0.10715
0.108802
0.1105
0.112231
0.11402
0.115859
0.117766
0.119745
0.121813
0.123987
0.126271
0.128679
0.131227
0.133949
0.136853
0.139941
0.143281
0.146957
0.151002
0.155423
0.160213
0.165352
0.170821
0.176567
0.182506
0.188527
0.19444
0.20009
0.205167
0.209637
0.213042
0.215892
0.21741
0.21735
0.215986
0.212942
0.208145
0.200886
0.19209
0.0738165
0.0751978
0.0765696
0.0779523
0.0793311
0.0807207
0.082109
0.0835105
0.0849127
0.0863299
0.0877481
0.0891841
0.0906229
0.0920835
0.0935473
0.0950367
0.0965342
0.0980617
0.0995996
0.101173
0.102764
0.104395
0.106051
0.107755
0.109493
0.111289
0.113136
0.115052
0.117042
0.119123
0.121311
0.123611
0.126037
0.128608
0.131357
0.134293
0.137418
0.1408
0.144526
0.14863
0.153124
0.158002
0.163248
0.168846
0.174751
0.180886
0.18714
0.193344
0.199329
0.20482
0.209717
0.213655
0.217095
0.219207
0.219743
0.218938
0.216405
0.211991
0.204987
0.196186
0.0708674
0.0722527
0.0736291
0.0750164
0.0764005
0.0777952
0.0791889
0.0805955
0.0820027
0.0834245
0.0848472
0.0862874
0.0877305
0.0891951
0.0906631
0.0921563
0.093658
0.0951893
0.0967312
0.0983087
0.0999041
0.101539
0.103201
0.104909
0.106654
0.108457
0.110313
0.112238
0.114239
0.116333
0.118535
0.120852
0.123298
0.125892
0.128669
0.131639
0.134802
0.138232
0.142011
0.14618
0.150754
0.155728
0.16109
0.166831
0.172908
0.179252
0.185759
0.192267
0.198615
0.204525
0.209905
0.214367
0.218383
0.22108
0.222203
0.22195
0.219907
0.215864
0.209084
0.200275
0.0678484
0.069238
0.0706178
0.0720081
0.0733948
0.0747918
0.0761879
0.077597
0.0790071
0.0804319
0.0818575
0.0833008
0.0847465
0.086214
0.0876843
0.0891801
0.090684
0.0922182
0.0937628
0.0953438
0.0969429
0.098582
0.100249
0.101963
0.103714
0.105525
0.107388
0.109324
0.111336
0.113442
0.115659
0.117993
0.120459
0.123077
0.125884
0.128889
0.132095
0.135574
0.13941
0.143648
0.148306
0.153382
0.158865
0.164754
0.171009
0.177571
0.184333
0.191154
0.19786
0.204201
0.210027
0.215044
0.21965
0.222941
0.224661
0.224968
0.22343
0.219763
0.213231
0.20441
0.0646939
0.0660883
0.0674731
0.0688689
0.0702608
0.0716634
0.0730646
0.0744787
0.0758935
0.0773227
0.0787526
0.0801999
0.08165
0.0831213
0.084596
0.0860955
0.0876038
0.0891417
0.0906904
0.0922752
0.0938785
0.095522
0.097194
0.0989139
0.100671
0.102489
0.104362
0.106307
0.108331
0.11045
0.112681
0.115033
0.11752
0.120161
0.123001
0.126043
0.129295
0.132825
0.136724
0.141036
0.145785
0.15097
0.156587
0.162633
0.169082
0.175872
0.18291
0.190056
0.197147
0.203927
0.210251
0.215808
0.220995
0.224877
0.227185
0.228044
0.226992
0.223688
0.217369
0.208533
0.0614494
0.0628485
0.0642373
0.0656369
0.0670325
0.0684386
0.0698436
0.0712618
0.0726809
0.0741146
0.0755487
0.0770003
0.0784539
0.0799292
0.0814066
0.0829095
0.0844203
0.0859616
0.0875132
0.0891018
0.0907092
0.0923573
0.0940346
0.0957604
0.0975242
0.0993503
0.101231
0.103187
0.105221
0.107353
0.1096
0.111969
0.114476
0.117146
0.120017
0.123101
0.1264
0.129987
0.133949
0.138339
0.143183
0.148483
0.154236
0.160449
0.167094
0.174123
0.181438
0.18892
0.19639
0.203619
0.210409
0.216547
0.22232
0.226796
0.229704
0.231122
0.23057
0.227636
0.221555
0.212699
0.0580565
0.0594607
0.0608558
0.062262
0.0636651
0.0650787
0.0664914
0.0679167
0.069343
0.070783
0.0722236
0.0736806
0.0751404
0.0766204
0.0781036
0.0796108
0.081127
0.0826724
0.0842288
0.0858216
0.0874338
0.0890867
0.0907696
0.0925014
0.094272
0.0961059
0.0979953
0.0999605
0.102006
0.104151
0.106412
0.1088
0.111331
0.114026
0.116934
0.120061
0.123408
0.127055
0.131085
0.135559
0.140504
0.145928
0.151828
0.158218
0.165073
0.172354
0.179965
0.187796
0.195668
0.203358
0.210659
0.21736
0.223719
0.228792
0.23229
0.234259
0.234186
0.231606
0.225727
0.21685
0.0546157
0.0560236
0.057421
0.0588292
0.0602337
0.0616485
0.0630628
0.06449
0.0659187
0.0673616
0.068805
0.0702654
0.0717277
0.0732113
0.074697
0.0762077
0.0777265
0.0792759
0.0808358
0.0824332
0.0840502
0.0857084
0.0873972
0.0891354
0.090913
0.0927545
0.0946525
0.0966273
0.098684
0.100841
0.103119
0.105525
0.108078
0.110805
0.113749
0.116919
0.120319
0.124026
0.12813
0.132689
0.137742
0.143292
0.149346
0.155917
0.16299
0.170529
0.178441
0.186627
0.194901
0.203055
0.210851
0.218151
0.225094
0.230765
0.234865
0.237393
0.237814
0.235597
0.229945
0.221041
0.0510044
0.0524176
0.0538207
0.0552352
0.056646
0.0580677
0.0594882
0.0609218
0.0623565
0.0638051
0.0652545
0.0667204
0.0681893
0.0696785
0.0711711
0.0726873
0.0742131
0.0757679
0.0773341
0.0789367
0.0805597
0.0822232
0.0839181
0.0856623
0.0874466
0.0892954
0.0912016
0.0931861
0.0952538
0.0974249
0.099718
0.102144
0.104723
0.107476
0.110459
0.113674
0.117128
0.1209
0.12508
0.129732
0.134898
0.140585
0.146801
0.153566
0.160869
0.16868
0.176909
0.185465
0.194163
0.202795
0.211122
0.219004
0.226539
0.232814
0.237508
0.240585
0.241478
0.239605
0.234145
0.225214
0.0472997
0.0487163
0.0501223
0.0515406
0.0529555
0.054382
0.0558082
0.0572484
0.0586902
0.0601467
0.0616033
0.0630768
0.064552
0.066048
0.0675457
0.0690676
0.0705979
0.0721578
0.0737284
0.0753359
0.0769637
0.0786321
0.0803323
0.0820816
0.0838719
0.0857272
0.0876411
0.0896345
0.0917132
0.0938971
0.096207
0.098652
0.101253
0.10404
0.107059
0.110321
0.113832
0.117672
0.121931
0.12668
0.131963
0.137791
0.144175
0.15114
0.158679
0.166768
0.175322
0.184252
0.193376
0.202488
0.211339
0.219832
0.227957
0.234835
0.240135
0.24377
0.245151
0.243633
0.238389
0.229427
0.0433205
0.0447486
0.0461733
0.0476139
0.0490549
0.0505064
0.0519578
0.0534204
0.0548835
0.0563574
0.0578303
0.0593164
0.0608043
0.0623095
0.0638171
0.0653457
0.0668834
0.068448
0.0700237
0.0716344
0.0732658
0.0749369
0.0766405
0.0783929
0.0801873
0.0820474
0.0839675
0.0859689
0.0880571
0.0902541
0.0925789
0.0950438
0.0976719
0.100486
0.103547
0.106857
0.110427
0.114339
0.118683
0.123533
0.128942
0.13492
0.141481
0.148657
0.156446
0.164827
0.17372
0.183042
0.192609
0.202219
0.21162
0.220713
0.229441
0.236933
0.242829
0.247011
0.248857
0.247674
0.242612
0.233621
0.0399166
0.0413347
0.0427353
0.0441449
0.0455481
0.0469623
0.0483754
0.0498043
0.0512352
0.0526827
0.0541305
0.0555973
0.0570665
0.0585577
0.0600517
0.0615705
0.0630993
0.064658
0.0662288
0.0678365
0.0694661
0.071136
0.0728397
0.0745926
0.0763888
0.0782517
0.0801763
0.082184
0.0842815
0.0864901
0.0888317
0.0913162
0.0939673
0.0968174
0.0999174
0.103279
0.106911
0.110897
0.115328
0.120284
0.125822
0.131955
0.138699
0.146092
0.154137
0.162817
0.172056
0.181775
0.191792
0.201901
0.211852
0.221567
0.230895
0.238999
0.245505
0.250244
0.252571
0.251733
0.246878
0.237856
0.0355935
0.0370325
0.0384681
0.0399183
0.0413682
0.0428266
0.0442836
0.0457499
0.0472152
0.0486899
0.0501619
0.051646
0.0531306
0.0546321
0.0561351
0.057659
0.0591918
0.0607516
0.0623224
0.0639287
0.0655563
0.0672238
0.0689254
0.0706766
0.0724721
0.0743359
0.0762633
0.0782763
0.0803818
0.0826027
0.084959
0.0874646
0.0901443
0.0930227
0.0961673
0.0995812
0.103278
0.107343
0.111867
0.116935
0.122609
0.128905
0.135843
0.143465
0.151778
0.160771
0.170372
0.180505
0.190987
0.201615
0.212136
0.222467
0.232413
0.24114
0.248246
0.25353
0.256313
0.2558
0.25112
0.242075
0.0320446
0.0334716
0.0348798
0.0362945
0.0377019
0.0391185
0.0405333
0.0419626
0.043393
0.0448387
0.0462831
0.0477454
0.0492083
0.0506927
0.0521781
0.0536881
0.055207
0.056756
0.0583163
0.0599143
0.0615344
0.0631955
0.0648921
0.0666392
0.0684322
0.0702951
0.0722241
0.0742414
0.0763546
0.0785861
0.0809591
0.0834845
0.0861882
0.089105
0.0922917
0.095761
0.0995251
0.103672
0.108291
0.113474
0.119289
0.125754
0.132891
0.140748
0.149337
0.158651
0.168621
0.179173
0.190128
0.201278
0.212373
0.223337
0.233896
0.243246
0.250965
0.256805
0.260061
0.259885
0.255404
0.246339
0.0274826
0.0289344
0.0303822
0.0318426
0.0333015
0.0347661
0.0362278
0.0376963
0.0391623
0.0406352
0.0421036
0.043582
0.0450592
0.0465519
0.0480445
0.0495567
0.0510768
0.0526234
0.0541801
0.0557725
0.0573865
0.0590412
0.0607317
0.0624736
0.0642627
0.0661238
0.0680532
0.0700739
0.0721934
0.0744363
0.0768233
0.0793701
0.0821038
0.085052
0.0882867
0.0918134
0.0956481
0.0998806
0.104601
0.109906
0.11587
0.122512
0.129858
0.137961
0.146839
0.156488
0.166842
0.177831
0.189275
0.200966
0.212653
0.22425
0.235445
0.245428
0.25375
0.26013
0.263834
0.263973
0.259662
0.250586
0.0238122
0.0252496
0.0266649
0.0280824
0.0294899
0.0309032
0.0323124
0.033734
0.0351549
0.0365897
0.0380211
0.0394699
0.0409175
0.0423867
0.0438551
0.0453484
0.0468496
0.0483815
0.0499239
0.051505
0.0531084
0.0547541
0.0564371
0.0581726
0.0599569
0.0618153
0.0637443
0.0657676
0.0678935
0.0701461
0.0725499
0.0751172
0.0778777
0.0808668
0.084148
0.0877349
0.0916431
0.0959641
0.100788
0.106219
0.112335
0.11916
0.126722
0.135078
0.144252
0.154244
0.164991
0.176424
0.188366
0.200603
0.212889
0.225133
0.236957
0.247572
0.256512
0.263446
0.267614
0.268079
0.263958
0.254876
0.0191183
0.0205735
0.0220164
0.0234652
0.0249071
0.0263525
0.0277925
0.02924
0.0306843
0.0321373
0.0335855
0.0350453
0.0365038
0.0379791
0.0394534
0.040948
0.0424496
0.0439783
0.0455161
0.0470906
0.0486869
0.0503248
0.0520005
0.0537294
0.0555084
0.0573635
0.0592916
0.0613173
0.0634489
0.0657127
0.0681308
0.0707214
0.0735136
0.0765372
0.0798705
0.0835198
0.087505
0.0919195
0.096853
0.102416
0.108694
0.11571
0.123498
0.132119
0.141603
0.151952
0.163107
0.175001
0.187456
0.200258
0.213158
0.226056
0.238532
0.249791
0.259336
0.266807
0.271414
0.272184
0.268225
0.259142
0.0146587
0.0161168
0.0175616
0.0190102
0.0204525
0.021898
0.0233386
0.0247868
0.0262306
0.0276825
0.0291257
0.0305809
0.0320296
0.0334961
0.0349568
0.0364399
0.0379273
0.0394445
0.0409696
0.0425336
0.0441194
0.0457482
0.0474155
0.0491373
0.0509107
0.0527622
0.0546892
0.0567168
0.0588548
0.0611283
0.0635641
0.0661761
0.0689972
0.0720651
0.0754493
0.0791646
0.08323
0.087741
0.0927873
0.0984858
0.104929
0.112143
0.120162
0.129056
0.138857
0.149572
0.161145
0.17351
0.186489
0.199864
0.213387
0.226947
0.240069
0.251971
0.262136
0.270159
0.275221
0.276306
0.272527
0.263445
0.0100236
0.0114826
0.0129262
0.0143741
0.015813
0.0172542
0.0186886
0.0201301
0.0215674
0.023013
0.024452
0.0259021
0.0273489
0.028812
0.0302718
0.031751
0.0332354
0.0347464
0.036265
0.0378205
0.0393976
0.0410172
0.042676
0.0443901
0.0461571
0.0480045
0.0499299
0.0519596
0.0541028
0.0563879
0.0588386
0.0614758
0.0643315
0.0674382
0.0708798
0.0746639
0.0788135
0.083426
0.0885911
0.0944324
0.10105
0.10847
0.116732
0.125911
0.136043
0.147139
0.159146
0.171997
0.185517
0.199482
0.213644
0.227879
0.241672
0.254226
0.264999
0.273552
0.279045
0.280424
0.276798
0.267718
0.00536795
0.00682811
0.00827084
0.00971509
0.0111495
0.0125853
0.0140133
0.0154482
0.0168763
0.0183122
0.0197368
0.0211738
0.0226021
0.0240487
0.0254876
0.0269494
0.0284141
0.0299093
0.0314115
0.0329535
0.0345175
0.0361258
0.0377744
0.0394798
0.0412398
0.0430826
0.0450062
0.0470375
0.0491873
0.051483
0.0539535
0.0566146
0.0595038
0.0626593
0.0661577
0.0700141
0.0742511
0.0789684
0.0842556
0.0902434
0.0970391
0.104672
0.113184
0.122655
0.133127
0.144613
0.157064
0.170413
0.184485
0.199051
0.213863
0.228778
0.243234
0.256441
0.267838
0.27694
0.282878
0.284559
0.281098
0.272018
0.000415366
0.00187673
0.0033193
0.00476402
0.00619667
0.00762969
0.00905317
0.0104823
0.0119051
0.0133347
0.0147555
0.0161864
0.017612
0.0190534
0.0204896
0.0219449
0.0234042
0.0248905
0.0263835
0.0279145
0.0294675
0.0310645
0.0327028
0.034399
0.0361515
0.0379895
0.0399115
0.0419453
0.0441018
0.0464113
0.0488993
0.0515896
0.0545171
0.057716
0.0612775
0.0652091
0.0695379
0.0743656
0.0797812
0.085923
0.0929058
0.100762
0.109534
0.11931
0.130135
0.142028
0.154938
0.168803
0.183443
0.198629
0.214104
0.229717
0.244862
0.258732
0.270737
0.280366
0.286724
0.288686
0.285364
0.276284
-0.0045639
-0.0031023
-0.00166123
-0.000220936
0.00120669
0.00263365
0.00405016
0.00547196
0.00688472
0.00830386
0.00970911
0.0111256
0.0125312
0.0139548
0.0153684
0.0168048
0.0182427
0.0197117
0.0211867
0.0227027
0.0242412
0.0258257
0.0274529
0.0291398
0.0308853
0.032719
0.0346401
0.0366772
0.0388424
0.0411649
0.0436757
0.0463932
0.0493578
0.0526109
0.0562347
0.0602455
0.0646697
0.069611
0.0751583
0.0814578
0.0886328
0.0967166
0.105757
0.115846
0.127035
0.139343
0.152726
0.167118
0.182342
0.198158
0.21431
0.230624
0.246448
0.260981
0.273614
0.283789
0.290581
0.29283
0.289655
0.280571
-0.00984918
-0.00838704
-0.00694714
-0.00550753
-0.00408328
-0.00266082
-0.00125094
0.000163312
0.00156846
0.00297948
0.00437875
0.00578749
0.00718861
0.00860536
0.0100147
0.0114432
0.0128743
0.0143332
0.0157979
0.017302
0.0188288
0.0204017
0.0220186
0.0236966
0.0254355
0.0272657
0.0291867
0.0312282
0.033402
0.0357407
0.0382718
0.0410218
0.0440294
0.047331
0.0510244
0.0551178
0.0596416
0.0647021
0.0703878
0.0768527
0.0842289
0.0925515
0.101871
0.112286
0.123853
0.136595
0.150465
0.165404
0.181225
0.197694
0.214535
0.23157
0.248103
0.263308
0.27655
0.287247
0.294449
0.296964
0.29391
0.284818
-0.0152025
-0.0137414
-0.012304
-0.0108695
-0.00945073
-0.00803458
-0.00663172
-0.00522474
-0.00382947
-0.0024287
-0.00104486
0.000349824
0.00173092
0.00313012
0.00451695
0.00592674
0.00733657
0.00877821
0.010225
0.0117143
0.0132271
0.014788
0.0163945
0.0180641
0.019797
0.0216243
0.0235458
0.0255921
0.0277765
0.0301307
0.0326878
0.0354687
0.0385187
0.0418803
0.0456422
0.0498216
0.0544485
0.0596312
0.0654587
0.0720928
0.0796758
0.0882426
0.09785
0.1086
0.120556
0.13374
0.148115
0.163611
0.18005
0.197181
0.214727
0.232486
0.249716
0.265595
0.279467
0.290706
0.29833
0.301115
0.298185
0.28908
-0.0208891
-0.0194286
-0.0179927
-0.0165588
-0.0151424
-0.0137296
-0.0123314
-0.0109303
-0.00954028
-0.00814596
-0.00676579
-0.00537764
-0.00399926
-0.00260621
-0.00122264
0.000179403
0.0015829
0.00301431
0.00445125
0.00592866
0.00743021
0.00897986
0.0105767
0.0122383
0.0139654
0.0157902
0.0177128
0.0197651
0.0219602
0.0243331
0.0269136
0.0297313
0.032829
0.0362436
0.0400817
0.0443503
0.0490846
0.0543961
0.060372
0.0671842
0.0749827
0.083806
0.0937127
0.104812
0.117172
0.130817
0.145711
0.161787
0.178858
0.196677
0.214936
0.233442
0.251397
0.267957
0.282442
0.294198
0.30222
0.305254
0.302424
0.293299
-0.026629
-0.0251705
-0.0237381
-0.0223104
-0.0209005
-0.0194949
-0.0181046
-0.0167116
-0.0153322
-0.0139487
-0.0125845
-0.0112108
-0.00985274
-0.00847744
-0.00711636
-0.00573308
-0.00435057
-0.00293613
-0.0015166
-5.35461e-05
0.00143455
0.00297274
0.00455994
0.00621381
0.0079357
0.00975831
0.0116826
0.013741
0.0159486
0.018339
0.0209483
0.0238002
0.0269436
0.0304244
0.0343364
0.0386986
0.0435438
0.0489875
0.0551151
0.0621101
0.0701296
0.0792163
0.0894308
0.100889
0.113665
0.127783
0.143214
0.159882
0.177606
0.196122
0.21512
0.234369
0.253038
0.270283
0.285401
0.297694
0.306125
0.30941
0.306679
0.297528
-0.0326936
-0.0312367
-0.0298073
-0.0283818
-0.0269764
-0.0255765
-0.0241934
-0.0228088
-0.021437
-0.0200622
-0.0187038
-0.0173384
-0.0159844
-0.0146164
-0.0132593
-0.0118842
-0.0105081
-0.00910383
-0.00769398
-0.0062425
-0.00476527
-0.00323804
-0.00166017
-1.41893e-05
0.00170223
0.00352267
0.00544842
0.00751354
0.00973256
0.0121434
0.0147781
0.0176699
0.020866
0.0244042
0.0283999
0.0328581
0.0378205
0.0434017
0.0496904
0.0568758
0.0651282