/*--------------------------------*- C++ -*----------------------------------*\
  =========                 |
  \\      /  F ield         | OpenFOAM: The Open Source CFD Toolbox
   \\    /   O peration     | Website:  https://openfoam.org
    \\  /    A nd           | Version:  6.0
     \\/     M anipulation  |
\*---------------------------------------------------------------------------*/
FoamFile
{
    version     2.0;
    format      ascii;
    class       surfaceScalarField;
    location    "3";
    object      phi;
}
// * * * * * * * * * * * * * * * * * * * * * * * * * * * * * * * * * * * * * //

dimensions      [0 3 -1 0 0 0 0];

internalField   nonuniform List<scalar> 
123526
(
-8.15598e-05
2.2602e-05
8.20147e-05
-8.11005e-05
2.44418e-05
-8.06205e-05
2.64323e-05
-8.00885e-05
2.8586e-05
-7.95334e-05
3.09163e-05
-7.89179e-05
3.3438e-05
-7.82722e-05
3.6167e-05
-7.75601e-05
3.91208e-05
-7.68076e-05
4.23172e-05
-7.59814e-05
4.57771e-05
-7.5101e-05
4.95233e-05
-7.41417e-05
5.35792e-05
-7.31135e-05
5.79705e-05
-7.19949e-05
6.27232e-05
-7.07877e-05
6.78688e-05
-6.94811e-05
7.34451e-05
-6.80729e-05
7.94846e-05
-6.65448e-05
8.60194e-05
-6.48929e-05
9.3101e-05
-6.31117e-05
0.000100777
-6.1182e-05
0.000109085
-5.90967e-05
0.000118087
-5.68469e-05
0.000127849
-5.44105e-05
0.000138409
-5.17782e-05
0.000149866
-4.89388e-05
0.000162273
-4.58631e-05
0.000175714
-4.25503e-05
0.000190282
-3.8962e-05
0.00020605
-3.51007e-05
0.000223141
-3.0924e-05
0.000241631
-2.64227e-05
0.000261652
-2.15535e-05
0.000283299
-1.62924e-05
0.000306708
-1.06216e-05
0.000332008
-4.49859e-06
0.000359303
2.1002e-06
0.000388744
9.23243e-06
0.000420419
1.69607e-05
0.000454439
2.53334e-05
0.000490914
3.44176e-05
0.000529896
4.4294e-05
0.000571396
5.50396e-05
0.000615373
6.67363e-05
0.000661689
7.94641e-05
0.000710076
9.3292e-05
0.000760117
0.000108261
0.000811194
0.000124373
0.000862459
0.0001416
0.000912805
0.000159804
0.000960817
0.000178951
0.00100472
0.000198749
0.00104233
0.000219205
0.00107071
0.000239962
0.00108638
0.000260786
0.00108486
0.000281295
0.00106008
0.000301012
0.00100447
0.000319336
0.000907358
0.000334653
0.000754462
0.000491532
0.000339613
-8.25987e-05
2.22242e-05
8.30046e-05
-8.21716e-05
2.40314e-05
-8.17153e-05
2.59865e-05
-8.12137e-05
2.81016e-05
-8.06804e-05
3.03898e-05
-8.00923e-05
3.28659e-05
-7.9466e-05
3.55453e-05
-7.87789e-05
3.84454e-05
-7.8044e-05
4.15828e-05
-7.72404e-05
4.49788e-05
-7.63751e-05
4.86566e-05
-7.54353e-05
5.26388e-05
-7.44171e-05
5.69509e-05
-7.3313e-05
6.16158e-05
-7.21107e-05
6.66666e-05
-7.08121e-05
7.21446e-05
-6.94038e-05
7.8079e-05
-6.78771e-05
8.44941e-05
-6.62219e-05
9.14503e-05
-6.44371e-05
9.89963e-05
-6.25027e-05
0.000107156
-6.04108e-05
0.000116
-5.8156e-05
0.0001256
-5.57113e-05
0.000135968
-5.30739e-05
0.000147234
-5.02248e-05
0.000159428
-4.71424e-05
0.000172636
-4.38176e-05
0.000186962
-4.02177e-05
0.000202457
-3.63379e-05
0.000219267
-3.2142e-05
0.000237438
-2.76169e-05
0.00025713
-2.27242e-05
0.000278415
-1.74377e-05
0.000301433
-1.17322e-05
0.000326317
-5.56143e-06
0.000353149
1.09659e-06
0.000382104
8.29841e-06
0.000413238
1.61077e-05
0.000446652
2.45724e-05
0.000482474
3.37565e-05
0.000520739
4.37339e-05
0.000561447
5.45718e-05
0.000604567
6.63393e-05
0.000649955
7.91006e-05
0.000697349
9.29078e-05
0.000746342
0.000107785
0.000796338
0.000123723
0.000846523
0.000140683
0.000895819
0.000158531
0.000942865
0.000177256
0.00098593
0.000196571
0.00102285
0.000216503
0.00105083
0.000236703
0.0010663
0.000256964
0.00106479
0.000276924
0.00104034
0.000296136
0.000985441
0.000313967
0.000889792
0.000328162
0.000740341
0.000487367
0.000332345
-8.18709e-05
2.18558e-05
8.22643e-05
-8.1459e-05
2.36336e-05
-8.10183e-05
2.55567e-05
-8.05405e-05
2.76369e-05
-8.00298e-05
2.98873e-05
-7.94744e-05
3.23221e-05
-7.88801e-05
3.49567e-05
-7.82332e-05
3.7808e-05
-7.75385e-05
4.08916e-05
-7.67816e-05
4.42286e-05
-7.59651e-05
4.78427e-05
-7.50777e-05
5.17554e-05
-7.41167e-05
5.59917e-05
-7.30704e-05
6.0572e-05
-7.19309e-05
6.55297e-05
-7.06942e-05
7.09104e-05
-6.93511e-05
7.67395e-05
-6.78874e-05
8.30343e-05
-6.6296e-05
8.98635e-05
-6.45718e-05
9.72774e-05
-6.26969e-05
0.000105287
-6.06611e-05
0.00011397
-5.84603e-05
0.000123405
-5.60662e-05
0.00013358
-5.34772e-05
0.000144651
-5.06728e-05
0.000156629
-4.76327e-05
0.000169602
-4.4346e-05
0.000183682
-4.07813e-05
0.000198899
-3.69321e-05
0.000215424
-3.27627e-05
0.000233273
-2.82581e-05
0.000252629
-2.33805e-05
0.000273544
-1.81008e-05
0.000296166
-1.23945e-05
0.000320625
-6.21297e-06
0.000346983
4.66193e-07
0.000375443
7.69747e-06
0.000406026
1.5541e-05
0.000438829
2.40421e-05
0.000473994
3.32598e-05
0.000511544
4.32607e-05
0.00055147
5.41028e-05
0.000593749
6.58438e-05
0.000638238
7.85358e-05
0.000684678
9.22189e-05
0.000732676
0.000106908
0.00078166
0.000122589
0.000830838
0.000139225
0.000879178
0.000156689
0.000925341
0.000174985
0.000967642
0.000193835
0.00100395
0.000213285
0.00103144
0.000232988
0.00104659
0.000252761
0.00104504
0.000272232
0.00102087
0.000290977
0.000966692
0.000308316
0.000872458
0.000322128
0.000726592
0.000482226
0.000327394
-8.0651e-05
2.14923e-05
8.1019e-05
-8.02549e-05
2.3241e-05
-7.98269e-05
2.51328e-05
-7.93643e-05
2.71792e-05
-7.88667e-05
2.93932e-05
-7.83278e-05
3.17887e-05
-7.77483e-05
3.43808e-05
-7.7123e-05
3.71861e-05
-7.64484e-05
4.0219e-05
-7.57209e-05
4.35008e-05
-7.49323e-05
4.70553e-05
-7.4084e-05
5.09029e-05
-7.31592e-05
5.50685e-05
-7.21614e-05
5.9569e-05
-7.1068e-05
6.44392e-05
-6.9888e-05
6.97274e-05
-6.86001e-05
7.54562e-05
-6.71999e-05
8.1635e-05
-6.56713e-05
8.83412e-05
-6.40154e-05
9.56254e-05
-6.22084e-05
0.000103487
-6.0243e-05
0.00011201
-5.81117e-05
0.00012128
-5.57875e-05
0.000131261
-5.32671e-05
0.000142136
-5.05298e-05
0.000153897
-4.75554e-05
0.000166634
-4.4332e-05
0.000180466
-4.0829e-05
0.000195403
-3.70383e-05
0.000211639
-3.29259e-05
0.000229164
-2.84746e-05
0.000248181
-2.36461e-05
0.000268724
-1.84135e-05
0.000290944
-1.27493e-05
0.000314975
-6.60598e-06
0.000340855
3.98826e-08
0.000368813
7.24057e-06
0.000398843
1.50526e-05
0.000431037
2.35186e-05
0.00046555
3.26938e-05
0.000502392
4.26398e-05
0.00054155
5.34083e-05
0.00058301
6.50495e-05
0.000626629
7.7608e-05
0.000672155
9.11165e-05
0.000719204
0.000105585
0.000767224
0.000120997
0.000815449
0.000137317
0.000862866
0.000154425
0.000908179
0.000172334
0.00094972
0.000190769
0.000985403
0.00020979
0.00101247
0.000229061
0.00102743
0.000248398
0.00102585
0.00026743
0.00100199
0.000285741
0.000948537
0.00030263
0.000855812
0.000316248
0.000713153
0.000476112
0.000322574
-7.92913e-05
2.11416e-05
7.96661e-05
-7.89002e-05
2.28621e-05
-7.84798e-05
2.47233e-05
-7.80259e-05
2.67368e-05
-7.75395e-05
2.89152e-05
-7.70129e-05
3.12723e-05
-7.64492e-05
3.3823e-05
-7.58386e-05
3.65836e-05
-7.51832e-05
3.95675e-05
-7.44728e-05
4.2796e-05
-7.37076e-05
4.62932e-05
-7.28802e-05
5.00786e-05
-7.19854e-05
5.41763e-05
-7.10152e-05
5.86006e-05
-6.99594e-05
6.33866e-05
-6.88164e-05
6.85864e-05
-6.75748e-05
7.42184e-05
-6.62222e-05
8.02853e-05
-6.47484e-05
8.68721e-05
-6.31496e-05
9.40307e-05
-6.14048e-05
0.000101747
-5.95043e-05
0.000110114
-5.74409e-05
0.000119223
-5.5187e-05
0.000129012
-5.27385e-05
0.000139694
-5.00743e-05
0.000151239
-4.71734e-05
0.000163739
-4.40238e-05
0.000177323
-4.05942e-05
0.000191981
-3.68766e-05
0.000207927
-3.28356e-05
0.000225127
-2.84543e-05
0.000243804
-2.36956e-05
0.000263971
-1.85293e-05
0.00028579
-1.29308e-05
0.000309389
-6.85116e-06
0.000334789
-2.6708e-07
0.000362244
6.87139e-06
0.000391721
1.46171e-05
0.000423308
2.30103e-05
0.000457175
3.21028e-05
0.000493319
4.19522e-05
0.000531719
5.26054e-05
0.000572376
6.41075e-05
0.000615146
7.64973e-05
0.000659782
8.9803e-05
0.000705914
0.000104032
0.000753008
0.000119166
0.000800317
0.000135174
0.000846865
0.000151941
0.00089137
0.000169485
0.000932205
0.000187538
0.000967304
0.000206162
0.000993878
0.000225034
0.00100852
0.000243967
0.00100687
0.000262595
0.000983313
0.0002805
0.00093056
0.000296977
0.000839279
0.000310442
0.000699666
0.000469025
0.00031755
-7.79207e-05
2.07946e-05
7.82768e-05
-7.75409e-05
2.24869e-05
-7.71298e-05
2.43178e-05
-7.66859e-05
2.62987e-05
-7.62081e-05
2.84419e-05
-7.56911e-05
3.07611e-05
-7.51353e-05
3.32709e-05
-7.45359e-05
3.59877e-05
-7.38897e-05
3.89234e-05
-7.31937e-05
4.20997e-05
-7.24406e-05
4.5541e-05
-7.16317e-05
4.92659e-05
-7.07524e-05
5.3298e-05
-6.98054e-05
5.76487e-05
-6.87709e-05
6.23539e-05
-6.76568e-05
6.7469e-05
-6.64438e-05
7.3009e-05
-6.51272e-05
7.89687e-05
-6.36915e-05
8.54415e-05
-6.21374e-05
9.24795e-05
-6.0441e-05
0.000100057
-5.85948e-05
0.000108272
-5.65897e-05
0.000117224
-5.43988e-05
0.000126826
-5.20167e-05
0.000137317
-4.94226e-05
0.00014865
-4.65946e-05
0.000160917
-4.35201e-05
0.000174255
-4.01677e-05
0.000188635
-3.65282e-05
0.000204294
-3.25668e-05
0.000221168
-2.8266e-05
0.000239506
-2.35865e-05
0.0002593
-1.85021e-05
0.000280715
-1.29847e-05
0.000303884
-6.9873e-06
0.000328804
-4.86195e-07
0.000355756
6.56634e-06
0.000384684
1.42197e-05
0.000415671
2.25119e-05
0.000448901
3.14921e-05
0.000484358
4.12147e-05
0.000522019
5.17229e-05
0.000561892
6.30581e-05
0.000603837
7.52556e-05
0.000647613
8.83403e-05
0.00069286
0.000102318
0.000739058
0.000117172
0.000785482
0.000132873
0.000831173
0.000149311
0.000874882
0.000166509
0.000914994
0.0001842
0.00094949
0.000202451
0.000975641
0.000220956
0.000990074
0.000239511
0.000988389
0.000257764
0.000965123
0.000275288
0.000913111
0.000291395
0.000823319
0.000304702
0.00068646
0.000461519
0.000312345
-7.65426e-05
2.04561e-05
7.68973e-05
-7.6169e-05
2.21209e-05
-7.57653e-05
2.39221e-05
-7.53301e-05
2.58708e-05
-7.48612e-05
2.79794e-05
-7.4355e-05
3.02612e-05
-7.38103e-05
3.27309e-05
-7.3222e-05
3.54043e-05
-7.25879e-05
3.82928e-05
-7.1903e-05
4.14179e-05
-7.11629e-05
4.48045e-05
-7.03658e-05
4.84702e-05
-6.95022e-05
5.24381e-05
-6.857e-05
5.6717e-05
-6.75549e-05
6.13433e-05
-6.64608e-05
6.63758e-05
-6.52728e-05
7.18258e-05
-6.39834e-05
7.76815e-05
-6.25798e-05
8.40432e-05
-6.10612e-05
9.09642e-05
-5.9405e-05
9.84061e-05
-5.76035e-05
0.000106475
-5.56477e-05
0.000115274
-5.35112e-05
0.000124693
-5.11881e-05
0.000135
-4.86576e-05
0.000146124
-4.58976e-05
0.000158163
-4.28951e-05
0.000171258
-3.96182e-05
0.000185365
-3.60579e-05
0.000200739
-3.2178e-05
0.000217292
-2.79607e-05
0.000235293
-2.33694e-05
0.000254713
-1.83731e-05
0.00027573
-1.29478e-05
0.000298469
-7.04512e-06
0.000322913
-6.41714e-07
0.000349366
6.30798e-06
0.000377747
1.38503e-05
0.000408144
2.20216e-05
0.000440744
3.08687e-05
0.000475526
4.04433e-05
0.000512459
5.07861e-05
0.000551564
6.19356e-05
0.000592703
7.39248e-05
0.000635637
8.67767e-05
0.00068002
0.000100497
0.000725347
0.00011507
0.000770911
0.000130468
0.000815781
0.000146589
0.000858722
0.000163455
0.000898157
0.000180807
0.000932077
0.000198705
0.000957735
0.000216862
0.000971852
0.000235061
0.000970097
0.00025296
0.000947126
0.000270126
0.000895801
0.00028589
0.000807423
0.000299022
0.000673185
0.000453386
0.000307014
-7.51863e-05
2.01207e-05
7.5524e-05
-7.48227e-05
2.17581e-05
-7.44273e-05
2.35298e-05
-7.40012e-05
2.54467e-05
-7.35402e-05
2.75211e-05
-7.30427e-05
2.9766e-05
-7.2505e-05
3.2196e-05
-7.19268e-05
3.48268e-05
-7.13005e-05
3.76685e-05
-7.06279e-05
4.0743e-05
-6.98976e-05
4.40757e-05
-6.91155e-05
4.76829e-05
-6.82632e-05
5.15879e-05
-6.73483e-05
5.57963e-05
-6.63477e-05
6.03457e-05
-6.52736e-05
6.52977e-05
-6.41041e-05
7.06606e-05
-6.28386e-05
7.64151e-05
-6.14595e-05
8.26694e-05
-5.99706e-05
8.94772e-05
-5.83468e-05
9.6788e-05
-5.65829e-05
0.000104715
-5.46687e-05
0.000113365
-5.25792e-05
0.000122608
-5.03078e-05
0.000132733
-4.78343e-05
0.000143654
-4.51362e-05
0.00015547
-4.22007e-05
0.000168329
-3.89961e-05
0.000182166
-3.55119e-05
0.00019726
-3.1713e-05
0.000213496
-2.75814e-05
0.000231164
-2.30778e-05
0.000250217
-1.81761e-05
0.000270836
-1.28483e-05
0.000293152
-7.04837e-06
0.000317123
-7.52599e-07
0.000343081
6.08267e-06
0.000370924
1.35012e-05
0.000400739
2.15378e-05
0.000432723
3.02376e-05
0.000466843
3.96503e-05
0.000503065
4.98144e-05
0.00054142
6.07665e-05
0.000581773
7.25379e-05
0.00062389
8.51509e-05
0.000667432
9.86111e-05
0.000711909
0.000112905
0.000756632
0.000128007
0.000800684
0.000143821
0.000842859
0.000160367
0.000881592
0.000177389
0.000914916
0.000194951
0.000940147
0.000212778
0.000954033
0.000230638
0.000952241
0.000248201
0.000929545
0.000265028
0.000878963
0.000280477
0.000792015
0.000293421
0.000660226
0.000445171
0.000301628
-7.3836e-05
1.97946e-05
7.41794e-05
-7.34759e-05
2.14055e-05
-7.30861e-05
2.31485e-05
-7.26663e-05
2.50344e-05
-7.22136e-05
2.70751e-05
-7.1725e-05
2.92838e-05
-7.11989e-05
3.16748e-05
-7.06307e-05
3.42635e-05
-7.00178e-05
3.70592e-05
-6.93557e-05
4.00839e-05
-6.86399e-05
4.33633e-05
-6.78688e-05
4.6913e-05
-6.70332e-05
5.07556e-05
-6.61312e-05
5.48946e-05
-6.51493e-05
5.93677e-05
-6.40916e-05
6.42403e-05
-6.29436e-05
6.95169e-05
-6.16991e-05
7.51718e-05
-6.03454e-05
8.13203e-05
-5.8883e-05
8.8017e-05
-5.72895e-05
9.51995e-05
-5.55591e-05
0.000102987
-5.36821e-05
0.000111493
-5.16343e-05
0.000120563
-4.94091e-05
0.000130513
-4.6987e-05
0.000141236
-4.43456e-05
0.000152833
-4.14722e-05
0.00016546
-3.83351e-05
0.000179034
-3.49242e-05
0.000193853
-3.12037e-05
0.000209779
-2.71551e-05
0.000227119
-2.27423e-05
0.000245809
-1.79345e-05
0.000266038
-1.27078e-05
0.000287934
-7.01502e-06
0.00031144
-8.328e-07
0.000336909
5.88079e-06
0.000364222
1.31673e-05
0.000393464
2.10608e-05
0.000424841
2.96045e-05
0.000458311
3.88464e-05
0.000493835
4.88237e-05
0.000531455
5.95715e-05
0.000571037
7.11201e-05
0.000612351
8.34913e-05
0.00065507
9.66915e-05
0.000698716
0.000110708
0.000742616
0.00012552
0.00078588
0.000141034
0.00082731
0.000157271
0.000865381
0.000173978
0.000898134
0.000191216
0.000922877
0.000208724
0.000936452
0.000226257
0.00093459
0.0002435
0.000912183
0.000260003
0.000862277
0.000275154
0.000776698
0.000287898
0.000647265
0.000436621
0.000296224
-7.25163e-05
1.94718e-05
7.28446e-05
-7.21654e-05
2.10563e-05
-7.17837e-05
2.27709e-05
-7.13725e-05
2.4626e-05
-7.09277e-05
2.66336e-05
-7.04477e-05
2.88067e-05
-6.99291e-05
3.11591e-05
-6.93708e-05
3.37064e-05
-6.87664e-05
3.64566e-05
-6.81165e-05
3.94322e-05
-6.7411e-05
4.2659e-05
-6.66545e-05
4.61519e-05
-6.58306e-05
4.99333e-05
-6.49452e-05
5.40038e-05
-6.39775e-05
5.84022e-05
-6.29381e-05
6.31969e-05
-6.18071e-05
6.83893e-05
-6.05835e-05
7.39468e-05
-5.9251e-05
7.99922e-05
-5.78133e-05
8.65805e-05
-5.62468e-05
9.36378e-05
-5.45469e-05
0.00010129
-5.27037e-05
0.000109655
-5.0694e-05
0.000118556
-4.85112e-05
0.000128335
-4.61363e-05
0.000138865
-4.35474e-05
0.000150249
-4.07317e-05
0.000162649
-3.76584e-05
0.000175966
-3.43167e-05
0.000190516
-3.06718e-05
0.000206136
-2.67056e-05
0.000223155
-2.23792e-05
0.000241489
-1.76673e-05
0.000261332
-1.25419e-05
0.000282817
-6.9583e-06
0.000305865
-8.92975e-07
0.000330852
5.69469e-06
0.000357644
1.28446e-05
0.000386325
2.05898e-05
0.000417108
2.89723e-05
0.000449942
3.80388e-05
0.000484784
4.78252e-05
0.000521686
5.83657e-05
0.000560516
6.96898e-05
0.000601048
8.18193e-05
0.000642962
9.47614e-05
0.000685794
0.000108506
0.000728885
0.000123033
0.000771358
0.000138254
0.000812043
0.000154189
0.000849426
0.000170588
0.000881587
0.000187513
0.000905901
0.000204714
0.000919227
0.000221932
0.000917325
0.000238863
0.000895174
0.000255058
0.000846003
0.000269926
0.000761782
0.000282468
0.000634606
0.000428103
0.000290847
-7.12116e-05
1.91567e-05
7.15381e-05
-7.08665e-05
2.07155e-05
-7.04916e-05
2.24021e-05
-7.00885e-05
2.42272e-05
-6.96521e-05
2.62022e-05
-6.9182e-05
2.83401e-05
-6.86739e-05
3.06547e-05
-6.81262e-05
3.31612e-05
-6.75334e-05
3.58669e-05
-6.68942e-05
3.87943e-05
-6.62013e-05
4.19694e-05
-6.5456e-05
4.54066e-05
-6.46466e-05
4.91276e-05
-6.37742e-05
5.31308e-05
-6.28231e-05
5.74555e-05
-6.17999e-05
6.21733e-05
-6.06884e-05
6.72824e-05
-5.94848e-05
7.27438e-05
-5.81752e-05
7.86873e-05
-5.67618e-05
8.51688e-05
-5.52222e-05
9.21029e-05
-5.35519e-05
9.96217e-05
-5.17412e-05
0.000107849
-4.97676e-05
0.000116585
-4.76247e-05
0.000126196
-4.52941e-05
0.000136537
-4.27544e-05
0.000147713
-3.99933e-05
0.000159893
-3.69802e-05
0.000172958
-3.37049e-05
0.000187245
-3.01324e-05
0.000202566
-2.62444e-05
0.00021927
-2.20058e-05
0.000237254
-1.73861e-05
0.000256721
-1.23622e-05
0.000277801
-6.88793e-06
0.000300398
-9.40526e-07
0.000324913
5.51947e-06
0.000351193
1.25307e-05
0.000379322
2.01254e-05
0.000409523
2.83447e-05
0.000441733
3.72338e-05
0.000475904
4.68279e-05
0.000512101
5.71604e-05
0.000550193
6.82604e-05
0.000589956
8.01498e-05
0.000631081
9.28368e-05
0.000673114
0.000106313
0.000715412
0.00012056
0.000757119
0.000135495
0.000797077
0.000151136
0.000833809
0.000167237
0.000865403
0.000183857
0.000889236
0.000200756
0.000902254
0.000217668
0.000900282
0.000234299
0.000878412
0.000250194
0.000829899
0.000264791
0.000746995
0.000277128
0.000622002
0.000419437
0.00028551
-6.99379e-05
1.88448e-05
7.02505e-05
-6.96014e-05
2.0378e-05
-6.92342e-05
2.20371e-05
-6.88393e-05
2.38324e-05
-6.84105e-05
2.57754e-05
-6.79487e-05
2.78788e-05
-6.74479e-05
3.01561e-05
-6.69101e-05
3.26225e-05
-6.63256e-05
3.52843e-05
-6.56985e-05
3.81641e-05
-6.50159e-05
4.12884e-05
-6.42851e-05
4.46707e-05
-6.34875e-05
4.83324e-05
-6.26318e-05
5.22693e-05
-6.1695e-05
5.65218e-05
-6.06901e-05
6.11642e-05
-5.95956e-05
6.61919e-05
-5.84126e-05
7.1559e-05
-5.71237e-05
7.7403e-05
-5.57343e-05
8.37799e-05
-5.42201e-05
9.05935e-05
-5.25783e-05
9.79817e-05
-5.07986e-05
0.000106073
-4.88597e-05
0.000114648
-4.6755e-05
0.000124095
-4.44668e-05
0.000134252
-4.1974e-05
0.000145224
-3.92649e-05
0.000157188
-3.63095e-05
0.000170006
-3.30974e-05
0.000184036
-2.95948e-05
0.000199066
-2.57842e-05
0.000215461
-2.16277e-05
0.000233104
-1.71009e-05
0.0002522
-1.21763e-05
0.000272883
-6.81067e-06
0.000295038
-9.81044e-07
0.00031909
5.3511e-06
0.000344868
1.22234e-05
0.000372459
1.96673e-05
0.000402089
2.7723e-05
0.000433688
3.64349e-05
0.000467205
4.58374e-05
0.000502714
5.59632e-05
0.000540084
6.68413e-05
0.000579097
7.84938e-05
0.000619449
9.09297e-05
0.000660697
0.000104143
0.000702212
0.000118116
0.00074315
0.000132771
0.000782381
0.000148124
0.000818437
0.00016393
0.000849444
0.000180252
0.000872848
0.000196858
0.000885605
0.000213472
0.000883588
0.000229808
0.000861957
0.000245416
0.000814159
0.000259751
0.000732545
0.000271885
0.000609671
0.000410842
0.000280238
-6.86794e-05
1.85414e-05
6.89958e-05
-6.83465e-05
2.00498e-05
-6.79847e-05
2.1682e-05
-6.75959e-05
2.34483e-05
-6.71749e-05
2.536e-05
-6.67215e-05
2.74294e-05
-6.62315e-05
2.96701e-05
-6.57032e-05
3.20972e-05
-6.51315e-05
3.47158e-05
-6.45147e-05
3.75489e-05
-6.38462e-05
4.06232e-05
-6.31266e-05
4.39514e-05
-6.23455e-05
4.75545e-05
-6.15029e-05
5.14262e-05
-6.05844e-05
5.56071e-05
-5.95957e-05
6.01749e-05
-5.85217e-05
6.51218e-05
-5.73586e-05
7.0396e-05
-5.60929e-05
7.61413e-05
-5.47273e-05
8.24151e-05
-5.32395e-05
8.91098e-05
-5.1626e-05
9.63698e-05
-4.98773e-05
0.000104329
-4.79723e-05
0.000112745
-4.59048e-05
0.000122031
-4.36576e-05
0.000132007
-4.12102e-05
0.00014278
-3.85512e-05
0.000154532
-3.56512e-05
0.00016711
-3.25004e-05
0.000180889
-2.90653e-05
0.000195633
-2.53279e-05
0.000211727
-2.12547e-05
0.000229033
-1.68162e-05
0.000247769
-1.19899e-05
0.000268063
-6.73124e-06
0.000289786
-1.01804e-06
0.000313383
5.18733e-06
0.000338669
1.19216e-05
0.000365731
1.92158e-05
0.000394802
2.71093e-05
0.000425802
3.56456e-05
0.000458677
4.48583e-05
0.000493509
5.47799e-05
0.00053017
6.54391e-05
0.000568445
7.68582e-05
0.000608037
8.90474e-05
0.000648514
0.000102002
0.000689261
0.000115707
0.000729454
0.000130086
0.000767974
0.000145156
0.000803391
0.000160677
0.000833836
0.000176708
0.00085677
0.000193024
0.000869226
0.000209346
0.000867141
0.000225395
0.000845782
0.000240722
0.000798626
0.000254803
0.000718282
0.000266734
0.000597469
0.000402267
0.000275032
-6.74524e-05
1.82414e-05
6.77563e-05
-6.71276e-05
1.97252e-05
-6.67732e-05
2.13309e-05
-6.63923e-05
2.30685e-05
-6.59788e-05
2.49493e-05
-6.55336e-05
2.69853e-05
-6.5051e-05
2.91901e-05
-6.45324e-05
3.15784e-05
-6.39692e-05
3.41546e-05
-6.33642e-05
3.69415e-05
-6.27063e-05
3.99666e-05
-6.20009e-05
4.32416e-05
-6.12318e-05
4.67872e-05
-6.04053e-05
5.05947e-05
-5.95015e-05
5.47055e-05
-5.85309e-05
5.92003e-05
-5.74741e-05
6.40684e-05
-5.63314e-05
6.92514e-05
-5.50865e-05
7.49003e-05
-5.37443e-05
8.10729e-05
-5.22817e-05
8.76512e-05
-5.06961e-05
9.47854e-05
-4.89775e-05
0.000102614
-4.71058e-05
0.000110875
-4.50747e-05
0.000120003
-4.28676e-05
0.000129802
-4.04644e-05
0.00014038
-3.78541e-05
0.000151925
-3.50081e-05
0.000164268
-3.19165e-05
0.0001778
-2.85468e-05
0.000192264
-2.48824e-05
0.000208063
-2.08869e-05
0.000225043
-1.6537e-05
0.000243423
-1.18062e-05
0.000263337
-6.65263e-06
0.000284637
-1.05415e-06
0.000307789
5.02615e-06
0.000332594
1.16243e-05
0.00035914
1.87707e-05
0.000387663
2.65041e-05
0.000418078
3.48671e-05
0.000450325
4.3893e-05
0.000484496
5.36137e-05
0.000520464
6.40579e-05
0.000558017
7.52482e-05
0.000596865
8.71955e-05
0.000636584
9.98973e-05
0.000676573
0.000113338
0.000716019
0.000127448
0.000753828
0.000142241
0.00078858
0.000157478
0.000818447
0.000173223
0.000840953
0.000189256
0.000853141
0.000205293
0.000851005
0.00022106
0.000829871
0.000236114
0.000783407
0.000249949
0.000704288
0.000261681
0.000585488
0.000393734
0.000269907
-6.62438e-05
1.79483e-05
6.65454e-05
-6.59245e-05
1.94081e-05
-6.55765e-05
2.09879e-05
-6.5203e-05
2.26974e-05
-6.47974e-05
2.45478e-05
-6.43612e-05
2.65511e-05
-6.38885e-05
2.87206e-05
-6.33798e-05
3.10708e-05
-6.28276e-05
3.36053e-05
-6.2233e-05
3.63472e-05
-6.15872e-05
3.9324e-05
-6.08931e-05
4.25468e-05
-6.01382e-05
4.60359e-05
-5.9325e-05
4.97804e-05
-5.84375e-05
5.38222e-05
-5.74831e-05
5.8245e-05
-5.64456e-05
6.3035e-05
-5.53227e-05
6.81281e-05
-5.41002e-05
7.36818e-05
-5.27815e-05
7.97548e-05
-5.13448e-05
8.62184e-05
-4.9787e-05
9.32287e-05
-4.80987e-05
0.000100929
-4.62599e-05
0.000109037
-4.42648e-05
0.000118011
-4.20972e-05
0.000127636
-3.97373e-05
0.000138023
-3.71746e-05
0.000149366
-3.43811e-05
0.000161478
-3.13475e-05
0.000174769
-2.80416e-05
0.00018896
-2.44465e-05
0.000204471
-2.05301e-05
0.000221129
-1.62643e-05
0.000239163
-1.16275e-05
0.000258705
-6.57683e-06
0.00027959
-1.09077e-06
0.000302307
4.86678e-06
0.000326642
1.13312e-05
0.000352681
1.83325e-05
0.000380668
2.59086e-05
0.000410508
3.41015e-05
0.000442138
4.29439e-05
0.000475659
5.24674e-05
0.000510947
6.27007e-05
0.00054779
7.36667e-05
0.000585905
8.5377e-05
0.00062488
9.78302e-05
0.000664124
0.000111013
0.000702844
0.000124858
0.000739958
0.000139378
0.000774083
0.000154339
0.000803397
0.000169804
0.000825442
0.000185556
0.000837336
0.000201312
0.000835133
0.000216803
0.000814262
0.00023159
0.00076842
0.000245183
0.000690525
0.000256719
0.000573687
0.000385329
0.00026486
-6.50646e-05
1.76586e-05
6.53547e-05
-6.47528e-05
1.90946e-05
-6.44119e-05
2.06487e-05
-6.40458e-05
2.23306e-05
-6.36474e-05
2.41511e-05
-6.32192e-05
2.61222e-05
-6.27537e-05
2.8257e-05
-6.22542e-05
3.05698e-05
-6.17105e-05
3.30634e-05
-6.11274e-05
3.57608e-05
-6.04919e-05
3.86902e-05
-5.98116e-05
4.18616e-05
-5.90686e-05
4.52953e-05
-5.82713e-05
4.89778e-05
-5.73983e-05
5.29521e-05
-5.64617e-05
5.73043e-05
-5.54414e-05
6.20181e-05
-5.43386e-05
6.70232e-05
-5.31368e-05
7.24839e-05
-5.18414e-05
7.84591e-05
-5.04295e-05
8.48103e-05
-4.88992e-05
9.16992e-05
-4.72405e-05
9.92741e-05
-4.54344e-05
0.000107232
-4.34747e-05
0.000116054
-4.13459e-05
0.000125509
-3.90287e-05
0.000135709
-3.65127e-05
0.000146853
-3.37708e-05
0.000158738
-3.07935e-05
0.000171795
-2.75499e-05
0.000185717
-2.40243e-05
0.000200946
-2.01819e-05
0.000217291
-1.60005e-05
0.000234986
-1.14549e-05
0.000254164
-6.50486e-06
0.000274644
-1.12896e-06
0.000296935
4.70829e-06
0.000320809
1.10417e-05
0.000346352
1.79006e-05
0.000373815
2.53226e-05
0.000403094
3.33488e-05
0.000434121
4.20115e-05
0.000467008
5.13421e-05
0.00050163
6.13691e-05
0.000537777
7.21155e-05
0.000575175
8.35938e-05
0.000613418
9.58042e-05
0.000651927
0.000108734
0.000689922
0.00012232
0.000726341
0.000136571
0.000759815
0.000151259
0.00078856
0.000166448
0.000810181
0.000181925
0.000821802
0.000197406
0.000819542
0.000212625
0.000798882
0.000227152
0.000753704
0.000240509
0.000676976
0.000251853
0.00056206
0.000376937
0.000259898
-6.39024e-05
1.73764e-05
6.41944e-05
-6.35945e-05
1.87894e-05
-6.32588e-05
2.03184e-05
-6.28987e-05
2.19732e-05
-6.25076e-05
2.37645e-05
-6.20871e-05
2.57041e-05
-6.16316e-05
2.78047e-05
-6.11411e-05
3.00809e-05
-6.06091e-05
3.25342e-05
-6.00358e-05
3.51881e-05
-5.94135e-05
3.80708e-05
-5.87442e-05
4.11918e-05
-5.80165e-05
4.45709e-05
-5.72323e-05
4.81924e-05
-5.63765e-05
5.20999e-05
-5.5456e-05
5.63826e-05
-5.44552e-05
6.1021e-05
-5.3372e-05
6.59393e-05
-5.21925e-05
7.13079e-05
-5.09204e-05
7.7187e-05
-4.9534e-05
8.34274e-05
-4.80311e-05
9.01968e-05
-4.64021e-05
9.76482e-05
-4.46283e-05
0.000105459
-4.27038e-05
0.000114132
-4.06133e-05
0.00012342
-3.83381e-05
0.000133436
-3.58681e-05
0.000144385
-3.31767e-05
0.00015605
-3.0255e-05
0.000168875
-2.70724e-05
0.000182536
-2.36129e-05
0.000197488
-1.9846e-05
0.000213526
-1.57449e-05
0.00023089
-1.12891e-05
0.000249712
-6.43731e-06
0.000269795
-1.169e-06
0.000291669
4.55067e-06
0.000315092
1.07559e-05
0.000340151
1.74757e-05
0.000367099
2.47469e-05
0.000395827
3.26101e-05
0.000426262
4.10971e-05
0.000458526
5.0239e-05
0.000492494
6.0064e-05
0.000527958
7.05956e-05
0.00056465
8.18468e-05
0.000602173
9.38189e-05
0.000639959
0.0001065
0.000677247
0.000119831
0.000712988
0.000133819
0.000745848
0.00014824
0.000774051
0.000163157
0.000795222
0.000178363
0.000806558
0.000193572
0.000804234
0.000208525
0.000783827
0.000222796
0.000739256
0.000235921
0.00066371
0.000247075
0.000550674
0.000368783
0.000255017
-6.27687e-05
1.70976e-05
6.30502e-05
-6.24679e-05
1.84878e-05
-6.2139e-05
1.99922e-05
-6.17861e-05
2.16203e-05
-6.1402e-05
2.33828e-05
-6.09893e-05
2.52913e-05
-6.0541e-05
2.73585e-05
-6.00597e-05
2.95985e-05
-5.9536e-05
3.20123e-05
-5.89739e-05
3.46233e-05
-5.83618e-05
3.74601e-05
-5.77058e-05
4.05315e-05
-5.699e-05
4.3857e-05
-5.62211e-05
4.74187e-05
-5.53797e-05
5.12609e-05
-5.44764e-05
5.54754e-05
-5.34926e-05
6.00402e-05
-5.2429e-05
6.48734e-05
-5.127e-05
7.01522e-05
-5.00206e-05
7.59369e-05
-4.86588e-05
8.20689e-05
-4.71827e-05
8.87211e-05
-4.55829e-05
9.60514e-05
-4.38409e-05
0.000103718
-4.19512e-05
0.000112245
-3.98986e-05
0.000121368
-3.76647e-05
0.000131204
-3.52401e-05
0.000141963
-3.25984e-05
0.00015341
-2.9731e-05
0.00016601
-2.66082e-05
0.000179414
-2.32152e-05
0.000194095
-1.95191e-05
0.000209834
-1.54986e-05
0.000226872
-1.11299e-05
0.000245347
-6.37428e-06
0.000265041
-1.21121e-06
0.000286509
4.39351e-06
0.00030949
1.04735e-05
0.000334075
1.70574e-05
0.00036052
2.41813e-05
0.000388709
3.18852e-05
0.000418566
4.02005e-05
0.00045022
4.91579e-05
0.000483548
5.87857e-05
0.000518343
6.91074e-05
0.000554343
8.01365e-05
0.000591159
9.18757e-05
0.000628235
0.000104314
0.000664818
0.000117395
0.000699883
0.000131123
0.000732105
0.00014528
0.00075975
0.000159931
0.000780502
0.000174869
0.000791564
0.000189812
0.000789176
0.000204502
0.00076897
0.000218524
0.000725036
0.000231421
0.000650605
0.00024239
0.00053941
0.000360592
0.000250223
-6.16534e-05
1.68252e-05
6.19322e-05
-6.13578e-05
1.8193e-05
-6.10349e-05
1.96732e-05
-6.06889e-05
2.12753e-05
-6.03122e-05
2.30095e-05
-5.99077e-05
2.48875e-05
-5.94685e-05
2.69218e-05
-5.89963e-05
2.91264e-05
-5.84829e-05
3.15015e-05
-5.79307e-05
3.40705e-05
-5.733e-05
3.68624e-05
-5.66849e-05
3.98851e-05
-5.59825e-05
4.3158e-05
-5.52264e-05
4.6661e-05
-5.44006e-05
5.04388e-05
-5.3513e-05
5.45863e-05
-5.25475e-05
5.90784e-05
-5.1503e-05
6.38279e-05
-5.03654e-05
6.9018e-05
-4.91387e-05
7.47099e-05
-4.78018e-05
8.07351e-05
-4.63526e-05
8.72722e-05
-4.47818e-05
9.44835e-05
-4.30715e-05
0.000102009
-4.12161e-05
0.000110392
-3.92009e-05
0.000119354
-3.7008e-05
0.000129013
-3.46279e-05
0.000139585
-3.20352e-05
0.00015082
-2.92214e-05
0.000163198
-2.61574e-05
0.00017635
-2.28279e-05
0.000190767
-1.9204e-05
0.000206211
-1.52604e-05
0.000222933
-1.09775e-05
0.000241066
-6.31572e-06
0.000260382
-1.25536e-06
0.00028145
4.23716e-06
0.000304
1.01949e-05
0.00032812
1.66461e-05
0.000354072
2.36262e-05
0.000381733
3.11745e-05
0.000411022
3.93221e-05
0.000442077
4.80994e-05
0.000474775
5.75344e-05
0.000508913
6.76507e-05
0.000544232
7.84626e-05
0.000580352
8.99733e-05
0.000616728
0.000102173
0.000652624
0.000115008
0.000687027
0.000128482
0.000718651
0.000142381
0.000745765
0.000156768
0.000766078
0.000171443
0.000776863
0.000186123
0.000774413
0.000200556
0.00075445
0.000214331
0.000711103
0.000227006
0.000637814
0.00023779
0.000528425
0.000352708
0.00024551
-6.05643e-05
1.65561e-05
6.08334e-05
-6.02755e-05
1.79018e-05
-5.9959e-05
1.93582e-05
-5.96198e-05
2.09345e-05
-5.92498e-05
2.2641e-05
-5.88528e-05
2.4489e-05
-5.84205e-05
2.64911e-05
-5.79572e-05
2.86609e-05
-5.74519e-05
3.09978e-05
-5.69105e-05
3.35256e-05
-5.63197e-05
3.62733e-05
-5.56875e-05
3.92482e-05
-5.49966e-05
4.24695e-05
-5.42554e-05
4.59149e-05
-5.34436e-05
4.96298e-05
-5.25728e-05
5.37116e-05
-5.1624e-05
5.81327e-05
-5.05987e-05
6.28003e-05
-4.94811e-05
6.79037e-05
-4.82767e-05
7.35047e-05
-4.69637e-05
7.94253e-05
-4.55408e-05
8.58494e-05
-4.39985e-05
9.29439e-05
-4.23194e-05
0.00010033
-4.04979e-05
0.000108572
-3.85196e-05
0.000117377
-3.6367e-05
0.000126862
-3.4031e-05
0.00013725
-3.14864e-05
0.000148277
-2.87252e-05
0.000160438
-2.57187e-05
0.000173344
-2.24532e-05
0.000187502
-1.88973e-05
0.000202658
-1.50309e-05
0.000219069
-1.08313e-05
0.000236869
-6.26135e-06
0.000255813
-1.30143e-06
0.000276492
4.08146e-06
0.000298619
9.91987e-06
0.000322284
1.62415e-05
0.000347755
2.30811e-05
0.000374899
3.04776e-05
0.000403632
3.84615e-05
0.000434102
4.70628e-05
0.000466185
5.63095e-05
0.000499679
6.62253e-05
0.000534331
7.68246e-05
0.000569769
8.81121e-05
0.000605457
0.000100078
0.000640669
0.000112672
0.000674415
0.000125895
0.000705416
0.000139539
0.000731984