/*--------------------------------*- C++ -*----------------------------------*\
  =========                 |
  \\      /  F ield         | OpenFOAM: The Open Source CFD Toolbox
   \\    /   O peration     | Website:  https://openfoam.org
    \\  /    A nd           | Version:  6.0
     \\/     M anipulation  |
\*---------------------------------------------------------------------------*/
FoamFile
{
    version     2.0;
    format      ascii;
    class       volScalarField;
    location    "6";
    object      p;
}
// * * * * * * * * * * * * * * * * * * * * * * * * * * * * * * * * * * * * * //

dimensions      [0 2 -2 0 0 0 0];

internalField   nonuniform List<scalar> 
62000
(
0.0327993
0.0326758
0.0325454
0.0324082
0.032265
0.0321147
0.031957
0.0317905
0.0316149
0.0314284
0.031231
0.0310205
0.0307971
0.0305578
0.0303031
0.030029
0.0297364
0.0294206
0.0290823
0.0287163
0.0283234
0.0278982
0.0274415
0.0269478
0.0264183
0.0258477
0.0252382
0.0245855
0.0238931
0.0231592
0.0223896
0.0215877
0.0207601
0.0199132
0.0190533
0.018194
0.01735
0.0165335
0.0157543
0.0150175
0.0143211
0.0136525
0.0129868
0.0122856
0.011499
0.0105732
0.00945722
0.00812005
0.00655929
0.00481101
0.00295544
0.00109882
-0.000622047
-0.00210888
-0.00324605
-0.00395978
-0.00418757
-0.00387204
-0.00302286
-0.00266276
0.032992
0.0328626
0.0327237
0.0325761
0.032423
0.0322647
0.0321015
0.0319317
0.0317548
0.0315685
0.0313727
0.0311648
0.0309448
0.0307096
0.0304593
0.0301903
0.0299026
0.0295921
0.0292588
0.0288984
0.0285105
0.0280908
0.0276388
0.0271503
0.0266251
0.0260594
0.0254535
0.0248052
0.0241155
0.0233849
0.0226169
0.0218161
0.0209888
0.0201402
0.01928
0.0184214
0.0175794
0.0167676
0.0159975
0.0152767
0.014606
0.0139755
0.0133621
0.0127275
0.0120189
0.0111756
0.0101348
0.008849
0.00729651
0.0054946
0.00351012
0.00144573
-0.00054595
-0.00234223
-0.00377674
-0.00471008
-0.00499459
-0.00446932
-0.00324662
-0.00160026
0.0332484
0.0331291
0.0329969
0.0328508
0.0326955
0.0325331
0.0323652
0.0321906
0.0320089
0.0318179
0.0316171
0.0314039
0.0311783
0.030937
0.0306802
0.0304039
0.0301083
0.029789
0.0294459
0.0290746
0.0286744
0.028241
0.0277733
0.0272673
0.026722
0.0261337
0.0255018
0.0248241
0.0241006
0.0233317
0.0225195
0.0216686
0.0207835
0.019871
0.0189398
0.0180042
0.0170797
0.0161809
0.015322
0.0145148
0.0137654
0.0130712
0.0124173
0.0117742
0.0110971
0.0103313
0.00941617
0.0083015
0.00695724
0.00538744
0.00364379
0.00181369
4.23424e-05
-0.00155163
-0.00279323
-0.00353312
-0.00361705
-0.00292153
-0.00165084
-6.79889e-05
0.0336719
0.033574
0.0334591
0.0333243
0.0331751
0.0330151
0.0328473
0.0326716
0.0324878
0.032294
0.0320894
0.0318717
0.0316406
0.0313931
0.0311292
0.0308453
0.030541
0.0302125
0.0298591
0.0294766
0.0290639
0.0286167
0.0281337
0.0276105
0.0270458
0.0264356
0.0257787
0.0250725
0.0243162
0.0235096
0.0226538
0.0217521
0.0208089
0.0198288
0.0188224
0.0178029
0.0167861
0.0157871
0.0148222
0.0139066
0.0130518
0.0122622
0.0115322
0.0108426
0.0101596
0.00943836
0.0086258
0.00767445
0.00655104
0.00525043
0.00380918
0.00229671
0.000841653
-0.00045308
-0.00142501
-0.00193814
-0.00186192
-0.00115008
-8.69818e-06
0.00131242
0.0343075
0.0342327
0.0341372
0.0340173
0.0338782
0.0337244
0.0335602
0.0333869
0.0332045
0.0330114
0.032807
0.0325888
0.0323565
0.0321072
0.031841
0.0315543
0.031247
0.0309151
0.030558
0.0301715
0.0297546
0.0293028
0.0288147
0.0282858
0.0277146
0.0270967
0.0264306
0.0257131
0.0249431
0.0241194
0.0232423
0.0223142
0.0213373
0.0203176
0.019263
0.0181871
0.0171049
0.0160312
0.0149826
0.0139765
0.0130273
0.0121449
0.0113311
0.0105754
0.00985404
0.00913236
0.00836578
0.00751194
0.00653789
0.00543259
0.00422111
0.00295628
0.00174931
0.000685449
-8.79886e-05
-0.000452172
-0.000298516
0.00035695
0.00138508
0.00258801
0.035119
0.0350611
0.0349817
0.0348766
0.0347491
0.0346037
0.0344461
0.034278
0.0341005
0.0339118
0.0337115
0.0334972
0.0332685
0.0330227
0.0327598
0.0324765
0.0321725
0.0318442
0.031491
0.0311088
0.0306963
0.0302496
0.0297669
0.0292437
0.0286786
0.0280668
0.0274068
0.026695
0.0259297
0.0251093
0.0242331
0.0233023
0.0223189
0.0212861
0.0202128
0.0191106
0.0179935
0.0168751
0.0157716
0.0147005
0.0136778
0.0127166
0.0118237
0.0109953
0.0102158
0.00945935
0.00868964
0.00787042
0.00697087
0.00597754
0.00490687
0.00379961
0.0027518
0.00183452
0.00118013
0.000895732
0.00107704
0.00166911
0.00265654
0.00384785
0.0360658
0.0360167
0.0359482
0.0358549
0.0357379
0.0356015
0.0354513
0.0352903
0.0351197
0.0349382
0.0347453
0.0345385
0.0343175
0.0340796
0.0338246
0.0335494
0.0332539
0.0329344
0.0325906
0.0322184
0.0318168
0.0313818
0.0309118
0.0304023
0.0298519
0.0292558
0.0286124
0.0279177
0.0271698
0.0263666
0.0255067
0.0245905
0.0236181
0.0225936
0.0215227
0.0204169
0.0192885
0.0181495
0.0170145
0.0159005
0.0148236
0.0137985
0.0128349
0.011934
0.0110866
0.0102741
0.00946771
0.0086374
0.00775594
0.00680933
0.00580907
0.00478674
0.00382684
0.00298887
0.00239512
0.00214542
0.00233194
0.00287538
0.00387882
0.00511739
0.0371094
0.0370635
0.0370018
0.0369178
0.0368104
0.0366828
0.036541
0.0363879
0.0362254
0.0360524
0.0358684
0.0356712
0.03546
0.0352325
0.0349884
0.0347247
0.034441
0.0341342
0.0338036
0.0334456
0.033059
0.0326401
0.0321872
0.0316962
0.0311655
0.0305905
0.0299693
0.0292981
0.0285747
0.0277965
0.0269617
0.0260695
0.0251204
0.024115
0.0230605
0.0219656
0.0208414
0.0196981
0.0185487
0.0174087
0.0162937
0.0152185
0.0141947
0.0132268
0.0123102
0.0114321
0.0105705
0.00970117
0.00880077
0.0078567
0.0068773
0.00588889
0.00496678
0.00416342
0.00359264
0.00335217
0.00353552
0.0040484
0.00510406
0.00642132
0.038253
0.0382072
0.0381485
0.03807
0.037969
0.0378479
0.0377124
0.037566
0.0374106
0.0372455
0.0370701
0.0368823
0.0366813
0.0364647
0.0362321
0.0359806
0.0357099
0.0354167
0.0351008
0.0347582
0.0343883
0.0339871
0.0335533
0.0330827
0.0325737
0.0320219
0.0314254
0.0307803
0.0300841
0.0293341
0.028528
0.0276648
0.0267427
0.025764
0.0247321
0.023656
0.0225449
0.021407
0.0202536
0.0190985
0.0179561
0.016841
0.0157654
0.0147359
0.0137514
0.0128042
0.0118775
0.0109527
0.0100108
0.00904113
0.00805132
0.00706381
0.00614805
0.00535058
0.0047807
0.00453606
0.00471509
0.00521225
0.00634
0.00775278
0.0394713
0.039424
0.0393668
0.0392923
0.0391966
0.0390812
0.0389517
0.0388114
0.0386626
0.0385047
0.0383372
0.0381582
0.037967
0.037761
0.0375399
0.0373009
0.0370435
0.0367646
0.0364638
0.0361375
0.0357846
0.0354017
0.0349872
0.0345372
0.0340501
0.0335216
0.0329498
0.0323306
0.0316617
0.0309401
0.030163
0.0293289
0.0284364
0.0274843
0.0264781
0.0254238
0.0243296
0.0232019
0.0220504
0.0208871
0.0197251
0.018578
0.0174583
0.0163738
0.0153261
0.0143109
0.0133166
0.0123292
0.0113339
0.010323
0.00930377
0.00829759
0.00736892
0.00656155
0.00598077
0.00572664
0.0059031
0.00639664
0.00760839
0.00912452
0.0407722
0.0407229
0.040666
0.0405938
0.0405016
0.0403905
0.0402657
0.0401307
0.0399877
0.0398363
0.0396762
0.0395053
0.039323
0.0391267
0.0389161
0.0386883
0.0384429
0.0381769
0.0378899
0.0375784
0.0372413
0.0368754
0.0364791
0.0360484
0.035582
0.0350754
0.0345267
0.033932
0.0332886
0.0325936
0.0318439
0.0310376
0.0301717
0.0292471
0.0282651
0.0272326
0.0261558
0.0250397
0.0238922
0.0227237
0.0215458
0.0203711
0.0192119
0.0180768
0.0169692
0.015888
0.0148255
0.0137722
0.0127176
0.0116566
0.0105978
0.00956184
0.00861027
0.00778422
0.00718719
0.0069221
0.00709921
0.00759803
0.0088996
0.0105222
0.0421446
0.0420935
0.0420371
0.0419673
0.0418785
0.0417715
0.0416512
0.0415211
0.0413833
0.0412377
0.0410838
0.04092
0.0407454
0.0405577
0.0403565
0.040139
0.0399047
0.0396507
0.0393764
0.0390786
0.0387561
0.0384058
0.0380259
0.0376128
0.037165
0.0366781
0.0361503
0.0355775
0.0349572
0.034286
0.0335608
0.032779
0.0319386
0.0310369
0.0300775
0.0290647
0.0280038
0.0268985
0.0257552
0.0245828
0.0233913
0.0221924
0.020998
0.0198168
0.0186538
0.0175103
0.0163821
0.0152635
0.0141478
0.0130332
0.0119295
0.0108582
0.00987776
0.00902923
0.00841407
0.00813923
0.00832044
0.00883211
0.0102276
0.0119573
0.0436178
0.0435657
0.0435088
0.0434394
0.0433518
0.0432463
0.0431281
0.0430005
0.0428659
0.0427241
0.0425747
0.042416
0.0422473
0.0420662
0.0418723
0.0416628
0.0414372
0.0411928
0.0409289
0.0406423
0.0403321
0.0399949
0.0396293
0.0392314
0.0387998
0.0383302
0.0378206
0.0372669
0.0366665
0.0360159
0.0353118
0.0345518
0.0337315
0.0328512
0.0319104
0.0309142
0.0298667
0.02877
0.0276292
0.0264519
0.0252468
0.0240245
0.0227962
0.0215711
0.0203549
0.0191512
0.0179588
0.0167755
0.0155981
0.0144281
0.0132772
0.0121673
0.0111561
0.0102834
0.00965028
0.00936751
0.00955639
0.0100867
0.0115778
0.0134136
0.0451618
0.045109
0.0450525
0.0449844
0.0448986
0.0447953
0.0446794
0.0445545
0.0444228
0.0442841
0.0441384
0.043984
0.0438201
0.0436447
0.0434571
0.0432548
0.0430371
0.0428014
0.0425469
0.0422705
0.0419711
0.0416455
0.0412921
0.0409073
0.0404895
0.0400345
0.0395403
0.0390028
0.0384191
0.0377859
0.0370995
0.0363568
0.035555
0.0346902
0.0337651
0.032782
0.0317445
0.0306536
0.0295134
0.0283301
0.0271111
0.0258661
0.0246058
0.0233391
0.0220729
0.020812
0.0195581
0.018312
0.0170741
0.0158488
0.0146495
0.0135002
0.0124564
0.0115591
0.0109088
0.0106206
0.0108204
0.0113747
0.0129633
0.0149038
0.0467938
0.0467407
0.0466843
0.046617
0.0465323
0.0464305
0.0463165
0.0461939
0.0460649
0.0459294
0.0457872
0.0456367
0.0454771
0.0453063
0.0451237
0.0449269
0.0447152
0.044486
0.0442385
0.0439699
0.0436788
0.0433624
0.0430189
0.0426448
0.0422383
0.0417954
0.0413138
0.0407894
0.0402194
0.0396002
0.038928
0.0381998
0.0374106
0.03656
0.0356459
0.0346724
0.0336414
0.0325531
0.0314105
0.0302186
0.0289839
0.027715
0.0264221
0.025114
0.0237982
0.0224811
0.0211666
0.0198584
0.0185602
0.0172792
0.0160311
0.0148411
0.0137648
0.012843
0.0121767
0.0118852
0.0120989
0.0126814
0.0143683
0.0164115
0.0484979
0.0484449
0.0483897
0.0483242
0.0482417
0.0481425
0.0480311
0.0479113
0.0477851
0.0476526
0.0475136
0.0473666
0.0472107
0.0470441
0.0468661
0.0466744
0.0464681
0.0462448
0.0460036
0.0457417
0.0454578
0.045149
0.0448135
0.0444479
0.0440505
0.043617
0.0431454
0.0426314
0.0420722
0.0414638
0.0408025
0.0400847
0.0393069
0.0384642
0.0375585
0.0365907
0.0355628
0.0344739
0.0333262
0.0321238
0.030872
0.0295787
0.0282534
0.0269048
0.0255409
0.0241693
0.0227959
0.0214273
0.0200698
0.0187335
0.0174361
0.0162051
0.015095
0.0141485
0.013467
0.0131744
0.0134049
0.0140197
0.0158062
0.0179506
0.0503151
0.0502625
0.0502074
0.0501418
0.0500592
0.0499599
0.0498487
0.0497295
0.0496042
0.0494731
0.0493357
0.0491905
0.049037
0.0488728
0.0486976
0.0485089
0.0483059
0.0480862
0.0478491
0.0475916
0.0473127
0.0470093
0.0466797
0.0463205
0.0459299
0.0455037
0.0450396
0.0445334
0.043982
0.0433816
0.0427281
0.0420181
0.0412459
0.0404105
0.0395085
0.0385432
0.0375148
0.036422
0.035266
0.0340499
0.0327783
0.0314583
0.0300988
0.0287086
0.0272958
0.0258692
0.0244367
0.0230072
0.02159
0.0201977
0.0188503
0.0175769
0.0164329
0.0154617
0.0147658
0.0144738
0.0147234
0.015374
0.0172608
0.0195039
0.0522055
0.0521537
0.0520996
0.0520352
0.0519538
0.0518557
0.0517456
0.0516275
0.0515033
0.0513734
0.0512373
0.0510938
0.0509421
0.0507802
0.0506075
0.0504218
0.050222
0.0500059
0.0497725
0.0495191
0.0492443
0.0489454
0.0486203
0.0482658
0.0478801
0.047459
0.0470001
0.0464992
0.0459532
0.045358
0.0447095
0.0440035
0.0432362
0.0424019
0.0415016
0.0405351
0.039503
0.0384031
0.037236
0.036004
0.0347109
0.0333629
0.0319687
0.0305366
0.0290753
0.0275943
0.0261033
0.0246135
0.023137
0.0216886
0.0202902
0.0189735
0.0177938
0.0167969
0.0160871
0.0157973
0.0160683
0.016758
0.0187462
0.0210862
0.0541935
0.0541424
0.0540889
0.054025
0.0539441
0.0538465
0.0537372
0.0536201
0.0534971
0.0533686
0.053234
0.0530921
0.0529419
0.0527816
0.0526105
0.0524262
0.052228
0.0520135
0.0517819
0.0515305
0.0512579
0.0509613
0.0506389
0.0502872
0.0499045
0.0494865
0.0490307
0.0485329
0.0479897
0.0473971
0.0467507
0.0460468
0.0452789
0.0444456
0.0435424
0.0425718
0.0415328
0.0404225
0.039241
0.0379899
0.0366721
0.0352934
0.0338618
0.0323858
0.0308741
0.0293372
0.0277863
0.0262349
0.0246977
0.0231916
0.0217406
0.0203787
0.0191626
0.0181397
0.0174161
0.0171297
0.017424
0.0181556
0.020246
0.02268
0.0562576
0.0562074
0.0561555
0.0560935
0.0560144
0.0559187
0.0558112
0.0556957
0.0555744
0.0554474
0.0553143
0.0551738
0.0550251
0.0548663
0.0546966
0.0545141
0.0543175
0.0541047
0.0538747
0.0536249
0.0533537
0.0530587
0.0527376
0.0523873
0.0520059
0.051589
0.0511343
0.0506374
0.0500948
0.0495024
0.0488557
0.0481502
0.0473816
0.0465432
0.0456356
0.0446575
0.0436085
0.042485
0.0412864
0.0400139
0.0386695
0.0372584
0.0357884
0.0342675
0.032705
0.0311117
0.0295006
0.0278873
0.0262888
0.0247243
0.023219
0.0218103
0.0205552
0.0195046
0.018767
0.0184851
0.0188047
0.0195812
0.0217747
0.0243013
0.0584472
0.058398
0.0583462
0.0582836
0.0582036
0.0581068
0.0579983
0.057882
0.0577601
0.0576328
0.0574995
0.0573588
0.05721
0.0570509
0.0568812
0.0566982
0.0565013
0.0562879
0.0560576
0.0558073
0.0555358
0.0552404
0.0549191
0.0545685
0.0541867
0.0537693
0.0533138
0.0528157
0.0522716
0.0516771
0.0510276
0.050319
0.0495441
0.0487012
0.0477848
0.0467965
0.0457345
0.0445946
0.0433757
0.0420784
0.0407042
0.0392575
0.037746
0.0361775
0.0345613
0.0329092
0.0312356
0.0295581
0.0278962
0.0262708
0.0247089
0.0232506
0.0219554
0.0208761
0.0201242
0.0198477
0.0201942
0.0210182
0.0233158
0.0259322
0.0607138
0.0606657
0.0606149
0.0605531
0.0604736
0.0603771
0.0602685
0.0601521
0.0600299
0.0599022
0.0597684
0.0596275
0.0594783
0.0593192
0.0591492
0.0589665
0.0587695
0.0585564
0.0583258
0.0580753
0.0578033
0.0575071
0.0571846
0.0568325
0.0564489
0.0560294
0.0555714
0.0550704
0.0545227
0.053924
0.0532695
0.0525543
0.0517736
0.05092
0.0499936
0.0489922
0.0479142
0.0467552
0.0455135
0.0441892
0.0427829
0.0412989
0.0397443
0.0381268
0.0364559
0.0347437
0.0330064
0.0312637
0.029537
0.0278491
0.0262283
0.0247186
0.0233798
0.0222696
0.0215027
0.0212324
0.0216076
0.0224816
0.0248844
0.0275891
0.0630855
0.0630382
0.0629878
0.0629261
0.0628463
0.0627493
0.0626403
0.0625237
0.0624014
0.0622736
0.0621398
0.0619985
0.0618489
0.061689
0.0615182
0.061334
0.0611356
0.0609204
0.060688
0.0604352
0.0601608
0.0598622
0.0595369
0.0591819
0.058795
0.0583718
0.0579096
0.0574038
0.0568506
0.0562456
0.0555839
0.0548608
0.0540688
0.0532057
0.0522651
0.0512479
0.0501513
0.0489702
0.0477024
0.0463477
0.044906
0.043381
0.0417798
0.0401099
0.0383807
0.0366054
0.0348012
0.0329901
0.0311955
0.0294421
0.0277594
0.0261951
0.0248112
0.0236687
0.0228863
0.0226227
0.0230281
0.0239546
0.0264639
0.029254
0.065538
0.0654916
0.0654425
0.0653822
0.0653036
0.0652075
0.0650994
0.0649833
0.0648613
0.0647337
0.0645996
0.0644582
0.064308
0.0641476
0.0639759
0.0637909
0.0635911
0.0633747
0.0631403
0.0628854
0.0626083
0.0623065
0.0619776
0.0616184
0.0612269
0.0607985
0.0603304
0.059818
0.0592575
0.0586442
0.0579733
0.0572392
0.0564367
0.0555579
0.0546022
0.0535665
0.0524486
0.0512427
0.0499465
0.0485589
0.0470796
0.0455117
0.0438619
0.0421376
0.0403484
0.0385081
0.0366352
0.0347539
0.0328891
0.031068
0.029321
0.0276997
0.0262665
0.0250888
0.02429
0.0240337
0.024471
0.0254524
0.0280693
0.0309436
0.0681261
0.0680806
0.0680313
0.0679696
0.0678891
0.0677908
0.0676803
0.067562
0.067438
0.0673084
0.0671725
0.067029
0.0668768
0.0667139
0.0665396
0.0663515
0.0661485
0.0659283
0.06569
0.0654308
0.0651492
0.0648426
0.0645085
0.0641438
0.0637461
0.0633111
0.0628356
0.062315
0.0617454
0.0611221
0.0604399
0.0596937
0.0588753
0.0579824
0.0570076
0.0559511
0.0548092
0.0535757
0.0522477
0.0508239
0.0493031
0.0476884
0.045986
0.0442033
0.04235
0.0404407
0.0384952
0.0365398
0.0346008
0.0327086
0.0308937
0.0292119
0.0277274
0.0265128
0.0256969
0.0254485
0.0259192
0.0269581
0.0296843
0.03264
0.0707979
0.0707533
0.0707044
0.0706429
0.0705618
0.0704625
0.0703506
0.0702307
0.0701048
0.0699731
0.0698349
0.0696892
0.0695345
0.0693694
0.0691925
0.0690021
0.0687962
0.0685731
0.0683313
0.0680684
0.0677821
0.0674705
0.0671305
0.0667593
0.0663544
0.0659113
0.065427
0.0648967
0.0643164
0.0636812
0.062986
0.0622247
0.0613918
0.0604786
0.0594841
0.0584041
0.0572357
0.055972
0.0546098
0.0531472
0.0515828
0.0499188
0.0481615
0.0463181
0.0443984
0.0424176
0.040397
0.0383647
0.0363488
0.0343824
0.0324972
0.0307525
0.0292114
0.0279568
0.0271228
0.0268829
0.0273885
0.0284872
0.0313237
0.0343595
0.0735829
0.0735388
0.0734898
0.0734274
0.073345
0.0732441
0.0731305
0.073009
0.0728813
0.072748
0.0726078
0.0724598
0.0723026
0.0721343
0.0719539
0.0717593
0.0715489
0.0713206
0.0710733
0.0708043
0.0705118
0.0701933
0.069846
0.0694668
0.0690533
0.0686009
0.0681064
0.0675649
0.0669723
0.0663237
0.0656135
0.0648364
0.0639836
0.0630523
0.0620341
0.0609285
0.059731
0.0584341
0.0570342
0.0555292
0.0539171
0.0521996
0.050383
0.0484742
0.0464834
0.0444265
0.0423262
0.0402123
0.0381148
0.0360701
0.0341109
0.0322994
0.0306993
0.029403
0.0285502
0.0283193
0.0288615
0.0300226
0.0329715
0.0360847
0.0764557
0.076412
0.0763637
0.0763018
0.0762195
0.0761183
0.0760039
0.0758814
0.0757523
0.0756172
0.0754749
0.0753245
0.0751644
0.0749932
0.0748093
0.0746111
0.0743964
0.0741636
0.073911
0.0736362
0.073337
0.0730112
0.0726557
0.0722676
0.0718444
0.0713814
0.0708754
0.0703212
0.0697149
0.0690512
0.0683246
0.0675289
0.066658
0.0657023
0.0646601
0.0635264
0.0622971
0.0609645
0.0595244
0.0579746
0.0563121
0.0545387
0.0526601
0.0506831
0.0486184
0.0464823
0.0442992
0.0421001
0.0399178
0.037791
0.0357555
0.0338733
0.0322093
0.0308679
0.0299953
0.029774
0.0303541
0.03158
0.0346422
0.0378317
0.0794732
0.0794299
0.0793804
0.079316
0.0792303
0.0791252
0.0790068
0.0788801
0.0787471
0.0786079
0.0784615
0.0783068
0.0781421
0.0779657
0.0777765
0.0775722
0.0773512
0.0771112
0.0768512
0.0765685
0.0762609
0.0759262
0.0755613
0.0751631
0.074729
0.0742542
0.0737354
0.0731674
0.0725459
0.0718658
0.0711212
0.0703065
0.069412
0.0684346
0.0673644
0.0662002
0.0649368
0.0635652
0.0620816
0.0604829
0.058766
0.056932
0.0549866
0.0529366
0.0507927
0.0485723
0.0463009
0.0440115
0.0417388
0.0395253
0.0374088
0.0354519
0.0337213
0.0323329
0.0314398
0.0312287
0.0318486
0.0331421
0.03632
0.0395832
0.0825769
0.0825337
0.0824837
0.0824181
0.0823302
0.0822224
0.0821008
0.0819706
0.0818335
0.0816902
0.0815392
0.08138
0.0812104
0.0810294
0.080835
0.0806257
0.080399
0.0801533
0.0798867
0.0795969
0.0792812
0.0789377
0.078563
0.078154
0.0777082
0.0772206
0.076688
0.0761049
0.0754671
0.0747692
0.0740055
0.0731691
0.0722532
0.0712474
0.0701493
0.0689521
0.0676517
0.0662388
0.064709
0.063059
0.0612851
0.0593879
0.0573728
0.0552466
0.0530203
0.050712
0.0483488
0.0459648
0.0435977
0.0412929
0.0390924
0.0370569
0.0352542
0.0338155
0.0329008
0.0327004
0.0333615
0.0347246
0.0380193
0.0413547
0.0857957
0.0857522
0.0857009
0.0856331
0.0855424
0.0854315
0.0853064
0.0851728
0.0850322
0.0848854
0.0847305
0.084567
0.0843926
0.0842061
0.0840058
0.0837897
0.0835558
0.083302
0.0830269
0.0827279
0.0824025
0.0820487
0.0816629
0.0812421
0.0807835
0.0802822
0.0797346
0.0791354
0.07848
0.0777634
0.076979
0.0761207
0.0751778
0.0741471
0.0730163
0.0717843
0.0704442
0.0689869
0.0674074
0.0657024
0.063867
0.0619019
0.0598122
0.0576045
0.0552903
0.0528885
0.0504272
0.0479429
0.0454753
0.0430739
0.040784
0.0386655
0.0367877
0.0352969
0.0343598
0.0341705
0.0348748
0.0363105
0.0397246
0.0431296
0.0891023
0.0890582
0.0890066
0.0889382
0.0888462
0.0887335
0.0886061
0.08847
0.0883263
0.088176
0.0880172
0.0878494
0.0876702
0.0874788
0.0872727
0.0870509
0.0868103
0.0865495
0.0862664
0.0859588
0.0856237
0.0852594
0.0848619
0.0844285
0.0839562
0.0834401
0.0828766
0.0822602
0.0815865
0.0808497
0.0800437
0.0791608
0.0781939
0.0771306
0.0759678
0.0746979
0.0733159
0.0718119
0.0701806
0.0684181
0.0665189
0.0644831
0.0623157
0.0600232
0.0576173
0.055118
0.0525546
0.049965
0.0473924
0.044889
0.0425058
0.0402987
0.0383414
0.0367951
0.0358343
0.0356563
0.0364052
0.0379154
0.0414499
0.0449229
0.0925611
0.0925164
0.0924622
0.0923897
0.0922926
0.0921742
0.0920409
0.0918988
0.0917493
0.0915931
0.0914283
0.0912542
0.0910684
0.0908697
0.0906561
0.0904259
0.0901764
0.0899059
0.0896127
0.0892943
0.0889478
0.0885714
0.0881611
0.087714
0.0872272
0.0866955
0.0861152
0.0854808
0.0847876
0.0840299
0.0832008
0.0822934
0.0812958
0.0802039
0.0790045
0.0776951
0.0762692
0.0747158
0.0730295
0.0712056
0.0692383
0.067127
0.0648766
0.0624937
0.0599904
0.0573873
0.0547152
0.052014
0.0493296
0.0467179
0.0442349
0.0419345
0.0398945
0.0382905
0.037305
0.0371389
0.0379343
0.0395223
0.0431801
0.0467193
0.0961076
0.0960621
0.0960064
0.0959314
0.0958309
0.0957083
0.0955702
0.0954228
0.0952675
0.0951052
0.0949339
0.0947532
0.0945605
0.0943549
0.0941339
0.0938965
0.093639
0.0933603
0.0930579
0.0927296
0.0923721
0.0919838
0.0915604
0.0910993
0.0905972
0.0900492
0.0894514
0.0887982
0.0880848
0.0873048
0.0864516
0.0855166
0.0844916
0.0833636
0.0821285
0.080778
0.0793062
0.0777016
0.0759581
0.0740707
0.0720327
0.0698431
0.0675066
0.0650296
0.0624248
0.0597135
0.056928
0.0541097
0.0513083
0.0485823
0.0459943
0.0435946
0.0414676
0.0398026
0.0387905
0.0386361
0.0394791
0.0411467
0.0449288
0.0485339
0.0997794
0.0997326
0.0996744
0.0995959
0.0994908
0.0993632
0.0992197
0.0990671
0.0989061
0.0987382
0.0985607
0.0983734
0.0981733
0.0979598
0.0977302
0.0974832
0.0972155
0.0969257
0.0966117
0.0962711
0.0959007
0.0954989
0.0950613
0.0945851
0.0940671
0.0935022
0.0928863
0.0922136
0.0914789
0.090676
0.0897973
0.0888351
0.0877767
0.0866176
0.0853428
0.0839498
0.0824302
0.0807717
0.0789677
0.0770129
0.0748997
0.0726267
0.0701985
0.0676216
0.064909
0.0620828
0.0591769
0.0562346
0.0533088
0.0504614
0.0477612
0.0452573
0.04304
0.0413112
0.0402711
0.0401288
0.0410214
0.0427719
0.0466814
0.0503515
0.10356
0.103512
0.103451
0.10337
0.103262
0.103129
0.10298
0.102821
0.102653
0.102478
0.102292
0.102097
0.101888
0.101666
0.101426
0.10117
0.100892
0.100592
0.100266
0.0999137
0.0995305
0.0991152
0.0986632
0.0981717
0.0976376
0.0970554
0.096421
0.0957283
0.094972
0.0941454
0.0932409
0.0922493
0.0911619
0.0899639
0.0886511
0.0872135
0.0856441
0.0839297
0.0820632
0.0800385
0.0778475
0.075488
0.0729646
0.0702838
0.0674588
0.0645129
0.0614812
0.0584092
0.0553529
0.0523778
0.0495592
0.0469447
0.0446326
0.0428364
0.0417657
0.0416352
0.0425782
0.0444133
0.0484507
0.0521859
0.107566
0.107512
0.10744
0.107342
0.107214
0.107062
0.106894
0.106718
0.106534
0.106344
0.106145
0.105937
0.105717
0.105483
0.105232
0.104964
0.104674
0.104361
0.104023
0.103658
0.103261
0.102832
0.102366
0.101859
0.101309
0.10071
0.100057
0.0993449
0.098567
0.0977167
0.0967858
0.095766
0.0946431
0.093412
0.0920564
0.0905726
0.0889512
0.0871781
0.0852455
0.0831468
0.080873
0.0784217
0.0757971
0.0730061
0.0700621
0.0669893
0.0638243
0.0606151
0.0574203
0.0543101
0.051365
0.0486348
0.0462238
0.0443571
0.0432543
0.0431356
0.0441312
0.0460543
0.0502229
0.0540224
0.111307
0.111258
0.111198
0.111117
0.111007
0.110873
0.110722
0.110559
0.110387
0.110206
0.110013
0.109808
0.109589
0.109354
0.109101
0.108829
0.108534
0.108215
0.107869
0.107495
0.107088
0.106648
0.106169
0.105649
0.105084
0.104469
0.103798
0.103066
0.102267
0.101393
0.100436
0.0993852
0.0982314
0.0969589
0.0955622
0.0940303
0.0923549
0.0905208
0.0885198
0.0863445
0.083985
0.0814384
0.0787089
0.0758032
0.0727353
0.0695302
0.0662261
0.0628732
0.0595336
0.0562813
0.0532032
0.0503505
0.0478356
0.045894
0.0447561
0.0446486
0.0456974
0.0477101
0.0520102
0.0558739
0.115542
0.115484
0.115406
0.115301
0.115165
0.115006
0.11483
0.114646
0.114455
0.114257
0.11405
0.113832
0.113602
0.113356
0.113093
0.112811
0.112506
0.112177
0.111822
0.111437
0.11102
0.110568
0.110077
0.109544
0.108965
0.108335
0.107647
0.106896
0.106075
0.105177
0.104193
0.103113
0.101922
0.100615
0.0991721
0.0975905
0.0958586
0.0939603
0.0918869
0.0896304
0.0871799
0.0845323
0.0816915
0.0786644
0.0754653
0.0721203
0.0686691
0.0651646
0.0616717
0.0582692
0.05505
0.052069
0.0494459
0.0474258
0.046251
0.0461548
0.0472589
0.0493646
0.0537992
0.0577263
0.119498
0.119444
0.119377
0.119288
0.119169
0.119025
0.118864
0.118692
0.11851
0.118319
0.118117
0.117902
0.117672
0.117426
0.117162
0.116877
0.116569
0.116236
0.115874
0.115483
0.115058
0.114597
0.114095
0.11355
0.112958
0.112312
0.111607
0.110838
0.109996
0.109073
0.108062
0.10695
0.105727
0.104376
0.10289
0.101256
0.0994653
0.0975005
0.0953521
0.0930115
0.0904669
0.0877145
0.0847582
0.0816049
0.0782693
0.0747785
0.0711738
0.0675108
0.0638577
0.0602977
0.0569303
0.053814
0.0510767
0.0489733
0.0477585
0.0476725
0.0488324
0.0510325
0.0556018
0.0595915
0.124002
0.123936
0.123848
0.123732
0.123583
0.123409
0.123219
0.123021
0.122817
0.122606
0.122386
0.122156
0.121913
0.121655
0.121379
0.121084
0.120765
0.120421
0.12005
0.119649
0.119214
0.118742
0.118229
0.117672
0.117066
0.116405
0.115684
0.114895
0.114032
0.113085
0.112046
0.110904
0.109642
0.108253
0.106718
0.10503
0.103178
0.101143
0.0989158
0.0964862
0.0938419
0.0909785
0.0879
0.0846134
0.0811336
0.0774889
0.0737222
0.069892
0.0660697
0.0623437
0.0588197
0.0555618
0.0527051
0.0505145
0.0492578
0.0491823
0.0504001
0.0526983
0.0574051
0.0614567
0.128152
0.128092
0.128018
0.127921
0.127794
0.127641
0.12747
0.127289
0.127098
0.126898
0.126686
0.126462
0.126221
0.125964
0.125688
0.125391
0.125069
0.12472
0.124343
0.123935
0.123491
0.12301
0.122486
0.121916
0.121296
0.12062
0.119882
0.119074
0.118188
0.117217
0.116149
0.114974
0.113678
0.112243
0.11066
0.108916
0.107
0.104893
0.102584
0.100062
0.0973145
0.0943362
0.091131
0.0877059
0.0840762
0.0802711
0.0763356
0.0723307
0.0683319
0.0644319
0.0607438
0.0573365
0.0543538
0.0520708
0.0507688
0.0507027
0.0519788
0.0543763
0.0592208
0.0633341
0.132846
0.132777
0.132691
0.132578
0.132433
0.132261
0.132072
0.131874
0.131667
0.131452
0.131225
0.130986
0.130732
0.130461
0.130172
0.129861
0.129527
0.129166
0.128777
0.128356
0.1279
0.127407
0.126871
0.126288
0.125654
0.124961
0.124205
0.123377
0.122469
0.121472
0.120375
0.119167
0.117829
0.116354
0.114719
0.112917
0.110934
0.108751
0.106355
0.103737
0.10088
0.0977804
0.0944415
0.0908703
0.0870825
0.0831085
0.0789951
0.0748064
0.0706215
0.0665384
0.0626774
0.0591139
0.0559995
0.0536199
0.0522706
0.0522144
0.053551
0.0560514
0.0610367
0.0652118
0.137577
0.137507
0.137416
0.137296
0.137141
0.136958
0.136757
0.136546
0.136326
0.136097
0.135859
0.135609
0.135345
0.135065
0.134767
0.134448
0.134105
0.133736
0.133338
0.132908
0.132442
0.131937
0.131388
0.130791
0.130142
0.129433
0.128658
0.127809
0.126877
0.125854
0.124727
0.123483
0.12211
0.120585
0.118899
0.117036
0.114984
0.112722
0.110237
0.107518
0.104549
0.101324
0.0978464
0.0941236
0.0901716
0.0860218
0.0817231
0.0773424
0.0729633
0.0686886
0.0646469
0.0609187
0.0576651
0.0551835
0.0537835
0.0537359
0.0551332
0.0577375
0.0628641
0.0671014
0.142406
0.142336
0.142245
0.142124
0.141968
0.141782
0.141578
0.141362
0.141137
0.140903
0.140657
0.140398
0.140124
0.139833
0.139523
0.139192
0.138838
0.138456
0.138046
0.137603
0.137124
0.136606
0.136044
0.135432
0.134767
0.13404
0.133246
0.132375
0.131419
0.130368
0.12921
0.127932
0.126513
0.124946
0.123203
0.121277
0.119152
0.116807
0.114228
0.111404
0.108316
0.104959
0.101335
0.097453
0.0933282
0.0889934
0.0844997
0.0799173
0.0753342
0.070858
0.0666259
0.0627256
0.0593265
0.0567387
0.0552862
0.0552479
0.0567081
0.0594202
0.0646913
0.0689915
0.147262
0.147193
0.147105
0.146987
0.146832
0.146649
0.146446
0.146231
0.146007
0.145772
0.145526
0.145266
0.144991
0.144698
0.144386
0.144051
0.143692
0.143304
0.142886
0.142435
0.141946
0.141416
0.14084
0.140214
0.139532
0.138788
0.137973
0.13708
0.136099
0.135019
0.133828
0.132512
0.131054
0.129432
0.127633
0.125641
0.123441
0.121011
0.118335
0.115402
0.112192
0.108698
0.104924
0.100876
0.0965723
0.0920451
0.0873484
0.0825554
0.0777596
0.073073
0.0686421
0.0645601
0.0610075
0.0583076
0.0567993
0.056769
0.0582922
0.0611129
0.0665294
0.0708929
0.152308
0.15224
0.152152
0.152033
0.151879
0.151696
0.151493
0.15128
0.151056
0.150821
0.150574
0.150312
0.150033
0.149734
0.149415
0.149073
0.148704
0.148307
0.147879
0.147416
0.146915
0.146373
0.145783
0.145142
0.144444
0.14368
0.142845
0.141928
0.14092
0.13981
0.138585
0.13723
0.135723
0.134055
0.132194
0.130133
0.127855
0.125335
0.122558
0.11951
0.116172
0.112534
0.108601
0.10438
0.0998875
0.0951582
0.0902484
0.0852344
0.0802157
0.0753082
0.0706687
0.0663968
0.0626838
0.0598673
0.0583017
0.0582802
0.0598688
0.0628017
0.0683672
0.0727951
0.157465
0.157396
0.157309
0.15719
0.157036
0.156852
0.156649
0.156434
0.156209
0.155974
0.155726
0.155464
0.155184
0.154885
0.154566
0.154222
0.153851
0.153449
0.153015
0.152545
0.152034
0.15148
0.150877
0.15022
0.149505
0.148722
0.147865
0.146924
0.145888
0.144746
0.143484
0.142087
0.140537
0.138809
0.136889
0.134756
0.132397
0.129784
0.126903
0.123737
0.120266
0.116481
0.112384
0.107983
0.103295
0.0983556
0.093224
0.0879796
0.0827287
0.0775912
0.072734
0.0682615
0.0643795
0.0614404
0.0598142
0.0598
0.0614539
0.0644999
0.0702155
0.0747083
0.162854
0.162785
0.162696
0.162576
0.162419
0.162233
0.162028
0.161811
0.161584
0.161346
0.161095
0.160828
0.160543
0.160237
0.159909
0.159556
0.159175
0.158763
0.158318
0.157836
0.157313
0.156746
0.156128
0.155455
0.154721
0.153918
0.153038
0.15207
0.151004
0.149829
0.14853
0.147091
0.145488
0.143708
0.141721
0.139514
0.137069
0.13436
0.131369
0.12808
0.12447
0.120529
0.11626
0.11167
0.106777
0.101617
0.0962532
0.0907672
0.0852739
0.0798957
0.0748105
0.0701281
0.0660695
0.0630035
0.0613154
0.0613095
0.0630311
0.0661939
0.0720631
0.0766222
0.168375
0.168305
0.168216
0.168096
0.167938
0.167748
0.16754
0.16732
0.167089
0.166848
0.166593
0.166322
0.166034
0.165725
0.165394
0.165036
0.16465
0.164231
0.163779
0.163287
0.162752
0.162172
0.161539
0.160848
0.160095
0.15927
0.158365
0.15737
0.156273
0.155063
0.153724
0.152239
0.150589
0.148745
0.146692
0.144407
0.141875
0.139067
0.135963
0.132547
0.128794
0.124693
0.120247
0.115462
0.110356
0.104967
0.0993612
0.0936245
0.0878781
0.0822508
0.0769278
0.0720231
0.0677784
0.0645798
0.0628264
0.0628273
0.0646163
0.0678969
0.0739211
0.0785471