/*--------------------------------*- C++ -*----------------------------------*\
  =========                 |
  \\      /  F ield         | OpenFOAM: The Open Source CFD Toolbox
   \\    /   O peration     | Website:  https://openfoam.org
    \\  /    A nd           | Version:  6.0
     \\/     M anipulation  |
\*---------------------------------------------------------------------------*/
FoamFile
{
    version     2.0;
    format      ascii;
    class       volVectorField;
    location    "6";
    object      U;
}
// * * * * * * * * * * * * * * * * * * * * * * * * * * * * * * * * * * * * * //

dimensions      [0 1 -1 0 0 0 0];

internalField   nonuniform List<vector> 
62000
(
(0.996125 -0.0875737 -8.76753e-21)
(0.996123 -0.0876032 7.20378e-21)
(0.99612 -0.0876357 7.23799e-21)
(0.996118 -0.0876642 -3.11448e-20)
(0.996116 -0.0876873 -3.4786e-20)
(0.996115 -0.0877053 1.18716e-19)
(0.996114 -0.0877199 -1.28024e-19)
(0.996112 -0.0877325 7.31867e-20)
(0.99611 -0.0877441 -3.34569e-20)
(0.996108 -0.0877547 -1.67154e-19)
(0.996105 -0.087765 -1.95624e-20)
(0.996103 -0.0877746 2.26052e-19)
(0.9961 -0.0877841 4.45523e-20)
(0.996096 -0.0877935 -1.54152e-19)
(0.996093 -0.087803 2.35079e-19)
(0.996089 -0.0878127 -1.22864e-19)
(0.996085 -0.0878226 1.2266e-19)
(0.996081 -0.0878328 -1.42618e-19)
(0.996077 -0.087843 6.78911e-20)
(0.996072 -0.0878533 -2.03903e-19)
(0.996068 -0.0878634 2.61321e-19)
(0.996064 -0.0878731 7.23863e-20)
(0.996059 -0.0878821 1.00387e-19)
(0.996054 -0.0878902 -4.63819e-19)
(0.99605 -0.087897 1.66454e-19)
(0.996045 -0.087902 -9.59971e-20)
(0.99604 -0.0879045 2.12684e-21)
(0.996034 -0.0879043 -6.901e-20)
(0.996028 -0.0879004 2.22667e-19)
(0.996022 -0.0878921 -1.14485e-19)
(0.996014 -0.087878 2.67746e-19)
(0.996006 -0.0878585 -5.33599e-19)
(0.995997 -0.0878334 5.39533e-20)
(0.995987 -0.0878041 -1.54217e-19)
(0.995974 -0.0877702 -4.27911e-20)
(0.995959 -0.0877299 -1.49287e-19)
(0.99594 -0.0876844 -2.75697e-20)
(0.995916 -0.0876366 -3.01861e-20)
(0.995888 -0.0875898 1.30962e-19)
(0.995854 -0.0875483 5.54292e-19)
(0.995814 -0.0875168 -1.29505e-19)
(0.995769 -0.0875009 -6.91306e-19)
(0.995719 -0.0875057 -1.04742e-18)
(0.995668 -0.0875354 5.36571e-19)
(0.995621 -0.0875912 1.72869e-19)
(0.995584 -0.0876702 -6.67672e-19)
(0.995567 -0.0877638 8.14363e-20)
(0.995583 -0.0878563 -2.36398e-19)
(0.995642 -0.0879256 -8.73695e-19)
(0.995756 -0.0879435 -1.66936e-19)
(0.99593 -0.0878785 -4.24993e-20)
(0.996165 -0.0876964 -2.84409e-19)
(0.996449 -0.0873704 -2.29711e-20)
(0.996771 -0.0868663 -6.1023e-19)
(0.997098 -0.0861519 -2.44003e-19)
(0.997392 -0.0851852 -1.22835e-18)
(0.997594 -0.0839083 1.2768e-19)
(0.997774 -0.0820854 1.87975e-19)
(0.995117 -0.0803449 -5.57043e-19)
(1.01849 -0.0721997 -9.42411e-20)
(0.996193 -0.086842 -2.37892e-21)
(0.996174 -0.0868755 2.23729e-20)
(0.996156 -0.0869323 9.02662e-21)
(0.996143 -0.0869982 -3.85029e-20)
(0.996134 -0.087064 1.5687e-20)
(0.996127 -0.0871217 -1.05994e-19)
(0.996122 -0.0871706 9.56731e-20)
(0.996119 -0.0872127 5.3998e-20)
(0.996117 -0.0872507 -9.9305e-20)
(0.996116 -0.0872853 4.50873e-21)
(0.996116 -0.0873177 9.23501e-20)
(0.996116 -0.0873475 -1.64456e-22)
(0.996117 -0.0873754 2.50595e-20)
(0.996119 -0.0874012 -2.13497e-19)
(0.996121 -0.0874249 4.19372e-19)
(0.996123 -0.0874467 -3.63855e-19)
(0.996126 -0.0874659 1.66632e-19)
(0.99613 -0.0874829 -3.4834e-20)
(0.996134 -0.0874967 -9.08532e-20)
(0.996138 -0.0875079 2.44617e-19)
(0.996142 -0.0875154 -3.78247e-19)
(0.996147 -0.0875195 2.14824e-19)
(0.996152 -0.0875195 -2.63738e-19)
(0.996157 -0.0875156 1.56028e-19)
(0.996163 -0.087507 1.36905e-19)
(0.996168 -0.0874942 -8.90126e-20)
(0.996173 -0.0874758 2.53764e-21)
(0.996177 -0.0874528 9.60561e-20)
(0.996181 -0.0874239 7.63328e-20)
(0.996183 -0.0873896 -1.42092e-19)
(0.996184 -0.0873482 2.85292e-19)
(0.996181 -0.0873023 5.09302e-20)
(0.996175 -0.0872565 1.57886e-19)
(0.996166 -0.0872167 6.49094e-21)
(0.996153 -0.0871821 3.63202e-20)
(0.996131 -0.0871504 -4.97413e-20)
(0.996101 -0.0871248 -1.36285e-19)
(0.996061 -0.0871128 -7.03629e-20)
(0.996009 -0.0871227 -3.37639e-19)
(0.995947 -0.0871625 -3.66839e-19)
(0.995874 -0.0872397 2.73914e-19)
(0.995793 -0.0873608 1.73865e-19)
(0.995709 -0.0875291 1.10787e-18)
(0.995631 -0.0877439 5.15379e-20)
(0.995569 -0.0879965 -1.5385e-18)
(0.995541 -0.0882697 5.774e-19)
(0.995564 -0.0885351 4.36312e-19)
(0.995658 -0.0887536 4.45318e-19)
(0.995842 -0.0888782 7.35829e-20)
(0.996128 -0.0888543 1.82453e-20)
(0.996521 -0.0886286 3.31847e-19)
(0.99701 -0.0881474 3.69085e-19)
(0.997567 -0.0873777 1.01887e-19)
(0.998163 -0.0862751 1.02111e-18)
(0.998729 -0.0848032 4.25036e-19)
(0.999182 -0.0829254 4.71007e-19)
(0.999382 -0.080645 1.09215e-18)
(0.999398 -0.0778237 6.21963e-19)
(0.996595 -0.0756436 -7.17271e-19)
(1.00226 -0.0782033 -1.50964e-19)
(0.996307 -0.0869351 -1.1664e-20)
(0.996273 -0.0869737 -1.57745e-21)
(0.99625 -0.0870163 1.79955e-21)
(0.996238 -0.087076 7.86279e-21)
(0.996229 -0.0871462 2.17024e-20)
(0.996223 -0.0872101 -2.02773e-20)
(0.99622 -0.0872622 1.05539e-19)
(0.996221 -0.0873035 -4.9886e-20)
(0.996224 -0.087337 -2.61927e-20)
(0.996229 -0.0873648 -1.56234e-19)
(0.996236 -0.0873885 1.29747e-19)
(0.996245 -0.0874083 9.29526e-21)
(0.996256 -0.0874249 -2.82176e-20)
(0.996269 -0.0874385 7.33839e-20)
(0.996283 -0.0874487 -1.23137e-19)
(0.996298 -0.0874561 1.26411e-21)
(0.996315 -0.0874595 -5.32142e-20)
(0.996333 -0.0874597 2.23345e-21)
(0.996353 -0.0874555 1.1957e-19)
(0.996373 -0.0874475 -1.77056e-19)
(0.996395 -0.0874346 1.08849e-19)
(0.996418 -0.0874175 4.04779e-19)
(0.996442 -0.0873953 -5.97496e-20)
(0.996466 -0.0873685 -5.37934e-19)
(0.996492 -0.0873367 2.72376e-19)
(0.996518 -0.0873008 -1.38265e-19)
(0.996545 -0.0872598 2.22344e-19)
(0.996573 -0.0872154 -1.36259e-19)
(0.996602 -0.0871668 -2.49865e-19)
(0.996629 -0.0871153 2.53516e-19)
(0.996657 -0.0870598 -1.72888e-19)
(0.996682 -0.0870039 2.21364e-19)
(0.996705 -0.0869553 -5.81586e-19)
(0.996728 -0.0869215 4.94452e-19)
(0.996747 -0.0869028 -2.52498e-19)
(0.99676 -0.0868968 1.06285e-19)
(0.996765 -0.0869072 7.56766e-20)
(0.996762 -0.0869427 1.00315e-20)
(0.996748 -0.0870123 9.39646e-21)
(0.996723 -0.087124 3.66058e-19)
(0.996687 -0.0872843 -1.41527e-19)
(0.996643 -0.0874973 2.20922e-19)
(0.996595 -0.0877632 -6.93437e-19)
(0.99655 -0.0880763 -3.23189e-19)
(0.996518 -0.0884223 3.90912e-19)
(0.996515 -0.0887774 -1.02434e-18)
(0.996556 -0.089107 1.48861e-19)
(0.99666 -0.0893662 -7.39421e-19)
(0.996843 -0.0895045 9.10029e-19)
(0.997116 -0.0894658 1.86747e-19)
(0.997481 -0.089199 8.20145e-20)
(0.997926 -0.0886567 1.15606e-20)
(0.998422 -0.0878168 1.18226e-20)
(0.998935 -0.0866561 -2.73138e-19)
(0.999396 -0.0851615 3.14629e-19)
(0.999709 -0.0833436 4.94612e-19)
(0.999727 -0.081298 -6.67668e-20)
(0.999498 -0.0789967 7.03359e-19)
(0.997434 -0.0781324 4.44741e-19)
(1.00085 -0.0826924 1.49373e-19)
(0.996347 -0.0878424 -1.17684e-20)
(0.996316 -0.0878886 3.5363e-20)
(0.996311 -0.0879021 -5.38994e-21)
(0.996321 -0.0879433 -3.49845e-20)
(0.99633 -0.0880057 5.15803e-20)
(0.996339 -0.0880669 8.66239e-20)
(0.99635 -0.088116 -1.11306e-19)
(0.996363 -0.0881514 1.17318e-20)
(0.996378 -0.0881757 3.64619e-20)
(0.996395 -0.0881917 7.39028e-20)
(0.996414 -0.0882019 -1.34847e-19)
(0.996435 -0.088207 -4.00826e-20)
(0.996457 -0.0882082 -4.33701e-20)
(0.996482 -0.0882057 1.96033e-19)
(0.996508 -0.0881993 -1.27611e-19)
(0.996536 -0.0881896 2.88413e-19)
(0.996566 -0.0881756 -3.43173e-19)
(0.996598 -0.0881581 -4.69915e-20)
(0.996632 -0.088136 3.41303e-19)
(0.996668 -0.0881101 -1.17657e-19)
(0.996706 -0.0880793 -4.22997e-20)
(0.996746 -0.0880445 -4.28069e-20)
(0.996787 -0.0880049 -3.71703e-19)
(0.996831 -0.0879612 2.16879e-19)
(0.996877 -0.0879131 -8.7572e-20)
(0.996924 -0.0878618 1.45757e-19)
(0.996975 -0.0878064 6.52493e-20)
(0.997028 -0.087749 3.01071e-19)
(0.997083 -0.087689 -1.89146e-19)
(0.99714 -0.0876278 -2.29516e-19)
(0.997199 -0.0875647 3.4261e-19)
(0.997258 -0.087503 -2.74873e-19)
(0.997319 -0.0874523 4.77744e-19)
(0.997381 -0.0874207 -2.6607e-19)
(0.997444 -0.087408 1.22319e-19)
(0.997505 -0.0874117 1.87236e-19)
(0.997562 -0.0874348 -7.16393e-20)
(0.997613 -0.0874855 6.70807e-20)
(0.997656 -0.0875724 -4.20018e-20)
(0.99769 -0.0877027 9.47228e-20)
(0.997715 -0.0878813 -2.91162e-19)
(0.997729 -0.0881108 7.98974e-20)
(0.997735 -0.0883891 1.54791e-19)
(0.997738 -0.0887085 3.44407e-19)
(0.997743 -0.0890532 4.62304e-19)
(0.997762 -0.0893982 1.32563e-19)
(0.997808 -0.0897091 5.69902e-19)
(0.997893 -0.0899421 5.70057e-19)
(0.998032 -0.0900502 5.47862e-19)
(0.998234 -0.0899821 -3.53733e-19)
(0.9985 -0.0896933 -3.29023e-19)
(0.998821 -0.0891448 1.80601e-19)
(0.999173 -0.0883254 1.81236e-19)
(0.999528 -0.0872292 -2.93707e-19)
(0.999824 -0.0858582 -4.93175e-19)
(0.999973 -0.0842466 -2.9858e-19)
(0.999852 -0.0825212 -1.13625e-18)
(0.999469 -0.080619 -6.60532e-19)
(0.998042 -0.080331 1.19793e-19)
(1.0009 -0.0846536 -4.42245e-19)
(0.996311 -0.0890405 2.31225e-20)
(0.996297 -0.0890679 -7.64085e-21)
(0.996325 -0.0890466 1.23812e-20)
(0.996366 -0.0890648 -1.72872e-20)
(0.996402 -0.0891142 3.76507e-20)
(0.996434 -0.0891702 -1.84584e-20)
(0.996465 -0.0892169 9.42069e-21)
(0.996496 -0.0892489 -1.39027e-19)
(0.996528 -0.0892675 1.1404e-19)
(0.99656 -0.0892758 -2.20717e-19)
(0.996593 -0.089277 2.38222e-19)
(0.996627 -0.0892724 -2.83228e-20)
(0.996662 -0.0892635 -5.99825e-20)
(0.996698 -0.0892508 -2.60034e-20)
(0.996735 -0.0892341 -5.01315e-21)
(0.996774 -0.0892143 -2.54239e-19)
(0.996815 -0.0891901 1.54588e-20)
(0.996857 -0.0891627 2.65641e-19)
(0.996901 -0.0891308 -8.25309e-20)
(0.996948 -0.0890955 -8.27855e-20)
(0.996996 -0.0890555 1.40144e-19)
(0.997047 -0.0890121 -6.50991e-20)
(0.997101 -0.0889644 2.71184e-19)
(0.997158 -0.0889134 1.38636e-19)
(0.997217 -0.0888588 9.78317e-20)
(0.99728 -0.0888019 -3.24259e-19)
(0.997347 -0.088742 -4.42759e-20)
(0.997417 -0.088681 -2.3146e-19)
(0.997492 -0.0886186 4.47721e-20)
(0.997571 -0.088556 -6.62182e-20)
(0.997653 -0.0884924 -2.70202e-20)
(0.997738 -0.0884312 1.9498e-19)
(0.997828 -0.088382 -4.90926e-19)
(0.997923 -0.0883532 -2.63449e-20)
(0.998021 -0.0883444 -2.20726e-19)
(0.998121 -0.0883521 -1.03442e-19)
(0.99822 -0.0883782 9.26545e-21)
(0.998316 -0.0884302 -2.89605e-19)
(0.998409 -0.0885158 4.07953e-19)
(0.998495 -0.0886409 7.69239e-20)
(0.998572 -0.0888092 3.9906e-19)
(0.99864 -0.0890217 -2.66408e-19)
(0.998698 -0.0892752 -1.71575e-19)
(0.998748 -0.0895611 -6.12185e-20)
(0.998793 -0.089863 3.04726e-19)
(0.99884 -0.0901568 4.14938e-19)
(0.998898 -0.0904096 8.95281e-20)
(0.998976 -0.0905808 1.43794e-19)
(0.999086 -0.0906274 -1.76094e-19)
(0.999235 -0.0905034 8.98451e-19)
(0.999426 -0.0901697 1.83433e-19)
(0.999649 -0.0895932 -9.30621e-20)
(0.999889 -0.0887688 2.03957e-19)
(1.00012 -0.0876998 1.13947e-19)
(1.0003 -0.0863922 -1.7415e-19)
(1.00034 -0.0848833 3.41337e-19)
(1.00014 -0.0832943 7.63395e-20)
(0.999675 -0.0815009 -6.41582e-20)
(0.998632 -0.0812416 -9.41572e-19)
(1.00135 -0.0854997 9.24138e-19)
(0.996258 -0.0902345 -8.95569e-21)
(0.996267 -0.0902312 3.54955e-20)
(0.996325 -0.0901812 -5.73783e-20)
(0.996397 -0.0901753 4.20237e-20)
(0.996459 -0.0902088 2.65937e-20)
(0.996512 -0.090258 -2.77697e-20)
(0.996562 -0.0903032 2.20849e-21)
(0.996609 -0.0903347 -1.98438e-20)
(0.996656 -0.0903519 -6.48776e-20)
(0.996702 -0.0903574 1.22108e-19)
(0.996748 -0.0903548 -1.84238e-19)
(0.996794 -0.090346 1.57885e-19)
(0.99684 -0.0903327 1.34415e-19)
(0.996886 -0.0903159 -2.04563e-19)
(0.996933 -0.0902954 -6.39134e-20)
(0.99698 -0.0902723 2.36661e-19)
(0.997028 -0.0902453 -2.78591e-19)
(0.997077 -0.0902154 3.73793e-19)
(0.997128 -0.0901818 -7.23054e-20)
(0.997181 -0.0901453 3.54559e-20)
(0.997236 -0.0901047 -6.29439e-20)
(0.997293 -0.0900613 -7.50325e-20)
(0.997353 -0.0900145 -1.29792e-19)
(0.997417 -0.0899649 2.18568e-19)
(0.997484 -0.0899127 -1.48113e-19)
(0.997554 -0.0898589 -1.35546e-19)
(0.99763 -0.089803 2.73283e-19)
(0.99771 -0.0897469 -2.50437e-19)
(0.997795 -0.0896902 3.79602e-19)
(0.997886 -0.089634 -2.02523e-19)
(0.997982 -0.0895773 1.36228e-19)
(0.998083 -0.089523 -2.3171e-19)
(0.998191 -0.0894809 2.24922e-19)
(0.998306 -0.0894593 -3.19277e-20)
(0.998427 -0.089457 -1.46025e-20)
(0.998553 -0.0894697 -1.13317e-20)
(0.998682 -0.0894984 -1.16131e-19)
(0.998811 -0.0895492 2.55937e-19)
(0.99894 -0.0896289 -1.82005e-19)
(0.999066 -0.089742 -1.00425e-18)
(0.999187 -0.0898908 -3.94821e-19)
(0.999299 -0.0900752 2.45452e-19)
(0.999403 -0.0902909 -2.89823e-19)
(0.999498 -0.0905286 -2.59361e-19)
(0.999584 -0.0907721 -2.00885e-20)
(0.999665 -0.0909985 6.08897e-19)
(0.999747 -0.091177 -8.17111e-19)
(0.999837 -0.0912701 -7.47823e-19)
(0.999943 -0.0912387 -4.05035e-19)
(1.00007 -0.0910415 -6.30381e-19)
(1.00022 -0.0906435 4.12373e-19)
(1.00039 -0.0900154 -8.73179e-20)
(1.00056 -0.0891545 -6.22553e-19)
(1.00071 -0.0880688 2.14536e-19)
(1.00081 -0.0867633 -1.65667e-20)
(1.00079 -0.0852715 -1.77566e-19)
(1.00057 -0.0837021 -1.93432e-19)
(1.00004 -0.081898 4.72604e-19)
(0.999208 -0.0815778 1.39271e-18)
(1.00186 -0.0859059 1.79423e-19)
(0.996224 -0.0912659 1.08054e-20)
(0.996248 -0.0912433 -4.78275e-20)
(0.996331 -0.0911772 2.29457e-20)
(0.996427 -0.0911528 4.18427e-20)
(0.996508 -0.0911721 -8.79041e-20)
(0.996578 -0.0912152 7.22303e-20)
(0.996641 -0.0912602 -4.7016e-20)
(0.996702 -0.0912942 3.90045e-20)
(0.99676 -0.0913145 6.05401e-20)
(0.996817 -0.0913224 -1.42457e-19)
(0.996873 -0.0913218 2.00634e-19)
(0.996928 -0.0913146 8.16491e-20)
(0.996982 -0.0913032 -3.23122e-19)
(0.997036 -0.0912884 -5.77354e-20)
(0.99709 -0.0912707 1.63528e-19)
(0.997144 -0.0912508 1.01295e-19)
(0.997198 -0.0912278 -1.21182e-19)
(0.997252 -0.0912024 1.01986e-19)
(0.997307 -0.091174 1.52576e-19)
(0.997364 -0.0911433 -7.56695e-20)
(0.997422 -0.0911092 -4.19462e-20)
(0.997483 -0.0910731 1.39682e-19)
(0.997546 -0.0910342 2.75655e-19)
(0.997612 -0.0909933 -2.03462e-19)
(0.997682 -0.0909506 -2.11504e-19)
(0.997757 -0.0909069 2.244e-19)
(0.997835 -0.0908619 -1.70737e-19)
(0.99792 -0.0908174 -6.17164e-20)
(0.99801 -0.0907728 5.22422e-19)
(0.998107 -0.0907291 -2.2467e-19)
(0.99821 -0.0906848 -1.5273e-19)
(0.998319 -0.0906429 2.0389e-19)
(0.998437 -0.0906124 1.31963e-19)
(0.998564 -0.0906015 -1.22042e-19)
(0.9987 -0.0906086 -7.54821e-20)
(0.998843 -0.0906282 2.18211e-19)
(0.998991 -0.0906604 2.62613e-20)
(0.999144 -0.0907101 7.37421e-20)
(0.999299 -0.0907829 -3.35703e-19)
(0.999455 -0.090882 -3.30977e-19)
(0.999609 -0.0910085 5.49316e-19)
(0.999759 -0.0911611 4.01203e-19)
(0.999902 -0.0913346 6.02819e-19)
(1.00004 -0.0915194 -5.74491e-19)
(1.00016 -0.0916999 -6.00762e-19)
(1.00028 -0.091854 -3.27059e-19)
(1.0004 -0.0919534 7.73564e-19)
(1.00051 -0.0919634 7.26222e-19)
(1.00063 -0.0918487 -7.15823e-19)
(1.00076 -0.0915716 -1.02419e-18)
(1.00089 -0.0911006 -6.32691e-20)
(1.00104 -0.0904082 1.81786e-19)
(1.00117 -0.0894926 -3.54732e-20)
(1.00129 -0.0883642 -1.95533e-19)
(1.00135 -0.0870256 2.09994e-19)
(1.0013 -0.0855057 3.1769e-20)
(1.00107 -0.0839052 4.95826e-20)
(1.00049 -0.0820605 -1.27769e-18)
(0.999769 -0.0816961 -3.46002e-20)
(1.00233 -0.0861224 2.68103e-19)
(0.9962 -0.0920801 -1.86729e-20)
(0.996231 -0.0920507 -1.46096e-20)
(0.99633 -0.0919805 1.9573e-20)
(0.996444 -0.0919453 6.77242e-20)
(0.99654 -0.0919554 -1.42972e-19)
(0.996621 -0.091995 1.6017e-19)
(0.996694 -0.0920418 -7.3398e-21)
(0.996762 -0.0920812 -9.81379e-21)
(0.996829 -0.0921082 -5.34402e-20)
(0.996893 -0.092123 1.26136e-19)
(0.996957 -0.0921289 -1.9025e-19)
(0.997019 -0.0921282 7.01208e-20)
(0.99708 -0.0921233 -2.2218e-21)
(0.997141 -0.0921153 1.03461e-19)
(0.9972 -0.092105 4.7129e-20)
(0.997259 -0.0920931 -2.49819e-19)
(0.997318 -0.0920788 2.11688e-19)
(0.997376 -0.0920629 7.96711e-20)
(0.997435 -0.0920448 -2.25304e-19)
(0.997495 -0.0920252 1.08733e-19)
(0.997556 -0.0920029 4.75291e-20)
(0.997618 -0.0919792 -3.25322e-20)
(0.997683 -0.0919536 3.58394e-20)
(0.997751 -0.0919264 -2.26267e-20)
(0.997822 -0.0918982 -2.40776e-19)
(0.997898 -0.0918696 1.51155e-19)
(0.997979 -0.0918402 -2.21422e-19)
(0.998065 -0.0918117 4.01325e-19)
(0.998157 -0.0917833 -7.47277e-20)
(0.998256 -0.0917561 -4.46443e-20)
(0.998363 -0.0917282 -1.30251e-20)
(0.998477 -0.0917018 3.44971e-19)
(0.9986 -0.091686 -1.47569e-19)
(0.998735 -0.0916885 -9.57121e-20)
(0.99888 -0.0917066 1.95509e-19)
(0.999033 -0.0917346 1.5772e-19)
(0.999195 -0.0917716 -2.58894e-19)
(0.999363 -0.0918209 4.78879e-20)
(0.999538 -0.0918872 4.2126e-19)
(0.999716 -0.0919727 -7.84186e-20)
(0.999897 -0.0920771 2.64853e-19)
(1.00008 -0.0921982 -3.27711e-19)
(1.00025 -0.0923302 5.06665e-19)
(1.00042 -0.0924632 9.43375e-19)
(1.00059 -0.0925821 2.04474e-19)
(1.00075 -0.0926662 -3.45814e-19)
(1.00089 -0.0926891 -9.65834e-19)
(1.00104 -0.0926189 2.32927e-19)
(1.00118 -0.0924234 2.17545e-19)
(1.00133 -0.0920679 3.37534e-19)
(1.00147 -0.0915234 3.54351e-20)
(1.00161 -0.0907637 -7.38137e-19)
(1.00173 -0.0897866 5.72949e-19)
(1.00184 -0.0886036 -3.46986e-19)
(1.00188 -0.0872154 7.65259e-19)
(1.00182 -0.0856478 1.30111e-19)
(1.00159 -0.0839976 8.50238e-19)
(1.00097 -0.0821087 1.4152e-18)
(1.00031 -0.081717 4.91932e-19)
(1.00278 -0.0862441 1.00613e-18)
(0.996166 -0.0926922 -9.31932e-21)
(0.996201 -0.0926661 7.87407e-21)
(0.996313 -0.0925997 3.8699e-20)
(0.996441 -0.092561 5.98966e-20)
(0.996546 -0.0925663 -1.73913e-19)
(0.996634 -0.0926042 9.79677e-20)
(0.996713 -0.0926534 -1.70731e-19)
(0.996787 -0.0926983 2.61416e-19)
(0.996858 -0.0927327 -1.19778e-19)
(0.996928 -0.0927558 2.0564e-20)
(0.996997 -0.0927703 2.18662e-19)
(0.997064 -0.0927785 -4.86965e-19)
(0.99713 -0.0927827 3.23948e-19)
(0.997196 -0.0927842 4.31984e-20)
(0.99726 -0.092784 6.85072e-20)
(0.997323 -0.0927829 -2.84703e-19)
(0.997386 -0.0927802 1.3614e-19)
(0.997449 -0.0927765 -1.63304e-19)
(0.997511 -0.0927714 3.13345e-19)
(0.997573 -0.0927656 -4.46949e-20)
(0.997637 -0.0927577 -3.76112e-19)
(0.997701 -0.0927493 1.44264e-19)
(0.997768 -0.0927396 -8.92891e-21)
(0.997837 -0.0927289 -4.93031e-19)
(0.99791 -0.092718 3.67219e-19)
(0.997987 -0.092707 2.63794e-19)
(0.998068 -0.0926957 1.70455e-19)
(0.998155 -0.0926856 -2.1376e-19)
(0.998249 -0.0926758 -2.1948e-19)
(0.99835 -0.0926672 9.91868e-20)
(0.998458 -0.0926573 1.46739e-19)
(0.998575 -0.0926487 -1.64581e-19)
(0.998702 -0.092649 -2.34258e-19)
(0.998841 -0.0926658 4.82356e-19)
(0.998993 -0.0926964 4.00554e-20)
(0.999154 -0.0927337 -6.44644e-19)
(0.999325 -0.0927763 4.73736e-20)
(0.999505 -0.0928263 3.9825e-19)
(0.999695 -0.0928875 4.89738e-20)
(0.999891 -0.092961 4.60009e-19)
(1.00009 -0.0930455 -5.75143e-19)
(1.0003 -0.0931378 -3.95721e-20)
(1.0005 -0.0932318 -3.20254e-19)
(1.00071 -0.0933176 1.64674e-19)
(1.0009 -0.0933804 4.77352e-19)
(1.0011 -0.0934006 1.46696e-18)
(1.00128 -0.0933541 1.3438e-19)
(1.00146 -0.0932108 -7.88783e-19)
(1.00164 -0.0929416 5.98502e-19)
(1.0018 -0.0925141 1.89037e-18)
(1.00197 -0.0919013 -1.41425e-18)
(1.00212 -0.0910774 1.55143e-18)
(1.00225 -0.0900395 -8.41821e-19)
(1.00235 -0.0887994 -5.27147e-19)
(1.0024 -0.0873567 -1.61257e-18)
(1.00233 -0.0857351 -1.00376e-19)
(1.00212 -0.0840311 -5.65773e-19)
(1.00146 -0.0821016 -8.50374e-19)
(1.00084 -0.0816913 1.20109e-18)
(1.00319 -0.0863077 4.93837e-19)
(0.996113 -0.0931452 1.33304e-20)
(0.996151 -0.0931247 4.55638e-21)
(0.996276 -0.0930645 -4.64946e-20)
(0.996415 -0.0930254 4.34358e-20)
(0.996527 -0.0930287 -1.88593e-20)
(0.996619 -0.0930664 3.28622e-20)
(0.996701 -0.0931181 1.0884e-20)
(0.996777 -0.0931683 -1.56776e-19)
(0.99685 -0.0932097 6.69615e-20)
(0.996922 -0.093241 -4.38686e-20)
(0.996993 -0.0932642 2.65809e-20)
(0.997064 -0.0932814 9.89134e-20)
(0.997134 -0.0932951 -1.85368e-20)
(0.997203 -0.0933065 5.69418e-20)
(0.997271 -0.0933168 -2.35443e-19)
(0.997338 -0.093327 8.94042e-20)
(0.997405 -0.0933363 3.74142e-20)
(0.997471 -0.0933455 -1.00034e-19)
(0.997536 -0.0933544 1.92931e-19)
(0.997602 -0.0933632 5.99021e-20)
(0.997668 -0.0933708 -8.20272e-21)
(0.997735 -0.0933786 -6.52501e-20)
(0.997804 -0.0933858 2.4388e-19)
(0.997875 -0.0933926 -6.49561e-19)
(0.99795 -0.0933997 3.35176e-19)
(0.998028 -0.0934071 1.36157e-19)
(0.998111 -0.0934147 -2.13791e-19)
(0.9982 -0.0934236 3.66886e-19)
(0.998295 -0.0934329 -1.77474e-19)
(0.998398 -0.0934433 -8.57717e-20)
(0.998508 -0.0934521 -1.5082e-19)
(0.998627 -0.0934612 -6.09763e-20)
(0.998758 -0.0934781 1.67107e-19)
(0.998901 -0.09351 -4.72657e-19)
(0.999057 -0.093553 8.72373e-19)
(0.999225 -0.0936 -6.82801e-20)
(0.999404 -0.0936489 3.93487e-19)
(0.999594 -0.0937007 -9.92674e-19)
(0.999795 -0.0937581 -2.79003e-19)
(1.00001 -0.0938218 3.1535e-20)
(1.00023 -0.0938892 -2.136e-19)
(1.00045 -0.0939566 -3.17047e-20)
(1.00068 -0.0940175 -6.65848e-19)
(1.00091 -0.094062 2.68645e-19)
(1.00114 -0.0940757 2.95767e-19)
(1.00137 -0.0940404 -1.40105e-18)
(1.00159 -0.0939332 1.76573e-18)
(1.00181 -0.0937263 2.38455e-19)
(1.00201 -0.0933928 1.23999e-19)
(1.00221 -0.0929022 -1.39769e-18)
(1.0024 -0.0922291 4.06706e-19)
(1.00258 -0.0913476 -8.42117e-19)
(1.00272 -0.0902538 1.69689e-18)
(1.00284 -0.0889597 2.37665e-19)
(1.0029 -0.0874639 -1.49699e-18)
(1.00284 -0.0857894 5.35538e-19)
(1.00263 -0.0840339 -1.75717e-18)
(1.00194 -0.0820682 -5.00525e-19)
(1.00135 -0.0816448 -4.22753e-18)
(1.00359 -0.0863441 -1.11382e-18)
(0.996037 -0.0934803 -3.04137e-21)
(0.99608 -0.0934659 -1.16916e-20)
(0.996218 -0.0934113 -9.95617e-21)
(0.996367 -0.0933729 9.43539e-20)
(0.996485 -0.0933752 -5.13912e-20)
(0.996579 -0.0934127 -6.01592e-20)
(0.99666 -0.0934661 -2.18294e-20)
(0.996735 -0.09352 -8.80243e-20)
(0.996808 -0.0935671 5.4597e-20)
(0.99688 -0.0936052 8.04274e-21)
(0.996952 -0.0936362 3.1449e-21)
(0.997024 -0.0936619 2.13657e-19)
(0.997096 -0.0936845 -1.48109e-19)
(0.997167 -0.0937054 -1.74065e-20)
(0.997238 -0.0937258 1.60091e-19)
(0.997308 -0.0937468 -8.66835e-20)
(0.997378 -0.0937678 -3.23637e-20)
(0.997447 -0.0937892 5.04971e-20)
(0.997516 -0.0938111 1.57335e-19)
(0.997584 -0.0938338 8.15821e-20)
(0.997654 -0.093856 2.58494e-20)
(0.997724 -0.0938792 -2.02447e-19)
(0.997796 -0.0939025 9.82481e-20)
(0.99787 -0.0939259 1.77924e-19)
(0.997947 -0.0939504 -3.69957e-19)
(0.998028 -0.0939756 1.12454e-19)
(0.998113 -0.0940012 -4.38191e-19)
(0.998204 -0.0940285 3.47159e-19)
(0.998302 -0.0940562 2.86735e-19)
(0.998407 -0.0940849 -4.33261e-19)
(0.99852 -0.0941115 -2.0477e-19)
(0.998643 -0.094138 2.54854e-19)
(0.998777 -0.0941709 8.42676e-20)
(0.998924 -0.0942169 -2.05392e-19)
(0.999085 -0.0942723 -2.62581e-19)
(0.999259 -0.0943289 -2.98533e-19)
(0.999445 -0.0943844 1.87425e-19)
(0.999644 -0.0944387 4.14886e-19)
(0.999856 -0.094494 1.4849e-19)
(1.00008 -0.0945499 -9.87717e-20)
(1.00032 -0.0946033 1.20703e-18)
(1.00056 -0.09465 -1.58229e-19)
(1.00081 -0.0946831 1.1195e-18)
(1.00107 -0.0946926 -1.92833e-18)
(1.00133 -0.0946649 3.49128e-19)
(1.00159 -0.0945825 4.03959e-20)
(1.00184 -0.094424 -8.83236e-21)
(1.00209 -0.0941634 -1.26993e-18)
(1.00233 -0.0937755 -1.88133e-18)
(1.00257 -0.0932314 1.61132e-18)
(1.00279 -0.0925069 2.00429e-18)
(1.00299 -0.091576 1.02393e-18)
(1.00316 -0.0904334 -1.73297e-18)
(1.0033 -0.0890906 8.93182e-19)
(1.00337 -0.0875463 2.043e-18)
(1.00332 -0.0858229 1.05104e-18)
(1.00313 -0.0840203 1.71518e-18)
(1.0024 -0.0820217 1.07391e-18)
(1.00184 -0.0815858 4.43119e-18)
(1.00397 -0.0863493 -4.09329e-18)
(0.995942 -0.09373 4.03484e-21)
(0.995992 -0.0937194 -1.1854e-20)
(0.996142 -0.0936689 4.15334e-20)
(0.9963 -0.093631 1.05484e-20)
(0.996422 -0.0936326 -5.47255e-20)
(0.996516 -0.0936703 -6.14204e-20)
(0.996596 -0.0937254 1.42381e-19)
(0.996669 -0.0937826 -1.51588e-19)
(0.996739 -0.0938343 -3.57937e-20)
(0.99681 -0.0938781 8.93903e-20)
(0.99688 -0.0939155 8.02309e-20)
(0.996952 -0.0939481 2.36856e-19)
(0.997024 -0.0939781 -1.31766e-19)
(0.997096 -0.0940069 -2.18059e-19)
(0.997168 -0.0940356 4.71325e-20)
(0.99724 -0.0940658 -1.6705e-19)
(0.997312 -0.0940966 1.24368e-19)
(0.997384 -0.0941286 -1.99351e-19)
(0.997456 -0.0941621 3.44481e-20)
(0.997528 -0.0941971 -5.93951e-20)
(0.9976 -0.0942324 -3.44845e-20)
(0.997674 -0.0942695 -1.55055e-19)
(0.997749 -0.0943074 1.95539e-20)
(0.997827 -0.0943458 3.27766e-19)
(0.997907 -0.094386 -1.09122e-19)
(0.997991 -0.0944273 3.45585e-20)
(0.99808 -0.0944694 9.52247e-20)
(0.998174 -0.0945135 -1.1418e-19)
(0.998275 -0.094558 -2.39942e-20)
(0.998383 -0.0946035 1.50915e-19)
(0.9985 -0.0946466 1.59752e-19)
(0.998627 -0.0946888 -1.12335e-19)
(0.998765 -0.0947366 -3.5799e-19)
(0.998917 -0.0947961 -4.98288e-19)
(0.999084 -0.0948627 7.25019e-19)
(0.999264 -0.0949285 2.00201e-19)
(0.999458 -0.0949904 1.32717e-19)
(0.999666 -0.0950478 5.84069e-19)
(0.999888 -0.095102 -4.87211e-19)
(1.00012 -0.0951522 3.01884e-19)
(1.00038 -0.0951945 3.24337e-20)
(1.00064 -0.0952242 -8.68942e-21)
(1.00091 -0.0952345 -4.16293e-19)
(1.00119 -0.0952153 9.47827e-19)
(1.00148 -0.0951534 -1.2177e-18)
(1.00177 -0.0950321 6.95283e-19)
(1.00205 -0.0948313 -1.84103e-18)
(1.00234 -0.0945263 4.10167e-19)
(1.00261 -0.0940935 1.01413e-18)
(1.00288 -0.0935053 -1.6825e-18)
(1.00314 -0.0927383 -2.85197e-19)
(1.00337 -0.0917661 1.21223e-20)
(1.00357 -0.0905818 -4.09268e-19)
(1.00373 -0.0891968 -1.06789e-18)
(1.00382 -0.0876094 5.11988e-20)
(1.00379 -0.085842 1.21972e-18)
(1.00361 -0.0839967 -1.24643e-18)
(1.00286 -0.0819673 -3.83861e-19)
(1.00232 -0.0815193 -5.00204e-19)
(1.00435 -0.0863429 3.20357e-18)
(0.995835 -0.0939162 7.72187e-21)
(0.995893 -0.0939109 -6.4035e-21)
(0.996055 -0.0938647 5.73972e-21)
(0.996222 -0.0938283 3.60004e-20)
(0.996347 -0.0938302 5.11028e-20)
(0.996441 -0.093868 -1.9556e-19)
(0.996518 -0.0939238 1.38331e-19)
(0.996587 -0.0939827 2.79091e-20)
(0.996653 -0.0940372 -8.56424e-21)
(0.99672 -0.0940846 -5.81193e-20)
(0.996788 -0.0941267 1.72663e-19)
(0.996857 -0.0941646 -5.56137e-20)
(0.996928 -0.0942005 -7.43563e-20)
(0.996999 -0.0942356 -2.14642e-19)
(0.997071 -0.0942713 4.18241e-19)
(0.997144 -0.0943089 -8.60463e-20)
(0.997217 -0.0943478 -6.93962e-20)
(0.997291 -0.0943884 -1.97795e-19)
(0.997365 -0.0944313 2.13374e-19)
(0.997439 -0.0944764 1.13224e-19)
(0.997515 -0.0945224 -5.34869e-20)
(0.997591 -0.094571 8.24e-20)
(0.99767 -0.0946212 -3.49778e-19)
(0.997751 -0.0946724 2.68392e-20)
(0.997835 -0.0947261 1.82787e-19)
(0.997923 -0.0947814 -3.2753e-20)
(0.998015 -0.0948379 -5.21172e-19)
(0.998114 -0.0948966 5.26352e-20)
(0.998219 -0.0949559 4.38086e-19)
(0.998332 -0.0950162 -1.15607e-19)
(0.998454 -0.0950738 -2.09934e-19)
(0.998585 -0.0951304 1.2409e-19)
(0.998728 -0.0951912 3.34542e-19)
(0.998886 -0.0952624 7.53622e-19)
(0.999059 -0.0953396 -1.10769e-19)
(0.999246 -0.0954137 1.49233e-19)
(0.999448 -0.0954818 -1.05991e-18)
(0.999665 -0.0955424 -2.69299e-19)
(0.999897 -0.0955965 1.71217e-19)
(1.00015 -0.0956427 -7.04172e-19)
(1.00041 -0.0956764 -1.24968e-19)
(1.00069 -0.0956928 2.98163e-19)
(1.00098 -0.0956848 2.75292e-19)
(1.00129 -0.0956424 6.46837e-19)
(1.0016 -0.0955527 1.93947e-18)
(1.00191 -0.0953998 -1.45347e-18)
(1.00223 -0.0951647 2.23227e-18)
(1.00255 -0.0948237 1.56734e-18)
(1.00286 -0.0943545 -1.54162e-20)
(1.00316 -0.0937306 1.85424e-18)
(1.00345 -0.0929291 -2.31072e-18)
(1.00372 -0.091923 -2.62047e-18)
(1.00395 -0.090704 1.93926e-18)
(1.00414 -0.0892827 1.60731e-18)
(1.00425 -0.0876574 -7.10897e-19)
(1.00424 -0.0858505 -3.7956e-18)
(1.00408 -0.0839664 9.3798e-19)
(1.0033 -0.0819071 -1.28417e-18)
(1.00278 -0.0814446 -2.47965e-18)
(1.00472 -0.0863117 2.95651e-18)
(0.995722 -0.0940598 -8.54031e-21)
(0.995788 -0.0940565 9.17826e-21)
(0.995961 -0.0940127 6.12e-20)
(0.996136 -0.0939773 -7.83523e-20)
(0.996264 -0.0939797 1.39141e-19)
(0.996357 -0.0940179 -2.00042e-19)
(0.99643 -0.0940747 5.54847e-20)
(0.996495 -0.0941353 -2.47283e-21)
(0.996556 -0.0941921 1.16709e-19)
(0.996618 -0.0942424 -6.03527e-20)
(0.996681 -0.0942878 1.72773e-20)
(0.996746 -0.0943294 1.69894e-20)
(0.996814 -0.0943694 -2.62536e-19)
(0.996884 -0.0944091 7.77772e-20)
(0.996954 -0.0944498 1.72608e-19)
(0.997026 -0.0944931 4.58193e-21)
(0.9971 -0.0945382 -2.71215e-19)
(0.997174 -0.0945857 1.09723e-19)
(0.997249 -0.0946362 4.85865e-19)
(0.997325 -0.0946896 -3.12631e-19)
(0.997403 -0.0947446 -2.27793e-19)
(0.997483 -0.0948028 1.87307e-19)
(0.997564 -0.0948633 1.16081e-19)
(0.997649 -0.0949252 1.22518e-19)
(0.997737 -0.0949903 -2.36053e-19)
(0.997829 -0.0950572 -4.84548e-19)
(0.997926 -0.0951258 3.62513e-19)
(0.998029 -0.095197 4.86378e-19)
(0.998139 -0.0952688 1.26256e-19)
(0.998257 -0.0953418 -2.59428e-19)
(0.998384 -0.095412 1.1012e-19)
(0.998521 -0.0954805 1.82663e-19)
(0.99867 -0.0955529 -3.04161e-19)
(0.998835 -0.0956348 -4.71278e-20)
(0.999014 -0.0957207 -4.9679e-19)
(0.999209 -0.0958022 -1.15115e-19)
(0.999419 -0.095876 -1.19224e-19)
(0.999645 -0.0959398 3.00293e-19)
(0.999889 -0.0959944 -4.23629e-19)
(1.00015 -0.0960378 1.04848e-19)
(1.00043 -0.0960652 1.91777e-19)
(1.00072 -0.0960711 4.99062e-20)
(1.00104 -0.0960487 -1.00342e-18)
(1.00136 -0.0959878 -1.34542e-18)
(1.0017 -0.095876 -1.08498e-18)
(1.00204 -0.0956978 2.14363e-18)
(1.00239 -0.0954353 1.35887e-19)
(1.00274 -0.0950655 -7.65709e-19)
(1.00308 -0.0945673 3.95956e-19)
(1.00342 -0.0939147 -2.29142e-18)
(1.00375 -0.0930856 1.03472e-18)
(1.00404 -0.0920522 2.74989e-18)
(1.00431 -0.0908045 -8.93291e-20)
(1.00452 -0.0893523 -2.2368e-18)
(1.00467 -0.0876937 1.0171e-18)
(1.00468 -0.0858514 9.75468e-19)
(1.00453 -0.0839316 1.41997e-18)
(1.00373 -0.0818429 3.74197e-18)
(1.00323 -0.0813651 4.91046e-18)
(1.00509 -0.0862787 -6.82332e-18)
(0.995603 -0.0941748 -7.42852e-21)
(0.995676 -0.0941729 1.05169e-20)
(0.99586 -0.0941299 2.14531e-21)
(0.996043 -0.0940945 3.83289e-20)
(0.996174 -0.0940967 -5.69694e-20)
(0.996265 -0.0941348 -1.13817e-19)
(0.996335 -0.0941919 4.01691e-20)
(0.996394 -0.0942532 -5.12999e-20)
(0.996449 -0.0943114 1.09922e-19)
(0.996505 -0.0943636 -2.14e-20)
(0.996563 -0.0944116 -6.86126e-20)
(0.996624 -0.0944563 5.58334e-20)
(0.996688 -0.0944999 8.75176e-20)
(0.996754 -0.0945434 2.34075e-19)
(0.996822 -0.0945883 -4.16004e-19)
(0.996893 -0.0946363 2.06245e-19)
(0.996965 -0.0946863 2.90448e-20)
(0.997039 -0.0947392 -1.91535e-19)
(0.997115 -0.0947956 -1.14378e-19)
(0.997192 -0.0948555 3.67541e-19)
(0.997272 -0.0949174 -3.7274e-19)
(0.997353 -0.0949831 1.10693e-19)
(0.997438 -0.0950517 -2.76851e-19)