/*--------------------------------*- C++ -*----------------------------------*\
  =========                 |
  \\      /  F ield         | OpenFOAM: The Open Source CFD Toolbox
   \\    /   O peration     | Website:  https://openfoam.org
    \\  /    A nd           | Version:  6.0
     \\/     M anipulation  |
\*---------------------------------------------------------------------------*/
FoamFile
{
    version     2.0;
    format      ascii;
    class       surfaceScalarField;
    location    "3.82";
    object      phi;
}
// * * * * * * * * * * * * * * * * * * * * * * * * * * * * * * * * * * * * * //

dimensions      [0 3 -1 0 0 0 0];

internalField   nonuniform List<scalar> 
26699
(
2.0051e-05
0.005201
5.8289e-10
4.0126e-05
0.0051116
5.9639e-05
0.0049351
7.8187e-05
0.0046741
9.5415e-05
0.0043332
0.00011102
0.0039182
0.00012472
0.0034362
0.00013626
0.0028953
0.00014546
0.002305
0.00015181
0.0016755
0.00015717
0.0010154
0.00046503
3.4351e-05
2.0051e-05
0.0051809
1.8056e-09
4.0127e-05
0.0050916
5.964e-05
0.0049155
7.8191e-05
0.0046556
9.5417e-05
0.004316
0.00011102
0.0039026
0.00012471
0.0034225
0.00013625
0.0028838
0.00014545
0.0022958
0.00015105
0.0016699
0.0001589
0.0010076
0.00055905
6.4881e-05
2.0051e-05
0.0051609
3.129e-09
4.0128e-05
0.0050715
5.9642e-05
0.004896
7.8193e-05
0.004637
9.542e-05
0.0042988
0.00011103
0.003887
0.00012471
0.0034088
0.00013623
0.0028723
0.00014547
0.0022865
0.00015029
0.0016651
0.00016016
0.00099768
0.00062922
8.9993e-05
2.0051e-05
0.0051408
4.4712e-09
4.013e-05
0.0050514
5.9645e-05
0.0048765
7.8196e-05
0.0046185
9.5423e-05
0.0042815
0.00011103
0.0038714
0.0001247
0.0033951
0.0001362
0.0028608
0.00014551
0.0022772
0.00014955
0.001661
0.00016089
0.00098633
0.00067993
0.00011018
2.0051e-05
0.0051208
5.8167e-09
4.0131e-05
0.0050313
5.9647e-05
0.004857
7.82e-05
0.0045999
9.5426e-05
0.0042643
0.00011103
0.0038558
0.0001247
0.0033815
0.00013618
0.0028493
0.00014558
0.0022678
0.00014885
0.0016578
0.0001611
0.00097408
0.00071482
0.00012621
2.005e-05
0.0051007
7.1655e-09
4.0132e-05
0.0050112
5.9649e-05
0.0048375
7.8203e-05
0.0045814
9.543e-05
0.0042471
0.00011103
0.0038402
0.0001247
0.0033678
0.00013615
0.0028378
0.00014567
0.0022583
0.00014822
0.0016552
0.00016086
0.00096144
0.00073691
0.00013877
2.005e-05
0.0050807
8.5175e-09
4.0133e-05
0.0049912
5.9652e-05
0.004818
7.8206e-05
0.0045628
9.5433e-05
0.0042299
0.00011103
0.0038246
0.0001247
0.0033541
0.00013612
0.0028264
0.00014578
0.0022486
0.00014768
0.0016533
0.00016025
0.00094887
0.00074875
0.00014841
2.005e-05
0.0050606
9.8726e-09
4.0134e-05
0.0049711
5.9654e-05
0.0047984
7.8209e-05
0.0045442
9.5436e-05
0.0042126
0.00011104
0.003809
0.0001247
0.0033405
0.00013608
0.002815
0.00014591
0.0022388
0.00014724
0.001652
0.00015938
0.00093674
0.00075251
0.00015562
2.005e-05
0.0050405
1.1231e-08
4.0135e-05
0.004951
5.9656e-05
0.0047789
7.8212e-05
0.0045257
9.5439e-05
0.0041954
0.00011104
0.0037934
0.0001247
0.0033268
0.00013604
0.0028037
0.00014604
0.0022288
0.00014691
0.0016511
0.00015832
0.00092533
0.00074999
0.00016083
2.005e-05
0.0050205
1.2593e-08
4.0137e-05
0.0049309
5.9659e-05
0.0047594
7.8215e-05
0.0045071
9.5443e-05
0.0041782
0.00011104
0.0037778
0.0001247
0.0033132
0.00013599
0.0027924
0.00014618
0.0022186
0.00014668
0.0016506
0.00015716
0.00091486
0.00074272
0.00016443
2.005e-05
0.0050004
1.3958e-08
4.0138e-05
0.0049108
5.9661e-05
0.0047399
7.8218e-05
0.0044886
9.5446e-05
0.004161
0.00011104
0.0037622
0.0001247
0.0032995
0.00013595
0.0027812
0.00014632
0.0022082
0.00014657
0.0016504
0.00015595
0.00090548
0.00073194
0.00016673
2.005e-05
0.0049803
1.5326e-08
4.0139e-05
0.0048907
5.9663e-05
0.0047204
7.8221e-05
0.00447
9.5449e-05
0.0041437
0.00011105
0.0037466
0.00012471
0.0032858
0.00013589
0.00277
0.00014646
0.0021977
0.00014656
0.0016503
0.00015476
0.00089727
0.00071869
0.00016802
2.005e-05
0.0049603
1.6698e-08
4.014e-05
0.0048706
5.9666e-05
0.0047008
7.8224e-05
0.0044515
9.5453e-05
0.0041265
0.00011105
0.003731
0.00012472
0.0032722
0.00013584
0.0027589
0.00014659
0.0021869
0.00014664
0.0016502
0.00015362
0.00089029
0.00070379
0.00016852
2.005e-05
0.0049402
1.8073e-08
4.0141e-05
0.0048505
5.9668e-05
0.0046813
7.8227e-05
0.0044329
9.5456e-05
0.0041093
0.00011105
0.0037154
0.00012472
0.0032585
0.00013578
0.0027478
0.00014671
0.002176
0.00014682
0.0016501
0.00015258
0.00088453
0.00068792
0.00016844
2.005e-05
0.0049201
1.9452e-08
4.0142e-05
0.0048305
5.967e-05
0.0046618
7.823e-05
0.0044143
9.546e-05
0.004092
0.00011105
0.0036998
0.00012473
0.0032448
0.00013571
0.0027368
0.00014682
0.0021648
0.00014707
0.0016499
0.00015164
0.00087996
0.00067163
0.00016794
2.005e-05
0.0049001
2.0834e-08
4.0144e-05
0.0048104
5.9673e-05
0.0046422
7.8234e-05
0.0043958
9.5464e-05
0.0040748
0.00011105
0.0036842
0.00012474
0.0032311
0.00013565
0.0027259
0.00014692
0.0021536
0.00014738
0.0016494
0.00015083
0.00087651
0.00065532
0.00016714
2.005e-05
0.00488
2.222e-08
4.0145e-05
0.0047903
5.9675e-05
0.0046227
7.8237e-05
0.0043772
9.5467e-05
0.0040576
0.00011106
0.0036686
0.00012476
0.0032174
0.00013558
0.0027151
0.000147
0.0021422
0.00014775
0.0016487
0.00015016
0.0008741
0.00063932
0.00016616
2.005e-05
0.0048599
2.361e-08
4.0146e-05
0.0047702
5.9677e-05
0.0046032
7.824e-05
0.0043587
9.5471e-05
0.0040403
0.00011106
0.003653
0.00012477
0.0032037
0.00013551
0.0027044
0.00014706
0.0021306
0.00014817
0.0016476
0.00014963
0.00087264
0.00062386
0.00016508
2.005e-05
0.0048399
2.5003e-08
4.0147e-05
0.0047501
5.968e-05
0.0045837
7.8243e-05
0.0043401
9.5475e-05
0.0040231
0.00011106
0.0036375
0.00012479
0.00319
0.00013544
0.0026937
0.0001471
0.002119
0.00014862
0.001646
0.00014923
0.00087203
0.00060913
0.00016397
2.0049e-05
0.0048198
2.6401e-08
4.0148e-05
0.00473
5.9682e-05
0.0045641
7.8246e-05
0.0043215
9.5479e-05
0.0040059
0.00011106
0.0036219
0.00012481
0.0031762
0.00013538
0.0026831
0.00014712
0.0021072
0.00014909
0.0016441
0.00014897
0.00087215
0.00059523
0.00016287
2.0049e-05
0.0047997
2.7802e-08
4.0149e-05
0.0047099
5.9685e-05
0.0045446
7.825e-05
0.004303
9.5483e-05
0.0039887
0.00011106
0.0036063
0.00012483
0.0031625
0.00013531
0.0026727
0.00014713
0.0020954
0.00014957
0.0016416
0.00014883
0.00087289
0.00058223
0.00016183
2.0049e-05
0.0047796
2.9207e-08
4.015e-05
0.0046898
5.9687e-05
0.004525
7.8253e-05
0.0042844
9.5487e-05
0.0039714
0.00011106
0.0035907
0.00012485
0.0031487
0.00013524
0.0026623
0.00014711
0.0020835
0.00015006
0.0016387
0.00014881
0.00087414
0.00057017
0.00016088
2.0049e-05
0.0047595
3.0616e-08
4.0152e-05
0.0046697
5.9689e-05
0.0045055
7.8256e-05
0.0042658
9.5491e-05
0.0039542
0.00011106
0.0035751
0.00012488
0.0031349
0.00013518
0.002652
0.00014707
0.0020716
0.00015055
0.0016352
0.0001489
0.00087579
0.00055904
0.00016003
2.0049e-05
0.0047395
3.203e-08
4.0153e-05
0.0046496
5.9692e-05
0.004486
7.8259e-05
0.0042473
9.5496e-05
0.0039369
0.00011107
0.0035596
0.00012491
0.003121
0.00013511
0.0026418
0.00014702
0.0020597
0.00015102
0.0016312
0.00014907
0.00087774
0.00054882
0.00015929
2.0049e-05
0.0047194
3.3447e-08
4.0154e-05
0.0046295
5.9694e-05
0.0044664
7.8263e-05
0.0042287
9.55e-05
0.0039197
0.00011106
0.003544
0.00012493
0.0031071
0.00013506
0.0026317
0.00014694
0.0020478
0.00015148
0.0016267
0.00014933
0.0008799
0.00053948
0.00015867
2.0049e-05
0.0046993
3.4869e-08
4.0155e-05
0.0046094
5.9697e-05
0.0044469
7.8266e-05
0.0042101
9.5505e-05
0.0039025
0.00011106
0.0035284
0.00012496
0.0030932
0.000135
0.0026216
0.00014685
0.002036
0.00015191
0.0016216
0.00014965
0.00088216
0.00053097
0.00015816
2.0049e-05
0.0046792
3.6295e-08
4.0156e-05
0.0045892
5.9699e-05
0.0044273
7.8269e-05
0.0041916
9.5509e-05
0.0038852
0.00011106
0.0035129
0.000125
0.0030793
0.00013495
0.0026117
0.00014674
0.0020242
0.00015232
0.001616
0.00015003
0.00088446
0.00052322
0.00015777
2.0049e-05
0.0046591
3.7725e-08
4.0157e-05
0.0045691
5.9702e-05
0.0044078
7.8273e-05
0.004173
9.5514e-05
0.003868
0.00011106
0.0034973
0.00012503
0.0030653
0.00013491
0.0026018
0.00014662
0.0020125
0.0001527
0.0016099
0.00015045
0.00088671
0.00051618
0.00015749
2.0049e-05
0.004639
3.916e-08
4.0158e-05
0.004549
5.9704e-05
0.0043883
7.8276e-05
0.0041544
9.5519e-05
0.0038507
0.00011106
0.0034818
0.00012506
0.0030513
0.00013487
0.002592
0.00014649
0.0020009
0.00015305
0.0016034
0.0001509
0.00088886
0.00050977
0.00015731
2.0048e-05
0.0046189
4.0599e-08
4.016e-05
0.0045289
5.9706e-05
0.0043687
7.8279e-05
0.0041358
9.5524e-05
0.0038335
0.00011106
0.0034663
0.0001251
0.0030373
0.00013484
0.0025822
0.00014634
0.0019894
0.00015336
0.0015964
0.00015138
0.00089084
0.00050394
0.00015722
2.0048e-05
0.0045989
4.2043e-08
4.0161e-05
0.0045088
5.9709e-05
0.0043492
7.8283e-05
0.0041173
9.553e-05
0.0038163
0.00011106
0.0034507
0.00012513
0.0030232
0.00013481
0.0025726
0.00014618
0.001978
0.00015363
0.0015889
0.00015187
0.00089261
0.0004986
0.0001572
2.0048e-05
0.0045788
4.3492e-08
4.0162e-05
0.0044887
5.9712e-05
0.0043296
7.8286e-05
0.0040987
9.5535e-05
0.003799
0.00011105
0.0034352
0.00012517
0.0030091
0.0001348
0.0025629
0.00014602
0.0019668
0.00015387
0.0015811
0.00015236
0.00089412
0.0004937
0.00015726
2.0048e-05
0.0045587
4.4945e-08
4.0163e-05
0.0044686
5.9714e-05
0.0043101
7.8289e-05
0.0040801
9.5541e-05
0.0037817
0.00011105
0.0034197
0.00012521
0.0029949
0.00013479
0.0025534
0.00014585
0.0019557
0.00015407
0.0015728
0.00015285
0.00089534
0.00048918
0.00015737
2.0048e-05
0.0045386
4.6403e-08
4.0164e-05
0.0044485
5.9717e-05
0.0042905
7.8293e-05
0.0040615
9.5547e-05
0.0037645
0.00011104
0.0034042
0.00012525
0.0029807
0.00013478
0.0025438
0.00014567
0.0019448
0.00015424
0.0015643
0.00015333
0.00089625
0.00048498
0.00015753
2.0048e-05
0.0045185
4.7866e-08
4.0165e-05
0.0044283
5.9719e-05
0.004271
7.8296e-05
0.004043
9.5553e-05
0.0037472
0.00011104
0.0033887
0.00012529
0.0029665
0.00013479
0.0025343
0.00014549
0.0019341
0.00015437
0.0015554
0.00015379
0.00089682
0.00048104
0.00015773
2.0048e-05
0.0044984
4.9335e-08
4.0167e-05
0.0044082
5.9722e-05
0.0042514
7.83e-05
0.0040244
9.5559e-05
0.00373
0.00011103
0.0033733
0.00012532
0.0029522
0.0001348
0.0025248
0.00014531
0.0019236
0.00015446
0.0015462
0.00015424
0.00089704
0.00047732
0.00015796
2.0048e-05
0.0044783
5.0808e-08
4.0168e-05
0.0043881
5.9724e-05
0.0042318
7.8303e-05
0.0040058
9.5566e-05
0.0037127
0.00011103
0.0033578
0.00012536
0.0029379
0.00013483
0.0025154
0.00014512
0.0019133
0.00015452
0.0015368
0.00015466
0.0008969
0.00047377
0.00015821
2.0048e-05
0.0044582
5.2286e-08
4.0169e-05
0.004368
5.9727e-05
0.0042123
7.8306e-05
0.0039872
9.5573e-05
0.0036954
0.00011102
0.0033423
0.0001254
0.0029235
0.00013486
0.0025059
0.00014494
0.0019032
0.00015455
0.0015272
0.00015505
0.00089639
0.00047035
0.00015847
2.0048e-05
0.0044381
5.377e-08
4.017e-05
0.0043479
5.973e-05
0.0041927
7.831e-05
0.0039686
9.558e-05
0.0036782
0.00011102
0.0033269
0.00012544
0.0029091
0.0001349
0.0024965
0.00014477
0.0018934
0.00015454
0.0015175
0.00015541
0.00089552
0.00046703
0.00015874
2.0047e-05
0.004418
5.5259e-08
4.0171e-05
0.0043277
5.9732e-05
0.0041732
7.8313e-05
0.0039501
9.5587e-05
0.0036609
0.00011101
0.0033115
0.00012547
0.0028946
0.00013494
0.002487
0.0001446
0.0018837
0.00015451
0.0015075
0.00015574
0.0008943
0.00046377
0.000159
2.0047e-05
0.0043979
5.6754e-08
4.0172e-05
0.0043076
5.9735e-05
0.0041536
7.8317e-05
0.0039315
9.5595e-05
0.0036436
0.000111
0.0032961
0.00012551
0.0028801
0.000135
0.0024775
0.00014443
0.0018743
0.00015446
0.0014975
0.00015604
0.00089271
0.00046055
0.00015926
2.0047e-05
0.0043778
5.8254e-08
4.0174e-05
0.0042875
5.9737e-05
0.004134
7.832e-05
0.0039129
9.5603e-05
0.0036263
0.00011099
0.0032807
0.00012554
0.0028656
0.00013506
0.002468
0.00014427
0.0018651
0.00015438
0.0014874
0.00015631
0.00089079
0.00045734
0.00015951
2.0047e-05
0.0043577
5.976e-08
4.0175e-05
0.0042674
5.974e-05
0.0041145
7.8324e-05
0.0038943
9.5611e-05
0.0036091
0.00011099
0.0032653
0.00012557
0.002851
0.00013513
0.0024584
0.00014412
0.0018561
0.00015429
0.0014772
0.00015654
0.00088853
0.00045413
0.00015975
2.0047e-05
0.0043376
6.1271e-08
4.0176e-05
0.0042472
5.9743e-05
0.0040949
7.8327e-05
0.0038757
9.562e-05
0.0035918
0.00011098
0.00325
0.0001256
0.0028363
0.00013521
0.0024488
0.00014398
0.0018473
0.00015417
0.001467
0.00015674
0.00088596
0.00045091
0.00015997
2.0047e-05
0.0043174
6.2789e-08
4.0177e-05
0.0042271
5.9746e-05
0.0040753
7.8331e-05
0.0038571
9.5629e-05
0.0035745
0.00011097
0.0032346
0.00012563
0.0028217
0.00013529
0.0024392
0.00014386
0.0018387
0.00015404
0.0014569
0.00015691
0.00088309
0.00044764
0.00016017
2.0047e-05
0.0042973
6.4312e-08
4.0179e-05
0.004207
5.9748e-05
0.0040558
7.8334e-05
0.0038386
9.5638e-05
0.0035572
0.00011096
0.0032193
0.00012566
0.002807
0.00013538
0.0024294
0.00014374
0.0018304
0.0001539
0.0014467
0.00015705
0.00087994
0.00044433
0.00016036
2.0047e-05
0.0042772
6.5842e-08
4.018e-05
0.0041868
5.9751e-05
0.0040362
7.8337e-05
0.00382
9.5647e-05
0.0035399
0.00011095
0.003204
0.00012568
0.0027922
0.00013548
0.0024196
0.00014364
0.0018222
0.00015375
0.0014366
0.00015716
0.00087653
0.00044098
0.00016052
2.0047e-05
0.0042571
6.7378e-08
4.0181e-05
0.0041667
5.9754e-05
0.0040166
7.8341e-05
0.0038014
9.5657e-05
0.0035225
0.00011094
0.0031887
0.00012571
0.0027775
0.00013558
0.0024098
0.00014355
0.0018142
0.00015359
0.0014266
0.00015724
0.00087288
0.00043756
0.00016066
2.0046e-05
0.004237
6.892e-08
4.0182e-05
0.0041466
5.9757e-05
0.003997
7.8344e-05
0.0037828
9.5667e-05
0.0035052
0.00011093
0.0031734
0.00012573
0.0027627
0.00013569
0.0023998
0.00014347
0.0018065
0.00015343
0.0014166
0.0001573
0.000869
0.00043408
0.00016078
2.0046e-05
0.0042169
7.0469e-08
4.0184e-05
0.0041264
5.976e-05
0.0039775
7.8348e-05
0.0037642
9.5678e-05
0.0034879
0.00011092
0.0031582
0.00012574
0.0027479
0.0001358
0.0023898
0.00014341
0.0017988
0.00015326
0.0014068
0.00015734
0.00086492
0.00043054
0.00016088
2.0046e-05
0.0041968
7.2024e-08
4.0185e-05
0.0041063
5.9763e-05
0.0039579
7.8351e-05
0.0037456
9.5689e-05
0.0034705
0.00011091
0.003143
0.00012576
0.002733
0.00013591
0.0023796
0.00014337
0.0017914
0.0001531
0.001397
0.00015736
0.00086066
0.00042694
0.00016096
2.0046e-05
0.0041766
7.3586e-08
4.0186e-05
0.0040862
5.9766e-05
0.0039383
7.8354e-05
0.003727
9.57e-05
0.0034532
0.00011091
0.0031278
0.00012577
0.0027182
0.00013603
0.0023693
0.00014333
0.0017841
0.00015293
0.0013874
0.00015736
0.00085623
0.00042327
0.00016102
2.0046e-05
0.0041565
7.5155e-08
4.0187e-05
0.004066
5.9769e-05
0.0039187
7.8358e-05
0.0037084
9.5711e-05
0.0034358
0.0001109
0.0031126
0.00012577
0.0027033
0.00013615
0.002359
0.00014332
0.0017769
0.00015277
0.001378
0.00015734
0.00085166
0.00041955
0.00016107
2.0046e-05
0.0041364
7.6731e-08
4.0189e-05
0.0040459
5.9772e-05
0.0038992
7.8361e-05
0.0036899
9.5723e-05
0.0034185
0.00011089
0.0030974
0.00012578
0.0026884
0.00013627
0.0023485
0.00014331
0.0017699
0.00015262
0.0013687
0.00015731
0.00084697
0.00041577
0.00016109
2.0046e-05
0.0041163
7.8313e-08
4.019e-05
0.0040257
5.9775e-05
0.0038796
7.8364e-05
0.0036713
9.5735e-05
0.0034011
0.00011088
0.0030823
0.00012578
0.0026735
0.00013639
0.0023378
0.00014333
0.0017629
0.00015247
0.0013595
0.00015727
0.00084217
0.00041193
0.0001611
2.0046e-05
0.0040961
7.9903e-08
4.0191e-05
0.0040056
5.9778e-05
0.00386
7.8368e-05
0.0036527
9.5748e-05
0.0033837
0.00011087
0.0030671
0.00012578
0.0026586
0.00013652
0.0023271
0.00014335
0.0017561
0.00015233
0.0013505
0.00015722
0.00083728
0.00040805
0.0001611
2.0046e-05
0.004076
8.1501e-08
4.0193e-05
0.0039854
5.9781e-05
0.0038404
7.8371e-05
0.0036341
9.576e-05
0.0033663
0.00011087
0.003052
0.00012577
0.0026437
0.00013664
0.0023162
0.00014339
0.0017493
0.00015221
0.0013417
0.00015717
0.00083232
0.00040413
0.00016109
2.0045e-05
0.0040559
8.3106e-08
4.0194e-05
0.0039653
5.9784e-05
0.0038208
7.8374e-05
0.0036155
9.5773e-05
0.0033489
0.00011086
0.0030369
0.00012576
0.0026288
0.00013676
0.0023052
0.00014344
0.0017427
0.00015209
0.0013331
0.00015711
0.0008273
0.00040017
0.00016107
2.0045e-05
0.0040358
8.4718e-08
4.0195e-05
0.0039451
5.9787e-05
0.0038012
7.8377e-05
0.0035969
9.5787e-05
0.0033315
0.00011086
0.0030219
0.00012575
0.0026139
0.00013688
0.0022941
0.00014351
0.001736
0.00015198
0.0013246
0.00015704
0.00082224
0.00039617
0.00016104
2.0045e-05
0.0040156
8.6338e-08
4.0197e-05
0.003925
5.979e-05
0.0037816
7.838e-05
0.0035783
9.58e-05
0.0033141
0.00011085
0.0030068
0.00012574
0.002599
0.000137
0.0022828
0.00014359
0.0017295
0.00015189
0.0013163
0.00015698
0.00081715
0.00039215
0.000161
2.0045e-05
0.0039955
8.7967e-08
4.0198e-05
0.0039048
5.9794e-05
0.003762
7.8383e-05
0.0035597
9.5814e-05
0.0032967
0.00011085
0.0029918
0.00012572
0.0025841
0.00013712
0.0022715
0.00014368
0.0017229
0.00015181
0.0013082
0.00015692
0.00081204
0.00038811
0.00016096
2.0045e-05
0.0039754
8.9603e-08
4.0199e-05
0.0038847
5.9797e-05
0.0037424
7.8387e-05
0.0035411
9.5828e-05
0.0032792
0.00011085
0.0029768
0.0001257
0.0025693
0.00013723
0.0022599
0.00014377
0.0017164
0.00015175
0.0013002
0.00015686
0.00080693
0.00038406
0.00016091
2.0045e-05
0.0039552
9.1247e-08
4.0201e-05
0.0038645
5.98e-05
0.0037228
7.839e-05
0.0035226
9.5843e-05
0.0032618
0.00011085
0.0029618
0.00012568
0.0025545
0.00013734
0.0022483
0.00014388
0.0017098
0.0001517
0.0012924
0.00015681
0.00080182
0.00038
0.00016087
2.0045e-05
0.0039351
9.29e-08
4.0202e-05
0.0038444
5.9804e-05
0.0037032
7.8393e-05
0.003504
9.5857e-05
0.0032443
0.00011085
0.0029468
0.00012565
0.0025396
0.00013744
0.0022365
0.000144
0.0017033
0.00015166
0.0012847
0.00015676
0.00079672
0.00037594
0.00016082
2.0045e-05
0.0039149
9.4562e-08
4.0203e-05
0.0038242
5.9807e-05
0.0036836
7.8396e-05
0.0034854
9.5872e-05
0.0032268
0.00011085
0.0029318
0.00012562
0.0025249
0.00013754
0.0022245
0.00014412
0.0016967
0.00015164
0.0012772
0.00015671
0.00079165
0.00037188
0.00016077
2.0045e-05
0.0038948
9.6232e-08
4.0205e-05
0.003804
5.981e-05
0.003664
7.8399e-05
0.0034668
9.5886e-05
0.0032094
0.00011085
0.0029168
0.00012559
0.0025101
0.00013764
0.0022125
0.00014425
0.0016901
0.00015163
0.0012698
0.00015667
0.0007866
0.00036783
0.00016072
2.0045e-05
0.0038747
9.7911e-08
4.0206e-05
0.0037839
5.9814e-05
0.0036444
7.8402e-05
0.0034482
9.5901e-05
0.0031919
0.00011086
0.0029019
0.00012556
0.0024954
0.00013773
0.0022003
0.00014439
0.0016834
0.00015163
0.0012626
0.00015664
0.00078158
0.00036379
0.00016068
2.0045e-05
0.0038545
9.9598e-08
4.0208e-05
0.0037637
5.9817e-05
0.0036248
7.8404e-05
0.0034296
9.5916e-05
0.0031743
0.00011086
0.0028869
0.00012552
0.0024808
0.00013781
0.002188
0.00014453
0.0016767
0.00015165
0.0012555
0.00015662
0.00077661
0.00035977
0.00016064
2.0044e-05
0.0038344
1.013e-07
4.0209e-05
0.0037436
5.9821e-05
0.0036052
7.8407e-05
0.003411
9.5931e-05
0.0031568
0.00011087
0.002872
0.00012549
0.0024662
0.00013789
0.0021756
0.00014467
0.0016699
0.00015167
0.0012485
0.00015661
0.00077167
0.00035578
0.0001606
2.0044e-05
0.0038142
1.03e-07
4.0211e-05
0.0037234
5.9825e-05
0.0035856
7.841e-05
0.0033924
9.5946e-05
0.0031393
0.00011088
0.0028571
0.00012545
0.0024516
0.00013796
0.0021631
0.00014482
0.0016631
0.00015171
0.0012416
0.0001566
0.00076678
0.00035182
0.00016057
2.0044e-05
0.0037941
1.0472e-07
4.0212e-05
0.0037032
5.9828e-05
0.003566
7.8413e-05
0.0033739
9.5961e-05
0.0031217
0.00011089
0.0028421
0.00012541
0.0024371
0.00013802
0.0021505
0.00014496
0.0016561
0.00015176
0.0012348
0.00015661
0.00076194
0.00034788
0.00016054
2.0044e-05
0.0037739
1.0644e-07
4.0214e-05
0.003683
5.9832e-05
0.0035463
7.8416e-05
0.0033553
9.5976e-05
0.0031042
0.00011091
0.0028272
0.00012537
0.0024226
0.00013808
0.0021378
0.00014511
0.0016491
0.00015182
0.0012281
0.00015662
0.00075715
0.00034399
0.00016052
2.0044e-05
0.0037538
1.0818e-07
4.0215e-05
0.0036629
5.9836e-05
0.0035267
7.8419e-05
0.0033367
9.5991e-05
0.0030866
0.00011092
0.0028123
0.00012533
0.0024082
0.00013813
0.002125
0.00014526
0.001642
0.00015189
0.0012214
0.00015664
0.00075241
0.00034013
0.0001605
2.0044e-05
0.0037336
1.0993e-07
4.0217e-05
0.0036427
5.984e-05
0.0035071
7.8422e-05
0.0033181
9.6006e-05
0.003069
0.00011094
0.0027973
0.00012529
0.0023938
0.00013818
0.0021121
0.00014541
0.0016347
0.00015197
0.0012148
0.00015667
0.00074771
0.00033631
0.00016048
2.0044e-05
0.0037135
1.1168e-07
4.0218e-05
0.0036225
5.9844e-05
0.0034875
7.8425e-05
0.0032995
9.602e-05
0.0030514
0.00011096
0.0027824
0.00012525
0.0023795
0.00013821
0.0020992
0.00014555
0.0016274
0.00015206
0.0012083
0.0001567
0.00074307
0.00033253
0.00016048
2.0044e-05
0.0036933
1.1345e-07
4.022e-05
0.0036024
5.9848e-05
0.0034678
7.8428e-05
0.0032809
9.6035e-05
0.0030338
0.00011098
0.0027675
0.00012521
0.0023653
0.00013824
0.0020861
0.00014569
0.0016199
0.00015215
0.0012019
0.00015675
0.00073847
0.00032881
0.00016048
2.0044e-05
0.0036731
1.1523e-07
4.0221e-05
0.0035822
5.9852e-05
0.0034482
7.843e-05
0.0032624
9.6049e-05
0.0030162
0.000111
0.0027525
0.00012517
0.0023511
0.00013827
0.002073
0.00014583
0.0016124
0.00015225
0.0011955
0.0001568
0.00073392
0.00032513
0.00016048
2.0044e-05
0.003653
1.1701e-07
4.0223e-05
0.003562
5.9856e-05
0.0034286
7.8433e-05
0.0032438
9.6063e-05
0.0029986
0.00011102
0.0027376
0.00012513
0.002337
0.00013829
0.0020599
0.00014597
0.0016047
0.00015235
0.0011891
0.00015686
0.00072942
0.00032149
0.00016049
2.0044e-05
0.0036328
1.1881e-07
4.0225e-05
0.0035418
5.986e-05
0.0034089
7.8436e-05
0.0032252
9.6077e-05
0.0029809
0.00011105
0.0027226
0.00012509
0.002323
0.0001383
0.0020467
0.0001461
0.0015969
0.00015246
0.0011827
0.00015692
0.00072495
0.00031791
0.0001605
2.0044e-05
0.0036127
1.2063e-07
4.0226e-05
0.0035216
5.9864e-05
0.0033893
7.8439e-05
0.0032066
9.609e-05
0.0029633
0.00011107
0.0027076
0.00012505
0.002309
0.00013831
0.0020334
0.00014622
0.001589
0.00015256
0.0011764
0.00015699
0.00072053
0.00031438
0.00016052
2.0044e-05
0.0035925
1.2245e-07
4.0228e-05
0.0035014
5.9868e-05
0.0033697
7.8443e-05
0.0031881
9.6103e-05
0.0029456
0.0001111
0.0026926
0.00012501
0.0022951
0.00013831
0.0020201
0.00014635
0.0015809
0.00015267
0.0011701
0.00015706
0.00071614
0.0003109
0.00016054
2.0043e-05
0.0035723
1.2428e-07
4.023e-05
0.0034813
5.9872e-05
0.00335
7.8446e-05
0.0031695
9.6116e-05
0.002928
0.00011113
0.0026776
0.00012498
0.0022813
0.0001383
0.0020068
0.00014646
0.0015728
0.00015279
0.0011637
0.00015714
0.00071179
0.00030747
0.00016057
2.0043e-05
0.0035522
1.2613e-07
4.0231e-05
0.0034611
5.9877e-05
0.0033304
7.8449e-05
0.0031509
9.6128e-05
0.0029103
0.00011117
0.0026625
0.00012495
0.0022675
0.00013829
0.0019934
0.00014657
0.0015645
0.0001529
0.0011574
0.00015722
0.00070747
0.00030409
0.0001606
2.0043e-05
0.003532
1.2799e-07
4.0233e-05
0.0034409
5.9881e-05
0.0033107
7.8452e-05
0.0031323
9.614e-05
0.0028926
0.0001112
0.0026475
0.00012492
0.0022538
0.00013828
0.0019801
0.00014667
0.0015561
0.00015301
0.0011511
0.0001573
0.00070318
0.00030076
0.00016063
2.0043e-05
0.0035118
1.2986e-07
4.0235e-05
0.0034207
5.9886e-05
0.0032911
7.8456e-05
0.0031138
9.6151e-05
0.0028749
0.00011123
0.0026324
0.00012489
0.0022401
0.00013826
0.0019667
0.00014677
0.0015476
0.00015312
0.0011447
0.00015739
0.00069892
0.00029748
0.00016067
2.0043e-05
0.0034916
1.3174e-07
4.0237e-05
0.0034005
5.989e-05
0.0032714
7.8459e-05
0.0030952
9.6162e-05
0.0028572
0.00011127
0.0026173
0.00012486
0.0022265
0.00013824
0.0019533
0.00014686
0.001539
0.00015323
0.0011383
0.00015748
0.00069467
0.00029425
0.00016071
2.0043e-05
0.0034715
1.3364e-07
4.0238e-05
0.0033803
5.9895e-05
0.0032518
7.8463e-05
0.0030766
9.6172e-05
0.0028395
0.00011131
0.0026022
0.00012484
0.002213
0.00013822
0.00194
0.00014694
0.0015303
0.00015334
0.0011319
0.00015757
0.00069045
0.00029107
0.00016075
2.0043e-05
0.0034513
1.3555e-07
4.024e-05
0.0033601
5.9899e-05
0.0032321
7.8467e-05
0.0030581
9.6182e-05
0.0028218
0.00011135
0.002587
0.00012482
0.0021995
0.00013819
0.0019266
0.00014702
0.0015214
0.00015345
0.0011255
0.00015766
0.00068623
0.00028793
0.0001608
2.0043e-05
0.0034311
1.3747e-07
4.0242e-05
0.0033399
5.9904e-05
0.0032124
7.8471e-05
0.0030395
9.6191e-05
0.002804
0.00011139
0.0025718
0.0001248
0.0021861
0.00013816
0.0019132
0.00014709
0.0015125
0.00015355
0.001119
0.00015775
0.00068204
0.00028484
0.00016084
2.0043e-05
0.0034109
1.3941e-07
4.0244e-05
0.0033197
5.9908e-05
0.0031928
7.8475e-05
0.0030209
9.62e-05
0.0027863
0.00011143
0.0025566
0.00012479
0.0021727
0.00013813
0.0018999
0.00014716
0.0015035
0.00015365
0.0011126
0.00015784
0.00067784
0.00028179
0.00016089
2.0043e-05
0.0033907
1.4136e-07
4.0246e-05
0.0032995
5.9913e-05
0.0031731
7.8479e-05
0.0030024
9.6209e-05
0.0027686
0.00011147
0.0025413
0.00012478
0.0021594
0.00013809
0.0018866
0.00014722
0.0014943
0.00015375
0.001106
0.00015793
0.00067366
0.00027879
0.00016094
2.0043e-05
0.0033705
1.4333e-07
4.0248e-05
0.0032793
5.9918e-05
0.0031534
7.8483e-05
0.0029838
9.6216e-05
0.0027509
0.00011151
0.002526
0.00012477
0.0021462
0.00013806
0.0018733
0.00014727
0.0014851
0.00015384
0.0010994
0.00015803
0.00066948
0.00027582
0.00016099
2.0043e-05
0.0033504
1.4531e-07
4.025e-05
0.0032591
5.9923e-05
0.0031338
7.8488e-05
0.0029652
9.6224e-05
0.0027331
0.00011155
0.0025107
0.00012477
0.0021329
0.00013802
0.00186
0.00014732
0.0014758
0.00015393
0.0010928
0.00015812
0.0006653
0.0002729
0.00016104
2.0043e-05
0.0033302
1.4731e-07
4.0252e-05
0.0032389
5.9928e-05
0.0031141
7.8493e-05
0.0029467
9.623e-05
0.0027154
0.00011159
0.0024953
0.00012477
0.0021198
0.00013799
0.0018468
0.00014736
0.0014665
0.00015402
0.0010862
0.0001582
0.00066111
0.00027001
0.00016109
2.0043e-05
0.00331
1.4932e-07
4.0254e-05
0.0032187
5.9933e-05
0.0030944
7.8497e-05
0.0029281
9.6237e-05
0.0026976
0.00011164
0.0024799
0.00012477
0.0021066
0.00013795
0.0018336
0.0001474
0.001457
0.0001541
0.0010795
0.00015829
0.00065693
0.00026716
0.00016114
2.0043e-05
0.0032898
1.5135e-07
4.0256e-05
0.0031985
5.9938e-05
0.0030747
7.8503e-05
0.0029095
9.6242e-05
0.0026799
0.00011168
0.0024645
0.00012477
0.0020935
0.00013792
0.0018205
0.00014743
0.0014475
0.00015418
0.0010727
0.00015838
0.00065273
0.00026434
0.0001612
2.0043e-05
0.0032696
1.5339e-07
4.0258e-05
0.0031782
5.9943e-05
0.003055
7.8508e-05
0.002891
9.6248e-05
0.0026622
0.00011172
0.002449
0.00012478
0.0020805
0.00013788
0.0018074
0.00014746
0.0014379
0.00015426
0.0010659
0.00015846
0.00064853
0.00026155
0.00016125
2.0043e-05
0.0032494
1.5545e-07
4.026e-05
0.003158
5.9948e-05
0.0030354
7.8514e-05
0.0028724
9.6252e-05
0.0026444
0.00011177
0.0024335
0.0001248
0.0020675
0.00013785
0.0017943
0.00014749
0.0014283
0.00015433
0.0010591
0.00015854
0.00064431
0.0002588
0.0001613
2.0043e-05
0.0032292
1.5753e-07
4.0262e-05
0.0031378
5.9953e-05
0.0030157
7.8519e-05
0.0028538
9.6257e-05
0.0026267
0.00011181
0.0024179
0.00012481
0.0020545
0.00013782
0.0017813
0.00014751
0.0014186
0.0001544
0.0010522
0.00015862
0.00064008
0.00025607
0.00016135
2.0043e-05
0.003209
1.5962e-07
4.0264e-05
0.0031176
5.9958e-05
0.002996
7.8525e-05
0.0028353
9.6261e-05
0.002609
0.00011185
0.0024023
0.00012483
0.0020415
0.00013779
0.0017684
0.00014753
0.0014089
0.00015446
0.0010453
0.0001587
0.00063584
0.00025337
0.0001614
2.0043e-05
0.0031888
1.6173e-07
4.0266e-05
0.0030974
5.9964e-05
0.0029763
7.8532e-05
0.0028167
9.6264e-05
0.0025912
0.00011189
0.0023867
0.00012485
0.0020285
0.00013776
0.0017555
0.00014754
0.0013991
0.00015452
0.0010383
0.00015878
0.00063158
0.00025069
0.00016145
2.0043e-05
0.0031686
1.6386e-07
4.0268e-05
0.0030771
5.9969e-05
0.0029566
7.8538e-05
0.0027981
9.6267e-05
0.0025735
0.00011194
0.0023711
0.00012487
0.0020156
0.00013773
0.0017426
0.00014756
0.0013892
0.00015458
0.0010313
0.00015885
0.0006273
0.00024804
0.00016151
2.0043e-05
0.0031484
1.6601e-07
4.0271e-05
0.0030569
5.9974e-05
0.0029369
7.8545e-05
0.0027796
9.627e-05
0.0025558
0.00011198
0.0023553
0.0001249
0.0020027
0.00013771
0.0017298
0.00014757
0.0013794
0.00015463
0.0010242
0.00015892
0.00062301
0.00024541
0.00016156
2.0043e-05
0.0031282
1.6817e-07
4.0273e-05
0.0030367
5.998e-05
0.0029172
7.8552e-05
0.002761
9.6273e-05
0.002538
0.00011202
0.0023396
0.00012493
0.0019898
0.00013768
0.001717
0.00014757
0.0013695
0.00015468
0.0010171
0.00015899
0.00061869
0.0002428
0.00016161
2.0043e-05
0.0031079
1.7035e-07
4.0275e-05
0.0030164
5.9985e-05
0.0028975
7.8559e-05
0.0027424
9.6275e-05
0.0025203
0.00011206
0.0023238
0.00012496
0.0019769
0.00013766
0.0017043
0.00014758
0.0013596
0.00015473
0.0010099
0.00015906
0.00061436
0.00024021
0.00016165
2.0043e-05
0.0030877
1.7256e-07
4.0277e-05
0.0029962
5.999e-05
0.0028777
7.8567e-05
0.0027239
9.6277e-05
0.0025026
0.0001121
0.002308
0.00012499
0.001964
0.00013765
0.0016917
0.00014759
0.0013496
0.00015477
0.0010028
0.00015913
0.00061
0.00023763
0.0001617
2.0043e-05
0.0030675
1.7478e-07
4.028e-05
0.002976
5.9996e-05
0.002858
7.8575e-05
0.0027053
9.6279e-05
0.0024849
0.00011214
0.0022921
0.00012503
0.0019511
0.00013763
0.0016791
0.00014759
0.0013397
0.00015482
0.00099554
0.00015919
0.00060562
0.00023507
0.00016175
2.0043e-05
0.0030473
1.7703e-07
4.0282e-05
0.0029557
6.0001e-05
0.0028383
7.8583e-05
0.0026867
9.628e-05
0.0024672
0.00011217
0.0022762
0.00012506
0.0019382
0.00013762
0.0016665
0.0001476
0.0013297
0.00015486
0.00098828
0.00015925
0.00060122
0.00023253
0.0001618
2.0043e-05
0.0030271
1.7929e-07
4.0284e-05
0.0029355
6.0007e-05
0.0028186
7.8591e-05
0.0026681
9.6282e-05
0.0024495
0.00011221
0.0022603
0.0001251
0.0019253
0.00013761
0.001654
0.0001476
0.0013197
0.00015489
0.00098099
0.00015931
0.0005968
0.00023
0.00016184
2.0043e-05
0.0030068
1.8157e-07
4.0287e-05
0.0029153
6.0013e-05
0.0027989
7.86e-05
0.0026495
9.6283e-05
0.0024318
0.00011225
0.0022444
0.00012514
0.0019124
0.00013761
0.0016415
0.00014761
0.0013097
0.00015493
0.00097367
0.00015937
0.00059236
0.00022748
0.00016189
2.0043e-05
0.0029866
1.8388e-07
4.0289e-05
0.002895
6.0018e-05
0.0027791
7.8608e-05
0.0026309
9.6284e-05
0.0024142
0.00011228
0.0022284
0.00012519
0.0018995
0.0001376
0.0016291
0.00014761
0.0012997
0.00015496
0.00096632
0.00015943
0.00058789
0.00022498
0.00016194
2.0043e-05
0.0029664
1.8621e-07
4.0292e-05
0.0028748
6.0024e-05
0.0027594
7.8618e-05
0.0026123
9.6286e-05
0.0023965
0.00011232
0.0022123
0.00012523
0.0018866
0.0001376
0.0016168
0.00014761
0.0012897
0.000155
0.00095893