/*--------------------------------*- C++ -*----------------------------------*\
  =========                 |
  \\      /  F ield         | OpenFOAM: The Open Source CFD Toolbox
   \\    /   O peration     | Website:  https://openfoam.org
    \\  /    A nd           | Version:  6.0
     \\/     M anipulation  |
\*---------------------------------------------------------------------------*/
FoamFile
{
    version     2.0;
    format      ascii;
    class       volVectorField;
    location    "1.05";
    object      U;
}
// * * * * * * * * * * * * * * * * * * * * * * * * * * * * * * * * * * * * * //

dimensions      [0 1 -1 0 0 0 0];

internalField   nonuniform List<vector> 
13500
(
(1 1.9892e-06 -4.3519e-18)
(1 -4.1349e-06 2.9473e-18)
(1 -5.2238e-06 -1.265e-17)
(1 -9.3513e-06 -8.7832e-18)
(1 -7.866e-06 1.6487e-17)
(1 -6.5595e-06 3.0844e-17)
(1 5.0794e-07 2.6419e-17)
(0.99998 1.6361e-05 -4.2774e-18)
(0.99991 4.2394e-05 1.5709e-17)
(0.99976 8.9222e-05 3.3871e-18)
(0.99611 0.00067652 2.9048e-17)
(1.0189 0.010858 8.0547e-18)
(1 6.1908e-06 2.6961e-18)
(1 -1.2215e-05 -8.9507e-18)
(1 -1.4653e-05 6.0409e-18)
(1 -2.7406e-05 -3.4654e-19)
(1 -2.1574e-05 -4.3968e-19)
(1 -1.9109e-05 -3.7088e-17)
(1 4.7381e-06 -4.5629e-17)
(0.99993 4.9184e-05 -2.4474e-17)
(0.99973 0.00013477 -1.5679e-17)
(0.99961 0.00024416 -1.6745e-18)
(0.98767 0.0018962 -1.3756e-17)
(1.0528 0.030701 -4.8769e-18)
(1 1.0458e-05 -3.4823e-18)
(1 -2.0498e-05 1.7783e-17)
(1 -2.3988e-05 3.1421e-18)
(1 -4.6007e-05 1.0127e-17)
(1 -3.4976e-05 -3.8018e-18)
(1 -3.2562e-05 2.9709e-17)
(0.99999 9.8521e-06 -6.4226e-18)
(0.99989 8.1071e-05 5.5595e-18)
(0.99954 0.0002326 -1.9021e-17)
(0.99982 0.00042999 2.5441e-17)
(0.97893 0.0027049 -7.1937e-18)
(1.0807 0.045306 1.7163e-18)
(1 1.4773e-05 9.1035e-18)
(1 -2.9005e-05 -1.7241e-17)
(1 -3.34e-05 -1.4895e-17)
(1 -6.5136e-05 -7.106e-19)
(1 -4.8431e-05 5.8687e-18)
(1 -4.6742e-05 -8.2442e-19)
(0.99999 1.5255e-05 6.3283e-17)
(0.99986 0.000112 1.0016e-17)
(0.99933 0.0003338 2.2492e-17)
(1.0003 0.00065316 -9.2156e-18)
(0.97028 0.0031238 3.5035e-17)
(1.1011 0.055962 -7.812e-18)
(1 1.9161e-05 -6.3966e-18)
(1 -3.7638e-05 1.4901e-17)
(1 -4.277e-05 1.2679e-17)
(1 -8.4475e-05 1.2961e-17)
(1 -6.1814e-05 2.8775e-18)
(1.0001 -6.1247e-05 2.1836e-17)
(1 2.0966e-05 -2.8259e-17)
(0.99983 0.00014198 2.0344e-18)
(0.99911 0.00043624 -1.3791e-17)
(1.0011 0.00091644 -2.199e-18)
(0.96212 0.0032028 -9.0834e-18)
(1.1143 0.063808 2.1643e-18)
(1 2.3622e-05 6.4733e-18)
(1 -4.6396e-05 -6.1773e-18)
(1 -5.21e-05 3.872e-18)
(1 -0.00010403 -2.5675e-17)
(1.0001 -7.5124e-05 -8.4367e-20)
(1.0001 -7.6118e-05 -4.3228e-17)
(1 2.7001e-05 1.0843e-18)
(0.99982 0.00017088 -1.6331e-17)
(0.99885 0.00053805 5.2514e-18)
(1.0021 0.0012257 -2.2153e-17)
(0.95477 0.0029878 -2.1879e-17)
(1.1209 0.069462 2.0954e-18)
(0.99999 2.8156e-05 -1.0716e-18)
(1 -5.5286e-05 -7.3882e-18)
(1 -6.1384e-05 -3.1469e-18)
(1.0001 -0.00012382 1.938e-17)
(1.0001 -8.8337e-05 -2.6652e-17)
(1.0001 -9.1418e-05 1.6541e-17)
(1 3.3432e-05 1.8901e-17)
(0.99981 0.00019862 5.7455e-18)
(0.99857 0.00063753 1.174e-17)
(1.0033 0.0015857 1.1926e-17)
(0.94847 0.002523 9.4288e-18)
(1.1219 0.073351 3.37e-18)
(0.99999 3.2764e-05 -2.2117e-18)
(1 -6.4312e-05 -1.4534e-18)
(1 -7.0622e-05 -2.7109e-17)
(1.0001 -0.00014387 -9.254e-18)
(1.0001 -0.00010145 7.4598e-18)
(1.0001 -0.00010719 2.7107e-17)
(1 4.0303e-05 1.203e-17)
(0.99982 0.00022514 5.1292e-18)
(0.99826 0.00073302 -7.6743e-18)
(1.0046 0.0019979 1.6704e-17)
(0.94338 0.0018538 7.6173e-18)
(1.1184 0.07584 -1.0724e-17)
(0.99999 3.7444e-05 -6.8657e-18)
(1 -7.3478e-05 6.2485e-18)
(1 -7.9815e-05 4.558e-17)
(1.0001 -0.0001642 -1.11e-17)
(1.0001 -0.00011445 2.7934e-17)
(1.0001 -0.00012349 -5.3519e-17)
(1 4.7642e-05 -4.0074e-17)
(0.99983 0.0002504 9.9666e-18)
(0.99793 0.00082298 -5.7643e-18)
(1.0059 0.002461 -9.2126e-18)
(0.93958 0.0010257 -1.4071e-17)
(1.1115 0.077232 1.4036e-17)
(0.99999 4.2196e-05 4.5233e-18)
(1 -8.2786e-05 2.352e-18)
(1 -8.8966e-05 -3.8608e-17)
(1.0001 -0.0001848 1.5797e-17)
(1.0001 -0.00012734 -1.2181e-17)
(1.0001 -0.00014034 2.2826e-17)
(1 5.548e-05 1.4241e-17)
(0.99986 0.00027436 2.5195e-18)
(0.99757 0.00090603 5.4378e-19)
(1.0072 0.0029712 1.46e-18)
(0.93707 8.3357e-05 4.4788e-18)
(1.1021 0.077777 -7.3214e-19)
(0.99999 4.702e-05 -2.4835e-18)
(1 -9.2238e-05 -7.7136e-18)
(1 -9.8077e-05 9.464e-18)
(1.0001 -0.0002057 -2.7874e-18)
(1.0001 -0.00014013 1.8803e-18)
(1.0001 -0.00015779 -2.5016e-17)
(1 6.3853e-05 -3.2799e-17)
(0.9999 0.00029698 -3.2e-17)
(0.9972 0.00098104 1.6113e-17)
(1.0085 0.003523 1.8968e-18)
(0.9358 -0.00093088 -1.136e-17)
(1.0912 0.077677 -6.0553e-18)
(0.99998 5.1914e-05 3.4278e-18)
(1 -0.00010184 2.9136e-18)
(1 -0.00010715 4.561e-18)
(1.0001 -0.00022691 -2.2214e-18)
(1.0001 -0.0001528 -5.6364e-18)
(1.0002 -0.0001759 9.4615e-18)
(1 7.28e-05 1.8986e-17)
(0.99995 0.00031822 1.9769e-17)
(0.9968 0.0010471 1.0354e-17)
(1.0097 0.0041095 -2.3946e-17)
(0.93566 -0.0019779 1.1875e-19)
(1.0793 0.077094 -7.0188e-18)
(0.99998 5.6878e-05 -3.4272e-18)
(1 -0.00011159 5.7295e-18)
(1 -0.00011618 8.269e-18)
(1.0001 -0.00024844 5.8002e-18)
(1.0001 -0.00016536 -5.2275e-18)
(1.0002 -0.00019471 4.6514e-18)
(1 8.2361e-05 4.3294e-18)
(1 0.00033803 -1.7653e-18)
(0.9964 0.0011036 -1.6735e-17)
(1.0107 0.004723 2.2208e-17)
(0.93651 -0.0030226 1.0584e-19)
(1.0673 0.076158 1.4987e-18)
(0.99998 6.191e-05 5.2117e-18)
(1 -0.00012149 -4.4724e-18)
(1 -0.00012519 7.2375e-19)
(1.0001 -0.0002703 -4.8387e-18)
(1.0001 -0.00017779 1.1872e-17)
(1.0002 -0.00021429 5.6753e-18)
(1 9.2575e-05 1.742e-17)
(1.0001 0.00035635 -6.5563e-18)
(0.996 0.0011501 -2.0458e-19)
(1.0117 0.0053549 5.457e-18)
(0.93821 -0.0040348 1.7249e-17)
(1.0554 0.074973 9.5569e-19)
(0.99997 6.7009e-05 1.2569e-18)
(1 -0.00013155 9.9259e-18)
(1 -0.00013416 1.3827e-17)
(1.0001 -0.00029251 -4.8244e-18)
(1.0001 -0.0001901 8.5961e-18)
(1.0002 -0.00023469 -2.6494e-18)
(1 0.00010348 -3.0509e-17)
(1.0002 0.00037312 2.0753e-17)
(0.99559 0.0011865 -1.8877e-17)
(1.0125 0.0059967 -3.1471e-17)
(0.94057 -0.0049892 -3.7862e-18)
(1.0442 0.073617 8.8613e-19)
(0.99997 7.2172e-05 -3.2068e-18)
(1 -0.00014176 -1.0556e-17)
(1 -0.0001431 -3.3187e-17)
(1.0001 -0.00031508 8.128e-18)
(1.0002 -0.00020227 -1.3045e-17)
(1.0003 -0.00025599 8.4948e-18)
(1 0.0001151 -2.8544e-18)
(1.0003 0.00038827 -1.2493e-17)
(0.9952 0.0012126 4.1429e-18)
(1.0131 0.0066401 1.8795e-17)
(0.94345 -0.0058662 -7.9474e-18)
(1.0338 0.072155 1.2366e-17)
(0.99997 7.7398e-05 3.3739e-19)
(0.99999 -0.00015214 7.8949e-18)
(1 -0.00015201 2.2912e-17)
(1.0001 -0.00033803 -1.8306e-18)
(1.0002 -0.00021431 -1.2959e-17)
(1.0003 -0.00027823 -1.583e-17)
(1 0.00012747 1.0904e-17)
(1.0004 0.0004017 7.1644e-18)
(0.99481 0.0012287 2.3961e-17)
(1.0136 0.0072771 -2.6326e-18)
(0.94668 -0.0066513 1.9752e-18)
(1.0245 0.070632 -4.9328e-18)
(0.99996 8.2684e-05 -1.893e-18)
(0.99999 -0.00016268 -9.5661e-18)
(1 -0.00016091 -1.0338e-17)
(1.0001 -0.00036138 6.1173e-18)
(1.0002 -0.00022621 -7.2777e-18)
(1.0003 -0.0003015 -1.2697e-17)
(1 0.00014059 1.06e-17)
(1.0005 0.00041334 -4.8604e-18)
(0.99444 0.001235 -2.9659e-17)
(1.014 0.0079004 -1.4758e-17)
(0.95012 -0.007335 8.5715e-18)
(1.0162 0.069084 -5.3575e-18)
(0.99996 8.8026e-05 -2.7105e-18)
(0.99999 -0.00017338 -3.6155e-18)
(1 -0.00016979 -7.6619e-19)
(1.0002 -0.00038514 -2.6787e-17)
(1.0002 -0.00023797 6.1069e-18)
(1.0003 -0.00032586 5.5292e-18)
(1 0.00015446 -2.0142e-17)
(1.0007 0.0004231 -1.6594e-17)
(0.99409 0.0012318 4.3354e-18)
(1.0142 0.0085037 -1.1127e-18)
(0.95365 -0.0079125 -9.8975e-18)
(1.0092 0.067536 1.0128e-18)
(0.99995 9.3422e-05 3.5256e-18)
(0.99999 -0.00018424 1.6575e-17)
(1 -0.00017866 1.9728e-17)
(1.0002 -0.00040932 2.5227e-18)
(1.0002 -0.00024958 1.6881e-17)
(1.0004 -0.00035138 9.6894e-18)
(0.99999 0.00016904 2.9074e-18)
(1.0009 0.00043089 1.8162e-17)
(0.99376 0.0012195 2.1559e-17)
(1.0143 0.0090814 1.7625e-17)
(0.95717 -0.008383 7.3868e-18)
(1.0032 0.066004 1.2035e-18)
(0.99995 9.8868e-05 -1.6804e-18)
(0.99998 -0.00019528 -3.9769e-18)
(1 -0.00018752 -2.1018e-17)
(1.0002 -0.00043395 -2.3885e-18)
(1.0002 -0.00026104 -1.2793e-17)
(1.0004 -0.00037814 -5.2425e-18)
(0.99998 0.00018426 -1.8656e-18)
(1.001 0.00043664 -1.6423e-17)
(0.99346 0.0011984 -2.0621e-17)
(1.0144 0.0096291 9.0371e-18)
(0.9606 -0.0087491 5.0675e-19)
(0.99832 0.064501 6.9169e-19)
(0.99994 0.00010436 4.4541e-18)
(0.99998 -0.00020648 -5.1956e-18)
(1 -0.00019638 -1.9712e-17)
(1.0002 -0.00045903 4.541e-17)
(1.0002 -0.00027237 1.8558e-17)
(1.0004 -0.00040619 -1.2828e-17)
(0.99996 0.00020004 2.5084e-17)
(1.0012 0.0004403 2.2195e-17)
(0.99319 0.0011689 3.3466e-17)
(1.0143 0.010143 -3.3128e-17)
(0.96388 -0.009016 -1.3566e-17)
(0.99441 0.063035 1.8302e-19)
(0.99994 0.00010989 -3.2602e-18)
(0.99998 -0.00021784 -1.0426e-18)
(1 -0.00020525 3.3653e-17)
(1.0002 -0.0004846 -3.4327e-17)
(1.0002 -0.00028355 -1.7866e-18)
(1.0005 -0.00043562 4.2505e-17)
(0.99994 0.00021623 7.7733e-18)
(1.0014 0.00044182 -3.4283e-18)
(0.99294 0.0011313 -2.0758e-17)
(1.0142 0.010622 3.9043e-17)
(0.96696 -0.0091908 -5.7465e-18)
(0.99137 0.061609 -2.9014e-19)
(0.99993 0.00011546 -1.662e-18)
(0.99997 -0.00022938 -2.0774e-18)
(1 -0.00021414 1.7521e-18)
(1.0002 -0.00051066 3.5712e-17)
(1.0002 -0.00029461 -1.0072e-17)
(1.0005 -0.00046649 -3.1417e-17)
(0.99992 0.00023264 -1.9819e-17)
(1.0016 0.00044118 -3.6915e-18)
(0.99273 0.0010859 6.566e-18)
(1.0141 0.011063 -3.2942e-17)
(0.96982 -0.0092822 9.6254e-18)
(0.98911 0.060224 3.1499e-18)
(0.99992 0.00012107 2.7465e-18)
(0.99997 -0.00024109 1.4459e-17)
(1 -0.00022306 -1.2924e-17)
(1.0002 -0.00053723 -3.7393e-18)
(1.0002 -0.00030556 -1.9328e-17)
(1.0005 -0.00049885 3.4179e-17)
(0.99989 0.00024902 -1.7398e-17)
(1.0018 0.00043838 1.5304e-17)
(0.99255 0.001033 -2.0235e-18)
(1.0139 0.011466 3.0888e-17)
(0.97245 -0.0092996 -9.3922e-18)
(0.9875 0.058882 -5.2565e-18)
(0.99992 0.00012669 -5.2676e-19)
(0.99997 -0.00025297 -8.3158e-18)
(1 -0.00023201 -1.8096e-17)
(1.0002 -0.00056432 -1.0246e-17)
(1.0002 -0.00031643 1.8747e-17)
(1.0006 -0.00053276 -4.3584e-17)
(0.99986 0.00026509 -2.6842e-18)
(1.002 0.00043346 -2.0676e-17)
(0.9924 0.00097269 3.2711e-18)
(1.0138 0.011832 -8.9093e-18)
(0.97484 -0.0092528 9.9975e-18)
(0.98644 0.05758 2.2312e-18)
(0.99991 0.00013234 2.7594e-18)
(0.99996 -0.00026503 -8.9075e-18)
(1 -0.00024101 -1.7874e-18)
(1.0002 -0.00059197 2.4896e-18)
(1.0002 -0.00032724 5.9333e-18)
(1.0006 -0.00056827 1.2594e-17)
(0.99983 0.00028047 4.4012e-17)
(1.0022 0.00042647 2.471e-18)
(0.99228 0.00090532 5.3324e-18)
(1.0136 0.012161 9.8213e-18)
(0.97701 -0.0091512 -8.5503e-18)
(0.98584 0.056318 1.7161e-18)
(0.9999 0.000138 -1.5823e-18)
(0.99996 -0.00027725 8.8993e-18)
(1 -0.00025008 2.5722e-17)
(1.0002 -0.00062018 -2.5084e-17)
(1.0002 -0.00033805 -9.229e-18)
(1.0007 -0.00060544 -2.216e-18)
(0.9998 0.00029477 -1.4507e-17)
(1.0024 0.00041747 1.9172e-18)
(0.9922 0.00083111 -9.2371e-18)
(1.0134 0.012455 -3.6093e-18)
(0.97896 -0.0090043 -2.4211e-19)
(0.9856 0.055093 -2.0963e-18)
(0.9999 0.00014366 -1.7006e-18)
(0.99995 -0.00028965 5.3267e-18)
(1 -0.00025923 -6.2224e-19)
(1.0002 -0.00064897 8.3178e-18)
(1.0002 -0.00034892 -1.7028e-17)
(1.0007 -0.00064429 2.5073e-17)
(0.99977 0.00030753 7.2354e-18)
(1.0027 0.00040657 -1.8289e-17)
(0.99214 0.00075034 -1.1851e-17)
(1.0132 0.012716 -1.4292e-17)
(0.98072 -0.0088205 1.3549e-18)
(0.98564 0.053904 -3.8468e-18)
(0.99989 0.00014932 5.9095e-19)
(0.99995 -0.00030221 -1.2721e-17)
(1 -0.00026848 1.5927e-17)
(1.0003 -0.00067836 2.3005e-17)
(1.0002 -0.0003599 3.3375e-17)
(1.0008 -0.00068488 -1.8414e-17)
(0.99973 0.00031823 -1.7989e-17)
(1.0029 0.0003939 3.7113e-18)
(0.99211 0.00066331 1.1104e-17)
(1.013 0.012945 1.1187e-17)
(0.9823 -0.0086076 6.3093e-18)
(0.98591 0.052747 3.8235e-18)
(0.99988 0.00015497 1.1325e-18)
(0.99994 -0.00031496 1.0116e-17)
(1 -0.00027785 -3.6592e-17)
(1.0003 -0.00070837 -3.3334e-18)
(1.0002 -0.0003711 -2.7724e-17)
(1.0008 -0.00072722 -1.1599e-17)
(0.9997 0.00032634 2.5343e-20)
(1.0031 0.00037961 -4.2457e-18)
(0.99211 0.00057042 -2.189e-17)
(1.0129 0.013146 -1.7861e-17)
(0.98372 -0.0083727 -8.6192e-18)
(0.98634 0.051622 -1.8873e-18)
(0.99987 0.0001606 -7.3402e-19)
(0.99994 -0.00032787 -6.5786e-18)
(1 -0.00028737 2.879e-17)
(1.0003 -0.00073902 -3.1805e-17)
(1.0003 -0.00038261 -2.0846e-18)
(1.0009 -0.00077136 2.47e-17)
(0.99966 0.0003313 7.1978e-19)
(1.0034 0.00036385 4.0484e-18)
(0.99214 0.0004721 1.9162e-17)
(1.0127 0.013321 2.3217e-17)
(0.98501 -0.0081216 4.9305e-18)
(0.98688 0.050526 -1.056e-18)
(0.99986 0.0001662 -1.9108e-18)
(0.99993 -0.00034096 -2.426e-18)
(1 -0.00029707 -1.2763e-17)
(1.0003 -0.00077033 1.5844e-17)
(1.0003 -0.00039456 3.0468e-17)
(1.0009 -0.00081731 -1.0916e-17)
(0.99963 0.00033254 2.2403e-17)
(1.0036 0.00034682 3.0346e-18)
(0.99219 0.00036886 -2.1725e-18)
(1.0126 0.013471 1.0501e-17)
(0.98618 -0.0078597 -5.5124e-18)
(0.9875 0.049458 -7.3768e-19)
(0.99985 0.00017176 4.7789e-19)
(0.99993 -0.00035422 -6.4156e-18)
(0.99999 -0.00030698 4.7774e-18)
(1.0003 -0.00080233 -1.6147e-17)
(1.0003 -0.00040709 -3.2226e-17)
(1.001 -0.00086512 6.8792e-18)
(0.9996 0.0003295 -3.232e-17)
(1.0038 0.00032872 -6.939e-18)
(0.99227 0.00026128 7.0455e-18)
(1.0125 0.013601 -3.2961e-17)
(0.98725 -0.007591 3.773e-18)
(0.98818 0.048416 2.0757e-18)
(0.99984 0.00017727 8.3918e-19)
(0.99992 -0.00036767 1.7382e-17)
(0.99999 -0.00031713 7.999e-18)
(1.0003 -0.00083505 6.5777e-18)
(1.0003 -0.00042037 2.5768e-17)
(1.0011 -0.0009148 2.051e-18)
(0.99957 0.00032164 2.2317e-17)
(1.0041 0.00030977 4.9767e-18)
(0.99236 0.00014997 -2.1422e-17)
(1.0124 0.013711 1.1347e-17)
(0.98824 -0.0073192 2.5519e-18)
(0.98888 0.047398 2.1556e-18)
(0.99983 0.00018273 -2.9301e-18)
(0.99991 -0.0003813 -5.7215e-18)
(0.99998 -0.00032758 -7.028e-18)
(1.0003 -0.00086852 1.0802e-17)
(1.0003 -0.00043457 1.2448e-17)
(1.0011 -0.00096638 -4.0846e-18)
(0.99954 0.00030848 -1.8746e-17)
(1.0043 0.00029021 2.2662e-17)
(0.99247 3.5603e-05 3.9637e-18)
(1.0124 0.013804 -3.4274e-18)
(0.98915 -0.007047 1.0562e-17)
(0.98959 0.046404 -1.4996e-18)
(0.99982 0.0001881 6.0208e-18)
(0.99991 -0.00039512 6.8516e-18)
(0.99998 -0.00033837 -7.4704e-18)
(1.0003 -0.00090277 -6.7287e-18)
(1.0003 -0.0004499 -1.7862e-17)
(1.0012 -0.0010199 -7.0155e-18)
(0.99952 0.00028958 9.2423e-18)
(1.0045 0.00027028 -3.635e-17)
(0.9926 -8.1118e-05 9.7119e-18)
(1.0123 0.013881 -4.0509e-18)
(0.99001 -0.0067766 -1.1187e-17)
(0.9903 0.045433 4.36e-18)
(0.99981 0.0001934 -2.6573e-18)
(0.9999 -0.00040914 -1.2038e-17)
(0.99997 -0.00034956 -7.2399e-18)
(1.0003 -0.00093785 -1.2768e-17)
(1.0003 -0.00046656 -5.4536e-18)
(1.0013 -0.0010753 2.0627e-17)
(0.9995 0.00026459 -9.0789e-18)
(1.0047 0.00025023 4.0438e-17)
(0.99274 -0.00019949 9.1613e-18)
(1.0122 0.013945 1.2293e-17)
(0.99082 -0.0065097 4.7161e-18)
(0.99101 0.044483 -7.0746e-18)
(0.9998 0.0001986 -1.4094e-18)
(0.99989 -0.00042337 8.9524e-18)
(0.99996 -0.0003612 1.4344e-17)
(1.0004 -0.00097381 3.4426e-17)
(1.0003 -0.00048479 7.2289e-18)
(1.0014 -0.0011327 -1.4149e-17)
(0.99948 0.00023325 4.3813e-18)
(1.0049 0.00023034 -4.3507e-17)
(0.9929 -0.00031883 -1.1115e-17)
(1.0122 0.013997 -6.8344e-18)
(0.99159 -0.0062476 4.6297e-18)
(0.9917 0.043554 7.1202e-18)
(0.99979 0.00020368 1.0786e-18)
(0.99988 -0.00043782 2.1192e-18)
(0.99996 -0.00037336 -1.4087e-17)
(1.0004 -0.0010107 -5.7344e-18)
(1.0003 -0.00050483 9.1781e-18)
(1.0014 -0.0011921 1.6935e-17)
(0.99947 0.0001954 1.5235e-17)
(1.0051 0.00021084 4.3056e-18)
(0.99307 -0.00043845 1.2436e-17)
(1.0122 0.014038 -3.1662e-18)
(0.99233 -0.0059913 -8.265e-18)
(0.99237 0.042645 -1.8353e-18)
(0.99978 0.00020864 -4.4178e-20)
(0.99988 -0.00045251 2.4151e-18)
(0.99995 -0.00038611 3.1483e-18)
(1.0004 -0.0010486 -7.4441e-18)
(1.0003 -0.0005269 8.5134e-20)
(1.0015 -0.0012535 -1.5355e-17)
(0.99947 0.00015098 -1.0305e-17)
(1.0053 0.00019201 3.1862e-17)
(0.99324 -0.00055773 -1.8797e-17)
(1.0121 0.014069 1.2295e-17)
(0.99304 -0.0057412 4.3664e-18)
(0.99302 0.041756 -5.1952e-18)
(0.99976 0.00021346 -3.3407e-18)
(0.99987 -0.00046746 -1.1327e-17)
(0.99994 -0.00039954 8.0373e-18)
(1.0004 -0.0010875 -2.033e-17)
(1.0003 -0.00055127 -2.321e-17)
(1.0016 -0.0013168 -2.1211e-17)
(0.99947 0.00010005 -2.1001e-17)
(1.0055 0.00017409 -3.2627e-18)
(0.99342 -0.0006761 1.6429e-17)
(1.0121 0.014092 -1.0546e-17)
(0.99372 -0.0054978 4.3484e-19)
(0.99365 0.040885 4.8962e-18)
(0.99975 0.00021812 6.4478e-18)
(0.99986 -0.00048268 1.1838e-17)
(0.99993 -0.00041373 -1.2962e-17)
(1.0004 -0.0011276 1.6691e-17)
(1.0003 -0.00057814 -2.7212e-18)
(1.0017 -0.001382 1.3903e-17)
(0.99947 4.278e-05 2.5243e-17)
(1.0057 0.00015732 -2.4718e-17)
(0.99361 -0.00079305 -8.332e-18)
(1.0121 0.014106 1.1135e-17)
(0.99438 -0.0052614 3.7778e-18)
(0.99426 0.040032 -2.318e-18)
(0.99974 0.00022261 -4.8381e-18)
(0.99985 -0.00049822 -3.4986e-18)
(0.99992 -0.00042877 -2.7098e-18)
(1.0004 -0.0011688 1.9097e-17)
(1.0003 -0.00060776 -5.8258e-18)
(1.0018 -0.001449 -1.7616e-19)
(0.99949 -2.057e-05 -4.9395e-18)
(1.0059 0.00014191 1.98e-17)
(0.9938 -0.00090814 -7.9127e-18)
(1.012 0.014112 -7.6458e-18)
(0.99502 -0.005032 -1.1169e-17)
(0.99485 0.039197 2.6975e-18)
(0.99972 0.0002269 3.2886e-18)
(0.99984 -0.00051409 -4.4358e-18)
(0.99991 -0.00044476 6.2041e-18)
(1.0004 -0.0012113 -2.8976e-17)
(1.0003 -0.0006403 3.9471e-17)
(1.0018 -0.0015178 5.76e-18)
(0.9995 -8.9633e-05 1.9488e-17)
(1.0061 0.00012805 -1.2253e-17)
(0.99399 -0.001021 1.0338e-19)
(1.012 0.014112 5.6848e-18)
(0.99564 -0.0048098 -2.1766e-18)
(0.99542 0.038379 -1.0147e-18)
(0.99971 0.00023099 -9.4079e-19)
(0.99983 -0.00053033 8.6702e-19)
(0.99991 -0.00046178 1.5115e-17)
(1.0004 -0.0012552 7.8996e-18)
(1.0003 -0.00067595 -1.9733e-17)
(1.0019 -0.0015883 -1.1282e-17)
(0.99952 -0.00016396 3.4024e-18)
(1.0063 0.0001159 -5.9573e-18)
(0.99419 -0.0011314 1.3239e-17)
(1.012 0.014105 -3.732e-18)
(0.99625 -0.0045946 1.0464e-17)
(0.99597 0.037578 -3.7096e-18)
(0.9997 0.00023484 -1.6375e-18)
(0.99982 -0.00054698 -8.3578e-18)
(0.9999 -0.00047994 -4.4944e-18)
(1.0005 -0.0013005 3.1721e-17)
(1.0003 -0.00071483 -1.7579e-17)
(1.002 -0.0016602 -9.5557e-19)
(0.99955 -0.00024303 -5.0886e-17)
(1.0064 0.00010559 5.8552e-18)
(0.99439 -0.0012391 -2.4761e-17)
(1.012 0.014091 -8.0581e-18)
(0.99684 -0.0043864 -1.047e-17)
(0.9965 0.036793 2.203e-18)
(0.99968 0.00023845 -7.0687e-19)
(0.99981 -0.00056408 5.178e-18)
(0.99989 -0.00049934 -1.8553e-18)
(1.0005 -0.0013472 -1.847e-17)
(1.0003 -0.00075705 2.5262e-17)
(1.0021 -0.0017335 -2.349e-18)
(0.99958 -0.00032628 2.6954e-17)
(1.0066 9.7211e-05 -3.6e-18)
(0.99459 -0.001344 1.2021e-17)
(1.0119 0.014071 1.0078e-17)
(0.99742 -0.004185 8.6379e-18)
(0.99702 0.036025 -5.3385e-19)
(0.99967 0.00024179 4.007e-18)
(0.9998 -0.00058167 -3.0979e-18)
(0.99988 -0.00052006 -6.4896e-18)
(1.0005 -0.0013955 2.0158e-17)
(1.0003 -0.00080265 1.8538e-18)
(1.0022 -0.0018079 2.9123e-17)
(0.99961 -0.0004131 4.6496e-18)
(1.0067 9.0809e-05 1.7199e-17)
(0.99479 -0.0014459 4.51e-18)
(1.0119 0.014046 -3.2606e-18)
(0.99799 -0.0039904 1.1251e-18)
(0.99752 0.035272 4.8273e-19)
(0.99965 0.00024483 1.1424e-18)
(0.99979 -0.00059978 1.2667e-18)
(0.99987 -0.00054219 -5.8843e-18)
(1.0005 -0.0014453 -4.0143e-17)
(1.0003 -0.00085164 5.6136e-18)
(1.0023 -0.0018831 2.5256e-18)
(0.99964 -0.00050287 -2.0161e-17)
(1.0069 8.6398e-05 2.4203e-19)
(0.99499 -0.001545 1.3292e-17)
(1.0119 0.014014 -2.0961e-18)
(0.99854 -0.0038024 -5.4778e-18)
(0.998 0.034534 2.85e-18)
(0.99963 0.00024758 -4.8924e-18)
(0.99978 -0.00061847 5.3686e-18)
(0.99985 -0.00056582 9.7032e-19)
(1.0005 -0.0014968 2.2291e-17)
(1.0003 -0.00090398 -2.5608e-17)
(1.0023 -0.0019589 -1.1156e-17)
(0.99968 -0.00059497 2.062e-17)
(1.007 8.395e-05 -1.165e-17)
(0.99519 -0.0016411 -2.1013e-17)
(1.0119 0.013977 -1.0357e-17)
(0.99908 -0.0036208 6.9787e-18)
(0.99847 0.033811 9.5212e-19)
(0.99962 0.00024999 -5.1766e-19)
(0.99976 -0.00063777 -5.4022e-18)
(0.99984 -0.000591 1.0331e-17)
(1.0005 -0.0015499 9.8832e-18)
(1.0003 -0.00095957 3.1628e-17)
(1.0024 -0.0020351 4.2855e-18)
(0.99972 -0.0006888 1.8314e-17)
(1.0071 8.3395e-05 2.9536e-17)
(0.99539 -0.0017345 -9.2905e-19)
(1.0118 0.013934 1.8217e-17)
(0.99961 -0.0034455 -7.3783e-19)
(0.99893 0.033103 -2.7748e-18)
(0.9996 0.00025206 5.0176e-18)
(0.99975 -0.00065772 -7.8648e-18)
(0.99983 -0.00061779 -1.568e-17)
(1.0006 -0.0016045 -2.6272e-18)
(1.0003 -0.0010182 -3.4326e-17)
(1.0025 -0.0021112 -1.2752e-17)
(0.99976 -0.00078378 -6.3574e-18)
(1.0072 8.463e-05 2.2088e-19)
(0.99559 -0.0018252 2.7348e-17)
(1.0118 0.013885 4.1973e-18)
(1.0001 -0.0032764 -9.5876e-18)
(0.99938 0.032409 1.6663e-18)
(0.99958 0.00025377 -5.6251e-18)
(0.99974 -0.00067835 9.8246e-18)
(0.99982 -0.00064622 8.2078e-18)
(1.0006 -0.0016607 -5.2347e-18)
(1.0003 -0.0010798 2.7604e-17)
(1.0026 -0.0021871 1.5255e-17)
(0.9998 -0.00087939 -5.0254e-18)
(1.0073 8.7517e-05 -2.9764e-17)
(0.99579 -0.0019134 -9.2947e-19)
(1.0118 0.013831 -1.1995e-17)
(1.0006 -0.0031133 1.1353e-17)
(0.99981 0.031729 -2.1821e-18)
(0.99956 0.00025511 3.38e-18)
(0.99972 -0.00069969 -1.8799e-18)
(0.99981 -0.00067632 1.0867e-17)
(1.0006 -0.0017184 -2.2022e-17)
(1.0003 -0.0011441 9.0127e-18)
(1.0027 -0.0022624 -5.4803e-18)
(0.99984 -0.00097514 -1.0827e-17)
(1.0075 9.1888e-05 -2.389e-18)
(0.99599 -0.0019991 -3.3006e-17)
(1.0118 0.013772 7.9134e-18)
(1.0011 -0.0029561 -1.0402e-17)
(1.0002 0.031062 7.2871e-19)
(0.99954 0.00025606 2.6721e-19)
(0.99971 -0.00072177 -5.9137e-18)
(0.9998 -0.00070808 6.1707e-18)
(1.0006 -0.0017774 2.8984e-17)
(1.0003 -0.0012108 -2.1467e-17)
(1.0027 -0.0023368 1.7629e-17)
(0.99988 -0.0010706 -6.2605e-18)
(1.0076 9.755e-05 5.5326e-18)
(0.99619 -0.0020827 3.9214e-17)
(1.0118 0.013707 -1.469e-17)
(1.0016 -0.0028046 1.5905e-17)
(1.0007 0.030409 2.0624e-18)
(0.99952 0.00025661 4.796e-19)
(0.9997 -0.00074458 -1.2237e-18)
(0.99978 -0.00074147 -8.8779e-18)
(1.0006 -0.0018377 -4.3636e-18)
(1.0003 -0.0012795 1.8708e-17)
(1.0028 -0.0024101 1.3999e-19)
(0.99992 -0.0011655 -1.2305e-17)
(1.0077 0.00010429 -1.3207e-17)
(0.99639 -0.0021643 -1.6415e-17)
(1.0117 0.013637 -1.3868e-18)
(1.0021 -0.0026588 2.9186e-18)
(1.0011 0.02977 2.1737e-19)
(0.9995 0.00025676 -7.7184e-19)
(0.99968 -0.00076814 1.4564e-17)
(0.99977 -0.00077646 -5.9211e-18)
(1.0006 -0.0018992 -2.4658e-17)
(1.0003 -0.00135 8.624e-18)
(1.0029 -0.0024819 -4.4914e-17)
(0.99997 -0.0012594 6.1384e-18)
(1.0077 0.00011187 8.3164e-18)
(0.99658 -0.0022439 7.6252e-19)
(1.0117 0.013562 1.492e-17)
(1.0025 -0.0025186 -9.6832e-19)
(1.0015 0.029142 -5.7659e-18)
(0.99948 0.00025651 -2.0378e-19)
(0.99966 -0.00079243 -2.8587e-19)
(0.99976 -0.00081297 7.9705e-18)
(1.0006 -0.0019616 1.5223e-17)
(1.0004 -0.001422 -3.4269e-17)
(1.003 -0.0025521 1.9403e-18)
(1 -0.0013523 1.0994e-17)
(1.0078 0.00012006 1.3024e-17)
(0.99678 -0.0023219 -1.0382e-17)
(1.0117 0.013482 -1.4527e-17)
(1.003 -0.0023837 -1.5797e-17)
(1.0018 0.028528 6.0914e-18)
(0.99945 0.00025586 -1.3333e-18)
(0.99965 -0.00081744 4.0694e-19)
(0.99974 -0.00085091 -3.8431e-18)
(1.0007 -0.0020248 -1.0164e-17)
(1.0004 -0.001495 1.8995e-17)
(1.003 -0.0026204 2.4107e-17)
(1 -0.0014438 3.2064e-18)
(1.0079 0.00012861 6.5994e-18)
(0.99698 -0.0023984 1.6559e-17)
(1.0117 0.013397 2.4448e-18)
(1.0034 -0.0022542 1.1686e-17)
(1.0022 0.027925 -3.6979e-18)
(0.99943 0.00025481 2.4539e-18)
(0.99963 -0.00084313 7.5028e-19)
(0.99973 -0.00089018 -5.4918e-18)
(1.0007 -0.0020886 1.5015e-18)
(1.0004 -0.0015687 -1.0299e-17)
(1.0031 -0.0026867 -5.7826e-18)
(1.0001 -0.001534 -1.1851e-18)
(1.008 0.00013726 -2.9799e-17)
(0.99718 -0.0024736 3.2508e-18)
(1.0117 0.013306 -4.9572e-18)
(1.0039 -0.00213 -4.7527e-18)
(1.0026 0.027335 -4.4599e-18)
(0.99941 0.00025337 -5.0079e-18)
(0.99961 -0.00086947 9.802e-19)
(0.99971 -0.00093064 2.913e-18)
(1.0007 -0.0021528 -1.8866e-17)
(1.0004 -0.0016429 -1.174e-17)
(1.0032 -0.0027509 -2.6845e-17)
(1.0001 -0.0016227 5.7192e-18)
(1.0081 0.00014578 1.2168e-17)
(0.99738 -0.0025476 -3.4861e-17)
(1.0117 0.013211 2.2858e-17)
(1.0043 -0.0020108 -5.1446e-18)
(1.003 0.026756 2.8756e-18)
(0.99938 0.00025155 4.5969e-18)
(0.99959 -0.0008964 2.1936e-18)
(0.99969 -0.00097216 1.1202e-18)
(1.0007 -0.0022171 5.9839e-18)
(1.0004 -0.0017172 -2.5926e-18)
(1.0032 -0.0028129 5.203e-17)
(1.0002 -0.0017101 2.0534e-17)
(1.0082 0.0001539 -1.8923e-17)
(0.99758 -0.0026205 3.3552e-17)
(1.0117 0.013111 -8.5283e-18)
(1.0047 -0.0018967 -3.396e-18)
(1.0033 0.026189 -1.4359e-18)
(0.99936 0.00024938 1.1275e-18)
(0.99957 -0.00092387 -1.3891e-17)
(0.99968 -0.0010146 2.2419e-18)
(1.0007 -0.0022814 2.687e-17)
(1.0004 -0.0017912 2.0067e-17)
(1.0033 -0.0028726 -8.4054e-19)
(1.0002 -0.0017961 -2.8447e-17)
(1.0082 0.00016141 5.7312e-18)
(0.99777 -0.0026925 -7.567e-18)
(1.0116 0.013007 -1.1804e-17)
(1.0051 -0.0017876 8.6375e-18)
(1.0037 0.025633 1.3378e-18)
(0.99933 0.00024687 -4.4595e-18)
(0.99955 -0.00095179 -4.6307e-18)
(0.99966 -0.0010577 -1.2144e-17)
(1.0007 -0.0023455 -2.2534e-17)
(1.0004 -0.0018649 -2.0191e-17)
(1.0033 -0.0029301 -2.3644e-17)
(1.0002 -0.0018809 5.2531e-18)
(1.0083 0.00016807 4.4543e-17)
(0.99797 -0.0027637 3.2982e-18)
(1.0116 0.012897 -1.0314e-18)
(1.0055 -0.0016833 -3.0508e-18)
(1.004 0.025088 -3.5981e-18)
(0.9993 0.00024405 3.3091e-18)
(0.99953 -0.0009801 4.3019e-18)
(0.99964 -0.0011015 1.8714e-17)
(1.0007 -0.0024091 1.5607e-17)
(1.0004 -0.0019378 1.9643e-17)
(1.0034 -0.0029853 -8.789e-19)
(1.0003 -0.0019645 -2.9269e-17)
(1.0084 0.00017368 -2.4076e-17)
(0.99817 -0.0028343 8.1857e-18)
(1.0116 0.012784 4.0858e-18)
(1.0059 -0.0015838 6.8843e-18)
(1.0044 0.024553 2.78e-18)
(0.99927 0.00024094 -2.3369e-18)
(0.99951 -0.0010087 6.7481e-18)
(0.99962 -0.0011456 -1.2381e-17)
(1.0007 -0.002472 2.2585e-18)
(1.0004 -0.0020099 9.1323e-18)
(1.0034 -0.0030385 -2.3112e-18)
(1.0003 -0.0020471 6.5715e-18)
(1.0084 0.00017802 6.6846e-18)
(0.99837 -0.0029043 2.6948e-18)
(1.0116 0.012666 1.0102e-17)
(1.0062 -0.001489 -8.2808e-18)
(1.0047 0.024029 5.6126e-19)
(0.99924 0.00023757 3.5282e-18)
(0.99949 -0.0010375 4.182e-19)
(0.9996 -0.00119 -5.7953e-18)
(1.0007 -0.0025342 8.9885e-19)
(1.0004 -0.002081 -1.501e-18)
(1.0035 -0.0030896 -2.2831e-17)
(1.0003 -0.0021288 1.8348e-17)
(1.0085 0.00018091 2.3722e-17)
(0.99857 -0.0029738 -1.3413e-17)
(1.0116 0.012543 -1.4057e-17)
(1.0066 -0.0013989 -2.4234e-18)
(1.005 0.023515 4.7846e-18)
(0.99921 0.00023398 -2.563e-18)
(0.99946 -0.0010665 -3.2209e-19)
(0.99958 -0.0012344 7.2056e-18)
(1.0007 -0.0025954 -1.7268e-17)
(1.0004 -0.002151 -1.3566e-17)
(1.0035 -0.0031388 2.8824e-17)
(1.0004 -0.0022098 -2.8059e-18)
(1.0085 0.00018219 -2.5118e-17)
(0.99877 -0.003043 3.4176e-18)
(1.0116 0.012417 1.3235e-17)
(1.0069 -0.0013133 8.213e-18)
(1.0053 0.023011 -1.7254e-18)
(0.99918 0.00023019 2.5466e-19)
(0.99944 -0.0010955 2.359e-18)
(0.99955 -0.0012788 3.937e-18)
(1.0007 -0.0026555 8.9269e-18)
(1.0004 -0.0022198 2.6588e-17)
(1.0036 -0.0031862 6.72e-18)
(1.0004 -0.0022904 -2.4432e-17)
(1.0086 0.00018168 2.3531e-18)
(0.99897 -0.0031119 8.8043e-18)
(1.0116 0.012286 -1.1926e-17)
(1.0073 -0.0012323 -5.5553e-18)
(1.0057 0.022517 -1.9965e-18)
(0.99915 0.00022623 7.2306e-19)
(0.99941 -0.0011245 -4.1042e-19)
(0.99953 -0.0013229 -1.0388e-17)
(1.0007 -0.0027145 -1.9197e-19)
(1.0004 -0.0022875 -5.2568e-17)
(1.0036 -0.0032321 8.2851e-18)
(1.0004 -0.0023705 2.4e-17)
(1.0086 0.00017926 -6.7616e-18)
(0.99917 -0.0031805 -9.2192e-18)
(1.0116 0.012152 1.9805e-17)
(1.0076 -0.0011557 6.6516e-18)
(1.006 0.022033 5.1756e-18)
(0.99911 0.00022215 7.7668e-19)
(0.99939 -0.0011533 -8.5151e-19)
(0.99951 -0.0013668 1.8786e-17)
(1.0007 -0.0027723 4.117e-18)
(1.0004 -0.0023539 4.6582e-17)
(1.0037 -0.0032766 -2.9201e-17)
(1.0004 -0.0024504 -8.0372e-18)
(1.0087 0.00017478 6.3631e-18)
(0.99937 -0.003249 3.1774e-18)
(1.0116 0.012013 -1.1144e-17)
(1.008 -0.0010835 -1.0754e-18)
(1.0063 0.021557 -3.8165e-18)
(0.99908 0.00021796 -3.0354e-18)
(0.99936 -0.001182 1.4295e-18)
(0.99948 -0.0014101 -1.1041e-17)
(1.0007 -0.0028287 5.4132e-18)
(1.0004 -0.0024191 -1.77e-17)
(1.0037 -0.0033199 3.96e-18)
(1.0005 -0.0025303 3.2181e-17)
(1.0087 0.00016813 -2.3814e-17)
(0.99957 -0.0033175 -1.1678e-17)
(1.0117 0.011871 -1.1025e-17)
(1.0083 -0.0010156 -5.2929e-18)
(1.0066 0.021091 -1.0481e-18)
(0.99904 0.0002137 3.7808e-18)
(0.99933 -0.0012103 -3.3951e-18)
(0.99945 -0.0014529 -1.0714e-17)
(1.0007 -0.0028839 -8.6321e-18)
(1.0004 -0.0024833 -2.8936e-17)
(1.0037 -0.0033622 -1.8366e-17)
(1.0005 -0.0026104 -1.9732e-17)
(1.0088 0.0001592 2.2142e-17)
(0.99977 -0.0033859 1.1322e-17)
(1.0117 0.011725 1.6697e-17)
(1.0086 -0.00095195 -2.0745e-18)
(1.0069 0.020633 5.0602e-18)
(0.99901 0.00020939 -6.0764e-18)
(0.9993 -0.0012384 5.5007e-18)
(0.99942 -0.0014952 2.6234e-17)
(1.0007 -0.0029377 -2.036e-18)
(1.0004 -0.0025465 3.2014e-17)
(1.0038 -0.0034036 1.3854e-18)
(1.0005 -0.0026906 -1.8899e-17)
(1.0088 0.00014789 8.6638e-18)
(0.99997 -0.0034543 -4.0831e-18)
(1.0117 0.011576 -3.4962e-18)
(1.0089 -0.00089254 6.729e-18)
(1.0072 0.020184 -3.4219e-18)
(0.99897 0.00020507 4.9794e-18)
(0.99927 -0.0012661 -7.4755e-18)
(0.99939 -0.0015367 -3.0585e-17)
(1.0007 -0.0029903 1.3318e-17)
(1.0003 -0.0026087 -2.2807e-17)
(1.0038 -0.0034445 2.5387e-17)
(1.0006 -0.0027713 6.1599e-18)
(1.0089 0.00013413 -8.2484e-18)
(1.0002 -0.0035229 -1.9599e-18)
(1.0117 0.011423 -8.7576e-18)
(1.0092 -0.0008373 -1.0976e-17)
(1.0075 0.019744 4.7311e-18)
(0.99893 0.00020074 -3.6676e-18)
(0.99923 -0.0012933 2.4857e-18)
(0.99936 -0.0015776 1.8584e-17)
(1.0007 -0.0030417 -1.7556e-17)
(1.0003 -0.0026702 3.6696e-17)
(1.0038 -0.0034849 -1.9703e-17)
(1.0006 -0.0028524 3.5909e-18)
(1.0089 0.00011783 -1.3034e-17)
(1.0004 -0.0035916 6.3985e-18)
(1.0117 0.011266 -1.2258e-18)
(1.0095 -0.00078616 4.6972e-18)
(1.0078 0.019312 -2.1037e-18)
(0.99889 0.00019644 4.4982e-18)
(0.9992 -0.0013202 1.9351e-18)
(0.99933 -0.0016178 -1.2389e-17)
(1.0007 -0.0030919 -3.5673e-19)
(1.0003 -0.0027309 -1.6208e-18)
(1.0039 -0.0035251 4.7654e-18)
(1.0006 -0.0029342 3.4099e-17)
(1.009 9.8933e-05 8.9152e-18)
(1.0006 -0.0036605 -1.8966e-17)
(1.0117 0.011107 -6.3529e-18)
(1.0098 -0.00073909 -4.4251e-18)
(1.008 0.018887 2.2111e-18)
(0.99885 0.00019218 -5.1557e-18)
(0.99917 -0.0013466 -7.1708e-18)
(0.9993 -0.0016573 5.1979e-18)
(1.0007 -0.003141 1.5189e-17)
(1.0003 -0.0027912 -3.3286e-17)
(1.0039 -0.0035653 1.6009e-17)