/*--------------------------------*- C++ -*----------------------------------*\
  =========                 |
  \\      /  F ield         | OpenFOAM: The Open Source CFD Toolbox
   \\    /   O peration     | Website:  https://openfoam.org
    \\  /    A nd           | Version:  6.0
     \\/     M anipulation  |
\*---------------------------------------------------------------------------*/
FoamFile
{
    version     2.0;
    format      ascii;
    class       volVectorField;
    location    "0.29";
    object      U;
}
// * * * * * * * * * * * * * * * * * * * * * * * * * * * * * * * * * * * * * //

dimensions      [0 1 -1 0 0 0 0];

internalField   nonuniform List<vector> 
13500
(
(1 7.8321e-07 -4.6952e-18)
(1 -5.2696e-06 3.1748e-18)
(1 -6.5491e-06 -1.3635e-17)
(1 -1.3852e-05 -9.4538e-18)
(1 -6.7977e-06 1.7688e-17)
(1 -1.8183e-05 3.3306e-17)
(0.99999 7.9159e-06 2.7949e-17)
(1 -9.6236e-06 -4.6738e-18)
(0.99987 5.8657e-05 1.6114e-17)
(0.99988 5.0964e-05 3.7751e-18)
(0.9973 0.00044307 2.7904e-17)
(1.0142 0.011002 8.8427e-18)
(1 2.1757e-06 2.9088e-18)
(1 -1.5874e-05 -9.6418e-18)
(1 -1.9755e-05 6.511e-18)
(1 -4.2129e-05 -3.7304e-19)
(1 -2.0044e-05 -4.7173e-19)
(1.0001 -5.8545e-05 -4.0049e-17)
(0.99997 2.7736e-05 -4.8271e-17)
(1.0001 -4.722e-05 -2.6746e-17)
(0.9996 0.00019324 -1.6083e-17)
(0.99992 9.6231e-05 -1.8664e-18)
(0.99214 0.0011569 -1.3214e-17)
(1.0371 0.030674 -5.3538e-18)
(1 3.2751e-06 -3.757e-18)
(1 -2.6784e-05 1.9156e-17)
(1 -3.4006e-05 3.3866e-18)
(1 -7.169e-05 1.09e-17)
(1 -3.5131e-05 -4.0787e-18)
(1.0001 -0.00010348 3.2083e-17)
(0.99995 4.5914e-05 -6.7913e-18)
(1.0002 -0.00010072 6.0751e-18)
(0.99935 0.00033092 -1.9504e-17)
(1.0002 0.00013185 2.835e-17)
(0.98753 0.0015067 -6.9197e-18)
(1.0522 0.044355 1.8921e-18)
(1 4.0529e-06 9.8217e-18)
(1 -3.8098e-05 -1.8572e-17)
(1 -4.9651e-05 -1.6054e-17)
(1 -0.00010271 -7.6486e-19)
(1 -5.3415e-05 6.296e-18)
(1.0001 -0.00015283 -8.8958e-19)
(0.99995 5.7718e-05 6.6937e-17)
(1.0003 -0.00016762 1.0949e-17)
(0.99912 0.00045859 2.3063e-17)
(1.0007 0.00017098 -1.0269e-17)
(0.98373 0.001545 3.3743e-17)
(1.059 0.053605 -8.6136e-18)
(1 4.4844e-06 -6.9012e-18)
(1 -4.9915e-05 1.6051e-17)
(1 -6.6905e-05 1.3666e-17)
(1.0001 -0.00013547 1.3951e-17)
(1.0001 -7.5981e-05 3.0869e-18)
(1.0002 -0.00020711 2.3584e-17)
(0.99995 5.9586e-05 -2.989e-17)
(1.0004 -0.00024701 2.2252e-18)
(0.99891 0.00056743 -1.4137e-17)
(1.0013 0.00021854 -2.4499e-18)
(0.98087 0.0013633 -8.7162e-18)
(1.059 0.059806 2.3813e-18)
(1 4.5096e-06 6.9841e-18)
(1 -6.2457e-05 -6.6542e-18)
(1 -8.6202e-05 4.1735e-18)
(1.0001 -0.00017067 -2.7636e-17)
(1.0001 -0.00010411 -9.0586e-20)
(1.0002 -0.00026771 -4.6687e-17)
(0.99997 4.8751e-05 1.1462e-18)
(1.0005 -0.00033864 -1.7856e-17)
(0.99874 0.00065255 5.384e-18)
(1.0019 0.00027876 -2.4691e-17)
(0.97895 0.0010509 -2.1112e-17)
(1.0544 0.063738 2.3142e-18)
(0.99999 4.0482e-06 -1.1561e-18)
(1 -7.6035e-05 -7.9585e-18)
(1 -0.00010809 -3.3919e-18)
(1.0001 -0.00020925 2.086e-17)
(1.0001 -0.0001392 -2.8591e-17)
(1.0003 -0.00033611 1.7865e-17)
(1 2.3017e-05 1.9987e-17)
(1.0007 -0.00044144 6.2818e-18)
(0.9986 0.00071137 1.2032e-17)
(1.0026 0.00035532 1.3293e-17)
(0.97788 0.00068007 9.1348e-18)
(1.0473 0.065949 3.7443e-18)
(0.99999 2.9967e-06 -2.3862e-18)
(1 -9.1035e-05 -1.5656e-18)
(1 -0.00013324 -2.9219e-17)
(1.0001 -0.00025223 -9.9608e-18)
(1.0001 -0.00018268 8.0028e-18)
(1.0004 -0.00041355 2.928e-17)
(1 -1.9046e-05 1.2719e-17)
(1.0009 -0.0005532 5.61e-18)
(0.99851 0.0007435 -7.8644e-18)
(1.0032 0.00045033 1.8625e-17)
(0.97749 0.00030319 7.4171e-18)
(1.0395 0.066886 -1.1943e-17)
(0.99999 1.2301e-06 -7.4075e-18)
(1 -0.0001079 6.7308e-18)
(1 -0.00016235 4.9128e-17)
(1.0001 -0.00030068 -1.1948e-17)
(1.0002 -0.00023575 2.9967e-17)
(1.0004 -0.00050079 -5.7809e-17)
(1.0001 -7.7721e-05 -4.2375e-17)
(1.0011 -0.00067086 1.0902e-17)
(0.99846 0.00075068 -5.9059e-18)
(1.0038 0.00056423 -1.027e-17)
(0.97762 -4.6254e-05 -1.3659e-17)
(1.0321 0.06691 1.5655e-17)
(0.99999 -1.3897e-06 4.8803e-18)
(1 -0.0001271 2.5335e-18)
(1.0001 -0.00019611 -4.1614e-17)
(1.0002 -0.00035553 1.7004e-17)
(1.0002 -0.00029923 -1.3068e-17)
(1.0005 -0.0005979 2.4656e-17)
(1.0002 -0.00015196 1.5057e-17)
(1.0013 -0.00079073 2.7573e-18)
(0.99844 0.00073649 5.571e-19)
(1.0043 0.00069606 1.6303e-18)
(0.9781 -0.00035068 4.3762e-18)
(1.0258 0.066302 -8.0453e-19)
(0.99998 -4.9994e-06 -2.6794e-18)
(1 -0.00014904 -8.3089e-18)
(1.0001 -0.0002351 1.0201e-17)
(1.0002 -0.00041741 -3.0002e-18)
(1.0002 -0.00037329 2.017e-18)
(1.0006 -0.00070411 -2.7023e-17)
(1.0003 -0.00023943 -3.4677e-17)
(1.0016 -0.00090891 -3.5008e-17)
(0.99846 0.00070557 1.6506e-17)
(1.0048 0.00084379 2.1187e-18)
(0.97879 -0.00060446 -1.1094e-17)
(1.0207 0.065271 -6.779e-18)
(0.99998 -9.7156e-06 3.6984e-18)
(1 -0.00017407 3.1384e-18)
(1.0001 -0.00027966 4.9161e-18)
(1.0002 -0.00048654 -2.3911e-18)
(1.0003 -0.00045737 -6.0465e-18)
(1.0007 -0.00081779 1.0221e-17)
(1.0004 -0.00033683 2.0073e-17)
(1.0018 -0.0010216 2.1629e-17)
(0.99849 0.00066288 1.0606e-17)
(1.0051 0.0010047 -2.6721e-17)
(0.97961 -0.00080973 1.0692e-19)
(1.0169 0.063973 -7.887e-18)
(0.99998 -1.5614e-05 -3.6977e-18)
(1 -0.00020234 6.1717e-18)
(1.0001 -0.00032981 8.913e-18)
(1.0002 -0.0005626 6.2433e-18)
(1.0003 -0.00055016 -5.6077e-18)
(1.0008 -0.00093657 5.0247e-18)
(1.0005 -0.00044023 4.5774e-18)
(1.002 -0.0011256 -1.9314e-18)
(0.99854 0.00061305 -1.7144e-17)
(1.0054 0.0011756 2.4785e-17)
(0.98047 -0.00097276 9.5921e-20)
(1.0142 0.062517 1.6727e-18)
(0.99997 -2.2716e-05 5.6231e-18)
(1 -0.00023382 -4.8175e-18)
(1.0001 -0.00038522 7.8019e-19)
(1.0003 -0.0006447 -5.2083e-18)
(1.0004 -0.00064968 1.2735e-17)
(1.0009 -0.0010576 6.1313e-18)
(1.0006 -0.0005456 1.8415e-17)
(1.0022 -0.0012183 -7.1755e-18)
(0.9986 0.00055997 -2.1047e-19)
(1.0057 0.0013534 6.0952e-18)
(0.98133 -0.0011013 1.6961e-17)
(1.0124 0.060979 1.0674e-18)
(0.99997 -3.0971e-05 1.3562e-18)
(1 -0.00026825 1.0692e-17)
(1.0001 -0.00044515 1.4904e-17)
(1.0003 -0.00073147 -5.1929e-18)
(1.0005 -0.00075345 9.2212e-18)
(1.001 -0.0011778 -2.8622e-18)
(1.0007 -0.00064914 -3.2251e-17)
(1.0023 -0.0012981 2.2713e-17)
(0.99866 0.00050659 -1.9337e-17)
(1.0059 0.0015349 -3.5142e-17)
(0.98219 -0.0012031 -3.711e-18)
(1.0111 0.059409 9.924e-19)
(0.99996 -4.0261e-05 -3.4599e-18)
(1 -0.00030517 -1.1371e-17)
(1.0001 -0.00050857 -3.5773e-17)
(1.0004 -0.00082114 8.7489e-18)
(1.0005 -0.00085877 -1.3993e-17)
(1.0011 -0.0012942 9.1779e-18)
(1.0008 -0.0007477 -3.0167e-18)
(1.0025 -0.0013644 -1.3673e-17)
(0.99872 0.00045487 4.2427e-18)
(1.006 0.0017173 2.0988e-17)
(0.98301 -0.0012846 -7.8282e-18)
(1.0103 0.057839 1.3959e-17)
(0.99995 -5.0406e-05 3.6403e-19)
(1 -0.00034392 8.5041e-18)
(1.0001 -0.00057416 2.4697e-17)
(1.0004 -0.00091174 -1.9704e-18)
(1.0006 -0.00096292 -1.3902e-17)
(1.0012 -0.0014043 -1.7103e-17)
(1.0009 -0.00083888 1.1526e-17)
(1.0026 -0.0014174 7.8422e-18)
(0.99877 0.0004059 2.4545e-17)
(1.0062 0.0018983 -2.9411e-18)
(0.98381 -0.001351 1.9539e-18)
(1.0097 0.056288 -5.5671e-18)
(0.99994 -6.1173e-05 -2.0424e-18)
(1 -0.00038372 -1.0304e-17)
(1.0001 -0.00064049 -1.1144e-17)
(1.0004 -0.0010013 6.5846e-18)
(1.0006 -0.0010634 -7.8069e-18)
(1.0013 -0.0015061 -1.3719e-17)
(1.0009 -0.00092122 1.1203e-17)
(1.0027 -0.0014578 -5.3201e-18)
(0.99883 0.00036008 -3.0385e-17)
(1.0063 0.0020759 -1.6488e-17)
(0.98458 -0.0014064 8.4825e-18)
(1.0094 0.054767 -6.055e-18)
(0.99994 -7.2302e-05 -2.9245e-18)
(1 -0.00042373 -3.8945e-18)
(1.0002 -0.00070613 -8.2589e-19)
(1.0005 -0.0010878 -2.8834e-17)
(1.0007 -0.0011582 6.5509e-18)
(1.0013 -0.0015983 5.9737e-18)
(1.001 -0.00099404 -2.1289e-17)
(1.0028 -0.001487 -1.8167e-17)
(0.99888 0.00031734 4.4397e-18)
(1.0064 0.0022487 -1.2444e-18)
(0.98532 -0.0014535 -9.7867e-18)
(1.0091 0.053283 1.1454e-18)
(0.99993 -8.3525e-05 3.8039e-18)
(1 -0.00046313 1.7853e-17)
(1.0002 -0.00076974 2.1266e-17)
(1.0005 -0.0011699 2.7154e-18)
(1.0007 -0.0012459 1.8108e-17)
(1.0014 -0.0016801 1.0469e-17)
(1.0011 -0.0010574 3.0732e-18)
(1.0029 -0.0015066 1.9884e-17)
(0.99893 0.00027732 2.2088e-17)
(1.0065 0.0024155 1.9692e-17)
(0.98604 -0.0014942 7.3241e-18)
(1.0089 0.051836 1.3615e-18)
(0.99991 -9.4584e-05 -1.8131e-18)
(1 -0.00050118 -4.2837e-18)
(1.0002 -0.0008302 -2.2656e-17)
(1.0005 -0.0012461 -2.571e-18)
(1.0008 -0.0013254 -1.3724e-17)
(1.0015 -0.0017517 -5.6649e-18)
(1.0011 -0.0011118 -1.9715e-18)
(1.003 -0.0015181 -1.7982e-17)
(0.99897 0.0002395 -2.1132e-17)
(1.0065 0.0025756 1.0096e-17)
(0.98673 -0.0015297 5.1163e-19)
(1.0088 0.050429 7.8285e-19)
(0.9999 -0.00010525 4.8058e-18)
(1 -0.00053725 -5.5964e-18)
(1.0002 -0.00088661 -2.1249e-17)
(1.0005 -0.0013159 4.8879e-17)
(1.0008 -0.0013964 1.9907e-17)
(1.0015 -0.0018134 -1.3862e-17)
(1.0011 -0.0011583 2.6512e-17)
(1.003 -0.0015232 2.4304e-17)
(0.99902 0.00020336 3.4296e-17)
(1.0066 0.0027284 -3.7013e-17)
(0.98741 -0.001561 -1.3463e-17)
(1.0086 0.049061 2.0774e-19)
(0.99989 -0.00011535 -3.5177e-18)
(0.99999 -0.00057087 -1.123e-18)
(1.0002 -0.00093841 3.6277e-17)
(1.0005 -0.0013787 -3.6949e-17)
(1.0008 -0.001459 -1.9165e-18)
(1.0016 -0.001866 4.5929e-17)
(1.0012 -0.001198 8.2158e-18)
(1.0031 -0.0015233 -3.7536e-18)
(0.99906 0.00016837 -2.1275e-17)
(1.0067 0.0028737 4.3621e-17)
(0.98806 -0.0015884 -5.7171e-18)
(1.0085 0.04773 -3.2868e-19)
(0.99988 -0.00012474 -1.7932e-18)
(0.99998 -0.00060172 -2.2377e-18)
(1.0002 -0.00098529 1.8889e-18)
(1.0006 -0.0014346 3.844e-17)
(1.0008 -0.0015136 -1.0804e-17)
(1.0016 -0.0019108 -3.3948e-17)
(1.0012 -0.001232 -2.0947e-17)
(1.0032 -0.0015197 -4.0415e-18)
(0.99911 0.0001341 6.7307e-18)
(1.0067 0.0030113 -3.6801e-17)
(0.9887 -0.0016125 9.5694e-18)
(1.0084 0.046435 3.5599e-18)
(0.99986 -0.00013334 2.9634e-18)
(0.99997 -0.00062968 1.5575e-17)
(1.0002 -0.0010272 -1.3932e-17)
(1.0006 -0.0014838 -4.025e-18)
(1.0008 -0.0015609 -2.0734e-17)
(1.0016 -0.0019487 3.6934e-17)
(1.0012 -0.0012615 -1.8388e-17)
(1.0032 -0.0015134 1.676e-17)
(0.99915 0.00010021 -2.075e-18)
(1.0068 0.0031411 3.4501e-17)
(0.98932 -0.0016333 -9.3533e-18)
(1.0083 0.045176 -5.9378e-18)
(0.99985 -0.00014111 -5.6837e-19)
(0.99996 -0.00065473 -8.9574e-18)
(1.0002 -0.0010643 -1.9508e-17)
(1.0006 -0.0015269 -1.1029e-17)
(1.0009 -0.0016019 2.0111e-17)
(1.0016 -0.001981 -4.7098e-17)
(1.0012 -0.0012876 -2.8371e-18)
(1.0032 -0.0015054 -2.2644e-17)
(0.9992 6.6422e-05 3.3538e-18)
(1.0068 0.0032633 -9.9517e-18)
(0.98992 -0.0016512 9.9576e-18)
(1.0082 0.04395 2.5198e-18)
(0.99983 -0.00014806 2.9774e-18)
(0.99995 -0.00067698 -9.5946e-18)
(1.0002 -0.001097 -1.927e-18)
(1.0006 -0.0015645 2.6798e-18)
(1.0009 -0.0016374 6.3651e-18)
(1.0017 -0.0020088 1.3609e-17)
(1.0013 -0.0013112 4.6518e-17)
(1.0033 -0.0014962 2.7062e-18)
(0.99925 3.2545e-05 5.4696e-18)
(1.0069 0.0033779 1.0964e-17)
(0.99051 -0.0016663 -8.5302e-18)
(1.0081 0.042757 1.9355e-18)
(0.99982 -0.00015422 -1.7073e-18)
(0.99994 -0.00069666 9.5858e-18)
(1.0002 -0.0011257 2.7729e-17)
(1.0006 -0.0015973 -2.7001e-17)
(1.0009 -0.0016685 -9.9009e-18)
(1.0017 -0.002033 -2.3948e-18)
(1.0013 -0.001333 -1.5333e-17)
(1.0033 -0.0014863 2.0992e-18)
(0.9993 -1.5562e-06 -9.4749e-18)
(1.0069 0.003485 -4.032e-18)
(0.99108 -0.0016786 -2.4906e-19)
(1.008 0.041596 -2.3633e-18)
(0.9998 -0.00015966 -1.8349e-18)
(0.99992 -0.000714 5.7376e-18)
(1.0002 -0.0011509 -6.7071e-19)
(1.0006 -0.0016262 8.9532e-18)
(1.0009 -0.001696 -1.8268e-17)
(1.0017 -0.0020545 2.7096e-17)
(1.0013 -0.0013536 7.6479e-18)
(1.0034 -0.0014763 -2.0031e-17)
(0.99935 -3.5971e-05 -1.216e-17)
(1.007 0.0035848 -1.595e-17)
(0.99164 -0.0016883 1.3463e-18)
(1.0079 0.040465 -4.3288e-18)
(0.99978 -0.00016446 6.3764e-19)
(0.99991 -0.00072931 -1.3702e-17)
(1.0001 -0.0011731 1.717e-17)
(1.0006 -0.0016517 2.4763e-17)
(1.0009 -0.0017206 3.5805e-17)
(1.0017 -0.002074 -1.99e-17)
(1.0013 -0.0013735 -1.9014e-17)
(1.0034 -0.0014664 4.0644e-18)
(0.9994 -7.0754e-05 1.1392e-17)
(1.007 0.0036775 1.248e-17)
(0.99218 -0.0016956 6.3069e-18)
(1.0078 0.039364 4.3029e-18)
(0.99977 -0.00016869 1.222e-18)
(0.99989 -0.00074289 1.0896e-17)
(1.0001 -0.0011928 -3.9448e-17)
(1.0006 -0.0016746 -3.5881e-18)
(1.0009 -0.0017432 -2.9743e-17)
(1.0017 -0.0020921 -1.2535e-17)
(1.0013 -0.0013931 2.6863e-20)
(1.0034 -0.0014567 -4.6494e-18)
(0.99946 -0.00010593 -2.247e-17)
(1.007 0.0037632 -1.9918e-17)
(0.99271 -0.0017006 -8.6363e-18)
(1.0077 0.038292 -2.1199e-18)
(0.99975 -0.00017245 -7.9201e-19)
(0.99988 -0.00075503 -7.0861e-18)
(1.0001 -0.0012106 3.1038e-17)
(1.0006 -0.0016954 -3.4234e-17)
(1.0009 -0.0017641 -2.2368e-18)
(1.0017 -0.0021093 2.6693e-17)
(1.0013 -0.0014126 7.6087e-19)
(1.0035 -0.0014475 4.4339e-18)
(0.99952 -0.00014152 1.9669e-17)
(1.0071 0.0038422 2.5883e-17)
(0.99323 -0.0017034 4.9353e-18)
(1.0077 0.037247 -1.1809e-18)
(0.99973 -0.00017582 -2.0618e-18)
(0.99986 -0.00076601 -2.6131e-18)
(1.0001 -0.0012267 -1.3759e-17)
(1.0005 -0.0017147 1.7054e-17)
(1.0009 -0.001784 3.2688e-17)
(1.0017 -0.0021259 -1.1797e-17)
(1.0013 -0.0014322 2.3682e-17)
(1.0035 -0.0014388 3.3235e-18)
(0.99958 -0.00017752 -2.2328e-18)
(1.0071 0.0039145 1.1694e-17)
(0.99373 -0.0017041 -5.5392e-18)
(1.0076 0.03623 -8.2149e-19)
(0.99971 -0.00017886 5.1565e-19)
(0.99984 -0.00077605 -6.9104e-18)
(1.0001 -0.0012417 5.1506e-18)
(1.0005 -0.0017329 -1.7381e-17)
(1.0009 -0.0018031 -3.4575e-17)
(1.0017 -0.0021421 7.4346e-18)
(1.0013 -0.0014522 -3.4165e-17)
(1.0035 -0.0014307 -7.5996e-18)
(0.99964 -0.00021393 7.2363e-18)
(1.0071 0.0039804 -3.672e-17)
(0.99422 -0.0017029 3.7821e-18)
(1.0075 0.035238 2.3279e-18)
(0.99969 -0.00018166 9.055e-19)
(0.99983 -0.00078538 1.8723e-17)
(1.0001 -0.0012557 8.624e-18)
(1.0005 -0.0017502 7.0801e-18)
(1.0009 -0.0018218 2.7647e-17)
(1.0017 -0.0021582 2.2166e-18)
(1.0013 -0.0014725 2.3593e-17)
(1.0036 -0.0014234 5.4502e-18)
(0.9997 -0.00025072 -2.2014e-17)
(1.0072 0.00404 1.2638e-17)
(0.9947 -0.0016999 2.5611e-18)
(1.0075 0.034273 2.4104e-18)
(0.99967 -0.00018427 -3.1617e-18)
(0.99981 -0.00079418 -6.1627e-18)
(1.0001 -0.0012691 -7.577e-18)
(1.0005 -0.0017669 1.1627e-17)
(1.0008 -0.0018403 1.3356e-17)
(1.0017 -0.0021743 -4.4143e-18)
(1.0013 -0.0014932 -1.9818e-17)
(1.0036 -0.0014168 2.4818e-17)
(0.99977 -0.00028791 4.0678e-18)
(1.0072 0.0040936 -3.8137e-18)
(0.99516 -0.0016952 1.0636e-17)
(1.0074 0.033332 -1.6729e-18)
(0.99965 -0.00018673 6.4967e-18)
(0.99979 -0.00080258 7.3801e-18)
(1.0001 -0.0012821 -8.0542e-18)
(1.0005 -0.0017834 -7.2426e-18)
(1.0008 -0.0018587 -1.9165e-17)
(1.0017 -0.0021905 -7.5818e-18)
(1.0013 -0.0015145 9.7714e-18)
(1.0037 -0.0014109 -3.9807e-17)
(0.99983 -0.00032546 9.9813e-18)
(1.0072 0.0041412 -4.5038e-18)
(0.99561 -0.001689 -1.1274e-17)
(1.0074 0.032415 4.8563e-18)
(0.99963 -0.00018909 -2.8673e-18)
(0.99977 -0.00081072 -1.2966e-17)
(1 -0.0012948 -7.8058e-18)
(1.0005 -0.0017996 -1.3743e-17)
(1.0008 -0.0018772 -5.8518e-18)
(1.0018 -0.002207 2.2292e-17)
(1.0014 -0.0015363 -9.5995e-18)
(1.0037 -0.0014059 4.4282e-17)
(0.9999 -0.00036337 9.4197e-18)
(1.0073 0.0041831 1.3669e-17)
(0.99605 -0.0016813 4.7569e-18)
(1.0073 0.031522 -7.8709e-18)
(0.99961 -0.00019139 -1.5208e-18)
(0.99975 -0.00081868 9.6428e-18)
(1 -0.0013073 1.5466e-17)
(1.0005 -0.0018158 3.7055e-17)
(1.0008 -0.0018959 7.7565e-18)
(1.0018 -0.0022237 -1.5291e-17)
(1.0014 -0.0015586 4.6325e-18)
(1.0037 -0.0014018 -4.764e-17)
(0.99997 -0.00040162 -1.1435e-17)
(1.0073 0.0042193 -7.5959e-18)
(0.99648 -0.0016724 4.6815e-18)
(1.0073 0.030653 7.9103e-18)
(0.99959 -0.00019364 1.1639e-18)
(0.99974 -0.00082654 2.2826e-18)
(1 -0.0013198 -1.5188e-17)
(1.0005 -0.0018321 -6.1723e-18)
(1.0008 -0.0019148 9.8486e-18)
(1.0018 -0.0022407 1.8301e-17)
(1.0014 -0.0015816 1.611e-17)
(1.0038 -0.0013985 4.7158e-18)
(1 -0.00044021 1.2797e-17)
(1.0073 0.0042501 -3.5146e-18)
(0.99689 -0.0016622 -8.3592e-18)
(1.0073 0.029805 -2.0398e-18)
(0.99957 -0.00019587 -4.7665e-20)
(0.99972 -0.00083436 2.6014e-18)
(0.99999 -0.0013323 3.3945e-18)
(1.0005 -0.0018484 -8.0126e-18)
(1.0008 -0.0019339 9.1623e-20)
(1.0018 -0.002258 -1.6594e-17)
(1.0014 -0.0016051 -1.0897e-17)
(1.0038 -0.0013961 3.4884e-17)
(1.0001 -0.00047911 -1.9353e-17)
(1.0073 0.0042757 1.3649e-17)
(0.9973 -0.001651 4.421e-18)
(1.0073 0.028979 -5.7502e-18)
(0.99955 -0.00019809 -3.6049e-18)
(0.9997 -0.00084218 -1.2201e-17)
(0.99997 -0.0013448 8.666e-18)
(1.0005 -0.0018649 -2.1883e-17)
(1.0008 -0.0019534 -2.4907e-17)
(1.0018 -0.0022757 -2.2923e-17)
(1.0014 -0.0016292 -2.2212e-17)
(1.0038 -0.0013947 -3.5729e-18)
(1.0002 -0.00051833 1.6917e-17)
(1.0074 0.0042961 -1.1701e-17)
(0.99769 -0.0016389 4.4321e-19)
(1.0073 0.028175 5.4146e-18)
(0.99953 -0.00020031 6.9578e-18)
(0.99968 -0.00085004 1.2751e-17)
(0.99995 -0.0013575 -1.3976e-17)
(1.0004 -0.0018816 1.7966e-17)
(1.0008 -0.0019733 -2.9206e-18)
(1.0018 -0.0022938 1.5025e-17)
(1.0014 -0.0016539 2.67e-17)
(1.0039 -0.0013941 -2.7058e-17)
(1.0003 -0.00055785 -8.5842e-18)
(1.0074 0.0043115 1.2346e-17)
(0.99808 -0.0016259 3.8394e-18)
(1.0073 0.027391 -2.5581e-18)
(0.99951 -0.00020255 -5.2207e-18)
(0.99966 -0.00085795 -3.7684e-18)
(0.99994 -0.0013703 -2.922e-18)
(1.0004 -0.0018985 2.0556e-17)
(1.0008 -0.0019935 -6.2526e-18)
(1.0018 -0.0023123 -1.9033e-19)
(1.0014 -0.0016793 -5.2246e-18)
(1.0039 -0.0013946 2.1673e-17)
(1.0003 -0.00059767 -8.1593e-18)
(1.0074 0.004322 -8.477e-18)
(0.99845 -0.0016122 -1.1353e-17)
(1.0072 0.026628 2.9712e-18)
(0.99948 -0.00020481 3.5487e-18)
(0.99964 -0.00086594 -4.778e-18)
(0.99992 -0.0013833 6.6896e-18)
(1.0004 -0.0019157 -3.1189e-17)
(1.0008 -0.0020141 4.236e-17)
(1.0018 -0.0023312 6.2248e-18)
(1.0014 -0.0017052 2.0618e-17)
(1.0039 -0.001396 -1.341e-17)
(1.0004 -0.00063778 1.0053e-19)
(1.0074 0.0043279 6.2954e-18)
(0.99882 -0.0015978 -2.2246e-18)
(1.0072 0.025884 -1.1185e-18)
(0.99946 -0.0002071 -1.0152e-18)
(0.99961 -0.00087403 9.339e-19)
(0.9999 -0.0013965 1.6299e-17)
(1.0004 -0.0019331 8.5028e-18)
(1.0008 -0.0020351 -2.1177e-17)
(1.0018 -0.0023505 -1.2192e-17)
(1.0014 -0.0017318 3.6022e-18)
(1.004 -0.0013984 -6.518e-18)
(1.0005 -0.00067816 1.3651e-17)
(1.0074 0.0043291 -4.1351e-18)
(0.99917 -0.001583 1.0659e-17)
(1.0073 0.02516 -4.0699e-18)
(0.99944 -0.00020942 -1.767e-18)
(0.99959 -0.00088222 -9.0025e-18)
(0.99988 -0.0014099 -4.8462e-18)
(1.0004 -0.0019508 3.4143e-17)
(1.0008 -0.0020565 -1.8867e-17)
(1.0018 -0.0023702 -1.0325e-18)
(1.0015 -0.001759 -5.3842e-17)
(1.004 -0.0014018 6.4089e-18)
(1.0006 -0.00071883 -2.5555e-17)
(1.0075 0.004326 -8.9136e-18)
(0.99952 -0.0015676 -1.0688e-17)
(1.0073 0.024454 2.418e-18)
(0.99942 -0.00021177 -7.6281e-19)
(0.99957 -0.00089051 5.5775e-18)
(0.99986 -0.0014234 -2.0005e-18)
(1.0004 -0.0019687 -1.988e-17)
(1.0008 -0.0020783 2.7114e-17)
(1.0018 -0.0023904 -2.5383e-18)
(1.0015 -0.0017868 2.8521e-17)
(1.004 -0.0014063 -3.9377e-18)
(1.0006 -0.00075977 1.2401e-17)
(1.0075 0.0043185 1.1143e-17)
(0.99985 -0.001552 8.82e-18)
(1.0073 0.023766 -5.8183e-19)
(0.99939 -0.00021416 4.3241e-18)
(0.99955 -0.00089893 -3.3369e-18)
(0.99985 -0.0014373 -6.9981e-18)
(1.0004 -0.001987 2.1697e-17)
(1.0008 -0.0021006 1.9901e-18)
(1.0018 -0.002411 3.1471e-17)
(1.0015 -0.0018153 4.921e-18)
(1.004 -0.0014117 1.8816e-17)
(1.0007 -0.00080099 4.6521e-18)
(1.0075 0.0043069 -3.6053e-18)
(1.0002 -0.0015361 1.152e-18)
(1.0073 0.023097 5.2948e-19)
(0.99937 -0.00021658 1.2329e-18)
(0.99953 -0.00090747 1.3644e-18)
(0.99983 -0.0014513 -6.3456e-18)
(1.0004 -0.0020055 -4.3208e-17)
(1.0008 -0.0021233 6.0258e-18)
(1.0018 -0.0024321 2.7287e-18)
(1.0015 -0.0018444 -2.1339e-17)
(1.0041 -0.0014183 2.6416e-19)
(1.0008 -0.00084248 1.3732e-17)
(1.0075 0.0042912 -2.3147e-18)
(1.0005 -0.00152 -5.6122e-18)
(1.0073 0.022444 3.1057e-18)
(0.99935 -0.00021905 -5.2797e-18)
(0.99951 -0.00091613 5.7827e-18)
(0.99981 -0.0014655 1.0462e-18)
(1.0003 -0.0020244 2.3993e-17)
(1.0007 -0.0021464 -2.7488e-17)
(1.0018 -0.0024537 -1.2056e-17)
(1.0015 -0.0018742 2.1826e-17)
(1.0041 -0.0014259 -1.2741e-17)
(1.0009 -0.00088424 -2.1725e-17)
(1.0075 0.0042716 -1.1423e-17)
(1.0008 -0.0015038 7.156e-18)
(1.0073 0.021809 1.0313e-18)
(0.99932 -0.00022155 -5.5865e-19)
(0.99948 -0.00092492 -5.8189e-18)
(0.99979 -0.00148 1.1141e-17)
(1.0003 -0.0020436 1.0638e-17)
(1.0007 -0.0021699 3.3951e-17)
(1.0018 -0.0024758 4.6304e-18)
(1.0015 -0.0019046 1.9391e-17)
(1.0041 -0.0014346 3.2296e-17)
(1.001 -0.00092627 -9.6927e-19)
(1.0076 0.0042482 2.0089e-17)
(1.0011 -0.0014876 -7.5468e-19)
(1.0074 0.021189 -3.0174e-18)
(0.9993 -0.00022409 5.4148e-18)
(0.99946 -0.00093385 -8.4716e-18)
(0.99977 -0.0014948 -1.691e-17)
(1.0003 -0.002063 -2.8278e-18)
(1.0007 -0.002194 -3.6849e-17)
(1.0018 -0.0024984 -1.3779e-17)
(1.0015 -0.0019356 -6.7286e-18)
(1.0042 -0.0014445 2.3771e-19)
(1.0011 -0.00096857 2.8294e-17)
(1.0076 0.0042211 4.6176e-18)
(1.0014 -0.0014715 -9.8606e-18)
(1.0074 0.020586 1.805e-18)
(0.99927 -0.00022668 -6.0705e-18)
(0.99944 -0.00094292 1.0583e-17)
(0.99975 -0.0015098 8.8515e-18)
(1.0003 -0.0020829 -5.6345e-18)
(1.0007 -0.0022184 2.9634e-17)
(1.0019 -0.0025214 1.6484e-17)
(1.0016 -0.0019674 -5.3197e-18)
(1.0042 -0.0014554 -3.2538e-17)
(1.0011 -0.0010112 -9.5785e-19)
(1.0076 0.0041904 -1.3213e-17)
(1.0017 -0.0014555 1.1685e-17)
(1.0074 0.019999 -2.3635e-18)
(0.99925 -0.00022931 3.6477e-18)
(0.99941 -0.00095212 -2.0249e-18)
(0.99973 -0.001525 1.172e-17)
(1.0003 -0.002103 -2.3704e-17)
(1.0007 -0.0022434 9.6768e-18)
(1.0019 -0.002545 -5.9219e-18)
(1.0016 -0.0019997 -1.1466e-17)
(1.0042 -0.0014675 -2.6095e-18)
(1.0012 -0.001054 -3.4189e-17)
(1.0076 0.0041563 8.7061e-18)
(1.002 -0.0014398 -1.0723e-17)
(1.0075 0.019426 7.873e-19)
(0.99922 -0.00023199 2.8839e-19)
(0.99939 -0.00096146 -6.3701e-18)
(0.99971 -0.0015405 6.6553e-18)
(1.0003 -0.0021235 3.1197e-17)
(1.0007 -0.0022688 -2.3047e-17)
(1.0019 -0.0025692 1.9048e-17)
(1.0016 -0.0020328 -6.6313e-18)
(1.0043 -0.0014807 6.0469e-18)
(1.0013 -0.0010972 4.0633e-17)
(1.0076 0.0041187 -1.6153e-17)
(1.0022 -0.0014243 1.6415e-17)
(1.0075 0.018869 2.2218e-18)
(0.9992 -0.0002347 5.1761e-19)
(0.99937 -0.00097095 -1.3182e-18)
(0.99969 -0.0015562 -9.5748e-18)
(1.0003 -0.0021443 -4.6968e-18)
(1.0007 -0.0022947 2.0087e-17)
(1.0019 -0.0025938 1.506e-19)
(1.0016 -0.0020665 -1.3038e-17)
(1.0043 -0.0014951 -1.4427e-17)
(1.0014 -0.0011406 -1.7016e-17)
(1.0077 0.004078 -1.5174e-18)
(1.0025 -0.0014091 3.0294e-18)
(1.0076 0.018326 2.2945e-19)
(0.99917 -0.00023747 -8.3297e-19)
(0.99934 -0.00098059 1.5688e-17)
(0.99966 -0.0015723 -6.3861e-18)
(1.0003 -0.0021655 -2.6541e-17)
(1.0007 -0.0023211 9.2611e-18)
(1.0019 -0.0026191 -4.8528e-17)
(1.0016 -0.002101 6.5015e-18)
(1.0043 -0.0015106 9.0874e-18)
(1.0015 -0.0011843 7.9023e-19)
(1.0077 0.004034 1.6384e-17)
(1.0028 -0.0013943 -9.8681e-19)
(1.0076 0.017797 -6.1993e-18)
(0.99914 -0.00024028 -2.1992e-19)
(0.99932 -0.00099038 -3.0791e-19)
(0.99964 -0.0015886 8.5968e-18)
(1.0002 -0.002187 1.6385e-17)
(1.0007 -0.0023481 -3.6797e-17)
(1.0019 -0.0026449 2.0968e-18)
(1.0016 -0.0021361 1.165e-17)
(1.0043 -0.0015273 1.4225e-17)
(1.0016 -0.0012283 -1.078e-17)
(1.0077 0.0039871 -1.5939e-17)
(1.003 -0.00138 -1.6358e-17)
(1.0077 0.017281 6.5387e-18)
(0.99912 -0.00024314 -1.4389e-18)
(0.99929 -0.0010003 4.3837e-19)
(0.99962 -0.0016051 -4.145e-18)
(1.0002 -0.0022089 -1.094e-17)
(1.0007 -0.0023755 2.0398e-17)
(1.0019 -0.0026713 2.6046e-17)
(1.0017 -0.0021719 3.3988e-18)
(1.0044 -0.0015453 7.2051e-18)
(1.0017 -0.0012727 1.7194e-17)
(1.0077 0.0039371 2.6857e-18)
(1.0032 -0.0013662 1.2121e-17)
(1.0077 0.016779 -3.9653e-18)
(0.99909 -0.00024605 2.6484e-18)
(0.99926 -0.0010104 8.0823e-19)
(0.9996 -0.001622 -5.9236e-18)
(1.0002 -0.0022312 1.6161e-18)
(1.0007 -0.0024034 -1.106e-17)
(1.0019 -0.0026983 -6.2475e-18)
(1.0017 -0.0022084 -1.2555e-18)
(1.0044 -0.0015644 -3.2531e-17)
(1.0017 -0.0013173 3.3817e-18)
(1.0077 0.0038843 -5.4247e-18)
(1.0035 -0.0013529 -4.9289e-18)
(1.0078 0.01629 -4.7674e-18)
(0.99906 -0.00024901 -5.4049e-18)
(0.99924 -0.0010207 1.0559e-18)
(0.99958 -0.0016391 3.142e-18)
(1.0002 -0.0022538 -2.0307e-17)
(1.0007 -0.0024319 -1.2608e-17)
(1.0019 -0.0027258 -2.9001e-17)
(1.0017 -0.0022456 6.0646e-18)
(1.0044 -0.0015848 1.3285e-17)
(1.0018 -0.0013623 -3.6247e-17)
(1.0077 0.0038288 2.5027e-17)
(1.0037 -0.0013403 -5.3485e-18)
(1.0078 0.015813 3.0778e-18)
(0.99903 -0.00025202 4.9614e-18)
(0.99921 -0.0010311 2.363e-18)
(0.99955 -0.0016566 1.2083e-18)
(1.0002 -0.0022768 6.4409e-18)
(1.0007 -0.0024609 -2.785e-18)
(1.0019 -0.002754 5.6209e-17)
(1.0017 -0.0022835 2.1777e-17)
(1.0044 -0.0016063 -2.0646e-17)
(1.0019 -0.0014076 3.4895e-17)
(1.0078 0.0037705 -9.3368e-18)
(1.0039 -0.0013283 -3.5401e-18)
(1.0079 0.015349 -1.527e-18)
(0.999 -0.00025508 1.2169e-18)
(0.99919 -0.0010417 -1.4964e-17)
(0.99953 -0.0016743 2.4183e-18)
(1.0002 -0.0023003 2.8922e-17)
(1.0006 -0.0024904 2.1553e-17)
(1.0019 -0.0027829 -9.0922e-19)
(1.0017 -0.0023222 -3.0168e-17)
(1.0045 -0.0016292 6.2586e-18)
(1.002 -0.0014532 -7.8734e-18)
(1.0078 0.0037096 -1.2903e-17)
(1.0042 -0.001317 8.998e-18)
(1.0079 0.014897 1.4293e-18)
(0.99897 -0.00025819 -4.8132e-18)
(0.99916 -0.0010524 -4.9884e-18)
(0.99951 -0.0016923 -1.31e-17)
(1.0001 -0.0023241 -2.4256e-17)
(1.0006 -0.0025205 -2.1688e-17)
(1.0019 -0.0028123 -2.5542e-17)
(1.0018 -0.0023615 5.5732e-18)
(1.0045 -0.0016532 4.8586e-17)
(1.0021 -0.0014992 3.4358e-18)
(1.0078 0.0036463 -1.119e-18)
(1.0044 -0.0013064 -3.1816e-18)
(1.008 0.014456 -3.8203e-18)
(0.99894 -0.00026136 3.5716e-18)
(0.99913 -0.0010634 4.6341e-18)
(0.99948 -0.0017107 2.0187e-17)
(1.0001 -0.0023483 1.6799e-17)
(1.0006 -0.0025512 2.11e-17)
(1.0019 -0.0028425 -9.496e-19)
(1.0018 -0.0024017 -3.1055e-17)
(1.0045 -0.0016786 -2.6257e-17)
(1.0022 -0.0015455 8.5346e-18)
(1.0078 0.0035805 4.4666e-18)
(1.0046 -0.0012967 7.1935e-18)
(1.008 0.014026 2.9591e-18)
(0.99891 -0.00026458 -2.5223e-18)
(0.9991 -0.0010745 7.2694e-18)
(0.99946 -0.0017293 -1.3357e-17)
(1.0001 -0.002373 2.4311e-18)
(1.0006 -0.0025824 9.8111e-18)
(1.0019 -0.0028733 -2.4965e-18)
(1.0018 -0.0024425 6.9694e-18)
(1.0046 -0.0017052 7.2874e-18)
(1.0023 -0.0015923 2.8173e-18)
(1.0078 0.0035123 1.102e-17)
(1.0048 -0.0012877 -8.6565e-18)
(1.0081 0.013608 5.9931e-19)
(0.99888 -0.00026785 3.8081e-18)
(0.99907 -0.0010858 4.5051e-19)
(0.99943 -0.0017483 -6.252e-18)
(1.0001 -0.0023981 9.6759e-19)
(1.0006 -0.0026143 -1.6116e-18)
(1.0019 -0.0029048 -2.4661e-17)
(1.0018 -0.0024841 1.9472e-17)
(1.0046 -0.001733 2.5853e-17)
(1.0024 -0.0016394 -1.3988e-17)
(1.0079 0.0034419 -1.5321e-17)
(1.005 -0.0012797 -2.5406e-18)
(1.0082 0.0132 5.067e-18)
(0.99885 -0.00027118 -2.7663e-18)
(0.99904 -0.0010972 -3.4697e-19)
(0.99941 -0.0017676 7.7733e-18)
(1.0001 -0.0024236 -1.8588e-17)
(1.0006 -0.0026467 -1.4574e-17)
(1.0019 -0.0029369 3.1133e-17)
(1.0018 -0.0025265 -2.9786e-18)
(1.0046 -0.0017622 -2.7377e-17)
(1.0024 -0.0016869 3.5695e-18)
(1.0079 0.0033692 1.442e-17)
(1.0052 -0.0012725 8.6063e-18)
(1.0082 0.012803 -1.8267e-18)
(0.99882 -0.00027457 2.7488e-19)
(0.99901 -0.0011089 2.5414e-18)
(0.99938 -0.0017872 4.2474e-18)
(1.0001 -0.0024496 9.609e-18)
(1.0006 -0.0026797 2.8568e-17)
(1.0019 -0.0029698 7.2578e-18)
(1.0019 -0.0025697 -2.5945e-17)
(1.0046 -0.0017927 2.5622e-18)
(1.0025 -0.0017349 9.2012e-18)
(1.0079 0.0032945 -1.2979e-17)
(1.0054 -0.0012663 -5.8272e-18)
(1.0083 0.012416 -2.1079e-18)
(0.99879 -0.00027802 7.8048e-19)
(0.99898 -0.0011207 -4.421e-19)
(0.99936 -0.0018072 -1.1207e-17)
(1 -0.002476 -2.0666e-19)
(1.0006 -0.0027133 -5.6484e-17)
(1.0019 -0.0030035 8.9475e-18)
(1.0019 -0.0026136 2.5485e-17)
(1.0047 -0.0018245 -7.3659e-18)
(1.0026 -0.0017833 -9.6301e-18)
(1.0079 0.0032176 2.154e-17)
(1.0055 -0.0012611 6.9875e-18)
(1.0084 0.012039 5.4575e-18)
(0.99876 -0.00028153 8.3837e-19)
(0.99895 -0.0011327 -9.1733e-19)
(0.99933 -0.0018275 2.0268e-17)
(1 -0.0025029 4.4316e-18)
(1.0006 -0.0027476 5.0056e-17)
(1.0019 -0.0030378 -3.1537e-17)
(1.0019 -0.0026584 -8.5386e-18)
(1.0047 -0.0018576 6.9278e-18)
(1.0027 -0.0018321 3.3254e-18)
(1.0079 0.0031388 -1.2117e-17)
(1.0057 -0.0012568 -1.1259e-18)
(1.0084 0.011671 -4.023e-18)
(0.99872 -0.0002851 -3.2764e-18)
(0.99892 -0.001145 1.54e-18)
(0.9993 -0.0018482 -1.1913e-17)
(1 -0.0025303 5.8271e-18)
(1.0006 -0.0027825 -1.902e-17)
(1.0019 -0.0030729 4.2768e-18)
(1.0019 -0.0027039 3.4192e-17)
(1.0047 -0.001892 -2.5924e-17)
(1.0028 -0.0018814 -1.2219e-17)
(1.008 0.003058 -1.1971e-17)
(1.0059 -0.0012536 -5.5698e-18)
(1.0085 0.011313 -1.1021e-18)
(0.99869 -0.00028873 4.0812e-18)
(0.99889 -0.0011574 -3.6577e-18)
(0.99928 -0.0018692 -1.156e-17)
(0.99998 -0.0025581 -9.2921e-18)
(1.0005 -0.002818 -3.1099e-17)
(1.0019 -0.0031088 -1.9833e-17)
(1.0019 -0.0027503 -2.0965e-17)
(1.0047 -0.0019278 2.41e-17)
(1.0029 -0.0019311 1.1855e-17)
(1.008 0.0029754 1.8123e-17)
(1.0061 -0.0012515 -2.1886e-18)
(1.0086 0.010963 5.3162e-18)
(0.99866 -0.00029243 -6.5592e-18)
(0.99886 -0.00117 5.9262e-18)
(0.99925 -0.0018906 2.8306e-17)
(0.99996 -0.0025864 -2.1917e-18)
(1.0005 -0.0028542 3.4408e-17)
(1.0019 -0.0031455 1.4971e-18)
(1.002 -0.0027974 -2.0089e-17)
(1.0047 -0.001965 9.4245e-18)
(1.003 -0.0019814 -4.2752e-18)
(1.008 0.002891 -3.7956e-18)
(1.0062 -0.0012504 7.0966e-18)
(1.0087 0.010623 -3.5947e-18)
(0.99862 -0.00029619 5.3751e-18)
(0.99883 -0.0011829 -8.0539e-18)
(0.99922 -0.0019124 -3.3002e-17)
(0.99994 -0.0026153 1.4337e-17)
(1.0005 -0.002891 -2.4515e-17)
(1.0019 -0.003183 2.7414e-17)
(1.002 -0.0028454 6.5456e-18)
(1.0048 -0.0020035 -8.9754e-18)
(1.0031 -0.0020322 -2.0534e-18)
(1.008 0.0028048 -9.49e-18)
(1.0064 -0.0012505 -1.1591e-17)
(1.0087 0.010291 4.9574e-18)
(0.99859 -0.00030001 -3.9592e-18)
(0.99879 -0.0011959 2.6781e-18)
(0.99919 -0.0019345 2.0053e-17)
(0.99991 -0.0026446 -1.8899e-17)
(1.0005 -0.0029286 3.9447e-17)
(1.0019 -0.0032212 -2.1275e-17)
(1.002 -0.0028943 3.8164e-18)
(1.0048 -0.0020433 -1.4174e-17)
(1.0031 -0.0020835 6.7142e-18)
(1.0081 0.0027169 -1.3226e-18)
(1.0065 -0.0012517 4.9581e-18)
(1.0088 0.009967 -2.2081e-18)
(0.99855 -0.00030391 4.8558e-18)
(0.99876 -0.0012092 2.0849e-18)
(0.99916 -0.001957 -1.3369e-17)
(0.99989 -0.0026745 -3.8414e-19)
(1.0005 -0.0029668 -1.7408e-18)
(1.0019 -0.0032604 5.1461e-18)
(1.002 -0.002944 3.6272e-17)
(1.0048 -0.0020846 9.6938e-18)
(1.0032 -0.0021353 -1.991e-17)
(1.0081 0.0026274 -6.8675e-18)
(1.0067 -0.001254 -4.6867e-18)
(1.0089 0.0096514 2.3088e-18)
(0.99851 -0.00030787 -5.5657e-18)
(0.99872 -0.0012227 -7.726e-18)