/*--------------------------------*- C++ -*----------------------------------*\
  =========                 |
  \\      /  F ield         | OpenFOAM: The Open Source CFD Toolbox
   \\    /   O peration     | Website:  https://openfoam.org
    \\  /    A nd           | Version:  6.0
     \\/     M anipulation  |
\*---------------------------------------------------------------------------*/
FoamFile
{
    version     2.0;
    format      ascii;
    class       volScalarField;
    location    "9";
    object      p;
}
// * * * * * * * * * * * * * * * * * * * * * * * * * * * * * * * * * * * * * //

dimensions      [0 2 -2 0 0 0 0];

internalField   nonuniform List<scalar> 
4920
(
0.013809
0.0139488
0.0141353
0.0143936
0.0147429
0.0152203
0.0158608
0.0167163
0.0178303
0.0192207
0.020783
0.0221504
0.0225596
0.0207344
0.0160568
0.0138901
0.0140473
0.0142408
0.0144979
0.0148417
0.0153132
0.0159566
0.0168265
0.0179826
0.0194721
0.0212706
0.023166
0.0246978
0.0251324
0.0203955
0.0140008
0.0141803
0.0143987
0.0146789
0.0150436
0.0155323
0.0161931
0.0170823
0.0182501
0.0197162
0.0214013
0.0230111
0.0240921
0.0245479
0.0184323
0.0141948
0.01438
0.0146142
0.0149208
0.0153187
0.0158469
0.0165512
0.0174862
0.0187036
0.0201994
0.0218556
0.0232955
0.023992
0.024293
0.0182074
0.0145268
0.0146959
0.0149281
0.0152469
0.0156739
0.0162478
0.0170141
0.0180308
0.0193571
0.021005
0.0228634
0.0245273
0.0253964
0.0260202
0.0207276
0.0149488
0.015111
0.0153443
0.0156776
0.0161325
0.0167552
0.017595
0.0187162
0.0202005
0.022082
0.0242939
0.0264553
0.0278898
0.0291523
0.0243915
0.015458
0.015613
0.0158501
0.0162007
0.0166923
0.0173735
0.0182976
0.0195414
0.0212045
0.0233563
0.0259791
0.0286991
0.0307796
0.0327165
0.0279127
0.0160294
0.0162044
0.0164607
0.0168393
0.0173682
0.0181083
0.0191199
0.02049
0.0223423
0.0247663
0.0277861
0.0310489
0.0337559
0.0362676
0.0309674
0.0166378
0.0168349
0.0171238
0.0175438
0.01813
0.0189425
0.0200479
0.0215495
0.023586
0.0262738
0.0296668
0.0333943
0.0365911
0.0395182
0.0334121
0.0173627
0.0175966
0.017917
0.0183735
0.0190027
0.0198776
0.0210741
0.0227011
0.0249219
0.0278591
0.0315838
0.0357298
0.0393382
0.0425145
0.0354473
0.0181205
0.0183843
0.0187434
0.0192507
0.0199434
0.020896
0.0221873
0.0239426
0.026337
0.0295088
0.0335557
0.0380535
0.0419419
0.0451964
0.0369947
0.0191211
0.0194195
0.0198009
0.0203295
0.021045
0.0220392
0.0234034
0.0252664
0.0278254
0.0312263
0.0355695
0.0404024
0.0445329
0.047681
0.0382886
0.0200262
0.0203593
0.0207877
0.0213761
0.0221609
0.0232331
0.0246844
0.0266614
0.0293804
0.0330056
0.037656
0.0427925
0.0470518
0.0499124
0.0391528
0.0211761
0.0215393
0.0219873
0.0225967
0.0234046
0.0245172
0.0260377
0.0281159
0.0309909
0.0348652
0.039808
0.0452475
0.0496106
0.0519907
0.0398471
0.0222836
0.0226643
0.0231422
0.0237969
0.0246606
0.0258396
0.0274381
0.0296142
0.0326809
0.0367866
0.0420438
0.0477682
0.0521242
0.053761
0.040086
0.0236443
0.0240504
0.0245357
0.0251932
0.0260578
0.0272567
0.0288941
0.0311963
0.0344104
0.0387599
0.0443209
0.0503594
0.054681
0.0553378
0.0402214
0.0248835
0.0253062
0.0258229
0.0265257
0.0274468
0.0286971
0.0304253
0.0327989
0.0361733
0.0407449
0.0466346
0.0530098
0.0571632
0.056488
0.0398335
0.0263972
0.0268402
0.0273592
0.0280564
0.0289687
0.0302326
0.0319698
0.0344355
0.0379318
0.0427124
0.0489688
0.0557441
0.0596648
0.057328
0.039329
0.0275781
0.0280571
0.0286331
0.0294017
0.030391
0.0317172
0.0335441
0.0360745
0.0396989
0.0447151
0.0513772
0.0585533
0.0620302
0.0575359
0.0382252
0.0289859
0.029489
0.030088
0.0308864
0.0319143
0.0332968
0.0351637
0.0377943
0.0415424
0.0467974
0.0538888
0.061518
0.0643498
0.057308
0.0370604
0.0305654
0.03106
0.031666
0.0324995
0.0335784
0.035013
0.0369642
0.0396504
0.0435295
0.0490343
0.0565771
0.0645859
0.0664364
0.0562243
0.0352748
0.0327927
0.03328
0.0338542
0.0346389
0.0356668
0.0370719
0.0389962
0.0417383
0.0457117
0.0514588
0.0594729
0.0678606
0.0683565
0.0544916
0.0334667
0.0349772
0.0354752
0.0360742
0.0368971
0.0379543
0.039369
0.0413188
0.0440665
0.0481286
0.0541342
0.0626097
0.0712227
0.0698383
0.0516633
0.0310356
0.0377223
0.0382244
0.0388151
0.0396125
0.0406399
0.0420234
0.0439347
0.0466916
0.0508113
0.0570735
0.066034
0.0748202
0.070895
0.0480181
0.0286755
0.0408728
0.0413572
0.0419316
0.0427323
0.0437449
0.0450913
0.0469562
0.0496439
0.0538257
0.0603449
0.0697739
0.0784301
0.0712148
0.0430601
0.0257801
0.0449824
0.0454449
0.0459613
0.0466555
0.047536
0.0487314
0.0504297
0.0530337
0.0572023
0.06401
0.0739344
0.0822199
0.0707163
0.0371313
0.023126
0.0493697
0.0498179
0.0503142
0.0509906
0.0518071
0.052882
0.0544367
0.0568751
0.0610653
0.0681593
0.0785026
0.0858496
0.0690376
0.0297436
0.0200999
0.0544275
0.0549104
0.0554218
0.0560432
0.0567636
0.0576795
0.0590267
0.0613099
0.0654603
0.0728714
0.0837357
0.0895287
0.0660275
0.0213932
0.0175661
0.0603332
0.0607674
0.0612315
0.0618486
0.0625013
0.0632644
0.0643799
0.0664102
0.0705226
0.0783033
0.0894823
0.0927047
0.0613485
0.011598
0.0148986
0.0682417
0.0685955
0.0688913
0.0692236
0.0695438
0.0699239
0.0706293
0.0723039
0.0763079
0.0845573
0.0960712
0.0955439
0.0547897
0.00102576
0.0130272
0.0766822
0.0770029
0.0772351
0.0774929
0.0776007
0.0776166
0.077823
0.0790056
0.0829409
0.0917134
0.103104
0.0972422
0.0460987
-0.0107262
0.011307
0.0869104
0.0871526
0.0872117
0.0871594
0.0868569
0.0863465
0.0859179
0.0865376
0.0904251
0.0998868
0.11103
0.0979936
0.0351566
-0.0227396
0.0106773
0.0978027
0.0980045
0.0979734
0.0977609
0.0971102
0.0960659
0.0948884
0.094995
0.0988158
0.109058
0.119002
0.0966923
0.0218636
-0.0353891
0.0104723
0.110354
0.11046
0.110255
0.10969
0.108595
0.106825
0.104979
0.104223
0.108158
0.119245
0.127409
0.0935627
0.00629581
-0.047517
0.0116153
0.124121
0.124187
0.123841
0.123091
0.121446
0.11905
0.116019
0.11446
0.118231
0.130127
0.134905
0.0873671
-0.0113704
-0.0594542
0.0134057
0.140607
0.140526
0.139914
0.138612
0.136285
0.132702
0.128351
0.125253
0.129025
0.14173
0.141927
0.0786516
-0.0306716
-0.069831
0.0166509
0.158998
0.158873
0.158031
0.156243
0.152948
0.148006
0.14162
0.136828
0.140292
0.153428
0.146785
0.0662223
-0.0511837
-0.0790513
0.0206366
0.179319
0.179163
0.178125
0.175787
0.171464
0.164777
0.156064
0.148766
0.152296
0.165211
0.150055
0.0511203
-0.0720196
-0.0856129
0.0260392
0.201959
0.201786
0.2005
0.197552
0.191958
0.183221
0.171469
0.161653
0.164699
0.176065
0.149932
0.0324529
-0.0925067
-0.0900469
0.0321296
0.227524
0.227289
0.225665
0.221862
0.214702
0.203391
0.188211
0.174922
0.177863
0.185871
0.147273
0.0118967
-0.111382
-0.0908744
0.0393836
0.255985
0.25579
0.253771
0.248989
0.239887
0.225379
0.205938
0.189227
0.191172
0.193252
0.14062
-0.0109265
-0.127859
-0.0888088
0.0471501
0.287473
0.28742
0.285069
0.279115
0.267603
0.249126
0.224786
0.203652
0.204963
0.198021
0.131179
-0.0335943
-0.140416
-0.0825008
0.0557247
0.322137
0.322425
0.319752
0.312431
0.297991
0.274604
0.244312
0.218884
0.218603
0.198731
0.118359
-0.055644
-0.148235
-0.0728654
0.0645549
0.360173
0.360954
0.357993
0.348991
0.330893
0.301605
0.264745
0.234121
0.232472
0.195372
0.103818
-0.0737531
-0.149712
-0.0588099
0.0738552
0.40157
0.403057
0.3998
0.388728
0.366248
0.330104
0.285668
0.249552
0.24698
0.190855
0.0904152
-0.0852877
-0.143841
-0.0412598
0.0831184
0.445728
0.448271
0.444811
0.431506
0.403512
0.358984
0.305848
0.264342
0.25917
0.190186
0.0790981
-0.0858485
-0.129024
-0.0192953
0.0922442
0.491428
0.495539
0.492489
0.476472
0.442167
0.387844
0.324508
0.276811
0.269277
0.202762
0.064388
-0.0767187
-0.105352
0.00595303
0.100785
0.537392
0.543935
0.541638
0.523501
0.481757
0.41587
0.337112
0.28171
0.282524
0.239447
0.0524681
-0.0602469
-0.0745953
0.0342311
0.108467
0.58057
0.59064
0.591002
0.570651
0.521123
0.441954
0.336115
0.272264
0.3039
0.296272
0.054659
-0.0392811
-0.0412467
0.0628005
0.114794
0.617488
0.63237
0.63597
0.612549
0.554505
0.445997
0.31524
0.248944
0.336717
0.350231
0.0656067
-0.020806
-0.0108487
0.0887817
0.118944
0.646667
0.669768
0.681118
0.662912
0.592979
0.443845
0.283852
0.239388
0.380777
0.384937
0.0689967
-0.000676839
0.0176556
0.109848
0.119978
0.672978
0.703597
0.717295
0.683007
0.596173
0.441667
0.279041
0.29321
0.432302
0.396245
0.0655566
0.0222739
0.0417173
0.1255
0.117312
0.6705
0.708998
0.70163
0.595542
0.4636
0.42052
0.3488
0.421558
0.480432
0.408261
0.0648947
0.0379382
0.0519343
0.132867
0.110116
0.571106
0.5831
0.530034
0.33571
0.20319
0.413991
0.514676
0.60115
0.513647
0.390984
0.0616334
0.0266334
0.0366454
0.127367
0.0975909
0.414159
0.347264
0.199982
-0.0435355
-0.0300907
0.520243
0.73322
0.763705
0.513449
0.259062
0.0291775
-0.0321122
-0.00853032
0.107103
0.0797389
0.186442
0.0520175
-0.150425
-0.321392
-0.166337
0.767626
0.973322
0.885848
0.348393
-0.0951874
-0.0765238
-0.150347
-0.0810153
0.0761164
0.0586841
-0.502822
-0.603947
-0.569239
-0.459185
-0.347298
1.19621
0.911517
0.407494
-0.385691
-0.777159
-0.289844
-0.326387
-0.17052
0.0405048
0.0380347
-0.891598
-0.979552
-0.865773
-0.550815
-0.580048
0.0814703
-0.507386
-1.58363
-1.9369
-1.69504
-0.565008
-0.51208
-0.250975
0.00970899
0.0223402
-0.981024
-1.07581
-0.954128
-0.822339
-1.34467
-2.51097
-2.6086
-3.33132
-3.18884
-2.43498
-0.785835
-0.632696
-0.296488
-0.00822177
0.0139879
-0.736257
-0.870062
-1.02141
-1.16877
-1.71036
-3.67515
-3.56815
-4.12302
-3.7796
-2.74377
-0.878422
-0.672887
-0.310801
-0.0139766
0.0110999
0.0378781
0.0384985
0.0365901
0.0345088
0.0330319
0.0320009
0.0311055
0.0301832
0.0291787
0.0281285
0.0217794
0.0183395
0.0143645
0.0115719
0.00998574
0.0090485
0.00822642
0.00719092
0.00554736
0.00327156
0.0147781
0.0143658
0.0146458
0.015433
0.0163358
0.0170064
0.0172308
0.0169426
0.0161133
0.014991
0.0167031
0.0176906
0.0190362
0.0200686
0.020538
0.020422
0.0197918
0.0187359
0.0172273
0.0154688
0.0213729
0.0223198
0.0231139
0.0233088
0.0228591
0.0218927
0.0205856
0.0190805
0.0173279
0.0156093
0.0256071
0.0261632
0.0262617
0.0257072
0.0245841
0.0230745
0.0213827
0.0196624
0.0178438
0.0162744
0.028723
0.0289396
0.028569
0.0275387
0.0259926
0.0241258
0.022157
0.0202544
0.0183002
0.0167098
0.0310498
0.0310457
0.0304255
0.0291101
0.0272758
0.0251078
0.0228609
0.0207222
0.0185141
0.0167604
0.0329731
0.0329196
0.0321694
0.0307005
0.0285886
0.0261154
0.0235024
0.0210278
0.0184082
0.0163648
0.0349013
0.0348691
0.0341793
0.0325973
0.0302898
0.0274541
0.0244326
0.0215076
0.0183768
0.0159225
0.0367896
0.037041
0.0365639
0.0350543
0.0326011
0.0294514
0.0259725
0.0225241
0.0187028
0.0157463
0.038738
0.0394401
0.0393632
0.0380428
0.0355204
0.0320591
0.0280584
0.0239584
0.0193291
0.0156041
0.0406201
0.0419661
0.0424293
0.0414015
0.0388509
0.0350707
0.0304652
0.0256092
0.019933
0.015407
0.0424818
0.0445908
0.0457133
0.0450435
0.0425043
0.0383714
0.0330683
0.0273157
0.0204643
0.0148059
0.0441301
0.0471537
0.0490575
0.0488344
0.0463849
0.0419021
0.0358514
0.0290945
0.0208357
0.0140628
0.0456344
0.0496865
0.0524727
0.0527966
0.0504831
0.0456435
0.0387487
0.0308408
0.0210292
0.0127838
0.0468015
0.0520299
0.0558277
0.0568348
0.05474
0.0495722
0.0417676
0.0325942
0.0210118
0.0113473
0.0478111
0.0543263
0.0592419
0.0610318
0.0591645
0.0536097
0.0447385
0.0341192
0.0206094
0.00921664
0.0484593
0.0564026
0.0625874
0.0652527
0.0636725
0.0576758
0.0476485
0.0354498
0.0198436
0.00682189
0.0490661
0.0585661
0.066058
0.0696163
0.0681765
0.0615746
0.050128
0.0361388
0.0182905
0.00342731
0.0493903
0.0606003
0.0695025
0.0739703
0.0726001
0.0652797
0.0522699
0.0363731
0.0161839
-0.000296012
0.0498738
0.0629244
0.0732287
0.0784803
0.0769268
0.0686135
0.0537224
0.035681
0.0130415
-0.00511814
0.0501695
0.0652527
0.0770354
0.0830131
0.0811393
0.0716749
0.0547696
0.0344964
0.00937224
-0.0102317
0.0509063
0.0681501
0.081321
0.0877478
0.0851933
0.0742007
0.0549178
0.0321457
0.00443193
-0.016596
0.051605
0.0712109
0.0857945
0.0925696
0.0891068
0.0764254
0.0546412
0.0293381
-0.000955388
-0.0231549
0.0529871
0.0750221
0.0909122
0.0976331
0.0928926
0.0780779
0.0534868
0.0253811
-0.00756361
-0.0308616
0.0544505
0.0790747
0.0962719
0.10282
0.0965368
0.0794682
0.0520234
0.0211773
-0.01435
-0.0385581
0.0567995
0.0839906
0.102296
0.108166
0.099913
0.0801544
0.0495988
0.0158169
-0.0223497
-0.0473618
0.0593513
0.0891737
0.10852
0.113555
0.103005
0.0804767
0.0468425
0.010303
-0.0303576
-0.0560289
0.0629394
0.0952546
0.115353
0.118956
0.105655
0.0799389
0.0430471
0.00365265
-0.0395075
-0.0657261
0.0668052
0.101588
0.122301
0.124297
0.107882
0.0789535
0.0389213
-0.00302843
-0.0484509
-0.0751214
0.0717579
0.10879
0.129711
0.129432
0.109459
0.0769352
0.0336712
-0.0108198
-0.0584459
-0.085465
0.0769916
0.116199
0.137087
0.134381
0.110479
0.0743932
0.0280735
-0.0185607
-0.0680704
-0.095393
0.083261
0.124407
0.144756
0.138913
0.110692
0.0707316
0.0213425
-0.0273281
-0.0785977
-0.10617
0.0897316
0.132764
0.152259
0.143134
0.110283
0.0665727
0.0143328
-0.0359125
-0.0885562
-0.116388
0.0970289
0.141793
0.159809
0.146728
0.108985
0.0613168
0.00628766
-0.0453559
-0.0991956
-0.127305
0.104362
0.150882
0.167025
0.149895
0.10702
0.0556331
-0.00193986
-0.0545029
-0.109112
-0.137542
0.112238
0.16048
0.174045
0.152268
0.104073
0.0489055
-0.0110771
-0.0643421
-0.119504
-0.148303
0.119917
0.170006
0.18055
0.15418
0.100483
0.0418776
-0.0202318
-0.0737346
-0.129028
-0.15823
0.127721
0.179766
0.186592
0.155191
0.0959942
0.0340203
-0.0300077
-0.0835351
-0.138754
-0.168436
0.135046
0.189152
0.191876
0.155655
0.0909866
0.0260565
-0.0395779
-0.0927281
-0.147508
-0.177671
0.142204
0.198225
0.196251
0.155046
0.0851374
0.0174424
-0.0495117
-0.102092
-0.156258
-0.186964
0.148809
0.20639
0.199453
0.153742
0.0788834
0.00891007
-0.0590208
-0.11071
-0.16398
-0.195175
0.154912
0.213616
0.201305
0.151318
0.0719899
6.41463e-05
-0.0685504
-0.119222
-0.171514
-0.203231
0.160092
0.219525
0.201828
0.148299
0.0649722
-0.00839507
-0.0773974
-0.126859
-0.178043
-0.210177
0.164103
0.224028
0.200969
0.144369
0.0576359
-0.0168307
-0.0859433
-0.134161
-0.184281
-0.216838
0.166495
0.226816
0.198953
0.140047
0.0504293
-0.024672
-0.093632
-0.140517
-0.18959
-0.222447
0.166994
0.227738
0.195792
0.135067
0.043171
-0.0322499
-0.10082
-0.1464
-0.194545
-0.227692
0.16564
0.226835
0.191851
0.129918
0.0362088
-0.0391392
-0.107134
-0.151389
-0.198688
-0.232012
0.162249
0.223963
0.187103
0.124351
0.029343
-0.0456788
-0.112934
-0.155931
-0.202501
-0.235976
0.156908
0.219278
0.181849
0.11872
0.0228125
-0.051576
-0.117979
-0.159729
-0.20565
-0.239202
0.149534
0.212838
0.176049
0.112871
0.0164801
-0.057069
-0.122521
-0.163089
-0.208457
-0.242088
0.140134
0.20461
0.169891
0.107071
0.0105457
-0.0619448
-0.126393
-0.165811
-0.210696
-0.244397
0.128288
0.194392
0.163042
0.10107
0.00484124
-0.0664193
-0.129796
-0.168126
-0.212588
-0.246328
0.114227
0.182283
0.155458
0.0949134
-0.00056941
-0.070437
-0.1327
-0.169971
-0.214022
-0.247766
0.0988684
0.168875
0.147106
0.0884864
-0.00578753
-0.0741521
-0.135255
-0.171503
-0.215116
-0.248905
0.0840276
0.155758
0.1386
0.0822019
-0.0105417
-0.0773876
-0.137353
-0.172628
-0.215792
-0.249891
0.0726566
0.145667
0.131557
0.077175
-0.0141065
-0.0796858
-0.138718
-0.173228
-0.216023
-0.250884
0.0664033
0.140312
0.127486
0.0743364
-0.0159896
-0.0808413
-0.139307
-0.173388
-0.215914
-0.251812
0.0638614
0.1382
0.125855
0.0732117
-0.0167039
-0.0812731
-0.139478
-0.173385
-0.215705
-0.252679
0.0277437
0.0271954
0.0263567
0.0255991
0.0249068
0.0241735
0.0231331
0.0216954
0.0198219
0.0175904
0.0151846
0.0127293
0.0103787
0.00811548
0.005933
0.00309901
-0.000231607
-0.000417067
-1.23015e-05
0.00099951
0.00241297
0.00413555
0.00589065
0.00753351
0.0088318
0.00960764
0.00973954
0.00925845
0.0082125
0.00670401
0.0048614
0.0023043
0.0141224
0.0139788
0.0140635
0.0144088
0.0148316
0.0152316
0.0154142
0.0153345
0.0149375
0.0141745
0.0130619
0.0115547
0.0096774
0.00741695
0.00489538
0.00194002
0.0132272
0.0129005
0.012935
0.0133786
0.0140162
0.0147026
0.0152006
0.0154214
0.0152718
0.0147412
0.0137784
0.0123712
0.0104461
0.00796769
0.00510675
0.00188272
0.0142368
0.0140471
0.0140522
0.0143544
0.0148236
0.0153378
0.0157058
0.0158339
0.0156751
0.01514
0.0142062
0.0127885
0.0107947
0.00815094
0.00506322
0.00173517
0.0153518
0.0151982
0.0151118
0.015279
0.0156235
0.0160511
0.0163579
0.0164494
0.0162369
0.0156848
0.0147087
0.0132164
0.011073
0.00820234
0.00488147
0.00149275
0.0162919
0.0162313
0.0161531
0.0162888
0.0165901
0.0169651
0.0172127
0.0172281
0.016956
0.016317
0.015257
0.0136446
0.0113198
0.0082012
0.00464972
0.00122314
0.0167299
0.0167538
0.0167549
0.0169918
0.0174207
0.0178961
0.0181946
0.0181955
0.0178321
0.017089
0.0158784
0.0140753
0.011498
0.00809367
0.00432841
0.000906888
0.0169873
0.0172018
0.0173781
0.0177882
0.0183725
0.0189574
0.0193075
0.019288
0.0188512
0.0179474
0.0165584
0.0145221
0.0116484
0.00792441
0.00395011
0.000565298
0.0168459
0.0171857
0.0175318
0.0181926
0.019055
0.0198889
0.0204038
0.0204364
0.0199119
0.0188762
0.0172636
0.0149417
0.0117165
0.00765125
0.00349436
0.000183658
0.0170193
0.0174987
0.0180212
0.0189202
0.020025
0.0210454
0.0216561
0.0216551
0.0210507
0.01983
0.0179979
0.0153601
0.0117418
0.0073145
0.00299542
-0.000210873
0.0172482
0.0178501
0.0185419
0.0196726
0.0210102
0.0222105
0.0228844
0.0229029
0.022191
0.0208247
0.018728
0.0157147
0.0116653
0.00687725
0.00244198
-0.000625592
0.0171002
0.0177838
0.0186501
0.020073
0.0217446
0.0232048
0.024081
0.0241196
0.0233689
0.0218387
0.0194606
0.0160311
0.0115151
0.00637271
0.00186308
-0.00103459
0.0168018
0.0176137
0.0186961
0.0204525
0.0224797
0.0242547
0.0252795
0.0254044
0.0245758
0.022853
0.0201285
0.016235
0.0112445
0.00578142
0.00125998
-0.00143952
0.0159833
0.0168876
0.0181992
0.02037
0.02288
0.0250602
0.0263997
0.0266124
0.0257586
0.0238449
0.0207553
0.0163614
0.0108854
0.00513722
0.000657562
-0.00181745
0.014939
0.0159665
0.0175175
0.0200866
0.0230586
0.0256815
0.02732
0.0277396
0.0268647
0.0247412
0.0212457
0.016347
0.0104105
0.00443716
6.56851e-05
-0.00216696
0.0132921
0.0143709
0.01613
0.0191427
0.0226995
0.0259007
0.0280334
0.0286798
0.0278657
0.0255537
0.0216478
0.0162262
0.00985087
0.00371077
-0.000498418
-0.00247088
0.0112449
0.0124098
0.0144199
0.0179418
0.0221572
0.0260132
0.0285961
0.0295601
0.0287534
0.0262201
0.0218853
0.0159658
0.00920397
0.00297216
-0.00101738
-0.0027265
0.00905528
0.0104276
0.0127994
0.0168981
0.0217556
0.0261202
0.0291619
0.0303169
0.0295616
0.026805
0.0220239
0.0156017
0.00849802
0.00224149
-0.00148504
-0.00292502
0.00700884
0.00868551
0.0114299
0.0159801
0.0212581
0.0261378
0.0295215
0.0309664
0.0302258
0.0272127
0.0219987
0.0151194
0.00774549
0.00154182
-0.00188095
-0.00306387
0.00418464
0.00614324
0.00928243
0.0143282
0.0202867
0.0257155
0.029652
0.0314308
0.0307531
0.0274952
0.0218498
0.0145411
0.00696391
0.000880596
-0.00221035
-0.00314204
0.000974419
0.003281
0.00685634
0.0125064
0.0190658
0.0251882
0.0296409
0.0317454
0.031098
0.0275948
0.0215597
0.0138854
0.00618516
0.000291213
-0.0024495
-0.00315696
-0.00254848
0.000218011
0.00431847
0.010578
0.017857
0.0245581
0.0295477
0.0319736
0.0313543
0.0275862
0.0211708
0.0131727
0.00541839
-0.00023245
-0.00261512
-0.0031155
-0.00628517
-0.00301338
0.00164216
0.00855206
0.0164573
0.0238426
0.0293271
0.0320595
0.0314446
0.0274443
0.0206984
0.0124428
0.00470644
-0.000651834
-0.0026821
-0.00301509
-0.0104786
-0.00661938
-0.0013554
0.00621396
0.0148363
0.022867
0.0289719
0.0320629
0.0314552
0.0272028
0.0201593
0.0117001
0.00404375
-0.000987632
-0.0026772
-0.00286848
-0.0148686
-0.01045
-0.00461652
0.00353004
0.0128938
0.0217258
0.0284638
0.0319133
0.0313389
0.0268872
0.0196046
0.0110045
0.00348338
-0.00119692
-0.00257445
-0.00267273
-0.0197335
-0.0147069
-0.00840287
0.000496112
0.0106448
0.0203134
0.0278462
0.0316911
0.0311316
0.0264784
0.0190198
0.0103395
0.00300226
-0.0013153
-0.00240956
-0.00244516
-0.0248069
-0.0192906
-0.0123182
-0.00282199
0.00819147
0.0188405
0.0270503
0.0312674
0.0307987
0.0260229
0.0184675
0.0097695
0.00265516
-0.00129904
-0.00215613
-0.00218172
-0.0299467
-0.0237162
-0.0162779
-0.00607935
0.00571741
0.0171407
0.0261546
0.0307369
0.0303386
0.0254708
0.0179103
0.00925803
0.00240185
-0.00119672
-0.00185625
-0.00190181
-0.0350806
-0.028228
-0.020132
-0.0093822
0.00316062
0.0154715
0.0250962
0.0300553
0.02982
0.0249416
0.0174469
0.00888462
0.00230171
-0.000963865
-0.00148347
-0.00160001
-0.0403884
-0.0327498
-0.0241014
-0.0126442
0.000604331
0.0136377
0.0240281
0.0293133
0.0292103
0.0243618
0.0170228
0.00859791
0.0023009
-0.00065921
-0.00108393
-0.00129635
-0.0456506
-0.0373355
-0.027994
-0.0159622
-0.00192856
0.0119434
0.0229044
0.0285269
0.0286294
0.0238828
0.0167504
0.00848302
0.00246078
-0.000237418
-0.000630145
-0.000983446
-0.0509912
-0.0418564
-0.0319363
-0.0191037
-0.0043344
0.0102548
0.0218816
0.0277282
0.0279945
0.0233981
0.0165518
0.00847105
0.00271486
0.000235855
-0.000169384
-0.000680366
-0.0562464
-0.04651
-0.035757
-0.0222039
-0.00653593
0.00882161
0.0209466
0.027008
0.0274909
0.0230974
0.0165535
0.0086508
0.00312408
0.000805535
0.000326493
-0.000378064
-0.0620079
-0.0512017
-0.039669
-0.025106
-0.00857465
0.00750929
0.020157
0.0263012
0.0269766
0.0228399
0.0166564
0.00893784
0.00361125
0.00140171
0.000811092
-9.37297e-05
-0.0672715
-0.055854
-0.0433653
-0.0278476
-0.0103873
0.00640905
0.0194964
0.0257309
0.0266659
0.0228292
0.0169913
0.00942176
0.00423708
0.00206997
0.001314
0.000183364
-0.0727767
-0.0602788
-0.0469062
-0.030431
-0.0120982
0.00544586
0.0189459
0.0251656
0.0263732
0.0228966
0.0174402
0.0100051
0.00491728
0.00273967
0.00179139
0.000438253
-0.077709
-0.0645838
-0.0502758
-0.0328096
-0.0135753
0.0046506
0.0185977
0.0248266
0.0263667
0.0232642
0.0181377
0.0107756
0.00571082
0.00345647
0.00227365
0.000682557
-0.0827559
-0.0686135
-0.0534311
-0.0350334
-0.0148972
0.00409786
0.0183751
0.0245239
0.0264236
0.0237412
0.0189503
0.0116251
0.00652922
0.00415173
0.00272077
0.00090363
-0.0871488
-0.0724112
-0.0562926
-0.0369207
-0.0159177
0.00372184
0.018445
0.0245351
0.0268372
0.0245539
0.0200117
0.0126391
0.00743107
0.00487231
0.00316423
0.00111371
-0.0915166
-0.0757437
-0.0587738
-0.038552
-0.0166739
0.00367157
0.0186565
0.024619
0.0273534
0.0254925
0.0211752
0.013702
0.0083273
0.00555349
0.00356804
0.00130203
-0.0949248
-0.0786103
-0.0607688
-0.0397541
-0.0171075
0.00379231
0.0192571
0.0251135
0.0282868
0.0267825
0.0225693
0.0148948
0.00927558
0.00624234
0.00396363
0.00148053
-0.098147
-0.0808743
-0.0623448
-0.0406504
-0.0171868
0.00433238
0.0200208
0.0257255
0.0293556
0.0281998
0.0240379
0.0160986
0.0101898
0.00687998
0.00431919
0.00164011
-0.100367
-0.0825603
-0.0634869
-0.041215
-0.0169684
0.00503941
0.0212499
0.0268243
0.0308816
0.0299649
0.0257044
0.0173922
0.0111285
0.00751433
0.00466605
0.00179223
-0.10218
-0.0837423
-0.0643635
-0.04151
-0.0163523
0.00622637
0.0226576
0.0280836
0.0325658
0.0318451
0.0274072
0.0186578
0.0120111
0.00809236
0.00497574
0.00192888
-0.10331
-0.0845401
-0.0650224
-0.0416105
-0.0154557
0.00758271
0.0245841
0.0298893
0.0347273
0.0340494
0.029263
0.019972
0.0128967
0.00866139
0.0052783
0.00206045
-0.104222
-0.0851409
-0.0655927
-0.0414319
-0.014068
0.00948177
0.026705
0.031898
0.03706
0.0363418
0.031109
0.0212229
0.0137124
0.00917459
0.00554829
0.00217985
-0.104813
-0.0857298
-0.0662896
-0.0411525
-0.0123703
0.0115784
0.0293773
0.0345015
0.0398747
0.0389201
0.0330566
0.0224873
0.0145186
0.00967869
0.00581443
0.00229647
-0.105557
-0.086609
-0.0671672
-0.0405794
-0.0101042
0.014257
0.032261
0.0373539
0.0428658
0.0415488
0.0349462
0.0236614
0.01525
0.0101317
0.00605338
0.00240378
-0.106565
-0.0881445
-0.0686064
-0.0399834
-0.00754537
0.0171472
0.0356871
0.040823
0.0463226
0.0444101
0.0368848
0.0248225
0.0159668
0.0105782
0.00629176
0.00250992
-0.108321
-0.0906114
-0.0704323
-0.0390438
-0.00441308
0.0205931
0.0393231
0.0445818
0.0499503
0.0472748
0.0387211
0.0258779
0.0166111
0.0109805
0.00650801
0.00260891
-0.111192
-0.0946852
-0.0731178
-0.0381033
-0.00104734
0.0242772
0.0434775
0.0489744
0.0540143
0.0503103
0.0405599
0.0269062
0.0172429
0.011381
0.00672697
0.00270791
-0.11551
-0.100502
-0.0762
-0.0367997
0.00275754
0.0284661
0.0479454
0.0537221
0.0582325
0.0532932
0.0422593
0.0278244
0.0178097
0.0117452
0.00692822
0.00280137
-0.122237
-0.109026
-0.0801718
-0.0355409
0.00661615
0.032914
0.0530622
0.0591572
0.0628407
0.0563706
0.0439208
0.0287108
0.0183697
0.0121121
0.00713445
0.00289539
-0.131002
-0.119924
-0.0843843
-0.034052
0.0107359
0.0379587
0.0586992
0.0650429
0.0675727
0.0593311
0.0454157
0.0294924
0.0188747
0.0124497
0.00732638
0.0029849
-0.142606
-0.133544
-0.0893562
-0.032617
0.0150429
0.0436569
0.0650538
0.0715989
0.0726037
0.0622987
0.0468432
0.0302467
0.0193805
0.0127945
0.00752515
0.00307531
-0.156046
-0.149424
-0.0941701
-0.0303083
0.0202677
0.0503852
0.0720109
0.0784008
0.0776281
0.0650726
0.0480899
0.0309082
0.019842
0.0131161
0.0077122
0.00316189
-0.169412
-0.166938
-0.0984245
-0.0268604
0.026256
0.0579307
0.079341
0.0850279
0.0826242
0.0677496
0.0492598
0.0315546
0.0203121
0.013448
0.00790708
0.00324933
-0.182913
-0.179951
-0.100588
-0.0220644
0.0316558
0.0656213
0.0860319
0.0906068
0.0871311
0.0701317
0.0502598
0.0321281
0.0207476
0.0137611
0.00809206
0.00333334
-0.199358
-0.183811
-0.0983757
-0.0161322
0.0356799
0.071967
0.0916204
0.0948519
0.0910657
0.0722913
0.051193
0.0327044
0.021199
0.0140869
0.00828548
0.00341809
-0.208043
-0.179396
-0.0893553
-0.00888125
0.0394428
0.0767733
0.0958305
0.097899
0.0943097
0.0741271
0.0519838
0.0332257
0.021622
0.0143967
0.00847013
0.00349978
-0.195766
-0.164576
-0.0741551
-0.00134102
0.0431274
0.0797819
0.098952
0.100174
0.0970882
0.0758098
0.0527389
0.0337542
0.0220589
0.0147171
0.00866186
0.00358196
-0.161682
-0.138313
-0.0560255
0.00568726
0.0465113
0.0809936
0.100574
0.101613
0.0993246
0.0773047
0.0533912
0.0342199
0.0224562
0.0150146
0.00884105
0.00365995
-0.112863
-0.103899
-0.0388238
0.0113252
0.0479285
0.0800326
0.1006
0.10216
0.100975
0.0787294
0.0540549
0.0346872
0.0228542
0.0153133
0.00902164
0.00373627
-0.0593301
-0.0654458
-0.0231312
0.0158745
0.0469798
0.0770898
0.098841
0.101694
0.101884
0.0800224
0.0546917
0.0351108
0.023213
0.0155874
0.00918825
0.00380764
-0.0127832
-0.0296539
-0.0109144
0.0180533
0.0438268
0.072394
0.0955693
0.100264
0.101993
0.0812127
0.0554073
0.0355679
0.0235807
0.015864
0.00935628
0.00387706
0.0182245
-0.00405041
-0.00346081
0.0173333
0.039237
0.0665944
0.0909883
0.0979303
0.101247
0.0822006
0.0561534
0.0360218
0.0239229
0.0161208
0.0095125
0.00394206
0.0323342
0.00876229
-0.0012473
0.013411
0.0333515
0.0600159
0.0855333
0.0947469
0.0996292
0.0829427
0.0570037
0.0365493
0.0242895
0.0163848
0.0096722
0.00400582
0.0347411
0.0128518
-0.00208482
0.00801381
0.0268933
0.0530749
0.0794134
0.0908203
0.0972466
0.0833442
0.0578892
0.0371127
0.0246476
0.0166346
0.0098227
0.00406613
0.0301183
0.0117793
-0.00472473
0.00178822
0.0199421
0.0458442
0.0728862
0.0862729
0.0942159
0.0833417
0.0588422
0.0377793
0.0250468
0.0168958
0.00997803
0.00412601
0.0217178
0.00768066
-0.00792004
-0.00411497
0.0131701
0.0386743
0.0661259
0.0813041
0.0906968
0.0828876
0.0597787
0.0385081
0.0254566
0.0171484
0.010126
0.00418311
0.011142
0.00151615
-0.0114413
-0.00939508
0.00682518
0.0317856
0.0594169
0.0760604
0.0867529
0.0819339
0.0606973
0.0393535
0.025927
0.0174182
0.0102798
0.0042403
-0.000692829
-0.00590724
-0.0149216
-0.0134628
0.00151211
0.025571
0.0529643
0.0707735
0.082572
0.0805013
0.061505
0.0402639
0.0264284
0.0176869
0.0104279
0.00429505
-0.0130035
-0.0141908
-0.0187505
-0.0166831
-0.00284361
0.0201053
0.0469821
0.0655677
0.0782391
0.0785753
0.0621654
0.0412664
0.0270061
0.01798
0.0105827
0.00435024
-0.0244885
-0.0226499
-0.0228299
-0.0190562
-0.00605109
0.0155703
0.0415326
0.0605985
0.073935
0.0762486
0.062591
0.0422947
0.0276297
0.0182824
0.0107342
0.00440318
-0.0341928
-0.0303917
-0.0270113
-0.0210422
-0.00847616
0.0117963
0.0366709
0.0558757
0.0696608
0.0735375
0.0627321
0.0433433
0.0283338
0.01862
0.0108951
0.004457
-0.041601
-0.0368406
-0.0308554
-0.0226849
-0.0101703
0.00879356
0.0323421
0.0514683
0.0655277
0.0705893
0.0625346
0.0443303
0.0290787
0.0189785
0.011057
0.00450903
-0.0469903
-0.0417445
-0.0342329
-0.0242516
-0.0114982
0.00633527
0.0285587
0.0473449
0.0614975
0.067435
0.061965
0.0452205
0.0298773
0.0193787
0.011232
0.00456291
-0.0506178
-0.0453352
-0.0369593
-0.0255939
-0.012416
0.00447008
0.0252467
0.0435449
0.057679
0.0642321
0.0610297
0.0459394
0.0306806
0.0198062
0.0114142
0.0046163
-0.0530972
-0.0477763
-0.0389876
-0.0267239
-0.0131169
0.00298352
0.0224175
0.0400328
0.0539984
0.0609781
0.0597247
0.0464453
0.0314805
0.0202734
0.0116152
0.00467376
-0.0547233
-0.0494278
-0.0403794
-0.0275032
-0.0135229
0.0019391
0.0199804
0.0368331
0.0505453
0.0577983
0.0581164
0.0466939
0.0322222
0.0207608
0.0118298
0.00473353
-0.055964
-0.0504887
-0.0411643
-0.0278781
-0.0137075
0.00115288
0.0179413
0.033925
0.047224
0.0546458
0.0562216
0.0466541
0.0328796
0.0212662
0.0120652
0.00480093
-0.0567705
-0.0510618
-0.0413424
-0.0278186
-0.0136231
0.000658659
0.0161924
0.0312817
0.0441128
0.0516215
0.0541388
0.0463285
0.0334081
0.0217666
0.0123168
0.00487496
-0.0573106
-0.0511291
-0.0410377
-0.0274079
-0.013468
0.000196885
0.0146761
0.0288559
0.0411099
0.0486592
0.0518802
0.0457049
0.0337782
0.0222465
0.0125855
0.00496154
-0.0571602
-0.0506246
-0.0403423
-0.0269738
-0.0134043
-0.000273235
0.0132451
0.0265847
0.0382908
0.0458517
0.0495554
0.0448305
0.0339679
0.0226817
0.0128643
0.00505965
-0.0564773
-0.049646
-0.039564
-0.0266549
-0.0135484
-0.000909147
0.0118815
0.0244458
0.0355802
0.0431222
0.0471612
0.0437056
0.0339526
0.0230451
0.013144
0.00517407
-0.0553305
-0.0484625
-0.0387664
-0.0264861
-0.013842
-0.00160454
0.0105288
0.0224118
0.033042
0.0405483
0.0447967
0.0424073
0.0337437
0.0233215
0.0134165
0.00530274
-0.0542375
-0.0473261
-0.0380598
-0.0263765
-0.0142246
-0.0024169
0.00918921
0.020465
0.0305977
0.038036
0.0424267
0.0409294
0.033325
0.0234813
0.0136639
0.00544765
-0.0532491
-0.0463369
-0.0374229
-0.0263413
-0.0146878
-0.00329105
0.00780931
0.0185597
0.0282783
0.0356517
0.0401322
0.0393568
0.0327346
0.0235247