/*--------------------------------*- C++ -*----------------------------------*\
  =========                 |
  \\      /  F ield         | OpenFOAM: The Open Source CFD Toolbox
   \\    /   O peration     | Website:  https://openfoam.org
    \\  /    A nd           | Version:  6.0
     \\/     M anipulation  |
\*---------------------------------------------------------------------------*/
FoamFile
{
    version     2.0;
    format      ascii;
    class       surfaceScalarField;
    location    "6";
    object      phi;
}
// * * * * * * * * * * * * * * * * * * * * * * * * * * * * * * * * * * * * * //

dimensions      [0 3 -1 0 0 0 0];

internalField   nonuniform List<scalar> 
123526
(
-5.4127e-05
2.30591e-05
5.45269e-05
-5.37005e-05
2.49383e-05
-5.32478e-05
2.69709e-05
-5.2756e-05
2.91694e-05
-5.22329e-05
3.15474e-05
-5.16644e-05
3.41196e-05
-5.10574e-05
3.6902e-05
-5.03982e-05
3.99118e-05
-4.96912e-05
4.31667e-05
-4.89226e-05
4.66878e-05
-4.80956e-05
5.04977e-05
-4.71979e-05
5.46193e-05
-4.62289e-05
5.90785e-05
-4.51748e-05
6.39007e-05
-4.40307e-05
6.91172e-05
-4.27894e-05
7.47652e-05
-4.14442e-05
8.08767e-05
-3.99782e-05
8.74832e-05
-3.83842e-05
9.46351e-05
-3.66555e-05
0.000102379
-3.47718e-05
0.00011075
-3.27216e-05
0.00011981
-3.0497e-05
0.000129622
-2.80685e-05
0.000140222
-2.54299e-05
0.000151705
-2.25596e-05
0.00016412
-1.94324e-05
0.000177547
-1.60366e-05
0.000192075
-1.23353e-05
0.00020777
-8.31884e-06
0.000224746
-3.94575e-06
0.000243074
8.00687e-07
0.000262875
5.95744e-06
0.000284237
1.15505e-05
0.000307277
1.76027e-05
0.000332104
2.41565e-05
0.000358808
3.12301e-05
0.00038752
3.88599e-05
0.000418318
4.70799e-05
0.000451293
5.59105e-05
0.000486527
6.53796e-05
0.000524058
7.55186e-05
0.000563889
8.63515e-05
0.000605988
9.79066e-05
0.000650234
0.00011022
0.000696404
0.000123337
0.000744125
0.000137306
0.000792823
0.000152181
0.000841649
0.000168001
0.000889411
0.00018478
0.000934498
0.000202474
0.000974825
0.000220977
0.00100779
0.000240083
0.00103025
0.000259498
0.00103845
0.000278852
0.00102784
0.000297666
0.000992928
0.000315385
0.000926808
0.000331438
0.00082085
0.000344368
0.000661438
0.000435583
0.000339437
-5.26541e-05
2.26749e-05
5.30449e-05
-5.22332e-05
2.4524e-05
-5.17846e-05
2.65242e-05
-5.12975e-05
2.86882e-05
-5.07783e-05
3.10292e-05
-5.02153e-05
3.35617e-05
-4.96142e-05
3.63015e-05
-4.89638e-05
3.92653e-05
-4.82673e-05
4.24698e-05
-4.75132e-05
4.59361e-05
-4.67035e-05
4.96872e-05
-4.58278e-05
5.37448e-05
-4.48842e-05
5.81342e-05
-4.38606e-05
6.28776e-05
-4.27509e-05
6.80074e-05
-4.15489e-05
7.3564e-05
-4.02471e-05
7.95757e-05
-3.8829e-05
8.60666e-05
-3.72874e-05
9.30953e-05
-3.56154e-05
0.000100709
-3.37933e-05
0.000108931
-3.18093e-05
0.000117829
-2.96563e-05
0.000127472
-2.73048e-05
0.000137873
-2.47499e-05
0.000149153
-2.19695e-05
0.000161343
-1.8941e-05
0.000174523
-1.56515e-05
0.000188789
-1.20671e-05
0.00020419
-8.17715e-06
0.00022086
-3.94329e-06
0.000238843
6.52421e-07
0.000258283
5.64488e-06
0.000279251
1.10559e-05
0.000301875
1.69078e-05
0.000326262
2.32408e-05
0.000352485
3.00727e-05
0.000380697
3.74404e-05
0.000410961
4.53798e-05
0.000443365
5.39153e-05
0.000478003
6.30803e-05
0.000514905
7.29148e-05
0.000554068
8.34527e-05
0.000595464
9.47344e-05
0.000638969
0.000106808
0.000684348
0.00011973
0.000731224
0.000133553
0.000779019
0.000148332
0.000826893
0.000164093
0.00087367
0.000180834
0.000917779
0.000198486
0.000957193
0.00021692
0.000989383
0.000235915
0.00101129
0.000255166
0.00101923
0.000274308
0.00100873
0.000292873
0.000974395
0.000310318
0.000909438
0.000326233
0.000805024
0.000335239
0.00065261
0.000441174
0.000329879
-5.25747e-05
2.22951e-05
5.29602e-05
-5.2156e-05
2.4111e-05
-5.17056e-05
2.60757e-05
-5.12138e-05
2.82014e-05
-5.06852e-05
3.05016e-05
-5.01095e-05
3.29905e-05
-4.94913e-05
3.56837e-05
-4.88205e-05
3.8598e-05
-4.80997e-05
4.1749e-05
-4.73191e-05
4.51581e-05
-4.64806e-05
4.88486e-05
-4.55755e-05
5.28414e-05
-4.46023e-05
5.71611e-05
-4.35504e-05
6.18271e-05
-4.24147e-05
6.68724e-05
-4.11902e-05
7.23408e-05
-3.98702e-05
7.82571e-05
-3.84396e-05
8.46376e-05
-3.68914e-05
9.15491e-05
-3.52199e-05
9.90393e-05
-3.34057e-05
0.000107119
-3.14379e-05
0.000115863
-2.93097e-05
0.000125347
-2.69922e-05
0.000135558
-2.44813e-05
0.000146646
-2.17552e-05
0.00015862
-1.87923e-05
0.000171563
-1.558e-05
0.00018558
-1.20859e-05
0.0002007
-8.29948e-06
0.000217077
-4.18434e-06
0.000234731
2.76853e-07
0.000253826
5.11743e-06
0.000274417
1.03617e-05
0.00029664
1.60311e-05
0.000320602
2.21675e-05
0.000346357
2.87904e-05
0.000374084
3.59389e-05
0.000403822
4.36527e-05
0.00043566
5.19613e-05
0.000469705
6.09048e-05
0.000505971
7.05306e-05
0.000544452
8.08805e-05
0.000585124
9.2002e-05
0.000627856
0.000103948
0.000672409
0.000116776
0.000718404
0.000130534
0.000765266
0.000145265
0.000812166
0.000160981
0.000857956
0.000177657
0.000901105
0.000195206
0.000939645
0.000213487
0.000971114
0.000232272
0.000992529
0.00025126
0.00100027
0.000270096
0.000989953
0.000288322
0.000956223
0.000305395
0.000892457
0.000320878
0.00078962
0.000330208
0.0006434
0.000442099
0.000329418
-5.27338e-05
2.19186e-05
5.31122e-05
-5.23206e-05
2.37016e-05
-5.18748e-05
2.56304e-05
-5.13874e-05
2.77174e-05
-5.08614e-05
2.99757e-05
-5.02874e-05
3.24196e-05
-4.96681e-05
3.50645e-05
-4.89947e-05
3.7927e-05
-4.82682e-05
4.10219e-05
-4.748e-05
4.43712e-05
-4.66304e-05
4.79984e-05
-4.57125e-05
5.19237e-05
-4.47233e-05
5.61714e-05
-4.36546e-05
6.07582e-05
-4.25002e-05
6.57179e-05
-4.12572e-05
7.10979e-05
-3.99186e-05
7.69193e-05
-3.84712e-05
8.31912e-05
-3.69086e-05
8.99882e-05
-3.52262e-05
9.73586e-05
-3.34057e-05
0.000105301
-3.14372e-05
0.000113897
-2.93146e-05
0.000123227
-2.701e-05
0.000133256
-2.45199e-05
0.000144159
-2.18233e-05
0.000155926
-1.88994e-05
0.000168643
-1.57359e-05
0.00018242
-1.23017e-05
0.000197269
-8.58643e-06
0.000213365
-4.55507e-06
0.000230703
-1.9164e-07
0.000249466
4.53933e-06
0.000269693
9.66151e-06
0.000291526
1.51991e-05
0.000315073
2.11943e-05
0.000340371
2.76683e-05
0.000367618
3.46625e-05
0.000396836
4.22188e-05
0.000428113
5.03702e-05
0.000461563
5.91607e-05
0.000497192
6.86413e-05
0.000534983
7.88579e-05
0.00057492
8.98606e-05
0.000616868
0.000101703
0.000660583
0.000114438
0.000705689
0.00012811
0.000751616
0.00014275
0.000797552
0.000158357
0.000842377
0.000174893
0.000884603
0.00019226
0.000922314
0.000210312
0.000953118
0.000228819
0.000974093
0.00024749
0.000981685
0.000265976
0.000971566
0.00028383
0.000938479
0.000300508
0.000875932
0.00031548
0.000774828
0.000326037
0.000633108
0.000439647
0.00032884
-5.26346e-05
2.15486e-05
5.30102e-05
-5.2228e-05
2.33003e-05
-5.17906e-05
2.51949e-05
-5.13132e-05
2.72447e-05
-5.07988e-05
2.94625e-05
-5.02376e-05
3.18625e-05
-4.96321e-05
3.44598e-05
-4.89728e-05
3.7271e-05
-4.82605e-05
4.03098e-05
-4.74857e-05
4.35988e-05
-4.6649e-05
4.71619e-05
-4.57422e-05
5.10185e-05
-4.47633e-05
5.51928e-05
-4.37027e-05
5.96988e-05
-4.25551e-05
6.45713e-05
-4.13173e-05
6.98612e-05
-3.99828e-05
7.55863e-05
-3.85389e-05
8.17486e-05
-3.69796e-05
8.84308e-05
-3.53011e-05
9.56818e-05
-3.34857e-05
0.000103488
-3.15247e-05
0.000111938
-2.94123e-05
0.000121117
-2.71223e-05
0.000130969
-2.46515e-05
0.000141691
-2.198e-05
0.000153257
-1.90876e-05
0.000165754
-1.59632e-05
0.000179299
-1.2576e-05
0.000193885
-8.9165e-06
0.000209709
-4.95056e-06
0.00022674
-6.6235e-07
0.000245182
3.98225e-06
0.000265054
9.0112e-06
0.000286506
1.4447e-05
0.000309646
2.03339e-05
0.000334492
2.66943e-05
0.000361266
3.35703e-05
0.000389969
4.10056e-05
0.000420686
4.90349e-05
0.000453542
5.77041e-05
0.00048853
6.7066e-05
0.000525629
7.71675e-05
0.000564826
8.80588e-05
0.000605983
9.97923e-05
0.000648856
0.000112417
0.000693069
0.000125971
0.000738065
0.000140477
0.000783049
0.000155924
0.000826929
0.000172268
0.00086826
0.000189403
0.000905179
0.000207181
0.000935352
0.000225377
0.000955919
0.000243707
0.000963389
0.000261831
0.000953493
0.00027931
0.000921051
0.000295605
0.000859718
0.000310086
0.00076041
0.000321357
0.000621926
0.000434954
0.00032613
-5.22544e-05
2.11872e-05
5.26179e-05
-5.18595e-05
2.29088e-05
-5.14347e-05
2.47707e-05
-5.09716e-05
2.67849e-05
-5.04728e-05
2.89639e-05
-4.99291e-05
3.13216e-05
-4.93423e-05
3.38731e-05
-4.87037e-05
3.66346e-05
-4.80131e-05
3.96188e-05
-4.7262e-05
4.28486e-05
-4.64491e-05
4.63484e-05
-4.55675e-05
5.01368e-05
-4.4613e-05
5.42377e-05
-4.35774e-05
5.86627e-05
-4.24538e-05
6.34476e-05
-4.12394e-05
6.86467e-05
-3.99271e-05
7.42747e-05
-3.85047e-05
8.03268e-05
-3.6966e-05
8.68935e-05
-3.53076e-05
9.40246e-05
-3.35124e-05
0.000101695
-3.15719e-05
0.000109999
-2.94812e-05
0.000119029
-2.72147e-05
0.000128704
-2.47699e-05
0.000139249
-2.21278e-05
0.000150618
-1.92691e-05
0.000162899
-1.6183e-05
0.000176216
-1.284e-05
0.000190545
-9.23088e-06
0.000206103
-5.32242e-06
0.000222834
-1.09977e-06
0.000240962
3.47333e-06
0.000260487
8.42242e-06
0.000281563
1.37735e-05
0.000304303
1.95701e-05
0.000328703
2.58353e-05
0.000355008
3.26121e-05
0.000383199
3.99447e-05
0.000413362
4.78687e-05
0.000445627
5.64306e-05
0.000479978
6.56833e-05
0.000516386
7.56736e-05
0.000554847
8.64507e-05
0.000595219
9.80642e-05
0.000637257
0.000110559
0.000680592
0.000123968
0.000724676
0.000138307
0.000768735
0.000153559
0.000811704
0.000169674
0.00085218
0.000186545
0.000888348
0.000204024
0.000917931
0.000221892
0.000938127
0.000239871
0.000945499
0.000257631
0.00093584
0.000274741
0.000904066
0.000290671
0.000843953
0.000304713
0.000746563
0.000316155
0.000610756
0.000429646
0.00032183
-5.16839e-05
2.08358e-05
5.2039e-05
-5.12995e-05
2.25285e-05
-5.08867e-05
2.43591e-05
-5.04373e-05
2.63391e-05
-4.99537e-05
2.8481e-05
-4.94274e-05
3.07984e-05
-4.88599e-05
3.33059e-05
-4.82425e-05
3.60197e-05
-4.7575e-05
3.89513e-05
-4.68486e-05
4.2124e-05
-4.60625e-05
4.55625e-05
-4.52088e-05
4.92845e-05
-4.42841e-05
5.33135e-05
-4.3279e-05
5.76587e-05
-4.21872e-05
6.23567e-05
-4.1005e-05
6.74655e-05
-3.97253e-05
7.29964e-05
-3.83355e-05
7.89383e-05
-3.68294e-05
8.53892e-05
-3.52033e-05
9.24e-05
-3.34402e-05
9.99338e-05
-3.1532e-05
0.000108093
-2.94735e-05
0.000116973
-2.72403e-05
0.000126473
-2.48298e-05
0.000136842
-2.22238e-05
0.000148014
-1.94036e-05
0.000160081
-1.63591e-05
0.000173174
-1.30614e-05
0.000187251
-9.50203e-06
0.000202547
-5.64824e-06
0.000218983
-1.48489e-06
0.000236803
3.02156e-06
0.000255985
7.90078e-06
0.000276692
1.31762e-05
0.000299035
1.88926e-05
0.000322994
2.50733e-05
0.000348834
3.17613e-05
0.000376519
3.90007e-05
0.00040613
4.68272e-05
0.000437807
5.52872e-05
0.000471524
6.44328e-05
0.000507246
7.43098e-05
0.000544976
8.49652e-05
0.000584568
9.6446e-05
0.00062578
0.000108793
0.000668247
0.000122034
0.000711436
0.00013618
0.000754588
0.000151211
0.000796671
0.000167072
0.000836316
0.000183657
0.000871758
0.000200822
0.000900771
0.000218351
0.000920609
0.000235978
0.000927891
0.000253379
0.000918472
0.000270129
0.000887348
0.000285712
0.000828423
0.000299367
0.000732938
0.000310669
0.000599498
0.000423651
0.000316678
-5.10059e-05
2.04919e-05
5.13499e-05
-5.06318e-05
2.21566e-05
-5.02294e-05
2.39567e-05
-4.97919e-05
2.59037e-05
-4.9321e-05
2.80098e-05
-4.88089e-05
3.02883e-05
-4.82569e-05
3.27537e-05
-4.76574e-05
3.54217e-05
-4.70094e-05
3.83027e-05
-4.63053e-05
4.14204e-05
-4.55432e-05
4.47997e-05
-4.47165e-05
4.84573e-05
-4.38202e-05
5.24166e-05
-4.28464e-05
5.6684e-05
-4.1787e-05
6.12972e-05
-4.06392e-05
6.63173e-05
-3.93949e-05
7.17527e-05
-3.8042e-05
7.75856e-05
-3.65733e-05
8.39218e-05
-3.49853e-05
9.08131e-05
-3.32609e-05
9.82113e-05
-3.13918e-05
0.000106225
-2.9373e-05
0.000114957
-2.71801e-05
0.000124282
-2.48107e-05
0.000134475
-2.2247e-05
0.000145453
-1.94707e-05
0.000157308
-1.64719e-05
0.000170178
-1.32226e-05
0.000184005
-9.71435e-06
0.000199042
-5.91518e-06
0.000215186
-1.81083e-06
0.000232701
2.63423e-06
0.000251546
7.44563e-06
0.000271887
1.26505e-05
0.000293838
1.82915e-05
0.000317359
2.43924e-05
0.00034274
3.09956e-05
0.000369922
3.81451e-05
0.000398987
4.58761e-05
0.000430083
5.42339e-05
0.000463175
6.32698e-05
0.000498219
7.30275e-05
0.000535228
8.35521e-05
0.000574055
9.48874e-05
0.000614458
0.000107071
0.00065608
0.000120126
0.000698399
0.00013406
0.000740677
0.00014885
0.000781907
0.00016444
0.000820758
0.000180728
0.000855509
0.00019757
0.000883985
0.000214759
0.00090349
0.000232035
0.000910699
0.000249084
0.000901527
0.000265487
0.000871068
0.000280739
0.000813331
0.000294052
0.000719815
0.000305077
0.000588735
0.000417931
0.00031115
-5.02617e-05
2.01562e-05
5.06019e-05
-4.98945e-05
2.17936e-05
-4.95004e-05
2.35642e-05
-4.90722e-05
2.54792e-05
-4.8612e-05
2.75507e-05
-4.81121e-05
2.97916e-05
-4.75741e-05
3.22162e-05
-4.69898e-05
3.484e-05
-4.63593e-05
3.76723e-05
-4.5674e-05
4.07371e-05
-4.49333e-05
4.40593e-05
-4.41295e-05
4.76549e-05
-4.32592e-05
5.15467e-05
-4.2313e-05
5.57388e-05
-4.12843e-05
6.02694e-05
-4.0169e-05
6.5203e-05
-3.89597e-05
7.05447e-05
-3.76436e-05
7.62705e-05
-3.62137e-05
8.24936e-05
-3.46659e-05
8.92665e-05
-3.2983e-05
9.65303e-05
-3.11566e-05
0.0001044
-2.91814e-05
0.000112984
-2.70331e-05
0.000122135
-2.47094e-05
0.000132154
-2.21923e-05
0.000142938
-1.94641e-05
0.000154583
-1.65149e-05
0.000167232
-1.3317e-05
0.00018081
-9.86243e-06
0.00019559
-6.11951e-06
0.000211445
-2.07337e-06
0.000228658
2.30806e-06
0.000247168
7.05432e-06
0.000267148
1.21889e-05
0.000288709
1.77557e-05
0.000311799
2.37775e-05
0.000336724
3.02964e-05
0.000363409
3.73553e-05
0.000391934
4.49888e-05
0.000422455
5.32412e-05
0.000454927
6.2162e-05
0.000489303
7.17932e-05
0.000525601
8.21776e-05
0.000563674
9.33559e-05
0.000603282
0.000105362
0.000644075
0.000118218
0.000685543
0.000131926
0.000726966
0.000146463
0.000767365
0.000161773
0.000805441
0.000177756
0.000839517
0.000194274
0.000867465
0.000211124
0.000886638
0.000228057
0.00089377
0.000244762
0.000884835
0.00026083
0.000855009
0.000275766
0.000798418
0.000288773
0.000706804
0.000299483
0.000578021
0.000411858
0.000305505
-4.94857e-05
1.98262e-05
4.98164e-05
-4.91264e-05
2.14367e-05
-4.87404e-05
2.31784e-05
-4.83209e-05
2.50621e-05
-4.78701e-05
2.70997e-05
-4.73803e-05
2.9304e-05
-4.68532e-05
3.16889e-05
-4.62815e-05
3.42697e-05
-4.56646e-05
3.70548e-05
-4.49954e-05
4.00682e-05
-4.42721e-05
4.33352e-05
-4.34885e-05
4.68708e-05
-4.26399e-05
5.06974e-05
-4.17184e-05
5.48164e-05
-4.07163e-05
5.9267e-05
-3.96305e-05
6.41166e-05
-3.84527e-05
6.93673e-05
-3.71707e-05
7.49887e-05
-3.57772e-05
8.11012e-05
-3.4268e-05
8.77582e-05
-3.26258e-05
9.48898e-05
-3.08421e-05
0.000102618
-2.89112e-05
0.000111055
-2.6809e-05
0.000120035
-2.45328e-05
0.00012988
-2.20649e-05
0.000140472
-1.93873e-05
0.000151908
-1.64902e-05
0.000164337
-1.33465e-05
0.000177669
-9.94774e-06
0.000192193
-6.26291e-06
0.000207763
-2.27794e-06
0.000224675
2.04136e-06
0.000242855
6.71946e-06
0.000262475
1.17835e-05
0.000283652
1.72746e-05
0.000306313
2.32157e-05
0.000330788
2.9648e-05
0.000356982
3.66133e-05
0.000384975
4.41455e-05
0.000414929
5.22875e-05
0.000446792
6.10869e-05
0.000480512
7.05842e-05
0.000516113
8.08196e-05
0.000553449
9.18314e-05
0.000592282
0.000103651
0.00063227
0.000116296
0.000672915
0.00012977
0.000713514
0.000144047
0.000753113
0.000159072
0.000790447
0.000174749
0.000823877
0.000190944
0.000851321
0.000207462
0.000870183
0.000224058
0.000877249
0.00024043
0.000868555
0.000256176
0.000839376
0.000270807
0.000783932
0.000283535
0.000694253
0.000293939
0.000567855
0.000406244
0.000299877
-4.86891e-05
1.95028e-05
4.90151e-05
-4.83363e-05
2.10871e-05
-4.79575e-05
2.28004e-05
-4.7546e-05
2.46534e-05
-4.71038e-05
2.66579e-05
-4.66238e-05
2.88264e-05
-4.61073e-05
3.11726e-05
-4.55471e-05
3.37115e-05
-4.4943e-05
3.64506e-05
-4.42874e-05
3.94141e-05
-4.35796e-05
4.26276e-05
-4.28126e-05
4.61049e-05
-4.1983e-05
4.98682e-05
-4.10822e-05
5.39165e-05
-4.01037e-05
5.82893e-05
-3.90435e-05
6.30573e-05
-3.78943e-05
6.82194e-05
-3.66435e-05
7.37388e-05
-3.52839e-05
7.97432e-05
-3.38111e-05
8.62865e-05
-3.22078e-05
9.32884e-05
-3.04655e-05
0.000100877
-2.85781e-05
0.00010917
-2.65217e-05
0.00011798
-2.42933e-05
0.000127654
-2.18751e-05
0.000138055
-1.92493e-05
0.000149284
-1.64058e-05
0.000161496
-1.33177e-05
0.000174583
-9.97667e-06
0.000188855
-6.35179e-06
0.00020414
-2.42821e-06
0.000220755
1.82444e-06
0.000238605
6.43468e-06
0.000257871
1.14253e-05
0.000278666
1.68385e-05
0.000300906
2.26962e-05
0.000324936
2.90385e-05
0.000350645
3.59065e-05
0.000378111
4.33328e-05
0.000407508
5.13589e-05
0.000438771
6.0031e-05
0.000471843
6.93875e-05
0.000506759
7.94666e-05
0.000543372
9.03043e-05
0.000581445
0.000101929
0.000620645
0.000114358
0.000660483
0.000127592
0.000700276
0.000141605
0.000739093
0.000156345
0.000775697
0.000171718
0.000808492
0.000187594
0.000835435
0.000203786
0.00085398
0.000220055
0.000860971
0.000236104
0.000852502
0.000251539
0.000823932
0.000265879
0.00076959
0.000278347
0.000681753
0.000288471
0.00055769
0.000400292
0.000294322
-4.78876e-05
1.91846e-05
4.82047e-05
-4.7542e-05
2.0743e-05
-4.71704e-05
2.24284e-05
-4.67666e-05
2.42512e-05
-4.63324e-05
2.62231e-05
-4.58608e-05
2.83563e-05
-4.53532e-05
3.06645e-05
-4.48032e-05
3.31624e-05
-4.42097e-05
3.58565e-05
-4.35667e-05
3.87711e-05
-4.28722e-05
4.19322e-05
-4.21208e-05
4.53528e-05
-4.13077e-05
4.90545e-05
-4.04261e-05
5.30337e-05
-3.94681e-05
5.7331e-05
-3.84312e-05
6.20197e-05
-3.73071e-05
6.70957e-05
-3.60842e-05
7.2516e-05
-3.47551e-05
7.8415e-05
-3.33154e-05
8.48476e-05
-3.17481e-05
9.17227e-05
-3.00445e-05
9.91743e-05
-2.81985e-05
0.000107325
-2.61863e-05
0.000115969
-2.40046e-05
0.000125474
-2.16355e-05
0.000135688
-1.90612e-05
0.000146712
-1.62716e-05
0.000158709
-1.32399e-05
0.000171554
-9.95738e-06
0.000185574
-6.3936e-06
0.000200578
-2.53451e-06
0.000216898
1.65268e-06
0.000234423
6.19085e-06
0.000253337
1.11065e-05
0.000273756
1.64389e-05
0.000295578
2.221e-05
0.000319169
2.84587e-05
0.000344401
3.52251e-05
0.00037135
4.25409e-05
0.000400198
5.04463e-05
0.000430871
5.89856e-05
0.000463311
6.81955e-05
0.000497557
7.81126e-05
0.000533465
8.87705e-05
0.000570799
0.000100196
0.000609233
0.000112405
0.000648291
0.000125396
0.000687305
0.000139145
0.000725367
0.000153601
0.000761271
0.000168674
0.000793453
0.000184238
0.000819917
0.000200111
0.000838163
0.000216061
0.000845088
0.000231798
0.00083685
0.000246934
0.0008089
0.000260992
0.000755667
0.000273218
0.000669691
0.000283091
0.000548036
0.000394816
0.000288865
-4.7082e-05
1.88731e-05
4.73973e-05
-4.67414e-05
2.04063e-05
-4.63759e-05
2.20642e-05
-4.59788e-05
2.38575e-05
-4.55523e-05
2.57973e-05
-4.50891e-05
2.78961e-05
-4.45912e-05
3.0167e-05
-4.4051e-05
3.26247e-05
-4.3469e-05
3.52745e-05
-4.28374e-05
3.81414e-05
-4.21562e-05
4.12513e-05
-4.14184e-05
4.46164e-05
-4.06214e-05
4.82578e-05
-3.97563e-05
5.21698e-05
-3.88177e-05
5.63932e-05
-3.78014e-05
6.10044e-05
-3.67008e-05
6.59962e-05
-3.55035e-05
7.13196e-05
-3.42027e-05
7.71157e-05
-3.27938e-05
8.34398e-05
-3.12603e-05
9.01907e-05
-2.95931e-05
9.75083e-05
-2.77863e-05
0.00010552
-2.58163e-05
0.000114001
-2.36795e-05
0.00012334
-2.13582e-05
0.000133369
-1.88346e-05
0.000144191
-1.60983e-05
0.000155975
-1.31228e-05
0.00016858
-9.89928e-06
0.000182353
-6.39742e-06
0.000197078
-2.60226e-06
0.000213105
1.51502e-06
0.000230308
5.98161e-06
0.000248876
1.08193e-05
0.000268923
1.60684e-05
0.000290333
2.17499e-05
0.000313492
2.79019e-05
0.000338253
3.45631e-05
0.000364693
4.17644e-05
0.000393
4.95447e-05
0.000423094
5.79468e-05
0.000454912
6.70058e-05
0.0004885
7.67565e-05
0.000523715
8.72311e-05
0.000560324
9.84548e-05
0.000598008
0.000110441
0.000636301
0.00012319
0.000674551
0.000136677
0.000711871
0.000150851
0.000747084
0.000165629
0.00077866
0.000180887
0.000804644
0.000196449
0.000822583
0.00021209
0.000829428
0.000227524
0.000821399
0.000242371
0.000794031
0.000256158
0.000741857
0.000268155
0.000657641
0.000277804
0.000538314
0.000388967
0.000283511
-4.62834e-05
1.85664e-05
4.65903e-05
-4.59497e-05
2.00746e-05
-4.5591e-05
2.17055e-05
-4.52011e-05
2.34696e-05
-4.4782e-05
2.5378e-05
-4.43268e-05
2.74427e-05
-4.3837e-05
2.96769e-05
-4.33061e-05
3.2095e-05
-4.27337e-05
3.47015e-05
-4.21133e-05
3.75214e-05
-4.14439e-05
4.05809e-05
-4.07196e-05
4.38915e-05
-3.99367e-05
4.7474e-05
-3.90878e-05
5.132e-05
-3.81665e-05
5.54712e-05
-3.71695e-05
6.00069e-05
-3.60899e-05
6.49167e-05
-3.49158e-05
7.01455e-05
-3.36406e-05
7.58413e-05
-3.22597e-05
8.20597e-05
-3.07571e-05
8.86893e-05
-2.91236e-05
9.5876e-05
-2.73536e-05
0.000103752
-2.54234e-05
0.000112072
-2.33295e-05
0.000121248
-2.10542e-05
0.000131095
-1.85798e-05
0.000141718
-1.58958e-05
0.000153292
-1.29759e-05
0.000165662
-9.81093e-06
0.00017919
-6.37102e-06
0.000193639
-2.64209e-06
0.000209377
1.40737e-06
0.000226263
5.79865e-06
0.000244488
1.05573e-05
0.000264169
1.5721e-05
0.000285173
2.13103e-05
0.000307906
2.73626e-05
0.000332205
3.39157e-05
0.000358144
4.09993e-05
0.000385921
4.86511e-05
0.000415448
5.69126e-05
0.000446657
6.58176e-05
0.000479603
7.53993e-05
0.000514143
8.56883e-05
0.000550046
9.67085e-05
0.000587001
0.000108473
0.000624552
0.00012098
0.000662063
0.000134207
0.000698666
0.000148106
0.000733212
0.000162594
0.000764204
0.000177553
0.000789726
0.000192813
0.000807373
0.000208153
0.000814147
0.000223293
0.000806334
0.000237859
0.00077956
0.000251385
0.000728452
0.000263162
0.000646012
0.00027261
0.000529063
0.000383584
0.000278262
-4.54896e-05
1.82658e-05
4.57923e-05
-4.51615e-05
1.97494e-05
-4.48092e-05
2.13538e-05
-4.44263e-05
2.30893e-05
-4.40148e-05
2.49668e-05
-4.35679e-05
2.69981e-05
-4.30872e-05
2.91963e-05
-4.25658e-05
3.15754e-05
-4.20037e-05
3.41393e-05
-4.13939e-05
3.69131e-05
-4.07362e-05
3.99233e-05
-4.0024e-05
4.31805e-05
-3.92549e-05
4.67051e-05
-3.84205e-05
5.04866e-05
-3.75156e-05
5.45671e-05
-3.65365e-05
5.90286e-05
-3.54768e-05
6.3858e-05
-3.43245e-05
6.89942e-05
-3.30736e-05
7.45916e-05
-3.17193e-05
8.07064e-05
-3.02459e-05
8.72173e-05
-2.86443e-05
9.42755e-05
-2.6909e-05
0.000102018
-2.50167e-05
0.000110181
-2.29638e-05
0.000119197
-2.07327e-05
0.000128865
-1.83059e-05
0.000139293
-1.56729e-05
0.000150661
-1.28074e-05
0.000162799
-9.70056e-06
0.000176085
-6.32244e-06
0.000190262
-2.65818e-06
0.000205716
1.31975e-06
0.000222287
5.6372e-06
0.000240176
1.03149e-05
0.000259495
1.53915e-05
0.0002801
2.0887e-05
0.000302414
2.68376e-05
0.000326257
3.32802e-05
0.000351705
4.02438e-05
0.00037896
4.77649e-05
0.00040793
5.58836e-05
0.00043854
6.46327e-05
0.000470855
7.40438e-05
0.000504732
8.41463e-05
0.000539942
9.49632e-05
0.000576181
0.000106507
0.000613004
0.000118775
0.000649787
0.000131746
0.000685685
0.000145374
0.00071957
0.000159579
0.000749981
0.000174247
0.000775039
0.000189212
0.000792384
0.000204259
0.000799074
0.000219113
0.000791453
0.000233407
0.000765232
0.00024668
0.000715139
0.000258247
0.000634375
0.000267511
0.0005197
0.000377808
0.000273113
-4.47074e-05
1.79698e-05
4.50017e-05
-4.4386e-05
1.94293e-05
-4.40404e-05
2.10075e-05
-4.36646e-05
2.27148e-05
-4.32603e-05
2.45617e-05
-4.28211e-05
2.65602e-05
-4.23482e-05
2.87228e-05
-4.18357e-05
3.10637e-05
-4.12828e-05
3.35855e-05
-4.06837e-05
3.63139e-05
-4.0037e-05
3.92756e-05
-3.93376e-05
4.24802e-05
-3.85814e-05
4.5948e-05
-3.77619e-05
4.9666e-05
-3.68726e-05
5.36772e-05
-3.59109e-05
5.80661e-05
-3.48698e-05
6.28169e-05
-3.37381e-05
6.78626e-05
-3.25097e-05
7.33638e-05
-3.11801e-05
7.93775e-05
-2.97339e-05
8.57723e-05
-2.81623e-05
9.2705e-05
-2.64598e-05
0.000100317
-2.46034e-05
0.000108326
-2.25896e-05
0.000117184
-2.0401e-05
0.000126678
-1.80202e-05
0.000136914
-1.54366e-05
0.000148079
-1.26246e-05
0.000159989
-9.57465e-06
0.000173036
-6.2576e-06
0.000186947
-2.65953e-06
0.000202118
1.24996e-06
0.000218382
5.49072e-06
0.000235937
1.00874e-05
0.000254902
1.5076e-05
0.000275115
2.04763e-05
0.000297017
2.63238e-05
0.000320413
3.26545e-05
0.000345377
3.94966e-05
0.000372122
4.68856e-05
0.000400545
5.48604e-05
0.000430571
6.34525e-05
0.00046227
7.26927e-05
0.0004955
8.26091e-05
0.000530036
9.32237e-05
0.000565579
0.000104548
0.000601694
0.000116581
0.000637772
0.000129301
0.000672985
0.000142663
0.000706232
0.000156591
0.000736082
0.000170975
0.000760694
0.000185652
0.000777751
0.000200414
0.000784367
0.00021499
0.000776946
0.000229019
0.000751291
0.000242047
0.000702224
0.000253411
0.000623148
0.000262505
0.000510787
0.000372496
0.000268062
-4.39325e-05
1.76802e-05
4.42254e-05
-4.36158e-05
1.9116e-05
-4.32758e-05
2.06687e-05
-4.29062e-05
2.23483e-05
-4.25092e-05
2.41653e-05
-4.20778e-05
2.61314e-05
-4.1614e-05
2.82592e-05
-4.11106e-05
3.05624e-05
-4.05682e-05
3.3043e-05
-3.99794e-05
3.57268e-05
-3.93445e-05
3.86407e-05
-3.86567e-05
4.17937e-05
-3.79142e-05
4.52056e-05
-3.71085e-05
4.88613e-05
-3.6235e-05
5.28043e-05
-3.52899e-05
5.71219e-05
-3.42674e-05
6.17952e-05
-3.31558e-05
6.67519e-05
-3.19496e-05
7.21587e-05
-3.06441e-05
7.80729e-05
-2.92243e-05
8.43537e-05
-2.76816e-05
9.11633e-05
-2.60106e-05
9.86477e-05
-2.41887e-05
0.000106505
-2.22125e-05
0.00011521
-2.00647e-05
0.000124531
-1.77284e-05
0.00013458
-1.51929e-05
0.000145545
-1.24328e-05
0.00015723
-9.43903e-06
0.000170044
-6.18237e-06
0.000183691
-2.6482e-06
0.000198586
1.18981e-06
0.000214544
5.35634e-06
0.000231775
9.87104e-06
0.00025039
1.47712e-05
0.000270218
2.00758e-05
0.000291715
2.58197e-05
0.000314672
3.20379e-05
0.000339162
3.87578e-05
0.000365405
4.60141e-05
0.000393291
5.38446e-05
0.000422741
6.22799e-05
0.000453835
7.13496e-05
0.00048643
8.10811e-05
0.000520303
9.14953e-05
0.000555161
0.000102604
0.000590579
0.000114404
0.000625962
0.000126878
0.0006605
0.00013998
0.000693114
0.000153638
0.000722404
0.000167744
0.000746565
0.000182141
0.000763326
0.000196624
0.000769852
0.000210929
0.000762607
0.0002247
0.000737477
0.00023749
0.000689382
0.000248657
0.000611897
0.000257592
0.000501733
0.000366781
0.000263105
-4.31725e-05
1.7395e-05
4.34572e-05
-4.28622e-05
1.88074e-05
-4.25287e-05
2.03349e-05
-4.21659e-05
2.19872e-05
-4.1776e-05
2.37748e-05
-4.1352e-05
2.57091e-05
-4.08959e-05
2.78026e-05
-4.04011e-05
3.00687e-05
-3.98677e-05
3.25087e-05
-3.92893e-05
3.51485e-05
-3.86652e-05
3.80154e-05
-3.79898e-05
4.11176e-05
-3.72599e-05
4.44745e-05
-3.64685e-05
4.80689e-05
-3.561e-05
5.19449e-05
-3.46813e-05
5.61925e-05
-3.36763e-05
6.079e-05
-3.25839e-05
6.56595e-05
-3.13986e-05
7.09738e-05
-3.01159e-05
7.67908e-05
-2.87213e-05
8.296e-05
-2.7206e-05
8.96491e-05
-2.55652e-05
9.70082e-05
-2.37764e-05
0.000104717
-2.18364e-05
0.000113271
-1.97281e-05
0.000122424
-1.74348e-05
0.000132288
-1.49461e-05
0.000143058
-1.22368e-05
0.000154522
-9.29777e-06
0.000167106
-6.10042e-06
0.000180495
-2.63122e-06
0.000195118
1.13915e-06
0.000210778
5.2293e-06
0.000227686
9.66299e-06
0.00024596
1.44747e-05
0.000265409
1.96837e-05
0.000286508
2.53237e-05
0.000309034
3.14292e-05
0.000333059
3.8027e-05
0.00035881
4.51508e-05
0.000386171
5.28375e-05
0.00041506
6.11167e-05
0.000445562
7.00172e-05
0.000477537
7.95655e-05
0.000510763
8.97818e-05
0.000544955
0.000100678
0.000579697
0.000112251
0.000614404
0.000124482
0.000648287
0.00013733
0.000680287
0.000150724
0.000709036
0.000164559
0.000732763
0.000178682
0.000749242
0.000192894
0.000755688
0.000206933
0.000748629
0.000220453
0.000724037
0.000233011
0.000676925
0.000243986
0.000601045
0.000252771
0.000493109
0.000361528
0.000258241
-4.24227e-05
1.71154e-05
4.27037e-05
-4.21177e-05
1.8505e-05
-4.17903e-05
2.00078e-05
-4.14341e-05
2.16334e-05
-4.10513e-05
2.33921e-05
-4.06353e-05
2.52952e-05
-4.01879e-05
2.73549e-05
-3.97021e-05
2.95847e-05
-3.91785e-05
3.19847e-05
-3.861e-05
3.45815e-05
-3.79969e-05
3.74022e-05
-3.73327e-05
4.04545e-05
-3.66155e-05
4.37574e-05
-3.58373e-05
4.72915e-05
-3.49936e-05
5.11017e-05
-3.40807e-05
5.52804e-05
-3.30932e-05
5.98033e-05
-3.20199e-05
6.4587e-05
-3.08554e-05
6.98103e-05
-2.95953e-05
7.55316e-05
-2.82253e-05
8.15912e-05
-2.67371e-05
8.81618e-05
-2.51256e-05
9.53979e-05
-2.3369e-05
0.000102962
-2.14641e-05
0.000111368
-1.93941e-05
0.000120356
-1.71427e-05
0.000130038
-1.46994e-05
0.000140616
-1.20397e-05
0.000151864
-9.15452e-06
0.000164222
-6.01559e-06
0.000177357
-2.60866e-06
0.000191712
1.09145e-06
0.000207078
5.10838e-06
0.000223673
9.46082e-06
0.00024161
1.41847e-05
0.000260687
1.92984e-05
0.000281397
2.48352e-05
0.0003035
3.08286e-05
0.000327068
3.73049e-05
0.000352336
4.4297e-05
0.00037918
5.18409e-05
0.000407516
5.99653e-05
0.000437437
6.86984e-05
0.000468802
7.80658e-05
0.000501393
8.80873e-05
0.000534929
9.87738e-05
0.000569003
0.000110123
0.000603044
0.000122118
0.000636278
0.000134717
0.00066767
0.000147854
0.000695878
0.000161423
0.000719168
0.000175279
0.000735355
0.000189226
0.000741706
0.000203006
0.000734808
0.00021628
0.000710714
0.000228612
0.000664531
0.0002394
0.00059016
0.00024804
0.000484332
0.000355876
0.000253466
-4.16883e-05
1.68402e-05
4.19611e-05
-4.13895e-05
1.82073e-05
-4.10684e-05
1.96857e-05
-4.07189e-05
2.12849e-05
-4.0343e-05
2.30151e-05
-3.99342e-05
2.48875e-05
-3.94941e-05
2.6914e-05
-3.90168e-05
2.91079e-05
-3.85019e-05
3.14687e-05
-3.79436e-05
3.4023e-05
-3.73409e-05
3.67983e-05
-3.66888e-05
3.98014e-05
-3.59838e-05
4.30511e-05
-3.52195e-05
4.65261e-05
-3.43903e-05
5.02716e-05
-3.34934e-05
5.43827e-05
-3.25228e-05
5.88325e-05
-3.14679e-05
6.35321e-05
-3.03234e-05
6.86663e-05
-2.9085e-05
7.42938e-05
-2.77389e-05
8.0246e-05
-2.62767e-05
8.67005e-05
-2.46936e-05
9.3816e-05
-2.29682e-05
0.000101237
-2.10975e-05
0.000109498
-1.90648e-05
0.000118324
-1.68541e-05
0.000127829
-1.44553e-05
0.000138219
-1.18441e-05
0.000149254
-9.01142e-06
0.000161391
-5.92973e-06
0.000174276
-2.58593e-06
0.000188369
1.0482e-06
0.000203447
4.99021e-06
0.000219732
9.26302e-06
0.000237339
1.38998e-05
0.000256052
1.89191e-05
0.00027638
2.43533e-05
0.000298068
3.02356e-05
0.000321188
3.65914e-05
0.000345983
4.3453e-05
0.000372322
5.08555e-05
0.000400118
5.88271e-05
0.00042947
6.73949e-05
0.00046024
7.65842e-05
0.000492211
8.6414e-05
0.000525108
9.68952e-05
0.000558533
0.000108026
0.000591927
0.000119789
0.00062453
0.000132145
0.000655332
0.00014503
0.000683017
0.00015834
0.000705886
0.000171935
0.000721796
0.000185621
0.000728064
0.000199148
0.000721339
0.000212182
0.000697755