/*--------------------------------*- C++ -*----------------------------------*\
  =========                 |
  \\      /  F ield         | OpenFOAM: The Open Source CFD Toolbox
   \\    /   O peration     | Website:  https://openfoam.org
    \\  /    A nd           | Version:  6.0
     \\/     M anipulation  |
\*---------------------------------------------------------------------------*/
FoamFile
{
    version     2.0;
    format      ascii;
    class       volVectorField;
    location    "6";
    object      U;
}
// * * * * * * * * * * * * * * * * * * * * * * * * * * * * * * * * * * * * * //

dimensions      [0 1 -1 0 0 0 0];

internalField   nonuniform List<vector> 
62000
(
(0.984921 0.170993 -4.46394e-21)
(0.984959 0.171122 3.75214e-21)
(0.98499 0.171259 3.86979e-21)
(0.985013 0.171394 -1.70904e-20)
(0.98503 0.171534 -1.9597e-20)
(0.985041 0.171679 6.84902e-20)
(0.985044 0.171825 -7.57762e-20)
(0.985042 0.171974 4.44195e-20)
(0.985034 0.172123 -2.08528e-20)
(0.985022 0.172273 -1.07119e-19)
(0.985005 0.172421 -1.32339e-20)
(0.984986 0.172567 1.52478e-19)
(0.984964 0.172709 3.10954e-20)
(0.98494 0.172847 -1.10181e-19)
(0.984916 0.172978 1.72989e-19)
(0.984892 0.173102 -9.26584e-20)
(0.984868 0.173219 9.65392e-20)
(0.984845 0.173327 -1.1449e-19)
(0.984823 0.173425 5.68362e-20)
(0.984802 0.173515 -1.77504e-19)
(0.984784 0.173594 2.34117e-19)
(0.984767 0.173663 7.01047e-20)
(0.984752 0.173721 1.02696e-19)
(0.984738 0.173768 -4.69134e-19)
(0.984727 0.173804 1.7406e-19)
(0.984718 0.173827 -1.08957e-19)
(0.984712 0.173839 -1.62364e-21)
(0.984708 0.173837 -9.05271e-20)
(0.984707 0.173822 2.83973e-19)
(0.984709 0.173793 -1.60902e-19)
(0.984713 0.17375 3.91396e-19)
(0.984721 0.173689 -8.15435e-19)
(0.984734 0.173605 7.76703e-20)
(0.984752 0.173508 -2.65333e-19)
(0.984774 0.173405 -8.45694e-20)
(0.984797 0.173307 -2.61238e-19)
(0.984821 0.17322 -7.55035e-20)
(0.984842 0.173155 -7.4159e-20)
(0.984858 0.17312 2.46091e-19)
(0.984865 0.173126 1.1073e-18)
(0.984855 0.173184 -2.62893e-19)
(0.98482 0.173302 -1.52903e-18)
(0.984748 0.173483 -2.49407e-18)
(0.984624 0.173716 1.41866e-18)
(0.984433 0.173975 4.36829e-19)
(0.984154 0.174211 -2.39928e-18)
(0.983771 0.174349 6.83443e-19)
(0.983267 0.174292 -1.235e-18)
(0.98264 0.17393 -6.68256e-18)
(0.981896 0.17316 -1.76355e-18)
(0.981069 0.171901 -1.02289e-18)
(0.980218 0.170126 -1.40691e-17)
(0.979429 0.16786 2.03373e-18)
(0.978806 0.165193 1.6966e-17)
(0.978445 0.16222 4.36568e-18)
(0.978442 0.159013 1.42744e-17)
(0.978873 0.155518 -1.48852e-18)
(0.979739 0.151526 -2.16668e-18)
(0.982378 0.145838 4.364e-18)
(0.957665 0.134145 6.74125e-19)
(0.985128 0.16976 -1.17516e-21)
(0.985235 0.169794 1.12881e-20)
(0.985335 0.169896 4.63311e-21)
(0.985431 0.169985 -2.03314e-20)
(0.985519 0.170085 8.4826e-21)
(0.985599 0.170194 -5.87071e-20)
(0.985667 0.17031 5.43362e-20)
(0.985721 0.170436 3.15193e-20)
(0.985761 0.170571 -5.95048e-20)
(0.985786 0.170714 2.66212e-21)
(0.985796 0.170864 5.84791e-20)
(0.985791 0.171022 8.51447e-23)
(0.985774 0.171184 1.70136e-20)
(0.985744 0.171351 -1.48051e-19)
(0.985703 0.17152 3.0012e-19)
(0.985655 0.17169 -2.68106e-19)
(0.985599 0.17186 1.27121e-19)
(0.985538 0.172028 -2.68966e-20)
(0.985474 0.172193 -7.48615e-20)
(0.985408 0.172356 2.09195e-19)
(0.985342 0.172513 -3.3423e-19)
(0.985276 0.172668 1.96726e-19)
(0.98521 0.172817 -2.54209e-19)
(0.985147 0.172961 1.52891e-19)
(0.985086 0.173101 1.44471e-19)
(0.985027 0.173237 -9.64017e-20)
(0.98497 0.17337 -9.39045e-22)
(0.984917 0.173501 1.10043e-19)
(0.984866 0.17363 9.42502e-20)
(0.984817 0.17376 -1.97547e-19)
(0.984769 0.173889 4.06885e-19)
(0.984722 0.174013 8.42926e-20)
(0.984685 0.174132 2.61692e-19)
(0.984658 0.174266 1.79733e-20)
(0.984639 0.174425 6.99618e-20)
(0.98462 0.174627 -8.02343e-20)
(0.984597 0.174881 -2.40431e-19)
(0.984563 0.175195 -1.19734e-19)
(0.984512 0.175573 -6.39223e-19)
(0.984435 0.176017 -7.30529e-19)
(0.984318 0.176519 5.57802e-19)
(0.984145 0.17706 3.64287e-19)
(0.983894 0.177603 2.54961e-18)
(0.983537 0.178084 1.31613e-19)
(0.983047 0.178413 -4.33818e-18)
(0.982393 0.178463 1.93736e-18)
(0.981553 0.178083 1.97236e-18)
(0.980516 0.177108 2.39126e-18)
(0.979292 0.175387 8.68341e-19)
(0.97792 0.172815 2.03972e-19)
(0.976481 0.169357 5.86951e-18)
(0.975091 0.165082 1.73609e-17)
(0.97391 0.160137 -1.2363e-17)
(0.973117 0.15474 -3.0272e-17)
(0.972865 0.149098 -7.24305e-18)
(0.97331 0.143337 -4.8141e-18)
(0.974596 0.137439 -1.04385e-17)
(0.976552 0.131121 -4.75376e-18)
(0.982932 0.124152 6.53812e-18)
(0.945919 0.110659 2.09647e-18)
(0.985006 0.173648 -5.52597e-21)
(0.98507 0.173492 -7.17272e-22)
(0.985142 0.173451 9.2073e-22)
(0.985226 0.173391 3.94505e-21)
(0.98532 0.173333 1.10885e-20)
(0.98542 0.173278 -1.06101e-20)
(0.985521 0.173227 5.64231e-20)
(0.985621 0.173181 -2.73052e-20)
(0.985715 0.173141 -1.47978e-20)
(0.9858 0.173107 -9.06602e-20)
(0.985872 0.173081 7.72812e-20)
(0.98593 0.173063 5.69015e-21)
(0.985972 0.173053 -1.80885e-20)
(0.985997 0.173053 4.846e-20)
(0.986006 0.173062 -8.37993e-20)
(0.985998 0.173081 4.50616e-22)
(0.985974 0.17311 -3.96787e-20)
(0.985937 0.17315 4.76533e-22)
(0.985888 0.173199 9.45789e-20)
(0.985829 0.173261 -1.46418e-19)
(0.985762 0.173333 9.24419e-20)
(0.985689 0.173417 3.68306e-19)
(0.98561 0.173513 -4.76279e-20)
(0.985529 0.173623 -5.29349e-19)
(0.985446 0.173745 2.76314e-19)
(0.985361 0.173883 -1.53844e-19)
(0.985277 0.174037 2.54616e-19)
(0.985193 0.174211 -1.56746e-19)
(0.985108 0.174406 -3.18077e-19)
(0.985024 0.174625 3.46181e-19)
(0.984937 0.174868 -2.48391e-19)
(0.984849 0.175129 3.38041e-19)
(0.984771 0.175422 -9.38015e-19)
(0.984709 0.175761 8.20116e-19)
(0.984658 0.176148 -4.30038e-19)
(0.984613 0.1766 1.75926e-19)
(0.984566 0.177123 1.31779e-19)
(0.984513 0.17772 -9.95516e-23)
(0.984449 0.178387 -1.48955e-20)
(0.984368 0.179112 7.34208e-19)
(0.98426 0.179873 -2.92323e-19)
(0.984113 0.18063 4.68995e-19)
(0.983908 0.181322 -1.59294e-18)
(0.983625 0.181865 -8.05469e-19)
(0.98324 0.182141 1.15372e-18)
(0.982729 0.182008 -3.20663e-18)
(0.982071 0.181307 6.16975e-19)
(0.981257 0.179881 -3.69597e-18)
(0.980294 0.177605 5.92736e-18)
(0.97921 0.174421 1.85208e-18)
(0.978075 0.170348 5.89188e-19)
(0.976986 0.165524 -7.64988e-19)
(0.976093 0.160164 4.67768e-18)
(0.975564 0.154536 2.53768e-18)
(0.975549 0.148904 -9.04834e-18)
(0.976202 0.143443 -5.80775e-18)
(0.977677 0.13825 -2.33361e-18)
(0.979606 0.13313 -9.6458e-18)
(0.986619 0.129533 -1.43729e-18)
(0.958993 0.127032 3.22101e-19)
(0.984625 0.178055 -5.37783e-21)
(0.984606 0.177829 1.64357e-20)
(0.984601 0.177715 -2.62273e-21)
(0.984616 0.177582 -1.68124e-20)
(0.984654 0.177442 2.52452e-20)
(0.984711 0.1773 4.31953e-20)
(0.984787 0.177153 -5.7007e-20)
(0.984878 0.177004 6.159e-21)
(0.98498 0.176854 1.96467e-20)
(0.985089 0.176703 4.10505e-20)
(0.985201 0.176551 -7.67615e-20)
(0.985312 0.176403 -2.37586e-20)
(0.985417 0.176257 -2.67633e-20)
(0.985513 0.176116 1.23335e-19)
(0.985596 0.17598 -8.3079e-20)
(0.985666 0.175853 1.96533e-19)
(0.985719 0.175735 -2.40909e-19)
(0.985755 0.17563 -3.61601e-20)
(0.985775 0.175539 2.61317e-19)
(0.985778 0.175465 -9.20663e-20)
(0.985766 0.175409 -3.42853e-20)
(0.985739 0.175374 -3.7381e-20)
(0.9857 0.175361 -3.46862e-19)
(0.98565 0.175374 2.01044e-19)
(0.985591 0.175412 -9.44277e-20)
(0.985524 0.17548 1.52803e-19)
(0.985451 0.175579 7.30532e-20)
(0.985374 0.175714 3.67533e-19)
(0.985292 0.175887 -2.33746e-19)
(0.985207 0.176102 -3.10995e-19)
(0.985117 0.176359 4.99556e-19)
(0.985026 0.17665 -4.15583e-19)
(0.984943 0.177005 7.68192e-19)
(0.984879 0.177419 -4.56207e-19)
(0.98483 0.177891 1.92692e-19)
(0.984793 0.178434 3.19127e-19)
(0.984764 0.179053 -1.30928e-19)
(0.984742 0.179746 1.46232e-19)
(0.984725 0.180503 -7.84841e-20)
(0.984713 0.181307 2.04695e-19)
(0.984701 0.182129 -6.05564e-19)
(0.984684 0.182922 1.69173e-19)
(0.984651 0.183619 3.56547e-19)
(0.98459 0.184131 8.02722e-19)
(0.984482 0.184342 1.28695e-18)
(0.984307 0.184114 5.82741e-19)
(0.984045 0.183303 1.97007e-18)
(0.983679 0.181773 2.49026e-18)
(0.983202 0.179428 2.72351e-18)
(0.982618 0.176242 -2.33745e-18)
(0.981969 0.172268 -4.3624e-18)
(0.981315 0.167671 2.24597e-18)
(0.980776 0.162692 2.88269e-18)
(0.980495 0.157612 1.21617e-17)
(0.980604 0.15272 8.53432e-18)
(0.981248 0.148225 8.94849e-18)
(0.982556 0.144298 1.72117e-17)
(0.984073 0.140752 1.9451e-18)
(0.990057 0.14032 -6.66197e-18)
(0.97335 0.145727 -3.2211e-18)
(0.984197 0.181264 1.02926e-20)
(0.984122 0.181046 -3.54319e-21)
(0.984057 0.18092 5.62888e-21)
(0.984009 0.18078 -8.15053e-21)
(0.983982 0.18063 1.79024e-20)
(0.983979 0.180476 -9.04908e-21)
(0.984 0.180316 4.66541e-21)
(0.984045 0.18015 -7.10117e-20)
(0.984112 0.179977 5.97583e-20)
(0.9842 0.179798 -1.19107e-19)
(0.984305 0.179613 1.31938e-19)
(0.984424 0.179422 -1.60534e-20)
(0.984552 0.179228 -3.55223e-20)
(0.984684 0.17903 -1.63599e-20)
(0.984817 0.178831 -3.64791e-21)
(0.984946 0.178632 -1.691e-19)
(0.985066 0.178437 7.06434e-21)
(0.985176 0.178249 1.87697e-19)
(0.985272 0.17807 -6.21193e-20)
(0.985352 0.177905 -6.65523e-20)
(0.985416 0.177756 1.12554e-19)
(0.985462 0.177628 -5.74311e-20)
(0.985492 0.177523 2.44111e-19)
(0.985505 0.177447 1.37857e-19)
(0.985503 0.1774 1.08142e-19)
(0.985487 0.177389 -3.34076e-19)
(0.98546 0.177415 -4.81357e-20)
(0.985422 0.177486 -2.73304e-19)
(0.985375 0.177602 5.11611e-20)
(0.985321 0.177772 -9.47796e-20)
(0.98526 0.177992 -3.89207e-20)
(0.985198 0.178257 3.08708e-19)
(0.985138 0.178602 -7.7615e-19)
(0.985092 0.179012 -3.72314e-20)
(0.985063 0.179478 -3.79903e-19)
(0.985051 0.180012 -1.82051e-19)
(0.985054 0.180616 3.90321e-20)
(0.985075 0.181286 -5.45223e-19)
(0.985115 0.182009 7.97156e-19)
(0.985177 0.182767 1.28137e-19)
(0.985264 0.183526 8.11667e-19)
(0.985374 0.184239 -5.50275e-19)
(0.985503 0.184842 -3.52938e-19)
(0.985644 0.185246 -1.89254e-19)
(0.985785 0.185345 7.97508e-19)
(0.985907 0.185014 1.26901e-18)
(0.985991 0.184125 1.12446e-19)
(0.986014 0.182565 3.4017e-19)
(0.985955 0.180261 -1.51917e-18)
(0.9858 0.177211 5.62123e-18)
(0.985563 0.173481 1.45641e-18)
(0.985275 0.169246 -2.23223e-18)
(0.985023 0.16475 -1.06385e-18)
(0.984925 0.160264 6.57073e-18)
(0.985093 0.156075 7.79356e-19)
(0.985654 0.152395 -7.61507e-18)
(0.98671 0.149421 -1.2354e-17)
(0.98784 0.146891 1.09624e-17)
(0.992342 0.148285 -3.21766e-18)
(0.982229 0.157053 2.49473e-18)
(0.983888 0.183397 -3.91364e-21)
(0.983786 0.183212 1.57786e-20)
(0.983686 0.183104 -2.59601e-20)
(0.983596 0.182983 1.93877e-20)
(0.983521 0.182853 1.24514e-20)
(0.983465 0.18272 -1.33599e-20)
(0.983431 0.18258 1.08145e-21)
(0.98342 0.182435 -9.99384e-21)
(0.983435 0.182282 -3.35797e-20)
(0.983476 0.182121 6.48782e-20)
(0.983541 0.181952 -1.00923e-19)
(0.983631 0.181774 8.89102e-20)
(0.98374 0.181588 7.87862e-20)
(0.983868 0.181393 -1.22999e-19)
(0.984008 0.18119 -4.05389e-20)
(0.984158 0.18098 1.53492e-19)
(0.984311 0.180767 -1.87987e-19)
(0.984464 0.180554 2.63044e-19)
(0.984613 0.180341 -5.00048e-20)
(0.984753 0.180137 2.99038e-20)
(0.984882 0.179942 -4.72399e-20)
(0.984997 0.179762 -6.07432e-20)
(0.985097 0.179601 -1.14891e-19)
(0.98518 0.179466 2.03061e-19)
(0.985246 0.179357 -1.41151e-19)
(0.985296 0.179283 -1.4137e-19)
(0.985331 0.179247 2.94731e-19)
(0.985352 0.179255 -2.90171e-19)
(0.98536 0.179311 4.64446e-19)
(0.985358 0.179423 -2.5227e-19)
(0.985346 0.179589 1.94298e-19)
(0.985334 0.179801 -3.37853e-19)
(0.985315 0.1801 3.5874e-19)
(0.985298 0.180461 -3.3987e-20)
(0.985296 0.18087 -1.89192e-20)
(0.985312 0.181336 -1.13127e-20)
(0.985346 0.181862 -1.83039e-19)
(0.985403 0.18244 4.79957e-19)
(0.985488 0.183058 -3.58211e-19)
(0.985606 0.183693 -1.94625e-18)
(0.985764 0.184315 -7.7591e-19)
(0.985964 0.184877 5.24063e-19)
(0.986207 0.185317 -5.40034e-19)
(0.98649 0.185555 -5.89402e-19)
(0.986805 0.185496 -4.22716e-20)
(0.98714 0.185028 1.43497e-18)
(0.987472 0.184044 -2.18253e-18)
(0.987778 0.182449 -2.4015e-18)
(0.988029 0.180191 -1.96887e-18)
(0.988195 0.177283 -3.39715e-18)
(0.988273 0.173797 1.9609e-18)
(0.988266 0.169907 -1.14817e-18)
(0.988235 0.165842 -9.11843e-18)
(0.988274 0.161855 1.07342e-18)
(0.988474 0.158215 3.0381e-18)
(0.988946 0.155118 -4.25543e-18)
(0.989764 0.152764 3.95376e-18)
(0.990625 0.150807 1.26073e-18)
(0.993737 0.153094 5.80031e-18)
(0.986559 0.163279 -3.83658e-19)
(0.983724 0.184825 4.68521e-21)
(0.983613 0.184666 -2.11154e-20)
(0.983496 0.184577 1.0382e-20)
(0.983383 0.184478 1.9168e-20)
(0.983279 0.184373 -4.11182e-20)
(0.983186 0.184266 3.45769e-20)
(0.98311 0.184155 -2.30283e-20)
(0.983052 0.18404 1.9586e-20)
(0.983017 0.183918 3.12434e-20)
(0.983007 0.18379 -7.5497e-20)
(0.983023 0.183654 1.09492e-19)
(0.983066 0.183509 4.64671e-20)
(0.983136 0.183354 -1.87352e-19)
(0.983231 0.183188 -3.54932e-20)
(0.983349 0.183012 1.0098e-19)
(0.983486 0.182825 6.57843e-20)
(0.983638 0.18263 -8.05728e-20)
(0.983801 0.182429 7.14141e-20)
(0.983972 0.182223 1.12908e-19)
(0.984144 0.182017 -5.43156e-20)
(0.984313 0.181814 -3.15495e-20)
(0.984476 0.18162 1.17232e-19)
(0.98463 0.181437 2.4542e-19)
(0.984772 0.181273 -1.76567e-19)
(0.9849 0.18113 -2.01044e-19)
(0.985014 0.181015 2.27101e-19)
(0.985112 0.180933 -1.77046e-19)
(0.985196 0.180892 -7.36757e-20)
(0.985265 0.180896 6.19931e-19)
(0.985323 0.180952 -2.77123e-19)
(0.985372 0.181057 -2.15115e-19)
(0.985419 0.181206 2.84355e-19)
(0.985449 0.18144 1.98196e-19)
(0.985467 0.181728 -1.79255e-19)
(0.985493 0.18205 -1.1716e-19)
(0.985535 0.182414 3.61825e-19)
(0.985595 0.182824 6.96181e-20)
(0.98568 0.183271 1.18851e-19)
(0.985796 0.183741 -5.89753e-19)
(0.985952 0.184213 -5.54158e-19)
(0.986155 0.184656 1.01657e-18)
(0.986411 0.185028 7.53851e-19)
(0.986725 0.185271 1.18396e-18)
(0.987098 0.185314 -1.06509e-18)
(0.987525 0.185073 -1.12632e-18)
(0.987996 0.184453 -7.45843e-19)
(0.988493 0.183362 1.83631e-18)
(0.98899 0.181725 1.84113e-18)
(0.989454 0.179504 -2.23379e-18)
(0.989846 0.176724 -3.33591e-18)
(0.99015 0.173457 -1.01174e-18)
(0.99035 0.169866 7.04258e-19)
(0.990485 0.166165 2.8481e-19)
(0.990628 0.162579 -2.96923e-18)
(0.99085 0.159353 2.23247e-18)
(0.991249 0.156667 1.47914e-18)
(0.991872 0.154716 1.97055e-18)
(0.992577 0.153098 -4.68109e-18)
(0.994573 0.155805 -4.1276e-19)
(0.988256 0.16681 -2.2888e-19)
(0.983651 0.185821 -8.08134e-21)
(0.983541 0.185685 -6.39351e-21)
(0.983421 0.185611 8.8458e-21)
(0.983301 0.185529 3.10431e-20)
(0.983183 0.185441 -6.69999e-20)
(0.983072 0.185354 7.68196e-20)
(0.982969 0.185264 -3.60751e-21)
(0.982881 0.185172 -4.92201e-21)
(0.982809 0.185076 -2.76251e-20)
(0.982758 0.184977 6.71881e-20)
(0.982731 0.184872 -1.04078e-19)
(0.982729 0.184761 3.94009e-20)
(0.982754 0.184641 -1.33849e-21)
(0.982807 0.184511 6.23568e-20)
(0.982887 0.184371 2.99685e-20)
(0.982993 0.18422 -1.60995e-19)
(0.983123 0.184058 1.41091e-19)
(0.983272 0.183886 5.63181e-20)
(0.983438 0.183706 -1.62748e-19)
(0.983615 0.183521 8.08987e-20)
(0.9838 0.183334 3.82519e-20)
(0.983988 0.183148 -2.45893e-20)
(0.984175 0.182968 3.36035e-20)
(0.984357 0.182798 -1.78267e-20)
(0.984531 0.182643 -2.25989e-19)
(0.984695 0.182509 1.50567e-19)
(0.984848 0.1824 -2.32911e-19)
(0.984988 0.182324 4.38653e-19)
(0.985116 0.182286 -8.02416e-20)
(0.985233 0.182294 -5.05467e-20)
(0.985341 0.182342 -1.36564e-20)
(0.985448 0.182427 4.82626e-19)
(0.985529 0.182588 -1.98184e-19)
(0.985581 0.182792 -1.24469e-19)
(0.985633 0.183014 2.95979e-19)
(0.985696 0.183261 2.46e-19)
(0.985777 0.183539 -4.02531e-19)
(0.985882 0.183837 7.16397e-20)
(0.986019 0.184142 7.13414e-19)
(0.986198 0.184434 -8.00748e-20)
(0.986427 0.184685 4.28349e-19)
(0.986715 0.184854 -5.69507e-19)
(0.987068 0.184892 8.40563e-19)
(0.987491 0.184736 1.68891e-18)
(0.987982 0.184312 4.57331e-19)
(0.988533 0.18354 -6.28709e-19)
(0.989129 0.182344 -1.91299e-18)
(0.989745 0.180663 3.33233e-19)
(0.990346 0.178474 6.73348e-19)
(0.990888 0.175804 1.66355e-18)
(0.991347 0.172727 -3.30763e-19)
(0.991695 0.169389 -3.0449e-18)
(0.991951 0.165986 2.72383e-18)
(0.992173 0.162719 -1.83848e-18)
(0.992415 0.159807 3.15586e-18)
(0.992764 0.157413 8.46976e-19)
(0.993241 0.155732 2.76267e-18)
(0.993879 0.154342 2.89041e-18)
(0.995043 0.157243 1.19308e-19)
(0.988638 0.168897 -1.01224e-19)
(0.983632 0.186528 -4.05638e-21)
(0.983529 0.1864 3.50761e-21)
(0.983414 0.186332 1.75016e-20)
(0.983295 0.186261 2.76253e-20)
(0.983176 0.186184 -8.22139e-20)
(0.983058 0.186111 4.74141e-20)
(0.982945 0.186037 -8.46634e-20)
(0.98284 0.185963 1.32965e-19)
(0.982747 0.185888 -6.24935e-20)
(0.982668 0.185811 1.10446e-20)
(0.982608 0.185731 1.21088e-19)
(0.98257 0.185647 -2.77157e-19)
(0.982556 0.185557 1.8972e-19)
(0.982569 0.18546 2.66439e-20)
(0.982609 0.185354 4.38334e-20)
(0.982678 0.185238 -1.84124e-19)
(0.982774 0.185111 9.1051e-20)
(0.982895 0.184975 -1.13806e-19)
(0.98304 0.184829 2.27411e-19)
(0.983204 0.184675 -3.04467e-20)
(0.983384 0.184514 -2.94034e-19)
(0.983576 0.184351 1.16272e-19)
(0.983776 0.184187 -6.92315e-21)
(0.983978 0.184028 -4.44033e-19)
(0.984181 0.183876 3.33056e-19)
(0.98438 0.183738 2.54515e-19)
(0.984573 0.183616 1.7774e-19)
(0.984758 0.18352 -2.26864e-19)
(0.984934 0.183452 -2.52535e-19)
(0.985101 0.183422 1.17804e-19)
(0.985263 0.18342 1.82584e-19)
(0.985424 0.183446 -2.21587e-19)
(0.985552 0.183535 -3.32243e-19)
(0.985633 0.183654 6.73411e-19)
(0.985705 0.183773 6.55167e-20)
(0.985786 0.183902 -9.57243e-19)
(0.985881 0.184045 7.72019e-20)
(0.986 0.184193 6.06125e-19)
(0.986149 0.184333 6.01432e-20)
(0.98634 0.184447 7.39186e-19)
(0.986581 0.184509 -9.46793e-19)
(0.986883 0.184483 -5.32657e-20)
(0.987254 0.184324 -5.55179e-19)
(0.987699 0.183979 2.1757e-19)
(0.988219 0.183385 8.28493e-19)
(0.98881 0.182474 2.4862e-18)
(0.989459 0.181183 3.52156e-19)
(0.99014 0.179465 -1.60112e-18)
(0.990823 0.177303 1.25242e-18)
(0.991458 0.174731 4.72045e-18)
(0.992018 0.171815 -3.989e-18)
(0.992466 0.168691 4.97437e-18)
(0.992811 0.165532 -3.18849e-18)
(0.993095 0.162517 -1.40868e-18)
(0.993359 0.159844 -6.39134e-18)
(0.993681 0.157665 -2.62417e-19)
(0.994057 0.156176 -1.51152e-18)
(0.994691 0.154959 -1.12747e-18)
(0.995264 0.15796 1.09977e-19)
(0.988443 0.170223 -2.9219e-19)
(0.983638 0.187056 5.83765e-21)
(0.983544 0.186939 2.01879e-21)
(0.983437 0.186878 -2.12137e-20)
(0.983326 0.186813 2.02588e-20)
(0.983211 0.186743 -8.99943e-21)
(0.983096 0.186676 1.60549e-20)
(0.982982 0.18661 5.46802e-21)
(0.982871 0.186545 -8.06395e-20)
(0.982767 0.186481 3.52619e-20)
(0.982673 0.186417 -2.3936e-20)
(0.982593 0.186353 1.46917e-20)
(0.982529 0.186288 5.68822e-20)
(0.982486 0.186219 -1.09344e-20)
(0.982465 0.186146 3.50222e-20)
(0.982471 0.186066 -1.49044e-19)
(0.982504 0.185978 5.76422e-20)
(0.982565 0.185881 2.49116e-20)
(0.982654 0.185776 -7.06007e-20)
(0.98277 0.18566 1.40161e-19)
(0.982911 0.185537 4.64406e-20)
(0.983073 0.185405 -5.33725e-21)
(0.983255 0.185268 -5.30278e-20)
(0.983451 0.185126 2.08451e-19)
(0.983658 0.184984 -5.78784e-19)
(0.983873 0.184843 3.04768e-19)
(0.98409 0.18471 1.31785e-19)
(0.984308 0.184586 -2.18345e-19)
(0.984524 0.184479 3.92229e-19)
(0.984736 0.184392 -1.90016e-19)
(0.984943 0.184332 -1.00804e-19)
(0.985147 0.184289 -1.95326e-19)
(0.985352 0.184264 -8.32867e-20)
(0.985519 0.184286 2.23327e-19)
(0.985624 0.184324 -6.61945e-19)
(0.985709 0.184346 1.22184e-18)
(0.985801 0.184362 -8.60941e-20)
(0.985906 0.184379 5.85809e-19)
(0.986032 0.184387 -1.46207e-18)
(0.986187 0.184373 -4.31696e-19)
(0.986382 0.184322 2.21468e-20)
(0.986626 0.18421 -3.07039e-19)
(0.98693 0.184006 -3.7498e-20)
(0.987303 0.183671 -1.00249e-18)
(0.987752 0.183158 3.50989e-19)
(0.98828 0.182414 4.43752e-19)
(0.988883 0.181383 -2.31727e-18)
(0.989552 0.180013 2.93115e-18)
(0.990263 0.178265 4.36007e-19)
(0.990986 0.176132 9.9825e-20)
(0.991674 0.173646 -3.06621e-18)
(0.992296 0.170871 1.22416e-18)
(0.992812 0.167926 -2.5553e-18)
(0.993221 0.16497 4.56985e-18)
(0.993556 0.162157 1.24113e-18)
(0.993845 0.159671 -2.87761e-18)
(0.994159 0.157654 1.02363e-18)
(0.994473 0.156311 -2.06433e-18)
(0.995143 0.155243 -2.22736e-19)
(0.99531 0.158309 -9.10592e-19)
(0.988052 0.171173 -1.27976e-19)
(0.983643 0.187456 -1.34516e-21)
(0.983558 0.187343 -5.27405e-21)
(0.983461 0.187285 -4.57964e-21)
(0.983357 0.187225 4.44947e-20)
(0.983251 0.187159 -2.48134e-20)
(0.983143 0.187098 -2.97722e-20)
(0.983033 0.187037 -1.11065e-20)
(0.982924 0.186978 -4.59513e-20)
(0.982819 0.186921 2.90479e-20)
(0.982719 0.186865 4.25608e-21)
(0.982629 0.186809 1.60679e-21)
(0.982552 0.186754 1.24685e-19)
(0.982489 0.186697 -8.87666e-20)
(0.982446 0.186638 -1.08961e-20)
(0.982426 0.186575 1.02522e-19)
(0.98243 0.186507 -5.6908e-20)
(0.98246 0.186433 -2.23316e-20)
(0.982518 0.186351 3.53334e-20)
(0.982603 0.186261 1.1586e-19)
(0.982716 0.186163 6.44085e-20)
(0.982855 0.186057 2.42238e-20)
(0.983017 0.185945 -1.63459e-19)
(0.9832 0.185825 8.44996e-20)
(0.9834 0.185703 1.61295e-19)
(0.983613 0.185577 -3.39327e-19)
(0.983836 0.185453 1.10453e-19)
(0.984066 0.185333 -4.40089e-19)
(0.984299 0.185222 3.61917e-19)
(0.984533 0.185122 3.20696e-19)
(0.984767 0.18504 -4.9396e-19)
(0.985002 0.184963 -2.43987e-19)
(0.985239 0.184894 3.21215e-19)
(0.985436 0.184858 1.08419e-19)
(0.985557 0.184824 -2.84508e-19)
(0.98565 0.184758 -3.58667e-19)
(0.985747 0.184673 -4.12512e-19)
(0.985856 0.184576 2.52377e-19)
(0.985984 0.184458 5.80864e-19)
(0.98614 0.184307 2.04524e-19)
(0.986333 0.184111 -1.57951e-19)
(0.986574 0.183847 1.77272e-18)
(0.986873 0.183487 -2.06867e-19)
(0.987238 0.182999 1.67733e-18)
(0.987679 0.182344 -2.88433e-18)
(0.9882 0.181475 4.75573e-19)
(0.988798 0.180345 7.25727e-20)
(0.989465 0.178912 -1.19415e-19)
(0.990182 0.177147 -2.01411e-18)
(0.99092 0.175044 -3.25064e-18)
(0.991631 0.172638 2.94496e-18)
(0.992289 0.169985 3.91266e-18)
(0.992849 0.167194 2.00703e-18)
(0.993306 0.164405 -4.20998e-18)
(0.993682 0.161759 2.094e-18)
(0.994 0.159421 4.8882e-18)
(0.994322 0.157532 1.20549e-18)
(0.994604 0.156305 2.00437e-18)
(0.995337 0.155373 5.31359e-19)
(0.995227 0.158498 2.23879e-19)
(0.987633 0.171956 5.93971e-19)
(0.983635 0.187775 1.80179e-21)
(0.983558 0.187671 -5.40645e-21)
(0.983468 0.187617 1.93644e-20)
(0.983374 0.187558 5.02779e-21)
(0.983276 0.187495 -2.67274e-20)
(0.983176 0.187435 -3.07829e-20)
(0.983074 0.187375 7.31587e-20)
(0.982972 0.187317 -7.99958e-20)
(0.982871 0.18726 -1.9551e-20)
(0.982773 0.187206 4.97142e-20)
(0.982682 0.187154 4.6081e-20)
(0.982599 0.187103 1.40485e-19)
(0.982527 0.187052 -7.94069e-20)
(0.98247 0.187001 -1.36723e-19)
(0.982432 0.186948 3.03151e-20)
(0.982415 0.186892 -1.12254e-19)
(0.982421 0.186831 8.50667e-20)
(0.982452 0.186765 -1.43685e-19)
(0.982511 0.186693 2.3413e-20)
(0.982597 0.186614 -4.80369e-20)
(0.98271 0.186527 -3.06469e-20)
(0.982849 0.186434 -1.31553e-19)
(0.983012 0.186334 1.18526e-20)
(0.983196 0.186228 2.88328e-19)
(0.983399 0.186117 -1.00848e-19)
(0.983617 0.186003 3.09502e-20)
(0.983848 0.185887 9.22789e-20)
(0.984087 0.185775 -1.21528e-19)
(0.984332 0.185667 -2.72464e-20)
(0.98458 0.185569 1.74974e-19)
(0.984834 0.185464 1.92753e-19)
(0.985093 0.185359 -1.421e-19)
(0.98531 0.185272 -4.62581e-19)
(0.98544 0.185175 -6.52561e-19)
(0.985533 0.185033 9.59829e-19)
(0.98563 0.18486 2.60858e-19)
(0.985739 0.184665 1.6635e-19)
(0.985865 0.184439 7.81379e-19)
(0.986017 0.184171 -6.74203e-19)
(0.986205 0.18385 4.1376e-19)
(0.986438 0.183457 2.71529e-20)
(0.986726 0.182968 6.43414e-21)
(0.987079 0.182353 -6.16413e-19)
(0.987505 0.18158 1.37813e-18)
(0.988009 0.18061 -1.75693e-18)
(0.988591 0.179403 1.01038e-18)
(0.989244 0.177925 -2.75705e-18)
(0.989951 0.176152 7.22876e-19)
(0.990685 0.174083 1.70722e-18)
(0.991402 0.171751 -2.93278e-18)
(0.992077 0.169207 -8.22885e-19)
(0.992665 0.166548 -3.0175e-19)
(0.993156 0.163901 -5.81217e-19)
(0.993569 0.161391 -1.90913e-18)
(0.993918 0.159175 1.75146e-19)
(0.994259 0.157388 7.46357e-19)
(0.994532 0.156259 -6.85019e-19)
(0.995343 0.155452 -1.09056e-19)
(0.995049 0.158639 -1.60093e-19)
(0.987256 0.172673 -5.87547e-19)
(0.983624 0.188023 3.49276e-21)
(0.983553 0.187915 -2.96288e-21)
(0.98347 0.187859 2.71321e-21)
(0.983382 0.187802 1.74153e-20)
(0.983293 0.187739 2.53407e-20)
(0.9832 0.18768 -9.93484e-20)
(0.983106 0.187622 7.20868e-20)
(0.983011 0.187566 1.50135e-20)
(0.982917 0.187511 -4.61816e-21)
(0.982824 0.187459 -3.28439e-20)
(0.982735 0.187408 1.00747e-19)
(0.982651 0.187359 -3.28875e-20)
(0.982576 0.187311 -4.56279e-20)
(0.982512 0.187264 -1.3695e-19)
(0.982463 0.187216 2.74553e-19)
(0.982431 0.187166 -5.70619e-20)
(0.982419 0.187113 -4.76675e-20)
(0.98243 0.187057 -1.43292e-19)
(0.982466 0.186996 1.58741e-19)
(0.982527 0.18693 8.84025e-20)
(0.982616 0.186858 -4.1617e-20)
(0.982731 0.186779 6.97741e-20)
(0.982872 0.186693 -3.0057e-19)
(0.983036 0.1866 2.08368e-20)
(0.983223 0.1865 1.67114e-19)
(0.983429 0.186395 -3.13154e-20)
(0.983652 0.186284 -5.24458e-19)
(0.983887 0.186172 4.61601e-20)
(0.984133 0.186058 4.7015e-19)
(0.984387 0.185947 -1.29024e-19)
(0.984649 0.18582 -2.44868e-19)
(0.984919 0.185684 1.49205e-19)
(0.985148 0.185554 4.21846e-19)
(0.985279 0.185403 9.7149e-19)
(0.985367 0.185196 -1.43771e-19)
(0.98546 0.18495 1.97408e-19)
(0.985563 0.184672 -1.39599e-18)
(0.985684 0.184356 -3.7412e-19)
(0.98583 0.183991 2.34751e-19)
(0.986009 0.183567 -9.57469e-19)
(0.986231 0.183068 -1.83829e-19)
(0.986506 0.182472 4.13524e-19)
(0.986843 0.181755 3.58019e-19)
(0.98725 0.180889 8.81009e-19)
(0.987732 0.179841 2.69866e-18)
(0.988292 0.178577 -2.04018e-18)
(0.988922 0.177069 3.14938e-18)
(0.989609 0.175298 2.28808e-18)
(0.990328 0.173266 -7.6822e-21)
(0.991039 0.171003 2.82309e-18)
(0.991718 0.168556 -3.75776e-18)
(0.992322 0.166012 -4.31238e-18)
(0.99284 0.163485 3.13717e-18)
(0.993285 0.161089 2.39401e-18)
(0.993667 0.158971 -7.64466e-19)
(0.994034 0.157271 -3.59921e-18)
(0.994317 0.156225 5.74524e-19)
(0.995215 0.155532 -5.72199e-20)
(0.994801 0.158787 3.00766e-19)
(0.986932 0.173378 -8.38192e-19)
(0.983612 0.188231 -3.90455e-21)
(0.983546 0.188129 4.29106e-21)
(0.983468 0.188074 2.92549e-20)
(0.983385 0.188017 -3.83364e-20)
(0.983301 0.187954 6.97934e-20)
(0.983216 0.187894 -1.02868e-19)
(0.983128 0.187835 2.92321e-20)
(0.983039 0.187777 -1.37707e-21)
(0.98295 0.187721 6.51023e-20)
(0.982863 0.187667 -3.45174e-20)
(0.982778 0.187615 1.02866e-20)
(0.982696 0.187566 1.04293e-20)
(0.98262 0.187517 -1.64467e-19)
(0.982553 0.18747 4.94091e-20)
(0.982498 0.187422 1.14467e-19)
(0.982457 0.187374 3.51606e-21)
(0.982432 0.187323 -1.92139e-19)
(0.982427 0.187271 7.92532e-20)
(0.982444 0.187215 3.67885e-19)
(0.982486 0.187155 -2.41171e-19)
(0.982552 0.187089 -1.84133e-19)
(0.982645 0.187019 1.55411e-19)
(0.982763 0.18694 1.0164e-19)
(0.982907 0.186856 1.12104e-19)
(0.983074 0.186763 -2.17528e-19)
(0.983264 0.186664 -4.71539e-19)
(0.983473 0.186556 3.5504e-19)
(0.983698 0.186443 5.0719e-19)
(0.983937 0.186323 1.4523e-19)
(0.984187 0.186201 -2.83786e-19)
(0.98445 0.186055 1.29034e-19)
(0.984722 0.185894 2.23045e-19)
(0.984954 0.185727 -3.71198e-19)
(0.985082 0.185532 -5.23853e-20)
(0.98516 0.185272 -6.27672e-19)
(0.985244 0.184964 -1.55939e-19)
(0.985339 0.184619 -1.56643e-19)
(0.985451 0.18423 3.92635e-19)
(0.985588 0.183785 -5.46891e-19)
(0.985756 0.183279 1.4386e-19)
(0.985966 0.182695 2.49042e-19)
(0.986225 0.182015 6.39432e-20)
(0.986543 0.181218 -1.36238e-18)
(0.986929 0.18028 -1.82448e-18)
(0.987387 0.179173 -1.49903e-18)
(0.987921 0.177869 2.91684e-18)
(0.988524 0.176344 1.15168e-19)
(0.989185 0.174584 -1.08098e-18)
(0.989883 0.17259 5.52647e-19)
(0.990579 0.170392 -3.30856e-18)
(0.991255 0.168033 1.5491e-18)
(0.991867 0.165588 4.02485e-18)
(0.992405 0.163164 -3.3229e-19)
(0.99288 0.160864 -2.78401e-18)
(0.993294 0.158829 1.1366e-18)
(0.993695 0.157199 7.83914e-19)
(0.993999 0.156226 3.58694e-19)
(0.994989 0.155638 -8.30252e-20)
(0.9945 0.158963 -1.14254e-18)
(0.986666 0.174086 1.98236e-18)
(0.983586 0.188404 -3.43733e-21)
(0.983523 0.1883 4.97562e-21)
(0.983448 0.188247 1.04038e-21)
(0.98337 0.18819 1.9006e-20)
(0.98329 0.188128 -2.89256e-20)
(0.983209 0.188069 -5.93645e-20)
(0.983127 0.18801 2.13684e-20)
(0.983044 0.187952 -2.83417e-20)
(0.982961 0.187895 6.19802e-20)
(0.982879 0.18784 -1.2459e-20)
(0.982798 0.187785 -4.11682e-20)
(0.98272 0.187733 3.41587e-20)
(0.982646 0.187681 5.55032e-20)
(0.982579 0.187631 1.53599e-19)
(0.982521 0.18758 -2.79779e-19)
(0.982475 0.18753 1.42926e-19)
(0.982442 0.187478 2.12478e-20)
(0.982426 0.187425 -1.41144e-19)
(0.982429 0.18737 -8.80415e-20)
(0.982454 0.187311 2.89513e-19)
(0.982502 0.187248 -3.03658e-19)
(0.982574 0.187181 9.1195e-20)
(0.982672 0.187106 -2.43592e-19)
(0.982794 0.187025 4.11207e-19)
(0.982942 0.186937 -8.38833e-20)
(0.983112 0.186839 -2.33647e-19)
(0.983304 0.186731 1.89008e-19)
(0.983515 0.186616 3.51809e-19)
(0.983742 0.186491 -3.28364e-19)
(0.983982 0.186358 1.9954e-19)
(0.984237 0.186196 -6.83427e-19)
(0.984504 0.186013 -7.24955e-20)
(0.984733 0.185815 2.88086e-19)
(0.984853 0.185583 -1.69153e-19)
(0.984919 0.185278 -3.38433e-19)
(0.98499 0.184921 -7.64436e-19)
(0.985074 0.184523 9.44291e-19)
(0.985176 0.184075 -3.79812e-19)
(0.985301 0.183568 2.70678e-19)
(0.985458 0.182996 5.5591e-19)
(0.985653 0.182347 4.43412e-19)
(0.985895 0.181601 -2.41078e-19)
(0.986194 0.180743 8.14763e-19)
(0.986558 0.179752 1.46899e-18)
(0.98699 0.178603 -1.48113e-19)
(0.987495 0.177273 -1.79783e-18)
(0.988069 0.175743 -2.2823e-18)
(0.988701 0.173998 -1.57384e-19)
(0.989373 0.172044 1.58547e-18)
(0.990051 0.169908 -2.79493e-19)
(0.990718 0.167626 2.55611e-18)
(0.991332 0.16527 -3.74151e-18)
(0.991886 0.162933 -1.82742e-18)
(0.992387 0.160714 -4.4362e-19)
(0.992836 0.158748 -9.14852e-19)
(0.993274 0.157178 3.78477e-19)
(0.993608 0.156268 -2.66222e-19)
(0.994692 0.155774 5.54039e-19)
(0.99416 0.159173 2.12391e-18)
(0.986442 0.174804 -1.20809e-18)
(0.983542 0.18856 -5.37411e-21)
(0.983481 0.188463 4.34276e-21)
(0.983408 0.188411 3.43984e-21)
(0.983332 0.188355 -2.45798e-20)
(0.983255 0.188293 2.54566e-20)
(0.983178 0.188233 -1.25613e-20)
(0.9831 0.188171 4.09907e-20)
(0.983022 0.18811 -6.11022e-20)
(0.982944 0.18805 3.5416e-21)
(0.982867 0.187991 4.87522e-21)
(0.982792 0.187933 -4.54599e-20)
(0.982718 0.187877 1.26779e-19)