/*--------------------------------*- C++ -*----------------------------------*\
  =========                 |
  \\      /  F ield         | OpenFOAM: The Open Source CFD Toolbox
   \\    /   O peration     | Website:  https://openfoam.org
    \\  /    A nd           | Version:  6.0
     \\/     M anipulation  |
\*---------------------------------------------------------------------------*/
FoamFile
{
    version     2.0;
    format      ascii;
    class       volScalarField;
    location    "20";
    object      p;
}
// * * * * * * * * * * * * * * * * * * * * * * * * * * * * * * * * * * * * * //

dimensions      [0 2 -2 0 0 0 0];

internalField   nonuniform List<scalar> 
62000
(
0.0137715
0.0137488
0.0137238
0.0136954
0.0136633
0.013626
0.0135832
0.0135339
0.0134779
0.0134144
0.0133436
0.0132644
0.0131769
0.0130798
0.0129735
0.0128563
0.0127283
0.0125877
0.0124343
0.012266
0.0120823
0.011881
0.011661
0.0114203
0.0111569
0.0108689
0.0105538
0.0102093
0.00983269
0.00942146
0.00897298
0.00848435
0.00795434
0.00737986
0.00676144
0.00609834
0.00539132
0.00464173
0.00385142
0.00302325
0.00216113
0.00126976
0.000353907
-0.000581668
-0.00153246
-0.00249369
-0.00345842
-0.00441834
-0.00535666
-0.00625361
-0.00707394
-0.00777934
-0.00831959
-0.00863671
-0.00868484
-0.0083926
-0.00777473
-0.00648713
-0.00536931
-0.0111766
0.013709
0.0136785
0.0136479
0.0136176
0.0135875
0.0135556
0.013521
0.0134815
0.0134362
0.0133837
0.0133238
0.0132553
0.0131783
0.0130913
0.0129945
0.0128863
0.0127671
0.012635
0.0124901
0.0123302
0.0121549
0.011962
0.0117504
0.011518
0.011263
0.0109831
0.0106761
0.0103395
0.00997044
0.00956621
0.00912384
0.00864066
0.00811377
0.00754148
0.00692212
0.00625532
0.00554138
0.00478055
0.00397365
0.00312264
0.00223067
0.00130145
0.000338655
-0.000654377
-0.00167481
-0.00271986
-0.00378499
-0.00486452
-0.00594358
-0.00700348
-0.00800542
-0.0089039
-0.00963103
-0.0101024
-0.0102354
-0.0098976
-0.00906747
-0.00741676
-0.00603821
-0.00717268
0.0136177
0.0135782
0.0135396
0.0135032
0.0134693
0.0134364
0.0134034
0.013368
0.0133283
0.0132821
0.0132289
0.0131677
0.0130984
0.013019
0.0129294
0.0128274
0.0127134
0.0125856
0.0124442
0.0122874
0.0121146
0.0119239
0.0117141
0.011483
0.0112291
0.0109499
0.0106431
0.0103063
0.00993669
0.00953139
0.00908738
0.00860169
0.00807162
0.00749473
0.00687061
0.00619937
0.00548161
0.00471753
0.00390837
0.00305733
0.00216915
0.00124952
0.000304479
-0.000659962
-0.00163791
-0.00262349
-0.00360957
-0.00458875
-0.00554622
-0.00646522
-0.00731088
-0.00804408
-0.0086039
-0.00891733
-0.00891241
-0.00847973
-0.00765686
-0.00633623
-0.00562886
-0.00756979
0.0135914
0.0135494
0.0135085
0.0134699
0.0134341
0.0134005
0.0133687
0.013337
0.0133032
0.0132642
0.013219
0.0131665
0.0131071
0.013039
0.0129612
0.0128705
0.0127666
0.0126474
0.0125134
0.0123631
0.0121964
0.0120113
0.0118071
0.0115814
0.0113326
0.0110585
0.0107566
0.0104244
0.010059
0.00965764
0.00921685
0.00873338
0.00820382
0.00762629
0.00700035
0.00632685
0.00560621
0.00483805
0.00402369
0.003167
0.00227364
0.00135047
0.000405078
-0.000554559
-0.00152012
-0.0024831
-0.0034341
-0.00436429
-0.00525936
-0.00610545
-0.00687361
-0.00753358
-0.00803628
-0.00832088
-0.00832304
-0.00794652
-0.00726485
-0.00627564
-0.00592134
-0.00766595
0.0135734
0.0135314
0.0134899
0.0134499
0.0134125
0.0133778
0.0133467
0.0133188
0.0132921
0.0132627
0.0132283
0.0131875
0.0131415
0.0130892
0.0130294
0.0129577
0.0128724
0.0127703
0.0126517
0.0125154
0.0123619
0.0121896
0.011998
0.011785
0.0115491
0.0112878
0.0109989
0.0106797
0.0103273
0.00993865
0.00951021
0.0090383
0.00851919
0.00795033
0.00733178
0.00666406
0.00594718
0.00518002
0.00436348
0.0035014
0.00259935
0.0016642
0.000703896
-0.000272793
-0.00125613
-0.00223575
-0.0032001
-0.0041385
-0.00503573
-0.00587868
-0.00664196
-0.00730031
-0.00781285
-0.00812305
-0.00816525
-0.00783805
-0.00722057
-0.00634971
-0.00595628
-0.0073743
0.0135435
0.0135006
0.013458
0.0134166
0.0133774
0.0133406
0.0133085
0.0132824
0.0132618
0.0132418
0.0132185
0.0131895
0.0131567
0.0131205
0.0130802
0.0130312
0.0129695
0.0128906
0.0127936
0.0126773
0.0125424
0.0123883
0.0122147
0.0120198
0.0118023
0.0115596
0.0112897
0.0109898
0.010657
0.0102881
0.00987962
0.0094276
0.00892791
0.00837813
0.00777751
0.00712644
0.00642435
0.00566951
0.00486247
0.00400677
0.0031075
0.00217102
0.00120505
0.000218601
-0.000777689
-0.00177181
-0.00274992
-0.00369864
-0.00460016
-0.00543998
-0.00619339
-0.00683873
-0.0073414
-0.00765222
-0.00771035
-0.0074185
-0.00686961
-0.00614287
-0.00584807
-0.00713047
0.0134897
0.0134463
0.0134037
0.0133627
0.0133241
0.013287
0.0132542
0.0132291
0.0132126
0.0132003
0.0131865
0.0131677
0.0131458
0.0131227
0.0130998
0.0130725
0.0130359
0.0129832
0.0129119
0.0128199
0.0127083
0.0125766
0.0124252
0.0122526
0.0120579
0.0118384
0.0115922
0.0113166
0.0110085
0.0106651
0.0102827
0.00985747
0.00938531
0.00886314
0.00829035
0.00766641
0.00699034
0.00625997
0.00547554
0.00464018
0.00375819
0.00283496
0.00187732
0.000893623
-0.000105645
-0.00110803
-0.00209849
-0.00306169
-0.0039773
-0.00482865
-0.0055902
-0.00624195
-0.0067537
-0.00708434
-0.00718235
-0.00696079
-0.00652675
-0.00598297
-0.00579667
-0.00677695
0.0134389
0.0133957
0.0133542
0.0133158
0.0132802
0.0132456
0.0132137
0.0131891
0.0131751
0.013168
0.0131612
0.0131495
0.0131343
0.0131188
0.0131064
0.0130942
0.0130769
0.0130465
0.0129985
0.0129296
0.0128405
0.0127312
0.0126023
0.012453
0.0122821
0.0120875
0.0118668
0.0116175
0.0113367
0.0110216
0.0106684
0.0102738
0.00983329
0.00934428
0.00880518
0.00821529
0.00757304
0.00687589
0.00612381
0.00531945
0.00446615
0.00356792
0.00263005
0.00165928
0.00066457
-0.000342872
-0.00134878
-0.00233781
-0.00328848
-0.0041824
-0.00499174
-0.00569551
-0.00626252
-0.00665448
-0.00682169
-0.00667835
-0.00633204
-0.00589076
-0.00565495
-0.00621558
0.0134079
0.013366
0.0133262
0.0132909
0.0132603
0.0132306
0.0132022
0.0131796
0.0131679
0.0131649
0.0131639
0.0131583
0.0131481
0.013137
0.0131301
0.0131261
0.0131207
0.0131051
0.0130734
0.0130211
0.0129482
0.012855
0.0127428
0.0126111
0.0124591
0.0122847
0.0120855
0.011859
0.0116021
0.0113121
0.0109857
0.0106193
0.0102089
0.00975144
0.00924571
0.00869024
0.00808339
0.0074225
0.00670749
0.00594076
0.00512496
0.0042629
0.00335836
0.00241621
0.0014433
0.000448499
-0.000556224
-0.00155741
-0.00253438
-0.00346831
-0.00432936
-0.00509343
-0.00572495
-0.00618188
-0.00640947
-0.00631601
-0.00600487
-0.00560261
-0.00528302
-0.00551909
0.0134287
0.0133886
0.0133507
0.0133184
0.0132929
0.0132693
0.0132458
0.0132262
0.0132167
0.0132169
0.0132209
0.013221
0.013216
0.0132092
0.0132063
0.0132076
0.0132095
0.013203
0.0131814
0.0131389
0.013075
0.0129901
0.0128862
0.0127634
0.0126217
0.0124589
0.0122729
0.012061
0.0118202
0.0115478
0.0112406
0.0108952
0.0105076
0.0100752
0.00959626
0.00906963
0.00849367
0.00786593
0.00718678
0.00645891
0.00568488
0.0048671
0.00400864
0.00311324
0.00218615
0.00123411
0.000266422
-0.000706332
-0.001666
-0.0025955
-0.00346494
-0.00424934
-0.00490984
-0.0054023
-0.00566787
-0.00561283
-0.00534575
-0.0050287
-0.00474266
-0.00486599
0.0134888
0.0134533
0.0134186
0.0133894
0.0133688
0.0133517
0.013334
0.0133183
0.013311
0.0133135
0.0133211
0.0133264
0.0133274
0.0133266
0.01333
0.0133387
0.0133497
0.0133538
0.0133432
0.0133109
0.0132554
0.0131771
0.0130784
0.0129603
0.0128236
0.0126667
0.0124878
0.0122841
0.0120527
0.0117912
0.0114962
0.0111647
0.0107929
0.0103778
0.00991837
0.00941309
0.00886092
0.00825992
0.00761124
0.00691842
0.00618455
0.00541251
0.00460572
0.00376791
0.00290392
0.00201937
0.00112154
0.000217936
-0.000676917
-0.00154996
-0.00237488
-0.00313003
-0.00377932
-0.00428262
-0.00458479
-0.00459894
-0.00444541
-0.00431715
-0.00418722
-0.00437213
0.0135834
0.0135554
0.0135259
0.0135003
0.013484
0.0134726
0.0134606
0.0134486
0.0134427
0.0134455
0.0134538
0.0134612
0.0134657
0.0134695
0.0134791
0.013496
0.0135177
0.0135351
0.0135393
0.0135219
0.0134801
0.0134136
0.0133248
0.0132152
0.0130863
0.0129371
0.0127662
0.0125711
0.0123491
0.0120978
0.0118141
0.011495
0.0111366
0.0107366
0.010293
0.00980508
0.00927192
0.00869214
0.00806775
0.00740326
0.00670258
0.00596949
0.00520841
0.00442399
0.00362176
0.00280742
0.00198723
0.00116633
0.000355386
-0.000437988
-0.00119365
-0.00189794
-0.00252299
-0.00303996
-0.00340332
-0.00353653
-0.00356649
-0.00368906
-0.00374622
-0.00406446
0.013677
0.01366
0.013638
0.0136166
0.0136044
0.0135982
0.0135918
0.0135838
0.0135794
0.0135816
0.0135885
0.0135947
0.0135989
0.0136039
0.0136166
0.0136394
0.0136707
0.0137015
0.0137225
0.013724
0.0137018
0.0136543
0.0135834
0.0134906
0.0133778
0.0132443
0.013089
0.0129097
0.0127038
0.0124691
0.0122023
0.0119009
0.011561
0.0111795
0.0107552
0.0102864
0.00977278
0.00921307
0.00860985
0.00796823
0.00729274
0.00658787
0.00585906
0.00511207
0.00435365
0.00359039
0.00282855
0.00207188
0.00132789
0.000598905
-0.000102031
-0.000770591
-0.00139011
-0.00194481
-0.00239985
-0.00268504
-0.00291985
-0.00327504
-0.00345883
-0.00388998
0.0137647
0.0137604
0.0137476
0.0137315
0.0137233
0.0137215
0.0137199
0.0137157
0.0137128
0.0137138
0.0137177
0.0137198
0.0137195
0.0137204
0.0137301
0.0137523
0.0137864
0.0138245
0.0138573
0.0138748
0.0138715
0.0138449
0.013796
0.0137258
0.0136361
0.0135263
0.0133951
0.0132407
0.0130601
0.0128511
0.0126107
0.012336
0.0120229
0.0116689
0.0112713
0.0108285
0.0103397
0.00980361
0.00922258
0.00860179
0.0079457
0.00725891
0.00654726
0.00581727
0.00507675
0.00433346
0.00359438
0.00286297
0.00214501
0.00143908
0.000752775
8.22211e-05
-0.000565166
-0.00118511
-0.00174873
-0.0021839
-0.0025897
-0.00309637
-0.00330534
-0.00378097
0.0138223
0.0138325
0.0138307
0.0138212
0.0138172
0.0138194
0.0138221
0.0138215
0.0138203
0.0138206
0.0138215
0.0138187
0.0138124
0.0138062
0.0138087
0.0138246
0.0138546
0.013892
0.0139285
0.013954
0.0139628
0.0139518
0.0139217
0.0138728
0.0138067
0.0137226
0.0136193
0.0134944
0.0133449
0.0131685
0.0129615
0.0127212
0.0124435
0.0121244
0.0117619
0.011353
0.0108963
0.0103898
0.00983529
0.00923717
0.00859915
0.00792506
0.00722026
0.00649122
0.00574625
0.00499399
0.00424243
0.00349564
0.0027593
0.0020305
0.00131422
0.000602157
-0.000103688
-0.000804812
-0.00147221
-0.00202437
-0.00253364
-0.00309171
-0.00322893
-0.00366926
0.0138611
0.0138853
0.0138947
0.0138925
0.0138928
0.0138981
0.0139038
0.0139058
0.0139059
0.0139055
0.0139035
0.0138958
0.0138826
0.013868
0.0138608
0.0138662
0.0138862
0.0139152
0.0139458
0.0139689
0.013979
0.0139733
0.0139521
0.0139159
0.0138664
0.0138024
0.0137228
0.0136249
0.0135053
0.0133613
0.013189
0.0129853
0.0127454
0.0124657
0.0121426
0.0117724
0.011353
0.0108813
0.0103578
0.00978581
0.00916747
0.00850521
0.00780307
0.00706658
0.0063038
0.00552375
0.00473532
0.00394378
0.00315606
0.00237006
0.00159144
0.000811363
3.17846e-05
-0.000749826
-0.00149856
-0.00211937
-0.00265893
-0.0031814
-0.00317991
-0.00351821
0.0138671
0.0139036
0.013923
0.0139277
0.0139322
0.0139404
0.0139488
0.0139532
0.0139548
0.0139545
0.0139508
0.0139397
0.0139214
0.0138998
0.0138838
0.013879
0.0138877
0.013905
0.0139245
0.0139377
0.0139399
0.0139288
0.0139052
0.0138699
0.0138252
0.0137701
0.0137036
0.0136232
0.013525
0.0134062
0.0132624
0.0130902
0.0128849
0.0126412
0.012356
0.0120242
0.0116427
0.0112073
0.0107173
0.0101743
0.00957867
0.0089309
0.00823315
0.00748931
0.00670643
0.00589331
0.00505937
0.00421123
0.00335791
0.00249972
0.00164549
0.000789512
-6.27662e-05
-0.000910029
-0.00170863
-0.00234961
-0.00285977
-0.00328997
-0.00311561
-0.00330511
0.0138572
0.0139023
0.0139295
0.0139402
0.0139485
0.013959
0.0139693
0.0139756
0.0139785
0.0139784
0.0139737
0.0139603
0.0139381
0.013911
0.0138879
0.0138741
0.0138719
0.0138769
0.0138829
0.0138822
0.0138706
0.0138461
0.0138106
0.0137654
0.0137134
0.0136545
0.013588
0.0135118
0.0134222
0.0133163
0.0131894
0.0130382
0.0128569
0.0126412
0.0123861
0.0120864
0.0117381
0.0113359
0.0108777
0.0103636
0.00979218
0.00916182
0.00847259
0.00772636
0.00692865
0.00608747
0.00521237
0.00431112
0.00339508
0.00246777
0.00154268
0.000619171
-0.000290915
-0.00118102
-0.00199778
-0.00262039
-0.00306277
-0.00337324
-0.00301853
-0.0030335
0.0138209
0.0138719
0.013905
0.0139205
0.0139319
0.0139444
0.0139561
0.0139636
0.0139675
0.0139677
0.0139627
0.0139479
0.0139237
0.0138936
0.0138663
0.0138468
0.0138374
0.0138331
0.0138279
0.0138141
0.0137877
0.0137473
0.013695
0.0136332
0.0135653
0.0134923
0.0134143
0.0133297
0.0132353
0.0131285
0.0130048
0.0128607
0.012691
0.01249
0.0122537
0.0119755
0.0116513
0.0112748
0.010843
0.0103548
0.0098069
0.0091959
0.00851986
0.00777853
0.00697565
0.00611805
0.00521492
0.0042748
0.00331113
0.00233061
0.00135162
0.000379467
-0.000567283
-0.00147583
-0.00228421
-0.00286298
-0.00321935
-0.00340582
-0.00287819
-0.00270773
0.0137803
0.0138337
0.0138703
0.0138893
0.0139027
0.0139156
0.0139273
0.0139347
0.0139382
0.0139377
0.0139314
0.013915
0.0138886
0.0138561
0.0138259
0.0138027
0.0137884
0.0137777
0.0137643
0.0137401
0.013701
0.0136455
0.0135762
0.0134957
0.0134082
0.0133155
0.0132184
0.0131162
0.0130065
0.0128871
0.0127541
0.0126043
0.0124322
0.0122334
0.0120025
0.0117335
0.0114219
0.011061
0.0106472
0.0101786
0.00965049
0.00905802
0.00839761
0.0076671
0.00686845
0.00600713
0.00509165
0.00413085
0.00313969
0.00212742
0.00111685
0.000118714
-0.000841608
-0.00174682
-0.00252794
-0.00304977
-0.0033168
-0.00338749
-0.00270137
-0.00234551
0.013724
0.0137772
0.0138145
0.0138349
0.0138488
0.0138614
0.0138724
0.013879
0.0138817
0.01388
0.0138722
0.0138541
0.0138261
0.013792
0.0137604
0.0137358
0.0137197
0.0137063
0.0136887
0.0136584
0.0136108
0.0135442
0.0134609
0.0133638
0.0132575
0.0131442
0.0130254
0.0129014
0.0127704
0.012631
0.0124796
0.012314
0.0121293
0.0119203
0.0116834
0.0114118
0.0111014
0.0107455
0.0103404
0.00988365
0.00936993
0.00879325
0.00814889
0.00743314
0.00664637
0.00579266
0.00487962
0.00391596
0.00291753
0.00189518
0.000875087
-0.000127418
-0.00108195
-0.00196739
-0.00270977
-0.00317056
-0.00335357
-0.00332252
-0.00249243
-0.00195514
0.0136702
0.0137197
0.0137551
0.013775
0.0137881
0.0137991
0.0138083
0.0138131
0.0138139
0.0138103
0.0138002
0.0137797
0.0137492
0.013713
0.0136796
0.0136537
0.0136364
0.0136216
0.013602
0.0135683
0.0135157
0.013442
0.013349
0.0132394
0.0131178
0.0129866
0.0128479
0.0127023
0.0125485
0.0123862
0.0122123
0.0120253
0.0118203
0.0115943
0.0113421
0.0110585
0.0107398
0.0103793
0.00997378
0.00952083
0.00901474
0.00844905
0.00781843
0.00711807
0.00634705
0.00550826
0.00460834
0.00365559
0.00266606
0.00165131
0.000639743
-0.000350065
-0.00128352
-0.0021382
-0.00283654
-0.00323799
-0.00334595
-0.0032268
-0.00226593
-0.00155296
0.0136032
0.0136479
0.0136801
0.0136982
0.0137093
0.0137178
0.0137242
0.0137264
0.0137247
0.0137183
0.0137055
0.0136823
0.0136493
0.0136111
0.0135765
0.01355
0.0135327
0.0135182
0.0134988
0.0134647
0.0134105
0.0133336
0.0132354
0.0131181
0.0129862
0.0128419
0.0126874
0.0125236
0.0123496
0.0121656
0.0119691
0.011759
0.0115319
0.0112838
0.0110119
0.0107104
0.0103766
0.0100046
0.0095915
0.0091355
0.00863092
0.00807125
0.00745103
0.00676481
0.00601074
0.00519072
0.00431049
0.00337777
0.00240833
0.00141366
0.000423256
-0.000542102
-0.00144547
-0.00226383
-0.00291712
-0.00326352
-0.00330562
-0.00310974
-0.00202688
-0.00114296
0.0135417
0.0135801
0.0136079
0.0136231
0.013631
0.0136356
0.0136377
0.0136356
0.0136296
0.0136191
0.013602
0.0135745
0.0135377
0.0134963
0.0134592
0.0134311
0.0134132
0.0133988
0.0133798
0.0133461
0.0132921
0.0132146
0.0131145
0.0129937
0.0128563
0.012704
0.012539
0.012362
0.0121725
0.0119707
0.0117546
0.0115238
0.0112747
0.0110054
0.0107119
0.0103901
0.0100379
0.00964993
0.00922429
0.00875982
0.00825127
0.00769247
0.00707823
0.00640286
0.00566396
0.00486276
0.00400426
0.00309556
0.00215183
0.00118396
0.000221611
-0.000712988
-0.00158108
-0.00236117
-0.00297104
-0.00326751
-0.00325144
-0.00298635
-0.00178729
-0.000737543
0.0134676
0.0134989
0.0135212
0.0135319
0.0135356
0.0135356
0.0135329
0.013526
0.0135152
0.0134999
0.013478
0.0134459
0.0134049
0.01336
0.0133205
0.0132912
0.013273
0.0132592
0.0132413
0.0132092
0.0131568
0.0130805
0.0129811
0.01286
0.0127209
0.0125652
0.0123948
0.01221
0.0120104
0.011796
0.0115651
0.0113175
0.0110507
0.0107615
0.0104485
0.0101069
0.00973572
0.00933042
0.00888992
0.00841398
0.00789797
0.00733629
0.00672426
0.00605634
0.00532984
0.00454565
0.00370813
0.00282399
0.00190742
0.000968688
3.68577e-05
-0.000864721
-0.00169709
-0.00243997
-0.00300928
-0.00326036
-0.00319153
-0.00286155
-0.00154827
-0.000336313
0.0133938
0.0134163
0.0134317
0.0134373
0.013436
0.0134306
0.0134225
0.0134102
0.0133941
0.0133734
0.0133462
0.0133087
0.0132626
0.0132132
0.0131701
0.0131382
0.0131186
0.0131042
0.0130866
0.0130554
0.0130043
0.0129297
0.0128321
0.0127125
0.0125744
0.0124187
0.0122468
0.012059
0.0118543
0.0116326
0.0113923
0.0111331
0.0108523
0.0105487
0.010219
0.00986026
0.00947173
0.00904968
0.0085939
0.00810503
0.00757923
0.00701166
0.00639824
0.00573392
0.00501588
0.00424515
0.00342536
0.0025634
0.00167194
0.000761269
-0.000141391
-0.00101083
-0.00180842
-0.00251628
-0.00304817
-0.00325746
-0.00313918
-0.00274592
-0.00131951
5.07515e-05
0.0132985
0.0133127
0.0133212
0.0133212
0.0133145
0.0133035
0.0132896
0.0132717
0.0132501
0.0132239
0.0131913
0.0131485
0.0130977
0.0130442
0.012998
0.0129642
0.0129436
0.0129291
0.0129122
0.0128821
0.0128328
0.0127603
0.0126651
0.0125482
0.0124126
0.0122592
0.0120889
0.0119015
0.0116958
0.0114714
0.0112264
0.0109606
0.0106717
0.0103569
0.0100154
0.00964305
0.00924013
0.00880357
0.00833391
0.00783259
0.00729661
0.0067218
0.00610495
0.00544134
0.00472854
0.00396755
0.00316198
0.00231844
0.0014488
0.000562919
-0.000313163
-0.00115326
-0.00191953
-0.00259562
-0.00309292
-0.00326277
-0.00309646
-0.00263952
-0.00109905
0.000426699
0.0131982
0.0132037
0.0132052
0.0131995
0.0131871
0.0131697
0.0131493
0.0131247
0.0130967
0.0130641
0.0130252
0.0129764
0.01292
0.0128617
0.0128118
0.0127752
0.0127529
0.0127377
0.0127207
0.0126913
0.0126431
0.0125724
0.0124797
0.0123658
0.0122335
0.0120836
0.0119166
0.0117321
0.0115283
0.0113047
0.011059
0.0107908
0.0104971
0.010177
0.00982726
0.00944542
0.00903161
0.00858338
0.00810187
0.00758924
0.00704328
0.00646049
0.00583843
0.00517291
0.00446197
0.00370681
0.00291108
0.00208153
0.00122906
0.000363854
-0.000489956
-0.00130393
-0.00204206
-0.00268922
-0.00315418
-0.00328593
-0.00307179
-0.00254989
-0.000895109
0.0007827
0.0130719
0.013069
0.013063
0.0130508
0.0130321
0.0130085
0.0129818
0.0129509
0.0129167
0.0128781
0.0128333
0.0127789
0.0127174
0.0126551
0.0126022
0.0125639
0.0125409
0.0125259
0.0125096
0.0124814
0.0124348
0.0123662
0.0122759
0.0121651
0.0120365
0.0118906
0.0117279
0.0115476
0.0113476
0.0111271
0.0108834
0.0106158
0.0103219
0.00999855
0.00964485
0.00925704
0.00883574
0.00837901
0.00788837
0.00736658
0.00681197
0.00622179
0.00559407
0.00492535
0.00421402
0.00346178
0.00267235
0.00185275
0.00101324
0.000164445
-0.000670587
-0.00146238
-0.00217642
-0.0027976
-0.00323187
-0.00332592
-0.00306318
-0.00247412
-0.000703652
0.00112385
0.0129344
0.0129218
0.0129076
0.0128888
0.0128638
0.0128339
0.0128009
0.012764
0.012724
0.0126797
0.0126292
0.0125694
0.0125029
0.0124363
0.0123801
0.0123395
0.0123153
0.0122998
0.0122836
0.012256
0.0122105
0.0121434
0.0120554
0.0119475
0.0118223
0.0116805
0.0115224
0.0113468
0.0111516
0.0109354
0.0106954
0.0104307
0.0101378
0.00981538
0.00945993
0.00906914
0.00864329
0.00818074
0.00768336
0.00715422
0.00659219
0.00599501
0.00536125
0.00468799
0.00397419
0.00322202
0.00243541
0.00162185
0.000791033
-4.52354e-05
-0.000865484
-0.00163823
-0.002331
-0.00292841
-0.00333299
-0.00338925
-0.00307685
-0.00241883
-0.000532726
0.00144136
0.0127634
0.0127421
0.0127204
0.0126951
0.012664
0.0126281
0.0125893
0.0125468
0.0125015
0.0124522
0.012397
0.0123328
0.0122625
0.012193
0.012135
0.0120937
0.0120696
0.012055
0.01204
0.0120138
0.01197
0.0119048
0.0118191
0.011714
0.0115922
0.0114544
0.0113007
0.01113
0.0109398
0.0107285
0.0104931
0.0102321
0.00994276
0.00962136
0.00926675
0.00887501
0.00844686
0.00798087
0.0074791
0.0069447
0.00637698
0.00577394
0.00513463
0.00445657
0.00373931
0.00298545
0.00219935
0.00138887
0.000563641
-0.000263358
-0.00107138
-0.00182833
-0.00250316
-0.00307886
-0.0034544
-0.00347232
-0.0031088
-0.0023795
-0.000377003
0.00174139
0.0125799
0.01255
0.0125212
0.0124899
0.0124529
0.0124107
0.0123657
0.0123172
0.0122663
0.0122116
0.0121515
0.0120827
0.0120086
0.0119362
0.0118763
0.0118342
0.0118104
0.0117965
0.0117828
0.011758
0.0117158
0.0116525
0.011569
0.0114665
0.011348
0.011214
0.0110646
0.0108986
0.0107133
0.010507
0.0102763
0.0100197
0.00973333
0.00941542
0.009062
0.0086707
0.00824172
0.00777386
0.00726916
0.00673084
0.00615834
0.00555003
0.00490512
0.00422171
0.00349971
0.0027425
0.00195448
0.00114456
0.000321783
-0.000498428
-0.0012971
-0.00204002
-0.00269923
-0.00325459
-0.00360139
-0.00358039
-0.0031646
-0.00236271
-0.000244789
0.00201448
0.0123644
0.0123266
0.0122906
0.0122528
0.01221
0.0121622
0.0121118
0.0120582
0.0120025
0.0119435
0.0118793
0.0118072
0.0117304
0.0116564
0.0115963
0.0115551
0.011533
0.0115215
0.0115104
0.0114882
0.0114485
0.0113877
0.0113068
0.0112073
0.011092
0.0109616
0.0108163
0.0106547
0.0104741
0.0102724
0.0100463
0.0097938
0.00951169
0.00919584
0.0088447
0.00845438
0.0080254
0.00755676
0.00705039
0.00650938
0.00593327
0.00532056
0.00467063
0.00398196
0.00325491
0.0024934
0.00170225
0.000891018
6.89569e-05
-0.000746558
-0.00153715
-0.00226854
-0.00291448
-0.00345085
-0.00376917
-0.00370864
-0.00323928
-0.00236296
-0.000129672
0.00226772
0.0121372
0.0120905
0.0120469
0.012003
0.0119545
0.0119014
0.0118461
0.0117881
0.0117285
0.0116659
0.0115985
0.0115234
0.0114444
0.011369
0.0113085
0.0112679
0.0112474
0.011238
0.0112292
0.0112093
0.0111721
0.0111138
0.0110355
0.0109388
0.0108267
0.0106999
0.0105585
0.0104011
0.0102248
0.0100274
0.00980552
0.00955698
0.00927762
0.00896523
0.00861561
0.00822637
0.00779766
0.0073285
0.00682076
0.00627731
0.00569778
0.00508065
0.0044255
0.00373101
0.0029981
0.00223107
0.00143529
0.00062096
-0.000202245
-0.00101479
-0.00179893
-0.00251995
-0.00315421
-0.00367253
-0.00396265
-0.00386227
-0.00333875
-0.0023875
-4.07428e-05
0.00249089
0.0118731
0.011819
0.0117691
0.01172
0.0116669
0.0116096
0.0115504
0.011489
0.0114265
0.0113616
0.0112923
0.011216
0.0111365
0.0110615
0.0110027
0.0109649
0.0109478
0.0109422
0.0109373
0.0109212
0.0108874
0.0108323
0.0107572
0.0106637
0.010555
0.0104318
0.0102942
0.0101406
0.00996831
0.00977489
0.00955668
0.00931138
0.00903551
0.00872447
0.0083767
0.00798818
0.00755951
0.0070898
0.00658078
0.00603513
0.00545245
0.00483124
0.00417105
0.00347079
0.00273175
0.00195869
0.00115749
0.000339026
-0.000486414
-0.00129722
-0.00207578
-0.00278827
-0.00341245
-0.00391384
-0.00417625
-0.00403587
-0.00345745
-0.00243006
2.93195e-05
0.00269222
0.0115939
0.0115321
0.0114762
0.0114226
0.0113656
0.0113047
0.0112426
0.0111788
0.0111146
0.0110484
0.0109784
0.0109017
0.0108225
0.0107486
0.0106919
0.0106569
0.0106435
0.0106419
0.0106411
0.0106288
0.0105987
0.0105471
0.0104754
0.0103853
0.0102801
0.0101604
0.0100264
0.00987659
0.00970785
0.00951789
0.00930289
0.00906055
0.0087863
0.00847783
0.00813059
0.0077423
0.00731306
0.00684207
0.00633104
0.00578252
0.00519608
0.00457017
0.00390429
0.00319752
0.00245145
0.0016713
0.000863462
3.9507e-05
-0.000789584
-0.00159999
-0.0023743
-0.00307903
-0.00369424
-0.00417964
-0.00441501
-0.00423494
-0.00360177
-0.00249858
7.07413e-05
0.00286087
0.0112951
0.0112261
0.0111636
0.0111042
0.0110428
0.0109786
0.0109145
0.0108496
0.0107851
0.0107192
0.0106499
0.0105742
0.0104965
0.0104251
0.0103717
0.0103413
0.010333
0.010337
0.0103416
0.0103345
0.010309
0.0102615
0.0101936
0.0101072
0.0100054
0.0098892
0.00975861
0.00961204
0.00944645
0.00925942
0.00904706
0.00880681
0.00853499
0.00822666
0.00788002
0.0074911
0.00706041
0.00658737
0.00607371
0.00552186
0.00493132
0.00430048
0.0036287
0.00291516
0.0021617
0.00137395
0.000558791
-0.000271464
-0.00110511
-0.00191616
-0.00268715
-0.00338572
-0.00399316
-0.00446374
-0.00467301
-0.00445368
-0.00376564
-0.00258604
9.17673e-05
0.00300605
0.0110486
0.0109702
0.0108991
0.010832
0.0107627
0.010691
0.01062
0.0105497
0.0104812
0.0104126
0.0103417
0.0102652
0.0101877
0.0101172
0.0100658
0.0100382
0.0100336
0.0100416
0.0100505
0.0100473
0.0100257
0.00998173
0.00991712
0.00983382
0.00973507
0.00962179
0.00949401
0.00935015
0.00918706
0.00900236
0.00879201
0.00855352
0.00828206
0.00797489
0.00762724
0.00723677
0.00680366
0.00632747
0.00581003
0.00525371
0.004658
0.00402117
0.00334248
0.00262113
0.00185919
0.00106267
0.000238944
-0.000598957
-0.00143857
-0.00225173
-0.00302089
-0.00371425
-0.00431491
-0.00477174
-0.004956
-0.00469835
-0.00395632
-0.00270125
8.17897e-05
0.00311596
0.0107461
0.0106649
0.0105912
0.0105215
0.01045
0.0103762
0.0103036
0.010232
0.0101631
0.0100949
0.0100252
0.00995083
0.00987624
0.00980961
0.00976288
0.00974048
0.00974138
0.00975484
0.00976868
0.00977007
0.00975229
0.00971165
0.00964989
0.00956912
0.00947267
0.00936152
0.00923576
0.00909376
0.0089324
0.00874915
0.00853996
0.00830206
0.00803143
0.00772263
0.00737388
0.00698086
0.00654441
0.00606422
0.00554221
0.00498075
0.00437926
0.00373592
0.0030498
0.00232013
0.00154913
0.000743178
-8.99046e-05
-0.000936365
-0.001783
-0.00259951
-0.00336818
-0.00405799
-0.00465309
-0.00509748
-0.00525799
-0.00496289
-0.00416724
-0.00283643
4.98376e-05
0.00320066
0.0105246
0.0104383
0.0103601
0.0102863
0.01021
0.0101309
0.0100525
0.00997532
0.0099013
0.00982885
0.00975599
0.00967953
0.00960404
0.00953769
0.00949234
0.00947208
0.00947562
0.00949179
0.00950824
0.00951187
0.00949604
0.009457
0.00939663
0.00931706
0.00922168
0.00911149
0.00898658
0.00884533
0.00868451
0.00850164
0.00829252
0.00805443
0.00778214
0.00747275
0.00712108
0.00672473
0.00628403
0.00579879
0.00527108
0.00470328
0.00409477
0.00344365
0.00274886
0.0020096
0.00122824
0.000411476
-0.000432403
-0.00128897
-0.00214427
-0.00296596
-0.003736
-0.00442352
-0.00501421
-0.00544739
-0.00558555
-0.00525432
-0.0044064
-0.00300117
-1.54038e-05
0.00324777
0.010257
0.0101714
0.0100943
0.0100221
0.00994772
0.00987034
0.00979345
0.00971735
0.00964413
0.00957217
0.00949984
0.00942401
0.00934973
0.00928527
0.00924252
0.00922528
0.00923188
0.0092508
0.00926936
0.00927445
0.00925941
0.00922069
0.00916026
0.00908043
0.00898464
0.00887395
0.00874846
0.00860652
0.0084449
0.00826107
0.00805075
0.00781098
0.00753747
0.00722448
0.00686987
0.00646923
0.00602339
0.00553237
0.00499828
0.00442349
0.00380732
0.00314775
0.00244362
0.00169404
0.000901536
7.30912e-05
-0.00078258
-0.00165041
-0.00251569
-0.00334417
-0.0041172
-0.00480434
-0.00539198
-0.00581539
-0.00593258
-0.00556631
-0.00466672
-0.00318695
-0.000104049
0.00326885
0.010086
0.00999943
0.00992148
0.00984844
0.00977234
0.00969225
0.0096117
0.00953151
0.00945384
0.00937744
0.00930073
0.00922097
0.00914341
0.00907658
0.00903248
0.00901462
0.00902106
0.00903974
0.0090578
0.00906188
0.00904549
0.00900504
0.00894274
0.00886092
0.00876309
0.00865033
0.0085227
0.00837861
0.00821472
0.00802857
0.00781576
0.00757341
0.00729603
0.00698032
0.00662086
0.00621501
0.00576317
0.0052654
0.00472388
0.00414095
0.00351585
0.00284648
0.00213158
0.00137024
0.00056509
-0.00027661
-0.00114574
-0.00202663
-0.00290385
-0.0037413
-0.00451955
-0.00520794
-0.00579396
-0.00620899
-0.0063067
-0.00590686
-0.00495715
-0.00340426
-0.00022799
0.00325115
0.00986532
0.00978452
0.00971279
0.00964602
0.00957573
0.00950013
0.00942272
0.00934409
0.0092669
0.00918997
0.00911217
0.00903095
0.00895218
0.00888473
0.00884072
0.0088235
0.00883067
0.00884979
0.00886751
0.00887045
0.00885209
0.00880907
0.00874375
0.00865867
0.00855744
0.00844118
0.00831001
0.00816232
0.00799483
0.00780496
0.00758828
0.0073417
0.00706063
0.00673891
0.00637444
0.00596232
0.00550365
0.00499846
0.00444888
0.00385717
0.00322247
0.00254256
0.00181609
0.00104214
0.000223389
-0.000632637
-0.00151644
-0.00241178
-0.00330253
-0.00415083
-0.00493627
-0.00562799
-0.00621398
-0.00662209
-0.00670165
-0.00626929
-0.00527001
-0.00364389
-0.000375471
0.00320759
0.00968152
0.00960465
0.00953772
0.0094765
0.00941187
0.00934134
0.00926797
0.00919206
0.00911612
0.00903891
0.0089595
0.00887577
0.00879413
0.00872403
0.00867802
0.00865937
0.0086655
0.00868341
0.00869948
0.00869999
0.00867855
0.00863183
0.00856244
0.008473
0.00836723
0.00824632
0.00811039
0.0079579
0.00778543
0.00759052
0.0073686
0.00711673
0.00682907
0.00650233
0.00613072
0.00571146
0.00524501
0.00473136
0.00417261
0.00357092
0.00292529
0.00223341
0.00149388
0.000705725
-0.000128274
-0.00100036
-0.00190071
-0.00281253
-0.00371902
-0.00458065
-0.00537575
-0.00607271
-0.00666028
-0.00706296
-0.00712579
-0.00666234
-0.00561495
-0.00391698
-0.000557997
0.0031249
0.00948706
0.00941307
0.00935028
0.00929455
0.00923604
0.00917179
0.00910446
0.00903385
0.0089621
0.00888759
0.00880938
0.00872543
0.00864287
0.00857175
0.00852513
0.00850638
0.00851264
0.0085305
0.00854579
0.00854461
0.00852042
0.00847007
0.00839633
0.00830204
0.00819105
0.00806466
0.00792303
0.00776462
0.00758606
0.00738484
0.00715641
0.00689763
0.00660381
0.00626864
0.00588979
0.00546224
0.00498701
0.00446411
0.00389549
0.00328313
0.00262583
0.00192119
0.00116773
0.000364415
-0.000485882
-0.00137525
-0.00229349
-0.00322338
-0.00414742
-0.00502449
-0.00583129
-0.0065357
-0.0071265
-0.00752515
-0.00757246
-0.00707879
-0.00598359
-0.00421349
-0.000763939
0.00301667
0.00931623
0.00924414
0.00918416
0.00913211
0.00907776
0.00901792
0.00895504
0.00888876
0.00882079
0.00874921
0.00867266
0.0085892
0.00850615
0.00843414
0.00838672
0.00836742
0.00837337
0.00839073
0.00840503
0.00840195
0.00837498
0.0083209
0.00824269
0.00814332
0.00802675
0.00789438
0.00774639
0.00758131
0.00739573
0.00718727
0.00695128
0.00668485
0.0063821
0.00603951
0.00565127
0.00521435
0.00472928
0.00419597
0.00361627
0.00299195
0.0023216
0.00160272
0.000833758
1.36617e-05
-0.000854685
-0.00176317
-0.00270134
-0.00365146
-0.00459544
-0.00549058