/*--------------------------------*- C++ -*----------------------------------*\
  =========                 |
  \\      /  F ield         | OpenFOAM: The Open Source CFD Toolbox
   \\    /   O peration     | Website:  https://openfoam.org
    \\  /    A nd           | Version:  6.0
     \\/     M anipulation  |
\*---------------------------------------------------------------------------*/
FoamFile
{
    version     2.0;
    format      ascii;
    class       surfaceScalarField;
    location    "20";
    object      phi;
}
// * * * * * * * * * * * * * * * * * * * * * * * * * * * * * * * * * * * * * //

dimensions      [0 3 -1 0 0 0 0];

internalField   nonuniform List<scalar> 
123526
(
5.48349e-05
2.30537e-05
-5.44457e-05
5.52556e-05
2.492e-05
5.57106e-05
2.69367e-05
5.62019e-05
2.91159e-05
5.67336e-05
3.14705e-05
5.7308e-05
3.40144e-05
5.79299e-05
3.67627e-05
5.86023e-05
3.97315e-05
5.93314e-05
4.29375e-05
6.01203e-05
4.64009e-05
6.09742e-05
5.01424e-05
6.18977e-05
5.41828e-05
6.28969e-05
5.85458e-05
6.39798e-05
6.32541e-05
6.51543e-05
6.8336e-05
6.64246e-05
7.38241e-05
6.77989e-05
7.97465e-05
6.9291e-05
8.61305e-05
7.09082e-05
9.30191e-05
7.26572e-05
0.000100451
7.45551e-05
0.000108457
7.6613e-05
0.000117085
7.88379e-05
0.000126387
8.12549e-05
0.000136391
8.38692e-05
0.000147168
8.67007e-05
0.000158757
8.97674e-05
0.000171213
9.30832e-05
0.000184598
9.66735e-05
0.000198957
0.000100551
0.00021436
0.000104745
0.000230851
0.00010927
0.000248495
0.000114155
0.000267334
0.00011942
0.000287419
0.00012509
0.000308788
0.000131194
0.000331457
0.000137754
0.000355447
0.000144796
0.000380738
0.000152347
0.000407288
0.000160428
0.000435022
0.00016906
0.000463807
0.000178262
0.000493453
0.000188048
0.000523691
0.000198423
0.00055415
0.000209385
0.000584333
0.000220919
0.00061359
0.000232994
0.000641079
0.000245558
0.000665722
0.000258535
0.00068616
0.000271814
0.000700691
0.000285242
0.000707209
0.000298619
0.000703129
0.000311682
0.000685317
0.000324096
0.000650004
0.000335439
0.00059276
0.000345194
0.000508412
0.000352774
0.000391412
0.000356232
0.000236593
0.000360979
3.46511e-05
-0.000218317
0.000382086
5.40949e-05
2.26706e-05
-5.37128e-05
5.45081e-05
2.45061e-05
5.49551e-05
2.64894e-05
5.54378e-05
2.86325e-05
5.596e-05
3.0948e-05
5.65241e-05
3.34497e-05
5.71345e-05
3.61521e-05
5.77944e-05
3.90711e-05
5.85097e-05
4.22222e-05
5.92835e-05
4.56267e-05
6.01209e-05
4.9305e-05
6.10263e-05
5.32772e-05
6.2006e-05
5.75662e-05
6.30676e-05
6.21923e-05
6.4219e-05
6.71846e-05
6.54642e-05
7.25786e-05
6.68114e-05
7.83991e-05
6.82741e-05
8.46674e-05
6.98596e-05
9.14334e-05
7.15743e-05
9.87359e-05
7.34353e-05
0.000106595
7.54532e-05
0.000115067
7.76352e-05
0.000124204
8.00056e-05
0.00013402
8.25697e-05
0.000144603
8.53469e-05
0.000155979
8.83551e-05
0.000168204
9.16075e-05
0.000181345
9.51293e-05
0.000195434
9.89331e-05
0.000210556
0.000103047
0.000226737
0.000107486
0.000244055
0.000112277
0.000262542
0.000117442
0.000282253
0.000123003
0.000303224
0.000128991
0.000325467
0.000135426
0.000349011
0.000142335
0.000373827
0.000149744
0.000399878
0.000157673
0.000427091
0.000166144
0.000455334
0.000175176
0.000484418
0.000184782
0.000514083
0.000194967
0.000543962
0.000205729
0.000573568
0.000217053
0.000602262
0.000228909
0.000629218
0.000241246
0.00065338
0.000253986
0.000673413
0.000267021
0.000687648
0.000280201
0.000694018
0.000293329
0.000689987
0.000306144
0.000672479
0.000318319
0.000637798
0.00032944
0.000581598
0.000338981
0.000498817
0.000346345
0.000383971
0.000350934
0.000231888
0.000352654
3.27114e-05
-0.000215095
0.000349271
5.326e-05
2.22947e-05
-5.28851e-05
5.36656e-05
2.40997e-05
5.41046e-05
2.60501e-05
5.4579e-05
2.81574e-05
5.50924e-05
3.04343e-05
5.56472e-05
3.28942e-05
5.62479e-05
3.55513e-05
5.68973e-05
3.84211e-05
5.76014e-05
4.15181e-05
5.83632e-05
4.48645e-05
5.91875e-05
4.84807e-05
6.00788e-05
5.23856e-05
6.1043e-05
5.66019e-05
6.20878e-05
6.11473e-05
6.32207e-05
6.60516e-05
6.44457e-05
7.13533e-05
6.57707e-05
7.7074e-05
6.72089e-05
8.32288e-05
6.87675e-05
8.98745e-05
7.04527e-05
9.70502e-05
7.22811e-05
0.000104767
7.42634e-05
0.000113084
7.64063e-05
0.000122061
7.8734e-05
0.000131692
8.12514e-05
0.000142085
8.39778e-05
0.000153252
8.69305e-05
0.000165251
9.01227e-05
0.000178152
9.3579e-05
0.000191977
9.73118e-05
0.000206822
0.000101348
0.000222699
0.000105704
0.000239698
0.000110405
0.00025784
0.000115474
0.000277183
0.000120932
0.000297765
0.000126809
0.000319588
0.000133125
0.000342693
0.000139906
0.000367044
0.000147178
0.000392603
0.000154962
0.000419305
0.000163279
0.000447015
0.000172147
0.000475548
0.000181579
0.000504649
0.00019158
0.000533959
0.000202146
0.000562999
0.000213265
0.000591142
0.000224903
0.000617578
0.000237013
0.00064127
0.000249516
0.000660909
0.000262306
0.000674857
0.000275236
0.000681087
0.000288111
0.00067711
0.000300676
0.000659905
0.000312611
0.000625852
0.000323512
0.000570681
0.000332863
0.000489448
0.000340089
0.000376722
0.000344503
0.000227452
0.000346375
3.08166e-05
-0.00021755
0.000348829
5.24269e-05
2.19253e-05
-5.20582e-05
5.28256e-05
2.37004e-05
5.3257e-05
2.56184e-05
5.3723e-05
2.76908e-05
5.42273e-05
2.99299e-05
5.47722e-05
3.23487e-05
5.53621e-05
3.49613e-05
5.59998e-05
3.77828e-05
5.66913e-05
4.08266e-05
5.74395e-05
4.4116e-05
5.82492e-05
4.76711e-05
5.91246e-05
5.15099e-05
6.00719e-05
5.56547e-05
6.10983e-05
6.01207e-05
6.22115e-05
6.49384e-05
6.34152e-05
7.01494e-05
6.47173e-05
7.57718e-05
6.61306e-05
8.18152e-05
6.76622e-05
8.83426e-05
6.93181e-05
9.53938e-05
7.11148e-05
0.00010297
7.30624e-05
0.000111136
7.51678e-05
0.000119955
7.74544e-05
0.000129404
7.99273e-05
0.000139612
8.26052e-05
0.000150573
8.55052e-05
0.00016235
8.86402e-05
0.000175016
9.20344e-05
0.000188582
9.57e-05
0.000203156
9.96635e-05
0.000218735
0.000103941
0.00023542
0.000108557
0.000253223
0.000113533
0.000272205
0.000118893
0.000292404
0.000124663
0.000313816
0.000130865
0.00033649
0.000137524
0.000360383
0.000144665
0.00038546
0.000152309
0.000411659
0.000160476
0.000438846
0.000169184
0.000466837
0.000178445
0.000495385
0.000188264
0.000524136
0.000198639
0.000552621
0.000209554
0.000580223
0.000220978
0.000606148
0.000232863
0.00062938
0.000245131
0.000648632
0.00025768
0.0006623
0.000270364
0.000668391
0.000282992
0.000664465
0.000295316
0.000647556
0.00030702
0.000614113
0.000317715
0.000559941
0.000326906
0.000480197
0.000334025
0.000369517
0.000338575
0.000222776
0.000340291
2.88625e-05
-0.000216996
0.000339566
5.16316e-05
2.15619e-05
-5.12693e-05
5.20234e-05
2.33077e-05
5.24474e-05
2.51941e-05
5.29051e-05
2.72322e-05
5.34005e-05
2.94342e-05
5.39356e-05
3.18129e-05
5.45147e-05
3.4382e-05
5.51407e-05
3.71562e-05
5.58194e-05
4.01479e-05
5.65536e-05
4.33813e-05
5.73481e-05
4.68766e-05
5.8207e-05
5.06507e-05
5.91364e-05
5.47254e-05
6.01433e-05
5.91134e-05
6.12355e-05
6.38462e-05
6.24166e-05
6.8968e-05
6.36943e-05
7.44939e-05
6.50815e-05
8.04276e-05
6.6585e-05
8.68389e-05
6.82108e-05
9.37675e-05
6.99749e-05
0.000101205
7.18874e-05
0.000109223
7.3955e-05
0.000117887
7.62007e-05
0.000127158
7.86294e-05
0.000137183
8.12595e-05
0.000147943
8.41078e-05
0.000159501
8.7187e-05
0.000171936
9.05207e-05
0.000185248
9.4121e-05
0.000199555
9.8014e-05
0.000214841
0.000102215
0.000231219
0.000106749
0.000248688
0.000111636
0.000267316
0.0001169
0.000287139
0.000122567
0.000308147
0.000128658
0.000330397
0.000135198
0.000353842
0.000142211
0.000378445
0.000149717
0.000404151
0.000157737
0.000430824
0.000166288
0.000458284
0.000175382
0.00048629
0.000185023
0.000514494
0.000195208
0.000542434
0.000205923
0.000569508
0.000217136
0.000594934
0.0002288
0.000617716
0.000240839
0.000636592
0.000253152
0.000649988
0.000265596
0.000655948
0.000277985
0.000652076
0.000290075
0.000635462
0.000301558
0.000602621
0.000312055
0.000549435
0.000321092
0.000471148
0.000328112
0.000362484
0.00033258
0.000218299
0.000334186
2.72585e-05
-0.000216405
0.000333614
5.0862e-05
2.1205e-05
-5.05059e-05
5.12468e-05
2.29222e-05
5.16631e-05
2.47776e-05
5.21125e-05
2.67821e-05
5.25989e-05
2.89478e-05
5.3124e-05
3.12871e-05
5.36925e-05
3.38135e-05
5.4307e-05
3.65412e-05
5.49733e-05
3.94818e-05
5.5694e-05
4.26602e-05
5.6474e-05
4.60967e-05
5.73172e-05
4.98073e-05
5.82295e-05
5.38132e-05
5.92178e-05
5.81249e-05
6.02897e-05
6.27744e-05
6.14487e-05
6.78087e-05
6.27026e-05
7.324e-05
6.40639e-05
7.9066e-05
6.55396e-05
8.53631e-05
6.71354e-05
9.21713e-05
6.88672e-05
9.9473e-05
7.07449e-05
0.000107345
7.27752e-05
0.000115856
7.49804e-05
0.000124953
7.73656e-05
0.000134797
7.99487e-05
0.000145359
8.27462e-05
0.000156703
8.57705e-05
0.000168911
8.90448e-05
0.000181973
9.25811e-05
0.000196018
9.64048e-05
0.000211017
0.000100531
0.000227092
0.000104984
0.000244234
0.000109785
0.000262514
0.000114954
0.000281968
0.000120521
0.000302579
0.000126502
0.000324414
0.000132925
0.000347417
0.000139812
0.000371556
0.000147183
0.000396777
0.000155059
0.000422946
0.000163455
0.000449885
0.000172384
0.000477359
0.000181849
0.000505025
0.000191848
0.000532432
0.000202365
0.000558986
0.000213371
0.000583923
0.000224818
0.000606263
0.000236633
0.000624771
0.000248714
0.000637898
0.000260923
0.000643727
0.000273078
0.000639906
0.000284939
0.000623577
0.000296207
0.000591321
0.000306509
0.00053909
0.000315389
0.00046221
0.000322307
0.000355484
0.000326728
0.000213757
0.000328155
2.55991e-05
-0.000215711
0.000327296
5.0104e-05
2.08551e-05
-4.97549e-05
5.04811e-05
2.25443e-05
5.08892e-05
2.43693e-05
5.13297e-05
2.63409e-05
5.18064e-05
2.84709e-05
5.23213e-05
3.07715e-05
5.28789e-05
3.32558e-05
5.34817e-05
3.59378e-05
5.41356e-05
3.88279e-05
5.48432e-05
4.19521e-05
5.56093e-05
4.53307e-05
5.64377e-05
4.89786e-05
5.73341e-05
5.29168e-05
5.83053e-05
5.71534e-05
5.93586e-05
6.17211e-05
6.04974e-05
6.66696e-05
6.17292e-05
7.2008e-05
6.30663e-05
7.77285e-05
6.45156e-05
8.39136e-05
6.60828e-05
9.06036e-05
6.77837e-05
9.77718e-05
6.96278e-05
0.0001055
7.16219e-05
0.000113862
7.37879e-05
0.000122786
7.61307e-05
0.000132454
7.86679e-05
0.000142821
8.14158e-05
0.000153955
8.43864e-05
0.00016594
8.76027e-05
0.000178756
9.10762e-05
0.000192544
9.4832e-05
0.000207261
9.88848e-05
0.000223038
0.000103259
0.00023986
0.000107974
0.000257798
0.000113051
0.000276889
0.000118518
0.000297111
0.000124393
0.000318538
0.0001307
0.000341108
0.000137463
0.000364791
0.000144701
0.000389537
0.000152434
0.000415212
0.000160678
0.00044164
0.000169444
0.000468591
0.000178736
0.000495732
0.000188551
0.000522615
0.000198874
0.000548662
0.000209676
0.00057312
0.00022091
0.00059503
0.000232504
0.000613178
0.000244358
0.000626045
0.000256337
0.00063175
0.000268264
0.000627982
0.000279903
0.000611938
0.000290961
0.000580259
0.000301073
0.000528974
0.0003098
0.000453479
0.000316619
0.000348663
0.000321017
0.000209364
0.000322284
2.43598e-05
-0.000214398
0.00032101
4.93473e-05
2.05128e-05
-4.90055e-05
4.97163e-05
2.21746e-05
5.01155e-05
2.39699e-05
5.05465e-05
2.59093e-05
5.10132e-05
2.80043e-05
5.15174e-05
3.02667e-05
5.20638e-05
3.27094e-05
5.26549e-05
3.53462e-05
5.32965e-05
3.81864e-05
5.39912e-05
4.12571e-05
5.47437e-05
4.45783e-05
5.55579e-05
4.81642e-05
5.64395e-05
5.20354e-05
5.7395e-05
5.61978e-05
5.84315e-05
6.06848e-05
5.9552e-05
6.55488e-05
6.07641e-05
7.0796e-05
6.20794e-05
7.64129e-05
6.35047e-05
8.24881e-05
6.50456e-05
8.90623e-05
6.67174e-05
9.60997e-05
6.85298e-05
0.000103688
7.04894e-05
0.000111902
7.26177e-05
0.000120657
7.49196e-05
0.000130151
7.74124e-05
0.000140328
8.0112e-05
0.000151255
8.30304e-05
0.000163021
8.61899e-05
0.000175596
8.9602e-05
0.000189131
9.32913e-05
0.000203571
9.72723e-05
0.000219057
0.000101568
0.000235563
0.0001062
0.000253165
0.000111186
0.000271902
0.000116555
0.00029174
0.000122324
0.000312767
0.000128518
0.000334913
0.000135159
0.000358148
0.000142266
0.000382428
0.000149859
0.000407618
0.000157952
0.000433543
0.000166558
0.000459983
0.00017568
0.000486607
0.000185314
0.000512978
0.000195446
0.000538525
0.000206048
0.000562513
0.000217073
0.000584
0.00022845
0.000601793
0.000240083
0.000614404
0.000251838
0.000619983
0.000263543
0.000616264
0.000274966
0.000600493
0.000285822
0.000569373
0.000295753
0.000519002
0.000304332
0.000444846
0.000311054
0.000341863
0.000315425
0.000204879
0.000316567
2.29955e-05
-0.000212744
0.000314756
4.85848e-05
2.01783e-05
-4.82512e-05
4.89453e-05
2.18133e-05
4.93356e-05
2.35793e-05
4.97573e-05
2.54868e-05
5.02143e-05
2.75471e-05
5.07084e-05
2.97719e-05
5.12442e-05
3.21736e-05
5.18241e-05
3.47657e-05
5.24539e-05
3.75567e-05
5.31361e-05
4.05744e-05
5.38755e-05
4.38389e-05
5.46758e-05
4.73635e-05
5.5543e-05
5.11683e-05
5.64833e-05
5.52572e-05
5.75038e-05
5.96642e-05
5.86076e-05
6.44447e-05
5.98016e-05
6.96018e-05
6.10973e-05
7.51168e-05
6.2501e-05
8.10842e-05
6.40181e-05
8.75448e-05
6.56635e-05
9.4454e-05
6.74465e-05
0.000101904
6.93738e-05
0.000109974
7.14664e-05
0.000118564
7.37292e-05
0.000127888
7.61792e-05
0.000137877
7.88321e-05
0.000148601
8.16997e-05
0.000160153
8.4804e-05
0.000172491
8.8156e-05
0.000185779
9.17801e-05
0.000199946
9.56905e-05
0.000215146
9.99103e-05
0.000231343
0.000104459
0.000248616
0.000109357
0.000267003
0.000114629
0.000286466
0.000120295
0.0003071
0.000126377
0.00032883
0.000132898
0.000351626
0.000139876
0.000375448
0.000147331
0.000400162
0.000155277
0.000425596
0.000163725
0.000451534
0.000172679
0.000477652
0.000182135
0.00050352
0.00019208
0.00052858
0.000202485
0.000552108
0.000213305
0.000573181
0.000224471
0.000590629
0.000235888
0.00060299
0.000247425
0.000608449
0.000258914
0.00060478
0.000270128
0.000589281
0.000280788
0.000558714
0.000290545
0.000509247
0.00029898
0.000436414
0.000305602
0.000335249
0.000309928
0.000200573
0.000310988
2.19914e-05
-0.000210418
0.00030872
4.78201e-05
1.98512e-05
-4.74936e-05
4.81731e-05
2.14596e-05
4.85557e-05
2.31965e-05
4.89694e-05
2.50725e-05
4.9418e-05
2.70985e-05
4.99033e-05
2.9286e-05
5.04297e-05
3.16472e-05
5.09995e-05
3.41953e-05
5.16184e-05
3.69379e-05
5.22888e-05
3.99037e-05
5.30156e-05
4.31125e-05
5.38022e-05
4.65766e-05
5.46547e-05
5.03161e-05
5.55794e-05
5.43323e-05
5.65836e-05
5.86604e-05
5.767e-05
6.33581e-05
5.8846e-05
6.8426e-05
6.01223e-05
7.38402e-05
6.15054e-05
7.97011e-05
6.29999e-05
8.60498e-05
6.46206e-05
9.28331e-05
6.63762e-05
0.000100148
6.8273e-05
0.000108077
7.03318e-05
0.000116505
7.25574e-05
0.000125662
7.49664e-05
0.000135468
7.75742e-05
0.000145993
8.03925e-05
0.000157334
8.34429e-05
0.00016944
8.67364e-05
0.000182485
9.02966e-05
0.000196385
9.4138e-05
0.000211304
9.82826e-05
0.000227197
0.00010275
0.000244147
0.00010756
0.000262192
0.000112738
0.000281287
0.000118302
0.000301535
0.000124274
0.000322856
0.000130677
0.000345221
0.000137529
0.000368595
0.000144848
0.000392842
0.000152649
0.000417793
0.000160942
0.000443239
0.000169731
0.00046886
0.000179014
0.000494235
0.000188775
0.000518815
0.000198987
0.000541891
0.000209607
0.000562556
0.000220565
0.000579664
0.000231771
0.000591777
0.000243095
0.000597114
0.000254373
0.00059349
0.000265383
0.000578252
0.000275852
0.000548218
0.000285437
0.000499625
0.000293731
0.00042807
0.000300249
0.00032866
0.000304514
0.000196202
0.000305538
2.07605e-05
-0.000208022
0.000302997
4.70666e-05
1.953e-05
-4.67461e-05
4.74136e-05
2.11118e-05
4.77902e-05
2.28197e-05
4.81977e-05
2.46642e-05
4.86398e-05
2.66563e-05
4.9118e-05
2.88071e-05
4.96366e-05
3.11286e-05
5.01977e-05
3.36336e-05
5.0807e-05
3.63288e-05
5.14665e-05
3.92436e-05
5.21811e-05
4.2398e-05
5.29541e-05
4.58032e-05
5.37916e-05
4.94787e-05
5.46998e-05
5.34237e-05
5.56862e-05
5.76741e-05
5.67536e-05
6.22902e-05
5.79096e-05
6.727e-05
5.9165e-05
7.25844e-05
6.05259e-05
7.834e-05
6.19972e-05
8.45781e-05
6.35928e-05
9.12373e-05
6.53212e-05
9.84191e-05
6.71884e-05
0.00010621
6.92145e-05
0.000114479
7.1404e-05
0.000123472
7.37732e-05
0.000133098
7.63373e-05
0.000143429
7.91077e-05
0.000154563
8.21054e-05
0.000166442
8.53416e-05
0.000179248
8.88395e-05
0.000192887
9.26128e-05
0.00020753
9.6684e-05
0.000223126
0.000101072
0.000239758
0.000105796
0.000257467
0.000110881
0.000276201
0.000116344
0.000296071
0.000122208
0.00031699
0.000128495
0.000338932
0.000135223
0.000361866
0.000142408
0.000385655
0.000150067
0.000410133
0.000158208
0.000435096
0.000166836
0.000460231
0.000175947
0.000485123
0.000185528
0.000509234
0.000195552
0.000531868
0.000205975
0.000552135
0.000216731
0.00056891
0.000227729
0.000580782
0.000238845
0.000586002
0.000249917
0.000582426
0.000260727
0.000567447
0.000271008
0.000537942
0.000280425
0.000490214
0.000288577
0.000419928
0.000294989
0.000322264
0.000299179
0.000192045
0.00030021
1.98091e-05
-0.000205309
0.000297571
4.63435e-05
1.9213e-05
-4.60267e-05
4.66865e-05
2.07682e-05
4.7059e-05
2.24472e-05
4.7462e-05
2.42607e-05
4.7899e-05
2.62193e-05
4.83713e-05
2.83342e-05
4.88832e-05
3.06168e-05
4.94366e-05
3.30797e-05
5.00369e-05
3.57286e-05
5.06863e-05
3.85939e-05
5.13892e-05
4.16954e-05
5.2149e-05
4.50433e-05
5.29714e-05
4.86566e-05
5.38626e-05
5.25324e-05
5.483e-05
5.6707e-05
5.58767e-05
6.12433e-05
5.70103e-05
6.61365e-05
5.82417e-05
7.13527e-05
5.95775e-05
7.70042e-05
6.10224e-05
8.31328e-05
6.25905e-05
8.9669e-05
6.42898e-05
9.67194e-05
6.6126e-05
0.000104373
6.81186e-05
0.000112485
7.02719e-05
0.000121319
7.26016e-05
0.000130768
7.51224e-05
0.000140907
7.78455e-05
0.00015184
8.07916e-05
0.000163495
8.39714e-05
0.000176068
8.74078e-05
0.00018945
9.11146e-05
0.000203823
9.51132e-05
0.000219126
9.94229e-05
0.000235448
0.000104062
0.000252827
0.000109055
0.000271207
0.00011442
0.000290705
0.000120178
0.000311231
0.000126351
0.000332758
0.000132956
0.00035526
0.00014001
0.000378599
0.000147529
0.000402613
0.000155521
0.000427102
0.000163991
0.000451759
0.000172935
0.000476176
0.000182339
0.000499825
0.000192178
0.000522025
0.000202409
0.0005419
0.000212966
0.000558345
0.000223763
0.000569978
0.000234674
0.00057508
0.000245544
0.000571545
0.000256158
0.000556815
0.000266255
0.00052782
0.000275506
0.000480929
0.000283518
0.000411869
0.000289821
0.000315893
0.000293927
0.000187839
0.000294994
1.85471e-05
-0.000202822
0.000292371
4.56669e-05
1.88985e-05
-4.53533e-05
4.60071e-05
2.0427e-05
4.63765e-05
2.20776e-05
4.67756e-05
2.38606e-05
4.72082e-05
2.57867e-05
4.76752e-05
2.78664e-05
4.81809e-05
3.01111e-05
4.8727e-05
3.25329e-05
4.93189e-05
3.51368e-05
4.99583e-05
3.79539e-05
5.06499e-05
4.10039e-05
5.13966e-05
4.42961e-05
5.22041e-05
4.78492e-05
5.30782e-05
5.16579e-05
5.40263e-05
5.5759e-05
5.50513e-05
6.02179e-05
5.6161e-05
6.50269e-05
5.73662e-05
7.01471e-05
5.86738e-05
7.56964e-05
6.0089e-05
8.17171e-05
6.1626e-05
8.81319e-05
6.32927e-05
9.50522e-05
6.50951e-05
0.000102571
6.70518e-05
0.000110528
6.91671e-05
0.000119203
7.1456e-05
0.000128479
7.39329e-05
0.00013843
7.66085e-05
0.000149164
7.9503e-05
0.000160601
8.26268e-05
0.000172943
8.60024e-05
0.000186074
8.96431e-05
0.000200182
9.35706e-05
0.000215198
9.78028e-05
0.000231215
0.000102359
0.00024827
0.000107262
0.000266302
0.000112529
0.000285437
0.000118183
0.000305576
0.000124244
0.000326696
0.000130728
0.000348774
0.000137654
0.000371672
0.000145035
0.00039523
0.000152881
0.000419255
0.000161195
0.000443444
0.000169975
0.000467396
0.000179207
0.000490594
0.000188865
0.000512368
0.000198907
0.000531859
0.000209271
0.000547984
0.00021987
0.000559384
0.000230583
0.000564373
0.000241255
0.000560882
0.000251678
0.0005464
0.000261594
0.000517912
0.000270681
0.000471852
0.000278553
0.000404012
0.000284747
0.000309722
0.000288765
0.000183864
0.000289881
1.75313e-05
-0.000200177
0.000287324
4.5047e-05
1.85859e-05
-4.47348e-05
4.53849e-05
2.00883e-05
4.57513e-05
2.17112e-05
4.61465e-05
2.34646e-05
4.65744e-05
2.53589e-05
4.70357e-05
2.74044e-05
4.75347e-05
2.96122e-05
4.8073e-05
3.19941e-05
4.86559e-05
3.45541e-05
4.92852e-05
3.73242e-05
4.99654e-05
4.03241e-05
5.06991e-05
4.35622e-05
5.1492e-05
4.70567e-05
5.23495e-05
5.08002e-05
5.32786e-05
5.48302e-05
5.42822e-05
5.92141e-05
5.53678e-05
6.39415e-05
5.6546e-05
6.89685e-05
5.7824e-05
7.44185e-05
5.92072e-05
8.03336e-05
6.07099e-05
8.6629e-05
6.23406e-05
9.3421e-05
6.41055e-05
0.000100806
6.6023e-05
0.00010861
6.80973e-05
0.000117129
7.03431e-05
0.000126233
7.27743e-05
0.000135999
7.54011e-05
0.000146537
7.82431e-05
0.000157758
8.13107e-05
0.000169875
8.46254e-05
0.000182759
8.82007e-05
0.000196606
9.2057e-05
0.000211341
9.6213e-05
0.000227059
0.000100686
0.000243796
0.000105501
0.000261487
0.000110672
0.000280264
0.000116223
0.000300024
0.000122174
0.000320744
0.00012854
0.000342406
0.000135339
0.000364871
0.000142585
0.000387982
0.000150288
0.000411551
0.00015845
0.000435279
0.000167069
0.000458774
0.000176132
0.000481528
0.000185613
0.000502882
0.000195472
0.000521995
0.000205647
0.000537803
0.000216053
0.000548971
0.000226571
0.000553845
0.000237051
0.000550393
0.000247287
0.000536148
0.000257026
0.00050815
0.000265953
0.000462894
0.000273687
0.000396234
0.000279771
0.000303577
0.000283703
0.000179841
0.000284862
1.61918e-05
-0.000197819
0.000282378
4.44831e-05
1.82756e-05
-4.41734e-05
4.48179e-05
1.97527e-05
4.51803e-05
2.13487e-05
4.55707e-05
2.30734e-05
4.59928e-05
2.49368e-05
4.64474e-05
2.6949e-05
4.69389e-05
2.91208e-05
4.74686e-05
3.14637e-05
4.8042e-05
3.39808e-05
4.86606e-05
3.67051e-05
4.9329e-05
3.96559e-05
5.00496e-05
4.28411e-05
5.08281e-05
4.62785e-05
5.16694e-05
4.99585e-05
5.25804e-05
5.39192e-05
5.35637e-05
5.82304e-05
5.46264e-05
6.28788e-05
5.57788e-05
6.78157e-05
5.70278e-05
7.31694e-05
5.83787e-05
7.89822e-05
5.98463e-05
8.51614e-05
6.14391e-05
9.18277e-05
6.31639e-05
9.90805e-05
6.50394e-05
0.000106735
6.70698e-05
0.000115098
6.92697e-05
0.000124032
7.16526e-05
0.000133615
7.42287e-05
0.00014396
7.70168e-05
0.00015497
8.0027e-05
0.000166865
8.32804e-05
0.000179505
8.67896e-05
0.000193096
9.05756e-05
0.000207555
9.46553e-05
0.000222978
9.9047e-05
0.000239404
0.000103773
0.00025676
0.000108851
0.000275185
0.0001143
0.000294573
0.000120142
0.000314902
0.000126392
0.000336155
0.000133067
0.000358195
0.000140181
0.000380867
0.000147742
0.000403989
0.000155756
0.000427266
0.000164217
0.000450312
0.000173115
0.000472631
0.000182424
0.000493575
0.000192104
0.000512318
0.000202094
0.000527815
0.000212312
0.000538758
0.000222641
0.000543521
0.000232933
0.000540111
0.000242986
0.000526105
0.000252553
0.000498594
0.000261322
0.000454138
0.00026892
0.000388654
0.000274896
0.00029763
0.000278746
0.000176043
0.000279932
1.51229e-05
-0.000195296
0.000277508
4.39676e-05
1.79689e-05
-4.36609e-05
4.4298e-05
1.94216e-05
4.46551e-05
2.09917e-05
4.50392e-05
2.26886e-05
4.54542e-05
2.45219e-05
4.59009e-05
2.65016e-05
4.63836e-05
2.86383e-05
4.69037e-05
3.0943e-05
4.74667e-05
3.34182e-05
4.8074e-05
3.60974e-05
4.87302e-05
3.90002e-05
4.94377e-05
4.21334e-05
5.02019e-05
4.55147e-05
5.10276e-05
4.91326e-05
5.19216e-05
5.30257e-05
5.2886e-05
5.72658e-05
5.39276e-05
6.18374e-05
5.50562e-05
6.66869e-05
5.62783e-05
7.19474e-05
5.75989e-05
7.76612e-05
5.90325e-05
8.37277e-05
6.05879e-05
9.02718e-05
6.22721e-05
9.73961e-05
6.41041e-05
0.000104902
6.60887e-05
0.000113113
6.82405e-05
0.00012188
7.05731e-05
0.000131282
7.30963e-05
0.000141437
7.58289e-05
0.000152237
7.87803e-05
0.000163913
8.19712e-05
0.000176314
8.54142e-05
0.000189653
8.91289e-05
0.00020384
9.3133e-05
0.000218974
9.74433e-05
0.000235093
0.000102083
0.00025212
0.000107067
0.0002702
0.000112416
0.000289222
0.000118151
0.000309166
0.000124287
0.000330018
0.00013084
0.000351641
0.000137824
0.000373882
0.000145247
0.000396563
0.000153114
0.000419396
0.000161422
0.000442002
0.000170158
0.000463891
0.000179298
0.00048443
0.000188803
0.000502808
0.000198614
0.000517999
0.000208648
0.000528717
0.000218792
0.000533368
0.000228901
0.000529994
0.000238776
0.000516215
0.000248173
0.000489175
0.000256788
0.000445493
0.000264253
0.000381149
0.000270122
0.000291702
0.000273896
0.000172182
0.000275087
1.37618e-05
-0.000193031
0.000272703
4.34864e-05
1.7667e-05
-4.31852e-05
4.38108e-05
1.90962e-05
4.4161e-05
2.06413e-05
4.45376e-05
2.23111e-05
4.49444e-05
2.41151e-05
4.53822e-05
2.6063e-05
4.58554e-05
2.81651e-05
4.63653e-05
3.04324e-05
4.69174e-05
3.28662e-05
4.7513e-05
3.55012e-05
4.81568e-05
3.83566e-05
4.88509e-05
4.14387e-05
4.9601e-05
4.47649e-05
5.04116e-05
4.83216e-05
5.12893e-05
5.21481e-05
5.2236e-05
5.63187e-05
5.32583e-05
6.08152e-05
5.43654e-05
6.55793e-05
5.55635e-05
7.07493e-05
5.68569e-05
7.63673e-05
5.82596e-05
8.23249e-05
5.97801e-05
8.87509e-05
6.14256e-05
9.57504e-05
6.32151e-05
0.000103112
6.51539e-05
0.000111174
6.7257e-05
0.000119777
6.95381e-05
0.000129001
7.20072e-05
0.000138967
7.46827e-05
0.000149561
7.75741e-05
0.000161021
8.07017e-05
0.000173186
8.40774e-05
0.000186277
8.77211e-05
0.000200196
9.1649e-05
0.000215046
9.58784e-05
0.000230863
0.000100431
0.000247566
0.000105323
0.000265308
0.000110574
0.000283971
0.000116203
0.000303536
0.000122226
0.000323994
0.000128659
0.000345207
0.000135515
0.000367025
0.000142804
0.000389274
0.000150528
0.000411672
0.000158685
0.000433845
0.000167263
0.000455314
0.000176238
0.000475457
0.000185572
0.000493477
0.000195206
0.000508368
0.000205062
0.000518868
0.000215025
0.000523411
0.000224954
0.000520076
0.000234655
0.000506526
0.000243887
0.000479955
0.00025235
0.000437045
0.000259684
0.000373837
0.00026545
0.00028597
0.000269152
0.000168539
0.000270328
1.27178e-05
-0.000190562
0.000267967
4.30261e-05
1.73713e-05
-4.27306e-05
4.33435e-05
1.8778e-05
4.36861e-05
2.02987e-05
4.40544e-05
2.19421e-05
4.44523e-05
2.37173e-05
4.48806e-05
2.5634e-05
4.53437e-05
2.77022e-05
4.58429e-05
2.99326e-05
4.63837e-05
3.23258e-05
4.69675e-05
3.49171e-05
4.75987e-05
3.77258e-05
4.82796e-05
4.07575e-05
4.90158e-05
4.40292e-05
4.98116e-05
4.75257e-05
5.06735e-05
5.12866e-05
5.16034e-05
5.53887e-05
5.26077e-05
5.98112e-05
5.36951e-05
6.44915e-05
5.48715e-05
6.9573e-05
5.61407e-05
7.50977e-05
5.7516e-05
8.09496e-05
5.90053e-05
8.72612e-05
6.06155e-05
9.414e-05
6.23653e-05
0.000101362
6.42604e-05
0.000109279
6.6316e-05
0.000117721
6.85461e-05
0.000126771
7.09611e-05
0.000136552
7.35792e-05
0.000146942
7.64101e-05
0.00015819
7.94737e-05
0.000170122
8.2782e-05
0.000182968
8.63537e-05
0.000196624
9.02059e-05
0.000211193
9.43545e-05
0.000226714
9.88213e-05
0.000243098
0.000103621
0.000260507
0.000108775
0.000278816
0.0001143
0.00029801
0.000120212
0.00031808
0.000126527
0.000338891
0.000133258
0.000360292
0.000140413
0.000382117
0.000147997
0.000404086
0.000156006
0.000425833
0.00016443
0.000446888
0.000173243
0.00046664
0.00018241
0.000484307
0.000191872
0.0004989
0.000201552
0.000509183
0.000211338
0.000513617
0.000221092
0.000510315
0.000230622
0.000496984
0.000239691
0.000470866
0.000248007
0.000428702
0.000255212
0.000366594
0.000260876
0.000280252
0.00026451
0.000164825
0.000265654
1.14175e-05
-0.00018832
0.000263304
4.25733e-05
1.70826e-05
-4.2285e-05
4.2883e-05
1.84674e-05
4.32175e-05
1.99643e-05
4.35771e-05
2.15816e-05
4.39659e-05
2.33286e-05
4.43846e-05
2.52146e-05
4.48376e-05
2.72494e-05
4.53262e-05
2.94433e-05
4.58558e-05
3.17964e-05
4.64277e-05
3.43446e-05
4.70464e-05
3.71073e-05
4.77142e-05
4.00893e-05
4.84365e-05
4.33072e-05
4.92178e-05
4.6744e-05
5.00643e-05
5.04403e-05
5.0978e-05
5.44746e-05
5.19651e-05
5.88241e-05
5.30342e-05
6.3422e-05
5.41908e-05
6.84163e-05
5.54385e-05
7.38496e-05
5.67896e-05
7.95983e-05
5.82515e-05
8.57989e-05
5.98306e-05
9.25608e-05
6.15447e-05
9.96476e-05
6.33998e-05
0.000107423
6.54109e-05
0.000115709
6.75923e-05
0.000124589
6.99546e-05
0.00013419
7.25163e-05
0.00014438
7.52873e-05
0.000155419
7.82872e-05
0.000167122
8.15279e-05
0.000179727
8.50286e-05
0.000193123
8.88048e-05
0.000207417
9.28731e-05
0.000222645
9.72544e-05
0.000238716
0.000101964
0.000255797
0.00010702
0.000273759
0.000112443
0.000292587
0.000118245
0.000312277
0.000124444
0.000332691
0.000131052
0.000353683
0.000138077
0.000375091
0.000145524
0.00039664
0.000153388
0.00041797
0.000161659
0.000438618
0.000170314
0.000457986
0.000179317
0.000475307
0.000188611
0.000489611
0.000198119
0.000499681
0.000207731
0.000504011
0.000217313
0.000500746
0.000226674
0.000487635
0.000235585
0.000461969
0.000243754
0.00042055
0.000250833
0.00035954
0.000256398
0.000274725
0.000259965
0.000161323
0.000261066
1.04612e-05
-0.000185855
0.000258719
4.2119e-05
1.68014e-05
-4.18376e-05
4.24209e-05
1.81648e-05
4.27472e-05
1.96382e-05
4.30982e-05
2.12299e-05
4.3478e-05
2.29491e-05
4.38871e-05
2.48048e-05
4.43301e-05
2.68066e-05
4.48082e-05
2.89647e-05
4.53267e-05
3.12782e-05
4.5887e-05
3.3784e-05
4.64936e-05
3.65013e-05
4.71486e-05
3.94341e-05
4.78575e-05
4.25989e-05
4.86245e-05
4.59769e-05
4.9456e-05
4.96092e-05
5.03539e-05
5.35766e-05
5.13243e-05
5.7854e-05
5.23757e-05
6.23702e-05
5.35136e-05
6.72786e-05
5.47412e-05
7.26216e-05
5.60705e-05
7.8269e-05
5.75081e-05
8.43608e-05
5.90597e-05
9.10091e-05
6.07425e-05
9.79644e-05
6.25618e-05
0.000105604
6.45324e-05
0.000113738
6.66686e-05
0.000122453
6.89812e-05
0.000131877
7.14889e-05
0.000141872
7.42017e-05
0.000152706
7.71393e-05
0.000164184
8.03139e-05
0.000176553
8.37437e-05
0.000189693
8.74453e-05
0.000203715
9.1434e-05
0.000218656
9.57308e-05
0.000234419
0.00010035
0.000251177
0.000105312
0.000268797
0.000110632
0.000287265
0.000116328
0.00030658
0.000122412
0.000326605
0.000128899
0.000347195
0.000135796
0.000368193
0.000143107
0.000389327
0.000150829
0.000410245
0.000158952
0.000430493
0.000167452
0.000449483
0.000176293
0.000466462
0.000185421
0.000480478
0.00019476
0.000490338
0.000204202
0.000494561
0.000213614
0.000491327
0.000222811
0.000478426
0.000231564
0.000453197
0.00023959
0.000412499
0.000246544
0.00035255
0.00025201
0.000269207
0.000255511
0.000157747
0.000256565
9.26222e-06
-0.000183607
0.000254215
4.16556e-05
1.65272e-05
-4.1382e-05
4.19498e-05
1.78696e-05
4.22682e-05
1.93198e-05
4.26108e-05
2.08863e-05
4.2982e-05
2.2578e-05
4.33821e-05
2.44038e-05
4.38157e-05
2.63731e-05
4.42838e-05
2.84958e-05
4.47919e-05
3.07703e-05
4.5341e-05
3.32342e-05
4.59358e-05
3.59067e-05
4.65783e-05
3.87911e-05
4.72739e-05
4.19035e-05
4.8027e-05
4.52234e-05
4.88438e-05
4.87926e-05
4.9726e-05
5.26939e-05
5.06801e-05
5.69e-05
5.17142e-05
6.13356e-05
5.28339e-05
6.61589e-05
5.40423e-05
7.14127e-05
5.53511e-05
7.69601e-05