/*--------------------------------*- C++ -*----------------------------------*\
  =========                 |
  \\      /  F ield         | OpenFOAM: The Open Source CFD Toolbox
   \\    /   O peration     | Website:  https://openfoam.org
    \\  /    A nd           | Version:  6.0
     \\/     M anipulation  |
\*---------------------------------------------------------------------------*/
FoamFile
{
    version     2.0;
    format      ascii;
    class       volVectorField;
    location    "20";
    object      U;
}
// * * * * * * * * * * * * * * * * * * * * * * * * * * * * * * * * * * * * * //

dimensions      [0 1 -1 0 0 0 0];

internalField   nonuniform List<vector> 
62000
(
(0.984732 -0.174094 -2.46079e-21)
(0.984736 -0.174093 2.04877e-21)
(0.98474 -0.174087 2.09455e-21)
(0.984744 -0.174076 -9.16257e-21)
(0.984746 -0.174063 -1.04181e-20)
(0.984748 -0.174049 3.6028e-20)
(0.984749 -0.174036 -3.94743e-20)
(0.984749 -0.174024 2.29057e-20)
(0.984748 -0.174014 -1.06462e-20)
(0.984746 -0.174005 -5.40089e-20)
(0.984744 -0.173997 -6.48014e-21)
(0.984741 -0.17399 7.5112e-20)
(0.984737 -0.173984 1.50296e-20)
(0.984732 -0.173978 -5.26277e-20)
(0.984728 -0.173973 8.13097e-20)
(0.984723 -0.173968 -4.30706e-20)
(0.984719 -0.173964 4.34781e-20)
(0.984714 -0.173961 -5.10757e-20)
(0.984709 -0.173958 2.45627e-20)
(0.984705 -0.173956 -7.45218e-20)
(0.9847 -0.173956 9.64382e-20)
(0.984695 -0.173956 2.69179e-20)
(0.984691 -0.173957 3.73792e-20)
(0.984686 -0.17396 -1.74869e-19)
(0.984682 -0.173963 6.30301e-20)
(0.984677 -0.173967 -3.66285e-20)
(0.984673 -0.173972 9.35549e-22)
(0.984669 -0.173978 -2.61724e-20)
(0.984665 -0.173984 8.54209e-20)
(0.984663 -0.173991 -4.30879e-20)
(0.984661 -0.173998 1.00386e-19)
(0.984659 -0.174005 -1.98197e-19)
(0.98466 -0.174012 2.06151e-20)
(0.984662 -0.174018 -5.30801e-20)
(0.984667 -0.174021 -1.26948e-20)
(0.984674 -0.174023 -4.7944e-20)
(0.984685 -0.174022 -3.27748e-21)
(0.9847 -0.174018 -2.21394e-21)
(0.98472 -0.174011 3.59695e-20)
(0.984747 -0.173998 1.11892e-19)
(0.984782 -0.173981 -1.89714e-20)
(0.984827 -0.173956 -6.83757e-20)
(0.984883 -0.173923 -3.15386e-20)
(0.984953 -0.173879 -2.41172e-20)
(0.985041 -0.17382 -2.6194e-20)
(0.98515 -0.173742 1.61913e-19)
(0.985285 -0.173636 -2.59234e-20)
(0.98545 -0.173491 1.24299e-19)
(0.985651 -0.173293 7.21061e-19)
(0.985891 -0.17302 2.46468e-19)
(0.986173 -0.172645 1.54985e-19)
(0.986495 -0.172134 1.93349e-18)
(0.98685 -0.17144 -5.31156e-19)
(0.987226 -0.170505 -2.78364e-18)
(0.987603 -0.169234 -7.02746e-19)
(0.98796 -0.167496 -2.96217e-18)
(0.988207 -0.164871 2.43802e-19)
(0.989027 -0.16059 3.06942e-19)
(0.983874 -0.154231 -1.31653e-18)
(1.0348 -0.115841 -2.29821e-19)
(0.984702 -0.17498 -6.57639e-22)
(0.98471 -0.174987 6.28077e-21)
(0.984714 -0.174998 2.58578e-21)
(0.984717 -0.175001 -1.11431e-20)
(0.984721 -0.174992 4.61665e-21)
(0.984726 -0.174976 -3.17578e-20)
(0.984731 -0.174956 2.90786e-20)
(0.984735 -0.174934 1.67292e-20)
(0.984738 -0.174913 -3.123e-20)
(0.98474 -0.174893 1.40893e-21)
(0.984742 -0.174875 2.99694e-20)
(0.984742 -0.174858 -2.69458e-23)
(0.98474 -0.174843 8.39096e-21)
(0.984737 -0.174829 -7.23913e-20)
(0.984733 -0.174817 1.44114e-19)
(0.984728 -0.174806 -1.26672e-19)
(0.984722 -0.174796 5.87266e-20)
(0.984715 -0.174786 -1.24054e-20)
(0.984709 -0.174778 -3.27838e-20)
(0.984703 -0.17477 8.90929e-20)
(0.984697 -0.174763 -1.39162e-19)
(0.984691 -0.174757 7.97875e-20)
(0.984686 -0.174752 -9.86155e-20)
(0.984681 -0.174748 5.88777e-20)
(0.984678 -0.174744 5.1905e-20)
(0.984675 -0.174742 -3.39615e-20)
(0.984674 -0.174739 1.07566e-21)
(0.984674 -0.174737 3.70876e-20)
(0.984675 -0.174735 2.94389e-20)
(0.984679 -0.174732 -5.36762e-20)
(0.984685 -0.174729 1.07995e-19)
(0.984694 -0.174723 1.813e-20)
(0.984706 -0.174716 5.69689e-20)
(0.984722 -0.174705 3.95656e-22)
(0.984742 -0.174691 1.09268e-20)
(0.984768 -0.174674 -1.84753e-20)
(0.9848 -0.174651 -4.29798e-20)
(0.984839 -0.174624 -2.51505e-20)
(0.984888 -0.174592 -8.66678e-20)
(0.984947 -0.174554 -7.22654e-20)
(0.98502 -0.174509 4.71933e-20)
(0.985109 -0.174454 2.24367e-20)
(0.985218 -0.174388 2.74699e-20)
(0.985351 -0.174306 -8.50849e-21)
(0.985514 -0.174201 2.20142e-19)
(0.985714 -0.174063 -1.41692e-19)
(0.985959 -0.173878 -1.72795e-19)
(0.986255 -0.173624 -2.63341e-19)
(0.98661 -0.173274 -6.2945e-20)
(0.987027 -0.172792 -7.54991e-21)
(0.987504 -0.172136 -7.84252e-19)
(0.988031 -0.171255 -2.45982e-18)
(0.988583 -0.170093 1.89398e-18)
(0.989127 -0.168585 5.15367e-18)
(0.989604 -0.166639 1.37264e-18)
(0.989968 -0.164194 1.07227e-18)
(0.989909 -0.160917 2.52072e-18)
(0.989892 -0.156841 1.34059e-18)
(0.989727 -0.153398 -2.4234e-18)
(0.991634 -0.157844 -6.92078e-19)
(0.984723 -0.175452 -3.18962e-21)
(0.984722 -0.17546 -4.40647e-22)
(0.984715 -0.17549 5.02275e-22)
(0.984708 -0.175515 2.24237e-21)
(0.984705 -0.175528 6.31188e-21)
(0.984705 -0.175531 -5.97906e-21)
(0.984707 -0.175525 3.17132e-20)
(0.984711 -0.175513 -1.51541e-20)
(0.984716 -0.175499 -8.11371e-21)
(0.984721 -0.175486 -4.93143e-20)
(0.984727 -0.175473 4.15325e-20)
(0.984733 -0.175461 3.01795e-21)
(0.98474 -0.175448 -9.34656e-21)
(0.984746 -0.175436 2.46325e-20)
(0.98475 -0.175426 -4.18644e-20)
(0.984753 -0.175419 4.19292e-22)
(0.984755 -0.175414 -1.8595e-20)
(0.984757 -0.175411 7.73763e-22)
(0.984758 -0.175408 4.27472e-20)
(0.984759 -0.175406 -6.39538e-20)
(0.984761 -0.175404 3.9695e-20)
(0.984763 -0.175402 1.49024e-19)
(0.984767 -0.1754 -2.23567e-20)
(0.984771 -0.175397 -2.01311e-19)
(0.984777 -0.175394 1.02765e-19)
(0.984785 -0.175391 -5.22269e-20)
(0.984795 -0.175386 8.44804e-20)
(0.984807 -0.17538 -5.23837e-20)
(0.984822 -0.175373 -9.53868e-20)
(0.984839 -0.175363 9.64775e-20)
(0.984861 -0.175351 -6.54972e-20)
(0.984886 -0.175335 8.2887e-20)
(0.984915 -0.175315 -2.14495e-19)
(0.984949 -0.175291 1.77594e-19)
(0.984989 -0.175264 -8.8084e-20)
(0.985034 -0.175231 3.72403e-20)
(0.985085 -0.175194 2.70463e-20)
(0.985144 -0.175151 8.30419e-21)
(0.985211 -0.175104 9.08857e-21)
(0.985289 -0.175052 8.50931e-20)
(0.985378 -0.174994 -1.97287e-20)
(0.985482 -0.174928 2.01559e-20)
(0.985602 -0.174853 -1.50676e-20)
(0.985742 -0.174764 1.955e-20)
(0.985906 -0.174657 -5.57119e-20)
(0.986101 -0.17452 2.67348e-19)
(0.986331 -0.174341 -5.28897e-20)
(0.986603 -0.174098 4.33869e-19)
(0.986921 -0.173766 -7.43762e-19)
(0.987287 -0.173312 -2.37927e-19)
(0.987696 -0.1727 -1.15481e-19)
(0.988135 -0.171886 8.40202e-20)
(0.988575 -0.170831 -7.7217e-19)
(0.988982 -0.169497 -3.14783e-19)
(0.989289 -0.167835 1.82141e-18)
(0.98948 -0.165858 1.23049e-18)
(0.98921 -0.163378 7.15179e-19)
(0.989011 -0.16042 2.9451e-18)
(0.98785 -0.160063 1.56306e-19)
(1.0002 -0.156819 -3.13021e-19)
(0.984707 -0.175872 -3.18738e-21)
(0.984696 -0.175885 9.7076e-21)
(0.984681 -0.175925 -1.49503e-21)
(0.984667 -0.175964 -9.88026e-21)
(0.984658 -0.175995 1.47916e-20)
(0.984653 -0.176017 2.52895e-20)
(0.984651 -0.176028 -3.29212e-20)
(0.98465 -0.176029 3.53767e-21)
(0.984652 -0.176024 1.11997e-20)
(0.984656 -0.176019 2.30889e-20)
(0.984661 -0.176014 -4.26525e-20)
(0.984668 -0.176006 -1.29233e-20)
(0.984678 -0.175995 -1.42335e-20)
(0.984688 -0.175981 6.50246e-20)
(0.984699 -0.175967 -4.29746e-20)
(0.984709 -0.175957 9.86561e-20)
(0.984718 -0.175951 -1.18801e-19)
(0.984727 -0.17595 -1.65365e-20)
(0.984736 -0.175951 1.21162e-19)
(0.984746 -0.175954 -4.22182e-20)
(0.984756 -0.175956 -1.52946e-20)
(0.984768 -0.175959 -1.56905e-20)
(0.984781 -0.175962 -1.37556e-19)
(0.984796 -0.175964 8.10021e-20)
(0.984812 -0.175966 -3.28601e-20)
(0.984831 -0.175966 5.52765e-20)
(0.984853 -0.175965 2.4832e-20)
(0.984878 -0.175962 1.14865e-19)
(0.984907 -0.175957 -7.27032e-20)
(0.984939 -0.175949 -8.77622e-20)
(0.984976 -0.175937 1.30546e-19)
(0.985017 -0.175921 -1.04855e-19)
(0.985065 -0.1759 1.79342e-19)
(0.985118 -0.175874 -9.70116e-20)
(0.985177 -0.175843 4.72582e-20)
(0.985244 -0.175807 6.83e-20)
(0.985317 -0.175765 -2.42846e-20)
(0.985398 -0.175717 1.57036e-20)
(0.985488 -0.175664 -1.67498e-20)
(0.985589 -0.175604 2.19509e-20)
(0.985702 -0.175538 -5.77295e-20)
(0.985829 -0.175464 9.90768e-21)
(0.985969 -0.175379 5.291e-21)
(0.986127 -0.17528 -9.76972e-21)
(0.986305 -0.175162 -6.9344e-20)
(0.986506 -0.175014 -4.11927e-20)
(0.986736 -0.174824 -2.29791e-19)
(0.986998 -0.174573 -3.26939e-19)
(0.987295 -0.174237 -4.53855e-19)
(0.98763 -0.173783 3.8904e-19)
(0.987996 -0.173177 6.57704e-19)
(0.988384 -0.172379 -4.53648e-19)
(0.988765 -0.171353 -6.74634e-19)
(0.989113 -0.170062 -2.08626e-18)
(0.989363 -0.168467 -1.508e-18)
(0.989529 -0.166574 -2.37614e-18)
(0.989334 -0.164204 -4.68332e-18)
(0.989143 -0.161157 2.52553e-19)
(0.989322 -0.159957 3.3962e-18)
(0.996806 -0.157108 1.73206e-18)
(0.984644 -0.176395 6.16339e-21)
(0.984632 -0.176413 -2.06668e-21)
(0.984617 -0.176455 3.38731e-21)
(0.984604 -0.1765 -4.79225e-21)
(0.984596 -0.176543 1.05991e-20)
(0.984592 -0.17658 -5.2479e-21)
(0.984591 -0.176606 2.758e-21)
(0.984591 -0.176619 -4.10807e-20)
(0.984593 -0.176621 3.41981e-20)
(0.984596 -0.176621 -6.75231e-20)
(0.9846 -0.176622 7.38839e-20)
(0.984605 -0.176621 -8.87719e-21)
(0.984613 -0.176615 -1.92512e-20)
(0.984623 -0.1766 -8.5999e-21)
(0.984634 -0.17658 -1.7265e-21)
(0.984645 -0.17656 -8.57566e-20)
(0.984656 -0.176546 4.93249e-21)
(0.984667 -0.176539 9.19617e-20)
(0.984679 -0.176538 -2.90032e-20)
(0.984692 -0.17654 -2.95639e-20)
(0.984707 -0.176544 5.04681e-20)
(0.984724 -0.176549 -2.37567e-20)
(0.984743 -0.176554 9.96745e-20)
(0.984764 -0.17656 5.14463e-20)
(0.984788 -0.176564 3.6591e-20)
(0.984816 -0.176569 -1.22343e-19)
(0.984846 -0.176572 -1.67695e-20)
(0.984881 -0.176574 -8.82568e-20)
(0.98492 -0.176574 1.73225e-20)
(0.984964 -0.176571 -2.52582e-20)
(0.985014 -0.176565 -1.01244e-20)
(0.98507 -0.176554 7.3902e-20)
(0.985133 -0.176537 -1.86616e-19)
(0.985204 -0.176515 -1.03848e-20)
(0.985282 -0.176488 -8.04474e-20)
(0.985368 -0.176454 -3.65139e-20)
(0.985463 -0.176414 -1.59326e-21)
(0.985568 -0.176366 -9.29498e-20)
(0.985685 -0.176312 1.1754e-19)
(0.985814 -0.176249 2.78191e-20)
(0.985957 -0.176176 8.72339e-20)
(0.986115 -0.176092 -4.06992e-20)
(0.98629 -0.175994 -1.96477e-20)
(0.986482 -0.175877 1.03471e-20)
(0.986694 -0.175735 -4.9251e-20)
(0.986928 -0.175559 -1.19665e-19)
(0.987188 -0.175336 -2.29329e-20)
(0.987475 -0.175046 -6.92253e-20)
(0.987792 -0.174667 1.89242e-19)
(0.98814 -0.174165 -9.88406e-19)
(0.988512 -0.173507 -2.86133e-19)
(0.988899 -0.172654 3.56629e-19)
(0.989277 -0.171564 -2.45299e-20)
(0.98962 -0.170204 -1.47536e-18)
(0.989861 -0.168534 9.56703e-21)
(0.990022 -0.166563 1.91145e-18)
(0.989887 -0.164148 4.42888e-18)
(0.989644 -0.161085 -4.55768e-18)
(0.9895 -0.160577 3.2829e-18)
(0.997179 -0.15957 -1.91276e-18)
(0.984565 -0.176991 -2.33456e-21)
(0.984559 -0.177012 9.36224e-21)
(0.984547 -0.177052 -1.53205e-20)
(0.984537 -0.177095 1.13668e-20)
(0.984534 -0.17714 7.29299e-21)
(0.984535 -0.177185 -7.71735e-21)
(0.984539 -0.177223 6.33182e-22)
(0.984543 -0.177245 -5.69941e-21)
(0.984549 -0.177252 -1.90268e-20)
(0.984554 -0.177253 3.63072e-20)
(0.984559 -0.177257 -5.58181e-20)
(0.984565 -0.177265 4.85674e-20)
(0.984572 -0.177269 4.22512e-20)
(0.98458 -0.177261 -6.50629e-20)
(0.98459 -0.177241 -2.08488e-20)
(0.984599 -0.177216 7.80316e-20)
(0.984608 -0.177193 -9.33409e-20)
(0.984618 -0.17718 1.27204e-19)
(0.984628 -0.177174 -2.47051e-20)
(0.984639 -0.177176 1.25428e-20)
(0.984654 -0.177181 -2.2129e-20)
(0.984671 -0.177188 -2.67657e-20)
(0.984692 -0.177196 -4.72695e-20)
(0.984716 -0.177205 8.00962e-20)
(0.984744 -0.177213 -5.4743e-20)
(0.984776 -0.177221 -5.06382e-20)
(0.984813 -0.177229 1.02863e-19)
(0.984854 -0.177236 -9.4491e-20)
(0.984901 -0.177242 1.44899e-19)
(0.984954 -0.177246 -7.75937e-20)
(0.985014 -0.177247 5.21856e-20)
(0.985082 -0.177243 -8.83787e-20)
(0.985158 -0.177234 8.53222e-20)
(0.985243 -0.177219 -1.3147e-20)
(0.985336 -0.177198 -5.91841e-21)
(0.985439 -0.177169 -4.93806e-21)
(0.985553 -0.177133 -4.23062e-20)
(0.98568 -0.177089 8.21055e-20)
(0.98582 -0.177036 -5.37632e-20)
(0.985975 -0.176973 -2.66839e-19)
(0.986147 -0.176896 -8.79676e-20)
(0.986335 -0.176804 3.40155e-20)
(0.986543 -0.176693 -4.40571e-20)
(0.98677 -0.176558 7.7299e-21)
(0.987019 -0.176392 3.34519e-21)
(0.987289 -0.176186 -1.04457e-19)
(0.987583 -0.175926 2.524e-19)
(0.987901 -0.175594 3.58169e-19)
(0.988242 -0.175169 3.37577e-19)
(0.988604 -0.17462 6.4035e-19)
(0.988981 -0.173916 -4.3675e-19)
(0.989363 -0.173021 2.29852e-19)
(0.989727 -0.171896 2.06785e-18)
(0.99005 -0.17051 -3.78497e-19)
(0.990266 -0.16883 -7.86759e-19)
(0.9904 -0.16687 1.4897e-18)
(0.990289 -0.164524 -1.28747e-18)
(0.990033 -0.161618 -1.09712e-18)
(0.989902 -0.161561 -5.40724e-18)
(0.996731 -0.160653 8.57366e-20)
(0.9845 -0.177611 2.7369e-21)
(0.984501 -0.177629 -1.22571e-20)
(0.984495 -0.177663 5.95525e-21)
(0.98449 -0.177697 1.09877e-20)
(0.984492 -0.177735 -2.34033e-20)
(0.984498 -0.177779 1.94967e-20)
(0.984504 -0.177821 -1.28858e-20)
(0.98451 -0.177849 1.08633e-20)
(0.984515 -0.177859 1.71762e-20)
(0.984521 -0.177859 -4.10896e-20)
(0.984526 -0.177863 5.88901e-20)
(0.984533 -0.177876 2.46193e-20)
(0.98454 -0.177891 -9.80706e-20)
(0.984549 -0.177897 -1.80063e-20)
(0.984559 -0.177887 5.13447e-20)
(0.984568 -0.177865 3.25839e-20)
(0.984576 -0.177841 -3.93762e-20)
(0.984582 -0.177825 3.39753e-20)
(0.984589 -0.177819 5.15582e-20)
(0.984596 -0.177823 -2.56745e-20)
(0.984607 -0.177833 -1.44768e-20)
(0.984622 -0.177846 4.9015e-20)
(0.984641 -0.17786 9.81562e-20)
(0.984665 -0.177875 -7.29564e-20)
(0.984694 -0.177889 -7.69143e-20)
(0.984728 -0.177904 8.23815e-20)
(0.984768 -0.177918 -6.31948e-20)
(0.984813 -0.177932 -2.33479e-20)
(0.984866 -0.177945 1.9643e-19)
(0.984925 -0.177957 -8.46836e-20)
(0.984993 -0.177966 -5.78672e-20)
(0.985069 -0.177971 7.83697e-20)
(0.985155 -0.177971 5.03089e-20)
(0.985251 -0.177964 -4.55577e-20)
(0.985356 -0.177951 -2.81045e-20)
(0.985472 -0.17793 7.87594e-20)
(0.985601 -0.177901 7.68115e-21)
(0.985745 -0.177863 2.60585e-20)
(0.985904 -0.177814 -1.06166e-19)
(0.986081 -0.177752 -9.94813e-20)
(0.986276 -0.177675 1.42549e-19)
(0.986491 -0.177578 8.07983e-20)
(0.986728 -0.177457 7.22107e-20)
(0.986988 -0.177307 -6.49418e-20)
(0.987272 -0.17712 -2.53403e-20)
(0.987579 -0.176884 5.09917e-20)
(0.98791 -0.176587 -1.87535e-19)
(0.988263 -0.176212 -2.44706e-19)
(0.988635 -0.175736 3.82051e-19)
(0.989021 -0.175135 6.42283e-19)
(0.989414 -0.174379 2.09472e-19)
(0.989802 -0.173435 -1.75233e-19)
(0.990164 -0.17227 -5.00009e-20)
(0.99048 -0.170853 7.94361e-19)
(0.990691 -0.169154 -7.41997e-19)
(0.990827 -0.167177 -5.08483e-19)
(0.990772 -0.164818 -8.11937e-19)
(0.990576 -0.161917 3.47624e-18)
(0.990706 -0.161675 3.3367e-19)
(0.996234 -0.161698 1.69295e-20)
(0.984477 -0.178206 -4.58528e-21)
(0.984487 -0.178219 -3.62098e-21)
(0.984487 -0.178244 4.92512e-21)
(0.984487 -0.178266 1.72274e-20)
(0.98449 -0.178289 -3.68607e-20)
(0.984494 -0.178323 4.18799e-20)
(0.984495 -0.178364 -1.91733e-21)
(0.984493 -0.178396 -2.60158e-21)
(0.98449 -0.178409 -1.46358e-20)
(0.984487 -0.178409 3.52196e-20)
(0.984485 -0.178412 -5.39801e-20)
(0.984486 -0.178428 2.02342e-20)
(0.98449 -0.178454 -6.51074e-22)
(0.984499 -0.178475 3.10931e-20)
(0.98451 -0.178481 1.45784e-20)
(0.984523 -0.178471 -7.75355e-20)
(0.984534 -0.178454 6.67984e-20)
(0.984544 -0.178442 2.58021e-20)
(0.984552 -0.178441 -7.38729e-20)
(0.984559 -0.178453 3.60094e-20)
(0.984568 -0.178472 1.61574e-20)
(0.98458 -0.178496 -1.11222e-20)
(0.984598 -0.178521 1.25346e-20)
(0.984621 -0.178546 -8.01256e-21)
(0.98465 -0.178571 -8.50488e-20)
(0.984685 -0.178595 5.41754e-20)
(0.984727 -0.178618 -8.02797e-20)
(0.984776 -0.178642 1.45649e-19)
(0.984833 -0.178664 -2.8189e-20)
(0.984898 -0.178685 -1.64334e-20)
(0.984972 -0.178703 -4.90806e-21)
(0.985056 -0.178718 1.28303e-19)
(0.985149 -0.178727 -5.51415e-20)
(0.985254 -0.17873 -3.43439e-20)
(0.985369 -0.178726 7.12295e-20)
(0.985496 -0.178714 5.58987e-20)
(0.985637 -0.178692 -9.09008e-20)
(0.985794 -0.178661 1.72337e-20)
(0.985969 -0.178619 1.34776e-19)
(0.986163 -0.178561 -2.80737e-20)
(0.986378 -0.178485 7.57014e-20)
(0.986616 -0.178386 -7.5024e-20)
(0.986879 -0.178259 1.1115e-19)
(0.987169 -0.178096 1.19946e-19)
(0.987488 -0.17789 -1.84853e-20)
(0.987835 -0.177626 -1.77468e-21)
(0.98821 -0.177291 1.07893e-19)
(0.988609 -0.176865 4.96275e-21)
(0.98903 -0.17633 -1.19332e-19)
(0.989464 -0.175658 -3.60135e-19)
(0.989901 -0.174822 8.73887e-20)
(0.990329 -0.173794 7.25245e-19)
(0.990725 -0.172542 -7.37102e-19)
(0.991071 -0.171036 5.78099e-19)
(0.99131 -0.16925 -1.24409e-18)
(0.991474 -0.167186 -3.65213e-19)
(0.991469 -0.164754 -1.73241e-18)
(0.991275 -0.16185 -2.68533e-18)
(0.991534 -0.161829 -5.34501e-19)
(0.995755 -0.16309 -3.73407e-19)
(0.984522 -0.178732 -2.21649e-21)
(0.984542 -0.178739 1.89562e-21)
(0.984543 -0.178759 9.41407e-21)
(0.984539 -0.178772 1.47539e-20)
(0.984534 -0.178782 -4.34262e-20)
(0.984524 -0.178803 2.48008e-20)
(0.984508 -0.178839 -4.39201e-20)
(0.984488 -0.178873 6.82498e-20)
(0.984465 -0.178892 -3.17566e-20)
(0.984442 -0.178897 5.55521e-21)
(0.984422 -0.178902 6.02544e-20)
(0.984406 -0.178922 -1.36191e-19)
(0.984398 -0.178957 9.21032e-20)
(0.984399 -0.178994 1.2737e-20)
(0.984408 -0.179018 2.04218e-20)
(0.984423 -0.179025 -8.5413e-20)
(0.984442 -0.179022 4.16057e-20)
(0.984462 -0.17902 -5.09593e-20)
(0.98448 -0.17903 9.93357e-20)
(0.984497 -0.179053 -1.37813e-20)
(0.984514 -0.179088 -1.22763e-19)
(0.984532 -0.179128 4.81094e-20)
(0.984555 -0.17917 -2.89396e-21)
(0.984582 -0.17921 -1.68363e-19)
(0.984616 -0.179249 1.26102e-19)
(0.984656 -0.179286 9.16481e-20)
(0.984704 -0.179321 5.94784e-20)
(0.984759 -0.179355 -7.63565e-20)
(0.984823 -0.179388 -7.94909e-20)
(0.984896 -0.179419 3.64525e-20)
(0.984978 -0.179447 5.21257e-20)
(0.985071 -0.179471 -5.99554e-20)
(0.985174 -0.17949 -8.41768e-20)
(0.985288 -0.179501 1.75869e-19)
(0.985414 -0.179506 1.53159e-20)
(0.985552 -0.179501 -2.29918e-19)
(0.985705 -0.179487 1.90782e-20)
(0.985875 -0.179462 1.34569e-19)
(0.986064 -0.179425 1.55038e-20)
(0.986274 -0.179372 1.44042e-19)
(0.986506 -0.179297 -1.5413e-19)
(0.986763 -0.179198 -6.12819e-21)
(0.987047 -0.179066 -6.37045e-20)
(0.987362 -0.178895 3.85179e-20)
(0.98771 -0.178673 4.17932e-20)
(0.988092 -0.178387 7.70414e-20)
(0.988507 -0.178019 -5.39239e-20)
(0.988953 -0.177549 1.33915e-19)
(0.989425 -0.176956 -1.356e-19)
(0.989914 -0.176214 -7.59326e-19)
(0.990407 -0.175297 7.75287e-19)
(0.99089 -0.174176 -1.13923e-18)
(0.991335 -0.172824 8.61776e-19)
(0.991721 -0.171221 4.48156e-19)
(0.991989 -0.169348 2.48926e-18)
(0.992166 -0.167232 1.41744e-19)
(0.992161 -0.164826 1.02327e-18)
(0.991875 -0.162128 1.25495e-18)
(0.992094 -0.162765 -9.82013e-19)
(0.995615 -0.164752 1.00393e-19)
(0.984646 -0.179192 3.07905e-21)
(0.984666 -0.179198 1.05801e-21)
(0.984652 -0.17922 -1.09862e-20)
(0.984628 -0.179232 1.03933e-20)
(0.9846 -0.179236 -4.57063e-21)
(0.984566 -0.179248 8.09041e-21)
(0.984523 -0.179278 2.73197e-21)
(0.984476 -0.179315 -3.978e-20)
(0.984427 -0.179343 1.7188e-20)
(0.984378 -0.179356 -1.15532e-20)
(0.984332 -0.179368 7.01522e-21)
(0.984292 -0.179394 2.68601e-20)
(0.984261 -0.179439 -5.0349e-21)
(0.984244 -0.17949 1.60764e-20)
(0.98424 -0.179532 -6.74628e-20)
(0.98425 -0.179556 2.58881e-20)
(0.984271 -0.179568 1.11988e-20)
(0.984299 -0.179579 -3.02379e-20)
(0.984332 -0.1796 5.93204e-20)
(0.984367 -0.179638 1.89475e-20)
(0.984402 -0.179688 -2.41089e-21)
(0.984439 -0.179747 -2.05107e-20)
(0.984477 -0.179809 7.95107e-20)
(0.98452 -0.179868 -2.14351e-19)
(0.984568 -0.179925 1.10932e-19)
(0.984621 -0.179977 4.54199e-20)
(0.984682 -0.180027 -7.33325e-20)
(0.984751 -0.180074 1.26372e-19)
(0.984828 -0.180118 -6.19398e-20)
(0.984914 -0.180159 -2.99637e-20)
(0.98501 -0.180197 -5.4098e-20)
(0.985117 -0.180229 -2.047e-20)
(0.985235 -0.180255 5.94963e-20)
(0.985364 -0.180274 -1.66746e-19)
(0.985505 -0.180284 3.06028e-19)
(0.985658 -0.180284 -2.38863e-20)
(0.985826 -0.180275 1.33187e-19)
(0.986011 -0.180254 -3.29602e-19)
(0.986215 -0.18022 -8.73223e-20)
(0.98644 -0.180168 1.1018e-20)
(0.986687 -0.180094 -5.7945e-20)
(0.986959 -0.179993 -3.20254e-21)
(0.987259 -0.179859 -1.54101e-19)
(0.98759 -0.179682 6.94641e-20)
(0.987956 -0.179452 5.11121e-20)
(0.988358 -0.179152 -9.44158e-20)
(0.988797 -0.178766 5.06846e-20)
(0.98927 -0.17827 -2.06456e-20)
(0.989774 -0.177644 4.7875e-20)
(0.990298 -0.17686 4.02158e-19)
(0.990828 -0.175894 -2.6417e-19)
(0.991347 -0.174721 5.85175e-19)
(0.991824 -0.173317 -1.09837e-18)
(0.992232 -0.171673 -4.33248e-19)
(0.992509 -0.169789 1.02525e-18)
(0.992677 -0.167718 -5.26574e-19)
(0.992652 -0.165467 1.59548e-18)
(0.992269 -0.1631 3.58964e-19)
(0.992428 -0.164343 3.98659e-18)
(0.995971 -0.166234 6.45525e-19)
(0.984811 -0.179637 -6.82424e-22)
(0.984807 -0.179646 -2.65486e-21)
(0.984757 -0.179676 -2.28378e-21)
(0.984697 -0.179699 2.19609e-20)
(0.984636 -0.179708 -1.21143e-20)
(0.984571 -0.179719 -1.43978e-20)
(0.984501 -0.179747 -5.33209e-21)
(0.984428 -0.179788 -2.17918e-20)
(0.984355 -0.179825 1.35971e-20)
(0.984285 -0.179849 1.96754e-21)
(0.984217 -0.17987 7.16652e-22)
(0.984155 -0.179905 5.64792e-20)
(0.9841 -0.179958 -3.97544e-20)
(0.984059 -0.180021 -4.82778e-21)
(0.984034 -0.180076 4.46708e-20)
(0.984027 -0.180115 -2.44706e-20)
(0.984037 -0.180138 -9.31137e-21)
(0.984063 -0.180159 1.48895e-20)
(0.984102 -0.180189 4.72502e-20)
(0.984151 -0.180236 2.51589e-20)
(0.984206 -0.1803 8.36937e-21)
(0.984266 -0.180375 -6.32564e-20)
(0.984329 -0.180455 3.10276e-20)
(0.984396 -0.180534 5.7607e-20)
(0.984467 -0.180609 -1.20168e-19)
(0.984543 -0.180679 3.681e-20)
(0.984625 -0.180744 -1.45145e-19)
(0.984715 -0.180804 1.15773e-19)
(0.984812 -0.18086 9.61582e-20)
(0.984919 -0.180911 -1.47345e-19)
(0.985035 -0.180958 -6.85586e-20)
(0.985162 -0.180998 8.64242e-20)
(0.9853 -0.18103 2.86084e-20)
(0.985449 -0.181054 -6.9709e-20)
(0.98561 -0.181068 -8.71839e-20)
(0.985784 -0.18107 -9.81949e-20)
(0.985971 -0.181062 6.26451e-20)
(0.986175 -0.181042 1.35699e-19)
(0.986398 -0.181007 4.93372e-20)
(0.98664 -0.180954 -2.84989e-20)
(0.986903 -0.180877 3.42176e-19)
(0.987189 -0.180773 -4.95051e-20)
(0.987501 -0.180634 2.6631e-19)
(0.987842 -0.180454 -3.99399e-19)
(0.988215 -0.180219 8.37455e-20)
(0.988623 -0.179915 1.49847e-21)
(0.989066 -0.179524 5.96071e-20)
(0.989544 -0.179025 -5.88438e-20)
(0.990052 -0.178395 8.94662e-20)
(0.990582 -0.177607 -1.79047e-19)
(0.991118 -0.17664 -3.83492e-19)
(0.991645 -0.175469 -2.4016e-19)
(0.992128 -0.174077 9.2331e-19)
(0.992538 -0.172462 -5.73423e-19)
(0.992815 -0.170637 -1.85163e-18)
(0.992982 -0.168674 -5.07044e-19)
(0.992972 -0.166598 -1.55468e-18)
(0.992571 -0.164483 -8.4433e-19)
(0.992747 -0.165979 -3.15126e-18)
(0.996767 -0.167233 1.19786e-18)
(0.98493 -0.180148 8.81604e-22)
(0.984879 -0.180167 -2.62418e-21)
(0.984778 -0.180211 9.29227e-21)
(0.984674 -0.180251 2.39124e-21)
(0.98458 -0.180275 -1.25755e-20)
(0.98449 -0.180293 -1.43433e-20)
(0.9844 -0.180325 3.37141e-20)
(0.984313 -0.180371 -3.64749e-20)
(0.984229 -0.180415 -8.83979e-21)
(0.98415 -0.180449 2.21531e-20)
(0.984075 -0.18048 2.03077e-20)
(0.984003 -0.180522 6.11319e-20)
(0.983937 -0.180581 -3.42827e-20)
(0.98388 -0.180651 -5.80631e-20)
(0.983836 -0.180714 1.26889e-20)
(0.983807 -0.180761 -4.63797e-20)
(0.983797 -0.180791 3.47111e-20)
(0.983807 -0.180814 -5.74177e-20)
(0.983837 -0.180845 9.62968e-21)
(0.983885 -0.180893 -1.7882e-20)
(0.983948 -0.180961 -1.06598e-20)
(0.984023 -0.181044 -4.78303e-20)
(0.984107 -0.181136 5.7755e-21)
(0.984198 -0.181229 1.02646e-19)
(0.984295 -0.181319 -3.4266e-20)
(0.984397 -0.181404 1.11058e-20)
(0.984505 -0.181483 3.05389e-20)
(0.98462 -0.181556 -3.73568e-20)
(0.984743 -0.181623 -7.68162e-21)
(0.984874 -0.181684 4.96437e-20)
(0.985014 -0.181739 5.34778e-20)
(0.985164 -0.181786 -3.81014e-20)
(0.985326 -0.181824 -1.18958e-19)
(0.985499 -0.181851 -1.63763e-19)
(0.985684 -0.181868 2.40462e-19)
(0.985882 -0.181871 6.58887e-20)
(0.986093 -0.181863 4.39101e-20)
(0.98632 -0.181841 1.83207e-19)
(0.986565 -0.181802 -1.50124e-19)
(0.986828 -0.181744 9.11067e-20)
(0.98711 -0.181662 9.44775e-21)
(0.987412 -0.181551 -5.19341e-21)
(0.987737 -0.181406 -9.9364e-20)
(0.988087 -0.181219 2.11055e-19)
(0.988465 -0.180981 -2.41632e-19)
(0.988873 -0.180676 1.13975e-19)
(0.989312 -0.180288 -2.17615e-19)
(0.989782 -0.179797 -2.55805e-20)
(0.99028 -0.17918 -2.30742e-20)
(0.990799 -0.178414 1.09028e-19)
(0.991325 -0.177475 1.96801e-19)
(0.991843 -0.176342 1.65027e-19)
(0.992322 -0.174999 1.51033e-20)
(0.992735 -0.173444 3.8254e-19)
(0.993027 -0.171694 -6.26767e-20)
(0.99323 -0.16982 -1.79272e-19)
(0.993293 -0.167835 5.31001e-19)
(0.992962 -0.165788 2.24685e-19)
(0.993214 -0.167216 5.41386e-19)
(0.997834 -0.167717 -8.22229e-19)
(0.984913 -0.180801 1.63866e-21)
(0.984798 -0.180834 -1.3766e-21)
(0.984647 -0.180894 1.24704e-21)
(0.984507 -0.180957 7.93616e-21)
(0.984391 -0.181001 1.14452e-20)
(0.98429 -0.181032 -4.43814e-20)
(0.984198 -0.181071 3.18622e-20)
(0.984113 -0.181122 6.56127e-21)
(0.984036 -0.181172 -1.99133e-21)
(0.983967 -0.181213 -1.40205e-20)
(0.983903 -0.18125 4.25542e-20)
(0.983842 -0.181296 -1.38073e-20)
(0.983783 -0.181358 -1.88855e-20)
(0.983727 -0.181429 -5.56563e-20)
(0.983677 -0.181494 1.10415e-19)
(0.983637 -0.181541 -2.28151e-20)
(0.98361 -0.18157 -1.89098e-20)
(0.983599 -0.181588 -5.53285e-20)
(0.983608 -0.18161 6.05953e-20)
(0.983638 -0.181649 3.29699e-20)
(0.983691 -0.18171 -1.53002e-20)
(0.983765 -0.181789 2.49406e-20)
(0.983855 -0.181881 -1.06084e-19)
(0.98396 -0.181978 8.02418e-21)
(0.984075 -0.182075 5.68538e-20)
(0.984199 -0.182169 -1.04013e-20)
(0.98433 -0.182257 -1.64786e-19)
(0.984468 -0.182339 1.69172e-20)
(0.984615 -0.182415 1.40939e-19)
(0.984769 -0.182484 -3.695e-20)
(0.984933 -0.182546 -6.84616e-20)
(0.985107 -0.1826 3.97428e-20)
(0.985292 -0.182643 1.09269e-19)
(0.985489 -0.182674 2.46259e-19)
(0.985698 -0.182692 -3.66405e-20)
(0.985921 -0.182697 4.606e-20)
(0.986157 -0.182687 -3.38256e-19)
(0.986408 -0.182663 -8.4404e-20)
(0.986677 -0.182619 5.21195e-20)
(0.986964 -0.182555 -2.09933e-19)
(0.987269 -0.182465 -3.43714e-20)
(0.987592 -0.182345 8.30478e-20)
(0.987936 -0.182191 7.89178e-20)
(0.988301 -0.181995 1.63086e-19)
(0.988691 -0.181749 4.26486e-19)
(0.989105 -0.18144 -2.78896e-19)
(0.989546 -0.181052 3.75522e-19)
(0.990014 -0.180567 1.92388e-19)
(0.990506 -0.179965 -1.02383e-20)
(0.991018 -0.179221 1.02775e-19)
(0.991539 -0.178313 5.00424e-20)
(0.992057 -0.177219 1.98281e-19)
(0.992545 -0.17592 -2.70766e-19)
(0.99298 -0.17441 -3.36729e-19)
(0.993316 -0.172698 1.35727e-19)
(0.993594 -0.170844 1.40687e-18)
(0.993775 -0.168836 -4.46272e-19)
(0.993554 -0.166702 4.84948e-19)
(0.993895 -0.167908 1.18276e-18)
(0.999004 -0.167824 -5.46906e-19)
(0.9847 -0.181655 -1.75732e-21)
(0.984525 -0.181703 1.91344e-21)
(0.98434 -0.181774 1.29245e-20)
(0.984184 -0.181856 -1.67677e-20)
(0.984067 -0.18192 3.02261e-20)
(0.983975 -0.181966 -4.40955e-20)
(0.9839 -0.182013 1.23932e-20)
(0.983836 -0.182068 -5.84471e-22)
(0.983784 -0.182122 2.70045e-20)
(0.983741 -0.182167 -1.41328e-20)
(0.983705 -0.182207 4.11753e-21)
(0.983672 -0.182254 4.18036e-21)
(0.983639 -0.182314 -6.49653e-20)
(0.983604 -0.182382 1.94007e-20)
(0.983569 -0.182443 4.41475e-20)
(0.983536 -0.182485 1.28488e-21)
(0.983506 -0.182505 -7.22342e-20)
(0.983483 -0.182512 2.92312e-20)
(0.983473 -0.182519 1.3457e-19)
(0.98348 -0.182539 -8.73525e-20)
(0.983509 -0.18258 -6.50145e-20)
(0.983563 -0.182641 5.4487e-20)
(0.983642 -0.182719 3.39376e-20)
(0.983743 -0.182807 3.67151e-20)
(0.983861 -0.182899 -7.12008e-20)
(0.983994 -0.182991 -1.4828e-19)
(0.984139 -0.18308 1.12176e-19)
(0.984294 -0.183165 1.52527e-19)
(0.984458 -0.183244 3.8888e-20)
(0.984631 -0.183318 -8.12923e-20)
(0.984814 -0.183384 3.49977e-20)
(0.985008 -0.183442 5.72536e-20)
(0.985212 -0.183489 -9.80128e-20)
(0.985429 -0.183523 -1.66659e-20)
(0.98566 -0.183544 -1.59946e-19)
(0.985904 -0.183549 -3.68219e-20)
(0.986163 -0.183539 -3.62033e-20)
(0.986438 -0.183513 9.4152e-20)
(0.986732 -0.183466 -1.31966e-19)
(0.987043 -0.183395 3.10423e-20)
(0.987374 -0.183297 5.7376e-20)
(0.987723 -0.183167 1.44442e-20)
(0.988093 -0.183 -2.66175e-19)
(0.988483 -0.182792 -3.37283e-19)
(0.988895 -0.182534 -2.41744e-19)
(0.98933 -0.182213 4.57512e-19)
(0.98979 -0.181817 5.77475e-20)
(0.990273 -0.181328 -1.15936e-19)
(0.990779 -0.180726 5.34236e-20)
(0.991305 -0.179988 -2.04514e-19)
(0.991842 -0.179092 3.68551e-20)
(0.992384 -0.178012 -5.03426e-21)
(0.992906 -0.176723 7.3594e-20)
(0.993391 -0.175214 2.66742e-19)
(0.993801 -0.173482 -2.19884e-19)
(0.994177 -0.171573 -2.80091e-19)
(0.994485 -0.169456 -3.99654e-19)
(0.994368 -0.167164 -1.30086e-18)
(0.994767 -0.168153 -1.80931e-18)
(1.00016 -0.167745 1.23454e-18)
(0.98428 -0.182724 -1.47671e-21)
(0.984068 -0.182782 2.1204e-21)
(0.983877 -0.182857 4.3772e-22)
(0.983733 -0.182949 7.9436e-21)
(0.983637 -0.183027 -1.19694e-20)
(0.983574 -0.183085 -2.43394e-20)
(0.983532 -0.183138 8.65492e-21)
(0.983505 -0.183195 -1.13667e-20)
(0.98349 -0.18325 2.45858e-20)
(0.983486 -0.183296 -4.89855e-21)
(0.98349 -0.183336 -1.59206e-20)
(0.983497 -0.183382 1.31262e-20)
(0.983502 -0.183438 2.09598e-20)
(0.983504 -0.1835 5.6982e-20)
(0.983502 -0.183554 -1.0262e-19)
(0.983494 -0.183587 5.18073e-20)
(0.983482 -0.183597 7.72844e-21)
(0.983467 -0.18359 -4.99515e-20)
(0.983452 -0.183578 -3.06503e-20)
(0.983443 -0.183574 9.97275e-20)
(0.983449 -0.183589 -1.02935e-19)
(0.983477 -0.183623 3.08348e-20)
(0.98353 -0.183675 -7.95995e-20)
(0.983611 -0.183741 1.31877e-19)
(0.983717 -0.183814 -2.64026e-20)
(0.983843 -0.183891 -7.09107e-20)
(0.983988 -0.183969 5.7455e-20)
(0.984148 -0.184046 1.03132e-19)
(0.98432 -0.184121 -9.43791e-20)
(0.984504 -0.184192 5.61364e-20)
(0.984699 -0.184258 -1.82875e-19)
(0.984905 -0.184316 -1.69927e-20)
(0.985124 -0.184364 7.41546e-20)
(0.985356 -0.184399 -4.33104e-20)
(0.985603 -0.184422 -8.50718e-20)
(0.985864 -0.184428 -1.88393e-19)
(0.986142 -0.184418 2.33913e-19)
(0.986438 -0.18439 -9.41523e-20)
(0.986754 -0.18434 6.52097e-20)
(0.987091 -0.184264 1.33051e-19)
(0.987448 -0.184159 1.06112e-19)
(0.987827 -0.184018 -5.04634e-20)
(0.988228 -0.183839 1.66578e-19)
(0.988652 -0.183616 2.85487e-19)