/*--------------------------------*- C++ -*----------------------------------*\
  =========                 |
  \\      /  F ield         | OpenFOAM: The Open Source CFD Toolbox
   \\    /   O peration     | Website:  https://openfoam.org
    \\  /    A nd           | Version:  6.0
     \\/     M anipulation  |
\*---------------------------------------------------------------------------*/
FoamFile
{
    version     2.0;
    format      ascii;
    class       volVectorField;
    location    "2";
    object      U;
}
// * * * * * * * * * * * * * * * * * * * * * * * * * * * * * * * * * * * * * //

dimensions      [0 1 -1 0 0 0 0];

internalField   nonuniform List<vector> 
13500
(
(1 1.4615e-06 -4.2924e-18)
(1 -2.9989e-06 2.9046e-18)
(1 -6.535e-06 -1.2496e-17)
(1 -8.8999e-06 -8.6367e-18)
(1 -9.5666e-06 1.6293e-17)
(1 -7.2002e-06 3.0229e-17)
(1 9.6997e-08 2.6076e-17)
(0.99998 1.4495e-05 -4.1858e-18)
(0.99991 4.582e-05 1.5458e-17)
(0.99981 7.0929e-05 3.3183e-18)
(0.99571 0.00075615 2.8767e-17)
(1.0191 0.01083 7.852e-18)
(1 4.3619e-06 2.6593e-18)
(1 -8.4349e-06 -8.8209e-18)
(1 -1.8241e-05 5.9672e-18)
(1 -2.5275e-05 -3.4055e-19)
(1 -2.6387e-05 -4.3449e-19)
(1 -1.9205e-05 -3.6348e-17)
(1 3.1817e-06 -4.5038e-17)
(0.99993 4.5897e-05 -2.395e-17)
(0.9997 0.00014797 -1.5427e-17)
(0.99986 0.00017333 -1.641e-18)
(0.98616 0.0021888 -1.3623e-17)
(1.0538 0.030591 -4.7542e-18)
(1 7.2587e-06 -3.4347e-18)
(1 -1.3941e-05 1.7525e-17)
(1 -3.0121e-05 3.1038e-18)
(1 -4.1829e-05 9.9579e-18)
(1 -4.3514e-05 -3.7572e-18)
(1 -3.1399e-05 2.9116e-17)
(1 6.1681e-06 -6.3401e-18)
(0.9999 7.7175e-05 5.4404e-18)
(0.99947 0.00025763 -1.8715e-17)
(1.0004 0.00029396 2.493e-17)
(0.97597 0.0032658 -7.1228e-18)
(1.0825 0.045065 1.6694e-18)
(1 1.0169e-05 8.9792e-18)
(1 -1.962e-05 -1.6991e-17)
(1 -4.2319e-05 -1.4713e-17)
(1 -5.8753e-05 -6.9863e-19)
(1 -6.1154e-05 5.8001e-18)
(1 -4.3989e-05 -8.0827e-19)
(1 8.7755e-06 6.2465e-17)
(0.99987 0.00010789 9.8014e-18)
(0.99921 0.00037334 2.2131e-17)
(1.0013 0.00043865 -9.0299e-18)
(0.96553 0.0040117 3.4685e-17)
(1.104 0.055537 -7.5991e-18)
(1 1.3089e-05 -6.3092e-18)
(1 -2.5346e-05 1.4685e-17)
(1 -5.456e-05 1.2525e-17)
(1 -7.5752e-05 1.2744e-17)
(1.0001 -7.8884e-05 2.8441e-18)
(1.0001 -5.6592e-05 2.1399e-17)
(1 1.1307e-05 -2.7894e-17)
(0.99985 0.00013805 1.9906e-18)
(0.9989 0.00049343 -1.3569e-17)
(1.0026 0.00061053 -2.1545e-18)
(0.95524 0.0044755 -8.9954e-18)
(1.1181 0.063145 2.1062e-18)
(1 1.6017e-05 6.385e-18)
(1 -3.1118e-05 -6.0877e-18)
(1 -6.6846e-05 3.8251e-18)
(1 -9.282e-05 -2.5245e-17)
(1.0001 -9.6712e-05 -8.324e-20)
(1.0001 -6.9217e-05 -4.2364e-17)
(1 1.3736e-05 1.0704e-18)
(0.99985 0.00016759 -1.598e-17)
(0.99854 0.00061608 5.1673e-18)
(1.0043 0.00081719 -2.1712e-17)
(0.94546 0.0046988 -2.1657e-17)
(1.1257 0.068504 2.0374e-18)
(0.99999 1.8955e-05 -1.0569e-18)
(1 -3.6937e-05 -7.2808e-18)
(1 -7.9179e-05 -3.1087e-18)
(1.0001 -0.00010997 1.9055e-17)
(1.0001 -0.00011465 -2.6342e-17)
(1.0001 -8.1875e-05 1.6209e-17)
(1 1.6065e-05 1.8658e-17)
(0.99985 0.0001965 5.622e-18)
(0.99812 0.00073949 1.1552e-17)
(1.0063 0.001066 1.1689e-17)
(0.93648 0.0047186 9.3307e-18)
(1.1276 0.072042 3.2739e-18)
(0.99999 2.1905e-05 -2.1815e-18)
(1 -4.2809e-05 -1.4322e-18)
(1 -9.156e-05 -2.678e-17)
(1.0001 -0.0001272 -9.0988e-18)
(1.0001 -0.00013269 7.3728e-18)
(1.0001 -9.4578e-05 2.6563e-17)
(1 1.8285e-05 1.1876e-17)
(0.99987 0.00022484 5.0187e-18)
(0.99764 0.00086175 -7.5506e-18)
(1.0086 0.0013618 1.6373e-17)
(0.92852 0.0045704 7.5358e-18)
(1.1249 0.074123 -1.0415e-17)
(0.99999 2.4869e-05 -6.7721e-18)
(1 -4.8736e-05 6.1577e-18)
(1 -0.00010399 4.5028e-17)
(1.0001 -0.00014453 -1.0914e-17)
(1.0001 -0.00015084 2.7611e-17)
(1.0001 -0.00010734 -5.2445e-17)
(1 2.038e-05 -3.956e-17)
(0.99991 0.00025269 9.7518e-18)
(0.99709 0.0009809 -5.6709e-18)
(1.011 0.0017071 -9.0301e-18)
(0.92175 0.0042882 -1.3923e-17)
(1.1186 0.075051 1.363e-17)
(0.99999 2.7847e-05 4.4617e-18)
(1 -5.4724e-05 2.3178e-18)
(1 -0.00011647 -3.8142e-17)
(1.0001 -0.00016195 1.5532e-17)
(1.0001 -0.00016912 -1.204e-17)
(1.0001 -0.00012017 2.2367e-17)
(1 2.2328e-05 1.4059e-17)
(0.99996 0.00028017 2.4649e-18)
(0.99647 0.001095 5.3547e-19)
(1.0136 0.0021024 1.4309e-18)
(0.91625 0.0039034 4.4299e-18)
(1.1096 0.07508 -7.1209e-19)
(0.99999 3.0843e-05 -2.4496e-18)
(1 -6.0775e-05 -7.6014e-18)
(1 -0.000129 9.3496e-18)
(1.0001 -0.00017948 -2.7404e-18)
(1.0001 -0.00018752 1.8587e-18)
(1.0001 -0.00013308 -2.4513e-17)
(1 2.4103e-05 -3.2381e-17)
(1 0.00030745 -3.131e-17)
(0.99579 0.001202 1.5851e-17)
(1.0162 0.0025469 1.8587e-18)
(0.91209 0.0034451 -1.1236e-17)
(1.0987 0.074418 -5.8776e-18)
(0.99998 3.3859e-05 3.3812e-18)
(1 -6.6894e-05 2.8712e-18)
(1 -0.00014157 4.5059e-18)
(1.0001 -0.00019713 -2.1839e-18)
(1.0001 -0.00020605 -5.5714e-18)
(1.0002 -0.00014608 9.2712e-18)
(1 2.5673e-05 1.8744e-17)
(1.0001 0.00033474 1.9342e-17)
(0.99504 0.0013 1.0185e-17)
(1.0189 0.0030381 -2.3469e-17)
(0.90924 0.0029391 1.1794e-19)
(1.0867 0.073234 -6.8096e-18)
(0.99998 3.6897e-05 -3.3806e-18)
(0.99999 -7.3085e-05 5.6462e-18)
(1 -0.0001542 8.1695e-18)
(1.0001 -0.00021489 5.7026e-18)
(1.0002 -0.00022471 -5.1676e-18)
(1.0002 -0.0001592 4.5577e-18)
(1.0001 2.7004e-05 4.2742e-18)
(1.0002 0.0003623 -1.7273e-18)
(0.99423 0.0013873 -1.6462e-17)
(1.0215 0.0035729 2.1764e-17)
(0.90766 0.0024088 1.0509e-19)
(1.0741 0.071666 1.4557e-18)
(0.99998 3.996e-05 5.1408e-18)
(0.99999 -7.9353e-05 -4.4073e-18)
(1 -0.00016687 7.1521e-19)
(1.0001 -0.00023278 -4.7571e-18)
(1.0002 -0.00024352 1.1736e-17)
(1.0002 -0.00017243 5.5608e-18)
(1.0001 2.8051e-05 1.7199e-17)
(1.0004 0.00039044 -6.4144e-18)
(0.99337 0.001462 -2.0111e-19)
(1.024 0.0041471 5.3457e-18)
(0.90728 0.0018742 1.7054e-17)
(1.0614 0.069828 9.2844e-19)
(0.99997 4.305e-05 1.2399e-18)
(0.99999 -8.5701e-05 9.7814e-18)
(1 -0.0001796 1.3661e-17)
(1.0001 -0.0002508 -4.7429e-18)
(1.0002 -0.00026247 8.4981e-18)
(1.0002 -0.00018581 -2.5959e-18)
(1.0001 2.8763e-05 -3.0123e-17)
(1.0005 0.00041948 2.0303e-17)
(0.99247 0.0015224 -1.8564e-17)
(1.0264 0.0047564 -3.0833e-17)
(0.90801 0.0013526 -3.7441e-18)
(1.049 0.067812 8.6067e-19)
(0.99997 4.6168e-05 -3.1632e-18)
(0.99999 -9.2133e-05 -1.0402e-17)
(1 -0.00019237 -3.279e-17)
(1.0001 -0.00026897 7.9909e-18)
(1.0002 -0.00028157 -1.2896e-17)
(1.0002 -0.00019932 8.3228e-18)
(1.0001 2.9081e-05 -2.8187e-18)
(1.0007 0.0004498 -1.2222e-17)
(0.99153 0.0015671 4.0761e-18)
(1.0286 0.0053958 1.8412e-17)
(0.90971 0.0008583 -7.857e-18)
(1.0373 0.06569 1.1985e-17)
(0.99996 4.9318e-05 3.3282e-19)
(0.99999 -9.8653e-05 7.78e-18)
(1 -0.0002052 2.2638e-17)
(1.0001 -0.00028728 -1.7996e-18)
(1.0002 -0.00030083 -1.2812e-17)
(1.0002 -0.000213 -1.551e-17)
(1.0001 2.8938e-05 1.0766e-17)
(1.0009 0.00048179 7.0087e-18)
(0.99056 0.0015945 2.356e-17)
(1.0306 0.0060604 -2.5781e-18)
(0.91228 0.00040281 1.9523e-18)
(1.0264 0.063522 -4.7811e-18)
(0.99996 5.2499e-05 -1.8673e-18)
(0.99998 -0.00010526 -9.4269e-18)
(1 -0.00021809 -1.0215e-17)
(1.0001 -0.00030574 6.0139e-18)
(1.0002 -0.00032025 -7.1956e-18)
(1.0003 -0.00022686 -1.244e-17)
(1.0001 2.8258e-05 1.0466e-17)
(1.0011 0.00051588 -4.755e-18)
(0.98958 0.0016034 -2.9157e-17)
(1.0323 0.0067451 -1.4449e-17)
(0.91558 -4.9158e-06 8.4723e-18)
(1.0165 0.061353 -5.1888e-18)
(0.99996 5.5714e-05 -2.6738e-18)
(0.99998 -0.00011197 -3.5629e-18)
(1 -0.00023103 -7.5701e-19)
(1.0001 -0.00032436 -2.6334e-17)
(1.0002 -0.00033984 6.0373e-18)
(1.0003 -0.0002409 5.4173e-18)
(1.0001 2.6955e-05 -1.9889e-17)
(1.0014 0.00055251 -1.6233e-17)
(0.98859 0.0015927 4.2646e-18)
(1.0338 0.0074452 -1.086e-18)
(0.91948 -0.00035835 -9.7835e-18)
(1.0077 0.059219 9.8121e-19)
(0.99995 5.8962e-05 3.4778e-18)
(0.99997 -0.00011877 1.6333e-17)
(1 -0.00024403 1.9493e-17)
(1.0001 -0.00034315 2.4803e-18)
(1.0002 -0.00035961 1.669e-17)
(1.0003 -0.00025514 9.4928e-18)
(1 2.4936e-05 2.8706e-18)
(1.0016 0.00059211 1.7766e-17)
(0.98761 0.0015614 2.1189e-17)
(1.0351 0.0081559 1.7254e-17)
(0.92385 -0.0006531 7.3011e-18)
(1 0.057146 1.1649e-18)
(0.99995 6.2244e-05 -1.6577e-18)
(0.99997 -0.00012567 -3.919e-18)
(1 -0.0002571 -2.0768e-17)
(1.0001 -0.00036211 -2.3479e-18)
(1.0003 -0.00037956 -1.2649e-17)
(1.0003 -0.00026959 -5.1357e-18)
(1 2.2102e-05 -1.8426e-18)
(1.0019 0.00063513 -1.6064e-17)
(0.98665 0.0015089 -2.0261e-17)
(1.0361 0.0088725 8.8434e-18)
(0.92859 -0.00088672 5.0066e-19)
(0.99343 0.055153 6.6896e-19)
(0.99994 6.5559e-05 4.3939e-18)
(0.99997 -0.00013266 -5.12e-18)
(1 -0.00027023 -1.9479e-17)
(1.0001 -0.00038125 4.4642e-17)
(1.0003 -0.00039969 1.8349e-17)
(1.0003 -0.00028426 -1.2567e-17)
(1 1.8344e-05 2.4771e-17)
(1.0022 0.000682 2.171e-17)
(0.98571 0.0014346 3.2877e-17)
(1.0368 0.0095908 -3.2413e-17)
(0.93357 -0.0010584 -1.3408e-17)
(0.98794 0.053255 1.766e-19)
(0.99993 6.8907e-05 -3.2162e-18)
(0.99996 -0.00013976 -1.0274e-18)
(1 -0.00028343 3.3255e-17)
(1.0002 -0.00040057 -3.3746e-17)
(1.0003 -0.00042002 -1.7663e-18)
(1.0004 -0.00029915 4.1639e-17)
(1 1.3548e-05 7.6768e-18)
(1.0026 0.00073313 -3.3537e-18)
(0.98481 0.0013382 -2.039e-17)
(1.0372 0.010307 3.8197e-17)
(0.93869 -0.0011686 -5.6794e-18)
(0.98348 0.051461 -2.8047e-19)
(0.99993 7.2287e-05 -1.6396e-18)
(0.99996 -0.00014696 -2.0472e-18)
(1 -0.0002967 1.7317e-18)
(1.0002 -0.00042009 3.5107e-17)
(1.0003 -0.00044055 -9.959e-18)
(1.0004 -0.00031429 -3.0776e-17)
(0.99997 7.5971e-06 -1.9573e-17)
(1.0029 0.0007889 -3.6109e-18)
(0.98396 0.0012198 6.4478e-18)
(1.0374 0.011016 -3.2224e-17)
(0.94387 -0.0012192 9.5131e-18)
(0.97997 0.049773 3.0412e-18)
(0.99992 7.5698e-05 2.7095e-18)
(0.99995 -0.00015427 1.4249e-17)
(1 -0.00031006 -1.2771e-17)
(1.0002 -0.00043981 -3.676e-18)
(1.0003 -0.00046129 -1.9113e-17)
(1.0004 -0.00032967 3.3481e-17)
(0.99994 3.7015e-07 -1.7183e-17)
(1.0033 0.00084966 1.4966e-17)
(0.98316 0.0010796 -1.9872e-18)
(1.0373 0.011715 3.0211e-17)
(0.94902 -0.0012129 -9.2822e-18)
(0.97733 0.048195 -5.0746e-18)
(0.99991 7.914e-05 -5.1967e-19)
(0.99995 -0.00016168 -8.1949e-18)
(1 -0.00032349 -1.7883e-17)
(1.0002 -0.00045973 -1.0072e-17)
(1.0003 -0.00048224 1.8539e-17)
(1.0004 -0.0003453 -4.2693e-17)
(0.99991 -8.255e-06 -2.6516e-18)
(1.0036 0.00091569 -2.022e-17)
(0.98243 0.00091819 3.2102e-18)
(1.037 0.0124 -8.7139e-18)
(0.95408 -0.0011531 9.8802e-18)
(0.97547 0.046726 2.1529e-18)
(0.99991 8.2612e-05 2.7223e-18)
(0.99994 -0.0001692 -8.7781e-18)
(1 -0.00033701 -1.7668e-18)
(1.0002 -0.00047987 2.4473e-18)
(1.0003 -0.00050341 5.8675e-18)
(1.0005 -0.00036119 1.2336e-17)
(0.99988 -1.84e-05 4.347e-17)
(1.004 0.00098724 2.4162e-18)
(0.98177 0.00073636 5.2313e-18)
(1.0364 0.013068 9.6044e-18)
(0.95898 -0.0010437 -8.4493e-18)
(0.97429 0.045361 1.654e-18)
(0.9999 8.6113e-05 -1.561e-18)
(0.99994 -0.00017683 8.77e-18)
(1 -0.00035061 2.542e-17)
(1.0002 -0.00050023 -2.4659e-17)
(1.0003 -0.0005248 -9.127e-18)
(1.0005 -0.00037735 -2.1704e-18)
(0.99984 -3.0183e-05 -1.4328e-17)
(1.0044 0.0010645 1.8744e-18)
(0.98119 0.00053519 -9.0639e-18)
(1.0357 0.013716 -3.5299e-18)
(0.96368 -0.00088928 -2.3857e-19)
(0.9737 0.044098 -2.0209e-18)
(0.99989 8.9644e-05 -1.6778e-18)
(0.99993 -0.00018457 5.2493e-18)
(1 -0.00036431 -6.1478e-19)
(1.0002 -0.00052083 8.1768e-18)
(1.0004 -0.00054643 -1.6841e-17)
(1.0005 -0.00039379 2.456e-17)
(0.99979 -4.3718e-05 7.147e-18)
(1.0048 0.0011475 -1.7882e-17)
(0.98069 0.00031604 -1.1623e-17)
(1.0348 0.014341 -1.3976e-17)
(0.96814 -0.00069443 1.3394e-18)
(0.9736 0.042931 -3.704e-18)
(0.99988 9.3205e-05 5.8303e-19)
(0.99992 -0.00019243 -1.2536e-17)
(1 -0.00037809 1.5741e-17)
(1.0002 -0.00054167 2.2615e-17)
(1.0004 -0.00056829 3.3009e-17)
(1.0006 -0.00041051 -1.8037e-17)
(0.99974 -5.9112e-05 -1.7769e-17)
(1.0052 0.0012363 3.6292e-18)
(0.98027 8.0465e-05 1.0891e-17)
(1.0337 0.01494 1.094e-17)
(0.97234 -0.00046405 6.2334e-18)
(0.97392 0.041854 3.6815e-18)
(0.99988 9.6795e-05 1.1173e-18)
(0.99992 -0.0002004 9.9689e-18)
(1 -0.00039197 -3.6165e-17)
(1.0002 -0.00056276 -3.2768e-18)
(1.0004 -0.0005904 -2.7421e-17)
(1.0006 -0.00042752 -1.1361e-17)
(0.99969 -7.6463e-05 2.4945e-20)
(1.0056 0.0013309 -4.1499e-18)
(0.97993 -0.00016974 -2.146e-17)
(1.0325 0.015511 -1.7467e-17)
(0.97625 -0.00020305 -8.5124e-18)
(0.97456 0.040859 -1.815e-18)
(0.99987 0.00010042 -7.2419e-19)
(0.99991 -0.00020851 -6.4832e-18)
(1 -0.00040595 2.8456e-17)
(1.0002 -0.00058412 -3.1266e-17)
(1.0004 -0.00061276 -2.0626e-18)
(1.0006 -0.00044484 2.4193e-17)
(0.99963 -9.5859e-05 7.1096e-19)
(1.006 0.0014312 3.9583e-18)
(0.97969 -0.00043259 1.8787e-17)
(1.0311 0.016051 2.2706e-17)
(0.97987 8.3655e-05 4.8703e-18)
(0.97547 0.039941 -1.014e-18)
(0.99986 0.00010407 -1.8853e-18)
(0.9999 -0.00021674 -2.3909e-18)
(1 -0.00042003 -1.2615e-17)
(1.0002 -0.00060574 1.5576e-17)
(1.0004 -0.00063536 3.0137e-17)
(1.0007 -0.00046247 -1.0692e-17)
(0.99957 -0.00011737 2.2132e-17)
(1.0063 0.0015368 2.9668e-18)
(0.97952 -0.00070598 -2.1285e-18)
(1.0297 0.016558 1.0272e-17)
(0.98318 0.00039127 -5.4414e-18)
(0.97657 0.039093 -7.0695e-19)
(0.99985 0.00010776 4.715e-19)
(0.99989 -0.0002251 -6.3227e-18)
(1 -0.0004342 4.7223e-18)
(1.0002 -0.00062766 -1.5874e-17)
(1.0004 -0.00065823 -3.1877e-17)
(1.0007 -0.00048043 6.7376e-18)
(0.99951 -0.00014106 -3.1928e-17)
(1.0067 0.0016476 -6.7813e-18)
(0.97944 -0.00098767 6.9042e-18)
(1.0283 0.017031 -3.2241e-17)
(0.9862 0.00071513 3.7262e-18)
(0.97782 0.038308 1.9946e-18)
(0.99984 0.00011147 8.28e-19)
(0.99989 -0.00023359 1.713e-17)
(1 -0.00044848 7.907e-18)
(1.0002 -0.00064986 6.4662e-18)
(1.0004 -0.00068136 2.549e-17)
(1.0008 -0.00049873 2.0088e-18)
(0.99944 -0.00016698 2.2048e-17)
(1.0071 0.0017631 4.8646e-18)
(0.97944 -0.0012754 -2.0986e-17)
(1.0268 0.017469 1.11e-17)
(0.98893 0.0010508 2.5197e-18)
(0.97916 0.037579 2.0689e-18)
(0.99983 0.00011523 -2.8912e-18)
(0.99988 -0.00024223 -5.6386e-18)
(1 -0.00046287 -6.9469e-18)
(1.0002 -0.00067237 1.0619e-17)
(1.0004 -0.00070476 1.2314e-17)
(1.0008 -0.0005174 -4.0005e-18)
(0.99937 -0.00019514 -1.852e-17)
(1.0075 0.0018829 2.2146e-17)
(0.97952 -0.0015667 3.8854e-18)
(1.0253 0.01787 -3.3533e-18)
(0.99138 0.0013941 1.0421e-17)
(0.98056 0.036901 -1.4382e-18)
(0.99982 0.00011902 5.9409e-18)
(0.99987 -0.00025101 6.7525e-18)
(1 -0.00047735 -7.3846e-18)
(1.0002 -0.00069521 -6.6147e-18)
(1.0005 -0.00072843 -1.767e-17)
(1.0008 -0.00053645 -6.8708e-18)
(0.9993 -0.00022555 9.1313e-18)
(1.0078 0.0020065 -3.5519e-17)
(0.97966 -0.0018595 9.5135e-18)
(1.0238 0.018233 -3.9641e-18)
(0.99356 0.001741 -1.1034e-17)
(0.98197 0.036267 4.1784e-18)
(0.99981 0.00012285 -2.622e-18)
(0.99986 -0.00025994 -1.1864e-17)
(1 -0.00049195 -7.157e-18)
(1.0002 -0.00071837 -1.2552e-17)
(1.0005 -0.00075237 -5.3953e-18)
(1.0009 -0.0005559 2.0202e-17)
(0.99923 -0.00025822 -8.9703e-18)
(1.0082 0.0021333 3.9512e-17)
(0.97987 -0.0021514 8.9715e-18)
(1.0223 0.018559 1.2029e-17)
(0.9955 0.0020881 4.6511e-18)
(0.98339 0.035671 -6.7771e-18)
(0.99979 0.00012672 -1.3908e-18)
(0.99985 -0.00026903 8.8231e-18)
(1 -0.00050666 1.418e-17)
(1.0002 -0.00074187 3.3843e-17)
(1.0005 -0.00077659 7.1517e-18)
(1.0009 -0.00057578 -1.3857e-17)
(0.99915 -0.0002931 4.3288e-18)
(1.0085 0.0022628 -4.2507e-17)
(0.98015 -0.0024403 -1.0883e-17)
(1.0208 0.018846 -6.6884e-18)
(0.9972 0.002432 4.5628e-18)
(0.98479 0.03511 6.8166e-18)
(0.99978 0.00013063 1.0644e-18)
(0.99984 -0.00027828 2.0886e-18)
(1 -0.00052147 -1.3926e-17)
(1.0002 -0.00076574 -5.6372e-18)
(1.0005 -0.00080108 9.0807e-18)
(1.001 -0.00059613 1.6585e-17)
(0.99907 -0.00033016 1.5053e-17)
(1.0088 0.0023943 4.2079e-18)
(0.98047 -0.0027241 1.2175e-17)
(1.0194 0.019096 -3.0993e-18)
(0.9987 0.0027698 -8.1448e-18)
(0.98614 0.034578 -1.7576e-18)
(0.99977 0.00013458 -4.3589e-20)
(0.99983 -0.00028769 2.3804e-18)
(0.99999 -0.00053641 3.1124e-18)
(1.0002 -0.00078997 -7.318e-18)
(1.0005 -0.00082585 8.4593e-20)
(1.001 -0.00061698 -1.5037e-17)
(0.99899 -0.00036932 -1.0182e-17)
(1.0091 0.0025272 3.1126e-17)
(0.98085 -0.0030011 -1.84e-17)
(1.018 0.019308 1.2035e-17)
(1 0.0030989 4.3017e-18)
(0.98745 0.034072 -4.9677e-18)
(0.99976 0.00013858 -3.2967e-18)
(0.99982 -0.00029727 -1.1164e-17)
(0.99999 -0.00055145 7.9462e-18)
(1.0002 -0.00081459 -1.9986e-17)
(1.0005 -0.00085091 -2.2965e-17)
(1.0011 -0.00063836 -2.0772e-17)
(0.99891 -0.00041053 -2.0753e-17)
(1.0094 0.0026607 -3.1876e-18)
(0.98126 -0.0032695 1.6081e-17)
(1.0168 0.019483 -1.0324e-17)
(1.0011 0.003417 4.2767e-19)
(0.9887 0.033587 4.6799e-18)
(0.99975 0.00014262 6.3631e-18)
(0.99981 -0.00030703 1.1667e-17)
(0.99998 -0.00056662 -1.2815e-17)
(1.0002 -0.0008396 1.6409e-17)
(1.0005 -0.00087624 -2.6932e-18)
(1.0011 -0.00066032 1.3616e-17)
(0.99883 -0.00045367 2.4945e-17)
(1.0097 0.0027942 -2.4144e-17)
(0.98172 -0.003528 -8.1542e-18)
(1.0155 0.019623 1.0902e-17)
(1.0021 0.0037224 3.7176e-18)
(0.98989 0.03312 -2.2145e-18)
(0.99973 0.00014671 -4.7746e-18)
(0.9998 -0.00031696 -3.4481e-18)
(0.99998 -0.0005819 -2.6795e-18)
(1.0002 -0.00086503 1.8775e-17)
(1.0005 -0.00090185 -5.7654e-18)
(1.0012 -0.0006829 -1.7252e-19)
(0.99874 -0.00049866 -4.8812e-18)
(1.0099 0.002927 1.9339e-17)
(0.9822 -0.0037752 -7.7424e-18)
(1.0144 0.019728 -7.4861e-18)
(1.003 0.0040135 -1.099e-17)
(0.99102 0.032668 2.575e-18)
(0.99972 0.00015085 3.2455e-18)
(0.99978 -0.00032709 -4.3721e-18)
(0.99997 -0.0005973 6.1341e-18)
(1.0002 -0.00089089 -2.8487e-17)
(1.0005 -0.00092774 3.9059e-17)
(1.0013 -0.00070615 5.6408e-18)
(0.99866 -0.00054538 1.926e-17)
(1.0102 0.0030585 -1.1966e-17)
(0.9827 -0.0040102 1.0236e-19)
(1.0134 0.0198 5.5673e-18)
(1.0037 0.004289 -2.138e-18)
(0.99209 0.032229 -9.6874e-19)
(0.9997 0.00015503 -9.2846e-19)
(0.99977 -0.0003374 8.5461e-19)
(0.99996 -0.00061283 1.4946e-17)
(1.0002 -0.00091719 7.7661e-18)
(1.0005 -0.0009539 -1.9527e-17)
(1.0013 -0.00073013 -1.1049e-17)
(0.99858 -0.00059372 3.3631e-18)
(1.0104 0.003188 -5.8174e-18)
(0.98323 -0.0042321 1.2954e-17)
(1.0124 0.01984 -3.6546e-18)
(1.0044 0.004548 1.0289e-17)
(0.9931 0.031801 -3.5377e-18)
(0.99969 0.00015927 -1.6161e-18)
(0.99976 -0.00034791 -8.2381e-18)
(0.99995 -0.00062849 -4.4438e-18)
(1.0002 -0.00094395 3.1186e-17)
(1.0006 -0.00098033 -1.7397e-17)
(1.0014 -0.00075489 -9.3581e-19)
(0.99849 -0.00064355 -5.0291e-17)
(1.0106 0.003315 5.7186e-18)
(0.98377 -0.0044406 -2.4224e-17)
(1.0115 0.01985 -7.8925e-18)
(1.0049 0.0047899 -1.0289e-17)
(0.99405 0.031382 2.1007e-18)
(0.99967 0.00016355 -6.9769e-19)
(0.99975 -0.00035862 5.1039e-18)
(0.99995 -0.00064428 -1.8344e-18)
(1.0002 -0.00097119 -1.8159e-17)
(1.0006 -0.001007 2.5001e-17)
(1.0015 -0.00078049 -2.3004e-18)
(0.99841 -0.00069476 2.6639e-17)
(1.0108 0.0034389 -3.5152e-18)
(0.98432 -0.0046352 1.1761e-17)
(1.0107 0.019832 9.8712e-18)
(1.0054 0.0050144 8.4878e-18)
(0.99495 0.03097 -5.0837e-19)
(0.99966 0.00016789 3.9549e-18)
(0.99973 -0.00036953 -3.0537e-18)
(0.99994 -0.00066019 -6.4175e-18)
(1.0002 -0.00099892 1.9819e-17)
(1.0006 -0.001034 1.8347e-18)
(1.0015 -0.00080698 2.852e-17)
(0.99832 -0.00074724 4.5955e-18)
(1.011 0.0035593 1.6795e-17)
(0.98488 -0.0048158 4.4125e-18)
(1.01 0.019788 -3.1939e-18)
(1.0059 0.0052213 1.1045e-18)
(0.9958 0.030564 4.6001e-19)
(0.99964 0.00017228 1.1277e-18)
(0.99972 -0.00038066 1.2485e-18)
(0.99993 -0.00067624 -5.8193e-18)
(1.0002 -0.0010272 -3.9468e-17)
(1.0006 -0.0010612 5.5563e-18)
(1.0016 -0.00083442 2.4735e-18)
(0.99824 -0.00080087 -1.9927e-17)
(1.0112 0.0036756 2.3625e-19)
(0.98544 -0.0049825 1.3001e-17)
(1.0094 0.019719 -2.0534e-18)
(1.0063 0.0054105 -5.3767e-18)
(0.9966 0.030163 2.713e-18)
(0.99963 0.00017673 -4.8291e-18)
(0.99971 -0.000392 5.292e-18)
(0.99992 -0.00069243 9.5926e-19)
(1.0002 -0.0010559 2.1916e-17)
(1.0006 -0.0010887 -2.5346e-17)
(1.0017 -0.00086288 -1.0925e-17)
(0.99815 -0.00085555 2.0381e-17)
(1.0114 0.0037875 -1.1376e-17)
(0.986 -0.0051356 -2.0552e-17)
(1.0088 0.019628 -1.0147e-17)
(1.0067 0.0055825 6.848e-18)
(0.99736 0.029766 9.0504e-19)
(0.99961 0.00018123 -5.1101e-19)
(0.99969 -0.00040357 -5.3253e-18)
(0.99991 -0.00070876 1.0217e-17)
(1.0002 -0.0010853 9.7177e-18)
(1.0006 -0.0011164 3.1305e-17)
(1.0018 -0.00089241 4.197e-18)
(0.99807 -0.00091121 1.8103e-17)
(1.0115 0.0038947 2.884e-17)
(0.98656 -0.0052756 -9.0742e-19)
(1.0084 0.019516 1.7848e-17)
(1.007 0.0057375 -7.2455e-19)
(0.99809 0.029373 -2.6403e-18)
(0.99959 0.00018578 4.9529e-18)
(0.99968 -0.00041536 -7.7531e-18)
(0.9999 -0.00072522 -1.5508e-17)
(1.0002 -0.0011152 -2.5828e-18)
(1.0006 -0.0011443 -3.3977e-17)
(1.0018 -0.00092306 -1.2488e-17)
(0.99798 -0.00096777 -6.2834e-18)
(1.0117 0.0039968 2.1553e-19)
(0.98711 -0.0054028 2.6745e-17)
(1.0079 0.019385 4.1129e-18)
(1.0073 0.0058761 -9.3989e-18)
(0.99878 0.028982 1.5841e-18)
(0.99957 0.00019039 -5.5527e-18)
(0.99966 -0.00042739 9.685e-18)
(0.99989 -0.00074183 8.1176e-18)
(1.0002 -0.0011456 -5.1468e-18)
(1.0006 -0.0011725 2.7324e-17)
(1.0019 -0.0009549 1.494e-17)
(0.9979 -0.0010252 -4.967e-18)
(1.0118 0.0040937 -2.9063e-17)
(0.98766 -0.005518 -9.095e-19)
(1.0076 0.019236 -1.1753e-17)
(1.0076 0.0059989 1.1127e-17)
(0.99944 0.028595 -2.0749e-18)
(0.99956 0.00019506 3.3366e-18)
(0.99964 -0.00043966 -1.8533e-18)
(0.99988 -0.00075859 1.0749e-17)
(1.0002 -0.0011767 -2.1654e-17)
(1.0006 -0.0012009 8.9222e-18)
(1.002 -0.00098797 -5.3669e-18)
(0.99782 -0.0010834 -1.0703e-17)
(1.0119 0.0041851 -2.3329e-18)
(0.9882 -0.0056219 -3.2272e-17)
(1.0073 0.019073 7.7541e-18)
(1.0079 0.0061064 -1.0189e-17)
(1.0001 0.02821 6.9236e-19)
(0.99954 0.00019979 2.6382e-19)
(0.99963 -0.00045217 -5.8301e-18)
(0.99987 -0.0007755 6.1039e-18)
(1.0002 -0.0012084 2.85e-17)
(1.0006 -0.0012295 -2.1251e-17)
(1.0021 -0.0010223 1.7264e-17)
(0.99774 -0.0011424 -6.1886e-18)
(1.0121 0.0042709 5.4023e-18)
(0.98873 -0.0057153 3.8341e-17)
(1.007 0.018895 -1.4395e-17)
(1.0082 0.0061996 1.5575e-17)
(1.0007 0.027828 1.9591e-18)
(0.99952 0.00020457 4.7351e-19)
(0.99961 -0.00046494 -1.2066e-18)
(0.99986 -0.00079257 -8.7812e-18)
(1.0002 -0.0012408 -4.2905e-18)
(1.0006 -0.0012583 1.8521e-17)
(1.0022 -0.0010579 1.3743e-19)
(0.99765 -0.0012022 -1.2164e-17)
(1.0122 0.0043511 -1.2896e-17)
(0.98926 -0.005799 -1.6049e-17)
(1.0068 0.018704 -1.359e-18)
(1.0085 0.006279 2.8524e-18)
(1.0013 0.027447 2.0554e-19)
(0.9995 0.00020941 -7.6195e-19)
(0.99959 -0.00047795 1.4359e-17)
(0.99984 -0.00080979 -5.8569e-18)
(1.0003 -0.0012738 -2.4247e-17)
(1.0006 -0.0012874 8.5385e-18)
(1.0023 -0.0010949 -4.3986e-17)
(0.99758 -0.0012629 6.068e-18)
(1.0123 0.0044255 8.1206e-18)
(0.98978 -0.0058739 7.4552e-19)
(1.0067 0.018503 1.462e-17)
(1.0088 0.0063455 -9.521e-19)
(1.0018 0.027069 -5.4748e-18)
(0.99948 0.00021431 -2.0116e-19)
(0.99958 -0.00049124 -2.8177e-19)
(0.99983 -0.00082716 7.8845e-18)
(1.0003 -0.0013076 1.497e-17)
(1.0006 -0.0013166 -3.3927e-17)
(1.0024 -0.0011333 1.9e-18)
(0.9975 -0.0013244 1.0868e-17)
(1.0124 0.0044941 1.2718e-17)
(0.99028 -0.0059408 -1.0148e-17)
(1.0066 0.018292 -1.4235e-17)
(1.009 0.0063999 -1.5452e-17)
(1.0024 0.026693 5.7821e-18)
(0.99946 0.00021927 -1.3164e-18)
(0.99956 -0.00050479 4.0129e-19)
(0.99982 -0.00084471 -3.8016e-18)
(1.0003 -0.001342 -9.995e-18)
(1.0006 -0.0013461 1.8807e-17)
(1.0025 -0.001173 2.361e-17)
(0.99742 -0.0013869 3.1698e-18)
(1.0125 0.0045568 6.4447e-18)
(0.99078 -0.0060005 1.6186e-17)
(1.0065 0.018072 2.3957e-18)
(1.0093 0.0064428 1.1425e-17)
(1.0029 0.026319 -3.5098e-18)
(0.99944 0.00022428 2.4229e-18)
(0.99954 -0.00051861 7.3985e-19)
(0.9998 -0.00086241 -5.4329e-18)
(1.0003 -0.0013772 1.4766e-18)
(1.0005 -0.0013758 -1.0197e-17)
(1.0026 -0.0012141 -5.6634e-18)
(0.99735 -0.0014505 -1.1716e-18)
(1.0126 0.0046137 -2.9101e-17)
(0.99127 -0.006054 3.1767e-18)
(1.0064 0.017845 -4.8577e-18)
(1.0096 0.006475 -4.6465e-18)
(1.0034 0.025948 -4.2312e-18)
(0.99941 0.00022936 -4.9446e-18)
(0.99952 -0.00053271 9.6661e-19)
(0.99979 -0.00088029 2.8818e-18)
(1.0003 -0.0014131 -1.8554e-17)
(1.0005 -0.0014057 -1.1624e-17)
(1.0027 -0.0012565 -2.6292e-17)
(0.99727 -0.0015152 5.654e-18)
(1.0126 0.0046648 1.1883e-17)
(0.99176 -0.006102 -3.4068e-17)
(1.0064 0.017611 2.2399e-17)
(1.0099 0.0064972 -5.0254e-18)
(1.0039 0.025578 2.7286e-18)
(0.99939 0.00023449 4.5389e-18)
(0.9995 -0.0005471 2.1631e-18)
(0.99977 -0.00089834 1.1082e-18)
(1.0003 -0.0014499 5.8845e-18)
(1.0005 -0.0014359 -2.5677e-18)
(1.0028 -0.0013003 5.096e-17)
(0.99721 -0.0015813 2.03e-17)
(1.0127 0.00471 -1.8482e-17)
(0.99223 -0.0061452 3.2788e-17)
(1.0064 0.017372 -8.357e-18)
(1.0101 0.00651 -3.3145e-18)
(1.0044 0.025211 -1.3615e-18)
(0.99937 0.00023968 1.1134e-18)
(0.99948 -0.00056179 -1.3698e-17)
(0.99976 -0.00091658 2.2181e-18)
(1.0003 -0.0014874 2.6427e-17)
(1.0005 -0.0014663 1.9871e-17)
(1.0029 -0.0013454 -8.225e-19)
(0.99714 -0.0016488 -2.8123e-17)
(1.0128 0.0047493 5.5965e-18)
(0.9927 -0.0061843 -7.3941e-18)
(1.0064 0.017128 -1.1567e-17)
(1.0104 0.0065141 8.4321e-18)
(1.0049 0.024847 1.2691e-18)
(0.99934 0.00024493 -4.4036e-18)
(0.99946 -0.00057677 -4.5665e-18)
(0.99974 -0.00093499 -1.2015e-17)
(1.0003 -0.0015257 -2.2164e-17)
(1.0005 -0.001497 -1.9994e-17)
(1.003 -0.0013918 -2.3159e-17)
(0.99708 -0.0017178 5.1932e-18)
(1.0128 0.0047828 4.3508e-17)
(0.99316 -0.00622 3.2224e-18)
(1.0064 0.01688 -1.0104e-18)
(1.0107 0.0065101 -2.9772e-18)
(1.0054 0.024484 -3.4111e-18)
(0.99932 0.00025024 3.2677e-18)
(0.99944 -0.00059205 4.2419e-18)
(0.99972 -0.00095359 1.8516e-17)
(1.0003 -0.0015649 1.535e-17)
(1.0005 -0.001528 1.9452e-17)
(1.0031 -0.0014394 -8.6074e-19)
(0.99702 -0.0017887 -2.8936e-17)
(1.0129 0.0048105 -2.3517e-17)
(0.99361 -0.0062529 7.9966e-18)
(1.0065 0.016628 4.0037e-18)
(1.011 0.0064984 6.7136e-18)
(1.0058 0.024125 2.6359e-18)
(0.99929 0.0002556 -2.3077e-18)
(0.99942 -0.00060764 6.6545e-18)
(0.9997 -0.00097239 -1.2251e-17)
(1.0003 -0.001605 2.2218e-18)
(1.0005 -0.0015594 9.0441e-18)
(1.0032 -0.0014882 -2.2639e-18)
(0.99696 -0.0018615 6.4966e-18)
(1.0129 0.0048323 6.5301e-18)
(0.99406 -0.0062834 2.6315e-18)
(1.0065 0.016374 9.8978e-18)
(1.0112 0.0064795 -8.0744e-18)
(1.0063 0.023768 5.3241e-19)
(0.99927 0.00026102 3.4843e-18)
(0.99939 -0.00062355 4.1241e-19)
(0.99969 -0.00099138 -5.7346e-18)
(1.0003 -0.0016459 8.8437e-19)
(1.0004 -0.0015911 -1.4861e-18)
(1.0033 -0.0015381 -2.2365e-17)
(0.99691 -0.0019364 1.8139e-17)
(1.013 0.0048482 2.3176e-17)
(0.9945 -0.0063122 -1.3102e-17)
(1.0066 0.016117 -1.3773e-17)
(1.0115 0.0064539 -2.3607e-18)
(1.0067 0.023413 4.5347e-18)
(0.99924 0.0002665 -2.5311e-18)
(0.99937 -0.00063978 -3.1764e-19)
(0.99967 -0.0010106 7.13e-18)
(1.0003 -0.0016877 -1.6987e-17)
(1.0004 -0.0016232 -1.3435e-17)
(1.0034 -0.0015891 2.8235e-17)
(0.99686 -0.0020137 -2.774e-18)
(1.013 0.0048582 -2.4539e-17)
(0.99494 -0.0063395 3.3378e-18)
(1.0067 0.015858 1.2968e-17)
(1.0118 0.006422 8.0018e-18)
(1.0071 0.023061 -1.6352e-18)
(0.99921 0.00027203 2.5152e-19)
(0.99935 -0.00065634 2.3266e-18)
(0.99965 -0.00103 3.8958e-18)
(1.0003 -0.0017305 8.7815e-18)
(1.0004 -0.0016559 2.6333e-17)
(1.0035 -0.001641 6.5832e-18)
(0.99682 -0.0020935 -2.4155e-17)
(1.013 0.0048623 2.2995e-18)
(0.99537 -0.0063658 8.5976e-18)
(1.0068 0.015598 -1.1684e-17)
(1.012 0.0063842 -5.4107e-18)
(1.0076 0.022711 -1.8919e-18)
(0.99919 0.0002776 7.1416e-19)
(0.99932 -0.00067323 -4.0468e-19)
(0.99963 -0.0010496 -1.028e-17)
(1.0003 -0.0017741 -1.8884e-19)
(1.0004 -0.001689 -5.2065e-17)
(1.0037 -0.0016938 8.1171e-18)
(0.99678 -0.0021759 2.3727e-17)
(1.0131 0.0048604 -6.607e-18)
(0.99579 -0.0063915 -9.0035e-18)
(1.0069 0.015337 1.9403e-17)
(1.0123 0.0063407 6.475e-18)
(1.008 0.022364 4.9038e-18)
(0.99916 0.00028323 7.6716e-19)
(0.9993 -0.00069046 -8.3979e-19)
(0.9996 -0.0010695 1.8591e-17)
(1.0003 -0.0018187 4.0504e-18)
(1.0003 -0.0017228 4.6138e-17)
(1.0038 -0.0017474 -2.8607e-17)
(0.99675 -0.0022612 -7.9457e-18)
(1.0131 0.0048525 6.2185e-18)
(0.99621 -0.0064166 3.102e-18)
(1.007 0.015074 -1.0917e-17)
(1.0125 0.0062918 -1.0479e-18)
(1.0084 0.022019 -3.6161e-18)
(0.99913 0.00028891 -2.9981e-18)
(0.99927 -0.00070803 1.41e-18)
(0.99958 -0.0010896 -1.0927e-17)
(1.0003 -0.0018643 5.3261e-18)
(1.0003 -0.0017572 -1.7531e-17)
(1.0039 -0.0018017 3.8795e-18)
(0.99672 -0.0023495 3.1814e-17)
(1.0131 0.0048385 -2.3274e-17)
(0.99663 -0.0064417 -1.1402e-17)
(1.0071 0.014811 -1.08e-17)
(1.0128 0.0062379 -5.1496e-18)
(1.0088 0.021677 -9.9308e-19)
(0.9991 0.00029464 3.7345e-18)
(0.99924 -0.00072595 -3.3487e-18)
(0.99956 -0.00111 -1.0604e-17)
(1.0003 -0.0019109 -8.493e-18)
(1.0003 -0.0017924 -2.8663e-17)
(1.004 -0.0018567 -1.7994e-17)
(0.9967 -0.0024409 -1.9507e-17)
(1.0131 0.0048185 2.1641e-17)
(0.99704 -0.0064667 1.1053e-17)
(1.0072 0.014548 1.6356e-17)
(1.0131 0.0061791 -2.0164e-18)
(1.0092 0.021338 4.794e-18)
(0.99907 0.0003004 -6.0022e-18)
(0.99922 -0.00074423 5.4259e-18)
(0.99953 -0.0011306 2.5964e-17)
(1.0003 -0.0019584 -2.0032e-18)
(1.0003 -0.0018284 3.1712e-17)
(1.0041 -0.0019123 1.3565e-18)
(0.99669 -0.0025357 -1.8683e-17)
(1.0132 0.0047923 8.4698e-18)
(0.99744 -0.0064919 -3.9862e-18)
(1.0073 0.014284 -3.4248e-18)
(1.0133 0.0061156 6.5416e-18)
(1.0095 0.021 -3.2419e-18)
(0.99904 0.00030621 4.9187e-18)
(0.99919 -0.00076287 -7.374e-18)
(0.99951 -0.0011515 -3.0272e-17)
(1.0003 -0.0020069 1.3105e-17)
(1.0002 -0.0018654 -2.2593e-17)
(1.0042 -0.0019683 2.4874e-17)
(0.99668 -0.0026339 6.0897e-18)
(1.0132 0.0047601 -8.0629e-18)
(0.99784 -0.0065175 -1.9131e-18)
(1.0074 0.01402 -8.5778e-18)
(1.0136 0.0060477 -1.0666e-17)
(1.0099 0.020665 4.4818e-18)
(0.999 0.00031205 -3.6231e-18)
(0.99916 -0.00078187 2.452e-18)
(0.99948 -0.0011727 1.8394e-17)
(1.0003 -0.0020564 -1.7276e-17)
(1.0002 -0.0019034 3.6352e-17)
(1.0044 -0.0020249 -1.9307e-17)
(0.99668 -0.0027356 3.55e-18)
(1.0132 0.0047217 -1.2743e-17)
(0.99824 -0.0065435 6.2444e-18)
(1.0076 0.013755 -1.2002e-18)
(1.0138 0.0059754 4.5652e-18)
(1.0103 0.020333 -1.9928e-18)
(0.99897 0.00031793 4.4437e-18)
(0.99913 -0.00080124 1.909e-18)
(0.99946 -0.0011941 -1.2263e-17)
(1.0003 -0.0021068 -3.5136e-19)
(1.0002 -0.0019425 -1.605e-18)
(1.0045 -0.0020818 4.6691e-18)
(0.99668 -0.0028409 3.3709e-17)
(1.0132 0.0046772 8.7169e-18)
(0.99863 -0.00657 -1.8508e-17)
(1.0077 0.013491 -6.2214e-18)
(1.014 0.0058989 -4.2955e-18)
(1.0106 0.020002 2.0946e-18)
(0.99894 0.00032384 -5.0934e-18)
(0.9991 -0.00082099 -7.0743e-18)
(0.99943 -0.001216 5.1449e-18)
(1.0003 -0.0021583 1.4948e-17)
(1.0001 -0.0019829 -3.2976e-17)
(1.0046 -0.0021391 1.5688e-17)
(0.9967 -0.0029498 -3.2456e-17)
(1.0132 0.0046266 1.0456e-17)