/*--------------------------------*- C++ -*----------------------------------*\
  =========                 |
  \\      /  F ield         | OpenFOAM: The Open Source CFD Toolbox
   \\    /   O peration     | Website:  https://openfoam.org
    \\  /    A nd           | Version:  6.0
     \\/     M anipulation  |
\*---------------------------------------------------------------------------*/
FoamFile
{
    version     2.0;
    format      ascii;
    class       surfaceScalarField;
    location    "7";
    object      phi;
}
// * * * * * * * * * * * * * * * * * * * * * * * * * * * * * * * * * * * * * //

dimensions      [0 3 -1 0 0 0 0];

internalField   nonuniform List<scalar> 
123526
(
3.14685e-07
2.34154e-05
6.98549e-08
7.36353e-07
2.53162e-05
1.19281e-06
2.73713e-05
1.68717e-06
2.95931e-05
2.22232e-06
3.19951e-05
2.80166e-06
3.45918e-05
3.42879e-06
3.73991e-05
4.10769e-06
4.04339e-05
4.84343e-06
4.37138e-05
5.64048e-06
4.72596e-05
6.50292e-06
5.10934e-05
7.43639e-06
5.52375e-05
8.44629e-06
5.9717e-05
9.54168e-06
6.45563e-05
1.07299e-05
6.97859e-05
1.20157e-05
7.54409e-05
1.34068e-05
8.15521e-05
1.49185e-05
8.81491e-05
1.65577e-05
9.52796e-05
1.83313e-05
0.000102987
2.02576e-05
0.000111304
2.23481e-05
0.000120287
2.46097e-05
0.000129994
2.70703e-05
0.000140457
2.97343e-05
0.000151762
3.26235e-05
0.000163951
3.57582e-05
0.000177095
3.91519e-05
0.000191269
4.28349e-05
0.00020653
4.68192e-05
0.000222971
5.11387e-05
0.000240648
5.581e-05
0.000259659
6.08646e-05
0.000280068
6.63289e-05
0.000301958
7.22277e-05
0.000325405
7.85998e-05
0.000350462
8.54664e-05
0.000377205
9.28622e-05
0.000405663
0.000100821
0.000435859
0.000109367
0.000467792
0.000118532
0.00050141
0.000128347
0.000536608
0.000138836
0.000573224
0.000150022
0.00061099
0.000161924
0.000649524
0.000174556
0.000688286
0.000187919
0.000726545
0.000201999
0.000763328
0.000216758
0.00079737
0.000232124
0.000827054
0.000247983
0.00085035
0.00026417
0.000864734
0.000280454
0.000867108
0.000296537
0.000853667
0.000312033
0.000819788
0.000326459
0.000759872
0.000339204
0.000667223
0.00034961
0.000533853
0.000356602
0.000348663
0.000100236
0.000354958
3.57836e-07
2.30253e-05
2.37019e-08
7.75892e-07
2.48946e-05
1.22828e-06
2.69154e-05
1.71815e-06
2.91002e-05
2.24822e-06
3.14622e-05
2.82192e-06
3.40157e-05
3.44269e-06
3.67761e-05
4.11449e-06
3.97602e-05
4.84225e-06
4.29843e-05
5.63035e-06
4.647e-05
6.48279e-06
5.02395e-05
7.40507e-06
5.43141e-05
8.40252e-06
5.87183e-05
9.48397e-06
6.34738e-05
1.06567e-05
6.8612e-05
1.19253e-05
7.41713e-05
1.32973e-05
8.01788e-05
1.47878e-05
8.66576e-05
1.64035e-05
9.36627e-05
1.81511e-05
0.000101238
2.00485e-05
0.000109405
2.21071e-05
0.000118227
2.43334e-05
0.000127766
2.67548e-05
0.000138035
2.93754e-05
0.00014914
3.22165e-05
0.000161109
3.52975e-05
0.000174014
3.86317e-05
0.000187934
4.22482e-05
0.000202912
4.61586e-05
0.000219059
5.03955e-05
0.000236411
5.49749e-05
0.000255079
5.99276e-05
0.000275115
6.52786e-05
0.000296607
7.10522e-05
0.000319631
7.72856e-05
0.000344228
8.39996e-05
0.000370491
9.12285e-05
0.000398434
9.90063e-05
0.000428081
0.000107359
0.000459439
0.00011632
0.00049245
0.000125921
0.000527008
0.000136192
0.000562955
0.000147157
0.000600028
0.000158839
0.000637845
0.000171253
0.000675877
0.000184401
0.000713403
0.000198268
0.000749469
0.00021281
0.000782836
0.000227952
0.000811922
0.000243575
0.000834737
0.000259515
0.00084881
0.00027554
0.000851099
0.000291356
0.000837868
0.000306585
0.000804571
0.000320755
0.000745717
0.000333258
0.000654733
0.000343526
0.000523599
0.000350176
0.000342018
0.000100042
0.000350385
3.84364e-07
2.2642e-05
-9.44423e-09
7.95153e-07
2.44802e-05
1.23971e-06
2.64675e-05
1.72105e-06
2.8616e-05
2.24187e-06
3.09387e-05
2.80549e-06
3.34497e-05
3.41528e-06
3.61642e-05
4.07513e-06
3.90985e-05
4.78981e-06
4.22679e-05
5.56364e-06
4.56947e-05
6.4005e-06
4.94012e-05
7.30576e-06
5.34076e-05
8.28465e-06
5.77381e-05
9.34575e-06
6.24117e-05
1.04962e-05
6.74603e-05
1.17404e-05
7.2926e-05
1.30859e-05
7.88322e-05
1.45471e-05
8.51952e-05
1.61309e-05
9.20778e-05
1.78435e-05
9.95241e-05
1.97026e-05
0.000107545
2.17194e-05
0.00011621
2.38999e-05
0.000125585
2.62712e-05
0.000135663
2.88371e-05
0.000146573
3.16184e-05
0.000158327
3.46343e-05
0.000170997
3.78977e-05
0.00018467
4.1437e-05
0.000199372
4.52636e-05
0.000215232
4.94096e-05
0.000232264
5.38907e-05
0.000250597
5.87373e-05
0.000270267
6.39743e-05
0.000291369
6.96257e-05
0.000313978
7.5729e-05
0.000338123
8.2305e-05
0.000363914
8.93884e-05
0.00039135
9.7014e-05
0.000420455
0.000105209
0.000451244
0.000114007
0.000483652
0.000123444
0.000517572
0.000133547
0.000552853
0.000144343
0.000589233
0.000155854
0.000626335
0.000168094
0.000663638
0.000181062
0.000700435
0.000194739
0.000735793
0.000209077
0.000768497
0.000223999
0.000796999
0.000239383
0.00081935
0.000255066
0.000833128
0.000270819
0.000835342
0.000286355
0.000822328
0.000301304
0.000789614
0.000315204
0.000731806
0.000327457
0.000642463
0.000337454
0.000513584
0.000344224
0.000335222
9.83484e-05
0.00034587
3.90352e-07
2.22667e-05
-2.29579e-08
7.92769e-07
2.40744e-05
1.22818e-06
2.60288e-05
1.69967e-06
2.81418e-05
2.20978e-06
3.0426e-05
2.76187e-06
3.28953e-05
3.35917e-06
3.55647e-05
4.00555e-06
3.84502e-05
4.70564e-06
4.15661e-05
5.46371e-06
4.49352e-05
6.28352e-06
4.85799e-05
7.17036e-06
5.25196e-05
8.12927e-06
5.67779e-05
9.16875e-06
6.13712e-05
1.02957e-05
6.63322e-05
1.15145e-05
7.17061e-05
1.28323e-05
7.75132e-05
1.42635e-05
8.37629e-05
1.58146e-05
9.05255e-05
1.74918e-05
9.78457e-05
1.93124e-05
0.000105723
2.12873e-05
0.000114234
2.34224e-05
0.000123448
2.57443e-05
0.00013334
2.82567e-05
0.00014406
3.09801e-05
0.000155603
3.39333e-05
0.000168043
3.71289e-05
0.000181473
4.05951e-05
0.000195905
4.43431e-05
0.000211483
4.84045e-05
0.000228202
5.2795e-05
0.000246206
5.75449e-05
0.000265517
6.26786e-05
0.000286234
6.82207e-05
0.000308435
7.42085e-05
0.000332134
8.06632e-05
0.000357458
8.76197e-05
0.000384392
9.5113e-05
0.00041296
0.000103171
0.000443185
0.000111828
0.000474994
0.000121118
0.000508281
0.000131071
0.0005429
0.000141711
0.000578593
0.000153059
0.000614986
0.000165128
0.00065157
0.000177912
0.000687652
0.000191391
0.000722317
0.000205514
0.000754376
0.000220201
0.000782314
0.000235333
0.000804221
0.000250747
0.00081772
0.000266218
0.000819876
0.000281467
0.000807084
0.000296129
0.000774952
0.000309756
0.000718181
0.000321759
0.000630459
0.000331476
0.000503865
0.000338116
0.000328568
9.62522e-05
0.000340199
3.85137e-07
2.18987e-05
-2.60018e-08
7.79177e-07
2.36766e-05
1.20577e-06
2.55988e-05
1.66768e-06
2.76768e-05
2.16763e-06
2.99233e-05
2.70866e-06
3.23518e-05
3.29418e-06
3.49771e-05
3.92771e-06
3.78147e-05
4.61405e-06
4.0878e-05
5.35714e-06
4.41906e-05
6.16089e-06
4.77748e-05
7.03025e-06
5.1649e-05
7.97044e-06
5.58365e-05
8.98949e-06
6.0351e-05
1.00944e-05
6.52261e-05
1.12893e-05
7.05101e-05
1.25814e-05
7.622e-05
1.39847e-05
8.23586e-05
1.55055e-05
8.90036e-05
1.715e-05
9.62001e-05
1.89351e-05
0.000103937
2.08715e-05
0.000112296
2.29651e-05
0.000121354
2.52418e-05
0.000131062
2.77055e-05
0.000141595
3.03761e-05
0.000152931
3.32722e-05
0.000165146
3.64064e-05
0.000178338
3.98062e-05
0.000192504
4.3483e-05
0.000207805
4.74678e-05
0.000224216
5.17763e-05
0.000241897
5.64384e-05
0.000260854
6.14784e-05
0.000281193
6.69209e-05
0.000302991
7.2803e-05
0.000326251
7.91462e-05
0.000351113
8.59852e-05
0.000377552
9.3355e-05
0.000405589
0.000101283
0.000435255
0.000109804
0.000466472
0.000118952
0.000499132
0.000128754
0.000533096
0.000139236
0.00056811
0.000150416
0.000603806
0.000162303
0.000639682
0.000174893
0.000675061
0.00018816
0.000709048
0.000202055
0.000740479
0.000216496
0.000767869
0.000231366
0.000789347
0.000246504
0.000802579
0.00026169
0.000804683
0.00027665
0.000792117
0.000291028
0.000760563
0.000304384
0.000704814
0.000316144
0.000618681
0.000325613
0.000494378
0.000332015
0.000322142
9.41399e-05
0.000334085
3.74786e-07
2.15379e-05
-2.23324e-08
7.61333e-07
2.32865e-05
1.1797e-06
2.5177e-05
1.63275e-06
2.72208e-05
2.12304e-06
2.94303e-05
2.65368e-06
3.18188e-05
3.22792e-06
3.44007e-05
3.84934e-06
3.71914e-05
4.52256e-06
4.02031e-05
5.25153e-06
4.34601e-05
6.04002e-06
4.69849e-05
6.89299e-06
5.07948e-05
7.81544e-06
5.49128e-05
8.8154e-06
5.935e-05
9.89963e-06
6.41407e-05
1.10723e-05
6.93364e-05
1.23403e-05
7.49508e-05
1.37175e-05
8.09804e-05
1.52102e-05
8.75098e-05
1.68243e-05
9.45849e-05
1.85765e-05
0.000102184
2.04773e-05
0.000110394
2.25325e-05
0.000119298
2.47675e-05
0.000128826
2.71861e-05
0.000139176
2.98081e-05
0.000150308
3.26516e-05
0.000162301
3.57291e-05
0.000175259
3.90677e-05
0.000189165
4.26787e-05
0.000204193
4.65927e-05
0.000220301
5.08252e-05
0.000237663
5.54057e-05
0.000256273
6.03584e-05
0.000276239
6.57076e-05
0.000297641
7.14902e-05
0.000320467
7.77276e-05
0.000344874
8.44543e-05
0.000370823
9.17048e-05
0.000398337
9.95069e-05
0.000427451
0.000107893
0.000458085
0.000116899
0.000490125
0.000126549
0.000523445
0.000136868
0.00055779
0.000147873
0.0005928
0.000159572
0.000627982
0.000171958
0.000662675
0.000185006
0.000696
0.000198664
0.00072682
0.000212852
0.00075368
0.000227454
0.000774744
0.000242314
0.000787722
0.000257215
0.000789783
0.000271889
0.000777443
0.000285988
0.00074646
0.000299077
0.000691721
0.000310601
0.000607153
0.000319854
0.000485119
0.000326032
0.000315949
9.21778e-05
0.000327976
3.60809e-07
2.11838e-05
-1.52606e-08
7.40075e-07
2.29036e-05
1.1507e-06
2.4763e-05
1.59535e-06
2.67732e-05
2.07664e-06
2.89464e-05
2.59754e-06
3.12955e-05
3.16128e-06
3.38348e-05
3.77133e-06
3.65794e-05
4.43228e-06
3.95405e-05
5.14796e-06
4.27429e-05
5.92216e-06
4.62093e-05
6.75964e-06
4.99561e-05
7.66547e-06
5.40058e-05
8.64738e-06
5.83669e-05
9.71221e-06
6.30747e-05
1.08638e-05
6.81837e-05
1.21093e-05
7.37042e-05
1.3462e-05
7.96266e-05
1.49283e-05
8.60425e-05
1.65139e-05
9.29982e-05
1.82352e-05
0.000100462
2.01025e-05
0.000108526
2.21216e-05
0.000117278
2.43176e-05
0.000126629
2.6694e-05
0.000136798
2.92704e-05
0.000147731
3.20646e-05
0.000159506
3.50889e-05
0.000172234
3.837e-05
0.000185883
4.19191e-05
0.000200643
4.57663e-05
0.000216453
4.9927e-05
0.000233502
5.44303e-05
0.000251768
5.93e-05
0.000271369
6.45602e-05
0.000292379
7.02474e-05
0.000314778
7.63826e-05
0.000338737
8.30002e-05
0.000364204
9.01339e-05
0.000391202
9.78111e-05
0.000419773
0.000106064
0.00044983
0.000114926
0.000481263
0.000124422
0.000513948
0.000134574
0.000547636
0.0001454
0.000581973
0.000156905
0.000616476
0.000169082
0.000650497
0.000181904
0.000683176
0.00019532
0.000713401
0.000209252
0.000739744
0.000223585
0.000760405
0.000238167
0.000773138
0.000252786
0.000775157
0.000267178
0.000763043
0.000281003
0.000732625
0.000293834
0.000678879
0.000305127
0.000595844
0.000314182
0.00047605
0.000320173
0.000309939
9.03312e-05
0.000321988
3.44184e-07
2.0836e-05
-4.25996e-09
7.16943e-07
2.25275e-05
1.12035e-06
2.43564e-05
1.55723e-06
2.63336e-05
2.02999e-06
2.8471e-05
2.54172e-06
3.07815e-05
3.09549e-06
3.32789e-05
3.69483e-06
3.59782e-05
4.34416e-06
3.88894e-05
5.04735e-06
4.20382e-05
5.80801e-06
4.54472e-05
6.63098e-06
4.91319e-05
7.52104e-06
5.31145e-05
8.48602e-06
5.74009e-05
9.5324e-06
6.20272e-05
1.06643e-05
6.70508e-05
1.18883e-05
7.2479e-05
1.32178e-05
7.8296e-05
1.46589e-05
8.46002e-05
1.62175e-05
9.14385e-05
1.79095e-05
9.87685e-05
1.97451e-05
0.000106689
2.173e-05
0.000115292
2.38888e-05
0.000124469
2.62251e-05
0.000134461
2.87581e-05
0.000145197
3.15054e-05
0.000156758
3.4479e-05
0.00016926
3.77053e-05
0.000182656
4.11953e-05
0.000197152
4.49786e-05
0.000212669
4.90705e-05
0.000229409
5.34994e-05
0.000247339
5.82891e-05
0.000266578
6.34631e-05
0.000287204
6.90574e-05
0.000309183
7.50928e-05
0.0003327
8.16029e-05
0.000357693
8.86211e-05
0.000384183
9.61739e-05
0.000412218
0.000104293
0.00044171
0.00011301
0.000472544
0.00012235
0.000504607
0.000132334
0.000537651
0.000142977
0.000571329
0.000154284
0.000605167
0.000166248
0.000638532
0.000178841
0.000670582
0.000192014
0.000700226
0.000205689
0.000726067
0.000219754
0.000746338
0.000234061
0.000758833
0.000248402
0.000760816
0.000262517
0.000748925
0.000276075
0.000719062
0.000288654
0.000666296
0.000299723
0.00058477
0.00030859
0.000467176
0.000314422
0.000304092
8.8604e-05
0.000316134
3.27053e-07
2.04938e-05
6.09556e-09
6.93129e-07
2.21575e-05
1.0896e-06
2.39564e-05
1.51888e-06
2.59012e-05
1.98369e-06
2.80035e-05
2.48668e-06
3.0276e-05
3.03121e-06
3.27323e-05
3.62039e-06
3.5387e-05
4.25888e-06
3.82493e-05
4.95015e-06
4.13453e-05
5.69811e-06
4.46979e-05
6.50712e-06
4.83216e-05
7.38233e-06
5.22381e-05
8.33097e-06
5.64511e-05
9.35988e-06
6.09972e-05
1.04726e-05
6.59369e-05
1.16762e-05
7.12744e-05
1.29835e-05
7.69877e-05
1.44005e-05
8.31821e-05
1.59331e-05
8.9905e-05
1.75969e-05
9.71037e-05
1.94019e-05
0.000104883
2.13539e-05
0.000113339
2.34768e-05
0.000122345
2.57745e-05
0.000132163
2.82657e-05
0.000142705
3.09676e-05
0.000154055
3.38923e-05
0.000166334
3.70655e-05
0.000179482
4.04982e-05
0.000193719
4.42195e-05
0.000208947
4.82444e-05
0.000225383
5.26009e-05
0.000242981
5.73123e-05
0.000261865
6.24019e-05
0.000282113
6.79048e-05
0.000303678
7.38416e-05
0.000326762
8.02453e-05
0.000351288
8.71484e-05
0.000377278
9.45769e-05
0.000404789
0.000102561
0.000433724
0.000111133
0.000463971
0.000120315
0.000495423
0.000130129
0.000527837
0.000140587
0.000560869
0.000151696
0.000594058
0.000163445
0.000626781
0.000175809
0.000658217
0.000188738
0.000687294
0.000202158
0.000712644
0.000215958
0.000732534
0.000229993
0.000744796
0.000244061
0.000746743
0.000257906
0.000735073
0.000271203
0.000705756
0.000283537
0.000653952
0.000294388
0.000573906
0.000303075
0.000458478
0.000308769
0.000298384
8.69457e-05
0.000310404
3.1239e-07
2.01573e-05
1.5842e-08
6.72505e-07
2.17939e-05
1.06233e-06
2.35633e-05
1.48444e-06
2.54762e-05
1.94137e-06
2.75439e-05
2.43588e-06
2.97791e-05
2.97116e-06
3.21949e-05
3.55041e-06
3.48058e-05
4.1781e-06
3.762e-05
4.85778e-06
4.06641e-05
5.59313e-06
4.39612e-05
6.38865e-06
4.75248e-05
7.24915e-06
5.13764e-05
8.18203e-06
5.55172e-05
9.1937e-06
5.99844e-05
1.0288e-05
6.48416e-05
1.14715e-05
7.00898e-05
1.27571e-05
7.5701e-05
1.41507e-05
8.17875e-05
1.56579e-05
8.83967e-05
1.72942e-05
9.54663e-05
1.90695e-05
0.000103107
2.09893e-05
0.000111418
2.30774e-05
0.000120256
2.53373e-05
0.000129902
2.77876e-05
0.000140254
3.04452e-05
0.000151397
3.3322e-05
0.000163456
3.64433e-05
0.00017636
3.98198e-05
0.000190341
4.34802e-05
0.000205285
4.74392e-05
0.000221423
5.17243e-05
0.000238695
5.63586e-05
0.00025723
6.13646e-05
0.000277106
6.6777e-05
0.000298265
7.26159e-05
0.000320922
7.89136e-05
0.000344988
8.57018e-05
0.000370488
9.30061e-05
0.000397483
0.000100856
0.000425873
0.000109282
0.000455544
0.000118306
0.000486397
0.000127948
0.000518194
0.000138221
0.000550594
0.00014913
0.000583148
0.000160665
0.000615245
0.000172801
0.00064608
0.00018549
0.000674604
0.000198656
0.000699475
0.000212196
0.000718993
0.000225965
0.000731028
0.000239765
0.000732942
0.000253347
0.000721487
0.00026639
0.000692708
0.000278487
0.00064185
0.000289125
0.000563262
0.000297639
0.000449958
0.000303208
0.000292803
8.53506e-05
0.00030479
2.98949e-07
1.98264e-05
2.34616e-08
6.52928e-07
2.14362e-05
1.03623e-06
2.31767e-05
1.45127e-06
2.50582e-05
1.90061e-06
2.7092e-05
2.38691e-06
2.92904e-05
2.9133e-06
3.16665e-05
3.48292e-06
3.42343e-05
4.10017e-06
3.70011e-05
4.76849e-06
3.99942e-05
5.49162e-06
4.32367e-05
6.27382e-06
4.67413e-05
7.12008e-06
5.0529e-05
8.03735e-06
5.45987e-05
9.03231e-06
5.89884e-05
1.01084e-05
6.37644e-05
1.12724e-05
6.89247e-05
1.25366e-05
7.44357e-05
1.39072e-05
8.04159e-05
1.53895e-05
8.69134e-05
1.69989e-05
9.3856e-05
1.87449e-05
0.00010136
2.06331e-05
0.000109529
2.26868e-05
0.000118201
2.49095e-05
0.000127678
2.73195e-05
0.000137843
2.99334e-05
0.000148782
3.27629e-05
0.000160626
3.58328e-05
0.000173289
3.91538e-05
0.00018702
4.27539e-05
0.000201684
4.66476e-05
0.000217529
5.08621e-05
0.00023448
5.54196e-05
0.000252672
6.03427e-05
0.000272182
6.5665e-05
0.000292941
7.14063e-05
0.000315179
7.75983e-05
0.000338795
8.42719e-05
0.000363813
9.14519e-05
0.000390302
9.9167e-05
0.000418157
0.000107447
0.000447263
0.000116313
0.00047753
0.000125784
0.000508721
0.000135873
0.000540504
0.000146583
0.000572436
0.000157906
0.000603921
0.000169816
0.000634168
0.000182267
0.000662152
0.000195186
0.000686554
0.000208469
0.000705706
0.000221978
0.000717518
0.000235517
0.000719397
0.000248842
0.000708156
0.000261638
0.000679903
0.000273504
0.000629976
0.000283937
0.000552818
0.000292283
0.000441604
0.000297738
0.000287337
8.37881e-05
0.000299283
2.87307e-07
1.9501e-05
3.04979e-08
6.35583e-07
2.10847e-05
1.01245e-06
2.27967e-05
1.42058e-06
2.46473e-05
1.86228e-06
2.66478e-05
2.34037e-06
2.881e-05
2.85781e-06
3.11469e-05
3.41784e-06
3.36724e-05
4.02464e-06
3.63926e-05
4.68182e-06
3.93356e-05
5.39278e-06
4.25244e-05
6.16202e-06
4.59709e-05
6.99406e-06
4.96958e-05
7.89619e-06
5.36955e-05
8.87448e-06
5.80089e-05
9.93276e-06
6.27051e-05
1.10773e-05
6.7779e-05
1.23207e-05
7.31913e-05
1.36684e-05
7.9067e-05
1.51262e-05
8.54546e-05
1.67088e-05
9.22723e-05
1.84258e-05
9.9642e-05
2.02827e-05
0.000107671
2.23023e-05
0.000116181
2.44882e-05
0.000125491
2.68582e-05
0.000135472
2.94287e-05
0.000146211
3.22113e-05
0.000157843
3.52302e-05
0.000170269
3.84959e-05
0.000183753
4.20361e-05
0.000198143
4.58649e-05
0.000213699
5.00089e-05
0.000230335
5.44901e-05
0.000248189
5.93305e-05
0.00026734
6.4563e-05
0.000287707
7.02071e-05
0.000309534
7.62935e-05
0.000332707
8.28527e-05
0.000357253
8.99087e-05
0.000383244
9.74895e-05
0.000410574
0.000105624
0.000439128
0.000114332
0.00046882
0.000123633
0.000499419
0.000133539
0.000530597
0.000144053
0.000561921
0.000155167
0.000592806
0.000166855
0.000622479
0.000179072
0.000649933
0.000191747
0.000673876
0.00020478
0.000692671
0.000218034
0.000704265
0.00023132
0.000706111
0.000244395
0.000695077
0.000256951
0.000667342
0.000268593
0.000618328
0.000278826
0.000542579
0.00028701
0.000433415
0.000292357
0.000281979
8.22581e-05
0.000293877
2.75624e-07
1.91807e-05
3.53883e-08
6.17614e-07
2.07387e-05
9.88059e-07
2.24227e-05
1.38914e-06
2.42431e-05
1.82355e-06
2.62107e-05
2.29361e-06
2.83374e-05
2.80262e-06
3.06359e-05
3.35331e-06
3.31197e-05
3.95023e-06
3.57941e-05
4.59638e-06
3.86878e-05
5.29571e-06
4.18238e-05
6.05199e-06
4.52132e-05
6.87039e-06
4.88763e-05
7.75728e-06
5.28074e-05
8.71943e-06
5.70458e-05
9.75988e-06
6.16635e-05
1.08855e-05
6.66525e-05
1.21079e-05
7.19678e-05
1.34332e-05
7.77408e-05
1.48664e-05
8.40203e-05
1.64226e-05
9.07153e-05
1.81108e-05
9.79528e-05
1.99365e-05
0.000105844
2.19222e-05
0.000114194
2.40714e-05
0.000123341
2.64016e-05
0.000133141
2.8929e-05
0.000143682
3.16647e-05
0.000155106
3.46328e-05
0.0001673
3.78436e-05
0.000180542
4.13239e-05
0.000194662
4.5088e-05
0.000209934
4.91619e-05
0.00022626
5.3567e-05
0.000243783
5.83248e-05
0.000262581
6.34678e-05
0.000282563
6.90149e-05
0.000303985
7.49962e-05
0.000326725
8.14414e-05
0.000350806
8.8374e-05
0.00037631
9.58212e-05
0.000403126
0.000103811
0.000431137
0.000112363
0.000460266
0.000121496
0.000490285
0.000131221
0.000520871
0.000141541
0.0005516
0.000152448
0.000581898
0.000163918
0.000611009
0.000175906
0.000637944
0.000188343
0.000661436
0.000201132
0.000679879
0.000214138
0.000691258
0.000227175
0.00069307
0.000240007
0.000682239
0.000252329
0.000655012
0.000263754
0.000606896
0.000273794
0.00053253
0.000281821
0.000425381
0.000287067
0.000276724
8.07451e-05
0.000288568
2.66149e-07
1.88661e-05
4.05958e-08
6.02654e-07
2.03988e-05
9.66915e-07
2.20553e-05
1.3613e-06
2.38458e-05
1.78831e-06
2.57812e-05
2.25038e-06
2.78729e-05
2.75065e-06
3.01336e-05
3.29195e-06
3.25765e-05
3.87863e-06
3.52059e-05
4.51386e-06
3.8051e-05
5.20121e-06
4.11352e-05
5.94476e-06
4.44685e-05
6.74913e-06
4.80709e-05
7.6211e-06
5.19344e-05
8.56678e-06
5.60991e-05
9.58967e-06
6.06395e-05
1.0696e-05
6.55451e-05
1.18977e-05
7.07651e-05
1.32005e-05
7.6437e-05
1.46094e-05
8.26103e-05
1.61391e-05
8.91846e-05
1.77986e-05
9.62922e-05
1.95934e-05
0.000104049
2.15453e-05
0.000112241
2.3658e-05
0.000121228
2.59485e-05
0.000130849
2.84329e-05
0.000141197
3.1122e-05
0.000152416
3.40395e-05
0.000164382
3.71953e-05
0.000177385
4.06162e-05
0.000191241
4.43157e-05
0.000206234
4.83196e-05
0.000222256
5.26488e-05
0.000239453
5.73245e-05
0.000257904
6.23784e-05
0.000277508
6.78289e-05
0.000298533
7.37056e-05
0.000320847
8.00374e-05
0.000344473
8.68473e-05
0.000369499
9.41618e-05
0.00039581
0.000102008
0.000423289
0.000110406
0.000451867
0.000119372
0.000481317
0.000128919
0.000511323
0.000139049
0.000541469
0.000149753
0.000571193
0.000161009
0.000599752
0.000172773
0.000626179
0.000184977
0.00064923
0.000197527
0.000667327
0.000210291
0.000678495
0.000223087
0.000680273
0.000235682
0.000669641
0.000247776
0.000642912
0.000258989
0.000595677
0.000268842
0.000522672
0.000276718
0.0004175
0.000281867
0.000271565
7.92509e-05
0.000283353
2.56775e-07
1.85566e-05
4.41147e-08
5.87376e-07
2.00645e-05
9.4543e-07
2.1694e-05
1.3331e-06
2.34552e-05
1.75289e-06
2.53588e-05
2.20718e-06
2.74163e-05
2.699e-06
2.96398e-05
3.23114e-06
3.20424e-05
3.80786e-06
3.46276e-05
4.4322e-06
3.74251e-05
5.10784e-06
4.04582e-05
5.83856e-06
4.37364e-05
6.62925e-06
4.72791e-05
7.48614e-06
5.10762e-05
8.41572e-06
5.51686e-05
9.42095e-06
5.96331e-05
1.05085e-05
6.44566e-05
1.16895e-05
6.9583e-05
1.29699e-05
7.51557e-05
1.43546e-05
8.12245e-05
1.5858e-05
8.76802e-05
1.7489e-05
9.46602e-05
1.92529e-05
0.000102284
2.11712e-05
0.000110322
2.32475e-05
0.000119151
2.54985e-05
0.000128597
2.794e-05
0.000138755
3.05827e-05
0.000149773
3.34496e-05
0.000161514
3.65509e-05
0.000174283
3.99124e-05
0.000187878
4.35477e-05
0.000202598
4.74819e-05
0.000218321
5.17356e-05
0.000235199
5.63296e-05
0.000253309
6.12947e-05
0.000272541
6.66492e-05
0.000293177
7.2422e-05
0.000315072
7.86413e-05
0.000338252
8.53296e-05
0.00036281
9.25128e-05
0.000388626
0.000100217
0.000415584
0.000108463
0.000443621
0.000117265
0.000472514
0.000126636
0.000501951
0.000136578
0.000531526
0.000147084
0.000560686
0.00015813
0.000588705
0.000169675
0.000614633
0.000181652
0.00063725
0.000193969
0.000655008
0.000206497
0.000665966
0.000219057
0.000667709
0.00023142
0.000657272
0.000243293
0.000631032
0.000254301
0.000584662
0.000263971
0.000512994
0.0002717
0.000409764
0.000276757
0.000266501
7.77679e-05
0.00027823
2.48753e-07
1.82529e-05
4.80236e-08
5.73944e-07
1.97363e-05
9.25831e-07
2.13392e-05
1.30687e-06
2.30716e-05
1.71928e-06
2.4944e-05
2.16562e-06
2.69677e-05
2.64873e-06
2.91547e-05
3.1716e-06
3.15178e-05
3.73814e-06
3.40595e-05
4.35172e-06
3.68101e-05
5.0155e-06
3.97931e-05
5.73371e-06
4.3017e-05
6.51051e-06
4.65011e-05
7.35275e-06
5.0233e-05
8.26604e-06
5.42541e-05
9.254e-06
5.86442e-05
1.03225e-05
6.3387e-05
1.14831e-05
6.84213e-05
1.27412e-05
7.38965e-05
1.41019e-05
7.98628e-05
1.55791e-05
8.6202e-05
1.71817e-05
9.30566e-05
1.89149e-05
0.00010055
2.07998e-05
0.000108436
2.28398e-05
0.00011711
2.50516e-05
0.000126385
2.74504e-05
0.000136356
3.00468e-05
0.000147175
3.28636e-05
0.000158696
3.59105e-05
0.000171235
3.9213e-05
0.000184575
4.27844e-05
0.000199026
4.66493e-05
0.000214455
5.0828e-05
0.000231019
5.53407e-05
0.000248795
6.02178e-05
0.000267663
6.54771e-05
0.000287917
7.11468e-05
0.000309401
7.72547e-05
0.000332143
8.38226e-05
0.00035624
9.0876e-05
0.000381571
9.84406e-05
0.000408018
0.000106535
0.000435525
0.000115176
0.000463872
0.000124375
0.000492752
0.000134133
0.000521766
0.000144444
0.000550375
0.000155285
0.000577863
0.000166616
0.000603301
0.000178371
0.000625492
0.00019046
0.000642917
0.000202758
0.00065367
0.000215088
0.000655379
0.000227225
0.00064513
0.000238882
0.00061937
0.000249689
0.00057385
0.000259181
0.000503496
0.000266769
0.000402172
0.000271737
0.000261524
7.62986e-05
0.000273199
2.39504e-07
1.7954e-05
5.00795e-08
5.58447e-07
1.94133e-05
9.04074e-07
2.09901e-05
1.27824e-06
2.26942e-05
1.68363e-06
2.4536e-05
2.12221e-06
2.65266e-05
2.59725e-06
2.86777e-05
3.11106e-06
3.10019e-05
3.66813e-06
3.35009e-05
4.27098e-06
3.62056e-05
4.92356e-06
3.91394e-05
5.62912e-06
4.23101e-05
6.39275e-06
4.57366e-05
7.2201e-06
4.94044e-05
8.11774e-06
5.33557e-05
9.08825e-06
5.76725e-05
1.01383e-05
6.23361e-05
1.12784e-05
6.72801e-05
1.25146e-05
7.26595e-05
1.38513e-05
7.8525e-05
1.53026e-05
8.47498e-05
1.6877e-05
9.14812e-05
1.85796e-05
9.88464e-05
2.04312e-05
0.000106584
2.24353e-05
0.000115105
2.4608e-05
0.000124211
2.69644e-05
0.000133998
2.9515e-05
0.000144624
3.22819e-05
0.000155929
3.52748e-05
0.000168242
3.85187e-05
0.00018133
4.20267e-05
0.000195517
4.58228e-05
0.000210658
4.99271e-05
0.000226914
5.43593e-05
0.000244362
5.91491e-05
0.000262872
6.4314e-05
0.000282751
6.98818e-05
0.000303832
7.58794e-05
0.000326144
8.23285e-05
0.00034979
8.92537e-05
0.000374645
9.66804e-05
0.00040059
0.000104627
0.000427577
0.000113109
0.000455389
0.000122138
0.000483722
0.000131717
0.000512187
0.000141837
0.000540254
0.000152477
0.000567223
0.000163598
0.00059218
0.000175136
0.000613952
0.000187003
0.000631048
0.000199075
0.000641596
0.00021118
0.00064327
0.000223098
0.000633209
0.000234543
0.000607918
0.000245154
0.000563233
0.000254474
0.00049417
0.000261924
0.000394717
0.000266805
0.000256638
7.48404e-05
0.000268257
2.32288e-07
1.76608e-05
5.35214e-08
5.45999e-07
1.90964e-05
8.85665e-07
2.06474e-05
1.25337e-06
2.23237e-05
1.65156e-06
2.41355e-05
2.08236e-06
2.60935e-05
2.54885e-06
2.82093e-05
3.05354e-06
3.04953e-05
3.60058e-06
3.29524e-05
4.19283e-06
3.56119e-05
4.8337e-06
3.84973e-05
5.52692e-06
4.16157e-05
6.27682e-06
4.49856e-05
7.0897e-06
4.85905e-05
7.97122e-06
5.24731e-05
8.92468e-06
5.67181e-05
9.95591e-06
6.13039e-05
1.10759e-05
6.61591e-05
1.229e-05
7.14445e-05
1.3603e-05
7.7211e-05
1.50285e-05
8.33234e-05
1.65749e-05
8.99339e-05
1.82473e-05
9.71732e-05
2.00659e-05
0.000104764
2.20343e-05
0.000113136
2.41683e-05
0.000122076
2.64826e-05
0.000131683
2.89876e-05
0.000142118
3.17052e-05
0.00015321
3.46445e-05
0.000165301
3.78304e-05
0.000178144
4.12755e-05
0.000192071
4.50036e-05
0.000206929
4.90342e-05
0.000222883
5.33866e-05
0.000240009
5.80901e-05
0.000258167
6.31618e-05
0.000277678
6.86287e-05
0.000298364
7.45176e-05
0.000320254
8.08493e-05
0.000343457
8.76483e-05
0.000367844
9.49391e-05
0.000393298
0.00010274
0.000419775
0.000111067
0.000447061
0.000119929
0.000474859
0.000129331
0.000502785
0.000139264
0.00053032
0.000149708
0.000556778
0.000160623
0.000581263
0.00017195
0.000602624
0.000183599
0.000619397
0.000195451
0.000629746
0.000207337
0.000631384
0.000219038
0.000621503
0.000230277
0.000596673
0.000240697
0.000552807
0.000249849
0.000485013
0.000257164
0.000387396
0.000261962
0.000251832
7.33934e-05
0.000263403
2.24686e-07
1.73726e-05
5.51588e-08
5.32603e-07
1.87848e-05
8.66216e-07
2.03107e-05
1.22742e-06
2.19596e-05
1.61861e-06
2.37418e-05
2.04191e-06
2.56679e-05
2.50022e-06
2.77491e-05
2.99604e-06
2.99976e-05
3.53343e-06
3.24136e-05
4.11511e-06
3.50287e-05
4.74463e-06
3.78666e-05
5.42535e-06
4.09336e-05
6.162e-06
4.4248e-05
6.96018e-06
4.77911e-05
7.82613e-06
5.16063e-05
8.76239e-06
5.57806e-05
9.77536e-06
6.02901e-05
1.08752e-05
6.50581e-05
1.20677e-05
7.02511e-05
1.33571e-05
7.59204e-05
1.47572e-05
8.19225e-05
1.62758e-05
8.84142e-05
1.79182e-05
9.55299e-05
1.97042e-05
0.000102977
2.16372e-05
0.000111202
2.37329e-05
0.00011998
2.60056e-05
0.00012941
2.84656e-05
0.000139657
3.11342e-05
0.000150541
3.40206e-05
0.000162414
3.7149e-05
0.000175014
4.0532e-05
0.000188687
4.41927e-05
0.000203268
4.81504e-05
0.000218924
5.24241e-05
0.000235734
5.70423e-05
0.000253548
6.20219e-05
0.000272697
6.73895e-05
0.000292995
7.3171e-05
0.000314471
7.93872e-05
0.00033724
8.60618e-05
0.000361169
9.3219e-05
0.00038614
0.000100877
0.000412116
0.00010905
0.000438887
0.000117749
0.000466159
0.000126978
0.000493556
0.000136728
0.00052057
0.00014698
0.000546526
0.000157695
0.000570547
0.000168813
0.000591503
0.00018025
0.000607958
0.000191887
0.000618108
0.000203557
0.000619711
0.000215048
0.000610008
0.000226085
0.00058563
0.000236317
0.000542569
0.000245305
0.00047602
0.00025249
0.000380207
0.000257205
0.000247113
7.19581e-05
0.000258636
2.1861e-07
1.709e-05
5.75803e-08
5.21361e-07
1.84793e-05
8.48989e-07
1.99803e-05
1.20377e-06
2.16024e-05
1.58775e-06
2.33556e-05
2.00333e-06
2.52502e-05
2.45311e-06
2.72974e-05
2.93993e-06
2.95091e-05
3.46739e-06
3.18846e-05
4.03866e-06
3.44561e-05
4.65662e-06
3.72474e-05
5.32529e-06
4.02639e-05
6.04843e-06
4.35237e-05
6.8325e-06
4.70061e-05
7.68262e-06
5.07551e-05
8.60224e-06
5.486e-05
9.59677e-06
5.92944e-05
1.06769e-05
6.39769e-05
1.18478e-05
6.90792e-05
1.31141e-05
7.46531e-05
1.44888e-05
8.05468e-05
1.59801e-05
8.69219e-05
1.75928e-05
9.39163e-05
1.93466e-05
0.000101222
2.12447e-05
0.000109303
2.33024e-05
0.000117921
2.55341e-05
0.000127177
2.79495e-05
0.000137241
3.05698e-05
0.00014792
3.34038e-05
0.000159579
3.64755e-05
0.000171942
3.97971e-05
0.000185365
4.33913e-05
0.000199673
4.72771e-05
0.000215038
5.1473e-05
0.000231537
5.60072e-05
0.000249013
6.0896e-05
0.000267807
6.61655e-05
0.000287725
7.18415e-05
0.000308794
7.79438e-05
0.000331136
8.44961e-05
0.000354615
9.15221e-05
0.000379113
9.90391e-05
0.000404598
0.000107062
0.000430863
0.000115601
0.000457619
0.00012466
0.000484497
0.000134231
0.000510999
0.000144294
0.000536463
0.000154813
0.000560029
0.000165728
0.000580587
0.000176957
0.000596729
0.000188383
0.000606685
0.000199842
0.000608251
0.000211126
0.000598719
0.000221966
0.000574785
0.000232015
0.000532513
0.000240842
0.000467187
0.0002479
0.000373143
0.000252535
0.000242469
7.05332e-05
0.000253956
2.10825e-07
1.6812e-05
5.77869e-08
5.07362e-07
1.81787e-05
8.28864e-07
1.96553e-05
1.17693e-06
2.12511e-05
1.55415e-06
2.29758e-05
1.9622e-06
2.48395e-05
2.40429e-06
2.68534e-05
2.88236e-06
2.90289e-05
3.40079e-06
3.13647e-05
3.96169e-06
3.38935e-05
4.56899e-06
3.6639e-05
5.22541e-06
3.9606e-05
5.93601e-06
4.28122e-05
6.70569e-06
4.62351e-05
7.54088e-06
4.99191e-05
8.44367e-06
5.3956e-05
9.42054e-06
5.83168e-05
1.0481e-05
6.29153e-05
1.16309e-05
6.79285e-05
1.28741e-05
7.34088e-05
1.4224e-05
7.91961e-05
1.56881e-05