/*--------------------------------*- C++ -*----------------------------------*\
  =========                 |
  \\      /  F ield         | OpenFOAM: The Open Source CFD Toolbox
   \\    /   O peration     | Website:  https://openfoam.org
    \\  /    A nd           | Version:  6.0
     \\/     M anipulation  |
\*---------------------------------------------------------------------------*/
FoamFile
{
    version     2.0;
    format      ascii;
    class       surfaceScalarField;
    location    "4";
    object      phi;
}
// * * * * * * * * * * * * * * * * * * * * * * * * * * * * * * * * * * * * * //

dimensions      [0 3 -1 0 0 0 0];

internalField   nonuniform List<scalar> 
123526
(
-7.98201e-05
2.26113e-05
8.02336e-05
-7.93711e-05
2.44553e-05
-7.89044e-05
2.64506e-05
-7.83835e-05
2.86099e-05
-7.78404e-05
3.09467e-05
-7.72367e-05
3.34759e-05
-7.66039e-05
3.62133e-05
-7.59049e-05
3.91766e-05
-7.51691e-05
4.23833e-05
-7.43585e-05
4.58546e-05
-7.35013e-05
4.96132e-05
-7.25616e-05
5.36823e-05
-7.15642e-05
5.80878e-05
-7.0471e-05
6.28554e-05
-6.93028e-05
6.80168e-05
-6.80287e-05
7.36094e-05
-6.66669e-05
7.96659e-05
-6.51782e-05
8.62179e-05
-6.35786e-05
9.33169e-05
-6.18425e-05
0.00010101
-5.99699e-05
0.000109335
-5.79331e-05
0.000118352
-5.57436e-05
0.000128128
-5.33571e-05
0.000138701
-5.07865e-05
0.000150167
-4.79977e-05
0.000162581
-4.49829e-05
0.000176024
-4.17215e-05
0.00019059
-3.81912e-05
0.00020635
-3.43766e-05
0.000223427
-3.02468e-05
0.000241893
-2.57842e-05
0.000261885
-2.09576e-05
0.000283496
-1.57413e-05
0.000306863
-1.01112e-05
0.000332119
-4.02258e-06
0.000359371
2.54667e-06
0.000388773
9.64794e-06
0.000420432
1.73328e-05
0.000454475
2.56407e-05
0.00049103
3.46275e-05
0.00053017
4.43626e-05
0.000571937
5.49118e-05
0.000616327
6.63506e-05
0.000663241
7.87637e-05
0.000712451
9.22345e-05
0.000763562
0.000106842
0.000815959
0.000122639
0.000868745
0.000139644
0.000920702
0.000157807
0.000970253
0.000177017
0.00101545
0.000197074
0.00105391
0.000217786
0.00108269
0.000238881
0.00109829
0.000259992
0.00109643
0.000280788
0.0010715
0.00030069
0.00101665
0.000319217
0.000922199
0.00033426
0.000775627
0.000521571
0.000334643
-8.14769e-05
2.22266e-05
8.18686e-05
-8.10436e-05
2.40348e-05
-8.05849e-05
2.59913e-05
-8.00713e-05
2.81084e-05
-7.95264e-05
3.03995e-05
-7.89184e-05
3.28795e-05
-7.82719e-05
3.5564e-05
-7.75557e-05
3.84706e-05
-7.67931e-05
4.16159e-05
-7.59516e-05
4.50214e-05
-7.50546e-05
4.87104e-05
-7.40711e-05
5.27053e-05
-7.30218e-05
5.70319e-05
-7.18739e-05
6.17129e-05
-7.06447e-05
6.67813e-05
-6.93083e-05
7.22781e-05
-6.78799e-05
7.82326e-05
-6.63256e-05
8.46686e-05
-6.46588e-05
9.16465e-05
-6.28584e-05
9.92145e-05
-6.09221e-05
0.000107396
-5.88271e-05
0.000116261
-5.65816e-05
0.000125882
-5.41469e-05
0.000136269
-5.15315e-05
0.000147551
-4.87078e-05
0.00015976
-4.56626e-05
0.000172978
-4.23818e-05
0.00018731
-3.88374e-05
0.000202806
-3.50208e-05
0.000219612
-3.08969e-05
0.000237771
-2.64553e-05
0.000257444
-2.16655e-05
0.000278704
-1.65011e-05
0.000301695
-1.09351e-05
0.000326551
-4.92196e-06
0.000353358
1.55662e-06
0.000382296
8.55268e-06
0.000413438
1.61264e-05
0.000446903
2.43235e-05
0.000482834
3.32062e-05
0.000521288
4.28501e-05
0.000562294
5.33271e-05
0.000605851
6.47172e-05
0.000651852
7.71057e-05
0.000700066
9.05713e-05
0.000750103
0.00010518
0.000801363
0.000120966
0.00085298
0.00013792
0.000903779
0.000155969
0.000952247
0.000174997
0.000996501
0.000194793
0.00103421
0.000215164
0.00106249
0.000235843
0.00107786
0.000256485
0.00107604
0.000276791
0.00105152
0.000296212
0.000997502
0.000314225
0.000904546
0.000326731
0.000763377
0.000522683
0.000326066
-8.16025e-05
2.18555e-05
8.19806e-05
-8.11883e-05
2.36322e-05
-8.07516e-05
2.55543e-05
-8.02664e-05
2.76337e-05
-7.97521e-05
2.98836e-05
-7.91813e-05
3.23184e-05
-7.85733e-05
3.49537e-05
-7.79005e-05
3.78067e-05
-7.71817e-05
4.0893e-05
-7.63867e-05
4.42342e-05
-7.55358e-05
4.78542e-05
-7.45981e-05
5.17746e-05
-7.35936e-05
5.60208e-05
-7.24875e-05
6.06131e-05
-7.12983e-05
6.55852e-05
-6.9997e-05
7.09826e-05
-6.86009e-05
7.68306e-05
-6.70733e-05
8.31465e-05
-6.54298e-05
8.99987e-05
-6.36475e-05
9.74369e-05
-6.1726e-05
0.000105472
-5.9642e-05
0.000114181
-5.74048e-05
0.000123643
-5.49763e-05
0.000133844
-5.23654e-05
0.000144939
-4.95454e-05
0.000156941
-4.65028e-05
0.000169935
-4.3225e-05
0.000184033
-3.96829e-05
0.000199265
-3.58693e-05
0.000215799
-3.17484e-05
0.000233652
-2.73117e-05
0.000253008
-2.25283e-05
0.000273918
-1.73718e-05
0.000296534
-1.1813e-05
0.000320989
-5.80458e-06
0.00034735
6.70586e-07
0.000375823
7.66528e-06
0.000406444
1.52419e-05
0.000439327
2.34474e-05
0.000474629
3.2344e-05
0.000512391
4.20053e-05
0.000552632
5.24998e-05
0.000595356
6.39012e-05
0.000640451
7.62856e-05
0.000687683
8.972e-05
0.000736671
0.000104257
0.000786833
0.000119914
0.00083733
0.000136672
0.000887033
0.000154451
0.000934479
0.000173142
0.000977833
0.000192542
0.00101483
0.000212468
0.0010426
0.000232655
0.0010577
0.000252789
0.00105589
0.000272569
0.00103175
0.000291471
0.000978512
0.000308888
0.000887082
0.000321128
0.00075099
0.000520664
0.000322884
-8.08229e-05
2.14926e-05
8.11862e-05
-8.04229e-05
2.32401e-05
-8.00005e-05
2.51304e-05
-7.95343e-05
2.71752e-05
-7.90401e-05
2.93875e-05
-7.84949e-05
3.17812e-05
-7.79147e-05
3.43718e-05
-7.72763e-05
3.71759e-05
-7.65946e-05
4.02082e-05
-7.58438e-05
4.34902e-05
-7.50394e-05
4.7046e-05
-7.41553e-05
5.08963e-05
-7.32056e-05
5.50664e-05
-7.21605e-05
5.95733e-05
-7.10321e-05
6.44522e-05
-6.9796e-05
6.97518e-05
-6.84637e-05
7.54946e-05
-6.70019e-05
8.16901e-05
-6.54219e-05
8.84159e-05
-6.37025e-05
9.57225e-05
-6.1841e-05
0.000103608
-5.98146e-05
0.000112159
-5.76314e-05
0.000121458
-5.52537e-05
0.000131469
-5.26902e-05
0.000142375
-4.99142e-05
0.000154167
-4.69126e-05
0.000166933
-4.36726e-05
0.000180794
-4.0166e-05
0.000195758
-3.6385e-05
0.000212019
-3.22952e-05
0.000229564
-2.78866e-05
0.0002486
-2.31298e-05
0.000269158
-1.79969e-05
0.000291396
-1.24587e-05
0.000315448
-6.46751e-06
0.000341359
-5.45248e-09
0.000369362
6.97943e-06
0.000399461
1.45488e-05
0.000431759
2.27491e-05
0.000466429
3.16406e-05
0.0005035
4.12935e-05
0.000542978
5.17714e-05
0.000584877
6.31412e-05
0.000629079
7.54705e-05
0.000675352
8.88159e-05
0.000723322
0.000103219
0.000772428
0.00011869
0.000821858
0.000135201
0.000870523
0.000152673
0.000917004
0.000171003
0.000959516
0.000189996
0.000995841
0.000209485
0.00102315
0.000229206
0.00103806
0.000248867
0.0010363
0.000268156
0.00101257
0.000286566
0.000960173
0.000303429
0.000870357
0.000315947
0.000738535
0.000516766
0.000320002
-7.97057e-05
2.1139e-05
8.00665e-05
-7.93131e-05
2.28582e-05
-7.89004e-05
2.4718e-05
-7.84454e-05
2.67297e-05
-7.7965e-05
2.89061e-05
-7.7436e-05
3.1261e-05
-7.68752e-05
3.38093e-05
-7.62587e-05
3.65676e-05
-7.5603e-05
3.95492e-05
-7.4881e-05
4.27757e-05
-7.41109e-05
4.62715e-05
-7.32638e-05
5.00563e-05
-7.23576e-05
5.41546e-05
-7.13588e-05
5.8581e-05
-7.02834e-05
6.33711e-05
-6.91028e-05
6.85772e-05
-6.78317e-05
7.42184e-05
-6.64331e-05
8.02972e-05
-6.49203e-05
8.68991e-05
-6.3269e-05
9.40762e-05
-6.14776e-05
0.000101814
-5.95212e-05
0.000110206
-5.74079e-05
0.000119343
-5.50992e-05
0.000129163
-5.26029e-05
0.000139878
-4.98922e-05
0.000151457
-4.69536e-05
0.000163994
-4.3774e-05
0.000177615
-4.03251e-05
0.00019231
-3.65992e-05
0.000208294
-3.25616e-05
0.000225529
-2.82028e-05
0.000244242
-2.34924e-05
0.000264445
-1.84034e-05
0.000286303
-1.29058e-05
0.000309948
-6.9522e-06
0.000335406
-5.23717e-07
0.000362935
6.43017e-06
0.000392508
1.39686e-05
0.000424221
2.21367e-05
0.000458261
3.09924e-05
0.000494644
4.06023e-05
0.000533367
5.10252e-05
0.000574453
6.23222e-05
0.00061778
7.45533e-05
0.000663119
8.77672e-05
0.000710107
0.000101998
0.000758197
0.000117248
0.000806607
0.000133489
0.000854282
0.000150642
0.000899846
0.000168611
0.00094155
0.000187207
0.000977229
0.000206277
0.00100407
0.000225563
0.00101875
0.000244781
0.001017
0.000263619
0.000993682
0.000281572
0.000942079
0.000297949
0.000853879
0.000310724
0.000725565
0.000510835
0.000316349
-7.84707e-05
2.07921e-05
7.8819e-05
-7.80882e-05
2.24834e-05
-7.76845e-05
2.43131e-05
-7.72398e-05
2.62924e-05
-7.67692e-05
2.84338e-05
-7.62516e-05
3.07509e-05
-7.57024e-05
3.32584e-05
-7.51005e-05
3.59726e-05
-7.44599e-05
3.89057e-05
-7.37575e-05
4.20793e-05
-7.30079e-05
4.55181e-05
-7.21871e-05
4.92408e-05
-7.13083e-05
5.32713e-05
-7.03438e-05
5.76214e-05
-6.93045e-05
6.23273e-05
-6.81671e-05
6.74447e-05
-6.69416e-05
7.29892e-05
-6.55954e-05
7.89561e-05
-6.41379e-05
8.5439e-05
-6.25474e-05
9.24905e-05
-6.08198e-05
0.000100085
-5.89308e-05
0.000108322
-5.6887e-05
0.000117298
-5.46499e-05
0.000126929
-5.22261e-05
0.000137453
-4.95881e-05
0.000148821
-4.6722e-05
0.000161128
-4.36139e-05
0.000174507
-4.02355e-05
0.000188932
-3.65781e-05
0.000204637
-3.26075e-05
0.00022156
-2.83129e-05
0.000239948
-2.36647e-05
0.000259793
-1.86349e-05
0.000281268
-1.3194e-05
0.000304505
-7.29455e-06
0.000329506
-9.17103e-07
0.000356558
5.98701e-06
0.000385605
1.34738e-05
0.000416735
2.15866e-05
0.000450149
3.03805e-05
0.000485849
3.99188e-05
0.000523828
5.02557e-05
0.000564114
6.14469e-05
0.000606586
7.35464e-05
0.000651016
8.65967e-05
0.00069705
0.000100626
0.000744162
0.000115633
0.000791591
0.000131589
0.000838318
0.000148416
0.000883002
0.000166025
0.000923932
0.000184236
0.00095899
0.000202904
0.000985402
0.00022178
0.000999899
0.000240585
0.000998204
0.000259004
0.000975289
0.000276537
0.00092454
0.000292491
0.000837966
0.000305386
0.000712647
0.000504233
0.000312013
-7.71794e-05
2.04525e-05
7.75233e-05
-7.68036e-05
2.21164e-05
-7.64074e-05
2.39165e-05
-7.59713e-05
2.58639e-05
-7.55094e-05
2.79709e-05
-7.50025e-05
3.02509e-05
-7.4464e-05
3.27185e-05
-7.38743e-05
3.53896e-05
-7.32465e-05
3.82755e-05
-7.25585e-05
4.13978e-05
-7.1825e-05
4.47815e-05
-7.1022e-05
4.84443e-05
-7.01645e-05
5.24097e-05
-6.92233e-05
5.66865e-05
-6.8212e-05
6.13117e-05
-6.71055e-05
6.63442e-05
-6.59163e-05
7.1796e-05
-6.46101e-05
7.76554e-05
-6.31979e-05
8.40237e-05
-6.16568e-05
9.09543e-05
-5.99834e-05
9.84093e-05
-5.81531e-05
0.000106495
-5.61718e-05
0.000115315
-5.4001e-05
0.000124761
-5.16464e-05
0.000135097
-4.90802e-05
0.000146256
-4.62877e-05
0.000158335
-4.32545e-05
0.000171475
-3.99514e-05
0.000185629
-3.63697e-05
0.000201056
-3.24739e-05
0.000217666
-2.82537e-05
0.000235728
-2.36783e-05
0.000255215
-1.87201e-05
0.000276305
-1.33492e-05
0.000299131
-7.51849e-06
0.000323676
-1.20811e-06
0.000350249
5.62855e-06
0.000378769
1.30441e-05
0.00040932
2.10799e-05
0.000442112
2.97885e-05
0.00047714
3.92296e-05
0.000514386
4.94536e-05
0.000553888
6.05118e-05
0.000595526
7.24531e-05
0.000639073
8.53152e-05
0.000684186
9.91223e-05
0.000730354
0.000113871
0.00077684
0.000129532
0.000822656
0.000146033
0.000866494
0.000163289
0.000906677
0.000181127
0.000941131
0.000199411
0.000967094
0.0002179
0.000981373
0.000236316
0.000979699
0.000254347
0.000957191
0.000271492
0.000907247
0.000287076
0.000822269
0.000299961
0.000699557
0.000496694
0.00030719
-7.58741e-05
2.01182e-05
7.62068e-05
-7.55071e-05
2.1755e-05
-7.51183e-05
2.35259e-05
-7.46908e-05
2.54418e-05
-7.42367e-05
2.75148e-05
-7.37385e-05
2.97583e-05
-7.32081e-05
3.21866e-05
-7.26286e-05
3.48154e-05
-7.20103e-05
3.7655e-05
-7.13347e-05
4.07271e-05
-7.06131e-05
4.4057e-05
-6.9826e-05
4.76615e-05
-6.89834e-05
5.15637e-05
-6.80623e-05
5.57696e-05
-6.70709e-05
6.03169e-05
-6.59898e-05
6.52676e-05
-6.4827e-05
7.06303e-05
-6.35531e-05
7.63862e-05
-6.21757e-05
8.26442e-05
-6.06751e-05
8.94583e-05
-5.9046e-05
9.67786e-05
-5.72654e-05
0.000104718
-5.5338e-05
0.000113387
-5.32259e-05
0.000122651
-5.09341e-05
0.000132805
-4.84347e-05
0.000143758
-4.57123e-05
0.000155612
-4.27521e-05
0.000168515
-3.95247e-05
0.000182402
-3.60201e-05
0.000197552
-3.22033e-05
0.000213851
-2.80624e-05
0.000231588
-2.35669e-05
0.000250717
-1.86887e-05
0.000271422
-1.33979e-05
0.000293837
-7.64768e-06
0.000317925
-1.41787e-06
0.00034402
5.3361e-06
0.000372016
1.26636e-05
0.000401993
2.0604e-05
0.000434172
2.92073e-05
0.000468536
3.85301e-05
0.000505062
4.86196e-05
0.000543796
5.95233e-05
0.000584619
7.12861e-05
0.000627305
8.39422e-05
0.000671523
9.75129e-05
0.000716776
0.000111994
0.000762349
0.000127357
0.000807282
0.000143534
0.000850296
0.000160444
0.000889752
0.000177921
0.000923612
0.000195838
0.00094916
0.00021396
0.000963248
0.00023201
0.000961629
0.000249677
0.000939509
0.000266463
0.000890418
0.000281716
0.000807005
0.000294499
0.000686701
0.000489058
0.000302083
-7.45604e-05
1.97911e-05
7.48928e-05
-7.41982e-05
2.14013e-05
-7.38156e-05
2.31435e-05
-7.33948e-05
2.50284e-05
-7.29488e-05
2.70681e-05
-7.24593e-05
2.92756e-05
-7.19389e-05
3.16651e-05
-7.13693e-05
3.42522e-05
-7.07626e-05
3.70461e-05
-7.00981e-05
4.00688e-05
-6.93898e-05
4.33459e-05
-6.86152e-05
4.68932e-05
-6.77887e-05
5.07334e-05
-6.6883e-05
5.48699e-05
-6.59111e-05
5.9341e-05
-6.48499e-05
6.4212e-05
-6.37112e-05
6.9488e-05
-6.24633e-05
7.51434e-05
-6.11162e-05
8.12942e-05
-5.96489e-05
8.79955e-05
-5.80576e-05
9.51852e-05
-5.63189e-05
0.000102983
-5.44379e-05
0.000111504
-5.23771e-05
0.000120593
-5.01411e-05
0.000130568
-4.77022e-05
0.000141321
-4.50447e-05
0.000152955
-4.21536e-05
0.000165624
-3.89989e-05
0.000179248
-3.55706e-05
0.000194125
-3.18326e-05
0.000210115
-2.77733e-05
0.000227529
-2.33614e-05
0.000246302
-1.85684e-05
0.000266625
-1.33647e-05
0.000288631
-7.70365e-06
0.000312264
-1.56489e-06
0.000337882
5.0942e-06
0.000365358
1.232e-05
0.000394767
2.01501e-05
0.000426341
2.86322e-05
0.000460052
3.78203e-05
0.000495872
4.77588e-05
0.000533856
5.8492e-05
0.000573883
7.00618e-05
0.000615734
8.24995e-05
0.000659084
9.58248e-05
0.000703451
0.000110033
0.000748139
0.000125098
0.000792217
0.000140955
0.000834433
0.000157528
0.000873182
0.000174657
0.000906462
0.000192221
0.000931575
0.000209993
0.000945442
0.000227694
0.000943849
0.000245017
0.00092212
0.000261468
0.000873833
0.00027642
0.000791949
0.000289043
0.000673887
0.000481006
0.000296818
-7.32598e-05
1.94688e-05
7.35817e-05
-7.29057e-05
2.10528e-05
-7.25304e-05
2.27667e-05
-7.21177e-05
2.4621e-05
-7.1679e-05
2.66278e-05
-7.11979e-05
2.87997e-05
-7.06853e-05
3.1151e-05
-7.01251e-05
3.36971e-05
-6.95273e-05
3.6446e-05
-6.88741e-05
3.942e-05
-6.81762e-05
4.26451e-05
-6.74151e-05
4.61362e-05
-6.66007e-05
4.99156e-05
-6.57111e-05
5.39841e-05
-6.47543e-05
5.83808e-05
-6.37122e-05
6.31739e-05
-6.25926e-05
6.83655e-05
-6.1368e-05
7.39229e-05
-6.00458e-05
7.99698e-05
-5.86075e-05
8.65613e-05
-5.70482e-05
9.36243e-05
-5.5346e-05
0.000101285
-5.35054e-05
0.000109662
-5.14898e-05
0.00011858
-4.93036e-05
0.000128381
-4.69193e-05
0.000138938
-4.43213e-05
0.000150356
-4.14944e-05
0.000162798
-3.84088e-05
0.000176163
-3.50536e-05
0.00019077
-3.13934e-05
0.000206456
-2.74152e-05
0.000223551
-2.30879e-05
0.000241971
-1.83832e-05
0.000261915
-1.32709e-05
0.000283516
-7.70495e-06
0.000306697
-1.66496e-06
0.000331843
4.89006e-06
0.000358803
1.20039e-05
0.000387653
1.97124e-05
0.000418632
2.80615e-05
0.000451702
3.71027e-05
0.000486829
4.68782e-05
0.000524078
5.74296e-05
0.000563328
6.87964e-05
0.000604362
8.10082e-05
0.000646865
9.40832e-05
0.000690368
0.000108018
0.000734195
0.000122786
0.000777436
0.000138329
0.00081887
0.000154572
0.000856921
0.000171365
0.000889622
0.000188587
0.000914327
0.000206023
0.000927992
0.000223391
0.000926447
0.000240387
0.000905086
0.000256522
0.000857635
0.000271194
0.000777236
0.000283627
0.00066135
0.000473036
0.000291498
-7.19684e-05
1.9153e-05
7.22867e-05
-7.16202e-05
2.07113e-05
-7.12514e-05
2.23973e-05
-7.08463e-05
2.42216e-05
-7.04155e-05
2.61959e-05
-6.99435e-05
2.83329e-05
-6.94402e-05
3.06466e-05
-6.88901e-05
3.31521e-05
-6.83026e-05
3.58568e-05
-6.76601e-05
3.87828e-05
-6.69738e-05
4.19567e-05
-6.62244e-05
4.53924e-05
-6.54236e-05
4.91119e-05
-6.45475e-05
5.31136e-05
-6.36068e-05
5.7437e-05
-6.25812e-05
6.21538e-05
-6.1481e-05
6.72624e-05
-6.02772e-05
7.27239e-05
-5.89786e-05
7.86689e-05
-5.75664e-05
8.51533e-05
-5.60362e-05
9.20924e-05
-5.43667e-05
9.96186e-05
-5.25622e-05
0.000107857
-5.05873e-05
0.000116608
-4.8446e-05
0.000126238
-4.61114e-05
0.000136605
-4.35681e-05
0.000147813
-4.08009e-05
0.000160031
-3.77801e-05
0.000173143
-3.4495e-05
0.000187486
-3.09095e-05
0.000202873
-2.70111e-05
0.000219653
-2.27684e-05
0.000237725
-1.81526e-05
0.000257295
-1.31341e-05
0.000278494
-7.66692e-06
0.00030123
-1.73086e-06
0.000325907
4.71359e-06
0.000352359
1.1708e-05
0.000380658
1.9287e-05
0.000411052
2.74946e-05
0.000443493
3.63804e-05
0.000477941
4.59846e-05
0.000514472
5.63469e-05
0.000552964
6.75048e-05
0.000593203
7.94863e-05
0.000634882
9.23092e-05
0.000677545
0.00010597
0.000720533
0.000120446
0.000762961
0.00013568
0.000803631
0.000151603
0.000841002
0.000168069
0.000873138
0.000184962
0.000897416
0.000202072
0.000910853
0.000219118
0.00090933
0.000235801
0.000888342
0.000251636
0.000841678
0.000266043
0.000762732
0.000278271
0.000648944
0.000464879
0.000286172
-7.06981e-05
1.8842e-05
7.10064e-05
-7.03578e-05
2.03748e-05
-6.99959e-05
2.20333e-05
-6.95986e-05
2.3828e-05
-6.9175e-05
2.57704e-05
-6.87112e-05
2.7873e-05
-6.82156e-05
3.01496e-05
-6.76749e-05
3.26152e-05
-6.70962e-05
3.52762e-05
-6.64648e-05
3.8155e-05
-6.57888e-05
4.12784e-05
-6.50526e-05
4.46596e-05
-6.42635e-05
4.83202e-05
-6.34027e-05
5.22561e-05
-6.2476e-05
5.65077e-05
-6.1468e-05
6.11494e-05
-6.03847e-05
6.61769e-05
-5.92013e-05
7.15444e-05
-5.79238e-05
7.73897e-05
-5.65361e-05
8.37693e-05
-5.50325e-05
9.05874e-05
-5.33932e-05
9.79825e-05
-5.16219e-05
0.000106084
-4.96843e-05
0.000114672
-4.75842e-05
0.000124137
-4.52956e-05
0.000134317
-4.2803e-05
0.00014532
-4.00915e-05
0.00015732
-3.7132e-05
0.000170183
-3.39132e-05
0.000184268
-3.04e-05
0.000199361
-2.65791e-05
0.000215833
-2.24192e-05
0.000233563
-1.78924e-05
0.000252763
-1.29683e-05
0.000273567
-7.60189e-06
0.000295863
-1.77294e-06
0.000320078
4.55677e-06
0.000346029
1.1427e-05
0.000373788
1.88711e-05
0.000403607
2.69317e-05
0.000435431
3.56568e-05
0.000469215
4.50847e-05
0.000505041
5.52536e-05
0.000542791
6.61994e-05
0.000582252
7.79492e-05
0.000623125
9.05202e-05
0.000664967
0.00010391
0.000707133
0.000118097
0.000748762
0.00013303
0.000788678
0.00014864
0.000825373
0.000164787
0.000856941
0.00018136
0.000880813
0.000198154
0.000894037
0.000214891
0.00089255
0.00023127
0.00087191
0.000246818
0.000826053
0.000260972
0.000748515
0.000272989
0.0006368
0.000456845
0.000280889
-6.94414e-05
1.85377e-05
6.97495e-05
-6.91055e-05
2.00456e-05
-6.87495e-05
2.16773e-05
-6.83586e-05
2.34429e-05
-6.79428e-05
2.53539e-05
-6.74872e-05
2.74227e-05
-6.70014e-05
2.96627e-05
-6.64702e-05
3.20891e-05
-6.59027e-05
3.47071e-05
-6.52818e-05
3.75394e-05
-6.46184e-05
4.0613e-05
-6.38938e-05
4.39404e-05
-6.31192e-05
4.75429e-05
-6.22717e-05
5.14139e-05
-6.13615e-05
5.55945e-05
-6.03693e-05
6.01623e-05
-5.93049e-05
6.51096e-05
-5.81407e-05
7.03846e-05
-5.68852e-05
7.61318e-05
-5.55208e-05
8.24086e-05
-5.40431e-05
8.9108e-05
-5.24323e-05
9.63746e-05
-5.06924e-05
0.000104343
-4.87898e-05
0.000112772
-4.67285e-05
0.000122075
-4.44828e-05
0.000132073
-4.20378e-05
0.000142874
-3.93789e-05
0.000154661
-3.64772e-05
0.000167282
-3.3322e-05
0.000181113
-2.98779e-05
0.000195919
-2.61321e-05
0.000212087
-2.20537e-05
0.000229481
-1.76143e-05
0.000248319
-1.27845e-05
0.000268734
-7.51938e-06
0.000290597
-1.79905e-06
0.000314358
4.4136e-06
0.000339816
1.11568e-05
0.000367044
1.84629e-05
0.0003963
2.63734e-05
0.000427519
3.49346e-05
0.000460651
4.41837e-05
0.00049579
5.41573e-05
0.000532815
6.48902e-05
0.000571518
7.64087e-05
0.000611605
8.87298e-05
0.000652645
0.000101852
0.000694011
0.000115756
0.000734859
0.000130393
0.00077404
0.000145697
0.000810075
0.000161535
0.000841087
0.000177797
0.000864538
0.000194283
0.000877529
0.000210717
0.000876058
0.000226803
0.00085577
0.000242073
0.000810678
0.000255982
0.000734524
0.000267791
0.000624836
0.000448762
0.000275661
-6.82099e-05
1.82379e-05
6.85084e-05
-6.78815e-05
1.97213e-05
-6.75323e-05
2.13265e-05
-6.71489e-05
2.30635e-05
-6.67403e-05
2.49436e-05
-6.62927e-05
2.69791e-05
-6.58146e-05
2.91833e-05
-6.52926e-05
3.1571e-05
-6.4734e-05
3.41467e-05
-6.41242e-05
3.69331e-05
-6.34713e-05
3.99577e-05
-6.27597e-05
4.32322e-05
-6.19971e-05
4.67775e-05
-6.11646e-05
5.05847e-05
-6.02686e-05
5.46956e-05
-5.92935e-05
5.91906e-05
-5.82457e-05
6.40594e-05
-5.71012e-05
6.92435e-05
-5.58658e-05
7.48946e-05
-5.45243e-05
8.10705e-05
-5.30713e-05
8.76535e-05
-5.1488e-05
9.47942e-05
-4.97781e-05
0.000102632
-4.79091e-05
0.000110905
-4.58846e-05
0.00012005
-4.36798e-05
0.000129869
-4.12801e-05
0.000140474
-3.86711e-05
0.000152053
-3.58248e-05
0.000164436
-3.27301e-05
0.000178019
-2.93529e-05
0.000192543
-2.56799e-05
0.000208414
-2.16806e-05
0.000225479
-1.73274e-05
0.000243961
-1.25907e-05
0.000263994
-7.42663e-06
0.000285432
-1.81527e-06
0.000308746
4.27943e-06
0.000333721
1.08944e-05
0.000360428
1.80613e-05
0.000389132
2.58203e-05
0.000419759
3.42165e-05
0.000452253
4.3286e-05
0.000486718
5.30644e-05
0.000523034
6.35852e-05
0.000560992
7.48742e-05
0.00060031
8.69486e-05
0.000640564
9.98079e-05
0.000681142
0.000113434
0.000721221
0.000127782
0.000759673
0.000142787
0.000795049
0.000158321
0.000825503
0.00017428
0.000848549
0.000190465
0.000861319
0.000206605
0.000859871
0.000222404
0.00083991
0.000237405
0.000795594
0.000251077
0.000720776
0.000262681
0.000613095
0.00044078
0.000270509
-6.69962e-05
1.79442e-05
6.72914e-05
-6.66733e-05
1.94036e-05
-6.63304e-05
2.09828e-05
-6.59542e-05
2.26917e-05
-6.55531e-05
2.45415e-05
-6.51142e-05
2.65442e-05
-6.46451e-05
2.87131e-05
-6.41328e-05
3.10628e-05
-6.35844e-05
3.35969e-05
-6.29852e-05
3.63383e-05
-6.23437e-05
3.93147e-05
-6.16437e-05
4.25371e-05
-6.08945e-05
4.60261e-05
-6.00753e-05
4.97705e-05
-5.91947e-05
5.38127e-05
-5.82355e-05
5.82362e-05
-5.72057e-05
6.30273e-05
-5.608e-05
6.8122e-05
-5.48657e-05
7.36784e-05
-5.35467e-05
7.9755e-05
-5.21183e-05
8.62235e-05
-5.0562e-05
9.32406e-05
-4.88815e-05
0.000100951
-4.70449e-05
0.00010907
-4.5056e-05
0.00011806
-4.28907e-05
0.000127705
-4.05345e-05
0.000138117
-3.79736e-05
0.000149492
-3.51803e-05
0.000161643
-3.21443e-05
0.000174983
-2.88314e-05
0.000189232
-2.52289e-05
0.000204812
-2.13071e-05
0.000221554
-1.70379e-05
0.000239687
-1.23931e-05
0.000259346
-7.32892e-06
0.000280367
-1.82595e-06
0.000303243
4.151e-06
0.000327743
1.06378e-05
0.00035394
1.76653e-05
0.000382103
2.52729e-05
0.000412149
3.35045e-05
0.000444019
4.23952e-05
0.000477825
5.19794e-05
0.000513447
6.22902e-05
0.00055068
7.33528e-05
0.000589246
8.51842e-05
0.000628732
9.77852e-05
0.000668542
0.000111139
0.000707869
0.000125203
0.000745608
0.000139917
0.000780342
0.000155156
0.00081025
0.000170816
0.00083288
0.000186707
0.000845412
0.000202558
0.000843972
0.000218078
0.000824343
0.000232817
0.000780764
0.000246258
0.000707266
0.000257662
0.000601554
0.000432827
0.000265434
-6.5808e-05
1.76549e-05
6.60939e-05
-6.54923e-05
1.90906e-05
-6.51558e-05
2.06441e-05
-6.47869e-05
2.23254e-05
-6.43927e-05
2.41453e-05
-6.39616e-05
2.61158e-05
-6.35e-05
2.82501e-05
-6.29968e-05
3.05624e-05
-6.24571e-05
3.30556e-05
-6.18687e-05
3.57527e-05
-6.12376e-05
3.86818e-05
-6.05506e-05
4.18529e-05
-5.98132e-05
4.52866e-05
-5.90091e-05
4.89692e-05
-5.81425e-05
5.29439e-05
-5.72003e-05
5.7297e-05
-5.6187e-05
6.20121e-05
-5.50808e-05
6.7019e-05
-5.38863e-05
7.24824e-05
-5.25898e-05
7.84615e-05
-5.11852e-05
8.48177e-05
-4.96554e-05
9.17134e-05
-4.80036e-05
9.92977e-05
-4.61989e-05
0.000107267
-4.42447e-05
0.000116105
-4.21176e-05
0.000125579
-3.98037e-05
0.000135803
-3.72893e-05
0.000146978
-3.45475e-05
0.000158901
-3.1568e-05
0.000172004
-2.83177e-05
0.000185983
-2.47839e-05
0.000201279
-2.0937e-05
0.000217705
-1.67505e-05
0.000235496
-1.21956e-05
0.000254788
-7.23002e-06
0.0002754
-1.83431e-06
0.000297846
4.02585e-06
0.000321883
1.03854e-05
0.000347579
1.72746e-05
0.000375212
2.47318e-05
0.00040469
3.28002e-05
0.000435949
4.15137e-05
0.000469109
5.09061e-05
0.000504051
6.10097e-05
0.000540572
7.18494e-05
0.0005784
8.34424e-05
0.000617133
9.57901e-05
0.000656185
0.000108877
0.00069477
0.000122665
0.000731803
0.000137093
0.000765895
0.000152042
0.000795253
0.000167411
0.00081748
0.000183013
0.000829784
0.000198582
0.000828353
0.000213827
0.000809031
0.00022831
0.000766192
0.000241524
0.000693967
0.000252735
0.000590198
0.00042495
0.000260447
-6.46371e-05
1.7372e-05
6.49226e-05
-6.43257e-05
1.87845e-05
-6.39948e-05
2.03129e-05
-6.3632e-05
2.19671e-05
-6.32451e-05
2.37578e-05
-6.28219e-05
2.56967e-05
-6.23695e-05
2.77968e-05
-6.18754e-05
3.00724e-05
-6.13465e-05
3.25254e-05
-6.07682e-05
3.51789e-05
-6.01494e-05
3.80613e-05
-5.94737e-05
4.11821e-05
-5.87505e-05
4.45612e-05
-5.79595e-05
4.8183e-05
-5.71091e-05
5.20911e-05
-5.61825e-05
5.63749e-05
-5.51876e-05
6.10149e-05
-5.41001e-05
6.59352e-05
-5.29266e-05
7.1307e-05
-5.16522e-05
7.71901e-05
-5.02719e-05
8.34359e-05
-4.87683e-05
9.02122e-05
-4.7145e-05
9.76731e-05
-4.53714e-05
0.000105496
-4.34513e-05
0.000114184
-4.13618e-05
0.00012349
-3.9089e-05
0.00013353
-3.662e-05
0.000144509
-3.39282e-05
0.000156209
-3.10039e-05
0.00016908
-2.78143e-05
0.000182794
-2.43472e-05
0.000197812
-2.0574e-05
0.000213928
-1.64678e-05
0.000231385
-1.20013e-05
0.000250318
-7.13249e-06
0.00027053
-1.84242e-06
0.000292556
3.90247e-06
0.000316137
1.01363e-05
0.000341344
1.68888e-05
0.000368458
2.41975e-05
0.000397379
3.21046e-05
0.000428039
4.06434e-05
0.000460567
4.9847e-05
0.000494845
5.97468e-05
0.00053067
7.03677e-05
0.000567777
8.17268e-05
0.000605773
9.38266e-05
0.000644086
0.000106653
0.000681946
0.00012017
0.000718288
0.000134318
0.000751753
0.000148983
0.000780576
0.000164067
0.000802391
0.000179386
0.000814455
0.000194676
0.000813025
0.000209653
0.000794016
0.000223885
0.000751886
0.000236876
0.000680923
0.000247899
0.000579065
0.000417171
0.000255543
-6.34922e-05
1.70933e-05
6.3769e-05
-6.31876e-05
1.84829e-05
-6.28631e-05
1.99867e-05
-6.25073e-05
2.16142e-05
-6.21273e-05
2.3376e-05
-6.17116e-05
2.52839e-05
-6.12666e-05
2.73505e-05
-6.07813e-05
2.959e-05
-6.0261e-05
3.20034e-05
-5.96935e-05
3.46141e-05
-5.90848e-05
3.74507e-05
-5.84219e-05
4.05219e-05
-5.77104e-05
4.38475e-05
-5.69341e-05
4.74095e-05
-5.60977e-05
5.12523e-05
-5.51879e-05
5.54679e-05
-5.42094e-05
6.00343e-05
-5.3141e-05
6.48696e-05
-5.19873e-05
7.01515e-05
-5.07349e-05
7.59404e-05
-4.93781e-05
8.20778e-05
-4.79006e-05
8.87369e-05
-4.63052e-05
9.60766e-05
-4.45626e-05
0.000103755
-4.26761e-05
0.000112296
-4.06234e-05
0.000121438
-3.83911e-05
0.000131297
-3.59664e-05
0.000142084
-3.33237e-05
0.000153567
-3.0453e-05
0.00016621
-2.73228e-05
0.000179665
-2.3921e-05
0.00019441
-2.02192e-05
0.000210224
-1.6192e-05
0.000227353
-1.18119e-05
0.000245934
-7.03803e-06
0.000265754
-1.8518e-06
0.000287369
3.77968e-06
0.000310504
9.88983e-06
0.000335233
1.65077e-05
0.000361838
2.36703e-05
0.000390214
3.14188e-05
0.000420289
3.97859e-05
0.000452198
4.88039e-05
0.000485824
5.85039e-05
0.000520966
6.89103e-05
0.000557365
8.00405e-05
0.000594637
9.18976e-05
0.000632221
0.000104469
0.000669364
0.000117721
0.000705021
0.000131595
0.000737861
0.000145982
0.000766143
0.000160786
0.000787559
0.000175826
0.000799391
0.000190844
0.000797958
0.000205556
0.000779236
0.000219541
0.000737812
0.000232314
0.000668062
0.000243155
0.000568082
0.000409433
0.000250728
-6.23662e-05
1.68203e-05
6.26397e-05
-6.20668e-05
1.81875e-05
-6.17481e-05
1.96671e-05
-6.13991e-05
2.12684e-05
-6.10261e-05
2.3002e-05
-6.06185e-05
2.48793e-05
-6.0182e-05
2.6913e-05
-5.97059e-05
2.9117e-05
-5.91953e-05
3.14916e-05
-5.86378e-05
3.40602e-05
-5.80401e-05
3.68518e-05
-5.73884e-05
3.98744e-05
-5.66899e-05
4.31473e-05
-5.59265e-05
4.66506e-05
-5.51052e-05
5.04291e-05
-5.42108e-05
5.45777e-05
-5.32499e-05
5.90716e-05
-5.22e-05
6.38232e-05
-5.10668e-05
6.90166e-05
-4.98362e-05
7.47128e-05
-4.85033e-05
8.07434e-05
-4.70515e-05
8.72874e-05
-4.54841e-05
9.4508e-05
-4.3772e-05
0.000102044
-4.19187e-05
0.000110442
-3.99023e-05
0.000119422
-3.77097e-05
0.000129104
-3.53287e-05
0.000139703
-3.27339e-05
0.000150972
-2.9916e-05
0.000163392
-2.68438e-05
0.000176594
-2.35057e-05
0.000191072
-1.98743e-05
0.000206589
-1.59238e-05
0.000223398
-1.16285e-05
0.000241636
-6.94761e-06
0.000261072
-1.8632e-06
0.000282283
3.65698e-06
0.000304983
9.64567e-06
0.000329242
1.61315e-05
0.00035535
2.31505e-05
0.000383193
3.07433e-05
0.000412693
3.89419e-05
0.000443996
4.7778e-05
0.000476985
5.72821e-05
0.000511459
6.74786e-05
0.000547167
7.83848e-05
0.000583731
9.00047e-05
0.000620603
0.000102327
0.000657044
0.000115319
0.000692032
0.000128925
0.000724261
0.000143039
0.000752019
0.000157569
0.000773029
0.000172334
0.000784621
0.000187083
0.00078318
0.000201536
0.000764752
0.000215279
0.000724008
0.000227837
0.000655467
0.0002385
0.000557333
0.000401837
0.000245998
-6.12648e-05
1.65514e-05
6.153e-05
-6.09719e-05
1.78965e-05
-6.06593e-05
1.93523e-05
-6.0317e-05
2.09279e-05
-5.99505e-05
2.26336e-05
-5.95503e-05
2.44809e-05
-5.91208e-05
2.64823e-05
-5.86533e-05
2.86515e-05
-5.8151e-05
3.0988e-05
-5.76039e-05
3.35153e-05
-5.70161e-05
3.62626e-05
-5.63768e-05
3.92373e-05
-5.56898e-05
4.24586e-05
-5.49409e-05
4.59041e-05
-5.41333e-05
4.96197e-05
-5.32554e-05
5.37025e-05
-5.23107e-05
5.81252e-05
-5.12796e-05
6.27948e-05
-5.01658e-05
6.79014e-05
-4.8957e-05
7.35065e-05
-4.76472e-05
7.94324e-05
-4.6221e-05
8.58633e-05
-4.46811e-05
9.2967e-05
-4.29992e-05
0.000100364
-4.11787e-05
0.000108621
-3.91982e-05
0.000117443
-3.70448e-05
0.00012695
-3.47067e-05
0.000137365
-3.21591e-05
0.000148424
-2.93928e-05
0.000160626
-2.63776e-05
0.00017358
-2.3102e-05
0.000187797
-1.95388e-05
0.000203024
-1.56642e-05
0.000219519
-1.14515e-05
0.00023742
-6.8618e-06
0.000256481
-1.87717e-06
0.000277298
3.53392e-06
0.000299571
9.40358e-06
0.000323371
1.57599e-05
0.000348992
2.26383e-05
0.000376312
3.00786e-05
0.00040525
3.81121e-05
0.00043596
4.67702e-05
0.000468324
5.60827e-05
0.000502143
6.60738e-05
0.000537171
7.67609e-05
0.000573038
8.81488e-05
0.000609208
0.000100227
0.000644957
0.000112965
0.000679281
0.000126309
0.000710901
0.000140155
0.000738129