/*--------------------------------*- C++ -*----------------------------------*\
  =========                 |
  \\      /  F ield         | OpenFOAM: The Open Source CFD Toolbox
   \\    /   O peration     | Website:  https://openfoam.org
    \\  /    A nd           | Version:  6.0
     \\/     M anipulation  |
\*---------------------------------------------------------------------------*/
FoamFile
{
    version     2.0;
    format      ascii;
    class       volVectorField;
    location    "4";
    object      U;
}
// * * * * * * * * * * * * * * * * * * * * * * * * * * * * * * * * * * * * * //

dimensions      [0 1 -1 0 0 0 0];

internalField   nonuniform List<vector> 
62000
(
(0.964844 0.261555 -8.79538e-21)
(0.964835 0.261299 7.43724e-21)
(0.964834 0.261146 7.59308e-21)
(0.964841 0.26099 -3.35365e-20)
(0.964858 0.260832 -3.83359e-20)
(0.964882 0.260675 1.34967e-19)
(0.964914 0.260518 -1.49767e-19)
(0.964954 0.260363 8.8265e-20)
(0.964999 0.26021 -4.16138e-20)
(0.965049 0.260059 -2.15046e-19)
(0.965103 0.259908 -2.67512e-20)
(0.96516 0.259761 3.10736e-19)
(0.965219 0.259616 6.39358e-20)
(0.96528 0.259474 -2.28107e-19)
(0.965341 0.259334 3.61257e-19)
(0.965402 0.259199 -1.9532e-19)
(0.965463 0.259065 2.04922e-19)
(0.965525 0.258938 -2.44696e-19)
(0.965585 0.258814 1.22108e-19)
(0.965644 0.258698 -3.83807e-19)
(0.965703 0.258588 5.09251e-19)
(0.96576 0.258488 1.51936e-19)
(0.965815 0.258397 2.21741e-19)
(0.965868 0.258319 -1.02675e-18)
(0.965919 0.258253 3.81684e-19)
(0.965967 0.258203 -2.36762e-19)
(0.966011 0.258169 -8.2316e-22)
(0.966051 0.258156 -1.93412e-19)
(0.966084 0.258165 6.15575e-19)
(0.966112 0.2582 -3.45617e-19)
(0.966127 0.258259 8.3951e-19)
(0.966132 0.258353 -1.74938e-18)
(0.966122 0.258482 1.69169e-19)
(0.966096 0.258658 -6.0053e-19)
(0.966057 0.258877 -2.01961e-19)
(0.966 0.259136 -6.49106e-19)
(0.965917 0.259444 -2.18332e-19)
(0.965804 0.259806 -2.37633e-19)
(0.96566 0.260214 6.57421e-19)
(0.965479 0.26065 3.2303e-18)
(0.965254 0.261094 -8.15062e-19)
(0.964976 0.261513 -4.96588e-18)
(0.964639 0.261858 -8.50392e-18)
(0.964232 0.262068 5.00424e-18)
(0.963746 0.262063 1.56336e-18)
(0.963167 0.261756 -8.44338e-18)
(0.962488 0.261048 2.28128e-18)
(0.961698 0.259858 -3.96526e-18)
(0.960805 0.25812 -1.99001e-17)
(0.95982 0.255824 -4.65295e-18)
(0.958783 0.252987 -2.46524e-18)
(0.957775 0.249678 -3.27317e-17)
(0.95686 0.245991 4.03324e-18)
(0.95619 0.241987 3.44105e-17)
(0.955875 0.237784 8.54705e-18)
(0.955984 0.23323 2.6457e-17)
(0.956699 0.228204 -2.78496e-18)
(0.958022 0.221917 -4.07359e-18)
(0.960429 0.213302 7.89502e-18)
(0.937275 0.182606 1.25526e-18)
(0.96419 0.272074 -2.20804e-21)
(0.964 0.271774 2.12757e-20)
(0.963826 0.271538 8.73384e-21)
(0.963664 0.271295 -3.86532e-20)
(0.963517 0.271032 1.61989e-20)
(0.963389 0.270752 -1.12656e-19)
(0.96328 0.270455 1.04917e-19)
(0.963191 0.270144 6.12347e-20)
(0.963123 0.269818 -1.16403e-19)
(0.963076 0.269476 5.22942e-21)
(0.963048 0.269118 1.16134e-19)
(0.96304 0.268747 1.99704e-22)
(0.963049 0.26836 3.43685e-20)
(0.963076 0.26796 -3.01397e-19)
(0.963118 0.267546 6.16037e-19)
(0.963175 0.267123 -5.54987e-19)
(0.963244 0.266689 2.65211e-19)
(0.963325 0.266252 -5.65366e-20)
(0.963417 0.265811 -1.58584e-19)
(0.96352 0.265374 4.44691e-19)
(0.963631 0.264942 -7.15201e-19)
(0.963752 0.264522 4.23253e-19)
(0.963881 0.264115 -5.46357e-19)
(0.96402 0.263729 3.31264e-19)
(0.964164 0.263365 3.12217e-19)
(0.964319 0.263029 -2.07954e-19)
(0.964475 0.262722 -1.51121e-21)
(0.964642 0.262452 2.37882e-19)
(0.964805 0.262217 2.02041e-19)
(0.964974 0.262026 -4.22894e-19)
(0.965127 0.261872 8.66696e-19)
(0.965273 0.261779 1.809e-19)
(0.965389 0.261763 5.57641e-19)
(0.965479 0.261846 5.04432e-20)
(0.965545 0.261995 1.66701e-19)
(0.965577 0.26219 -1.848e-19)
(0.965546 0.262446 -6.10761e-19)
(0.965422 0.262788 -2.86311e-19)
(0.9652 0.263155 -1.75608e-18)
(0.964876 0.263502 -2.13774e-18)
(0.964433 0.26377 1.69418e-18)
(0.963855 0.263885 1.08578e-18)
(0.963126 0.26375 8.83124e-18)
(0.96223 0.263248 5.77516e-19)
(0.961158 0.262243 -1.59817e-17)
(0.959894 0.260606 6.92872e-18)
(0.958441 0.258202 6.36804e-18)
(0.956795 0.25496 7.95967e-18)
(0.954988 0.250829 1.76573e-18)
(0.953051 0.245879 3.14672e-19)
(0.951062 0.240188 1.51097e-17)
(0.949233 0.233815 4.09215e-17)
(0.94764 0.226988 -2.68663e-17)
(0.946513 0.219704 -6.36751e-17)
(0.946012 0.212112 -1.46752e-17)
(0.946238 0.203749 -7.83437e-18)
(0.947587 0.194302 -2.04629e-17)
(0.950034 0.182288 -8.63764e-18)
(0.954584 0.166443 1.29884e-17)
(0.926579 0.118399 4.41964e-18)
(0.964251 0.277307 -1.00973e-20)
(0.963988 0.277129 -1.39544e-21)
(0.963732 0.276962 1.65547e-21)
(0.963476 0.276804 7.39207e-21)
(0.963228 0.276627 2.11311e-20)
(0.96299 0.276437 -2.0327e-20)
(0.962767 0.27623 1.09363e-19)
(0.962562 0.276008 -5.31313e-20)
(0.962378 0.275768 -2.90801e-20)
(0.962218 0.275507 -1.79768e-19)
(0.962084 0.275224 1.54294e-19)
(0.961978 0.274918 1.14069e-20)
(0.961899 0.274587 -3.66121e-20)
(0.961849 0.274229 9.86419e-20)
(0.961827 0.273843 -1.71477e-19)
(0.961831 0.27343 1.14906e-21)
(0.961861 0.272988 -8.18056e-20)
(0.961915 0.272524 1.47761e-21)
(0.961991 0.272035 1.97718e-19)
(0.962088 0.271532 -3.06214e-19)
(0.962203 0.271013 1.94226e-19)
(0.962336 0.27049 7.71962e-19)
(0.962485 0.269961 -1.0539e-19)
(0.96265 0.26944 -1.11362e-18)
(0.962827 0.268925 5.82731e-19)
(0.96302 0.268428 -3.18806e-19)
(0.963222 0.267945 5.29912e-19)
(0.963439 0.267492 -3.27246e-19)
(0.963658 0.26706 -6.63276e-19)
(0.963888 0.26666 7.06278e-19)
(0.964108 0.266282 -5.12482e-19)
(0.964326 0.265954 7.04411e-19)
(0.964515 0.265709 -1.97464e-18)
(0.964679 0.265564 1.80516e-18)
(0.964823 0.265469 -9.86863e-19)
(0.964936 0.265388 4.15203e-19)
(0.964987 0.265343 3.13162e-19)
(0.96492 0.265363 -4.21974e-20)
(0.964733 0.26536 -1.13548e-19)
(0.964433 0.265283 2.11275e-18)
(0.964005 0.265066 -9.13635e-19)
(0.963436 0.264626 1.50364e-18)
(0.962708 0.263861 -5.65603e-18)
(0.961809 0.262658 -3.00698e-18)
(0.960729 0.260882 3.70938e-18)
(0.959451 0.258421 -1.29712e-17)
(0.957981 0.255155 1.95019e-18)
(0.956304 0.251047 -1.32465e-17)
(0.954455 0.24607 1.96665e-17)
(0.952451 0.240332 5.36831e-18)
(0.95036 0.233933 2.78908e-18)
(0.948446 0.226877 -7.88579e-19)
(0.946738 0.219426 1.191e-17)
(0.945485 0.211541 6.92424e-19)
(0.944819 0.20331 -2.33441e-17)
(0.944922 0.194277 -1.14644e-17)
(0.946225 0.184005 -9.21491e-18)
(0.948722 0.171165 -2.3909e-17)
(0.953469 0.155335 -6.57922e-19)
(0.933792 0.111187 2.0333e-18)
(0.964206 0.279448 -9.61119e-21)
(0.96396 0.279366 2.97184e-20)
(0.963712 0.279264 -4.62965e-21)
(0.963454 0.279178 -3.12401e-20)
(0.963189 0.279077 4.75419e-20)
(0.962924 0.278968 8.26894e-20)
(0.96266 0.278848 -1.09507e-19)
(0.962403 0.278719 1.19932e-20)
(0.962157 0.278578 3.86826e-20)
(0.961927 0.278423 8.13651e-20)
(0.961716 0.278251 -1.53064e-19)
(0.961529 0.278061 -4.75662e-20)
(0.961368 0.277848 -5.37961e-20)
(0.961237 0.277609 2.49668e-19)
(0.961137 0.27734 -1.69139e-19)
(0.961069 0.27704 4.00661e-19)
(0.961035 0.276705 -4.93048e-19)
(0.961033 0.276338 -7.29694e-20)
(0.961062 0.275936 5.35367e-19)
(0.961122 0.275506 -1.89888e-19)
(0.96121 0.275044 -6.98743e-20)
(0.961325 0.274561 -7.65028e-20)
(0.961464 0.274054 -7.06817e-19)
(0.961626 0.273535 4.1461e-19)
(0.961808 0.273002 -1.89726e-19)
(0.962009 0.272468 3.14179e-19)
(0.962225 0.271927 1.45765e-19)
(0.962457 0.271397 7.44179e-19)
(0.962697 0.270867 -4.7278e-19)
(0.962948 0.270347 -6.29091e-19)
(0.963195 0.269828 9.94484e-19)
(0.963442 0.269338 -8.29319e-19)
(0.963664 0.268919 1.56374e-18)
(0.963863 0.268584 -9.69427e-19)
(0.964046 0.268272 4.05728e-19)
(0.964207 0.267941 7.19353e-19)
(0.964315 0.267618 -3.1292e-19)
(0.9643 0.267329 4.26148e-19)
(0.964157 0.266974 -1.85528e-19)
(0.963911 0.266508 6.41943e-19)
(0.963553 0.265863 -1.87184e-18)
(0.963072 0.264964 5.49857e-19)
(0.962457 0.263715 1.30043e-18)
(0.961693 0.262013 3.30202e-18)
(0.960774 0.259741 4.98296e-18)
(0.959674 0.256807 1.56264e-18)
(0.958398 0.253107 8.72235e-18)
(0.956915 0.248629 1.02782e-17)
(0.955251 0.243363 1.22262e-17)
(0.9534 0.237428 -9.33704e-18)
(0.95141 0.230928 -1.3632e-17)
(0.949569 0.223827 8.43315e-18)
(0.947858 0.216371 1.09601e-17)
(0.94655 0.208518 2.9028e-17)
(0.945727 0.200285 1.81513e-17)
(0.945652 0.191301 2.55404e-17)
(0.946729 0.181043 4.34665e-17)
(0.948996 0.168427 -8.30739e-19)
(0.953287 0.153774 -1.79429e-17)
(0.942555 0.114254 -1.16701e-17)
(0.964175 0.280453 1.78814e-20)
(0.963958 0.280398 -6.05053e-21)
(0.963735 0.280327 1.02092e-20)
(0.963496 0.280279 -1.46171e-20)
(0.963246 0.280221 3.29873e-20)
(0.962986 0.280161 -1.6554e-20)
(0.962718 0.280097 8.9297e-21)
(0.962448 0.280029 -1.35087e-19)
(0.962177 0.279955 1.14519e-19)
(0.961912 0.279874 -2.30761e-19)
(0.961655 0.279782 2.57137e-19)
(0.961413 0.279678 -3.13244e-20)
(0.961189 0.279558 -6.98823e-20)
(0.960988 0.279418 -3.24975e-20)
(0.960813 0.279253 -6.96386e-21)
(0.960669 0.279061 -3.34886e-19)
(0.960558 0.278837 1.61559e-20)
(0.960481 0.278582 3.75653e-19)
(0.960439 0.278289 -1.23286e-19)
(0.960434 0.277964 -1.31439e-19)
(0.960465 0.277601 2.26032e-19)
(0.96053 0.277207 -1.13108e-19)
(0.960628 0.276778 4.80668e-19)
(0.960756 0.276324 2.65556e-19)
(0.960913 0.27584 2.05379e-19)
(0.961095 0.275338 -6.52798e-19)
(0.961301 0.27481 -9.30336e-20)
(0.961526 0.274273 -5.21884e-19)
(0.961765 0.273715 1.01375e-19)
(0.962018 0.273145 -1.80807e-19)
(0.962275 0.27255 -6.89488e-20)
(0.962532 0.271962 6.00152e-19)
(0.96277 0.271429 -1.53911e-18)
(0.962988 0.270956 -6.14481e-20)
(0.963194 0.270478 -8.2549e-19)
(0.963384 0.269949 -4.16182e-19)
(0.963534 0.269402 1.46601e-19)
(0.963558 0.26885 -1.38904e-18)
(0.96345 0.268196 2.16433e-18)
(0.96325 0.267403 3.07641e-19)
(0.962955 0.266407 2.48991e-18)
(0.962559 0.265137 -1.91388e-18)
(0.962052 0.263508 -1.33119e-18)
(0.961422 0.261433 -6.75134e-19)
(0.96066 0.258807 3.54518e-18)
(0.95974 0.255557 5.62949e-18)
(0.958661 0.251597 1.13542e-18)
(0.957381 0.246931 2.27904e-18)
(0.955916 0.241556 -4.95141e-18)
(0.954243 0.235597 2.3375e-17)
(0.952391 0.229153 5.89156e-18)
(0.95066 0.222156 -6.67666e-18)
(0.948988 0.214827 1.83359e-19)
(0.947664 0.207129 2.06878e-17)
(0.946726 0.199013 6.58553e-20)
(0.946495 0.19018 -2.0643e-17)
(0.94734 0.180036 -4.01283e-17)
(0.949347 0.167692 3.48481e-17)
(0.95305 0.153948 -1.46995e-17)
(0.949355 0.117452 1.22046e-17)
(0.964226 0.28105 -6.50994e-21)
(0.96403 0.281023 2.65596e-20)
(0.963826 0.280971 -4.42663e-20)
(0.963607 0.280941 3.34484e-20)
(0.963373 0.280903 2.19558e-20)
(0.963126 0.280865 -2.3578e-20)
(0.962867 0.280823 2.00795e-21)
(0.962599 0.280783 -1.8155e-20)
(0.962323 0.28074 -6.19652e-20)
(0.962044 0.280696 1.20343e-19)
(0.961765 0.280646 -1.88905e-19)
(0.961491 0.28059 1.67626e-19)
(0.961226 0.280524 1.49288e-19)
(0.960975 0.280444 -2.33962e-19)
(0.960743 0.280347 -7.70432e-20)
(0.960534 0.280229 2.93798e-19)
(0.960352 0.280084 -3.59781e-19)
(0.960202 0.279913 5.02812e-19)
(0.960085 0.279709 -9.74264e-20)
(0.960005 0.279476 5.45753e-20)
(0.959962 0.279205 -9.16014e-20)
(0.959958 0.278902 -1.15892e-19)
(0.959991 0.278561 -2.19045e-19)
(0.960061 0.278188 3.80425e-19)
(0.960166 0.277778 -2.65427e-19)
(0.960304 0.277338 -2.61498e-19)
(0.960472 0.276858 5.47168e-19)
(0.960665 0.276354 -5.2353e-19)
(0.96088 0.27581 8.59481e-19)
(0.961114 0.275234 -4.62617e-19)
(0.961359 0.274612 3.65354e-19)
(0.961609 0.273973 -6.12518e-19)
(0.961846 0.273369 6.87232e-19)
(0.962067 0.272801 -5.08044e-20)
(0.96228 0.272199 -3.3864e-20)
(0.962485 0.271515 -1.11928e-20)
(0.962659 0.270787 -3.81226e-19)
(0.962711 0.270015 1.22295e-18)
(0.962628 0.269109 -9.66345e-19)
(0.962464 0.268043 -5.55037e-18)
(0.96222 0.266755 -2.40714e-18)
(0.961892 0.265184 1.84096e-18)
(0.961474 0.263256 -1.99374e-18)
(0.960955 0.260895 -2.5574e-18)
(0.960326 0.258011 -2.32617e-19)
(0.959559 0.254548 7.08487e-18)
(0.958649 0.250432 -1.11418e-17)
(0.957546 0.245681 -1.21099e-17)
(0.956262 0.240293 -8.97005e-18)
(0.954755 0.234395 -1.52123e-17)
(0.953043 0.228072 9.39778e-18)
(0.951424 0.221235 -4.19092e-18)
(0.949811 0.214072 -3.31155e-17)
(0.948497 0.206553 5.36165e-18)
(0.947485 0.198572 9.50373e-18)
(0.94713 0.189884 -1.5613e-17)
(0.947772 0.179847 1.18389e-17)
(0.949549 0.167708 7.22479e-18)
(0.952681 0.15457 2.44509e-17)
(0.954113 0.120017 -9.45973e-19)
(0.964289 0.281445 7.34905e-21)
(0.964108 0.281425 -3.35308e-20)
(0.96392 0.281379 1.6498e-20)
(0.963717 0.281359 3.129e-20)
(0.9635 0.28133 -6.80413e-20)
(0.963269 0.281303 5.77535e-20)
(0.963024 0.281275 -3.90157e-20)
(0.962766 0.281249 3.35679e-20)
(0.962497 0.281222 5.41766e-20)
(0.96222 0.281195 -1.32222e-19)
(0.961936 0.281164 1.93294e-19)
(0.96165 0.281131 8.28633e-20)
(0.961365 0.281092 -3.35025e-19)
(0.961085 0.281044 -6.28275e-20)
(0.960815 0.280984 1.82793e-19)
(0.96056 0.28091 1.18763e-19)
(0.960325 0.280815 -1.45902e-19)
(0.960114 0.2807 1.29915e-19)
(0.959931 0.280557 2.01857e-19)
(0.959781 0.28039 -1.00704e-19)
(0.959665 0.28019 -5.84001e-20)
(0.959586 0.27996 2.08015e-19)
(0.959546 0.279694 4.32668e-19)
(0.959544 0.279395 -3.20141e-19)
(0.959581 0.279055 -3.56997e-19)
(0.959655 0.278681 3.98751e-19)
(0.959765 0.27826 -3.12476e-19)
(0.959906 0.277804 -1.30699e-19)
(0.960075 0.277296 1.08112e-18)
(0.960269 0.27674 -4.77059e-19)
(0.960481 0.276119 -3.79196e-19)
(0.960706 0.275461 5.15479e-19)
(0.960922 0.27482 3.63961e-19)
(0.961129 0.274191 -3.1459e-19)
(0.961333 0.273502 -2.26288e-19)
(0.961536 0.272702 7.6193e-19)
(0.961717 0.271835 2.07641e-19)
(0.961781 0.270884 2.5627e-19)
(0.961712 0.269777 -1.46533e-18)
(0.96157 0.268491 -1.41961e-18)
(0.96136 0.266972 2.93856e-18)
(0.961082 0.265166 2.48437e-18)
(0.96073 0.263009 4.48754e-18)
(0.960294 0.260436 -4.13667e-18)
(0.959766 0.25737 -4.87561e-18)
(0.959115 0.253768 -3.72441e-18)
(0.958338 0.249567 9.55701e-18)
(0.957377 0.244791 9.72578e-18)
(0.956242 0.23944 -1.15735e-17)
(0.954878 0.233634 -1.70189e-17)
(0.953292 0.227448 -4.04471e-18)
(0.951782 0.220771 3.42131e-18)
(0.950232 0.213761 7.5806e-19)
(0.948942 0.206394 -1.11568e-17)
(0.947885 0.198518 8.88263e-18)
(0.947439 0.189927 5.3812e-18)
(0.947917 0.17994 7.39542e-18)
(0.949511 0.167911 -2.32174e-17)
(0.952157 0.155119 -1.66287e-18)
(0.957195 0.12174 -4.73653e-19)
(0.964335 0.281751 -1.1807e-20)
(0.964164 0.281745 -9.60592e-21)
(0.963989 0.281705 1.30848e-20)
(0.963799 0.281689 4.7172e-20)
(0.963596 0.281665 -1.03003e-19)
(0.96338 0.28164 1.19487e-19)
(0.963149 0.281614 -5.36162e-21)
(0.962905 0.28159 -7.5767e-21)
(0.962649 0.281566 -4.44856e-20)
(0.96238 0.281542 1.0929e-19)
(0.962102 0.281518 -1.70919e-19)
(0.961816 0.281492 6.54367e-20)
(0.961525 0.281464 -2.11144e-21)
(0.961232 0.281429 1.05097e-19)
(0.960942 0.281386 5.04088e-20)
(0.960659 0.281332 -2.7192e-19)
(0.960388 0.281263 2.38897e-19)
(0.960132 0.281178 9.47042e-20)
(0.959897 0.281071 -2.77141e-19)
(0.959688 0.280945 1.37183e-19)
(0.959507 0.280791 6.43437e-20)
(0.959359 0.280612 -4.43503e-20)
(0.959247 0.2804 5.40709e-20)
(0.959171 0.280157 -3.3392e-20)
(0.959134 0.279876 -3.71927e-19)
(0.959136 0.279558 2.47722e-19)
(0.959175 0.279191 -3.82403e-19)
(0.95925 0.278784 7.05353e-19)
(0.959358 0.278316 -1.42791e-19)
(0.959496 0.27779 -8.08525e-20)
(0.959659 0.277185 -2.31841e-20)
(0.95984 0.276528 7.97559e-19)
(0.96002 0.275871 -3.23278e-19)
(0.960196 0.275208 -1.80741e-19)
(0.960373 0.274461 5.39978e-19)
(0.960557 0.273578 4.7637e-19)
(0.960728 0.272608 -8.22347e-19)
(0.960791 0.271519 1.48866e-19)
(0.960723 0.270255 1.71459e-18)
(0.960588 0.268799 -5.55087e-20)
(0.960396 0.267104 1.09559e-18)
(0.960147 0.26512 -1.75484e-18)
(0.959836 0.262793 2.61338e-18)
(0.959454 0.260068 6.42201e-18)
(0.958994 0.256878 2.25432e-18)
(0.958424 0.25319 -2.83887e-18)
(0.95774 0.248948 -9.49473e-18)
(0.956883 0.244181 1.47458e-18)
(0.955861 0.238886 3.55903e-18)
(0.954608 0.233177 8.43954e-18)
(0.953128 0.227114 -1.4419e-18)
(0.951709 0.220574 -1.41233e-17)
(0.95022 0.213678 1.21343e-17)
(0.948963 0.206413 -8.04817e-18)
(0.947889 0.198592 1.45345e-17)
(0.947385 0.190032 3.72852e-18)
(0.947744 0.180032 1.40815e-17)
(0.949211 0.168016 1.66764e-17)
(0.951474 0.155373 1.59289e-18)
(0.959086 0.122679 1.51684e-18)
(0.964372 0.281988 -5.46255e-21)
(0.964209 0.281975 4.73049e-21)
(0.964043 0.281934 2.4211e-20)
(0.963863 0.281918 3.89034e-20)
(0.96367 0.281894 -1.16217e-19)
(0.963465 0.281872 6.7721e-20)
(0.963247 0.281848 -1.23062e-19)
(0.963015 0.281827 1.94984e-19)
(0.962769 0.281806 -9.26051e-20)
(0.962511 0.281785 1.6554e-20)
(0.96224 0.281763 1.8336e-19)
(0.961959 0.28174 -4.22317e-19)
(0.96167 0.281715 2.9158e-19)
(0.961373 0.281686 4.1668e-20)
(0.961074 0.28165 6.7315e-20)
(0.960775 0.281606 -2.87157e-19)
(0.96048 0.281549 1.42847e-19)
(0.960193 0.281481 -1.78685e-19)
(0.95992 0.281394 3.5502e-19)
(0.959665 0.281291 -4.74754e-20)
(0.959431 0.281164 -4.58427e-19)
(0.959223 0.281017 1.86355e-19)
(0.959046 0.28084 -1.04416e-20)
(0.958901 0.280635 -6.88781e-19)
(0.958792 0.280395 5.18985e-19)
(0.95872 0.28012 3.91274e-19)
(0.958685 0.279795 2.64045e-19)
(0.958687 0.279428 -3.53708e-19)
(0.958725 0.278997 -3.95298e-19)
(0.958795 0.278501 1.88402e-19)
(0.958897 0.277918 2.661e-19)
(0.959021 0.277271 -3.44665e-19)
(0.95915 0.276613 -5.15956e-19)
(0.95928 0.275931 1.09621e-18)
(0.959417 0.275148 1.36213e-19)
(0.959566 0.274207 -1.76056e-18)
(0.959711 0.273164 1.78609e-19)
(0.959758 0.271972 1.22636e-18)
(0.95968 0.270591 7.68858e-20)
(0.95954 0.26901 1.71029e-18)
(0.95935 0.267184 -2.52564e-18)
(0.959111 0.265071 -1.51664e-19)
(0.958818 0.262624 -1.83118e-18)
(0.958464 0.259794 5.12077e-19)
(0.958041 0.256524 3.35891e-18)
(0.957519 0.252789 1.04342e-17)
(0.956894 0.248535 2.10471e-18)
(0.956106 0.243795 -8.06867e-18)
(0.955164 0.238561 6.16581e-18)
(0.953995 0.23294 2.35824e-17)
(0.952601 0.226978 -1.94137e-17)
(0.951261 0.220539 2.33602e-17)
(0.949829 0.213717 -1.45118e-17)
(0.948609 0.206501 -6.58297e-18)
(0.947537 0.198685 -2.92874e-17)
(0.947004 0.190098 -1.35016e-18)
(0.947284 0.180024 -8.10038e-18)
(0.94867 0.167945 -7.3404e-18)
(0.950658 0.15531 2.71344e-18)
(0.960124 0.122966 -1.03734e-18)
(0.964408 0.282202 7.19352e-21)
(0.96425 0.282198 2.57516e-21)
(0.964089 0.282159 -2.67217e-20)
(0.963916 0.282144 2.57947e-20)
(0.96373 0.282121 -1.1574e-20)
(0.963532 0.282097 2.10625e-20)
(0.963321 0.282072 7.3661e-21)
(0.963097 0.282048 -1.08007e-19)
(0.962859 0.282024 4.7432e-20)
(0.962608 0.282001 -3.26984e-20)
(0.962345 0.281977 2.01437e-20)
(0.962069 0.281952 7.9148e-20)
(0.961782 0.281926 -1.47768e-20)
(0.961485 0.281895 4.94619e-20)
(0.961181 0.281859 -2.11392e-19)
(0.960873 0.281815 8.28162e-20)
(0.960564 0.281761 3.75094e-20)
(0.960257 0.281696 -9.98854e-20)
(0.959956 0.281616 2.01153e-19)
(0.959666 0.281523 6.63898e-20)
(0.95939 0.281408 -7.464e-21)
(0.959134 0.281277 -7.09349e-20)
(0.958902 0.28112 2.9656e-19)
(0.958696 0.280938 -8.2212e-19)
(0.958521 0.280723 4.273e-19)
(0.958378 0.280477 1.79808e-19)
(0.958271 0.280181 -3.1271e-19)
(0.958198 0.279845 5.53707e-19)
(0.958162 0.279442 -2.74395e-19)
(0.958159 0.278973 -1.4361e-19)
(0.958191 0.27841 -2.92289e-19)
(0.958249 0.277776 -1.08546e-19)
(0.958316 0.277121 3.30996e-19)
(0.958388 0.276433 -1.02131e-18)
(0.958472 0.275627 1.96037e-18)
(0.958574 0.274649 -1.22661e-19)
(0.958679 0.273556 1.09603e-18)
(0.958699 0.272289 -2.79257e-18)
(0.958601 0.270826 -9.22098e-19)
(0.958444 0.269155 -6.66462e-20)
(0.958243 0.267237 -6.39905e-19)
(0.957997 0.265035 -8.4498e-20)
(0.957704 0.262506 -2.65838e-18)
(0.957355 0.25961 6.45481e-19)
(0.956945 0.256293 1.38882e-18)
(0.956443 0.252535 -9.42326e-18)
(0.955848 0.248289 1.23034e-17)
(0.955099 0.243583 2.0211e-18)
(0.954209 0.238407 -1.66616e-20)
(0.953098 0.23286 -1.48085e-17)
(0.95177 0.226973 6.08349e-18)
(0.95049 0.220604 -1.20568e-17)
(0.949111 0.213816 2.07404e-17)
(0.947931 0.206603 5.67466e-18)
(0.946879 0.198747 -1.38556e-17)
(0.946338 0.190081 5.3625e-18)
(0.946574 0.179887 -1.28352e-17)
(0.947926 0.167684 -2.01155e-18)
(0.949727 0.154965 -1.19881e-17)
(0.960607 0.122768 -3.24285e-18)
(0.964427 0.282395 -1.50016e-21)
(0.964272 0.282389 -5.98705e-21)
(0.964115 0.28235 -5.30172e-21)
(0.963944 0.282337 5.15062e-20)
(0.963763 0.282314 -2.88538e-20)
(0.96357 0.282292 -3.52206e-20)
(0.963364 0.282268 -1.35264e-20)
(0.963146 0.282244 -5.60258e-20)
(0.962914 0.28222 3.52385e-20)
(0.962669 0.282195 5.13501e-21)
(0.96241 0.282168 1.7648e-21)
(0.962139 0.28214 1.56759e-19)
(0.961855 0.282109 -1.12604e-19)
(0.96156 0.282074 -1.41639e-20)
(0.961255 0.282034 1.32011e-19)
(0.960942 0.281987 -7.34637e-20)
(0.960624 0.28193 -2.79529e-20)
(0.960302 0.281864 4.71762e-20)
(0.959981 0.281785 1.50773e-19)
(0.959665 0.281694 8.28683e-20)
(0.959357 0.281584 2.96881e-20)
(0.959062 0.281459 -2.14847e-19)
(0.958783 0.28131 1.07289e-19)
(0.958525 0.28114 2.1242e-19)
(0.958291 0.280939 -4.43051e-19)
(0.958084 0.280709 1.41792e-19)
(0.957908 0.280432 -5.69913e-19)
(0.957763 0.280115 4.64946e-19)
(0.957653 0.279733 4.07682e-19)
(0.957576 0.279282 -6.46617e-19)
(0.957534 0.278735 -2.96569e-19)
(0.957519 0.278113 4.08775e-19)
(0.957518 0.277465 1.38226e-19)
(0.957524 0.276774 -4.05327e-19)
(0.957545 0.275957 -4.99221e-19)
(0.957589 0.274954 -6.22767e-19)
(0.957643 0.273828 3.94711e-19)
(0.957626 0.272509 9.83897e-19)
(0.957498 0.27099 3.43849e-19)
(0.957316 0.26926 -3.77236e-19)
(0.957091 0.267281 3.73976e-18)
(0.956826 0.265021 -2.74422e-19)
(0.956516 0.262442 4.3262e-18)
(0.956156 0.259507 -8.15434e-18)
(0.955737 0.256168 1.0276e-18)
(0.955234 0.252408 3.40252e-19)
(0.954645 0.248179 -1.26472e-18)
(0.953912 0.243512 -7.811e-18)
(0.95305 0.238388 -1.38972e-17)
(0.951977 0.232899 1.2766e-17)
(0.950699 0.227064 1.71072e-17)
(0.949469 0.220733 8.60279e-18)
(0.948137 0.213946 -1.88937e-17)
(0.946998 0.206697 9.52272e-18)
(0.945975 0.198764 2.32944e-17)
(0.945444 0.18998 6.48081e-18)
(0.945666 0.179629 1.24988e-17)
(0.947015 0.167256 4.64241e-18)
(0.948708 0.15439 8.34815e-18)
(0.960695 0.122182 -3.79898e-18)
(0.96443 0.282591 1.80959e-21)
(0.964276 0.282592 -5.50655e-21)
(0.96412 0.282555 1.98884e-20)
(0.963951 0.282543 5.34005e-21)
(0.963772 0.28252 -2.80684e-20)
(0.963582 0.282497 -3.28879e-20)
(0.963379 0.282471 7.87028e-20)
(0.963164 0.282445 -8.71317e-20)
(0.962936 0.282417 -2.18809e-20)
(0.962695 0.282389 5.50345e-20)
(0.962441 0.282358 5.16408e-20)
(0.962174 0.282326 1.58728e-19)
(0.961893 0.28229 -9.07076e-20)
(0.961599 0.28225 -1.56815e-19)
(0.961293 0.282205 3.47247e-20)
(0.960977 0.282153 -1.30368e-19)
(0.960652 0.282091 9.87257e-20)
(0.96032 0.282019 -1.66297e-19)
(0.959984 0.281936 2.80697e-20)
(0.959648 0.281841 -5.33507e-20)
(0.959314 0.281729 -3.30784e-20)
(0.958986 0.281604 -1.53683e-19)
(0.958669 0.281457 1.59968e-20)
(0.958365 0.281289 3.38992e-19)
(0.958079 0.281094 -1.12422e-19)
(0.957815 0.28087 3.76301e-20)
(0.957576 0.280603 1.05407e-19)
(0.957364 0.280297 -1.43405e-19)
(0.957182 0.279926 -2.65724e-20)
(0.957032 0.279487 2.02505e-19)
(0.956915 0.278951 2.32217e-19)
(0.956826 0.278338 -1.82135e-19)
(0.956751 0.277695 -5.56484e-19)
(0.956685 0.277005 -7.79621e-19)
(0.956637 0.276182 1.27702e-18)
(0.956615 0.275164 3.37629e-19)
(0.95661 0.274017 2.07422e-19)
(0.956546 0.272665 1.11613e-18)
(0.956383 0.271111 -1.10183e-18)
(0.956167 0.269344 6.70656e-19)
(0.95591 0.267328 -7.62571e-20)
(0.955615 0.265034 1.5859e-19)
(0.955277 0.262427 -1.55898e-18)
(0.95489 0.259475 3.54724e-18)
(0.954449 0.256131 -4.79374e-18)
(0.953927 0.25238 3.03291e-18)
(0.953325 0.248177 -9.4103e-18)
(0.95259 0.243546 3.36542e-18)
(0.951738 0.238466 7.10087e-18)
(0.950685 0.233021 -1.21985e-17)
(0.949442 0.227217 -4.32157e-18)
(0.948248 0.220901 -1.91609e-18)
(0.946955 0.214088 -2.21292e-18)
(0.945857 0.20677 -8.39173e-18)
(0.944872 0.198731 8.03558e-19)
(0.944366 0.189798 4.07268e-18)
(0.944596 0.179262 -4.89534e-18)
(0.945971 0.166686 -1.1917e-18)
(0.947615 0.153632 -1.80883e-18)
(0.960538 0.121317 2.02233e-18)
(0.964426 0.282782 3.13091e-21)
(0.964272 0.282775 -2.66204e-21)
(0.964116 0.282736 2.48757e-21)
(0.963948 0.282722 1.61965e-20)
(0.963769 0.282699 2.3963e-20)
(0.96358 0.282676 -9.42618e-20)
(0.963378 0.28265 6.90574e-20)
(0.963165 0.282624 1.46564e-20)
(0.962938 0.282597 -4.36243e-21)
(0.962698 0.282568 -3.22975e-20)
(0.962446 0.282535 1.00577e-19)
(0.962179 0.282501 -3.33021e-20)
(0.961899 0.282462 -4.65856e-20)
(0.961605 0.282419 -1.39458e-19)
(0.961297 0.282369 2.82965e-19)
(0.960978 0.282313 -5.99078e-20)
(0.960648 0.282246 -5.10939e-20)
(0.960307 0.282171 -1.48802e-19)
(0.959959 0.282082 1.66149e-19)
(0.959606 0.281983 9.21826e-20)
(0.95925 0.281867 -4.07983e-20)
(0.958895 0.281737 7.46641e-20)
(0.958544 0.281587 -3.16467e-19)
(0.958202 0.281417 2.23367e-20)
(0.957871 0.281221 1.79514e-19)
(0.957555 0.280999 -3.53854e-20)
(0.957259 0.280733 -5.42064e-19)
(0.956984 0.280431 5.40389e-20)
(0.956735 0.280065 4.91678e-19)
(0.956514 0.279633 -1.23288e-19)
(0.956324 0.279103 -2.59207e-19)
(0.95616 0.278495 1.32891e-19)
(0.95601 0.277855 4.506e-19)
(0.955869 0.277166 1.09197e-18)
(0.955748 0.276339 -1.82931e-19)
(0.955655 0.275313 2.03948e-19)
(0.955583 0.274153 -1.82285e-18)
(0.955468 0.272781 -5.95868e-19)
(0.955265 0.271208 3.63011e-19)
(0.955008 0.269421 -1.46284e-18)
(0.954713 0.267387 -3.91299e-19)
(0.954378 0.265077 7.50498e-19)
(0.954003 0.262461 4.71963e-19)
(0.953579 0.259506 1.69154e-18)
(0.953102 0.256169 6.32545e-18)
(0.952548 0.252437 -5.36179e-18)
(0.95192 0.248262 8.9242e-18)
(0.951168 0.243665 7.40123e-18)
(0.950312 0.238621 9.11847e-20)
(0.949265 0.233206 9.99652e-18)
(0.948047 0.227416 -1.43795e-17)
(0.946879 0.221092 -1.6771e-17)
(0.945621 0.214232 1.25449e-17)
(0.944563 0.206823 1.00565e-17)
(0.94362 0.198655 -3.37604e-18)
(0.943148 0.18955 -1.93318e-17)
(0.943404 0.17881 4.06639e-18)
(0.944826 0.166008 -2.07415e-18)
(0.946471 0.152736 -2.02879e-18)
(0.960196 0.120231 -3.58446e-19)
(0.964423 0.282983 -3.09468e-21)
(0.964268 0.282982 3.42176e-21)
(0.964111 0.282944 2.3744e-20)
(0.963942 0.28293 -3.13388e-20)
(0.963762 0.282906 5.79625e-20)
(0.963571 0.282882 -8.62261e-20)
(0.963368 0.282855 2.46309e-20)
(0.963153 0.282827 -1.28933e-21)
(0.962924 0.282797 5.64232e-20)
(0.962683 0.282765 -2.99215e-20)
(0.962429 0.28273 8.78819e-21)
(0.962161 0.282692 9.44891e-21)
(0.961879 0.28265 -1.4768e-19)
(0.961582 0.282603 4.50092e-20)
(0.961271 0.282549 1.04591e-19)
(0.960947 0.282487 2.91655e-21)
(0.96061 0.282415 -1.77144e-19)
(0.960261 0.282333 7.16017e-20)
(0.959901 0.282238 3.40163e-19)
(0.959534 0.282133 -2.23983e-19)
(0.959159 0.282009 -1.68123e-19)
(0.958781 0.281874 1.4592e-19)
(0.958402 0.281718 8.89519e-20)
(0.958025 0.281543 1.0188e-19)
(0.957654 0.281343 -1.99588e-19)
(0.957293 0.281117 -4.28186e-19)
(0.956945 0.280849 3.32706e-19)
(0.956612 0.280546 4.73258e-19)
(0.956301 0.28018 1.13162e-19)
(0.956013 0.279749 -2.38607e-19)
(0.955752 0.27922 1.16047e-19)
(0.955514 0.278614 1.71945e-19)
(0.955289 0.277976 -3.42762e-19)
(0.955073 0.277286 -8.29739e-20)
(0.954876 0.276457 -6.38096e-19)
(0.954708 0.275426 -2.08228e-19)
(0.954566 0.27426 -1.35448e-19)
(0.954395 0.272878 4.94799e-19)
(0.954147 0.271297 -6.31652e-19)
(0.953846 0.269503 2.2253e-19)
(0.953506 0.267463 2.90688e-19)
(0.953127 0.265151 6.6423e-20)
(0.952707 0.262536 -2.36551e-18)
(0.952238 0.259589 -3.39423e-18)
(0.951717 0.256268 -3.39553e-18)
(0.951122 0.252558 6.60659e-18)
(0.950457 0.248411 -5.01942e-19)
(0.949677 0.243845 -3.18004e-18)
(0.948804 0.238829 1.62666e-18)
(0.947753 0.233432 -1.07664e-17)
(0.946548 0.227641 5.44186e-18)
(0.945396 0.221295 1.43357e-17)
(0.944165 0.214372 -1.71855e-18)
(0.943145 0.206852 -1.1024e-17)
(0.942249 0.198538 5.06702e-18)
(0.941818 0.189245 4.19735e-18)
(0.942114 0.178286 3.21134e-18)
(0.943599 0.16524 4.56369e-18)
(0.945282 0.151731 6.28896e-19)
(0.959742 0.118984 1.16255e-18)
(0.964409 0.283192 -2.38522e-21)
(0.964252 0.283187 3.48857e-21)
(0.964092 0.283148 7.39761e-22)
(0.963921 0.283135 1.36684e-20)
(0.963739 0.283112 -2.09392e-20)
(0.963545 0.283088 -4.37429e-20)
(0.96334 0.283061 1.56105e-20)
(0.963123 0.283034 -2.14512e-20)
(0.962892 0.283003 4.68167e-20)
(0.962648 0.28297 -9.66673e-21)
(0.962391 0.282932 -3.18045e-20)
(0.96212 0.282892 2.68084e-20)
(0.961834 0.282846 4.3719e-20)
(0.961533 0.282795 1.20761e-19)
(0.961217 0.282736 -2.21295e-19)
(0.960888 0.28267 1.14036e-19)
(0.960544 0.282593 1.79132e-20)
(0.960186 0.282505 -1.13763e-19)
(0.959815 0.282405 -7.05252e-20)
(0.959434 0.282294 2.3367e-19)
(0.959041 0.282164 -2.4468e-19)
(0.958642 0.282022 7.47379e-20)
(0.958237 0.28186 -1.98706e-19)
(0.95783 0.281678 3.27198e-19)
(0.957423 0.281472 -6.57497e-20)
(0.95702 0.28124 -1.82957e-19)
(0.956625 0.280966 1.49699e-19)
(0.95624 0.28066 2.80065e-19)
(0.95587 0.28029 -2.72194e-19)
(0.955519 0.279856 1.71615e-19)
(0.95519 0.279326 -5.49338e-19)
(0.954882 0.278719 -6.19523e-20)
(0.954583 0.27808 2.52284e-19)
(0.954291 0.277389 -1.43925e-19)
(0.954018 0.276558 -2.8318e-19)
(0.953774 0.275524 -7.25294e-19)
(0.95356 0.274355 9.6822e-19)
(0.95333 0.272969 -3.34289e-19)
(0.953035 0.271389 3.11542e-19)
(0.952687 0.269597 5.6452e-19)
(0.952299 0.267561 3.87772e-19)
(0.95187 0.265256 -3.06595e-19)
(0.951399 0.262652 1.20211e-18)
(0.950879 0.25972 2.36893e-18)
(0.950308 0.256418 -2.33322e-19)
(0.949664 0.252733 -3.69378e-18)
(0.948954 0.248614 -5.3646e-18)
(0.948137 0.244074 -4.61134e-19)
(0.947239 0.239078 3.79064e-18)
(0.946175 0.233689 -1.2701e-19)
(0.944975 0.227885 7.11447e-18)
(0.943832 0.221503 -1.19646e-17)
(0.942626 0.214504 -6.34091e-18)
(0.941641 0.20686 -1.09168e-18)
(0.940792 0.198387 -3.75593e-18)
(0.940406 0.188894 2.02968e-18)
(0.940751 0.177705 -2.34351e-18)
(0.942311 0.164402 -3.76208e-18)
(0.944062 0.150641 6.16191e-19)
(0.959191 0.117597 -1.38923e-18)
(0.964387 0.283415 -3.22478e-21)
(0.964226 0.283415 2.62798e-21)
(0.964064 0.283377 2.09917e-21)
(0.96389 0.283365 -1.53199e-20)
(0.963704 0.283341 1.59183e-20)
(0.963508 0.283317 -8.0048e-21)
(0.963299 0.283288 2.62727e-20)
(0.963078 0.283259 -3.95684e-20)
(0.962844 0.283226 2.18916e-21)
(0.962596 0.28319 2.88803e-21)
(0.962335 0.283151 -3.02455e-20)
(0.96206 0.283107 8.51013e-20)