/*--------------------------------*- C++ -*----------------------------------*\
  =========                 |
  \\      /  F ield         | OpenFOAM: The Open Source CFD Toolbox
   \\    /   O peration     | Website:  https://openfoam.org
    \\  /    A nd           | Version:  6.0
     \\/     M anipulation  |
\*---------------------------------------------------------------------------*/
FoamFile
{
    version     2.0;
    format      ascii;
    class       volVectorField;
    location    "8";
    object      U;
}
// * * * * * * * * * * * * * * * * * * * * * * * * * * * * * * * * * * * * * //

dimensions      [0 1 -1 0 0 0 0];

internalField   nonuniform List<vector> 
13500
(
(1 3.535e-06 -4.8975e-18)
(1 -4.2944e-06 3.3205e-18)
(1 -7.8968e-06 -1.4226e-17)
(1 -1.3652e-05 -9.8521e-18)
(1 -1.4746e-05 1.8403e-17)
(1 -1.4279e-05 3.415e-17)
(1 -9.5082e-06 2.9008e-17)
(0.99999 8.5037e-06 -4.62e-18)
(0.99994 2.8032e-05 1.6795e-17)
(0.99982 6.6791e-05 3.4951e-18)
(0.99576 0.00074791 3.0135e-17)
(1.0191 0.01083 7.8714e-18)
(1 1.0881e-05 3.0342e-18)
(1 -7.7459e-06 -1.0084e-17)
(1 -1.5542e-05 6.7934e-18)
(1 -2.9204e-05 -3.8867e-19)
(1 -2.7873e-05 -4.9082e-19)
(1 -2.6906e-05 -4.1063e-17)
(1 -7.6683e-06 -5.0101e-17)
(0.99994 4.277e-05 -2.6435e-17)
(0.99978 0.00010846 -1.6762e-17)
(0.99987 0.0001726 -1.7278e-18)
(0.98626 0.00217 -1.4272e-17)
(1.0537 0.030605 -4.7662e-18)
(1 1.8105e-05 -3.919e-18)
(1 -1.1395e-05 2.0035e-17)
(1 -2.372e-05 3.5335e-18)
(1 -4.5696e-05 1.1359e-17)
(1 -4.2075e-05 -4.2437e-18)
(1 -4.1221e-05 3.2893e-17)
(1 -7.2679e-06 -7.0528e-18)
(0.9999 7.4999e-05 6.0045e-18)
(0.9996 0.00019463 -2.0336e-17)
(1.0004 0.00029301 2.6254e-17)
(0.97609 0.0032397 -7.467e-18)
(1.0824 0.045109 1.6739e-18)
(1 2.5339e-05 1.0245e-17)
(1 -1.6156e-05 -1.9425e-17)
(1 -3.3283e-05 -1.675e-17)
(1 -6.4651e-05 -7.9706e-19)
(1 -5.8942e-05 6.551e-18)
(1.0001 -5.8399e-05 -9.1258e-19)
(1 -9.8309e-06 6.9488e-17)
(0.99987 0.00010438 1.0819e-17)
(0.99938 0.00028556 2.4046e-17)
(1.0013 0.0004321 -9.5097e-18)
(0.96565 0.0039845 3.6378e-17)
(1.1038 0.055623 -7.6202e-18)
(1 3.2682e-05 -7.1988e-18)
(1 -2.1073e-05 1.6788e-17)
(1 -4.2725e-05 1.4259e-17)
(1 -8.3836e-05 1.4539e-17)
(1.0001 -7.5834e-05 3.2122e-18)
(1.0001 -7.5679e-05 2.4177e-17)
(1 -1.2497e-05 -3.103e-17)
(0.99985 0.00013297 2.1977e-18)
(0.99912 0.00038207 -1.4745e-17)
(1.0027 0.00059296 -2.2688e-18)
(0.95533 0.004456 -9.4252e-18)
(1.1178 0.063284 2.1114e-18)
(0.99999 4.0109e-05 7.2854e-18)
(1 -2.6103e-05 -6.9597e-18)
(1 -5.2105e-05 4.3548e-18)
(1 -0.00010317 -2.8801e-17)
(1.0001 -9.2815e-05 -9.4e-20)
(1.0001 -9.3011e-05 -4.7863e-17)
(1 -1.5272e-05 1.1909e-18)
(0.99984 0.00016064 -1.7639e-17)
(0.9988 0.00048276 5.6145e-18)
(1.0045 0.00078226 -2.2863e-17)
(0.94548 0.0046964 -2.2727e-17)
(1.1253 0.068706 2.0434e-18)
(0.99999 4.761e-05 -1.2059e-18)
(1 -3.1218e-05 -8.3242e-18)
(1 -6.1457e-05 -3.539e-18)
(1.0001 -0.00012263 2.1739e-17)
(1.0001 -0.0001099 -2.9753e-17)
(1.0001 -0.00011041 1.8314e-17)
(1.0001 -1.8111e-05 2.0756e-17)
(0.99984 0.00018728 6.2057e-18)
(0.99841 0.0005863 1.2554e-17)
(1.0066 0.0010064 1.2309e-17)
(0.93639 0.0047438 9.8005e-18)
(1.1271 0.072315 3.2835e-18)
(0.99999 5.5175e-05 -2.4891e-18)
(1 -3.6397e-05 -1.6378e-18)
(1 -7.0817e-05 -3.049e-17)
(1.0001 -0.00014219 -1.0381e-17)
(1.0001 -0.00012711 8.3272e-18)
(1.0001 -0.00012791 3.0016e-17)
(1.0001 -2.0992e-05 1.3213e-17)
(0.99985 0.00021283 5.5407e-18)
(0.99795 0.00069132 -8.206e-18)
(1.009 0.0012692 1.7242e-17)
(0.92829 0.0046345 7.9249e-18)
(1.1243 0.074475 -1.0448e-17)
(0.99999 6.28e-05 -7.7277e-18)
(1 -4.1622e-05 7.0402e-18)
(1 -8.0218e-05 5.1267e-17)
(1.0001 -0.00016183 -1.2452e-17)
(1.0001 -0.00014446 3.1188e-17)
(1.0001 -0.00014552 -5.9262e-17)
(1.0001 -2.3911e-05 -4.4012e-17)
(0.99988 0.00023723 1.0767e-17)
(0.99741 0.00079648 -6.1646e-18)
(1.0116 0.0015721 -9.5089e-18)
(0.92133 0.0044029 -1.4633e-17)
(1.1178 0.07549 1.3673e-17)
(0.99999 7.0481e-05 5.0913e-18)
(0.99999 -4.6881e-05 2.6501e-18)
(1 -8.9678e-05 -4.3428e-17)
(1.0001 -0.00018156 1.7722e-17)
(1.0001 -0.00016197 -1.36e-17)
(1.0001 -0.00016326 2.5276e-17)
(1.0001 -2.687e-05 1.5642e-17)
(0.99993 0.00026046 2.7228e-18)
(0.99679 0.00090049 5.8094e-19)
(1.0143 0.0019148 1.5071e-18)
(0.91563 0.004081 4.6617e-18)
(1.1086 0.075612 -7.1403e-19)
(0.99998 7.8218e-05 -2.7955e-18)
(0.99999 -5.217e-05 -8.6919e-18)
(1 -9.9209e-05 1.0645e-17)
(1.0001 -0.00020135 -3.1272e-18)
(1.0001 -0.00017964 2.0998e-18)
(1.0002 -0.00018114 -2.7704e-17)
(1.0001 -2.9868e-05 -3.6028e-17)
(1 0.00028253 -3.4575e-17)
(0.99608 0.0010021 1.7232e-17)
(1.0172 0.0022952 1.9579e-18)
(0.91123 0.0036979 -1.1825e-17)
(1.0975 0.075049 -5.8978e-18)
(0.99998 8.6011e-05 3.8587e-18)
(0.99999 -5.7488e-05 3.2828e-18)
(1 -0.00010881 5.1307e-18)
(1.0001 -0.00022124 -2.4926e-18)
(1.0001 -0.00019748 -6.294e-18)
(1.0002 -0.00019918 1.0478e-17)
(1.0001 -3.2908e-05 2.0855e-17)
(1.0001 0.00030347 2.136e-17)
(0.99529 0.0011002 1.1075e-17)
(1.0202 0.0027104 -2.4716e-17)
(0.90814 0.0032795 1.2099e-19)
(1.0851 0.07397 -6.8347e-18)
(0.99998 9.3861e-05 -3.8583e-18)
(0.99999 -6.284e-05 6.4565e-18)
(1 -0.00011849 9.3033e-18)
(1.0001 -0.00024121 6.5077e-18)
(1.0002 -0.00021548 -5.8384e-18)
(1.0002 -0.00021741 5.1514e-18)
(1.0001 -3.5994e-05 4.756e-18)
(1.0002 0.00032335 -1.9077e-18)
(0.99441 0.0011939 -1.7898e-17)
(1.0231 0.0031561 2.2922e-17)
(0.90631 0.0028488 1.0769e-19)
(1.0722 0.072514 1.4599e-18)
(0.99997 0.00010177 5.8675e-18)
(0.99998 -6.8229e-05 -5.0404e-18)
(1 -0.00012824 8.1499e-19)
(1.0001 -0.00026129 -5.4295e-18)
(1.0002 -0.00023366 1.326e-17)
(1.0002 -0.00023583 6.2864e-18)
(1.0002 -3.9132e-05 1.914e-17)
(1.0004 0.00034222 -7.0863e-18)
(0.99346 0.0012821 -2.1886e-19)
(1.026 0.0036278 5.6313e-18)
(0.90568 0.0024252 1.7981e-17)
(1.0591 0.070793 9.3095e-19)
(0.99997 0.00010973 1.4155e-18)
(0.99998 -7.3659e-05 1.1187e-17)
(1 -0.00013806 1.556e-17)
(1.0001 -0.00028148 -5.4143e-18)
(1.0002 -0.000252 9.6029e-18)
(1.0002 -0.00025448 -2.9347e-18)
(1.0002 -4.2329e-05 -3.3524e-17)
(1.0005 0.0003602 2.2432e-17)
(0.99242 0.001364 -2.0192e-17)
(1.0289 0.0041202 -3.2478e-17)
(0.90617 0.0020252 -3.9427e-18)
(1.0464 0.068898 8.6336e-19)
(0.99996 0.00011774 -3.6106e-18)
(0.99998 -7.9131e-05 -1.1898e-17)
(1 -0.00014795 -3.7347e-17)
(1.0001 -0.00030179 9.121e-18)
(1.0002 -0.00027051 -1.4572e-17)
(1.0002 -0.00027338 9.4115e-18)
(1.0002 -4.5598e-05 -3.1387e-18)
(1.0007 0.0003774 -1.3504e-17)
(0.99132 0.0014391 4.4314e-18)
(1.0316 0.0046281 1.9395e-17)
(0.90767 0.0016619 -8.2898e-18)
(1.0343 0.066904 1.2034e-17)
(0.99996 0.0001258 3.8003e-19)
(0.99997 -8.4646e-05 8.899e-18)
(1 -0.00015791 2.5786e-17)
(1.0001 -0.00032223 -2.0547e-18)
(1.0002 -0.0002892 -1.4479e-17)
(1.0003 -0.00029253 -1.7539e-17)
(1.0002 -4.8956e-05 1.1983e-17)
(1.001 0.00039396 7.7468e-18)
(0.99015 0.0015066 2.5631e-17)
(1.0341 0.0051463 -2.7159e-18)
(0.91007 0.0013457 2.0625e-18)
(1.023 0.064868 -4.8012e-18)
(0.99995 0.00013391 -2.1318e-18)
(0.99997 -9.0206e-05 -1.0784e-17)
(1 -0.00016793 -1.1636e-17)
(1.0001 -0.00034282 6.866e-18)
(1.0002 -0.00030806 -8.1342e-18)
(1.0003 -0.00031198 -1.4071e-17)
(1.0002 -5.2421e-05 1.1652e-17)
(1.0012 0.00041003 -5.2543e-18)
(0.98892 0.0015662 -3.1726e-17)
(1.0365 0.0056697 -1.5224e-17)
(0.91325 0.0010839 8.9574e-18)
(1.0127 0.062836 -5.2123e-18)
(0.99995 0.00014206 -3.0531e-18)
(0.99996 -9.5812e-05 -4.0767e-18)
(1 -0.00017803 -8.6241e-19)
(1.0001 -0.00036355 -3.007e-17)
(1.0002 -0.0003271 6.8221e-18)
(1.0003 -0.00033173 6.1253e-18)
(1.0002 -5.6021e-05 -2.2144e-17)
(1.0015 0.00042578 -1.7947e-17)
(0.98765 0.0016172 4.6378e-18)
(1.0386 0.0061935 -1.146e-18)
(0.9171 0.00088142 -1.0341e-17)
(1.0035 0.060842 9.851e-19)
(0.99994 0.00015026 3.9711e-18)
(0.99996 -0.00010147 1.8687e-17)
(1 -0.00018821 2.2212e-17)
(1.0001 -0.00038445 2.8294e-18)
(1.0002 -0.00034632 1.8866e-17)
(1.0003 -0.00035181 1.0738e-17)
(1.0002 -5.9786e-05 3.1946e-18)
(1.0019 0.00044138 1.9645e-17)
(0.98633 0.0016595 2.3062e-17)
(1.0405 0.0067133 1.8181e-17)
(0.9215 0.00074097 7.7284e-18)
(0.99551 0.058914 1.1703e-18)
(0.99994 0.00015849 -1.8931e-18)
(0.99995 -0.00010717 -4.4836e-18)
(1 -0.00019845 -2.3664e-17)
(1.0001 -0.00040551 -2.6845e-18)
(1.0003 -0.00036572 -1.4301e-17)
(1.0003 -0.00037225 -5.8123e-18)
(1.0002 -6.3752e-05 -2.0537e-18)
(1.0022 0.00045704 -1.7767e-17)
(0.98498 0.0016927 -2.2057e-17)
(1.0422 0.0072252 9.3209e-18)
(0.92634 0.00066321 5.3621e-19)
(0.9887 0.057069 6.7218e-19)
(0.99993 0.00016677 5.0184e-18)
(0.99995 -0.00011293 -5.8588e-18)
(1 -0.00020877 -2.22e-17)
(1.0001 -0.00042674 5.0989e-17)
(1.0003 -0.00038531 2.0748e-17)
(1.0004 -0.00039305 -1.4225e-17)
(1.0001 -6.7962e-05 2.7589e-17)
(1.0026 0.00047294 2.4016e-17)
(0.9836 0.0017165 3.5797e-17)
(1.0436 0.0077255 -3.4166e-17)
(0.9315 0.00064714 -1.4205e-17)
(0.98305 0.055321 1.773e-19)
(0.99992 0.00017509 -3.6735e-18)
(0.99994 -0.00011874 -1.1761e-18)
(1 -0.00021917 3.7902e-17)
(1.0001 -0.00044816 -3.8549e-17)
(1.0003 -0.00040509 -1.9962e-18)
(1.0004 -0.00041424 4.713e-17)
(1.0001 -7.2462e-05 8.5538e-18)
(1.0031 0.0004893 -3.7082e-18)
(0.98222 0.001731 -2.2203e-17)
(1.0447 0.0082111 4.0266e-17)
(0.9369 0.0006904 -6.026e-18)
(0.97853 0.053678 -2.8175e-19)
(0.99992 0.00018346 -1.8731e-18)
(0.99994 -0.00012462 -2.3437e-18)
(1 -0.00022964 1.9759e-18)
(1.0002 -0.00046978 4.011e-17)
(1.0003 -0.00042507 -1.1263e-17)
(1.0004 -0.00043584 -3.484e-17)
(1.0001 -7.7306e-05 -2.1804e-17)
(1.0036 0.00050632 -3.9942e-18)
(0.98083 0.0017358 7.0231e-18)
(1.0455 0.0086794 -3.3974e-17)
(0.94245 0.00078954 1.0088e-17)
(0.97507 0.052144 3.0586e-18)
(0.99991 0.00019187 3.0955e-18)
(0.99993 -0.00013056 1.6311e-17)
(1 -0.00024019 -1.4559e-17)
(1.0002 -0.00049159 -4.1973e-18)
(1.0003 -0.00044526 -2.1622e-17)
(1.0005 -0.00045786 3.7912e-17)
(1 -8.2554e-05 -1.9147e-17)
(1.0041 0.00052422 1.6571e-17)
(0.97946 0.0017311 -2.1642e-18)
(1.0461 0.0091281 3.1857e-17)
(0.94805 0.00094029 -9.8582e-18)
(0.97259 0.050719 -5.1048e-18)
(0.9999 0.00020033 -5.9372e-19)
(0.99992 -0.00013657 -9.3809e-18)
(1 -0.00025082 -2.0392e-17)
(1.0002 -0.00051361 -1.1509e-17)
(1.0003 -0.00046565 2.0971e-17)
(1.0005 -0.00048033 -4.835e-17)
(0.99997 -8.827e-05 -2.9585e-18)
(1.0047 0.0005432 -2.2387e-17)
(0.9781 0.0017167 3.4984e-18)
(1.0464 0.0095553 -9.1885e-18)
(0.95365 0.0011378 1.0493e-17)
(0.97101 0.049403 2.1658e-18)
(0.99989 0.00020884 3.1113e-18)
(0.99992 -0.00014265 -1.0051e-17)
(1 -0.00026153 -2.0176e-18)
(1.0002 -0.00053585 2.7989e-18)
(1.0003 -0.00048625 6.6392e-18)
(1.0005 -0.00050325 1.3971e-17)
(0.9999 -9.4523e-05 4.8452e-17)
(1.0053 0.00056347 2.6766e-18)
(0.97677 0.0016929 5.7024e-18)
(1.0465 0.0099597 1.0132e-17)
(0.95916 0.0013767 -8.9857e-18)
(0.97023 0.04819 1.6644e-18)
(0.99988 0.0002174 -1.7838e-18)
(0.99991 -0.00014881 1.0042e-17)
(1 -0.00027232 2.8991e-17)
(1.0002 -0.00055831 -2.819e-17)
(1.0003 -0.00050707 -1.033e-17)
(1.0005 -0.00052665 -2.4611e-18)
(0.99982 -0.00010139 -1.597e-17)
(1.0059 0.00058522 2.0775e-18)
(0.97547 0.0016596 -9.8783e-18)
(1.0463 0.01034 -3.7218e-18)
(0.96455 0.0016516 -2.6017e-19)
(0.97017 0.047077 -2.0341e-18)
(0.99988 0.00022602 -1.9178e-18)
(0.9999 -0.00015504 6.0122e-18)
(1 -0.00028321 -7.0003e-19)
(1.0002 -0.000581 9.347e-18)
(1.0004 -0.00052812 -1.9065e-17)
(1.0006 -0.00055053 2.7832e-17)
(0.99974 -0.00010895 7.9717e-18)
(1.0065 0.00060863 -1.9817e-17)
(0.97423 0.001617 -1.2672e-17)
(1.0458 0.010696 -1.4747e-17)
(0.96975 0.001957 1.42e-18)
(0.97072 0.046057 -3.7296e-18)
(0.99987 0.00023468 6.6655e-19)
(0.99989 -0.00016135 -1.4359e-17)
(1 -0.00029419 1.7961e-17)
(1.0002 -0.00060392 2.5862e-17)
(1.0004 -0.0005494 3.7368e-17)
(1.0006 -0.00057492 -2.0443e-17)
(0.99964 -0.00011728 -1.9815e-17)
(1.0072 0.00063388 4.0193e-18)
(0.97305 0.0015653 1.1874e-17)
(1.0451 0.011026 1.1547e-17)
(0.97474 0.0022873 6.6374e-18)
(0.97179 0.045123 3.7068e-18)
(0.99986 0.00024339 1.2777e-18)
(0.99989 -0.00016774 1.1419e-17)
(1 -0.00030527 -4.1266e-17)
(1.0002 -0.00062709 -3.7449e-18)
(1.0004 -0.00057093 -3.105e-17)
(1.0007 -0.00059981 -1.2883e-17)
(0.99953 -0.00012647 2.7488e-20)
(1.008 0.00066112 -4.6048e-18)
(0.97193 0.0015048 -2.3408e-17)
(1.0442 0.01133 -1.844e-17)
(0.97946 0.0026372 -9.0776e-18)
(0.97329 0.044268 -1.8277e-18)
(0.99985 0.00025216 -8.2801e-19)
(0.99988 -0.00017421 -7.4278e-18)
(1 -0.00031646 3.2475e-17)
(1.0002 -0.00065051 -3.5766e-17)
(1.0004 -0.0005927 -2.3401e-18)
(1.0007 -0.00062521 2.7434e-17)
(0.9994 -0.00013662 7.9292e-19)
(1.0087 0.00069049 4.3863e-18)
(0.97088 0.0014358 2.0491e-17)
(1.0431 0.011609 2.3975e-17)
(0.98391 0.0030015 5.1897e-18)
(0.97514 0.043485 -1.0222e-18)
(0.99984 0.00026098 -2.1564e-18)
(0.99987 -0.00018076 -2.7404e-18)
(0.99999 -0.00032775 -1.4397e-17)
(1.0002 -0.00067418 1.7819e-17)
(1.0004 -0.00061473 3.4137e-17)
(1.0007 -0.00065115 -1.2127e-17)
(0.99926 -0.00014781 2.47e-17)
(1.0095 0.00072211 3.2887e-18)
(0.96992 0.0013586 -2.3233e-18)
(1.0417 0.011862 1.0854e-17)
(0.98805 0.0033755 -5.8135e-18)
(0.97725 0.042767 -7.1293e-19)
(0.99983 0.00026984 5.3919e-19)
(0.99986 -0.00018739 -7.2476e-18)
(0.99999 -0.00033916 5.3923e-18)
(1.0002 -0.00069812 -1.8167e-17)
(1.0004 -0.00063703 -3.6118e-17)
(1.0008 -0.00067762 7.6451e-18)
(0.99911 -0.00016014 -3.5636e-17)
(1.0103 0.00075607 -7.5289e-18)
(0.96905 0.0012736 7.5348e-18)
(1.0402 0.01209 -3.4059e-17)
(0.99188 0.0037547 3.9737e-18)
(0.97956 0.042106 2.009e-18)
(0.99981 0.00027876 9.4731e-19)
(0.99985 -0.0001941 1.9634e-17)
(0.99998 -0.00035068 9.0313e-18)
(1.0002 -0.00072233 7.3976e-18)
(1.0004 -0.0006596 2.8884e-17)
(1.0008 -0.00070462 2.2817e-18)
(0.99894 -0.0001737 2.4615e-17)
(1.0111 0.00079244 5.3961e-18)
(0.96827 0.0011813 -2.2912e-17)
(1.0386 0.012292 1.1729e-17)
(0.99538 0.0041349 2.6891e-18)
(0.98201 0.041495 2.0847e-18)
(0.9998 0.00028772 -3.3089e-18)
(0.99984 -0.0002009 -6.4637e-18)
(0.99997 -0.00036233 -7.9314e-18)
(1.0002 -0.00074683 1.2155e-17)
(1.0004 -0.00068246 1.3961e-17)
(1.0009 -0.00073217 -4.5397e-18)
(0.99876 -0.0001886 -2.068e-17)
(1.0119 0.00083128 2.4591e-17)
(0.9676 0.001082 4.2376e-18)
(1.0368 0.012471 -3.5449e-18)
(0.99855 0.0045124 1.1145e-17)
(0.98452 0.040927 -1.4499e-18)
(0.99979 0.00029673 6.7999e-18)
(0.99983 -0.00020779 7.743e-18)
(0.99997 -0.00037411 -8.4346e-18)
(1.0002 -0.00077161 -7.5751e-18)
(1.0004 -0.00070562 -2.0032e-17)
(1.001 -0.00076026 -7.802e-18)
(0.99856 -0.00020492 1.0199e-17)
(1.0128 0.0008726 -3.9454e-17)
(0.96703 0.00097643 1.0388e-17)
(1.0349 0.012625 -4.1929e-18)
(1.0014 0.0048837 -1.1807e-17)
(0.98705 0.040397 4.2122e-18)
(0.99978 0.00030579 -3.0013e-18)
(0.99981 -0.00021476 -1.3606e-17)
(0.99996 -0.00038601 -8.178e-18)
(1.0002 -0.00079668 -1.4379e-17)
(1.0004 -0.00072908 -6.1196e-18)
(1.001 -0.0007889 2.2949e-17)
(0.99835 -0.00022277 -1.0023e-17)
(1.0136 0.00091642 4.3899e-17)
(0.96657 0.00086503 9.802e-18)
(1.0328 0.012756 1.2723e-17)
(1.0039 0.0052459 4.9783e-18)
(0.98956 0.039899 -6.8327e-18)
(0.99977 0.0003149 -1.5925e-18)
(0.9998 -0.00022182 1.012e-17)
(0.99995 -0.00039806 1.6206e-17)
(1.0002 -0.00082205 3.8767e-17)
(1.0005 -0.00075287 8.1111e-18)
(1.0011 -0.00081809 -1.5741e-17)
(0.99812 -0.00024224 4.8362e-18)
(1.0145 0.00096269 -4.7244e-17)
(0.96623 0.00074841 -1.1895e-17)
(1.0307 0.012865 -7.076e-18)
(1.0061 0.0055962 4.8893e-18)
(0.992 0.039426 6.8728e-18)
(0.99975 0.00032405 1.2189e-18)
(0.99979 -0.00022898 2.397e-18)
(0.99995 -0.00041025 -1.5918e-17)
(1.0002 -0.00084774 -6.4563e-18)
(1.0005 -0.00077699 1.0304e-17)
(1.0012 -0.00084783 1.8853e-17)
(0.99788 -0.00026344 1.6829e-17)
(1.0153 0.0010114 4.6701e-18)
(0.966 0.00062719 1.3311e-17)
(1.0285 0.012953 -3.2814e-18)
(1.0079 0.0059325 -8.7312e-18)
(0.99435 0.038975 -1.7723e-18)
(0.99974 0.00033325 -4.9902e-20)
(0.99978 -0.00023622 2.7327e-18)
(0.99994 -0.00042259 3.5572e-18)
(1.0002 -0.00087374 -8.3858e-18)
(1.0005 -0.00080145 9.8691e-20)
(1.0013 -0.00087812 -1.7091e-17)
(0.99762 -0.00028644 -1.1383e-17)
(1.0162 0.0010624 3.4612e-17)
(0.96589 0.00050201 -2.0127e-17)
(1.0263 0.01302 1.2742e-17)
(1.0095 0.0062528 4.6128e-18)
(0.99656 0.03854 -5.0104e-18)
(0.99972 0.0003425 -3.7775e-18)
(0.99977 -0.00024356 -1.2812e-17)
(0.99993 -0.00043507 9.0872e-18)
(1.0002 -0.00090007 -2.2913e-17)
(1.0005 -0.00082627 -2.607e-17)
(1.0013 -0.00090895 -2.3625e-17)
(0.99734 -0.00031135 -2.3213e-17)
(1.0171 0.0011156 -3.5432e-18)
(0.9659 0.00037353 1.7592e-17)
(1.0241 0.013066 -1.0933e-17)
(1.0107 0.0065554 4.5895e-19)
(0.99864 0.038118 4.7199e-18)
(0.99971 0.00035179 7.2918e-18)
(0.99975 -0.000251 1.3393e-17)
(0.99992 -0.00044771 -1.4659e-17)
(1.0002 -0.00092674 1.8811e-17)
(1.0005 -0.00085146 -3.0626e-18)
(1.0014 -0.00094034 1.5486e-17)
(0.99705 -0.00033825 2.7905e-17)
(1.0179 0.0011709 -2.6868e-17)
(0.96603 0.00024243 -8.9267e-18)
(1.0218 0.013094 1.1551e-17)
(1.0117 0.006839 3.9935e-18)
(1.0005 0.037705 -2.2341e-18)
(0.99969 0.00036114 -5.4724e-18)
(0.99974 -0.00025855 -3.9572e-18)
(0.99991 -0.00046052 -3.0682e-18)
(1.0002 -0.00095375 2.1534e-17)
(1.0005 -0.00087703 -6.5545e-18)
(1.0015 -0.00097226 -1.9731e-19)
(0.99675 -0.00036724 -5.4611e-18)
(1.0187 0.0012282 2.1524e-17)
(0.96628 0.00010938 -8.4833e-18)
(1.0196 0.013104 -7.9325e-18)
(1.0125 0.0071027 -1.1809e-17)
(1.0023 0.037298 2.5976e-18)
(0.99968 0.00037053 3.7209e-18)
(0.99972 -0.00026619 -5.0198e-18)
(0.9999 -0.00047348 7.0176e-18)
(1.0002 -0.00098111 -3.2679e-17)
(1.0005 -0.000903 4.4375e-17)
(1.0016 -0.0010047 6.4216e-18)
(0.99643 -0.00039841 2.1563e-17)
(1.0196 0.0012873 -1.3326e-17)
(0.96664 -2.4927e-05 1.0477e-19)
(1.0173 0.013097 5.904e-18)
(1.0129 0.0073456 -2.3026e-18)
(1.0038 0.036895 -9.7712e-19)
(0.99966 0.00037996 -1.0644e-18)
(0.99971 -0.00027394 9.8175e-19)
(0.99989 -0.00048662 1.7109e-17)
(1.0002 -0.0010088 8.9087e-18)
(1.0005 -0.00092939 -2.2189e-17)
(1.0017 -0.0010377 -1.2583e-17)
(0.9961 -0.00043182 3.7736e-18)
(1.0204 0.0013479 -6.4846e-18)
(0.96712 -0.00015982 1.4195e-17)
(1.0152 0.013074 -3.8742e-18)
(1.0132 0.0075673 1.1065e-17)
(1.0052 0.036492 -3.5706e-18)
(0.99965 0.00038945 -1.8536e-18)
(0.99969 -0.0002818 -9.4643e-18)
(0.99988 -0.00049992 -5.0856e-18)
(1.0002 -0.0010369 3.5797e-17)
(1.0005 -0.00095619 -1.978e-17)
(1.0019 -0.0010712 -1.0695e-18)
(0.99575 -0.00046758 -5.6331e-17)
(1.0212 0.0014099 6.3669e-18)
(0.96771 -0.00029462 -2.6573e-17)
(1.013 0.013036 -8.3751e-18)
(1.0133 0.0077674 -1.1076e-17)
(1.0064 0.036088 2.1197e-18)
(0.99963 0.00039898 -8.0074e-19)
(0.99968 -0.00028978 5.8633e-18)
(0.99987 -0.00051341 -2.0993e-18)
(1.0002 -0.0010654 -2.0842e-17)
(1.0005 -0.00098345 2.8426e-17)
(1.002 -0.0011053 -2.6257e-18)
(0.99539 -0.00050574 2.9843e-17)
(1.0219 0.0014731 -3.9228e-18)
(0.96841 -0.00042869 1.2893e-17)
(1.011 0.012983 1.0478e-17)
(1.0132 0.0079458 9.1367e-18)
(1.0074 0.035682 -5.1358e-19)
(0.99961 0.00040856 4.5384e-18)
(0.99966 -0.00029787 -3.5103e-18)
(0.99986 -0.00052707 -7.3512e-18)
(1.0002 -0.0010943 2.2765e-17)
(1.0005 -0.0010112 2.0891e-18)
(1.0021 -0.0011398 3.2514e-17)
(0.99502 -0.0005464 5.1516e-18)
(1.0227 0.0015372 1.8724e-17)
(0.96921 -0.00056139 4.8374e-18)
(1.009 0.012917 -3.3901e-18)
(1.0129 0.0081026 1.1898e-18)
(1.0082 0.035271 4.6389e-19)
(0.99959 0.0004182 1.2952e-18)
(0.99965 -0.00030608 1.4342e-18)
(0.99985 -0.00054092 -6.6696e-18)
(1.0002 -0.0011235 -4.5333e-17)
(1.0005 -0.0010393 6.3255e-18)
(1.0023 -0.0011749 2.8285e-18)
(0.99463 -0.00058961 -2.2343e-17)
(1.0234 0.0016019 2.6456e-19)
(0.97012 -0.00069214 1.428e-17)
(1.0071 0.012839 -2.1811e-18)
(1.0125 0.0082381 -5.7971e-18)
(1.0088 0.034856 2.7396e-18)
(0.99957 0.00042788 -5.5437e-18)
(0.99963 -0.00031442 6.0843e-18)
(0.99984 -0.00055496 1.0971e-18)
(1.0002 -0.0011532 2.5182e-17)
(1.0005 -0.001068 -2.8849e-17)
(1.0024 -0.0012105 -1.2458e-17)
(0.99424 -0.00063546 2.2856e-17)
(1.024 0.0016671 -1.2694e-17)
(0.97112 -0.00082036 -2.2594e-17)
(1.0053 0.012749 -1.0786e-17)
(1.0119 0.0083527 7.3852e-18)
(1.0093 0.034434 9.144e-19)
(0.99955 0.00043761 -5.8725e-19)
(0.99961 -0.00032289 -6.1244e-18)
(0.99982 -0.00056919 1.1713e-17)
(1.0002 -0.0011833 1.1174e-17)
(1.0005 -0.0010972 3.5644e-17)
(1.0026 -0.0012465 4.7946e-18)
(0.99383 -0.00068399 2.0315e-17)
(1.0247 0.0017323 3.2193e-17)
(0.9722 -0.00094554 -1.01e-18)
(1.0036 0.012648 1.8975e-17)
(1.0113 0.0084468 -7.8059e-19)
(1.0096 0.034007 -2.667e-18)
(0.99953 0.0004474 5.6892e-18)
(0.99959 -0.00033149 -8.9203e-18)
(0.99981 -0.00058362 -1.7786e-17)
(1.0002 -0.0012138 -2.963e-18)
(1.0004 -0.0011269 -3.8698e-17)
(1.0027 -0.001283 -1.4255e-17)
(0.99342 -0.00073528 -7.0441e-18)
(1.0253 0.0017975 2.4935e-19)
(0.97338 -0.0010672 2.943e-17)
(1.002 0.012538 4.379e-18)
(1.0106 0.0085211 -1.0151e-17)
(1.0098 0.033572 1.6008e-18)
(0.99951 0.00045724 -6.3795e-18)
(0.99957 -0.00034023 1.1141e-17)
(0.9998 -0.00059824 9.309e-18)
(1.0002 -0.0012448 -5.9136e-18)
(1.0004 -0.0011572 3.113e-17)
(1.0029 -0.00132 1.7068e-17)
(0.99299 -0.00078937 -5.5707e-18)
(1.0258 0.0018622 -3.2461e-17)
(0.97462 -0.0011849 -9.9512e-19)
(1.0006 0.012419 -1.2503e-17)
(1.0098 0.0085763 1.202e-17)
(1.0099 0.03313 -2.0973e-18)
(0.99949 0.00046713 3.8342e-18)
(0.99955 -0.00034912 -2.1335e-18)
(0.99978 -0.00061308 1.2334e-17)
(1.0002 -0.0012762 -2.4908e-17)
(1.0004 -0.001188 1.0175e-17)
(1.0031 -0.0013574 -6.1266e-18)
(0.99257 -0.00084633 -1.2017e-17)
(1.0263 0.0019262 -2.6112e-18)
(0.97594 -0.0012982 -3.5569e-17)
(0.99929 0.012293 8.2556e-18)
(1.009 0.0086132 -1.1016e-17)
(1.0098 0.032682 6.9979e-19)
(0.99947 0.00047708 3.0357e-19)
(0.99953 -0.00035815 -6.7128e-18)
(0.99977 -0.00062812 7.009e-18)
(1.0002 -0.001308 3.2796e-17)
(1.0004 -0.0012194 -2.4224e-17)
(1.0033 -0.0013952 1.9744e-17)
(0.99213 -0.00090621 -6.9532e-18)
(1.0268 0.0019892 6.0353e-18)
(0.97733 -0.0014068 4.2274e-17)
(0.99811 0.012158 -1.533e-17)
(1.0081 0.0086326 1.6847e-17)
(1.0096 0.032226 1.982e-18)
(0.99945 0.00048708 5.4487e-19)
(0.99951 -0.00036733 -1.3921e-18)
(0.99975 -0.00064338 -1.0079e-17)
(1.0002 -0.0013404 -4.9323e-18)
(1.0004 -0.0012515 2.1127e-17)
(1.0034 -0.0014335 1.7024e-19)
(0.99169 -0.00096904 -1.3676e-17)
(1.0272 0.0020509 -1.4429e-17)
(0.97877 -0.0015105 -1.7705e-17)
(0.99707 0.012018 -1.4518e-18)
(1.0072 0.0086355 3.0929e-18)
(1.0094 0.031765 2.0832e-19)
(0.99943 0.00049714 -8.7593e-19)
(0.99949 -0.00037667 1.6535e-17)
(0.99974 -0.00065885 -6.7261e-18)
(1.0002 -0.0013732 -2.7916e-17)
(1.0003 -0.0012841 9.7508e-18)
(1.0037 -0.0014721 -5.032e-17)
(0.99125 -0.0010349 6.8165e-18)
(1.0275 0.002111 9.0787e-18)
(0.98026 -0.001609 8.2211e-19)
(0.99618 0.011872 1.5583e-17)
(1.0064 0.0086228 -1.0241e-18)
(1.0091 0.031297 -5.5403e-18)
(0.9994 0.00050726 -2.3117e-19)
(0.99947 -0.00038617 -3.2362e-19)
(0.99972 -0.00067455 9.0583e-18)
(1.0002 -0.0014065 1.724e-17)
(1.0003 -0.0013174 -3.8718e-17)
(1.0039 -0.0015111 2.1674e-18)
(0.9908 -0.0011037 1.2222e-17)
(1.0278 0.0021693 1.4234e-17)
(0.98179 -0.0017021 -1.122e-17)
(0.99542 0.011722 -1.5181e-17)
(1.0056 0.0085955 -1.674e-17)
(1.0087 0.030823 5.8527e-18)
(0.99938 0.00051744 -1.5147e-18)
(0.99945 -0.00039584 4.6334e-19)
(0.9997 -0.00069048 -4.3672e-18)
(1.0002 -0.0014403 -1.1515e-17)
(1.0003 -0.0013515 2.1474e-17)
(1.0041 -0.0015505 2.7033e-17)
(0.99036 -0.0011757 3.5675e-18)
(1.0281 0.0022255 7.2202e-18)
(0.98335 -0.0017897 1.7898e-17)
(0.99481 0.011567 2.553e-18)
(1.0047 0.0085545 1.2386e-17)
(1.0083 0.030344 -3.5538e-18)
(0.99936 0.00052768 2.789e-18)
(0.99943 -0.00040568 8.538e-19)
(0.99968 -0.00070664 -6.2453e-18)
(1.0002 -0.0014746 1.7004e-18)
(1.0003 -0.0013862 -1.1644e-17)
(1.0043 -0.0015903 -6.4842e-18)
(0.98991 -0.0012507 -1.3174e-18)
(1.0283 0.0022793 -3.2608e-17)
(0.98494 -0.0018718 3.5209e-18)
(0.99433 0.011409 -5.1891e-18)
(1.004 0.0085009 -5.0378e-18)
(1.0078 0.029861 -4.2875e-18)
(0.99933 0.00053798 -5.6931e-18)
(0.9994 -0.0004157 1.1156e-18)
(0.99967 -0.00072304 3.3129e-18)
(1.0002 -0.0015095 -2.1393e-17)
(1.0002 -0.0014216 -1.3284e-17)
(1.0046 -0.0016304 -3.0135e-17)
(0.98947 -0.0013289 6.3691e-18)
(1.0284 0.0023304 1.3312e-17)
(0.98655 -0.0019483 -3.7739e-17)
(0.99399 0.011248 2.392e-17)
(1.0033 0.0084357 -5.4548e-18)
(1.0074 0.029374 2.764e-18)
(0.9993 0.00054834 5.2269e-18)
(0.99938 -0.0004259 2.496e-18)
(0.99965 -0.00073969 1.2747e-18)
(1.0002 -0.0015448 6.7792e-18)
(1.0002 -0.0014578 -2.9399e-18)
(1.0048 -0.0016707 5.8427e-17)
(0.98904 -0.0014103 2.2876e-17)
(1.0285 0.0023787 -2.0738e-17)
(0.98818 -0.0020194 3.6334e-17)
(0.99379 0.011085 -8.9246e-18)
(1.0026 0.0083598 -3.6033e-18)
(1.0069 0.028884 -1.3818e-18)
(0.99928 0.00055876 1.2831e-18)
(0.99935 -0.00043628 -1.5797e-17)
(0.99963 -0.00075659 2.5526e-18)
(1.0002 -0.0015807 3.0484e-17)
(1.0001 -0.0014948 2.272e-17)
(1.0051 -0.0017114 -9.2968e-19)
(0.9886 -0.0014948 -3.1687e-17)
(1.0285 0.0024238 6.2656e-18)
(0.98981 -0.002085 -8.1992e-18)
(0.99371 0.01092 -1.2365e-17)
(1.0021 0.0082743 9.1625e-18)
(1.0065 0.028391 1.2862e-18)
(0.99925 0.00056925 -5.0739e-18)
(0.99933 -0.00044685 -5.2703e-18)
(0.99961 -0.00077375 -1.383e-17)
(1.0002 -0.0016172 -2.5575e-17)
(1.0001 -0.0015327 -2.2873e-17)
(1.0053 -0.0017523 -2.6566e-17)
(0.98818 -0.0015825 5.8566e-18)
(1.0285 0.0024655 4.8844e-17)
(0.99143 -0.0021453 3.5776e-18)
(0.99376 0.010755 -1.0855e-18)
(1.0016 0.0081801 -3.2374e-18)
(1.006 0.027897 -3.4633e-18)
(0.99922 0.0005798 3.7662e-18)
(0.9993 -0.00045762 4.8922e-18)
(0.99959 -0.00079117 2.1317e-17)
(1.0002 -0.0016542 1.7717e-17)
(1 -0.0015714 2.2258e-17)
(1.0056 -0.0017935 -9.8602e-19)
(0.98776 -0.0016733 -3.264e-17)
(1.0284 0.0025036 -2.6409e-17)
(0.99305 -0.0022005 8.8895e-18)
(0.99393 0.010589 4.2797e-18)
(1.0012 0.0080781 7.3067e-18)
(1.0056 0.027401 2.6737e-18)
(0.99919 0.00059042 -2.6604e-18)
(0.99928 -0.00046859 7.6795e-18)
(0.99956 -0.00080886 -1.4107e-17)
(1.0002 -0.0016918 2.5673e-18)
(0.99998 -0.0016109 1.0358e-17)
(1.0059 -0.001835 -2.5987e-18)
(0.98736 -0.0017674 7.321e-18)
(1.0282 0.0025379 7.34e-18)
(0.99465 -0.0022509 2.936e-18)
(0.99422 0.010422 1.0595e-17)
(1.0009 0.0079692 -8.79e-18)
(1.0053 0.026906 5.3961e-19)
(0.99916 0.0006011 4.0183e-18)
(0.99925 -0.00047977 4.7622e-19)
(0.99954 -0.00082683 -6.6082e-18)
(1.0002 -0.0017299 1.0242e-18)
(0.99991 -0.0016514 -1.6952e-18)
(1.0062 -0.0018766 -2.5702e-17)
(0.98696 -0.0018647 2.0473e-17)
(1.028 0.0025682 2.6072e-17)
(0.99623 -0.0022966 -1.4573e-17)
(0.99461 0.010257 -1.4753e-17)
(1.0006 0.0078542 -2.5747e-18)
(1.005 0.026411 4.6078e-18)
(0.99913 0.00061184 -2.9192e-18)
(0.99922 -0.00049115 -3.6667e-19)
(0.99952 -0.00084509 8.2142e-18)
(1.0001 -0.0017687 -1.9627e-17)
(0.99985 -0.0016928 -1.5389e-17)
(1.0065 -0.0019184 3.2453e-17)
(0.98658 -0.0019652 -3.1329e-18)
(1.0278 0.0025942 -2.7599e-17)
(0.99778 -0.002338 3.7182e-18)
(0.9951 0.010091 1.3894e-17)
(1.0005 0.0077341 8.7235e-18)
(1.0047 0.025918 -1.6616e-18)
(0.9991 0.00062265 2.9027e-19)
(0.99919 -0.00050275 2.6876e-18)
(0.99949 -0.00086364 4.4908e-18)
(1.0001 -0.001808 1.0147e-17)
(0.99978 -0.0017353 3.0188e-17)
(1.0068 -0.0019605 7.5763e-18)
(0.98622 -0.0020688 -2.7298e-17)
(1.0275 0.0026159 2.5919e-18)
(0.99929 -0.0023754 9.5882e-18)
(0.99568 0.0099271 -1.2528e-17)
(1.0005 0.0076094 -5.9023e-18)
(1.0045 0.025426 -1.925e-18)
(0.99907 0.00063353 8.2443e-19)
(0.99916 -0.00051457 -4.6687e-19)
(0.99947 -0.0008825 -1.1854e-17)
(1.0001 -0.001848 -2.1871e-19)
(0.99971 -0.0017787 -5.9696e-17)
(1.0071 -0.0020026 9.3482e-18)
(0.98587 -0.0021756 2.6813e-17)
(1.0271 0.0026329 -7.4403e-18)
(1.0008 -0.0024092 -1.0035e-17)
(0.99635 0.0097641 2.0815e-17)
(1.0005 0.007481 7.0688e-18)
(1.0044 0.024937 4.9915e-18)
(0.99904 0.00064447 8.8607e-19)
(0.99913 -0.0005266 -9.6995e-19)
(0.99944 -0.00090166 2.1443e-17)
(1.0001 -0.0018885 4.6848e-18)
(0.99963 -0.0018232 5.2921e-17)
(1.0074 -0.002045 -3.2924e-17)
(0.98554 -0.0022856 -8.9888e-18)
(1.0267 0.0026452 7.0103e-18)
(1.0022 -0.0024396 3.4668e-18)
(0.99709 0.0096025 -1.1714e-17)
(1.0007 0.0073494 -1.1417e-18)
(1.0043 0.02445 -3.6813e-18)
(0.99901 0.00065548 -3.4618e-18)
(0.9991 -0.00053887 1.6303e-18)
(0.99942 -0.00092114 -1.2605e-17)
(1.0001 -0.0019297 6.1639e-18)
(0.99954 -0.0018688 -2.0111e-17)
(1.0078 -0.0020874 4.4652e-18)
(0.98522 -0.0023987 3.5998e-17)
(1.0262 0.0026526 -2.6252e-17)
(1.0036 -0.0024672 -1.2736e-17)
(0.99791 0.0094425 -1.1601e-17)
(1.0009 0.0072154 -5.6282e-18)
(1.0043 0.023968 -1.0125e-18)
(0.99897 0.00066655 4.3137e-18)
(0.99907 -0.00055137 -3.8713e-18)
(0.99939 -0.00094095 -1.224e-17)
(1.0001 -0.0019715 -9.8272e-18)
(0.99945 -0.0019155 -3.2908e-17)
(1.0081 -0.00213 -2.0736e-17)
(0.98493 -0.0025148 -2.2074e-17)
(1.0257 0.002655 2.4415e-17)
(1.0049 -0.0024923 1.2358e-17)
(0.99878 0.0092841 1.7574e-17)
(1.0013 0.0070795 -2.2071e-18)
(1.0044 0.02349 4.8887e-18)
(0.99894 0.00067769 -6.9346e-18)
(0.99904 -0.00056411 6.2752e-18)
(0.99936 -0.0009611 2.9976e-17)
(1.0001 -0.0020139 -2.3195e-18)
(0.99936 -0.0019634 3.6414e-17)
(1.0084 -0.0021727 1.5536e-18)
(0.98467 -0.002634 -2.1162e-17)
(1.0251 0.0026521 9.569e-18)
(1.0062 -0.0025153 -4.456e-18)
(0.99971 0.0091276 -3.6791e-18)
(1.0017 0.0069421 7.1588e-18)
(1.0045 0.023016 -3.3062e-18)
(0.9989 0.00068889 5.6839e-18)
(0.99901 -0.00057708 -8.5291e-18)
(0.99933 -0.00098159 -3.4959e-17)
(1.0002 -0.002057 1.5178e-17)
(0.99926 -0.0020125 -2.5959e-17)
(1.0088 -0.0022155 2.8678e-17)
(0.98442 -0.0027562 6.8923e-18)
(1.0245 0.002644 -9.1035e-18)
(1.0074 -0.0025366 -2.1414e-18)
(1.0007 0.0089728 -9.2291e-18)
(1.0022 0.0068038 -1.1683e-17)
(1.0047 0.022548 4.5761e-18)
(0.99886 0.00070017 -4.1881e-18)
(0.99897 -0.00059031 2.8366e-18)
(0.9993 -0.0010024 2.1246e-17)
(1.0002 -0.0021008 -2.0011e-17)
(0.99915 -0.0020629 4.1781e-17)
(1.0091 -0.0022584 -2.2274e-17)
(0.9842 -0.0028814 4.0193e-18)
(1.0239 0.0026304 -1.4408e-17)
(1.0085 -0.0025568 7.0001e-18)
(1.0017 0.0088199 -1.2962e-18)
(1.0028 0.0066649 4.9993e-18)
(1.005 0.022085 -2.0324e-18)
(0.99883 0.0007115 5.1378e-18)
(0.99894 -0.00060378 2.2094e-18)
(0.99927 -0.0010237 -1.4171e-17)
(1.0002 -0.0021452 -4.0951e-19)
(0.99904 -0.0021146 -1.8366e-18)
(1.0095 -0.0023014 5.383e-18)
(0.98401 -0.0030094 3.8237e-17)
(1.0232 0.0026113 9.8578e-18)
(1.0096 -0.0025761 -2.0759e-17)
(1.0027 0.0086686 -6.7079e-18)
(1.0034 0.0065257 -4.7147e-18)
(1.0054 0.021627 2.1431e-18)
(0.99879 0.00072291 -5.8905e-18)