/*--------------------------------*- C++ -*----------------------------------*\
  =========                 |
  \\      /  F ield         | OpenFOAM: The Open Source CFD Toolbox
   \\    /   O peration     | Website:  https://openfoam.org
    \\  /    A nd           | Version:  6.0
     \\/     M anipulation  |
\*---------------------------------------------------------------------------*/
FoamFile
{
    version     2.0;
    format      ascii;
    class       volScalarField;
    location    "7";
    object      p;
}
// * * * * * * * * * * * * * * * * * * * * * * * * * * * * * * * * * * * * * //

dimensions      [0 2 -2 0 0 0 0];

internalField   nonuniform List<scalar> 
62000
(
0.029849
0.0299384
0.0300268
0.0301146
0.0302023
0.0302903
0.0303793
0.0304695
0.0305618
0.0306562
0.0307541
0.0308546
0.0309601
0.0310685
0.0311831
0.0313007
0.0314251
0.0315523
0.0316863
0.0318223
0.0319643
0.0321063
0.0322521
0.0323942
0.0325359
0.0326677
0.0327909
0.0328934
0.0329743
0.0330194
0.0330258
0.032979
0.0328698
0.0326788
0.032387
0.0319875
0.0314792
0.0308647
0.0301544
0.0293727
0.0285635
0.0277933
0.0271519
0.0267463
0.0266872
0.0270688
0.0279303
0.0292303
0.030814
0.032407
0.0336799
0.0342538
0.0338795
0.0323899
0.0298989
0.0265839
0.0228235
0.0188241
0.0154159
0.0130858
0.0298331
0.0299374
0.0300393
0.0301388
0.0302367
0.0303331
0.030429
0.0305245
0.0306208
0.030718
0.0308176
0.0309191
0.0310247
0.0311329
0.0312468
0.0313636
0.0314869
0.0316133
0.0317461
0.0318815
0.0320224
0.0321643
0.0323096
0.0324529
0.0325959
0.0327318
0.0328588
0.032968
0.0330549
0.0331093
0.0331233
0.0330867
0.0329874
0.032806
0.0325273
0.0321426
0.0316492
0.0310476
0.0303461
0.0295672
0.0287535
0.0279712
0.0273125
0.0268906
0.0268295
0.0272443
0.0282036
0.0297009
0.0316143
0.0336904
0.0355951
0.036907
0.0373023
0.0365019
0.0345195
0.031439
0.0276116
0.0231946
0.0197002
0.0157245
0.0297872
0.0298833
0.0299813
0.03008
0.0301798
0.0302805
0.0303825
0.0304858
0.0305909
0.0306978
0.0308077
0.0309197
0.0310362
0.0311553
0.0312801
0.0314078
0.0315419
0.031679
0.0318224
0.0319681
0.032119
0.0322705
0.0324247
0.0325767
0.0327281
0.0328719
0.0330053
0.0331201
0.0332102
0.0332655
0.0332757
0.0332299
0.0331134
0.0329089
0.0325984
0.0321722
0.0316225
0.0309431
0.030135
0.0292127
0.0282099
0.0271834
0.0262161
0.0254156
0.0249051
0.0248084
0.0252155
0.0261547
0.0275509
0.0292024
0.0308199
0.0320087
0.0324403
0.0318065
0.0300821
0.0273089
0.0238442
0.019873
0.0172925
0.0130913
0.029784
0.0298604
0.0299444
0.0300337
0.0301285
0.0302282
0.0303327
0.0304415
0.030555
0.0306724
0.0307947
0.0309207
0.0310523
0.0311875
0.0313289
0.0314738
0.0316253
0.0317799
0.0319406
0.0321033
0.0322707
0.0324379
0.032607
0.0327733
0.0329382
0.0330945
0.0332393
0.0333648
0.0334645
0.0335276
0.0335421
0.0334959
0.0333748
0.0331593
0.0328348
0.0323881
0.0318069
0.0310785
0.030196
0.0291652
0.0280087
0.0267711
0.0255224
0.0243579
0.0233927
0.0227506
0.0225336
0.0227982
0.0235126
0.0245327
0.0256273
0.0264533
0.0267122
0.0261049
0.0245965
0.0222267
0.0193646
0.0162663
0.0148717
0.0118071
0.0298703
0.0299305
0.0300014
0.0300806
0.0301684
0.0302643
0.0303682
0.0304796
0.0305984
0.0307238
0.0308564
0.0309947
0.0311403
0.0312909
0.0314488
0.031611
0.0317804
0.0319532
0.0321325
0.0323139
0.0324999
0.0326855
0.0328726
0.0330566
0.0332391
0.0334128
0.0335752
0.0337192
0.0338387
0.0339226
0.0339586
0.0339342
0.0338344
0.0336447
0.0333487
0.0329348
0.0323874
0.0316888
0.0308261
0.0297978
0.0286173
0.0273173
0.0259542
0.0246089
0.0233841
0.022396
0.0217491
0.0215151
0.0216942
0.0221878
0.0228183
0.0232951
0.0233575
0.0227347
0.0214004
0.019402
0.0171144
0.0148552
0.0144367
0.012659
0.03006
0.0301097
0.0301715
0.0302435
0.0303259
0.0304185
0.0305211
0.0306332
0.030755
0.0308854
0.0310253
0.0311729
0.0313299
0.0314934
0.031666
0.0318443
0.0320309
0.0322219
0.0324199
0.0326207
0.0328262
0.0330316
0.0332386
0.0334429
0.0336462
0.0338415
0.0340268
0.0341962
0.0343442
0.0344605
0.0345328
0.0345491
0.034497
0.0343611
0.0341316
0.0337954
0.0333367
0.0327347
0.031973
0.0310444
0.0299548
0.0287267
0.0274037
0.0260518
0.0247584
0.0236274
0.0227575
0.0222255
0.0220498
0.022166
0.022439
0.0226247
0.0225027
0.021834
0.0206034
0.0188751
0.0170096
0.0153737
0.0155997
0.014707
0.030414
0.0304578
0.0305137
0.0305801
0.0306577
0.0307463
0.030846
0.0309567
0.0310784
0.0312104
0.0313534
0.0315059
0.0316692
0.0318409
0.0320231
0.0322125
0.0324117
0.0326167
0.0328301
0.0330474
0.0332707
0.0334949
0.0337218
0.0339472
0.0341728
0.034392
0.0346037
0.0348031
0.0349855
0.0351416
0.0352599
0.0353295
0.0353382
0.0352772
0.0351352
0.0349033
0.034565
0.0340983
0.0334842
0.0327122
0.031782
0.0307078
0.0295217
0.0282756
0.0270415
0.0259088
0.0249659
0.0242872
0.0239009
0.0237642
0.0237752
0.0237276
0.0234358
0.0226933
0.0214995
0.0199289
0.0183212
0.0170773
0.017666
0.0172631
0.0309005
0.0309445
0.0310001
0.031066
0.0311429
0.0312308
0.0313299
0.0314401
0.0315618
0.0316943
0.0318388
0.0319937
0.0321608
0.0323376
0.0325265
0.0327241
0.0329332
0.0331496
0.0333759
0.0336076
0.0338468
0.0340883
0.0343341
0.0345801
0.034828
0.0350721
0.0353116
0.0355431
0.0357627
0.0359622
0.036131
0.0362593
0.0363382
0.0363576
0.0363133
0.0361959
0.0359902
0.0356739
0.0352268
0.0346359
0.0338965
0.0330157
0.0320159
0.0309363
0.0298342
0.0287838
0.0278611
0.0271343
0.0266337
0.0263317
0.0261499
0.0259132
0.0254666
0.0246323
0.02342
0.0219181
0.0204364
0.0194119
0.0201729
0.0199984
0.0315657
0.0316124
0.0316693
0.0317358
0.0318124
0.0318994
0.0319973
0.0321062
0.0322267
0.0323584
0.0325022
0.0326573
0.0328251
0.0330036
0.0331952
0.0333968
0.0336112
0.0338347
0.0340697
0.034312
0.0345638
0.0348199
0.0350823
0.0353472
0.0356164
0.0358845
0.0361518
0.0364157
0.036673
0.0369167
0.0371372
0.037326
0.0374743
0.0375782
0.0376312
0.0376283
0.0375548
0.0373884
0.0371086
0.0367004
0.0361559
0.0354768
0.0346771
0.0337851
0.032845
0.0319168
0.0310638
0.0303455
0.0297914
0.0293822
0.0290572
0.0286654
0.0280768
0.0271392
0.0258739
0.0243778
0.0229344
0.0220144
0.0228366
0.0227461
0.0323376
0.0323904
0.0324528
0.0325242
0.0326051
0.0326957
0.0327965
0.0329075
0.0330297
0.0331627
0.0333078
0.0334641
0.0336336
0.0338142
0.0340088
0.0342143
0.0344338
0.0346635
0.0349062
0.0351579
0.0354205
0.0356895
0.0359668
0.0362489
0.0365377
0.0368286
0.0371225
0.0374177
0.0377119
0.0379988
0.0382698
0.0385172
0.0387355
0.0389181
0.0390654
0.0391711
0.0392222
0.0391972
0.0390751
0.0388402
0.0384818
0.037997
0.0373932
0.0366893
0.0359178
0.0351258
0.0343643
0.0336836
0.0331096
0.0326287
0.0321924
0.0316696
0.0309517
0.0299081
0.0285686
0.0270418
0.0255842
0.0247066
0.0255323
0.025452
0.0332601
0.0333191
0.0333869
0.033463
0.0335479
0.0336421
0.0337459
0.0338597
0.0339842
0.0341192
0.034266
0.0344239
0.0345947
0.0347769
0.034973
0.0351808
0.0354031
0.0356368
0.0358847
0.0361432
0.0364144
0.036694
0.0369842
0.0372817
0.0375884
0.0379002
0.0382193
0.0385444
0.0388738
0.0392019
0.0395213
0.0398252
0.0401073
0.040367
0.040601
0.0408072
0.0409729
0.0410767
0.041098
0.0410202
0.0408308
0.0405232
0.0400992
0.0395699
0.0389579
0.0382989
0.0376329
0.037001
0.036425
0.0358936
0.035368
0.0347325
0.033896
0.0327475
0.0313256
0.0297478
0.0282499
0.0273809
0.0281851
0.0280842
0.034281
0.0343473
0.0344223
0.0345051
0.0345964
0.0346964
0.0348056
0.034924
0.0350525
0.035191
0.035341
0.0355017
0.0356754
0.0358604
0.0360598
0.0362711
0.0364977
0.0367364
0.0369902
0.0372557
0.0375354
0.0378251
0.0381273
0.0384389
0.0387621
0.0390937
0.0394362
0.0397896
0.0401523
0.0405197
0.0408847
0.0412414
0.0415859
0.0419144
0.0422296
0.0425275
0.0427967
0.0430167
0.0431669
0.0432302
0.0431924
0.043044
0.0427821
0.0424113
0.0419456
0.0414106
0.0408363
0.0402556
0.039685
0.0391151
0.0385137
0.0377786
0.0368339
0.0355852
0.0340779
0.0324414
0.0308919
0.0300194
0.0307927
0.0306593
0.0354476
0.0355198
0.0355998
0.0356871
0.0357821
0.0358854
0.0359975
0.0361187
0.0362498
0.036391
0.0365432
0.0367063
0.0368821
0.0370696
0.0372712
0.0374853
0.0377149
0.0379576
0.0382162
0.038488
0.0387752
0.0390743
0.0393877
0.0397127
0.0400516
0.0404017
0.0407668
0.041147
0.0415415
0.0419461
0.0423544
0.0427613
0.0431619
0.0435575
0.0439464
0.0443281
0.0446913
0.0450155
0.0452805
0.0454687
0.0455647
0.0455565
0.0454374
0.0452064
0.0448701
0.0444459
0.0439548
0.0434217
0.042859
0.0422571
0.0415899
0.0407652
0.0397202
0.0383759
0.0367851
0.0350868
0.033483
0.0326009
0.0333416
0.0331747
0.0366642
0.036744
0.0368316
0.0369264
0.0370288
0.0371392
0.037258
0.0373855
0.0375225
0.037669
0.0378266
0.0379947
0.0381757
0.0383683
0.0385754
0.0387951
0.0390309
0.0392802
0.039546
0.0398257
0.040122
0.0404312
0.0407562
0.0410947
0.041449
0.0418173
0.042204
0.0426102
0.0430352
0.0434754
0.043925
0.0443791
0.0448351
0.0452904
0.045749
0.0462077
0.0466564
0.0470751
0.0474436
0.047744
0.0479598
0.0480768
0.048085
0.0479786
0.0477581
0.0474331
0.0470169
0.0465273
0.0459721
0.0453421
0.0446148
0.0437077
0.0425695
0.0411346
0.0394621
0.0377025
0.0360446
0.0351522
0.0358597
0.0356598
0.0379878
0.0380737
0.0381672
0.0382678
0.038376
0.0384922
0.0386168
0.0387502
0.0388931
0.0390457
0.0392091
0.0393831
0.0395696
0.0397678
0.0399803
0.0402056
0.0404471
0.0407027
0.0409755
0.0412632
0.0415684
0.041888
0.042225
0.0425771
0.042947
0.0433333
0.0437415
0.0441732
0.0446279
0.0451026
0.0455921
0.046092
0.0465983
0.0471134
0.0476362
0.0481668
0.0486945
0.0491996
0.0496619
0.0500632
0.050386
0.0506142
0.0507351
0.0507388
0.0506202
0.0503826
0.0500322
0.0495807
0.0490315
0.048375
0.0475922
0.0466081
0.0453813
0.0438594
0.0421075
0.0402864
0.0385752
0.0376695
0.0383433
0.0381125
0.0393657
0.0394585
0.0395592
0.0396672
0.039783
0.0399067
0.0400389
0.0401795
0.0403297
0.0404893
0.0406599
0.0408409
0.0410348
0.0412403
0.0414607
0.041694
0.0419441
0.0422086
0.0424908
0.0427885
0.0431045
0.0434359
0.0437859
0.0441525
0.0445385
0.0449434
0.0453732
0.0458302
0.0463144
0.0468232
0.0473515
0.0478954
0.0484529
0.0490221
0.0496074
0.0502058
0.0508075
0.0513932
0.0519424
0.052437
0.0528581
0.0531881
0.0534118
0.0535156
0.0534897
0.0533312
0.0530403
0.0526228
0.052078
0.0513962
0.0505604
0.0495027
0.0481911
0.0465845
0.0447541
0.0428711
0.0411064
0.040185
0.0408222
0.0405605
0.040864
0.0409618
0.0410669
0.041179
0.0412985
0.0414261
0.0415622
0.0417073
0.041862
0.0420268
0.0422027
0.0423895
0.0425893
0.0428013
0.0430282
0.0432687
0.0435263
0.0437991
0.0440903
0.0443981
0.0447253
0.0450691
0.0454327
0.0458147
0.0462176
0.0466417
0.0470937
0.0475765
0.0480904
0.048633
0.0492
0.0497877
0.0503928
0.0510179
0.0516622
0.0523258
0.0529982
0.05366
0.0542906
0.0548716
0.0553833
0.0558065
0.0561237
0.0563182
0.0563758
0.0562883
0.0560505
0.0556625
0.0551203
0.0544131
0.0535264
0.0523973
0.0510024
0.0493116
0.0474025
0.0454554
0.0436353
0.0426923
0.043289
0.0429965
0.0423833
0.0424879
0.0426002
0.0427198
0.0428469
0.0429822
0.0431259
0.0432785
0.0434409
0.0436131
0.0437968
0.0439917
0.0442
0.0444208
0.0446572
0.0449076
0.0451758
0.0454597
0.0457626
0.0460827
0.0464231
0.0467809
0.0471597
0.0475582
0.0479792
0.0484234
0.0488985
0.0494077
0.0499517
0.0505287
0.0511342
0.0517651
0.05242
0.0530969
0.0538005
0.0545274
0.0552682
0.0560032
0.056712
0.0573758
0.0579738
0.0584854
0.0588911
0.059171
0.0593069
0.0592859
0.0590974
0.0587365
0.0581955
0.0574631
0.0565259
0.0553262
0.0538491
0.0520736
0.0500839
0.0480696
0.0461908
0.0452201
0.0457703
0.045445
0.0439932
0.0441031
0.0442207
0.0443457
0.0444785
0.0446197
0.0447697
0.0449291
0.0450986
0.0452784
0.0454698
0.0456727
0.0458892
0.0461185
0.0463636
0.0466232
0.0469009
0.0471952
0.0475093
0.0478417
0.0481955
0.048568
0.0489628
0.0493787
0.0498189
0.0502844
0.0507835
0.0513201
0.0518951
0.0525069
0.0531519
0.0538268
0.0545289
0.0552608
0.0560218
0.0568115
0.0576193
0.0584258
0.0592102
0.0599533
0.0606337
0.0612289
0.0617177
0.0620775
0.0622863
0.0623267
0.0621833
0.0618464
0.0613049
0.0605465
0.0595594
0.0582891
0.0567286
0.0548665
0.0527934
0.0507072
0.0487645
0.0477573
0.0482548
0.0478948
0.0456388
0.0457551
0.0458797
0.046012
0.0461524
0.0463015
0.0464595
0.0466269
0.0468045
0.0469926
0.0471927
0.0474045
0.0476306
0.0478699
0.0481257
0.0483966
0.0486864
0.0489934
0.049321
0.0496677
0.0500367
0.0504255
0.0508377
0.0512725
0.051733
0.0522211
0.0527454
0.0533106
0.0539176
0.0545654
0.0552503
0.0559695
0.0567221
0.0575061
0.058326
0.0591781
0.0600527
0.06093
0.0617892
0.0626107
0.063372
0.0640494
0.0646195
0.0650571
0.0653366
0.0654364
0.0653364
0.0650221
0.0644789
0.063694
0.0626558
0.0613141
0.0596692
0.0577179
0.0555572
0.0533937
0.0513809
0.0503288
0.0507659
0.0503683
0.0473953
0.0475161
0.0476445
0.0477804
0.0479243
0.048077
0.048239
0.0484111
0.0485939
0.0487879
0.0489944
0.0492135
0.049447
0.0496949
0.0499595
0.0502403
0.0505407
0.0508596
0.0511999
0.0515608
0.0519452
0.0523509
0.0527815
0.0532363
0.0537186
0.0542305
0.0547814
0.0553764
0.0560168
0.0567017
0.057428
0.058193
0.0589944
0.0598347
0.0607129
0.0616281
0.0625696
0.0635177
0.0644511
0.0653499
0.0661904
0.0669477
0.0675964
0.0681088
0.068456
0.0686122
0.0685528
0.0682587
0.0677123
0.0668993
0.0658097
0.0643947
0.0626619
0.0606175
0.0583646
0.0561172
0.054027
0.0529196
0.0532893
0.0528513
0.0491548
0.0492822
0.0494179
0.0495614
0.0497132
0.0498739
0.0500441
0.0502242
0.0504153
0.0506178
0.0508333
0.0510618
0.0513057
0.0515643
0.0518408
0.0521342
0.0524483
0.0527815
0.0531373
0.0535145
0.0539164
0.0543408
0.0547913
0.0552676
0.055773
0.0563102
0.0568892
0.0575155
0.0581906
0.0589141
0.0596829
0.0604948
0.0613488
0.0622433
0.0631822
0.0641614
0.0651708
0.0661904
0.0671989
0.0681757
0.0690962
0.0699337
0.0706612
0.0712484
0.0716629
0.0718749
0.0718555
0.0715808
0.0710298
0.0701877
0.0690441
0.0675534
0.0657307
0.063589
0.0612384
0.0589002
0.0567249
0.0555526
0.0558468
0.0553648
0.0509934
0.051126
0.051267
0.051416
0.0515737
0.0517407
0.0519176
0.0521052
0.0523043
0.0525155
0.0527399
0.0529779
0.0532316
0.0535008
0.0537882
0.0540933
0.0544199
0.0547668
0.0551373
0.0555308
0.0559503
0.056394
0.0568654
0.0573643
0.0578942
0.0584582
0.0590667
0.0597258
0.0604373
0.0612009
0.0620142
0.0628748
0.0637807
0.0647343
0.065734
0.0667788
0.0678574
0.0689496
0.0700338
0.0710888
0.072089
0.0730063
0.0738115
0.074472
0.0749522
0.0752182
0.0752367
0.0749793
0.0744221
0.0735485
0.0723498
0.0707806
0.0688628
0.0666188
0.0641644
0.0617278
0.0594588
0.0582109
0.0584227
0.0578935
0.052855
0.0529942
0.0531423
0.053299
0.0534648
0.0536403
0.053826
0.0540224
0.0542307
0.0544513
0.0546858
0.0549343
0.0551995
0.0554806
0.0557812
0.0561002
0.0564419
0.0568048
0.0571925
0.0576042
0.0580432
0.0585077
0.0590015
0.0595246
0.0600804
0.0606727
0.0613123
0.0620059
0.0627555
0.0635611
0.0644204
0.0653313
0.0662933
0.0673045
0.0683684
0.0694804
0.0706298
0.0717965
0.0729583
0.0740934
0.075175
0.0761735
0.0770579
0.0777927
0.0783392
0.0786594
0.0787158
0.0784752
0.0779103
0.0770035
0.0757459
0.0740949
0.072079
0.0697279
0.0671637
0.064621
0.0622499
0.0609163
0.0610377
0.0604577
0.0548209
0.0549646
0.0551167
0.0552772
0.0554467
0.0556263
0.0558164
0.0560183
0.0562326
0.0564603
0.0567025
0.0569598
0.0572342
0.057526
0.0578377
0.0581693
0.0585244
0.0589024
0.0593064
0.0597363
0.0601951
0.0606812
0.0611984
0.0617469
0.0623301
0.0629523
0.0636246
0.0643545
0.0651441
0.0659935
0.0669011
0.0678647
0.0688825
0.0699567
0.0710855
0.0722669
0.0734894
0.0747323
0.075973
0.0771892
0.078353
0.079433
0.0803963
0.081205
0.0818169
0.0821902
0.0822829
0.082057
0.0814824
0.0805393
0.0792214
0.0774844
0.0753643
0.0729002
0.0702195
0.0675626
0.0650803
0.0636508
0.0636753
0.0630413
0.0567787
0.0569295
0.0570894
0.0572582
0.0574363
0.0576248
0.057824
0.058035
0.0582589
0.0584963
0.058749
0.0590173
0.059304
0.0596087
0.0599346
0.0602814
0.0606531
0.0610488
0.0614719
0.061922
0.0624027
0.0629122
0.0634544
0.0640299
0.0646422
0.0652958
0.0660027
0.0667707
0.0676021
0.0684976
0.0694553
0.0704735
0.0715519
0.0726883
0.0738857
0.0751386
0.0764363
0.0777577
0.0790797
0.0803795
0.0816278
0.0827914
0.0838358
0.08472
0.0853987
0.0858258
0.0859548
0.0857433
0.0851572
0.0841759
0.0827921
0.0809665
0.0787385
0.0761561
0.0733527
0.0705736
0.0679712
0.0664354
0.0663553
0.0656637
0.0588079
0.0589644
0.0591302
0.0593052
0.05949
0.0596857
0.0598928
0.0601125
0.0603456
0.0605931
0.0608563
0.061136
0.0614344
0.0617518
0.062091
0.0624522
0.0628394
0.0632521
0.0636935
0.064164
0.0646668
0.0652004
0.0657688
0.0663726
0.0670155
0.0677024
0.0684457
0.0692537
0.0701292
0.0710727
0.0720832
0.0731586
0.0742976
0.0755019
0.076769
0.0780961
0.0794714
0.0808734
0.0822786
0.0836633
0.0849973
0.0862456
0.0873714
0.0883313
0.0890764
0.0895565
0.0897204
0.0895214
0.0889216
0.0878984
0.0864465
0.0845271
0.082185
0.0794786
0.0765455
0.0736356
0.0709039
0.0692525
0.0690617
0.0683089
0.0608504
0.0610141
0.061188
0.0613716
0.0615656
0.0617709
0.061988
0.0622179
0.0624618
0.0627204
0.0629955
0.0632876
0.0635997
0.0639314
0.0642864
0.0646644
0.0650698
0.065502
0.0659644
0.0664574
0.0669843
0.067544
0.0681403
0.0687742
0.0694494
0.0701714
0.0709529
0.0718032
0.0727247
0.0737188
0.074784
0.075919
0.0771234
0.078395
0.0797357
0.0811394
0.0825946
0.0840798
0.0855707
0.0870433
0.0884657
0.0898012
0.0910109
0.0920486
0.0928617
0.0933958
0.0935951
0.0934082
0.0927928
0.0917254
0.090199
0.0881826
0.0857236
0.082888
0.0798187
0.07677
0.0738997
0.0721223
0.0718133
0.0709956
0.0629903
0.0631591
0.0633376
0.0635258
0.0637243
0.0639347
0.0641574
0.064394
0.0646453
0.0649128
0.0651974
0.0655005
0.0658241
0.0661691
0.066538
0.0669317
0.0673541
0.0678053
0.0682883
0.0688041
0.0693559
0.0699426
0.0705683
0.071234
0.0719434
0.0727024
0.0735243
0.0744188
0.0753888
0.0764356
0.0775584
0.0787554
0.0800258
0.0813702
0.0827858
0.0842686
0.0858063
0.0873768
0.0889557
0.0905178
0.0920302
0.0934542
0.0947489
0.0958649
0.0967462
0.0973339
0.0975675
0.0973909
0.0967577
0.0956417
0.0940381
0.0919184
0.0893368
0.0863664
0.0831536
0.0799572
0.0769393
0.0750271
0.0745944
0.073708
0.0651073
0.0652842
0.0654718
0.0656696
0.0658782
0.0660991
0.0663328
0.0665805
0.0668434
0.0671228
0.0674204
0.0677372
0.0680759
0.0684369
0.0688236
0.0692362
0.0696792
0.0701524
0.0706592
0.0712004
0.0717795
0.0723955
0.0730526
0.0737519
0.0744974
0.0752955
0.0761597
0.0771007
0.0781214
0.0792234
0.0804057
0.0816674
0.083008
0.0844249
0.0859192
0.0874834
0.089106
0.0907646
0.0924342
0.0940891
0.0956946
0.0972102
0.0985925
0.0997894
0.100741
0.101383
0.101652
0.101485
0.100833
0.0996656
0.0979777
0.0957533
0.0930455
0.0899351
0.0865719
0.0832193
0.0800442
0.0779864
0.0774223
0.0764632
0.0672879
0.0674713
0.0676658
0.0678711
0.0680879
0.0683177
0.0685611
0.0688196
0.0690942
0.0693864
0.0696974
0.0700286
0.0703823
0.0707597
0.0711633
0.0715945
0.0720575
0.0725525
0.0730828
0.0736499
0.0742571
0.0749036
0.0755935
0.0763282
0.0771118
0.0779508
0.0788596
0.0798492
0.0809229
0.0820822
0.083327
0.0846555
0.0860668
0.0875617
0.0891354
0.0907838
0.0924937
0.094243
0.0960057
0.0977555
0.0994562
0.101065
0.102537
0.103815
0.104837
0.105535
0.105837
0.105679
0.105005
0.103783
0.102008
0.0996716
0.0968326
0.0935762
0.0900546
0.0865364
0.0831952
0.0809834
0.0802828
0.0792466
0.0694762
0.0696677
0.0698715
0.0700868
0.0703145
0.0705559
0.0708114
0.0710825
0.0713705
0.0716765
0.0720025
0.0723495
0.0727206
0.0731161
0.0735398
0.0739922
0.0744783
0.074998
0.0755548
0.0761501
0.0767878
0.0774667
0.0781915
0.0789636
0.0797871
0.0806692
0.0816245
0.082665
0.0837938
0.085013
0.086322
0.0877196
0.0892062
0.0907776
0.0924348
0.0941693
0.0959694
0.0978124
0.0996717
0.10152
0.103319
0.105025
0.106588
0.107952
0.109047
0.109801
0.110138
0.109989
0.109291
0.108012
0.106144
0.103694
0.10072
0.0973117
0.0936241
0.0899312
0.0864138
0.0840367
0.0831916
0.0820737
0.0717666
0.071964
0.072173
0.0723938
0.0726272
0.0728749
0.0731377
0.0734175
0.0737151
0.0740326
0.074371
0.0747322
0.0751183
0.0755311
0.075973
0.0764458
0.0769537
0.0774977
0.0780807
0.0787049
0.0793737
0.0800865
0.0808476
0.0816589
0.0825243
0.0834514
0.0844555
0.0855489
0.0867352
0.0880162
0.089392
0.0908609
0.0924222
0.0940759
0.0958171
0.0976406
0.0995338
0.101474
0.103432
0.105381
0.107282
0.109086
0.110744
0.112193
0.113362
0.114172
0.114545
0.114403
0.11368
0.11234
0.110375
0.107805
0.104691
0.101123
0.0972605
0.0933831
0.0896804
0.0871299
0.0861353
0.0849307
0.0740354
0.0742418
0.0744612
0.0746931
0.0749382
0.0751984
0.075474
0.0757671
0.0760788
0.0764109
0.0767651
0.0771432
0.077548
0.0779806
0.0784443
0.0789405
0.0794739
0.0800451
0.0806574
0.0813128
0.0820152
0.0827638
0.0835633
0.0844155
0.0853248
0.0862991
0.0873539
0.0885025
0.0897482
0.0910933
0.0925373
0.0940794
0.0957198
0.0974544
0.0992837
0.101199
0.103189
0.105229
0.10729
0.109344
0.111349
0.113256
0.115011
0.116549
0.117794
0.118663
0.119071
0.118937
0.118188
0.116786
0.11472
0.112027
0.108768
0.105034
0.100987
0.0969152
0.0930162
0.0902804
0.0891277
0.0878309
0.0763756
0.0765891
0.0768163
0.0770566
0.0773111
0.0775816
0.0778688
0.0781747
0.0785004
0.078848
0.0792186
0.0796144
0.0800377
0.0804905
0.0809754
0.0814947
0.0820527
0.0826508
0.083292
0.0839791
0.0847157
0.0855012
0.0863405
0.0872355
0.0881906
0.0892141
0.0903218
0.0915274
0.0928347
0.0942455
0.0957603
0.0973777
0.0990971
0.100919
0.102837
0.104848
0.106937
0.10908
0.111247
0.113409
0.115521
0.117532
0.119386
0.121015
0.122337
0.123265
0.123709
0.123582
0.122805
0.121338
0.119169
0.116346
0.112935
0.109026
0.104784
0.100507
0.0964024
0.0934731
0.0921568
0.0907618
0.0787245
0.078948
0.0791865
0.0794391
0.0797068
0.0799912
0.080293
0.080614
0.0809557
0.0813199
0.0817085
0.0821233
0.0825674
0.0830421
0.083551
0.0840956
0.0846813
0.0853088
0.0859817
0.0867027
0.0874758
0.0883004
0.0891816
0.0901214
0.0911244
0.0921992
0.0933619
0.0946266
0.0959974
0.0974764
0.0990637
0.100759
0.102562
0.10447
0.106482
0.10859
0.110781
0.113031
0.115308
0.11758
0.119803
0.121922
0.123879
0.125602
0.127004
0.127993
0.128474
0.128354
0.12755
0.126016
0.12374
0.120784
0.117215
0.113122
0.108676
0.104182
0.0998594
0.0967237
0.0952345
0.0937347
0.0812202
0.0814491
0.0816912
0.0819467
0.0822167
0.0825046
0.0828109
0.083139
0.0834896
0.0838654
0.0842674
0.0846985
0.0851605
0.0856559
0.0861869
0.0867565
0.0873691
0.0880265
0.0887314
0.0894877
0.0902988
0.0911644
0.0920896
0.0930765
0.0941297
0.0952581
0.0964779
0.0978041
0.0992407
0.10079
0.102453
0.104228
0.106115
0.108115
0.110222
0.112431
0.114727
0.117086
0.119474
0.12186
0.124196
0.126426
0.128488
0.130306
0.131789
0.13284
0.133358
0.133244
0.132411
0.130809
0.128423
0.125326
0.12159
0.117303
0.11264
0.107918
0.103369
0.100018
0.0983499
0.0967377
0.0834911
0.0837369
0.0840023
0.0842852
0.0845855
0.0849042
0.0852419
0.0856003
0.0859811
0.086386
0.0868176
0.0872775
0.0877695
0.0882949
0.0888575
0.0894594
0.090106
0.0907987
0.0915408
0.0923362
0.0931887
0.0940981
0.0950697
0.0961061
0.0972117
0.0983959
0.099675
0.101065
0.102569
0.104191
0.105931
0.107788
0.109765
0.111855
0.114061
0.116373
0.118777
0.121248
0.123752
0.126255
0.128708
0.131052
0.133222
0.135139
0.136706
0.137821
0.138377
0.13827
0.137407
0.135735
0.133237
0.129997
0.126085
0.121593
0.116701
0.11174
0.10695
0.103371
0.101513
0.0997808
0.0861898
0.0864336
0.086693
0.0869687
0.0872615
0.0875749
0.0879095
0.0882687
0.0886532
0.0890659
0.089508
0.0899824
0.0904914
0.0910373
0.0916227
0.0922508
0.0929264
0.0936513
0.0944285
0.0952623
0.0961563
0.0971104
0.0981297
0.0992169
0.100377
0.101618
0.102958
0.104413
0.105988
0.107684
0.109503
0.111445
0.11351
0.115698
0.118003
0.120421
0.122936
0.125522
0.128143
0.130766
0.133339
0.1358
0.138081
0.140098
0.141751
0.14293
0.143524
0.143423
0.142529
0.140785
0.13817
0.134776
0.13068
0.125971
0.120838
0.115625
0.110585
0.106769
0.104714
0.102853
0.0886717
0.0889297
0.0892088
0.0895075
0.089826
0.0901653
0.0905265
0.0909112
0.0913215
0.0917592
0.0922273
0.0927274
0.0932638
0.0938379
0.0944537
0.0951133
0.0958229
0.0965835
0.0973988
0.0982729
0.09921
0.10021
0.101278
0.102416
0.103631
0.104931
0.106333
0.107854
0.1095
0.111272
0.113172
0.1152
0.117358
0.119642
0.122052
0.124578
0.127207
0.129911
0.132654
0.1354
0.138097
0.140678
0.143074
0.145195
0.146936
0.148182
0.148815
0.14872
0.147794
0.145975
0.143241
0.139689
0.135398
0.13046
0.125075
0.119597
0.114291
0.110224
0.10796
0.105964
0.0916243
0.0918797
0.0921513
0.0924403
0.0927478
0.0930781
0.0934317
0.0938125
0.0942215
0.094662
0.0951354
0.0956451
0.0961936
0.0967836
0.097418
0.0981001
0.0988354
0.0996257
0.100474
0.101385
0.102363
0.103406
0.104522
0.105712
0.106981
0.108339
0.109804
0.111392
0.113109
0.114958
0.116941
0.119057
0.121308
0.123694
0.126209
0.128847
0.131592
0.134417
0.137285
0.140158
0.142981
0.145687
0.148199
0.150427
0.152258
0.153572
0.154243
0.154153
0.153192
0.151295
0.148435
0.144716
0.140219
0.13504
0.129389
0.123634
0.118054
0.113726
0.111246
0.109103
0.0943437
0.0946149
0.0949078
0.0952214
0.0955558
0.0959126
0.096293
0.096699
0.097133
0.0975969
0.0980944
0.0986271
0.0992001
0.0998147
0.100476
0.101185
0.101951
0.102773
0.103655
0.104603
0.10562
0.106707
0.107868
0.109108
0.110431
0.111848
0.113374
0.11503
0.116819
0.118746
0.120812
0.123018
0.125366
0.127852
0.130476
0.133229
0.136094
0.139045
0.142041
0.145045
0.148
0.150834
0.153468
0.155805
0.15773
0.159113
0.159824
0.159737
0.15874
0.156762
0.153772
0.149879
0.145166
0.139734
0.133803
0.127757
0.121887
0.117283
0.114575
0.11228
0.0975164
0.0977884
0.0980783
0.0983875
0.0987171
0.0990704
0.0994485
0.0998546
0.10029
0.100758
0.101261
0.101802
0.102385
0.103012
0.103687
0.104415
0.105201
0.106047
0.106958
0.107937
0.108991
0.110117
0.111322
0.11261
0.113985
0.115459
0.117047
0.118769
0.120631
0.122636
0.124787
0.127084
0.129528
0.132121
0.134856
0.137726
0.140716
0.143795
0.146924
0.150063
0.153153
0.156118
0.158877
0.161327
0.163346
0.1648
0.16555
0.165465
0.164428
0.162364
0.159235
0.155158
0.150217
0.144519
0.138296
0.131946
0.125776
0.120887
0.117943
0.115486
0.100684
0.100967
0.101266
0.101584
0.101922
0.102282
0.102667
0.103081
0.103525
0.104002
0.104516
0.105069
0.105666
0.10631
0.107005
0.107753
0.108563
0.109435
0.110374
0.111385
0.112473
0.113637
0.114885
0.116219
0.117645
0.119174
0.120823
0.122611
0.124545
0.126629
0.128865
0.131255
0.133801
0.136498
0.139349
0.142341
0.145458
0.14867
0.151937
0.155216
0.158447
0.161549
0.164438
0.167005
0.169121
0.170647
0.171436
0.171353
0.170273
0.168117
0.164844
0.160575
0.155395
0.149419
0.142891
0.136222
0.129735
0.124545
0.121354
0.118729
0.103956
0.104252
0.104566
0.104898
0.105249
0.105624
0.106022
0.106448
0.106904
0.107394
0.107919
0.108484
0.109094
0.10975
0.110459
0.111223
0.112051
0.112945
0.113908
0.114947
0.116067
0.117268
0.118555
0.119934
0.12141
0.122994
0.124703
0.126557
0.128563
0.130726
0.13305
0.135533
0.13818
0.140989
0.143956
0.147073
0.150322
0.153672
0.157081
0.160505
0.163881
0.167125
0.170146
0.172833
0.175049
0.176647
0.177475
0.17739
0.176262
0.174009
0.170583
0.166109
0.160678
0.15441
0.147563
0.140564
0.13375
0.12825
0.124804
0.122003
0.107282
0.107591
0.107919
0.108266
0.108632
0.109021
0.109434
0.109875
0.110346
0.11085
0.111392
0.111974
0.112601
0.113276
0.114005
0.11479
0.115641
0.116558
0.117548
0.118616
0.119768
0.121004
0.122331
0.123754
0.125278
0.126917
0.128685
0.130605
0.132683
0.134927
0.137338
0.139917
0.142669
0.145588
0.148677
0.151923
0.155309
0.158802
0.162359
0.165934
0.169461
0.172853
0.176013
0.178824
0.181143
0.182816
0.183682
0.183593
0.182413
0.180057
0.176469
0.171782
0.166087
0.159515
0.152336
0.14499
0.137833
0.132007
0.128297
0.125314
0.11079
0.111109
0.111447
0.111803
0.112178
0.112578
0.113002
0.113454
0.113938
0.114454
0.115008
0.115603
0.116243
0.116931
0.117674
0.118475
0.119344
0.120282
0.121295
0.12239
0.123572
0.124842
0.126208
0.127674
0.129247
0.130939
0.132767
0.134753
0.136905
0.139229
0.141729
0.144405
0.147263
0.1503
0.153513
0.156892
0.16042
0.164062
0.167772
0.171504
0.175187
0.178731
0.182034
0.184972
0.187397
0.189145
0.190048
0.189952
0.188714
0.186246
0.182487
0.177573
0.171601
0.164712
0.157187
0.149482
0.14197
0.13581
0.131828
0.128657
0.114373
0.114701
0.115047
0.115412
0.115797
0.116205
0.116639
0.117101
0.117595
0.118123
0.118691
0.119299
0.119955
0.120661
0.121423
0.122244
0.123134
0.124096
0.125135
0.126257
0.127471
0.128775
0.13018
0.131689
0.133311
0.135057
0.136944
0.138997
0.141223
0.14363
0.146221
0.148997
0.151965
0.15512
0.158463
0.161981
0.165655
0.169452
0.173322
0.177218
0.181065
0.184767
0.188219
0.19129
0.193824
0.195648
0.196588
0.196481
0.19518
0.192593
0.188653
0.183502
0.177241
0.170022
0.162136
0.154056
0.146173
0.139663
0.135401
0.132038
0.118111
0.118446
0.118799
0.119171
0.119562
0.119977
0.120419
0.120889
0.121391
0.121928
0.122504
0.123122
0.123789
0.124506
0.12528
0.126116
0.127023
0.128004
0.129066
0.130215
0.131459
0.132797
0.134241
0.135793
0.137464
0.139265
0.141213
0.143333
0.145636
0.148126
0.150811
0.153691
0.156771
0.160051
0.163527
0.167188
0.171016
0.174974
0.179011
0.183076
0.187093
0.19096
0.194565
0.197773
0.200417
0.202318
0.203294
0.203172
0.2018
0.199084
0.194952
0.189549
0.182986
0.175422
0.167163
0.158695
0.150429
0.143561
0.139014
0.135452
0.121888
0.122231
0.122592
0.122971
0.12337
0.123793
0.124241
0.124719
0.12523
0.125776
0.126364
0.126994
0.127674
0.128406
0.129198
0.130052
0.130981
0.131985
0.133072
0.134248
0.135524
0.136897
0.13838
0.139978
0.141698
0.143555
0.145565
0.147756
0.150136
0.152715
0.155496
0.158483
0.161681
0.165087
0.168704
0.172516
0.176503
0.180629
0.184841
0.189084
0.193278
0.197316
0.201081
0.20443
0.207189
0.209169
0.210179
0.210038
0.20859
0.205734
0.2014
0.195735
0.188856
0.180934
0.172285
0.163411
0.154746
0.147507
0.142667
0.138903
0.125775
0.126127
0.126495
0.12688
0.127286
0.127714
0.128169
0.128654
0.129172
0.129726
0.130321
0.13096
0.131649
0.132393
0.133196
0.134065
0.135011
0.136035
0.137145
0.138349
0.139656
0.141066
0.142589
0.144232
0.146005
0.14792
0.149995
0.152258
0.15472
0.157389
0.160273
0.16337
0.166691
0.170233
0.173995
0.177963
0.182117
0.186419
0.190812
0.19524
0.199618
0.203834
0.207764
0.211258
0.214133
0.216192
0.217234
0.21707