/*--------------------------------*- C++ -*----------------------------------*\
  =========                 |
  \\      /  F ield         | OpenFOAM: The Open Source CFD Toolbox
   \\    /   O peration     | Website:  https://openfoam.org
    \\  /    A nd           | Version:  6.0
     \\/     M anipulation  |
\*---------------------------------------------------------------------------*/
FoamFile
{
    version     2.0;
    format      ascii;
    class       surfaceScalarField;
    location    "7";
    object      phi;
}
// * * * * * * * * * * * * * * * * * * * * * * * * * * * * * * * * * * * * * //

dimensions      [0 3 -1 0 0 0 0];

internalField   nonuniform List<scalar> 
123526
(
-2.72781e-05
2.33266e-05
2.76688e-05
-2.68547e-05
2.52225e-05
-2.63957e-05
2.72727e-05
-2.58993e-05
2.94898e-05
-2.53615e-05
3.18873e-05
-2.47798e-05
3.44801e-05
-2.41497e-05
3.7284e-05
-2.34683e-05
4.03163e-05
-2.27293e-05
4.35948e-05
-2.193e-05
4.71406e-05
-2.10639e-05
5.0976e-05
-2.01283e-05
5.5124e-05
-1.91145e-05
5.96101e-05
-1.80172e-05
6.44592e-05
-1.68251e-05
6.97026e-05
-1.55378e-05
7.53765e-05
-1.41435e-05
8.15123e-05
-1.26309e-05
8.81409e-05
-1.09892e-05
9.53114e-05
-9.21569e-06
0.000103069
-7.28812e-06
0.000111448
-5.19823e-06
0.000120507
-2.93661e-06
0.000130307
-4.77208e-07
0.000140883
2.18654e-06
0.000152325
5.07457e-06
0.000164679
8.2107e-06
0.00017802
1.16068e-05
0.000192429
1.52971e-05
0.00020797
1.92919e-05
0.000224745
2.36287e-05
0.000242819
2.83233e-05
0.000262302
3.34107e-05
0.00028327
3.89185e-05
0.00030582
4.48737e-05
0.000330045
5.13208e-05
0.000356017
5.82829e-05
0.000383837
6.57985e-05
0.000413562
7.39048e-05
0.000445245
8.26279e-05
0.000478927
9.20003e-05
0.000514598
0.000102056
0.000552208
0.000112819
0.000591656
0.000124312
0.000632751
0.000136559
0.00067519
0.000149579
0.000718526
0.000163387
0.000762117
0.000177992
0.00080507
0.000193383
0.000846176
0.000209526
0.000883844
0.000226342
0.000916035
0.000243701
0.000940188
0.000261395
0.000953156
0.000279142
0.000951099
0.000296575
0.000929336
0.000313214
0.000882202
0.000328476
0.000802717
0.000341723
0.00068245
0.000351872
0.000507288
0.000270389
0.000348058
-2.65802e-05
2.29414e-05
2.69634e-05
-2.61657e-05
2.48066e-05
-2.57171e-05
2.68235e-05
-2.5233e-05
2.90045e-05
-2.47092e-05
3.13629e-05
-2.41434e-05
3.39132e-05
-2.35311e-05
3.66711e-05
-2.28696e-05
3.96535e-05
-2.21524e-05
4.2877e-05
-2.13766e-05
4.63633e-05
-2.05359e-05
5.01349e-05
-1.96274e-05
5.42137e-05
-1.86423e-05
5.86247e-05
-1.75751e-05
6.33902e-05
-1.64146e-05
6.85421e-05
-1.51599e-05
7.41201e-05
-1.37997e-05
8.01522e-05
-1.2322e-05
8.66618e-05
-1.07166e-05
9.37062e-05
-8.98008e-06
0.000101331
-7.09107e-06
0.000109559
-5.04033e-06
0.000118455
-2.81931e-06
0.000128086
-4.00822e-07
0.000138464
2.22028e-06
0.000149704
5.0642e-06
0.000161835
8.15207e-06
0.000174932
1.14964e-05
0.000189085
1.51283e-05
0.000204338
1.9059e-05
0.000220815
2.33232e-05
0.000238555
2.79376e-05
0.000257689
3.29362e-05
0.000278273
3.83446e-05
0.000300415
4.41874e-05
0.000324205
5.05052e-05
0.000349701
5.73189e-05
0.000377026
6.46655e-05
0.000406218
7.25811e-05
0.000437333
8.10917e-05
0.00047042
9.02301e-05
0.000505464
0.000100032
0.00054241
0.000110527
0.000581166
0.000121743
0.00062154
0.000133711
0.000663229
0.000146459
0.000705786
0.000160008
0.000748576
0.000174371
0.000790716
0.000189539
0.000831018
0.00020547
0.000867923
0.000222081
0.000899435
0.000239231
0.000923055
0.000256707
0.000935697
0.000274226
0.000933594
0.000291417
0.000912152
0.000307813
0.000865813
0.000322819
0.000787736
0.000336027
0.000669275
0.000344249
0.000499143
0.000272946
0.000341797
-2.59664e-05
2.25634e-05
2.63422e-05
-2.55597e-05
2.43985e-05
-2.51198e-05
2.63828e-05
-2.46451e-05
2.85286e-05
-2.41319e-05
3.08489e-05
-2.35778e-05
3.33579e-05
-2.29785e-05
3.60711e-05
-2.23314e-05
3.90051e-05
-2.16303e-05
4.21753e-05
-2.08723e-05
4.56039e-05
-2.00513e-05
4.93136e-05
-1.91643e-05
5.33252e-05
-1.8203e-05
5.76632e-05
-1.71616e-05
6.23472e-05
-1.60293e-05
6.74098e-05
-1.48051e-05
7.28943e-05
-1.34776e-05
7.88249e-05
-1.20353e-05
8.52181e-05
-1.04679e-05
9.21391e-05
-8.77188e-06
9.96339e-05
-6.92633e-06
0.000107714
-4.92201e-06
0.00011645
-2.75058e-06
0.000125915
-3.85278e-07
0.000136099
2.17867e-06
0.000147141
4.96086e-06
0.000159053
7.98149e-06
0.000171912
1.12525e-05
0.000185814
1.48041e-05
0.000200787
1.86467e-05
0.000216972
2.28144e-05
0.000234388
2.73236e-05
0.00025318
3.22073e-05
0.000273391
3.74911e-05
0.000295133
4.31984e-05
0.0003185
4.93688e-05
0.000343533
5.60226e-05
0.000370374
6.31971e-05
0.000399046
7.09291e-05
0.000429603
7.92462e-05
0.000462106
8.81838e-05
0.000496529
9.77808e-05
0.000532816
0.00010807
0.000570881
0.000119084
0.000610529
0.000130856
0.000651459
0.000143418
0.000693227
0.000156792
0.000735205
0.000170985
0.000776524
0.000185984
0.00081602
0.000201741
0.000852167
0.000218162
0.000883015
0.000235103
0.000906121
0.000252345
0.000918463
0.000269609
0.000916348
0.00028653
0.000895258
0.000302648
0.000849725
0.000317364
0.00077307
0.000330271
0.000656416
0.000339057
0.000490429
0.000271759
0.000340333
-2.56035e-05
2.21912e-05
2.59733e-05
-2.52028e-05
2.39963e-05
-2.47689e-05
2.59481e-05
-2.43004e-05
2.80588e-05
-2.37937e-05
3.03413e-05
-2.32464e-05
3.28095e-05
-2.26546e-05
3.54785e-05
-2.20155e-05
3.83648e-05
-2.13234e-05
4.14825e-05
-2.05755e-05
4.48545e-05
-1.97659e-05
4.85034e-05
-1.88918e-05
5.24493e-05
-1.7945e-05
5.67162e-05
-1.69202e-05
6.13206e-05
-1.58068e-05
6.62963e-05
-1.46037e-05
7.16895e-05
-1.33001e-05
7.75214e-05
-1.18846e-05
8.38012e-05
-1.03472e-05
9.06019e-05
-8.68458e-06
9.79702e-05
-6.87617e-06
0.000105906
-4.913e-06
0.000114487
-2.787e-06
0.00012379
-4.72068e-07
0.000133783
2.03648e-06
0.000144633
4.75785e-06
0.000156331
7.71187e-06
0.000168959
1.09102e-05
0.000182616
1.43825e-05
0.000197315
1.81389e-05
0.000213216
2.2213e-05
0.000230314
2.66207e-05
0.000248773
3.1395e-05
0.000268619
3.65608e-05
0.00028997
4.21419e-05
0.000312922
4.81777e-05
0.000337499
5.46891e-05
0.000363865
6.17133e-05
0.000392024
6.92883e-05
0.000422031
7.74431e-05
0.000453954
8.62149e-05
0.000487761
9.56446e-05
0.00052339
0.000105767
0.000560763
0.000116616
0.000599685
0.000128227
0.000639853
0.00014063
0.000680831
0.000153844
0.000721998
0.000167874
0.000762503
0.0001827
0.000801205
0.000198267
0.000836612
0.000214477
0.00086682
0.000231184
0.00088944
0.000248168
0.000901509
0.000265153
0.000899397
0.000281781
0.000878669
0.000297602
0.000833949
0.000312019
0.00075872
0.000324526
0.00064399
0.000333912
0.000481171
0.000268471
0.000337375
-2.54045e-05
2.18233e-05
2.57705e-05
-2.50079e-05
2.35983e-05
-2.45784e-05
2.55178e-05
-2.41143e-05
2.75936e-05
-2.36121e-05
2.98384e-05
-2.30697e-05
3.2266e-05
-2.2483e-05
3.48912e-05
-2.18495e-05
3.77301e-05
-2.11636e-05
4.0796e-05
-2.04224e-05
4.4112e-05
-1.96206e-05
4.77012e-05
-1.87552e-05
5.15824e-05
-1.78186e-05
5.57793e-05
-1.68053e-05
6.03058e-05
-1.57054e-05
6.51963e-05
-1.45178e-05
7.05005e-05
-1.32323e-05
7.62359e-05
-1.18373e-05
8.2405e-05
-1.03237e-05
8.90884e-05
-8.68791e-06
9.63334e-05
-6.91013e-06
0.000104128
-4.98158e-06
0.000112557
-2.89453e-06
0.000121703
-6.23499e-07
0.000131512
1.83613e-06
0.000142173
4.50342e-06
0.000153664
7.39788e-06
0.000166065
1.05312e-05
0.000179483
1.39324e-05
0.000193914
1.76119e-05
0.000209537
2.16026e-05
0.000226323
2.59204e-05
0.000244455
3.05973e-05
0.000263943
3.5659e-05
0.000284911
4.11288e-05
0.000307454
4.70466e-05
0.000331583
5.34334e-05
0.00035748
6.03268e-05
0.000385132
6.77651e-05
0.000414595
7.57783e-05
0.000445943
8.44045e-05
0.000479137
9.36854e-05
0.000514112
0.000103656
0.000550795
0.000114352
0.000588991
0.000125808
0.0006284
0.000138051
0.00066859
0.000151098
0.000708952
0.00016495
0.000748651
0.000179583
0.000786572
0.000194938
0.000821257
0.000210914
0.000850844
0.000227364
0.000872996
0.00024407
0.000884811
0.000260762
0.000882723
0.000277088
0.000862369
0.000292606
0.000818461
0.000306733
0.00074464
0.000318853
0.000631911
0.000328266
0.000471815
0.000264284
0.000332514
-2.52619e-05
2.14593e-05
2.56234e-05
-2.48697e-05
2.32046e-05
-2.44448e-05
2.5092e-05
-2.39856e-05
2.71331e-05
-2.34885e-05
2.93405e-05
-2.29514e-05
3.17278e-05
-2.23705e-05
3.43094e-05
-2.1743e-05
3.71014e-05
-2.10637e-05
4.01159e-05
-2.03297e-05
4.33765e-05
-1.95358e-05
4.69066e-05
-1.86791e-05
5.0724e-05
-1.77522e-05
5.4852e-05
-1.675e-05
5.93019e-05
-1.56626e-05
6.41087e-05
-1.44892e-05
6.93255e-05
-1.32197e-05
7.49663e-05
-1.18432e-05
8.10271e-05
-1.03506e-05
8.75958e-05
-8.73866e-06
9.47204e-05
-6.98809e-06
0.000102378
-5.09035e-06
0.000110659
-3.03812e-06
0.000119651
-8.06411e-07
0.00012928
1.60927e-06
0.000139758
4.22793e-06
0.000151045
7.06878e-06
0.000163224
1.01435e-05
0.000176408
1.34808e-05
0.000190577
1.70911e-05
0.000205927
2.10068e-05
0.000222407
2.52436e-05
0.000240219
2.98336e-05
0.000259354
3.48015e-05
0.000279945
4.01716e-05
0.000302086
4.59833e-05
0.000325773
5.2258e-05
0.000351207
5.90334e-05
0.000378359
6.63478e-05
0.000407282
7.42317e-05
0.000438061
8.27234e-05
0.000470648
9.18647e-05
0.000504973
0.000101691
0.000540972
0.000112237
0.000578449
0.000123535
0.000617106
0.000135612
0.000656518
0.000148482
0.000696089
0.000162142
0.000734999
0.000176565
0.000772159
0.00019169
0.000806144
0.000207414
0.000835135
0.000223592
0.000856844
0.00024001
0.000868424
0.000256402
0.000866367
0.000272422
0.000846392
0.000287638
0.000803298
0.000301483
0.000730868
0.000313264
0.000620221
0.000322393
0.00046282
0.000260121
0.000326745
-2.51108e-05
2.11008e-05
2.54671e-05
-2.47242e-05
2.28167e-05
-2.43053e-05
2.46723e-05
-2.38525e-05
2.66792e-05
-2.33623e-05
2.88496e-05
-2.28324e-05
3.11969e-05
-2.22591e-05
3.37354e-05
-2.16398e-05
3.64809e-05
-2.09691e-05
3.94446e-05
-2.02442e-05
4.26504e-05
-1.94602e-05
4.61221e-05
-1.8614e-05
4.98764e-05
-1.76987e-05
5.39364e-05
-1.67088e-05
5.83106e-05
-1.56352e-05
6.30349e-05
-1.44769e-05
6.81657e-05
-1.32242e-05
7.37136e-05
-1.18663e-05
7.9668e-05
-1.03946e-05
8.61242e-05
-8.80595e-06
9.31308e-05
-7.08154e-06
0.000100653
-5.21308e-06
0.00010879
-3.19356e-06
0.000117632
-9.98549e-07
0.000127084
1.37638e-06
0.000137383
3.95013e-06
0.000148471
6.74166e-06
0.000160433
9.76264e-06
0.000173388
1.30414e-05
0.000187299
1.65883e-05
0.00020238
2.04354e-05
0.00021856
2.45984e-05
0.000236056
2.91085e-05
0.000254845
3.3991e-05
0.000275064
3.92696e-05
0.000296809
4.49837e-05
0.00032006
5.11551e-05
0.000345037
5.78211e-05
0.000371694
6.502e-05
0.000400085
7.27821e-05
0.000430301
8.11456e-05
0.000462286
9.01521e-05
0.000495969
9.9836e-05
0.00053129
0.000110231
0.000568055
0.000121369
0.000605969
0.000133274
0.000644615
0.000145957
0.000683406
0.000159413
0.000721542
0.000173613
0.000757958
0.000188494
0.000791261
0.000203955
0.000819672
0.000219852
0.00084095
0.000235974
0.000852304
0.000252062
0.00085029
0.000267778
0.000830694
0.000282693
0.000788404
0.000296263
0.000717331
0.000307747
0.000608762
0.000316524
0.000454078
0.000255923
0.000320747
-2.49251e-05
2.07485e-05
2.52747e-05
-2.45453e-05
2.24355e-05
-2.41338e-05
2.42598e-05
-2.36886e-05
2.62329e-05
-2.32067e-05
2.83667e-05
-2.26855e-05
3.06746e-05
-2.21216e-05
3.31706e-05
-2.1512e-05
3.58702e-05
-2.08518e-05
3.87836e-05
-2.01381e-05
4.19353e-05
-1.93659e-05
4.53492e-05
-1.85324e-05
4.90412e-05
-1.76305e-05
5.3034e-05
-1.66552e-05
5.73335e-05
-1.55972e-05
6.19766e-05
-1.44557e-05
6.70226e-05
-1.32213e-05
7.2479e-05
-1.18832e-05
7.83287e-05
-1.04334e-05
8.46743e-05
-8.86852e-06
9.15649e-05
-7.17042e-06
9.89552e-05
-5.33092e-06
0.000106949
-3.34334e-06
0.000115644
-1.18366e-06
0.000124924
1.1524e-06
0.000135047
3.68365e-06
0.00014594
6.42881e-06
0.000157688
9.3995e-06
0.000170417
1.26236e-05
0.000184075
1.61115e-05
0.000198892
1.98947e-05
0.000214777
2.39888e-05
0.000231962
2.8425e-05
0.00025041
3.32275e-05
0.000270263
3.84206e-05
0.000291617
4.40432e-05
0.000314439
5.0117e-05
0.000338964
5.66792e-05
0.000365133
6.37676e-05
0.000392998
7.14123e-05
0.000422658
7.96509e-05
0.00045405
8.85242e-05
0.000487098
9.80658e-05
0.000521751
0.000108308
0.000557817
0.000119281
0.000595
0.000131007
0.000632894
0.000143495
0.000670924
0.000156738
0.000708306
0.000170705
0.000743999
0.000185334
0.000776643
0.000200523
0.000804497
0.000216133
0.000825364
0.000231958
0.000836508
0.000247742
0.000834539
0.000263155
0.000815323
0.000277775
0.000773836
0.000291075
0.000704103
0.000302294
0.000597633
0.000310746
0.000445756
0.000252049
0.000314802
-2.46939e-05
2.04033e-05
2.5037e-05
-2.43214e-05
2.20619e-05
-2.39179e-05
2.38555e-05
-2.34813e-05
2.57953e-05
-2.30086e-05
2.78933e-05
-2.24973e-05
3.01624e-05
-2.1944e-05
3.26165e-05
-2.13456e-05
3.52709e-05
-2.06975e-05
3.81347e-05
-1.99965e-05
4.12332e-05
-1.92379e-05
4.45901e-05
-1.84186e-05
4.82206e-05
-1.75322e-05
5.21471e-05
-1.6573e-05
5.63731e-05
-1.55326e-05
6.0936e-05
-1.44096e-05
6.58983e-05
-1.31952e-05
7.12645e-05
-1.18786e-05
7.7011e-05
-1.0452e-05
8.32476e-05
-8.91205e-06
9.00241e-05
-7.24108e-06
9.72843e-05
-5.43101e-06
0.000105139
-3.47537e-06
0.000113689
-1.35057e-06
0.000122799
9.47557e-07
0.00013275
3.43766e-06
0.000143449
6.13826e-06
0.000154988
9.06084e-06
0.000167495
1.22329e-05
0.000180903
1.56646e-05
0.000195461
1.93871e-05
0.000211054
2.34159e-05
0.000227934
2.77813e-05
0.000246046
3.2508e-05
0.000265538
3.76193e-05
0.000286507
4.31542e-05
0.000308905
4.91341e-05
0.000332986
5.55956e-05
0.000358673
6.25762e-05
0.000386019
7.01055e-05
0.00041513
7.82202e-05
0.000445937
8.69602e-05
0.000478359
9.6358e-05
0.000512354
0.000106445
0.000547731
0.000117249
0.000584197
0.00012879
0.000621353
0.000141077
0.000658637
0.0001541
0.000695281
0.000167828
0.000730269
0.000182198
0.000762269
0.000197113
0.000789578
0.000212434
0.000810043
0.00022796
0.000820979
0.000243443
0.000819061
0.000258558
0.000800216
0.00027289
0.000759514
0.000285925
0.000691087
0.000296899
0.000586667
0.000305077
0.000437587
0.000248124
0.000308991
-2.44198e-05
2.00651e-05
2.47555e-05
-2.4055e-05
2.16958e-05
-2.36599e-05
2.34593e-05
-2.32322e-05
2.53666e-05
-2.27692e-05
2.74294e-05
-2.22682e-05
2.96604e-05
-2.1726e-05
3.20734e-05
-2.11395e-05
3.46834e-05
-2.05041e-05
3.74985e-05
-1.98167e-05
4.05444e-05
-1.90728e-05
4.38453e-05
-1.8269e-05
4.74153e-05
-1.7399e-05
5.12765e-05
-1.64575e-05
5.54299e-05
-1.54359e-05
5.99138e-05
-1.43328e-05
6.47937e-05
-1.31396e-05
7.0071e-05
-1.18457e-05
7.57159e-05
-1.04434e-05
8.18452e-05
-8.92941e-06
8.85091e-05
-7.28637e-06
9.56412e-05
-5.5063e-06
0.000103358
-3.58292e-06
0.000111765
-1.49299e-06
0.000120708
7.67545e-07
0.000130489
3.21716e-06
0.000141
5.87412e-06
0.000152331
8.7498e-06
0.000164619
1.18712e-05
0.000177782
1.52485e-05
0.000192083
1.89122e-05
0.00020739
2.28774e-05
0.000223969
2.71746e-05
0.00024175
3.18273e-05
0.000260887
3.68592e-05
0.000281477
4.23083e-05
0.000303457
4.8196e-05
0.000327099
5.45583e-05
0.000352312
6.1432e-05
0.000379147
6.88462e-05
0.000407718
7.68366e-05
0.000437948
8.54422e-05
0.000469756
9.46942e-05
0.000503105
0.000104623
0.000537805
0.000115254
0.00057357
0.000126606
0.000610005
0.000138687
0.000646561
0.000151486
0.000682489
0.000164971
0.000716792
0.000179081
0.000748168
0.00019372
0.000774952
0.000208753
0.000795031
0.000223985
0.000805772
0.00023917
0.000803904
0.000253992
0.000785431
0.000268043
0.000745511
0.000280819
0.000678377
0.000291564
0.000576005
0.000299515
0.000429755
0.000244483
0.000303324
-2.411e-05
1.97339e-05
2.44389e-05
-2.37527e-05
2.13374e-05
-2.33658e-05
2.30715e-05
-2.2947e-05
2.49469e-05
-2.24937e-05
2.69752e-05
-2.20032e-05
2.9169e-05
-2.14723e-05
3.15417e-05
-2.08979e-05
3.41081e-05
-2.02757e-05
3.68755e-05
-1.96022e-05
3.98699e-05
-1.88732e-05
4.31157e-05
-1.80854e-05
4.66262e-05
-1.72325e-05
5.04232e-05
-1.63091e-05
5.45052e-05
-1.53069e-05
5.89113e-05
-1.42245e-05
6.371e-05
-1.30533e-05
6.88996e-05
-1.17829e-05
7.44444e-05
-1.04057e-05
8.04679e-05
-8.91833e-06
8.70209e-05
-7.30386e-06
9.40267e-05
-5.55431e-06
0.000101608
-3.66354e-06
0.000109875
-1.60862e-06
0.000118653
6.14386e-07
0.000128266
3.02374e-06
0.00013859
5.63747e-06
0.000149717
8.46681e-06
0.00016179
1.15383e-05
0.00017471
1.48618e-05
0.00018876
1.84676e-05
0.000203784
2.23706e-05
0.000220066
2.66e-05
0.000237521
3.11801e-05
0.000256308
3.61333e-05
0.000276525
4.14976e-05
0.000298094
4.72936e-05
0.000321304
5.35571e-05
0.000346049
6.03238e-05
0.000372381
6.76224e-05
0.00040042
7.54876e-05
0.000430084
8.39572e-05
0.000461287
9.30614e-05
0.000494002
0.000102829
0.000528039
0.000113284
0.000563114
0.000124446
0.000598844
0.000136318
0.000634688
0.00014889
0.000669914
0.000162132
0.000703548
0.000175981
0.000734314
0.000190346
0.000760581
0.000205094
0.00078028
0.000220035
0.000790826
0.000234929
0.000789008
0.000249465
0.000770895
0.000263242
0.000731736
0.000275765
0.00066586
0.000286293
0.000565472
0.000294052
0.000421985
0.000240707
0.000297788
-2.37742e-05
1.94094e-05
2.4096e-05
-2.34244e-05
2.09864e-05
-2.30456e-05
2.26916e-05
-2.26355e-05
2.45358e-05
-2.21917e-05
2.65304e-05
-2.17113e-05
2.86876e-05
-2.11914e-05
3.10209e-05
-2.06289e-05
3.35446e-05
-2.00195e-05
3.62651e-05
-1.93598e-05
3.92089e-05
-1.86456e-05
4.24007e-05
-1.78737e-05
4.58528e-05
-1.70378e-05
4.95866e-05
-1.61327e-05
5.35984e-05
-1.515e-05
5.79281e-05
-1.40883e-05
6.26469e-05
-1.29394e-05
6.77503e-05
-1.16926e-05
7.31965e-05
-1.03407e-05
7.91157e-05
-8.88026e-06
8.55595e-05
-7.29462e-06
9.24409e-05
-5.5758e-06
9.98881e-05
-3.7178e-06
0.000108017
-1.69798e-06
0.000116632
4.87489e-07
0.000126081
2.85665e-06
0.000136221
5.42728e-06
0.000147147
8.21043e-06
0.000159006
1.12321e-05
0.000171689
1.45023e-05
0.00018549
1.80504e-05
0.000200236
2.18911e-05
0.000216225
2.60537e-05
0.000233359
3.05609e-05
0.000251802
3.54359e-05
0.000271651
4.07152e-05
0.000292815
4.64195e-05
0.0003156
5.25837e-05
0.000339886
5.92429e-05
0.000365723
6.64249e-05
0.00039324
7.41637e-05
0.000422347
8.24959e-05
0.000452957
9.14505e-05
0.000485049
0.000101055
0.000518437
0.000111333
0.000552839
0.000122301
0.00058788
0.000133964
0.00062303
0.00014631
0.000657574
0.000159308
0.000690557
0.000172899
0.000720732
0.000186993
0.000746499
0.00020146
0.000765832
0.000216115
0.000776191
0.000230724
0.000774425
0.000244981
0.00075667
0.000258493
0.000718268
0.00027077
0.000653644
0.00028109
0.000555229
0.000288683
0.000414502
0.000237177
0.000292369
-2.342e-05
1.90916e-05
2.37357e-05
-2.3077e-05
2.06425e-05
-2.27058e-05
2.23196e-05
-2.23039e-05
2.41333e-05
-2.18691e-05
2.60948e-05
-2.13985e-05
2.82163e-05
-2.08893e-05
3.05109e-05
-2.03383e-05
3.29928e-05
-1.97414e-05
3.56674e-05
-1.9095e-05
3.85617e-05
-1.83954e-05
4.17004e-05
-1.76389e-05
4.50952e-05
-1.68199e-05
4.8767e-05
-1.59326e-05
5.271e-05
-1.49693e-05
5.69644e-05
-1.39282e-05
6.16047e-05
-1.28014e-05
6.66232e-05
-1.15782e-05
7.19724e-05
-1.02517e-05
7.7789e-05
-8.81815e-06
8.41252e-05
-7.26135e-06
9.0884e-05
-5.57332e-06
9.81994e-05
-3.74811e-06
0.000106191
-1.76339e-06
0.000114647
3.84579e-07
0.000123933
2.71359e-06
0.000133891
5.24112e-06
0.000144619
7.9781e-06
0.000156269
1.09501e-05
0.000168717
1.41667e-05
0.000182273
1.76571e-05
0.000196745
2.14357e-05
0.000212446
2.55307e-05
0.000229265
2.99654e-05
0.000247369
3.47616e-05
0.000266856
3.99558e-05
0.000287622
4.55679e-05
0.000309989
5.16322e-05
0.000333822
5.81831e-05
0.000359173
6.52476e-05
0.000386176
7.28589e-05
0.000414736
8.10524e-05
0.000444764
8.98563e-05
0.000476246
9.92969e-05
0.000508997
0.000109397
0.000542739
0.000120171
0.000577105
0.000131624
0.000611576
0.000143745
0.000645451
0.000156502
0.000677796
0.000169837
0.00070739
0.000183664
0.000732666
0.000197856
0.000751635
0.000212232
0.000761807
0.000226562
0.000760089
0.000240548
0.000742679
0.000253801
0.00070501
0.00026584
0.000641601
0.000275961
0.000545091
0.000283405
0.000407029
0.000233465
0.000287054
-2.30544e-05
1.87797e-05
2.33637e-05
-2.27181e-05
2.03052e-05
-2.23542e-05
2.19546e-05
-2.19601e-05
2.37384e-05
-2.1534e-05
2.56676e-05
-2.10725e-05
2.77541e-05
-2.05735e-05
3.00108e-05
-2.00333e-05
3.24517e-05
-1.94483e-05
3.50814e-05
-1.88148e-05
3.79271e-05
-1.81292e-05
4.10138e-05
-1.73878e-05
4.43524e-05
-1.6585e-05
4.79634e-05
-1.57152e-05
5.18387e-05
-1.47708e-05
5.60193e-05
-1.37499e-05
6.05824e-05
-1.26448e-05
6.55175e-05
-1.14449e-05
7.07714e-05
-1.01433e-05
7.64871e-05
-8.73632e-06
8.27174e-05
-7.2081e-06
8.93556e-05
-5.55058e-06
9.65412e-05
-3.75795e-06
0.000104399
-1.80816e-06
0.000112697
3.02459e-07
0.000121822
2.59142e-06
0.000131602
5.0759e-06
0.000142135
7.76668e-06
0.000153579
1.06888e-05
0.000165795
1.38519e-05
0.00017911
1.72844e-05
0.000193312
2.10004e-05
0.00020873
2.50281e-05
0.000225238
2.93894e-05
0.000243008
3.41067e-05
0.000262139
3.92152e-05
0.000282514
4.47345e-05
0.00030447
5.06983e-05
0.000327859
5.71401e-05
0.000352732
6.40864e-05
0.000379231
7.15693e-05
0.000407255
7.96234e-05
0.000436712
8.82759e-05
0.000467596
9.75521e-05
0.000499723
0.000107474
0.000532821
0.000118055
0.000566527
0.0001293
0.000600336
0.000141197
0.000633559
0.000153716
0.000665284
0.0001668
0.000694313
0.000180365
0.000719112
0.000194286
0.00073773
0.000208389
0.000747722
0.000222447
0.000746052
0.000236168
0.000728986
0.00024917
0.000692048
0.000260979
0.000629846
0.000270909
0.00053523
0.000278217
0.000399819
0.000229985
0.000281837
-2.26821e-05
1.84738e-05
2.29857e-05
-2.23521e-05
1.99743e-05
-2.19951e-05
2.15967e-05
-2.16086e-05
2.33513e-05
-2.11906e-05
2.52488e-05
-2.07381e-05
2.7301e-05
-2.02488e-05
2.95206e-05
-1.97192e-05
3.19214e-05
-1.91457e-05
3.4507e-05
-1.85246e-05
3.73051e-05
-1.78524e-05
4.03409e-05
-1.71254e-05
4.36243e-05
-1.63383e-05
4.71757e-05
-1.54853e-05
5.09846e-05
-1.45592e-05
5.50928e-05
-1.3558e-05
5.95801e-05
-1.2474e-05
6.44332e-05
-1.12968e-05
6.95933e-05
-1.00197e-05
7.52097e-05
-8.63892e-06
8.13358e-05
-7.13884e-06
8.78554e-05
-5.51148e-06
9.49132e-05
-3.75108e-06
0.000102638
-1.83591e-06
0.000110781
2.37617e-07
0.000119749
2.48672e-06
0.000129353
4.92828e-06
0.000139693
7.57288e-06
0.000150934
1.04452e-05
0.000162922
1.35546e-05
0.000176
1.6929e-05
0.000189938
2.05824e-05
0.000205077
2.4542e-05
0.000221278
2.88301e-05
0.000238721
3.3468e-05
0.000257502
3.84903e-05
0.000277492
4.39166e-05
0.000299044
4.97794e-05
0.000321997
5.61116e-05
0.000346401
6.29391e-05
0.000372404
7.02933e-05
0.000399901
7.82077e-05
0.000428798
8.67086e-05
0.000459095
9.58206e-05
0.000490611
0.000105565
0.000523076
0.000115954
0.000556136
0.000126993
0.000589295
0.000138668
0.00062188
0.000150953
0.000652995
0.00016379
0.000681469
0.000177098
0.000705797
0.000190755
0.000724065
0.000204591
0.000733875
0.000218385
0.000732249
0.000231848
0.000715513
0.000244606
0.00067928
0.000256191
0.00061825
0.000265937
0.000525458
0.000273118
0.000392596
0.000226308
0.000276712
-2.23077e-05
1.81736e-05
2.26052e-05
-2.19839e-05
1.96496e-05
-2.16338e-05
2.12454e-05
-2.12546e-05
2.29713e-05
-2.08446e-05
2.48377e-05
-2.04006e-05
2.68563e-05
-1.99206e-05
2.90395e-05
-1.9401e-05
3.1401e-05
-1.88384e-05
3.39433e-05
-1.82291e-05
3.66948e-05
-1.75698e-05
3.96805e-05
-1.68567e-05
4.29099e-05
-1.60847e-05
4.64027e-05
-1.5248e-05
5.01465e-05
-1.43396e-05
5.41835e-05
-1.33573e-05
5.85964e-05
-1.22937e-05
6.33691e-05
-1.11386e-05
6.84371e-05
-9.88535e-06
7.39561e-05
-8.53007e-06
7.99797e-05
-7.05756e-06
8.63826e-05
-5.45978e-06
9.33148e-05
-3.73115e-06
0.000100909
-1.85017e-06
0.0001089
1.86624e-07
0.000117712
2.39617e-06
0.000127143
4.79501e-06
0.000137294
7.39359e-06
0.000148335
1.02161e-05
0.0001601
1.32718e-05
0.000172944
1.65881e-05
0.000186621
2.01786e-05
0.000201486
2.40705e-05
0.000217387
2.82848e-05
0.000234507
3.28431e-05
0.000252944
3.77792e-05
0.000272556
4.3112e-05
0.000293712
4.88736e-05
0.000316236
5.50961e-05
0.000340179
6.18048e-05
0.000365697
6.90302e-05
0.000392677
7.6805e-05
0.000421025
8.51548e-05
0.000450747
9.41034e-05
0.000481665
0.000103671
0.000513511
0.00011387
0.00054594
0.000124705
0.000578465
0.000136163
0.000610426
0.000148217
0.000640948
0.000160812
0.00066888
0.000173869
0.000692749
0.000187268
0.000710679
0.000200844
0.000720315
0.000214378
0.000718733
0.00022759
0.000702326
0.000240111
0.000666795
0.000251479
0.000606932
0.000261047
0.000515954
0.000268106
0.000385627
0.000222863
0.000271677
-2.1933e-05
1.78791e-05
2.22254e-05
-2.16151e-05
1.9331e-05
-2.12714e-05
2.09008e-05
-2.08992e-05
2.25985e-05
-2.04968e-05
2.44345e-05
-2.00612e-05
2.64201e-05
-1.95902e-05
2.85677e-05
-1.90803e-05
3.08905e-05
-1.85283e-05
3.33905e-05
-1.79305e-05
3.60962e-05
-1.72836e-05
3.90329e-05
-1.65839e-05
4.22092e-05
-1.58265e-05
4.56446e-05
-1.50055e-05
4.93245e-05
-1.41142e-05
5.32917e-05
-1.31503e-05
5.76315e-05
-1.21067e-05
6.23251e-05
-1.09731e-05
6.73026e-05
-9.74313e-06
7.27258e-05
-8.41289e-06
7.86487e-05
-6.9674e-06
8.49369e-05
-5.39875e-06
9.17455e-05
-3.70137e-06
9.92118e-05
-1.85414e-06
0.000107052
1.4635e-07
0.000115711
2.31671e-06
0.000124972
4.67314e-06
0.000134937
7.22595e-06
0.000145782
9.99885e-06
0.000157327
1.3001e-05
0.000169942
1.62592e-05
0.000183362
1.97872e-05
0.000197958
2.36108e-05
0.000213563
2.77518e-05
0.000230367
3.22304e-05
0.000248466
3.70802e-05
0.000267707
4.23197e-05
0.000288473
4.79802e-05
0.000310576
5.40931e-05
0.000334066
6.06832e-05
0.000359107
6.77802e-05
0.000385581
7.54161e-05
0.000413389
8.36158e-05
0.000442548
9.24022e-05
0.000472878
0.000101795
0.000504118
0.000111807
0.000535927
0.00012244
0.000567829
0.000133685
0.000599178
0.000145512
0.000629115
0.00015787
0.000656515
0.000170681
0.000679931
0.000183827
0.000697523
0.000197149
0.000706981
0.000210431
0.000705438
0.000223398
0.000689346
0.000235687
0.000654491
0.000246844
0.000595757
0.00025624
0.000506523
0.000263183
0.00037863
0.000219217
0.000266729
-2.15605e-05
1.75899e-05
2.18471e-05
-2.12484e-05
1.90181e-05
-2.09111e-05
2.05624e-05
-2.05456e-05
2.22324e-05
-2.01507e-05
2.40385e-05
-1.9723e-05
2.59917e-05
-1.92606e-05
2.81043e-05
-1.87601e-05
3.03892e-05
-1.82183e-05
3.28476e-05
-1.76316e-05
3.55084e-05
-1.69968e-05
3.8397e-05
-1.63101e-05
4.15212e-05
-1.55668e-05
4.49003e-05
-1.47612e-05
4.85174e-05
-1.38865e-05
5.24161e-05
-1.29405e-05
5.66842e-05
-1.19163e-05
6.13002e-05
-1.08036e-05
6.6189e-05
-9.59636e-06
7.1518e-05
-8.29049e-06
7.73421e-05
-6.87144e-06
8.35175e-05
-5.33128e-06
9.02048e-05
-3.66461e-06
9.75449e-05
-1.85059e-06
0.000105238
1.14079e-07
0.000113746
2.24571e-06
0.00012284
4.56014e-06
0.000132623
7.06753e-06
0.000143275
9.79115e-06
0.000154603
1.274e-05
0.000166993
1.59405e-05
0.000180161
1.94058e-05
0.000194492
2.3162e-05
0.000209808
2.72294e-05
0.0002263
3.16287e-05
0.000244067
3.63925e-05
0.000262944
4.15389e-05
0.000283327
4.70987e-05
0.000305017
5.31026e-05
0.000328063
5.95746e-05
0.000352636
6.65441e-05
0.000378612
7.40421e-05
0.000405892
8.20928e-05
0.000434498
9.07188e-05
0.000464254
9.99389e-05
0.0004949
0.000109766
0.000526103
0.000120201
0.000557397
0.000131235
0.000588148
0.000142841
0.000617515
0.000154966
0.000644395
0.000167536
0.000667369
0.000180437
0.000684634
0.000193509
0.000693922
0.000206545
0.000692418
0.000219273
0.000676641
0.000231337
0.00064246
0.000242289
0.00058485
0.000251518
0.000497352
0.000258347
0.00037188
0.000215807
0.000261868
-2.11912e-05
1.73059e-05
2.14728e-05
-2.08847e-05
1.8711e-05
-2.05535e-05
2.02302e-05
-2.01947e-05
2.18731e-05
-1.98071e-05
2.36498e-05
-1.93872e-05
2.55713e-05
-1.89334e-05
2.76495e-05
-1.8442e-05
2.98973e-05
-1.79103e-05
3.23149e-05
-1.73343e-05
3.49316e-05
-1.67112e-05
3.77731e-05
-1.60372e-05
4.08462e-05
-1.53076e-05
4.417e-05
-1.45168e-05
4.77255e-05
-1.36582e-05
5.1557e-05
-1.27296e-05
5.57547e-05
-1.17243e-05
6.02944e-05
-1.06321e-05
6.50959e-05
-9.447e-06
7.03325e-05
-8.16503e-06
7.60594e-05
-6.77186e-06
8.21241e-05
-5.25967e-06
8.8692e-05
-3.62315e-06
9.59082e-05
-1.84182e-06
0.000103456
8.75569e-08
0.000111817
2.18095e-06
0.000120746
4.45386e-06
0.00013035
6.91629e-06
0.000140812
9.59108e-06
0.000151928
1.24871e-05
0.000164097
1.56302e-05
0.000177018
1.90335e-05
0.000191089
2.27221e-05
0.000206119
2.67168e-05
0.000222306
3.10372e-05
0.000239747
3.57155e-05
0.000258266
4.07694e-05
0.000278273
4.62291e-05
0.000299557
5.21247e-05
0.000322168
5.84797e-05
0.000346282
6.53227e-05
0.00037177
7.26841e-05
0.000398531
8.05877e-05
0.000426595
8.90551e-05
0.000455786
9.81051e-05
0.000485849
0.000107749
0.000516457
0.000117991
0.000547153
0.000128818
0.000577316
0.000140207
0.000606122
0.000152104
0.000632488
0.000164439
0.000655025
0.000177098
0.000671964
0.000189928
0.000681078
0.000202723
0.000679608
0.000215217
0.000664131
0.000227061
0.000630598
0.000237813
0.000574074
0.000246879
0.000488245
0.000253598
0.000365097
0.000212195
0.000257092
-2.0827e-05
1.70271e-05
2.1103e-05
-2.05262e-05
1.84094e-05
-2.02012e-05
1.9904e-05
-1.9849e-05
2.15202e-05
-1.94685e-05
2.32681e-05
-1.90562e-05
2.51584e-05
-1.86106e-05
2.72029e-05
-1.81282e-05
2.94142e-05
-1.76062e-05
3.17917e-05
-1.70406e-05
3.43651e-05
-1.64289e-05
3.71602e-05
-1.57672e-05
4.01832e-05
-1.50509e-05
4.34527e-05
-1.42745e-05
4.69477e-05
-1.34317e-05
5.07132e-05
-1.252e-05
5.48417e-05
-1.15331e-05
5.93067e-05
-1.04607e-05
6.40226e-05
-9.29719e-06
6.91684e-05
-8.03846e-06
7.47999e-05
-6.67059e-06
8.07558e-05
-5.18577e-06
8.72065e-05
-3.57884e-06
9.4301e-05
-1.82962e-06
0.000101706
6.49982e-08
0.000109922
2.12069e-06
0.00011869
4.35262e-06
0.000128118
6.77061e-06
0.000138394
9.3971e-06
0.000149301
1.22408e-05
0.000161253
1.53271e-05
0.000173931
1.86687e-05
0.000187747
2.22909e-05
0.000202497
2.6213e-05
0.000218384
3.04553e-05
0.000235505
3.50488e-05
0.000253672
4.0011e-05
0.000273311
4.53716e-05
0.000294197
5.11599e-05
0.00031638
5.7399e-05
0.000340043
6.41169e-05
0.000365053
7.13434e-05
0.000391306
7.91016e-05
0.000418838
8.74129e-05
0.000447477
9.62952e-05
0.000476969
0.00010576
0.000506994
0.000115811
0.000537105
0.000126436
0.000566694
0.000137611
0.000594951
0.000149286
0.000620817
0.000161391
0.000642927
0.000173814
0.000659549
0.000186406
0.000668497
0.000198966
0.000667062
0.000211231
0.000651885
0.00022286
0.000619
0.000233417
0.000563558
0.000242325
0.00047939
0.000248935
0.000358558
0.000208826
0.000252401
-2.04676e-05
1.67535e-05
2.07389e-05
-2.01722e-05