/*--------------------------------*- C++ -*----------------------------------*\
  =========                 |
  \\      /  F ield         | OpenFOAM: The Open Source CFD Toolbox
   \\    /   O peration     | Website:  https://openfoam.org
    \\  /    A nd           | Version:  6.0
     \\/     M anipulation  |
\*---------------------------------------------------------------------------*/
FoamFile
{
    version     2.0;
    format      ascii;
    class       surfaceScalarField;
    location    "11";
    object      phi;
}
// * * * * * * * * * * * * * * * * * * * * * * * * * * * * * * * * * * * * * //

dimensions      [0 3 -1 0 0 0 0];

internalField   nonuniform List<scalar> 
9714
(
-0.000106783
8.23612e-05
0.000112921
-9.83986e-05
0.00011449
-8.66934e-05
0.000159157
-7.0469e-05
0.000221265
-4.7727e-05
0.000307555
-1.58801e-05
0.000427379
2.89524e-05
0.000593527
9.19612e-05
0.000823313
0.000180205
0.00113897
0.000302832
0.00156608
0.000470603
0.00212513
0.000693474
0.00280336
0.000971451
0.00347608
0.0012706
0.00370779
0.00233137
0.00144341
-0.000100848
7.67844e-05
0.0001065
-9.30846e-05
0.000106733
-8.22375e-05
0.000148357
-6.71857e-05
0.000206213
-4.61019e-05
0.000286501
-1.65581e-05
0.000397844
2.49883e-05
0.000551982
8.33794e-05
0.000764932
0.000165152
0.00105723
0.000278779
0.00145247
0.000434246
0.00196966
0.000640756
0.0025968
0.000898245
0.00321856
0.0011732
0.00343262
0.00216494
0.00133814
-9.5018e-05
7.16288e-05
0.000100295
-8.78313e-05
9.95621e-05
-7.77904e-05
0.000138371
-6.38676e-05
0.000192293
-4.43617e-05
0.000267024
-1.70212e-05
0.000370513
2.14317e-05
0.000513529
7.54858e-05
0.000710891
0.000151185
0.000981557
0.000256401
0.00134729
0.000400389
0.00182565
0.000591702
0.00240542
0.000830384
0.00297989
0.00108577
0.00317739
0.00200756
0.001244
-8.94532e-05
6.68515e-05
9.427e-05
-8.28179e-05
9.29166e-05
-7.35274e-05
0.000129116
-6.06351e-05
0.000179395
-4.25716e-05
0.000248984
-1.72554e-05
0.000345208
1.83384e-05
0.000477935
6.8368e-05
0.000660872
0.000138443
0.000911513
0.000235846
0.0012499
0.000369188
0.00169231
0.0005464
0.00222815
0.000767713
0.00275855
0.00100506
0.00293986
0.0018572
0.00115404
-8.40004e-05
6.24396e-05
8.85239e-05
-7.78611e-05
8.67831e-05
-6.92672e-05
0.000120576
-5.73633e-05
0.00016749
-4.06754e-05
0.000232324
-1.72782e-05
0.000321821
1.5638e-05
0.000445019
6.19257e-05
0.000614597
0.000126771
0.000846691
0.000216935
0.00115977
0.000340382
0.00156884
0.000504497
0.00206398
0.000709627
0.00255346
0.000929921
0.00271978
0.00171965
0.00106859
-7.90255e-05
5.83438e-05
8.31376e-05
-7.33565e-05
8.10911e-05
-6.54038e-05
0.000112655
-5.43811e-05
0.000156454
-3.89292e-05
0.000216892
-1.72726e-05
0.000300175
1.31823e-05
0.000414563
5.60071e-05
0.000571781
0.000116016
0.000786713
0.000199459
0.00107635
0.000313738
0.00145457
0.000465707
0.00191197
0.000655758
0.00236341
0.00086009
0.00251535
0.00158975
0.000988946
-7.43698e-05
5.45547e-05
7.82573e-05
-6.91143e-05
7.58301e-05
-6.17472e-05
0.000105337
-5.15625e-05
0.00014626
-3.72796e-05
0.000202633
-1.72595e-05
0.000280163
1.09071e-05
0.000386395
5.053e-05
0.000532168
0.000106059
0.000731206
0.000183299
0.000999153
0.000289086
0.00134876
0.000429809
0.00177118
0.000605854
0.00218741
0.000795301
0.00232616
0.00147081
0.000915369
-7.03132e-05
5.10242e-05
7.38304e-05
-6.54498e-05
7.09291e-05
-5.86132e-05
9.85251e-05
-4.91554e-05
0.000136782
-3.58992e-05
0.000189395
-1.73371e-05
0.00026161
8.74876e-06
0.000360305
4.54297e-05
0.000495495
9.68405e-05
0.000679828
0.000168339
0.00092767
0.000266287
0.00125083
0.000396613
0.00164084
0.00055969
0.00202441
0.000735294
0.00215059
0.00135813
0.000847369
-6.64815e-05
4.77601e-05
6.98702e-05
-6.19551e-05
6.64006e-05
-5.56034e-05
9.22333e-05
-4.68545e-05
0.000128026
-3.45889e-05
0.000177156
-1.74155e-05
0.000244446
6.73059e-06
0.000336156
4.06939e-05
0.000461539
8.82918e-05
0.000632248
0.00015451
0.000861499
0.000245207
0.0011601
0.000365921
0.00152004
0.000517001
0.00187338
0.000679735
0.00198808
0.00125441
0.000784378
-6.31536e-05
4.47138e-05
6.61961e-05
-5.89632e-05
6.21721e-05
-5.30593e-05
8.63609e-05
-4.49174e-05
0.000119863
-3.3511e-05
0.000165768
-1.75614e-05
0.000228505
4.82722e-06
0.00031376
3.62948e-05
0.000430074
8.03949e-05
0.000588181
0.000141715
0.000800181
0.000225725
0.0010761
0.000337558
0.00140822
0.000477548
0.00173352
0.000628323
0.00183743
0.00115665
0.000725877
-5.98808e-05
4.19013e-05
6.28151e-05
-5.59841e-05
5.82684e-05
-5.05052e-05
8.09385e-05
-4.29742e-05
0.00011232
-3.24171e-05
0.000155233
-1.76511e-05
0.000213743
3.09019e-06
0.000293011
3.2248e-05
0.000400918
7.30944e-05
0.000547339
0.000129917
0.000743406
0.000207734
0.00099824
0.000311351
0.00130452
0.000441082
0.0016038
0.000580737
0.00169795
0.00106633
0.000671506
-5.69617e-05
3.92774e-05
5.95642e-05
-5.33628e-05
5.46236e-05
-4.82799e-05
7.58763e-05
-4.12727e-05
0.000105286
-3.14544e-05
0.000145425
-1.77336e-05
0.000200024
1.50707e-06
0.000273754
2.85316e-05
0.000373883
6.63957e-05
0.000509498
0.000119026
0.000690754
0.00019113
0.000926147
0.00028715
0.00120853
0.000407394
0.00148375
0.000536708
0.00156878
0.000982014
0.000621003
-5.40127e-05
3.68575e-05
5.64978e-05
-5.06769e-05
5.12614e-05
-4.59716e-05
7.12041e-05
-3.94949e-05
9.8786e-05
-3.04104e-05
0.00013635
-1.77079e-05
0.000187316
1.18459e-07
0.000255907
2.51645e-05
0.000348822
6.02362e-05
0.000474403
0.000109026
0.000642002
0.000175825
0.000859283
0.000264812
0.00111944
0.000376269
0.00137228
0.000495976
0.00144913
0.000903619
0.000574137
-5.13535e-05
3.45988e-05
5.35289e-05
-4.82762e-05
4.81205e-05
-4.39134e-05
6.68398e-05
-3.78849e-05
9.27217e-05
-2.94372e-05
0.000127898
-1.76359e-05
0.000175504
-1.10282e-06
0.000239339
2.21035e-05
0.000325572
5.46328e-05
0.000441896
9.98222e-05
0.000596788
0.000161723
0.000797393
0.000244206
0.00103703
0.000347533
0.00126916
0.000458302
0.00133845
0.000831282
0.000530697
-4.86037e-05
3.25231e-05
5.07502e-05
-4.57376e-05
4.5235e-05
-4.16931e-05
6.28278e-05
-3.61397e-05
8.71363e-05
-2.83413e-05
0.000120097
-1.74384e-05
0.000164576
-2.14522e-06
0.00022399
1.93865e-05
0.000304049
4.95116e-05
0.000411763
9.13986e-05
0.000554933
0.000148749
0.000739975
0.000225207
0.000960461
0.000321004
0.00117331
0.000423474
0.00123578
0.000763229
0.000490448
-4.61496e-05
3.05821e-05
4.80147e-05
-4.35062e-05
4.25343e-05
-3.97615e-05
5.90745e-05
-3.45868e-05
8.19211e-05
-2.73379e-05
0.000112831
-1.72274e-05
0.000154424
-2.99723e-06
0.000209772
1.69368e-05
0.00028409
4.48668e-05
0.000383857
8.36609e-05
0.000516131
0.00013681
0.000686832
0.000207703
0.000889656
0.000296531
0.00108467
0.00039128
0.00114102
0.000701369
0.000453221
-4.35854e-05
2.88046e-05
4.54512e-05
-4.1126e-05
4.00627e-05
-3.76722e-05
5.56371e-05
-3.29078e-05
7.71339e-05
-2.624e-05
0.000106141
-1.68576e-05
0.000145056
-3.73084e-06
0.000196596
1.47648e-05
0.000265614
4.06364e-05
0.000357989
7.65854e-05
0.000480162
0.000125842
0.000637478
0.000191585
0.000823784
0.000273959
0.00100215
0.000361547
0.00105304
0.000642571
0.000418782
-4.13571e-05
2.71388e-05
4.29517e-05
-3.909e-05
3.77442e-05
-3.58901e-05
5.24145e-05
-3.14549e-05
7.26546e-05
-2.52353e-05
9.98991e-05
-1.65624e-05
0.000136328
-4.32404e-06
0.000184377
1.28066e-05
0.000248454
3.67846e-05
0.000333986
7.00984e-05
0.000446809
0.000115766
0.000591803
0.000176758
0.000762894
0.00025316
0.000925909
0.000334079
0.000972042
0.000589867
0.000386971
-3.91056e-05
2.56058e-05
4.06486e-05
-3.69994e-05
3.5611e-05
-3.40477e-05
4.94475e-05
-2.99507e-05
6.85234e-05
-2.42157e-05
9.41293e-05
-1.61359e-05
0.000128255
-4.84387e-06
0.000173023
1.10606e-05
0.000232546
3.32942e-05
0.000311729
6.41834e-05
0.000415863
0.00010653
0.000549324
0.000163129
0.000706137
0.000233998
0.000854843
0.000308731
0.0008967
0.000538926
0.000357553
-3.71118e-05
2.4165e-05
3.84084e-05
-3.51679e-05
3.36043e-05
-3.24245e-05
4.6659e-05
-2.86026e-05
6.46502e-05
-2.32433e-05
8.87378e-05
-1.57747e-05
0.000120724
-5.23199e-06
0.000162494
9.504e-06
0.00021776
3.0126e-05
0.000291058
5.87723e-05
0.000387156
9.80636e-05
0.000510026
0.000150621
0.000653697
0.000216359
0.000789211
0.000285328
0.00082759
0.000494107
0.000330398
-3.50252e-05
2.28473e-05
3.63485e-05
-3.32099e-05
3.17703e-05
-3.06825e-05
4.41074e-05
-2.71625e-05
6.1095e-05
-2.22333e-05
8.37692e-05
-1.52792e-05
0.000113769
-5.56461e-06
0.000152705
8.13276e-06
0.000204053
2.7271e-05
0.000271879
5.38577e-05
0.000360487
9.03247e-05
0.0004734
0.000139148
0.000604704
0.000200127
0.000727974
0.000263746
0.000763205
0.000450249
0.00030529
-3.32348e-05
2.16053e-05
3.43386e-05
-3.1556e-05
3.00401e-05
-2.92033e-05
4.17034e-05
-2.59142e-05
5.77554e-05
-2.13025e-05
7.91193e-05
-1.48739e-05
0.000107271
-5.78373e-06
0.000143624
6.91559e-06
0.000191289
2.46866e-05
0.000254042
4.93752e-05
0.000335742
8.32532e-05
0.000439532
0.000128649
0.000559449
0.000185195
0.000671477
0.000243829
0.000704407
0.000412247
0.000282108
-3.14188e-05
2.0463e-05
3.25076e-05
-2.9854e-05
2.84485e-05
-2.7684e-05
3.94888e-05
-2.46421e-05
5.46705e-05
-2.03817e-05
7.48117e-05
-1.43704e-05
0.000101248
-5.97817e-06
0.000135151
5.8538e-06
0.00017944
2.23771e-05
0.000237471
4.5322e-05
0.000312698
7.68117e-05
0.000407872
0.000119047
0.000517034
0.000171462
0.000618806
0.000225472
0.00064958
0.000374621
0.000260671
-2.98368e-05
1.93846e-05
3.07486e-05
-2.83808e-05
2.69447e-05
-2.63529e-05
3.73995e-05
-2.35023e-05
5.17689e-05
-1.95078e-05
7.07744e-05
-1.3937e-05
9.56109e-05
-6.06458e-06
0.000127283
4.91998e-06
0.000168373
2.0296e-05
0.00022203
4.16417e-05
0.000291307
7.0954e-05
0.000378606
0.000110293
0.00047786
0.000158833
0.000570236
0.000208535
0.000599683
0.000342401
0.000240862
-2.82165e-05
1.83957e-05
2.91594e-05
-2.68443e-05
2.55656e-05
-2.49711e-05
3.54795e-05
-2.23324e-05
4.90924e-05
-1.8633e-05
6.70355e-05
-1.34165e-05
9.03811e-05
-6.14556e-06
0.00011992
4.13017e-06
0.000158094
1.84566e-05
0.000207647
3.83381e-05
0.000271322
6.56478e-05
0.000351109
0.00010231
0.000441018
0.000147217
0.000525046
0.000192931
0.000553054
0.000309967
0.000222543
-2.68196e-05
1.74618e-05
2.76262e-05
-2.55302e-05
2.42624e-05
-2.37714e-05
3.3668e-05
-2.12879e-05
4.65742e-05
-1.78123e-05
6.35275e-05
-1.29728e-05
8.54766e-05
-6.11688e-06
0.000113077
3.43974e-06
0.000148446
1.68166e-05
0.000194217
3.53584e-05
0.000252756
6.08599e-05
0.000325704
9.50585e-05
0.000406982
0.000136524
0.00048343
0.000178538
0.000510756
0.000282554
0.000205607
-2.54237e-05
1.66008e-05
2.62326e-05
-2.4206e-05
2.30598e-05
-2.25731e-05
3.19925e-05
-2.02619e-05
4.4236e-05
-1.7023e-05
6.02596e-05
-1.24601e-05
8.09048e-05
-6.1038e-06
0.000106637
2.88609e-06
0.000139467
1.53941e-05
0.000181644
3.27146e-05
0.000235295
5.656e-05
0.000301661
8.84617e-05
0.000374902
0.000126678
0.000444983
0.000165289
0.000471246
0.000254969
0.000189957
-2.42379e-05
1.57768e-05
2.48924e-05
-2.30858e-05
2.19081e-05
-2.15392e-05
3.03935e-05
-1.93413e-05
4.20173e-05
-1.6277e-05
5.7174e-05
-1.20129e-05
7.65954e-05
-5.98447e-06
0.000100625
2.40957e-06
0.000130965
1.41433e-05
0.000169845
3.0369e-05
0.000219057
5.27323e-05
0.000279437
8.24856e-05
0.000345275
0.000117593
0.000409582
0.000153074
0.000435362
0.000231551
0.000175495
-2.29821e-05
1.50249e-05
2.37037e-05
-2.18787e-05
2.08565e-05
-2.04392e-05
2.8926e-05
-1.8398e-05
3.99644e-05
-1.55328e-05
5.42987e-05
-1.15041e-05
7.25601e-05
-5.89095e-06
9.49218e-05
2.06477e-06
0.000123013
1.30977e-05
0.000158694
2.83339e-05
0.000203618
4.9337e-05
0.000258197
7.70467e-05
0.000317326
0.000109209
0.000377113
0.000141842
0.000401618
0.000207804
0.00016215
-2.19207e-05
1.43038e-05
2.25321e-05
-2.08713e-05
1.98471e-05
-1.95057e-05
2.75219e-05
-1.75621e-05
3.80098e-05
-1.48497e-05
5.15679e-05
-1.10635e-05
6.87299e-05
-5.69749e-06
8.95593e-05
1.77434e-06
0.000115383
1.22117e-05
0.000148176
2.65816e-05
0.00018925
4.6365e-05
0.000238565
7.21079e-05
0.00029158
0.000101449
0.000347252
0.000131498
0.000370888
0.000187388
0.000149818
-2.0852e-05
1.36361e-05
2.14762e-05
-1.98543e-05
1.89099e-05
-1.8574e-05
2.62113e-05
-1.67602e-05
3.61723e-05
-1.41946e-05
4.89915e-05
-1.05857e-05
6.51011e-05
-5.54524e-06
8.44101e-05
1.62463e-06
0.000108199
1.15236e-05
0.00013809
2.51181e-05
0.000175358
4.37655e-05
0.000219624
6.75848e-05
0.000267517
9.4266e-05
0.000320355
0.000122001
0.000342167
0.00016772
0.000138456
-1.99366e-05
1.2995e-05
2.04734e-05
-1.89868e-05
1.80091e-05
-1.77691e-05
2.49545e-05
-1.60289e-05
3.44167e-05
-1.3593e-05
4.65269e-05
-1.01646e-05
6.16288e-05
-5.29352e-06
7.95183e-05
1.51528e-06
0.000101162
1.09868e-05
0.000128529
2.39405e-05
0.00016246
4.15386e-05
0.000202159
6.34377e-05
0.000245432
8.75955e-05
0.000295435
0.000113268
0.000315436
0.000149564
0.000127968
-1.90428e-05
1.23956e-05
1.95774e-05
-1.81315e-05
1.71642e-05
-1.69731e-05
2.37706e-05
-1.53408e-05
3.27521e-05
-1.30101e-05
4.41856e-05
-9.71894e-06
5.83086e-05
-5.09484e-06
7.47586e-05
1.57039e-06
9.45821e-05
1.06469e-05
0.000119205
2.30245e-05
0.000149692
3.95966e-05
0.000185186
5.95837e-05
0.00022508
8.1411e-05
0.000273173
0.000105262
0.000290261
0.000132983
0.000118328
-1.82599e-05
1.18194e-05
1.87399e-05
-1.73741e-05
1.63529e-05
-1.62616e-05
2.26372e-05
-1.46907e-05
3.11635e-05
-1.24708e-05
4.19435e-05
-9.32237e-06
5.51323e-05
-4.74662e-06
7.02704e-05
1.61722e-06
8.79569e-05
1.04416e-05
0.000110415
2.23801e-05
0.000137906
3.79334e-05
0.000169658
5.59794e-05
0.000206509
7.56614e-05
0.000252254
9.79223e-05
0.000266142
0.000116058
0.000109436
-1.74796e-05
1.12784e-05
1.7974e-05
-1.66311e-05
1.55882e-05
-1.55696e-05
2.15653e-05
-1.40843e-05
2.96525e-05
-1.19317e-05
3.98197e-05
-8.86967e-06
5.20693e-05
-4.51629e-06
6.57898e-05
1.85624e-06
8.18197e-05
1.04003e-05
0.000101576
2.19495e-05
0.0001259
3.64356e-05
0.000154741
5.25632e-05
0.000190034
7.03317e-05
0.000234263
9.12001e-05
0.000244359
0.000103306
0.00010129
-1.67855e-05
1.07568e-05
1.72307e-05
-1.59545e-05
1.48514e-05
-1.49357e-05
2.05317e-05
-1.34663e-05
2.8199e-05
-1.14608e-05
3.77174e-05
-8.48896e-06
4.90659e-05
-4.09913e-06
6.14723e-05
2.0355e-06
7.53106e-05
1.04988e-05
9.32241e-05
2.17823e-05
0.000114881
3.51041e-05
0.000141225
4.93045e-05
0.000174921
6.53903e-05
0.000216313
8.50517e-05
0.000221735
8.69553e-05
9.37714e-05
-1.60851e-05
1.02587e-05
1.65378e-05
-1.53058e-05
1.414e-05
-1.43018e-05
1.95243e-05
-1.29823e-05
2.67498e-05
-1.09533e-05
3.56736e-05
-8.05151e-06
4.60402e-05
-3.80418e-06
5.69833e-05
2.45099e-06
6.93021e-05
1.076e-05
8.45519e-05
2.17522e-05
0.000103444
3.38032e-05
0.000128711
4.61721e-05
0.000162336
6.08285e-05
0.000201432
7.94275e-05
0.000202282
7.75798e-05
8.69218e-05
-1.54935e-05
9.77136e-06
1.58988e-05
-1.47397e-05
1.34424e-05
-1.37899e-05
1.85338e-05
-1.24162e-05
2.53386e-05
-1.05222e-05
3.35887e-05
-7.6311e-06
4.30236e-05
-3.26101e-06
5.25836e-05
2.82161e-06
6.27783e-05
1.1188e-05
7.63634e-05
2.19385e-05
9.29719e-05
3.2555e-05
0.000117411
4.31505e-05
0.00015025
5.66386e-05
0.000185074
7.42926e-05
0.000179973
6.10672e-05
8.05756e-05
-1.49437e-05
9.29555e-06
1.5328e-05
-1.42233e-05
1.27563e-05
-1.32702e-05
1.75529e-05
-1.19783e-05
2.39123e-05
-1.00087e-05
3.15418e-05
-7.12076e-06
3.99137e-05
-2.76847e-06
4.79619e-05
3.44807e-06
5.67461e-05
1.17651e-05
6.76324e-05
2.21565e-05
8.22073e-05
3.12265e-05
0.000108027
4.02495e-05
0.000141268
5.27946e-05
0.000172936
6.96051e-05
0.000163389
5.56079e-05
7.48551e-05
-1.44489e-05
8.83171e-06
1.48227e-05
-1.37443e-05
1.20836e-05
-1.2806e-05
1.65836e-05
-1.14536e-05
2.25e-05
-9.54586e-06
2.94099e-05
-6.55621e-06
3.6771e-05
-2.01672e-06
4.33128e-05
4.08303e-06
5.01845e-05
1.25553e-05
5.93225e-05
2.25338e-05
7.23487e-05
2.98763e-05
9.93157e-05
3.74849e-05
0.000131587
4.93274e-05
0.000156969
6.52903e-05
0.000140779
3.87257e-05
6.94909e-05
-1.39977e-05
8.3741e-06
1.43646e-05
-1.33073e-05
1.14128e-05
-1.23464e-05
1.56068e-05
-1.10156e-05
2.1049e-05
-8.97435e-06
2.72652e-05
-5.87976e-06
3.34665e-05
-1.2301e-06
3.83394e-05
4.96969e-06
4.41095e-05
1.34535e-05
5.06686e-05
2.28113e-05
6.3155e-05
2.84215e-05
9.39208e-05
3.49059e-05
0.00012626
4.61736e-05
0.000147516
6.13919e-05
0.000127466
3.79758e-05
6.47514e-05
-1.3584e-05
7.91583e-06
1.39528e-05
-1.28968e-05
1.07358e-05
-1.19185e-05
1.46172e-05
-1.04999e-05
1.95723e-05
-8.38643e-06
2.50101e-05
-5.13207e-06
3.00066e-05
-1.61678e-07
3.32157e-05
5.97188e-06
3.79756e-05
1.4611e-05
4.24441e-05
2.31561e-05
5.48541e-05
2.69812e-05
8.85953e-05
3.25706e-05
0.000118876
4.34197e-05
0.00013153
5.77013e-05
0.00010473
2.17091e-05
6.01784e-05
-1.31801e-05
7.46133e-06
1.35913e-05
-1.24824e-05
1.00573e-05
-1.14714e-05
1.36098e-05
-9.97651e-06
1.80461e-05
-7.71661e-06
2.2656e-05
-4.21606e-06
2.62714e-05
1.1092e-06
2.78053e-05
7.22372e-06
3.22442e-05
1.55541e-05
3.41867e-05
2.29548e-05
4.79306e-05
2.541e-05
8.67175e-05
3.05062e-05
0.000115326
4.09414e-05
0.000124028
5.44614e-05
9.49593e-05
2.45558e-05
5.62611e-05
-1.27866e-05
7.00564e-06
1.3253e-05
-1.2081e-05
9.36695e-06
-1.10064e-05
1.25759e-05
-9.39932e-06
1.6454e-05
-7.0077e-06
2.00987e-05
-3.11117e-06
2.22828e-05
2.72674e-06
2.22106e-05
8.66127e-06
2.64035e-05
1.70091e-05
2.71907e-05
2.3293e-05
4.25223e-05
2.42444e-05
8.49478e-05
2.89672e-05
0.000110406
3.88865e-05
0.000108544
5.11852e-05
7.30746e-05
1.04014e-05
5.22751e-05
-1.24025e-05
6.54869e-06
1.29241e-05
-1.16582e-05
8.66471e-06
-1.0511e-05
1.15084e-05
-8.86731e-06
1.4736e-05
-6.15986e-06
1.73494e-05
-1.73349e-06
1.79648e-05
4.52273e-06
1.60898e-05
1.06598e-05
2.1946e-05
1.90863e-05
1.99824e-05
2.46172e-05
3.87109e-05
2.49139e-05
8.61593e-05
2.89585e-05
0.000109289
3.72664e-05
0.00010547
4.83659e-05
6.90055e-05
1.79403e-05
4.89292e-05
-1.20182e-05
6.08859e-06
1.26056e-05
-1.12296e-05
7.94114e-06
-1.00981e-05
1.03516e-05
-8.23448e-06
1.28589e-05
-5.18143e-06
1.43336e-05
-2.25282e-07
1.31914e-05
6.84793e-06
9.53287e-06
1.36248e-05
1.61771e-05
2.28193e-05
1.48019e-05
2.57883e-05
3.78933e-05
2.62727e-05
8.60287e-05
3.08416e-05
0.000107383
3.68455e-05
9.45301e-05
4.55092e-05
5.08308e-05
7.96814e-06
4.53425e-05
-1.16533e-05
5.60984e-06
1.2317e-05
-1.08644e-05
7.1529e-06
-9.61174e-06
9.08052e-06
-7.53053e-06
1.07847e-05
-3.99281e-06
1.08768e-05
1.65065e-06
7.40923e-06
9.8651e-06
2.90504e-06
1.7678e-05
1.2106e-05
2.58563e-05
9.10525e-06
2.57951e-05
3.98433e-05
2.88652e-05
8.46413e-05
3.35974e-05
0.000105745
3.71985e-05
9.60213e-05
4.36678e-05
5.24576e-05
1.68552e-05
4.26651e-05
-1.1284e-05
5.10714e-06
1.20275e-05
-1.04255e-05
6.30234e-06
-9.01222e-06
7.67144e-06
-6.59776e-06
8.33851e-06
-2.6576e-06
6.78729e-06
4.23652e-06
1.80779e-06
1.36534e-05
-5.60847e-06
2.18336e-05
4.87889e-06
2.99474e-05
7.57539e-06
2.65292e-05
4.66399e-05
3.15421e-05
8.07717e-05
3.64647e-05
0.000108024
3.81753e-05
9.17088e-05
4.17661e-05
4.14198e-05
1.34508e-05
3.96305e-05
-1.09779e-05
4.5876e-06
1.18169e-05
-9.9931e-06
5.36684e-06
-8.40726e-06
6.02253e-06
-5.64725e-06
5.5451e-06
-5.81016e-07
2.11207e-06
6.94023e-06
-6.10689e-06
1.74991e-05
-1.31127e-05
2.5365e-05
2.43682e-06
3.26928e-05
2.03365e-07
2.75292e-05
5.17527e-05
3.43106e-05
7.44628e-05
3.86175e-05
0.000103024
3.83302e-05
9.51281e-05
4.01589e-05
4.72125e-05
2.15753e-05
3.72118e-05
-1.06179e-05
3.97893e-06
1.15802e-05
-9.50129e-06
4.27098e-06
-7.61405e-06
4.16888e-06
-4.42281e-06
2.22321e-06
1.09673e-06
-3.46343e-06
9.78579e-06
-1.2501e-05
1.97561e-05
-2.26702e-05
2.78859e-05
-8.36945e-06
3.69939e-05
8.10318e-07
2.88641e-05
6.69296e-05
3.43956e-05
7.13016e-05
3.85665e-05
0.000109714
3.741e-05
9.83739e-05
3.73772e-05
4.50419e-05
2.62128e-05
3.37662e-05
-1.01869e-05
3.28875e-06
1.12763e-05
-8.83878e-06
3.01138e-06
-6.81035e-06
1.94939e-06
-3.08826e-06
-1.37261e-06
2.91951e-06
-8.99124e-06
1.1629e-05
-2.23174e-05
2.30232e-05
-2.9832e-05
3.47732e-05
-1.05634e-05
4.37687e-05
-1.42063e-05
3.02584e-05
7.63018e-05
3.35173e-05
6.60774e-05
3.71933e-05
0.000101218
3.47074e-05
0.000100389
3.40701e-05
5.03778e-05
3.02846e-05
3.08325e-05
-1.01149e-05
2.7242e-06
1.10461e-05
-8.80855e-06
1.70303e-06
-6.0917e-06
-6.88588e-07
-2.04564e-06
-5.80069e-06
2.96183e-06
-1.41227e-05
1.53301e-05
-3.17723e-05
2.98117e-05
-4.71963e-05
4.56182e-05
-3.39715e-05
5.39219e-05
-1.25763e-05
3.17958e-05
0.00010971
3.1067e-05
7.0461e-05
3.25089e-05
0.000109296
3.02638e-05
0.000110311
3.02014e-05
5.47738e-05
3.94431e-05
2.80164e-05
-1.08964e-05
2.52219e-06
1.14399e-05
-9.51196e-06
3.93353e-07
-6.21981e-06
-4.30898e-06
-2.25323e-06
-9.39656e-06
2.94088e-06
-1.89078e-05
2.30509e-05
-5.40563e-05
4.6612e-05
-6.18566e-05
4.64738e-05
-1.87612e-05
3.75354e-05
-1.58959e-05
2.10216e-05
0.000117409
2.19618e-05
6.55207e-05
2.18974e-05
0.000103028
2.26009e-05
0.000105526
2.56598e-05
5.40125e-05
3.69013e-05
2.57558e-05
-1.15157e-05
2.24839e-06
1.20414e-05
-1.01374e-05
-1.02497e-06
-5.26052e-06
-8.83509e-06
-2.1285e-06
-1.28687e-05
3.87756e-06
-2.50312e-05
4.35834e-05
-9.04659e-05
4.97557e-05
-7.25567e-05
2.49138e-05
-5.19526e-06
1.05191e-05
7.38145e-06
-1.78326e-06
0.00013989
4.49431e-06
6.3658e-05
5.2967e-06
0.00010898
1.28846e-05
0.000108448
2.04206e-05
5.428e-05
4.19774e-05
2.31899e-05
-7.51638e-06
-1.83676e-07
1.02716e-05
-5.85388e-06
-2.5314e-06
-9.48479e-07
-1.40578e-05
-2.76945e-06
-1.05465e-05
-2.21796e-06
-2.52571e-05
2.84065e-05
-0.000123685
1.41432e-06
-4.01132e-05
-1.52018e-05
1.85425e-05
-3.31717e-05
1.09395e-05
-3.6812e-05
0.000135772
-2.16221e-05
4.31857e-05
-1.62389e-05
9.5419e-05
8.86188e-07
8.73741e-05
1.42958e-05
4.35677e-05
3.36561e-05
2.02111e-05
-1.04751e-05
-2.93425e-06
1.32698e-05
-1.10061e-05
-2.20073e-06
-6.39375e-06
-1.84486e-05
-4.20831e-06
-1.31865e-05
-6.00346e-06
-2.39371e-05
1.00252e-05
-0.000137929
-4.62396e-05
1.1945e-05
-6.71367e-05
3.09026e-05
-9.3895e-05
3.49959e-05
-6.51816e-05
0.000108771
-5.05027e-05
2.83152e-05
-3.60739e-05
7.84957e-05
-7.76336e-06
6.30121e-05
8.85695e-06
3.27518e-05
2.87454e-05
1.66233e-05
-1.61942e-05
-2.47126e-06
1.57208e-05
-1.38549e-05
-5.09557e-06
-1.57471e-05
-1.72772e-05
-1.33944e-05
-1.60943e-05
-3.0008e-05
-7.43152e-06
-4.82181e-05
-0.000123546
-8.94439e-05
5.20338e-05
-0.000107659
4.61812e-05
-0.000107352
2.286e-05
-7.47558e-05
7.06802e-05
-6.76464e-05
1.61952e-05
-3.91314e-05
4.3139e-05
-1.16414e-05
3.28105e-05
4.40227e-06
1.93981e-05
1.85943e-05
1.25386e-05
-9.11205e-06
-1.82171e-06
7.66767e-06
-1.06284e-05
-3.77197e-06
-1.85627e-05
-1.03319e-05
-2.37032e-05
-1.17209e-05
-4.98958e-05
1.79039e-05
-0.000119553
-5.67277e-05
-9.29121e-05
1.9322e-05
-9.96151e-05
3.99218e-05
-9.09176e-05
3.06344e-06
-5.831e-05
3.26979e-05
-4.77238e-05
1.7667e-06
-2.69669e-05
1.84268e-05
-1.16556e-05
1.46999e-05
1.26612e-06
8.79509e-06
8.84105e-06
8.02802e-06
-8.78266e-06
1.74621e-07
6.86857e-06
-1.15375e-05
-1.40262e-06
-1.83438e-05
-4.16325e-06
-2.4364e-05
-6.62223e-06
-1.82553e-05
1.09507e-05
-5.0791e-05
-2.65668e-05
-5.83767e-05
1.74512e-05
-5.47429e-05
1.91423e-05
-5.10299e-05
-1.25701e-05
-3.07914e-05
6.71263e-06
-2.76795e-05
-4.94613e-06
-1.77418e-05
4.99435e-06
-8.93057e-06
2.54431e-06
-4.13607e-07
2.91942e-06
1.59153e-06
3.68371e-06
-7.5158e-06
7.62388e-06
-9.0782e-06
-1.34438e-05
-2.02395e-05
-9.42829e-06
-3.64391e-05
-1.93954e-05
-4.42064e-07
-1.3054e-05
-6.35257e-06
-1.13043e-05
-6.3128e-06
-3.76731e-06
-8.4857e-07
7.41167e-07
0.00144775
4.80493e-05
0.00145226
4.79608e-05
0.00145734
4.79108e-05
0.0014631
4.76952e-05
0.00146945
4.73776e-05
0.00147638
4.70179e-05
0.00148391
4.66712e-05
0.00149204
4.63697e-05
0.00150064
4.62114e-05
4.63787e-05
0.00150941
0.00134083
4.52867e-05
0.00134478
4.3947e-05
0.00134955
4.30851e-05
0.00135488
4.23265e-05
0.00136071
4.15025e-05
0.00136718
4.05326e-05
0.00137444
3.93826e-05
0.00138273
3.80445e-05
0.00139231
3.65797e-05
3.42482e-05
0.00140444
0.00124374
4.54738e-05
0.00124478
4.28429e-05
0.00124683
4.09861e-05
0.0012498
3.93191e-05
0.00125371
3.7574e-05
0.00125859
3.56582e-05
0.00126438
3.35713e-05
0.00127113
3.12807e-05
0.00127846
2.92058e-05
2.63842e-05
0.00128633
0.00115494
4.44864e-05
0.00115674
4.0975e-05
0.00115924
3.8447e-05
0.00116237
3.61698e-05
0.00116612
3.381e-05
0.00117054
3.12551e-05
0.00117562
2.84965e-05
0.00118142
2.54741e-05
0.0011881
2.24932e-05
1.88756e-05
0.00119561
0.0010708
4.21842e-05
0.00107367
3.80444e-05
0.00107697
3.51063e-05
0.00108062
3.25158e-05
0.00108458
2.98558e-05
0.00108889
2.6975e-05
0.00109355
2.38533e-05
0.0010986
2.04189e-05
0.00110404
1.70242e-05
1.30356e-05
0.00110988
0.00099133
3.97028e-05
0.000994459
3.48568e-05
0.000998045
3.14915e-05
0.00100193
2.863e-05
0.00100603
2.57702e-05
0.00101033
2.27032e-05
0.00101482
1.93805e-05
0.00101952
1.57099e-05
0.00102446
1.20364e-05
7.83667e-06
0.00102966
0.00091731
3.7664e-05
0.000920178
3.19416e-05
0.000923643
2.80104e-05
0.000927481
2.48134e-05
0.000931545
2.17377e-05
0.000935777
1.85146e-05
0.000940134
1.50485e-05
0.000944633
1.12119e-05
0.00094932
7.31519e-06
2.99164e-06
0.000954168
0.000848852
3.61145e-05
0.00085133
2.94073e-05
0.00085452
2.48352e-05
0.000858135
2.12258e-05
0.000862014
1.79083e-05
0.000866057
1.4524e-05
0.000870206
1.09278e-05
0.000874473
6.95872e-06
0.000878906
2.8356e-06
-1.62387e-06
0.000883504
0.00078553
3.48098e-05
0.000787726
2.71707e-05
0.000790609
2.18897e-05
0.000793975
1.7851e-05
0.000797604
1.42677e-05
0.00080139
1.07115e-05
0.000805289
7.01537e-06
0.000809266
2.89222e-06
0.000813369
-1.39432e-06
-5.89587e-06
0.000817613
0.000726969
3.36112e-05
0.000728955
2.50579e-05
0.000731635
1.91194e-05
0.00073475
1.46463e-05
0.00073811
1.08019e-05
0.00074163
7.10551e-06
0.000745199
3.30444e-06
0.000748864
-9.19949e-07
0.000752667
-5.34025e-06
-9.89534e-06
0.000756581
0.000672626
3.24115e-05
0.000674538
2.30699e-05
0.000677065
1.65266e-05
0.00067998
1.16711e-05
0.000683116
7.60998e-06
0.000686361
3.80037e-06
0.000689652
-5.96675e-08
0.000693035
-4.37553e-06
0.000696467
-8.94407e-06
-1.33335e-05
0.000699962
0.000622248
3.11667e-05
0.00062417
2.11397e-05
0.000626619
1.40817e-05
0.000629389
8.89462e-06
0.000632328
4.663e-06
0.000635333
7.75659e-07
0.00063835
-3.12029e-06
0.000641391
-7.4951e-06
0.000644543
-1.20996e-05
-1.63228e-05
0.000647475
0.000575533
2.98064e-05
0.000577521
1.92126e-05
0.000579935
1.17253e-05
0.000582613
6.28755e-06
0.000585397
1.95893e-06
0.000588199
-1.95175e-06
0.000590961
-5.8147e-06
0.000593713
-1.01832e-05
0.000596482
-1.49107e-05
-1.87019e-05
0.000599027
0.000532275
2.83521e-05
0.000534361
1.72681e-05
0.000536791
9.39476e-06
0.000539421
3.7533e-06
0.000542088
-6.40668e-07
0.000544718
-4.53775e-06
0.000547225
-8.30248e-06
0.000549645
-1.26238e-05
0.000552105
-1.73025e-05
-2.06831e-05
0.000554032
0.000492199
2.67666e-05
0.000494377
1.52615e-05
0.000496854
7.10395e-06
0.000499465
1.34514e-06
0.000502061
-3.01835e-06
0.000504545
-6.79791e-06
0.000506826
-1.03855e-05
0.00050897
-1.45866e-05
0.000511034
-1.93033e-05
-2.19727e-05
0.000512562
0.000455119
2.51135e-05
0.000457405
1.31962e-05
0.000459949
4.76488e-06
0.000462576
-1.11263e-06
0.00046513
-5.43351e-06
0.000467482
-9.05984e-06
0.000469548
-1.24096e-05
0.000471394
-1.64298e-05
0.00047315
-2.10019e-05
-2.29751e-05
0.000474092
0.000420789
2.33303e-05
0.000423179
1.10856e-05
0.000425789
2.48411e-06
0.000428459
-3.3863e-06
0.000430982
-7.52388e-06
0.000433229
-1.08724e-05
0.000435113
-1.3911e-05
0.000436691
-1.77043e-05
0.000438116
-2.22829e-05
-2.33747e-05
0.000438743
0.000389058
2.15006e-05
0.00039156
8.9211e-06
0.000394242
5.72065e-08
0.000396977
-5.83589e-06
0.000399474
-9.82249e-06
0.00040162
-1.28927e-05
0.000403325
-1.55387e-05
0.000404613
-1.90264e-05
0.000405798
-2.34368e-05
-2.3695e-05
0.000406035
0.000359707
1.95724e-05
0.000362287
6.70216e-06
0.000365047
-2.15291e-06
0.000367838
-7.91522e-06
0.000370321
-1.15331e-05
0.000372388
-1.41984e-05
0.000373928
-1.64424e-05
0.000374964
-1.96352e-05
0.000375842
-2.41174e-05
-2.35229e-05
0.000375737
0.00033258
1.76034e-05
0.000335281
4.37929e-06
0.0003381
-4.66489e-06
0.000340959
-1.03909e-05
0.000343418
-1.37545e-05
0.000345401
-1.60168e-05
0.000346775
-1.77483e-05
0.000347562
-2.04804e-05
0.000348132
-2.46924e-05
-2.28384e-05
0.000347478
0.000307492
1.54398e-05
0.000310293
2.01433e-06
0.000313165
-6.85727e-06
0.000316078
-1.22775e-05
0.000318518
-1.514e-05
0.000320433
-1.68804e-05
0.000321661
-1.81145e-05
0.000322193
-2.05112e-05
0.00032252
-2.47747e-05
-2.19541e-05
0.000321599
0.000284326
1.32938e-05
0.000287243
-5.58859e-07
0.000290143
-9.61151e-06
0.000293113
-1.49317e-05
0.00029552
-1.74628e-05
0.000297359
-1.86606e-05
0.000298444
-1.9177e-05
0.000298728
-2.09058e-05
0.000298824
-2.47042e-05
-2.0469e-05
0.000297583
0.000262903
1.08849e-05
0.000265911
-3.05043e-06
0.00026883
-1.16852e-05
0.000271851
-1.65317e-05
0.000274235
-1.84991e-05
0.000276011
-1.90785e-05
0.000276963
-1.90539e-05
0.000277018
-2.04044e-05
0.000276883
-2.43053e-05
-1.92776e-05
0.000275369
0.00024313
8.54207e-06
0.000246247
-5.92132e-06
0.000249148
-1.46561e-05
0.000252189
-1.94034e-05
0.000254543
-2.09495e-05
0.00025625
-2.08269e-05
0.000257084
-1.9893e-05
0.000256925
-2.03311e-05
0.000256537
-2.35387e-05
-1.68247e-05
0.000254722
0.000224837
5.76141e-06
0.000228049
-8.58625e-06
0.000230926
-1.67135e-05
0.000233993
-2.0831e-05
0.000236331
-2.17827e-05
0.000237978
-2.09445e-05
0.000238709
-1.93398e-05
0.000238334
-1.93912e-05
0.00023774
-2.25517e-05
-1.51836e-05
0.000235712
0.000207942
3.10744e-06
0.000211222
-1.19043e-05
0.000214067
-2.00747e-05
0.000217112
-2.40523e-05
0.000219436
-2.44854e-05
0.000221031
-2.26995e-05
0.000221679
-1.99555e-05
0.000221126
-1.87833e-05
0.000220298
-2.08947e-05
-1.17431e-05
0.000218089
0.0001923
2.24038e-07
0.000195648
-1.4572e-05
0.000198473
-2.18057e-05
0.000201508
-2.51266e-05
0.000203827
-2.50437e-05
0.000205365
-2.25366e-05
0.000205937
-1.91753e-05
0.000205202
-1.75049e-05
0.000204193
-1.9607e-05
-1.00472e-05
0.00020188
0.000177845
-2.73158e-06
0.000181228
-1.82734e-05
0.000183979
-2.5434e-05
0.000186957
-2.8518e-05
0.000189278
-2.78065e-05
0.000190773
-2.41241e-05
0.00019131
-1.94678e-05
0.000190425
-1.63408e-05
0.000189206
-1.71575e-05
-5.8036e-06
0.000186839
0.000164478
-5.77323e-06
0.000167901
-2.09137e-05
0.000170597
-2.67583e-05
0.000173533
-2.91112e-05
0.000175854
-2.79553e-05
0.000177287
-2.3549e-05
0.000177781
-1.83755e-05
0.000176746
-1.47205e-05
0.000175368
-1.55846e-05
-4.1719e-06