/*--------------------------------*- C++ -*----------------------------------*\
  =========                 |
  \\      /  F ield         | OpenFOAM: The Open Source CFD Toolbox
   \\    /   O peration     | Website:  https://openfoam.org
    \\  /    A nd           | Version:  6.0
     \\/     M anipulation  |
\*---------------------------------------------------------------------------*/
FoamFile
{
    version     2.0;
    format      ascii;
    class       volVectorField;
    location    "11";
    object      U;
}
// * * * * * * * * * * * * * * * * * * * * * * * * * * * * * * * * * * * * * //

dimensions      [0 1 -1 0 0 0 0];

internalField   nonuniform List<vector> 
4920
(
(0.996135 0.0880084 -9.97494e-20)
(0.996132 0.0879619 1.60853e-19)
(0.99613 0.0879308 -4.51301e-19)
(0.996126 0.0879001 6.33539e-19)
(0.996122 0.0878661 2.03875e-19)
(0.996114 0.0878212 -2.6336e-19)
(0.996102 0.0877662 6.28079e-19)
(0.996078 0.0876812 -1.47589e-19)
(0.996036 0.0875536 3.0674e-19)
(0.995957 0.0873572 1.96242e-18)
(0.995788 0.0870564 -2.92289e-18)
(0.995442 0.0865528 3.46923e-18)
(0.994814 0.0855321 1.64248e-18)
(0.99393 0.0829878 7.12064e-19)
(0.988387 0.073747 -8.2547e-18)
(0.995919 0.0898367 6.8459e-20)
(0.995888 0.0897437 -4.1757e-19)
(0.995861 0.0896591 2.04556e-19)
(0.995834 0.0895837 9.18345e-20)
(0.995804 0.0894968 4.36502e-19)
(0.995766 0.0893895 1.49333e-19)
(0.995716 0.0892567 -1.25053e-18)
(0.99564 0.0890709 3.72864e-20)
(0.995523 0.0887932 3.81747e-19)
(0.995336 0.0883719 -3.713e-18)
(0.995002 0.087732 4.88351e-18)
(0.994383 0.0866877 -6.97896e-18)
(0.99326 0.0847681 6.39205e-19)
(0.991834 0.0798701 1.67126e-17)
(0.986304 0.0661874 2.60784e-17)
(0.995655 0.0915248 4.80605e-20)
(0.995582 0.0913908 -4.0401e-19)
(0.995514 0.0912659 1.34955e-19)
(0.995444 0.0911649 3.22798e-19)
(0.995369 0.0910529 -9.5338e-19)
(0.995284 0.0909193 2.47629e-19)
(0.995185 0.0907447 3.51875e-19)
(0.995056 0.0904957 -7.99151e-19)
(0.994874 0.0901148 1.04041e-18)
(0.994627 0.0895365 -1.11189e-18)
(0.994282 0.0886688 2.48935e-18)
(0.993782 0.0873429 -3.32283e-18)
(0.992908 0.0853559 -3.1217e-18)
(0.992206 0.0804481 -6.75502e-18)
(0.989808 0.0700518 -1.38082e-17)
(0.995325 0.0930589 1.58572e-20)
(0.995206 0.0929784 -1.32795e-19)
(0.995092 0.0928452 2.05223e-19)
(0.994976 0.092723 -3.24243e-19)
(0.99485 0.0925777 1.23356e-19)
(0.99471 0.0924041 4.24667e-19)
(0.994552 0.0921752 1.00179e-18)
(0.994361 0.0918574 -3.77045e-19)
(0.9941 0.0913674 5.02015e-19)
(0.993766 0.0906223 2.84734e-18)
(0.993364 0.0895032 -4.86994e-18)
(0.992939 0.0878252 2.33186e-18)
(0.992275 0.0856487 4.90329e-18)
(0.992353 0.0806819 -1.82697e-17)
(0.991772 0.0708785 -2.52408e-18)
(0.994962 0.0943602 1.36189e-19)
(0.994808 0.0943114 -3.15215e-19)
(0.994647 0.0942209 -4.60315e-20)
(0.99448 0.0941222 -1.63815e-19)
(0.994295 0.0939956 3.68295e-21)
(0.994086 0.0938198 5.2555e-19)
(0.993851 0.0935664 -2.52359e-19)
(0.993574 0.0931944 -1.5379e-18)
(0.993202 0.0926071 7.40241e-20)
(0.992724 0.0916947 -2.43232e-18)
(0.992155 0.0902894 -7.02193e-21)
(0.991616 0.0881347 3.8007e-18)
(0.990871 0.0853886 -3.13469e-18)
(0.991378 0.0796742 4.60487e-18)
(0.991806 0.0679702 -1.04839e-17)
(0.994517 0.0957844 5.58343e-20)
(0.994355 0.0958007 1.62342e-19)
(0.994158 0.0957499 -5.20738e-19)
(0.993944 0.0956585 4.13084e-19)
(0.993696 0.0955274 2.73359e-19)
(0.993408 0.0953298 -5.7118e-19)
(0.993078 0.095039 4.23262e-19)
(0.992694 0.0946125 1.55999e-18)
(0.992182 0.093929 4.51976e-19)
(0.991521 0.092853 1.01903e-18)
(0.990722 0.0911585 4.88829e-18)
(0.989968 0.0884748 -1.31482e-18)
(0.989008 0.0849612 -7.76019e-18)
(0.989771 0.0781747 -6.81525e-18)
(0.991394 0.0648494 -4.29507e-18)
(0.993906 0.0973708 -9.45114e-21)
(0.99378 0.0973622 1.7142e-19)
(0.993574 0.0973476 -2.68014e-19)
(0.993326 0.0972771 -1.27778e-19)
(0.99302 0.0971631 6.25655e-19)
(0.992649 0.0969598 -3.48151e-19)
(0.992212 0.0966427 2.84745e-19)
(0.991701 0.0961643 -2.47936e-18)
(0.991033 0.0953825 1.78688e-18)
(0.990176 0.0941385 6.67992e-20)
(0.989143 0.0921477 -4.36826e-18)
(0.988177 0.0889379 -5.81341e-19)
(0.987027 0.0846452 6.42167e-18)
(0.98808 0.0768182 5.38262e-17)
(0.99127 0.0630224 2.29375e-17)
(0.992994 0.0994155 -2.46932e-20)
(0.992946 0.0994031 1.04913e-19)
(0.992767 0.0993691 -2.51024e-19)
(0.992516 0.0992626 6.48704e-19)
(0.992176 0.0991 1.26322e-19)
(0.991739 0.0988364 -3.89156e-19)
(0.991202 0.098446 -9.90686e-20)
(0.99056 0.0978885 7.64718e-19)
(0.989732 0.0969789 -6.97619e-19)
(0.988682 0.0955438 2.99647e-19)
(0.987436 0.0932467 6.45741e-18)
(0.986307 0.0895196 1.55314e-19)
(0.985058 0.0844967 1.80705e-17)
(0.986532 0.0757534 -7.31482e-17)
(0.991398 0.0622155 -1.97837e-17)
(0.991752 0.101698 6.50605e-20)
(0.991813 0.101577 -2.56462e-19)
(0.991697 0.101507 1.52449e-19)
(0.991472 0.101369 -1.34031e-19)
(0.991121 0.101176 -1.38425e-19)
(0.990637 0.100865 -1.55455e-19)
(0.990008 0.100406 8.08061e-19)
(0.989234 0.0997613 -5.64173e-19)
(0.988246 0.0987043 1.02304e-18)
(0.987013 0.0970488 -3.21327e-18)
(0.985578 0.0944106 -6.44825e-19)
(0.98433 0.090156 -5.50742e-18)
(0.983073 0.08444 -1.35069e-17)
(0.985105 0.0748785 4.41978e-18)
(0.99158 0.0617886 1.95408e-17)
(0.990155 0.104357 -5.58315e-20)
(0.990335 0.104198 4.18929e-20)
(0.990304 0.104053 -1.42778e-19)
(0.990129 0.103833 -1.05866e-19)
(0.989793 0.103545 6.91289e-20)
(0.989285 0.103128 -7.32013e-20)
(0.988583 0.102547 4.85027e-19)
(0.987684 0.101778 -5.05911e-19)
(0.986541 0.100533 1.46443e-19)
(0.98513 0.09862 -2.61161e-19)
(0.983527 0.095609 -1.61652e-19)
(0.982195 0.0907928 1.60517e-19)
(0.981004 0.0843818 -2.09274e-18)
(0.983731 0.0740378 2.15761e-17)
(0.991552 0.0613503 -1.69165e-18)
(0.988202 0.107047 -5.00562e-22)
(0.988496 0.10678 -1.93933e-20)
(0.988561 0.106581 -3.40416e-19)
(0.988454 0.106314 5.54415e-19)
(0.988154 0.105969 3.87879e-19)
(0.987643 0.105474 -6.62475e-19)
(0.986889 0.104783 2.3741e-19)
(0.985875 0.10388 -3.93093e-19)
(0.984581 0.102431 -3.15719e-20)
(0.983004 0.100227 3.73489e-18)
(0.981244 0.0967923 -2.78334e-18)
(0.979849 0.0913693 -2.53937e-18)
(0.978774 0.0842298 1.692e-18)
(0.982332 0.0731159 -1.79983e-17)
(0.991212 0.0606704 2.96818e-18)
(0.985944 0.109905 7.13404e-21)
(0.986333 0.109617 2.42438e-19)
(0.986484 0.109342 -1.12426e-19)
(0.986445 0.108992 -2.89177e-19)
(0.986187 0.108545 1.81981e-19)
(0.985685 0.107936 2.21783e-20)
(0.984897 0.107099 -2.62657e-19)
(0.98378 0.106039 -5.2677e-19)
(0.982345 0.104354 -4.79367e-19)
(0.980601 0.101832 -2.97886e-18)
(0.978694 0.0979438 -4.88248e-18)
(0.977252 0.0918572 1.17889e-17)
(0.976342 0.083931 -4.49878e-18)
(0.980869 0.072041 4.8419e-17)
(0.990537 0.0597633 -2.30873e-17)
(0.983409 0.112665 3.82956e-20)
(0.983867 0.112315 3.89492e-20)
(0.98409 0.111997 1.57295e-19)
(0.984112 0.1116 1.32697e-19)
(0.983895 0.111085 -1.90505e-19)
(0.983407 0.110384 4.01724e-19)
(0.982596 0.109415 -3.38562e-19)
(0.981382 0.108194 -4.53957e-20)
(0.979804 0.106269 3.01515e-19)
(0.977901 0.103404 9.10462e-19)
(0.975854 0.099016 4.11825e-18)
(0.974375 0.0922144 5.01828e-18)
(0.97368 0.0834402 1.68747e-17)
(0.979317 0.0707732 -3.90238e-17)
(0.98956 0.0585535 3.44628e-17)
(0.980561 0.115525 -7.89391e-20)
(0.981063 0.115201 -1.77696e-20)
(0.981343 0.114815 2.11907e-19)
(0.981422 0.114326 -6.85412e-20)
(0.981252 0.113692 1.24492e-19)
(0.980789 0.112858 7.10232e-20)
(0.979964 0.111729 -5.25428e-19)
(0.978659 0.11033 2.05636e-19)
(0.97695 0.108139 -5.08939e-19)
(0.974892 0.104912 2.10307e-18)
(0.97271 0.100007 -9.77195e-19)
(0.971208 0.0924313 -8.60164e-18)
(0.970791 0.0827351 -2.19152e-17)
(0.977688 0.0693161 1.24795e-17)
(0.988345 0.0571715 -5.19525e-18)
(0.977486 0.118172 3.88134e-20)
(0.978011 0.117742 4.29326e-20)
(0.978327 0.117316 -3.34407e-19)
(0.978442 0.116793 6.60492e-19)
(0.978304 0.116115 -2.20076e-19)
(0.977853 0.115211 1.6582e-19)
(0.977004 0.113969 -1.45279e-19)
(0.975623 0.112391 -5.41885e-19)
(0.973786 0.109934 2.24964e-18)
(0.971577 0.106337 -2.27025e-18)
(0.969262 0.100876 2.01395e-18)
(0.967742 0.0924748 -2.67832e-18)
(0.96767 0.0817766 1.26976e-17)
(0.975992 0.0676498 -1.11693e-17)
(0.986933 0.0555021 -1.30472e-17)
(0.974159 0.12092 2.17452e-20)
(0.974694 0.120508 1.6521e-19)
(0.97503 0.120007 -2.77852e-19)
(0.975169 0.11939 1.34441e-19)
(0.975053 0.118595 -2.04528e-19)
(0.974605 0.117571 3.08857e-20)
(0.973744 0.116159 1.01988e-18)
(0.972285 0.114368 -1.68746e-18)
(0.970323 0.111641 -5.24388e-20)
(0.967969 0.107667 2.43142e-18)
(0.965507 0.101639 -6.38158e-18)
(0.963974 0.092344 1.38456e-18)
(0.964337 0.0805495 -4.33352e-19)
(0.974261 0.0658054 2.78766e-17)
(0.985429 0.0537013 -1.53009e-17)
(0.970649 0.123411 1.15137e-20)
(0.971188 0.122876 -6.32854e-22)
(0.971533 0.122354 -8.94847e-20)
(0.97168 0.121716 3.35613e-19)
(0.971566 0.120885 -2.55149e-19)
(0.971113 0.119774 1.22174e-19)
(0.970206 0.118228 2.07967e-19)
(0.968662 0.116254 -5.93178e-19)
(0.966574 0.113241 6.61775e-19)
(0.964051 0.108883 -4.37415e-18)
(0.961431 0.102258 4.66561e-18)
(0.959885 0.0919937 1.76156e-18)
(0.960798 0.0790039 -2.43286e-18)
(0.97253 0.0637624 -1.06215e-17)
(0.983883 0.0517054 3.93729e-17)
(0.966961 0.126109 9.22679e-20)
(0.967495 0.125603 -2.01932e-19)
(0.967832 0.125003 1.7708e-19)
(0.967965 0.124262 9.32291e-20)
(0.96783 0.123289 -3.15163e-19)
(0.96734 0.122033 2.57637e-19)
(0.966374 0.120288 -2.80092e-19)
(0.96473 0.118047 2.28372e-19)
(0.962495 0.114742 3.63174e-18)
(0.959795 0.109988 -2.08478e-18)
(0.957004 0.102741 -1.12946e-18)
(0.955468 0.091418 -1.07724e-18)
(0.957088 0.077119 -8.23001e-19)
(0.970857 0.0615767 -1.2272e-17)
(0.982386 0.0496902 -2.15289e-17)
(0.962993 0.128804 9.86934e-21)
(0.963512 0.128216 7.19937e-20)
(0.96383 0.12756 -2.54273e-19)
(0.963936 0.126738 5.49295e-19)
(0.963766 0.125652 -1.99508e-19)
(0.963229 0.124217 2.99717e-19)
(0.962181 0.122257 1.81264e-19)
(0.960432 0.119762 6.90066e-19)
(0.958047 0.116117 -1.20232e-18)
(0.955159 0.110937 2.47729e-18)
(0.952187 0.103023 6.6388e-18)
(0.950688 0.0905377 7.0782e-18)
(0.953226 0.074827 -1.16476e-17)
(0.969284 0.059195 2.5844e-17)
(0.980931 0.0474799 -3.94988e-18)
(0.958572 0.13169 -7.71116e-20)
(0.959064 0.131179 7.0909e-20)
(0.959366 0.130418 -7.78666e-20)
(0.959456 0.129431 -1.59191e-19)
(0.959265 0.128122 3.30659e-19)
(0.958686 0.126453 -8.71796e-19)
(0.957569 0.124201 -4.50322e-19)
(0.955712 0.121348 2.46872e-19)
(0.953177 0.117355 1.26806e-19)
(0.950094 0.111726 1.21429e-18)
(0.946941 0.103105 -1.12357e-17)
(0.945539 0.0893286 -3.71233e-18)
(0.949258 0.072095 8.4811e-18)
(0.967867 0.0566786 -1.7307e-17)
(0.979596 0.0452175 -7.36432e-18)
(0.953757 0.134276 6.72124e-20)
(0.954207 0.133632 -2.47144e-20)
(0.954481 0.132843 -2.59933e-19)
(0.954545 0.131799 2.26649e-19)
(0.954325 0.130382 5.95498e-19)
(0.9537 0.128505 -2.87749e-19)
(0.952497 0.125992 -7.2481e-20)
(0.950535 0.122819 -1.21301e-18)
(0.947849 0.118416 -1.0865e-18)
(0.944563 0.112293 5.34599e-19)
(0.941227 0.102899 9.04647e-18)
(0.94 0.0876915 -6.12094e-19)
(0.945228 0.0688492 8.46485e-19)
(0.966675 0.0539941 8.46066e-18)
(0.97838 0.0428349 4.12776e-18)
(0.948598 0.137069 -7.66056e-21)
(0.948984 0.136471 4.88956e-20)
(0.949203 0.135558 -2.90647e-19)
(0.949212 0.134345 -1.94834e-19)
(0.948936 0.1327 -7.04115e-20)
(0.948239 0.130573 5.17606e-19)
(0.946943 0.12772 2.02072e-19)
(0.944866 0.124114 1.84918e-18)
(0.942026 0.119298 2.27053e-18)
(0.938535 0.112648 -8.22207e-19)
(0.935023 0.10241 -6.19601e-19)
(0.934095 0.0855955 3.95976e-18)
(0.941224 0.0650701 4.46038e-18)
(0.96578 0.0512364 1.25105e-17)
(0.977317 0.0404937 8.50999e-19)
(0.943044 0.13982 1.28737e-20)
(0.94334 0.1391 3.76785e-20)
(0.94348 0.138098 3.99806e-20)
(0.943413 0.136753 -2.35293e-19)
(0.94306 0.134917 1.07108e-19)
(0.942277 0.132495 8.64091e-19)
(0.940869 0.129291 -1.46625e-18)
(0.938677 0.125269 -9.46321e-19)
(0.935689 0.119949 -1.5018e-19)
(0.931983 0.11271 -1.02803e-18)
(0.928304 0.101533 -2.51861e-18)
(0.927803 0.0829041 -3.0956e-18)
(0.937336 0.0607191 5.91701e-18)
(0.965258 0.0483677 -6.4212e-18)
(0.976404 0.0381096 4.00937e-18)
(0.936981 0.14285 -1.12476e-20)
(0.937167 0.142155 4.47035e-20)
(0.93722 0.140958 -1.61203e-20)
(0.93707 0.13935 5.70544e-20)
(0.936638 0.137187 -4.34884e-20)
(0.935764 0.134413 -6.42346e-19)
(0.93425 0.130759 6.92097e-19)
(0.931937 0.126191 -1.30795e-19)
(0.928802 0.120374 -4.94837e-18)
(0.924878 0.112501 4.33256e-19)
(0.921049 0.100275 -6.8661e-18)
(0.921178 0.0795672 -8.78251e-18)
(0.933681 0.0557773 -1.8521e-17)
(0.965164 0.0454875 4.62074e-19)
(0.975614 0.0357714 1.04179e-17)
(0.930411 0.145726 -1.65495e-20)
(0.930463 0.144807 -4.49213e-20)
(0.930411 0.143473 9.83358e-20)
(0.930166 0.141689 -4.64546e-19)
(0.929647 0.139266 4.47127e-19)
(0.928677 0.136111 -5.8765e-19)
(0.927041 0.132018 4.35171e-19)
(0.924618 0.126919 2.37538e-18)
(0.921339 0.120489 -3.59406e-19)
(0.917187 0.111908 2.68172e-18)
(0.913201 0.0984691 -3.25851e-18)
(0.914232 0.0754355 9.58027e-18)
(0.930387 0.0502494 7.92378e-18)
(0.965575 0.0425715 -1.11535e-17)
(0.974968 0.0333573 -8.79829e-18)
(0.923395 0.148841 -1.8441e-21)
(0.923288 0.147853 -2.14797e-20)
(0.923101 0.14625 -1.00405e-19)
(0.92273 0.144141 -2.74295e-19)
(0.92209 0.141324 5.32907e-19)
(0.920991 0.137747 1.42373e-19)
(0.919227 0.133097 1.21662e-18)
(0.91667 0.127327 -4.39168e-18)
(0.913251 0.120309 1.56927e-18)
(0.908858 0.11096 -7.38514e-18)
(0.904759 0.0961216 4.8845e-18)
(0.907083 0.0704379 -7.79882e-18)
(0.927617 0.0441639 1.77358e-17)
(0.966527 0.039754 1.37478e-17)
(0.974391 0.0309469 -8.31374e-18)
(0.915993 0.1519 8.82415e-21)
(0.915684 0.15064 -6.23339e-20)
(0.915308 0.148836 -1.43994e-19)
(0.914753 0.146464 2.2381e-20)
(0.91394 0.143274 4.05609e-19)
(0.912675 0.139175 -6.72142e-20)
(0.910747 0.133937 -1.53352e-18)
(0.908056 0.127469 2.57254e-18)
(0.904487 0.1197 1.86513e-18)
(0.899836 0.109487 4.6e-18)
(0.895647 0.092978 -6.63407e-19)
(0.899767 0.0643995 1.20619e-17)
(0.925543 0.0376197 -1.37961e-18)
(0.968083 0.0370118 6.34589e-18)
(0.973961 0.0284853 5.92705e-18)
(0.907909 0.1555 1.31623e-20)
(0.907364 0.154218 -1.56311e-19)
(0.906792 0.151994 -8.94748e-20)
(0.906048 0.1491 1.41922e-19)
(0.905056 0.1453 -6.67372e-19)
(0.90362 0.140552 -9.9216e-19)
(0.901529 0.13453 2.38059e-19)
(0.898673 0.12718 2.35088e-18)
(0.894969 0.118686 1.35605e-18)
(0.890061 0.107526 3.07143e-18)
(0.885877 0.0890023 4.16522e-18)
(0.892493 0.057224 -1.20723e-18)
(0.924337 0.030661 -1.77311e-17)
(0.97022 0.0344559 -4.2701e-18)
(0.973577 0.0259501 -6.01586e-19)
(0.898988 0.158837 1.07244e-20)
(0.898184 0.157188 -2.44901e-19)
(0.897416 0.15467 -3.37787e-20)
(0.896495 0.151405 1.31018e-19)
(0.89534 0.147063 6.55771e-19)
(0.89373 0.14159 4.91396e-19)
(0.891454 0.134776 -5.64848e-19)
(0.888457 0.126479 -9.68204e-19)
(0.884625 0.11704 -1.53496e-18)
(0.879433 0.104806 -8.86842e-18)
(0.8754 0.0838722 1.9406e-19)
(0.885386 0.0488007 -1.17199e-17)
(0.924155 0.0234531 7.16458e-18)
(0.972958 0.0319945 2.57018e-18)
(0.973349 0.0232271 -4.60808e-18)
(0.889441 0.162365 -1.6145e-20)
(0.888317 0.160486 -1.60257e-19)
(0.887292 0.157489 3.11298e-19)
(0.886134 0.153675 -1.43853e-19)
(0.884755 0.148661 5.3686e-19)
(0.882927 0.142414 -5.26402e-19)
(0.880458 0.134589 1.45874e-18)
(0.877289 0.125141 -2.10071e-18)
(0.873374 0.114825 6.63989e-19)
(0.867925 0.101372 -9.25606e-19)
(0.864356 0.0775417 3.6166e-18)
(0.878812 0.0391226 -1.60628e-17)
(0.925172 0.0161334 -5.37017e-18)
(0.976214 0.0297236 -8.24493e-20)
(0.973138 0.0201769 3.01844e-18)
(0.879241 0.16583 -3.25802e-20)
(0.877736 0.163519 7.94068e-20)
(0.876389 0.160102 -3.35184e-19)
(0.874921 0.155786 -2.73153e-19)
(0.873257 0.150055 5.30723e-19)
(0.87115 0.142836 3.92919e-19)
(0.868438 0.133921 -2.75534e-18)
(0.865141 0.123177 2.41406e-18)
(0.861132 0.111681 -1.60324e-19)
(0.855458 0.0968478 7.21049e-18)
(0.85276 0.0696267 -1.32233e-17)
(0.872984 0.0282268 2.24799e-17)
(0.927519 0.00900771 -5.40837e-18)
(0.980004 0.0275729 -3.94513e-18)
(0.973128 0.0169491 1.42993e-18)
(0.868314 0.169675 -6.45804e-20)
(0.866366 0.167056 -2.05002e-20)
(0.864629 0.16303 1.04075e-19)
(0.862789 0.157989 5.18015e-19)
(0.860766 0.151335 -7.387e-19)
(0.858314 0.14301 -1.75417e-18)
(0.855341 0.132645 2.27094e-18)
(0.851793 0.120296 -2.86494e-18)
(0.847838 0.107756 1.10991e-19)
(0.842057 0.0912523 -6.42587e-18)
(0.840895 0.0600503 1.59042e-17)
(0.868374 0.0162059 -5.65774e-18)
(0.931273 0.00219657 1.77426e-18)
(0.984153 0.0255051 3.23147e-19)
(0.973186 0.013174 1.14724e-17)
(0.856539 0.173697 -7.49969e-20)
(0.854075 0.170582 -4.58626e-20)
(0.851884 0.165923 -3.49508e-20)
(0.849603 0.160128 1.80606e-20)
(0.847147 0.15244 3.38069e-19)
(0.844294 0.142712 4.84188e-19)
(0.840938 0.130768 -1.00259e-18)
(0.837332 0.116563 1.56637e-18)
(0.833425 0.102473 6.96079e-18)
(0.827672 0.0840981 1.15508e-18)
(0.828961 0.0485644 -8.45168e-18)
(0.865242 0.00335321 -4.00741e-18)
(0.936404 -0.00404689 4.54745e-18)
(0.988602 0.0232607 9.3249e-19)
(0.973482 0.00886145 -4.25816e-18)
(0.843768 0.17814 3.1554e-20)
(0.84071 0.174591 -1.12574e-19)
(0.837999 0.169105 1.87578e-19)
(0.835202 0.162332 -6.14612e-19)
(0.832248 0.153384 1.88283e-19)
(0.828945 0.142094 1.90354e-18)
(0.825274 0.128005 9.48671e-19)
(0.821539 0.111546 6.56678e-19)
(0.817944 0.0962345 -2.19404e-18)
(0.812536 0.0754333 4.9928e-18)
(0.817538 0.0352495 -1.02052e-17)
(0.864129 -0.00995735 2.52969e-17)
(0.942863 -0.00961055 9.66543e-19)
(0.9931 0.0206559 3.03804e-20)
(0.973904 0.00337754 -1.58137e-17)
(0.829841 0.182738 -1.8213e-20)
(0.826089 0.178537 4.21982e-20)
(0.822788 0.172235 -2.23487e-19)
(0.819418 0.164434 8.69083e-19)
(0.815975 0.154022 -4.45293e-19)
(0.812119 0.140688 -1.39257e-18)
(0.808144 0.124381 1.08424e-20)
(0.804601 0.105341 1.47746e-19)
(0.801379 0.0881733 -1.50457e-17)
(0.796637 0.0646753 1.23659e-17)
(0.806979 0.020164 9.70907e-18)
(0.865188 -0.023169 -1.16311e-17)
(0.950516 -0.014172 2.39455e-19)
(0.997662 0.017634 -4.88521e-19)
(0.974691 -0.00268578 9.07465e-18)
(0.814663 0.187722 -3.00474e-20)
(0.810101 0.182892 -8.5936e-20)
(0.806117 0.175473 1.57951e-19)
(0.802124 0.166286 -5.83321e-19)
(0.79798 0.154168 1.96524e-19)
(0.793636 0.138693 -1.33335e-20)
(0.78944 0.119206 2.72013e-18)
(0.786139 0.0972751 -5.83812e-18)
(0.783686 0.0787982 1.51796e-17)
(0.780322 0.051698 -8.98911e-18)
(0.798004 0.00343622 7.63908e-18)
(0.868803 -0.0357863 -5.33065e-18)
(0.959098 -0.017963 3.48753e-20)
(1.00197 0.0136692 -2.91109e-19)
(0.97588 -0.0102458 2.47372e-18)
(0.798242 0.192856 -3.88229e-20)
(0.792661 0.187135 -4.63789e-20)
(0.787779 0.178477 2.85026e-19)
(0.782915 0.167923 -1.06295e-19)
(0.77804 0.153763 1.82561e-19)
(0.773121 0.135176 -1.2285e-18)
(0.768782 0.112524 -1.95562e-18)
(0.766304 0.0872732 1.03731e-17)
(0.76478 0.0667269 -6.73223e-18)
(0.763755 0.0360751 -1.01153e-17)
(0.791018 -0.0143702 -1.46114e-17)
(0.874841 -0.0471698 8.58589e-18)
(0.968261 -0.0209054 -4.56072e-18)
(1.00599 0.00855504 6.42225e-19)
(0.977586 -0.0188893 -1.01801e-17)
(0.780346 0.198577 -4.26707e-20)
(0.773501 0.192039 1.24884e-19)
(0.767492 0.181856 -1.7379e-19)
(0.761563 0.169185 2.3135e-19)
(0.755822 0.152342 -1.23773e-19)
(0.750348 0.130413 7.17995e-19)
(0.746018 0.103155 -2.07813e-18)
(0.744851 0.0746437 4.25469e-18)
(0.744665 0.0524739 -1.17122e-17)
(0.747512 0.017498 -1.91339e-18)
(0.786686 -0.0330836 -9.84249e-18)
(0.883339 -0.0569201 -2.26939e-18)
(0.977578 -0.023674 7.57499e-19)
(1.00942 0.00145567 -5.58746e-19)
(0.979963 -0.0297544 2.80004e-17)
(0.7605 0.204588 1.27073e-20)
(0.752171 0.196985 -4.91183e-20)
(0.744865 0.184966 2.53889e-20)
(0.737776 0.169986 -4.45652e-19)
(0.731074 0.149793 9.03879e-19)
(0.724962 0.123267 -1.38681e-18)
(0.721061 0.091366 2.3701e-18)
(0.721879 0.0590624 -1.59721e-17)
(0.723179 0.0342731 2.1229e-17)
(0.731838 -0.00406626 1.04111e-18)
(0.785241 -0.0515792 1.43778e-17)
(0.893857 -0.064529 -1.68496e-18)
(0.986662 -0.0261638 8.94794e-18)
(1.0123 -0.00740378 2.63437e-19)
(0.983098 -0.0417726 -3.54089e-17)
(0.738648 0.211041 1.43047e-20)
(0.728562 0.202103 -1.08338e-19)
(0.719724 0.187771 -1.31263e-19)
(0.711235 0.169718 1.10593e-18)
(0.703396 0.145594 -9.63918e-19)
(0.696789 0.113896 1.778e-18)
(0.693595 0.0754925 -4.21334e-18)
(0.697105 0.0400989 2.50129e-18)
(0.700249 0.0121084 5.39217e-18)
(0.71748 -0.0293265 3.30347e-17)
(0.786935 -0.0700351 -1.08187e-18)
(0.905962 -0.0701203 -4.06734e-18)
(0.994979 -0.0298652 6.12742e-18)
(1.01449 -0.0192478 2.06464e-18)
(0.987152 -0.0565112 1.56963e-17)
(0.714927 0.217793 3.30927e-20)
(0.702679 0.20706 -1.59329e-20)
(0.691888 0.190033 -4.90715e-20)
(0.681624 0.168538 1.58146e-19)
(0.672394 0.139403 1.04715e-18)
(0.665505 0.100952 1.79408e-18)
(0.663349 0.0558764 8.34295e-19)
(0.670631 0.017057 7.80422e-18)
(0.676102 -0.0154725 -9.08868e-18)
(0.704972 -0.0569805 -4.51023e-17)
(0.791662 -0.0869235 1.22026e-17)
(0.919011 -0.073828 8.06149e-18)
(1.0021 -0.0347381 -1.84949e-17)
(1.01583 -0.0337537 -4.75352e-18)
(0.992281 -0.0721684 1.40152e-17)
(0.689252 0.225324 -1.68045e-20)
(0.674235 0.212589 -1.15584e-19)
(0.660932 0.1921 1.26265e-19)
(0.648374 0.165979 -7.60314e-19)
(0.63771 0.13055 3.61676e-19)
(0.63038 0.08429 6.43152e-19)
(0.62975 0.0303893 3.39438e-18)
(0.643142 -0.00947342 1.3277e-18)
(0.650787 -0.0496643 -4.63071e-18)
(0.694796 -0.0887571 5.66842e-18)
(0.798951 -0.10317 -1.07427e-17)
(0.931853 -0.0773653 1.7039e-18)
(1.00749 -0.0435448 1.57972e-17)
(1.01652 -0.052482 5.85918e-18)
(0.998064 -0.0919542 -1.48375e-17)
(0.66086 0.233909 -2.15413e-20)
(0.642474 0.218626 1.99347e-19)
(0.626084 0.193716 -5.63257e-19)
(0.610837 0.161753 5.7088e-19)
(0.598174 0.118366 -1.69314e-18)
(0.590502 0.0622709 -1.53445e-19)
(0.592788 -0.00125102 -5.88062e-19)
(0.614208 -0.0415802 -1.01951e-17)
(0.624541 -0.0911973 7.99508e-18)
(0.693084 -0.112195 2.01318e-17)
(0.810396 -0.111435 8.25772e-18)
(0.944426 -0.0804655 -7.36045e-18)
(1.01092 -0.0558164 -1.9427e-17)
(1.01603 -0.0747766 -4.57167e-18)
(1.0052 -0.111436 2.92674e-18)
(0.629326 0.243401 -5.68967e-20)
(0.606755 0.224932 -2.68681e-20)
(0.586471 0.194426 4.67291e-19)
(0.567716 0.155069 -5.73066e-19)
(0.552667 0.101917 -2.38819e-18)
(0.544817 0.033828 2.87186e-18)
(0.552126 -0.0423334 -1.27142e-17)
(0.584208 -0.0780698 7.28908e-18)
(0.599959 -0.141279 -4.06793e-18)
(0.675335 -0.150192 3.54491e-18)
(0.789 -0.138369 -1.46473e-18)
(0.945034 -0.0967278 1.21735e-19)
(1.00996 -0.0771794 2.16118e-17)
(1.01448 -0.102796 -5.68047e-18)
(1.01135 -0.138414 -1.13091e-17)
(0.594297 0.253959 5.93155e-20)
(0.566394 0.231496 -1.50809e-20)
(0.541149 0.193917 -1.1559e-19)
(0.518102 0.14539 3.26692e-19)
(0.50023 0.0797964 2.11528e-18)
(0.49376 -0.00339548 -8.5038e-18)
(0.507546 -0.0930623 2.31908e-18)
(0.553425 -0.121415 -2.75052e-18)
(0.572773 -0.205503 -1.05623e-17)
(0.648893 -0.213393 7.23199e-18)
(0.817828 -0.201455 -1.85766e-18)
(0.970085 -0.146417 -4.89518e-18)
(1.00435 -0.11654 -1.00802e-17)
(1.00858 -0.1383 1.37022e-17)
(1.01613 -0.157153 9.27734e-18)
(0.555804 0.265841 2.93905e-20)
(0.521384 0.23798 -1.25321e-20)
(0.490068 0.191513 -4.13372e-19)
(0.461772 0.130973 1.43989e-18)
(0.441558 0.0500852 6.41388e-19)
(0.435336 -0.0504877 7.92221e-18)
(0.458694 -0.157048 2.2678e-18)
(0.520713 -0.172766 2.64646e-19)
(0.532677 -0.308456 1.38361e-17)
(0.654202 -0.303123 -2.09919e-17)
(1.06062 -0.176357 -9.31844e-19)
(1.11195 -0.182093 1.58453e-17)
(1.02463 -0.177291 -9.09257e-19)
(1.0074 -0.189833 -6.60654e-18)
(1.01969 -0.192209 -2.26694e-17)
(0.514515 0.278346 -8.63132e-21)
(0.471955 0.243725 6.83154e-20)
(0.432834 0.18569 -5.26344e-19)
(0.39789 0.110792 1.03881e-18)
(0.373526 0.0111198 -1.80288e-18)
(0.369336 -0.11107 -2.77775e-18)
(0.404324 -0.237325 -1.25652e-17)
(0.482636 -0.253434 -9.77063e-18)
(0.489403 -0.431998 1.55674e-17)
(0.713911 -0.366217 -1.16335e-17)
(1.31184 -0.156935 -3.39371e-19)
(1.29729 -0.230161 -1.47117e-17)
(1.08313 -0.240501 -1.0209e-17)
(1.02009 -0.245045 5.73045e-18)
(1.03444 -0.206428 4.60079e-17)
(0.469402 0.291516 -6.65194e-20)
(0.415686 0.248029 1.55817e-20)
(0.365273 0.17597 3.019e-19)
(0.320993 0.0810071 1.05513e-18)
(0.29102 -0.0422624 9.58641e-19)
(0.287881 -0.19345 -1.24204e-18)
(0.343248 -0.344263 1.31258e-17)
(0.43681 -0.351077 1.03984e-17)
(0.450028 -0.572793 -3.0408e-17)
(0.776463 -0.439759 -4.35453e-18)
(1.35714 -0.205913 1.42684e-18)
(1.40388 -0.32683 1.42726e-18)
(1.15846 -0.326767 7.17475e-18)
(1.05002 -0.312113 -1.21419e-17)
(1.05016 -0.246532 -1.02306e-17)
(0.422268 0.307855 1.29219e-21)
(0.355391 0.254229 -3.15904e-20)
(0.293225 0.163216 6.18257e-19)
(0.238325 0.0447454 -3.9931e-18)
(0.202802 -0.110227 -5.57786e-19)
(0.214835 -0.294325 -2.50225e-18)
(0.272628 -0.468633 -1.46565e-18)
(0.378864 -0.450404 6.19911e-18)
(0.401478 -0.710424 1.56652e-17)
(0.80865 -0.521144 -4.16774e-17)
(1.32333 -0.324462 3.80757e-19)
(1.42775 -0.460205 -5.06091e-18)
(1.21935 -0.402674 5.54473e-18)
(1.08833 -0.354205 2.03255e-18)
(1.07671 -0.237823 -1.41866e-18)
(0.371708 0.323023 5.80459e-20)
(0.285748 0.254339 -1.10966e-19)
(0.202985 0.13888 -1.07809e-18)
(0.134624 -0.0115862 2.08736e-18)
(0.102436 -0.196631 -1.30364e-18)
(0.141817 -0.397642 3.30955e-18)
(0.194273 -0.556836 -1.35155e-17)
(0.292914 -0.529133 -3.64689e-17)
(0.333607 -0.888632 -3.68327e-17)
(0.822591 -0.609943 1.50029e-16)
(1.28274 -0.461701 -1.73924e-18)
(1.38555 -0.543836 9.47759e-18)
(1.21529 -0.498935 1.04833e-19)
(1.08731 -0.441105 9.00719e-18)
(1.0668 -0.272768 -4.51916e-18)
(0.29448 0.337297 -1.90415e-19)
(0.181395 0.249975 1.18247e-19)
(0.0782884 0.101745 4.95024e-19)
(0.00373913 -0.087972 5.46813e-18)
(-0.010823 -0.306027 -3.32222e-18)
(0.0518006 -0.477478 1.15829e-17)
(0.0781727 -0.630916 2.00539e-17)
(0.173889 -0.689719 6.89595e-17)
(0.223287 -1.17861 1.1377e-16)
(0.795599 -0.759604 -1.1898e-16)
(1.25248 -0.581613 6.36012e-19)
(1.35273 -0.58751 3.31994e-19)
(1.20107 -0.518412 7.07642e-18)
(1.07496 -0.46001 -4.22907e-18)
(1.05505 -0.246086 -9.23358e-19)
(0.201899 0.363573 1.36703e-19)
(0.0631885 0.253377 -7.31272e-20)
(-0.039715 0.0643303 -7.06145e-19)
(-0.0735906 -0.154862 -6.44495e-18)
(-0.0468987 -0.351168 1.39398e-18)
(-0.0568304 -0.537346 -9.51699e-18)
(-0.109227 -0.800972 4.12469e-17)
(-0.0163124 -0.998504 -2.99762e-17)
(0.13803 -1.59663 -1.64099e-16)
(0.65367 -0.990592 7.59118e-17)
(1.13675 -0.754822 6.04936e-18)
(1.27948 -0.577208 -5.57807e-18)
(1.18085 -0.463647 1.69641e-18)
(1.06713 -0.418851 9.81978e-19)
(1.0436 -0.201042 2.63535e-18)
(0.194069 0.404683 2.43395e-19)
(0.0533862 0.264617 6.00791e-19)
(-0.0270833 0.0319728 3.16721e-19)
(-0.0245233 -0.166552 -4.04342e-19)
(-0.0353011 -0.30392 8.23578e-18)
(-0.246158 -0.634178 1.69586e-18)
(-0.485991 -1.25445 4.90207e-17)
(-0.436261 -1.78148 2.48514e-17)
(0.285892 -1.39287 5.78904e-17)
(0.799021 -0.553751 -2.73501e-17)
(1.0779 -0.663986 8.55454e-18)
(1.22228 -0.25397 -1.08356e-17)
(1.16519 -0.192527 -2.85978e-17)
(1.07321 -0.2385 -7.17825e-18)
(1.04706 -0.0603833 -8.40502e-19)
(0.357074 0.391406 -1.94559e-19)
(0.220396 0.22094 3.94928e-20)
(0.094107 -0.0347928 1.48487e-19)
(0.0528031 -0.162731 -2.3917e-18)
(-0.164604 -0.267159 -1.1044e-17)
(-0.743602 -0.937438 1.87923e-17)
(-1.36977 -2.39547 -5.01264e-17)
(0.223348 -1.20266 -1.57279e-16)
(0.710238 -0.776726 -4.13926e-17)
(1.0979 0.586531 -3.17244e-18)
(1.09377 -0.194505 -2.25601e-17)
(1.21728 0.486854 -1.05904e-17)
(1.14214 0.276682 6.08079e-17)
(1.05551 0.0220767 1.17948e-17)
(1.03074 0.118959 -2.679e-18)
(0.542102 0.201302 -1.35931e-19)
(0.507824 -0.00658802 -9.70379e-19)
(0.325825 -0.18109 -1.19642e-18)
(0.0854433 -0.148833 2.64395e-18)
(-0.297709 -0.125557 1.03183e-17)
(-0.919572 -0.833453 -9.30023e-17)
(0.672965 -0.594461 -1.11356e-16)
(1.5461 0.497593 1.37812e-16)
(1.87805 1.11163 3.17765e-17)
(1.71311 2.73336 7.28276e-18)
(1.23775 0.803831 7.74628e-18)
(1.24598 1.70953 6.69359e-17)
(1.11596 0.999472 -7.8807e-17)
(1.00405 0.392583 -1.0651e-17)
(0.98288 0.350667 1.23168e-18)
(0.647685 0.285735 -5.23207e-19)
(0.561373 0.29227 3.3409e-18)
(-0.0270441 -0.154505 2.19749e-18)
(-0.0490185 -0.186431 -4.39741e-18)
(-0.516631 -0.0697813 -9.22016e-18)
(-2.1485 -1.35807 1.39735e-16)
(2.61157 1.41036 -7.17601e-17)
(3.13278 2.80992 -1.29628e-16)
(3.46375 4.33432 9.80345e-17)
(1.83316 4.35702 -2.02055e-18)
(1.26053 1.75178 5.48086e-18)
(1.22353 3.1644 -1.33051e-16)
(0.988629 1.49739 1.12203e-16)
(0.885488 0.649809 9.4795e-18)
(0.885622 0.546938 3.13209e-19)
(0.781131 0.740896 1.96098e-18)
(0.544463 0.970678 -1.5398e-18)
(-0.0191162 1.08832 6.42736e-18)
(-0.247073 -0.0871019 1.31624e-17)
(-0.0438378 0.40869 7.17504e-18)
(1.11413 1.63071 -1.04827e-16)
(4.15528 3.50271 -2.59444e-17)
(4.66852 6.09646 1.27966e-17)
(3.70382 6.32665 -2.53447e-17)
(1.6208 4.48351 1.59596e-17)
(1.233 2.87977 6.463e-18)
(0.912156 3.31794 5.75198e-17)
(0.765681 1.60082 -1.02592e-16)
(0.724377 0.777147 2.68103e-18)
(0.742567 0.664264 2.237e-18)
(0.693789 0.1248 -9.47659e-19)
(0.183257 1.05414 -5.89624e-18)
(-0.129487 1.07503 -1.1759e-17)
(0.120341 0.384178 -9.80978e-18)
(0.827707 0.758866 6.12198e-18)
(7.5606 5.09878 9.53478e-18)
(4.60087 3.23599 3.54969e-17)
(5.09863 6.16614 9.59067e-17)
(3.02601 5.57361 -3.81661e-17)
(1.23195 3.88604 -7.51269e-18)
(0.789016 2.85348 5.80028e-17)
(0.516806 2.20572 6.09892e-17)
(0.50881 1.49057 2.16784e-17)
(0.538847 0.819685 -8.34168e-18)
(0.547327 0.637712 2.27812e-18)
(0.274113 0.526981 2.17972e-19)
(0.328508 0.868118 1.90432e-18)
(0.51274 0.892498 7.86904e-18)
(0.707355 0.680633 -1.29185e-17)
(1.09629 0.558752 -1.86774e-17)
(3.60854 1.24468 1.11827e-16)
(3.82523 2.18719 3.33058e-17)
(3.85989 4.56035 -4.91861e-17)
(1.78501 3.72934 -4.94021e-18)
(0.575438 2.63083 -3.54002e-17)
(0.256409 1.82529 -6.57152e-17)
(0.200865 1.50634 -2.52372e-17)
(0.193154 1.08549 9.33197e-18)
(0.290441 0.605652 -6.45669e-19)
(0.297799 0.402341 1.85086e-19)
(-0.15555 0.407072 -7.9003e-20)
(0.010512 0.508998 5.48111e-19)
(0.29278 0.597868 1.99592e-18)
(0.589263 0.522236 1.15077e-17)
(0.759009 -0.0198974 -5.10039e-18)
(2.06161 -0.256233 -8.90255e-17)
(2.76031 1.32832 8.70197e-17)
(1.67727 1.85849 9.25567e-17)
(0.673732 1.42652 -1.38272e-17)
(-0.00299349 1.21941 4.54061e-17)
(-0.050986 0.903019 -6.74348e-17)
(-0.0343591 0.662344 1.14942e-17)