/*--------------------------------*- C++ -*----------------------------------*\
  =========                 |
  \\      /  F ield         | OpenFOAM: The Open Source CFD Toolbox
   \\    /   O peration     | Website:  https://openfoam.org
    \\  /    A nd           | Version:  6.0
     \\/     M anipulation  |
\*---------------------------------------------------------------------------*/
FoamFile
{
    version     2.0;
    format      ascii;
    class       volScalarField;
    location    "0.26";
    object      p;
}
// * * * * * * * * * * * * * * * * * * * * * * * * * * * * * * * * * * * * * //

dimensions      [0 2 -2 0 0 0 0];

internalField   nonuniform List<scalar> 
13500
(
0.10913
0.10904
0.10837
0.10806
0.10638
0.10708
0.10369
0.10845
0.10242
0.11744
0.11889
0.19087
0.10913
0.10904
0.10837
0.10806
0.10637
0.10709
0.10368
0.10846
0.1024
0.11749
0.11831
0.18537
0.10913
0.10905
0.10837
0.10806
0.10637
0.10709
0.10367
0.10848
0.10237
0.11753
0.11756
0.18067
0.10913
0.10905
0.10837
0.10806
0.10637
0.1071
0.10366
0.10849
0.10233
0.11756
0.11675
0.17717
0.10913
0.10905
0.10837
0.10807
0.10636
0.1071
0.10364
0.1085
0.10229
0.11757
0.11594
0.17433
0.10914
0.10905
0.10838
0.10807
0.10636
0.10711
0.10363
0.10851
0.10225
0.11757
0.11514
0.17186
0.10914
0.10905
0.10838
0.10807
0.10636
0.10711
0.10362
0.10852
0.10221
0.11756
0.11437
0.16965
0.10914
0.10906
0.10838
0.10808
0.10636
0.10712
0.1036
0.10852
0.10216
0.11754
0.11362
0.16764
0.10914
0.10906
0.10838
0.10808
0.10635
0.10712
0.10359
0.10853
0.10211
0.11751
0.1129
0.16577
0.10915
0.10906
0.10838
0.10808
0.10635
0.10713
0.10357
0.10853
0.10206
0.11746
0.1122
0.16402
0.10915
0.10907
0.10838
0.10809
0.10635
0.10713
0.10356
0.10853
0.102
0.11742
0.11152
0.16235
0.10915
0.10907
0.10839
0.10809
0.10635
0.10713
0.10354
0.10853
0.10195
0.11736
0.11087
0.16075
0.10916
0.10907
0.10839
0.10809
0.10634
0.10714
0.10353
0.10852
0.10189
0.11729
0.11022
0.15921
0.10916
0.10908
0.10839
0.1081
0.10634
0.10714
0.10351
0.10852
0.10183
0.11722
0.10959
0.15771
0.10917
0.10908
0.1084
0.1081
0.10634
0.10714
0.1035
0.10851
0.10176
0.11713
0.10898
0.15625
0.10917
0.10909
0.1084
0.10811
0.10634
0.10714
0.10348
0.1085
0.1017
0.11704
0.10838
0.15483
0.10918
0.10909
0.1084
0.10811
0.10634
0.10715
0.10347
0.10849
0.10163
0.11695
0.10779
0.15343
0.10918
0.1091
0.10841
0.10812
0.10634
0.10715
0.10345
0.10847
0.10156
0.11684
0.10722
0.15207
0.10919
0.10911
0.10841
0.10812
0.10634
0.10715
0.10343
0.10846
0.10149
0.11673
0.10665
0.15072
0.1092
0.10911
0.10842
0.10813
0.10633
0.10715
0.10342
0.10844
0.10142
0.11661
0.1061
0.1494
0.1092
0.10912
0.10842
0.10813
0.10633
0.10715
0.1034
0.10842
0.10135
0.11648
0.10556
0.1481
0.10921
0.10913
0.10843
0.10814
0.10633
0.10715
0.10338
0.1084
0.10127
0.11635
0.10504
0.14682
0.10922
0.10914
0.10844
0.10814
0.10633
0.10715
0.10336
0.10837
0.1012
0.11621
0.10452
0.14556
0.10923
0.10914
0.10844
0.10815
0.10633
0.10714
0.10335
0.10835
0.10112
0.11606
0.10402
0.14431
0.10924
0.10915
0.10845
0.10816
0.10633
0.10714
0.10333
0.10832
0.10104
0.11591
0.10352
0.14308
0.10925
0.10916
0.10846
0.10816
0.10633
0.10714
0.10331
0.10829
0.10097
0.11575
0.10304
0.14187
0.10926
0.10917
0.10846
0.10817
0.10633
0.10714
0.10329
0.10826
0.10089
0.11559
0.10257
0.14067
0.10927
0.10918
0.10847
0.10817
0.10633
0.10714
0.10327
0.10822
0.10081
0.11542
0.10212
0.13949
0.10928
0.10919
0.10848
0.10818
0.10633
0.10713
0.10326
0.10819
0.10072
0.11525
0.10167
0.13832
0.10929
0.1092
0.10849
0.10819
0.10633
0.10713
0.10324
0.10815
0.10064
0.11507
0.10123
0.13717
0.1093
0.10921
0.1085
0.1082
0.10634
0.10712
0.10322
0.10811
0.10056
0.11488
0.1008
0.13603
0.10931
0.10923
0.10851
0.1082
0.10634
0.10712
0.1032
0.10807
0.10047
0.11469
0.10038
0.1349
0.10933
0.10924
0.10852
0.10821
0.10634
0.10712
0.10318
0.10803
0.10039
0.1145
0.099978
0.13379
0.10934
0.10925
0.10853
0.10822
0.10634
0.10711
0.10316
0.10798
0.10031
0.1143
0.09958
0.13269
0.10935
0.10926
0.10854
0.10823
0.10634
0.10711
0.10314
0.10793
0.10022
0.11409
0.099192
0.1316
0.10937
0.10928
0.10855
0.10824
0.10634
0.1071
0.10312
0.10789
0.10013
0.11388
0.098813
0.13053
0.10938
0.10929
0.10856
0.10824
0.10635
0.10709
0.1031
0.10783
0.10005
0.11367
0.098443
0.12948
0.1094
0.10931
0.10857
0.10825
0.10635
0.10709
0.10308
0.10778
0.099961
0.11345
0.098083
0.12843
0.10941
0.10932
0.10859
0.10826
0.10635
0.10708
0.10306
0.10773
0.099874
0.11323
0.09773
0.1274
0.10943
0.10934
0.1086
0.10827
0.10636
0.10707
0.10304
0.10767
0.099787
0.11301
0.097386
0.12639
0.10944
0.10935
0.10861
0.10828
0.10636
0.10706
0.10302
0.10762
0.0997
0.11278
0.097051
0.12538
0.10946
0.10937
0.10863
0.10829
0.10636
0.10706
0.103
0.10756
0.099612
0.11255
0.096723
0.12439
0.10948
0.10939
0.10864
0.1083
0.10637
0.10705
0.10298
0.1075
0.099524
0.11231
0.096403
0.12342
0.1095
0.1094
0.10866
0.10831
0.10637
0.10704
0.10296
0.10743
0.099437
0.11207
0.096091
0.12245
0.10952
0.10942
0.10867
0.10832
0.10638
0.10703
0.10294
0.10737
0.099349
0.11183
0.095786
0.1215
0.10954
0.10944
0.10869
0.10833
0.10638
0.10702
0.10292
0.1073
0.099261
0.11159
0.095488
0.12057
0.10956
0.10946
0.1087
0.10835
0.10638
0.10701
0.1029
0.10724
0.099173
0.11134
0.095197
0.11965
0.10958
0.10948
0.10872
0.10836
0.10639
0.107
0.10288
0.10717
0.099085
0.11109
0.094913
0.11874
0.1096
0.1095
0.10874
0.10837
0.1064
0.10699
0.10286
0.1071
0.098997
0.11084
0.094635
0.11784
0.10962
0.10952
0.10876
0.10838
0.1064
0.10698
0.10284
0.10703
0.09891
0.11058
0.094364
0.11696
0.10964
0.10954
0.10878
0.10839
0.10641
0.10697
0.10282
0.10695
0.098822
0.11033
0.094099
0.11609
0.10966
0.10956
0.10879
0.10841
0.10641
0.10696
0.1028
0.10688
0.098735
0.11007
0.09384
0.11523
0.10969
0.10958
0.10881
0.10842
0.10642
0.10695
0.10278
0.1068
0.098647
0.10981
0.093586
0.11439
0.10971
0.10961
0.10883
0.10843
0.10643
0.10693
0.10276
0.10672
0.09856
0.10954
0.093338
0.11356
0.10974
0.10963
0.10885
0.10845
0.10644
0.10692
0.10274
0.10665
0.098473
0.10928
0.093096
0.11274
0.10976
0.10965
0.10888
0.10846
0.10644
0.10691
0.10272
0.10657
0.098386
0.10901
0.092859
0.11194
0.10979
0.10968
0.1089
0.10848
0.10645
0.1069
0.1027
0.10648
0.0983
0.10874
0.092627
0.11115
0.10981
0.1097
0.10892
0.10849
0.10646
0.10688
0.10268
0.1064
0.098213
0.10847
0.0924
0.11037
0.10984
0.10973
0.10894
0.10851
0.10647
0.10687
0.10266
0.10632
0.098127
0.1082
0.092178
0.1096
0.10987
0.10976
0.10897
0.10852
0.10648
0.10686
0.10264
0.10623
0.098042
0.10793
0.09196
0.10884
0.1099
0.10978
0.10899
0.10854
0.10649
0.10684
0.10262
0.10615
0.097956
0.10766
0.091747
0.1081
0.10993
0.10981
0.10901
0.10856
0.1065
0.10683
0.1026
0.10606
0.097871
0.10738
0.091538
0.10737
0.10996
0.10984
0.10904
0.10857
0.10651
0.10682
0.10258
0.10597
0.097786
0.10711
0.091333
0.10665
0.10999
0.10987
0.10907
0.10859
0.10652
0.1068
0.10257
0.10588
0.097701
0.10683
0.091132
0.10595
0.11002
0.1099
0.10909
0.10861
0.10653
0.10679
0.10255
0.10579
0.097617
0.10655
0.090935
0.10525
0.11005
0.10993
0.10912
0.10863
0.10655
0.10677
0.10253
0.1057
0.097533
0.10628
0.090742
0.10457
0.11008
0.10996
0.10915
0.10865
0.10656
0.10676
0.10251
0.1056
0.097449
0.106
0.090552
0.1039
0.11012
0.10999
0.10918
0.10866
0.10657
0.10674
0.10249
0.10551
0.097366
0.10572
0.090366
0.10324
0.11015
0.11002
0.10921
0.10868
0.10658
0.10673
0.10247
0.10542
0.097283
0.10544
0.090183
0.10259
0.11019
0.11006
0.10924
0.1087
0.1066
0.10672
0.10245
0.10532
0.097201
0.10516
0.090003
0.10195
0.11022
0.11009
0.10927
0.10872
0.10661
0.1067
0.10243
0.10522
0.097118
0.10489
0.089826
0.10133
0.11026
0.11013
0.1093
0.10875
0.10663
0.10669
0.10241
0.10513
0.097036
0.10461
0.089652
0.10071
0.1103
0.11016
0.10933
0.10877
0.10664
0.10667
0.1024
0.10503
0.096955
0.10433
0.089481
0.1001
0.11034
0.1102
0.10936
0.10879
0.10666
0.10666
0.10238
0.10493
0.096874
0.10405
0.089312
0.099508
0.11038
0.11024
0.1094
0.10881
0.10667
0.10664
0.10236
0.10483
0.096793
0.10377
0.089146
0.098922
0.11042
0.11027
0.10943
0.10884
0.10669
0.10663
0.10234
0.10473
0.096712
0.10349
0.088983
0.098347
0.11046
0.11031
0.10947
0.10886
0.10671
0.10661
0.10233
0.10463
0.096632
0.10321
0.088822
0.097782
0.1105
0.11035
0.1095
0.10888
0.10672
0.1066
0.10231
0.10453
0.096552
0.10293
0.088663
0.097227
0.11054
0.11039
0.10954
0.10891
0.10674
0.10658
0.10229
0.10443
0.096473
0.10266
0.088506
0.096681
0.11058
0.11043
0.10958
0.10893
0.10676
0.10657
0.10227
0.10432
0.096394
0.10238
0.088352
0.096144
0.11063
0.11048
0.10961
0.10896
0.10678
0.10655
0.10226
0.10422
0.096315
0.1021
0.088199
0.095617
0.11067
0.11052
0.10965
0.10899
0.1068
0.10654
0.10224
0.10412
0.096236
0.10183
0.088048
0.095099
0.11072
0.11056
0.10969
0.10901
0.10682
0.10652
0.10223
0.10401
0.096158
0.10155
0.087899
0.09459
0.11077
0.11061
0.10973
0.10904
0.10684
0.10651
0.10221
0.10391
0.096081
0.10128
0.087751
0.094089
0.11082
0.11065
0.10978
0.10907
0.10686
0.10649
0.10219
0.10381
0.096003
0.10101
0.087606
0.093598
0.11087
0.1107
0.10982
0.1091
0.10688
0.10648
0.10218
0.1037
0.095926
0.10073
0.087461
0.093114
0.11092
0.11075
0.10986
0.10913
0.10691
0.10646
0.10216
0.1036
0.095849
0.10046
0.087318
0.092639
0.11097
0.1108
0.10991
0.10916
0.10693
0.10645
0.10215
0.10349
0.095772
0.10019
0.087176
0.092172
0.11102
0.11085
0.10995
0.10919
0.10695
0.10644
0.10213
0.10339
0.095696
0.099923
0.087036
0.091713
0.11107
0.1109
0.11
0.10923
0.10698
0.10642
0.10212
0.10328
0.09562
0.099655
0.086897
0.091262
0.11113
0.11095
0.11005
0.10926
0.10701
0.10641
0.10211
0.10317
0.095544
0.099388
0.086759
0.090818
0.11118
0.111
0.11009
0.10929
0.10703
0.1064
0.10209
0.10307
0.095469
0.099122
0.086621
0.090382
0.11124
0.11106
0.11014
0.10933
0.10706
0.10639
0.10208
0.10296
0.095394
0.098857
0.086485
0.089953
0.1113
0.11111
0.1102
0.10937
0.10709
0.10638
0.10207
0.10286
0.095319
0.098594
0.08635
0.089532
0.11136
0.11117
0.11025
0.1094
0.10711
0.10636
0.10205
0.10275
0.095244
0.098332
0.086215
0.089117
0.11142
0.11123
0.1103
0.10944
0.10714
0.10635
0.10204
0.10265
0.09517
0.098071
0.086082
0.088709
0.11148
0.11128
0.11035
0.10948
0.10717
0.10634
0.10203
0.10254
0.095095
0.097812
0.085948
0.088308
0.11154
0.11134
0.11041
0.10952
0.1072
0.10633
0.10202
0.10243
0.095021
0.097554
0.085816
0.087913
0.1116
0.11141
0.11046
0.10956
0.10724
0.10632
0.10201
0.10233
0.094948
0.097298
0.085684
0.087525
0.11167
0.11147
0.11052
0.1096
0.10727
0.10631
0.10199
0.10222
0.094874
0.097043
0.085552
0.087143
0.11174
0.11153
0.11058
0.10964
0.1073
0.1063
0.10198
0.10212
0.094801
0.096789
0.085421
0.086767
0.1118
0.1116
0.11064
0.10969
0.10734
0.1063
0.10197
0.10201
0.094727
0.096537
0.085291
0.086396
0.11187
0.11166
0.1107
0.10973
0.10737
0.10629
0.10196
0.10191
0.094654
0.096286
0.08516
0.086032
0.11194
0.11173
0.11076
0.10978
0.10741
0.10628
0.10195
0.10181
0.094581
0.096038
0.08503
0.085673
0.11202
0.1118
0.11083
0.10982
0.10744
0.10628
0.10195
0.1017
0.094508
0.09579
0.0849
0.08532
0.11209
0.11187
0.11089
0.10987
0.10748
0.10627
0.10194
0.1016
0.094436
0.095545
0.08477
0.084971
0.11216
0.11194
0.11096
0.10992
0.10752
0.10627
0.10193
0.1015
0.094363
0.0953
0.084641
0.084628
0.11224
0.11201
0.11103
0.10997
0.10756
0.10626
0.10192
0.10139
0.094291
0.095058
0.084511
0.08429
0.11232
0.11209
0.1111
0.11002
0.1076
0.10626
0.10192
0.10129
0.094219
0.094817
0.084381
0.083957
0.1124
0.11216
0.11117
0.11007
0.10765
0.10626
0.10191
0.10119
0.094146
0.094578
0.084251
0.083629
0.11248
0.11224
0.11124
0.11013
0.10769
0.10625
0.1019
0.10109
0.094074
0.094341
0.084121
0.083305
0.11256
0.11232
0.11131
0.11018
0.10773
0.10625
0.1019
0.10099
0.094002
0.094105
0.083991
0.082985
0.11265
0.1124
0.11139
0.11024
0.10778
0.10625
0.10189
0.10089
0.09393
0.093871
0.083861
0.08267
0.11273
0.11249
0.11147
0.1103
0.10783
0.10625
0.10189
0.10079
0.093859
0.093638
0.08373
0.082359
0.11282
0.11257
0.11154
0.11036
0.10787
0.10626
0.10188
0.10069
0.093787
0.093407
0.083599
0.082052
0.11291
0.11266
0.11162
0.11042
0.10792
0.10626
0.10188
0.1006
0.093715
0.093178
0.083468
0.081748
0.113
0.11275
0.11171
0.11049
0.10797
0.10626
0.10188
0.1005
0.093643
0.092951
0.083337
0.081449
0.1131
0.11284
0.11179
0.11055
0.10803
0.10627
0.10188
0.1004
0.093572
0.092725
0.083205
0.081153
0.11319
0.11293
0.11188
0.11062
0.10808
0.10627
0.10188
0.10031
0.0935
0.092501
0.083072
0.08086
0.11329
0.11302
0.11196
0.11068
0.10813
0.10628
0.10188
0.10021
0.093429
0.092279
0.082939
0.08057
0.11339
0.11312
0.11205
0.11075
0.10819
0.10629
0.10188
0.10012
0.093357
0.092058
0.082805
0.080284
0.11349
0.11322
0.11215
0.11083
0.10825
0.1063
0.10188
0.10003
0.093285
0.091839
0.082671
0.080001
0.11359
0.11332
0.11224
0.1109
0.10831
0.10631
0.10188
0.099939
0.093214
0.091622
0.082536
0.07972
0.1137
0.11342
0.11234
0.11098
0.10837
0.10633
0.10188
0.099848
0.093142
0.091406
0.0824
0.079442
0.11381
0.11353
0.11243
0.11105
0.10843
0.10634
0.10188
0.099759
0.093071
0.091192
0.082264
0.079167
0.11392
0.11364
0.11253
0.11113
0.1085
0.10636
0.10189
0.099671
0.093
0.090979
0.082127
0.078894
0.11403
0.11375
0.11264
0.11122
0.10856
0.10637
0.10189
0.099585
0.092928
0.090769
0.081988
0.078624
0.11415
0.11386
0.11274
0.1113
0.10863
0.10639
0.1019
0.099499
0.092857
0.090559
0.08185
0.078356
0.11427
0.11397
0.11285
0.11139
0.1087
0.10641
0.10191
0.099415
0.092785
0.090352
0.08171
0.078089
0.11439
0.11409
0.11296
0.11148
0.10877
0.10644
0.10192
0.099331
0.092714
0.090145
0.081569
0.077825
0.11451
0.11421
0.11307
0.11157
0.10885
0.10646
0.10193
0.099249
0.092643
0.089941
0.081427
0.077562
0.11464
0.11434
0.11319
0.11166
0.10893
0.10649
0.10194
0.099169
0.092571
0.089738
0.081284
0.077301
0.11477
0.11446
0.11331
0.11176
0.109
0.10651
0.10195
0.09909
0.0925
0.089536
0.08114
0.077042
0.1149
0.11459
0.11343
0.11186
0.10909
0.10655
0.10196
0.099012
0.092429
0.089336
0.080995
0.076784
0.11504
0.11472
0.11355
0.11196
0.10917
0.10658
0.10197
0.098936
0.092358
0.089137
0.080849
0.076527
0.11518
0.11486
0.11368
0.11206
0.10925
0.10661
0.10199
0.098861
0.092286
0.08894
0.080702
0.076271
0.11532
0.115
0.11381
0.11217
0.10934
0.10665
0.10201
0.098787
0.092215
0.088744
0.080553
0.076016
0.11546
0.11514
0.11395
0.11228
0.10943
0.10669
0.10203
0.098716
0.092144
0.08855
0.080403
0.075762
0.11561
0.11529
0.11408
0.1124
0.10953
0.10673
0.10204
0.098646
0.092074
0.088357
0.080252
0.075508
0.11577
0.11544
0.11422
0.11251
0.10962
0.10677
0.10207
0.098577
0.092003
0.088165
0.080099
0.075255
0.11592
0.11559
0.11437
0.11264
0.10972
0.10682
0.10209
0.098511
0.091932
0.087974
0.079945
0.075002
0.11608
0.11575
0.11452
0.11276
0.10983
0.10687
0.10211
0.098446
0.091862
0.087785
0.079789
0.07475
0.11625
0.11591
0.11467
0.11289
0.10993
0.10692
0.10214
0.098383
0.091791
0.087597
0.079632
0.074497
0.11642
0.11608
0.11483
0.11302
0.11004
0.10698
0.10217
0.098322
0.091721
0.08741
0.079473
0.074245
0.11659
0.11625
0.11499
0.11316
0.11015
0.10704
0.1022
0.098263
0.091651
0.087225
0.079313
0.073992
0.11677
0.11643
0.11515
0.1133
0.11027
0.1071
0.10223
0.098206
0.091581
0.08704
0.079151
0.07374
0.11695
0.11661
0.11532
0.11344
0.11039
0.10716
0.10227
0.098151
0.091512
0.086857
0.078987
0.073486
0.11714
0.11679
0.1155
0.11359
0.11051
0.10723
0.1023
0.098098
0.091443
0.086675
0.078822
0.073232
0.11733
0.11698
0.11568
0.11375
0.11064
0.1073
0.10234
0.098047
0.091374
0.086494
0.078655
0.072977
0.11753
0.11718
0.11586
0.11391
0.11077
0.10738
0.10239
0.097999
0.091305
0.086314
0.078486
0.072721
0.11773
0.11738
0.11605
0.11407
0.11091
0.10746
0.10243
0.097953
0.091237
0.086134
0.078315
0.072465
0.11794
0.11758
0.11625
0.11424
0.11105
0.10754
0.10248
0.09791
0.091169
0.085956
0.078142
0.072206
0.11815
0.1178
0.11645
0.11441
0.1112
0.10763
0.10253
0.097869
0.091102
0.085779
0.077967
0.071947
0.11837
0.11801
0.11665
0.11459
0.11135
0.10772
0.10258
0.097831
0.091035
0.085602
0.07779
0.071686
0.1186
0.11824
0.11687
0.11478
0.1115
0.10782
0.10264
0.097795
0.090969
0.085427
0.07761
0.071423
0.11883
0.11847
0.11709
0.11497
0.11166
0.10792
0.1027
0.097762
0.090903
0.085252
0.077429
0.071159
0.11907
0.11871
0.11731
0.11517
0.11183
0.10802
0.10276
0.097732
0.090838
0.085078
0.077245
0.070892
0.11931
0.11895
0.11754
0.11538
0.112
0.10814
0.10282
0.097705
0.090773
0.084905
0.077059
0.070623
0.11957
0.1192
0.11778
0.11559
0.11218
0.10825
0.10289
0.097681
0.090709
0.084732
0.07687
0.070351
0.11983
0.11946
0.11803
0.11581
0.11237
0.10837
0.10297
0.097661
0.090646
0.08456
0.076679
0.070078
0.12009
0.11973
0.11829
0.11603
0.11256
0.1085
0.10305
0.097643
0.090584
0.084389
0.076486
0.069801
0.12037
0.12001
0.11855
0.11627
0.11276
0.10864
0.10313
0.097629
0.090523
0.084218
0.07629
0.069521
0.12066
0.12029
0.11882
0.11651
0.11296
0.10878
0.10321
0.097618
0.090462
0.084048
0.076091
0.069238
0.12095
0.12059
0.1191
0.11676
0.11317
0.10892
0.1033
0.097611
0.090402
0.083878
0.075889
0.068952
0.12125
0.12089
0.11939
0.11702
0.11339
0.10908
0.1034
0.097608
0.090343
0.083708
0.075684
0.068663
0.12156
0.1212
0.11969
0.11729
0.11362
0.10923
0.1035
0.097608
0.090286
0.083539
0.075476
0.068369
0.12188
0.12152
0.11999
0.11756
0.11386
0.1094
0.10361
0.097613
0.090229
0.08337
0.075265
0.068072
0.12221
0.12185
0.12031
0.11785
0.1141
0.10958
0.10372
0.097621
0.090173
0.083201
0.075051
0.06777
0.12255
0.12219
0.12064
0.11815
0.11435
0.10976
0.10383
0.097634
0.090119
0.083032
0.074833
0.067464
0.1229
0.12255
0.12098
0.11845
0.11462
0.10995
0.10396
0.09765
0.090065
0.082863
0.074612
0.067153
0.12326
0.12291
0.12133
0.11877
0.11489
0.11015
0.10408
0.097671
0.090013
0.082695
0.074387
0.066837
0.12364
0.12329
0.12169
0.1191
0.11517
0.11035
0.10422
0.097697
0.089962
0.082526
0.074158
0.066516
0.12402
0.12368
0.12206
0.11944
0.11546
0.11057
0.10436
0.097727
0.089912
0.082356
0.073926
0.066189
0.12442
0.12408
0.12245
0.11979
0.11576
0.11079
0.1045
0.097762
0.089864
0.082186
0.073689
0.065857
0.12483
0.12449
0.12285
0.12016
0.11608
0.11103
0.10466
0.097801
0.089816
0.082016
0.073447
0.065518
0.12525
0.12492
0.12326
0.12053
0.1164
0.11127
0.10482
0.097846
0.08977
0.081845
0.073201
0.065173
0.12569
0.12536
0.12369
0.12092
0.11674
0.11153
0.10499
0.097895
0.089725
0.081673
0.07295
0.064822
0.12614
0.12582
0.12413
0.12133
0.11709
0.11179
0.10516
0.097949
0.089681
0.0815
0.072695
0.064463
0.12661
0.12629
0.12458
0.12175
0.11745
0.11207
0.10535
0.098009
0.089639
0.081326
0.072433
0.064096
0.12709
0.12677
0.12505
0.12218
0.11783
0.11235
0.10554
0.098073
0.089597
0.08115
0.072166
0.063722
0.12758
0.12728
0.12554
0.12263
0.11822
0.11265
0.10574
0.098143
0.089557
0.080972
0.071893
0.063339
0.1281
0.1278
0.12605
0.1231
0.11862
0.11296
0.10595
0.098219
0.089517
0.080793
0.071614
0.062947
0.12863
0.12834
0.12657
0.12358
0.11904
0.11329
0.10616
0.098299
0.089478
0.080611
0.071328
0.062546
0.12917
0.12889
0.12711
0.12408
0.11947
0.11362
0.10639
0.098385
0.089439
0.080427
0.071036
0.062135
0.12974
0.12947
0.12767
0.1246
0.11992
0.11397
0.10662
0.098476
0.089401
0.08024
0.070735
0.061714
0.13032
0.13006
0.12824
0.12513
0.12039
0.11433
0.10687
0.098573
0.089364
0.080049
0.070427
0.061282
0.13093
0.13067
0.12884
0.12569
0.12087
0.11471
0.10712
0.098675
0.089326
0.079855
0.07011
0.060838
0.13155
0.13131
0.12946
0.12626
0.12137
0.1151
0.10738
0.098782
0.089289
0.079657
0.069784
0.060383
0.13219
0.13197
0.1301
0.12686
0.12189
0.1155
0.10766
0.098895
0.089251
0.079454
0.069449
0.059914
0.13286
0.13265
0.13077
0.12748
0.12243
0.11592
0.10794
0.099013
0.089212
0.079245
0.069103
0.059432
0.13355
0.13335
0.13145
0.12812
0.12299
0.11636
0.10823
0.099136
0.089172
0.079032
0.068746
0.058936
0.13426
0.13408
0.13217
0.12878
0.12357
0.11681
0.10854
0.099264
0.089131
0.078811
0.068378
0.058424
0.135
0.13484
0.13291
0.12947
0.12417
0.11728
0.10885
0.099396
0.089088
0.078584
0.067998
0.057896
0.13577
0.13562
0.13367
0.13019
0.12479
0.11777
0.10918
0.099534
0.089043
0.078349
0.067604
0.057352
0.13656
0.13643
0.13447
0.13093
0.12544
0.11828
0.10952
0.099676
0.088995
0.078106
0.067196
0.056789
0.13738
0.13727
0.13529
0.1317
0.12611
0.1188
0.10987
0.099823
0.088943
0.077853
0.066773
0.056207
0.13823
0.13814
0.13615
0.1325
0.1268
0.11935
0.11023
0.099974
0.088888
0.077591
0.066334
0.055605
0.13911
0.13905
0.13703
0.13333
0.12753
0.11991
0.11061
0.10013
0.088829
0.077317
0.065877
0.054982
0.14003
0.13999
0.13796
0.1342
0.12828
0.1205
0.11099
0.10029
0.088764
0.077031
0.065402
0.054336
0.14098
0.14097
0.13892
0.1351
0.12906
0.12111
0.11139
0.10045
0.088694
0.076732
0.064908
0.053666
0.14196
0.14199
0.13992
0.13603
0.12987
0.12174
0.11181
0.10062
0.088617
0.076418
0.064392
0.052971
0.14299
0.14304
0.14096
0.13701
0.13072
0.1224
0.11223
0.10079
0.088532
0.076089
0.063853
0.052248
0.14406
0.14415
0.14205
0.13802
0.1316
0.12308
0.11267
0.10096
0.088439
0.075743
0.063291
0.051497
0.14518
0.1453
0.14318
0.13909
0.13252
0.12379
0.11313
0.10113
0.088337
0.075378
0.062702
0.050714
0.14634
0.1465
0.14437
0.14019
0.13347
0.12453
0.1136
0.10131
0.088224
0.074993
0.062086
0.049899
0.14755
0.14775
0.14561
0.14135
0.13447
0.1253
0.11409
0.10148
0.088099
0.074586
0.06144
0.049049
0.14882
0.14907
0.1469
0.14257
0.13552
0.1261
0.11459
0.10166
0.08796
0.074155
0.060762
0.048162
0.15014
0.15044
0.14826
0.14384
0.13661
0.12693
0.1151
0.10184
0.087807
0.073699
0.06005
0.047236
0.15153
0.15188
0.14969
0.14517
0.13775
0.1278
0.11564
0.10201
0.087636
0.073213
0.059301
0.046267
0.15299
0.15339
0.15119
0.14657
0.13895
0.1287
0.11619
0.10219
0.087446
0.072696
0.058511
0.045252
0.15451
0.15498
0.15276
0.14804
0.1402
0.12964
0.11676
0.10235
0.087235
0.072145
0.057678
0.044189
0.15611
0.15665
0.15442
0.14959
0.14152
0.13063
0.11734
0.10252
0.086998
0.071556
0.056798
0.043074
0.1578
0.15841
0.15617
0.15122
0.1429
0.13165
0.11794
0.10267
0.086734
0.070924
0.055867
0.041903
0.15957
0.16027
0.15801
0.15294
0.14436
0.13272
0.11856
0.10281
0.086436
0.070246
0.05488
0.040671
0.16144
0.16222
0.15996
0.15475
0.14588
0.13384
0.11918
0.10294
0.086102
0.069515
0.053832
0.039374
0.16341
0.16429
0.16202
0.15666
0.14748
0.135
0.11982
0.10305
0.085724
0.068726
0.052717
0.038007
0.16548
0.16648
0.1642
0.15868
0.14917
0.13621
0.12047
0.10314
0.085297
0.067871
0.051528
0.036564
0.16768
0.16879
0.1665
0.16081
0.15094
0.13746
0.12113
0.10319
0.084812
0.066943
0.050257
0.035036
0.16999
0.17123
0.16895
0.16307
0.1528
0.13876
0.12178
0.10321
0.08426
0.065931
0.048895
0.033418
0.17244
0.17383
0.17154
0.16546
0.15476
0.1401
0.12243
0.10317
0.083631
0.064824
0.047433
0.031701
0.17502
0.17657
0.17429
0.16799
0.15681
0.14149
0.12306
0.10308
0.082912
0.063612
0.045859
0.029873
0.17776
0.17949
0.17722
0.17066
0.15896
0.14291
0.12368
0.10292
0.082089
0.062279
0.04416
0.027926
0.18066
0.18259
0.18033
0.1735
0.16122
0.14436
0.12426
0.10267
0.081146
0.06081
0.042323
0.025846
0.18372
0.18588
0.18364
0.17649
0.16357
0.14584
0.12478
0.10232
0.080065
0.059188
0.040332
0.02362
0.18698
0.18939
0.18716
0.17967
0.16603
0.14734
0.12525
0.10184
0.078823
0.057392
0.038169
0.021234
0.19043
0.19313
0.19092
0.18303
0.1686
0.14883
0.12562
0.10121
0.077397
0.055402
0.035816
0.01867
0.19411
0.19712
0.19494
0.1866
0.17126
0.15031
0.12588
0.1004
0.075759
0.053193
0.033253
0.015912
0.19802
0.20139
0.19924
0.19038
0.17401
0.15175
0.126
0.099375
0.073877
0.050736
0.030456
0.012942
0.20219
0.20598
0.20385
0.19438
0.17685
0.15312
0.12593
0.098095
0.071714
0.048003
0.027402
0.0097399
0.20665
0.21091
0.2088
0.19862
0.17976
0.15438
0.12562
0.096511
0.069225
0.044956
0.024063
0.0062843
0.21143
0.21624
0.21413
0.20311
0.18271
0.15549
0.12502
0.094561
0.066359
0.041555
0.020407
0.0025532
0.21656
0.22201
0.21989
0.20786
0.18567
0.15638
0.12405
0.092173
0.063055
0.037752
0.0164
-0.0014778
0.22209
0.22827
0.22611
0.21286
0.18858
0.15697
0.12261
0.089259
0.059239
0.033491
0.012001
-0.0058355
0.22804
0.2351
0.23284
0.21809
0.19136
0.15713
0.12058
0.085714
0.054826
0.028708
0.007164
-0.01055
0.23448
0.24256
0.2401
0.2235
0.1939
0.15672
0.11781
0.081411
0.049718
0.023328
0.0018348
-0.015654
0.24145
0.25071
0.2479
0.22902
0.19603
0.15555
0.11414
0.076206
0.043801
0.017269
-0.0040447
-0.021184
0.24899
0.25962
0.25623
0.23448
0.19752
0.15337
0.10933
0.06993
0.036955
0.010446
-0.010535
-0.027175
0.25717
0.26935
0.26501
0.23965
0.19805
0.14986
0.10314
0.0624
0.029053
0.0027737
-0.017693
-0.033656
0.26607
0.27991
0.27404
0.24415
0.19717
0.14463
0.09527
0.053422
0.019977
-0.005818
-0.025559
-0.040641
0.27579
0.29126
0.28297
0.24741
0.1943
0.13723
0.085414
0.042811
0.009627
-0.01537
-0.034142
-0.048112
0.28653
0.30324
0.29114
0.24855
0.18865
0.12708
0.07325
0.030412
-0.0020445
-0.025871
-0.0434
-0.056
0.29854
0.31545
0.29746
0.24632
0.17925
0.11363
0.058515
0.016158
-0.015
-0.037229
-0.053213
-0.064166
0.31226
0.3271
0.30015
0.23896
0.16492
0.096316
0.041088
0.00013837
-0.02906
-0.049231
-0.063357
-0.072388
0.32823
0.33666
0.29655
0.22419
0.14443
0.074806
0.021119
-0.017305
-0.043841
-0.061513
-0.073489
-0.080355
0.34712
0.34174
0.28299
0.19936
0.11672
0.049125
-0.00086893
-0.03552
-0.058725
-0.073543
-0.083154
-0.087697
0.36939
0.33912
0.2555
0.16214
0.081324
0.01984
-0.023964
-0.053593
-0.072917
-0.084681
-0.09184
-0.094043
0.39417
0.32437
0.21114
0.1119
0.038942
-0.011911
-0.04705
-0.070567
-0.085641
-0.094339
-0.099113
-0.099142
0.41966
0.28963
0.14658
0.049367
-0.0090576
-0.045161
-0.06952
-0.086042
-0.096626
-0.10235
-0.10491
-0.1031
0.45388
0.23282
0.059907
-0.024497
-0.061959
-0.080334
-0.09236
-0.10109
-0.10684
-0.10955
-0.10995
-0.10668
0.50899
0.17129
-0.036183
-0.10214
-0.11558
-0.11578
-0.11551
-0.11635
-0.11714
-0.11674
-0.11499
-0.11048
0.1104
0.076754
0.072359
0.071619
0.071095
0.069903
0.067945
0.065366
0.062484
0.059322
0.056302
0.052738
0.12881
0.091529
0.085515
0.08395
0.083197
0.081934
0.079854
0.077039
0.073842
0.070257
0.066828
0.063033
0.11336
0.082658
0.076979
0.075073
0.07429
0.073267
0.071587
0.069245
0.06655
0.063452
0.060496
0.057126
0.1068
0.080625
0.074863
0.072674
0.071776
0.070793
0.069248
0.067082
0.064583
0.061665
0.05889
0.055642
0.10552
0.082292
0.076147
0.073603
0.072475
0.071385
0.069814
0.067661
0.065199
0.062306
0.059568
0.056332
0.1046
0.083999
0.077534
0.074604
0.073175
0.071911
0.07027
0.068101
0.065659
0.062786
0.06008
0.056848
0.10342
0.085377
0.078728
0.075417
0.073655
0.072178
0.070436
0.068238
0.065811
0.062961
0.060292
0.057071
0.10234
0.086655
0.07993
0.076272
0.074172
0.072456
0.070589
0.068341
0.065913
0.063078
0.060439
0.057228
0.10142
0.087839
0.081128
0.077177
0.074758
0.072797
0.07079
0.068476
0.066035
0.063204
0.060586
0.057381
0.10062
0.088865
0.082243
0.078063
0.075363
0.07317
0.071019
0.068631
0.066166
0.063333
0.060729
0.057527
0.099877
0.089706
0.083233
0.07889
0.075954
0.073549
0.07126
0.068796
0.066301
0.063463
0.060868
0.057668
0.099187
0.09037
0.084088
0.079639
0.076513
0.073923
0.071506
0.068968
0.066442
0.063595
0.061006
0.057809
0.098541
0.090879
0.08481
0.080305
0.077031
0.074284
0.071754
0.069146
0.066588
0.063731
0.061146
0.057954
0.097937
0.091254
0.085412
0.080888
0.077505
0.074628
0.071998
0.069327
0.066738
0.063871
0.061288
0.058104
0.097372
0.091517
0.085904
0.081393
0.077933
0.074951
0.072236
0.069509
0.06689
0.064014
0.061433
0.058259
0.096846
0.091689
0.086302
0.081826
0.078316
0.075251
0.072464
0.069689
0.067043
0.064159
0.061579
0.058419
0.096356
0.091789
0.086619
0.082194
0.078656
0.075528
0.072682
0.069865
0.067196
0.064306
0.061728
0.058582
0.095902
0.09183
0.086867
0.082506
0.078956
0.075781
0.072888
0.070037
0.067348
0.064453
0.061877
0.058749
0.095481
0.091825
0.087057
0.082766
0.079219
0.076012
0.073082
0.070203
0.067497
0.064601
0.062026
0.058918
0.09509
0.091785
0.087197
0.082983
0.079448
0.076221
0.073263
0.070363
0.067643
0.064747
0.062175
0.059089
0.094729
0.091717
0.087297
0.08316
0.079647
0.076409
0.073432
0.070515
0.067786
0.064892
0.062324
0.05926
0.094394
0.091627
0.087361
0.083303
0.079818
0.076578
0.073588
0.070661
0.067925
0.065035
0.062472
0.059432
0.094083
0.09152
0.087397
0.083417
0.079964
0.076728
0.073732
0.070799
0.068058
0.065176
0.062618
0.059604
0.093793
0.091401
0.087407
0.083504
0.080087
0.076861
0.073864
0.070929
0.068187
0.065314
0.062762
0.059774
0.093523
0.091271
0.087396
0.083568
0.080189
0.076978
0.073984
0.071051
0.068311
0.065448
0.062903
0.059943
0.093269
0.091134
0.087368
0.083612
0.080272
0.077081
0.074094
0.071166
0.06843
0.065579
0.063042
0.06011
0.09303
0.090992
0.087325
0.083638
0.080338
0.077169
0.074193
0.071274
0.068543
0.065707
0.063178
0.060275
0.092804
0.090844
0.087268
0.083648
0.080389
0.077244
0.074282
0.071374
0.068651
0.06583
0.063311
0.060436
0.092589
0.090694
0.087201
0.083645
0.080426
0.077308
0.074361
0.071467
0.068753
0.065949
0.06344
0.060595
0.092384
0.09054
0.087124
0.083629
0.080451
0.07736
0.074431
0.071552
0.06885
0.066063
0.063565
0.06075
0.092187
0.090385
0.087039
0.083602
0.080464
0.077402
0.074493
0.071631
0.068941
0.066173
0.063687
0.060901
0.091998
0.090228
0.086947
0.083566
0.080467
0.077435
0.074546
0.071703
0.069026
0.066279
0.063804
0.061048
0.091814
0.09007
0.086849
0.083521
0.080461
0.077459
0.074592
0.071768
0.069106
0.066379
0.063917
0.061191
0.091634
0.089911
0.086746
0.083469
0.080446
0.077474
0.074629
0.071826
0.06918
0.066475
0.064026
0.06133
0.091459
0.089751
0.086638
0.083409
0.080423
0.077481
0.07466
0.071879
0.069249
0.066565
0.06413
0.061464
0.091287
0.08959
0.086525
0.083344
0.080393
0.077481
0.074684
0.071925
0.069312
0.066651
0.06423
0.061593
0.091117
0.089428
0.086409
0.083272
0.080356
0.077474
0.074701
0.071965
0.06937
0.066732
0.064324
0.061718
0.090948
0.089265
0.086289
0.083195
0.080313
0.077461
0.074713
0.071999
0.069423
0.066808
0.064415
0.061837
0.090781
0.089101
0.086165
0.083113
0.080264
0.077442
0.074718
0.072028
0.06947
0.066878
0.0645
0.061952
0.090614
0.088936
0.086039
0.083026
0.080209
0.077417
0.074717
0.072052
0.069513
0.066944
0.064581
0.062062
0.090447
0.08877
0.08591
0.082935
0.080149
0.077386
0.074711
0.07207
0.06955
0.067005
0.064657
0.062167
0.09028
0.088602
0.085777
0.08284
0.080085
0.07735
0.0747
0.072083
0.069582
0.067062
0.064729
0.062267
0.090112
0.088433
0.085642
0.082742
0.080016
0.07731
0.074684
0.072091
0.06961
0.067113
0.064796
0.062361
0.089943
0.088263
0.085505
0.082639
0.079943
0.077264
0.074663
0.072094
0.069633