/*--------------------------------*- C++ -*----------------------------------*\
  =========                 |
  \\      /  F ield         | OpenFOAM: The Open Source CFD Toolbox
   \\    /   O peration     | Website:  https://openfoam.org
    \\  /    A nd           | Version:  6.0
     \\/     M anipulation  |
\*---------------------------------------------------------------------------*/
FoamFile
{
    version     2.0;
    format      ascii;
    class       volScalarField;
    location    "0.31";
    object      p;
}
// * * * * * * * * * * * * * * * * * * * * * * * * * * * * * * * * * * * * * //

dimensions      [0 2 -2 0 0 0 0];

internalField   nonuniform List<scalar> 
13500
(
0.10722
0.1072
0.10647
0.10635
0.10453
0.10552
0.1021
0.10679
0.1016
0.11501
0.11994
0.18636
0.10722
0.1072
0.10647
0.10635
0.10453
0.10553
0.1021
0.1068
0.10159
0.11505
0.11935
0.18098
0.10722
0.1072
0.10647
0.10635
0.10453
0.10553
0.10209
0.10681
0.10156
0.11509
0.11858
0.17633
0.10722
0.1072
0.10647
0.10635
0.10452
0.10554
0.10207
0.10682
0.10153
0.11511
0.11774
0.17283
0.10722
0.1072
0.10647
0.10636
0.10452
0.10554
0.10206
0.10683
0.1015
0.11512
0.1169
0.16997
0.10722
0.10721
0.10647
0.10636
0.10452
0.10555
0.10205
0.10684
0.10146
0.11512
0.11606
0.16747
0.10722
0.10721
0.10647
0.10636
0.10451
0.10556
0.10203
0.10685
0.10141
0.1151
0.11524
0.16524
0.10723
0.10721
0.10647
0.10637
0.10451
0.10556
0.10202
0.10685
0.10137
0.11508
0.11445
0.16322
0.10723
0.10721
0.10647
0.10637
0.10451
0.10557
0.10201
0.10685
0.10132
0.11505
0.1137
0.16137
0.10723
0.10722
0.10647
0.10637
0.1045
0.10557
0.10199
0.10685
0.10127
0.11501
0.11296
0.15963
0.10723
0.10722
0.10647
0.10638
0.1045
0.10557
0.10198
0.10685
0.10122
0.11496
0.11225
0.158
0.10724
0.10722
0.10648
0.10638
0.1045
0.10558
0.10196
0.10685
0.10116
0.1149
0.11157
0.15644
0.10724
0.10723
0.10648
0.10639
0.10449
0.10558
0.10195
0.10685
0.1011
0.11484
0.1109
0.15495
0.10725
0.10723
0.10648
0.10639
0.10449
0.10558
0.10193
0.10684
0.10104
0.11477
0.11025
0.15352
0.10725
0.10724
0.10648
0.1064
0.10449
0.10559
0.10191
0.10683
0.10098
0.11469
0.10961
0.15212
0.10726
0.10724
0.10649
0.1064
0.10449
0.10559
0.1019
0.10682
0.10091
0.1146
0.10898
0.15077
0.10726
0.10725
0.10649
0.1064
0.10448
0.10559
0.10188
0.10681
0.10084
0.11451
0.10837
0.14945
0.10727
0.10725
0.10649
0.10641
0.10448
0.10559
0.10186
0.1068
0.10077
0.11441
0.10777
0.14816
0.10727
0.10726
0.1065
0.10641
0.10448
0.10559
0.10185
0.10678
0.1007
0.11431
0.10718
0.1469
0.10728
0.10727
0.1065
0.10642
0.10448
0.10559
0.10183
0.10676
0.10063
0.1142
0.10661
0.14566
0.10729
0.10727
0.10651
0.10643
0.10448
0.10559
0.10181
0.10674
0.10055
0.11408
0.10604
0.14445
0.10729
0.10728
0.10651
0.10643
0.10448
0.10559
0.10179
0.10672
0.10048
0.11395
0.10549
0.14325
0.1073
0.10729
0.10652
0.10644
0.10447
0.10559
0.10177
0.1067
0.1004
0.11383
0.10495
0.14208
0.10731
0.1073
0.10652
0.10644
0.10447
0.10559
0.10176
0.10668
0.10032
0.11369
0.10442
0.14092
0.10732
0.10731
0.10653
0.10645
0.10447
0.10559
0.10174
0.10665
0.10024
0.11355
0.1039
0.13978
0.10733
0.10732
0.10654
0.10646
0.10447
0.10559
0.10172
0.10662
0.10015
0.1134
0.10339
0.13866
0.10734
0.10732
0.10654
0.10646
0.10447
0.10559
0.1017
0.10659
0.10007
0.11325
0.1029
0.13755
0.10735
0.10733
0.10655
0.10647
0.10447
0.10558
0.10168
0.10656
0.099985
0.1131
0.10241
0.13645
0.10736
0.10734
0.10656
0.10648
0.10447
0.10558
0.10166
0.10653
0.099899
0.11294
0.10193
0.13537
0.10737
0.10735
0.10657
0.10648
0.10447
0.10558
0.10164
0.10649
0.099811
0.11277
0.10147
0.1343
0.10738
0.10737
0.10658
0.10649
0.10447
0.10557
0.10162
0.10645
0.099723
0.1126
0.10101
0.13325
0.10739
0.10738
0.10658
0.1065
0.10447
0.10557
0.1016
0.10642
0.099634
0.11243
0.10057
0.13221
0.1074
0.10739
0.10659
0.1065
0.10447
0.10557
0.10158
0.10638
0.099544
0.11225
0.10013
0.13118
0.10741
0.1074
0.1066
0.10651
0.10447
0.10556
0.10156
0.10633
0.099454
0.11206
0.099709
0.13016
0.10743
0.10741
0.10661
0.10652
0.10447
0.10556
0.10154
0.10629
0.099362
0.11188
0.099294
0.12916
0.10744
0.10743
0.10662
0.10653
0.10447
0.10555
0.10151
0.10624
0.09927
0.11169
0.098887
0.12817
0.10746
0.10744
0.10663
0.10654
0.10447
0.10554
0.10149
0.1062
0.099177
0.11149
0.09849
0.12719
0.10747
0.10745
0.10665
0.10654
0.10448
0.10554
0.10147
0.10615
0.099084
0.11129
0.098102
0.12622
0.10748
0.10747
0.10666
0.10655
0.10448
0.10553
0.10145
0.1061
0.09899
0.11109
0.097722
0.12526
0.1075
0.10748
0.10667
0.10656
0.10448
0.10552
0.10143
0.10604
0.098896
0.11088
0.097351
0.12432
0.10752
0.1075
0.10668
0.10657
0.10448
0.10552
0.10141
0.10599
0.098801
0.11067
0.096989
0.12339
0.10753
0.10751
0.1067
0.10658
0.10448
0.10551
0.10138
0.10593
0.098706
0.11046
0.096634
0.12247
0.10755
0.10753
0.10671
0.10659
0.10449
0.1055
0.10136
0.10588
0.098611
0.11024
0.096288
0.12156
0.10757
0.10754
0.10672
0.1066
0.10449
0.10549
0.10134
0.10582
0.098516
0.11003
0.095949
0.12066
0.10758
0.10756
0.10674
0.10661
0.10449
0.10548
0.10132
0.10576
0.09842
0.1098
0.095618
0.11978
0.1076
0.10758
0.10675
0.10662
0.1045
0.10547
0.10129
0.1057
0.098324
0.10958
0.095295
0.1189
0.10762
0.1076
0.10677
0.10663
0.1045
0.10546
0.10127
0.10563
0.098228
0.10935
0.094978
0.11804
0.10764
0.10762
0.10678
0.10664
0.1045
0.10545
0.10125
0.10557
0.098131
0.10912
0.094669
0.11719
0.10766
0.10763
0.1068
0.10665
0.10451
0.10544
0.10123
0.1055
0.098035
0.10889
0.094367
0.11635
0.10768
0.10765
0.10682
0.10667
0.10451
0.10543
0.1012
0.10544
0.097939
0.10866
0.094071
0.11552
0.1077
0.10767
0.10683
0.10668
0.10452
0.10542
0.10118
0.10537
0.097842
0.10842
0.093782
0.11471
0.10773
0.1077
0.10685
0.10669
0.10452
0.10541
0.10116
0.1053
0.097746
0.10818
0.093499
0.1139
0.10775
0.10772
0.10687
0.1067
0.10453
0.1054
0.10114
0.10523
0.097649
0.10794
0.093222
0.11311
0.10777
0.10774
0.10689
0.10671
0.10454
0.10539
0.10111
0.10515
0.097553
0.1077
0.092951
0.11233
0.10779
0.10776
0.10691
0.10673
0.10454
0.10537
0.10109
0.10508
0.097457
0.10745
0.092686
0.11155
0.10782
0.10778
0.10693
0.10674
0.10455
0.10536
0.10107
0.105
0.097361
0.10721
0.092426
0.1108
0.10784
0.10781
0.10695
0.10675
0.10456
0.10535
0.10104
0.10493
0.097265
0.10696
0.092172
0.11005
0.10787
0.10783
0.10697
0.10677
0.10456
0.10534
0.10102
0.10485
0.097169
0.10671
0.091924
0.10931
0.1079
0.10785
0.10699
0.10678
0.10457
0.10532
0.101
0.10477
0.097074
0.10646
0.09168
0.10858
0.10792
0.10788
0.10701
0.1068
0.10458
0.10531
0.10098
0.10469
0.096978
0.10621
0.091442
0.10787
0.10795
0.10791
0.10704
0.10681
0.10459
0.1053
0.10095
0.10461
0.096883
0.10595
0.091208
0.10716
0.10798
0.10793
0.10706
0.10683
0.1046
0.10528
0.10093
0.10452
0.096789
0.1057
0.090979
0.10647
0.10801
0.10796
0.10708
0.10684
0.1046
0.10527
0.10091
0.10444
0.096694
0.10544
0.090754
0.10578
0.10804
0.10799
0.10711
0.10686
0.10461
0.10525
0.10089
0.10435
0.0966
0.10519
0.090534
0.10511
0.10807
0.10801
0.10713
0.10687
0.10462
0.10524
0.10086
0.10427
0.096506
0.10493
0.090318
0.10445
0.1081
0.10804
0.10716
0.10689
0.10463
0.10522
0.10084
0.10418
0.096412
0.10467
0.090107
0.10379
0.10813
0.10807
0.10719
0.10691
0.10465
0.10521
0.10082
0.10409
0.096319
0.10441
0.089899
0.10315
0.10816
0.1081
0.10721
0.10692
0.10466
0.10519
0.1008
0.104
0.096226
0.10415
0.089695
0.10252
0.10819
0.10813
0.10724
0.10694
0.10467
0.10518
0.10077
0.10391
0.096133
0.10389
0.089495
0.10189
0.10823
0.10817
0.10727
0.10696
0.10468
0.10516
0.10075
0.10382
0.096041
0.10363
0.089298
0.10128
0.10826
0.1082
0.1073
0.10698
0.10469
0.10515
0.10073
0.10373
0.095949
0.10337
0.089105
0.10068
0.1083
0.10823
0.10733
0.107
0.10471
0.10513
0.10071
0.10364
0.095857
0.10311
0.088915
0.10008
0.10833
0.10826
0.10736
0.10702
0.10472
0.10511
0.10069
0.10354
0.095766
0.10285
0.088728
0.0995
0.10837
0.1083
0.10739
0.10704
0.10473
0.1051
0.10067
0.10345
0.095675
0.10258
0.088544
0.098925
0.10841
0.10833
0.10742
0.10706
0.10475
0.10508
0.10064
0.10335
0.095585
0.10232
0.088363
0.098359
0.10844
0.10837
0.10746
0.10708
0.10476
0.10507
0.10062
0.10326
0.095495
0.10206
0.088185
0.097802
0.10848
0.10841
0.10749
0.1071
0.10478
0.10505
0.1006
0.10316
0.095405
0.1018
0.08801
0.097254
0.10852
0.10844
0.10752
0.10712
0.10479
0.10503
0.10058
0.10307
0.095316
0.10154
0.087838
0.096715
0.10856
0.10848
0.10756
0.10715
0.10481
0.10502
0.10056
0.10297
0.095227
0.10128
0.087668
0.096184
0.10861
0.10852
0.10759
0.10717
0.10483
0.105
0.10054
0.10287
0.095138
0.10101
0.0875
0.095662
0.10865
0.10856
0.10763
0.10719
0.10484
0.10499
0.10052
0.10277
0.09505
0.10075
0.087335
0.095148
0.10869
0.1086
0.10767
0.10722
0.10486
0.10497
0.1005
0.10267
0.094962
0.10049
0.087172
0.094643
0.10874
0.10864
0.10771
0.10724
0.10488
0.10495
0.10048
0.10257
0.094875
0.10023
0.087011
0.094146
0.10878
0.10869
0.10775
0.10727
0.1049
0.10494
0.10046
0.10247
0.094788
0.099972
0.086852
0.093656
0.10883
0.10873
0.10779
0.1073
0.10492
0.10492
0.10044
0.10237
0.094702
0.099712
0.086694
0.093175
0.10888
0.10877
0.10783
0.10732
0.10494
0.10491
0.10042
0.10227
0.094616
0.099453
0.086539
0.092701
0.10892
0.10882
0.10787
0.10735
0.10496
0.10489
0.10041
0.10216
0.09453
0.099195
0.086386
0.092234
0.10897
0.10887
0.10791
0.10738
0.10498
0.10487
0.10039
0.10206
0.094445
0.098937
0.086234
0.091775
0.10902
0.10891
0.10795
0.10741
0.105
0.10486
0.10037
0.10196
0.09436
0.09868
0.086083
0.091324
0.10907
0.10896
0.108
0.10744
0.10503
0.10484
0.10035
0.10186
0.094275
0.098423
0.085934
0.090879
0.10913
0.10901
0.10804
0.10747
0.10505
0.10483
0.10033
0.10175
0.094191
0.098168
0.085787
0.090441
0.10918
0.10906
0.10809
0.1075
0.10507
0.10481
0.10032
0.10165
0.094107
0.097913
0.085641
0.09001
0.10923
0.10911
0.10814
0.10753
0.1051
0.1048
0.1003
0.10155
0.094024
0.097659
0.085496
0.089586
0.10929
0.10916
0.10819
0.10756
0.10512
0.10478
0.10028
0.10144
0.09394
0.097405
0.085352
0.089169
0.10935
0.10922
0.10824
0.1076
0.10515
0.10477
0.10027
0.10134
0.093858
0.097153
0.085209
0.088757
0.1094
0.10927
0.10829
0.10763
0.10518
0.10476
0.10025
0.10123
0.093775
0.096902
0.085068
0.088352
0.10946
0.10933
0.10834
0.10767
0.10521
0.10474
0.10024
0.10113
0.093693
0.096651
0.084927
0.087953
0.10952
0.10938
0.10839
0.1077
0.10523
0.10473
0.10022
0.10103
0.093611
0.096402
0.084787
0.087561
0.10958
0.10944
0.10844
0.10774
0.10526
0.10472
0.10021
0.10092
0.09353
0.096153
0.084648
0.087173
0.10965
0.1095
0.1085
0.10778
0.10529
0.1047
0.10019
0.10082
0.093448
0.095906
0.084509
0.086792
0.10971
0.10956
0.10855
0.10781
0.10532
0.10469
0.10018
0.10071
0.093367
0.09566
0.084372
0.086416
0.10977
0.10962
0.10861
0.10785
0.10536
0.10468
0.10016
0.10061
0.093287
0.095415
0.084234
0.086046
0.10984
0.10968
0.10867
0.10789
0.10539
0.10467
0.10015
0.10051
0.093206
0.095171
0.084098
0.085681
0.10991
0.10975
0.10873
0.10794
0.10542
0.10466
0.10014
0.1004
0.093126
0.094928
0.083961
0.085321
0.10998
0.10981
0.10879
0.10798
0.10546
0.10465
0.10013
0.1003
0.093046
0.094686
0.083825
0.084966
0.11005
0.10988
0.10885
0.10802
0.10549
0.10464
0.10011
0.10019
0.092966
0.094446
0.08369
0.084615
0.11012
0.10995
0.10892
0.10807
0.10553
0.10463
0.1001
0.10009
0.092887
0.094206
0.083555
0.08427
0.11019
0.11002
0.10898
0.10811
0.10557
0.10462
0.10009
0.099988
0.092808
0.093968
0.083419
0.083929
0.11027
0.11009
0.10905
0.10816
0.1056
0.10462
0.10008
0.099885
0.092729
0.093731
0.083285
0.083593
0.11034
0.11016
0.10912
0.10821
0.10564
0.10461
0.10007
0.099782
0.09265
0.093495
0.08315
0.083261
0.11042
0.11023
0.10918
0.10826
0.10568
0.1046
0.10006
0.09968
0.092571
0.093261
0.083015
0.082933
0.1105
0.11031
0.10925
0.10831
0.10573
0.1046
0.10005
0.099579
0.092493
0.093028
0.08288
0.082609
0.11058
0.11039
0.10933
0.10836
0.10577
0.10459
0.10004
0.099477
0.092414
0.092796
0.082745
0.082289
0.11066
0.11047
0.1094
0.10842
0.10581
0.10459
0.10003
0.099376
0.092336
0.092565
0.08261
0.081973
0.11075
0.11055
0.10948
0.10847
0.10586
0.10459
0.10003
0.099276
0.092258
0.092336
0.082474
0.08166
0.11083
0.11063
0.10955
0.10853
0.1059
0.10458
0.10002
0.099176
0.09218
0.092108
0.082339
0.081351
0.11092
0.11071
0.10963
0.10859
0.10595
0.10458
0.10001
0.099077
0.092103
0.091881
0.082203
0.081045
0.11101
0.1108
0.10971
0.10865
0.106
0.10458
0.10001
0.098978
0.092025
0.091655
0.082066
0.080743
0.1111
0.11089
0.10979
0.10871
0.10605
0.10458
0.1
0.09888
0.091947
0.091431
0.08193
0.080443
0.1112
0.11098
0.10988
0.10877
0.1061
0.10459
0.099999
0.098782
0.09187
0.091208
0.081792
0.080147
0.11129
0.11107
0.10996
0.10883
0.10616
0.10459
0.099996
0.098686
0.091792
0.090986
0.081655
0.079853
0.11139
0.11116
0.11005
0.1089
0.10621
0.10459
0.099993
0.098589
0.091715
0.090765
0.081516
0.079562
0.11149
0.11126
0.11014
0.10897
0.10627
0.1046
0.099991
0.098494
0.091638
0.090546
0.081377
0.079274
0.11159
0.11135
0.11023
0.10904
0.10632
0.10461
0.09999
0.098399
0.091561
0.090328
0.081238
0.078988
0.1117
0.11145
0.11033
0.10911
0.10638
0.10461
0.099989
0.098306
0.091484
0.090111
0.081097
0.078704
0.1118
0.11156
0.11043
0.10918
0.10644
0.10462
0.099989
0.098213
0.091406
0.089896
0.080956
0.078423
0.11191
0.11166
0.11052
0.10926
0.10651
0.10463
0.099991
0.098121
0.091329
0.089681
0.080814
0.078143
0.11202
0.11177
0.11062
0.10934
0.10657
0.10465
0.099993
0.098029
0.091252
0.089468
0.080671
0.077866
0.11214
0.11188
0.11073
0.10942
0.10664
0.10466
0.099996
0.097939
0.091175
0.089256
0.080527
0.07759
0.11225
0.11199
0.11083
0.1095
0.10671
0.10468
0.1
0.09785
0.091098
0.089045
0.080382
0.077316
0.11237
0.11211
0.11094
0.10958
0.10678
0.10469
0.1
0.097762
0.091021
0.088835
0.080236
0.077043
0.11249
0.11222
0.11105
0.10967
0.10685
0.10471
0.10001
0.097675
0.090945
0.088627
0.080089
0.076772
0.11262
0.11235
0.11117
0.10976
0.10692
0.10473
0.10002
0.097589
0.090868
0.088419
0.079941
0.076502
0.11274
0.11247
0.11128
0.10985
0.107
0.10475
0.10003
0.097504
0.090791
0.088213
0.079792
0.076233
0.11287
0.1126
0.1114
0.10995
0.10708
0.10478
0.10004
0.09742
0.090714
0.088007
0.079641
0.075965
0.11301
0.11273
0.11152
0.11005
0.10716
0.10481
0.10005
0.097338
0.090637
0.087803
0.079489
0.075697
0.11315
0.11286
0.11165
0.11015
0.10724
0.10483
0.10006
0.097257
0.09056
0.0876
0.079335
0.075431
0.11329
0.113
0.11178
0.11025
0.10733
0.10487
0.10007
0.097177
0.090483
0.087398
0.079181
0.075165
0.11343
0.11314
0.11191
0.11036
0.10742
0.1049
0.10009
0.097099
0.090407
0.087196
0.079024
0.074899
0.11358
0.11328
0.11205
0.11047
0.10751
0.10493
0.1001
0.097022
0.09033
0.086996
0.078867
0.074634
0.11373
0.11343
0.11219
0.11058
0.1076
0.10497
0.10012
0.096946
0.090253
0.086797
0.078707
0.074369
0.11388
0.11358
0.11233
0.1107
0.1077
0.10501
0.10014
0.096872
0.090177
0.086598
0.078546
0.074103
0.11404
0.11373
0.11247
0.11082
0.1078
0.10506
0.10016
0.0968
0.0901
0.086401
0.078383
0.073838
0.1142
0.11389
0.11263
0.11094
0.10791
0.1051
0.10019
0.096729
0.090024
0.086204
0.078219
0.073572
0.11437
0.11406
0.11278
0.11107
0.10801
0.10515
0.10021
0.09666
0.089947
0.086008
0.078053
0.073306
0.11454
0.11422
0.11294
0.1112
0.10812
0.1052
0.10024
0.096593
0.089871
0.085813
0.077884
0.073039
0.11472
0.1144
0.1131
0.11134
0.10824
0.10526
0.10027
0.096528
0.089795
0.085619
0.077714
0.072772
0.1149
0.11457
0.11327
0.11148
0.10835
0.10532
0.1003
0.096464
0.089719
0.085425
0.077542
0.072503
0.11508
0.11476
0.11344
0.11163
0.10848
0.10538
0.10033
0.096403
0.089643
0.085232
0.077368
0.072234
0.11527
0.11495
0.11362
0.11178
0.1086
0.10544
0.10037
0.096343
0.089567
0.08504
0.077192
0.071963
0.11547
0.11514
0.1138
0.11193
0.10873
0.10551
0.1004
0.096286
0.089492
0.084848
0.077013
0.071691
0.11567
0.11534
0.11399
0.11209
0.10887
0.10558
0.10044
0.096231
0.089417
0.084657
0.076833
0.071418
0.11588
0.11554
0.11419
0.11226
0.109
0.10566
0.10049
0.096178
0.089342
0.084467
0.07665
0.071143
0.11609
0.11575
0.11438
0.11243
0.10915
0.10574
0.10053
0.096128
0.089267
0.084277
0.076464
0.070866
0.11631
0.11597
0.11459
0.11261
0.1093
0.10583
0.10058
0.096079
0.089192
0.084088
0.076276
0.070586
0.11653
0.11619
0.1148
0.11279
0.10945
0.10592
0.10063
0.096034
0.089118
0.083899
0.076086
0.070305
0.11676
0.11642
0.11502
0.11298
0.10961
0.10601
0.10069
0.095991
0.089045
0.08371
0.075893
0.070021
0.117
0.11666
0.11524
0.11317
0.10977
0.10611
0.10075
0.09595
0.088971
0.083522
0.075697
0.069735
0.11724
0.1169
0.11548
0.11337
0.10994
0.10622
0.10081
0.095913
0.088898
0.083334
0.075498
0.069446
0.1175
0.11715
0.11571
0.11358
0.11012
0.10633
0.10087
0.095878
0.088826
0.083147
0.075297
0.069155
0.11776
0.11741
0.11596
0.1138
0.1103
0.10644
0.10094
0.095847
0.088754
0.082959
0.075092
0.06886
0.11802
0.11767
0.11622
0.11402
0.11049
0.10656
0.10101
0.095818
0.088683
0.082772
0.074885
0.068561
0.1183
0.11795
0.11648
0.11425
0.11069
0.10669
0.10109
0.095792
0.088612
0.082585
0.074674
0.06826
0.11858
0.11823
0.11675
0.11449
0.11089
0.10682
0.10117
0.09577
0.088541
0.082398
0.07446
0.067954
0.11887
0.11852
0.11703
0.11474
0.1111
0.10696
0.10126
0.095751
0.088472
0.082211
0.074243
0.067645
0.11917
0.11883
0.11732
0.11499
0.11132
0.10711
0.10135
0.095736
0.088403
0.082024
0.074022
0.067331
0.11949
0.11914
0.11761
0.11526
0.11154
0.10726
0.10144
0.095724
0.088334
0.081837
0.073798
0.067013
0.11981
0.11946
0.11792
0.11553
0.11178
0.10742
0.10154
0.095716
0.088267
0.081649
0.073569
0.06669
0.12014
0.11979
0.11824
0.11582
0.11202
0.10759
0.10165
0.095712
0.0882
0.081461
0.073337
0.066363
0.12048
0.12013
0.11857
0.11611
0.11227
0.10776
0.10176
0.095712
0.088134
0.081273
0.073101
0.06603
0.12083
0.12048
0.11891
0.11642
0.11253
0.10795
0.10188
0.095715
0.088068
0.081084
0.07286
0.065692
0.12119
0.12085
0.11926
0.11673
0.1128
0.10814
0.102
0.095723
0.088003
0.080895
0.072615
0.065348
0.12157
0.12123
0.11962
0.11706
0.11308
0.10834
0.10212
0.095735
0.087939
0.080705
0.072366
0.064998
0.12195
0.12161
0.11999
0.1174
0.11337
0.10855
0.10226
0.095751
0.087876
0.080514
0.072111
0.064642
0.12235
0.12202
0.12038
0.11775
0.11367
0.10876
0.1024
0.095772
0.087813
0.080322
0.071852
0.064279
0.12276
0.12243
0.12078
0.11811
0.11399
0.10899
0.10255
0.095797
0.087752
0.080128
0.071587
0.063909
0.12319
0.12286
0.12119
0.11849
0.11431
0.10923
0.1027
0.095826
0.08769
0.079934
0.071317
0.063531
0.12362
0.1233
0.12162
0.11888
0.11465
0.10948
0.10286
0.095861
0.08763
0.079737
0.071041
0.063146
0.12408
0.12376
0.12206
0.11928
0.11499
0.10973
0.10303
0.095899
0.08757
0.079539
0.070759
0.062753
0.12454
0.12423
0.12252
0.1197
0.11535
0.11
0.1032
0.095943
0.08751
0.079339
0.070471
0.062351
0.12503
0.12472
0.12299
0.12013
0.11573
0.11028
0.10339
0.095991
0.087451
0.079137
0.070176
0.06194
0.12553
0.12523
0.12348
0.12058
0.11612
0.11057
0.10358
0.096044
0.087392
0.078932
0.069874
0.061519
0.12604
0.12575
0.12399
0.12105
0.11652
0.11088
0.10378
0.096102
0.087333
0.078724
0.069564
0.061089
0.12657
0.12629
0.12451
0.12153
0.11694
0.11119
0.10399
0.096165
0.087274
0.078513
0.069246
0.060648
0.12712
0.12685
0.12506
0.12203
0.11737
0.11152
0.1042
0.096233
0.087215
0.078298
0.06892
0.060195
0.12769
0.12743
0.12562
0.12255
0.11782
0.11186
0.10443
0.096305
0.087155
0.078079
0.068586
0.059731
0.12828
0.12803
0.1262
0.12308
0.11828
0.11222
0.10466
0.096382
0.087095
0.077856
0.068242
0.059255
0.12889
0.12864
0.1268
0.12364
0.11877
0.11259
0.1049
0.096464
0.087033
0.077628
0.067887
0.058765
0.12952
0.12928
0.12743
0.12422
0.11927
0.11297
0.10515
0.09655
0.086971
0.077395
0.067523
0.058262
0.13017
0.12995
0.12807
0.12482
0.11978
0.11337
0.10542
0.096641
0.086907
0.077155
0.067147
0.057744
0.13084
0.13063
0.12874
0.12544
0.12032
0.11378
0.10569
0.096737
0.086841
0.07691
0.066759
0.057211
0.13153
0.13134
0.12943
0.12608
0.12088
0.11421
0.10597
0.096837
0.086773
0.076657
0.066359
0.056661
0.13226
0.13208
0.13015
0.12675
0.12146
0.11465
0.10626
0.096941
0.086702
0.076396
0.065945
0.056095
0.133
0.13284
0.1309
0.12744
0.12206
0.11512
0.10656
0.097049
0.086628
0.076126
0.065516
0.05551
0.13377
0.13363
0.13167
0.12816
0.12268
0.1156
0.10687
0.09716
0.08655
0.075847
0.065072
0.054906
0.13457
0.13445
0.13247
0.12891
0.12333
0.11609
0.1072
0.097276
0.086468
0.075558
0.064612
0.054282
0.1354
0.1353
0.13331
0.12968
0.124
0.11661
0.10753
0.097395
0.086381
0.075257
0.064135
0.053636
0.13627
0.13619
0.13417
0.13049
0.1247
0.11715
0.10788
0.097517
0.086288
0.074945
0.063639
0.052968
0.13716
0.1371
0.13508
0.13133
0.12542
0.11771
0.10824
0.097642
0.08619
0.074619
0.063123
0.052275
0.13809
0.13806
0.13601
0.1322
0.12618
0.11828
0.10861
0.09777
0.086084
0.074279
0.062586
0.051557
0.13905
0.13905
0.13699
0.13311
0.12696
0.11889
0.10899
0.0979
0.085971
0.073923
0.062026
0.050812
0.14006
0.14009
0.13801
0.13406
0.12778
0.11951
0.10938
0.098032
0.085849
0.07355
0.061442
0.050038
0.1411
0.14117
0.13907
0.13505
0.12863
0.12016
0.10979
0.098165
0.085717
0.073159
0.060832
0.049233
0.14219
0.14229
0.14017
0.13608
0.12952
0.12084
0.11021
0.0983
0.085574
0.072748
0.060195
0.048396
0.14333
0.14346
0.14133
0.13716
0.13044
0.12154
0.11065
0.098435
0.085419
0.072315
0.059529
0.047524
0.14452
0.14469
0.14254
0.13829
0.13141
0.12227
0.11109
0.098571
0.085251
0.071859
0.05883
0.046616
0.14576
0.14598
0.14381
0.13947
0.13242
0.12304
0.11156
0.098705
0.085068
0.071377
0.058098
0.045668
0.14706
0.14732
0.14514
0.14071
0.13348
0.12383
0.11204
0.098838
0.084868
0.070868
0.057329
0.044678
0.14842
0.14873
0.14653
0.142
0.13459
0.12466
0.11253
0.098968
0.08465
0.070328
0.056522
0.043643
0.14984
0.15022
0.148
0.14337
0.13575
0.12553
0.11304
0.099095
0.084411
0.069755
0.055671
0.042561
0.15134
0.15177
0.14954
0.14481
0.13697
0.12643
0.11356
0.099215
0.084148
0.069145
0.054776
0.041427
0.15291
0.15341
0.15116
0.14632
0.13825
0.12737
0.1141
0.099328
0.083858
0.068496
0.05383
0.040239
0.15457
0.15514
0.15288
0.14791
0.13959
0.12835
0.11466
0.099431
0.083538
0.067801
0.052831
0.038991
0.15631
0.15696
0.15468
0.14958
0.141
0.12938
0.11522
0.099521
0.083183
0.067058
0.051773
0.037681
0.15814
0.15888
0.15659
0.15136
0.14248
0.13044
0.1158
0.099594
0.082788
0.06626
0.050651
0.036301
0.16007
0.16091
0.15861
0.15322
0.14404
0.13156
0.11639
0.099645
0.082348
0.0654
0.049459
0.034848
0.16211
0.16305
0.16075
0.1552
0.14567
0.13271
0.11698
0.09967
0.081856
0.064472
0.048189
0.033314
0.16427
0.16532
0.16301
0.15729
0.14739
0.13391
0.11758
0.099662
0.081302
0.063466
0.046833
0.031693
0.16654
0.16773
0.16541
0.1595
0.1492
0.13515
0.11817
0.099612
0.080679
0.062374
0.045383
0.029976
0.16895
0.17028
0.16795
0.16183
0.1511
0.13644
0.11876
0.099512
0.079975
0.061184
0.043828
0.028155
0.17149
0.17298
0.17066
0.16431
0.1531
0.13776
0.11933
0.09935
0.079178
0.059883
0.042157
0.02622
0.17418
0.17585
0.17353
0.16692
0.15519
0.13912
0.11987
0.099114
0.078274
0.058458
0.040356
0.024158
0.17703
0.17889
0.17658
0.16969
0.15737
0.14051
0.12038
0.098787
0.077245
0.056893
0.038411
0.021959
0.18004
0.18213
0.17982
0.17262
0.15966
0.14191
0.12083
0.098351
0.076073
0.055169
0.036306
0.019607
0.18324
0.18558
0.18328
0.17573
0.16205
0.14333
0.12121
0.097786
0.074736
0.053267
0.034024
0.017087
0.18664
0.18925
0.18697
0.17902
0.16453
0.14474
0.1215
0.097065
0.07321
0.051164
0.031545
0.014384
0.19025
0.19318
0.19092
0.1825
0.16711
0.14613
0.12168
0.096161
0.071467
0.048836
0.028849
0.011478
0.1941
0.19738
0.19514
0.18619
0.16978
0.14748
0.1217
0.095037
0.069474
0.046255
0.025911
0.0083517
0.19821
0.20189
0.19966
0.19011
0.17252
0.14876
0.12153
0.093652
0.067193
0.043388
0.022707
0.0049836
0.2026
0.20674
0.20453
0.19425
0.17533
0.14992
0.12112
0.091955
0.064579
0.0402
0.019207
0.0013523
0.2073
0.21198
0.20976
0.19864
0.17817
0.15092
0.12041
0.089886
0.06158
0.036648
0.015381
-0.0025656
0.21236
0.21766
0.21542
0.20327
0.18102
0.1517
0.11932
0.087372
0.058133
0.032684
0.011191
-0.0067955
0.2178
0.22382
0.22152
0.20814
0.1838
0.15216
0.11775
0.084324
0.054164
0.028249
0.0065946
-0.011365
0.22366
0.23054
0.22812
0.21324
0.18645
0.15219
0.11559
0.080634
0.049587
0.023278
0.0015441
-0.016306
0.23
0.23787
0.23524
0.2185
0.18884
0.15164
0.11268
0.076178
0.044301
0.017695
-0.0040152
-0.021652
0.23686
0.24589
0.24288
0.22385
0.19082
0.15032
0.10886
0.070808
0.038194
0.011418
-0.010142
-0.027438
0.24428
0.25465
0.25103
0.22912
0.19213
0.14798
0.10389
0.064359
0.031146
0.0043605
-0.016897
-0.033697
0.25232
0.2642
0.2596
0.23409
0.19248
0.14431
0.09754
0.056651
0.023032
-0.0035569
-0.024329
-0.040451
0.26106
0.27455
0.26839
0.23836
0.19141
0.13892
0.089518
0.047496
0.013743
-0.012396
-0.032471
-0.047704
0.27061
0.28565
0.27704
0.24137
0.18834
0.13136
0.079521
0.036723
0.0031943
-0.022181
-0.041312
-0.055418
0.28112
0.29734
0.2849
0.24226
0.18252
0.1211
0.067256
0.024202
-0.0086374
-0.032876
-0.050783
-0.0635
0.29287
0.3092
0.29088
0.23979
0.17298
0.1076
0.052493
0.0098993
-0.02168
-0.044353
-0.060729
-0.071783
0.30623
0.32043
0.29324
0.23225
0.15863
0.090354
0.035158
-0.0060539
-0.035715
-0.056363
-0.070892
-0.080018
0.32173
0.32951
0.28934
0.21744
0.13828
0.06908
0.015438
-0.023284
-0.050329
-0.068516
-0.080909
-0.087886
0.34
0.33408
0.27563
0.1928
0.11095
0.043831
-0.0061388
-0.041144
-0.064912
-0.080289
-0.090336
-0.095036
0.36145
0.33101
0.24824
0.15607
0.076172
0.015137
-0.028721
-0.058784
-0.07873
-0.091098
-0.098718
-0.10115
0.38528
0.31601
0.20433
0.1066
0.034559
-0.015986
-0.051321
-0.075371
-0.091122
-0.10046
-0.10571
-0.10606
0.40984
0.28143
0.14059
0.044993
-0.012694
-0.048741
-0.073488
-0.090647
-0.10194
-0.10832
-0.11136
-0.10995
0.4432
0.22526
0.055033
-0.027963
-0.065037
-0.08367
-0.096295
-0.10576
-0.11225
-0.11559
-0.11645
-0.1136
0.49742
0.16456
-0.039864
-0.1048
-0.11828
-0.11907
-0.1196
-0.12128
-0.12282
-0.12302
-0.12171
-0.11757
0.10748
0.072266
0.06715
0.066575
0.066983
0.067084
0.066467
0.065095
0.063227
0.060873
0.058444
0.055323
0.12587
0.086768
0.079757
0.078142
0.078263
0.078363
0.077768
0.076327
0.074306
0.071676
0.068952
0.06574
0.11112
0.078758
0.072068
0.069922
0.069747
0.069824
0.069403
0.068258
0.066605
0.064367
0.062049
0.059239
0.10486
0.077015
0.070241
0.067734
0.067331
0.067339
0.066962
0.065922
0.064413
0.062322
0.060161
0.057461
0.10365
0.078698
0.071565
0.068697
0.068026
0.067886
0.067448
0.066396
0.064906
0.062832
0.060702
0.058015
0.10275
0.080412
0.073011
0.069777
0.06878
0.068423
0.067871
0.066768
0.065272
0.063201
0.061094
0.058408
0.10159
0.081833
0.074316
0.070733
0.069375
0.068751
0.068043
0.066861
0.065344
0.063273
0.061187
0.058504
0.10052
0.08319
0.075669
0.071774
0.070047
0.069125
0.068228
0.066943
0.065385
0.063301
0.061227
0.058543
0.09962
0.084483
0.077049
0.072894
0.070817
0.069588
0.068484
0.067076
0.06546
0.06335
0.061279
0.058587
0.098838
0.085641
0.07837
0.074015
0.071624
0.070099
0.068783
0.067243
0.065558
0.063415
0.061338
0.058633
0.098123
0.086627
0.079575
0.075083
0.072425
0.070626
0.069105
0.06743
0.065671
0.063489
0.061402
0.058682
0.097456
0.087439
0.080644
0.076069
0.073192
0.071151
0.069439
0.067633
0.065798
0.063574
0.061473
0.058738
0.096829
0.08809
0.081571
0.076961
0.073912
0.071662
0.069776
0.067847
0.065937
0.063671
0.061553
0.058806
0.096239
0.088597
0.082363
0.077754
0.074576
0.072149
0.070109
0.068067
0.066085
0.063778
0.061643
0.058886
0.095684
0.088981
0.083029
0.078452
0.07518
0.072607
0.070433
0.06829
0.066241
0.063894
0.061742
0.058978
0.095163
0.089262
0.083584
0.079061
0.075725
0.073034
0.070746
0.068511
0.0664
0.064018
0.061849
0.059082
0.094674
0.089459
0.084043
0.079587
0.076213
0.073428
0.071043
0.068729
0.066562
0.064147
0.061963
0.059196
0.094218
0.089586
0.084417
0.080041
0.076648
0.073791
0.071324
0.068942
0.066725
0.064282
0.062083
0.059319
0.093792
0.089657
0.084719
0.08043
0.077034
0.074122
0.071589
0.069149
0.066888
0.064419
0.062207
0.05945
0.093396
0.089684
0.084961
0.080761
0.077376
0.074424
0.071837
0.069348
0.067048
0.064559
0.062335
0.059587
0.093027
0.089675
0.08515
0.081042
0.077676
0.074698
0.072069
0.069539
0.067206
0.0647
0.062466
0.059729
0.092684
0.089638
0.085295
0.081279
0.077939
0.074946
0.072284
0.069721
0.06736
0.06484
0.062599
0.059876
0.092365
0.089578
0.085403
0.081476
0.078169
0.07517
0.072482
0.069894
0.067511
0.064981
0.062732
0.060026
0.092068
0.089501
0.085479
0.08164
0.078368
0.07537
0.072666
0.070058
0.067656
0.06512
0.062867
0.060178
0.09179
0.08941
0.085527
0.081773
0.078541
0.075549
0.072835
0.070213
0.067797
0.065257
0.063001
0.060331
0.09153
0.089307
0.085552
0.08188
0.078688
0.075709
0.072989
0.070359
0.067932
0.065392
0.063134
0.060484
0.091286
0.089196
0.085558
0.081963
0.078813
0.07585
0.073131
0.070496
0.068062
0.065524
0.063266
0.060637
0.091056
0.089078
0.085546
0.082026
0.078918
0.075975
0.073259
0.070625
0.068186
0.065653
0.063396
0.06079
0.090839
0.088954
0.08552
0.082071
0.079006
0.076084
0.073376
0.070744
0.068304
0.065778
0.063524
0.060941
0.090632
0.088827
0.085481
0.0821
0.079076
0.076179
0.073481
0.070856
0.068417
0.0659
0.063649
0.06109
0.090436
0.088696
0.085431
0.082114
0.079132
0.07626
0.073575
0.070959
0.068523
0.066017
0.063771
0.061236
0.090247
0.088562
0.085373
0.082116
0.079175
0.07633
0.07366
0.071054
0.068624
0.06613
0.06389
0.061379
0.090066
0.088426
0.085306
0.082107
0.079206
0.076388
0.073734
0.071142
0.068719
0.066238
0.064005
0.06152
0.089891
0.088288
0.085232
0.082088
0.079226
0.076436
0.0738
0.071222
0.068808
0.066342
0.064116
0.061656
0.089722
0.088149
0.085151
0.08206
0.079235
0.076474
0.073857
0.071295
0.068891
0.066441
0.064224
0.061789
0.089556
0.088009
0.085065
0.082024
0.079236
0.076503
0.073906
0.071361
0.068968
0.066535
0.064327
0.061918
0.089395
0.087867
0.084975
0.081981
0.079228
0.076524
0.073947
0.07142
0.06904
0.066624
0.064426
0.062043
0.089236
0.087724
0.084879
0.081931
0.079212
0.076537
0.073981
0.071473
0.069106
0.066709
0.064521
0.062163
0.08908
0.08758
0.08478
0.081875
0.07919
0.076542
0.074008
0.071519
0.069167
0.066788
0.064611
0.062278
0.088925
0.087435
0.084677
0.081813
0.07916
0.076541
0.074028
0.07156
0.069222
0.066863
0.064697
0.062389
0.088771
0.087289
0.08457
0.081746
0.079124
0.076533
0.074043
0.071595
0.069272
0.066932
0.064778
0.062496
0.088619
0.087142
0.08446
0.081674
0.079083
0.076519
0.074051
0.071624
0.069317
0.066997
0.064854
0.062597
0.088466
0.086993
0.084347
0.081598
0.079036
0.076499
0.074053
0.071647
0.069356
0.067057
0.064927
0.062694
0.088313
0.086843
0.084231
0.081517