/*--------------------------------*- C++ -*----------------------------------*\
  =========                 |
  \\      /  F ield         | OpenFOAM: The Open Source CFD Toolbox
   \\    /   O peration     | Website:  https://openfoam.org
    \\  /    A nd           | Version:  6.0
     \\/     M anipulation  |
\*---------------------------------------------------------------------------*/
FoamFile
{
    version     2.0;
    format      ascii;
    class       volScalarField;
    location    "12";
    object      p;
}
// * * * * * * * * * * * * * * * * * * * * * * * * * * * * * * * * * * * * * //

dimensions      [0 2 -2 0 0 0 0];

internalField   nonuniform List<scalar> 
62000
(
0.0234234
0.0234549
0.0234858
0.0235171
0.0235482
0.0235803
0.0236127
0.0236465
0.0236812
0.0237178
0.0237558
0.0237961
0.0238384
0.0238833
0.0239306
0.0239806
0.0240331
0.0240882
0.0241457
0.0242053
0.0242668
0.0243293
0.0243927
0.0244556
0.024517
0.0245732
0.0246224
0.0246608
0.0246868
0.0246961
0.0246867
0.0246537
0.024594
0.0245026
0.0243744
0.0242085
0.0240063
0.0237723
0.0235149
0.0232458
0.0229793
0.0227294
0.0225067
0.0223137
0.0221403
0.0219626
0.0217443
0.0214527
0.0210687
0.0206164
0.0201479
0.0197469
0.0194512
0.0192117
0.0189011
0.0182849
0.0172959
0.0154829
0.0139179
0.0142473
0.0234887
0.0235119
0.0235362
0.0235623
0.0235895
0.0236186
0.023649
0.0236814
0.0237153
0.0237515
0.0237894
0.0238298
0.0238722
0.0239172
0.0239645
0.0240143
0.0240666
0.0241212
0.024178
0.0242369
0.0242975
0.0243592
0.0244219
0.0244844
0.024546
0.0246034
0.0246543
0.0246957
0.0247254
0.0247403
0.0247374
0.0247133
0.0246646
0.0245863
0.0244749
0.0243289
0.02415
0.0239433
0.0237184
0.0234879
0.0232673
0.023072
0.0229141
0.0227974
0.0227127
0.0226345
0.0225228
0.022338
0.0220524
0.0216858
0.0212926
0.020977
0.0208088
0.0207643
0.0207215
0.0203915
0.0196753
0.0178954
0.0166874
0.0159398
0.0235867
0.0235977
0.0236112
0.0236278
0.0236467
0.023669
0.0236939
0.0237221
0.023753
0.0237874
0.0238245
0.0238648
0.0239079
0.0239541
0.024003
0.0240548
0.0241092
0.0241662
0.0242255
0.0242868
0.0243499
0.0244142
0.0244793
0.0245442
0.0246081
0.0246674
0.0247197
0.0247622
0.0247926
0.0248076
0.0248042
0.0247793
0.0247286
0.0246477
0.0245311
0.0243768
0.0241855
0.0239624
0.0237166
0.0234607
0.023209
0.0229763
0.0227742
0.0226055
0.022459
0.0223042
0.0220922
0.0217685
0.0212846
0.0206393
0.0198712
0.0190921
0.0184089
0.0178563
0.0173896
0.0167775
0.016006
0.0144383
0.0135962
0.0124898
0.0237107
0.0237188
0.0237287
0.0237413
0.023756
0.0237737
0.0237941
0.0238179
0.0238448
0.0238754
0.0239093
0.0239471
0.0239883
0.0240331
0.0240813
0.0241329
0.0241877
0.0242454
0.0243059
0.0243687
0.0244337
0.0245002
0.0245679
0.0246357
0.0247025
0.0247645
0.0248193
0.024864
0.0248965
0.0249138
0.0249134
0.0248924
0.0248473
0.0247714
0.0246595
0.0245079
0.0243182
0.0240968
0.0238543
0.0236039
0.0233611
0.0231425
0.0229622
0.0228262
0.0227258
0.0226309
0.0224876
0.0222286
0.0217825
0.0211181
0.0202405
0.0192438
0.0182434
0.0173115
0.0164677
0.0155503
0.0146397
0.0131995
0.0124251
0.0116767
0.0238523
0.0238661
0.0238798
0.0238947
0.0239102
0.0239275
0.0239463
0.0239678
0.0239916
0.0240188
0.024049
0.024083
0.0241205
0.024162
0.0242071
0.0242561
0.0243087
0.0243647
0.0244241
0.0244864
0.0245517
0.024619
0.0246884
0.0247586
0.0248283
0.0248934
0.0249514
0.0249994
0.0250353
0.0250565
0.0250612
0.0250476
0.0250114
0.0249464
0.0248441
0.0247015
0.024521
0.0243113
0.0240851
0.0238576
0.023647
0.0234739
0.0233581
0.0233134
0.0233395
0.0234142
0.0234871
0.0234868
0.0233253
0.0229414
0.0222979
0.0214484
0.0204804
0.0194585
0.0184208
0.0172376
0.0160472
0.0143817
0.013214
0.012115
0.0239822
0.0240024
0.0240219
0.0240418
0.0240615
0.024082
0.024103
0.0241257
0.0241499
0.0241767
0.0242059
0.0242386
0.0242745
0.0243143
0.0243579
0.0244055
0.0244571
0.0245124
0.0245715
0.0246339
0.0246997
0.0247682
0.0248392
0.0249118
0.0249841
0.0250521
0.0251128
0.025163
0.0252003
0.0252223
0.0252278
0.0252151
0.0251802
0.0251138
0.0250071
0.0248549
0.0246606
0.0244344
0.02419
0.0239439
0.0237161
0.0235307
0.0234139
0.0233883
0.0234654
0.0236355
0.0238601
0.0240735
0.024183
0.0241076
0.0237729
0.023188
0.022395
0.0214255
0.020299
0.0188879
0.0173603
0.0152959
0.0135569
0.0115975
0.0241303
0.0241513
0.0241722
0.0241938
0.0242153
0.0242379
0.024261
0.0242858
0.0243119
0.0243405
0.0243713
0.0244052
0.0244421
0.0244827
0.024527
0.0245753
0.0246275
0.0246838
0.0247439
0.0248078
0.0248752
0.0249456
0.025019
0.025094
0.0251688
0.025239
0.0253011
0.0253512
0.0253866
0.0254044
0.0254033
0.0253814
0.0253332
0.025249
0.0251155
0.0249267
0.0246848
0.0244
0.0240854
0.0237565
0.023433
0.0231405
0.0229094
0.0227698
0.0227445
0.0228388
0.0230303
0.0232682
0.0234669
0.0235406
0.0233929
0.0229993
0.0223598
0.0214676
0.0203127
0.0187576
0.0169951
0.0146552
0.0125073
0.00992323
0.0242836
0.0243
0.024318
0.024338
0.0243592
0.0243824
0.0244072
0.0244343
0.0244634
0.0244953
0.0245298
0.0245677
0.0246088
0.0246537
0.0247024
0.0247551
0.0248118
0.0248725
0.024937
0.025005
0.0250764
0.0251506
0.0252274
0.0253054
0.0253828
0.0254548
0.0255172
0.0255657
0.0255968
0.025607
0.0255942
0.0255561
0.0254864
0.0253715
0.0251977
0.0249553
0.0246452
0.0242759
0.0238583
0.0234049
0.0229329
0.022467
0.0220387
0.0216828
0.0214312
0.0213023
0.0212918
0.0213675
0.0214606
0.0214935
0.0213642
0.0210315
0.020467
0.019636
0.0185007
0.0169153
0.015098
0.0127353
0.0104611
0.0077671
0.0244871
0.024494
0.024504
0.0245172
0.0245332
0.0245528
0.0245755
0.0246021
0.024632
0.0246661
0.0247039
0.0247459
0.0247918
0.0248422
0.0248966
0.0249553
0.0250181
0.0250849
0.0251555
0.0252294
0.0253065
0.0253859
0.0254673
0.0255492
0.0256296
0.0257035
0.0257664
0.0258132
0.02584
0.0258425
0.025818
0.025763
0.0256698
0.0255247
0.0253095
0.0250137
0.0246358
0.0241817
0.0236592
0.0230766
0.0224472
0.0217925
0.0211426
0.020534
0.0200036
0.0195806
0.019276
0.0190775
0.0189368
0.0187931
0.0185511
0.0181682
0.0176024
0.0168041
0.0157177
0.0141932
0.0124743
0.0103004
0.00811903
0.00568756
0.0247029
0.0247001
0.0247021
0.0247089
0.0247201
0.0247364
0.0247574
0.0247837
0.0248148
0.0248513
0.0248929
0.0249398
0.0249918
0.025049
0.0251111
0.025178
0.0252493
0.0253248
0.0254039
0.025486
0.0255707
0.0256571
0.0257445
0.0258315
0.0259159
0.0259928
0.0260572
0.0261039
0.0261285
0.0261263
0.0260937
0.0260265
0.0259167
0.0257479
0.0255025
0.0251669
0.0247382
0.0242196
0.0236154
0.0229296
0.0221704
0.021355
0.0205102
0.0196709
0.0188759
0.0181607
0.0175482
0.0170433
0.0166176
0.0162307
0.015801
0.0152947
0.0146684
0.0138707
0.0128356
0.0114136
0.00986697
0.00797713
0.00597997
0.00395102
0.0249834
0.0249716
0.0249654
0.0249649
0.0249699
0.0249812
0.0249986
0.0250228
0.0250533
0.0250907
0.0251344
0.0251849
0.0252415
0.0253043
0.0253728
0.0254468
0.0255258
0.0256093
0.0256967
0.0257871
0.0258799
0.0259739
0.0260683
0.0261614
0.0262511
0.0263324
0.0264002
0.0264493
0.0264753
0.026473
0.0264383
0.0263668
0.0262492
0.0260706
0.0258104
0.0254554
0.0250009
0.0244476
0.0237967
0.0230479
0.0222044
0.0212782
0.0202919
0.0192765
0.0182698
0.0173094
0.016426
0.0156371
0.0149318
0.0142889
0.0136429
0.0129744
0.0122459
0.0114118
0.0104037
0.00907346
0.00769555
0.0060799
0.00425355
0.00259787
0.0253075
0.0252904
0.0252795
0.0252748
0.0252762
0.0252847
0.0252998
0.0253224
0.0253522
0.0253898
0.0254349
0.0254876
0.0255479
0.0256153
0.0256897
0.0257703
0.0258569
0.0259484
0.0260443
0.0261433
0.0262446
0.0263469
0.026449
0.0265492
0.0266453
0.0267327
0.026806
0.0268603
0.0268915
0.0268942
0.026864
0.0267962
0.0266825
0.0265058
0.026248
0.0258942
0.0254391
0.0248817
0.0242203
0.0234508
0.0225716
0.0215899
0.0205228
0.0193964
0.0182449
0.0171051
0.0160109
0.0149881
0.0140388
0.013158
0.0122956
0.011448
0.0105873
0.00967945
0.00865649
0.00737318
0.0061079
0.00468927
0.0029599
0.00157199
0.025733
0.0257125
0.0256975
0.0256887
0.0256859
0.0256903
0.0257017
0.0257211
0.0257483
0.0257841
0.0258281
0.0258809
0.0259418
0.0260112
0.0260882
0.0261727
0.0262639
0.0263611
0.0264632
0.0265692
0.0266779
0.0267878
0.0268976
0.0270053
0.0271088
0.0272035
0.0272843
0.0273464
0.0273863
0.0273984
0.0273786
0.0273219
0.0272199
0.027058
0.026816
0.0264807
0.026046
0.0255095
0.0248673
0.024112
0.0232381
0.0222477
0.0211527
0.0199736
0.0187394
0.0174838
0.0162404
0.0150394
0.0138913
0.0128036
0.0117389
0.0107084
0.00969441
0.00867612
0.00758938
0.00629131
0.0050607
0.00373838
0.00201596
0.000772652
0.0262069
0.0261864
0.0261716
0.0261628
0.02616
0.0261643
0.0261754
0.0261945
0.0262213
0.0262568
0.0263009
0.0263542
0.0264164
0.0264876
0.0265674
0.0266553
0.0267509
0.0268531
0.0269611
0.0270734
0.027189
0.0273062
0.0274234
0.0275387
0.02765
0.027753
0.0278426
0.0279146
0.0279657
0.0279907
0.0279854
0.0279452
0.0278628
0.0277223
0.0275068
0.0272021
0.0268024
0.0263044
0.0257024
0.0249866
0.0241477
0.0231835
0.0221009
0.0209143
0.0196469
0.0183277
0.0169877
0.0156577
0.0143533
0.0130903
0.0118407
0.0106286
0.00944595
0.00828613
0.00708899
0.00571476
0.00443962
0.00311487
0.00131637
0.000111708
0.0267882
0.0267685
0.0267539
0.0267451
0.0267419
0.0267455
0.0267559
0.0267742
0.0268004
0.0268355
0.0268792
0.0269322
0.0269944
0.0270659
0.0271464
0.0272356
0.027333
0.027438
0.0275494
0.0276661
0.0277868
0.02791
0.0280339
0.0281563
0.0282755
0.0283871
0.0284863
0.0285693
0.0286334
0.0286734
0.0286855
0.0286654
0.0286055
0.028493
0.0283091
0.028042
0.0276856
0.0272359
0.0266859
0.0260236
0.0252369
0.0243197
0.0232741
0.0221089
0.0208413
0.0194945
0.0180955
0.0166737
0.0152463
0.0138343
0.0124162
0.0110263
0.00966462
0.00833744
0.00699012
0.00548644
0.00410065
0.00269415
0.000757417
-0.000488495
0.0274367
0.0274206
0.0274094
0.0274036
0.0274031
0.0274089
0.0274211
0.0274406
0.0274675
0.0275029
0.0275469
0.0276001
0.0276627
0.0277348
0.0278163
0.027907
0.0280065
0.0281141
0.0282288
0.0283494
0.0284748
0.0286033
0.0287333
0.0288625
0.0289892
0.0291094
0.0292184
0.0293131
0.0293908
0.029447
0.0294776
0.029479
0.0294447
0.0293606
0.0292115
0.0289846
0.0286745
0.0282767
0.0277832
0.0271803
0.0264534
0.0255931
0.0245971
0.0234692
0.0222203
0.0208679
0.019434
0.0179449
0.0164176
0.0148755
0.0133009
0.0117364
0.0101881
0.0086752
0.00714782
0.00547445
0.00392784
0.00238101
0.000264174
-0.00107512
0.0282065
0.0281937
0.0281848
0.0281807
0.0281811
0.0281874
0.0281996
0.0282189
0.0282453
0.0282802
0.0283234
0.0283758
0.0284374
0.0285088
0.0285896
0.02868
0.0287796
0.028888
0.0290041
0.0291271
0.0292558
0.0293886
0.0295237
0.0296591
0.0297928
0.0299213
0.0300402
0.0301464
0.0302379
0.0303102
0.0303598
0.030383
0.0303732
0.0303192
0.0302039
0.0300168
0.0297521
0.0294051
0.0289667
0.028422
0.0277542
0.0269513
0.0260071
0.0249206
0.0236971
0.0223485
0.0208913
0.0193483
0.0177346
0.0160742
0.0143513
0.0126149
0.0108754
0.00916329
0.00743462
0.00556346
0.00382337
0.00209959
-0.000219886
-0.00168361
0.0290201
0.0290126
0.0290091
0.0290101
0.0290155
0.0290263
0.0290425
0.0290651
0.0290944
0.0291314
0.0291765
0.0292304
0.0292935
0.029366
0.0294482
0.02954
0.0296414
0.0297516
0.0298702
0.029996
0.0301281
0.030265
0.030405
0.030546
0.0306864
0.0308228
0.030951
0.0310685
0.0311733
0.0312614
0.0313291
0.0313733
0.0313883
0.0313612
0.0312785
0.0311285
0.030906
0.0306058
0.0302181
0.029727
0.0291137
0.0283637
0.0274677
0.0264201
0.0252215
0.0238779
0.022401
0.0208092
0.0191151
0.0173422
0.0154752
0.0135677
0.0116339
0.00971468
0.00777158
0.00568535
0.0037315
0.00180868
-0.000723838
-0.00232741
0.0299358
0.0299327
0.029933
0.0299377
0.0299464
0.0299603
0.0299795
0.0300051
0.0300372
0.0300768
0.0301241
0.03018
0.0302446
0.0303185
0.0304016
0.0304944
0.0305965
0.030708
0.030828
0.0309559
0.0310907
0.0312311
0.0313755
0.0315218
0.0316684
0.0318121
0.0319493
0.0320776
0.0321951
0.0322981
0.0323832
0.0324471
0.0324838
0.0324833
0.0324296
0.0323133
0.0321285
0.0318694
0.0315259
0.0310808
0.0305139
0.0298085
0.0289524
0.0279363
0.026756
0.0254127
0.0239131
0.0222716
0.0204978
0.018614
0.0166042
0.0145261
0.012396
0.0102641
0.0080985
0.00578747
0.00361051
0.00147921
-0.0012673
-0.00301652
0.0309031
0.0309061
0.0309127
0.0309234
0.0309381
0.0309576
0.030982
0.0310123
0.0310486
0.0310919
0.0311427
0.0312017
0.0312694
0.031346
0.031432
0.0315274
0.0316325
0.0317467
0.0318698
0.0320007
0.032139
0.0322833
0.0324322
0.0325838
0.0327364
0.0328872
0.0330329
0.0331714
0.0333009
0.0334179
0.0335188
0.0336009
0.0336589
0.0336807
0.0336537
0.0335669
0.0334149
0.0331913
0.0328852
0.0324786
0.0319498
0.0312802
0.0304549
0.0294613
0.0282912
0.026941
0.0254128
0.0237173
0.021861
0.0198647
0.0177111
0.0154611
0.0131329
0.0107857
0.00839361
0.00585327
0.00344882
0.00110493
-0.00185301
-0.00374855
0.0319825
0.0319902
0.0320007
0.032015
0.0320326
0.0320549
0.0320819
0.0321147
0.0321533
0.0321991
0.0322521
0.0323134
0.0323829
0.0324616
0.0325493
0.0326467
0.0327534
0.0328698
0.0329952
0.033129
0.0332706
0.0334188
0.0335722
0.033729
0.0338876
0.0340453
0.0341992
0.0343474
0.0344882
0.0346181
0.0347341
0.034833
0.0349089
0.0349526
0.0349485
0.0348876
0.0347637
0.0345698
0.0342943
0.0339182
0.0334185
0.0327749
0.0319704
0.0309892
0.0298192
0.028453
0.0268883
0.0251324
0.0231888
0.0210766
0.018777
0.0163536
0.0138251
0.0112598
0.00863875
0.0058674
0.00323585
0.000680327
-0.00248361
-0.00452332
0.033089
0.033103
0.0331202
0.0331411
0.0331656
0.0331944
0.0332276
0.0332661
0.0333102
0.033361
0.0334189
0.0334846
0.0335587
0.0336416
0.0337338
0.0338353
0.0339464
0.0340669
0.0341966
0.0343347
0.0344806
0.0346336
0.034792
0.0349543
0.0351191
0.0352836
0.0354454
0.0356029
0.0357544
0.0358968
0.0360265
0.0361408
0.0362345
0.036296
0.036313
0.0362745
0.0361746
0.0360055
0.0357549
0.0354029
0.0349251
0.0342995
0.0335071
0.0325292
0.0313505
0.0299596
0.0283505
0.0265272
0.0244903
0.0222576
0.0198083
0.0172082
0.0144774
0.0116925
0.00884119
0.0058382
0.00297988
0.000213505
-0.00315191
-0.005334
0.0342879
0.0343065
0.0343282
0.0343535
0.0343823
0.0344156
0.0344534
0.0344968
0.0345458
0.0346016
0.0346642
0.0347348
0.0348132
0.0349005
0.0349965
0.0351019
0.0352166
0.035341
0.0354745
0.0356167
0.0357671
0.0359249
0.0360885
0.0362566
0.0364277
0.0365991
0.0367689
0.0369355
0.0370974
0.0372514
0.0373945
0.0375233
0.0376321
0.0377117
0.0377469
0.0377283
0.037649
0.0375005
0.0372696
0.0369355
0.0364726
0.0358573
0.0350686
0.0340853
0.0328889
0.0314645
0.0298029
0.0279047
0.0257684
0.0234099
0.0208073
0.0180274
0.0150908
0.0120831
0.00899969
0.00576475
0.00268156
-0.000293341
-0.00385551
-0.00617754
0.0355274
0.0355523
0.0355806
0.0356127
0.0356482
0.0356882
0.0357325
0.0357819
0.0358369
0.0358983
0.0359666
0.0360426
0.0361268
0.0362195
0.0363213
0.0364322
0.0365527
0.0366827
0.0368218
0.0369696
0.0371257
0.0372892
0.0374587
0.0376331
0.0378108
0.0379893
0.0381671
0.0383428
0.0385149
0.0386805
0.0388362
0.0389788
0.0391032
0.0391977
0.0392503
0.0392494
0.0391882
0.0390572
0.0388425
0.0385221
0.038069
0.0374584
0.0366671
0.0356716
0.0344503
0.0329854
0.031264
0.0292843
0.027042
0.0245523
0.0217913
0.018827
0.0156812
0.0124482
0.00913074
0.00566269
0.00235436
-0.00082905
-0.00458545
-0.0070473
0.036874
0.0369035
0.0369357
0.0369715
0.0370103
0.0370535
0.0371009
0.0371538
0.0372122
0.0372775
0.0373496
0.0374297
0.0375178
0.0376149
0.0377207
0.0378362
0.0379611
0.038096
0.03824
0.0383932
0.0385548
0.0387243
0.0389001
0.0390811
0.0392658
0.0394518
0.0396379
0.0398228
0.0400052
0.0401823
0.0403506
0.0405069
0.0406449
0.0407557
0.0408238
0.0408394
0.0407944
0.0406785
0.0404768
0.0401662
0.0397185
0.0391073
0.0383076
0.0372935
0.0360406
0.0345281
0.0327401
0.0306719
0.0283178
0.025691
0.0227678
0.0196141
0.0162536
0.0127906
0.00923595
0.00553325
0.00200015
-0.00139106
-0.00533933
-0.00794021
0.0382403
0.038276
0.038315
0.0383576
0.0384034
0.0384536
0.0385078
0.0385673
0.038632
0.0387033
0.0387816
0.0388676
0.038962
0.0390651
0.0391775
0.0392994
0.039431
0.0395724
0.0397232
0.039883
0.0400513
0.0402276
0.0404104
0.0405986
0.0407908
0.0409847
0.0411793
0.0413738
0.0415667
0.0417555
0.0419364
0.0421062
0.0422593
0.042384
0.042468
0.0424992
0.0424695
0.0423672
0.0421767
0.0418738
0.0414288
0.0408137
0.0400017
0.0389645
0.0376752
0.0361094
0.0342493
0.0320865
0.0296146
0.0268447
0.0237538
0.020405
0.0168252
0.0131281
0.0093325
0.00539208
0.00163178
-0.00196923
-0.00610929
-0.00885142
0.0396954
0.0397355
0.0397787
0.0398256
0.0398759
0.0399306
0.0399898
0.0400544
0.0401247
0.0402018
0.0402857
0.0403777
0.0404776
0.0405866
0.0407045
0.0408321
0.0409692
0.0411165
0.0412733
0.0414395
0.0416144
0.0417977
0.0419877
0.0421836
0.0423838
0.042586
0.0427898
0.0429942
0.0431982
0.0433989
0.043593
0.0437767
0.0439436
0.0440847
0.0441837
0.0442305
0.0442154
0.0441259
0.043945
0.0436478
0.0432029
0.0425808
0.0417528
0.0406882
0.0393575
0.0377336
0.0357957
0.0335323
0.030937
0.0280178
0.024755
0.0212048
0.0173986
0.0134611
0.00941986
0.00523845
0.0012494
-0.00256254
-0.00689403
-0.00977799
0.0411885
0.0412346
0.0412842
0.0413377
0.0413946
0.0414559
0.0415215
0.0415924
0.0416688
0.0417518
0.041842
0.04194
0.0420465
0.042162
0.0422868
0.0424213
0.0425658
0.0427204
0.0428847
0.0430584
0.043241
0.0434322
0.0436302
0.0438343
0.044043
0.0442542
0.0444676
0.0446827
0.0448981
0.0451117
0.0453193
0.0455176
0.0457005
0.0458562
0.0459717
0.0460341
0.0460337
0.0459568
0.0457854
0.0454932
0.0450474
0.0444168
0.0435707
0.0424761
0.0411006
0.0394144
0.037394
0.035025
0.0323003
0.029226
0.0257847
0.0220266
0.0179887
0.0138054
0.00951309
0.00508593
0.000863848
-0.00316267
-0.00768718
-0.0107168
0.0427892
0.0428394
0.0428925
0.042949
0.0430086
0.0430725
0.0431408
0.0432147
0.0432942
0.0433809
0.0434747
0.0435771
0.0436877
0.0438081
0.0439377
0.0440778
0.0442278
0.0443887
0.0445595
0.0447404
0.0449305
0.0451297
0.0453361
0.045549
0.0457669
0.0459878
0.0462116
0.0464379
0.0466657
0.0468926
0.047115
0.0473288
0.0475272
0.0477006
0.0478325
0.0479114
0.0479262
0.0478619
0.0476997
0.0474118
0.0469639
0.046323
0.0454566
0.0443291
0.0429055
0.0411529
0.0390455
0.0365654
0.0337058
0.0304695
0.026845
0.0228712
0.0185938
0.0141576
0.00960843
0.00493103
0.000473135
-0.0037703
-0.00848851
-0.0116651
0.0444047
0.0444608
0.0445201
0.0445831
0.0446492
0.0447197
0.0447943
0.0448743
0.0449597
0.0450522
0.0451519
0.0452601
0.0453771
0.0455038
0.0456404
0.0457875
0.0459451
0.0461138
0.0462927
0.0464819
0.0466805
0.0468885
0.0471039
0.0473264
0.0475541
0.0477854
0.0480202
0.0482587
0.0484997
0.0487412
0.048979
0.0492095
0.0494261
0.0496163
0.0497667
0.0498629
0.0498937
0.0498429
0.0496905
0.0494075
0.0489576
0.0483061
0.0474184
0.0462564
0.0447823
0.0429603
0.0407618
0.0381657
0.0351654
0.031761
0.0279456
0.0237501
0.0192272
0.0145317
0.00971923
0.00478559
8.64919e-05
-0.00437857
-0.00929299
-0.0126215
0.0461062
0.046166
0.0462288
0.0462953
0.0463651
0.0464395
0.0465183
0.0466029
0.0466933
0.0467911
0.0468961
0.0470101
0.0471325
0.0472653
0.0474075
0.0475609
0.0477247
0.0479003
0.0480864
0.0482834
0.0484904
0.0487074
0.0489323
0.0491647
0.049403
0.0496454
0.0498922
0.0501437
0.0503991
0.0506561
0.0509112
0.0511597
0.0513943
0.0516052
0.0517743
0.0518893
0.0519373
0.0519009
0.0517588
0.0514807
0.0510285
0.0503657
0.0494553
0.048257
0.0467296
0.0448348
0.042541
0.039824
0.036677
0.0330972
0.0290851
0.0246592
0.0198831
0.0149211
0.0098391
0.00464423
-0.000299485
-0.00498907
-0.0101009
-0.0135827
0.0478388
0.0479042
0.047973
0.0480455
0.0481214
0.0482017
0.0482863
0.0483765
0.0484724
0.0485756
0.0486864
0.0488061
0.048935
0.0490742
0.0492237
0.0493844
0.0495563
0.0497401
0.0499349
0.0501409
0.0503573
0.0505841
0.0508191
0.0510623
0.0513119
0.0515663
0.0518261
0.0520917
0.0523626
0.0526368
0.05291
0.0531781
0.0534342
0.0536647
0.0538554
0.0539906
0.0540573
0.0540367
0.0539064
0.0536344
0.0531808
0.0525069
0.0515736
0.0503378
0.0487556
0.0467852
0.0443926
0.0415497
0.0382503
0.0344882
0.0302712
0.0256087
0.0205735
0.0153385
0.00998033
0.00451773
-0.000676556
-0.00559589
-0.0109081
-0.0145488
0.0496764
0.0497453
0.0498165
0.0498912
0.0499687
0.0500508
0.050137
0.0502294
0.0503275
0.0504337
0.0505475
0.0506711
0.0508038
0.0509479
0.0511022
0.0512688
0.0514467
0.0516376
0.05184
0.0520546
0.0522801
0.0525169
0.0527626
0.0530172
0.053279
0.0535464
0.0538202
0.0541012
0.054389
0.0546816
0.0549751
0.0552645
0.055542
0.0557967
0.0560095
0.0561668
0.0562539
0.0562506
0.0561331
0.0558679
0.0554131
0.0547278
0.0537709
0.0524962
0.0508569
0.0488078
0.0463123
0.0433387
0.0398808
0.0359287
0.0314994
0.0265911
0.0212895
0.0157747
0.0101345
0.00439937
-0.00104908
-0.00620113
-0.011715
-0.015516
0.0515154
0.0515896
0.0516669
0.0517478
0.0518315
0.0519198
0.0520121
0.0521101
0.0522139
0.0523254
0.0524449
0.0525741
0.0527131
0.0528634
0.0530248
0.0531988
0.0533849
0.0535843
0.0537958
0.05402
0.0542557
0.0545034
0.0547606
0.0550275
0.0553024
0.0555839
0.055873
0.0561708
0.0564769
0.0567897
0.0571046
0.0574173
0.0577198
0.0579979
0.0582363
0.0584177
0.0585272
0.0585432
0.0584402
0.0581835
0.0577287
0.0570328
0.0560523
0.0547381
0.0530401
0.05091
0.048308
0.0451992
0.0415764
0.0374276
0.0327771
0.0276171
0.0220434
0.0162427
0.0103138
0.00429965
-0.00140934
-0.00679955
-0.0125185
-0.0164857
0.053435
0.0535126
0.053593
0.053677
0.053764
0.0538557
0.0539518
0.0540541
0.0541623
0.0542788
0.0544031
0.0545376
0.0546816
0.0548375
0.0550044
0.0551845
0.055377
0.0555838
0.0558033
0.0560366
0.0562823
0.0565412
0.0568105
0.0570907
0.0573799
0.0576768
0.0579827
0.0582987
0.058625
0.0589596
0.0592984
0.0596361
0.0599641
0.0602709
0.0605356
0.0607434
0.0608772
0.060914
0.0608271
0.0605796
0.0601254
0.059419
0.0584143
0.0570594
0.0553006
0.0530866
0.0503742
0.0471253
0.0433315
0.0389782
0.0340981
0.0286774
0.0228244
0.0167317
0.0105088
0.00421124
-0.00176185
-0.00739321
-0.0133188
-0.0174536
0.0553914
0.0554749
0.0555611
0.0556504
0.0557423
0.0558382
0.0559379
0.0560433
0.0561545
0.0562737
0.0564013
0.0565393
0.0566878
0.0568487
0.0570218
0.0572086
0.057409
0.0576244
0.0578535
0.0580973
0.0583546
0.058626
0.058909
0.0592038
0.0595089
0.059823
0.0601474
0.0604837
0.060832
0.0611909
0.0615553
0.0619206
0.0622784
0.0626129
0.0629077
0.0631437
0.0633039
0.0633637
0.0632947
0.0630586
0.0626063
0.0618904
0.0608619
0.0594658
0.0576449
0.0553446
0.0525184
0.049125
0.045154
0.0405896
0.0354711
0.029784
0.0236459
0.0172552
0.0107321
0.00414467
-0.00209914
-0.00797736
-0.0141134
-0.018422
0.0575028
0.0575834
0.0576626
0.0577435
0.0578253
0.057912
0.0580028
0.0581015
0.0582071
0.0583233
0.0584488
0.0585874
0.0587372
0.0589017
0.0590788
0.0592719
0.0594792
0.0597036
0.0599426
0.0601981
0.0604682
0.0607539
0.0610525
0.0613643
0.0616875
0.0620209
0.0623662
0.062725
0.063098
0.0634832
0.0638764
0.0642716
0.0646593
0.0650271
0.0653524
0.0656189
0.0658075
0.065892
0.0658425
0.0656187
0.0651693
0.0644439
0.0633911
0.0619526
0.0600676
0.0576782
0.0547344
0.0511916
0.0470375
0.0422543
0.0368892
0.0309265
0.024496
0.0178015
0.0109736
0.00409216
-0.00242584
-0.00855402
-0.0149021
-0.0193861
0.0592755
0.0593702
0.0594706
0.0595756
0.0596845
0.0597973
0.0599144
0.0600367
0.0601649
0.0603009
0.0604453
0.0606005
0.0607666
0.060946
0.0611383
0.0613457
0.0615678
0.0618069
0.0620612
0.0623323
0.0626189
0.0629221
0.0632391
0.0635705
0.0639144
0.0642699
0.0646386
0.0650227
0.065423
0.0658375
0.0662612
0.0666888
0.0671108
0.0675107
0.0678703
0.0681693
0.0683884
0.0685
0.0684723
0.068263
0.0678179
0.0670843
0.0660076
0.0645264
0.062576
0.0600952
0.0570303
0.0533338
0.0489909
0.0439829
0.0383627
0.0321188
0.02539
0.0183858
0.0112466
0.00406444
-0.00273466
-0.009119
-0.0156834
-0.0203492
0.0614679
0.0615558
0.0616429
0.0617325
0.061824
0.0619215
0.0620243
0.0621363
0.0622564
0.0623884
0.0625311
0.0626881
0.0628576
0.0630433
0.063243
0.0634604
0.0636936
0.063946
0.0642151
0.0645028
0.0648074
0.0651303
0.0654683
0.0658221
0.0661897
0.06657
0.0669651
0.0673772
0.0678075
0.0682536
0.0687111
0.0691733
0.06963
0.0700678
0.0704625
0.0707964
0.0710482
0.0711886
0.0711842
0.0709905
0.0705507
0.0698088
0.0687079
0.0671826
0.0651648
0.0625895
0.0593998
0.0555448
0.0510076
0.0457675
0.0398848
0.0333507
0.0263158
0.0189958
0.0115409
0.00405385
-0.00302998
-0.00967392
-0.0164564
-0.0213059
0.063245
0.0633494
0.0634603
0.0635768
0.063698
0.0638242
0.0639555
0.0640933
0.0642381
0.0643922
0.0645564
0.064733
0.0649222
0.0651265
0.0653457
0.0655819
0.0658349
0.0661071
0.0663968
0.0667057
0.0670325
0.0673784
0.0677407
0.0681199
0.0685141
0.0689222
0.0693464
0.0697895
0.0702524
0.0707333
0.0712265
0.0717263
0.0722225
0.0726972
0.073131
0.0735019
0.0737887
0.0739603
0.0739816
0.0738057
0.0733726
0.0726237
0.0714987
0.0699289
0.0678424
0.0651704
0.0618524
0.0578348
0.0530978
0.0476201
0.0414675
0.0346376
0.0272906
0.0196482
0.0118706
0.0040712
-0.00330479
-0.0102151
-0.0172204
-0.0222603
0.0654569
0.065554
0.0656514
0.0657526
0.0658569
0.0659688
0.0660874
0.0662168
0.066356
0.0665089
0.0666743
0.0668561
0.0670524
0.0672669
0.0674976
0.0677481
0.0680169
0.0683073
0.0686169
0.0689477
0.0692982
0.0696694
0.0700586
0.070466
0.0708897
0.0713285
0.0717847
0.0722616
0.0727602
0.0732783
0.0738109
0.0743509
0.0748871
0.0754048
0.0758785
0.0762889
0.0766129
0.0768176
0.076866
0.0767088
0.076283
0.0755269
0.0743772
0.0727616
0.070604
0.0678321
0.0643819
0.0601968
0.0552548
0.0495328
0.0431034
0.0359689
0.0283013
0.0203301
0.0122248
0.00410878
-0.00356337
-0.010744
-0.0179743
-0.0232072
0.0672031
0.0673165
0.0674391
0.0675703
0.0677088
0.0678549
0.0680085
0.0681706
0.068342
0.0685245
0.0687191
0.0689277
0.069151
0.069391
0.0696478
0.0699233
0.070218
0.0705339
0.0708699
0.0712274
0.0716057
0.0720057
0.072425
0.0728636
0.0733196
0.0737919
0.0742831
0.0747967
0.0753339
0.0758926
0.0764667
0.0770499
0.0776309
0.0781907
0.0787085
0.0791608
0.0795244
0.0797645
0.0798421
0.0797055
0.0792885
0.0785261
0.0773519
0.0756897
0.0734595
0.0705852
0.0669994
0.0626426
0.0574904
0.051519
0.0448059
0.0373615
0.0293667
0.0210592
0.0126181
0.0041772
-0.00379925
-0.0112577
-0.0187183
-0.0241517
0.0693736
0.0694858
0.069604
0.0697302
0.0698632
0.070006
0.0701575
0.0703207
0.0704948
0.0706832
0.0708852
0.0711042
0.0713391
0.0715934
0.0718656
0.0721593
0.0724738
0.072812
0.0731722
0.0735562
0.073963
0.0743934
0.0748448
0.0753171
0.0758081
0.0763167
0.0768457
0.0773989
0.0779777
0.0785794
0.0791986
0.0798275
0.080454
0.0810624
0.0816253
0.0821221
0.0825274
0.0828045
0.0829125
0.0827973
0.0823891
0.08162
0.0804203
0.0787098
0.0764045
0.0734244
0.0696987
0.0651651
0.0597975
0.0535703
0.0465673
0.0388039
0.0304732
0.0218221
0.0130395
0.00426899
-0.00401628
-0.0117571
-0.019451
-0.0250885
0.0714568
0.0715748
0.0716995
0.0718332
0.0719737
0.0721241
0.0722837
0.0724556
0.0726397
0.0728393
0.073055
0.0732892
0.0735422
0.0738161
0.0741107
0.0744281
0.0747684
0.0751335
0.0755224
0.0759363
0.0763746
0.076838
0.077324
0.0778324
0.0783609
0.0789083
0.0794776
0.080073
0.0806959
0.0813439
0.0820103
0.0826881
0.0833652
0.0840212
0.0846336
0.0851771
0.0856263
0.0859426
0.086083
0.0859907
0.0855926
0.0848175
0.0835921
0.0818324
0.0794501
0.0763614
0.0724921
0.0677773
0.062189
0.0557008
0.0484013
0.0403137
0.0316399
0.0226369
0.0135036
0.00439428
-0.00420864
-0.01224
-0.0201737
-0.0260234
0.0736025
0.0737266
0.0738588
0.0740007
0.0741509
0.0743124
0.0744841
0.074669
0.0748666
0.0750806
0.0753106
0.0755602
0.0758288
0.0761199
0.0764325
0.07677
0.0771322
0.0775219
0.0779377
0.0783808
0.0788509
0.0793481
0.0798703
0.0804166
0.0809847
0.081573
0.0821849
0.0828249
0.0834948
0.0841912
0.0849082
0.0856373
0.0863655
0.0870753
0.0877378
0.0883305
0.0888257
0.0891826
0.0893564
0.0892874
0.0888993
0.0881174
0.086865
0.0850541
0.082592
0.0793908
0.0753732
0.0704718
0.0646573
0.0579018
0.0502992
0.0418779
0.0328516
0.023489
0.0139988
0.00454555
-0.00438004
-0.0127072
-0.0208847
-0.0269514
0.0757616
0.0758923
0.0760322
0.0761832
0.0763437
0.076516
0.0767
0.0768979
0.0771103
0.07734
0.0775884
0.0778572
0.0781478
0.0784618
0.0787998
0.0791634
0.079554
0.0799728
0.0804195
0.080895
0.0813991
0.0819321
0.082492
0.0830778
0.0836871
0.0843181
0.0849745
0.0856614
0.0863802
0.0871277
0.0878969
0.0886799
0.0894635
0.0902259
0.0909427
0.0915866
0.0921299
0.0925296
0.0927385
0.0926944
0.0923174
0.0915291
0.0902494
0.0883861
0.085842
0.0825252
0.0783553
0.0732622
0.0672161
0.0601874
0.0522749
0.0435142
0.034128
0.0243965
0.0145394
0.00473209
-0.00452559
-0.0131574
-0.0215863
-0.0278787
0.078054
0.0781928
0.0783413
0.0785009
0.0786709
0.0788537
0.079049
0.0792594
0.0794848
0.0797287
0.0799913
0.0802761
0.0805828
0.0809146
0.0812714
0.0816561
0.0820696
0.082514
0.0829888
0.0834948
0.0840321
0.0846008
0.0851988
0.0858248
0.0864763
0.0871513
0.0878537
0.0885889
0.0893584
0.0901584
0.0909823
0.0918208
0.0926599
0.093481
0.0942524
0.0949501
0.0955433
0.0959871
0.0962319
0.0962131
0.0958468
0.0950512
0.0937428
0.0918247
0.0891953
0.0857588
0.0814311
0.0761407
0.0698565
0.0625487
0.0543191
0.0452084
0.0354526
0.025344
0.0151136
0.00494675
-0.00464865
-0.0135909
-0.0222764
-0.0287999
0.080366
0.0805165
0.0806776
0.0808507
0.0810345
0.0812313
0.0814409
0.0816658
0.0819069
0.0821671
0.0824482
0.082752
0.0830804
0.0834349
0.0838168
0.0842274
0.0846689
0.0851423
0.0856481
0.0861864
0.0867582
0.0873631
0.0879996
0.0886662
0.0893604
0.09008
0.0908291
0.0916137
0.0924347
0.0932889
0.0941684
0.0950646
0.0959635
0.0968412
0.0976714
0.0984245
0.0990697
0.0995595
0.0998423
0.0998502
0.0994957
0.0986933
0.0973556
0.0953814
0.0926645
0.0891044
0.0846148
0.0791211
0.0725933
0.0649993
0.0564452
0.0469782
0.0368448
0.0263493
0.0157349
0.0051979
-0.00474525
-0.0140074
-0.0229581
-0.0297218
0.0828083
0.0829716
0.0831464
0.0833336
0.0835325
0.0837451
0.0839713
0.0842133
0.0844715
0.0847491
0.0850472
0.0853687
0.0857146
0.0860876
0.0864885
0.08692
0.0873839
0.0878824
0.0884155
0.0889838
0.0895881
0.0902282
0.0909026
0.0916094
0.0923463
0.0931107
0.0939069
0.0947412
0.0956149
0.096524
0.0974611
0.0984161
0.099374
0.100314
0.101203
0.102014
0.102712
0.10325
0.103571
0.103606
0.103263
0.102453
0.101085
0.0990518
0.0962436
0.0925557
0.0878979
0.0821951
0.0754158
0.0675302
0.0586426
0.048808
0.0382867
0.0273962
0.0163914