/*--------------------------------*- C++ -*----------------------------------*\
  =========                 |
  \\      /  F ield         | OpenFOAM: The Open Source CFD Toolbox
   \\    /   O peration     | Website:  https://openfoam.org
    \\  /    A nd           | Version:  6.0
     \\/     M anipulation  |
\*---------------------------------------------------------------------------*/
FoamFile
{
    version     2.0;
    format      ascii;
    class       surfaceScalarField;
    location    "12";
    object      phi;
}
// * * * * * * * * * * * * * * * * * * * * * * * * * * * * * * * * * * * * * //

dimensions      [0 3 -1 0 0 0 0];

internalField   nonuniform List<scalar> 
123526
(
-2.70291e-05
2.3325e-05
2.74271e-05
-2.66006e-05
2.52213e-05
-2.61389e-05
2.7272e-05
-2.56391e-05
2.94896e-05
-2.51002e-05
3.18877e-05
-2.45167e-05
3.44811e-05
-2.38872e-05
3.72857e-05
-2.32058e-05
4.03187e-05
-2.24692e-05
4.35979e-05
-2.16715e-05
4.71444e-05
-2.08093e-05
5.09804e-05
-1.98767e-05
5.5129e-05
-1.8868e-05
5.96155e-05
-1.77749e-05
6.44651e-05
-1.65886e-05
6.97088e-05
-1.53061e-05
7.53829e-05
-1.39179e-05
8.15189e-05
-1.24104e-05
8.81474e-05
-1.07745e-05
9.53178e-05
-9.00599e-06
0.000103075
-7.08372e-06
0.000111454
-4.99831e-06
0.000120513
-2.74109e-06
0.000130312
-2.85236e-07
0.000140888
2.37528e-06
0.000152329
5.26015e-06
0.000164683
8.39254e-06
0.000178024
1.17835e-05
0.000192435
1.54669e-05
0.000207977
1.9452e-05
0.000224755
2.37765e-05
0.000242832
2.8456e-05
0.000262318
3.3526e-05
0.000283288
3.90135e-05
0.000305842
4.49434e-05
0.000330072
5.13576e-05
0.000356052
5.82783e-05
0.000383883
6.57447e-05
0.000413618
7.37961e-05
0.000445308
8.24623e-05
0.000478991
9.1781e-05
0.000514653
0.000101793
0.000552235
0.000112533
0.000591628
0.000124032
0.000632628
0.000136321
0.000674927
0.000149425
0.000718075
0.000163354
0.000761452
0.000178102
0.000804216
0.000193632
0.000845254
0.000209882
0.000883108
0.000226745
0.000915895
0.000244075
0.000941173
0.000261685
0.00095581
0.00027931
0.000955863
0.000296623
0.000936416
0.000313153
0.000891589
0.000328369
0.000814083
0.000341653
0.000696018
0.00035143
0.000526535
0.000287648
0.000345681
-2.6541e-05
2.29372e-05
2.69322e-05
-2.61194e-05
2.48021e-05
-2.56649e-05
2.68189e-05
-2.51731e-05
2.89998e-05
-2.46427e-05
3.13584e-05
-2.40688e-05
3.39089e-05
-2.34495e-05
3.66673e-05
-2.27797e-05
3.96502e-05
-2.20556e-05
4.28744e-05
-2.12719e-05
4.63615e-05
-2.04249e-05
5.0134e-05
-1.95091e-05
5.42138e-05
-1.85188e-05
5.86258e-05
-1.74457e-05
6.33923e-05
-1.62813e-05
6.85453e-05
-1.50225e-05
7.41243e-05
-1.36601e-05
8.01575e-05
-1.21805e-05
8.66682e-05
-1.05752e-05
9.37137e-05
-8.83947e-06
0.00010134
-6.95314e-06
0.000109569
-4.90639e-06
0.000118467
-2.69133e-06
0.000128099
-2.80796e-07
0.000138478
2.33013e-06
0.00014972
5.16158e-06
0.000161853
8.23476e-06
0.000174953
1.15617e-05
0.000189109
1.51737e-05
0.000204366
1.90815e-05
0.000220848
2.33203e-05
0.000238594
2.79067e-05
0.000257733
3.2875e-05
0.000278322
3.82514e-05
0.000300469
4.40609e-05
0.000324267
5.03449e-05
0.000349771
5.71254e-05
0.000377105
6.44415e-05
0.000406304
7.23325e-05
0.00043742
8.08292e-05
0.000470498
8.99703e-05
0.000505515
9.97978e-05
0.000542411
0.000110346
0.000581083
0.000121648
0.00062133
0.000133733
0.000662844
0.000146623
0.000705189
0.000160322
0.000747754
0.000174821
0.000789719
0.000190077
0.000829995
0.000206029
0.000867155
0.000222571
0.000899346
0.000239566
0.000924165
0.00025684
0.000938532
0.000274139
0.000938562
0.00029115
0.000919424
0.000307412
0.00087535
0.000322376
0.000799151
0.000335517
0.000682912
0.000343407
0.000518695
0.000289703
0.000341453
-2.61809e-05
2.25568e-05
2.65648e-05
-2.57668e-05
2.43904e-05
-2.532e-05
2.63734e-05
-2.4836e-05
2.85179e-05
-2.43137e-05
3.0837e-05
-2.37482e-05
3.33452e-05
-2.31377e-05
3.60576e-05
-2.24772e-05
3.8991e-05
-2.17631e-05
4.2161e-05
-2.09901e-05
4.55896e-05
-2.01549e-05
4.92995e-05
-1.92521e-05
5.33116e-05
-1.8276e-05
5.76506e-05
-1.72189e-05
6.23357e-05
-1.60724e-05
6.73997e-05
-1.48335e-05
7.28859e-05
-1.34933e-05
7.88185e-05
-1.20387e-05
8.5214e-05
-1.04612e-05
9.21375e-05
-8.75629e-06
9.96351e-05
-6.90425e-06
0.000107718
-4.89549e-06
0.000116458
-2.72242e-06
0.000125927
-3.58418e-07
0.000136115
2.20109e-06
0.000147162
4.97611e-06
0.000159079
7.98729e-06
0.000171943
1.12468e-05
0.00018585
1.47852e-05
0.000200829
1.86135e-05
0.000217021
2.27659e-05
0.000234442
2.72594e-05
0.000253241
3.21271e-05
0.000273457
3.73958e-05
0.000295204
4.30901e-05
0.000318576
4.92518e-05
0.000343612
5.59035e-05
0.000370456
6.30844e-05
0.000399126
7.08341e-05
0.000429673
7.91835e-05
0.000462151
8.81711e-05
0.00049653
9.78385e-05
0.000532745
0.000108219
0.000570704
0.000119343
0.000610207
0.000131236
0.000650951
0.000143917
0.000692509
0.000157385
0.000734285
0.000171627
0.000775476
0.000186603
0.000815017
0.000202253
0.000851504
0.000218481
0.000883116
0.000235158
0.000907484
0.000252123
0.000921577
0.000269126
0.000921564
0.00028586
0.000902708
0.000301875
0.000859347
0.000316577
0.000784467
0.000329426
0.000670084
0.000338158
0.000509996
0.000288309
0.000339539
-2.58586e-05
2.21837e-05
2.62343e-05
-2.54527e-05
2.39865e-05
-2.50144e-05
2.59362e-05
-2.45394e-05
2.80446e-05
-2.40264e-05
3.03249e-05
-2.34706e-05
3.27909e-05
-2.28703e-05
3.54579e-05
-2.22205e-05
3.83424e-05
-2.15176e-05
4.14586e-05
-2.07567e-05
4.48293e-05
-1.99342e-05
4.84775e-05
-1.90452e-05
5.2423e-05
-1.8084e-05
5.66899e-05
-1.70432e-05
6.1295e-05
-1.59145e-05
6.62717e-05
-1.46952e-05
7.16667e-05
-1.33765e-05
7.75007e-05
-1.19457e-05
8.37834e-05
-1.03946e-05
9.05874e-05
-8.71882e-06
9.79598e-05
-6.89912e-06
0.0001059
-4.92613e-06
0.000114486
-2.79257e-06
0.000123795
-4.72327e-07
0.000133795
2.03902e-06
0.000144652
4.76135e-06
0.000156357
7.71503e-06
0.000168991
1.09123e-05
0.000182654
1.43832e-05
0.000197359
1.8139e-05
0.000213266
2.22132e-05
0.000230369
2.66225e-05
0.000248832
3.14003e-05
0.000268682
3.6572e-05
0.000290036
4.21631e-05
0.000312988
4.82149e-05
0.000337563
5.47502e-05
0.000363923
6.18081e-05
0.00039207
6.94276e-05
0.000422056
7.7639e-05
0.000453942
8.648e-05
0.000487692
9.59905e-05
0.000523238
0.000106201
0.000560497
0.000117141
0.000599271
0.000128832
0.000639264
0.000141289
0.000680057
0.000154512
0.000721068
0.000168485
0.00076151
0.000183173
0.000800336
0.00019852
0.000836165
0.00021444
0.000867203
0.000230812
0.000891116
0.00024748
0.000904922
0.000264203
0.000904858
0.00028067
0.000886272
0.000296443
0.00084361
0.000310896
0.000770059
0.000323434
0.000657596
0.000332499
0.000500996
0.000286211
0.0003347
-2.54883e-05
2.18184e-05
2.58575e-05
-2.50905e-05
2.35913e-05
-2.46614e-05
2.55085e-05
-2.41964e-05
2.75819e-05
-2.36945e-05
2.9824e-05
-2.31507e-05
3.22489e-05
-2.25633e-05
3.48714e-05
-2.19272e-05
3.77076e-05
-2.12389e-05
4.07711e-05
-2.04935e-05
4.40849e-05
-1.96875e-05
4.76723e-05
-1.88159e-05
5.15521e-05
-1.78732e-05
5.57481e-05
-1.6852e-05
6.02744e-05
-1.57444e-05
6.51651e-05
-1.45476e-05
7.04703e-05
-1.32531e-05
7.62074e-05
-1.18484e-05
8.2379e-05
-1.03254e-05
8.90657e-05
-8.68001e-06
9.63148e-05
-6.89325e-06
0.000104114
-4.95604e-06
0.000112549
-2.86123e-06
0.000121702
-5.83226e-07
0.000131518
1.88235e-06
0.000142188
4.55517e-06
0.000153685
7.45529e-06
0.000166092
1.05949e-05
0.000179516
1.40035e-05
0.000193952
1.76922e-05
0.000209578
2.16942e-05
0.000226367
2.6026e-05
0.000244502
3.07199e-05
0.00026399
3.58019e-05
0.000284957
4.12963e-05
0.000307497
4.72442e-05
0.000331618
5.3668e-05
0.000357502
6.06062e-05
0.000385134
6.80972e-05
0.000414567
7.61701e-05
0.000445871
8.48613e-05
0.000479003
9.4209e-05
0.000513892
0.000104242
0.000550465
0.000114987
0.000588527
0.000126465
0.000627787
0.000138689
0.000667835
0.000151657
0.0007081
0.000165358
0.00074781
0.000179759
0.000785934
0.00019481
0.000821115
0.000210431
0.000851582
0.000226509
0.000875038
0.000242892
0.000888549
0.000259342
0.000888415
0.000275549
0.000870081
0.000291078
0.000828091
0.0003053
0.000755849
0.00031755
0.00064536
0.000326462
0.000492103
0.000283813
0.000328827
-2.50608e-05
2.14607e-05
2.54212e-05
-2.46722e-05
2.32047e-05
-2.42531e-05
2.50905e-05
-2.37993e-05
2.71298e-05
-2.33094e-05
2.9335e-05
-2.27789e-05
3.17198e-05
-2.22058e-05
3.42989e-05
-2.15852e-05
3.70882e-05
-2.09136e-05
4.01e-05
-2.01861e-05
4.33581e-05
-1.93992e-05
4.68858e-05
-1.85478e-05
5.07011e-05
-1.76266e-05
5.48274e-05
-1.66282e-05
5.9276e-05
-1.55447e-05
6.40822e-05
-1.43733e-05
6.92991e-05
-1.31057e-05
7.49406e-05
-1.17295e-05
8.1003e-05
-1.02368e-05
8.7574e-05
-8.6235e-06
9.47018e-05
-6.87109e-06
0.000102363
-4.97056e-06
0.000110649
-2.91495e-06
0.000119647
-6.79034e-07
0.000129283
1.74149e-06
0.000139769
4.36601e-06
0.000151062
7.2142e-06
0.000163245
1.0298e-05
0.000176433
1.36465e-05
0.000190604
1.72705e-05
0.000205955
2.12026e-05
0.000222436
2.54589e-05
0.000240247
3.00718e-05
0.00025938
3.50658e-05
0.000279966
4.04654e-05
0.0003021
4.63105e-05
0.000325775
5.26232e-05
0.000351191
5.94411e-05
0.000378318
6.68016e-05
0.000407208
7.47331e-05
0.000437942
8.32704e-05
0.000470468
9.24505e-05
0.000504715
0.000102301
0.000540618
0.000112846
0.000577986
0.000124107
0.000616531
0.000136096
0.000655852
0.000148813
0.000695389
0.000162248
0.000734383
0.000176372
0.000771819
0.00019114
0.000806359
0.000206477
0.000836256
0.000222275
0.000859249
0.000238385
0.000872455
0.00025457
0.00087225
0.000270521
0.000854163
0.000285806
0.000812843
0.000299808
0.000741891
0.0003118
0.000633419
0.000320595
0.000483368
0.000281069
0.000323431
-2.46177e-05
2.11106e-05
2.49711e-05
-2.42373e-05
2.28266e-05
-2.38275e-05
2.4682e-05
-2.33841e-05
2.66882e-05
-2.29058e-05
2.88577e-05
-2.2388e-05
3.12036e-05
-2.18289e-05
3.37405e-05
-2.12236e-05
3.64841e-05
-2.05686e-05
3.94456e-05
-1.98588e-05
4.26493e-05
-1.9091e-05
4.61187e-05
-1.82601e-05
4.98708e-05
-1.73607e-05
5.39288e-05
-1.63855e-05
5.83013e-05
-1.53266e-05
6.30244e-05
-1.41814e-05
6.81542e-05
-1.29415e-05
7.37018e-05
-1.15946e-05
7.96565e-05
-1.0133e-05
8.61136e-05
-8.5527e-06
9.31219e-05
-6.83527e-06
0.000100647
-4.97192e-06
0.000108786
-2.95573e-06
0.000117632
-7.61912e-07
0.00012709
1.61383e-06
0.000137394
4.19052e-06
0.000148486
6.9874e-06
0.000160449
1.00162e-05
0.000173405
1.33052e-05
0.000187316
1.68652e-05
0.000202396
2.07281e-05
0.000218574
2.49098e-05
0.000236066
2.94414e-05
0.00025485
3.4348e-05
0.000275063
3.96526e-05
0.000296798
4.53948e-05
0.000320035
5.15956e-05
0.000344992
5.82921e-05
0.000371624
6.55206e-05
0.000399981
7.33088e-05
0.000430155
8.16904e-05
0.000462087
9.07013e-05
0.000495705
0.000100368
0.000530952
0.000110715
0.00056764
0.000121762
0.000605484
0.000133521
0.000644092
0.000145995
0.000682914
0.000159176
0.000721202
0.000173038
0.000757956
0.000187539
0.000791857
0.000202609
0.000821185
0.000218141
0.000843714
0.000233989
0.000856614
0.000249918
0.000856324
0.000265618
0.000838474
0.000280658
0.000797808
0.000294439
0.000728117
0.000306198
0.000621665
0.000315001
0.000474569
0.00027744
0.000318578
-2.42105e-05
2.07661e-05
2.45571e-05
-2.3837e-05
2.24547e-05
-2.34345e-05
2.42804e-05
-2.29993e-05
2.62545e-05
-2.253e-05
2.8389e-05
-2.20223e-05
3.06972e-05
-2.14744e-05
3.31931e-05
-2.08815e-05
3.58922e-05
-2.02402e-05
3.88047e-05
-1.95457e-05
4.19554e-05
-1.87946e-05
4.53679e-05
-1.79819e-05
4.90583e-05
-1.71021e-05
5.30495e-05
-1.61482e-05
5.73474e-05
-1.51122e-05
6.19889e-05
-1.39915e-05
6.70335e-05
-1.27777e-05
7.24888e-05
-1.14588e-05
7.83378e-05
-1.00272e-05
8.4683e-05
-8.47865e-06
9.15737e-05
-6.79524e-06
9.89645e-05
-4.96815e-06
0.00010696
-2.99062e-06
0.000115656
-8.38142e-07
0.000124938
1.4935e-06
0.000135064
4.02301e-06
0.000145957
6.76918e-06
0.000157704
9.74342e-06
0.000170432
1.29736e-05
0.000184087
1.647e-05
0.0001989
2.0264e-05
0.00021478
2.43709e-05
0.00023196
2.88219e-05
0.000250402
3.36405e-05
0.000270247
3.88503e-05
0.000291591
4.44891e-05
0.000314398
5.05779e-05
0.000338905
5.71526e-05
0.00036505
6.42489e-05
0.000392887
7.18936e-05
0.000422512
8.01198e-05
0.000453863
8.89625e-05
0.000486865
9.84478e-05
0.000521469
0.0001086
0.000557491
0.000119438
0.00059465
0.000130977
0.000632559
0.000143219
0.000670678
0.00015616
0.000708271
0.000169774
0.000744351
0.000184025
0.000777619
0.000198843
0.000806379
0.000214122
0.000828445
0.000229718
0.000841035
0.000245396
0.000840666
0.000260848
0.000823054
0.000275643
0.000783048
0.000289199
0.000714602
0.000300742
0.000610168
0.000309571
0.000465793
0.000273237
0.000313852
-2.3863e-05
2.04263e-05
2.42067e-05
-2.34937e-05
2.20879e-05
-2.30963e-05
2.38844e-05
-2.26668e-05
2.58269e-05
-2.22041e-05
2.79274e-05
-2.17038e-05
3.01986e-05
-2.11645e-05
3.26545e-05
-2.05811e-05
3.53102e-05
-1.99507e-05
3.8175e-05
-1.92682e-05
4.12738e-05
-1.85305e-05
4.46308e-05
-1.77325e-05
4.82611e-05
-1.68691e-05
5.21869e-05
-1.59331e-05
5.64119e-05
-1.4917e-05
6.09737e-05
-1.38177e-05
6.59348e-05
-1.26274e-05
7.12995e-05
-1.1334e-05
7.70448e-05
-9.93e-06
8.328e-05
-8.41116e-06
9.00552e-05
-6.75985e-06
9.73143e-05
-4.96731e-06
0.000105168
-3.02685e-06
0.000113717
-9.1435e-07
0.000122826
1.3744e-06
0.000132776
3.85778e-06
0.000143474
6.55413e-06
0.000155009
9.4746e-06
0.000167512
1.26465e-05
0.000180916
1.60798e-05
0.000195468
1.98053e-05
0.000211055
2.38382e-05
0.000227928
2.82082e-05
0.000246033
3.29397e-05
0.000265518
3.80546e-05
0.000286478
4.35906e-05
0.000308864
4.95678e-05
0.000332929
5.60214e-05
0.000358598
6.29864e-05
0.000385923
7.0489e-05
0.000415011
7.85619e-05
0.000445791
8.72394e-05
0.000478188
9.65474e-05
0.000512162
0.00010651
0.000547529
0.000117148
0.000584012
0.000128475
0.000621231
0.000140497
0.000658655
0.000153209
0.000695557
0.00016659
0.000730967
0.000180604
0.000763604
0.000195181
0.000791799
0.000210218
0.000813402
0.000225568
0.000825688
0.000241
0.000825235
0.000256205
0.000807855
0.000270755
0.000768498
0.000284083
0.000701274
0.000295417
0.000598831
0.000304213
0.000456987
0.000268403
0.000308982
-2.35786e-05
2.00896e-05
2.39174e-05
-2.32135e-05
2.17244e-05
-2.28202e-05
2.3492e-05
-2.23952e-05
2.54034e-05
-2.19373e-05
2.74701e-05
-2.14424e-05
2.9705e-05
-2.09088e-05
3.21216e-05
-2.03324e-05
3.47347e-05
-1.97097e-05
3.75526e-05
-1.90362e-05
4.06009e-05
-1.83086e-05
4.39036e-05
-1.75223e-05
4.7475e-05
-1.6672e-05
5.1337e-05
-1.57508e-05
5.54907e-05
-1.47512e-05
5.99745e-05
-1.36703e-05
6.48539e-05
-1.25002e-05
7.01302e-05
-1.12292e-05
7.57739e-05
-9.84979e-06
8.19015e-05
-8.35785e-06
8.85636e-05
-6.73604e-06
9.56935e-05
-4.97567e-06
0.000103408
-3.07019e-06
0.000111812
-9.95809e-07
0.000120752
1.25165e-06
0.00013053
3.69026e-06
0.000141036
6.33796e-06
0.000152363
9.20568e-06
0.000164645
1.23202e-05
0.000177802
1.56912e-05
0.000192098
1.9349e-05
0.000207398
2.33082e-05
0.00022397
2.75988e-05
0.000241745
3.22433e-05
0.000260876
3.72644e-05
0.000281459
4.26986e-05
0.000303431
4.85656e-05
0.000327064
5.48998e-05
0.000352265
6.17355e-05
0.000379089
6.90989e-05
0.000407649
7.70218e-05
0.00043787
8.55383e-05
0.000469674
9.46745e-05
0.000503028
0.000104454
0.000537752
0.000114899
0.000573571
0.000126025
0.000610111
0.000137836
0.00064685
0.000150331
0.000683071
0.00016349
0.000717818
0.000177276
0.00074983
0.000191622
0.000777465
0.000206423
0.000798612
0.000221532
0.000810594
0.000236719
0.000810067
0.000251677
0.000792925
0.000265982
0.000754227
0.00027908
0.000688213
0.00029021
0.000587741
0.000298898
0.000448343
0.000263458
0.000303909
-2.33388e-05
1.97569e-05
2.36745e-05
-2.29774e-05
2.1365e-05
-2.25881e-05
2.31038e-05
-2.21673e-05
2.49842e-05
-2.17139e-05
2.70176e-05
-2.1224e-05
2.92164e-05
-2.0696e-05
3.15942e-05
-2.01255e-05
3.41653e-05
-1.95095e-05
3.69372e-05
-1.88435e-05
3.99357e-05
-1.81244e-05
4.31852e-05
-1.73476e-05
4.66989e-05
-1.65083e-05
5.04984e-05
-1.55994e-05
5.45824e-05
-1.46137e-05
5.89898e-05
-1.35487e-05
6.37893e-05
-1.23964e-05
6.89789e-05
-1.11453e-05
7.45232e-05
-9.78816e-06
8.05454e-05
-8.32082e-06
8.70966e-05
-6.72629e-06
9.41e-05
-4.99599e-06
0.000101678
-3.12348e-06
0.000109941
-1.08538e-06
0.000118715
1.12244e-06
0.000128323
3.51777e-06
0.000138642
6.11819e-06
0.000149763
8.9344e-06
0.00016183
1.19927e-05
0.000174745
1.53026e-05
0.000188788
1.88938e-05
0.000203807
2.27809e-05
0.000220084
2.69925e-05
0.000237534
3.1552e-05
0.000256319
3.64807e-05
0.000276533
4.18148e-05
0.000298099
4.75737e-05
0.000321306
5.37911e-05
0.000346049
6.05007e-05
0.000372381
6.77283e-05
0.000400422
7.55055e-05
0.000430094
8.38663e-05
0.000461313
9.28365e-05
0.000494058
0.000102441
0.000528148
0.0001127
0.000563311
0.000123632
0.000599179
0.000135242
0.000635238
0.000147529
0.000670782
0.000160473
0.000704871
0.000174039
0.000736261
0.000188159
0.00076334
0.000202728
0.000784035
0.000217598
0.000795723
0.00023254
0.000795121
0.000247253
0.000778215
0.000261312
0.000740163
0.00027418
0.00067534
0.000285108
0.000576803
0.000293631
0.000439799
0.000258326
0.000298688
-2.31242e-05
1.94284e-05
2.34541e-05
-2.27679e-05
2.10098e-05
-2.23834e-05
2.272e-05
-2.19676e-05
2.45695e-05
-2.15192e-05
2.65697e-05
-2.10345e-05
2.87327e-05
-2.05117e-05
3.10719e-05
-1.99471e-05
3.36015e-05
-1.93375e-05
3.63279e-05
-1.86786e-05
3.92773e-05
-1.79675e-05
4.24743e-05
-1.71998e-05
4.59312e-05
-1.63704e-05
4.96693e-05
-1.5473e-05
5.36849e-05
-1.45002e-05
5.80175e-05
-1.34496e-05
6.27386e-05
-1.23135e-05
6.78435e-05
-1.10806e-05
7.32904e-05
-9.74393e-06
7.92095e-05
-8.29934e-06
8.56524e-05
-6.73024e-06
9.25319e-05
-5.02817e-06
9.99762e-05
-3.18691e-06
0.000108101
-1.18343e-06
0.000116712
9.86286e-07
0.000126155
3.33979e-06
0.000136289
5.89431e-06
0.00014721
8.66038e-06
0.000159064
1.16638e-05
0.000171742
1.4914e-05
0.000185539
1.84402e-05
0.000200282
2.22562e-05
0.000216268
2.63913e-05
0.000233401
3.08671e-05
0.000251845
3.57057e-05
0.000271696
4.09422e-05
0.000292864
4.65956e-05
0.000315654
5.26993e-05
0.000339947
5.92864e-05
0.000365795
6.63825e-05
0.000393328
7.40188e-05
0.000422459
8.22291e-05
0.000453105
9.10393e-05
0.000485251
0.000100474
0.000518716
0.000110556
0.000553233
0.000121301
0.000588439
0.000132717
0.000623828
0.000144802
0.000658705
0.000157538
0.000692144
0.000170889
0.000722922
0.000184786
0.000749454
0.000199125
0.000769707
0.000213756
0.000781106
0.000228454
0.000780441
0.000242919
0.000763778
0.000256733
0.00072638
0.000269369
0.000662738
0.000280099
0.00056611
0.000288425
0.000431512
0.000253407
0.000293401
-2.2913e-05
1.91057e-05
2.32394e-05
-2.25617e-05
2.06607e-05
-2.21827e-05
2.23424e-05
-2.17726e-05
2.41612e-05
-2.13303e-05
2.61284e-05
-2.0852e-05
2.82559e-05
-2.03362e-05
3.05568e-05
-1.97788e-05
3.30453e-05
-1.91768e-05
3.57265e-05
-1.8526e-05
3.86274e-05
-1.78236e-05
4.17726e-05
-1.70652e-05
4.51736e-05
-1.62463e-05
4.88512e-05
-1.53602e-05
5.27994e-05
-1.44002e-05
5.70584e-05
-1.33637e-05
6.17027e-05
-1.22435e-05
6.67243e-05
-1.10284e-05
7.20757e-05
-9.71147e-06
7.78936e-05
-8.28885e-06
8.42302e-05
-6.74426e-06
9.09883e-05
-5.06941e-06
9.83018e-05
-3.25825e-06
0.000106291
-1.28821e-06
0.000114742
8.4464e-07
0.000124023
3.15757e-06
0.000133977
5.66748e-06
0.000144701
8.38477e-06
0.000156348
1.13348e-05
0.000168793
1.45268e-05
0.000182347
1.79895e-05
0.000196819
2.17369e-05
0.000212522
2.57967e-05
0.000229343
3.01916e-05
0.000247452
3.49423e-05
0.000266947
4.00838e-05
0.000287723
4.5635e-05
0.000310104
5.16285e-05
0.000333954
5.80971e-05
0.000359327
6.50659e-05
0.00038636
7.25662e-05
0.000414959
8.06313e-05
0.00044504
8.92873e-05
0.000476595
9.8559e-05
0.000509444
0.000108469
0.000543323
0.000119033
0.000577874
0.00013026
0.000612598
0.000142149
0.000646814
0.000154681
0.000679608
0.00016782
0.00070978
0.000181496
0.000735772
0.000195605
0.000755588
0.000209998
0.000766709
0.00022445
0.000765984
0.000238666
0.00074956
0.000252234
0.000712805
0.00026464
0.000650322
0.000275171
0.000555563
0.000283289
0.000423364
0.000248499
0.000288117
-2.26954e-05
1.87885e-05
2.30143e-05
-2.23508e-05
2.03173e-05
-2.19785e-05
2.19709e-05
-2.15754e-05
2.37593e-05
-2.11402e-05
2.56938e-05
-2.06693e-05
2.77861e-05
-2.0161e-05
3.00491e-05
-1.96116e-05
3.24967e-05
-1.90179e-05
3.51333e-05
-1.83762e-05
3.79861e-05
-1.76833e-05
4.108e-05
-1.69354e-05
4.44257e-05
-1.61275e-05
4.80437e-05
-1.52537e-05
5.19255e-05
-1.4307e-05
5.61121e-05
-1.32851e-05
6.06807e-05
-1.21808e-05
6.56206e-05
-1.09833e-05
7.08783e-05
-9.68593e-06
7.6597e-05
-8.28485e-06
8.28294e-05
-6.76424e-06
8.94686e-05
-5.11594e-06
9.66539e-05
-3.33415e-06
0.00010451
-1.39668e-06
0.000112805
7.00217e-07
0.000121927
2.97359e-06
0.000131704
5.44003e-06
0.000142235
8.10982e-06
0.000153679
1.10078e-05
0.000165896
1.41433e-05
0.000179212
1.75443e-05
0.000193419
2.12245e-05
0.000208842
2.5212e-05
0.000225357
2.95278e-05
0.000243138
3.41934e-05
0.000262283
3.92429e-05
0.000282675
4.4695e-05
0.000304653
5.05818e-05
0.000328068
5.69357e-05
0.000352974
6.37817e-05
0.000379515
7.11506e-05
0.000407592
7.90754e-05
0.000437117
8.75823e-05
0.00046809
9.66961e-05
0.000500333
0.000106439
0.000533584
0.000116828
0.00056749
0.000127871
0.000601561
0.000139568
0.000635125
0.000151898
0.000667286
0.000164826
0.000696863
0.000178282
0.000722327
0.000192161
0.00074172
0.000206313
0.000752569
0.000220519
0.000751795
0.000234485
0.000735619
0.000247808
0.000699512
0.000259983
0.000638178
0.000270319
0.00054526
0.000278231
0.000415486
0.000243895
0.000282884
-2.24611e-05
1.8478e-05
2.27744e-05
-2.21232e-05
1.99811e-05
-2.17582e-05
2.16069e-05
-2.13628e-05
2.33654e-05
-2.09358e-05
2.52676e-05
-2.04735e-05
2.7325e-05
-1.99743e-05
2.95505e-05
-1.94343e-05
3.19577e-05
-1.88506e-05
3.45501e-05
-1.82191e-05
3.73555e-05
-1.75371e-05
4.03987e-05
-1.68005e-05
4.36898e-05
-1.60048e-05
4.72488e-05
-1.5144e-05
5.10652e-05
-1.42114e-05
5.51805e-05
-1.32048e-05
5.96746e-05
-1.21172e-05
6.45339e-05
-1.09379e-05
6.96995e-05
-9.66062e-06
7.53207e-05
-8.28144e-06
8.14506e-05
-6.78493e-06
8.7973e-05
-5.16316e-06
9.50326e-05
-3.41048e-06
0.000102758
-1.50517e-06
0.000110901
5.56386e-07
0.000119867
2.79095e-06
0.00012947
5.21487e-06
0.000139812
7.83826e-06
0.000151056
1.06856e-05
0.000163049
1.37659e-05
0.000176133
1.7107e-05
0.000190078
2.07224e-05
0.000205227
2.46389e-05
0.000221441
2.88785e-05
0.000238901
3.34615e-05
0.000257702
3.84218e-05
0.000277716
4.37779e-05
0.000299297
4.95615e-05
0.000322285
5.58044e-05
0.000346732
6.25315e-05
0.000372788
6.97732e-05
0.000400351
7.75622e-05
0.000429328
8.59245e-05
0.000459728
9.48848e-05
0.000491373
0.000104465
0.000524002
0.000114683
0.000557271
0.000125545
0.000590696
0.000137051
0.000623616
0.000149182
0.000655151
0.0001619
0.000684141
0.000175136
0.000709084
0.000188784
0.000728061
0.000202696
0.000738651
0.000216654
0.00073783
0.000230371
0.000721899
0.000243448
0.000686425
0.000255393
0.00062622
0.000265534
0.0005351
0.00027325
0.000407732
0.000239334
0.000277727
-2.22101e-05
1.81736e-05
2.25153e-05
-2.18798e-05
1.96515e-05
-2.15224e-05
2.125e-05
-2.11353e-05
2.29791e-05
-2.07167e-05
2.48494e-05
-2.02635e-05
2.68725e-05
-1.97735e-05
2.9061e-05
-1.92435e-05
3.14283e-05
-1.86702e-05
3.39771e-05
-1.80499e-05
3.67355e-05
-1.73797e-05
3.97287e-05
-1.66557e-05
4.29658e-05
-1.58733e-05
4.64667e-05
-1.50267e-05
5.02184e-05
-1.41092e-05
5.42634e-05
-1.31189e-05
5.86841e-05
-1.20487e-05
6.34643e-05
-1.08883e-05
6.85392e-05
-9.63145e-06
7.40645e-05
-8.27448e-06
8.0094e-05
-6.8023e-06
8.65017e-05
-5.20711e-06
9.34378e-05
-3.48348e-06
0.000101035
-1.61009e-06
0.000109028
4.16509e-07
0.000117841
2.61285e-06
0.000127274
4.99499e-06
0.000137431
7.57294e-06
0.000148479
1.03708e-05
0.000160252
1.33974e-05
0.000173107
1.66801e-05
0.000186796
2.0232e-05
0.000201676
2.40803e-05
0.000217595
2.82455e-05
0.000234737
3.27484e-05
0.0002532
3.76223e-05
0.000272843
4.28852e-05
0.000294035
4.85686e-05
0.000316603
5.47039e-05
0.000340597
6.13156e-05
0.000366178
6.84337e-05
0.000393234
7.60906e-05
0.000421673
8.43121e-05
0.000451508
9.31225e-05
0.000482565
0.000102544
0.000514584
0.000112593
0.000547227
0.000123277
0.000580017
0.000134595
0.000612306
0.000146527
0.000643227
0.000159036
0.000671643
0.000172051
0.000696079
0.000185468
0.000714654
0.000199139
0.000724991
0.000212849
0.000724135
0.000226316
0.000708455
0.00023915
0.000673619
0.000250867
0.000614532
0.000260814
0.000525183
0.000268346
0.000400231
0.000235061
0.00027266
-2.19399e-05
1.78762e-05
2.22405e-05
-2.16159e-05
1.93295e-05
-2.12659e-05
2.09013e-05
-2.08867e-05
2.26015e-05
-2.0477e-05
2.44406e-05
-2.00332e-05
2.643e-05
-1.95536e-05
2.85821e-05
-1.90344e-05
3.09101e-05
-1.84726e-05
3.34159e-05
-1.78643e-05
3.61281e-05
-1.72068e-05
3.90719e-05
-1.64961e-05
4.22558e-05
-1.5728e-05
4.56993e-05
-1.48964e-05
4.93874e-05
-1.39951e-05
5.3363e-05
-1.30218e-05
5.77113e-05
-1.19699e-05
6.24134e-05
-1.08293e-05
6.7399e-05
-9.59376e-06
7.28299e-05
-8.25971e-06
7.87603e-05
-6.8124e-06
8.50552e-05
-5.24417e-06
9.18701e-05
-3.54977e-06
9.93419e-05
-1.70829e-06
0.000107187
2.83581e-07
0.00011585
2.44209e-06
0.000125117
4.78307e-06
0.000135091
7.3164e-06
0.000145946
1.00657e-05
0.000157503
1.30398e-05
0.000170133
1.62655e-05
0.00018357
1.9756e-05
0.000198186
2.35371e-05
0.000213814
2.76304e-05
0.000230645
3.20554e-05
0.000248777
3.68451e-05
0.000268054
4.20175e-05
0.000288864
4.76035e-05
0.000311017
5.36341e-05
0.000334567
6.01333e-05
0.000359679
6.71309e-05
0.000386237
7.46589e-05
0.000414145
8.27426e-05
0.000443424
9.14061e-05
0.000473901
0.000100671
0.000505318
0.000110554
0.000537342
0.000121062
0.000569506
0.000132193
0.000601172
0.000143927
0.000631488
0.000156226
0.000659339
0.000169021
0.000683277
0.000182206
0.000701457
0.000195636
0.000711553
0.0002091
0.000710664
0.000222318
0.000695231
0.00023491
0.000661017
0.000246401
0.000603025
0.000256157
0.000515403
0.000263517
0.000392828
0.000230808
0.000267685
-2.16562e-05
1.75845e-05
2.19491e-05
-2.13395e-05
1.90137e-05
-2.0997e-05
2.05594e-05
-2.0626e-05
2.22314e-05
-2.02248e-05
2.40399e-05
-1.97902e-05
2.59963e-05
-1.93203e-05
2.81126e-05
-1.88116e-05
3.0402e-05
-1.82611e-05
3.28656e-05
-1.7665e-05
3.55323e-05
-1.70204e-05
3.84275e-05
-1.63236e-05
4.1559e-05
-1.557e-05
4.49459e-05
-1.4754e-05
4.85713e-05
-1.38693e-05
5.24786e-05
-1.29137e-05
5.67557e-05
-1.18807e-05
6.13808e-05
-1.07602e-05
6.62786e-05
-9.54632e-06
7.16167e-05
-8.23547e-06
7.74498e-05
-6.81326e-06
8.36338e-05
-5.27213e-06
9.03294e-05
-3.60703e-06
9.76777e-05
-1.79739e-06
0.000105378
1.59926e-07
0.000113894
2.28096e-06
0.000122996
4.58129e-06
0.000132791
7.0707e-06
0.000143457
9.77238e-06
0.000154802
1.2695e-05
0.000167211
1.5865e-05
0.0001804
1.9295e-05
0.000194756
2.30114e-05
0.0002101
2.70339e-05
0.000226624
3.1383e-05
0.000244429
3.60906e-05
0.000263347
4.11747e-05
0.00028378
4.66655e-05
0.000305527
5.25937e-05
0.00032864
5.8983e-05
0.00035329
6.58627e-05
0.000379358
7.32643e-05
0.000406745
8.12127e-05
0.000435478
8.97316e-05
0.000465384
9.88424e-05
0.00049621
0.000108561
0.000527628
0.000118894
0.000559178
0.000129839
0.000590233
0.000141375
0.000619959
0.000153466
0.000647258
0.00016604
0.000670712
0.000178995
0.000688511
0.000192184
0.000698374
0.000205402
0.00069746
0.000218374
0.000682281
0.000230726
0.00064869
0.000241994
0.000591783
0.000251562
0.000505863
0.00025876
0.000385656
0.000226801
0.000262801
-2.13591e-05
1.72991e-05
2.16468e-05
-2.10488e-05
1.87048e-05
-2.07135e-05
2.0225e-05
-2.03503e-05
2.18693e-05
-1.99577e-05
2.3648e-05
-1.95324e-05
2.5572e-05
-1.90726e-05
2.76533e-05
-1.85747e-05
2.9905e-05
-1.80356e-05
3.23271e-05
-1.74517e-05
3.49491e-05
-1.68202e-05
3.77966e-05
-1.61371e-05
4.08766e-05
-1.53984e-05
4.42079e-05
-1.45981e-05
4.77715e-05
-1.37302e-05
5.16116e-05
-1.27925e-05
5.58185e-05
-1.17787e-05
6.03679e-05
-1.06788e-05
6.51791e-05
-9.48705e-06
7.04258e-05
-8.19983e-06
7.6163e-05
-6.80304e-06
8.22378e-05
-5.28928e-06
8.88161e-05
-3.65358e-06
9.60428e-05
-1.87576e-06
0.0001036
4.71513e-08
0.000111972
2.13099e-06
0.000120913
4.39118e-06
0.000130532
6.83726e-06
0.000141012
9.49209e-06
0.000152148
1.23642e-05
0.000164339
1.54794e-05
0.000177285
1.88506e-05
0.000191385
2.25027e-05
0.000206448
2.64566e-05
0.000222672
3.07312e-05
0.000240155
3.53585e-05
0.000258721
4.0356e-05
0.000278783
4.57537e-05
0.00030013
5.15816e-05
0.000322812
5.7863e-05
0.000347009
6.46268e-05
0.000372594
7.19041e-05
0.000399467
7.97191e-05
0.000427662
8.80953e-05
0.000457007
9.70534e-05
0.000487251
0.000106609
0.000518071
0.000116768
0.000549015
0.000127528
0.00057947
0.000138868
0.000608614
0.00015075
0.000635371
0.000163104
0.000658349
0.000175829
0.000675775
0.00018878
0.000685413
0.000201754
0.000684477
0.000214482
0.000669545
0.000226597
0.000636562
0.000237646
0.000580717
0.000247028
0.000496454
0.000254076
0.00037856
0.000222785
0.000258004
-2.10539e-05
1.70191e-05
2.13343e-05
-2.07505e-05
1.84018e-05
-2.04221e-05
1.9897e-05
-2.00666e-05
2.15143e-05
-1.96819e-05
2.32637e-05
-1.92654e-05
2.51561e-05
-1.88148e-05
2.72031e-05
-1.83272e-05
2.94177e-05
-1.7799e-05
3.17993e-05
-1.72271e-05
3.43774e-05
-1.66084e-05
3.7178e-05
-1.59392e-05
4.02074e-05
-1.52152e-05
4.34841e-05
-1.44308e-05
4.6987e-05
-1.35798e-05
5.0761e-05
-1.26602e-05
5.48988e-05
-1.16656e-05
5.93738e-05
-1.05863e-05
6.41e-05
-9.41662e-06
6.92567e-05
-8.15297e-06
7.48997e-05
-6.78159e-06
8.08672e-05
-5.29511e-06
8.733e-05
-3.68873e-06
9.44373e-05
-1.94257e-06
0.000101855
-5.38205e-08
0.000110084
1.99316e-06
0.000118866
4.21362e-06
0.000128312
6.61695e-06
0.000138609
9.22554e-06
0.00014954
1.20479e-05
0.000161517
1.51093e-05
0.000174224
1.84223e-05
0.000188073
2.20121e-05
0.000202859
2.58979e-05
0.000218787
3.00996e-05
0.000235955
3.4648e-05
0.000254173
3.95605e-05
0.000273871
4.48666e-05
0.000294824
5.05957e-05
0.000317084
5.67709e-05
0.000340835
6.34206e-05
0.000365945
7.05751e-05
0.000392314
7.82584e-05
0.00041998
8.64933e-05
0.000448774
9.53002e-05
0.000478447
0.000104694
0.000508681
0.00011468
0.000539033
0.000125256
0.0005689
0.0001364
0.000597476
0.000148075
0.000623705
0.00016021
0.000646222
0.000172707
0.000663288
0.00018542
0.000672709
0.000198153
0.000671758
0.000210641
0.000657078
0.000222523
0.000624703
0.000233357
0.000569909
0.000242558
0.000487279
0.000249462
0.00037168
0.000218981
0.000253292
-2.07404e-05
1.67451e-05
2.10171e-05
-2.04423e-05
1.81052e-05
-2.01203e-05