/*--------------------------------*- C++ -*----------------------------------*\
  =========                 |
  \\      /  F ield         | OpenFOAM: The Open Source CFD Toolbox
   \\    /   O peration     | Website:  https://openfoam.org
    \\  /    A nd           | Version:  6.0
     \\/     M anipulation  |
\*---------------------------------------------------------------------------*/
FoamFile
{
    version     2.0;
    format      ascii;
    class       surfaceScalarField;
    location    "6";
    object      phi;
}
// * * * * * * * * * * * * * * * * * * * * * * * * * * * * * * * * * * * * * //

dimensions      [0 3 -1 0 0 0 0];

internalField   nonuniform List<scalar> 
68636
(
3.74947e-05
0.00309834
-4.65025e-08
7.51496e-05
0.00306367
0.000112191
0.0029964
0.000148182
0.00289634
0.000182811
0.00276323
0.000215557
0.00259846
0.000245991
0.00240463
0.000273688
0.00218493
0.000298353
0.00194202
0.000319694
0.00167863
0.000337494
0.00139719
0.000351551
0.00110056
0.000361821
0.000791841
0.000367812
0.00047288
0.000144539
0.000365292
3.69216e-05
0.00306151
-6.58602e-08
7.40399e-05
0.00302659
0.000110649
0.0029599
0.000146298
0.00286082
0.000180621
0.0027291
0.000213057
0.0025662
0.000243171
0.00237474
0.00027055
0.00215777
0.000294917
0.0019179
0.000315992
0.00165777
0.000333571
0.00137986
0.000347441
0.00108695
0.000357702
0.000781895
0.000363056
0.000467939
0.000147207
0.000361104
3.63542e-05
0.00302523
-6.34299e-08
7.299e-05
0.00298997
0.000109221
0.00292372
0.000144548
0.00282551
0.000178551
0.00269517
0.00021065
0.00253412
0.000240421
0.00234503
0.00026747
0.00213073
0.000291532
0.00189387
0.000312338
0.00163696
0.000329692
0.00136251
0.000343371
0.00107325
0.000353459
0.000771777
0.000359114
0.000462216
0.000147369
0.00035867
3.58486e-05
0.00298946
-5.40466e-08
7.20499e-05
0.0029538
0.000107913
0.00288792
0.0001429
0.0027906
0.000176555
0.00266163
0.000208295
0.00250249
0.000237712
0.00231575
0.000264426
0.00210415
0.000288183
0.00187027
0.000308723
0.00161657
0.000325852
0.00134556
0.000339347
0.00105994
0.000349215
0.000762146
0.000355033
0.000456714
0.000147434
0.000355497
3.5389e-05
0.00295412
-4.28259e-08
7.11834e-05
0.00291801
0.000106678
0.00285246
0.000141309
0.00275597
0.000174598
0.00262838
0.000205969
0.00247111
0.000235027
0.00228671
0.000261407
0.00207776
0.000284863
0.00184681
0.000305141
0.00159626
0.000322047
0.00132863
0.000335365
0.00104658
0.00034503
0.000752424
0.000350827
0.000450819
0.000146202
0.000351737
3.49597e-05
0.00291922
-3.64051e-08
7.03635e-05
0.00288264
0.000105488
0.00281739
0.000139752
0.00272177
0.000172663
0.00259555
0.000203659
0.00244019
0.000232359
0.00225811
0.000258408
0.00205181
0.000281569
0.00182377
0.000301589
0.00157636
0.000318278
0.00131207
0.000331425
0.00103359
0.000340913
0.000743132
0.000346622
0.000445372
0.000145501
0.000347761
3.4553e-05
0.00288469
-2.43377e-08
6.95766e-05
0.00284762
0.000104329
0.00278265
0.000138217
0.00268788
0.000170744
0.00256304
0.000201363
0.00240955
0.000229705
0.00222977
0.000255429
0.00202606
0.000278299
0.00180089
0.000298067
0.00155655
0.000314543
0.00129556
0.000327523
0.00102055
0.000336858
0.000733728
0.000342469
0.000439648
0.000143911
0.000343724
3.41624e-05
0.00285056
-2.91436e-09
6.88119e-05
0.002813
0.000103188
0.00274832
0.000136695
0.00265442
0.000168834
0.00253097
0.000199077
0.00237937
0.000227066
0.00220186
0.00025247
0.00200074
0.000275054
0.00177841
0.000294575
0.00153714
0.000310843
0.00127941
0.00032366
0.00100787
0.000332856
0.000724706
0.000338372
0.000434364
0.000142974
0.000339693
3.37829e-05
0.00281676
1.55583e-08
6.80614e-05
0.00277872
0.00010206
0.00271433
0.000135181
0.00262129
0.000166932
0.00249923
0.000196801
0.00234948
0.000224442
0.00217422
0.00024953
0.00197562
0.000271834
0.00175609
0.000291113
0.00151782
0.000307178
0.00126331
0.000319835
0.000995154
0.000328904
0.00071556
0.000334331
0.000428814
0.000141283
0.000335686
3.34106e-05
0.00278335
2.78981e-08
6.73191e-05
0.00274484
0.000100937
0.00268075
0.000133671
0.0025886
0.000165035
0.00246793
0.000194535
0.00232004
0.000221833
0.00214699
0.000246612
0.00195092
0.000268642
0.00173415
0.000287684
0.00149887
0.000303549
0.00124755
0.000316048
0.000982781
0.000324998
0.000706767
0.000330341
0.000423678
0.000140255
0.000331718
3.30427e-05
0.00275027
3.62922e-08
6.65813e-05
0.0027113
9.98175e-05
0.00264752
0.000132165
0.00255625
0.000163145
0.00243695
0.000192281
0.00229088
0.000219241
0.00212002
0.000243717
0.00192641
0.000265477
0.00171236
0.000284287
0.00148002
0.000299956
0.00123184
0.000312302
0.000970371
0.000321137
0.00069785
0.000326403
0.000418281
0.000138533
0.00032779
3.26774e-05
0.00271757
4.3778e-08
6.58456e-05
0.00267816
9.87e-05
0.00261471
0.000130663
0.00252432
0.000161262
0.00240641
0.000190039
0.00226216
0.000216667
0.00209345
0.000240845
0.00190231
0.000262341
0.00169095
0.000280923
0.00146152
0.000296401
0.00121646
0.000308595
0.000958295
0.000317321
0.000689271
0.000322513
0.000413281
0.000137464
0.000323906
3.23137e-05
0.00268521
4.64094e-08
6.51112e-05
0.00264536
9.75842e-05
0.00258224
0.000129164
0.00249274
0.000159388
0.00237618
0.000187811
0.00223371
0.000214114
0.00206714
0.000237999
0.00187839
0.000259236
0.00166968
0.000277594
0.00144312
0.000292884
0.00120112
0.000304929
0.000946183
0.000313548
0.000680567
0.000318672
0.00040802
0.000135739
0.000320065
3.19511e-05
0.00265324
4.49457e-08
6.43776e-05
0.00261297
9.64705e-05
0.00255018
0.000127671
0.00246158
0.000157524
0.00234638
0.000185599
0.00220569
0.000211582
0.00204121
0.000235179
0.00185486
0.000256161
0.00164878
0.000274299
0.00142506
0.000289404
0.0011861
0.000301303
0.000934394
0.000309818
0.00067219
0.000314875
0.000403141
0.000134651
0.000316269
3.15895e-05
0.00262161
4.21076e-08
6.36453e-05
0.00258091
9.53599e-05
0.00251846
0.000126184
0.00243074
0.000155671
0.00231689
0.000183404
0.00217793
0.000209072
0.00201553
0.000232387
0.00183151
0.000253118
0.00162802
0.000271039
0.0014071
0.000285963
0.00117113
0.000297719
0.000922571
0.000306131
0.000663689
0.000311126
0.000398005
0.000132932
0.000312515
3.12287e-05
0.00259037
3.87787e-08
6.29146e-05
0.00254925
9.42533e-05
0.00248716
0.000124705
0.00240033
0.000153832
0.00228781
0.000181229
0.00215058
0.000206587
0.00199022
0.000229623
0.00180854
0.000250107
0.0016076
0.000267815
0.00138947
0.000282561
0.00115647
0.000294175
0.000911062
0.000302488
0.000655508
0.00030742
0.000393242
0.000131837
0.000308806
3.08693e-05
0.00255946
3.49814e-08
6.21864e-05
0.00251793
9.31521e-05
0.00245619
0.000123236
0.00237023
0.000152008
0.00225903
0.000179072
0.00212349
0.000204126
0.00196515
0.000226888
0.00178574
0.000247128
0.00158733
0.000264627
0.00137192
0.000279197
0.00114184
0.000290672
0.000899518
0.000298887
0.000647202
0.00030376
0.000388223
0.000130134
0.000305139
3.05113e-05
0.00252894
3.09845e-08
6.14615e-05
0.00248701
9.20573e-05
0.00242563
0.000121777
0.00234055
0.000150199
0.00223065
0.000176937
0.0020968
0.00020169
0.00194045
0.000224182
0.00176331
0.000244183
0.0015674
0.000261475
0.00135471
0.000275871
0.00112753
0.000287209
0.00088828
0.000295328
0.000639209
0.000300143
0.000383568
0.000129039
0.000301516
3.01552e-05
0.00249875
2.76442e-08
6.07407e-05
0.00245642
9.097e-05
0.00239539
0.000120331
0.00231118
0.000148408
0.00220256
0.000174824
0.00207036
0.000199281
0.00191597
0.000221507
0.00174106
0.000241271
0.0015476
0.000258358
0.00133758
0.000272585
0.00111325
0.000283788
0.000877007
0.000291812
0.000631094
0.00029657
0.000378662
0.000127353
0.000297934
2.98012e-05
0.00246895
2.48679e-08
6.00246e-05
0.00242623
8.98912e-05
0.00236556
0.000118897
0.00228221
0.000146634
0.00217487
0.000172732
0.00204431
0.000196898
0.00189185
0.000218861
0.00171915
0.000238391
0.00152813
0.000255278
0.00132076
0.000269336
0.00109927
0.000280406
0.000866034
0.000288337
0.000623285
0.000293039
0.000374114
0.000126265
0.000294395
2.94498e-05
0.00243947
2.25737e-08
5.93139e-05
0.00239636
8.88216e-05
0.00233604
0.000117477
0.00225354
0.000144878
0.00214746
0.000170664
0.0020185
0.000194541
0.00186795
0.000216245
0.00169742
0.000235545
0.0015088
0.000252233
0.00130403
0.000266125
0.00108533
0.000277064
0.000855024
0.000284903
0.000615354
0.000289551
0.000369315
0.000124604
0.000290897
2.91012e-05
0.00241038
2.06989e-08
5.86092e-05
0.00236688
8.77619e-05
0.00230692
0.000116071
0.00222527
0.000143142
0.00212042
0.000168618
0.00199306
0.000192212
0.0018444
0.000213659
0.00167602
0.000232733
0.00148979
0.000249224
0.00128761
0.000262953
0.00107168
0.000273762
0.000844309
0.00028151
0.000607724
0.000286104
0.000364868
0.000123525
0.000287441
2.87555e-05
0.0023816
1.9283e-08
5.79109e-05
0.00233771
8.67127e-05
0.00227811
0.00011468
0.00219729
0.000141424
0.00209367
0.000166596
0.00196787
0.000189909
0.00182107
0.000211104
0.0016548
0.000229953
0.0014709
0.000246251
0.00127127
0.000259818
0.00105805
0.0002705
0.000833555
0.000278158
0.000599973
0.000282699
0.000360173
0.000121887
0.000284024
2.84132e-05
0.00235319
1.81764e-08
5.72193e-05
0.00230894
8.56743e-05
0.00224968
0.000113304
0.0021697
0.000139726
0.00206728
0.000164597
0.00194304
0.000187634
0.00179808
0.000208578
0.00163391
0.000227205
0.00145233
0.000243312
0.00125523
0.000256719
0.00104472
0.000267276
0.000823091
0.000274845
0.00059252
0.000279334
0.000355828
0.000120821
0.000280649
2.80741e-05
0.00232509
1.7342e-08
5.65348e-05
0.00228047
8.46471e-05
0.00222156
0.000111944
0.00214239
0.000138048
0.00204117
0.000162622
0.00191844
0.000185385
0.00177529
0.000206083
0.00161318
0.000224491
0.00143389
0.000240409
0.00123927
0.000253658
0.00103142
0.00026409
0.000812587
0.000271572
0.000584944
0.00027601
0.000351234
0.000119212
0.000277313
2.77386e-05
0.00229736
1.66813e-08
5.58576e-05
0.00225238
8.36312e-05
0.00219382
0.000110599
0.00211545
0.000136389
0.00201541
0.00016067
0.0018942
0.000183163
0.00175284
0.000203617
0.00159278
0.000221808
0.00141576
0.000237539
0.00122361
0.000250633
0.0010184
0.000260943
0.000802367
0.000268338
0.000577661
0.000272726
0.000346984
0.000118157
0.000274018
2.74067e-05
0.00226993
1.6201e-08
5.51878e-05
0.00222459
8.26268e-05
0.00216637
0.00010927
0.0020888
0.00013475
0.00198992
0.000158741
0.00187018
0.000180968
0.00173059
0.00020118
0.00157254
0.000219158
0.00139774
0.000234704
0.00120801
0.000247645
0.0010054
0.000257833
0.000792106
0.000265143
0.000570257
0.000269481
0.00034249
0.000116571
0.000270761
2.70785e-05
0.00224286
1.57996e-08
5.45256e-05
0.00219717
8.16341e-05
0.00213929
0.000107956
0.00206251
0.00013313
0.00196478
0.000156836
0.00184652
0.000178799
0.00170867
0.000198773
0.00155261
0.000216539
0.00138003
0.000231903
0.00119272
0.000244692
0.000992688
0.00025476
0.000782126
0.000261986
0.000563141
0.000266275
0.000338336
0.000115527
0.000267544
2.6754e-05
0.00221608
1.55099e-08
5.38709e-05
0.00217004
8.0653e-05
0.00211249
0.000106658
0.00203649
0.00013153
0.00193989
0.000154953
0.00182307
0.000176656
0.00168694
0.000196395
0.00153284
0.000213952
0.00136244
0.000229136
0.00117749
0.000241774
0.000979992
0.000251724
0.000772103
0.000258867
0.000555905
0.000263108
0.000333936
0.000113971
0.000264364
2.64332e-05
0.00218966
1.52451e-08
5.32239e-05
0.00214328
7.96835e-05
0.00208606
0.000105376
0.00201083
0.00012995
0.00191536
0.000153094
0.00179997
0.000174539
0.00166554
0.000194045
0.00151339
0.000211396
0.00134514
0.000226401
0.00116255
0.000238891
0.000967576
0.000248725
0.000762355
0.000255785
0.000548953
0.000259979
0.000329873
0.000112933
0.000261224
2.61161e-05
0.00216352
1.50485e-08
5.25845e-05
0.0021168
7.87256e-05
0.00205991
0.000104109
0.00198543
0.000128388
0.00189106
0.000151257
0.00177708
0.000172447
0.00164432
0.000191724
0.00149408
0.00020887
0.00132796
0.000223699
0.00114768
0.000236043
0.000955174
0.000245761
0.000752564
0.00025274
0.000541881
0.000256887
0.000325567
0.000111358
0.00025812
2.58028e-05
0.00213773
1.48385e-08
5.19527e-05
0.00209068
7.77793e-05
0.00203411
0.000102857
0.00196039
0.000126846
0.00186711
0.000149442
0.00175452
0.000170382
0.00162342
0.00018943
0.00147508
0.000206375
0.00131107
0.00022103
0.00113309
0.000233229
0.00094305
0.000242833
0.000743045
0.000249731
0.00053509
0.000253832
0.000321593
0.000110323
0.000255055
2.54932e-05
0.0021122
1.46762e-08
5.13285e-05
0.00206483
7.68445e-05
0.00200858
0.000101621
0.00193559
0.000125322
0.00184339
0.000147649
0.00173217
0.000168341
0.0016027
0.000187165
0.00145623
0.00020391
0.00129429
0.000218393
0.00111856
0.000230449
0.000930936
0.000239941
0.00073348
0.000246758
0.000528178
0.000250814
0.000317375
0.000108755
0.000252026
2.51873e-05
0.00208703
1.44873e-08
5.07119e-05
0.00203934
7.59209e-05
0.0019834
0.0001004
0.00191115
0.000123818
0.00182001
0.000145879
0.00171015
0.000166325
0.0015823
0.000184927
0.00143767
0.000201474
0.00127779
0.000215787
0.00110431
0.000227702
0.000919095
0.000237083
0.000724182
0.000243821
0.000521543
0.000247831
0.000313488
0.000107734
0.000249035
2.48851e-05
0.00206212
1.43303e-08
5.01027e-05
0.00201411
7.50087e-05
0.00195848
9.91941e-05
0.00188695
0.000122331
0.00179685
0.000144129
0.00168833
0.000164333
0.00156206
0.000182715
0.00141926
0.000199068
0.0012614
0.000213213
0.00109012
0.000224988
0.000907263
0.000234259
0.000714839
0.000240919
0.000514789
0.000244885
0.000309359
0.000106149
0.000246078
2.45865e-05
0.00203754
1.41343e-08
4.95009e-05
0.00198922
7.41076e-05
0.0019339
9.80028e-05
0.00186308
0.000120863
0.00177402
0.000142402
0.00166683
0.000162366
0.00154214
0.000180531
0.00140114
0.000196691
0.0012453
0.00021067
0.00107621
0.000222307
0.000895699
0.000231469
0.000705759
0.000238052
0.000508308
0.000241973
0.000305558
0.000105153
0.000243162
2.42915e-05
0.00201322
1.39653e-08
4.89065e-05
0.00196459
7.32176e-05
0.00190958
9.68261e-05
0.00183946
0.000119413
0.00175142
0.000140695
0.00164552
0.000160422
0.00152238
0.000178373
0.00138316
0.000194343
0.00122929
0.000208157
0.00106235
0.000219657
0.000884142
0.000228713
0.000696631
0.000235219
0.000501707
0.000239096
0.000301517
0.000103578
0.000240277
2.40002e-05
0.00198923
1.3757e-08
4.83193e-05
0.0019403
7.23384e-05
0.00188559
9.56638e-05
0.00181617
0.00011798
0.00172914
0.000139009
0.00162453
0.000158503
0.00150293
0.000176241
0.00136547
0.000192023
0.00121356
0.000205675
0.00104876
0.00021704
0.000872848
0.000225989
0.000687764
0.00023242
0.000495377
0.000236253
0.000297801
0.000102612
0.000237432
2.37123e-05
0.00196549
1.35715e-08
4.77393e-05
0.00191626
7.147e-05
0.00186184
9.45158e-05
0.0017931
0.000116565
0.00170707
0.000137344
0.00160373
0.000156606
0.00148364
0.000174135
0.00134791
0.000189731
0.00119792
0.000203223
0.00103522
0.000214454
0.000861559
0.000223299
0.000678847
0.000229655
0.000488927
0.000233443
0.000293848
0.000101071
0.000234615
2.3428e-05
0.00194208
1.33428e-08
4.71663e-05
0.00189255
7.06122e-05
0.00183842
9.33818e-05
0.00177037
0.000115168
0.00168531
0.000135699
0.00158324
0.000154733
0.00146465
0.000172055
0.00133064
0.000187467
0.00118256
0.0002008
0.00102196
0.0002119
0.000850531
0.000220641
0.000670187
0.000226923
0.000482745
0.000230666
0.00029022
0.000100143
0.000231831
2.31471e-05
0.0019189
1.31394e-08
4.66004e-05
0.00186908
6.9765e-05
0.00181524
9.22618e-05
0.00174785
0.000113788
0.00166377
0.000134075
0.00156292
0.000152882
0.00144581
0.00017
0.00131349
0.00018523
0.00116729
0.000198406
0.00100873
0.000209376
0.000839504
0.000218015
0.000661476
0.000224223
0.000476443
0.000227923
0.000286358
9.86529e-05
0.000229078
2.28696e-05
0.00189605
1.28969e-08
4.60414e-05
0.00184594
6.89282e-05
0.00179238
9.11555e-05
0.00172566
0.000112424
0.00164253
0.00013247
0.00154292
0.000151055
0.00142726
0.00016797
0.00129662
0.00018302
0.0011523
0.000196041
0.000995777
0.000206883
0.000828735
0.00021542
0.000653018
0.000221556
0.000470405
0.000225211
0.000282817
9.77627e-05
0.000226358
2.25955e-05
0.00187342
1.26803e-08
4.54893e-05
0.00182303
6.81016e-05
0.00176975
9.00628e-05
0.00170368
0.000111077
0.0016215
0.000130885
0.00152308
0.000149249
0.00140887
0.000165964
0.00127987
0.000180837
0.00113738
0.000193705
0.000982864
0.000204419
0.000817964
0.000212857
0.000644509
0.000218921
0.000464247
0.000222532
0.000279045
9.63237e-05
0.000223669
2.23248e-05
0.00185111
1.24241e-08
4.49439e-05
0.00180044
6.72851e-05
0.00174744
8.89835e-05
0.00168201
0.000109747
0.00160077
0.000129319
0.00150355
0.000147465
0.00139076
0.000163983
0.0012634
0.00017868
0.00112274
0.000191397
0.000970211
0.000201985
0.000807447
0.000210324
0.00063625
0.000216318
0.00045835
0.000219885
0.00027559
9.54649e-05
0.000221014
2.20573e-05
0.00182902
1.21998e-08
4.44052e-05
0.00177807
6.64787e-05
0.00172535
8.79175e-05
0.00166055
0.000108433
0.00158023
0.000127772
0.00148419
0.000145703
0.0013728
0.000162025
0.00124705
0.000176549
0.00110817
0.000189117
0.000957598
0.000199581
0.000796926
0.000207822
0.000627937
0.000213746
0.000452333
0.000217271
0.000271905
9.40725e-05
0.000218389
2.17931e-05
0.00180725
1.19419e-08
4.3873e-05
0.00175602
6.56821e-05
0.00170357
8.68644e-05
0.0016394
0.000107135
0.00155999
0.000126244
0.00146512
0.000143962
0.00135512
0.000160092
0.00123097
0.000174444
0.00109387
0.000186864
0.000945242
0.000197205
0.000786655
0.00020535
0.000619871
0.000211205
0.000446574
0.000214687
0.000268534
9.32366e-05
0.000215797
2.15321e-05
0.00178568
1.17174e-08
4.33474e-05
0.00173419
6.48952e-05
0.001682
8.58243e-05
0.00161845
0.000105853
0.00153994
0.000124735
0.00144621
0.000142243
0.00133758
0.000158182
0.00121499
0.000172365
0.00107965
0.000184638
0.000932923
0.000194859
0.000776378
0.000202908
0.00061175
0.000208694
0.000440694
0.000212135
0.000264934
9.18847e-05
0.000213234
2.12743e-05
0.00176442
1.14589e-08
4.28282e-05
0.00171267
6.4118e-05
0.00166074
8.47969e-05
0.00159781
0.000104587
0.00152018
0.000123244
0.00142759
0.000140545
0.00132032
0.000156295
0.00119929
0.00017031
0.00106568
0.00018244
0.000920857
0.00019254
0.000766349
0.000200495
0.000603874
0.000206214
0.000435071
0.000209614
0.000261644
9.1068e-05
0.000210704
2.10196e-05
0.00174337
1.12389e-08
4.23153e-05
0.00169135
6.33503e-05
0.00163968
8.37821e-05
0.00157735
0.000103336
0.0015006
0.000121771
0.00140913
0.000138867
0.00130319
0.000154431
0.00118369
0.000168281
0.00105179
0.000180268
0.000908825
0.00019025
0.000756311
0.000198112
0.000595939
0.000203764
0.000429326
0.000207123
0.000258126
8.97519e-05
0.000208203
2.0768e-05
0.00172262
1.099e-08
4.18087e-05
0.00167034
6.2592e-05
0.00161893
8.27796e-05
0.0015572
0.0001021
0.00148132
0.000120316
0.00139095
0.000137209
0.00128634
0.000152589
0.00116836
0.000166276
0.00103815
0.000178122
0.000897042
0.000187987
0.000746516
0.000195757
0.000588248
0.000201343
0.000423833
0.000204663
0.000254913
8.89494e-05
0.000205733
2.05195e-05
0.00170207
1.07809e-08
4.13083e-05
0.00164953
6.1843e-05
0.00159837
8.17895e-05
0.00153723
0.00010088
0.0014622
0.000118879
0.00137293
0.000135572
0.00126961
0.00015077
0.00115313
0.000164295
0.00102459
0.000176002
0.00088529
0.000185751
0.000736711
0.00019343
0.000580497
0.000198951
0.000418219
0.000202232
0.000251475
8.76651e-05
0.000203292
2.0274e-05
0.00168181
1.05425e-08
4.08139e-05
0.00162902
6.11031e-05
0.00157811
8.08114e-05
0.00151756
9.96743e-05
0.00144337
0.00011746
0.00135518
0.000133955
0.00125316
0.000148973
0.00113816
0.000162339
0.00101127
0.000173908
0.000873784
0.000183543
0.000727147
0.000191132
0.000572986
0.000196588
0.000412856
0.000199831
0.000248338
8.68764e-05
0.000200882
2.00314e-05
0.00166175
1.0349e-08
4.03256e-05
0.00160871
6.03722e-05
0.00155805
7.98453e-05
0.00149806
9.84835e-05
0.00142471
0.000116058
0.00133758
0.000132357
0.00123683
0.000147198
0.00112328
0.000160406
0.000998019
0.000171839
0.000862306
0.000181361
0.000717569
0.000188861
0.000565413
0.000194254
0.00040737
0.000197459
0.000244977
8.56212e-05
0.0001985
1.97919e-05
0.00164198
1.01312e-08
3.98433e-05
0.00158869
5.96503e-05
0.00153827
7.88909e-05
0.00147885
9.73071e-05
0.00140633
0.000114673
0.00132025
0.000130779
0.00122076
0.000145444
0.00110866
0.000158496
0.000985017
0.000169795
0.00085107
0.000179205
0.000708228
0.000186618
0.000558078
0.000191948
0.000402133
0.000195115
0.000241913
8.48438e-05
0.000196147
1.95552e-05
0.00162239
9.95881e-09
3.93668e-05
0.00156885
5.89372e-05
0.00151868
7.79483e-05
0.00145982
9.61451e-05
0.00138811
0.000113304
0.00130306
0.000129219
0.00120481
0.000143712
0.00109414
0.00015661
0.000972075
0.000167775
0.000839859
0.000177076
0.000698872
0.000184402
0.00055068
0.00018967
0.000396772
0.0001928
0.000238627
8.36156e-05
0.000193822
1.93214e-05
0.00160309
9.7608e-09
3.88962e-05
0.00154931
5.82327e-05
0.00149937
7.70171e-05
0.00144107
9.49972e-05
0.00137016
0.000111953
0.00128615
0.000127679
0.00118913
0.000142
0.00107986
0.000154746
0.000959379
0.00016578
0.000828887
0.000174972
0.000689752
0.000182212
0.000543518
0.000187419
0.000391658
0.000190513
0.000235635
8.28504e-05
0.000191526
1.90904e-05
0.00158397
9.61122e-09
3.84312e-05
0.00152995
5.75369e-05
0.00148024
7.60973e-05
0.00142249
9.38634e-05
0.00135237
0.000110618
0.00126937
0.000126158
0.00117355
0.000140309
0.00106567
0.000152905
0.000946739
0.00016381
0.000817937
0.000172893
0.000680612
0.000180049
0.00053629
0.000185195
0.000386418
0.000188254
0.000232421
8.16478e-05
0.000189257
1.88622e-05
0.00156512
9.43958e-09
3.7972e-05
0.00151087
5.68495e-05
0.00146139
7.51886e-05
0.00140418
9.27434e-05
0.00133485
0.000109299
0.00125285
0.000124655
0.00115823
0.000138639
0.00105174
0.000151087
0.000934341
0.000161863
0.000807222
0.00017084
0.000671705
0.000177912
0.000529295
0.000182999
0.000381424
0.000186022
0.000229499
8.08932e-05
0.000187016
1.86368e-05
0.00154645
9.31648e-09
3.75183e-05
0.00149196
5.61705e-05
0.00144272
7.42911e-05
0.00138604
9.1637e-05
0.00131747
0.000107996
0.00123646
0.00012317
0.00114303
0.000136989
0.00103788
0.00014929
0.000921996
0.000159939
0.000796526
0.000168812
0.000662777
0.000175801
0.000522233
0.000180828
0.000376303
0.000183817
0.000226356
7.97145e-05
0.000184801
1.84141e-05
0.00152806
9.17007e-09
3.70701e-05
0.00147334
5.54998e-05
0.00142432
7.34045e-05
0.00136816
9.05441e-05
0.00130037
0.000106709
0.00122034
0.000121703
0.00112807
0.000135359
0.00102427
0.000147515
0.000909891
0.000158039
0.000786064
0.000166808
0.00065408
0.000173716
0.000515403
0.000178685
0.000371426
0.000181639
0.000223501
7.89719e-05
0.000182614
1.81941e-05
0.00150983
9.07493e-09
3.66274e-05
0.00145488
5.48373e-05
0.00140608
7.25287e-05
0.00135045
8.94645e-05
0.0012834
0.000105438
0.00120433
0.000120255
0.00111322
0.000133749
0.00101074
0.000145762
0.000897833
0.000156162
0.000775617
0.000164828
0.000645358
0.000171656
0.000508503
0.000176567
0.000366422
0.000179487
0.000220427
7.78162e-05
0.000180452
1.79768e-05
0.00149187
8.96036e-09
3.619e-05
0.0014367
5.41828e-05
0.00138812
7.16636e-05
0.001333
8.8398e-05
0.0012667
0.000104182
0.00118859
0.000118823
0.00109862
0.000132159
0.000997451
0.000144029
0.000886012
0.000154308
0.000765399
0.000162872
0.000636864
0.00016962
0.000501832
0.000174474
0.000361658
0.000177361
0.000217638
7.70844e-05
0.000178318
1.77621e-05
0.00147408
8.89642e-09
3.5758e-05
0.00141868
5.35363e-05
0.00137032
7.0809e-05
0.0013157
8.73445e-05
0.00125014
0.000102941
0.00117296
0.000117409
0.00108411
0.000130587
0.000984236
0.000142318
0.000874235
0.000152476
0.000755195
0.00016094
0.000628344
0.00016761
0.000495091
0.000172407
0.000356767
0.000175262
0.000214631
7.59505e-05
0.000176208
1.755e-05
0.00145655
8.81124e-09
3.53312e-05
0.00140093
5.28976e-05
0.00135278
6.99648e-05
0.00129867
8.63039e-05
0.00123383
0.000101716
0.00115759
0.000116013
0.00106985
0.000129035
0.00097126
0.000140628
0.000862692
0.000150667
0.000745218
0.000159032
0.00062005
0.000165623
0.000488578
0.000170365
0.000352116
0.000173187
0.000211907
7.52309e-05
0.000174125
1.73405e-05
0.00143917
8.77761e-09
3.49096e-05
0.00138334
5.22667e-05
0.0013354
6.91308e-05
0.00128178
8.52759e-05
0.00121766
0.000100505
0.00114233
0.000114633
0.00105569
0.000127502
0.000958353
0.000138958
0.000851189
0.000148879
0.00073525
0.000157146
0.000611727
0.000163661
0.000481991
0.000168348
0.000347335
0.000171138
0.000208965
7.41181e-05
0.000172066
1.71335e-05
0.00142206
8.72564e-09
3.44931e-05
0.00136601
5.16435e-05
0.00131828
6.8307e-05
0.00126515
8.42604e-05
0.00120174
9.9309e-05
0.00112732
0.00011327
0.00104177
0.000125987
0.000945683
0.000137308
0.000839917
0.000147113
0.000725506
0.000155284
0.000603627
0.000161722
0.000475629
0.000166355
0.000342792
0.000169113
0.000206303
7.34096e-05
0.000170033
1.6929e-05
0.0014051
8.72462e-09
3.40817e-05
0.00134883
5.10278e-05
0.0013013
6.74933e-05
0.00124866
8.32573e-05
0.00118595
9.81277e-05
0.00111242
0.000111924
0.00102794
0.000124491
0.000933077
0.000135679
0.000828682
0.000145368
0.00071577
0.000153443
0.000595496
0.000159807
0.000469193
0.000164386
0.000338119
0.000167113
0.000203425
7.23166e-05
0.000168024
1.67269e-05
0.00138839
8.70406e-09
3.36752e-05
0.00133191
5.04196e-05
0.00128459
6.66894e-05
0.00123242
8.22663e-05
0.0011704
9.69607e-05
0.00109777
0.000110594
0.00101434
0.000123013
0.000920705
0.000134069
0.000817675
0.000143645
0.000706255
0.000151626
0.000587586
0.000157915
0.000462981
0.000162442
0.000333683
0.000165138
0.000200826
7.16205e-05
0.00016604
1.65273e-05
0.00137183
8.73528e-09
3.32737e-05
0.00131514
4.98189e-05
0.00126802
6.58953e-05
0.00121632
8.12874e-05
0.00115498
9.58079e-05
0.00108321
0.00010928
0.00100083
0.000121552
0.000908393
0.000132479
0.000806701
0.000141942
0.000696744
0.00014983
0.000579642
0.000156046
0.000456692
0.00016052
0.000329115
0.000163186
0.00019801
7.05468e-05
0.000164078
1.63301e-05
0.00135551
8.75041e-09
3.28771e-05
0.00129862
4.92254e-05
0.0012517
6.51109e-05
0.00120047
8.03205e-05
0.00113981
9.46691e-05
0.00106891
0.000107982
0.000987558
0.00012011
0.000896311
0.000130908
0.000795952
0.00014026
0.000687452
0.000148056
0.000571918
0.0001542
0.000450625
0.000158622
0.000324782
0.000161258
0.00019547
6.9862e-05
0.000162142
1.61353e-05
0.00133935
8.81624e-09
3.24852e-05
0.00128225
4.86391e-05
0.00123552
6.4336e-05
0.00118474
7.93653e-05
0.00112475
9.35441e-05
0.00105469
0.0001067
0.000974365
0.000118685
0.000884286
0.000129356
0.000785233
0.000138598
0.000678161
0.000146303
0.000564157
0.000152376
0.00044448
0.000156747
0.000320317
0.000159353
0.000192714
6.88068e-05
0.000160228
1.59429e-05
0.00132342
8.86445e-09
3.20981e-05
0.00126612
4.80599e-05
0.00121959
6.35705e-05
0.00116926
7.84216e-05
0.00110993
9.24328e-05
0.00104072
0.000105433
0.000961404
0.000117277
0.000872488
0.000127823
0.000774737
0.000136957
0.000669088
0.000144572
0.000556614
0.000150575
0.000438556
0.000154895
0.000316086
0.000157472
0.000190233
6.81345e-05
0.000158339
1.57527e-05
0.00130763
8.96258e-09
3.17157e-05
0.00125014
4.74878e-05
0.00120379
6.28143e-05
0.00115391
7.74895e-05
0.00109522
9.13351e-05
0.00102684
0.000104182
0.000948518
0.000115887
0.000860743
0.000126308
0.000764267
0.000135336
0.000660011
0.000142862
0.000549032
0.000148795
0.000432551
0.000153065
0.000311721
0.000155613
0.000187536
6.70971e-05
0.000156471
1.55649e-05
0.00129208
9.04589e-09
3.13379e-05
0.00123439
4.69226e-05
0.00118823
6.20673e-05
0.0011388
7.65687e-05
0.00108075
9.02507e-05
0.0010132
0.000102946
0.000935861
0.000114513
0.000849222
0.000124812
0.000754016
0.000133734
0.00065115
0.000141172
0.000541664
0.000147036
0.000426765
0.000151258
0.000307588
0.000153777
0.000185112
6.6436e-05
0.000154627
1.53793e-05
0.00127667
9.17839e-09
3.09647e-05
0.00121878
4.63643e-05
0.0011728
6.13293e-05
0.00112381
7.56591e-05
0.00106639
8.91795e-05
0.000999648
0.000101725
0.000923276
0.000113156
0.000837751
0.000123334
0.000743789
0.000132152
0.000642284
0.000139503
0.000534257
0.000145299
0.000420896
0.000149472
0.00030332
0.000151963
0.000182472
6.54155e-05
0.000152804
1.51959e-05
0.00126149
9.29545e-09
3.0596e-05
0.00120341
4.58127e-05
0.00115762
6.06004e-05
0.00110905
7.47606e-05
0.00105227
8.81213e-05
0.000986326
0.000100519
0.000910917
0.000111815
0.0008265
0.000121874
0.000733778
0.000130588
0.00063363
0.000137854
0.000527062
0.000143583
0.000415246
0.000147708
0.000299286
0.000150171
0.000180105
6.47669e-05
0.000151005
1.50147e-05
0.00124644
9.461e-09
3.02318e-05
0.00118817
4.52678e-05
0.00114255
5.98803e-05
0.00109441
7.38729e-05
0.00103824
8.70759e-05
0.00097309
9.93278e-05
0.000898625
0.000110491
0.000815295
0.000120432
0.000723788
0.000129044
0.000624968
0.000136226
0.000519825
0.000141888
0.000409511
0.000145966
0.000295112
0.000148401
0.000177521
6.37627e-05
0.000149226
1.48357e-05
0.00123162
9.61449e-09
2.98719e-05
0.00117316
4.47296e-05
0.00112772
5.91689e-05
0.00108
7.29961e-05
0.00102445
8.60433e-05
0.000960081
9.81509e-05
0.000886557
0.000109183
0.000804308
0.000119008
0.000714011
0.000127519
0.000616517
0.000134617
0.000512798
0.000140214
0.000403993
0.000144245
0.000291171
0.000146652
0.000175207
6.31252e-05
0.00014747
1.46589e-05
0.00121693
9.81543e-09
2.95164e-05
0.00115828
4.41978e-05
0.00111302
5.84662e-05
0.00106571
7.21299e-05
0.00101075
8.50232e-05
0.000947154
9.69884e-05
0.000874551
0.000107891
0.000793363
0.0001176
0.000704252
0.000126012
0.000608055
0.000133027
0.000505726
0.00013856
0.000398388
0.000142544
0.000287091
0.000144925
0.000172678
6.21367e-05
0.000145734
1.44842e-05
0.00120246
1.00035e-08
2.91652e-05
0.00114362
4.36725e-05
0.00109854
5.7772e-05
0.00105164
7.12743e-05
0.000997283
8.40156e-05
0.000934451
9.58399e-05
0.000862765
0.000106615
0.000782633
0.00011621
0.000694705
0.000124524
0.000599802
0.000131457
0.000498865
0.000136926
0.000393
0.000140864
0.000283243
0.000143219
0.000170419
6.15114e-05
0.000144021
1.43116e-05
0.00118811
1.02369e-08
2.88183e-05
0.00112909
4.31536e-05
0.00108417
5.70862e-05
0.00103768
7.0429e-05
0.000983907
8.30202e-05
0.000921826
9.47055e-05
0.000851039
0.000105354
0.000771942
0.000114837
0.000685171
0.000123054
0.000591534
0.000129906
0.000491955
0.000135312
0.000387522
0.000139205
0.000279253
0.000141533
0.000167942
6.05382e-05
0.000142327
1.4141e-05
0.00117398
1.04604e-08
2.84755e-05
0.00111479
4.26409e-05
0.00107004
5.64088e-05
0.00102394
6.95941e-05
0.000970755
8.20369e-05
0.000909421