/*--------------------------------*- C++ -*----------------------------------*\
  =========                 |
  \\      /  F ield         | OpenFOAM: The Open Source CFD Toolbox
   \\    /   O peration     | Website:  https://openfoam.org
    \\  /    A nd           | Version:  6.0
     \\/     M anipulation  |
\*---------------------------------------------------------------------------*/
FoamFile
{
    version     2.0;
    format      ascii;
    class       volVectorField;
    location    "6";
    object      U;
}
// * * * * * * * * * * * * * * * * * * * * * * * * * * * * * * * * * * * * * //

dimensions      [0 1 -1 0 0 0 0];

internalField   nonuniform List<vector> 
34500
(
(0.999991 -0.00012836 -9.43269e-18)
(0.999988 -0.000112455 9.03869e-17)
(0.999942 5.05976e-05 2.29384e-17)
(0.99977 0.000135801 -1.35308e-17)
(0.999444 -6.42597e-05 1.33308e-16)
(0.999084 -0.000518554 3.08597e-16)
(0.998807 -0.00106431 1.55509e-17)
(0.998699 -0.00153811 -2.42293e-16)
(0.998722 -0.00190006 3.73604e-16)
(0.99886 -0.00213228 -2.14668e-17)
(0.999039 -0.00230455 -2.82678e-16)
(0.999258 -0.00244407 -4.64521e-16)
(0.999449 -0.00254513 2.16014e-16)
(1.00044 -0.00298726 4.422e-16)
(0.992575 -0.0048426 -3.88522e-16)
(0.999998 4.28457e-05 -2.98677e-17)
(1.00002 0.000478094 -8.04091e-17)
(0.999884 0.000802648 1.89581e-16)
(0.999448 0.000618065 -1.05247e-16)
(0.998757 -0.000203729 -6.92707e-17)
(0.998073 -0.00136891 -6.05715e-16)
(0.997617 -0.00251753 9.99645e-17)
(0.997484 -0.00341101 1.61508e-16)
(0.997593 -0.00403354 -2.79161e-16)
(0.997894 -0.00440974 -4.57166e-16)
(0.998269 -0.00466063 -1.93691e-16)
(0.998727 -0.00483425 -3.97473e-16)
(0.999059 -0.00490275 -3.07427e-16)
(1.00125 -0.00509543 -5.85114e-16)
(0.992322 -0.00603982 6.95119e-16)
(1.00007 0.000270727 -2.22517e-17)
(1.00017 0.00102406 9.84701e-17)
(1.00011 0.00139275 3.51571e-17)
(0.999735 0.000995128 -4.57261e-17)
(0.999075 -0.000139722 -1.10429e-16)
(0.998391 -0.0015589 6.58214e-17)
(0.997935 -0.00284597 -5.83722e-17)
(0.997794 -0.00378061 -9.01085e-17)
(0.997908 -0.00436598 4.68042e-16)
(0.998213 -0.0046658 -2.58581e-16)
(0.998605 -0.00478907 3.57962e-16)
(0.999096 -0.00478865 5.19889e-16)
(0.999378 -0.00463129 -3.46085e-16)
(1.00158 -0.00426036 3.13692e-16)
(0.99634 -0.00291594 -5.0977e-17)
(1.00017 0.000416119 4.01003e-18)
(1.00037 0.00130791 -1.63314e-16)
(1.00048 0.00166109 -1.63989e-16)
(1.00029 0.00115368 7.43048e-17)
(0.99979 -8.3482e-05 -2.75586e-16)
(0.999195 -0.00153003 1.3957e-16)
(0.998769 -0.00277243 3.38989e-16)
(0.998606 -0.0036204 -2.49767e-16)
(0.998678 -0.00408666 -9.80671e-16)
(0.998927 -0.00425641 3.18069e-16)
(0.999264 -0.00422082 -4.94107e-17)
(0.999703 -0.00403358 2.69757e-16)
(0.999889 -0.0036929 4.33712e-16)
(1.00162 -0.00293438 -2.5834e-16)
(0.99864 -0.000618168 -1.94007e-16)
(1.00029 0.000490583 4.87043e-17)
(1.00058 0.00139825 9.31837e-17)
(1.00083 0.00169243 -1.19556e-16)
(1.00082 0.00111523 5.03695e-17)
(1.00048 -0.000141239 3.38142e-16)
(0.999983 -0.00153606 4.34796e-16)
(0.999592 -0.00268092 -8.77934e-16)
(0.999409 -0.00341734 3.39306e-16)
(0.999434 -0.00376442 9.34007e-16)
(0.999615 -0.00382146 -3.89335e-16)
(0.99988 -0.00366612 -1.14045e-16)
(1.00024 -0.00335556 -3.00892e-17)
(1.00035 -0.00293257 -2.68306e-16)
(1.0016 -0.00200792 5.89971e-16)
(0.999432 0.000604306 -3.79521e-16)
(1.0004 0.000517141 2.82792e-17)
(1.00075 0.00136336 3.48575e-17)
(1.0011 0.00156598 1.26014e-16)
(1.00123 0.000930566 -1.45214e-16)
(1.00103 -0.000312085 -6.54152e-17)
(1.00062 -0.00162647 -4.08836e-16)
(1.00027 -0.00266104 3.24605e-16)
(1.00008 -0.00328827 -8.25314e-17)
(1.00006 -0.0035335 -3.73838e-16)
(1.00018 -0.00350412 7.48691e-16)
(1.00038 -0.0032689 1.42639e-16)
(1.00067 -0.00288729 3.99364e-17)
(1.00071 -0.00243979 4.21149e-16)
(1.00159 -0.00146353 -1.19874e-15)
(0.999657 0.00133209 4.42942e-16)
(1.00051 0.000507405 -4.92105e-17)
(1.00089 0.00124083 5.53891e-17)
(1.00129 0.00133294 9.72334e-17)
(1.00153 0.000647225 2.73676e-16)
(1.00143 -0.000564088 7.60835e-17)
(1.00111 -0.00178724 3.4639e-16)
(1.0008 -0.00271197 -1.48957e-16)
(1.0006 -0.00323954 -6.39917e-16)
(1.00055 -0.00340026 -5.78643e-16)
(1.00062 -0.00330574 -7.9406e-16)
(1.00076 -0.00301719 -3.37062e-16)
(1.00099 -0.00259404 1.2882e-17)
(1.00099 -0.00214013 -3.10261e-16)
(1.00161 -0.00114959 1.02065e-15)
(0.999707 0.00181283 -1.3027e-16)
(1.00061 0.000471798 -3.20688e-17)
(1.001 0.00106254 -2.24705e-17)
(1.00143 0.0010377 -4.51273e-17)
(1.00173 0.000309704 -1.46856e-16)
(1.00171 -0.00086066 1.08635e-16)
(1.00146 -0.00199124 3.99564e-18)
(1.00119 -0.00281316 1.05828e-16)
(1.00099 -0.00325314 6.88503e-16)
(1.00092 -0.00334492 5.62481e-17)
(1.00096 -0.00320108 -3.11102e-16)
(1.00105 -0.00287598 4.30921e-16)
(1.00123 -0.00242644 -3.93838e-17)
(1.00121 -0.00196728 -7.60456e-18)
(1.00164 -0.00097121 1.83207e-16)
(0.999722 0.00214149 -3.77234e-16)
(1.00068 0.000419159 -2.78215e-18)
(1.00107 0.000854445 -1.18893e-16)
(1.00151 0.000715069 -2.70984e-17)
(1.00185 -4.67096e-05 1.89493e-16)
(1.0019 -0.00117142 -1.44447e-16)
(1.0017 -0.00221316 2.3059e-16)
(1.00147 -0.00294209 1.51435e-16)
(1.00128 -0.0033065 1.02293e-17)
(1.0012 -0.00334224 1.39047e-16)
(1.00121 -0.00316051 3.51501e-17)
(1.00127 -0.00280906 -4.07816e-16)
(1.0014 -0.00234002 2.52612e-16)
(1.00137 -0.00187047 -1.58965e-16)
(1.00168 -0.000867242 -8.09681e-16)
(0.999732 0.00238652 4.73322e-16)
(1.00073 0.000357011 9.12165e-17)
(1.00112 0.000635928 7.27722e-17)
(1.00156 0.000390497 -3.23444e-17)
(1.00192 -0.000396767 -1.632e-16)
(1.00201 -0.00147393 -1.65351e-16)
(1.00187 -0.00243312 -6.32004e-16)
(1.00166 -0.00307979 4.46867e-16)
(1.00149 -0.00338006 9.48632e-18)
(1.00141 -0.00337049 7.70022e-16)
(1.0014 -0.00315924 7.78142e-16)
(1.00144 -0.00278778 -2.23924e-16)
(1.00154 -0.00230232 -6.64943e-17)
(1.0015 -0.00181681 3.86803e-16)
(1.00173 -0.000803061 6.75331e-16)
(0.999759 0.0025808 -5.08294e-16)
(1.00077 0.000290846 -2.6586e-17)
(1.00115 0.00042033 4.96708e-17)
(1.00158 8.06395e-05 2.1356e-17)
(1.00195 -0.000724043 -4.11221e-17)
(1.00207 -0.00175364 -1.40565e-16)
(1.00197 -0.00263766 -2.02554e-17)
(1.0018 -0.00321253 -4.73256e-16)
(1.00164 -0.00345877 -6.63681e-16)
(1.00156 -0.00341262 -8.29684e-16)
(1.00154 -0.00317806 -4.89991e-16)
(1.00157 -0.00279062 2.79507e-16)
(1.00164 -0.00228988 -3.27879e-16)
(1.00161 -0.00178377 -2.37778e-16)
(1.00178 -0.000755953 -8.8241e-16)
(0.999794 0.00274994 2.87114e-16)
(1.00079 0.000225093 -7.45728e-17)
(1.00117 0.000216485 -1.11105e-16)
(1.00158 -0.000204106 -5.36273e-18)
(1.00195 -0.00101911 9.59986e-17)
(1.0021 -0.0020022 1.24252e-16)
(1.00203 -0.00281873 -1.61669e-16)
(1.00189 -0.00333164 -1.73179e-16)
(1.00175 -0.00353297 2.15523e-16)
(1.00167 -0.00345749 1.04728e-15)
(1.00165 -0.00320452 -9.83665e-17)
(1.00167 -0.0028039 -1.55994e-16)
(1.00173 -0.00228867 2.74948e-16)
(1.0017 -0.00175918 4.26113e-18)
(1.00183 -0.000715056 2.26788e-16)
(0.999845 0.00290304 4.70958e-17)
(1.00079 0.000162255 1.07484e-16)
(1.00116 2.94236e-05 7.05816e-17)
(1.00156 -0.00045872 -1.83285e-16)
(1.00193 -0.00127777 -7.42442e-17)
(1.00209 -0.00221634 5.40626e-18)
(1.00206 -0.00297284 3.05631e-16)
(1.00194 -0.00343276 4.16547e-16)
(1.00182 -0.0035969 3.07597e-16)
(1.00176 -0.00349816 -4.92588e-16)
(1.00174 -0.00323054 6.6573e-16)
(1.00175 -0.00281894 -2.11631e-16)
(1.0018 -0.00228965 1.66778e-16)
(1.00178 -0.00173528 7.76928e-16)
(1.00188 -0.000673231 -2.42824e-17)
(0.999901 0.00305072 1.59983e-18)
(1.00079 0.000104371 -6.25809e-18)
(1.00115 -0.000138316 -6.10607e-17)
(1.00153 -0.000681295 2.51117e-16)
(1.0019 -0.00149937 1.07334e-16)
(1.00207 -0.00239578 -4.07575e-17)
(1.00206 -0.00309931 3.46818e-16)
(1.00197 -0.00351426 -7.13217e-16)
(1.00187 -0.00364806 -4.50905e-16)
(1.00182 -0.0035311 -3.85063e-16)
(1.0018 -0.00325205 -5.60109e-16)
(1.00182 -0.00283124 3.31828e-16)
(1.00186 -0.00228859 -1.42224e-16)
(1.00184 -0.00170908 -1.04018e-15)
(1.00193 -0.000628471 4.64645e-16)
(0.999967 0.00319367 9.87258e-17)
(1.00077 5.20673e-05 -3.5406e-17)
(1.00112 -0.000286233 2.33855e-17)
(1.00149 -0.000872635 -3.05757e-17)
(1.00186 -0.00168564 -1.86857e-16)
(1.00204 -0.00254266 1.41792e-17)
(1.00205 -0.00319972 1.82476e-16)
(1.00199 -0.00357673 3.21494e-16)
(1.00191 -0.0036859 4.70774e-16)
(1.00187 -0.00355495 2.20854e-16)
(1.00186 -0.00326705 -2.00915e-16)
(1.00188 -0.00283853 3.12792e-17)
(1.00191 -0.00228317 2.21692e-16)
(1.00191 -0.00167882 -1.23654e-16)
(1.00199 -0.000579287 -5.46289e-16)
(1.00003 0.00333574 1.73783e-17)
(1.00075 6.0618e-06 -2.61901e-17)
(1.00109 -0.000414833 1.11913e-17)
(1.00145 -0.00103464 6.1217e-17)
(1.0018 -0.00183959 7.48694e-17)
(1.002 -0.00265997 -1.06478e-16)
(1.00203 -0.00327645 -6.98758e-16)
(1.00199 -0.0036216 -2.06425e-16)
(1.00193 -0.00371116 -3.45757e-16)
(1.00191 -0.00356967 -5.99376e-16)
(1.0019 -0.00327514 6.53274e-16)
(1.00193 -0.00284016 3.77073e-16)
(1.00196 -0.00227291 -4.07714e-16)
(1.00197 -0.00164455 1.04336e-15)
(1.00204 -0.000525963 2.07936e-16)
(1.00011 0.00347595 6.69004e-17)
(1.00071 -3.41421e-05 1.63517e-17)
(1.00105 -0.000525586 -8.0845e-17)
(1.0014 -0.00117035 -3.37373e-16)
(1.00175 -0.00196497 7.92418e-17)
(1.00195 -0.00275165 3.34921e-16)
(1.002 -0.00333276 2.98712e-17)
(1.00198 -0.00365131 6.40407e-17)
(1.00195 -0.00372526 -1.27649e-17)
(1.00193 -0.00357612 7.3144e-16)
(1.00194 -0.00327667 -1.9023e-16)
(1.00197 -0.00283631 -5.12279e-16)
(1.00201 -0.00225778 -1.08615e-16)
(1.00202 -0.00160627 -4.55566e-17)
(1.00209 -0.000468562 2.24289e-16)
(1.00018 0.00361719 -3.59593e-16)
(1.00068 -6.84817e-05 2.17308e-17)
(1.001 -0.000620128 5.90941e-17)
(1.00134 -0.00128282 2.21532e-16)
(1.00168 -0.00206568 -1.98057e-16)
(1.0019 -0.00282135 -2.05364e-16)
(1.00197 -0.0033717 1.10506e-16)
(1.00197 -0.00366807 2.12278e-16)
(1.00195 -0.00372988 4.1937e-16)
(1.00196 -0.00357542 -5.58392e-16)
(1.00198 -0.00327248 1.19823e-17)
(1.00201 -0.00282761 -1.65e-16)
(1.00205 -0.00223846 1.62154e-17)
(1.00207 -0.00156481 -2.10591e-16)
(1.00215 -0.000407975 6.40838e-17)
(1.00026 0.00375768 5.96539e-16)
(1.00063 -9.79064e-05 -2.79178e-18)
(1.00095 -0.000700485 1.01679e-16)
(1.00128 -0.00137544 -1.00648e-16)
(1.00162 -0.00214555 2.78749e-16)
(1.00184 -0.00287293 9.80568e-17)
(1.00193 -0.00339651 1.57321e-16)
(1.00195 -0.00367447 2.96266e-16)
(1.00195 -0.00372685 -6.60745e-16)
(1.00197 -0.00356893 1.51179e-16)
(1.00201 -0.00326359 -4.32864e-17)
(1.00205 -0.00281488 4.65067e-16)
(1.00209 -0.00221556 -2.78361e-16)
(1.00212 -0.00152065 -1.34284e-16)
(1.0022 -0.000344614 -4.59815e-17)
(1.00034 0.00389879 -1.30522e-16)
(1.00059 -0.000122525 -3.18511e-17)
(1.00089 -0.000768451 -2.42394e-17)
(1.00122 -0.00145111 3.20329e-16)
(1.00155 -0.00220809 -2.12224e-16)
(1.00178 -0.00290955 1.50289e-16)
(1.00188 -0.00340983 -2.78735e-16)
(1.00193 -0.00367247 -5.97443e-17)
(1.00195 -0.00371776 4.83129e-16)
(1.00199 -0.00355779 2.31537e-16)
(1.00203 -0.00325092 3.41377e-16)
(1.00209 -0.00279884 -5.8188e-16)
(1.00213 -0.00218977 6.46903e-16)
(1.00217 -0.00147447 -1.69622e-16)
(1.00226 -0.000278986 -1.58192e-16)
(1.00042 0.00403924 -1.06649e-16)
(1.00054 -0.000143461 4.11745e-17)
(1.00083 -0.000825973 1.23458e-17)
(1.00115 -0.00151283 -3.8026e-16)
(1.00148 -0.0022565 -1.57139e-17)
(1.00172 -0.00293441 -1.21892e-16)
(1.00184 -0.00341434 2.27069e-16)
(1.0019 -0.00366427 -9.81042e-17)
(1.00194 -0.00370418 -1.99096e-16)
(1.002 -0.00354329 3.12394e-16)
(1.00205 -0.00323544 -7.09677e-17)
(1.00212 -0.00278034 7.39929e-16)
(1.00217 -0.00216173 -7.5575e-16)
(1.00222 -0.00142662 2.30017e-16)
(1.00231 -0.000211562 -7.5887e-17)
(1.00049 0.004181 -1.52822e-16)
(1.00049 -0.00016079 -5.53068e-18)
(1.00077 -0.000874579 -1.73243e-16)
(1.00108 -0.00156295 1.47392e-16)
(1.00141 -0.00229351 5.56295e-17)
(1.00165 -0.00294989 -7.49289e-17)
(1.00179 -0.00341199 -7.52832e-17)
(1.00187 -0.00365133 1.68643e-16)
(1.00193 -0.00368732 3.44802e-16)
(1.002 -0.00352631 -3.73836e-16)
(1.00207 -0.00321791 -7.8137e-17)
(1.00215 -0.00275997 -4.09144e-16)
(1.0022 -0.00213201 7.56385e-16)
(1.00227 -0.00137768 -8.29698e-17)
(1.00237 -0.000142721 -4.21299e-17)
(1.00057 0.00432246 1.44495e-16)
(1.00043 -0.000175594 6.01939e-18)
(1.00071 -0.000915874 1.10689e-16)
(1.00101 -0.00160376 -5.32111e-18)
(1.00134 -0.0023215 1.24486e-16)
(1.00159 -0.00295831 -1.58434e-16)
(1.00174 -0.00340476 5.56327e-17)
(1.00184 -0.00363524 -5.50211e-17)
(1.00192 -0.00366837 -2.8754e-16)
(1.00201 -0.00350782 7.80303e-17)
(1.00209 -0.0031991 -3.02239e-16)
(1.00218 -0.00273838 9.26275e-17)
(1.00224 -0.00210108 -4.17449e-16)
(1.00231 -0.0013279 -5.30091e-17)
(1.00242 -7.28253e-05 8.30911e-17)
(1.00065 0.00446494 -1.34285e-16)
(1.00038 -0.000187801 -3.00027e-17)
(1.00064 -0.000951015 -2.8109e-17)
(1.00094 -0.00163699 -8.44342e-18)
(1.00127 -0.00234241 -1.77015e-16)
(1.00152 -0.0029613 -7.48648e-18)
(1.00169 -0.0033939 1.20568e-16)
(1.00181 -0.00361694 2.18082e-17)
(1.00191 -0.00364809 2.94231e-16)
(1.00201 -0.00348836 -1.15708e-16)
(1.00211 -0.00317944 4.23823e-16)
(1.00221 -0.00271588 -5.34925e-17)
(1.00227 -0.00206925 -2.92643e-18)
(1.00236 -0.00127754 -1.52351e-16)
(1.00248 -1.82176e-06 -3.54242e-16)
(1.00073 0.00460731 1.57483e-16)
(1.00032 -0.000198429 2.52926e-17)
(1.00057 -0.000981261 8.71815e-17)
(1.00087 -0.00166433 3.19841e-17)
(1.0012 -0.00235795 -3.32693e-17)
(1.00146 -0.00296054 3.37796e-16)
(1.00164 -0.00338086 -7.26057e-17)
(1.00178 -0.00359761 -3.11357e-16)
(1.00189 -0.00362734 -1.64652e-16)
(1.00201 -0.00346867 1.7893e-16)
(1.00212 -0.00315952 -4.59563e-16)
(1.00223 -0.002693 -2.31715e-16)
(1.00231 -0.00203689 -7.24155e-17)
(1.00241 -0.00122677 2.91004e-16)
(1.00253 6.98777e-05 -1.50768e-16)
(1.00081 0.00475113 -1.24297e-16)
(1.00026 -0.000207257 -5.27308e-17)
(1.0005 -0.00100741 -5.45446e-17)
(1.0008 -0.00168694 -1.04263e-16)
(1.00113 -0.00236941 2.40916e-17)
(1.0014 -0.00295705 5.30517e-17)
(1.00159 -0.00336638 -9.00263e-17)
(1.00174 -0.00357777 -3.26054e-17)
(1.00188 -0.00360658 -3.2163e-17)
(1.00201 -0.00344906 3.45344e-17)
(1.00214 -0.0031396 1.08614e-16)
(1.00226 -0.00266993 4.99195e-16)
(1.00234 -0.00200419 1.89505e-16)
(1.00245 -0.00117579 -1.70924e-16)
(1.00259 0.000142343 3.17922e-16)
(1.0009 0.00489493 5.64796e-17)
(1.0002 -0.000215208 3.61942e-17)
(1.00043 -0.00103038 -1.18284e-16)
(1.00073 -0.00170602 1.29835e-16)
(1.00106 -0.00237794 -1.407e-16)
(1.00133 -0.00295195 -1.07899e-16)
(1.00154 -0.00335144 -1.00171e-16)
(1.00171 -0.00355822 -4.13035e-17)
(1.00186 -0.00358638 -1.18057e-16)
(1.00201 -0.00343003 -2.14539e-16)
(1.00215 -0.00312008 2.2511e-16)
(1.00229 -0.00264705 -2.87639e-16)
(1.00238 -0.00197142 -2.49735e-16)
(1.0025 -0.00112472 1.73275e-16)
(1.00265 0.000215294 -1.7738e-16)
(1.00098 0.00504028 -8.08576e-17)
(1.00014 -0.000221912 1.10584e-17)
(1.00036 -0.0010507 -1.68642e-17)
(1.00066 -0.0017223 -4.06618e-17)
(1.00099 -0.00238437 3.75322e-17)
(1.00127 -0.00294581 -1.22283e-16)
(1.00149 -0.00333641 9.36791e-17)
(1.00167 -0.00353918 3.17691e-16)
(1.00184 -0.00356694 4.44451e-16)
(1.00201 -0.00341166 -1.161e-16)
(1.00217 -0.00310105 -2.51095e-16)
(1.00231 -0.00262434 -1.28774e-16)
(1.00241 -0.00193858 1.99195e-16)
(1.00254 -0.00107354 -2.43593e-16)
(1.00271 0.000288987 7.88805e-16)
(1.00106 0.00518688 3.44084e-16)
(1.00007 -0.000228238 -4.46489e-17)
(1.00029 -0.00106906 7.24024e-17)
(1.00059 -0.00173664 1.07952e-16)
(1.00092 -0.00238946 1.15572e-16)
(1.0012 -0.00293945 -1.42938e-16)
(1.00143 -0.003322 -2.81583e-17)
(1.00164 -0.00352125 7.28001e-17)
(1.00183 -0.00354868 1.86819e-17)
(1.00201 -0.00339438 3.50281e-16)
(1.00218 -0.00308283 2.21097e-16)
(1.00234 -0.00260215 3.92941e-16)
(1.00245 -0.00190592 5.25462e-17)
(1.00259 -0.00102237 8.85708e-17)
(1.00276 0.000363082 -3.56974e-16)
(1.00115 0.00533478 -3.28602e-16)
(1.00001 -0.000233703 1.90249e-17)
(1.00022 -0.00108577 4.90949e-17)
(1.00052 -0.00174948 -2.0906e-16)
(1.00085 -0.00239372 1.92556e-16)
(1.00114 -0.00293315 1.55952e-16)
(1.00138 -0.00330834 3.00105e-16)
(1.0016 -0.00350448 -5.80259e-17)
(1.00181 -0.00353168 -3.26107e-17)
(1.00201 -0.00337819 -1.12855e-16)
(1.00219 -0.00306543 6.57408e-17)
(1.00236 -0.00258046 -6.90017e-16)
(1.00249 -0.00187347 5.37662e-16)
(1.00264 -0.000971241 -5.0537e-17)
(1.00282 0.000437695 -5.06941e-16)
(1.00124 0.00548486 2.52591e-16)
(0.999943 -0.000239127 3.38536e-17)
(1.00015 -0.00110133 7.15774e-17)
(1.00045 -0.00176139 2.28226e-16)
(1.00078 -0.00239764 -3.23825e-16)
(1.00108 -0.00292742 2.5741e-17)
(1.00133 -0.0032959 -2.30942e-16)
(1.00157 -0.00348925 2.25988e-17)
(1.00179 -0.00351622 -4.43687e-16)
(1.002 -0.00336335 2.99297e-16)
(1.0022 -0.00304911 -3.61094e-16)
(1.00239 -0.0025595 5.21449e-16)
(1.00252 -0.00184139 -5.97631e-16)
(1.00268 -0.000920211 -2.95466e-16)
(1.00288 0.000512712 2.08008e-16)
(1.00132 0.00563128 -2.01711e-16)
(0.999877 -0.000243932 -4.00488e-17)
(1.00008 -0.0011159 -3.40553e-17)
(1.00038 -0.00177261 -4.01241e-17)
(1.00071 -0.00240152 1.25656e-17)
(1.00102 -0.00292236 -1.89749e-17)
(1.00128 -0.00328466 -2.7639e-16)
(1.00153 -0.0034755 -2.57821e-16)
(1.00177 -0.00350225 1.75233e-16)
(1.002 -0.00334977 8.36429e-17)
(1.00221 -0.00303376 5.47766e-16)
(1.00241 -0.00253915 -4.08889e-16)
(1.00256 -0.00180959 1.05727e-16)
(1.00273 -0.000869185 3.91174e-17)
(1.00294 0.000588232 -8.32363e-17)
(1.00142 0.00578073 3.04292e-16)
(0.99981 -0.000248927 2.35756e-17)
(1.00001 -0.00112989 -4.02634e-17)
(1.00031 -0.00178359 1.66043e-17)
(1.00064 -0.00240569 1.65817e-16)
(1.00096 -0.00291839 8.10393e-17)
(1.00123 -0.00327502 4.20245e-16)
(1.0015 -0.00346355 8.43074e-17)
(1.00175 -0.00349002 -7.41587e-17)
(1.002 -0.00333772 -2.5909e-16)
(1.00223 -0.00301964 -3.55103e-16)
(1.00244 -0.00251968 3.10553e-16)
(1.00259 -0.00177827 2.49789e-17)
(1.00278 -0.000818279 1.53863e-16)
(1.003 0.000663756 1.74901e-16)
(1.00151 0.00592861 -7.01333e-17)
(0.999743 -0.000253459 -2.94752e-17)
(0.99994 -0.00114335 -1.05505e-16)
(1.00024 -0.00179442 -6.65025e-17)
(1.00057 -0.00241031 1.17398e-16)
(1.0009 -0.00291547 7.59476e-17)
(1.00119 -0.00326685 4.95043e-17)
(1.00146 -0.00345327 1.95996e-17)
(1.00173 -0.00347943 3.35941e-16)
(1.00199 -0.00332708 1.12432e-16)
(1.00224 -0.00300664 -2.37026e-16)
(1.00247 -0.00250097 -4.76673e-17)
(1.00263 -0.00174739 -2.45955e-16)
(1.00283 -0.000767498 -2.2653e-16)
(1.00306 0.000739557 5.6003e-17)
(1.00161 0.00608165 -1.11634e-16)
(0.999675 -0.00025833 2.38846e-17)
(0.999869 -0.00115659 1.2847e-16)
(1.00017 -0.0018054 -7.58721e-17)
(1.0005 -0.00241558 -5.42011e-17)
(1.00084 -0.00291388 7.6338e-17)
(1.00114 -0.00326044 -4.91021e-17)
(1.00143 -0.00344491 -7.94589e-17)
(1.00171 -0.00347067 -2.07441e-16)
(1.00199 -0.00331806 4.50555e-17)
(1.00225 -0.00299495 5.17957e-16)
(1.00249 -0.00248324 1.73955e-16)
(1.00267 -0.00171707 4.62485e-16)
(1.00288 -0.000716934 1.95641e-16)
(1.00313 0.000815675 2.70571e-16)
(1.0017 0.00622852 2.36622e-17)
(0.999607 -0.000262825 2.87491e-17)
(0.999797 -0.0011696 3.57372e-17)
(1.0001 -0.00181657 9.27734e-17)
(1.00044 -0.00242158 -1.651e-16)
(1.00078 -0.00291353 -4.2221e-16)
(1.00109 -0.00325559 -7.1587e-17)
(1.00139 -0.00343826 -3.45508e-18)
(1.0017 -0.00346358 4.53441e-17)
(1.00199 -0.00331048 2.36596e-17)
(1.00226 -0.00298442 -3.25019e-16)
(1.00252 -0.00246632 1.93825e-16)
(1.00271 -0.00168721 -3.13494e-16)
(1.00293 -0.000666437 -1.01778e-16)
(1.00319 0.000892121 -3.34025e-16)
(1.00181 0.00638148 -1.82545e-17)
(0.999538 -0.000267763 -4.00604e-17)
(0.999726 -0.00118267 -6.84679e-17)
(1.00003 -0.00182818 -6.07909e-17)
(1.00037 -0.00242848 -3.12412e-17)
(1.00072 -0.00291467 6.28955e-17)
(1.00104 -0.0032526 -1.66316e-16)
(1.00136 -0.00343359 7.05196e-17)
(1.00168 -0.00345836 1.85122e-16)
(1.00199 -0.00330458 -2.45623e-16)
(1.00227 -0.00297527 1.06742e-16)
(1.00254 -0.00245043 1.18035e-16)
(1.00275 -0.00165799 9.07434e-17)
(1.00298 -0.000616158 6.39452e-16)
(1.00325 0.00096869 3.32379e-17)
(1.00191 0.00652985 -1.50108e-16)
(0.999468 -0.000272379 9.68002e-18)
(0.999654 -0.00119572 -3.88128e-18)
(0.999958 -0.00184021 -6.72875e-17)
(1.00031 -0.00243629 2.66266e-16)
(1.00066 -0.00291718 8.01762e-18)
(1.001 -0.00325126 1.74779e-16)
(1.00133 -0.00343068 -9.68774e-17)
(1.00166 -0.00345487 -4.96688e-16)
(1.00198 -0.00330018 2.2896e-16)
(1.00229 -0.00296737 1.4775e-17)
(1.00257 -0.00243546 -5.52362e-16)
(1.00279 -0.00162937 3.63008e-18)
(1.00304 -0.000566051 -4.10099e-16)
(1.00332 0.00104566 2.20265e-16)
(1.00203 0.00668246 5.31687e-17)
(0.999398 -0.000277507 1.35729e-17)
(0.999582 -0.00120899 -9.89731e-18)
(0.999889 -0.00185284 1.60946e-16)
(1.00024 -0.00244512 -1.05491e-16)
(1.0006 -0.00292122 -1.63154e-16)
(1.00095 -0.00325178 -3.96745e-16)
(1.0013 -0.00342973 -1.91418e-16)
(1.00164 -0.00345325 2.10225e-16)
(1.00198 -0.00329746 5.07829e-17)
(1.0023 -0.00296089 -2.75096e-16)
(1.0026 -0.00242157 1.78072e-16)
(1.00283 -0.00160148 -4.79558e-17)
(1.00309 -0.000516149 1.51659e-16)
(1.00338 0.00112247 -3.97486e-17)
(1.00212 0.00683616 -1.00721e-16)
(0.999327 -0.000282335 -3.35067e-17)
(0.999511 -0.00122238 2.85062e-17)
(0.999821 -0.00186602 -9.37222e-17)
(1.00018 -0.00245496 -5.69448e-17)
(1.00055 -0.00292664 2.53807e-16)
(1.0009 -0.00325392 6.13371e-16)
(1.00126 -0.00343051 4.02404e-16)
(1.00163 -0.00345332 1.59252e-16)
(1.00198 -0.00329623 2.89391e-17)
(1.00231 -0.00295565 3.39146e-17)
(1.00263 -0.00240859 1.21104e-16)
(1.00287 -0.00157419 -1.81219e-16)
(1.00315 -0.000466324 -2.48224e-17)
(1.00345 0.00119975 1.31978e-16)
(1.00222 0.00699063 2.64012e-16)
(0.999255 -0.000287731 1.01646e-17)
(0.999439 -0.00123614 -3.59079e-17)
(0.999752 -0.00187994 8.40255e-19)
(1.00012 -0.00246591 8.26049e-17)
(1.00049 -0.00293365 5.52642e-17)
(1.00086 -0.00325794 -3.55152e-16)
(1.00123 -0.00343324 -1.74088e-16)
(1.00161 -0.00345528 -3.06028e-16)
(1.00198 -0.00329672 -6.66553e-17)
(1.00233 -0.00295188 7.16542e-16)
(1.00266 -0.00239676 8.49774e-18)
(1.00291 -0.00154771 -1.32374e-16)
(1.00321 -0.000416795 -4.0873e-16)
(1.00352 0.00127729 -1.91364e-17)
(1.00231 0.00714717 -6.89163e-17)
(0.999184 -0.000292845 2.28899e-17)
(0.999367 -0.00125015 -3.02685e-18)
(0.999684 -0.00189452 2.9301e-17)
(1.00005 -0.00247795 -7.42093e-17)
(1.00044 -0.0029421 -2.17245e-17)
(1.00082 -0.00326362 1.45121e-16)
(1.0012 -0.00343773 -2.04574e-16)
(1.00159 -0.00345896 2.56538e-16)
(1.00198 -0.00329875 4.33838e-18)
(1.00234 -0.00294942 -3.82438e-16)
(1.00269 -0.00238593 -8.21798e-17)
(1.00296 -0.00152195 5.08978e-16)
(1.00326 -0.000367566 1.79099e-16)
(1.00359 0.00135537 -4.71175e-16)
(1.00239 0.00730628 -3.47952e-17)
(0.999111 -0.000298565 -1.66715e-17)
(0.999294 -0.00126461 5.28506e-17)
(0.999615 -0.00190991 9.71106e-18)
(0.99999 -0.00249115 -1.58631e-16)
(1.00038 -0.00295211 1.82901e-17)
(1.00077 -0.00327113 -6.1296e-18)
(1.00117 -0.00344413 4.75173e-16)
(1.00158 -0.00346449 2.61844e-16)
(1.00198 -0.00330248 -6.50406e-16)
(1.00236 -0.00294845 -2.86803e-16)
(1.00272 -0.0023763 1.70807e-16)
(1.003 -0.00149702 2.21502e-18)
(1.00332 -0.000318753 4.282e-16)
(1.00366 0.00143366 4.32605e-16)
(1.00247 0.00746859 1.15993e-16)
(0.999038 -0.000304002 -7.53954e-18)
(0.999222 -0.00127939 6.77341e-18)
(0.999547 -0.00192603 1.06148e-16)
(0.999927 -0.00250545 2.73128e-16)
(1.00033 -0.00296353 -3.25611e-17)
(1.00073 -0.00328023 -3.09157e-16)
(1.00114 -0.00345223 -3.55605e-16)
(1.00156 -0.00347169 -6.69021e-16)
(1.00197 -0.00330774 4.27506e-16)
(1.00237 -0.00294878 3.40648e-16)
(1.00275 -0.00236767 -1.54002e-16)
(1.00305 -0.00147277 -2.65649e-16)
(1.00338 -0.000270223 -4.20433e-16)
(1.00374 0.00151239 -3.45483e-17)
(1.00256 0.00763255 -3.47209e-16)
(0.998965 -0.000310086 1.12375e-17)
(0.999149 -0.00129472 -3.32892e-17)
(0.999479 -0.00194303 -1.2491e-16)
(0.999865 -0.00252097 -2.16014e-16)
(1.00027 -0.00297654 -4.52803e-17)
(1.00068 -0.00329118 2.94294e-16)
(1.00111 -0.00346225 2.20104e-16)
(1.00154 -0.00348076 6.78246e-16)
(1.00197 -0.00331473 6.95469e-18)
(1.00239 -0.00295063 -1.45328e-16)
(1.00278 -0.00236028 1.15789e-17)
(1.00309 -0.00144941 -2.64412e-16)
(1.00344 -0.000222175 -3.57932e-16)
(1.00382 0.00159136 -3.199e-16)
(1.00264 0.00779991 3.61886e-16)
(0.99889 -0.000315895 -3.83293e-17)
(0.999076 -0.00131045 8.45363e-17)
(0.999411 -0.00196084 -9.72144e-18)
(0.999803 -0.00253764 2.60182e-16)
(1.00022 -0.00299098 -1.01335e-16)
(1.00064 -0.00330374 -7.13701e-17)
(1.00108 -0.00347398 7.40202e-17)
(1.00153 -0.00349154 -4.27742e-16)
(1.00197 -0.0033233 -3.05862e-16)
(1.0024 -0.00295387 -1.07548e-17)
(1.00281 -0.00235398 9.39014e-17)
(1.00314 -0.00142683 1.46117e-16)
(1.00351 -0.000174553 3.74596e-16)
(1.0039 0.00167072 3.78642e-16)
(1.00273 0.00796794 -5.10227e-17)
(0.998816 -0.000322382 3.1995e-18)
(0.999003 -0.00132678 -2.7982e-17)
(0.999343 -0.00197958 -1.71507e-16)
(0.999741 -0.00255553 -2.67979e-16)
(1.00017 -0.003007 9.64164e-17)
(1.0006 -0.00331811 1.36058e-16)
(1.00105 -0.00348758 -3.35146e-16)
(1.00151 -0.00350417 -8.20885e-17)
(1.00198 -0.00333359 2.94154e-16)
(1.00242 -0.00295866 -1.17015e-16)
(1.00285 -0.00234896 1.26454e-16)
(1.00319 -0.00140516 1.30677e-16)
(1.00357 -0.000127418 5.77292e-17)
(1.00398 0.00175016 -4.68301e-16)
(1.00281 0.0081393 -1.02468e-16)
(0.998741 -0.000328588 2.66697e-17)
(0.998929 -0.00134356 -4.59816e-17)
(0.999274 -0.00199915 1.26667e-16)
(0.99968 -0.00257458 2.26678e-16)
(1.00011 -0.00302441 7.25448e-17)
(1.00056 -0.00333404 -2.63002e-16)
(1.00102 -0.00350284 1.68521e-16)
(1.0015 -0.00351847 1.36023e-16)
(1.00198 -0.00334544 2.56308e-16)
(1.00244 -0.00296483 1.66522e-16)
(1.00288 -0.00234502 -3.08621e-16)
(1.00324 -0.00138425 3.48563e-17)
(1.00363 -8.06194e-05 -5.01975e-17)
(1.00406 0.00182988 -1.30193e-17)
(1.0029 0.00831069 4.00212e-17)
(0.998665 -0.000335507 3.2456e-17)
(0.998855 -0.001361 5.14088e-18)
(0.999206 -0.00201971 1.77586e-16)
(0.999618 -0.0025949 -6.59451e-17)
(1.00006 -0.00304341 1.51009e-16)
(1.00051 -0.00335178 1.3063e-16)
(1.00099 -0.00352 4.85816e-17)
(1.00149 -0.00353464 9.49974e-17)
(1.00198 -0.00335906 -1.19443e-16)
(1.00246 -0.0029726 -1.14424e-17)
(1.00292 -0.00234242 -8.8514e-17)
(1.00329 -0.0013643 -3.42292e-17)
(1.0037 -3.43366e-05 1.21468e-16)
(1.00415 0.00190975 -1.06029e-18)
(1.00298 0.00848544 -1.17489e-16)
(0.998588 -0.000342153 5.19963e-18)
(0.998781 -0.00137897 -8.98927e-17)
(0.999138 -0.00204118 -1.93848e-16)
(0.999557 -0.00261644 -1.21668e-16)
(1.00001 -0.00306384 -9.83869e-17)
(1.00047 -0.00337112 3.18569e-18)
(1.00096 -0.00353885 -5.28875e-17)
(1.00147 -0.00355252 -1.10112e-16)
(1.00198 -0.0033743 -5.45433e-17)
(1.00247 -0.00298182 -1.62543e-16)
(1.00296 -0.00234101 2.73262e-16)
(1.00335 -0.00134521 4.27033e-17)
(1.00377 1.14922e-05 -2.59284e-16)
(1.00423 0.0019899 2.47145e-16)
(1.00307 0.00865981 4.08388e-17)
(0.998511 -0.000349541 -5.10774e-17)
(0.998706 -0.00139764 6.99304e-17)
(0.999069 -0.00206365 -7.2566e-18)
(0.999495 -0.00263924 -1.97813e-17)
(0.999954 -0.00308584 -1.43629e-16)
(1.00043 -0.00339224 1.835e-16)
(1.00093 -0.00355956 -5.26676e-18)
(1.00146 -0.00357227 1.76007e-16)
(1.00198 -0.00339133 1.41469e-17)
(1.00249 -0.00299267 -4.25279e-18)
(1.00299 -0.00234097 -4.08545e-16)
(1.0034 -0.00132708 -9.99633e-17)
(1.00384 5.68199e-05 2.94317e-16)
(1.00432 0.00207013 -1.85697e-16)
(1.00316 0.00883748 9.87941e-17)
(0.998433 -0.00035665 1.68691e-17)
(0.998631 -0.00141686 5.61123e-17)
(0.999 -0.00208706 -5.80794e-17)
(0.999434 -0.00266325 -5.75591e-17)
(0.999902 -0.00310923 9.86928e-17)
(1.00039 -0.00341491 -1.65692e-16)
(1.0009 -0.00358193 -1.88674e-16)
(1.00144 -0.0035937 -9.08927e-18)
(1.00199 -0.00340996 -3.74954e-17)
(1.00251 -0.00300496 2.61902e-16)
(1.00303 -0.00234212 2.41533e-16)
(1.00346 -0.00130978 1.18354e-16)
(1.00391 0.000101799 7.03194e-17)
(1.00441 0.00215058 4.15816e-16)
(1.00326 0.00901455 -1.94353e-16)
(0.998355 -0.000364536 -2.95032e-17)
(0.998555 -0.00143686 -7.46962e-17)
(0.998931 -0.00211154 2.83658e-16)
(0.999373 -0.00268859 2.3227e-16)
(0.99985 -0.00313424 -5.66566e-17)
(1.00035 -0.00343939 -8.60955e-17)
(1.00088 -0.0036062 8.77963e-18)
(1.00143 -0.00361704 -2.39023e-16)
(1.00199 -0.00343043 -2.84019e-16)
(1.00254 -0.00301895 8.25163e-17)
(1.00307 -0.0023447 2.16316e-16)
(1.00351 -0.00129351 -1.3325e-16)
(1.00398 0.000146236 -1.76852e-16)
(1.0045 0.00223118 -4.07221e-16)
(1.00335 0.00919499 2.21268e-17)
(0.998276 -0.000372157 6.15886e-17)
(0.998479 -0.00145746 8.76938e-17)
(0.998862 -0.00213703 -2.60615e-16)
(0.999311 -0.00271518 -1.10348e-16)
(0.999798 -0.00316069 1.81325e-16)
(1.00031 -0.00346548 2.57533e-16)
(1.00085 -0.00363217 9.49812e-17)
(1.00142 -0.00364213 1.45998e-16)
(1.00199 -0.0034526 1.94659e-17)
(1.00256 -0.00303447 -3.02937e-16)
(1.00311 -0.00234857 -2.11016e-16)
(1.00357 -0.00127816 8.16428e-17)
(1.00406 0.00019021 -2.87947e-16)
(1.0046 0.00231204 4.89818e-16)
(1.00345 0.00937468 1.27989e-16)
(0.998196 -0.000380586 -5.37737e-17)
(0.998402 -0.00147887 -6.81924e-17)
(0.998792 -0.0021636 3.40977e-17)
(0.99925 -0.00274311 -8.31205e-17)
(0.999745 -0.00318873 -1.98623e-16)
(1.00027 -0.00349334 -1.20112e-16)
(1.00082 -0.00366002 8.53634e-17)
(1.00141 -0.00366912 1.00165e-17)
(1.002 -0.00347661 3.07076e-16)
(1.00258 -0.00305173 3.20282e-16)
(1.00315 -0.00235389 1.5209e-17)
(1.00363 -0.00126386 1.96774e-17)
(1.00414 0.000233689 6.24944e-16)
(1.0047 0.002393 3.25577e-17)
(1.00355 0.00955774 3.99856e-17)
(0.998115 -0.00038875 1.19085e-17)
(0.998325 -0.00150091 2.36579e-17)
(0.998723 -0.00219121 1.82157e-17)
(0.999188 -0.00277229 1.102e-16)
(0.999693 -0.0032182 -8.95847e-17)
(1.00022 -0.00352278 -2.29695e-16)
(1.00079 -0.00368956 -1.24453e-16)
(1.0014 -0.00369786 -2.16699e-17)
(1.002 -0.00350232 -2.16461e-16)
(1.0026 -0.00307053 -2.49392e-16)
(1.0032 -0.0023605 -2.9889e-17)
(1.00369 -0.00125047 -5.696e-17)
(1.00422 0.000276815 5.55796e-18)
(1.0048 0.00247419 -3.95572e-16)
(1.00365 0.00973999 -4.45425e-17)
(0.998033 -0.000397758 1.21404e-17)
(0.998246 -0.00152382 -3.26234e-17)
(0.998652 -0.00221996 7.27449e-18)
(0.999127 -0.00280286 -5.33712e-17)
(0.999641 -0.0032493 2.79692e-16)
(1.00018 -0.00355405 2.86635e-16)
(1.00077 -0.00372101 2.67545e-16)
(1.00138 -0.00372856 1.5498e-16)
(1.00201 -0.00352995 2.76494e-17)
(1.00263 -0.00309114 1.2565e-16)
(1.00324 -0.00236864 -4.8599e-17)
(1.00376 -0.00123819 2.08943e-17)