/*--------------------------------*- C++ -*----------------------------------*\
  =========                 |
  \\      /  F ield         | OpenFOAM: The Open Source CFD Toolbox
   \\    /   O peration     | Website:  https://openfoam.org
    \\  /    A nd           | Version:  6.0
     \\/     M anipulation  |
\*---------------------------------------------------------------------------*/
FoamFile
{
    version     2.0;
    format      ascii;
    class       volScalarField;
    location    "10";
    object      p;
}
// * * * * * * * * * * * * * * * * * * * * * * * * * * * * * * * * * * * * * //

dimensions      [0 2 -2 0 0 0 0];

internalField   nonuniform List<scalar> 
47000
(
0.00568621
0.00635917
0.00747159
0.00875833
0.0099486
0.0107631
0.0111087
0.0109823
0.0105497
0.00998037
0.00945464
0.00905845
0.00881886
0.00868888
0.00860157
0.0084845
0.00828694
0.0079813
0.00756534
0.00705341
0.00647015
0.00584229
0.0051956
0.00455081
0.00392449
0.0033239
0.00277027
0.00221473
0.00195112
0.00240601
0.00563633
0.00630842
0.00743114
0.00875072
0.0100009
0.0108975
0.0113311
0.0112793
0.0108945
0.0103449
0.00982267
0.00943278
0.00922165
0.00915354
0.0091632
0.00917011
0.00910934
0.00893705
0.00863616
0.00821038
0.00767786
0.00706325
0.00639341
0.00569274
0.00498327
0.00427664
0.00360985
0.00295511
0.00264136
0.00287104
0.00554607
0.00619345
0.00728191
0.00857216
0.00980677
0.010701
0.0111304
0.0110521
0.0105977
0.00992674
0.00923644
0.00865124
0.00824336
0.00800277
0.00788288
0.0078132
0.00772899
0.00758036
0.00733986
0.00700047
0.00656999
0.00606491
0.00550626
0.00491516
0.00431306
0.00371332
0.00315985
0.00265401
0.00246352
0.00272892
0.00541513
0.00604416
0.00711555
0.00840758
0.00967409
0.0106325
0.0111428
0.0111381
0.0107209
0.0100317
0.0092613
0.00854487
0.00797589
0.00757021
0.00730478
0.00712595
0.00697728
0.00680968
0.00659092
0.00630637
0.00595488
0.00554441
0.00508861
0.00460305
0.00410515
0.0036069
0.00315139
0.00274527
0.00260053
0.00287634
0.00524823
0.00587016
0.00694991
0.00828504
0.00964309
0.0107464
0.0114415
0.0116369
0.0114018
0.0108483
0.0101497
0.00943905
0.00882078
0.00832974
0.00796389
0.00768742
0.0074562
0.00722697
0.00696831
0.00666242
0.00630305
0.00589195
0.00543688
0.00494801
0.00443832
0.00391715
0.00342447
0.00296391
0.00270921
0.00280967
0.0050393
0.00564865
0.00672984
0.0081012
0.00954685
0.0107996
0.011698
0.012131
0.0121351
0.0117913
0.0112482
0.0106274
0.0100348
0.00951612
0.00908549
0.00872282
0.00839732
0.00807401
0.00772602
0.00733615
0.0068967
0.00640635
0.00586973
0.00529421
0.0046908
0.0040691
0.00346945
0.002898
0.0025008
0.00241898
0.0047944
0.00537215
0.0064223
0.00778439
0.00926261
0.010606
0.0116532
0.0122806
0.0124983
0.0123582
0.0119825
0.0114765
0.0109407
0.0104253
0.00995482
0.00952182
0.00910737
0.00868539
0.00823513
0.00774235
0.00720059
0.00660826
0.00596965
0.00529221
0.004588
0.00386981
0.00318117
0.00253318
0.00204535
0.0018573
0.00450718
0.00502855
0.00600649
0.0073009
0.00873827
0.0100896
0.0112002
0.0119432
0.0123091
0.0123263
0.0120918
0.0116935
0.0112224
0.0107279
0.0102405
0.00976124
0.00928102
0.00878148
0.00824827
0.007671
0.00704598
0.00637294
0.00565763
0.00490917
0.00414199
0.0033726
0.00264672
0.00197766
0.0014567
0.00122015
0.00418315
0.00462992
0.005502
0.00668008
0.00801404
0.00929962
0.0103949
0.011176
0.0116213
0.0117413
0.0116114
0.0113025
0.0108944
0.0104327
0.00994969
0.00945194
0.00893717
0.00839337
0.00781172
0.00718566
0.00651453
0.00579994
0.00504956
0.0042743
0.00349063
0.00271729
0.00199973
0.00134928
0.00083042
0.000580127
0.00381513
0.00417527
0.00491958
0.00594936
0.00713696
0.00830424
0.00932477
0.0100831
0.0105509
0.0107263
0.010667
0.0104285
0.0100793
0.00965875
0.00919891
0.00870857
0.00819026
0.00763622
0.00704214
0.00640442
0.00572514
0.0050074
0.00426047
0.00349637
0.0027325
0.00198804
0.00130591
0.000693185
0.000191938
-5.99389e-05
0.00341255
0.00368329
0.00429169
0.00516008
0.00618139
0.00720248
0.00811374
0.00881057
0.00926219
0.0094588
0.00944376
0.00925978
0.00896422
0.00859007
0.00816681
0.00770384
0.00720631
0.00666927
0.00609148
0.00547145
0.00481321
0.00412075
0.00340426
0.00267599
0.00195325
0.00125428
0.000618451
4.79305e-05
-0.000432107
-0.000678856
0.00296986
0.00315213
0.00362599
0.00433348
0.00518509
0.00605082
0.00683714
0.00745172
0.00786379
0.00805903
0.00806971
0.00792781
0.00768085
0.00735504
0.0069767
0.00655422
0.00609409
0.00559258
0.0050506
0.00446768
0.00384917
0.00319922
0.00252834
0.00184831
0.00117569
0.00052706
-6.19483e-05
-0.000593463
-0.00105417
-0.00129812
0.00249796
0.00259931
0.00294771
0.00350513
0.00419669
0.00491237
0.00557346
0.00609954
0.00646158
0.00664285
0.00666722
0.00655806
0.00635425
0.00607581
0.00574537
0.0053697
0.00495546
0.00449936
0.00400338
0.0034675
0.00289765
0.00229771
0.001678
0.00104944
0.00042753
-0.00017304
-0.000719965
-0.00121886
-0.00166427
-0.0019051
0.00199018
0.00201839
0.0022534
0.00267603
0.00322285
0.00380092
0.00434419
0.00478367
0.00509249
0.00525335
0.00528363
0.00519994
0.0050339
0.00479978
0.00451676
0.00418935
0.00382398
0.0034169
0.00297072
0.00248515
0.00196642
0.00141767
0.000848883
0.000269829
-0.000305066
-0.000862937
-0.00137429
-0.00184724
-0.0022814
-0.00252365
0.00145914
0.00142453
0.00156024
0.00186575
0.00228669
0.0027439
0.00318206
0.00354222
0.00380003
0.00393844
0.00397
0.00390613
0.0037723
0.00357801
0.00333901
0.00305768
0.0027397
0.00238064
0.0019832
0.00154657
0.00107695
0.000576613
5.50111e-05
-0.000479232
-0.00101271
-0.00153422
-0.0020165
-0.0024695
-0.002896
-0.00313951
0.000897363
0.000807219
0.000856633
0.00106151
0.00137429
0.0017271
0.00207314
0.00236252
0.00257306
0.0026888
0.00271856
0.0026698
0.00256307
0.00240358
0.00220426
0.00196517
0.00169132
0.00137715
0.00102537
0.000634319
0.000210118
-0.000246029
-0.000725143
-0.00121978
-0.00171739
-0.00220829
-0.00266699
-0.0031047
-0.00352615
-0.0037749
0.000317358
0.000180281
0.000155767
0.000275222
0.000496656
0.000760871
0.00102804
0.00125584
0.00142421
0.00151843
0.00154455
0.00150713
0.00142261
0.00129283
0.00112804
0.000926417
0.000692049
0.000418373
0.000107816
-0.000242103
-0.000625534
-0.00104227
-0.00148386
-0.00194396
-0.00241079
-0.00287599
-0.00331552
-0.00374149
-0.00415997
-0.00441291
-0.000290378
-0.000469528
-0.000558049
-0.000511833
-0.000368361
-0.000179834
1.91639e-05
0.000193131
0.000323547
0.000397334
0.000418359
0.000389061
0.000322641
0.000217945
8.31849e-05
-8.54739e-05
-0.000284554
-0.000521898
-0.000795222
-0.00110808
-0.00145476
-0.00183618
-0.00224433
-0.00267395
-0.00311392
-0.00355711
-0.00398066
-0.00439733
-0.00481407
-0.00507446
-0.00091309
-0.00112846
-0.0012723
-0.00128912
-0.00121217
-0.00108831
-0.000947898
-0.000820815
-0.000724138
-0.000669416
-0.000654382
-0.000678097
-0.000730059
-0.000813725
-0.000922807
-0.00106268
-0.00123065
-0.00143561
-0.00167562
-0.00195517
-0.00226884
-0.00261855
-0.00299676
-0.00339926
-0.00381551
-0.00423954
-0.00464947
-0.00505863
-0.00547466
-0.0057408
-0.00156165
-0.00181141
-0.00200427
-0.00207681
-0.00205828
-0.00199109
-0.00190252
-0.00181729
-0.00175154
-0.00171505
-0.00170689
-0.00172714
-0.00176743
-0.00183329
-0.00191987
-0.00203419
-0.00217402
-0.00234953
-0.00255896
-0.0028079
-0.00309109
-0.0034116
-0.00376225
-0.00413991
-0.00453452
-0.00494128
-0.00533914
-0.00574185
-0.00615764
-0.00643232
-0.00222331
-0.00250394
-0.00274047
-0.00286291
-0.00289619
-0.00287922
-0.0028367
-0.00278908
-0.00275158
-0.00273242
-0.00273165
-0.00275002
-0.00278097
-0.00283162
-0.00289853
-0.00298997
-0.00310434
-0.00325284
-0.00343409
-0.00365464
-0.00390952
-0.00420284
-0.00452784
-0.00488242
-0.00525704
-0.00564797
-0.00603488
-0.00643198
-0.00684804
-0.00712915
-0.00291045
-0.00322197
-0.00349873
-0.00366738
-0.00374841
-0.00377749
-0.00377751
-0.00376482
-0.00375413
-0.00375194
-0.00375913
-0.00377688
-0.00380007
-0.00383734
-0.00388626
-0.00395654
-0.0040469
-0.00416985
-0.00432414
-0.00451755
-0.00474521
-0.00501242
-0.00531279
-0.00564529
-0.00600081
-0.0063767
-0.00675331
-0.0071452
-0.00756163
-0.00785174
-0.00360979
-0.00395005
-0.00426406
-0.00447602
-0.00460148
-0.00467331
-0.00471276
-0.00473273
-0.00474737
-0.00476164
-0.0047771
-0.00479508
-0.0048118
-0.00483705
-0.00486949
-0.00491992
-0.00498761
-0.00508612
-0.00521458
-0.00538181
-0.00558322
-0.00582521
-0.00610179
-0.006413
-0.00675017
-0.00711171
-0.00747853
-0.00786561
-0.00828269
-0.00857947
-0.00433468
-0.00470486
-0.00505459
-0.00530838
-0.0054767
-0.00558954
-0.00566697
-0.00571845
-0.00575787
-0.00578854
-0.0058126
-0.00583148
-0.00584242
-0.00585643
-0.00587297
-0.00590412
-0.00594948
-0.00602389
-0.00612669
-0.00626795
-0.00644326
-0.00666023
-0.00691323
-0.00720341
-0.00752249
-0.00786993
-0.00822718
-0.00860956
-0.00902724
-0.00933313
-0.00507125
-0.00546983
-0.00585381
-0.00614822
-0.00635802
-0.00651041
-0.00662431
-0.0067062
-0.00676963
-0.00681644
-0.00684923
-0.00686937
-0.00687513
-0.00687843
-0.00687968
-0.00689198
-0.00691544
-0.00696602
-0.00704347
-0.00715899
-0.00730845
-0.00750065
-0.00773035
-0.00799979
-0.00830108
-0.00863475
-0.00898268
-0.00936057
-0.00977904
-0.0100916
-0.00583372
-0.00626239
-0.00668025
-0.007015
-0.00726605
-0.00745759
-0.00760765
-0.00771965
-0.00780704
-0.00787006
-0.00791177
-0.00793343
-0.00793414
-0.00792689
-0.00791272
-0.00790605
-0.00790725
-0.00793371
-0.00798536
-0.00807479
-0.00819803
-0.00836519
-0.00857137
-0.00881997
-0.00910344
-0.00942334
-0.00976197
-0.0101354
-0.0105545
-0.010876
-0.00660738
-0.00706484
-0.00751603
-0.0078908
-0.00818274
-0.00841296
-0.00859851
-0.00874017
-0.00885113
-0.00893022
-0.00898086
-0.00900412
-0.00899997
-0.0089822
-0.00895273
-0.008927
-0.00890591
-0.00890804
-0.00893379
-0.00899694
-0.00909389
-0.00923593
-0.00941861
-0.00964642
-0.00991219
-0.0102185
-0.0105479
-0.010917
-0.0113369
-0.0116649
-0.00740713
-0.00789537
-0.00838021
-0.00879534
-0.00912863
-0.00939781
-0.00961915
-0.00979059
-0.00992532
-0.0100206
-0.0100803
-0.0101052
-0.010096
-0.0100675
-0.0100222
-0.00997693
-0.00993284
-0.00990999
-0.00990907
-0.00994534
-0.0100153
-0.0101318
-0.0102906
-0.0104973
-0.0107452
-0.0110377
-0.011358
-0.0117226
-0.0121431
-0.01248
-0.00821746
-0.00873523
-0.00925374
-0.00970937
-0.0100842
-0.0103923
-0.0106493
-0.0108504
-0.0110087
-0.0111201
-0.0111888
-0.0112152
-0.011201
-0.0111616
-0.0111003
-0.0110352
-0.0109678
-0.0109195
-0.0108917
-0.0109007
-0.0109435
-0.0110341
-0.0111689
-0.0113545
-0.0115845
-0.0118634
-0.0121745
-0.0125348
-0.012956
-0.0132991
-0.00905394
-0.00960339
-0.0101563
-0.0106531
-0.0110702
-0.0114181
-0.0117112
-0.0119423
-0.0121246
-0.0122523
-0.01233
-0.0123579
-0.0123383
-0.0122875
-0.0122097
-0.0121239
-0.0120324
-0.0119579
-0.0119022
-0.0118832
-0.0118981
-0.0119623
-0.0120725
-0.0122367
-0.0124485
-0.0127136
-0.0130154
-0.0133713
-0.013793
-0.0141447
-0.00990021
-0.0104801
-0.0110679
-0.0116063
-0.0120661
-0.0124539
-0.0127832
-0.0130445
-0.0132506
-0.0133947
-0.0134813
-0.0135107
-0.0134855
-0.0134231
-0.0133284
-0.0132216
-0.0131055
-0.0130043
-0.0129203
-0.0128728
-0.0128595
-0.012897
-0.0129825
-0.0131251
-0.0133188
-0.0135701
-0.0138627
-0.0142142
-0.0146365
-0.0149942
-0.0107726
-0.0113852
-0.0120088
-0.0125897
-0.0130934
-0.0135219
-0.0138883
-0.0141802
-0.0144107
-0.0145713
-0.0146669
-0.0146975
-0.0146663
-0.0145918
-0.0144794
-0.0143509
-0.0142092
-0.0140805
-0.0139671
-0.0138904
-0.013848
-0.0138582
-0.0139184
-0.014039
-0.0142142
-0.0144515
-0.0147347
-0.0150817
-0.0155044
-0.0158704
-0.0116538
-0.012298
-0.0129582
-0.0135821
-0.0141302
-0.0146001
-0.0150037
-0.0153265
-0.0155814
-0.0157586
-0.0158632
-0.0158948
-0.0158576
-0.0157707
-0.0156403
-0.0154894
-0.0153217
-0.0151649
-0.0150218
-0.0149153
-0.0148434
-0.014826
-0.0148607
-0.0149592
-0.0151158
-0.0153391
-0.0156129
-0.0159555
-0.0163787
-0.0167503
-0.0125609
-0.0132392
-0.0139371
-0.0146052
-0.0151989
-0.0157111
-0.016153
-0.0165073
-0.0167871
-0.0169812
-0.0170948
-0.0171275
-0.0170837
-0.0169838
-0.0168346
-0.0166605
-0.0164659
-0.0162799
-0.0161061
-0.0159689
-0.0158667
-0.0158209
-0.0158295
-0.0159054
-0.016043
-0.0162521
-0.0165163
-0.0168543
-0.0172777
-0.0176574
-0.013476
-0.014187
-0.0149236
-0.0156367
-0.0162768
-0.0168321
-0.0173126
-0.0176989
-0.0180038
-0.0182149
-0.0183375
-0.0183711
-0.0183206
-0.0182073
-0.0180389
-0.0178412
-0.0176191
-0.0174034
-0.0171984
-0.01703
-0.0168971
-0.0168225
-0.0168047
-0.0168578
-0.0169765
-0.0171712
-0.0174259
-0.0177593
-0.0181831
-0.0185682
-0.0144166
-0.0151631
-0.0159397
-0.0166992
-0.017387
-0.0179865
-0.0185068
-0.0189258
-0.0192565
-0.019485
-0.0196168
-0.0196511
-0.0195934
-0.0194662
-0.0192778
-0.0190556
-0.0188048
-0.0185585
-0.0183211
-0.0181206
-0.0179561
-0.017852
-0.0178071
-0.0178369
-0.0179361
-0.0181162
-0.0183611
-0.0186898
-0.0191136
-0.0195066
-0.0153642
-0.0161449
-0.0169626
-0.0177694
-0.018506
-0.0191507
-0.0197113
-0.0201636
-0.0205204
-0.0207664
-0.0209075
-0.0209424
-0.0208775
-0.020736
-0.0205272
-0.0202799
-0.02
-0.0197224
-0.0194521
-0.0192189
-0.0190223
-0.0188883
-0.0188161
-0.0188223
-0.0189019
-0.0190674
-0.0193024
-0.0196264
-0.0200504
-0.0204485
-0.0163371
-0.0171548
-0.0180152
-0.0188708
-0.0196577
-0.020349
-0.0209512
-0.0214377
-0.0218214
-0.0220855
-0.022236
-0.0222714
-0.0221988
-0.0220424
-0.0218123
-0.0215389
-0.0212288
-0.0209188
-0.0206145
-0.0203476
-0.0201179
-0.0199531
-0.0198528
-0.019835
-0.0198945
-0.0200449
-0.0202699
-0.020589
-0.0210129
-0.0214186
-0.0173159
-0.0181693
-0.0190737
-0.0199792
-0.0208178
-0.0215567
-0.0222014
-0.0227228
-0.0231337
-0.0234162
-0.0235763
-0.0236123
-0.0235317
-0.0233601
-0.0231083
-0.0228082
-0.0224674
-0.0221243
-0.0217854
-0.0214842
-0.0212209
-0.0210249
-0.0208961
-0.0208539
-0.0208932
-0.0210286
-0.0212434
-0.0215577
-0.0219816
-0.0223923
-0.0183196
-0.0192117
-0.0201617
-0.021119
-0.022011
-0.0227991
-0.0234877
-0.0240452
-0.0244844
-0.0247858
-0.0249557
-0.0249921
-0.0249032
-0.0247157
-0.0244411
-0.0241135
-0.0237406
-0.0233634
-0.0229887
-0.0226521
-0.0223541
-0.022126
-0.021968
-0.0219008
-0.0219193
-0.0220392
-0.0222436
-0.0225527
-0.0229765
-0.0233947
-0.0193279
-0.0202577
-0.0212547
-0.0222652
-0.023212
-0.0240507
-0.0247842
-0.0253786
-0.0258466
-0.0261675
-0.0263474
-0.0263842
-0.0262868
-0.0260831
-0.0257855
-0.0254296
-0.0250241
-0.0246119
-0.0242008
-0.0238281
-0.0234949
-0.0232341
-0.0230465
-0.022954
-0.0229516
-0.0230559
-0.0232498
-0.0235539
-0.0239777
-0.0244007
-0.0203609
-0.0213312
-0.0223772
-0.0234428
-0.0244465
-0.0253375
-0.0261178
-0.0267504
-0.0272483
-0.0275893
-0.0277794
-0.0278167
-0.0277104
-0.0274897
-0.027168
-0.0267828
-0.0263434
-0.0258951
-0.0254462
-0.0250363
-0.0246667
-0.0243724
-0.0241543
-0.0240357
-0.0240118
-0.0241001
-0.0242832
-0.024582
-0.0250055
-0.0254359
-0.0213973
-0.0224072
-0.0235035
-0.024626
-0.0256884
-0.0266334
-0.0274614
-0.0281334
-0.028662
-0.0290236
-0.0292244
-0.0292621
-0.0291467
-0.0289087
-0.0285624
-0.0281473
-0.0276734
-0.0271881
-0.0267007
-0.0262529
-0.0258463
-0.0255178
-0.0252688
-0.0251239
-0.0250782
-0.0251503
-0.0253226
-0.0256162
-0.0260395
-0.0264747
-0.0224578
-0.0235104
-0.0246592
-0.0258407
-0.026964
-0.027965
-0.0288429
-0.0295557
-0.0301163
-0.0304993
-0.0307111
-0.0307493
-0.0306244
-0.0303683
-0.0299964
-0.0295501
-0.0290403
-0.0285169
-0.0279896
-0.0275025
-0.0270578
-0.0266941
-0.0264132
-0.0262412
-0.0261731
-0.0262286
-0.0263896
-0.0266778
-0.0271007
-0.0275433
-0.0235206
-0.024615
-0.0258178
-0.0270603
-0.0282466
-0.0293054
-0.0302345
-0.0309894
-0.0315828
-0.031988
-0.0322113
-0.03225
-0.0321155
-0.031841
-0.031443
-0.0309648
-0.0304184
-0.0298558
-0.0292879
-0.0287608
-0.0282772
-0.0278777
-0.0275644
-0.0273649
-0.0272742
-0.027313
-0.0274627
-0.0277454
-0.0281682
-0.0286155
-0.0246069
-0.0257464
-0.0270056
-0.0283115
-0.0295633
-0.0306821
-0.0316647
-0.0324635
-0.0330912
-0.0335195
-0.0337547
-0.033794
-0.0336493
-0.0333557
-0.0329304
-0.0324192
-0.0318346
-0.0312316
-0.0306216
-0.0300532
-0.0295293
-0.0290929
-0.0287462
-0.0285185
-0.0284044
-0.0284259
-0.028564
-0.028841
-0.0292633
-0.0297181
-0.0256943
-0.0268781
-0.0281955
-0.029567
-0.0308865
-0.0320673
-0.033105
-0.033949
-0.0346122
-0.0350644
-0.0353121
-0.0353521
-0.0351973
-0.034884
-0.034431
-0.0338859
-0.0332624
-0.032618
-0.031965
-0.0313543
-0.0307896
-0.0303155
-0.0299349
-0.0296784
-0.0295408
-0.0295449
-0.0296712
-0.0299426
-0.0303647
-0.0308242
-0.0268047
-0.0280364
-0.0294143
-0.030854
-0.0322441
-0.0334895
-0.0345846
-0.035476
-0.0361762
-0.0366535
-0.0369141
-0.0369549
-0.0367894
-0.0364558
-0.0359738
-0.0353935
-0.0347296
-0.0340423
-0.0333447
-0.0326904
-0.0320833
-0.0315704
-0.0311548
-0.0308688
-0.0307068
-0.030693
-0.0308071
-0.0310726
-0.0314942
-0.0319612
-0.027915
-0.0291939
-0.0306346
-0.0321449
-0.0336077
-0.0349198
-0.0360742
-0.0370146
-0.0377531
-0.0382565
-0.0385307
-0.0385725
-0.0383964
-0.0380419
-0.0375303
-0.036914
-0.0362087
-0.0354776
-0.0347345
-0.0340356
-0.0333853
-0.0328329
-0.0323817
-0.0320656
-0.031879
-0.031847
-0.031949
-0.0322085
-0.0326299
-0.0331017
-0.0290477
-0.0303774
-0.0318835
-0.0334673
-0.0350059
-0.0363874
-0.0376039
-0.0385955
-0.0393743
-0.039905
-0.0401934
-0.0402364
-0.040049
-0.039673
-0.0391304
-0.0384767
-0.0377285
-0.0369518
-0.0361616
-0.0354165
-0.0347217
-0.0341284
-0.0336405
-0.0332935
-0.0330815
-0.0330308
-0.03312
-0.0333734
-0.0337942
-0.0342737
-0.0301789
-0.0315593
-0.033133
-0.0347928
-0.0364095
-0.0378628
-0.0391434
-0.0401881
-0.0410086
-0.0415678
-0.0418713
-0.0419157
-0.041717
-0.0413188
-0.0407448
-0.0400527
-0.0392606
-0.0384374
-0.0375989
-0.0368067
-0.0360663
-0.0354314
-0.0349061
-0.0345277
-0.03429
-0.0342204
-0.0342969
-0.0345441
-0.0349647
-0.0354491
-0.0313316
-0.0327665
-0.0344107
-0.0361496
-0.0378478
-0.0393759
-0.0407236
-0.041824
-0.0426884
-0.0432775
-0.0435968
-0.0436427
-0.0434323
-0.0430111
-0.0424042
-0.0416723
-0.0408345
-0.039963
-0.0390745
-0.0382336
-0.0374461
-0.0367682
-0.0362044
-0.0357937
-0.0355294
-0.0354403
-0.0355035
-0.0357442
-0.0361642
-0.0366563
-0.0324809
-0.0339703
-0.0356874
-0.0375083
-0.0392904
-0.0408961
-0.0423133
-0.0434716
-0.0443816
-0.0450019
-0.0453378
-0.0453857
-0.0451635
-0.0447188
-0.0440784
-0.0433057
-0.0424211
-0.0415002
-0.0405607
-0.0396698
-0.0388343
-0.0381126
-0.0375096
-0.0370659
-0.0367748
-0.036666
-0.0367159
-0.03695
-0.0373696
-0.0378667
-0.0336498
-0.035199
-0.0369913
-0.0388973
-0.0407672
-0.042454
-0.0439442
-0.0451634
-0.0461213
-0.0467745
-0.0471279
-0.0471779
-0.0469434
-0.0464744
-0.0457989
-0.0449838
-0.0440507
-0.0430785
-0.042086
-0.0411435
-0.0402584
-0.0394915
-0.0388481
-0.0383705
-0.0380518
-0.0379226
-0.0379585
-0.0381857
-0.0386045
-0.0391094
-0.0348129
-0.0364212
-0.0382918
-0.0402862
-0.0422469
-0.0440181
-0.0455841
-0.0468666
-0.0478746
-0.0485622
-0.0489341
-0.0489866
-0.0487398
-0.0482458
-0.0475347
-0.0466761
-0.0456933
-0.0446686
-0.0436219
-0.0426266
-0.0416908
-0.0408779
-0.0401933
-0.0396814
-0.0393346
-0.0391848
-0.0392068
-0.0394269
-0.0398451
-0.0403549
-0.0359939
-0.0376648
-0.0396171
-0.0417039
-0.0437599
-0.0456196
-0.0472655
-0.0486148
-0.0496755
-0.0503993
-0.0507906
-0.0508459
-0.0505863
-0.0500665
-0.0493181
-0.0484144
-0.04738
-0.0463008
-0.0451979
-0.044148
-0.0431599
-0.0422995
-0.0415726
-0.0410253
-0.0406496
-0.0404785
-0.0404858
-0.0406984
-0.0411152
-0.0416329
-0.0371657
-0.0388984
-0.0409356
-0.0431187
-0.0452739
-0.0472261
-0.0489553
-0.0503743
-0.05149
-0.0522517
-0.0526636
-0.0527221
-0.0524497
-0.0519035
-0.0511172
-0.0501671
-0.04908
-0.0479449
-0.0467847
-0.0456789
-0.0446374
-0.0437285
-0.0429585
-0.0423753
-0.0419704
-0.0417778
-0.0417703
-0.0419752
-0.0423909
-0.0429131
-0.0383525
-0.0401515
-0.0422762
-0.0445601
-0.0468199
-0.0488696
-0.0506868
-0.0521794
-0.053353
-0.0541546
-0.0545882
-0.0546502
-0.0543645
-0.053791
-0.0529651
-0.051967
-0.050825
-0.0496322
-0.0484123
-0.0472488
-0.0461521
-0.0451935
-0.0443792
-0.0437591
-0.0433241
-0.0431093
-0.0430861
-0.0432827
-0.0436963
-0.0442259
-0.0395272
-0.0413901
-0.0436064
-0.0459959
-0.048365
-0.0505169
-0.052426
-0.0539954
-0.0552296
-0.056073
-0.0565294
-0.0565955
-0.0562966
-0.0556951
-0.0548289
-0.0537816
-0.0525834
-0.0513314
-0.0500507
-0.0488281
-0.0476752
-0.0466658
-0.0458065
-0.045149
-0.0446835
-0.0444462
-0.0444073
-0.0445953
-0.0450067
-0.0455403
-0.0407147
-0.0426445
-0.044956
-0.0474564
-0.049941
-0.0522009
-0.0542071
-0.0558576
-0.0571555
-0.0580428
-0.0585233
-0.0585938
-0.0582812
-0.0576508
-0.0567426
-0.0556443
-0.0543879
-0.0530745
-0.0517307
-0.0504472
-0.0492363
-0.0481747
-0.0472692
-0.0465733
-0.0460764
-0.0458158
-0.0457604
-0.0459389
-0.0463473
-0.0468874
-0.0418869
-0.0438814
-0.046292
-0.0489089
-0.0515143
-0.0538874
-0.0559951
-0.0577303
-0.0590948
-0.0600281
-0.060534
-0.0606094
-0.0602831
-0.0596233
-0.0586723
-0.0575218
-0.0562058
-0.0548295
-0.0534213
-0.0520755
-0.0508056
-0.049691
-0.0487386
-0.0480037
-0.0474751
-0.0471909
-0.0471186
-0.0472874
-0.0476924
-0.0482357
-0.0430707
-0.0451327
-0.0476462
-0.0503852
-0.0531181
-0.0556105
-0.0578252
-0.0596496
-0.0610839
-0.0620655
-0.0625982
-0.062679
-0.0623386
-0.0616483
-0.060653
-0.0594483
-0.0580705
-0.0566292
-0.0551544
-0.0537444
-0.0524137
-0.0512446
-0.0502441
-0.0494693
-0.048908
-0.0485994
-0.0485094
-0.0486675
-0.049068
-0.049616
-0.0442376
-0.046365
-0.0489859
-0.0518523
-0.0547183
-0.0573354
-0.0596617
-0.0615791
-0.0630862
-0.0641182
-0.0646789
-0.0647658
-0.0644113
-0.06369
-0.0626494
-0.0613893
-0.0599485
-0.0584407
-0.0568978
-0.0554223
-0.0540298
-0.0528054
-0.0517561
-0.050941
-0.0503467
-0.0500134
-0.0499053
-0.0500523
-0.0504477
-0.0509967
-0.0454155
-0.0476118
-0.0503441
-0.0533435
-0.056349
-0.0590969
-0.0615404
-0.0635552
-0.0651387
-0.0662233
-0.0668137
-0.0669071
-0.0665383
-0.0657849
-0.0646975
-0.0633801
-0.061874
-0.0602975
-0.0586843
-0.0571414
-0.0556854
-0.0544044
-0.0533052
-0.0524487
-0.0518205
-0.0514615
-0.0513345
-0.0514694
-0.0518583
-0.0524092
-0.046575
-0.0488396
-0.0516876
-0.0548255
-0.0579758
-0.0608598
-0.0634249
-0.0655411
-0.0672038
-0.0683434
-0.0689647
-0.0690652
-0.0686821
-0.0678962
-0.0667611
-0.0653851
-0.0638124
-0.0621658
-0.0604811
-0.0588695
-0.057349
-0.0560105
-0.0548608
-0.0539625
-0.0533
-0.0529151
-0.0527688
-0.0528911
-0.053273
-0.0538223
-0.0477459
-0.0500835
-0.0530512
-0.0563327
-0.0596339
-0.0626597
-0.0653518
-0.0675737
-0.0693191
-0.070516
-0.0711699
-0.0712782
-0.0708805
-0.0700612
-0.0688768
-0.0674405
-0.0657989
-0.06408
-0.0623215
-0.0606395
-0.0590529
-0.0576556
-0.0564542
-0.0555132
-0.0548155
-0.0544038
-0.0542371
-0.0543458
-0.0547196
-0.0552687
-0.0488982
-0.051309
-0.0544015
-0.0578313
-0.061288
-0.0644605
-0.0672839
-0.0696154
-0.0714464
-0.0727027
-0.0733905
-0.0735073
-0.0730952
-0.0722418
-0.0710074
-0.0695094
-0.0677979
-0.0660053
-0.0641719
-0.0624182
-0.0607646
-0.0593079
-0.0580543
-0.0570702
-0.0563369
-0.055898
-0.0557107
-0.0558053
-0.0561703
-0.0567162
-0.0500625
-0.0525522
-0.0557734
-0.0593564
-0.0629741
-0.0662986
-0.0692583
-0.0717034
-0.0736235
-0.0749417
-0.0756653
-0.0757912
-0.0753645
-0.0744763
-0.0731903
-0.071629
-0.0698453
-0.0679771
-0.0660667
-0.0642397
-0.0625175
-0.061
-0.0596932
-0.058665
-0.0578951
-0.0574282
-0.0572193
-0.0572988
-0.0576541
-0.0581986
-0.0512076
-0.0537776
-0.0571324
-0.0608733
-0.0646562
-0.0681372
-0.0712372
-0.0737996
-0.0758115
-0.0771937
-0.0779542
-0.0780901
-0.0776489
-0.0767255
-0.0753872
-0.0737614
-0.0719045
-0.0699594
-0.0679709
-0.0660697
-0.0642781
-0.0626993
-0.0613388
-0.0602661
-0.0594594
-0.0589642
-0.0587332
-0.0587973
-0.0591425
-0.0596825
-0.0523653
-0.0550216
-0.058514
-0.0624172
-0.0663705
-0.0700128
-0.0732578
-0.0759414
-0.0780487
-0.0794972
-0.0802968
-0.0804433
-0.0799877
-0.0790285
-0.0776365
-0.0759447
-0.0740126
-0.0719888
-0.0699204
-0.0679433
-0.0660809
-0.0644396
-0.0630241
-0.0619061
-0.0610616
-0.0605372
-0.0602832
-0.0603309
-0.0606651
-0.0612026
-0.0535037
-0.0562475
-0.0598828
-0.0639526
-0.0680802
-0.071888
-0.0752819
-0.0780902
-0.0802953
-0.0818123
-0.082652
-0.08281
-0.0823402
-0.0813447
-0.0798985
-0.0781397
-0.0761315
-0.074028
-0.0718788
-0.0698251
-0.0678913
-0.0661869
-0.0647163
-0.0635526
-0.06267
-0.062116
-0.0618389
-0.0618697
-0.0621926
-0.0627249
-0.0546547
-0.0574917
-0.0612736
-0.0655145
-0.0698215
-0.0737994
-0.0773466
-0.0802832
-0.0825898
-0.0841777
-0.0850598
-0.0852303
-0.0847465
-0.0837144
-0.0822128
-0.0803856
-0.0782996
-0.0761149
-0.0738831
-0.0717514
-0.0697449
-0.0679763
-0.0664493
-0.0652391
-0.0643173
-0.063733
-0.0634317
-0.0634449
-0.0637557
-0.0642848
-0.0557848
-0.0587165
-0.06265
-0.0670666
-0.0715569
-0.0757092
-0.0794132
-0.0824816
-0.0848919
-0.0865528
-0.0874782
-0.087662
-0.0871647
-0.0860957
-0.0845383
-0.082642
-0.0804776
-0.0782107
-0.075896
-0.0736857
-0.071606
-0.0697727
-0.0681892
-0.0669323
-0.0659712
-0.0653563
-0.0650306
-0.0650257
-0.0653243
-0.0658475
-0.0569267
-0.0599578
-0.0640466
-0.0686434
-0.0733222
-0.0776534
-0.0815186
-0.0847223
-0.0872403
-0.0889766
-0.0899479
-0.0901462
-0.0896357
-0.0885298
-0.0869158
-0.0849493
-0.0827051
-0.0803549
-0.0779555
-0.0756654
-0.0735113
-0.0716123
-0.069971
-0.0686665
-0.067665
-0.0670189
-0.0666679
-0.0666442
-0.0669298
-0.0674494
-0.0580461
-0.0611774
-0.0654265
-0.0702081
-0.0750797
-0.079594
-0.083624
-0.0869663
-0.089594
-0.0914078
-0.0924259
-0.0926395
-0.0921165
-0.0909737
-0.0893029
-0.0872657
-0.0849412
-0.0825071
-0.0800229
-0.0776528
-0.075424
-0.073459
-0.0717598
-0.0704076
-0.069366
-0.0686885
-0.0683122
-0.0682694
-0.0685419
-0.0690553
-0.0591751
-0.0624105
-0.0668235
-0.0717948
-0.0768645
-0.0815667
-0.0857657
-0.0892502
-0.0919918
-0.0938857
-0.0949535
-0.095184
-0.0946491
-0.0934695
-0.0917414
-0.0896328
-0.087227
-0.0847082
-0.0821376
-0.0796864
-0.0773818
-0.0753498
-0.0735914
-0.0721909
-0.0711082
-0.0703987
-0.0699963
-0.0699337
-0.0701925
-0.0707018
-0.0602787
-0.0636187
-0.0682002
-0.0733663
-0.0786388
-0.0835334
-0.0879052
-0.0915352
-0.0943924
-0.0963684
-0.0974866
-0.097735
-0.0971889
-0.095973
-0.0941876
-0.0920075
-0.0895203
-0.0869164
-0.0842597
-0.0817275
-0.0793471
-0.0772476
-0.0754302
-0.0739817
-0.0728588
-0.0721176
-0.071689
-0.0716065
-0.0718514
-0.0723539
-0.0613892
-0.0648364
-0.0695897
-0.0749559
-0.0804372
-0.0855292
-0.0900781
-0.0938572
-0.0968349
-0.0988957
-0.100068
-0.100336
-0.0997794
-0.0985275
-0.0966848
-0.0944327
-0.0918633
-0.0891739
-0.0864296
-0.0838156
-0.0813584
-0.0791906
-0.0773129
-0.0758158
-0.0746523
-0.0738789
-0.0734237
-0.0733206
-0.073551
-0.0740484
-0.0624707
-0.066025
-0.0709554
-0.076527
-0.0822221
-0.0875162
-0.0922461
-0.0961776
-0.0992772
-0.101425
-0.102651
-0.10294
-0.102374
-0.101087
-0.0991877
-0.0968638
-0.0942124
-0.0914376
-0.0886067
-0.0859113
-0.0833774
-0.0811411
-0.0792035
-0.0776585
-0.0764561
-0.0756511
-0.0751695
-0.0750458
-0.0752615
-0.0757508
-0.0635556
-0.0672183
-0.0723289
-0.0781117
-0.0840273
-0.0895289
-0.0944442
-0.0985319
-0.101759
-0.103997
-0.105281
-0.105592
-0.105019
-0.103697
-0.101741
-0.0993452
-0.0966113
-0.0937509
-0.0908321
-0.0880549
-0.0854435
-0.0831378
-0.081139
-0.0795458
-0.0783049
-0.0774682
-0.0769597
-0.0768148
-0.0770152
-0.0774978
-0.0646056
-0.0683776
-0.0736736
-0.0796741
-0.0858156
-0.0915298
-0.0966347
-0.100882
-0.104238
-0.106568
-0.107911
-0.108245
-0.107665
-0.10631
-0.104297
-0.101831
-0.0990149
-0.0960695
-0.0930648
-0.0902066
-0.0875181
-0.085143
-0.0830837
-0.0814433
-0.0801658
-0.079298
-0.078763
-0.0785968
-0.0787817
-0.0792544
-0.0656527
-0.0695351
-0.0750205
-0.0812452
-0.0876202
-0.0935528
-0.0988519
-0.103263
-0.106753
-0.109179
-0.110584
-0.110945
-0.110358
-0.108971
-0.106904
-0.104366
-0.101469
-0.0984382
-0.0953468
-0.0924076
-0.089641
-0.0871956
-0.0850745
-0.0833866
-0.0820739
-0.0811749
-0.0806134
-0.0804253
-0.0805942
-0.0810582
-0.0666591
-0.0706529
-0.0763343
-0.0827902
-0.0894046
-0.095561
-0.101059
-0.105637
-0.109263
-0.111786
-0.113255
-0.113642
-0.113051
-0.111633
-0.109512
-0.106905
-0.103926
-0.100812
-0.0976367
-0.0946176
-0.0917739
-0.0892582
-0.0870761
-0.0853414
-0.0839941
-0.0830642
-0.0824764
-0.0822663
-0.0824191
-0.0828711
-0.0676578
-0.0717629
-0.0776444
-0.084339
-0.0912011
-0.0975876
-0.103289
-0.108039
-0.111807
-0.114432
-0.115968
-0.116384
-0.11579
-0.114342
-0.112169
-0.109493
-0.106434
-0.103236
-0.0999774
-0.0968786
-0.0939563
-0.0913694
-0.0891245
-0.0873425
-0.0859592
-0.0849976
-0.0843833
-0.084151
-0.0842876
-0.0847289
-0.0686093
-0.0728279
-0.0789167
-0.0858582
-0.0929743
-0.0995967
-0.105506
-0.110431
-0.114343
-0.117071
-0.118675
-0.119121
-0.118525
-0.117049
-0.114826
-0.112084
-0.108945
-0.105665
-0.102326
-0.0991485
-0.0961489
-0.0934906
-0.0911838
-0.0893532
-0.0879321
-0.0869376
-0.0862969
-0.0860423
-0.0861632
-0.0865915
-0.0695467
-0.0738792
-0.0801802
-0.0873764
-0.0947558
-0.101621
-0.107743
-0.112848
-0.116911
-0.119747
-0.121423
-0.121902
-0.121305
-0.119803
-0.117532
-0.114726
-0.111508
-0.108145
-0.104728
-0.101471
-0.098392
-0.0956605
-0.0932899
-0.0914079
-0.0899461
-0.0889168
-0.0882493
-0.0879727
-0.0880787
-0.0884976
-0.0704331
-0.0748816
-0.0814033
-0.0888627
-0.0965114
-0.103625
-0.109965
-0.115253
-0.119467
-0.122414
-0.124162
-0.124675
-0.124079
-0.122552
-0.120238
-0.117368
-0.114073
-0.11063
-0.107135
-0.103799
-0.100642
-0.0978374
-0.0954028
-0.0934672
-0.0919611
-0.0908952
-0.0902007
-0.0899029
-0.0899958
-0.0904044
-0.0713029
-0.0758672
-0.0826135
-0.090344
-0.0982719
-0.10564
-0.112204
-0.117681
-0.122055
-0.125115
-0.126942
-0.127492
-0.126898
-0.125348
-0.122994
-0.120064
-0.116691
-0.113167
-0.109591
-0.106174
-0.102937
-0.100057
-0.0975563
-0.0955634
-0.0940094
-0.0929047
-0.0921835
-0.0918656
-0.0919476
-0.0923508
-0.0721198
-0.0768028
-0.0837825
-0.0917926
-0.100005
-0.107634
-0.114426
-0.120095
-0.124629
-0.127807
-0.129712
-0.1303
-0.12971
-0.128139
-0.125747
-0.122758
-0.119309
-0.115703
-0.112046
-0.108546
-0.10523
-0.102274
-0.0997075
-0.0976549
-0.09605
-0.0949051
-0.0941577
-0.0938215
-0.0938958
-0.0942948
-0.0729206