/*--------------------------------*- C++ -*----------------------------------*\
  =========                 |
  \\      /  F ield         | OpenFOAM: The Open Source CFD Toolbox
   \\    /   O peration     | Website:  https://openfoam.org
    \\  /    A nd           | Version:  6.0
     \\/     M anipulation  |
\*---------------------------------------------------------------------------*/
FoamFile
{
    version     2.0;
    format      ascii;
    class       volScalarField;
    location    "7";
    object      p;
}
// * * * * * * * * * * * * * * * * * * * * * * * * * * * * * * * * * * * * * //

dimensions      [0 2 -2 0 0 0 0];

internalField   nonuniform List<scalar> 
62000
(
0.0406951
0.0403116
0.0399155
0.0395157
0.0391127
0.0387089
0.0382999
0.0378848
0.0374583
0.0370207
0.0365672
0.036099
0.0356109
0.0351046
0.0345743
0.0340216
0.0334398
0.0328307
0.032187
0.0315102
0.0307928
0.0300362
0.0292329
0.0283842
0.0274832
0.0265316
0.0255235
0.0244611
0.0233407
0.0221652
0.0209334
0.0196489
0.0183163
0.0169434
0.0155418
0.0141187
0.0126793
0.0112285
0.00977026
0.00830563
0.0068303
0.00533372
0.00379901
0.00220484
0.000529726
-0.00124206
-0.00311106
-0.00505602
-0.00702585
-0.00894003
-0.010692
-0.0121624
-0.0132232
-0.0137701
-0.0137182
-0.0130039
-0.0116185
-0.00946867
-0.00690474
-0.00943923
0.041064
0.0406517
0.0402194
0.0397746
0.039326
0.0388848
0.0384514
0.0380252
0.0375991
0.0371705
0.036732
0.0362826
0.035816
0.0353324
0.0348255
0.0342959
0.0337369
0.0331493
0.0325263
0.0318684
0.031169
0.0304283
0.0296402
0.0288045
0.0279159
0.0269743
0.0259757
0.0249204
0.0238066
0.0226351
0.0214061
0.0201215
0.0187853
0.0174078
0.016
0.01457
0.0131228
0.0116632
0.0101958
0.00872235
0.00723865
0.00573319
0.00418658
0.0025726
0.000862033
-0.000971704
-0.00294227
-0.00504231
-0.00723207
-0.00943538
-0.0115388
-0.0134
-0.0148464
-0.0157079
-0.0158124
-0.0149896
-0.0131385
-0.0101438
-0.00677156
-0.00322238
0.0415928
0.0412515
0.0408797
0.0404711
0.040036
0.0395925
0.0391488
0.0387101
0.0382715
0.0378305
0.0373794
0.0369166
0.0364355
0.0359365
0.0354134
0.0348673
0.0342917
0.0336874
0.0330479
0.0323733
0.0316571
0.0308992
0.0300933
0.0292391
0.0283313
0.0273693
0.0263494
0.0252713
0.0241336
0.0229367
0.0216811
0.0203677
0.0190017
0.0175939
0.0161583
0.0147047
0.0132406
0.0117738
0.0103134
0.00886705
0.00743719
0.00601978
0.00460301
0.00316726
0.0016879
0.000139531
-0.00149472
-0.00321596
-0.004998
-0.00678093
-0.00847041
-0.00994136
-0.0110378
-0.0115989
-0.0114663
-0.0105048
-0.00870568
-0.00625822
-0.00419342
-0.00188759
0.0425091
0.0422665
0.0419867
0.0416535
0.0412738
0.040867
0.0404467
0.0400232
0.0395951
0.0391608
0.0387126
0.0382483
0.0377614
0.0372522
0.0367153
0.0361522
0.0355573
0.0349322
0.0342708
0.0335739
0.0328354
0.0320551
0.0312272
0.0303509
0.0294212
0.0284372
0.027395
0.026294
0.0251325
0.0239107
0.0226286
0.0212867
0.0198896
0.0184493
0.0169808
0.0154957
0.0140038
0.0125153
0.0110433
0.00960103
0.00819772
0.00683755
0.0055179
0.00422817
0.00295157
0.00166777
0.000360463
-0.000977066
-0.00233149
-0.00366237
-0.00490253
-0.00595871
-0.00671341
-0.0070455
-0.00684689
-0.00605801
-0.00478085
-0.00342636
-0.00294629
-0.00174862
0.0437193
0.0435457
0.043334
0.0430653
0.0427409
0.0423781
0.0419931
0.0415998
0.0411996
0.040792
0.0403694
0.0399287
0.0394625
0.0389704
0.0384469
0.0378934
0.037305
0.0366833
0.0360234
0.0353264
0.0345867
0.0338047
0.0329749
0.0320966
0.0311651
0.0301792
0.0291351
0.0280319
0.0268676
0.0256416
0.0243533
0.0230025
0.0215928
0.0201356
0.0186459
0.0171359
0.015616
0.0140971
0.012594
0.0111229
0.00969742
0.00832745
0.00701739
0.00576431
0.00455878
0.00338625
0.00223296
0.00108981
-3.88378e-05
-0.00112792
-0.00213364
-0.00299141
-0.00362087
-0.00393876
-0.00387683
-0.00342715
-0.0027351
-0.0022718
-0.00260264
-0.00204357
0.0450452
0.044901
0.0447241
0.0444955
0.0442102
0.0438819
0.0435274
0.0431628
0.0427919
0.0424156
0.0420265
0.041621
0.0411908
0.0407346
0.0402459
0.0397255
0.0391683
0.0385757
0.037943
0.0372715
0.0365558
0.0357968
0.0349892
0.0341327
0.0332226
0.032258
0.031235
0.0301525
0.0290079
0.0278004
0.0265285
0.0251908
0.0237896
0.0223352
0.0208417
0.0193204
0.0177811
0.0162339
0.0146934
0.0131765
0.0116985
0.0102725
0.00890744
0.00760588
0.00636449
0.00517425
0.00402513
0.00290834
0.00182372
0.000786675
-0.000175051
-0.00101703
-0.00168541
-0.00212284
-0.00228231
-0.00217485
-0.00193174
-0.0020092
-0.002612
-0.002379
0.046446
0.0463032
0.0461349
0.045923
0.0456568
0.0453465
0.0450087
0.0446609
0.0443087
0.0439542
0.0435909
0.0432153
0.0428185
0.0423984
0.0419478
0.0414666
0.0409491
0.0403963
0.0398033
0.0391709
0.038494
0.0377733
0.0370036
0.0361846
0.0353119
0.0343843
0.033398
0.0323517
0.0312426
0.0300692
0.0288293
0.0275206
0.0261439
0.0247081
0.0232257
0.0217066
0.020159
0.0185915
0.0170173
0.0154525
0.0139124
0.0124112
0.0109605
0.0095664
0.00823032
0.00694811
0.00571385
0.00452096
0.00336809
0.00226606
0.00123324
0.000302272
-0.000490538
-0.0011025
-0.00149114
-0.00166524
-0.00171834
-0.00208471
-0.00272222
-0.00264567
0.0478945
0.0477401
0.0475672
0.0473583
0.0470981
0.0467938
0.0464616
0.0461194
0.0457743
0.0454296
0.0450799
0.0447221
0.0443477
0.0439539
0.0435335
0.0430855
0.0426038
0.0420889
0.0415353
0.0409434
0.040308
0.0396293
0.0389022
0.0381261
0.0372964
0.036412
0.0354689
0.0344654
0.0333985
0.0322664
0.0310659
0.0297941
0.0284504
0.0270422
0.0255804
0.0240731
0.0225266
0.0209477
0.0193473
0.0177399
0.0161401
0.0145618
0.0130176
0.0115161
0.0100618
0.00865488
0.00729338
0.00597388
0.00469606
0.00346963
0.00230854
0.00123979
0.000289882
-0.000505513
-0.00110096
-0.00149361
-0.00173517
-0.00225359
-0.00283818
-0.00281751
0.0494307
0.0492585
0.0490729
0.0488571
0.0485925
0.0482843
0.0479478
0.0476017
0.0472535
0.0469077
0.0465596
0.0462068
0.0458413
0.0454605
0.0450569
0.0446295
0.0441719
0.0436842
0.0431606
0.0426013
0.0420008
0.0413589
0.0406701
0.0399336
0.0391445
0.0383015
0.0374003
0.0364388
0.0354139
0.0343229
0.0331625
0.0319287
0.0306199
0.0292424
0.0278049
0.0263142
0.0247745
0.0231904
0.0215709
0.0199283
0.0182759
0.0166268
0.0149936
0.0133861
0.0118113
0.0102726
0.00877179
0.00730887
0.00588569
0.00451309
0.00320367
0.00198302
0.000871305
-9.84949e-05
-0.000873114
-0.00143555
-0.0018013
-0.00240668
-0.00291398
-0.00289139
0.0510145
0.0508244
0.0506253
0.0504004
0.0501288
0.0498139
0.0494705
0.0491171
0.0487619
0.0484099
0.0480572
0.0477019
0.0473367
0.0469591
0.0465621
0.0461446
0.0457002
0.0452289
0.0447248
0.0441877
0.0436122
0.0429976
0.0423384
0.0416334
0.0408776
0.0400692
0.0392036
0.0382785
0.0372902
0.0362358
0.0351112
0.0339119
0.0326355
0.0312865
0.029873
0.0283995
0.0268684
0.0252827
0.023649
0.0219777
0.0202804
0.018569
0.0168556
0.0151506
0.0134627
0.0117977
0.0101607
0.00855502
0.00698513
0.00546413
0.00400504
0.00263444
0.001369
0.000241139
-0.000688495
-0.00138926
-0.00184654
-0.00251367
-0.00294436
-0.00288592
0.0526881
0.0524805
0.0522667
0.0520297
0.0517475
0.0514221
0.051068
0.0507038
0.0503378
0.0499755
0.0496133
0.0492498
0.048878
0.0484958
0.0480965
0.0476791
0.0472376
0.0467718
0.0462761
0.0457503
0.0451888
0.044591
0.0439511
0.0432678
0.0425358
0.0417529
0.0409143
0.0400174
0.039058
0.0380328
0.0369374
0.0357663
0.0345165
0.0331919
0.0317985
0.0303398
0.0288165
0.0272297
0.0255841
0.0238883
0.0221522
0.0203865
0.0186024
0.0168104
0.0150204
0.01324
0.011477
0.0097378
0.00802949
0.00636795
0.00476739
0.00325674
0.00184948
0.000578228
-0.000488202
-0.00130707
-0.00183996
-0.00256036
-0.00292173
-0.00280986
0.0544203
0.0541978
0.0539712
0.0537235
0.0534312
0.0530954
0.0527305
0.0523548
0.0519772
0.051603
0.0512295
0.0508551
0.0504736
0.0500828
0.0496766
0.0492539
0.048809
0.0483419
0.0478471
0.0473244
0.0467683
0.0461781
0.0455483
0.0448772
0.0441595
0.0433928
0.0425722
0.0416946
0.0407556
0.0397515
0.0386773
0.0375272
0.0362976
0.0349907
0.0336123
0.0321642
0.0306457
0.0290564
0.0273993
0.0256813
0.0239106
0.0220966
0.0202497
0.0183802
0.0164984
0.0146137
0.0127358
0.010874
0.00903767
0.0072455
0.0055133
0.00387277
0.00233534
0.000933979
-0.000256272
-0.00118203
-0.00178465
-0.00255773
-0.00285752
-0.00268241
0.0562542
0.0560166
0.0557758
0.0555151
0.05521
0.0548613
0.054483
0.0540939
0.0537027
0.0533149
0.0529278
0.0525403
0.0521458
0.051743
0.0513254
0.0508925
0.0504387
0.0499641
0.0494635
0.0489368
0.0483787
0.0477885
0.0471607
0.0464937
0.0457821
0.0450233
0.0442123
0.0433456
0.0424188
0.0414277
0.0403671
0.0392305
0.0380136
0.0367185
0.035349
0.0339065
0.0323887
0.0307941
0.0291241
0.0273841
0.0255809
0.0237227
0.0218188
0.0198793
0.0179148
0.0159357
0.0139536
0.0119799
0.0100261
0.00811372
0.00625993
0.0044997
0.00284171
0.00131934
1.42983e-05
-0.00101062
-0.0016799
-0.00250555
-0.00274858
-0.00250749
0.0581285
0.0578782
0.0576259
0.0573547
0.0570394
0.0566801
0.0562911
0.0558906
0.0554878
0.0550881
0.0546889
0.0542891
0.0538826
0.0534677
0.0530385
0.0525943
0.0521299
0.0516455
0.051136
0.0506013
0.0500366
0.0494411
0.0488094
0.0481401
0.0474278
0.0466699
0.0458613
0.0449984
0.0440765
0.0430911
0.0420368
0.0409068
0.0396964
0.038406
0.0370399
0.0355976
0.0340761
0.0324728
0.0307877
0.0290249
0.0271898
0.0252896
0.0233325
0.0213282
0.0192874
0.0172213
0.0151428
0.0130654
0.0110023
0.00897745
0.00700932
0.00513626
0.00336495
0.00172904
0.000315332
-0.000804696
-0.00153999
-0.00241877
-0.00260808
-0.00230067
0.0600972
0.0598344
0.0595701
0.0592869
0.0589595
0.0585877
0.0581859
0.0577725
0.0573569
0.0569443
0.0565322
0.0561192
0.0556994
0.0552711
0.0548284
0.0543708
0.0538932
0.0533959
0.0528741
0.052328
0.0517527
0.0511476
0.0505075
0.049831
0.0491128
0.0483502
0.0475382
0.046673
0.0457498
0.044764
0.0437099
0.0425803
0.0413698
0.0400793
0.0387106
0.0372635
0.0357338
0.0341179
0.0324148
0.0306273
0.0287598
0.0268182
0.0248101
0.0227444
0.020632
0.0184844
0.0163158
0.0141412
0.0119755
0.00984463
0.00776812
0.005788
0.00390831
0.0021631
0.000645087
-0.000566069
-0.00136566
-0.00229598
-0.00243166
-0.00206123
0.0621208
0.0618479
0.0615739
0.061281
0.0609432
0.0605602
0.0601466
0.0597209
0.0592927
0.0588672
0.0584422
0.058016
0.0575831
0.0571414
0.0566854
0.0562143
0.0557234
0.0552127
0.0546778
0.0541187
0.0535308
0.0529135
0.052262
0.0515748
0.0508468
0.0500753
0.0492553
0.048383
0.0474535
0.0464622
0.0454029
0.0442685
0.0430533
0.0417565
0.0403808
0.0389241
0.0373819
0.0357497
0.0340257
0.0322113
0.0303102
0.0283271
0.0262686
0.0241433
0.0219618
0.0197361
0.017481
0.0152132
0.0129487
0.0107153
0.00853341
0.00644875
0.00446373
0.00261275
0.000993344
-0.000306778
-0.00116978
-0.00215003
-0.00223162
-0.00180154
0.0642523
0.063968
0.0636819
0.0633764
0.0630253
0.0626282
0.0622002
0.0617599
0.0613171
0.0608771
0.0604373
0.0599964
0.0595483
0.0590916
0.0586202
0.0581337
0.0576271
0.057101
0.0565506
0.0559763
0.0553736
0.0547419
0.0540765
0.0533759
0.052635
0.0518514
0.0510199
0.0501367
0.049197
0.0481958
0.0471273
0.0459836
0.0447586
0.0434521
0.0420646
0.0405942
0.0390356
0.0373835
0.0356353
0.0337916
0.031855
0.0298292
0.0277203
0.0255361
0.0232869
0.0209851
0.0186461
0.016288
0.0139276
0.0115945
0.00930939
0.00712243
0.00503367
0.00307844
0.00136002
-2.58873e-05
-0.000949705
-0.00197644
-0.0020015
-0.00151749
0.0664175
0.0661234
0.0658278
0.0655125
0.065151
0.0647428
0.0643032
0.0638508
0.0633957
0.0629429
0.0624902
0.0620359
0.0615744
0.0611035
0.060618
0.0601168
0.0595954
0.059054
0.0584883
0.0578983
0.0572799
0.0566326
0.0559516
0.0552357
0.0544799
0.0536816
0.0528359
0.051939
0.0509858
0.0499715
0.04889
0.0477334
0.0464956
0.0451746
0.0437719
0.0422841
0.0407055
0.0390304
0.0372552
0.0353797
0.0334057
0.031336
0.0291758
0.0269323
0.0246158
0.0222384
0.0198162
0.0173685
0.0149132
0.0124807
0.0100922
0.00780267
0.00561079
0.00355282
0.00173689
0.000266938
-0.000716041
-0.00178642
-0.00175311
-0.0012207
0.0686781
0.0683735
0.0680669
0.0677395
0.0673651
0.0669432
0.0664895
0.0660231
0.065554
0.0650872
0.0646204
0.0641517
0.0636753
0.0631893
0.062688
0.0621707
0.0616328
0.0610746
0.0604919
0.0598848
0.0592493
0.0585849
0.0578869
0.0571542
0.0563817
0.0555669
0.054705
0.0537919
0.0528229
0.0517928
0.0506956
0.0495231
0.0482687
0.0469311
0.0455095
0.0440012
0.0423994
0.0406981
0.038893
0.0369832
0.0349695
0.0328541
0.0306413
0.0283378
0.0259535
0.0235006
0.0209954
0.0184587
0.0159089
0.0133775
0.0108856
0.00849347
0.00619827
0.00403761
0.0021257
0.000574641
-0.000464268
-0.00157416
-0.00147913
-0.000905551
0.070986
0.0706725
0.0703569
0.0700196
0.0696339
0.0691996
0.0687329
0.0682527
0.0677698
0.0672888
0.0668078
0.0663245
0.0658337
0.0653326
0.0648162
0.0642833
0.0637296
0.063155
0.0625556
0.0619314
0.0612785
0.0605965
0.0598808
0.0591302
0.0583398
0.0575071
0.0566273
0.0556964
0.0547094
0.0536614
0.0525461
0.0513553
0.0500824
0.0487244
0.0472818
0.0457499
0.0441223
0.0423921
0.0405547
0.0386083
0.036553
0.03439
0.032123
0.0297583
0.0273051
0.0247755
0.0221864
0.0195597
0.0169144
0.0142825
0.0116854
0.00918887
0.00678963
0.0045266
0.00251956
0.00088891
-0.000203846
-0.00135007
-0.00119111
-0.000583093
0.0733989
0.0730742
0.0727461
0.0723951
0.0719945
0.0715444
0.0710612
0.0705648
0.0700654
0.0695683
0.0690709
0.0685714
0.0680638
0.0675461
0.0670124
0.0664621
0.0658905
0.065298
0.0646804
0.0640378
0.0633665
0.0626659
0.0619315
0.0611621
0.0603528
0.0595011
0.0586021
0.057652
0.0566456
0.0555779
0.0544427
0.0532316
0.0519373
0.0505578
0.0490912
0.0475336
0.0458776
0.0441161
0.0422438
0.0402583
0.038159
0.0359464
0.0336234
0.0311958
0.0286724
0.026065
0.023391
0.0206735
0.0179317
0.0151985
0.0124948
0.00989306
0.00738857
0.00502254
0.0029216
0.00121422
7.11698e-05
-0.0011071
-0.00088071
-0.000246187
0.0758331
0.0754983
0.0751603
0.0747984
0.074386
0.0739231
0.0734267
0.0729165
0.0724033
0.071892
0.0713804
0.0708661
0.0703436
0.0698102
0.0692608
0.0686942
0.0681059
0.067496
0.0668607
0.0662
0.0655101
0.0647905
0.0640369
0.0632481
0.0624191
0.0615475
0.0606284
0.0596579
0.0586308
0.0575422
0.0563855
0.0551524
0.0538357
0.0524316
0.0509396
0.049354
0.0476674
0.0458725
0.0439632
0.0419366
0.0397913
0.0375271
0.0351463
0.0326539
0.0300583
0.0273714
0.0246105
0.0218002
0.0189595
0.0161226
0.0133097
0.0106004
0.00798941
0.00552015
0.00332589
0.00154311
0.000351895
-0.000855337
-0.000559475
9.32744e-05
0.0783569
0.078011
0.0776607
0.0772853
0.0768581
0.0763794
0.075867
0.0753408
0.0748118
0.0742848
0.0737574
0.0732273
0.0726884
0.0721383
0.0715716
0.0709871
0.0703804
0.0697519
0.0690975
0.0684175
0.0677081
0.0669688
0.0661953
0.0653862
0.0645369
0.0636447
0.0627048
0.061713
0.0606643
0.0595536
0.0583743
0.0571178
0.0557765
0.0543475
0.0528277
0.0512123
0.0494933
0.0476627
0.0457141
0.0436441
0.0414506
0.0391325
0.0366917
0.0341324
0.0314628
0.0286943
0.0258449
0.0229401
0.0199988
0.0170565
0.0141331
0.0113147
0.00859567
0.00602231
0.0037358
0.00188033
0.000644445
-0.00058773
-0.000218949
0.000442959
0.0809185
0.0805629
0.0802026
0.0798157
0.0793754
0.0788824
0.0783547
0.0778128
0.0772681
0.0767252
0.0761819
0.0756356
0.0750806
0.0745139
0.0739305
0.0733287
0.0727045
0.0720578
0.071385
0.0706858
0.069957
0.0691978
0.0684041
0.0675746
0.0667045
0.0657911
0.0648297
0.063816
0.0627449
0.0616113
0.0604083
0.0591274
0.0577611
0.0563044
0.054756
0.0531091
0.0513558
0.0494878
0.0474982
0.0453828
0.043139
0.0407651
0.0382621
0.0356338
0.0328877
0.0300356
0.027095
0.0240931
0.0210479
0.0179977
0.0149606
0.0120308
0.009202
0.00652398
0.00414559
0.0022186
0.000939955
-0.00031436
0.000129287
0.000790612
0.0835797
0.0832115
0.0828371
0.0824345
0.0819769
0.0814656
0.0809192
0.0803586
0.0797953
0.0792343
0.0786728
0.0781084
0.0775349
0.0769498
0.0763474
0.0757266
0.0750829
0.0744166
0.0737238
0.0730046
0.0722555
0.0714759
0.0706616
0.0698112
0.0689199
0.0679851
0.0670017
0.0659657
0.0648717
0.0637144
0.0624871
0.061181
0.0597876
0.0583035
0.0567245
0.0550448
0.0532555
0.0513482
0.0493153
0.0471524
0.044856
0.042424
0.0398564
0.0371567
0.0343319
0.0313936
0.0283599
0.0252585
0.0221074
0.0189469
0.0157954
0.0127523
0.00981165
0.00702816
0.00455901
0.00256314
0.00124503
-2.77698e-05
0.000494381
0.00114515
0.0862504
0.0858707
0.0854846
0.0850693
0.0845978
0.0840716
0.0835097
0.0829334
0.0823543
0.0817772
0.0811997
0.0806188
0.0800288
0.0794265
0.0788068
0.078168
0.0775061
0.0768209
0.0761089
0.07537
0.0746009
0.0738009
0.0729658
0.0720944
0.0711817
0.0702251
0.0692196
0.0681609
0.0670435
0.0658622
0.0646098
0.0632776
0.0618574
0.0603434
0.0587333
0.0570192
0.0551925
0.0532442
0.0511664
0.048954
0.0466033
0.0441109
0.0414767
0.0387031
0.0357971
0.03277
0.0296405
0.0264362
0.0231762
0.0199019
0.0166337
0.0134745
0.0104199
0.0075304
0.00497078
0.00290701
0.001551
0.000262014
0.000864938
0.00149307
0.089002
0.0886092
0.0882088
0.0877776
0.0872889
0.0867444
0.0861641
0.0855695
0.0849726
0.084378
0.083783
0.0831847
0.0825767
0.0819563
0.0813177
0.0806598
0.0799782
0.0792731
0.0785409
0.0777816
0.0769918
0.0761711
0.0753151
0.0744225
0.0734884
0.07251
0.0714822
0.0704005
0.0692596
0.0680538
0.0667762
0.0654173
0.0639684
0.0624251
0.060782
0.0590324
0.0571667
0.0551757
0.053051
0.0507871
0.0483796
0.0458246
0.0431213
0.0402713
0.0372817
0.0341632
0.0309356
0.0276256
0.0242545
0.0208637
0.0174787
0.0142006
0.0110295
0.00803335
0.00538443
0.00325516
0.00186418
0.000562014
0.00124948
0.00184381
0.0917794
0.0913747
0.0909621
0.0905171
0.0900129
0.0894515
0.0888536
0.0882411
0.0876265
0.0870141
0.0864017
0.0857857
0.0851603
0.0845221
0.0838658
0.0831897
0.0824896
0.0817657
0.0810142
0.0802352
0.0794255
0.0785844
0.0777077
0.0767941
0.0758387
0.0748385
0.0737885
0.0726839
0.0715193
0.0702889
0.0689854
0.0675994
0.0661222
0.0645469
0.0628705
0.0610839
0.0591779
0.0571427
0.0549696
0.0526526
0.0501866
0.0475671
0.0447924
0.0418638
0.0387878
0.0355755
0.0322466
0.0288277
0.025342
0.0218314
0.0183273
0.0149272
0.0116369
0.00853292
0.00579479
0.00360063
0.00217575
0.000861993
0.00163311
0.00218359
0.0946461
0.0942262
0.0937966
0.0933329
0.0928085
0.092226
0.0916067
0.0909733
0.0903381
0.089706
0.0890739
0.0884388
0.087794
0.0871367
0.0864608
0.0857653
0.0850454
0.0843017
0.0835302
0.0827312
0.0819012
0.0810399
0.0801427
0.0792084
0.0782318
0.0772101
0.0761378
0.0750104
0.0738221
0.0725669
0.0712375
0.0698239
0.0683166
0.0667103
0.0649987
0.063174
0.0612262
0.0591452
0.056922
0.0545499
0.0520235
0.0493373
0.0464888
0.0434792
0.0403145
0.0370056
0.033573
0.0300422
0.0264397
0.0228063
0.0191831
0.0156576
0.0122447
0.00903193
0.00620561
0.00394856
0.0024922
0.00116889
0.00202144
0.0025237
0.0975077
0.0970733
0.0966293
0.0961503
0.0956093
0.0950096
0.0943728
0.0937218
0.0930694
0.0924202
0.0917712
0.091119
0.0904573
0.0897826
0.0890894
0.088376
0.0876381
0.0868759
0.0860857
0.0852675
0.0844181
0.0835369
0.0826196
0.0816648
0.0806673
0.0796242
0.07853
0.0773799
0.0761678
0.0748879
0.073532
0.0720904
0.0705535
0.0689136
0.0671665
0.0653025
0.0633117
0.0611838
0.0589092
0.0564808
0.0538924
0.0511377
0.0482136
0.0451207
0.0418647
0.0384567
0.0349172
0.0312713
0.0275483
0.023789
0.0200436
0.0163897
0.0128507
0.00952732
0.00661232
0.00429237
0.00280504
0.00147254
0.00240245
0.00284919
0.100443
0.0999923
0.0995311
0.0990334
0.0984725
0.0978521
0.0971947
0.0965239
0.0958523
0.0951847
0.0945177
0.0938478
0.093168
0.0924754
0.0917637
0.0910317
0.0902746
0.0894933
0.0886835
0.0878459
0.0869767
0.0860758
0.0851384
0.0841634
0.0831453
0.082081
0.080965
0.0797923
0.0785567
0.0772517
0.0758696
0.0743996
0.0728313
0.0711586
0.0693743
0.0674699
0.0654351
0.063259
0.0609316
0.0584453
0.0557932
0.0529681
0.0499661
0.0467876
0.0434379
0.0399281
0.036279
0.0325151
0.0286691
0.024781
0.0209125
0.0171258
0.0134572
0.0100217
0.00701836
0.00463688
0.00312027
0.00177961
0.00278541
0.00317175
0.103398
0.102933
0.102458
0.101944
0.101365
0.100725
0.100049
0.0993582
0.0986677
0.0979815
0.0972965
0.0966088
0.0959118
0.0952016
0.0944727
0.0937231
0.0929485
0.0921491
0.0913211
0.0904648
0.0895767
0.0886564
0.0876995
0.0867045
0.085666
0.0845808
0.0834433
0.0822481
0.0809889
0.0796592
0.0782501
0.0767514
0.0751522
0.0734441
0.0716225
0.069677
0.0675972
0.0653721
0.0629911
0.0604459
0.0577288
0.0548317
0.0517501
0.0484839
0.0450381
0.0414238
0.0376621
0.0337765
0.0298042
0.0257834
0.0217883
0.0178652
0.0140629
0.0105125
0.0074194
0.00497555
0.00342941
0.0020802
0.00315909
0.00347606
0.106447
0.105964
0.105468
0.104933
0.104332
0.103669
0.102969
0.102256
0.101544
0.100837
0.100132
0.0994245
0.0987078
0.0979788
0.0972305
0.096462
0.0956681
0.0948497
0.0940024
0.093127
0.0922196
0.0912801
0.0903036
0.0892888
0.0882302
0.0871244
0.0859655
0.084748
0.0834654
0.0821105
0.0806747
0.0791466
0.0775149
0.0757726
0.0739124
0.0719251
0.0697998
0.0675248
0.0650889
0.0624833
0.0596994
0.0567284
0.0535651
0.0502089
0.0466646
0.042943
0.0390658
0.0350557
0.0309543
0.0267977
0.0226737
0.0186096
0.0146699
0.0110024
0.00781887
0.00531324
0.00373852
0.00238125
0.00353288
0.00377565
0.109492
0.108992
0.10848
0.107928
0.107308
0.106626
0.105907
0.105175
0.104445
0.10372
0.102997
0.102272
0.101539
0.100792
0.100027
0.0992403
0.0984287
0.0975921
0.0967266
0.0958326
0.0949064
0.0939478
0.0929521
0.0919178
0.0908391
0.0897129
0.0885328
0.0872932
0.085987
0.0846071
0.083144
0.0815864
0.0799228
0.0781442
0.0762458
0.0742163
0.0720448
0.0697193
0.0672276
0.0645604
0.0617085
0.0586621
0.0554153
0.0519671
0.0483218
0.0444902
0.0404943
0.0363562
0.0321217
0.0278253
0.0235676
0.0193594
0.0152782
0.0114898
0.00821302
0.00564397
0.0040397
0.00267346
0.00389585
0.00405488
0.112618
0.112101
0.111569
0.110996
0.110355
0.10965
0.108909
0.108155
0.107404
0.10666
0.105918
0.105175
0.104423
0.103658
0.102874
0.102069
0.101238
0.100383
0.0994978
0.0985846
0.0976393
0.0966616
0.0956466
0.0945929
0.0934945
0.092348
0.0911469
0.0898851
0.0885555
0.0871503
0.0856601
0.0840727
0.082376
0.0805629
0.0786251
0.076553
0.0743345
0.0719571
0.0694082
0.0666779
0.0637561
0.0606323
0.0572997
0.0537571
0.0500082
0.0460639
0.0419461
0.0376771
0.0333061
0.0288669
0.0244716
0.020115
0.0158886
0.0119764
0.00860483
0.00597206
0.0043385
0.00296338
0.00425696
0.00432824
0.115774
0.115238
0.114689
0.114097
0.113435
0.11271
0.111947
0.111173
0.110403
0.10964
0.10888
0.108118
0.107348
0.106566
0.105764
0.10494
0.104092
0.103218
0.102315
0.101383
0.10042
0.0994232
0.0983893
0.0973165
0.0961986
0.0950319
0.0938099
0.0925261
0.0911729
0.0897427
0.088225
0.0866079
0.0848792
0.0830291
0.0810525
0.0789369
0.0766706
0.0742404
0.0716332
0.0688384
0.0658454
0.0626425
0.0592225
0.0555834
0.0517284
0.0476686
0.0434254
0.0390221
0.03451
0.0299239
0.0253852
0.020877
0.0165014
0.0124609
0.00899064
0.00629163
0.00462716
0.00324196
0.00460522
0.00458021
0.119089
0.118525
0.117946
0.117323
0.11663
0.115874
0.115083
0.114283
0.113486
0.112699
0.111915
0.111132
0.110339
0.109535
0.108711
0.107868
0.106999
0.106106
0.105184
0.104233
0.103251
0.102236
0.101184
0.100092
0.0989544
0.0977676
0.0965245
0.0952186
0.0938419
0.0923862
0.0908414
0.0891942
0.0874318
0.0855465
0.0835294
0.0813696
0.0790545
0.0765702
0.073903
0.071042
0.0679757
0.0646917
0.0611818
0.0574438
0.05348
0.0493016
0.0449299
0.0403888
0.0357319
0.0309952
0.0263087
0.0216445
0.0171164
0.0129442
0.0093731
0.00660681
0.00491116
0.00351579
0.00494967
0.00482699
0.122256
0.12168
0.121091
0.120457
0.119753
0.118985
0.118182
0.117369
0.116561
0.115761
0.114966
0.114168
0.113362
0.112543
0.111704
0.110844
0.109958
0.109048
0.108108
0.10714
0.10614
0.105106
0.104034
0.102923
0.101766
0.100558
0.0992938
0.0979653
0.0965645
0.095083
0.09351
0.0918324
0.0900372
0.0881138
0.0860566
0.0838519
0.0814869
0.0789475
0.0762192
0.0732907
0.0701498
0.0667831
0.0631817
0.0593426
0.0552675
0.0509676
0.0464638
0.041781
0.0369746
0.0320827
0.0272422
0.0224188
0.0177342
0.0134255
0.00974907
0.00691238
0.00518351
0.00377657
0.00527973
0.0050524
0.125807
0.125205
0.124584
0.123914
0.123171
0.122364
0.121521
0.12067
0.119826
0.118993
0.118165
0.117338
0.116503
0.115657
0.114793
0.113909
0.113
0.112067
0.111105
0.110116
0.109094
0.10804
0.106948
0.105816
0.104637
0.103408
0.10212
0.100768
0.0993421
0.0978338
0.0962322
0.0945233
0.0926933
0.0907337
0.0886346
0.086384
0.0839682
0.0813723
0.0785815
0.0755838
0.0723663
0.0689148
0.0652196
0.0612769
0.0570878
0.0526632
0.0480239
0.0431954
0.0382356
0.033184
0.028185
0.0231978
0.0183532
0.0139046
0.0101205
0.00721192
0.00544913
0.00403052
0.00560381
0.00527305
0.129161
0.12855
0.127923
0.127247
0.126495
0.125676
0.12482
0.123956
0.123096
0.122247
0.121402
0.120557
0.119704
0.118838
0.117953
0.117048
0.116117
0.115163
0.114179
0.113167
0.112122
0.111045
0.10993
0.108774
0.107572
0.106318
0.105007
0.103629
0.102176
0.10064
0.0990079
0.097267
0.0954029
0.0934038
0.0912631
0.0889658
0.0864982
0.0838451
0.0809908
0.0779229
0.0746278
0.0710902
0.0672995
0.0632512
0.0589456
0.0543932
0.0496146
0.0446364
0.039518
0.0343017
0.029138
0.0239832
0.0189743
0.0143807
0.0104842
0.0075004
0.00570129
0.00426973
0.00591111
0.00547216
0.132912
0.132277
0.131619
0.13091
0.130121
0.129265
0.128371
0.127469
0.126573
0.125689
0.12481
0.123933
0.123046
0.122149
0.121233
0.120297
0.119337
0.118353
0.11734
0.1163
0.115229
0.114125
0.112983
0.111801
0.110573
0.109293
0.107954
0.106548
0.105067
0.103501
0.101838
0.100064
0.098163
0.096126
0.0939415
0.0915965
0.0890763
0.086365
0.0834461
0.0803067
0.0769323
0.0733067
0.0694184
0.0652621
0.0608371
0.0561536
0.0512322
0.0460999
0.0408185
0.0354324
0.0300992
0.0247719
0.0195949
0.0148532
0.0108418
0.00778117
0.00594475
0.00450053
0.00620997
0.0056656
0.136455
0.135816
0.135157
0.134445
0.133651
0.132786
0.131882
0.130966
0.130055
0.129153
0.128255
0.127356
0.126448
0.125526
0.124585
0.123622
0.122635
0.121623
0.120582
0.119513
0.118413
0.117279
0.116109
0.114898
0.11364
0.112331
0.110962
0.109527
0.108015
0.106418
0.104722
0.102913
0.100976
0.0988969
0.096669
0.0942756
0.0917021
0.0889321
0.0859482
0.0827367
0.0792824
0.0755678
0.0715806
0.0673144
0.0627677
0.05795
0.0528816
0.0475907
0.0421411
0.0365794
0.0310705
0.0255664
0.0202167
0.0153217
0.0111907
0.00805
0.00617367
0.00471594
0.00649037
0.00583537
0.140375
0.139721
0.139042
0.138303
0.137477
0.136577
0.135634
0.134681
0.133732
0.132793
0.131858
0.130923
0.129978
0.129022
0.128046
0.12705
0.126027
0.124982
0.123908
0.122806
0.121673
0.120508
0.119305
0.118062
0.116773
0.115432
0.114032
0.112564
0.11102
0.109389
0.107659
0.105813
0.103837
0.101718
0.099445
0.0970025
0.094375
0.0915456
0.0884958
0.0852113
0.0816757
0.0778707
0.0737826
0.0694042
0.0647329
0.0597775
0.0545585
0.0491043
0.0434816
0.0377388
0.0320492
0.0263627
0.020836
0.0157848
0.0115321
0.00830974
0.00639242
0.004922
0.00676131
0.00599681
0.144191
0.143524
0.142831
0.142078
0.141237
0.140319
0.139356
0.138381
0.137408
0.136445
0.135485
0.134524
0.133553
0.132569
0.131564
0.130539
0.129487
0.128411
0.127305
0.126171
0.125005
0.123806
0.12257
0.121293
0.11997
0.118595
0.117161
0.115659
0.11408
0.112414
0.110647
0.108765
0.10675
0.104587
0.102269
0.0997763
0.0970944
0.0942054
0.0910899
0.0877322
0.0841152
0.080219
0.076029
0.0715367
0.0667385
0.0616423
0.0562685
0.0506461
0.0448446
0.0389148
0.0330377
0.0271641
0.0214553
0.0162426
0.0118635
0.0085564
0.00659555
0.00511206
0.00701385
0.00613385
0.148059
0.147375
0.146667
0.145899
0.145042
0.144108
0.14313
0.142138
0.141149
0.140168
0.139188
0.138205
0.137209
0.136199
0.135165
0.134109
0.133025
0.131915
0.130775
0.129606
0.128405
0.127171
0.125899
0.124587
0.123228
0.121818
0.120348
0.11881
0.117195
0.115492
0.113688
0.111766
0.109709
0.107505
0.105139
0.102596
0.0998597
0.0969107
0.0937288
0.0902974
0.086598
0.0826095
0.0783159
0.0737075
0.0687794
0.0635389
0.0580062
0.0522108
0.0462254
0.0401025
0.0340328
0.0279658
0.0220703
0.0166933
0.0121859
0.00879264
0.00678743
0.00529226
0.00725691
0.00626156
0.151981
0.151281
0.150557
0.149771
0.148894
0.147939
0.146938
0.145925
0.144916
0.143915
0.142915
0.141912
0.140896
0.139863
0.138806
0.137724
0.136613
0.135474
0.134303
0.133101
0.131866
0.130596
0.129288
0.127939
0.126544
0.125096
0.123589
0.122013
0.120361
0.11862
0.116776
0.114815
0.112717
0.110467
0.108055
0.105462
0.10267
0.0996616
0.0964137
0.0929088
0.0891272
0.0850461
0.0806481
0.075922
0.070862
0.0654738
0.0597781
0.0538042
0.0476294
0.0413069
0.0350376
0.028772
0.0226843
0.0171376
0.0124978
0.00901529
0.00696351
0.00545672
0.00748173
0.00636446
0.156083
0.155366
0.154621
0.153813
0.15291
0.151928
0.1509
0.149859
0.148822
0.147793
0.146765
0.145733
0.144687
0.143624
0.142535
0.14142
0.140275
0.139101
0.137895
0.136657
0.135385
0.134078
0.132733
0.131346
0.129912
0.128426
0.126881
0.125267
0.123575
0.121795
0.119912
0.11791
0.115769
0.113476
0.111016
0.108372
0.105525
0.102457
0.0991429
0.0955643
0.0916997
0.0875249
0.0830209
0.0781751
0.0729801
0.0674408
0.0615776
0.0554205
0.0490506
0.0425232
0.0360484
0.0295771
0.0232922
0.0175733
0.0127995
0.00922671
0.00712783
0.00561114
0.00769803
0.00645926
0.160248
0.159513
0.15875
0.157919
0.156992
0.155981
0.154923
0.153851
0.152783
0.151723
0.150665
0.149603
0.148527
0.147432
0.146313
0.145167
0.143989
0.142782
0.14154
0.140266
0.138957
0.137612
0.136228
0.134802
0.133329
0.131804
0.130219
0.128566
0.126835
0.125015
0.123091
0.121048
0.118866
0.116527
0.11402
0.111325
0.108424
0.105297
0.101918
0.0982658
0.0943188
0.0900502
0.0854396
0.0804725
0.0751404
0.0694462
0.0634118
0.0570655
0.0504955
0.0437561
0.0370692
0.0303859
0.023898
0.0180017
0.0130899
0.00942399
0.00727607
0.00574955
0.0078979
0.00653157
0.164549
0.163795
0.163011
0.162157
0.161203
0.160163
0.159074
0.15797
0.156869
0.155775
0.154681
0.153583
0.152469
0.151336
0.150177
0.14899
0.147772
0.146524
0.145242
0.143928
0.142578
0.141193
0.139769
0.138303
0.13679
0.135225
0.1336
0.131907
0.130136
0.128276
0.126312
0.124228
0.122002
0.119621
0.117067
0.114321
0.111367
0.10818
0.104736
0.101011
0.0969806
0.0926174
0.0878985
0.0828081
0.0773358
0.0714836
0.0652729
0.0587331
0.0519569
0.0450015
0.0380954
0.0311921
0.024496
0.0184201
0.0133693
0.00960943
0.00741225
0.00587782
0.00809009
0.00659691
0.168865
0.168093
0.167289
0.166413
0.165433
0.164364