/*--------------------------------*- C++ -*----------------------------------*\
  =========                 |
  \\      /  F ield         | OpenFOAM: The Open Source CFD Toolbox
   \\    /   O peration     | Website:  https://openfoam.org
    \\  /    A nd           | Version:  6.0
     \\/     M anipulation  |
\*---------------------------------------------------------------------------*/
FoamFile
{
    version     2.0;
    format      ascii;
    class       surfaceScalarField;
    location    "7";
    object      phi;
}
// * * * * * * * * * * * * * * * * * * * * * * * * * * * * * * * * * * * * * //

dimensions      [0 3 -1 0 0 0 0];

internalField   nonuniform List<scalar> 
123526
(
5.54529e-05
2.30526e-05
-5.50639e-05
5.58765e-05
2.49188e-05
5.63275e-05
2.69352e-05
5.68198e-05
2.91143e-05
5.73457e-05
3.1469e-05
5.79189e-05
3.40129e-05
5.8533e-05
3.6761e-05
5.92023e-05
3.97295e-05
5.99214e-05
4.29349e-05
6.07059e-05
4.63975e-05
6.15482e-05
5.01377e-05
6.24664e-05
5.41766e-05
6.34527e-05
5.85376e-05
6.45302e-05
6.32435e-05
6.56915e-05
6.83226e-05
6.69566e-05
7.38074e-05
6.83183e-05
7.97259e-05
6.98055e-05
8.61056e-05
7.14114e-05
9.29893e-05
7.31559e-05
0.000100416
7.50438e-05
0.000108415
7.70974e-05
0.000117037
7.93134e-05
0.000126331
8.17259e-05
0.000136327
8.43314e-05
0.000147095
8.71572e-05
0.000158674
9.02144e-05
0.00017112
9.35221e-05
0.000184494
9.71007e-05
0.000198841
0.000100967
0.000214232
0.000105145
0.000230709
0.000109653
0.000248339
0.000114515
0.000267165
0.000119753
0.000287234
0.000125393
0.000308587
0.000131465
0.000331239
0.00013799
0.000355211
0.000144996
0.000380481
0.000152509
0.000407007
0.000160553
0.00043471
0.000169151
0.000463457
0.000178326
0.000493053
0.000188091
0.000523225
0.000198454
0.000553599
0.000209414
0.00058368
0.000220955
0.000612819
0.000233046
0.000640185
0.000245631
0.000664723
0.000258629
0.000685101
0.000271927
0.00069966
0.000285368
0.000706341
0.000298751
0.00070261
0.00031181
0.00068538
0.000324215
0.000650906
0.000335542
0.000594774
0.00034528
0.000511868
0.000352895
0.000396578
0.000355624
0.000245965
0.000361206
5.26402e-05
-0.000243481
0.000384876
5.42366e-05
2.26714e-05
-5.38548e-05
5.46554e-05
2.45046e-05
5.51043e-05
2.64853e-05
5.55961e-05
2.86264e-05
5.61238e-05
3.09403e-05
5.67e-05
3.34402e-05
5.73192e-05
3.6141e-05
5.79941e-05
3.90582e-05
5.87203e-05
4.22075e-05
5.95116e-05
4.561e-05
6.03613e-05
4.92862e-05
6.12858e-05
5.32561e-05
6.22784e-05
5.75427e-05
6.33597e-05
6.21662e-05
6.45239e-05
6.71558e-05
6.57882e-05
7.25467e-05
6.71476e-05
7.8364e-05
6.86276e-05
8.46287e-05
7.02239e-05
9.13907e-05
7.19531e-05
9.86889e-05
7.38225e-05
0.000106544
7.58511e-05
0.00011501
7.80384e-05
0.000124142
8.0415e-05
0.000133951
8.29805e-05
0.000144528
8.57587e-05
0.000155896
8.87637e-05
0.000168114
9.20111e-05
0.000181246
9.55244e-05
0.000195327
9.93172e-05
0.000210439
0.000103417
0.000226609
0.000107838
0.000243917
0.000112606
0.000262393
0.000117745
0.000282092
0.000123278
0.00030305
0.000129238
0.000325277
0.000135644
0.000348803
0.000142526
0.000373598
0.000149909
0.000399622
0.000157817
0.000426801
0.000166273
0.000455
0.000175299
0.000484027
0.000184907
0.000513617
0.000195103
0.000543403
0.000205885
0.000572899
0.000217235
0.000601471
0.000229119
0.000628303
0.000241481
0.000652362
0.00025424
0.000672344
0.000267285
0.000686618
0.000280461
0.000693165
0.000293573
0.000689497
0.000306356
0.000672581
0.000318491
0.000638749
0.000329558
0.000583668
0.000339054
0.000502318
0.000346416
0.000389114
0.000350669
0.000241549
0.000349884
5.30735e-05
-0.000241011
0.000347184
5.33496e-05
2.22919e-05
-5.29693e-05
5.37648e-05
2.40938e-05
5.42081e-05
2.60412e-05
5.46916e-05
2.81466e-05
5.52091e-05
3.04218e-05
5.57729e-05
3.28799e-05
5.6378e-05
3.55351e-05
5.7037e-05
3.84026e-05
5.77461e-05
4.14972e-05
5.85189e-05
4.4841e-05
5.93493e-05
4.84543e-05
6.02532e-05
5.23562e-05
6.12244e-05
5.65693e-05
6.22832e-05
6.11114e-05
6.34241e-05
6.60124e-05
6.46638e-05
7.13107e-05
6.59975e-05
7.70279e-05
6.74501e-05
8.31792e-05
6.90174e-05
8.98212e-05
7.07155e-05
9.69932e-05
7.25517e-05
0.000104706
7.45442e-05
0.000113019
7.6693e-05
0.000121991
7.90274e-05
0.000131618
8.15478e-05
0.000142006
8.42768e-05
0.000153167
8.72292e-05
0.00016516
9.04198e-05
0.000178055
9.38724e-05
0.000191873
9.76001e-05
0.00020671
0.00010163
0.000222579
0.000105978
0.000239568
0.000110668
0.0002577
0.000115724
0.000277031
0.000121171
0.0002976
0.000127038
0.000319407
0.000133346
0.000342493
0.000140123
0.000366819
0.000147395
0.000392348
0.000155184
0.00041901
0.000163511
0.00044667
0.000172397
0.000475139
0.000181852
0.00050416
0.000191881
0.000533373
0.00020248
0.0005623
0.000213628
0.000590321
0.000225293
0.000616639
0.000237418
0.000640238
0.000249923
0.000659838
0.000262701
0.000673842
0.000275599
0.000680263
0.00028843
0.000676662
0.000300934
0.000660057
0.000312799
0.000626854
0.000323619
0.0005728
0.000332905
0.000492975
0.000340084
0.000381851
0.000344507
0.000237034
0.000344812
5.26177e-05
-0.000240409
0.000344116
5.29742e-05
2.19146e-05
-5.25971e-05
5.33844e-05
2.36875e-05
5.3821e-05
2.56035e-05
5.42955e-05
2.76752e-05
5.48022e-05
2.99141e-05
5.53523e-05
3.23328e-05
5.59415e-05
3.4945e-05
5.65814e-05
3.77658e-05
5.72688e-05
4.08086e-05
5.80167e-05
4.40964e-05
5.88196e-05
4.76497e-05
5.9693e-05
5.14865e-05
6.06314e-05
5.56288e-05
6.16544e-05
6.0092e-05
6.27577e-05
6.49068e-05
6.39572e-05
7.01145e-05
6.52492e-05
7.57336e-05
6.66578e-05
8.17734e-05
6.81798e-05
8.82972e-05
6.98306e-05
9.53446e-05
7.16181e-05
0.000102917
7.35598e-05
0.000111079
7.56562e-05
0.000119893
7.7936e-05
0.000129339
8.03997e-05
0.000139541
8.30696e-05
0.000150497
8.59602e-05
0.000162268
8.90862e-05
0.000174928
9.24711e-05
0.000188487
9.61277e-05
0.000203053
0.000100083
0.000218623
0.000104352
0.000235298
0.00010896
0.00025309
0.000113928
0.000272059
0.000119282
0.000292242
0.000125052
0.000313636
0.000131256
0.000336287
0.000137921
0.000360152
0.000145073
0.000385194
0.000152733
0.000411348
0.00016092
0.00043848
0.000169653
0.000466402
0.000178943
0.000494867
0.000188791
0.00052352
0.000199192
0.000551894
0.000210128
0.00057938
0.000221562
0.000605198
0.000233442
0.000628351
0.000245688
0.000647583
0.000258195
0.000661324
0.000270818
0.000667625
0.000283371
0.000664086
0.000295604
0.000647785
0.000307212
0.000615191
0.000317803
0.000562131
0.000326911
0.000483766
0.000333969
0.000374637
0.000338472
0.000232299
0.000338915
5.17111e-05
-0.000239515
0.000337715
5.27313e-05
2.15456e-05
-5.23614e-05
5.31325e-05
2.32903e-05
5.35598e-05
2.51756e-05
5.40242e-05
2.7214e-05
5.45205e-05
2.94172e-05
5.50591e-05
3.17973e-05
5.56358e-05
3.43677e-05
5.62618e-05
3.71431e-05
5.69337e-05
4.01357e-05
5.76638e-05
4.33697e-05
5.84471e-05
4.68652e-05
5.92981e-05
5.06392e-05
6.02117e-05
5.47133e-05
6.12069e-05
5.91005e-05
6.22797e-05
6.3832e-05
6.34456e-05
6.8952e-05
6.47014e-05
7.44758e-05
6.60705e-05
8.0407e-05
6.75505e-05
8.68154e-05
6.91564e-05
9.37408e-05
7.08965e-05
0.000101175
7.27881e-05
0.000109189
7.4832e-05
0.000117848
7.70564e-05
0.000127115
7.94622e-05
0.000137134
8.20712e-05
0.000147888
8.4898e-05
0.00015944
8.79569e-05
0.000171868
9.12713e-05
0.000185172
9.48538e-05
0.00019947
9.8731e-05
0.000214746
0.000102917
0.000231111
0.000107438
0.000248567
0.000112314
0.000267178
0.000117569
0.000286983
0.000123234
0.000307969
0.000129326
0.000330192
0.000135871
0.000353604
0.000142894
0.000378168
0.000150415
0.000403825
0.000158453
0.000430439
0.000167024
0.000457828
0.000176138
0.00048575
0.000185798
0.000513858
0.000195995
0.000541693
0.000206712
0.000568661
0.000217915
0.000593994
0.00022955
0.000616714
0.00024154
0.00063559
0.000253784
0.000649079
0.000266139
0.000655266
0.000278427
0.000651795
0.000290401
0.000635793
0.000301767
0.000603797
0.000312144
0.000551712
0.000321084
0.000474777
0.000328029
0.000367624
0.00033248
0.000227781
0.000333174
5.09188e-05
-0.00023812
0.000331728
5.24115e-05
2.11871e-05
-5.2053e-05
5.28017e-05
2.29037e-05
5.32182e-05
2.47581e-05
5.36719e-05
2.67632e-05
5.41577e-05
2.89305e-05
5.46857e-05
3.1272e-05
5.5252e-05
3.38007e-05
5.5867e-05
3.65308e-05
5.65278e-05
3.94739e-05
5.72458e-05
4.26547e-05
5.80162e-05
4.60934e-05
5.88527e-05
4.9806e-05
5.97506e-05
5.38136e-05
6.07276e-05
5.81267e-05
6.17804e-05
6.27771e-05
6.29233e-05
6.7812e-05
6.41538e-05
7.32433e-05
6.54944e-05
7.9069e-05
6.69429e-05
8.53652e-05
6.85139e-05
9.21717e-05
7.0216e-05
9.94712e-05
7.20659e-05
0.00010734
7.40649e-05
0.000115848
7.62407e-05
0.00012494
7.85945e-05
0.000134779
8.11478e-05
0.000145335
8.39151e-05
0.000156672
8.69107e-05
0.000168872
9.01574e-05
0.000181924
9.36678e-05
0.000195959
9.74683e-05
0.000210945
0.000101573
0.000227005
0.000106006
0.000244131
0.000110789
0.000262392
0.000115945
0.000281824
0.000121502
0.000302409
0.00012748
0.000324213
0.000133902
0.00034718
0.000140793
0.000371275
0.000148171
0.000396444
0.000156055
0.000422551
0.000164461
0.000449418
0.000173398
0.000476809
0.000182866
0.000504384
0.00019286
0.000531693
0.00020336
0.000558153
0.000214333
0.000583012
0.000225729
0.00060531
0.000237471
0.000623836
0.000249461
0.000637076
0.00026156
0.000643148
0.000273594
0.000639735
0.000285323
0.00062402
0.000296458
0.000592601
0.000306631
0.000541456
0.000315406
0.000465892
0.000322229
0.000360638
0.000326592
0.000223176
0.000327494
4.95386e-05
-0.000236736
0.000325794
5.19662e-05
2.08382e-05
-5.16167e-05
5.2347e-05
2.25265e-05
5.27542e-05
2.43501e-05
5.31981e-05
2.63222e-05
5.36741e-05
2.84538e-05
5.41921e-05
3.07566e-05
5.47486e-05
3.32436e-05
5.53535e-05
3.59286e-05
5.60045e-05
3.88221e-05
5.67122e-05
4.19499e-05
5.74723e-05
4.53322e-05
5.82977e-05
4.89839e-05
5.91841e-05
5.29257e-05
6.01483e-05
5.71658e-05
6.11871e-05
6.17367e-05
6.23141e-05
6.6688e-05
6.35269e-05
7.20288e-05
6.4847e-05
7.77514e-05
6.62726e-05
8.39379e-05
6.78176e-05
9.06286e-05
6.94905e-05
9.77969e-05
7.13076e-05
0.000105525
7.32703e-05
0.000113884
7.54058e-05
0.000122805
7.77154e-05
0.000132468
8.02201e-05
0.00014283
8.29346e-05
0.000153957
8.58727e-05
0.000165933
8.90571e-05
0.000178739
9.25003e-05
0.000192515
9.6228e-05
0.000207218
0.000100254
0.000222978
0.000104603
0.000239781
0.000109294
0.000257696
0.000114353
0.000276763
0.000119805
0.000296955
0.000125668
0.000318347
0.000131968
0.000340878
0.000138726
0.000364514
0.000145962
0.000389206
0.000153693
0.000414818
0.000161934
0.000441174
0.000170693
0.000468047
0.000179973
0.000495102
0.000189765
0.000521898
0.000200053
0.000547864
0.000210803
0.00057226
0.000221966
0.000594146
0.000233468
0.000612333
0.000245215
0.000625332
0.000257067
0.000631294
0.000268859
0.000627945
0.000280353
0.000612517
0.000291269
0.000581668
0.000301245
0.000531452
0.000309857
0.000457249
0.000316557
0.000353895
0.000320835
0.000218868
0.000321874
4.84674e-05
-0.000234807
0.000319943
5.14057e-05
2.04963e-05
-5.10642e-05
5.17785e-05
2.21566e-05
5.21777e-05
2.39499e-05
5.2613e-05
2.58893e-05
5.30803e-05
2.79855e-05
5.35889e-05
3.02501e-05
5.41361e-05
3.26957e-05
5.47312e-05
3.53358e-05
5.53725e-05
3.81799e-05
5.607e-05
4.1255e-05
5.682e-05
4.4581e-05
5.76348e-05
4.8172e-05
5.85105e-05
5.20484e-05
5.94631e-05
5.6216e-05
6.04899e-05
6.07081e-05
6.16036e-05
6.5577e-05
6.2802e-05
7.08286e-05
6.41058e-05
7.64499e-05
6.55133e-05
8.25289e-05
6.70376e-05
8.91061e-05
6.86872e-05
9.61459e-05
7.04777e-05
0.000103735
7.24107e-05
0.00011195
7.45123e-05
0.000120704
7.67843e-05
0.000130195
7.9247e-05
0.000140367
8.19148e-05
0.000151288
8.48015e-05
0.000163046
8.79292e-05
0.000175611
9.13104e-05
0.000189133
9.49701e-05
0.000203558
9.89227e-05
0.000219025
0.00010319
0.000235511
0.000107795
0.000253089
0.000112758
0.000271796
0.000118107
0.000291604
0.00012386
0.000312593
0.000130039
0.000334697
0.000136667
0.000357883
0.000143763
0.000382108
0.000151342
0.000407235
0.000159421
0.000433092
0.000168007
0.000459456
0.000177102
0.000486002
0.000186698
0.000512295
0.000196779
0.000537775
0.000207313
0.000561718
0.000218251
0.000583198
0.000229522
0.000601048
0.000241034
0.000613806
0.000252651
0.000619656
0.00026421
0.000616361
0.00027548
0.000601205
0.000286185
0.000570905
0.000295972
0.000521584
0.000304425
0.000448688
0.000311005
0.000347157
0.000315203
0.000214432
0.000316313
4.68871e-05
-0.000232981
0.000314181
5.07601e-05
2.01605e-05
-5.04236e-05
5.11267e-05
2.17933e-05
5.15191e-05
2.35569e-05
5.19467e-05
2.54642e-05
5.24059e-05
2.75258e-05
5.29056e-05
2.97528e-05
5.34433e-05
3.21575e-05
5.40283e-05
3.47532e-05
5.46592e-05
3.75485e-05
5.53457e-05
4.05711e-05
5.60846e-05
4.38412e-05
5.68877e-05
4.73719e-05
5.77517e-05
5.11833e-05
5.86919e-05
5.52788e-05
5.97059e-05
5.96927e-05
6.08059e-05
6.44797e-05
6.199e-05
6.9643e-05
6.3278e-05
7.51641e-05
6.46685e-05
8.1137e-05
6.61738e-05
8.76024e-05
6.78025e-05
9.4516e-05
6.95693e-05
0.000101969
7.14758e-05
0.000110042
7.35476e-05
0.000118633
7.57861e-05
0.000127956
7.82112e-05
0.000137942
8.0837e-05
0.000148661
8.36769e-05
0.000160206
8.67526e-05
0.000172534
9.00763e-05
0.000185809
9.36727e-05
0.000199961
9.75555e-05
0.000215142
0.000101747
0.000231317
0.000106268
0.000248564
0.00011114
0.000266921
0.00011639
0.000286352
0.000122035
0.000306947
0.000128097
0.000328632
0.000134599
0.000351379
0.000141558
0.000375147
0.00014899
0.000399799
0.000156911
0.000425168
0.000165328
0.000451037
0.000174243
0.000477084
0.000183649
0.000502887
0.00019353
0.000527893
0.000203855
0.000551392
0.000214577
0.000572477
0.000225626
0.00059
0.000236912
0.000602525
0.000248302
0.000608268
0.000259639
0.000605033
0.000270694
0.00059015
0.000281196
0.000560396
0.000290801
0.000511966
0.000299098
0.000440378
0.000305562
0.000340678
0.000309687
0.000210314
0.000310819
4.57968e-05
-0.00023063
0.000308517
5.00557e-05
1.98301e-05
-4.97254e-05
5.04158e-05
2.14358e-05
5.08015e-05
2.31703e-05
5.12215e-05
2.50463e-05
5.16728e-05
2.70738e-05
5.21637e-05
2.92639e-05
5.26922e-05
3.16284e-05
5.32671e-05
3.41804e-05
5.38873e-05
3.69275e-05
5.45623e-05
3.98985e-05
5.52893e-05
4.31132e-05
5.60796e-05
4.65841e-05
5.69305e-05
5.0331e-05
5.78568e-05
5.43552e-05
5.88565e-05
5.86914e-05
5.99414e-05
6.33972e-05
6.11099e-05
6.8473e-05
6.2381e-05
7.38949e-05
6.37537e-05
7.9763e-05
6.52397e-05
8.6118e-05
6.68474e-05
9.29071e-05
6.8591e-05
0.000100227
7.04721e-05
0.00010816
7.25154e-05
0.00011659
7.47223e-05
0.000125748
7.71122e-05
0.000135552
7.96986e-05
0.000146074
8.24947e-05
0.000157409
8.55216e-05
0.000169507
8.87912e-05
0.000182539
9.23277e-05
0.000196425
9.61445e-05
0.000211325
0.000100263
0.000227196
0.000104705
0.00024412
0.00010949
0.000262134
0.000114644
0.000281196
0.000120185
0.000301404
0.000126134
0.000322681
0.000132513
0.000344998
0.00013934
0.000368318
0.00014663
0.000392506
0.000154398
0.000417396
0.000162652
0.000442779
0.000171393
0.000468338
0.000180615
0.000493658
0.000190303
0.000518198
0.000200427
0.00054126
0.000210941
0.000561953
0.000221776
0.000579152
0.000232845
0.000591442
0.000244018
0.000597074
0.00025514
0.000593888
0.000265988
0.000579264
0.000276295
0.000550036
0.000285723
0.000502465
0.000293869
0.000432131
0.00030022
0.000334181
0.000304275
0.000206039
0.000305394
4.42351e-05
-0.000228479
0.000302956
4.93146e-05
1.95052e-05
-4.89894e-05
4.96686e-05
2.10845e-05
5.00478e-05
2.27906e-05
5.04604e-05
2.46358e-05
5.09038e-05
2.663e-05
5.13858e-05
2.87838e-05
5.19048e-05
3.11089e-05
5.24693e-05
3.3618e-05
5.30785e-05
3.63178e-05
5.37414e-05
3.92379e-05
5.44558e-05
4.23982e-05
5.52324e-05
4.58102e-05
5.60691e-05
4.94933e-05
5.69802e-05
5.34468e-05
5.79642e-05
5.77063e-05
5.90322e-05
6.23317e-05
6.01833e-05
6.73207e-05
6.14358e-05
7.26444e-05
6.2789e-05
7.84086e-05
6.4254e-05
8.46544e-05
6.58394e-05
9.13206e-05
6.75588e-05
9.85084e-05
6.94139e-05
0.000106303
7.14284e-05
0.000114576
7.36039e-05
0.000123571
7.59591e-05
0.000133197
7.85072e-05
0.000143525
8.12608e-05
0.000154655
8.42406e-05
0.000166526
8.74582e-05
0.000179321
9.09371e-05
0.000192946
9.46903e-05
0.000207571
9.87394e-05
0.000223145
0.000103104
0.000239752
0.000107805
0.00025743
0.000112867
0.000276131
0.000118308
0.000295962
0.000124148
0.000316839
0.000130409
0.000338734
0.000137107
0.000361617
0.00014426
0.000385351
0.00015188
0.000409773
0.000159976
0.00043468
0.00016855
0.000459762
0.000177596
0.000484611
0.000187098
0.000508695
0.000197027
0.000531331
0.000207341
0.000551642
0.000217971
0.000568524
0.000228831
0.000580589
0.000239794
0.000586116
0.00025071
0.000582986
0.000261358
0.000568624
0.000271476
0.00053992
0.000280733
0.000493206
0.000288733
0.000424135
0.000294974
0.000327948
0.000298958
0.000202094
0.000300047
4.32454e-05
-0.000225844
0.000297502
4.85502e-05
1.91857e-05
-4.82314e-05
4.88976e-05
2.07392e-05
4.927e-05
2.24173e-05
4.9675e-05
2.42323e-05
5.01104e-05
2.61938e-05
5.05836e-05
2.83121e-05
5.10934e-05
3.05986e-05
5.16475e-05
3.30656e-05
5.22458e-05
3.57189e-05
5.28966e-05
3.8589e-05
5.35982e-05
4.16958e-05
5.43608e-05
4.50498e-05
5.51828e-05
4.86702e-05
5.60778e-05
5.25541e-05
5.7045e-05
5.67378e-05
5.80951e-05
6.12838e-05
5.92274e-05
6.6187e-05
6.04598e-05
7.14137e-05
6.17919e-05
7.70754e-05
6.32344e-05
8.32132e-05
6.47959e-05
8.9758e-05
6.64896e-05
9.68156e-05
6.83172e-05
0.000104475
7.03019e-05
0.000112592
7.24452e-05
0.000121427
7.47651e-05
0.000130877
7.72747e-05
0.000141015
7.99861e-05
0.000151943
8.29195e-05
0.000163592
8.6086e-05
0.000176154
8.95086e-05
0.000189524
9.32002e-05
0.000203879
9.71813e-05
0.000219162
0.000101472
0.000235459
0.000106091
0.000252808
0.000111064
0.000271156
0.000116408
0.000290617
0.000122142
0.000311102
0.000128289
0.000332586
0.000134864
0.000355039
0.000141884
0.000378328
0.000149362
0.000402292
0.000157305
0.000426732
0.000165717
0.000451345
0.000174592
0.00047573
0.000183915
0.000499365
0.000193658
0.000521579
0.000203779
0.000541513
0.00021421
0.000558079
0.000224869
0.000569917
0.00023563
0.000575335
0.000246347
0.00057225
0.000256801
0.000558135
0.000266737
0.000529936
0.000275828
0.000484047
0.000283685
0.000416184
0.000289819
0.000321677
0.000293732
0.000197974
0.000294779
4.17785e-05
-0.000223487
0.000292153
4.77737e-05
1.88721e-05
-4.74595e-05
4.81152e-05
2.04002e-05
4.84811e-05
2.20509e-05
4.88789e-05
2.38364e-05
4.93065e-05
2.57658e-05
4.9771e-05
2.78492e-05
5.02715e-05
3.00978e-05
5.08153e-05
3.25236e-05
5.14025e-05
3.51313e-05
5.20411e-05
3.79525e-05
5.27298e-05
4.10067e-05
5.34782e-05
4.43038e-05
5.42851e-05
4.78626e-05
5.51637e-05
5.1678e-05
5.61135e-05
5.5787e-05
5.71447e-05
6.02548e-05
5.82572e-05
6.50735e-05
5.94683e-05
7.02045e-05
6.07778e-05
7.57648e-05
6.21962e-05
8.1796e-05
6.37323e-05
8.82209e-05
6.53988e-05
9.515e-05
6.71975e-05
0.000102675
6.91509e-05
0.000110639
7.12608e-05
0.000119317
7.35445e-05
0.000128594
7.60148e-05
0.000138544
7.86835e-05
0.000149274
8.15703e-05
0.000160705
8.4686e-05
0.000173038
8.80529e-05
0.000186157
9.16835e-05
0.000200248
9.55983e-05
0.000215245
9.98158e-05
0.000231239
0.000104356
0.000248266
0.000109242
0.000266268
0.000114491
0.000285367
0.000120124
0.000305468
0.00012616
0.000326548
0.000132615
0.000348581
0.000139506
0.000371435
0.000146846
0.000394949
0.000154643
0.000418933
0.000162899
0.000443088
0.000171609
0.000467018
0.000180759
0.000490215
0.000190322
0.000512017
0.000200256
0.000531582
0.000210496
0.000547843
0.000220961
0.000559461
0.000231526
0.000564777
0.000242049
0.000561744
0.000252316
0.000547882
0.000262074
0.000520188
0.000271004
0.000475126
0.000278723
0.000408482
0.00028475
0.000315677
0.000288593
0.000194197
0.000289596
4.09294e-05
-0.000220675
0.000286908
4.69913e-05
1.85638e-05
-4.66836e-05
4.73263e-05
2.0067e-05
4.76855e-05
2.16909e-05
4.80759e-05
2.34473e-05
4.84959e-05
2.53452e-05
4.89519e-05
2.73944e-05
4.94434e-05
2.96059e-05
4.99772e-05
3.19912e-05
5.05538e-05
3.45542e-05
5.11806e-05
3.73274e-05
5.18566e-05
4.03301e-05
5.2591e-05
4.35714e-05
5.3383e-05
4.70697e-05
5.42452e-05
5.08179e-05
5.51774e-05
5.48537e-05
5.61896e-05
5.92446e-05
5.72818e-05
6.39801e-05
5.8471e-05
6.90169e-05
5.97573e-05
7.44774e-05
6.11508e-05
8.04036e-05
6.26604e-05
8.67103e-05
6.42985e-05
9.35127e-05
6.6067e-05
0.000100906
6.79881e-05
0.000108718
7.00633e-05
0.000117241
7.23097e-05
0.000126347
7.47398e-05
0.000136113
7.73651e-05
0.000146648
8.02049e-05
0.000157865
8.32694e-05
0.000169973
8.65808e-05
0.000182846
9.01511e-05
0.000196677
9.4e-05
0.000211395
9.81461e-05
0.00022709
0.000102608
0.000243802
0.00010741
0.000261465
0.000112567
0.000280208
0.0001181
0.000299933
0.000124028
0.000320618
0.000130367
0.00034224
0.000137133
0.000364665
0.00014434
0.000387739
0.000151994
0.000411275
0.000160099
0.000434978
0.00016865
0.000458462
0.000177633
0.000481226
0.000187021
0.000502621
0.000196774
0.000521821
0.000206829
0.000537776
0.000217105
0.000549173
0.000227481
0.000554382
0.000237817
0.000551392
0.000247902
0.000537767
0.000257488
0.00051056
0.000266261
0.000466292
0.000273843
0.000400814
0.000279766
0.000309629
0.000283539
0.000190236
0.000284495
3.95846e-05
-0.000218195
0.000281766
4.62101e-05
1.82612e-05
-4.59073e-05
4.65389e-05
1.974e-05
4.68918e-05
2.13375e-05
4.7275e-05
2.30654e-05
4.76874e-05
2.49324e-05
4.81348e-05
2.69482e-05
4.86173e-05
2.91231e-05
4.91411e-05
3.14687e-05
4.9707e-05
3.3988e-05
5.03221e-05
3.67141e-05
5.09855e-05
3.96664e-05
5.17061e-05
4.28529e-05
5.24833e-05
4.62919e-05
5.33292e-05
4.99743e-05
5.4244e-05
5.39382e-05
5.52371e-05
5.82535e-05
5.63091e-05
6.29073e-05
5.7476e-05
6.78515e-05
5.87387e-05
7.32139e-05
6.01068e-05
7.90366e-05
6.15893e-05
8.52269e-05
6.31981e-05
9.19044e-05
6.49357e-05
9.91673e-05
6.68234e-05
0.000106831
6.8863e-05
0.0001152
7.10712e-05
0.000124139
7.34604e-05
0.000133723
7.60416e-05
0.000144067
7.88337e-05
0.000155072
8.18469e-05
0.000166959
8.51026e-05
0.00017959
8.86125e-05
0.000193167
9.23963e-05
0.000207609
9.64715e-05
0.000223012
0.000100857
0.000239414
0.000105575
0.000256744
0.000110642
0.00027514
0.000116078
0.000294496
0.000121901
0.000314793
0.000128127
0.000336011
0.000134772
0.000358018
0.000141849
0.00038066
0.000149365
0.000403757
0.000157323
0.000427018
0.00016572
0.000450065
0.00017454
0.000472405
0.000183759
0.000493404
0.000193337
0.000512247
0.000203212
0.000527906
0.000213305
0.000539091
0.000223497
0.0005442
0.00023365
0.000541261
0.000243558
0.000527878
0.000252975
0.000501159
0.000261595
0.00045769
0.000269044
0.000393391
0.000274865
0.000303852
0.000278568
0.000186621
0.00027948
3.88697e-05
-0.000215283
0.000276723
4.54324e-05
1.79639e-05
-4.5136e-05
4.57548e-05
1.94188e-05
4.6101e-05
2.09904e-05
4.64769e-05
2.26903e-05
4.68817e-05
2.4527e-05
4.73208e-05
2.65098e-05
4.77945e-05
2.8649e-05
4.83085e-05
3.09557e-05
4.88642e-05
3.3432e-05
4.94678e-05
3.61119e-05
5.01191e-05
3.90147e-05
5.08261e-05
4.21476e-05
5.1589e-05
4.55284e-05
5.24189e-05
4.91462e-05
5.33166e-05
5.30396e-05
5.42909e-05
5.72809e-05
5.53428e-05
6.18546e-05
5.64878e-05
6.67078e-05
5.7727e-05
7.19738e-05
5.90697e-05
7.76949e-05
6.05249e-05
8.37708e-05
6.21044e-05
9.03256e-05
6.38105e-05
9.74603e-05
6.56644e-05
0.000104977
6.76679e-05
0.000113196
6.98373e-05
0.000121969
7.21849e-05
0.000131375
7.47214e-05
0.00014153
7.74655e-05
0.000152327
8.04269e-05
0.000163998
8.36268e-05
0.00017639
8.70767e-05
0.000189717
9.07954e-05
0.000203889
9.48005e-05
0.000219005
9.91101e-05
0.000235103
0.000103747
0.000252106
0.000108725
0.00027016
0.000114065
0.000289155
0.000119785
0.00030907
0.000125901
0.000329893
0.000132427
0.000351489
0.000139378
0.000373707
0.000146759
0.000396371
0.000154575
0.000419198
0.000162821
0.000441814
0.000171484
0.000463736
0.000180539
0.000484342
0.000189946
0.000502832
0.000199646
0.000518195
0.000209561
0.000529165
0.000219573
0.000534171
0.000229549
0.000531271
0.000239284
0.000518118
0.000248537
0.000491866
0.000257006
0.000449163
0.000264326
0.000385991
0.000270045
0.000298016
0.000273678
0.000182811
0.000274549
3.76313e-05
-0.000212742
0.000271776
4.4662e-05
1.76723e-05
-4.437e-05
4.49787e-05
1.91037e-05
4.53188e-05
2.065e-05
4.56879e-05
2.23224e-05
4.60853e-05
2.41294e-05
4.65163e-05
2.60799e-05
4.69812e-05
2.8184e-05
4.74856e-05
3.04524e-05
4.80309e-05
3.28867e-05
4.86232e-05
3.55212e-05
4.92623e-05
3.83754e-05
4.99561e-05
4.14557e-05
5.07046e-05
4.47796e-05
5.15189e-05
4.8334e-05
5.23997e-05
5.21583e-05
5.33556e-05
5.63269e-05
5.43875e-05
6.08219e-05
5.55108e-05
6.55859e-05
5.67266e-05
7.07572e-05
5.80438e-05
7.63785e-05
5.94719e-05
8.2342e-05
6.10219e-05
8.87761e-05
6.26966e-05
9.57848e-05
6.45165e-05
0.000103157
6.64836e-05
0.000111228
6.8614e-05
0.000119839
7.09197e-05
0.000129069
7.34113e-05
0.000139038
7.6107e-05
0.000149631
7.90167e-05
0.000161088
8.21607e-05
0.000173246
8.55504e-05
0.000186327
8.92046e-05
0.000200234
9.314e-05
0.000215067
9.73745e-05
0.000230866
0.00010193
0.000247549
0.000106821
0.000265268
0.000112067
0.000283907
0.000117686
0.000303449
0.000123694
0.000323883
0.000130105
0.000345076
0.000136932
0.000366878
0.000144183
0.000389119
0.000151859
0.00041152
0.000159959
0.000433714
0.000168468
0.000455228
0.000177362
0.00047545
0.000186604
0.000493595
0.000196133
0.000508671
0.000205875
0.000519436
0.000215711
0.000524345
0.000225513
0.000521494
0.000235079
0.000508574
0.000244172
0.000482795
0.000252494
0.000440865
0.000259686
0.000378834
0.000265306
0.000292453
0.000268871
0.000179353
0.000269705
3.70328e-05
-0.000209781
0.000266924
4.38995e-05
1.73858e-05
-4.36137e-05
4.42101e-05
1.87941e-05
4.45439e-05
2.03154e-05
4.4906e-05
2.19609e-05
4.52963e-05
2.37387e-05
4.57192e-05
2.56575e-05
4.61759e-05
2.77271e-05
4.6671e-05
2.99581e-05
4.72065e-05
3.2351e-05
4.77878e-05
3.49411e-05
4.84152e-05
3.77477e-05
4.9096e-05
4.07765e-05
4.98308e-05
4.40445e-05
5.06297e-05
4.75367e-05
5.14941e-05
5.12933e-05
5.24318e-05
5.53907e-05
5.34444e-05
5.98086e-05
5.45464e-05
6.44851e-05
5.57392e-05
6.95636e-05
5.70316e-05
7.50869e-05
5.84327e-05
8.09401e-05
5.99536e-05
8.72557e-05
6.15971e-05
9.41406e-05
6.33832e-05
0.000101371
6.53141e-05
0.000109297
6.74055e-05
0.000117747
6.96693e-05
0.000126805
7.21159e-05
0.00013659
7.47634e-05
0.000146983
7.76212e-05
0.000158229
8.07095e-05
0.000170158
8.40395e-05
0.000182997
8.76292e-05
0.000196642
9.14957e-05
0.000211199
9.56558e-05
0.000226704
0.000100131
0.000243072
0.000104936
0.000260462
0.00011009
0.000278752
0.00011561
0.000297927
0.000121512
0.00031798
0.000127809
0.000338775
0.000134516
0.000360168
0.000141638
0.000381993
0.000149179
0.000403974
0.000157136
0.000425753
0.000165495
0.000446864
0.000174232
0.000466706
0.000183312
0.000484509
0.000192674
0.000499299
0.000202246
0.000509856
0.000211911
0.000514664
0.000221544
0.000511851
0.000230944
0.000499152
0.000239879
0.000473825
0.000248058
0.000432635
0.000255125
0.000371694
0.000260646
0.000286825
0.000264144
0.000175695
0.000264944
3.58963e-05
-0.000207212
0.000262165
4.31482e-05
1.71046e-05
-4.2867e-05
4.34531e-05
1.84903e-05
4.37809e-05
1.99872e-05
4.41363e-05
2.16062e-05
4.45194e-05
2.33553e-05
4.49345e-05
2.5243e-05
4.53826e-05
2.72789e-05
4.58685e-05
2.94731e-05
4.63941e-05
3.18254e-05
4.69645e-05
3.43719e-05
4.75804e-05
3.71319e-05
4.82485e-05
4.011e-05
4.89696e-05
4.33232e-05
4.97536e-05
4.67546e-05
5.06019e-05
5.04447e-05
5.15219e-05
5.44722e-05
5.25155e-05
5.88146e-05
5.35966e-05
6.34052e-05
5.47669e-05
6.83927e-05
5.60347e-05
7.38198e-05
5.74094e-05
7.95647e-05
5.89016e-05
8.57639e-05
6.05142e-05
9.25273e-05
6.22669e-05
9.96188e-05
6.41619e-05
0.000107401
6.62146e-05
0.000115695
6.84368e-05
0.000124582
7.08388e-05
0.000134188
7.34382e-05
0.000144383
7.62444e-05
0.000155423
7.92773e-05
0.000167125
8.25478e-05
0.000179726
8.60738e-05
0.000193115
8.98717e-05
0.000207399
9.39582e-05
0.000222616
9.83547e-05
0.000238674
0.000103075
0.00025574
0.000108137
0.000273688
0.00011356
0.000292502
0.000119358
0.00031218
0.000125544
0.000332587
0.000132132
0.000353578
0.000139129
0.000374995
0.000146537
0.000396565
0.000154353
0.000417936
0.000162566
0.000438653
0.00017115
0.000458124
0.000180071
0.000475594
0.00018927
0.000490107
0.000198676
0.000500464
0.000208173
0.000505178
0.00021764
0.000502412
0.000226878
0.000489939
0.000235659
0.000465069
0.000243696
0.000424628
0.00025064
0.000364793
0.000256065
0.000281468
0.000259497
0.000172388
0.000260268
3.53961e-05
-0.000204233
0.000257495
4.24075e-05
1.68284e-05
-4.21324e-05
4.27064e-05
1.8192e-05
4.3028e-05
1.96648e-05
4.33765e-05
2.12578e-05
4.37526e-05
2.29788e-05
4.41598e-05
2.4836e-05
4.45999e-05
2.68386e-05
4.50767e-05
2.89967e-05
4.55928e-05
3.13093e-05
4.61526e-05
3.3813e-05
4.67573e-05
3.65271e-05
4.7413e-05
3.94556e-05
4.8121e-05
4.26151e-05
4.88904e-05
4.59867e-05
4.9723e-05
4.96117e-05
5.06258e-05
5.35708e-05
5.16009e-05
5.78389e-05
5.26617e-05
6.23455e-05
5.38101e-05
6.72436e-05
5.5054e-05
7.25766e-05
5.64029e-05
7.82152e-05
5.78669e-05
8.43002e-05
5.94493e-05
9.09443e-05
6.1169e-05
9.78992e-05
6.30287e-05
0.000105541
6.50431e-05
0.00011368
6.72242e-05
0.0001224
6.95819e-05
0.00013183
7.21337e-05
0.000141831
7.48889e-05
0.000152667
7.78668e-05
0.000164147
8.10784e-05
0.000176514
8.45411e-05
0.000189651
8.82712e-05
0.000203667
9.2285e-05
0.0002186
9.66033e-05
0.000234355
0.00010124
0.000251102
0.000106213
0.000268713
0.00011154
0.000287173
0.000117235
0.000306483
0.000123312
0.000326507
0.000129784
0.000347104
0.000136657
0.000368118
0.000143935
0.000389284
0.000151614
0.000410253
0.000159683
0.00043058
0.000168117
0.000449684
0.000176883
0.000466823
0.000185922
0.000481059
0.000195165
0.000491215
0.000204498
0.000495831
0.000213801
0.000493101
0.00022288
0.000480842
0.00023151
0.000456407
0.000239409
0.000416681
0.000246232
0.000357901
0.000251561
0.000276039
0.000254928
0.00016887
0.000255673
3.43426e-05
-0.000201666
0.000252912
4.16792e-05
1.65576e-05
-4.14081e-05
4.19728e-05
1.78994e-05
4.22887e-05
1.93486e-05
4.26309e-05
2.09162e-05
4.30001e-05
2.26095e-05
4.33998e-05
2.44367e-05
4.38316e-05
2.64068e-05
4.42996e-05
2.85295e-05
4.4806e-05
3.08029e-05
4.53555e-05
3.32647e-05
4.59489e-05
3.59339e-05
4.65925e-05
3.88137e-05
4.72872e-05
4.19203e-05
4.80424e-05
4.52334e-05
4.88595e-05
4.87943e-05
4.97455e-05
5.26863e-05
5.07023e-05
5.68817e-05
5.17432e-05
6.13056e-05
5.287e-05
6.61162e-05
5.40905e-05
7.13567e-05
5.5414e-05