/*--------------------------------*- C++ -*----------------------------------*\
  =========                 |
  \\      /  F ield         | OpenFOAM: The Open Source CFD Toolbox
   \\    /   O peration     | Website:  https://openfoam.org
    \\  /    A nd           | Version:  6.0
     \\/     M anipulation  |
\*---------------------------------------------------------------------------*/
FoamFile
{
    version     2.0;
    format      ascii;
    class       surfaceScalarField;
    location    "2.22";
    object      phi;
}
// * * * * * * * * * * * * * * * * * * * * * * * * * * * * * * * * * * * * * //

dimensions      [0 3 -1 0 0 0 0];

internalField   nonuniform List<scalar> 
26699
(
2.0051e-05
0.005201
4.4498e-10
4.0126e-05
0.0051116
5.9639e-05
0.0049351
7.8186e-05
0.0046741
9.5416e-05
0.0043332
0.00011102
0.0039182
0.00012472
0.0034362
0.00013626
0.0028953
0.00014546
0.002305
0.00015182
0.0016755
0.00015717
0.0010154
0.00046492
3.4455e-05
2.0051e-05
0.0051809
1.4072e-09
4.0127e-05
0.0050916
5.9641e-05
0.0049155
7.8189e-05
0.0046556
9.5419e-05
0.004316
0.00011102
0.0039026
0.00012471
0.0034225
0.00013624
0.0028838
0.00014545
0.0022958
0.00015106
0.0016699
0.00015891
0.0010076
0.00055869
6.5141e-05
2.0051e-05
0.0051609
2.4464e-09
4.0128e-05
0.0050715
5.9644e-05
0.004896
7.8192e-05
0.004637
9.5422e-05
0.0042988
0.00011102
0.003887
0.00012471
0.0034088
0.00013622
0.0028723
0.00014546
0.0022865
0.0001503
0.001665
0.00016018
0.00099768
0.00062851
9.0368e-05
2.0052e-05
0.0051408
3.4936e-09
4.013e-05
0.0050514
5.9646e-05
0.0048765
7.8195e-05
0.0046185
9.5425e-05
0.0042815
0.00011102
0.0038714
0.0001247
0.0033951
0.00013619
0.0028608
0.0001455
0.0022772
0.00014956
0.001661
0.00016091
0.00098632
0.00067878
0.00011063
2.0052e-05
0.0051208
4.5422e-09
4.0131e-05
0.0050313
5.9648e-05
0.004857
7.8198e-05
0.0045999
9.5428e-05
0.0042643
0.00011103
0.0038558
0.0001247
0.0033814
0.00013617
0.0028493
0.00014557
0.0022678
0.00014886
0.0016577
0.00016112
0.00097406
0.00071318
0.00012672
2.0052e-05
0.0051007
5.5922e-09
4.0132e-05
0.0050112
5.9651e-05
0.0048375
7.8201e-05
0.0045814
9.5431e-05
0.0042471
0.00011103
0.0038402
0.0001247
0.0033678
0.00013613
0.0028379
0.00014566
0.0022583
0.00014824
0.0016551
0.00016088
0.00096142
0.00073475
0.00013931
2.0052e-05
0.0050807
6.6433e-09
4.0134e-05
0.0049912
5.9653e-05
0.004818
7.8204e-05
0.0045628
9.5434e-05
0.0042298
0.00011103
0.0038246
0.0001247
0.0033541
0.0001361
0.0028265
0.00014576
0.0022486
0.0001477
0.0016532
0.00016028
0.00094884
0.00074606
0.00014897
2.0052e-05
0.0050606
7.6958e-09
4.0135e-05
0.0049711
5.9655e-05
0.0047984
7.8207e-05
0.0045443
9.5438e-05
0.0042126
0.00011103
0.003809
0.0001247
0.0033404
0.00013606
0.0028151
0.00014588
0.0022388
0.00014726
0.0016518
0.00015941
0.00093669
0.00074928
0.00015619
2.0052e-05
0.0050405
8.7498e-09
4.0136e-05
0.004951
5.9658e-05
0.0047789
7.821e-05
0.0045257
9.5441e-05
0.0041954
0.00011103
0.0037934
0.0001247
0.0033267
0.00013602
0.0028038
0.00014601
0.0022288
0.00014693
0.0016509
0.00015836
0.00092526
0.00074623
0.00016141
2.0053e-05
0.0050205
9.8052e-09
4.0138e-05
0.0049309
5.966e-05
0.0047594
7.8214e-05
0.0045072
9.5444e-05
0.0041782
0.00011103
0.0037778
0.0001247
0.0033131
0.00013598
0.0027926
0.00014614
0.0022186
0.0001467
0.0016503
0.00015721
0.00091475
0.00073843
0.00016501
2.0053e-05
0.0050004
1.0862e-08
4.0139e-05
0.0049108
5.9663e-05
0.0047399
7.8217e-05
0.0044886
9.5447e-05
0.0041609
0.00011104
0.0037623
0.00012471
0.0032994
0.00013593
0.0027813
0.00014628
0.0022083
0.00014659
0.00165
0.00015602
0.00090532
0.00072713
0.00016732
2.0053e-05
0.0049803
1.1921e-08
4.014e-05
0.0048907
5.9665e-05
0.0047203
7.822e-05
0.0044701
9.5451e-05
0.0041437
0.00011104
0.0037467
0.00012471
0.0032857
0.00013587
0.0027702
0.0001464
0.0021978
0.00014657
0.0016498
0.00015485
0.00089704
0.00071335
0.00016863
2.0053e-05
0.0049603
1.2981e-08
4.0142e-05
0.0048707
5.9667e-05
0.0047008
7.8223e-05
0.0044515
9.5454e-05
0.0041265
0.00011104
0.0037311
0.00012472
0.003272
0.00013582
0.0027591
0.00014652
0.0021871
0.00014665
0.0016497
0.00015373
0.00088996
0.00069793
0.00016915
2.0053e-05
0.0049402
1.4043e-08
4.0143e-05
0.0048506
5.967e-05
0.0046813
7.8226e-05
0.0044329
9.5458e-05
0.0041092
0.00011104
0.0037155
0.00012473
0.0032584
0.00013576
0.002748
0.00014663
0.0021762
0.00014681
0.0016495
0.00015271
0.00088406
0.00068154
0.0001691
2.0053e-05
0.0049201
1.5107e-08
4.0145e-05
0.0048305
5.9672e-05
0.0046618
7.8229e-05
0.0044144
9.5461e-05
0.004092
0.00011104
0.0036999
0.00012474
0.0032447
0.0001357
0.0027371
0.00014673
0.0021652
0.00014705
0.0016492
0.0001518
0.00087931
0.00066471
0.00016863
2.0054e-05
0.0049001
1.6172e-08
4.0146e-05
0.0048104
5.9674e-05
0.0046422
7.8232e-05
0.0043958
9.5465e-05
0.0040748
0.00011104
0.0036843
0.00012475
0.003231
0.00013564
0.0027262
0.00014681
0.002154
0.00014734
0.0016487
0.00015101
0.00087564
0.00064785
0.00016787
2.0054e-05
0.00488
1.724e-08
4.0147e-05
0.0047903
5.9677e-05
0.0046227
7.8236e-05
0.0043773
9.5468e-05
0.0040575
0.00011105
0.0036688
0.00012476
0.0032172
0.00013558
0.0027154
0.00014688
0.0021427
0.00014769
0.0016479
0.00015036
0.00087297
0.00063129
0.00016693
2.0054e-05
0.0048599
1.8309e-08
4.0149e-05
0.0047702
5.9679e-05
0.0046032
7.8239e-05
0.0043587
9.5472e-05
0.0040403
0.00011105
0.0036532
0.00012477
0.0032035
0.00013552
0.0027046
0.00014692
0.0021313
0.00014808
0.0016467
0.00014985
0.00087121
0.00061525
0.00016589
2.0054e-05
0.0048399
1.938e-08
4.015e-05
0.0047501
5.9682e-05
0.0045837
7.8242e-05
0.0043401
9.5476e-05
0.0040231
0.00011105
0.0036376
0.00012479
0.0031898
0.00013547
0.0026939
0.00014695
0.0021198
0.0001485
0.0016452
0.00014947
0.00087023
0.00059991
0.00016482
2.0054e-05
0.0048198
2.0453e-08
4.0151e-05
0.00473
5.9684e-05
0.0045641
7.8245e-05
0.0043216
9.5479e-05
0.0040058
0.00011105
0.003622
0.00012481
0.003176
0.00013541
0.0026833
0.00014696
0.0021083
0.00014893
0.0016432
0.00014922
0.00086994
0.00058537
0.00016376
2.0054e-05
0.0047997
2.1528e-08
4.0153e-05
0.0047099
5.9686e-05
0.0045446
7.8249e-05
0.004303
9.5483e-05
0.0039886
0.00011105
0.0036065
0.00012482
0.0031623
0.00013535
0.0026728
0.00014695
0.0020967
0.00014938
0.0016408
0.00014909
0.00087022
0.00057171
0.00016276
2.0054e-05
0.0047796
2.2605e-08
4.0154e-05
0.0046898
5.9689e-05
0.004525
7.8252e-05
0.0042845
9.5487e-05
0.0039714
0.00011105
0.0035909
0.00012484
0.0031485
0.0001353
0.0026623
0.00014692
0.002085
0.00014982
0.0016379
0.00014907
0.00087097
0.00055894
0.00016183
2.0055e-05
0.0047596
2.3684e-08
4.0155e-05
0.0046697
5.9691e-05
0.0045055
7.8255e-05
0.0042659
9.5491e-05
0.0039541
0.00011105
0.0035753
0.00012486
0.0031347
0.00013526
0.0026519
0.00014687
0.0020734
0.00015025
0.0016345
0.00014914
0.00087208
0.00054709
0.000161
2.0055e-05
0.0047395
2.4765e-08
4.0157e-05
0.0046496
5.9694e-05
0.004486
7.8259e-05
0.0042473
9.5495e-05
0.0039369
0.00011105
0.0035598
0.00012488
0.0031208
0.00013522
0.0026416
0.00014681
0.0020618
0.00015067
0.0016306
0.0001493
0.00087345
0.00053612
0.00016027
2.0055e-05
0.0047194
2.5849e-08
4.0158e-05
0.0046295
5.9696e-05
0.0044664
7.8262e-05
0.0042288
9.5499e-05
0.0039197
0.00011105
0.0035442
0.0001249
0.003107
0.00013518
0.0026313
0.00014673
0.0020503
0.00015106
0.0016263
0.00014952
0.00087499
0.000526
0.00015964
2.0055e-05
0.0046993
2.6934e-08
4.0159e-05
0.0046094
5.9699e-05
0.0044469
7.8265e-05
0.0042102
9.5504e-05
0.0039024
0.00011106
0.0035287
0.00012493
0.0030931
0.00013515
0.0026211
0.00014664
0.0020388
0.00015144
0.0016215
0.0001498
0.00087662
0.00051668
0.00015912
2.0055e-05
0.0046792
2.8022e-08
4.0161e-05
0.0045893
5.9701e-05
0.0044274
7.8269e-05
0.0041916
9.5508e-05
0.0038852
0.00011106
0.0035131
0.00012495
0.0030792
0.00013512
0.0026109
0.00014654
0.0020274
0.00015178
0.0016163
0.00015013
0.00087827
0.00050812
0.0001587
2.0055e-05
0.0046591
2.9112e-08
4.0162e-05
0.0045692
5.9703e-05
0.0044078
7.8272e-05
0.0041731
9.5512e-05
0.0038679
0.00011106
0.0034976
0.00012497
0.0030653
0.00013511
0.0026008
0.00014642
0.0020161
0.00015209
0.0016106
0.00015049
0.00087987
0.00050024
0.00015837
2.0055e-05
0.0046391
3.0205e-08
4.0163e-05
0.0045491
5.9706e-05
0.0043883
7.8276e-05
0.0041545
9.5517e-05
0.0038507
0.00011106
0.0034821
0.00012499
0.0030514
0.0001351
0.0025907
0.0001463
0.0020049
0.00015237
0.0016045
0.00015088
0.00088136
0.000493
0.00015812
2.0056e-05
0.004619
3.13e-08
4.0165e-05
0.004529
5.9708e-05
0.0043687
7.8279e-05
0.0041359
9.5522e-05
0.0038335
0.00011106
0.0034665
0.00012502
0.0030374
0.00013509
0.0025806
0.00014618
0.0019938
0.00015261
0.0015981
0.00015127
0.0008827
0.00048632
0.00015795
2.0056e-05
0.0045989
3.2398e-08
4.0166e-05
0.0045088
5.9711e-05
0.0043492
7.8282e-05
0.0041173
9.5526e-05
0.0038162
0.00011106
0.003451
0.00012504
0.0030234
0.0001351
0.0025706
0.00014604
0.0019828
0.00015283
0.0015913
0.00015168
0.00088385
0.00048015
0.00015784
2.0056e-05
0.0045788
3.3498e-08
4.0168e-05
0.0044887
5.9713e-05
0.0043296
7.8286e-05
0.0040988
9.5531e-05
0.003799
0.00011106
0.0034355
0.00012506
0.0030094
0.00013511
0.0025605
0.00014591
0.001972
0.000153
0.0015842
0.00015208
0.00088478
0.00047443
0.00015779
2.0056e-05
0.0045587
3.4601e-08
4.0169e-05
0.0044686
5.9716e-05
0.0043101
7.8289e-05
0.0040802
9.5536e-05
0.0037817
0.00011106
0.0034199
0.00012508
0.0029954
0.00013512
0.0025505
0.00014577
0.0019614
0.00015315
0.0015768
0.00015247
0.00088546
0.00046911
0.00015779
2.0056e-05
0.0045386
3.5707e-08
4.017e-05
0.0044485
5.9718e-05
0.0042905
7.8293e-05
0.0040616
9.5541e-05
0.0037645
0.00011106
0.0034044
0.0001251
0.0029813
0.00013515
0.0025404
0.00014564
0.0019509
0.00015327
0.0015692
0.00015285
0.00088588
0.00046413
0.00015783
2.0056e-05
0.0045185
3.6815e-08
4.0172e-05
0.0044284
5.9721e-05
0.004271
7.8297e-05
0.0040431
9.5547e-05
0.0037472
0.00011105
0.0033889
0.00012512
0.0029673
0.00013518
0.0025304
0.00014551
0.0019405
0.00015336
0.0015614
0.00015321
0.00088602
0.00045945
0.00015789
2.0056e-05
0.0044984
3.7926e-08
4.0173e-05
0.0044083
5.9723e-05
0.0042514
7.83e-05
0.0040245
9.5552e-05
0.00373
0.00011105
0.0033734
0.00012514
0.0029532
0.00013521
0.0025203
0.00014538
0.0019304
0.00015342
0.0015533
0.00015356
0.00088589
0.00045502
0.00015798
2.0057e-05
0.0044783
3.904e-08
4.0175e-05
0.0043882
5.9726e-05
0.0042319
7.8304e-05
0.0040059
9.5557e-05
0.0037127
0.00011105
0.0033579
0.00012516
0.0029391
0.00013525
0.0025102
0.00014526
0.0019204
0.00015346
0.0015451
0.00015388
0.00088546
0.00045081
0.00015809
2.0057e-05
0.0044582
4.0158e-08
4.0176e-05
0.004368
5.9729e-05
0.0042123
7.8308e-05
0.0039873
9.5563e-05
0.0036955
0.00011105
0.0033424
0.00012517
0.002925
0.0001353
0.0025001
0.00014514
0.0019105
0.00015347
0.0015368
0.00015418
0.00088476
0.00044678
0.00015821
2.0057e-05
0.0044381
4.1278e-08
4.0177e-05
0.0043479
5.9731e-05
0.0041928
7.8311e-05
0.0039687
9.5569e-05
0.0036782
0.00011105
0.0033269
0.00012519
0.0029108
0.00013535
0.0024899
0.00014504
0.0019008
0.00015347
0.0015284
0.00015446
0.00088377
0.0004429
0.00015834
2.0057e-05
0.004418
4.2401e-08
4.0179e-05
0.0043278
5.9734e-05
0.0041732
7.8315e-05
0.0039502
9.5574e-05
0.0036609
0.00011106
0.0033115
0.0001252
0.0028967
0.00013541
0.0024797
0.00014494
0.0018913
0.00015346
0.0015198
0.00015471
0.00088252
0.00043915
0.00015847
2.0057e-05
0.0043979
4.3528e-08
4.018e-05
0.0043077
5.9736e-05
0.0041537
7.8319e-05
0.0039316
9.558e-05
0.0036437
0.00011106
0.003296
0.00012521
0.0028826
0.00013547
0.0024694
0.00014485
0.0018819
0.00015343
0.0015113
0.00015494
0.000881
0.00043549
0.0001586
2.0057e-05
0.0043778
4.4657e-08
4.0182e-05
0.0042876
5.9739e-05
0.0041341
7.8322e-05
0.003913
9.5586e-05
0.0036264
0.00011106
0.0032805
0.00012522
0.0028684
0.00013553
0.0024591
0.00014477
0.0018727
0.00015339
0.0015026
0.00015516
0.00087924
0.00043192
0.00015873
2.0057e-05
0.0043577
4.5791e-08
4.0183e-05
0.0042674
5.9742e-05
0.0041146
7.8326e-05
0.0038944
9.5592e-05
0.0036091
0.00011106
0.0032651
0.00012523
0.0028542
0.00013559
0.0024488
0.0001447
0.0018636
0.00015334
0.001494
0.00015535
0.00087723
0.00042841
0.00015885
2.0058e-05
0.0043376
4.6927e-08
4.0185e-05
0.0042473
5.9744e-05
0.004095
7.833e-05
0.0038758
9.5599e-05
0.0035919
0.00011106
0.0032496
0.00012524
0.00284
0.00013566
0.0024383
0.00014464
0.0018546
0.00015329
0.0014853
0.00015552
0.00087501
0.00042495
0.00015898
2.0058e-05
0.0043175
4.8067e-08
4.0186e-05
0.0042272
5.9747e-05
0.0040754
7.8334e-05
0.0038572
9.5605e-05
0.0035746
0.00011106
0.0032341
0.00012524
0.0028259
0.00013572
0.0024279
0.00014458
0.0018458
0.00015324
0.0014767
0.00015567
0.00087258
0.00042153
0.00015909
2.0058e-05
0.0042974
4.9211e-08
4.0188e-05
0.004207
5.975e-05
0.0040559
7.8338e-05
0.0038386
9.5611e-05
0.0035573
0.00011106
0.0032187
0.00012525
0.0028117
0.00013579
0.0024173
0.00014454
0.001837
0.00015318
0.001468
0.00015581
0.00086995
0.00041814
0.0001592
2.0058e-05
0.0042773
5.0358e-08
4.0189e-05
0.0041869
5.9753e-05
0.0040363
7.8341e-05
0.0038201
9.5618e-05
0.0035401
0.00011107
0.0032032
0.00012525
0.0027975
0.00013586
0.0024067
0.00014451
0.0018284
0.00015312
0.0014594
0.00015593
0.00086713
0.00041477
0.00015931
2.0058e-05
0.0042572
5.1509e-08
4.0191e-05
0.0041668
5.9755e-05
0.0040168
7.8345e-05
0.0038015
9.5625e-05
0.0035228
0.00011107
0.0031878
0.00012526
0.0027833
0.00013593
0.002396
0.00014449
0.0018198
0.00015307
0.0014508
0.00015605
0.00086415
0.00041141
0.0001594
2.0058e-05
0.0042371
5.2664e-08
4.0192e-05
0.0041466
5.9758e-05
0.0039972
7.8349e-05
0.0037829
9.5632e-05
0.0035055
0.00011107
0.0031724
0.00012526
0.0027691
0.00013599
0.0023853
0.00014447
0.0018113
0.00015301
0.0014423
0.00015615
0.00086102
0.00040807
0.00015949
2.0058e-05
0.004217
5.3823e-08
4.0194e-05
0.0041265
5.9761e-05
0.0039776
7.8353e-05
0.0037643
9.5639e-05
0.0034882
0.00011107
0.0031569
0.00012526
0.0027549
0.00013606
0.0023745
0.00014446
0.0018029
0.00015297
0.0014338
0.00015624
0.00085774
0.00040473
0.00015958
2.0059e-05
0.0041969
5.4986e-08
4.0195e-05
0.0041064
5.9764e-05
0.003958
7.8357e-05
0.0037457
9.5646e-05
0.0034709
0.00011108
0.0031415
0.00012526
0.0027407
0.00013612
0.0023636
0.00014447
0.0017946
0.00015292
0.0014253
0.00015633
0.00085434
0.0004014
0.00015966
2.0059e-05
0.0041767
5.6154e-08
4.0197e-05
0.0040862
5.9767e-05
0.0039385
7.8361e-05
0.0037271
9.5653e-05
0.0034536
0.00011108
0.0031261
0.00012526
0.0027266
0.00013619
0.0023527
0.00014447
0.0017863
0.00015288
0.0014169
0.0001564
0.00085082
0.00039807
0.00015973
2.0059e-05
0.0041566
5.7325e-08
4.0198e-05
0.0040661
5.9769e-05
0.0039189
7.8365e-05
0.0037085
9.566e-05
0.0034363
0.00011109
0.0031106
0.00012526
0.0027124
0.00013625
0.0023417
0.00014449
0.001778
0.00015285
0.0014086
0.00015648
0.00084719
0.00039475
0.0001598
2.0059e-05
0.0041365
5.8501e-08
4.02e-05
0.004046
5.9772e-05
0.0038993
7.8369e-05
0.0036899
9.5668e-05
0.003419
0.00011109
0.0030952
0.00012526
0.0026982
0.00013631
0.0023307
0.00014451
0.0017699
0.00015282
0.0014003
0.00015655
0.00084346
0.00039143
0.00015987
2.0059e-05
0.0041164
5.9682e-08
4.0201e-05
0.0040258
5.9775e-05
0.0038798
7.8373e-05
0.0036713
9.5675e-05
0.0034017
0.0001111
0.0030798
0.00012525
0.0026841
0.00013637
0.0023196
0.00014453
0.0017617
0.0001528
0.001392
0.00015661
0.00083964
0.00038811
0.00015993
2.0059e-05
0.0040963
6.0867e-08
4.0203e-05
0.0040057
5.9778e-05
0.0038602
7.8377e-05
0.0036527
9.5683e-05
0.0033844
0.0001111
0.0030644
0.00012525
0.0026699
0.00013642
0.0023084
0.00014456
0.0017535
0.00015278
0.0013838
0.00015667
0.00083575
0.00038479
0.00015999
2.006e-05
0.0040761
6.2057e-08
4.0204e-05
0.0039855
5.9781e-05
0.0038406
7.8381e-05
0.0036341
9.5691e-05
0.0033671
0.00011111
0.003049
0.00012525
0.0026558
0.00013647
0.0022972
0.00014459
0.0017454
0.00015277
0.0013756
0.00015673
0.00083178
0.00038148
0.00016004
2.006e-05
0.004056
6.3251e-08
4.0206e-05
0.0039654
5.9784e-05
0.003821
7.8386e-05
0.0036155
9.5699e-05
0.0033498
0.00011111
0.0030335
0.00012525
0.0026416
0.00013653
0.0022859
0.00014463
0.0017373
0.00015276
0.0013675
0.00015679
0.00082775
0.00037818
0.0001601
2.006e-05
0.0040359
6.4451e-08
4.0208e-05
0.0039452
5.9787e-05
0.0038014
7.839e-05
0.0035969
9.5707e-05
0.0033325
0.00011112
0.0030181
0.00012524
0.0026275
0.00013657
0.0022746
0.00014467
0.0017292
0.00015276
0.0013594
0.00015685
0.00082366
0.00037488
0.00016015
2.006e-05
0.0040158
6.5656e-08
4.0209e-05
0.0039251
5.979e-05
0.0037819
7.8394e-05
0.0035783
9.5715e-05
0.0033152
0.00011113
0.0030027
0.00012524
0.0026134
0.00013662
0.0022632
0.00014471
0.0017211
0.00015276
0.0013513
0.00015691
0.00081952
0.00037159
0.0001602
2.006e-05
0.0039956
6.6866e-08
4.0211e-05
0.0039049
5.9794e-05
0.0037623
7.8398e-05
0.0035597
9.5723e-05
0.0032978
0.00011114
0.0029873
0.00012524
0.0025993
0.00013667
0.0022517
0.00014476
0.001713
0.00015277
0.0013433
0.00015696
0.00081533
0.00036831
0.00016024
2.0061e-05
0.0039755
6.8081e-08
4.0212e-05
0.0038848
5.9797e-05
0.0037427
7.8402e-05
0.0035411
9.5732e-05
0.0032805
0.00011114
0.0029719
0.00012523
0.0025852
0.00013671
0.0022403
0.0001448
0.0017049
0.00015278
0.0013354
0.00015702
0.0008111
0.00036504
0.00016029
2.0061e-05
0.0039554
6.9302e-08
4.0214e-05
0.0038646
5.98e-05
0.0037231
7.8406e-05
0.0035225
9.574e-05
0.0032632
0.00011115
0.0029565
0.00012523
0.0025711
0.00013675
0.0022287
0.00014485
0.0016968
0.0001528
0.0013274
0.00015707
0.00080682
0.00036178
0.00016033
2.0061e-05
0.0039353
7.0528e-08
4.0216e-05
0.0038445
5.9803e-05
0.0037035
7.841e-05
0.0035039
9.5749e-05
0.0032458
0.00011116
0.0029411
0.00012523
0.0025571
0.00013679
0.0022172
0.0001449
0.0016887
0.00015282
0.0013195
0.00015713
0.00080252
0.00035853
0.00016037
2.0061e-05
0.0039151
7.176e-08
4.0217e-05
0.0038243
5.9807e-05
0.0036839
7.8415e-05
0.0034853
9.5758e-05
0.0032285
0.00011117
0.0029257
0.00012523
0.002543
0.00013683
0.0022056
0.00014495
0.0016806
0.00015284
0.0013116
0.00015718
0.00079818
0.0003553
0.00016041
2.0061e-05
0.003895
7.2998e-08
4.0219e-05
0.0038042
5.981e-05
0.0036643
7.8419e-05
0.0034667
9.5767e-05
0.0032112
0.00011118
0.0029102
0.00012522
0.002529
0.00013687
0.0021939
0.000145
0.0016725
0.00015287
0.0013037
0.00015724
0.00079381
0.00035208
0.00016045
2.0062e-05
0.0038749
7.4242e-08
4.0221e-05
0.003784
5.9813e-05
0.0036448
7.8423e-05
0.0034481
9.5776e-05
0.0031938
0.00011119
0.0028948
0.00012522
0.0025149
0.0001369
0.0021823
0.00014505
0.0016643
0.0001529
0.0012959
0.00015729
0.00078941
0.00034888
0.00016049
2.0062e-05
0.0038547
7.5493e-08
4.0222e-05
0.0037638
5.9817e-05
0.0036252
7.8427e-05
0.0034294
9.5785e-05
0.0031764
0.0001112
0.0028794
0.00012522
0.0025009
0.00013694
0.0021705
0.0001451
0.0016562
0.00015293
0.0012881
0.00015735
0.000785
0.00034569
0.00016053
2.0062e-05
0.0038346
7.6749e-08
4.0224e-05
0.0037437
5.982e-05
0.0036056
7.8432e-05
0.0034108
9.5795e-05
0.0031591
0.00011121
0.002864
0.00012522
0.0024869
0.00013697
0.0021588
0.00014516
0.001648
0.00015296
0.0012803
0.0001574
0.00078056
0.00034252
0.00016057
2.0062e-05
0.0038144
7.8012e-08
4.0226e-05
0.0037235
5.9824e-05
0.003586
7.8436e-05
0.0033922
9.5804e-05
0.0031417
0.00011122
0.0028486
0.00012522
0.0024729
0.000137
0.002147
0.00014521
0.0016398
0.00015299
0.0012725
0.00015745
0.0007761
0.00033937
0.00016061
2.0063e-05
0.0037943
7.9282e-08
4.0228e-05
0.0037033
5.9828e-05
0.0035664
7.844e-05
0.0033736
9.5814e-05
0.0031243
0.00011123
0.0028332
0.00012522
0.0024589
0.00013703
0.0021352
0.00014526
0.0016315
0.00015303
0.0012647
0.00015751
0.00077162
0.00033624
0.00016064
2.0063e-05
0.0037742
8.0558e-08
4.0229e-05
0.0036832
5.9831e-05
0.0035468
7.8444e-05
0.003355
9.5823e-05
0.003107
0.00011124
0.0028177
0.00012522
0.002445
0.00013706
0.0021233
0.00014531
0.0016233
0.00015306
0.001257
0.00015756
0.00076712
0.00033312
0.00016068
2.0063e-05
0.003754
8.1841e-08
4.0231e-05
0.003663
5.9835e-05
0.0035272
7.8449e-05
0.0033364
9.5833e-05
0.0030896
0.00011126
0.0028023
0.00012522
0.002431
0.00013709
0.0021115
0.00014536
0.001615
0.0001531
0.0012492
0.00015761
0.00076261
0.00033002
0.00016071
2.0063e-05
0.0037339
8.3132e-08
4.0233e-05
0.0036428
5.9839e-05
0.0035076
7.8453e-05
0.0033178
9.5843e-05
0.0030722
0.00011127
0.0027869
0.00012522
0.002417
0.00013712
0.0020996
0.00014542
0.0016067
0.00015314
0.0012415
0.00015767
0.00075808
0.00032694
0.00016075
2.0064e-05
0.0037137
8.4429e-08
4.0235e-05
0.0036227
5.9843e-05
0.0034879
7.8457e-05
0.0032992
9.5853e-05
0.0030548
0.00011128
0.0027715
0.00012522
0.0024031
0.00013715
0.0020876
0.00014547
0.0015984
0.00015318
0.0012338
0.00015772
0.00075354
0.00032388
0.00016078
2.0064e-05
0.0036936
8.5734e-08
4.0237e-05
0.0036025
5.9847e-05
0.0034683
7.8462e-05
0.0032805
9.5863e-05
0.0030374
0.0001113
0.002756
0.00012522
0.0023892
0.00013718
0.0020757
0.00014552
0.0015901
0.00015322
0.0012261
0.00015777
0.00074899
0.00032083
0.00016081
2.0064e-05
0.0036734
8.7047e-08
4.0238e-05
0.0035823
5.9851e-05
0.0034487
7.8466e-05
0.0032619
9.5873e-05
0.00302
0.00011131
0.0027406
0.00012522
0.0023753
0.0001372
0.0020637
0.00014557
0.0015817
0.00015326
0.0012184
0.00015782
0.00074442
0.00031781
0.00016085
2.0065e-05
0.0036533
8.8367e-08
4.024e-05
0.0035621
5.9855e-05
0.0034291
7.847e-05
0.0032433
9.5883e-05
0.0030026
0.00011132
0.0027252
0.00012522
0.0023614
0.00013723
0.0020517
0.00014562
0.0015733
0.00015329
0.0012107
0.00015787
0.00073985
0.0003148
0.00016088
2.0065e-05
0.0036331
8.9696e-08
4.0242e-05
0.003542
5.9859e-05
0.0034095
7.8475e-05
0.0032247
9.5893e-05
0.0029851
0.00011134
0.0027097
0.00012523
0.0023475
0.00013726
0.0020396
0.00014567
0.0015649
0.00015333
0.0012031
0.00015792
0.00073526
0.00031181
0.00016091
2.0065e-05
0.0036129
9.1032e-08
4.0244e-05
0.0035218
5.9863e-05
0.0033899
7.8479e-05
0.0032061
9.5903e-05
0.0029677
0.00011136
0.0026943
0.00012523
0.0023336
0.00013728
0.0020276
0.00014572
0.0015565
0.00015337
0.0011954
0.00015797
0.00073067
0.00030884
0.00016094
2.0065e-05
0.0035928
9.2377e-08
4.0246e-05
0.0035016
5.9867e-05
0.0033703
7.8484e-05
0.0031875
9.5912e-05
0.0029503
0.00011137
0.0026788
0.00012523
0.0023198
0.00013731
0.0020155
0.00014577
0.001548
0.00015341
0.0011878
0.00015802
0.00072607
0.00030588
0.00016097
2.0066e-05
0.0035726
9.373e-08
4.0248e-05
0.0034814
5.9872e-05
0.0033506
7.8488e-05
0.0031688
9.5922e-05
0.0029329
0.00011139
0.0026633
0.00012524
0.0023059
0.00013733
0.0020034
0.00014582
0.0015395
0.00015345
0.0011801
0.00015806
0.00072145
0.00030295
0.000161
2.0066e-05
0.0035525
9.5091e-08
4.025e-05
0.0034612
5.9876e-05
0.003331
7.8493e-05
0.0031502
9.5932e-05
0.0029154
0.00011141
0.0026479
0.00012524
0.0022921
0.00013736
0.0019913
0.00014587
0.001531
0.00015349
0.0011725
0.00015811
0.00071684
0.00030003
0.00016103
2.0066e-05
0.0035323
9.6462e-08
4.0252e-05
0.0034411
5.9881e-05
0.0033114
7.8498e-05
0.0031316
9.5942e-05
0.002898
0.00011142
0.0026324
0.00012525
0.0022782
0.00013739
0.0019792
0.00014592
0.0015225
0.00015353
0.0011649
0.00015816
0.00071221
0.00029713
0.00016106
2.0067e-05
0.0035121
9.7842e-08
4.0254e-05
0.0034209
5.9885e-05
0.0032917
7.8503e-05
0.003113
9.5952e-05
0.0028805
0.00011144
0.0026169
0.00012526
0.0022644
0.00013741
0.001967
0.00014597
0.0015139
0.00015357
0.0011573
0.00015821
0.00070758
0.00029425
0.00016109
2.0067e-05
0.003492
9.9231e-08
4.0256e-05
0.0034007
5.989e-05
0.0032721
7.8508e-05
0.0030944
9.5962e-05
0.0028631
0.00011146
0.0026014
0.00012527
0.0022506
0.00013744
0.0019548
0.00014602
0.0015053
0.00015361
0.0011497
0.00015825
0.00070294
0.00029138
0.00016112
2.0068e-05
0.0034718
1.0063e-07
4.0258e-05
0.0033805
5.9895e-05
0.0032525
7.8513e-05
0.0030758
9.5971e-05
0.0028456
0.00011148
0.0025859
0.00012528
0.0022368
0.00013746
0.0019426
0.00014607
0.0014967
0.00015365
0.0011421
0.0001583
0.00069829
0.00028853
0.00016115
2.0068e-05
0.0034516
1.0204e-07
4.026e-05
0.0033603
5.9899e-05
0.0032328
7.8518e-05
0.0030571
9.5981e-05
0.0028282
0.0001115
0.0025704
0.00012528
0.002223
0.00013749
0.0019304
0.00014612
0.0014881
0.00015369
0.0011346
0.00015834
0.00069365
0.0002857
0.00016117
2.0068e-05
0.0034315
1.0345e-07
4.0262e-05
0.0033401
5.9904e-05
0.0032132
7.8523e-05
0.0030385
9.599e-05
0.0028107
0.00011152
0.0025548
0.0001253
0.0022093
0.00013751
0.0019182
0.00014616
0.0014794
0.00015373
0.001127
0.00015839
0.00068899
0.00028288
0.0001612
2.0069e-05
0.0034113
1.0488e-07
4.0264e-05
0.0033199
5.9909e-05
0.0031935
7.8528e-05
0.0030199
9.6e-05
0.0027932
0.00011154
0.0025393
0.00012531
0.0021955
0.00013754
0.001906
0.00014621
0.0014708
0.00015377
0.0011194
0.00015843
0.00068433
0.00028008
0.00016123
2.0069e-05
0.0033911
1.0632e-07
4.0266e-05
0.0032997
5.9914e-05
0.0031739
7.8534e-05
0.0030013
9.6009e-05
0.0027757
0.00011156
0.0025238
0.00012532
0.0021817
0.00013756
0.0018938
0.00014626
0.0014621
0.00015381
0.0011119
0.00015847
0.00067967
0.0002773
0.00016126
2.007e-05
0.0033709
1.0777e-07
4.0268e-05
0.0032795
5.9919e-05
0.0031542
7.854e-05
0.0029827
9.6018e-05
0.0027583
0.00011158
0.0025082
0.00012533
0.002168
0.00013759
0.0018815
0.00014631
0.0014533
0.00015385
0.0011043
0.00015851
0.000675
0.00027453
0.00016128
2.007e-05
0.0033508
1.0923e-07
4.027e-05
0.0032593
5.9924e-05
0.0031346
7.8546e-05
0.002964
9.6028e-05
0.0027408
0.0001116
0.0024926
0.00012535
0.0021542
0.00013761
0.0018692
0.00014635
0.0014446
0.00015389
0.0010968
0.00015856
0.00067033
0.00027178
0.00016131
2.0071e-05
0.0033306
1.107e-07
4.0272e-05
0.0032391
5.993e-05
0.0031149
7.8552e-05
0.0029454
9.6037e-05
0.0027233
0.00011162
0.002477
0.00012536
0.0021405
0.00013764
0.001857
0.0001464
0.0014358
0.00015393
0.0010893
0.0001586
0.00066566
0.00026904
0.00016134
2.0071e-05
0.0033104
1.1218e-07
4.0274e-05
0.0032189
5.9935e-05
0.0030953
7.8558e-05
0.0029268
9.6046e-05
0.0027058
0.00011164
0.0024614
0.00012538
0.0021268
0.00013766
0.0018447
0.00014645
0.001427
0.00015396
0.0010818
0.00015864
0.00066098
0.00026632
0.00016136
2.0072e-05
0.0032902
1.1368e-07
4.0276e-05
0.0031987
5.994e-05
0.0030756
7.8564e-05
0.0029082
9.6055e-05
0.0026883
0.00011166
0.0024458
0.00012539
0.002113
0.00013769
0.0018324
0.00014649
0.0014182
0.000154
0.0010742
0.00015868
0.0006563
0.00026362
0.00016139
2.0072e-05
0.00327
1.1518e-07
4.0279e-05
0.0031785
5.9946e-05
0.0030559
7.8571e-05
0.0028895
9.6064e-05
0.0026708
0.00011169
0.0024302
0.00012541
0.0020993
0.00013771
0.0018201
0.00014654
0.0014094
0.00015404
0.0010667
0.00015872
0.00065162
0.00026092
0.00016142
2.0073e-05
0.0032498
1.167e-07
4.0281e-05
0.0031583
5.9951e-05
0.0030363
7.8578e-05
0.0028709
9.6074e-05
0.0026533
0.00011171
0.0024146
0.00012543
0.0020856
0.00013774
0.0018078
0.00014658
0.0014006
0.00015408
0.0010592
0.00015876
0.00064694
0.00025825
0.00016144
2.0073e-05
0.0032296
1.1823e-07
4.0283e-05
0.0031381
5.9957e-05
0.0030166
7.8585e-05
0.0028523
9.6083e-05
0.0026358
0.00011173
0.0023989
0.00012544
0.0020719
0.00013776
0.0017955
0.00014663
0.0013917
0.00015412
0.0010517
0.0001588
0.00064225
0.00025558
0.00016147
2.0074e-05
0.0032094
1.1977e-07
4.0285e-05
0.0031179
5.9962e-05
0.0029969
7.8592e-05
0.0028337
9.6092e-05
0.0026183
0.00011175
0.0023833
0.00012546
0.0020582
0.00013779
0.0017831
0.00014667
0.0013828
0.00015416
0.0010443
0.00015884
0.00063757
0.00025293
0.00016149
2.0074e-05
0.0031893
1.2132e-07
4.0288e-05
0.0030977
5.9968e-05
0.0029772
7.8599e-05
0.002815
9.6101e-05
0.0026008
0.00011178
0.0023676
0.00012548
0.0020445
0.00013781
0.0017708
0.00014672
0.0013739
0.0001542
0.0010368
0.00015888
0.00063288
0.0002503
0.00016152
2.0075e-05
0.0031691
1.2289e-07
4.029e-05
0.0030774
5.9974e-05
0.0029576
7.8607e-05
0.0027964
9.6111e-05
0.0025833
0.0001118
0.0023519
0.0001255
0.0020307
0.00013784
0.0017585
0.00014676
0.001365
0.00015423
0.0010293
0.00015892
0.00062819
0.00024768
0.00016155
2.0075e-05
0.0031489
1.2447e-07
4.0293e-05
0.0030572
5.998e-05
0.0029379
7.8615e-05
0.0027778
9.612e-05
0.0025658
0.00011182
0.0023362
0.00012552
0.002017
0.00013786
0.0017461
0.00014681
0.001356
0.00015427
0.0010218
0.00015896
0.0006235
0.00024507
0.00016157
2.0076e-05
0.0031287
1.2606e-07
4.0295e-05
0.003037
5.9985e-05
0.0029182
7.8623e-05
0.0027591
9.613e-05
0.0025483
0.00011184
0.0023205
0.00012554
0.0020033
0.00013789
0.0017338
0.00014685
0.0013471
0.00015431
0.0010144
0.000159
0.00061881
0.00024247
0.0001616
2.0077e-05
0.0031085
1.2767e-07
4.0298e-05
0.0030168
5.9991e-05
0.0028985
7.8632e-05
0.0027405
9.6139e-05
0.0025308
0.00011187
0.0023048
0.00012557
0.0019896
0.00013791
0.0017215
0.00014689
0.0013381
0.00015435
0.0010069
0.00015904
0.00061411
0.00023989
0.00016162
2.0077e-05
0.0030882
1.2929e-07
4.03e-05
0.0029966
5.9997e-05
0.0028788
7.864e-05
0.0027218
9.6149e-05
0.0025133
0.00011189
0.002289
0.00012559
0.0019759
0.00013794
0.0017091
0.00014694
0.0013291
0.00015439
0.00099949
0.00015908
0.00060942
0.00023732
0.00016165
2.0078e-05
0.003068
1.3093e-07
4.0303e-05
0.0029763
6.0003e-05
0.0028591
7.8649e-05
0.0027032
9.6159e-05
0.0024958
0.00011191
0.0022733
0.00012561
0.0019623
0.00013796
0.0016968
0.00014698
0.0013201
0.00015443
0.00099204
0.00015912
0.00060473
0.00023476
0.00016168
2.0079e-05
0.0030478
1.3258e-07
4.0305e-05
0.0029561
6.0009e-05
0.0028394
7.8658e-05
0.0026845
9.6169e-05
0.0024783
0.00011194
0.0022575
0.00012563
0.0019486
0.00013799
0.0016844
0.00014702
0.001311
0.00015446
0.0009846
0.00015916
0.00060003
0.00023222
0.0001617
2.0079e-05
0.0030276
1.3425e-07
4.0308e-05
0.0029359
6.0016e-05
0.0028197
7.8668e-05
0.0026659
9.618e-05
0.0024608
0.00011196
0.0022417
0.00012566
0.0019349
0.00013801
0.0016721
0.00014707
0.001302
0.0001545
0.00097717
0.0001592
0.00059534
0.00022969
0.00016173
2.008e-05
0.0030074
1.3593e-07
4.0311e-05
0.0029157
6.0022e-05
0.0028
7.8678e-05
0.0026472
9.619e-05
0.0024432
0.00011199
0.0022259
0.00012568
0.0019212
0.00013804
0.0016597
0.00014711
0.0012929
0.00015454
0.00096973
0.00015924
0.00059064
0.00022717
0.00016175
2.0081e-05
0.0029872
1.3762e-07
4.0314e-05
0.0028954
6.0028e-05
0.0027802
7.8687e-05
0.0026286
9.6201e-05
0.0024257
0.00011201
0.0022101
0.00012571
0.0019075
0.00013806
0.0016473
0.00014715
0.0012838
0.00015458
0.00096231
0.00015927
0.00058595
0.00022466
0.00016178
2.0082e-05
0.002967
1.3933e-07
4.0317e-05
0.0028752
6.0034e-05
0.0027605
7.8698e-05
0.0026099
9.6212e-05
0.0024082
0.00011203
0.0021943
0.00012573
0.0018938